/*--------------------------------*- C++ -*----------------------------------*\
| =========                 |                                                 |
| \\      /  F ield         | OpenFOAM: The Open Source CFD Toolbox           |
|  \\    /   O peration     | Version:  2.2.x                                 |
|   \\  /    A nd           | Web:      www.OpenFOAM.org                      |
|    \\/     M anipulation  |                                                 |
\*---------------------------------------------------------------------------*/
FoamFile
{
    version     2.0;
    format      ascii;
    class       volScalarField;
    location    "1.2";
    object      Ma;
}
// * * * * * * * * * * * * * * * * * * * * * * * * * * * * * * * * * * * * * //

dimensions      [0 0 0 0 0 0 0];

internalField   nonuniform List<scalar> 
14161
(
2.59808
2.59808
2.59808
2.59808
2.59808
2.59808
2.59808
2.59808
2.59808
2.59808
2.59808
2.59808
2.59808
2.59808
2.59808
2.59808
2.59808
2.59808
2.59808
2.59808
2.59802
2.59811
2.55159
1.01085
0.5212
0.508071
0.501031
0.493635
0.485919
0.478353
0.471266
0.464587
0.458154
0.451925
0.445958
0.440354
0.435138
0.430277
0.425662
0.421445
0.417494
0.413726
0.4101
0.406615
0.403268
0.399955
0.396571
0.393162
0.389737
0.386352
0.383052
0.379775
0.376557
0.373457
0.370443
0.367449
0.364497
0.36164
0.358729
0.355688
0.352553
0.349347
0.346085
0.34278
0.339433
0.336034
0.332558
0.328971
0.325264
0.321458
0.317568
0.313606
0.309601
0.305607
0.301603
0.297707
0.293782
0.289693
0.285427
0.280982
0.276364
0.271591
0.266733
0.261846
0.25699
0.252157
0.247322
0.242474
0.23761
0.232682
0.227644
0.222451
0.217094
0.211585
0.205998
0.200302
0.194397
0.188314
0.182051
0.175615
0.169015
0.162253
0.155324
0.148211
0.140883
0.133355
0.125617
0.117673
0.109519
0.101129
0.0924528
0.0834131
0.0739474
0.0640222
0.0536286
0.0428136
0.0316445
0.0202382
0.0105956
2.59808
2.59808
2.59808
2.59808
2.59808
2.59808
2.59808
2.59808
2.59808
2.59808
2.59808
2.59808
2.59808
2.59808
2.59808
2.59808
2.59808
2.59808
2.59808
2.59808
2.59803
2.59813
2.55354
1.00899
0.521294
0.508112
0.500722
0.492955
0.484955
0.477224
0.470141
0.463485
0.45709
0.450907
0.444981
0.439408
0.434226
0.429401
0.424829
0.420658
0.416752
0.413034
0.409459
0.406029
0.402739
0.399487
0.3962
0.392907
0.389607
0.386334
0.383117
0.379906
0.376729
0.373638
0.370628
0.367629
0.364668
0.361793
0.358859
0.355795
0.352635
0.349399
0.346102
0.342756
0.339368
0.335926
0.332411
0.328802
0.3251
0.321304
0.317404
0.313395
0.309321
0.305268
0.301217
0.297286
0.293328
0.289215
0.284932
0.28049
0.275926
0.271279
0.266562
0.261775
0.256933
0.25208
0.247222
0.242354
0.237472
0.232529
0.227484
0.222294
0.216951
0.211462
0.205909
0.200248
0.194374
0.188316
0.182072
0.17565
0.169059
0.162302
0.155381
0.148288
0.140993
0.133512
0.125834
0.11797
0.109916
0.101649
0.0931223
0.0842706
0.075057
0.0654972
0.0556661
0.045748
0.0361653
0.0274804
0.0234085
2.59808
2.59808
2.59808
2.59808
2.59808
2.59808
2.59808
2.59808
2.59808
2.59808
2.59808
2.59808
2.59808
2.59808
2.59808
2.59808
2.59808
2.59808
2.59808
2.59808
2.59805
2.59812
2.55598
1.00778
0.520935
0.507368
0.499734
0.491775
0.483652
0.475872
0.468831
0.46224
0.455933
0.449872
0.444068
0.438581
0.433412
0.428577
0.423991
0.419803
0.415875
0.412144
0.408568
0.405159
0.401914
0.398731
0.395532
0.392337
0.389133
0.38594
0.382782
0.379615
0.376463
0.373366
0.370335
0.367305
0.364304
0.361385
0.358397
0.355274
0.352052
0.348751
0.345385
0.341968
0.338508
0.335002
0.33143
0.327786
0.324084
0.320321
0.316473
0.312526
0.308507
0.304494
0.300475
0.29657
0.292629
0.288519
0.284247
0.279842
0.275341
0.270768
0.266126
0.261413
0.256617
0.25175
0.246849
0.241929
0.236986
0.231986
0.226891
0.221673
0.216322
0.210848
0.205337
0.199732
0.193921
0.187935
0.181767
0.175422
0.168903
0.162207
0.155341
0.148311
0.141101
0.133721
0.126163
0.118456
0.110603
0.102586
0.0943733
0.0859231
0.0772421
0.0684202
0.0596428
0.0512406
0.043925
0.0382985
0.0375353
2.59808
2.59808
2.59808
2.59808
2.59808
2.59808
2.59808
2.59808
2.59808
2.59808
2.59808
2.59808
2.59808
2.59808
2.59808
2.59808
2.59808
2.59808
2.59808
2.59808
2.59805
2.59812
2.55781
1.00711
0.520823
0.507004
0.499249
0.491206
0.483057
0.475292
0.468289
0.461752
0.455511
0.449531
0.443801
0.438377
0.433237
0.428387
0.423757
0.419516
0.415524
0.411737
0.408116
0.404677
0.40141
0.398228
0.395046
0.391878
0.38872
0.385581
0.382476
0.379364
0.376266
0.373213
0.370221
0.367217
0.364236
0.361318
0.358312
0.355152
0.351878
0.348514
0.345073
0.341571
0.338022
0.334431
0.330811
0.327165
0.323488
0.31976
0.315954
0.312049
0.308077
0.304104
0.300123
0.296258
0.292336
0.288234
0.283975
0.279588
0.275111
0.27057
0.265963
0.26129
0.256543
0.251718
0.246814
0.241856
0.236852
0.231783
0.226619
0.221345
0.215982
0.210521
0.20503
0.199446
0.193656
0.187702
0.181576
0.17528
0.168815
0.162177
0.155378
0.148427
0.14132
0.134069
0.126664
0.119158
0.111562
0.103876
0.096091
0.0881943
0.080248
0.0724187
0.0649882
0.0583626
0.0533323
0.0503382
0.0516914
2.59808
2.59808
2.59808
2.59808
2.59808
2.59808
2.59808
2.59808
2.59808
2.59808
2.59808
2.59808
2.59808
2.59808
2.59808
2.59808
2.59808
2.59808
2.59808
2.59808
2.59806
2.5981
2.55846
1.00757
0.520994
0.507115
0.499416
0.49144
0.483371
0.475654
0.468681
0.462186
0.455991
0.45006
0.444361
0.438962
0.433828
0.428961
0.424281
0.419957
0.415871
0.411991
0.408282
0.404766
0.401429
0.398192
0.394964
0.39176
0.388572
0.385414
0.382295
0.379171
0.376072
0.373025
0.370047
0.367063
0.364112
0.361215
0.358223
0.355076
0.351814
0.348455
0.345016
0.341517
0.337974
0.334396
0.330801
0.327184
0.323536
0.319836
0.316059
0.312183
0.30824
0.304288
0.300335
0.296491
0.292576
0.28847
0.284212
0.279828
0.275358
0.270827
0.266233
0.261577
0.256851
0.252051
0.247176
0.242238
0.237243
0.232175
0.22701
0.221739
0.216405
0.210989
0.20555
0.200013
0.194261
0.188353
0.182287
0.176059
0.169664
0.163094
0.156366
0.149495
0.142485
0.135357
0.128106
0.120815
0.11351
0.106201
0.0989031
0.0916335
0.0845096
0.0777575
0.0717151
0.0667899
0.0637236
0.0628968
0.0656488
2.59808
2.59808
2.59808
2.59808
2.59808
2.59808
2.59808
2.59808
2.59808
2.59808
2.59808
2.59808
2.59808
2.59808
2.59808
2.59808
2.59808
2.59808
2.59808
2.59808
2.59808
2.59812
2.55875
1.00869
0.521086
0.507072
0.499322
0.491337
0.48327
0.475553
0.468588
0.462106
0.455922
0.450005
0.444299
0.438894
0.43374
0.42885
0.424145
0.41982
0.41573
0.411854
0.408147
0.404643
0.401314
0.398095
0.394888
0.3917
0.388526
0.385383
0.382285
0.379184
0.376117
0.37311
0.370177
0.367239
0.364348
0.361501
0.358552
0.355453
0.35224
0.348929
0.345538
0.342087
0.338595
0.33507
0.331522
0.327942
0.324321
0.320642
0.316887
0.313032
0.309113
0.305176
0.301243
0.297414
0.293495
0.289382
0.285118
0.280729
0.276251
0.271709
0.267104
0.262436
0.257699
0.252884
0.247987
0.243016
0.237982
0.232876
0.227683
0.222396
0.217054
0.211643
0.206222
0.200701
0.194975
0.189111
0.183105
0.176956
0.170653
0.164192
0.1576
0.150893
0.144082
0.137178
0.13018
0.123202
0.116283
0.109444
0.102725
0.0961667
0.0899366
0.0842909
0.0795844
0.076187
0.0747457
0.0756857
0.0793814
2.59808
2.59808
2.59808
2.59808
2.59808
2.59808
2.59808
2.59808
2.59808
2.59808
2.59808
2.59808
2.59808
2.59808
2.59808
2.59808
2.59808
2.59808
2.59808
2.59808
2.59808
2.59815
2.55762
1.01122
0.521443
0.507471
0.499803
0.491897
0.483865
0.476147
0.469177
0.462701
0.456523
0.450631
0.44494
0.43956
0.43441
0.429525
0.424809
0.420462
0.41634
0.412438
0.408701
0.405172
0.401814
0.398572
0.39534
0.392125
0.388929
0.385777
0.382675
0.379573
0.376516
0.373537
0.37062
0.367705
0.36485
0.362031
0.359098
0.356026
0.352844
0.349566
0.346211
0.342794
0.339334
0.33584
0.332313
0.328745
0.325132
0.321459
0.317709
0.313862
0.30995
0.306013
0.302077
0.298232
0.294288
0.290148
0.285865
0.28146
0.276969
0.272412
0.267793
0.263116
0.258385
0.253602
0.248761
0.243854
0.238885
0.233836
0.228701
0.223475
0.21817
0.212778
0.207368
0.201851
0.196138
0.190309
0.184358
0.178282
0.172069
0.165725
0.159288
0.152779
0.1462
0.139554
0.132852
0.126239
0.11976
0.113448
0.107365
0.101565
0.0962573
0.0916982
0.0882391
0.0861893
0.0861192
0.0885599
0.0929638
2.59808
2.59808
2.59808
2.59808
2.59808
2.59808
2.59808
2.59808
2.59808
2.59808
2.59808
2.59808
2.59808
2.59808
2.59808
2.59808
2.59808
2.59808
2.59808
2.59808
2.59808
2.59816
2.55532
1.01521
0.521951
0.507966
0.500293
0.492404
0.484347
0.476576
0.469542
0.463004
0.456763
0.450825
0.445087
0.439673
0.434482
0.429577
0.424845
0.420507
0.416385
0.412495
0.408766
0.405256
0.401916
0.398693
0.395483
0.392287
0.389126
0.386021
0.382954
0.379888
0.376875
0.373943
0.371052
0.368167
0.365346
0.36255
0.359633
0.356585
0.353431
0.350183
0.34686
0.343476
0.340052
0.336595
0.333108
0.329582
0.326001
0.32235
0.318619
0.314789
0.310889
0.306952
0.303009
0.299144
0.295174
0.291014
0.286721
0.282319
0.277841
0.273306
0.268718
0.264082
0.259402
0.254675
0.249891
0.245044
0.240139
0.235167
0.230122
0.224995
0.219782
0.214471
0.209126
0.203652
0.197976
0.192193
0.186299
0.180294
0.174171
0.167946
0.16167
0.155365
0.149028
0.142646
0.136253
0.130022
0.124007
0.118252
0.112831
0.107806
0.103416
0.099894
0.097577
0.096689
0.0977963
0.101491
0.106417
2.59808
2.59808
2.59808
2.59808
2.59808
2.59808
2.59808
2.59808
2.59808
2.59808
2.59808
2.59808
2.59808
2.59808
2.59808
2.59808
2.59808
2.59808
2.59808
2.59808
2.59808
2.59817
2.55257
1.02023
0.522276
0.508116
0.500395
0.492544
0.484565
0.476908
0.469982
0.463521
0.457322
0.451411
0.445679
0.440283
0.435093
0.430202
0.425465
0.421124
0.416992
0.413098
0.409364
0.405855
0.402508
0.399291
0.396091
0.392902
0.389754
0.386671
0.383611
0.380561
0.377578
0.374684
0.371813
0.368961
0.366185
0.363421
0.360534
0.35753
0.354429
0.351242
0.347987
0.344676
0.341328
0.337948
0.334539
0.33109
0.327581
0.323997
0.320329
0.316558
0.312708
0.308807
0.304894
0.301033
0.29706
0.292896
0.288604
0.2842
0.279718
0.275181
0.27059
0.265953
0.261272
0.256545
0.251764
0.246919
0.242018
0.237057
0.232034
0.22694
0.221771
0.216511
0.211211
0.205778
0.200159
0.194443
0.188625
0.182708
0.176694
0.170609
0.164514
0.158434
0.152361
0.146272
0.140228
0.134418
0.128901
0.123729
0.118982
0.114726
0.111219
0.108665
0.10738
0.107503
0.109702
0.114498
0.119795
2.59808
2.59808
2.59808
2.59808
2.59808
2.59808
2.59808
2.59808
2.59808
2.59808
2.59808
2.59808
2.59808
2.59808
2.59808
2.59808
2.59808
2.59808
2.59808
2.59808
2.59808
2.59818
2.54868
1.02686
0.522786
0.508604
0.500954
0.493214
0.485346
0.477798
0.470932
0.46452
0.458333
0.452414
0.446645
0.441191
0.435927
0.43099
0.426202
0.421853
0.417713
0.413816
0.410079
0.406574
0.40323
0.400024
0.396836
0.393663
0.390544
0.387491
0.384449
0.381431
0.378493
0.375644
0.372807
0.369999
0.367276
0.36455
0.361699
0.358736
0.355682
0.352543
0.349334
0.346067
0.342756
0.339408
0.33603
0.332606
0.329124
0.325568
0.321928
0.318189
0.314367
0.310486
0.306583
0.302709
0.298714
0.294536
0.290234
0.28583
0.281358
0.276839
0.27228
0.267688
0.263066
0.258403
0.253684
0.248897
0.244049
0.239142
0.234176
0.229132
0.224011
0.218806
0.213545
0.208158
0.202603
0.196965
0.191239
0.18543
0.179551
0.173635
0.167756
0.161938
0.156165
0.150397
0.144735
0.139377
0.134388
0.129821
0.125754
0.122258
0.119593
0.117939
0.117565
0.118595
0.12181
0.127567
0.133114
2.59808
2.59808
2.59808
2.59808
2.59808
2.59808
2.59808
2.59808
2.59808
2.59808
2.59808
2.59808
2.59808
2.59808
2.59808
2.59808
2.59808
2.59808
2.59808
2.59808
2.59808
2.59819
2.54394
1.03505
0.523283
0.508956
0.501209
0.493438
0.485558
0.478026
0.47117
0.464767
0.458578
0.452682
0.446937
0.441532
0.436317
0.431458
0.426752
0.422486
0.418408
0.414561
0.410861
0.407394
0.404073
0.400898
0.397743
0.394602
0.391521
0.388499
0.385482
0.3825
0.379607
0.376796
0.373989
0.371222
0.368547
0.365845
0.363014
0.360081
0.357058
0.353954
0.350779
0.347546
0.344264
0.340945
0.337594
0.334201
0.330752
0.327231
0.323633
0.31994
0.316161
0.312315
0.308433
0.30456
0.300563
0.296388
0.292097
0.287709
0.283261
0.278775
0.27426
0.269722
0.265166
0.260575
0.255933
0.251221
0.246447
0.241613
0.236724
0.231766
0.226721
0.22158
0.216359
0.21102
0.205532
0.199969
0.194329
0.188628
0.18289
0.177155
0.171508
0.165963
0.160488
0.155043
0.149764
0.144859
0.140391
0.136417
0.133005
0.130236
0.128359
0.127549
0.127969
0.129944
0.13401
0.140707
0.146404
2.59808
2.59808
2.59808
2.59808
2.59808
2.59808
2.59808
2.59808
2.59808
2.59808
2.59808
2.59808
2.59808
2.59808
2.59808
2.59808
2.59808
2.59808
2.59808
2.59808
2.59808
2.59822
2.53807
1.04506
0.523888
0.509501
0.501816
0.494161
0.486389
0.478952
0.472133
0.465764
0.459586
0.453718
0.447984
0.442605
0.437403
0.432565
0.427888
0.423639
0.419566
0.415725
0.412023
0.40856
0.40524
0.402079
0.398937
0.395821
0.392776
0.389775
0.386784
0.383839
0.380994
0.378217
0.375448
0.372726
0.370101
0.367419
0.364613
0.361712
0.358729
0.355673
0.352554
0.349379
0.346157
0.342896
0.3396
0.336256
0.332856
0.329387
0.325844
0.322208
0.318481
0.314675
0.310827
0.306965
0.302971
0.298802
0.294517
0.290139
0.285706
0.281238
0.276747
0.272242
0.267727
0.263185
0.258592
0.253934
0.249213
0.244434
0.239611
0.234738
0.229781
0.224716
0.219545
0.214258
0.208843
0.203356
0.197807
0.192228
0.186655
0.181134
0.175746
0.170496
0.165331
0.160217
0.155332
0.150879
0.14693
0.143535
0.140752
0.138673
0.137528
0.137466
0.138679
0.141502
0.146343
0.153894
0.159647
2.59808
2.59808
2.59808
2.59808
2.59808
2.59808
2.59808
2.59808
2.59808
2.59808
2.59808
2.59808
2.59808
2.59808
2.59808
2.59808
2.59808
2.59808
2.59808
2.59808
2.59808
2.59824
2.53079
1.0572
0.52466
0.510243
0.502598
0.494998
0.487281
0.479896
0.473071
0.466701
0.460504
0.454629
0.448874
0.443515
0.438339
0.433576
0.428999
0.424812
0.420779
0.416976
0.413299
0.409864
0.406566
0.403432
0.40032
0.397249
0.394249
0.391279
0.388329
0.385441
0.382646
0.379904
0.377181
0.374515
0.371944
0.369288
0.366515
0.363655
0.360719
0.357717
0.354655
0.351538
0.348372
0.345165
0.341919
0.338623
0.33527
0.331851
0.328364
0.324789
0.321115
0.317347
0.313529
0.309666
0.305667
0.301502
0.297228
0.292865
0.288453
0.284012
0.279555
0.275091
0.270627
0.266135
0.261591
0.256983
0.252309
0.247579
0.242819
0.238033
0.233168
0.22818
0.223073
0.217841
0.212503
0.2071
0.201658
0.196217
0.190825
0.185532
0.180414
0.175467
0.170615
0.165835
0.161347
0.157346
0.153904
0.15107
0.148888
0.147457
0.146985
0.147643
0.149654
0.153181
0.158823
0.167151
0.172904
2.59808
2.59808
2.59808
2.59808
2.59808
2.59808
2.59808
2.59808
2.59808
2.59808
2.59808
2.59808
2.59808
2.59808
2.59808
2.59808
2.59808
2.59808
2.59808
2.59808
2.59808
2.59826
2.52248
1.07162
0.525492
0.510925
0.50328
0.495756
0.488129
0.480834
0.474043
0.467709
0.461523
0.455682
0.449962
0.444676
0.439557
0.434897
0.430426
0.426289
0.42228
0.418499
0.414831
0.411412
0.40813
0.405018
0.401937
0.398911
0.395954
0.393015
0.390113
0.387291
0.384539
0.381836
0.379168
0.376589
0.374046
0.37141
0.368672
0.365854
0.362965
0.360014
0.357001
0.353932
0.350819
0.347664
0.34447
0.341222
0.33792
0.334557
0.331132
0.327623
0.324012
0.320294
0.316519
0.312664
0.308671
0.304522
0.300267
0.295928
0.291545
0.287135
0.282717
0.2783
0.273889
0.269451
0.264956
0.260396
0.255767
0.251087
0.246394
0.241703
0.236936
0.232035
0.227003
0.221838
0.216589
0.211284
0.20596
0.200672
0.195476
0.190424
0.185589
0.180954
0.17642
0.171977
0.167883
0.164323
0.161372
0.159071
0.157453
0.156609
0.156764
0.15811
0.160831
0.165009
0.171457
0.180451
0.186162
2.59808
2.59808
2.59808
2.59808
2.59808
2.59808
2.59808
2.59808
2.59808
2.59808
2.59808
2.59808
2.59808
2.59808
2.59808
2.59808
2.59808
2.59808
2.59808
2.59808
2.59808
2.59827
2.513
1.08853
0.526433
0.511732
0.504172
0.496767
0.489255
0.482046
0.475291
0.468992
0.462817
0.457015
0.451331
0.446103
0.441046
0.436494
0.432124
0.428032
0.424032
0.420258
0.41659
0.413184
0.409922
0.406829
0.403785
0.400808
0.397885
0.394986
0.392139
0.389385
0.386679
0.384023
0.38142
0.378928
0.376408
0.37379
0.371091
0.368323
0.365487
0.362593
0.359632
0.35662
0.353568
0.350474
0.347344
0.344161
0.340927
0.337638
0.334292
0.330867
0.327325
0.323658
0.319917
0.316068
0.312074
0.307937
0.303697
0.299378
0.29502
0.290639
0.286258
0.281888
0.277532
0.273146
0.268699
0.26418
0.259593
0.254963
0.250342
0.245751
0.241084
0.236275
0.231316
0.226222
0.221061
0.215854
0.210656
0.205527
0.200535
0.195731
0.191187
0.186871
0.182654
0.178554
0.174854
0.171726
0.169253
0.167457
0.166363
0.166047
0.166827
0.168815
0.172138
0.176991
0.184238
0.193805
0.199433
2.59808
2.59808
2.59808
2.59808
2.59808
2.59808
2.59808
2.59808
2.59808
2.59808
2.59808
2.59808
2.59808
2.59808
2.59808
2.59808
2.59808
2.59808
2.59808
2.59808
2.59808
2.59829
2.50237
1.10834
0.527536
0.512682
0.505211
0.4979
0.490477
0.483323
0.476565
0.470262
0.464087
0.458351
0.452759
0.44764
0.442705
0.438306
0.434029
0.429969
0.425975
0.422208
0.418548
0.415165
0.411928
0.408866
0.405868
0.402943
0.400058
0.397216
0.394446
0.391741
0.389105
0.386507
0.383985
0.381571
0.379078
0.376488
0.37383
0.371113
0.368341
0.365504
0.362598
0.359648
0.356657
0.353629
0.350567
0.347455
0.344294
0.341088
0.337833
0.334496
0.331021
0.327403
0.323685
0.319842
0.315845
0.31172
0.307496
0.3032
0.29887
0.294523
0.290185
0.285867
0.281573
0.277244
0.272849
0.268374
0.263831
0.25926
0.254721
0.250242
0.245674
0.240957
0.236069
0.231039
0.225959
0.220847
0.215772
0.210802
0.206014
0.20146
0.197208
0.193209
0.189307
0.185546
0.182234
0.179532
0.177523
0.176201
0.175586
0.17579
0.177148
0.179731
0.183582
0.189111
0.197132
0.207192
0.212678
2.59808
2.59808
2.59808
2.59808
2.59808
2.59808
2.59808
2.59808
2.59808
2.59808
2.59808
2.59808
2.59808
2.59808
2.59808
2.59808
2.59808
2.59808
2.59808
2.59808
2.59808
2.5983
2.49023
1.13157
0.528882
0.513799
0.506405
0.499176
0.491826
0.484727
0.477974
0.471707
0.46561
0.459977
0.454508
0.449509
0.444699
0.440426
0.436214
0.432162
0.428162
0.424402
0.42076
0.417411
0.414214
0.411194
0.408245
0.405372
0.402535
0.399759
0.397062
0.394408
0.391847
0.389329
0.386915
0.384549
0.382074
0.37952
0.376907
0.374248
0.37154
0.368757
0.365911
0.363024
0.360096
0.357134
0.354144
0.351108
0.348029
0.344917
0.341755
0.338507
0.335097
0.331526
0.327821
0.323983
0.319982
0.315866
0.311655
0.307375
0.303075
0.298767
0.294473
0.290209
0.285977
0.28171
0.277368
0.272939
0.268444
0.26394
0.259501
0.255142
0.250678
0.246052
0.241224
0.236259
0.231254
0.226239
0.221287
0.216476
0.211892
0.20759
0.20363
0.199945
0.196348
0.192923
0.189986
0.187698
0.186126
0.185251
0.185064
0.185804
0.18769
0.190793
0.195169
0.201349
0.210117
0.220603
0.225901
2.59808
2.59808
2.59808
2.59808
2.59808
2.59808
2.59808
2.59808
2.59808
2.59808
2.59808
2.59808
2.59808
2.59808
2.59808
2.59808
2.59808
2.59808
2.59808
2.59808
2.59808
2.59805
2.47721
1.15863
0.530445
0.515037
0.507747
0.500619
0.493345
0.486305
0.479572
0.473377
0.467395
0.461866
0.456526
0.451661
0.447015
0.442782
0.438588
0.434531
0.430528
0.426783
0.423172
0.419868
0.416721
0.41375
0.410862
0.408033
0.405249
0.402553
0.399917
0.397341
0.394855
0.392436
0.390154
0.387808
0.385357
0.382849
0.380294
0.377704
0.375057
0.372333
0.369555
0.366731
0.36387
0.360977
0.358061
0.355105
0.352115
0.349102
0.346039
0.342872
0.339523
0.335996
0.332305
0.328469
0.324468
0.320356
0.316152
0.311896
0.307632
0.303367
0.29912
0.294912
0.290744
0.286541
0.282253
0.277871
0.273429
0.269002
0.264677
0.260446
0.25609
0.251549
0.246773
0.24187
0.23694
0.23202
0.227188
0.222535
0.218152
0.2141
0.210422
0.207034
0.203722
0.20061
0.19803
0.196136
0.194975
0.194524
0.19476
0.196033
0.198435
0.202012
0.206942
0.213742
0.223199
0.234021
0.239113
2.59808
2.59808
2.59808
2.59808
2.59808
2.59808
2.59808
2.59808
2.59808
2.59808
2.59808
2.59808
2.59808
2.59808
2.59808
2.59808
2.59808
2.59808
2.59808
2.59808
2.59809
2.59776
2.46323
1.19006
0.532307
0.516439
0.509233
0.502201
0.494981
0.487985
0.481314
0.475255
0.469408
0.464022
0.458799
0.454072
0.449553
0.445327
0.441109
0.437054
0.433064
0.429357
0.425808
0.422575
0.4195
0.416595
0.413778
0.411008
0.4083
0.405681
0.403111
0.400655
0.398264
0.395983
0.393778
0.391455
0.38904
0.386584
0.384097
0.381586
0.378992
0.376335
0.373625
0.370866
0.368075
0.365252
0.362408
0.359529
0.356629
0.353715
0.350751
0.347652
0.344354
0.340863
0.33719
0.333348
0.329341
0.325222
0.321024
0.316793
0.312567
0.308344
0.304143
0.29999
0.295884
0.291744
0.287508
0.283171
0.278786
0.274445
0.270245
0.266142
0.261894
0.257414
0.252681
0.247834
0.242974
0.238144
0.233432
0.228938
0.224759
0.220961
0.21757
0.214481
0.211446
0.208649
0.206432
0.204924
0.20417
0.204127
0.204821
0.206577
0.209445
0.213474
0.218927
0.226306
0.236427
0.247511
0.252445
2.59808
2.59808
2.59808
2.59808
2.59808
2.59808
2.59808
2.59808
2.59808
2.59808
2.59808
2.59808
2.59808
2.59808
2.59808
2.59808
2.59808
2.59808
2.59808
2.59808
2.59808
2.59819
2.44863
1.22645
0.53452
0.517945
0.510796
0.503887
0.496769
0.489873
0.483348
0.477457
0.471742
0.466506
0.461373
0.456747
0.452259
0.448014
0.443773
0.439743
0.435812
0.432186
0.428724
0.425585
0.422595
0.419774
0.417028
0.41433
0.411711
0.409155
0.406699
0.404362
0.402093
0.39996
0.397761
0.395456
0.393083
0.390682
0.38827
0.385813
0.383286
0.380694
0.378047
0.375357
0.372636
0.369888
0.367117
0.364315
0.361506
0.358693
0.355824
0.352783
0.349533
0.346074
0.342429
0.338571
0.334552
0.330431
0.32625
0.322052
0.317865
0.313685
0.309534
0.30544
0.301398
0.297317
0.293134
0.288846
0.284525
0.280283
0.276221
0.272252
0.268117
0.26368
0.258995
0.254215
0.249432
0.244703
0.240121
0.235802
0.231842
0.228309
0.225209
0.222406
0.219632
0.217135
0.215254
0.214098
0.21372
0.214023
0.215173
0.21735
0.220623
0.225097
0.231036
0.238989
0.249743
0.261043
0.265834
2.59808
2.59808
2.59808
2.59808
2.59808
2.59808
2.59808
2.59808
2.59808
2.59808
2.59808
2.59808
2.59808
2.59808
2.59808
2.59808
2.59808
2.59808
2.59808
2.59808
2.59808
2.59865
2.43409
1.26831
0.537088
0.519524
0.512473
0.505761
0.498823
0.492079
0.485715
0.479957
0.474371
0.469223
0.464139
0.459572
0.455051
0.450793
0.446595
0.442643
0.438822
0.435312
0.431963
0.428922
0.42602
0.423286
0.420611
0.41799
0.415453
0.413008
0.410703
0.408473
0.406366
0.404287
0.402092
0.39981
0.397483
0.39515
0.392808
0.390404
0.38795
0.385424
0.382847
0.380229
0.377586
0.374916
0.372223
0.3695
0.366789
0.364087
0.361303
0.358318
0.355109
0.351684
0.34805
0.344172
0.340149
0.336036
0.331872
0.327702
0.323551
0.319418
0.315317
0.311279
0.307295
0.303268
0.299134
0.294896
0.290645
0.286504
0.282588
0.278746
0.274703
0.270295
0.265649
0.260926
0.25621
0.251575
0.247115
0.242965
0.239216
0.235934
0.233105
0.230557
0.228009
0.225786
0.224212
0.223387
0.223365
0.224018
0.225612
0.228186
0.231875
0.236804
0.243207
0.251733
0.263042
0.274509
0.279193
2.59808
2.59808
2.59808
2.59808
2.59808
2.59808
2.59808
2.59808
2.59808
2.59808
2.59808
2.59808
2.59808
2.59808
2.59808
2.59808
2.59808
2.59808
2.59808
2.59808
2.59808
2.59923
2.42004
1.3163
0.540095
0.521215
0.514344
0.507856
0.501139
0.494575
0.488353
0.482689
0.477208
0.472087
0.467022
0.462444
0.457943
0.453732
0.449648
0.44583
0.442159
0.43878
0.435545
0.432602
0.42978
0.427129
0.424529
0.422001
0.41959
0.417296
0.415117
0.413031
0.411033
0.408945
0.40676
0.404511
0.402237
0.399985
0.397678
0.39534
0.392945
0.390481
0.387976
0.385433
0.382865
0.380273
0.377657
0.375017
0.372418
0.369834
0.367118
0.364187
0.361022
0.357609
0.35398
0.350102
0.346085
0.341981
0.337834
0.333697
0.329593
0.325513
0.321465
0.317484
0.313558
0.309585
0.305502
0.301318
0.297142
0.293109
0.289342
0.285617
0.281647
0.277259
0.272639
0.267966
0.263312
0.258765
0.254431
0.250453
0.246914
0.243883
0.241324
0.239013
0.236683
0.234731
0.233453
0.232958
0.233266
0.234318
0.236298
0.239238
0.243342
0.248688
0.255524
0.264604
0.276421
0.287996
0.292551
2.59808
2.59808
2.59808
2.59808
2.59808
2.59808
2.59808
2.59808
2.59808
2.59808
2.59808
2.59808
2.59808
2.59808
2.59808
2.59808
2.59808
2.59808
2.59808
2.59808
2.59809
2.59989
2.40724
1.37139
0.543646
0.523014
0.516424
0.510185
0.503741
0.497398
0.4913
0.485662
0.480198
0.474941
0.469949
0.465391
0.460997
0.456912
0.452995
0.44934
0.445824
0.442578
0.439451
0.436604
0.433876
0.431314
0.428819
0.426446
0.424184
0.422039
0.419992
0.418027
0.416024
0.413935
0.411765
0.409554
0.407345
0.405131
0.402883
0.400596
0.398246
0.395867
0.393451
0.390991
0.388502
0.385987
0.383449
0.380911
0.378437
0.375961
0.373298
0.370408
0.367271
0.363877
0.360246
0.356375
0.352357
0.348261
0.344134
0.340037
0.33598
0.33195
0.32795
0.324025
0.320158
0.316238
0.312209
0.308082
0.303991
0.300077
0.296461
0.292846
0.28894
0.284575
0.279988
0.275377
0.270805
0.26637
0.262186
0.258399
0.255085
0.252314
0.250026
0.247928
0.245811
0.244117
0.243117
0.242939
0.243541
0.244983
0.247286
0.250601
0.255079
0.260811
0.268059
0.277677
0.289962
0.301573
0.305971
2.59808
2.59808
2.59808
2.59808
2.59808
2.59808
2.59808
2.59808
2.59808
2.59808
2.59808
2.59808
2.59808
2.59808
2.59808
2.59808
2.59808
2.59808
2.59808
2.59808
2.59809
2.60065
2.39586
1.43506
0.548052
0.525046
0.51889
0.512938
0.506832
0.500657
0.494549
0.488818
0.483081
0.477766
0.472941
0.468492
0.464269
0.460356
0.456619
0.453134
0.449772
0.446657
0.443654
0.440932
0.438345
0.435927
0.433596
0.431382
0.429277
0.427275
0.425335
0.423379
0.421352
0.419248
0.417084
0.414909
0.412737
0.410573
0.408384
0.406136
0.403864
0.401592
0.399281
0.396919
0.394516
0.392079
0.389625
0.387201
0.384864
0.382462
0.379843
0.376981
0.373859
0.370488
0.366843
0.362985
0.358979
0.354903
0.350802
0.346744
0.342732
0.338753
0.334802
0.330937
0.327129
0.32326
0.31928
0.315212
0.311204
0.307407
0.30393
0.300401
0.296522
0.29216
0.28759
0.283031
0.278535
0.274207
0.270164
0.266557
0.26346
0.260937
0.258905
0.256989
0.25507
0.253625
0.252895
0.253025
0.253951
0.255759
0.258392
0.262096
0.266946
0.273067
0.280737
0.290871
0.303577
0.315175
0.319422
2.59808
2.59808
2.59808
2.59808
2.59808
2.59808
2.59808
2.59808
2.59808
2.59808
2.59808
2.59808
2.59808
2.59808
2.59808
2.59808
2.59808
2.59808
2.59808
2.59808
2.59809
2.60116
2.3877
1.50772
0.553489
0.527391
0.521853
0.51622
0.51037
0.504107
0.49779
0.491653
0.485669
0.48063
0.476048
0.471803
0.467803
0.464086
0.460536
0.45723
0.454048
0.451099
0.448288
0.445756
0.443369
0.44113
0.438967
0.436903
0.434934
0.433003
0.431052
0.429042
0.426966
0.424819
0.422661
0.420514
0.418395
0.416305
0.414155
0.411989
0.409833
0.407689
0.405495
0.403233
0.400917
0.398565
0.396208
0.393912
0.391698
0.389326
0.386736
0.383883
0.380756
0.37738
0.373743
0.369909
0.365925
0.361865
0.357789
0.35377
0.349805
0.345877
0.341978
0.338185
0.334439
0.330623
0.326693
0.322696
0.318776
0.315104
0.311758
0.308303
0.304428
0.300062
0.295514
0.29101
0.286592
0.282364
0.278457
0.275018
0.272127
0.269842
0.268045
0.266284
0.264556
0.263348
0.262883
0.263295
0.264572
0.266692
0.269669
0.273737
0.278941
0.285438
0.293519
0.304144
0.317255
0.328822
0.332974
2.59808
2.59808
2.59808
2.59808
2.59808
2.59808
2.59808
2.59808
2.59808
2.59808
2.59808
2.59808
2.59808
2.59808
2.59808
2.59808
2.59808
2.59808
2.59808
2.59808
2.59808
2.6016
2.38321
1.59105
0.560195
0.53025
0.525401
0.519915
0.513969
0.507276
0.500469
0.493892
0.488376
0.48372
0.479448
0.475485
0.471729
0.468222
0.464891
0.461807
0.45887
0.456159
0.45359
0.451273
0.449076
0.446984
0.444934
0.442947
0.440979
0.438987
0.436952
0.434857
0.43271
0.430568
0.428428
0.426332
0.424309
0.422266
0.420192
0.418147
0.416136
0.414117
0.412031
0.409875
0.407656
0.405407
0.40317
0.401023
0.398869
0.396511
0.393918
0.391049
0.387915
0.384519
0.380897
0.377093
0.373136
0.369092
0.365045
0.361066
0.357153
0.35328
0.349443
0.345728
0.342049
0.338288
0.334414
0.330494
0.326669
0.32313
0.319907
0.316518
0.31264
0.308281
0.303771
0.299332
0.295
0.29088
0.287117
0.283855
0.281177
0.279131
0.277549
0.275928
0.274378
0.273393
0.27318
0.273864
0.27546
0.277858
0.281166
0.285559
0.291096
0.29795
0.306423
0.317521
0.331005
0.342514
0.346596
2.59808
2.59808
2.59808
2.59808
2.59808
2.59808
2.59808
2.59808
2.59808
2.59808
2.59808
2.59808
2.59808
2.59808
2.59808
2.59808
2.59808
2.59808
2.59808
2.59808
2.59808
2.60194
2.38371
1.68825
0.568841
0.533845
0.529415
0.52355
0.516982
0.50952
0.502307
0.496349
0.491507
0.487259
0.483342
0.479665
0.476163
0.472908
0.469836
0.467016
0.464351
0.461886
0.459539
0.457362
0.455288
0.453241
0.451177
0.449123
0.447053
0.444944
0.442792
0.44064
0.43853
0.43642
0.434338
0.432359
0.430452
0.428489
0.426547
0.424656
0.422799
0.420892
0.418923
0.416891
0.414799
0.412678
0.410593
0.408583
0.406436
0.40405
0.401417
0.398515
0.395339
0.391919
0.388308
0.384529
0.3806
0.376568
0.372548
0.368611
0.364755
0.360942
0.357174
0.353534
0.349922
0.346211
0.342396
0.33855
0.33482
0.331422
0.328313
0.324985
0.321103
0.316758
0.312295
0.307926
0.303687
0.299678
0.296061
0.292975
0.290508
0.288693
0.287297
0.285796
0.284412
0.283635
0.28365
0.284613
0.286491
0.289165
0.292797
0.297497
0.303359
0.310553
0.319385
0.330912
0.344718
0.35616
0.36022
2.59808
2.59808
2.59808
2.59808
2.59808
2.59808
2.59808
2.59808
2.59808
2.59808
2.59808
2.59808
2.59808
2.59808
2.59808
2.59808
2.59808
2.59808
2.59808
2.59808
2.59806
2.60237
2.39034
1.80137
0.579975
0.537969
0.533169
0.52635
0.518569
0.510856
0.504551
0.499554
0.495287
0.491433
0.487836
0.484411
0.481177
0.478179
0.47538
0.472793
0.470357
0.468044
0.46582
0.463678
0.461613
0.459499
0.457319
0.455119
0.452919
0.450731
0.448561
0.44649
0.444475
0.442458
0.440528
0.43874
0.436965
0.435162
0.4334
0.431688
0.429955
0.428165
0.426314
0.424408
0.42245
0.420471
0.418536
0.416581
0.414384
0.411949
0.409248
0.406274
0.403044
0.399602
0.39599
0.392228
0.38832
0.3843
0.380312
0.376421
0.372629
0.368876
0.365177
0.361613
0.358049
0.354391
0.350636
0.346859
0.34323
0.33998
0.33698
0.333713
0.329815
0.325479
0.321055
0.316745
0.312581
0.308665
0.305176
0.302247
0.299976
0.298373
0.297138
0.295754
0.294543
0.29397
0.294249
0.295498
0.297654
0.300624
0.304575
0.309575
0.315758
0.323275
0.332448
0.344381
0.358465
0.369834
0.373915
2.59808
2.59808
2.59808
2.59808
2.59808