/*--------------------------------*- C++ -*----------------------------------*\
| =========                 |                                                 |
| \\      /  F ield         | OpenFOAM: The Open Source CFD Toolbox           |
|  \\    /   O peration     | Version:  2.2.x                                 |
|   \\  /    A nd           | Web:      www.OpenFOAM.org                      |
|    \\/     M anipulation  |                                                 |
\*---------------------------------------------------------------------------*/
FoamFile
{
    version     2.0;
    format      ascii;
    class       volScalarField;
    location    "1.2";
    object      p;
}
// * * * * * * * * * * * * * * * * * * * * * * * * * * * * * * * * * * * * * //

dimensions      [1 -1 -2 0 0 0 0];

internalField   nonuniform List<scalar> 
14161
(
0.2
0.2
0.2
0.2
0.2
0.2
0.2
0.2
0.2
0.2
0.2
0.2
0.2
0.2
0.2
0.2
0.2
0.2
0.2
0.199999
0.200003
0.199989
0.206645
0.864215
1.68412
1.70716
1.71566
1.72528
1.73589
1.74625
1.75586
1.76448
1.77265
1.78045
1.78795
1.79476
1.80135
1.80757
1.81344
1.81908
1.82406
1.82862
1.83298
1.83692
1.84061
1.84399
1.84732
1.85058
1.8537
1.85679
1.86003
1.86305
1.86608
1.86929
1.87252
1.87551
1.87863
1.88185
1.88487
1.88808
1.89136
1.89466
1.89793
1.90119
1.90444
1.90771
1.91106
1.91452
1.91815
1.92196
1.92597
1.9302
1.93452
1.93891
1.94297
1.94729
1.95109
1.95493
1.95881
1.96268
1.96651
1.97038
1.97424
1.97805
1.98186
1.9857
1.98961
1.99366
1.99779
2.00194
2.00608
2.01024
2.01438
2.01847
2.02253
2.02644
2.0305
2.03463
2.03875
2.04278
2.0467
2.05051
2.05426
2.05806
2.06203
2.06611
2.07017
2.07424
2.07814
2.08176
2.08504
2.08798
2.09063
2.09303
2.09517
2.09704
2.09847
2.0993
2.10071
0.2
0.2
0.2
0.2
0.2
0.2
0.2
0.2
0.2
0.2
0.2
0.2
0.2
0.2
0.2
0.2
0.2
0.2
0.2
0.199999
0.200004
0.199989
0.206409
0.865978
1.68471
1.70745
1.71586
1.72552
1.73616
1.74646
1.75606
1.76466
1.7728
1.78056
1.78803
1.79484
1.80141
1.80763
1.81348
1.81912
1.82409
1.82864
1.83299
1.83693
1.8406
1.844
1.84733
1.85058
1.8537
1.85679
1.86
1.86305
1.86608
1.86927
1.8725
1.8755
1.87862
1.88184
1.88487
1.88809
1.89137
1.89467
1.89796
1.90122
1.90448
1.90776
1.91111
1.9146
1.91823
1.92202
1.92602
1.93024
1.93455
1.93892
1.94296
1.94727
1.95105
1.95487
1.95874
1.96259
1.96645
1.97031
1.97413
1.97794
1.98176
1.9856
1.98953
1.99357
1.9977
2.00185
2.006
2.01015
2.01429
2.01837
2.02243
2.02634
2.0304
2.03452
2.03863
2.04265
2.04655
2.05034
2.05407
2.05786
2.06181
2.06588
2.06994
2.074
2.07789
2.08149
2.08475
2.08765
2.09026
2.09262
2.0947
2.0965
2.0979
2.0987
2.09997
0.2
0.2
0.2
0.2
0.2
0.2
0.2
0.2
0.2
0.2
0.2
0.2
0.2
0.2
0.2
0.2
0.2
0.2
0.2
0.2
0.200004
0.199992
0.206141
0.866513
1.68427
1.70723
1.7157
1.72539
1.73604
1.74632
1.75594
1.7646
1.77273
1.78048
1.78793
1.79475
1.8013
1.80751
1.81338
1.81901
1.82397
1.82853
1.83287
1.83681
1.84049
1.84389
1.84721
1.85045
1.85357
1.85667
1.85985
1.86293
1.86597
1.86913
1.87236
1.87535
1.87848
1.88169
1.88472
1.88793
1.89121
1.89451
1.89778
1.90104
1.90428
1.90755
1.9109
1.91439
1.91801
1.92178
1.92576
1.92997
1.93429
1.93864
1.94271
1.94702
1.95079
1.95462
1.9585
1.96236
1.96621
1.97006
1.97387
1.97769
1.9815
1.98538
1.98933
1.99337
1.99749
2.00163
2.00578
2.00993
2.01405
2.0181
2.02218
2.02606
2.03012
2.03425
2.03835
2.04236
2.04625
2.05001
2.05373
2.0575
2.06144
2.06549
2.06953
2.07356
2.07742
2.08097
2.08419
2.08703
2.08957
2.09184
2.09382
2.09553
2.09684
2.09755
2.09857
0.2
0.2
0.2
0.2
0.2
0.2
0.2
0.2
0.2
0.2
0.2
0.2
0.2
0.2
0.2
0.2
0.2
0.2
0.2
0.2
0.200004
0.199993
0.205917
0.866831
1.68387
1.70702
1.71551
1.72522
1.73587
1.74612
1.75575
1.76444
1.77256
1.78031
1.78776
1.79462
1.80116
1.80735
1.81325
1.81887
1.82382
1.82837
1.83269
1.83663
1.84029
1.84368
1.847
1.85022
1.85333
1.85644
1.85962
1.86271
1.86575
1.86891
1.87214
1.87513
1.87827
1.88144
1.88446
1.88767
1.89094
1.89423
1.8975
1.90075
1.90399
1.90727
1.91063
1.91409
1.91769
1.92145
1.92541
1.92961
1.93392
1.93825
1.94233
1.94665
1.95039
1.95422
1.9581
1.96196
1.9658
1.96964
1.97345
1.97726
1.98109
1.98497
1.98894
1.99299
1.9971
2.00124
2.0054
2.00957
2.01369
2.0177
2.02179
2.02566
2.02973
2.03385
2.03795
2.04195
2.04582
2.04955
2.05324
2.05698
2.0609
2.06489
2.06891
2.0729
2.0767
2.08019
2.08332
2.08607
2.08849
2.09062
2.09246
2.09401
2.09518
2.09575
2.09641
0.2
0.2
0.2
0.2
0.2
0.2
0.2
0.2
0.2
0.2
0.2
0.2
0.2
0.2
0.2
0.2
0.2
0.2
0.2
0.2
0.200003
0.199995
0.205829
0.866347
1.68329
1.70668
1.71518
1.7249
1.73553
1.74577
1.75543
1.76415
1.77228
1.78004
1.78751
1.79441
1.80096
1.80714
1.81308
1.8187
1.82363
1.82819
1.83249
1.83643
1.84007
1.84347
1.84678
1.85
1.85309
1.8562
1.85939
1.86246
1.86549
1.86863
1.87187
1.87483
1.878
1.88112
1.88414
1.88734
1.8906
1.89387
1.89713
1.90037
1.9036
1.90688
1.91022
1.91368
1.91728
1.92102
1.92496
1.92915
1.93345
1.93774
1.94184
1.94615
1.94987
1.9537
1.95757
1.96143
1.96526
1.96909
1.97288
1.97669
1.98051
1.9844
1.98837
1.99242
1.99652
2.00066
2.00482
2.00898
2.01311
2.01709
2.02118
2.02502
2.0291
2.03323
2.03732
2.0413
2.04513
2.04883
2.05248
2.05621
2.06011
2.06406
2.06806
2.072
2.07575
2.07916
2.08219
2.0848
2.08707
2.08901
2.09068
2.09204
2.093
2.09328
2.0936
0.2
0.2
0.2
0.2
0.2
0.2
0.2
0.2
0.2
0.2
0.2
0.2
0.2
0.2
0.2
0.2
0.2
0.2
0.2
0.2
0.200002
0.199993
0.205805
0.865182
1.68274
1.70642
1.71501
1.72475
1.73537
1.7456
1.75525
1.76395
1.77206
1.7798
1.78726
1.79414
1.80068
1.80685
1.81278
1.8184
1.82331
1.82787
1.83215
1.83609
1.83972
1.84313
1.84642
1.84963
1.85272
1.85583
1.85903
1.86208
1.86509
1.86824
1.87146
1.8744
1.87757
1.88064
1.88367
1.88685
1.89009
1.89335
1.89659
1.89982
1.90304
1.90631
1.90965
1.91311
1.91669
1.92042
1.92434
1.92851
1.93279
1.93704
1.94116
1.94545
1.94914
1.95297
1.95685
1.9607
1.96454
1.96837
1.97218
1.97599
1.97984
1.98375
1.98775
1.99183
1.99594
2.00008
2.00422
2.00837
2.01248
2.01639
2.02047
2.02428
2.02836
2.03247
2.03655
2.0405
2.04429
2.04795
2.05155
2.05524
2.0591
2.06299
2.06695
2.07084
2.07452
2.07785
2.08075
2.0832
2.08528
2.08701
2.08846
2.08959
2.0903
2.09023
2.09022
0.2
0.2
0.2
0.2
0.2
0.2
0.2
0.2
0.2
0.2
0.2
0.2
0.2
0.2
0.2
0.2
0.2
0.2
0.2
0.2
0.200001
0.19999
0.205964
0.862975
1.68209
1.70597
1.71464
1.72436
1.73496
1.7452
1.75486
1.76355
1.77166
1.77939
1.78684
1.79373
1.80026
1.80644
1.81238
1.81801
1.8229
1.82746
1.83173
1.83567
1.8393
1.8427
1.84599
1.8492
1.85228
1.8554
1.85859
1.8616
1.8646
1.86776
1.87095
1.87385
1.87704
1.88005
1.88307
1.88624
1.88946
1.8927
1.89593
1.89915
1.90236
1.90563
1.90897
1.91243
1.916
1.91972
1.92362
1.92776
1.93203
1.93624
1.94038
1.94463
1.9483
1.95213
1.95599
1.95983
1.96365
1.96745
1.97124
1.97505
1.97889
1.98281
1.98681
1.99089
1.99502
1.99916
2.00331
2.00746
2.01155
2.01548
2.01956
2.02334
2.02743
2.03154
2.0356
2.03952
2.04326
2.04686
2.0504
2.05405
2.05786
2.06167
2.06559
2.06942
2.07302
2.07624
2.07899
2.08126
2.08312
2.08461
2.0858
2.08667
2.0871
2.08664
2.08617
0.2
0.2
0.2
0.2
0.2
0.2
0.2
0.2
0.2
0.2
0.2
0.2
0.2
0.2
0.2
0.2
0.2
0.2
0.2
0.2
0.200001
0.199989
0.206288
0.859691
1.68149
1.70552
1.71429
1.72401
1.73461
1.74486
1.75451
1.76317
1.77127
1.77899
1.7864
1.79327
1.79977
1.80594
1.81185
1.81745
1.82231
1.82688
1.83113
1.83507
1.83869
1.84209
1.84539
1.84857
1.85165
1.85481
1.85797
1.86095
1.86397
1.86714
1.87029
1.87317
1.87636
1.87932
1.88234
1.8855
1.8887
1.89192
1.89514
1.89834
1.90155
1.90481
1.90816
1.91159
1.91515
1.91885
1.92274
1.92685
1.93109
1.93527
1.93941
1.94362
1.94727
1.95108
1.95493
1.95876
1.96256
1.96635
1.97012
1.9739
1.97774
1.98165
1.98565
1.98974
1.99388
1.99802
2.00217
2.00629
2.01037
2.01434
2.01838
2.02216
2.02626
2.03037
2.03442
2.03831
2.042
2.04554
2.04903
2.05262
2.05638
2.06011
2.06397
2.06773
2.07123
2.07432
2.0769
2.07896
2.08057
2.08179
2.0827
2.08329
2.08343
2.08255
2.08152
0.2
0.2
0.2
0.2
0.2
0.2
0.2
0.2
0.2
0.2
0.2
0.2
0.2
0.2
0.2
0.2
0.2
0.2
0.2
0.2
0.2
0.199987
0.206715
0.855377
1.68094
1.70501
1.71386
1.72355
1.73414
1.74439
1.75403
1.76264
1.77073
1.77844
1.78582
1.7927
1.79917
1.80533
1.81123
1.81679
1.82163
1.8262
1.83043
1.83438
1.83798
1.84139
1.84468
1.84785
1.85095
1.85411
1.85723
1.86018
1.86323
1.8664
1.86948
1.87234
1.87553
1.87844
1.88144
1.88457
1.88774
1.89094
1.89413
1.89731
1.9005
1.90375
1.90707
1.91049
1.91402
1.91769
1.92153
1.9256
1.92981
1.93395
1.93808
1.94223
1.94586
1.94967
1.95351
1.95733
1.96113
1.96491
1.96869
1.97249
1.97635
1.98028
1.98431
1.98843
1.99259
1.99675
2.00087
2.00496
2.00901
2.01298
2.01699
2.02077
2.02487
2.02899
2.03302
2.03687
2.0405
2.04397
2.0474
2.05095
2.05464
2.05829
2.06207
2.06574
2.06914
2.07208
2.07447
2.07629
2.07761
2.07854
2.07917
2.07944
2.07928
2.07792
2.07624
0.2
0.2
0.2
0.2
0.2
0.2
0.2
0.2
0.2
0.2
0.2
0.2
0.2
0.2
0.2
0.2
0.2
0.2
0.2
0.2
0.2
0.199985
0.207299
0.849754
1.68019
1.70434
1.71328
1.72297
1.73355
1.74385
1.7535
1.76209
1.77017
1.7779
1.78524
1.79211
1.79856
1.80467
1.81051
1.81604
1.82085
1.82541
1.82962
1.83356
1.83714
1.84055
1.84383
1.84697
1.85009
1.85325
1.85631
1.85925
1.86232
1.86548
1.86849
1.87133
1.87451
1.87736
1.88035
1.88345
1.88659
1.88976
1.89293
1.89608
1.89926
1.9025
1.90581
1.90921
1.91271
1.91635
1.92016
1.92417
1.92835
1.93244
1.93657
1.94065
1.94427
1.94807
1.9519
1.95571
1.95949
1.96326
1.96703
1.97083
1.9747
1.97865
1.9827
1.98684
1.99103
1.9952
1.9993
2.00335
2.0074
2.01137
2.01535
2.01914
2.02325
2.02736
2.03136
2.03516
2.03872
2.04213
2.04551
2.049
2.05262
2.05617
2.05987
2.06344
2.0667
2.06948
2.07165
2.07321
2.07423
2.07486
2.07519
2.07514
2.07457
2.07278
2.07037
0.2
0.2
0.2
0.2
0.2
0.2
0.2
0.2
0.2
0.2
0.2
0.2
0.2
0.2
0.2
0.2
0.2
0.2
0.2
0.2
0.2
0.199983
0.208016
0.842827
1.67949
1.70375
1.71273
1.72237
1.73289
1.7432
1.75277
1.76128
1.76933
1.77706
1.78436
1.79123
1.79769
1.80372
1.80956
1.81503
1.81983
1.8244
1.8286
1.83254
1.83611
1.83952
1.84279
1.84591
1.84905
1.8522
1.8552
1.85816
1.86125
1.86437
1.8673
1.87015
1.8733
1.87611
1.87908
1.88215
1.88526
1.88841
1.89155
1.89469
1.89785
1.90108
1.90437
1.90776
1.91123
1.91482
1.91859
1.92255
1.92667
1.9307
1.93481
1.93883
1.94243
1.94621
1.95002
1.95381
1.95757
1.96133
1.96508
1.96887
1.97276
1.97674
1.9808
1.98496
1.98917
1.99335
1.99745
2.00147
2.00549
2.00949
2.01344
2.01726
2.02137
2.02547
2.02944
2.03318
2.03668
2.04003
2.04334
2.04677
2.05032
2.05377
2.05738
2.06083
2.06394
2.06652
2.06845
2.06972
2.07044
2.07076
2.07077
2.07033
2.06934
2.06708
2.06383
0.2
0.2
0.2
0.2
0.2
0.2
0.2
0.2
0.2
0.2
0.2
0.2
0.2
0.2
0.2
0.2
0.2
0.2
0.2
0.2
0.2
0.19998
0.2089
0.834406
1.67854
1.70293
1.71198
1.72159
1.73207
1.74241
1.75189
1.76036
1.76841
1.77614
1.78342
1.79028
1.79675
1.80267
1.80851
1.81389
1.81868
1.82326
1.82745
1.83138
1.83493
1.83834
1.84157
1.84469
1.84785
1.85097
1.85392
1.8569
1.86001
1.86306
1.86593
1.86879
1.87188
1.87466
1.87761
1.88064
1.88372
1.88684
1.88995
1.89306
1.8962
1.89939
1.90267
1.90602
1.90945
1.913
1.91671
1.92061
1.92467
1.92864
1.93274
1.9367
1.94029
1.94406
1.94785
1.95162
1.95538
1.95911
1.96286
1.96665
1.97055
1.97456
1.97865
1.98282
1.98703
1.99122
1.9953
1.99929
2.00328
2.0073
2.01123
2.01509
2.0192
2.02329
2.02722
2.03089
2.03432
2.03762
2.04087
2.04424
2.0477
2.05106
2.05457
2.05788
2.06082
2.06318
2.06485
2.06582
2.06623
2.06627
2.06585
2.06506
2.06359
2.06086
2.05672
0.2
0.2
0.2
0.2
0.2
0.2
0.2
0.2
0.2
0.2
0.2
0.2
0.2
0.2
0.2
0.2
0.2
0.2
0.2
0.2
0.2
0.199978
0.209995
0.824375
1.67752
1.70211
1.71115
1.72076
1.73119
1.74158
1.75092
1.75939
1.76741
1.77512
1.78238
1.7892
1.79563
1.80138
1.80726
1.81252
1.81732
1.8219
1.82609
1.83
1.83354
1.83694
1.84013
1.84327
1.84643
1.8495
1.85241
1.85544
1.85854
1.86153
1.86431
1.86721
1.87022
1.87298
1.8759
1.8789
1.88195
1.88503
1.8881
1.89118
1.8943
1.89747
1.90072
1.90403
1.90742
1.91091
1.91456
1.91839
1.92239
1.9263
1.9304
1.93426
1.93785
1.94161
1.94539
1.94914
1.95288
1.9566
1.96033
1.96413
1.96805
1.97208
1.9762
1.98038
1.98459
1.98877
1.99284
1.99682
2.00077
2.00481
2.00871
2.01263
2.01674
2.0208
2.02466
2.02828
2.03165
2.03489
2.03809
2.04139
2.04478
2.04804
2.05143
2.0546
2.05733
2.05944
2.06083
2.0615
2.06164
2.06131
2.06045
2.05937
2.05725
2.05407
2.04895
0.2
0.2
0.2
0.2
0.2
0.2
0.2
0.2
0.2
0.2
0.2
0.2
0.2
0.2
0.2
0.2
0.2
0.2
0.2
0.2
0.2
0.199975
0.211262
0.81262
1.6764
1.70123
1.71024
1.71984
1.7302
1.7406
1.74978
1.75824
1.76625
1.77393
1.78116
1.78796
1.79422
1.79993
1.80584
1.81097
1.81579
1.82039
1.82455
1.82844
1.83194
1.83534
1.83848
1.84164
1.84478
1.84779
1.85071
1.85377
1.85682
1.85974
1.86246
1.86543
1.86831
1.87105
1.87394
1.87691
1.87992
1.88297
1.886
1.88906
1.89215
1.89529
1.8985
1.90177
1.9051
1.90853
1.91211
1.91587
1.91978
1.92363
1.92771
1.93147
1.93507
1.93881
1.94258
1.94633
1.95006
1.95377
1.9575
1.9613
1.96524
1.9693
1.97345
1.97763
1.98183
1.98598
1.99004
1.99402
1.99795
2.00199
2.00589
2.00986
2.01395
2.01795
2.02176
2.02531
2.02864
2.03183
2.03496
2.0382
2.04152
2.04469
2.04796
2.05096
2.05347
2.05531
2.0564
2.05678
2.05665
2.05585
2.05464
2.0532
2.05037
2.04675
2.04059
0.2
0.2
0.2
0.2
0.2
0.2
0.2
0.2
0.2
0.2
0.2
0.2
0.2
0.2
0.2
0.2
0.2
0.2
0.2
0.2
0.2
0.199972
0.212716
0.798997
1.67502
1.70026
1.70925
1.71882
1.72909
1.73945
1.74852
1.75701
1.76502
1.77266
1.77983
1.78652
1.7926
1.79836
1.80415
1.80927
1.81411
1.81868
1.82282
1.82667
1.83014
1.83352
1.83664
1.8398
1.8429
1.84584
1.8488
1.85187
1.85482
1.85769
1.86039
1.86341
1.86612
1.86887
1.87174
1.87467
1.87764
1.88064
1.88363
1.88666
1.88972
1.89282
1.89598
1.89919
1.90245
1.90581
1.90932
1.91301
1.91682
1.9206
1.92466
1.92831
1.93193
1.93568
1.93945
1.94318
1.9469
1.95062
1.95435
1.95817
1.96212
1.9662
1.97037
1.97455
1.97873
1.98285
1.9869
1.99089
1.9948
1.99887
2.00274
2.00674
2.01079
2.01474
2.01848
2.02198
2.02526
2.0284
2.03149
2.03467
2.03789
2.041
2.04412
2.04694
2.04921
2.05076
2.05155
2.05168
2.05116
2.04993
2.04845
2.04649
2.04295
2.03886
2.03157
0.2
0.2
0.2
0.2
0.2
0.2
0.2
0.2
0.2
0.2
0.2
0.2
0.2
0.2
0.2
0.2
0.2
0.2
0.2
0.2
0.2
0.199969
0.214366
0.783358
1.67349
1.69926
1.7082
1.71771
1.72786
1.73814
1.74713
1.75562
1.7636
1.77122
1.7782
1.78475
1.79075
1.79666
1.80223
1.80735
1.81219
1.81675
1.82086
1.82468
1.82812
1.83147
1.83459
1.83773
1.84076
1.84367
1.84669
1.84966
1.85255
1.85534
1.85808
1.86105
1.86368
1.86642
1.86925
1.87214
1.87508
1.87802
1.88098
1.88397
1.88698
1.89003
1.89313
1.89628
1.89947
1.90274
1.90619
1.90978
1.91347
1.91719
1.9212
1.92477
1.92842
1.93218
1.93595
1.93969
1.9434
1.94712
1.95087
1.95471
1.95868
1.96277
1.96694
1.97113
1.97528
1.97937
1.98341
1.98742
1.99132
1.99542
1.99926
2.00326
2.00726
2.01115
2.01482
2.01827
2.0215
2.0246
2.02764
2.03078
2.03391
2.03694
2.03991
2.04252
2.04454
2.0458
2.04629
2.04615
2.04517
2.04359
2.0418
2.03921
2.03499
2.03038
2.02191
0.2
0.2
0.2
0.2
0.2
0.2
0.2
0.2
0.2
0.2
0.2
0.2
0.2
0.2
0.2
0.2
0.2
0.2
0.2
0.2
0.2
0.199969
0.216249
0.765456
1.67169
1.6982
1.70707
1.71647
1.72649
1.73667
1.74561
1.7541
1.76208
1.76958
1.77634
1.78272
1.7888
1.79476
1.80007
1.8052
1.81003
1.81458
1.81867
1.82246
1.82588
1.8292
1.8323
1.8354
1.83836
1.84128
1.84429
1.84716
1.85001
1.85269
1.85552
1.85835
1.86096
1.86367
1.86647
1.86932
1.87222
1.87509
1.87801
1.88095
1.88391
1.8869
1.88992
1.89299
1.89611
1.8993
1.90267
1.90616
1.90973
1.91336
1.91732
1.92083
1.92452
1.9283
1.93208
1.93581
1.93954
1.94327
1.94706
1.95092
1.9549
1.95899
1.96316
1.96734
1.97147
1.97553
1.97957
1.9836
1.98752
1.99164
1.99543
1.99941
2.00335
2.00716
2.01077
2.01416
2.01735
2.02041
2.02342
2.02651
2.02955
2.03248
2.03528
2.03767
2.0394
2.04037
2.04061
2.0401
2.0387
2.03684
2.03464
2.0314
2.02645
2.02125
2.01161
0.2
0.2
0.2
0.2
0.2
0.2
0.2
0.2
0.2
0.2
0.2
0.2
0.2
0.2
0.2
0.2
0.2
0.2
0.2
0.2
0.2
0.199997
0.218305
0.745159
1.66959
1.69705
1.70582
1.71508
1.72497
1.73503
1.74397
1.75248
1.76039
1.76765
1.77432
1.78051
1.78673
1.7925
1.79771
1.80281
1.80764
1.81217
1.81624
1.82
1.82338
1.82667
1.82977
1.83282
1.83571
1.83866
1.84156
1.84434
1.84714
1.8498
1.85271
1.85532
1.85794
1.86064
1.86339
1.86621
1.86905
1.87186
1.87473
1.8776
1.88049
1.8834
1.88635
1.88934
1.89236
1.89547
1.89875
1.90212
1.90556
1.90911
1.91297
1.91649
1.92023
1.92402
1.9278
1.93154
1.93529
1.93907
1.94289
1.94677
1.95076
1.95485
1.95901
1.96318
1.96729
1.97134
1.97537
1.97944
1.98338
1.9875
1.99124
1.99517
1.99904
2.00278
2.00633
2.00965
2.0128
2.01583
2.01882
2.02187
2.02481
2.02763
2.03024
2.03238
2.03383
2.03453
2.03453
2.03357
2.03182
2.02971
2.02701
2.02313
2.01747
2.01154
2.00085
0.2
0.2
0.2
0.2
0.2
0.2
0.2
0.2
0.2
0.2
0.2
0.2
0.2
0.2
0.2
0.2
0.2
0.2
0.2
0.2
0.199998
0.200031
0.220537
0.722325
1.66713
1.69587
1.70454
1.71361
1.72335
1.73328
1.74222
1.7507
1.75842
1.76546
1.77208
1.77822
1.78449
1.78995
1.79516
1.80022
1.80501
1.80948
1.81351
1.81724
1.82059
1.82385
1.82693
1.82991
1.83282
1.83574
1.83847
1.84124
1.84396
1.8467
1.8495
1.85203
1.85464
1.8573
1.86001
1.86279
1.86554
1.86831
1.87111
1.87389
1.8767
1.87954
1.88241
1.8853
1.88823
1.89123
1.89442
1.89763
1.90096
1.90443
1.90817
1.91175
1.91552
1.91932
1.92311
1.92688
1.93067
1.93448
1.93833
1.94225
1.94625
1.95033
1.95447
1.95863
1.96273
1.96679
1.97084
1.97491
1.97894
1.98301
1.98668
1.99057
1.99437
1.99803
2.00149
2.00476
2.00787
2.01088
2.01386
2.01686
2.0197
2.02237
2.02478
2.02668
2.02785
2.02827
2.02796
2.0266
2.02459
2.02213
2.01885
2.01437
2.00796
2.00128
1.9894
0.2
0.2
0.2
0.2
0.2
0.2
0.2
0.2
0.2
0.2
0.2
0.2
0.2
0.2
0.2
0.2
0.2
0.2
0.2
0.2
0.2
0.199979
0.222902
0.696838
1.66417
1.6946
1.70314
1.71199
1.72156
1.73139
1.74033
1.74868
1.75614
1.76315
1.76964
1.77586
1.78195
1.78727
1.79241
1.79738
1.80209
1.8065
1.81049
1.81418
1.81749
1.82073
1.82377
1.82671
1.8296
1.83236
1.8351
1.83787
1.84052
1.84333
1.84592
1.84846
1.85104
1.85365
1.85634
1.85903
1.86173
1.86441
1.86711
1.86981
1.87253
1.87529
1.87808
1.88088
1.8837
1.8866
1.88964
1.89272
1.89592
1.89936
1.90294
1.90657
1.91035
1.91417
1.91799
1.92181
1.92565
1.92949
1.93338
1.93733
1.94134
1.94542
1.94953
1.95367
1.95778
1.96186
1.96594
1.97004
1.97414
1.97811
1.98174
1.98556
1.98929
1.99285
1.99624
1.99944
2.00252
2.00551
2.00848
2.01143
2.01415
2.01666
2.01884
2.02046
2.02135
2.02154
2.02083
2.01915
2.01687
2.01398
2.01012
2.00504
1.99779
1.99035
1.97734
0.2
0.2
0.2
0.2
0.2
0.2
0.2
0.2
0.2
0.2
0.2
0.2
0.2
0.2
0.2
0.2
0.2
0.2
0.2
0.2
0.2
0.199918
0.225296
0.668678
1.66045
1.69322
1.70166
1.71027
1.71966
1.72938
1.73826
1.74641
1.75364
1.76063
1.76701
1.77337
1.77908
1.78434
1.78941
1.79427
1.79889
1.80321
1.80715
1.81082
1.81407
1.81727
1.82026
1.82313
1.82593
1.82868
1.83144
1.83415
1.83684
1.83953
1.84203
1.84455
1.8471
1.84968
1.85233
1.85491
1.85756
1.86012
1.86271
1.86531
1.86795
1.87063
1.87334
1.87604
1.87875
1.88158
1.88446
1.8874
1.89048
1.89393
1.89729
1.90094
1.90475
1.90862
1.91249
1.91634
1.9202
1.92408
1.92801
1.93199
1.93601
1.94008
1.94417
1.94831
1.95244
1.95656
1.96068
1.9648
1.96893
1.97281
1.97643
1.98018
1.98382
1.98729
1.99059
1.99375
1.9968
1.99977
2.00272
2.0056
2.00816
2.01048
2.01242
2.01373
2.01434
2.01427
2.01316
2.01122
2.00863
2.00528
2.00086
1.99516
1.98711
1.97888
1.96475
0.2
0.2
0.2
0.2
0.2
0.2
0.2
0.2
0.2
0.2
0.2
0.2
0.2
0.2
0.2
0.2
0.2
0.2
0.2
0.2
0.2
0.19984
0.227635
0.63783
1.65571
1.69182
1.70011
1.70844
1.71759
1.72719
1.73596
1.74391
1.75102
1.75786
1.76437
1.77049
1.77597
1.78115
1.78612
1.79087
1.79539
1.79963
1.8035
1.80711
1.8103
1.81345
1.81637
1.81916
1.82196
1.82472
1.82744
1.83011
1.8328
1.83534
1.83782
1.84031
1.84281
1.84539
1.84791
1.85045
1.853
1.85543
1.85791
1.8604
1.86295
1.86554
1.86815
1.87075
1.87338
1.87616
1.87889
1.8817
1.88467
1.88804
1.89126
1.89492
1.89878
1.90268
1.90656
1.91045
1.91434
1.91826
1.92221
1.9262
1.93023
1.93429
1.93838
1.94252
1.94669
1.95086
1.95503
1.95916
1.9633
1.96709
1.97072
1.97441
1.97796
1.98136
1.9846
1.98773
1.99075
1.9937
1.99661
1.9994
2.00179
2.0039
2.00558
2.0066
2.00695
2.00658
2.00516
2.003
2.00004
1.9962
1.99119
1.98481
1.97595
1.9669
1.95169
0.2
0.2
0.2
0.2
0.2
0.2
0.2
0.2
0.2
0.2
0.2
0.2
0.2
0.2
0.2
0.2
0.2
0.2
0.2
0.2
0.199998
0.199749
0.229797
0.604296
1.64971
1.69042
1.69844
1.70651
1.7154
1.72484
1.73341
1.74119
1.74841
1.75499
1.7614
1.76725
1.77262
1.77771
1.78255
1.78718
1.79156
1.79569
1.79948
1.80301
1.80616
1.80925
1.81213
1.81497
1.81775
1.82046
1.82313
1.82576
1.82832
1.8308
1.83324
1.83569
1.83817
1.84069
1.84314
1.84558
1.84793
1.85031
1.8527
1.8551
1.85754
1.86
1.86248
1.86497
1.86757
1.87031
1.87295
1.87568
1.87855
1.88172
1.88496
1.8886
1.89246
1.89635
1.90026
1.90417
1.90809
1.91202
1.91597
1.91995
1.92398
1.92806
1.93216
1.93632
1.94051
1.94472
1.94895
1.95306
1.9572
1.96089
1.96454
1.96816
1.97166
1.97501
1.97821
1.98132
1.98432
1.98724
1.99009
1.99276
1.99495
1.99682
1.99821
1.99893
1.99904
1.99831
1.99668
1.9942
1.99084
1.98655
1.98093
1.97389
1.96425
1.95438
1.93807
0.2
0.2
0.2
0.2
0.2
0.2
0.2
0.2
0.2
0.2
0.2
0.2
0.2
0.2
0.2
0.2
0.2
0.2
0.2
0.2
0.199997
0.199642
0.231704
0.567912
1.64204
1.689
1.6966
1.70449
1.71307
1.72224
1.73057
1.73835
1.74548
1.75187
1.7581
1.76378
1.76903
1.774
1.77868
1.78314
1.78735
1.79136
1.79506
1.79856
1.80169
1.80477
1.80769
1.81052
1.81326
1.81593
1.81853
1.82108
1.82356
1.82597
1.82836
1.83076
1.83318
1.83559
1.83795
1.84017
1.84242
1.84475
1.84708
1.84937
1.85167
1.854
1.85637
1.85877
1.86135
1.864
1.86659
1.86925
1.87217
1.87509
1.87831
1.88192
1.88578
1.8897
1.89362
1.89754
1.90145
1.90537
1.9093
1.91326
1.9173
1.9214
1.92553
1.92971
1.93392
1.93816
1.94241
1.94649
1.95063
1.9542
1.95788
1.96147
1.96495
1.96829
1.97149
1.97456
1.97753
1.98039
1.98316
1.98566
1.98763
1.98923
1.99029
1.99071
1.99055
1.98951
1.98768
1.98487
1.98114
1.97639
1.97014
1.96243
1.95205
1.94135
1.92401
0.2
0.2
0.2
0.2
0.2
0.2
0.2
0.2
0.2
0.2
0.2
0.2
0.2
0.2
0.2
0.2
0.2
0.2
0.2
0.2
0.199998
0.199569
0.233104
0.529539
1.6324
1.68751
1.69455
1.70228
1.71056
1.71942
1.72763
1.73534
1.74205
1.74844
1.75449
1.75999
1.7651
1.76994
1.77447
1.77878
1.78281
1.78673
1.79033
1.79383
1.79698
1.80003
1.80296
1.80578
1.80853
1.81115
1.81371
1.81619
1.8186
1.82093
1.82325
1.82553
1.82779
1.83012
1.83225
1.8343
1.83649
1.83876
1.84099
1.84317
1.84536
1.84756
1.8498
1.85216
1.85469
1.85719
1.85977
1.8624
1.86531
1.86812
1.87135
1.87495
1.87882
1.88275
1.88667
1.89056
1.89443
1.89832
1.90221
1.90615
1.91021
1.91434
1.91851
1.92271
1.92692
1.93114
1.93538
1.93938
1.94352
1.94701
1.95074
1.95437
1.95789
1.96124
1.96444
1.96748
1.9704
1.9732
1.97587
1.97815
1.97989
1.98119
1.98192
1.98207
1.98159
1.98033
1.97824
1.97508
1.97099
1.96573
1.95884
1.95047
1.93935
1.92784
1.9094
0.2
0.2
0.2
0.2
0.2
0.2
0.2
0.2
0.2
0.2
0.2
0.2
0.2
0.2
0.2
0.2
0.2
0.2
0.2
0.2
0.199999
0.199505
0.23386
0.48908
1.62035
1.68613
1.69235
1.69986
1.70787
1.71657
1.72476
1.73189
1.73841
1.74469
1.75047
1.75576
1.76077
1.76552
1.76995
1.77413
1.77803
1.78188
1.78543
1.78884
1.79195
1.79496
1.7979
1.80073
1.80344
1.80605
1.80858
1.81101
1.81334
1.81564
1.81779
1.81988
1.82212
1.82422
1.82612
1.82807
1.83018
1.83235
1.83445
1.83654
1.83863
1.84073
1.84286
1.84515
1.84758
1.84998
1.85245
1.85512
1.85791
1.8608
1.86404
1.86762
1.87148
1.87544
1.87936
1.88323
1.88706
1.89089
1.89476
1.89869
1.90277
1.9069
1.91112
1.91533
1.91949
1.92363
1.92785
1.93174
1.93585
1.93936
1.94316
1.94686
1.95043
1.95382
1.95702
1.96004
1.96291
1.96564
1.96817
1.97021
1.97169
1.97269
1.97308
1.97294
1.97215
1.9707
1.96828
1.96479
1.9603
1.95449
1.94695
1.93793
1.92608
1.9138
1.89426
0.2
0.2
0.2
0.2
0.2
0.2
0.2
0.2
0.2
0.2
0.2
0.2
0.2
0.2
0.2
0.2
0.2
0.2
0.2
0.2
0.199999
0.199463
0.233758
0.446477
1.60535
1.68485
1.68996
1.69725
1.70513
1.71359
1.7213
1.72806
1.73462
1.7406
1.746
1.75114
1.75608
1.76075
1.76508
1.76922
1.77307
1.77677
1.78024
1.78356
1.7866
1.78956
1.79246
1.79524
1.79791
1.80049
1.80297
1.80536
1.80769
1.80982
1.81177
1.81388
1.81606
1.81788
1.81963
1.82149
1.82351
1.82552
1.82753
1.82954
1.83155
1.83357
1.83562
1.83787
1.84009
1.84241
1.8448
1.84747
1.8501
1.85305
1.85631
1.85987
1.86372
1.86771
1.87165
1.87551
1.87931
1.88313
1.88697
1.89092
1.89497
1.89911
1.90337
1.90757
1.91166
1.91567
1.91977
1.92362
1.92769
1.93126
1.93513
1.93891
1.94254
1.94597
1.94919
1.95219
1.95501
1.95764
1.96002
1.96179
1.96299
1.96368
1.96378
1.96328
1.96224
1.96053
1.95777
1.95396
1.94904
1.94266
1.9345
1.92486
1.91234
1.89928
1.87874
0.2
0.2
0.2
0.2
0.2
0.2
0.2
0.2
0.2
0.2
0.2
0.2
0.2
0.2
0.2
0.2
0.2
0.2
0.2
0.2
0.200001
0.199411
0.232599
0.402397
1.5867
1.68325
1.6876
1.69468
1.70215
1.70984
1.7171
1.72413
1.73046
1.73604
1.74129
1.74635
1.75113
1.75573
1.75998
1.76399
1.76776
1.77136
1.77476
1.77796
1.78092
1.78378
1.78663
1.78934
1.79195
1.79446
1.79676
1.7991
1.80137
1.80332
1.80527
1.80746
1.80945
1.81111
1.81278
1.8146
1.81646
1.81836
1.82031
1.82227
1.82423
1.82619
1.82823
1.83041
1.83248
1.83463
1.83695
1.83946
1.84207
1.84499
1.8482
1.85169
1.85546
1.85945
1.86345
1.86734
1.87117
1.875
1.87886
1.88282
1.88682
1.89099
1.89523
1.8994
1.9034
1.90731
1.91126
1.9151
1.9191
1.92275
1.92668
1.93054
1.93425
1.93774
1.94098
1.94397
1.94672
1.94923
1.95142
1.95292
1.95385
1.95421
1.954
1.95318
1.95194
1.94996
1.94687
1.94275
1.93736
1.9304
1.92163
1.91132
1.89814
1.88432
1.86279
0.2
0.2
0.2
0.2
0.2
0.2
0.2
0.2
0.2
0.2
0.2
0.2
0.2
0.2
0.2
0.2
0.2
0.2
0.2
0.2
0.200001
0.199279
0.230324
0.358222
1.56243
1.68161
1.68571
1.69187
1.69819
1.70521
1.71267
1.71965
1.72572
1.73132
1.73656
1.74152
1.74618
1.75058
1.75466
1.75851
1.76217
1.76561
1.76892
1.77199
1.77488
1.77766
1.78047
1.78313
1.78559
1.78782
1.79002
1.79235
1.79438
1.79621
1.79823
1.80039
1.80225
1.80393
1.80561
1.80733
1.8091
1.81092
1.81279
1.81471
1.81664
1.81859
1.82068
1.82266
1.82468
1.82673
1.82899
1.83128
1.83382
1.83662
1.8397
1.84305
1.84668
1.85062
1.85466
1.85864
1.86256
1.86642
1.87035
1.87431
1.87831
1.88248
1.88666
1.89075
1.89471
1.89858
1.90243
1.90627
1.91017
1.91394
1.9179
1.92182
1.92559
1.92913
1.93238
1.93533
1.93798
1.94036
1.94236
1.94359
1.94426
1.94435
1.94379
1.94272
1.94125
1.93895
1.93554
1.93105
1.92513
1.91759
1.90822
1.89725
1.88348
1.86897
1.84639
0.2
0.2
0.2
0.2
0.2
0.2
0.2
0.2
0.2
0.2
0.2
0.2
0.2
0.2
0.2
0.2
0.2
0.2
0.2
0.2
0.200001
0.199349
0.227248
0.316974
1.53058
1.6782
1.6819
1.68735
1.69335
1.70052
1.70779
1.71453
1.72077
1.72645
1.73169
1.73656
1.7411
1.74535
1.74933
1.75294
1.75646
1.75969
1.76282
1.76574
1.76851
1.77123
1.77392
1.7765
1.77879
1.78087
1.78305
1.78517
1.78698
1.78879
1.7908
1.79275
1.79451
1.79621
1.79787
1.79954
1.80124
1.80298
1.80479
1.80666
1.80857
1.81063
1.81264
1.81462
1.81658
1.81865
1.82078
1.82297
1.82539
1.82804
1.83091
1.83405
1.8375
1.84127
1.84532
1.84941
1.85346
1.85743
1.86142
1.86534
1.8694
1.87355
1.87765
1.88166
1.8856
1.88952
1.89326
1.89716
1.90091
1.90476
1.90872
1.91266
1.91647
1.92003
1.92326
1.92616
1.92873
1.931
1.93281
1.93381
1.93422
1.93405
1.93317
1.93187
1.93013
1.92745
1.92372
1.9188
1.91235
1.90424
1.8943
1.88267
1.8684
1.85314
1.82964
0.2
0.2
0.2
0.2
0.2
0.2
0.2
0.2
0.2
0.2
0.2
0.2
0.2
0.2
0.2
0.2
0.2
0.2
0.2
0.2
0.2
0.19995
0.22072
0.283274
1.49368
1.67132
1.67683
1.68288
1.68919
1.6957
1.70256
1.70934
1.71552
1.72124
1.72651
1.73139
1.73594
1.73999
1.74387
1.74736
1.75068
1.7537
1.7566
1.75931
1.76172
1.76427
1.76694
1.76946
1.77169
1.77381
1.77595
1.77782
1.77956
1.78134
1.78313
1.7848
1.78643
1.78804
1.78965
1.79128
1.79294
1.79465
1.79642
1.79825
1.80018
1.80213
1.80416
1.80616
1.80816
1.81017
1.81222
1.81439
1.81669
1.81921
1.82188
1.82484
1.82808
1.83165
1.83559
1.83974
1.84387
1.84802
1.85198
1.85591
1.86001
1.86415
1.86819
1.87213
1.87604
1.88001
1.88368
1.8877
1.89131
1.89521
1.89919
1.90315
1.90697
1.9105
1.91368
1.91652
1.919
1.92116
1.92276
1.92353
1.92373
1.92325
1.92207
1.92056
1.91851
1.91544
1.91136
1.90596
1.89899
1.89035
1.87985
1.86762
1.85288
1.83695
1.81245
0.2
0.2
0.2
0.2
0.2
0.2
0.2
0.2
0.2
0.2
0.2
0.2
0.2
0.2
0.2
0.2
0.2
0.2
0.2
0.2
0.2
0.199985
0.209518
0.256949
1.44344
1.66365
1.67096
1.67769
1.6843
1.69079
1.69773
1.70451
1.7105
1.71599
1.72125
1.72594
1.7304
1.73442
1.73822
1.74159
1.74469
1.74744
1.74998
1.75242
1.75465
1.75712
1.75978
1.7622
1.76445
1.76662
1.76859
1.77036
1.77205
1.77374
1.77535
1.7769
1.77844
1.77996
1.78149
1.78302
1.78456
1.78617
1.78786
1.78958
1.79138
1.79327
1.79524
1.79726
1.79927
1.80129
1.80331
1.80543
1.80765
1.81005
1.81259
1.81542
1.81848
1.82186
1.82563
1.82971
1.83395
1.83805
1.84203
1.84605
1.85021
1.85438
1.85838
1.86228
1.86615
1.87018
1.87386
1.87793
1.88151
1.88544
1.8894
1.89332
1.89705
1.90049
1.90357
1.9063
1.90868
1.91071
1.91211
1.91271
1.91278
1.91201
1.91063
1.90889
1.90649
1.90303
1.89856
1.89264
1.88514
1.87597
1.86493
1.85213
1.83697
1.8203
1.79493
0.2
0.2
0.2
0.2
0.2
0.2
0.2
0.2
0.2
0.2
0.2
0.2
0.2
0.2
0.2
0.2
0.2
0.2
0.2
0.2
0.2
0.199999
0.200215
0.235795
1.38267
1.65641
1.66531
1.6731
1.67981
1.68632
1.69316
1.69978
1.70563
1.71101
1.71592
1.72032
1.72453
1.72836
1.73194
1.73513
1.73801
1.74053
1.74293
1.7452
1.7474
1.74969
1.7522
1.75451
1.75674
1.75885
1.76079
1.7626
1.76436
1.76602
1.76759
1.76911
1.77058
1.772
1.7734
1.77481
1.77618
1.77762
1.77911
1.78066
1.7823
1.7841
1.78602
1.78798
1.78992
1.79189
1.79392
1.79602
1.79823
1.80055
1.803
1.80573
1.80869
1.81195
1.81554
1.81952
1.82365
1.82767
1.83171
1.83582
1.84007
1.84429
1.8483
1.85219
1.85603
1.86004
1.86379
1.86785
1.87145
1.87539
1.87931
1.88314
1.88675
1.89007
1.89302
1.89561
1.89786
1.89974
1.901
1.90149
1.90144
1.90042
1.89887
1.89687
1.89408
1.89023
1.8853
1.87885
1.87084
1.86114
1.84956
1.8362
1.82061
1.80331
1.77697
0.2
0.2
0.2
0.2
0.2
0.2
0.2
0.2
0.2
0.2
0.2
0.2
0.2
0.2
0.2
0.2
0.2
0.2
0.2
0.2
0.199999
0.199998
0.199999
0.214855
1.30738
1.65298
1.66219
1.6689
1.67547
1.6819
1.68862
1.6953
1.70091
1.70592
1.71049
1.7145
1.71823
1.72167
1.7249
1.72785
1.73061
1.73297
1.73519
1.73726
1.73929
1.74142
1.74385
1.74614
1.74841
1.75058
1.75264
1.75459
1.75642
1.75813
1.7597
1.76117
1.76257
1.76386
1.76509
1.76635
1.76759
1.76885
1.77031
1.77178
1.77319
1.77482
1.77661
1.77837
1.78018
1.78206
1.78404
1.78614
1.78838
1.79071
1.79318
1.79586
1.79875
1.80187
1.80532
1.80914
1.81308
1.8171
1.82114
1.82527
1.82959
1.83383
1.83789
1.8418
1.84563
1.84955
1.8534
1.85741
1.86103
1.86495
1.86882