/*--------------------------------*- C++ -*----------------------------------*\
| =========                 |                                                 |
| \\      /  F ield         | OpenFOAM: The Open Source CFD Toolbox           |
|  \\    /   O peration     | Version:  2.2.x                                 |
|   \\  /    A nd           | Web:      www.OpenFOAM.org                      |
|    \\/     M anipulation  |                                                 |
\*---------------------------------------------------------------------------*/
FoamFile
{
    version     2.0;
    format      ascii;
    class       volScalarField;
    location    "1.2";
    object      rho;
}
// * * * * * * * * * * * * * * * * * * * * * * * * * * * * * * * * * * * * * //

dimensions      [1 -3 0 0 0 0 0];

internalField   nonuniform List<scalar> 
14161
(
1
1
1
1
1
1
1
1
1
1
1
1
1
1
1
1
1
1
1
1
0.999996
0.99995
1.00365
1.83702
2.78899
2.80667
2.81181
2.81883
2.82781
2.83758
2.84744
2.85742
2.86731
2.87654
2.8853
2.89332
2.90127
2.90925
2.91723
2.92554
2.93374
2.94014
2.94455
2.94735
2.94901
2.94979
2.95013
2.95016
2.95004
2.94996
2.95019
2.95055
2.95136
2.95311
2.9558
2.95932
2.96412
2.97032
2.97626
2.98067
2.98374
2.98594
2.98761
2.98901
2.99034
2.99169
2.99318
2.99495
2.99714
2.99991
3.00343
3.00788
3.01327
3.01972
3.02707
3.03601
3.04587
3.05342
3.05782
3.05998
3.06075
3.06085
3.06077
3.06063
3.06069
3.06117
3.06243
3.06468
3.06788
3.07174
3.07588
3.08015
3.08471
3.09012
3.09705
3.10522
3.11142
3.11476
3.11638
3.11717
3.11769
3.11827
3.11927
3.12134
3.12528
3.13108
3.13645
3.1394
3.14098
3.14211
3.14345
3.14505
3.14601
3.14591
3.14491
3.14253
3.13767
3.13216
3.13071
1
1
1
1
1
1
1
1
1
1
1
1
1
1
1
1
1
1
1
0.999999
1.00001
0.999962
1.00367
1.83886
2.78947
2.80683
2.81181
2.81881
2.8278
2.83749
2.8474
2.85746
2.86737
2.87657
2.88531
2.89335
2.90129
2.90928
2.91726
2.92557
2.93376
2.94013
2.94452
2.94733
2.94897
2.94977
2.9501
2.95011
2.95001
2.94994
2.95015
2.95055
2.95135
2.95308
2.95577
2.9593
2.96412
2.97031
2.97625
2.98065
2.98372
2.98593
2.9876
2.989
2.99033
2.99169
2.99319
2.99498
2.99718
2.99994
3.00346
3.00792
3.01331
3.01976
3.02712
3.03608
3.04589
3.05337
3.05773
3.05987
3.06064
3.06073
3.06062
3.0605
3.06057
3.06106
3.06233
3.06458
3.06779
3.07165
3.0758
3.08007
3.08464
3.09005
3.097
3.10516
3.11133
3.11464
3.11625
3.11702
3.11753
3.11809
3.11908
3.12115
3.12508
3.13088
3.13624
3.13917
3.14073
3.14185
3.14318
3.14474
3.14566
3.14552
3.14447
3.14202
3.13713
3.1316
3.13001
1
1
1
1
1
1
1
1
1
1
1
1
1
1
1
1
1
1
1
0.999999
1.00001
0.999978
1.00393
1.83928
2.78878
2.80619
2.81108
2.81798
2.82695
2.83664
2.8467
2.857
2.867
2.87624
2.88499
2.89313
2.90108
2.90908
2.9171
2.92542
2.93361
2.93997
2.94434
2.94715
2.94878
2.94957
2.94987
2.94989
2.94981
2.94977
2.94996
2.95039
2.95122
2.95293
2.95561
2.95917
2.96401
2.9702
2.9761
2.98045
2.98349
2.98566
2.98731
2.98869
2.99001
2.99136
2.99286
2.99466
2.99687
2.99963
3.00316
3.00764
3.01308
3.01955
3.02696
3.03597
3.04577
3.05317
3.05746
3.05955
3.06027
3.06034
3.06024
3.06014
3.06023
3.06077
3.06207
3.06435
3.06756
3.07142
3.07558
3.07985
3.08443
3.08985
3.09686
3.105
3.11108
3.11433
3.1159
3.11666
3.11715
3.11771
3.1187
3.1208
3.12478
3.13058
3.13586
3.13872
3.14024
3.14134
3.14263
3.14414
3.14496
3.14475
3.14362
3.14107
3.13612
3.13051
3.12869
1
1
1
1
1
1
1
1
1
1
1
1
1
1
1
1
1
1
1
1
1.00001
0.999987
1.0039
1.83953
2.78814
2.80547
2.81023
2.81707
2.82601
2.83573
2.84591
2.85642
2.86647
2.87571
2.88448
2.89272
2.90071
2.90872
2.91681
2.92515
2.93334
2.93968
2.94405
2.94682
2.94843
2.9492
2.94949
2.94952
2.94944
2.94943
2.94965
2.9501
2.95096
2.95267
2.95538
2.95897
2.96385
2.97002
2.97582
2.98008
2.98304
2.98516
2.98677
2.98814
2.98945
2.99082
2.99234
2.99413
2.99636
2.99916
3.00273
3.00726
3.01276
3.0193
3.02679
3.03589
3.04562
3.05286
3.05701
3.05901
3.05969
3.05974
3.05964
3.05956
3.05967
3.06026
3.06162
3.06393
3.06716
3.07104
3.07521
3.07951
3.08413
3.0896
3.0967
3.10481
3.11074
3.11387
3.11538
3.11611
3.11659
3.11713
3.11813
3.12028
3.12433
3.13014
3.13529
3.13802
3.13948
3.14053
3.14178
3.14319
3.14386
3.14354
3.14228
3.1396
3.13454
3.12882
3.12665
1
1
1
1
1
1
1
1
1
1
1
1
1
1
1
1
1
1
1
1
1.00001
0.999995
1.0038
1.83896
2.78736
2.80487
2.80964
2.81648
2.82543
2.83518
2.84546
2.85609
2.86611
2.87531
2.88406
2.89231
2.9003
2.90828
2.91642
2.92478
2.93297
2.93928
2.94366
2.94639
2.948
2.94878
2.94907
2.9491
2.94902
2.94903
2.94927
2.94974
2.95061
2.95234
2.9551
2.95871
2.96365
2.96981
2.97548
2.97958
2.98244
2.98449
2.98605
2.98741
2.98871
2.99008
2.9916
2.99343
2.9957
2.99855
3.00218
3.00679
3.01238
3.01897
3.02655
3.03574
3.04539
3.05241
3.0564
3.0583
3.05894
3.05898
3.05888
3.05882
3.05896
3.05959
3.06101
3.06336
3.06661
3.0705
3.07467
3.07898
3.08365
3.08919
3.09641
3.10446
3.1102
3.1132
3.11463
3.11532
3.11578
3.11631
3.11732
3.11954
3.1237
3.12952
3.1345
3.1371
3.13848
3.13947
3.14067
3.14194
3.1424
3.14196
3.14054
3.1377
3.13247
3.12651
3.12401
1
1
1
1
1
1
1
1
1
1
1
1
1
1
1
1
1
1
1
1
1.00001
0.999997
1.00375
1.83762
2.78664
2.80452
2.80942
2.8163
2.82527
2.83505
2.8454
2.85608
2.86603
2.87515
2.88383
2.89202
2.89997
2.90793
2.91605
2.92442
2.93261
2.93886
2.94322
2.9459
2.94748
2.94826
2.94854
2.94857
2.94848
2.94849
2.94875
2.94921
2.9501
2.95188
2.95468
2.95832
2.96332
2.96946
2.97497
2.97892
2.98169
2.98369
2.98522
2.98657
2.98789
2.98927
2.99083
2.99269
2.99499
2.99789
3.00156
3.00621
3.01185
3.01847
3.02613
3.03539
3.04492
3.05174
3.05557
3.0574
3.05801
3.05805
3.05797
3.05794
3.05813
3.05882
3.06031
3.06273
3.06603
3.06992
3.07409
3.07841
3.08312
3.08871
3.09605
3.10401
3.10953
3.11237
3.11371
3.11435
3.11478
3.1153
3.11633
3.11862
3.12287
3.1287
3.13348
3.13592
3.13721
3.13815
3.13927
3.14036
3.1406
3.14001
3.1384
3.13538
3.12995
3.12366
3.12082
1
1
1
1
1
1
1
1
1
1
1
1
1
1
1
1
1
1
1
1
1
0.999996
1.00371
1.83522
2.78584
2.80403
2.80906
2.81598
2.82499
2.83484
2.84527
2.85602
2.86594
2.87499
2.88361
2.89176
2.89969
2.90764
2.91578
2.92417
2.93234
2.93853
2.94284
2.94546
2.94699
2.94775
2.948
2.948
2.94788
2.9479
2.94816
2.94859
2.94949
2.95134
2.95417
2.95782
2.9629
2.96901
2.97438
2.97821
2.98091
2.98288
2.9844
2.98577
2.98711
2.98852
2.99012
2.99203
2.99436
2.9973
3.001
3.00566
3.01132
3.01794
3.02563
3.0349
3.04427
3.05089
3.05456
3.0563
3.05685
3.05688
3.05679
3.05677
3.05699
3.05774
3.05928
3.06177
3.06511
3.06902
3.0732
3.07755
3.08232
3.08804
3.09553
3.10339
3.10867
3.11136
3.11262
3.11321
3.1136
3.11409
3.11514
3.1175
3.12185
3.12765
3.1322
3.13448
3.13568
3.13655
3.13756
3.13844
3.13845
3.13768
3.13587
3.13266
3.12701
3.12029
3.11697
1
1
1
1
1
1
1
1
1
1
1
1
1
1
1
1
1
1
1
1
1
0.999994
1.00368
1.83179
2.78518
2.80356
2.80874
2.81573
2.82483
2.8348
2.84533
2.85611
2.866
2.87498
2.88352
2.89159
2.89945
2.90738
2.9155
2.92391
2.93203
2.93812
2.94235
2.94488
2.94634
2.94707
2.94729
2.94726
2.94712
2.94715
2.94739
2.94779
2.94875
2.95066
2.95353
2.95723
2.9624
2.96849
2.97374
2.97747
2.98011
2.98204
2.98355
2.98493
2.98629
2.98774
2.98937
2.99132
2.99369
2.99667
3.00041
3.00508
3.01075
3.01735
3.02505
3.03429
3.04347
3.04987
3.05339
3.05503
3.05554
3.05555
3.05546
3.05544
3.05569
3.05649
3.05809
3.06064
3.06402
3.06795
3.07212
3.07648
3.0813
3.08716
3.09479
3.10251
3.10758
3.11013
3.11131
3.11186
3.11222
3.11268
3.11375
3.11619
3.12063
3.12638
3.13069
3.13279
3.13389
3.13468
3.13554
3.13618
3.13598
3.13496
3.13296
3.12959
3.12366
3.1164
3.11255
1
1
1
1
1
1
1
1
1
1
1
1
1
1
1
1
1
1
1
1
1
0.999992
1.00389
1.82731
2.78453
2.80294
2.80824
2.81529
2.8245
2.83465
2.84534
2.85616
2.86596
2.87488
2.88334
2.89136
2.89918
2.90711
2.91526
2.92371
2.93174
2.93769
2.94179
2.94421
2.94561
2.94629
2.94645
2.94638
2.94624
2.94628
2.94649
2.94687
2.9479
2.94988
2.95278
2.95654
2.96182
2.96789
2.97301
2.97663
2.97919
2.98107
2.98256
2.98393
2.98531
2.98678
2.98845
2.99043
2.99284
2.99585
2.99962
3.00431
3.00997
3.01655
3.02423
3.03341
3.04239
3.04857
3.05193
3.05349
3.05396
3.05397
3.05389
3.05391
3.05421
3.05507
3.05675
3.05937
3.0628
3.06675
3.0709
3.07524
3.08011
3.08609
3.09384
3.10142
3.10628
3.10868
3.10979
3.11029
3.1106
3.11105
3.11214
3.11465
3.11919
3.12485
3.12891
3.13083
3.13181
3.1325
3.1332
3.13357
3.13315
3.13188
3.12971
3.12615
3.11986
3.112
3.1075
1
1
1
1
1
1
1
1
1
1
1
1
1
1
1
1
1
1
1
1
1
0.99999
1.00411
1.82141
2.78358
2.80201
2.80745
2.81462
2.82399
2.83443
2.84534
2.8562
2.86596
2.87481
2.88318
2.89115
2.89894
2.90686
2.91499
2.9235
2.93142
2.93717
2.94111
2.94338
2.94469
2.9453
2.9454
2.94529
2.94516
2.9452
2.94537
2.94576
2.94689
2.94895
2.95189
2.95575
2.96116
2.9672
2.97215
2.97563
2.9781
2.97992
2.9814
2.98278
2.98418
2.98569
2.9874
2.98942
2.99188
2.99493
2.99873
3.00342
3.00908
3.01563
3.0233
3.03241
3.04115
3.04708
3.05026
3.05172
3.05214
3.05214
3.05206
3.05209
3.05245
3.05339
3.05514
3.05783
3.06132
3.06529
3.06943
3.07375
3.07867
3.08479
3.09266
3.10007
3.10471
3.10699
3.10801
3.10845
3.10872
3.10915
3.11028
3.11287
3.11748
3.12304
3.12683
3.12856
3.12943
3.13
3.13048
3.13057
3.12995
3.12845
3.12611
3.1223
3.11553
3.10714
3.10188
1
1
1
1
1
1
1
1
1
1
1
1
1
1
1
1
1
1
1
1
1
0.999988
1.0044
1.81414
2.78264
2.80107
2.80662
2.81388
2.8234
2.8341
2.84521
2.85605
2.86573
2.87451
2.88281
2.89072
2.89851
2.9064
2.9146
2.92319
2.93094
2.93646
2.94019
2.94229
2.94349
2.94402
2.94407
2.94393
2.94382
2.94385
2.944
2.94446
2.94571
2.94786
2.95087
2.9549
2.96044
2.96642
2.97115
2.97447
2.97683
2.97859
2.98005
2.98145
2.98289
2.98444
2.98621
2.9883
2.99081
2.99391
2.99774
3.00245
3.00809
3.01461
3.02226
3.03131
3.03976
3.04539
3.04837
3.0497
3.05007
3.05005
3.04997
3.05002
3.05043
3.05144
3.05328
3.05605
3.0596
3.06359
3.06772
3.07204
3.077
3.08327
3.09125
3.09849
3.10291
3.10505
3.10599
3.10637
3.1066
3.10701
3.10818
3.11085
3.11554
3.12096
3.12446
3.12601
3.12674
3.12716
3.1274
3.12723
3.12636
3.12468
3.12216
3.11794
3.11073
3.10178
3.09561
1
1
1
1
1
1
1
1
1
1
1
1
1
1
1
1
1
1
1
1
1
0.999987
1.00475
1.80523
2.78139
2.79988
2.80561
2.81305
2.82279
2.8338
2.84517
2.85592
2.8655
2.87421
2.88245
2.89031
2.89811
2.90594
2.91425
2.9229
2.93041
2.93561
2.93908
2.94099
2.94202
2.94247
2.94246
2.94229
2.94221
2.94225
2.94238
2.94295
2.94435
2.94661
2.94973
2.95397
2.95968
2.9655
2.96996
2.97308
2.97532
2.97701
2.97847
2.97989
2.98136
2.98297
2.9848
2.98696
2.98954
2.9927
2.99658
3.0013
3.00694
3.01343
3.02108
3.03005
3.03818
3.04347
3.04623
3.04744
3.04776
3.04772
3.04765
3.04773
3.04819
3.0493
3.05122
3.05406
3.05765
3.06166
3.06578
3.07009
3.0751
3.08152
3.0896
3.09665
3.10083
3.10282
3.10367
3.10399
3.10418
3.10459
3.1058
3.10857
3.11332
3.11858
3.12179
3.12315
3.12371
3.12394
3.12395
3.12354
3.12243
3.12061
3.11774
3.11312
3.10546
3.09594
3.08876
1
1
1
1
1
1
1
1
1
1
1
1
1
1
1
1
1
1
1
1
1
0.999986
1.00518
1.79461
2.78001
2.79866
2.80458
2.81229
2.82232
2.83366
2.84521
2.85583
2.86527
2.87388
2.88203
2.88981
2.89763
2.90538
2.9139
2.92256
2.92973
2.93454
2.93769
2.93936
2.94023
2.94058
2.9405
2.94033
2.94028
2.94032
2.94047
2.94121
2.94279
2.94518
2.94843
2.95297
2.95883
2.96439
2.96853
2.97144
2.97354
2.97517
2.97663
2.97808
2.97961
2.98128
2.98319
2.98543
2.9881
2.99132
2.99525
3
3.00563
3.01208
3.01972
3.02857
3.03632
3.04125
3.04378
3.04487
3.04514
3.04509
3.04503
3.04515
3.04569
3.04689
3.04893
3.05184
3.05547
3.05947
3.06358
3.0679
3.07297
3.07954
3.0877
3.09454
3.09846
3.1003
3.10104
3.10131
3.10147
3.10188
3.10314
3.10601
3.11083
3.11589
3.1188
3.11996
3.12034
3.12035
3.12013
3.11948
3.11818
3.11612
3.11286
3.10789
3.09966
3.08959
3.0813
1
1
1
1
1
1
1
1
1
1
1
1
1
1
1
1
1
1
1
1
1
0.999985
1.00572
1.78219
2.77854
2.79736
2.80348
2.81152
2.82186
2.83352
2.8452
2.85565
2.86493
2.8734
2.88147
2.88924
2.89703
2.90491
2.91373
2.92224
2.92894
2.93327
2.93603
2.93743
2.9381
2.93836
2.93821
2.93806
2.93802
2.93806
2.9383
2.93925
2.941
2.94356
2.94703
2.95191
2.95784
2.96304
2.96684
2.96951
2.97148
2.97306
2.97454
2.97603
2.97762
2.97937
2.98136
2.98369
2.98644
2.98974
2.99372
2.99849
3.00409
3.0105
3.01811
3.02679
3.03412
3.03867
3.04098
3.04195
3.04218
3.04214
3.04211
3.04228
3.04291
3.04423
3.04637
3.04936
3.05302
3.05702
3.06112
3.06546
3.0706
3.07734
3.08555
3.09215
3.09579
3.09745
3.09809
3.0983
3.09844
3.09887
3.10019
3.10317
3.10804
3.11287
3.11548
3.11643
3.1166
3.11642
3.11595
3.11507
3.11359
3.11119
3.10759
3.10219
3.09337
3.08275
3.07325
1
1
1
1
1
1
1
1
1
1
1
1
1
1
1
1
1
1
1
1
1
0.999984
1.00634
1.76768
2.77669
2.79591
2.80237
2.81083
2.82152
2.83341
2.84519
2.85543
2.86451
2.87283
2.88082
2.88858
2.89638
2.90461
2.91368
2.92184
2.92795
2.93173
2.93405
2.93515
2.93563
2.93577
2.93557
2.93544
2.93542
2.93547
2.93588
2.93705
2.93897
2.94178
2.94556
2.95081
2.95665
2.96143
2.96487
2.96731
2.96915
2.97069
2.97219
2.97374
2.9754
2.97723
2.97931
2.98173
2.98457
2.98794
2.99197
2.99675
3.00231
3.00866
3.01625
3.02468
3.03156
3.03572
3.03781
3.03869
3.03888
3.03887
3.03888
3.03913
3.03986
3.04129
3.04355
3.04663
3.05031
3.05428
3.05837
3.06277
3.068
3.07493
3.08315
3.08945
3.09278
3.09426
3.0948
3.09496
3.09508
3.09554
3.09693
3.10003
3.10495
3.1095
3.1118
3.11252
3.1125
3.11212
3.11141
3.11034
3.10859
3.10584
3.10191
3.09597
3.0866
3.0754
3.06458
1
1
1
1
1
1
1
1
1
1
1
1
1
1
1
1
1
1
1
1
1
0.999986
1.00705
1.75093
2.77457
2.79448
2.8014
2.81028
2.82127
2.83329
2.84505
2.85503
2.86387
2.87211
2.87997
2.88781
2.89582
2.90456
2.91368
2.92124
2.92661
2.92979
2.93165
2.93245
2.93275
2.93278
2.93259
2.93247
2.93246
2.93256
2.93323
2.9346
2.93673
2.93984
2.94406
2.94963
2.9552
2.95951
2.96258
2.9648
2.96653
2.96806
2.96959
2.97121
2.97295
2.97487
2.97705
2.97957
2.98249
2.98593
2.99
2.99477
3.00025
3.00654
3.01406
3.02219
3.02859
3.03236
3.03425
3.03503
3.03522
3.03524
3.03533
3.03567
3.03651
3.03807
3.04046
3.04362
3.04732
3.05126
3.05534
3.0598
3.06517
3.0723
3.08048
3.08641
3.08944
3.09072
3.09116
3.09128
3.09138
3.09187
3.09335
3.09659
3.10152
3.10578
3.10775
3.10824
3.10805
3.10743
3.10651
3.10523
3.10315
3.10009
3.09576
3.0892
3.07934
3.06751
3.0553
1
1
1
1
1
1
1
1
1
1
1
1
1
1
1
1
1
1
1
1
1
0.999988
1.0078
1.73168
2.77222
2.79316
2.80055
2.80984
2.82107
2.83317
2.84476
2.85446
2.86312
2.8713
2.8791
2.88711
2.89559
2.90481
2.9135
2.92024
2.92477
2.92733
2.92875
2.92927
2.92945
2.92941
2.92921
2.92911
2.92912
2.92939
2.93031
2.93188
2.93435
2.93781
2.94255
2.94833
2.95342
2.95722
2.95996
2.96199
2.96364
2.96517
2.96676
2.96845
2.97027
2.97229
2.97457
2.97719
2.9802
2.98368
2.98778
2.99249
2.99788
3.00408
3.01153
3.0193
3.02519
3.02858
3.03027
3.03097
3.03116
3.03125
3.03144
3.03189
3.03286
3.03454
3.03706
3.0403
3.04402
3.04793
3.05201
3.05656
3.06207
3.06943
3.0775
3.08302
3.08573
3.08682
3.08716
3.08722
3.08731
3.08785
3.08943
3.09281
3.09775
3.10167
3.10328
3.10356
3.10319
3.10233
3.10124
3.09968
3.09728
3.09391
3.08911
3.08193
3.07149
3.059
3.0455
1
1
1
1
1
1
1
1
1
1
1
1
1
1
1
1
1
1
1
1
1
0.999969
1.00863
1.70977
2.76963
2.79195
2.79984
2.8095
2.8209
2.833
2.84427
2.85372
2.8623
2.87044
2.87843
2.88666
2.8957
2.90506
2.91289
2.91863
2.92229
2.92427
2.92529
2.92559
2.92567
2.92559
2.92542
2.92539
2.92545
2.92597
2.92712
2.92899
2.9319
2.93587
2.94114
2.94678
2.95127
2.95458
2.95701
2.95888
2.96047
2.96204
2.96369
2.96545
2.96737
2.96949
2.97188
2.9746
2.97767
2.98119
2.98528
2.98991
2.99519
3.00129
3.00862
3.01597
3.02133
3.02435
3.02584
3.02648
3.02671
3.02689
3.02718
3.02776
3.02887
3.0307
3.03335
3.03667
3.04039
3.04427
3.04835
3.05301
3.05872
3.06631
3.07418
3.07926
3.08165
3.08255
3.08279
3.0828
3.08289
3.08348
3.08519
3.08872
3.09363
3.09715
3.09842
3.0985
3.0979
3.09684
3.09561
3.09372
3.09101
3.08732
3.082
3.07424
3.06315
3.04991
3.03529
1
1
1
1
1
1
1
1
1
1
1
1
1
1
1
1
1
1
1
1
1
0.999955
1.0095
1.68501
2.76679
2.79101
2.7994
2.80932
2.82076
2.83273
2.84362
2.85289
2.86149
2.86971
2.878
2.88659
2.89607
2.90489
2.91165
2.91629
2.91907
2.9205
2.92118
2.92135
2.9214
2.92133
2.92123
2.92127
2.92153
2.92234
2.92374
2.9261
2.92955
2.93415
2.93974
2.94483
2.94869
2.95156
2.95373
2.95546
2.95703
2.95867
2.96039
2.96223
2.96426
2.9665
2.969
2.9718
2.97492
2.97845
2.9825
2.98701
2.99216
2.99817
3.00534
3.01222
3.017
3.01964
3.02095
3.02156
3.02185
3.02213
3.02254
3.02327
3.02455
3.02654
3.02931
3.03271
3.03642
3.04027
3.04437
3.04915
3.05512
3.06292
3.07048
3.07513
3.07721
3.07792
3.07805
3.07801
3.0781
3.07877
3.08064
3.08431
3.08915
3.09223
3.09318
3.09309
3.09222
3.091
3.08957
3.08737
3.08437
3.08028
3.07441
3.0661
3.0543
3.04028
3.02448
1
1
1
1
1
1
1
1
1
1
1
1
1
1
1
1
1
1
1
1
1
0.999955
1.01046
1.65719
2.76362
2.7903
2.7991
2.80917
2.82055
2.83234
2.84294
2.85217
2.86081
2.86928
2.87786
2.88684
2.8963
2.90401
2.90948
2.913
2.915
2.916
2.91645
2.91658
2.91663
2.91662
2.91664
2.91682
2.91736
2.91845
2.92039
2.92345
2.92751
2.93266
2.93809
2.94242
2.94569
2.94817
2.95011
2.95173
2.95335
2.95504
2.95683
2.95877
2.96091
2.96329
2.9659
2.96878
2.97192
2.97544
2.97939
2.98379
2.98881
2.99475
3.00167
3.00797
3.01214
3.01441
3.0156
3.01621
3.01658
3.01696
3.01751
3.01841
3.01988
3.02205
3.02494
3.02839
3.03209
3.03591
3.04005
3.04497
3.05122
3.05919
3.0664
3.0706
3.07239
3.07291
3.07294
3.07285
3.07296
3.07372
3.07575
3.07956
3.08426
3.08687
3.08754
3.08723
3.08612
3.08477
3.08303
3.08054
3.07725
3.07272
3.06629
3.05743
3.04483
3.03002
3.01312
1
1
1
1
1
1
1
1
1
1
1
1
1
1
1
1
1
1
1
1
1
0.999925
1.01143
1.62618
2.75991
2.7898
2.79896
2.80908
2.82035
2.83198
2.84247
2.85168
2.86036
2.8691
2.87784
2.88714
2.89573
2.90202
2.90618
2.90871
2.91007
2.91077
2.91111
2.91127
2.91137
2.91146
2.91163
2.91203
2.91294
2.91464
2.91738
2.92116
2.92586
2.9312
2.93587
2.93948
2.94222
2.94438
2.94613
2.94771
2.9494
2.95114
2.95299
2.95504
2.95732
2.95983
2.96256
2.96551
2.96868
2.97219
2.97603
2.98029
2.98517
2.99107
2.99757
3.00317
3.00675
3.00872
3.00981
3.01043
3.01087
3.01138
3.01208
3.01317
3.01485
3.01721
3.02023
3.02372
3.02739
3.03118
3.03539
3.04048
3.047
3.05509
3.06194
3.06569
3.06719
3.06752
3.06745
3.06732
3.06747
3.06833
3.07051
3.07444
3.07891
3.08104
3.08144
3.08089
3.07954
3.07805
3.07596
3.07322
3.0696
3.06463
3.05766
3.04822
3.03483
3.01923
3.00128
1
1
1
1
1
1
1
1
1
1
1
1
1
1
1
1
1
1
1
1
0.999999
0.999901
1.01233
1.5918
2.75541
2.78957
2.79898
2.80907
2.82023
2.8318
2.84226
2.85149
2.86017
2.86895
2.87788
2.88682
2.89387
2.8987
2.90168
2.90341
2.90433
2.90486
2.90518
2.90539
2.90558
2.90582
2.90627
2.9071
2.90873
2.91132
2.91492
2.91938
2.92446
2.92923
2.93303
2.93597
2.93827
2.94016
2.94176
2.94339
2.94515
2.94693
2.94887
2.95105
2.95347
2.95612
2.95897
2.96198
2.96519
2.9687
2.97243
2.97654
2.98128
2.98707
2.99299
2.9978
3.00084
3.00254
3.00353
3.00417
3.00472
3.00537
3.00625
3.00754
3.00944
3.01203
3.01518
3.01868
3.0223
3.02608
3.03037
3.03565
3.04242
3.05061
3.05707
3.06037
3.06159
3.06176
3.06162
3.06148
3.06167
3.06264
3.06499
3.06902
3.07315
3.0748
3.07498
3.07418
3.07265
3.07091
3.06855
3.06558
3.06161
3.05617
3.04862
3.03852
3.02434
3.00795
2.98898
1
1
1
1
1
1
1
1
1
1
1
1
1
1
1
1
1
1
1
1
1
0.999871
1.01316
1.55396
2.74997
2.78961
2.79915
2.80928
2.82043
2.83199
2.84243
2.85152
2.86022
2.86867
2.87735
2.88509
2.89058
2.89407
2.89607
2.89718
2.89781
2.89825
2.8986
2.89892
2.89933
2.89995
2.90096
2.9027
2.90532
2.90883
2.91314
2.918
2.92265
2.92645
2.92947
2.93183
2.93379
2.93545
2.93707
2.93875
2.94048
2.94238
2.94452
2.94689
2.94948
2.95227
2.9552
2.95824
2.96149
2.96498
2.96861
2.9726
2.97718
2.98269
2.98795
2.99192
2.99442
2.99586
2.9968
2.99749
2.99815
2.99894
2.99999
3.00151
3.00368
3.0065
3.00977
3.01324
3.01678
3.02055
3.02495
3.03043
3.03747
3.04567
3.05172
3.05459
3.05558
3.05563
3.05544
3.05532
3.05556
3.05665
3.05915
3.06325
3.06692
3.06814
3.0681
3.06703
3.06532
3.06324
3.06066
3.0574
3.05306
3.04717
3.03902
3.02827
3.01333
2.99616
2.97614
1
1
1
1
1
1
1
1
1
1
1
1
1
1
1
1
1
1
1
1
0.999999
0.999842
1.01374
1.51236
2.74329
2.78999
2.79964
2.81003
2.82127
2.83278
2.84283
2.85157
2.85979
2.86756
2.87553
2.88175
2.88581
2.88816
2.8894
2.89006
2.89051
2.89097
2.89147
2.89215
2.8931
2.89454
2.89661
2.89942
2.90301
2.90724
2.91192
2.91632
2.91995
2.92288
2.9252
2.92711
2.92874
2.93032
2.93196
2.9336
2.93545
2.93765
2.94013
2.9428
2.94559
2.94847
2.95139
2.9544
2.95764
2.96101
2.96452
2.96837
2.97288
2.97788
2.9823
2.98542
2.98747
2.98875
2.98967
2.9904
2.99118
2.99211
2.99335
2.99513
2.99761
3.00067
3.00403
3.00741
3.01085
3.01462
3.01915
3.02483
3.03214
3.04023
3.04583
3.04834
3.04913
3.04913
3.04891
3.0488
3.0491
3.0503
3.05294
3.05703
3.0602
3.06101
3.06071
3.05937
3.05741
3.05504
3.05228
3.04872
3.04404
3.03769
3.0289
3.01748
3.00182
2.98388
2.96288
1
1
1
1
1
1
1
1
1
1
1
1
1
1
1
1
1
1
1
1
0.999999
0.999806
1.01421
1.46792
2.73482
2.79085
2.80073
2.81164
2.82289
2.83384
2.84301
2.85089
2.85787
2.86522
2.87203
2.87671
2.87948
2.88096
2.88168
2.88214
2.88261
2.88334
2.88433
2.88586
2.88785
2.8904
2.89361
2.89742
2.90171
2.90624
2.91032
2.91367
2.91636
2.91853
2.92029
2.92175
2.92319
2.92479
2.92642
2.92817
2.93041
2.93311
2.93604
2.93898
2.94184
2.94465
2.94749
2.95047
2.9536
2.95671
2.96006
2.96375
2.96813
2.97242
2.97593
2.97835
2.98003
2.9812
2.98211
2.98292
2.9838
2.98489
2.98637
2.98846
2.99128
2.9946
2.99794
3.00118
3.00453
3.00828
3.01294
3.0188
3.0264
3.03428
3.03945
3.04167
3.04232
3.04229
3.04206
3.04198
3.04234
3.04364
3.04641
3.05041
3.05303
3.05348
3.0529
3.05129
3.04903
3.04646
3.04348
3.03962
3.03459
3.02772
3.01828
3.00619
2.98983
2.97115
2.9491
1
1
1
1
1
1
1
1
1
1
1
1
1
1
1
1
1
1
1
1
1
0.999783
1.01433
1.41993
2.72417
2.79294
2.803
2.81434
2.82461
2.83429
2.84208
2.84826
2.85462
2.86148
2.86672
2.86988
2.87159
2.87249
2.87308
2.87375
2.87464
2.87621
2.87831
2.88104
2.88421
2.88786
2.89197
2.89638
2.90068
2.90444
2.90747
2.90988
2.91178
2.91333
2.9146
2.91584
2.91737
2.91908
2.92089
2.92313
2.92596
2.92918
2.93237
2.93535
2.93815
2.94086
2.94358
2.94646
2.94925
2.95205
2.95512
2.95863
2.96264
2.96617
2.96878
2.97061
2.97201
2.97316
2.9741
2.97501
2.97603
2.97732
2.97911
2.98157
2.98478
2.98824
2.99146
2.99457
2.99779
3.00151
3.00632
3.01233
3.02022
3.02783
3.03259
3.03458
3.03514
3.0351
3.03489
3.03484
3.03527
3.03668
3.03954
3.04338
3.04544
3.04558
3.04468
3.04275
3.0402
3.03746
3.03419
3.03004
3.02463
3.0172
3.0071
2.99434
2.9773
2.95791
2.93481
1
1
1
1
1
1
1
1
1
1
1
1
1
1
1
1
1
1
1
1
0.999999
0.999787
1.01409
1.36841
2.71139
2.79738
2.8067
2.81704
2.82531
2.83276
2.83843
2.84398
2.85047
2.85613
2.85941
2.86122
2.86227
2.86317
2.86419
2.86574
2.86792
2.87087
2.8744
2.87834
2.88242
2.88669
2.891
2.89496
2.89833
2.901
2.90307
2.90471
2.9061
2.90728
2.90838
2.90987
2.91185
2.91391
2.91622
2.91906
2.92242
2.92584
2.92901
2.93193
2.9346
2.93716
2.93973
2.94226
2.94455
2.947
2.94975
2.95303
2.95625
2.95892
2.96079
2.96215
2.96336
2.96453
2.96558
2.96665
2.96789
2.96948
2.97164
2.97457
2.97814
2.98153
2.98458
2.98756
2.99065
2.99433
2.99925
3.00547
3.01363
3.02092
3.02526
3.02704
3.02754
3.0275
3.02731
3.02733
3.02784
3.02935
3.03227
3.03586
3.03736
3.03723
3.036
3.03371
3.0309
3.02794
3.02436
3.01994
3.0141
3.00609
2.99535
2.98193
2.96426
2.94419
2.92013
1
1
1
1
1
1
1
1
1
1
1
1
1
1
1
1
1
1
1
1
0.999999
0.999804
1.01355
1.31373
2.69698
2.80394
2.81044
2.81791
2.82299
2.82772
2.83285
2.83915
2.84512
2.84843
2.85003
2.85123
2.85241
2.85412
2.85654
2.85978
2.86372
2.86816
2.87277
2.87735
2.88154
2.88543
2.88897
2.89186
2.89409
2.8958
2.8971
2.89841
2.89974
2.90099
2.90255
2.90478
2.90733
2.90987
2.91272
2.91606
2.91953
2.92282
2.92589
2.92866
2.93117
2.93349
2.9357
2.93767
2.93952
2.94158
2.94394
2.94666
2.94897
2.95073
2.95197
2.95298
2.95405
2.95525
2.95648
2.95781
2.95939
2.96142
2.96407
2.96757
2.97131
2.97448
2.97732
2.98016
2.98313
2.9868
2.99184
2.99832
3.00665
3.01355
3.01746
3.01906
3.0195
3.01948
3.01935
3.01944
3.02002
3.02162
3.02457
3.02785
3.02881
3.02842
3.02684
3.02422
3.0212
3.01802
3.01416
3.00945
3.00314
2.99451
2.98313
2.96902
2.95075
2.93003
2.905
1
1
1
1
1
1
1
1
1
1
1
1
1
1
1
1
1
1
1
1
1
0.999833
1.01186
1.25732
2.68191
2.81034
2.81163
2.81454
2.81666
2.82091
2.82717
2.83327
2.83675
2.83836
2.83971
2.84141
2.84395
2.84758
2.85206
2.85709
2.86229
2.86747
2.87207
2.87619
2.8796
2.88254
2.88498
2.88685
2.88828
2.88942
2.89063
2.89221
2.89389
2.89563
2.89795
2.90084
2.90384
2.90687
2.91011
2.9135
2.91674
2.91978
2.92261
2.92517
2.92742
2.92939
2.9311
2.9325
2.93401
2.93566
2.93759
2.93932
2.94071
2.94168
2.94241
2.94315
2.94409
2.9453
2.94676
2.94847
2.95057
2.95314
2.9565
2.96054
2.96418
2.96705
2.96966
2.97231
2.97522
2.97898
2.98419
2.99096
2.99935
3.00583
3.00929
3.0107
3.01109
3.01107
3.01099
3.01115
3.01181
3.01351
3.01648
3.01936
3.01986
3.01924
3.0173
3.01438
3.01113
3.00766
3.00355
2.99849
2.99165
2.9824
2.97039
2.95559
2.93678
2.91546
2.88941
1
1
1
1
1
1
1
1
1
1
1
1
1
1
1
1
1
1
1
1
1
0.99979
1.00973
1.20554
2.6631
2.80884
2.80572
2.80626
2.8089
2.81475
2.82041
2.82375
2.82561
2.82749
2.83016
2.83414
2.83928
2.84519
2.85129
2.85717
2.86215
2.86664
2.87029
2.87329
2.87564
2.87769
2.87941
2.88098
2.88239
2.88377
2.8855
2.88753
2.88957
2.89185
2.8947
2.89785
2.90102
2.90425
2.90755
2.9107
2.91364
2.91636
2.91884
2.92103
2.92287
2.92439
2.92551
2.92661
2.92772
2.92902
2.93014
2.93094
2.93153
2.93189
2.93223
2.93274
2.93353
2.93474
2.93647
2.93869
2.94147
2.94485
2.94901
2.95324
2.95659
2.95912
2.96151
2.96398
2.96689
2.97086
2.9763
2.98343
2.99173
2.99771
3.00072
3.00194
3.00225
3.00223
3.0022
3.00242
3.00317
3.005
3.00797
3.01041
3.01057
3.00963
3.00736
3.00418
3.00067
2.99688
2.99251
2.98705
2.97965
2.96979
2.95716
2.94169
2.92241
2.90041
2.87343
1
1
1
1
1
1
1
1
1
1
1
1
1
1
1
1
1
1
1
1
1
0.999862
1.00832
1.16366
2.62987
2.79539
2.79472
2.79821
2.80336
2.80692
2.80954
2.81171
2.81428
2.81848
2.8244
2.8315
2.83899
2.84615
2.85206
2.85718
2.86112
2.86434
2.86688
2.86894
2.87059
2.87239
2.87435
2.87633
2.87822
2.88017
2.88239
2.8847
2.88705
2.88968
2.89259
2.89559
2.89863
2.90171
2.90467
2.90741
2.90991
2.91217
2.91418
2.9159
2.91718
2.91802
2.91879
2.91955
2.92036
2.92096
2.92127
2.92144
2.92147
2.92148
2.92154
2.92186
2.92256
2.9238
2.92579
2.92863
2.93223
2.93669
2.94143
2.94545
2.94844
2.95069
2.95289
2.95523
2.95818
2.96243
2.96815
2.97573
2.98376
2.9892
2.99181
2.99282
2.99302
2.99297
2.99295
2.99322
2.99408
2.99602
2.99894
3.00092
3.00085
2.99954
2.99693
2.99349
2.98973
2.98559
2.98093
2.97502
2.96707
2.95662
2.9434
2.9273
2.90757
2.88494
2.85697
1
1
1
1
1
1
1
1
1
1
1
1
1
1
1
1
1
1
1
1
1
0.999989
1.00469
1.12344
2.56404
2.7787
2.78625
2.79153
2.79387
2.79496
2.79712
2.80113
2.80713
2.81487
2.82385
2.83304
2.84067
2.847
2.85194
2.85584
2.85882
2.86105
2.86312
2.86504
2.8669
2.86897
2.87128
2.87355
2.87581
2.8782
2.88068
2.88311
2.88558
2.88822
2.89096
2.89372
2.89645
2.89901
2.90132
2.90342
2.9053
2.907
2.90836
2.90931
2.90988
2.91028
2.91064
2.91102
2.9113
2.91132
2.91116
2.91088
2.91053
2.91026
2.91025
2.91052
2.91119
2.91255
2.91497
2.91865
2.9234
2.92867
2.9334
2.93712
2.93975
2.9418
2.94387
2.94613
2.94916
2.95374
2.9598
2.96779
2.97542
2.98032
2.98252
2.98327
2.98333
2.98318
2.98315
2.98345
2.9844
2.98644
2.98932
2.99087
2.99066
2.98902
2.98611
2.98241
2.97835
2.97387
2.96887
2.96246
2.95396
2.94293
2.92913
2.91246
2.89233
2.86899
2.84012
1
1
1
1
1
1
1
1
1
1
1
1
1
1
1
1
1
1
1
1
1
1
1.00085
1.07851
2.48895
2.77252
2.77912
2.7805
2.78088
2.78273
2.78803
2.79633
2.80629
2.81717
2.82693
2.83509
2.8414
2.84638
2.85046
2.8536
2.85631
2.85864
2.86095
2.86316
2.8654
2.86763
2.87004
2.87236
2.87468
2.87705
2.87942
2.88178
2.8842
2.88667
2.88906
2.89135
2.89342
2.8952
2.89676
2.89817
2.89931
2.90015
2.90062
2.9008
2.90082
2.90084
2.90085
2.90079
2.90056
2.90016
2.89966
2.89911
2.89857
2.89831
2.89836
2.89878
2.89981
2.9018
2.90503
2.90964
2.91511
2.92046
2.92486
2.92824
2.93056
2.9325
2.93451
2.93679
2.93998
2.94489
2.95134
2.95963
2.96678
2.97109
2.9729
2.97335
2.97327
2.97299
2.97292
2.97323
2.97425
2.97639
2.97922
2.98041
2.98008
2.97815
2.97497
2.97097
2.96657
2.96176
2.95634
2.94941
2.94036
2.92874
2.91438
2.89717
2.8766
2.85266
2.82279
1
1
1
1
1
1
1
1
1
1
1
1
1
1
1
1
1
1
1
1
1
1
0.999958
1.03884
2.41578
2.76893
2.76753
2.7661
2.76846
2.77503
2.78597
2.79897
2.81137
2.82167
2.8295
2.83586
2.84109
2.84527
2.84905
2.85254
2.85552
2.85812
2.86031
2.86238
2.86447
2.86644
2.86868
2.87087
2.87308
2.87531
2.87755
2.87977
2.88185
2.88381
2.88561
2.88713
2.88842
2.8894
2.89013
2.89066
2.89089
2.89085
2.89081
2.89062
2.89015
2.88974
2.88941
2.88888
2.88822
2.88753
2.88683
2.8862
2.88585
2.88583
2.88614
2.88701
2.88879
2.89168
2.89585
2.90119
2.90694
2.91197
2.91588
2.91884
2.92091
2.9228
2.92483
2.92722
2.93066
2.93591
2.94278
2.95125
2.95781
2.9615
2.96291
2.9631
2.96291
2.96249
2.96235
2.96264
2.9637
2.96592
2.9687
2.96959
2.96907
2.96691
2.96345
2.95915
2.95438
2.94925
2.94335
2.93588
2.92626
2.91406
2.89914
2.88141
2.86046
2.83587
2.80506
1
1
1
1
1
1
1
1
1
1
1
1
1
1
1
1
1
1
1
1
0.999999
1
0.999887
1.01122
2.31712
2.75237
2.75089
2.75396
2.76421
2.77852
2.79321
2.80616
2.81656
2.82491
2.83137
2.83736
2.84226
2.84664
2.85012
2.85312
2.85568
2.85805
2.8601
2.86193
2.8636
2.86526
2.86719
2.86901
2.87073
2.87235
2.87392
2.87543
2.87679
2.87804
2.87909
2.8799
2.88037
2.88043
2.88039
2.88022
2.87972
2.87921
2.87887
2.87824
2.87745
2.87686
2.87625
2.8755
2.87469
2.87386
2.87315
2.87274
2.87265
2.87303
2.87414
2.87602
2.87875
2.88251
2.88741
2.89302
2.89844
2.90292
2.90635
2.90897
2.91085
2.91272
2.91482
2.91743
2.92122
2.9268
2.93411
2.94253
2.94841
2.95146
2.95248
2.9525
2.9521
2.95154
2.95129
2.95155
2.9527
2.95501
2.95767
2.95833
2.95761
2.95521
2.95148
2.94685
2.9417
2.9362
2.9298
2.92178
2.91161
2.89886
2.88343
2.86521
2.84385
2.81864
2.78679
1
1
1
1
1
1
1
1
1
1
1
1
1
1
1
1
1
1
1
1
1
1.00002
0.999994
1.00265
2.17155
2.72725
2.7426
2.75989
2.77617
2.78995
2.8018
2.81245
2.82173
2.82969
2.83582
2.84127
2.84547
2.84921
2.85217
2.85449
2.85626
2.85784
2.85913
2.86028
2.86118
2.86228
2.86334
2.86429
2.86509
2.86573
2.86626
2.8667
2.8672
2.86748
2.86768
2.86789
2.86779
2.86732
2.86703
2.86656
2.8657
2.86501
2.86451
2.86377
2.86296
2.86218
2.86133
2.86041
2.85954
2.85893
2.8587
2.85897
2.85982
2.86119
2.86314
2.86584
2.86941
2.87392
2.87926
2.88467