/*--------------------------------*- C++ -*----------------------------------*\
| =========                 |                                                 |
| \\      /  F ield         | OpenFOAM: The Open Source CFD Toolbox           |
|  \\    /   O peration     | Version:  2.2.x                                 |
|   \\  /    A nd           | Web:      www.OpenFOAM.org                      |
|    \\/     M anipulation  |                                                 |
\*---------------------------------------------------------------------------*/
FoamFile
{
    version     2.0;
    format      ascii;
    class       volScalarField;
    location    "1.2";
    object      T;
}
// * * * * * * * * * * * * * * * * * * * * * * * * * * * * * * * * * * * * * //

dimensions      [0 0 0 1 0 0 0];

internalField   nonuniform List<scalar> 
14161
(
1
1
1
1
1
1
1
1
1
1
1
1
1
1
1
1
1
1
1
0.999995
1.00002
0.999997
1.02947
2.35221
3.01923
3.04126
3.05081
3.06028
3.06932
3.07702
3.08324
3.08754
3.09114
3.09477
3.09838
3.10156
3.10443
3.1066
3.10815
3.10897
3.10876
3.10975
3.1125
3.11623
3.12072
3.12563
3.13091
3.13641
3.14182
3.14715
3.15238
3.15712
3.1614
3.16495
3.16754
3.16883
3.16895
3.16776
3.16651
3.16721
3.16944
3.17262
3.17634
3.1803
3.18433
3.18836
3.19236
3.19626
3.19997
3.20336
3.20628
3.20857
3.21001
3.21041
3.20932
3.20699
3.20285
3.20122
3.20296
3.20701
3.21247
3.21869
3.22508
3.23145
3.23761
3.24336
3.24842
3.25264
3.25598
3.25864
3.26099
3.26322
3.26511
3.266
3.26524
3.26295
3.26298
3.26611
3.27102
3.27666
3.2824
3.2879
3.29286
3.29675
3.29895
3.29936
3.30018
3.30357
3.30812
3.31268
3.31648
3.31947
3.32267
3.32659
3.33105
3.33654
3.344
3.35121
3.35501
1
1
1
1
1
1
1
1
1
1
1
1
1
1
1
1
1
1
0.999999
0.999998
1.00002
0.999982
1.02827
2.35466
3.01977
3.0416
3.05117
3.06073
3.06982
3.07747
3.08362
3.08782
3.09133
3.09493
3.0985
3.10166
3.1045
3.10666
3.1082
3.109
3.10879
3.10979
3.11254
3.11626
3.12075
3.12567
3.13096
3.13645
3.14185
3.14717
3.15238
3.15713
3.1614
3.16495
3.16753
3.16882
3.16894
3.16775
3.16652
3.16724
3.16948
3.17267
3.1764
3.18037
3.1844
3.18843
3.19243
3.19635
3.20006
3.20343
3.20633
3.2086
3.21002
3.21038
3.20926
3.20689
3.20275
3.20117
3.20293
3.20698
3.21248
3.2187
3.22505
3.2314
3.23757
3.24332
3.24839
3.2526
3.25593
3.25859
3.26094
3.26317
3.26504
3.26592
3.26515
3.26285
3.26291
3.26606
3.27096
3.2766
3.28233
3.28781
3.29276
3.29663
3.29881
3.2992
3.30004
3.30343
3.30797
3.31251
3.3163
3.31928
3.32246
3.32635
3.33077
3.33624
3.34366
3.35085
3.35457
1
1
1
1
1
1
1
1
1
1
1
1
1
1
1
1
1
1
1
0.999999
1.00001
0.99998
1.02668
2.35557
3.01972
3.04189
3.05168
3.06139
3.07052
3.07815
3.08417
3.0882
3.0916
3.09516
3.09868
3.10175
3.10453
3.10668
3.10819
3.10897
3.10875
3.10978
3.11253
3.11626
3.12077
3.12569
3.131
3.13647
3.14185
3.14715
3.15233
3.15708
3.16134
3.16488
3.16746
3.16871
3.16883
3.16762
3.16642
3.16719
3.16947
3.17267
3.17641
3.18039
3.18441
3.18843
3.19243
3.19633
3.20002
3.20336
3.20622
3.20845
3.20983
3.21015
3.209
3.20659
3.20245
3.20097
3.20282
3.20694
3.21247
3.21869
3.22503
3.23136
3.23751
3.24327
3.24833
3.25253
3.25583
3.25847
3.26082
3.26304
3.26487
3.26569
3.26489
3.26258
3.26273
3.26595
3.27089
3.27653
3.28224
3.2877
3.29261
3.29644
3.29854
3.29888
3.29978
3.3032
3.30773
3.31224
3.31599
3.31893
3.3221
3.32591
3.33028
3.33569
3.34305
3.35017
3.35376
1
1
1
1
1
1
1
1
1
1
1
1
1
1
1
1
1
1
1
1
1.00001
0.99998
1.02558
2.35612
3.0197
3.04231
3.05226
3.06209
3.07123
3.07878
3.08468
3.08855
3.09188
3.09543
3.09893
3.10196
3.10469
3.10678
3.10828
3.10902
3.10877
3.10982
3.11253
3.11629
3.12078
3.12573
3.13105
3.13649
3.14184
3.14712
3.15228
3.15702
3.16126
3.16478
3.16734
3.16855
3.16863
3.16738
3.16628
3.16714
3.16949
3.17274
3.17651
3.18049
3.18451
3.18854
3.19253
3.1964
3.20004
3.20331
3.2061
3.20825
3.20954
3.20976
3.20856
3.20606
3.20195
3.20065
3.20264
3.20686
3.21243
3.21864
3.22497
3.23128
3.23741
3.24314
3.24818
3.25234
3.25561
3.25824
3.26058
3.2628
3.2646
3.26531
3.26443
3.26212
3.26245
3.26579
3.27078
3.27644
3.28214
3.28756
3.29241
3.29615
3.29814
3.2984
3.29939
3.30287
3.30739
3.31185
3.31551
3.3184
3.32154
3.32525
3.32952
3.33483
3.34209
3.34911
3.35248
1
1
1
1
1
1
1
1
1
1
1
1
1
1
1
1
1
1
1
1
1.00001
0.999978
1.02525
2.35554
3.01949
3.04235
3.05232
3.06216
3.07127
3.07877
3.08461
3.0884
3.09178
3.09539
3.09895
3.10203
3.10479
3.10689
3.1084
3.10913
3.10884
3.10992
3.1126
3.1164
3.12088
3.12582
3.13112
3.13654
3.14187
3.14714
3.15228
3.15699
3.16119
3.16466
3.16718
3.16833
3.16838
3.16707
3.16611
3.16712
3.16955
3.17285
3.17665
3.18063
3.18465
3.18868
3.19264
3.19646
3.20005
3.20325
3.20594
3.20799
3.20917
3.20927
3.20801
3.2054
3.20134
3.20025
3.20242
3.20673
3.21233
3.21853
3.22484
3.23113
3.23723
3.24292
3.24791
3.25202
3.25526
3.25787
3.26021
3.26241
3.26417
3.26475
3.26375
3.26147
3.26201
3.2655
3.27056
3.27623
3.2819
3.28728
3.29206
3.2957
3.29755
3.29773
3.29886
3.30242
3.30693
3.31132
3.31488
3.3177
3.32081
3.32438
3.32853
3.33372
3.34082
3.34763
3.35082
1
1
1
1
1
1
1
1
1
1
1
1
1
1
1
1
1
1
1
1
1
0.99997
1.02517
2.35409
3.01931
3.04226
3.05226
3.06208
3.07115
3.0786
3.08437
3.08805
3.09148
3.09515
3.09876
3.10188
3.10465
3.10676
3.10827
3.10899
3.10869
3.10983
3.1125
3.11635
3.12084
3.12579
3.13108
3.13649
3.14182
3.14709
3.15223
3.1569
3.16106
3.16449
3.16694
3.16801
3.16802
3.16664
3.16585
3.16701
3.1695
3.17283
3.17663
3.1806
3.18459
3.18859
3.19252
3.1963
3.19982
3.20295
3.20557
3.20753
3.20864
3.20864
3.20733
3.20461
3.20065
3.19977
3.2021
3.20649
3.21213
3.21834
3.22465
3.23092
3.23702
3.24267
3.24763
3.25171
3.25493
3.25754
3.25986
3.26203
3.26371
3.26414
3.26298
3.26074
3.26152
3.26515
3.27029
3.27596
3.2816
3.28692
3.29161
3.29512
3.2968
3.29689
3.29817
3.30182
3.30631
3.31062
3.31407
3.31682
3.31988
3.32326
3.32726
3.33228
3.33919
3.3458
3.34883
1
1
1
1
1
1
1
1
1
1
1
1
1
1
1
1
1
1
1
1
1
0.999956
1.02602
2.35116
3.019
3.042
3.05198
3.06175
3.07075
3.07813
3.08382
3.08742
3.09089
3.09461
3.09827
3.10145
3.10422
3.10636
3.10788
3.10859
3.10827
3.10948
3.11218
3.11611
3.12064
3.12561
3.13093
3.13636
3.1417
3.14699
3.15212
3.15676
3.16089
3.16426
3.16663
3.16762
3.16756
3.16611
3.16547
3.16674
3.16927
3.17261
3.17639
3.18033
3.18429
3.18824
3.19213
3.19587
3.19934
3.20241
3.20496
3.20688
3.20795
3.20789
3.20657
3.20378
3.19994
3.19928
3.20175
3.20622
3.21188
3.21808
3.22437
3.23061
3.23667
3.24228
3.24718
3.25122
3.2544
3.25699
3.25931
3.26145
3.26304
3.26337
3.26205
3.25989
3.26092
3.26472
3.26992
3.27559
3.28118
3.28644
3.29103
3.29439
3.29589
3.29589
3.29733
3.30106
3.30553
3.30974
3.31307
3.31576
3.31871
3.32191
3.32572
3.33051
3.33721
3.34367
3.34647
1
1
1
1
1
1
1
1
1
1
1
1
1
1
1
1
1
1
1
1
1
0.999949
1.02766
2.34659
3.01864
3.0417
3.05171
3.0614
3.0703
3.07757
3.08314
3.08666
3.09015
3.09391
3.0976
3.10084
3.10363
3.10578
3.10726
3.10791
3.1076
3.10892
3.11168
3.1157
3.12029
3.12529
3.13065
3.13609
3.14147
3.14678
3.15189
3.15652
3.16061
3.16394
3.16619
3.1671
3.16696
3.16545
3.16493
3.16628
3.16884
3.1722
3.17597
3.17988
3.18381
3.18772
3.19156
3.19524
3.19864
3.20165
3.20413
3.20598
3.207
3.2069
3.20559
3.20276
3.19909
3.19863
3.20125
3.20579
3.21148
3.21766
3.22393
3.23014
3.23615
3.2417
3.24655
3.25053
3.25369
3.25629
3.2586
3.2607
3.26222
3.26244
3.26094
3.25891
3.26018
3.26413
3.2694
3.27507
3.28062
3.28581
3.29028
3.29349
3.29481
3.29473
3.29635
3.30014
3.30457
3.30867
3.31187
3.31447
3.31725
3.32028
3.32386
3.32837
3.33491
3.34128
3.34376
1
1
1
1
1
1
1
1
1
1
1
1
1
1
1
1
1
1
1
1
1
0.999941
1.02957
2.34054
3.01835
3.04147
3.05148
3.06106
3.06982
3.0769
3.08228
3.08568
3.08924
3.09306
3.09679
3.10009
3.10289
3.10502
3.10646
3.107
3.10674
3.10822
3.11109
3.11523
3.11987
3.12493
3.13035
3.13579
3.1412
3.14653
3.1516
3.15621
3.16026
3.16352
3.16563
3.16644
3.16618
3.1646
3.1642
3.16562
3.16822
3.17158
3.17534
3.17921
3.18309
3.18695
3.19073
3.19434
3.19765
3.20057
3.20296
3.20473
3.2057
3.20556
3.20425
3.20139
3.19791
3.19767
3.20044
3.20507
3.2108
3.21698
3.22325
3.22945
3.23545
3.24098
3.24578
3.24974
3.25289
3.25548
3.25779
3.25984
3.26127
3.26138
3.25969
3.25782
3.25933
3.26342
3.26875
3.2744
3.2799
3.28502
3.28938
3.29242
3.29355
3.29342
3.2952
3.29904
3.30342
3.30739
3.31047
3.31298
3.31554
3.31836
3.32167
3.32587
3.33233
3.33856
3.34068
1
1
1
1
1
1
1
1
1
1
1
1
1
1
1
1
1
1
1
1
1
0.999933
1.03225
2.33268
3.01804
3.04129
3.0513
3.06075
3.06932
3.0762
3.08136
3.08466
3.08827
3.0922
3.09595
3.0993
3.1021
3.10416
3.10552
3.10592
3.10575
3.10743
3.11043
3.11472
3.11942
3.12456
3.13002
3.13546
3.14089
3.14622
3.15123
3.15582
3.15981
3.16295
3.1649
3.16558
3.16516
3.16352
3.16327
3.16479
3.16744
3.17082
3.17456
3.17838
3.18222
3.18603
3.18974
3.19327
3.1965
3.19932
3.20162
3.2033
3.20422
3.20404
3.20274
3.19985
3.19661
3.19662
3.19956
3.20427
3.21003
3.21621
3.22246
3.22865
3.23462
3.2401
3.24486
3.24877
3.2519
3.2545
3.2568
3.2588
3.26017
3.26015
3.25829
3.25661
3.25835
3.26258
3.26795
3.27359
3.27903
3.28407
3.2883
3.29117
3.29211
3.29193
3.29387
3.29774
3.30205
3.30587
3.30883
3.31123
3.31353
3.31612
3.31911
3.32309
3.3294
3.33552
3.33728
1
1
1
1
1
1
1
1
1
1
1
1
1
1
1
1
1
1
1
1
1
0.999925
1.03552
2.32294
3.0178
3.04124
3.05124
3.0605
3.0688
3.0754
3.08022
3.08342
3.08706
3.09106
3.09483
3.09823
3.10106
3.10302
3.1043
3.10454
3.10451
3.10646
3.10967
3.11413
3.11894
3.12416
3.12966
3.13512
3.14056
3.14587
3.15082
3.15535
3.15926
3.16224
3.16399
3.1645
3.16388
3.16225
3.16221
3.16384
3.16656
3.16997
3.17369
3.17746
3.18124
3.18498
3.18861
3.19204
3.19516
3.19787
3.20005
3.20163
3.20247
3.20223
3.20093
3.19801
3.19504
3.19534
3.19846
3.20327
3.20907
3.21524
3.22147
3.22764
3.23357
3.23902
3.24372
3.24759
3.2507
3.2533
3.25559
3.25756
3.25883
3.2587
3.25667
3.25523
3.25722
3.26158
3.26699
3.2726
3.27798
3.28294
3.28704
3.28973
3.29047
3.29029
3.29238
3.29626
3.30047
3.30415
3.30698
3.30919
3.31126
3.31355
3.31625
3.32003
3.32614
3.33209
3.33349
1
1
1
1
1
1
1
1
1
1
1
1
1
1
1
1
1
1
1
1
1
0.999915
1.03956
2.31107
3.01745
3.04107
3.05098
3.06001
3.068
3.07433
3.07872
3.08195
3.08569
3.08978
3.09359
3.09704
3.09987
3.10169
3.10287
3.1029
3.10312
3.10541
3.10889
3.11354
3.11849
3.1238
3.12931
3.13479
3.14024
3.14549
3.15037
3.15483
3.1586
3.16137
3.16288
3.16318
3.16231
3.16078
3.161
3.16279
3.16558
3.16901
3.17268
3.17639
3.18009
3.18373
3.18726
3.19057
3.19355
3.19611
3.19816
3.19962
3.20037
3.20008
3.19877
3.19582
3.19319
3.19382
3.19716
3.20207
3.2079
3.21407
3.22028
3.22642
3.23233
3.23773
3.24238
3.2462
3.24927
3.25186
3.25415
3.25608
3.25726
3.257
3.25483
3.25366
3.25591
3.2604
3.26584
3.27142
3.27675
3.28162
3.28558
3.28807
3.28862
3.28845
3.29069
3.29457
3.29867
3.3022
3.30487
3.30686
3.30869
3.31069
3.31306
3.31671
3.32252
3.32833
3.32936
1
1
1
1
1
1
1
1
1
1
1
1
1
1
1
1
1
1
1
1
1
0.999903
1.04456
2.2968
3.01711
3.04093
3.05063
3.05936
3.06696
3.07303
3.07697
3.08035
3.08419
3.08838
3.09224
3.09571
3.09844
3.10007
3.10111
3.10091
3.10151
3.10424
3.10804
3.11292
3.11802
3.12343
3.12893
3.13445
3.13988
3.14506
3.14986
3.15421
3.15779
3.1603
3.16152
3.16158
3.16041
3.15914
3.15964
3.1616
3.16449
3.16793
3.17154
3.17516
3.17877
3.18231
3.18571
3.18887
3.19169
3.19409
3.19599
3.19732
3.19798
3.19762
3.19632
3.19336
3.19112
3.19212
3.19567
3.20069
3.20656
3.21271
3.2189
3.22501
3.23087
3.23622
3.24082
3.24457
3.24761
3.25018
3.25247
3.25437
3.25544
3.25504
3.25277
3.25191
3.25443
3.25903
3.26449
3.27004
3.27531
3.28009
3.28391
3.28619
3.28655
3.28645
3.28882
3.29267
3.29665
3.30002
3.30247
3.30424
3.30583
3.3075
3.30957
3.31313
3.31851
3.32418
3.32483
1
1
1
1
1
1
1
1
1
1
1
1
1
1
1
1
1
1
1
1
1
0.999889
1.0503
2.27984
3.0167
3.04078
3.05022
3.05856
3.0657
3.07145
3.07496
3.07853
3.08254
3.08682
3.09072
3.09418
3.09666
3.09809
3.09884
3.0986
3.09975
3.103
3.10718
3.1123
3.11756
3.12307
3.12858
3.13411
3.1395
3.14457
3.14929
3.15348
3.15679
3.159
3.15989
3.15969
3.15822
3.15732
3.15815
3.1603
3.16328
3.16671
3.17025
3.17378
3.17729
3.1807
3.18395
3.18695
3.18958
3.1918
3.19353
3.19473
3.19528
3.19486
3.19356
3.19062
3.18884
3.19024
3.19401
3.19914
3.20503
3.21117
3.21733
3.22341
3.22921
3.23449
3.23901
3.2427
3.24568
3.24823
3.25052
3.25239
3.25334
3.2528
3.25045
3.24993
3.25272
3.25744
3.26291
3.26842
3.27364
3.27833
3.282
3.28407
3.28424
3.28426
3.28675
3.29056
3.29441
3.29755
3.29979
3.30133
3.30269
3.30396
3.30585
3.30928
3.31413
3.31968
3.31992
1
1
1
1
1
1
1
1
1
1
1
1
1
1
1
1
1
1
1
1
1
0.999874
1.05688
2.26001
3.01622
3.04062
3.04965
3.05749
3.06411
3.06953
3.07277
3.07662
3.08084
3.08522
3.0891
3.09238
3.09455
3.0957
3.09601
3.09611
3.09791
3.10172
3.10632
3.11172
3.11712
3.12272
3.12824
3.13376
3.13907
3.14403
3.14863
3.1526
3.15556
3.15742
3.15795
3.15745
3.15579
3.15535
3.15653
3.15886
3.16192
3.16533
3.16877
3.1722
3.17557
3.17883
3.18191
3.18471
3.18715
3.18917
3.19074
3.1918
3.19223
3.19178
3.19048
3.18763
3.18637
3.18817
3.19218
3.19741
3.20332
3.20945
3.21557
3.2216
3.22732
3.23252
3.23695
3.24056
3.24348
3.24601
3.2483
3.25014
3.25097
3.25027
3.24788
3.24773
3.25078
3.25561
3.26109
3.26657
3.27174
3.27633
3.27984
3.28169
3.28169
3.28187
3.28447
3.28823
3.29191
3.2948
3.29682
3.29816
3.29918
3.30012
3.30191
3.3051
3.30938
3.31478
3.31459
1
1
1
1
1
1
1
1
1
1
1
1
1
1
1
1
1
1
1
1
1
0.999859
1.06432
2.23698
3.01577
3.04038
3.04884
3.05612
3.06221
3.06735
3.07048
3.0746
3.07905
3.08348
3.08719
3.09015
3.09196
3.09283
3.0927
3.09347
3.09606
3.10049
3.10553
3.11119
3.11674
3.12241
3.12793
3.13342
3.1386
3.14345
3.14788
3.15148
3.1541
3.15551
3.15565
3.15472
3.15322
3.15327
3.15477
3.15728
3.16039
3.16372
3.16706
3.17037
3.17359
3.17666
3.17954
3.18213
3.18436
3.18619
3.1876
3.18853
3.18886
3.18837
3.18707
3.18439
3.18369
3.18593
3.19017
3.19549
3.20142
3.20752
3.21361
3.21957
3.22521
3.2303
3.23462
3.23814
3.24101
3.24352
3.24581
3.24762
3.24831
3.24744
3.24504
3.24529
3.24859
3.25352
3.25901
3.26446
3.26958
3.27408
3.27743
3.27906
3.27889
3.27927
3.28197
3.28566
3.28909
3.29178
3.29356
3.29469
3.29531
3.29602
3.29773
3.30055
3.30425
3.30949
3.30885
1
1
1
1
1
1
1
1
1
1
1
1
1
1
1
1
1
1
1
1
1
0.999856
1.07287
2.21016
3.01507
3.03993
3.04775
3.0544
3.06
3.06488
3.06812
3.07256
3.07719
3.0815
3.08489
3.08738
3.08883
3.08929
3.08919
3.09085
3.09432
3.09938
3.10486
3.11077
3.11642
3.12214
3.12764
3.13303
3.13807
3.14278
3.14693
3.15012
3.15234
3.15318
3.15291
3.15153
3.15051
3.15105
3.15286
3.15552
3.15865
3.16186
3.16509
3.16824
3.17127
3.17415
3.1768
3.17916
3.18118
3.18281
3.18409
3.1849
3.18513
3.1846
3.18329
3.18092
3.18083
3.18351
3.18797
3.19339
3.19933
3.2054
3.21145
3.21734
3.22287
3.22782
3.23201
3.23544
3.23826
3.24078
3.24306
3.24483
3.24538
3.24431
3.24196
3.24261
3.24615
3.25118
3.25668
3.26209
3.26716
3.27155
3.27474
3.27615
3.27584
3.27643
3.27924
3.28279
3.28597
3.28845
3.29
3.29083
3.29111
3.2917
3.29324
3.29566
3.29881
3.30378
3.3026
1
1
1
1
1
1
1
1
1
1
1
1
1
1
1
1
1
1
1
1
1
1.00001
1.08219
2.17912
3.0141
3.03918
3.04628
3.05229
3.05748
3.06217
3.06577
3.07052
3.07514
3.07906
3.08211
3.08403
3.08515
3.08513
3.08578
3.08845
3.09285
3.0985
3.10438
3.11048
3.11618
3.12188
3.12736
3.1326
3.13748
3.14197
3.14568
3.14843
3.15008
3.15035
3.14964
3.14805
3.14771
3.14873
3.1508
3.15358
3.15668
3.15975
3.16283
3.1658
3.16861
3.17125
3.17366
3.17579
3.17759
3.17904
3.18019
3.18089
3.18104
3.18048
3.17914
3.17723
3.17779
3.18089
3.18557
3.19107
3.19703
3.20307
3.20907
3.21488
3.22028
3.22508
3.22912
3.23245
3.23525
3.23779
3.24007
3.24178
3.24218
3.24087
3.23865
3.23969
3.24346
3.24858
3.25408
3.25946
3.26448
3.26877
3.27179
3.27299
3.27255
3.27338
3.27625
3.27962
3.2826
3.28485
3.28616
3.28661
3.28667
3.28718
3.28846
3.29046
3.29312
3.29771
3.29597
1
1
1
1
1
1
1
1
1
1
1
1
1
1
1
1
1
1
1
1
0.999989
1.0002
1.0923
2.14339
3.01276
3.03809
3.04447
3.04987
3.05476
3.05937
3.06339
3.06829
3.07257
3.07603
3.07867
3.08013
3.08089
3.08093
3.08272
3.0865
3.09176
3.09789
3.10408
3.11027
3.11596
3.12161
3.12699
3.13205
3.13674
3.14088
3.14405
3.14624
3.14717
3.1469
3.14569
3.14456
3.14485
3.14629
3.14858
3.15145
3.15442
3.15735
3.16024
3.16298
3.16555
3.16794
3.1701
3.17199
3.17358
3.17486
3.17589
3.17648
3.17656
3.17599
3.17463
3.17332
3.17454
3.17806
3.18295
3.18855
3.19451
3.20052
3.20646
3.21216
3.21743
3.22205
3.22593
3.22918
3.23198
3.23456
3.23685
3.23847
3.23874
3.23712
3.23514
3.23656
3.24054
3.24574
3.25123
3.25658
3.26154
3.26572
3.26858
3.26955
3.26902
3.27009
3.27298
3.27614
3.27895
3.28093
3.28195
3.28209
3.28202
3.28238
3.28331
3.28491
3.28709
3.29127
3.28883
1
1
1
1
1
1
1
1
1
1
1
1
1
1
1
1
1
1
1
1
1
0.999938
1.10297
2.10247
3.01085
3.03659
3.0423
3.04715
3.05182
3.05646
3.06079
3.06553
3.06931
3.07245
3.07459
3.0758
3.07625
3.07724
3.08029
3.08509
3.09107
3.09757
3.10393
3.11012
3.11574
3.12129
3.1265
3.13134
3.13571
3.13927
3.14187
3.14333
3.14349
3.14276
3.14137
3.14105
3.14194
3.14374
3.14621
3.14905
3.15189
3.15463
3.15729
3.15977
3.16209
3.16421
3.16612
3.16777
3.16915
3.17029
3.17118
3.17168
3.1717
3.17116
3.16981
3.1692
3.17109
3.17502
3.18012
3.18581
3.19177
3.19773
3.20359
3.20918
3.21428
3.21871
3.22242
3.22559
3.22844
3.23109
3.2334
3.23491
3.235
3.23306
3.23139
3.23318
3.23736
3.24262
3.24809
3.25341
3.25829
3.26235
3.26503
3.26578
3.2652
3.26651
3.26934
3.27229
3.27491
3.27664
3.27734
3.27726
3.27707
3.2772
3.27777
3.27896
3.28063
3.28438
3.28121
1
1
1
1
1
1
1
1
1
1
1
1
1
1
1
1
1
1
1
1
1
0.999664
1.11375
2.05597
3.00817
3.03466
3.03982
3.04419
3.04866
3.0533
3.05766
3.06207
3.06542
3.06827
3.07003
3.07116
3.0719
3.0743
3.07863
3.0843
3.0908
3.09748
3.10388
3.11002
3.11549
3.12089
3.12585
3.13034
3.13418
3.13706
3.13883
3.13942
3.13898
3.13785
3.13712
3.13755
3.13896
3.14104
3.14366
3.14636
3.14904
3.15153
3.15394
3.15615
3.15818
3.16003
3.16169
3.1631
3.16428
3.16531
3.16606
3.16647
3.16645
3.16596
3.16472
3.16489
3.16746
3.17181
3.17709
3.18284
3.18879
3.19469
3.20046
3.2059
3.2108
3.21502
3.21857
3.22171
3.22463
3.22738
3.2297
3.23107
3.23094
3.22872
3.22741
3.22959
3.23394
3.23924
3.2447
3.24999
3.2548
3.25874
3.26121
3.26172
3.26116
3.26267
3.26538
3.26811
3.27052
3.272
3.27241
3.27217
3.27181
3.27165
3.27188
3.27266
3.27384
3.27712
3.27319
1
1
1
1
1
1
1
1
1
1
1
1
1
1
1
1
1
1
1
1
0.999999
0.999298
1.12431
2.00348
3.00446
3.0324
3.03702
3.04094
3.04511
3.04963
3.05384
3.0579
3.06103
3.0636
3.06539
3.0665
3.0685
3.07232
3.07773
3.08409
3.09088
3.09762
3.10393
3.10992
3.1152
3.12037
3.12491
3.12883
3.13189
3.13383
3.13464
3.13442
3.13356
3.1328
3.13297
3.13407
3.13589
3.13824
3.14082
3.14339
3.14584
3.14808
3.1502
3.15211
3.15383
3.15539
3.15675
3.15793
3.15895
3.1599
3.16053
3.16088
3.16084
3.16035
3.15948
3.16052
3.16375
3.16845
3.17387
3.17966
3.18556
3.19139
3.19703
3.20228
3.20695
3.21095
3.21437
3.21751
3.22055
3.22341
3.22574
3.22693
3.22655
3.2241
3.22322
3.22577
3.23028
3.23564
3.24109
3.24635
3.25109
3.25488
3.25713
3.25739
3.2569
3.25859
3.26112
3.26364
3.26582
3.26708
3.26728
3.26693
3.26632
3.26586
3.26573
3.26608
3.26675
3.26951
3.26481
1
1
1
1
1
1
1
1
1
1
1
1
1
1
1
1
1
1
1
1
0.999992
0.998873
1.13406
1.94438
2.9995
3.02984
3.03384
3.03727
3.04103
3.04529
3.04917
3.0531
3.05642
3.05889
3.06079
3.06273
3.0662
3.07131
3.07753
3.08434
3.09123
3.09788
3.10404
3.1098
3.11479
3.11945
3.12332
3.12635
3.12832
3.1292
3.12914
3.12844
3.12785
3.12801
3.12896
3.13062
3.13277
3.13527
3.13773
3.14007
3.14222
3.14424
3.14602
3.14756
3.14892
3.15012
3.15119
3.15217
3.15309
3.154
3.15459
3.15494
3.15491
3.15441
3.15426
3.15618
3.15997
3.16494
3.17048
3.17628
3.18211
3.18783
3.1933
3.19831
3.20271
3.20649
3.20981
3.21301
3.2162
3.21915
3.22145
3.22241
3.22176
3.21914
3.21875
3.22165
3.22633
3.23175
3.2372
3.24241
3.24706
3.25068
3.25268
3.25269
3.25236
3.25413
3.25643
3.25874
3.26073
3.26176
3.26184
3.26127
3.2604
3.25966
3.25917
3.2591
3.25927
3.26148
3.25601
1
1
1
1
1
1
1
1
1
1
1
1
1
1
1
1
1
1
1
1
0.999988
0.998369
1.14282
1.87756
2.99284
3.0269
3.03003
3.03286
3.03599
3.03984
3.04374
3.04806
3.05176
3.05464
3.05699
3.06025
3.06506
3.07116
3.07793
3.08496
3.09176
3.0982
3.10407
3.10938
3.11377
3.11755
3.12036
3.12221
3.12307
3.12311
3.12257
3.12222
3.12258
3.12358
3.12519
3.12725
3.12964
3.13206
3.13434
3.13637
3.13822
3.13984
3.14114
3.1422
3.14312
3.14401
3.1449
3.14577
3.14669
3.14756
3.14822
3.14861
3.14874
3.14837
3.1491
3.15184
3.15615
3.16135
3.16695
3.17272
3.17843
3.18399
3.18923
3.19395
3.19805
3.20162
3.2049
3.20825
3.21159
3.2146
3.21682
3.21751
3.21658
3.2139
3.21403
3.21728
3.22215
3.22764
3.2331
3.23826
3.2428
3.24623
3.24795
3.24769
3.24756
3.24931
3.25136
3.25347
3.25529
3.25611
3.25606
3.25524
3.25412
3.25311
3.25224
3.25177
3.25143
3.25306
3.24685
1
1
1
1
1
1
1
1
1
1
1
1
1
1
1
1
1
1
1
1
0.99999
0.998039
1.14919
1.80371
2.98447
3.0233
3.0252
3.02721
3.0298
3.03372
3.03839
3.0435
3.0478
3.05114
3.05444
3.05903
3.06496
3.07179
3.07889
3.08586
3.09236
3.09837
3.10355
3.10797
3.11128
3.11381
3.11541
3.11619
3.11631
3.11597
3.11599
3.11667
3.11792
3.11961
3.1217
3.12403
3.12637
3.12864
3.13053
3.13216
3.1335
3.13449
3.13515
3.13573
3.13641
3.13716
3.13794
3.13874
3.13971
3.14063
3.14144
3.14196
3.14223
3.14242
3.14414
3.14763
3.15234
3.1577
3.16331
3.16898
3.17453
3.17988
3.18483
3.18919
3.19297
3.19633
3.19971
3.20325
3.2067
3.2097
3.21179
3.21218
3.21094
3.20836
3.20904
3.21267
3.21775
3.22331
3.22879
3.23389
3.2383
3.24152
3.24295
3.24244
3.24249
3.24415
3.24596
3.24791
3.24953
3.25022
3.24997
3.2489
3.24754
3.24622
3.24496
3.24409
3.24324
3.24428
3.23726
1
1
1
1
1
1
1
1
1
1
1
1
1
1
1
1
1
1
1
1
0.999997
0.997742
1.15278
1.7222
2.97402
3.01855
3.01881
3.01999
3.02319
3.02822
3.03434
3.04026
3.0449
3.04857
3.05309
3.05894
3.06584
3.07316
3.08022
3.08679
3.09261
3.09761
3.10152
3.10451
3.10648
3.10777
3.10844
3.10859
3.10865
3.10912
3.11024
3.11184
3.11381
3.11608
3.11842
3.12067
3.12289
3.12465
3.12596
3.1269
3.12749
3.12775
3.12794
3.12832
3.12889
3.12958
3.1303
3.13112
3.13228
3.13339
3.13431
3.1351
3.13556
3.13671
3.1394
3.14349
3.14851
3.15396
3.15954
3.16507
3.17043
3.17549
3.18008
3.18404
3.18745
3.19068
3.1943
3.19801
3.20151
3.20444
3.20633
3.20638
3.20481
3.20255
3.2038
3.20779
3.21309
3.21871
3.22421
3.22923
3.2335
3.23649
3.23762
3.23688
3.23712
3.23861
3.24021
3.24203
3.24346
3.24399
3.24351
3.24219
3.24056
3.23892
3.23725
3.23599
3.23461
3.23505
3.22723
1
1
1
1
1
1
1
1
1
1
1
1
1
1
1
1
1
1
1
0.999999
0.999998
0.997526
1.15255
1.63136
2.96039
3.01149
3.01059
3.01248
3.0176
3.0246
3.03212
3.03811
3.04268
3.04713
3.05307
3.06013
3.06764
3.07483
3.08129
3.08685
3.09121
3.09448
3.09672
3.09824
3.09914
3.09967
3.10006
3.10062
3.10164
3.10322
3.10528
3.10764
3.11016
3.11257
3.11475
3.11677
3.11841
3.11932
3.11985
3.11999
3.11987
3.11965
3.1197
3.12002
3.12061
3.12133
3.12208
3.12323
3.12458
3.12591
3.12704
3.1281
3.12914
3.1313
3.13483
3.1394
3.1446
3.15009
3.15563
3.16098
3.16608
3.1708
3.17497
3.17847
3.18146
3.1848
3.18867
3.19253
3.19605
3.19883
3.20043
3.2002
3.19829
3.19648
3.19829
3.20265
3.20812
3.21383
3.21933
3.22427
3.22839
3.23112
3.23193
3.23103
3.23142
3.23269
3.23415
3.23578
3.23705
3.2374
3.23666
3.2351
3.23319
3.23121
3.22918
3.22754
3.22566
3.22547
3.21688
1
1
1
1
1
1
1
1
1
1
1
1
1
1
1
1
1
1
1
0.999998
1.00001
0.997251
1.14744
1.5315
2.94163
3.00157
3.00238
3.00699
3.0148
3.02335
3.0307
3.03635
3.0411
3.04736
3.05485
3.06245
3.06956
3.07578
3.08061
3.08414
3.08647
3.08797
3.08893
3.08957
3.09022
3.09101
3.09216
3.09375
3.09587
3.09838
3.10096
3.10359
3.10608
3.10811
3.1098
3.11118
3.11187
3.11201
3.11184
3.11139
3.11088
3.11063
3.11069
3.1111
3.11179
3.11266
3.11379
3.1154
3.11697
3.11844
3.11988
3.12127
3.12325
3.12633
3.13045
3.13529
3.14053
3.14602
3.15146
3.15662
3.16141
3.16571
3.16938
3.17233
3.17506
3.17869
3.18277
3.18674
3.19027
3.19289
3.19412
3.19362
3.19141
3.19017
3.19255
3.19725
3.20292
3.20873
3.21424
3.21909
3.22302
3.22546
3.22594
3.22493
3.22544
3.22645
3.22778
3.22923
3.2304
3.23054
3.22954
3.22775
3.22555
3.22323
3.22082
3.21878
3.21637
3.21553
3.20617
1
1
1
1
1
1
1
1
1
1
1
1
1
1
1
1
1
1
1
1
1
0.996559
1.13813
1.42455
2.91291
2.99183
2.99774
3.00558
3.01454
3.02246
3.02896
3.03474
3.04173
3.04986
3.05764
3.06453
3.06999
3.0738
3.07612
3.07744
3.07826
3.07868
3.07953
3.08044
3.08182
3.08351
3.08576
3.08836
3.0911
3.09374
3.09624
3.09859
3.10029
3.10158
3.10259
3.10322
3.10322
3.10288
3.1023
3.10165
3.10123
3.10112
3.10132
3.10189
3.1028
3.10405
3.1058
3.10768
3.10953
3.11128
3.11308
3.11514
3.11799
3.12173
3.12618
3.13108
3.13626
3.14164
3.14694
3.15187
3.15628
3.16006
3.16311
3.16548
3.16835
3.17231
3.17656
3.18061
3.18416
3.18663
3.18751
3.18672
3.1843
3.18371
3.18664
3.19164
3.1975
3.2034
3.20888
3.21361
3.2173
3.21944
3.21958
3.21855
3.21911
3.21993
3.22108
3.22242
3.22346
3.22335
3.22209
3.22004
3.21751
3.21485
3.21207
3.2096
3.20671
3.20527
3.19509
1
1
1
1
1
1
1
1
1
1
1
1
1
1
1
1
1
1
1
1
1
0.996955
1.1253
1.31465
2.87367
2.98736
2.99728
3.0064
3.01427
3.02073
3.02755
3.03591
3.04494
3.05297
3.05934
3.06365
3.06609
3.0672
3.06761
3.06761
3.06842
3.06925
3.0708
3.07267
3.07499
3.07753
3.08035
3.08315
3.08561
3.08774
3.08967
3.09117
3.09212
3.09281
3.09325
3.09325
3.09289
3.09238
3.09173
3.09125
3.09104
3.09115
3.09162
3.0925
3.09383
3.09574
3.09799
3.10022
3.10237
3.10453
3.10698
3.10988
3.11337
3.11752
3.12205
3.12686
3.13188
3.13703
3.14207
3.14666
3.15057
3.15369
3.15601
3.15812
3.1614
3.16571
3.17009
3.17421
3.17775
3.18009
3.18055
3.17949
3.17694
3.17702
3.18043
3.18571
3.19172
3.19767
3.20309
3.20768
3.21116
3.21299
3.21282
3.21187
3.21239
3.2131
3.21406
3.21531
3.21616
3.21576
3.21423
3.21187
3.20901
3.20602
3.2029
3.19999
3.19667
3.19462
3.18373
1
1
1
1
1
1
1
1
1
1
1
1
1
1
1
1
1
1
1
1
1
0.999886
1.09449
1.21717
2.83984
2.98941
3
3.00706
3.0128
3.02057
3.02995
3.03968
3.04788
3.05348
3.05641
3.05737
3.05731
3.05673
3.05721
3.05784
3.05943
3.06127
3.06362
3.06614
3.06856
3.07109
3.07364
3.07589
3.07775
3.07935
3.08069
3.08147
3.08196
3.08223
3.08224
3.08193
3.08151
3.08101
3.08065
3.08054
3.08075
3.0813
3.08221
3.08352
3.08548
3.08793
3.09059
3.09322
3.09579
3.09859
3.10177
3.10529
3.10921
3.1135
3.11801
3.12273
3.12753
3.13232
3.13691
3.14096
3.14413
3.14642
3.14809
3.15047
3.15422
3.15884
3.16332
3.16749
3.17093
3.17309
3.17316
3.17183
3.16935
3.17009
3.17398
3.17954
3.18569
3.19164
3.19699
3.20143
3.20467
3.20619
3.20572
3.2049
3.20531
3.2059
3.20674
3.20788
3.2085
3.2078
3.20598
3.20328
3.2001
3.1968
3.19333
3.18999
3.18631
3.1837
3.17199
1
1
1
1
1
1
1
1
1
1
1
1
1
1
1
1
1
1
1
1
1
0.999935
1.0427
1.14358
2.81478
2.99358
2.99858
3.00496
3.01427
3.02472
3.03479
3.04254
3.04672
3.04809
3.0477
3.04609
3.04575
3.04604
3.04743
3.04917
3.05141
3.05385
3.05606
3.05829
3.06018
3.06229
3.06446
3.06623
3.06773
3.06896
3.06974
3.07022
3.07053
3.07065
3.07052
3.07028
3.07003
3.06995
3.07013
3.07055
3.07121
3.07219
3.07364
3.07561
3.0781
3.08092
3.08392
3.087
3.09016
3.09359
3.09724
3.10117
3.10536
3.10977
3.11414
3.11872
3.12325
3.12761
3.13147
3.13452
3.13667
3.13803
3.13976
3.14262
3.14689
3.15177
3.15636
3.16055
3.16387
3.16578
3.16551
3.16385
3.16175
3.16315
3.16746
3.17323
3.17942
3.18534
3.19055
3.1948
3.19777
3.19897
3.19824
3.19759
3.19792
3.19839
3.19919
3.20024
3.20058
3.19959
3.19744
3.19438
3.19087
3.18725
3.18342
3.17966
3.17559
3.17236
3.15996
1
1
1
1
1
1
1
1
1
1
1
1
1
1
1
1
1
1
1
1
0.999999
0.999995
1.00022
1.09315
2.77762
2.9872
2.99611
3.00863
3.0203
3.02996
3.03648
3.0393
3.03895
3.03675
3.03494
3.03398
3.03465
3.03607
3.03799
3.04025
3.04239
3.04433
3.04606
3.04768
3.04914
3.05077
3.05257
3.05412
3.05554
3.05669
3.05754
3.05818
3.05866
3.05892
3.05911
3.05932
3.05968
3.06024
3.061
3.06196
3.06311
3.06471
3.06678
3.06926
3.07207
3.07514
3.07845
3.08188
3.08548
3.0893
3.09332
3.09754
3.10192
3.1062
3.11038
3.11465
3.11865
3.12212
3.12482
3.12671
3.12793
3.12907
3.13127
3.13468
3.13946
3.14456
3.14925
3.15342
3.15653
3.15807
3.15754
3.15554
3.15401
3.15607
3.16074
3.16669
3.17285
3.17873
3.18377
3.1878
3.19049
3.19136
3.19043
3.18998
3.19026
3.19061
3.19141
3.19234
3.19237
3.19106
3.18856
3.18513
3.18131
3.17737
3.17316
3.16896
3.16451
3.16076
3.14755
1
1
1
1
1
1
1
1
1
1
1
1
1
1
1
1
1
1
1
1
0.999996
0.999989
1.00004
1.03411
2.7059
2.98488
3.00301
3.0167
3.026
3.03041
3.03058
3.02842
3.02506
3.02289
3.0226
3.02289
3.02389
3.02549
3.02714
3.02861
3.03029
3.03166
3.03322
3.03464
3.03597
3.0376
3.03946
3.04113
3.04274
3.04417
3.04537
3.0464
3.04738
3.04827
3.04909
3.05005
3.05109
3.0523
3.05365
3.05527
3.05718
3.05939
3.06196
3.06471
3.06764
3.0709
3.07434
3.07796
3.08179
3.08579
3.08996
3.09429
3.09852
3.10259
3.10653
3.11024
3.11333
3.11562
3.11709
3.11792
3.11853
3.12004
3.12279
3.12671
3.13188
3.13712
3.14188
3.14598
3.14882
3.14987
3.14907
3.14681
3.14596
3.14867
3.15369
3.15981
3.16594
3.17177
3.17664
3.18042
3.18281
3.18337
3.18232
3.18203
3.18224
3.18254
3.18332
3.18409
3.1838
3.18212
3.17924
3.17546
3.17134
3.16707
3.16253
3.15793
3.1531
3.14877
3.13482
1
1
1
1
1
1
1
1
1
1
1
1
1
1
1
1
1
1
1
1
0.999995
1.00004
1.0004
0.994535
2.61225
2.99818
3.01678
3.02414
3.02434
3.02009
3.01508
3.0119
3.01041
3.0098
3.01052
3.01065
3.01159
3.01222
3.01352
3.01467
3.01612
3.01738
3.01898
3.02067
3.02246
3.02448
3.02669
3.0287
3.03068
3.03264
3.03451
3.03625
3.03796
3.03966
3.04138
3.04317
3.04505
3.047
3.04907
3.05127
3.0535
3.05613
3.05897
3.06187
3.06495
3.06826
3.07169
3.0753
3.07912
3.08312
3.08724
3.09126
3.09506
3.09877
3.10204
3.10469
3.10665
3.10783
3.1083
3.10841
3.10907
3.11113
3.11441
3.11879
3.12423
3.12951
3.13427
3.13827
3.1408
3.14132
3.14023
3.13785
3.1378
3.14112
3.14647
3.15266
3.15876
3.16446
3.16912
3.17261
3.1747
3.17497
3.17388
3.17369
3.17384
3.17413
3.17488
3.17546
3.17481
3.17272
3.16941
3.1653
3.16091
3.15636
3.1515
3.14647
3.14129
3.13648
3.12172
1
1
1
1
1
1
1
1
1
1
1
1
1
1
1
1
1
1
1
1
0.999996
1.00025
1.00235
0.990395
2.51937
3.02515
3.0253
3.01589
3.00704
3.00089
2.9974
2.99588
2.99548
2.9949
2.99576
2.99595
2.99694
2.99767
2.99913
3.00076
3.00298
3.00486
3.00692
3.00892
3.01095
3.01369
3.01663
3.01935
3.022
3.02466
3.02728
3.02972
3.03219
3.03471
3.03721
3.0398
3.04232
3.04473
3.04737
3.04995
3.05239
3.05505
3.05788
3.0608
3.06389
3.06703
3.07021
3.0736