/*--------------------------------*- C++ -*----------------------------------*\
| =========                 |                                                 |
| \\      /  F ield         | OpenFOAM: The Open Source CFD Toolbox           |
|  \\    /   O peration     | Version:  2.2.x                                 |
|   \\  /    A nd           | Web:      www.OpenFOAM.org                      |
|    \\/     M anipulation  |                                                 |
\*---------------------------------------------------------------------------*/
FoamFile
{
    version     2.0;
    format      ascii;
    class       volScalarField;
    location    "0.03";
    object      By;
}
// * * * * * * * * * * * * * * * * * * * * * * * * * * * * * * * * * * * * * //

dimensions      [1 0 -2 0 0 -1 0];

internalField   nonuniform List<scalar> 
1024
(
-1
-1
-1
-1
-1
-1
-1
-1
-1
-1
-1
-1
-1
-1
-1
-1
-1
-1
-1
-1
-1
-1
-1
-1
-1
-1
-1
-1
-1
-1
-1
-1
-1
-1
-1
-1
-1
-1
-1
-1
-1
-1
-1
-1
-1
-1
-1
-1
-1
-1
-1
-1
-1
-1
-1
-1
-1
-1
-1
-1
-1
-1
-1
-1
-1
-1
-1
-1
-1
-1
-1
-1
-1
-1
-1
-1
-1
-1
-1
-1
-1
-1
-1
-1
-1
-1
-1
-1
-1
-1
-1
-1
-1
-1
-1
-1
-1
-1
-1
-1
-1
-1
-1
-1
-1
-1
-1
-1
-1
-1
-1
-1
-1
-1
-1
-1
-1
-1
-1
-1
-1
-1
-1
-1
-1
-1
-1
-1
-1
-1
-1
-1
-1
-1
-1
-1
-1
-1
-1
-1
-1
-1
-1
-1
-1
-1
-1
-1
-1
-1
-1
-1
-1
-1
-1
-1
-1
-1
-1
-1
-1
-1
-1
-1
-1
-1
-1
-1
-1
-1
-1
-1
-1
-1
-1
-1
-1
-1
-1
-1
-1
-1
-1
-1
-1
-1
-1
-1
-1
-1
-1
-1
-1
-1
-1
-1
-1
-1
-1
-1
-1
-1
-1
-1
-1
-1
-1
-1
-1
-1
-1
-1
-1
-1
-1
-1
-1
-1
-1
-1
-1
-1
-1
-1
-1
-1
-1
-1
-1
-1
-1
-1
-1
-1
-1
-1
-1
-1
-1
-1
-1
-1
-1
-1
-1
-1
-1
-1
-1
-1
-1
-1
-1
-1
-1
-1
-1
-1
-1
-1
-1
-1
-1
-1
-1
-1
-1
-1
-1
-1
-1
-1
-1
-1
-1
-1
-1
-1
-1
-1
-1
-1
-1
-1
-1
-1
-1
-1
-1
-1
-1
-1
-1
-1
-1
-1
-1
-1
-1
-1
-1
-1
-1
-1
-1
-1
-1
-1
-1
-1
-1
-1
-1
-1
-1
-1
-1
-1
-1
-1
-1
-1
-1
-1
-1
-1
-1
-1
-1
-1
-1
-1
-1
-1
-1
-1
-1
-1
-1
-1
-1
-1
-1
-1
-1
-1
-1
-1
-1
-1
-1
-1
-1
-1
-1
-1
-1
-1
-1
-1
-1
-1
-1
-1
-1
-1
-1
-1
-1
-1
-1
-1
-1
-1
-1
-1
-1
-1
-1
-0.999999
-0.999999
-0.999998
-0.999996
-0.999993
-0.999987
-0.999977
-0.99996
-0.99993
-0.999881
-0.999799
-0.99967
-0.999466
-0.999154
-0.998689
-0.998011
-0.99705
-0.995725
-0.993949
-0.991639
-0.988719
-0.985136
-0.980861
-0.975897
-0.970274
-0.964122
-0.958053
-0.95217
-0.946414
-0.940756
-0.935167
-0.929671
-0.924276
-0.919036
-0.914009
-0.909241
-0.904834
-0.900798
-0.897253
-0.894139
-0.891591
-0.889446
-0.887847
-0.88657
-0.885706
-0.885102
-0.884702
-0.884517
-0.884386
-0.884367
-0.884364
-0.884406
-0.884542
-0.884814
-0.885244
-0.885837
-0.886458
-0.886992
-0.887437
-0.887791
-0.88806
-0.888261
-0.888399
-0.888484
-0.888549
-0.888587
-0.88861
-0.888635
-0.88866
-0.888686
-0.888719
-0.888769
-0.888846
-0.888954
-0.889092
-0.889258
-0.889444
-0.889615
-0.889762
-0.889869
-0.889938
-0.889964
-0.889954
-0.889832
-0.889499
-0.888866
-0.887573
-0.884128
-0.873402
-0.84044
-0.752011
-0.640914
-0.578356
-0.551362
-0.541235
-0.537862
-0.536704
-0.536371
-0.53661
-0.536894
-0.536994
-0.537004
-0.536855
-0.536292
-0.535791
-0.535612
-0.53558
-0.53567
-0.536061
-0.536681
-0.537026
-0.537049
-0.536821
-0.536534
-0.536484
-0.536615
-0.536769
-0.536866
-0.536858
-0.536613
-0.536403
-0.536455
-0.536885
-0.53795
-0.539183
-0.540279
-0.541397
-0.542428
-0.542583
-0.540712
-0.535084
-0.526107
-0.514025
-0.498288
-0.477236
-0.449127
-0.414528
-0.370929
-0.31535
-0.243912
-0.158622
-0.0475931
0.122754
0.311571
0.42296
0.472471
0.49377
0.503434
0.508981
0.512736
0.515559
0.519028
0.524012
0.531606
0.540945
0.551551
0.56349
0.575635
0.588109
0.601361
0.614785
0.628449
0.642573
0.656759
0.671006
0.685443
0.699972
0.714516
0.729198
0.744002
0.758799
0.773725
0.788757
0.803774
0.81893
0.834159
0.849398
0.864765
0.880157
0.895564
0.910716
0.925059
0.93844
0.950691
0.961624
0.971073
0.978937
0.985214
0.990003
0.993493
0.99592
0.997534
0.998561
0.999189
0.999557
0.999766
0.99988
0.99994
0.999971
0.999986
0.999994
0.999997
0.999999
0.999999
1
1
1
1
1
1
1
1
1
1
1
1
1
1
1
1
1
1
1
1
1
1
1
1
1
1
1
1
1
1
1
1
1
1
1
1
1
1
1
1
1
1
1
1
1
1
1
1
1
1
1
1
1
1
1
1
1
1
1
1
1
1
1
1
1
1
1
1
1
1
1
1
1
1
1
1
1
1
1
1
1
1
1
1
1
1
1
1
1
1
1
1
1
1
1
1
1
1
1
1
1
1
1
1
1
1
1
1
1
1
1
1
1
1
1
1
1
1
1
1
1
1
1
1
1
1
1
1
1
1
1
1
1
1
1
1
1
1
1
1
1
1
1
1
1
1
1
1
1
1
1
1
1
1
1
1
1
1
1
1
1
1
1
1
1
1
1
1
1
1
1
1
1
1
1
1
1
1
1
1
1
1
1
1
1
1
1
1
1
1
1
1
1
1
1
1
1
1
1
1
1
1
1
1
1
1
1
1
1
1
1
1
1
1
1
1
1
1
1
1
1
1
1
1
1
1
1
1
1
1
1
1
1
1
1
1
1
1
1
1
1
1
1
1
1
1
1
1
1
1
1
1
1
1
1
1
1
1
1
1
1
1
1
1
1
1
1
1
1
1
1
1
1
1
1
1
1
1
1
1
1
1
1
1
1
1
1
1
1
1
1
1
1
1
1
1
1
1
1
1
1
1
1
1
1
1
1
1
1
1
1
1
1
1
1
1
1
1
1
1
1
1
1
1
1
1
1
1
1
1
1
1
1
1
1
1
1
1
1
1
1
1
1
1
1
1
1
1
1
1
1
1
1
1
1
1
1
1
1
1
1
1
1
1
1
1
1
1
1
1
1
1
1
1
1
1
1
1
1
1
1
1
1
1
1
1
1
1
1
1
1
1
1
1
1
1
1
1
1
1
1
1
1
1
1
1
1
1
1
1
1
1
1
1
1
1
1
1
1
1
1
1
1
1
1
1
1
1
1
1
1
1
1
1
1
1
1
1
1
1
1
)
;

boundaryField
{
    front-back
    {
        type            empty;
    }
    inlet-outlet
    {
        type            zeroGradient;
    }
    top-down
    {
        type            empty;
    }
}


// ************************************************************************* //
