/*--------------------------------*- C++ -*----------------------------------*\
| =========                 |                                                 |
| \\      /  F ield         | OpenFOAM: The Open Source CFD Toolbox           |
|  \\    /   O peration     | Version:  2.2.x                                 |
|   \\  /    A nd           | Web:      www.OpenFOAM.org                      |
|    \\/     M anipulation  |                                                 |
\*---------------------------------------------------------------------------*/
FoamFile
{
    version     2.0;
    format      ascii;
    class       volScalarField;
    location    "0.6";
    object      By;
}
// * * * * * * * * * * * * * * * * * * * * * * * * * * * * * * * * * * * * * //

dimensions      [1 0 -2 0 0 -1 0];

internalField   nonuniform List<scalar> 
14161
(
-5.52474e-08
7.78084e-10
-6.62203e-09
-1.14724e-07
9.55066e-08
-3.32026e-08
-1.32661e-07
7.34175e-08
-6.48766e-08
-2.1896e-07
-2.53903e-07
3.52152e-08
-2.64479e-08
-6.33421e-07
2.39753e-07
5.27326e-07
-1.29886e-06
-1.24125e-06
1.15698e-06
8.36807e-07
-6.50485e-07
-4.36373e-07
-1.44725e-06
2.16041e-06
2.59408e-06
6.59113e-07
-3.96515e-07
1.59486e-06
4.58064e-06
7.28562e-06
-2.16196e-06
3.73841e-06
8.96065e-06
1.07108e-05
1.16436e-05
1.36085e-05
1.36297e-05
1.32916e-05
1.86053e-05
2.50333e-05
3.35019e-05
3.72808e-05
4.69607e-05
5.40403e-05
6.68843e-05
6.59111e-05
7.58918e-05
9.37017e-05
9.15735e-05
0.000179227
0.000108053
0.000955037
0.000538909
0.00776219
0.0180671
-0.0326137
-0.060025
-0.043009
-0.0229646
-0.0154617
-0.0129006
-0.012207
-0.00932179
-0.00761194
-0.00585255
-0.00404297
-0.0027345
-0.00196109
-0.00116036
-0.000146135
3.90118e-06
-3.5009e-05
-0.00012129
1.6637e-05
9.94058e-05
-0.000404556
0.00019094
0.0011128
0.000906075
-0.00094906
-0.00431435
-0.0077634
-0.00617107
-0.00570847
-0.00596619
-0.00210449
-0.00181349
-0.00586447
0.00103848
0.0320312
0.080977
0.0651273
0.0473595
0.0351055
0.0288969
0.0251498
0.0229553
0.0216344
0.0203495
0.0187853
0.0177457
0.0166728
0.0153671
0.0141255
0.0130641
0.0121725
0.01181
0.0116809
0.0116018
0.0116223
0.0115445
0.0119606
0.0132951
0.0153518
0.0189781
0.0211704
0.0237908
0.0216442
0.0187367
-1.0065e-07
-3.85113e-08
-3.25437e-08
-9.62441e-08
3.18712e-08
3.46599e-08
-2.06652e-07
-7.27329e-08
-2.57187e-08
-1.26699e-07
-6.63613e-07
-1.35756e-07
5.04533e-08
-7.43302e-07
4.63864e-08
-4.86096e-08
-1.12501e-06
-7.4684e-07
6.32948e-09
1.14513e-06
1.11278e-06
-1.10198e-06
-1.62634e-06
2.94159e-06
3.24243e-06
1.34496e-07
4.19478e-06
6.99093e-06
1.09485e-05
1.38097e-05
-1.02016e-06
8.24462e-06
2.13392e-05
2.69945e-05
3.28467e-05
4.02735e-05
4.55197e-05
4.16972e-05
5.77467e-05
8.30139e-05
0.000110716
0.000121686
0.00014374
0.000159071
0.000212642
0.000206417
0.00025945
0.000285715
0.000296117
0.000400903
0.000489345
0.00129414
0.00119194
0.00678329
0.0121995
-0.0460963
-0.0728736
-0.0639054
-0.0512317
-0.0371239
-0.0328302
-0.0325864
-0.0273319
-0.023491
-0.0188431
-0.0141114
-0.010384
-0.00804628
-0.00552139
-0.00281322
-0.00156353
-0.00121981
-0.00132238
-0.000922497
-0.000647941
-0.00111589
0.000169071
0.000956317
0.000209098
-0.00204897
-0.00555422
-0.0139324
-0.0149992
-0.0147172
-0.0174309
-0.00931383
-0.00378703
-0.0101575
-0.00176953
0.111174
0.218899
0.198826
0.142255
0.108741
0.0891668
0.0772826
0.0693143
0.0640818
0.0597733
0.0554175
0.0525293
0.049514
0.0464456
0.0438437
0.0415121
0.0393803
0.0384527
0.0380313
0.037785
0.0380401
0.0380586
0.038586
0.0402676
0.04155
0.0502511
0.0562717
0.056108
0.0510413
0.046048
-1.6586e-07
-7.35981e-08
-7.56053e-08
-1.25058e-07
1.69601e-08
-6.68119e-08
-1.66163e-07
-2.02514e-07
-1.72943e-07
-3.91028e-07
-5.81551e-07
-3.37273e-07
-7.72226e-08
-1.1715e-06
-5.99928e-07
-4.02654e-07
-6.61401e-07
-1.18827e-06
-1.17182e-06
6.89559e-07
1.88492e-06
-6.10667e-07
-1.18711e-06
2.75661e-06
3.1852e-06
1.70439e-06
7.81322e-06
1.65525e-05
2.02189e-05
1.00345e-05
1.72529e-06
1.90889e-05
3.53054e-05
4.90316e-05
5.91005e-05
6.87979e-05
7.92891e-05
6.63937e-05
9.73007e-05
0.000130995
0.000174068
0.000210129
0.000235535
0.000273219
0.000336183
0.000350793
0.000412795
0.000441121
0.000442024
0.000450702
0.000427485
0.000182581
0.000129243
-0.00121885
-0.0329741
-0.0872235
-0.0936441
-0.0851633
-0.080514
-0.0694401
-0.062916
-0.0614626
-0.0524486
-0.0444336
-0.0358407
-0.0269461
-0.0201997
-0.0159063
-0.0112387
-0.00661297
-0.00378847
-0.00343338
-0.00306492
-0.00254669
-0.0025208
-0.00215186
-0.000232658
0.000567839
-0.000933539
-0.00434915
-0.00979909
-0.0228059
-0.0232335
-0.023843
-0.028328
-0.0150371
-0.00154766
-0.00582672
0.0345842
0.239082
0.322575
0.293983
0.22909
0.183612
0.153509
0.134223
0.120609
0.111768
0.104401
0.0974115
0.0921407
0.0869924
0.0819886
0.0774914
0.0729456
0.0686218
0.0659572
0.0642702
0.063705
0.0636639
0.0646712
0.0669066
0.0705428
0.0720138
0.0813161
0.0883431
0.0858179
0.0778836
0.0738195
-2.17159e-07
-7.81375e-08
-1.029e-07
-1.53866e-07
-1.48342e-08
-1.51041e-07
-1.18463e-07
-3.47181e-07
-2.37589e-07
-6.60534e-07
-4.62459e-07
-4.07078e-07
-7.69047e-07
-1.21261e-06
-8.22804e-07
-4.78863e-07
-1.40732e-08
-1.59231e-06
-2.48691e-06
-9.40559e-08
2.86488e-06
1.09556e-06
-8.92798e-07
3.96283e-06
2.20592e-06
2.26856e-06
9.95296e-06
2.27048e-05
2.27162e-05
1.17216e-05
1.3192e-05
2.56977e-05
4.92736e-05
7.2032e-05
8.79668e-05
9.76185e-05
0.000109478
0.000100502
0.000128585
0.000183392
0.000234084
0.000286562
0.000338166
0.000410385
0.000469523
0.000537677
0.00060922
0.000666319
0.00068405
0.000593473
0.000213055
-0.000717805
-0.00224708
-0.00594324
-0.0686995
-0.114722
-0.123843
-0.106969
-0.113509
-0.103145
-0.096447
-0.0868929
-0.0779695
-0.063701
-0.053301
-0.0377545
-0.0265437
-0.0206691
-0.0142777
-0.00894072
-0.00512436
-0.00451823
-0.00378673
-0.00303567
-0.00299716
-0.00253703
-0.00101666
-0.000347049
-0.00324267
-0.00765522
-0.0133936
-0.0315897
-0.0293902
-0.0325856
-0.0348128
-0.0151765
0.00136482
0.0270715
0.180498
0.36657
0.398075
0.353496
0.289823
0.242631
0.205669
0.18072
0.16302
0.151438
0.141548
0.13272
0.125514
0.118538
0.112399
0.10667
0.101012
0.0956879
0.0920435
0.0887918
0.0868144
0.0868505
0.0876113
0.0903512
0.0963964
0.0996718
0.107537
0.112972
0.109101
0.1001
0.0986965
-2.48996e-07
-1.07589e-07
-1.39101e-07
-2.03592e-07
-2.97677e-08
-1.4037e-07
-2.5193e-07
-4.58182e-07
-2.7229e-07
-6.82994e-07
-8.11402e-07
-3.38722e-07
-1.27626e-06
-1.34742e-06
-7.56183e-07
-1.12531e-06
-1.0307e-06
-7.64841e-07
-3.32422e-06
-4.40832e-07
2.60345e-06
2.66844e-07
1.56174e-06
6.98449e-06
2.48449e-06
2.68163e-06
1.2537e-05
2.66427e-05
3.07356e-05
2.33497e-05
2.44057e-05
3.22416e-05
5.88917e-05
8.2514e-05
0.000114567
0.000131137
0.000135844
0.000146608
0.000164062
0.000217523
0.000288025
0.000361935
0.000453902
0.000546283
0.000658812
0.000778639
0.000895706
0.00104743
0.00118487
0.00137723
0.00147519
0.00154346
0.00201335
0.0013377
-0.0423122
-0.135881
-0.174315
-0.163323
-0.173928
-0.160634
-0.143694
-0.130092
-0.110636
-0.0904728
-0.0728233
-0.0492834
-0.0334579
-0.0274962
-0.0188079
-0.0123618
-0.00689883
-0.0060359
-0.00519513
-0.00388178
-0.00303113
-0.00269346
-0.00119398
-0.00115405
-0.00507719
-0.0123197
-0.0219983
-0.0426726
-0.041901
-0.048876
-0.0475469
-0.0203161
0.0233698
0.143817
0.368098
0.492516
0.477442
0.41504
0.34749
0.296447
0.256
0.227165
0.205301
0.189834
0.177496
0.167766
0.159523
0.151386
0.144547
0.138013
0.131317
0.124877
0.119831
0.114798
0.111606
0.111121
0.112979
0.116696
0.122785
0.12702
0.13197
0.134217
0.129706
0.120791
0.12185
-2.75227e-07
-1.18444e-07
-1.88087e-07
-2.35336e-07
-7.86637e-08
-1.85286e-07
-3.01189e-07
-4.63127e-07
-4.85882e-07
-8.05214e-07
-9.62234e-07
-4.99861e-07
-1.51367e-06
-1.90383e-06
-1.28415e-06
-7.52603e-07
-1.93246e-06
-1.2315e-06
-3.24261e-06
4.40929e-07
6.85245e-07
-4.45037e-07
3.88601e-06
6.00651e-06
6.0842e-06
5.06088e-06
1.33625e-05
2.62363e-05
3.19498e-05
2.73243e-05
3.64485e-05
4.17805e-05
6.7436e-05
9.51393e-05
0.000133677
0.000161939
0.000166932
0.000169728
0.000205619
0.000246733
0.000329014
0.000414841
0.000519721
0.000641844
0.00077716
0.000922928
0.00111857
0.00134517
0.00169767
0.00219661
0.00286428
0.00384137
0.00481033
0.00713513
0.000476627
-0.144419
-0.242417
-0.247381
-0.251411
-0.229358
-0.193572
-0.171321
-0.140229
-0.114511
-0.0830553
-0.0554025
-0.0444731
-0.0319952
-0.02025
-0.0141198
-0.00528894
-0.0047306
-0.00420608
-0.00175305
0.000281032
-0.00167879
-0.000763138
-0.00138133
-0.00606164
-0.0174387
-0.0287003
-0.0474439
-0.0547531
-0.0590121
-0.0539759
-0.0147673
0.0840869
0.334255
0.5391
0.608733
0.575508
0.492478
0.40803
0.34993
0.307621
0.275741
0.250668
0.230672
0.213824
0.200652
0.189374
0.178969
0.170622
0.163357
0.156991
0.151087
0.145727
0.139791
0.13543
0.133764
0.135064
0.139085
0.145076
0.150409
0.153906
0.153937
0.149769
0.141866
0.144309
-3.06744e-07
-1.43849e-07
-2.11908e-07
-2.53902e-07
-1.64653e-07
-1.80167e-07
-4.37855e-07
-5.32988e-07
-6.58556e-07
-7.69815e-07
-1.04307e-06
-1.15091e-06
-1.97485e-06
-1.52052e-06
-1.93468e-06
-8.38259e-07
-2.04461e-06
-2.91928e-06
-2.84769e-06
-2.26197e-07
4.59949e-07
1.018e-06
3.81937e-06
5.62209e-06
1.00708e-05
1.07986e-05
1.36465e-05
2.36772e-05
3.57531e-05
4.2869e-05
4.28026e-05
5.63669e-05
7.58459e-05
0.000105428
0.000138424
0.00018105
0.000205057
0.000216987
0.000251391
0.000314265
0.000354857
0.000443347
0.000578352
0.000732443
0.00088572
0.00104756
0.00126461
0.00153093
0.00188631
0.0023926
0.00303989
0.0045676
0.00627538
0.011315
0.0399074
-0.152457
-0.337975
-0.33504
-0.327825
-0.294676
-0.247703
-0.205324
-0.170645
-0.133717
-0.0971579
-0.0716082
-0.0522342
-0.0336806
-0.0188076
-0.017609
-0.00701604
-0.00614947
-0.00621048
-0.00374725
-0.0032769
-0.00346801
-0.00186183
-0.0029196
-0.00942724
-0.0185501
-0.0365948
-0.0517683
-0.0655401
-0.0654936
-0.0514528
0.0118213
0.22493
0.51422
0.668247
0.714988
0.67557
0.585559
0.479401
0.401688
0.353753
0.322032
0.295906
0.273937
0.255527
0.240055
0.225991
0.213433
0.202757
0.193054
0.184383
0.176508
0.169441
0.162351
0.157417
0.154953
0.15562
0.159449
0.164951
0.17087
0.173913
0.172365
0.169027
0.162955
0.16621
-3.37038e-07
-1.56829e-07
-2.3524e-07
-2.70984e-07
-1.8147e-07
-3.08543e-07
-5.33845e-07
-4.82834e-07
-6.96628e-07
-1.04973e-06
-1.39029e-06
-1.38561e-06
-2.32818e-06
-1.48732e-06
-1.89733e-06
-2.01929e-06
-3.0044e-06
-2.33285e-06
-3.08956e-06
-2.63964e-06
2.69901e-07
2.44851e-06
4.48224e-06
6.71072e-06
7.87688e-06
1.53348e-05
1.58285e-05
2.35312e-05
3.48624e-05
5.13048e-05
5.50512e-05
6.10545e-05
8.83972e-05
0.000109114
0.000151818
0.000190528
0.000226116
0.000231508
0.0002773
0.000325068
0.00039138
0.000432147
0.000553693
0.000648128
0.000800114
0.000941413
0.00112145
0.00131623
0.00178091
0.00234835
0.00323539
0.00438531
0.00523384
0.00745443
0.0313799
-0.247141
-0.41448
-0.390231
-0.375071
-0.341485
-0.288344
-0.22962
-0.181538
-0.149645
-0.0867785
-0.0664746
-0.0592293
-0.0234005
-0.016493
-0.015571
-0.00383276
-0.0026865
-0.00304305
-0.000906086
-0.00163736
-0.00410435
-0.0026117
-0.00635257
-0.0116763
-0.0179312
-0.03614
-0.0509492
-0.064843
-0.0623983
-0.0205966
0.132667
0.436604
0.658983
0.768633
0.796507
0.761667
0.682747
0.561507
0.462159
0.401252
0.364069
0.33676
0.313478
0.293597
0.275746
0.259386
0.245319
0.233475
0.222711
0.212778
0.203071
0.193788
0.185035
0.178781
0.174899
0.174295
0.17745
0.182436
0.188706
0.192234
0.189753
0.187736
0.183957
0.187786
-3.55692e-07
-1.71643e-07
-2.48106e-07
-2.7559e-07
-2.5332e-07
-3.63342e-07
-5.66523e-07
-6.65508e-07
-8.1417e-07
-1.25008e-06
-1.5668e-06
-1.53865e-06
-2.27972e-06
-2.03253e-06
-2.6214e-06
-2.21075e-06
-4.20439e-06
-2.47002e-06
-2.29155e-06
-1.86971e-06
-1.40105e-06
9.1778e-07
5.90955e-06
6.70512e-06
1.12563e-05
1.68894e-05
1.64076e-05
1.90862e-05
3.88504e-05
6.74925e-05
7.57419e-05
6.35652e-05
8.91861e-05
0.00011451
0.000144821
0.000191055
0.000225968
0.00026656
0.000288026
0.000339184
0.000396205
0.00044392
0.000512461
0.000637506
0.000747167
0.000870019
0.000979334
0.0011477
0.00108654
0.00122094
0.000761112
0.0012835
-0.00179343
0.000916851
-0.0618861
-0.525936
-0.490166
-0.410362
-0.37531
-0.351787
-0.298863
-0.247015
-0.187138
-0.149304
-0.0809608
-0.0497723
-0.0506714
-0.0279551
-0.0115764
-0.0113586
-0.00330631
-0.00330621
-0.00401579
-0.000818463
-0.00272727
-0.00251681
0.00112632
0.00024612
-0.00604361
-0.0108952
-0.0264671
-0.0377622
-0.0360632
-0.00426035
0.118807
0.358425
0.606546
0.758311
0.838127
0.847148
0.822421
0.756756
0.641271
0.529017
0.454042
0.407171
0.375035
0.350449
0.329892
0.309901
0.291683
0.276337
0.2635
0.251781
0.24094
0.230048
0.219318
0.20911
0.201438
0.195883
0.193659
0.195292
0.198998
0.205114
0.208942
0.206167
0.205496
0.204318
0.20867
-3.92041e-07
-1.87769e-07
-2.69716e-07
-2.93569e-07
-2.76236e-07
-4.50806e-07
-6.15469e-07
-7.23011e-07
-9.50228e-07
-1.40278e-06
-1.66152e-06
-2.17666e-06
-2.35142e-06
-2.44268e-06
-3.32078e-06
-2.45646e-06
-4.41986e-06
-4.01064e-06
-2.11977e-06
-2.24127e-06
-2.29732e-06
1.12138e-06
3.88186e-06
6.43091e-06
1.31318e-05
1.83547e-05
2.50519e-05
2.07492e-05
3.63162e-05
6.44012e-05
7.62134e-05
7.38591e-05
9.26399e-05
0.000126762
0.000148424
0.000182928
0.000233457
0.000253078
0.000278912
0.000323666
0.000366285
0.00040631
0.000450709
0.000494057
0.000522191
0.000539972
0.000573456
0.000488334
0.000322915
-9.37986e-05
-0.000662473
-0.00165397
-0.00322442
-0.00217632
-0.251478
-0.748923
-0.65431
-0.495932
-0.426583
-0.353765
-0.29614
-0.243849
-0.181145
-0.132174
-0.0799094
-0.0343284
-0.0331391
-0.0205071
-0.00501339
-0.00512156
0.00136864
0.00289004
0.00190809
0.00550366
0.00386262
0.00531981
0.011512
0.014328
0.0117668
0.0145506
0.0160619
0.0370276
0.0892053
0.200927
0.346975
0.53554
0.692169
0.797627
0.856919
0.864918
0.852988
0.803976
0.702484
0.588679
0.504631
0.449526
0.411675
0.38417
0.36187
0.340587
0.321419
0.305318
0.291491
0.278744
0.267051
0.255155
0.243513
0.232577
0.223917
0.216863
0.213165
0.213245
0.215547
0.221174
0.22473
0.222033
0.22259
0.224097
0.228967
-4.08684e-07
-1.98288e-07
-2.76866e-07
-3.0311e-07
-3.42773e-07
-4.92212e-07
-6.46206e-07
-9.09785e-07
-1.07564e-06
-1.4977e-06
-1.82904e-06
-2.36227e-06
-2.4653e-06
-2.95215e-06
-3.45478e-06
-3.6333e-06
-4.85609e-06
-4.015e-06
-2.93627e-06
-3.9062e-06
-2.7313e-06
1.68525e-06
3.38057e-06
5.92879e-06
9.90417e-06
2.21837e-05
2.69091e-05
2.42572e-05
3.67703e-05
5.95526e-05
7.95599e-05
8.56867e-05
8.98258e-05
0.000124953
0.000161205
0.000187096
0.000210744
0.000230889
0.000270109
0.00027355
0.000320935
0.000345245
0.000393258
0.000377522
0.000358092
0.000273596
0.000240213
6.06306e-05
0.000136471
-0.000293123
0.000122725
-0.000887655
0.00195568
-0.0135093
-0.502151
-0.794731
-0.739665
-0.626917
-0.494027
-0.381765
-0.320349
-0.251063
-0.194072
-0.134677
-0.0742925
-0.0359234
-0.0214235
-0.0100027
0.00472224
0.00351008
0.0087266
0.0121719
0.00965176
0.0164879
0.0167883
0.0204339
0.0353673
0.0621668
0.078825
0.12749
0.177802
0.245915
0.302512
0.404521
0.52936
0.632235
0.738711
0.816277
0.857544
0.869202
0.857524
0.815361
0.735952
0.633917
0.54461
0.485843
0.445652
0.416509
0.392463
0.369842
0.349801
0.332799
0.317774
0.30374
0.290957
0.278187
0.266023
0.254703
0.24551
0.237532
0.232819
0.231356
0.232293
0.2372
0.240398
0.23779
0.239199
0.243176
0.248358
-4.43859e-07
-2.1726e-07
-2.99021e-07
-3.31484e-07
-3.71505e-07
-5.73706e-07
-7.191e-07
-9.69011e-07
-1.21563e-06
-1.65126e-06
-2.00889e-06
-2.83606e-06
-2.7845e-06
-3.24953e-06
-3.88027e-06
-4.14139e-06
-5.26738e-06
-4.66496e-06
-3.84088e-06
-4.30394e-06
-3.00818e-06
-1.12742e-08
2.90189e-06
7.96161e-06
1.17134e-05
1.62864e-05
2.3626e-05
4.10956e-05
3.39296e-05
4.80998e-05
8.17195e-05
8.86183e-05
9.6631e-05
0.00012732
0.000161775
0.000172747
0.000180805
0.000224632
0.000253122
0.000272289
0.000276875
0.000314903
0.000308543
0.000268121
0.000250199
0.000165849
0.000157769
-5.87178e-05
-3.34836e-05
-0.000564745
-0.000116598
-0.00218845
0.00194757
-0.0634177
-0.656855
-0.820697
-0.791408
-0.739479
-0.636446
-0.482082
-0.380307
-0.282862
-0.217639
-0.133722
-0.0767053
-0.0383503
-0.0106828
-0.000182753
0.0117695
0.00999365
0.0167519
0.0246534
0.025857
0.0435714
0.0734813
0.0970401
0.147031
0.219779
0.275464
0.319919
0.363047
0.424737
0.484651
0.542087
0.612381
0.686234
0.755125
0.812944
0.845326
0.858452
0.847117
0.811997
0.74477
0.658706
0.572715
0.513755
0.473238
0.443906
0.419189
0.396664
0.376828
0.359341
0.342928
0.327351
0.313223
0.299528
0.286815
0.275349
0.265856
0.257433
0.252079
0.249307
0.24915
0.253218
0.25594
0.253428
0.255526
0.261634
0.267061
-4.58328e-07
-2.26064e-07
-3.08245e-07
-3.38525e-07
-4.41939e-07
-6.04826e-07
-7.62138e-07
-1.13665e-06
-1.35499e-06
-1.77753e-06
-2.21593e-06
-2.87419e-06
-3.04758e-06
-3.81731e-06
-4.24653e-06
-5.10248e-06
-5.62298e-06
-5.07442e-06
-4.98847e-06
-5.43729e-06
-3.46158e-06
-1.3759e-06
2.23962e-06
4.84434e-06
1.09291e-05
1.57999e-05
2.07327e-05
3.77994e-05
4.5384e-05
4.45286e-05
6.88685e-05
8.80635e-05
9.60021e-05
0.000117639
0.000153228
0.00016633
0.000161383
0.000185182
0.000228037
0.000265608
0.000278299
0.000277707
0.000241666
0.000195168
0.000123095
6.87451e-05
-7.66184e-05
-0.00021793
-0.000438696
-0.000840504
-0.00144421
-0.00235445
-0.00253141
-0.234286
-0.756371
-0.829439
-0.809268
-0.784285
-0.725215
-0.624723
-0.466316
-0.332566
-0.22997
-0.125143
-0.0944745
-0.0302465
0.00975121
0.011884
0.0245982
0.0362279
0.049342
0.0837586
0.107867
0.161349
0.240706
0.290087
0.33406
0.387559
0.442697
0.484705
0.511198
0.544653
0.576539
0.616346
0.661965
0.711004
0.7587
0.800288
0.826051
0.835266
0.826571
0.796446
0.743198
0.670616
0.593111
0.535881
0.495822
0.466542
0.44187
0.420299
0.401517
0.384276
0.366951
0.349942
0.334439
0.319637
0.306285
0.294624
0.284955
0.276315
0.270498
0.266742
0.265967
0.269177
0.271414
0.269035
0.271749
0.2795
0.285024
-4.92086e-07
-2.48105e-07
-3.31738e-07
-3.78368e-07
-4.68688e-07
-6.80407e-07
-8.71944e-07
-1.1793e-06
-1.49581e-06
-1.94687e-06
-2.5067e-06
-3.2879e-06
-3.48456e-06
-4.15245e-06
-4.83066e-06
-5.46682e-06
-6.21976e-06
-5.9898e-06
-6.28368e-06
-5.95619e-06
-4.51017e-06
-2.90784e-06
7.30881e-07
4.92458e-06
7.51674e-06
1.75364e-05
2.18481e-05
2.89857e-05
5.2264e-05
5.57725e-05
6.17664e-05
9.18815e-05
9.68119e-05
0.000103066
0.000139942
0.00016118
0.000158824
0.000158387
0.00019194
0.000262205
0.000281934
0.000272362
0.00019485
0.000224283
0.000149397
0.000197956
0.000135202
0.000213569
0.000216838
0.000486394
0.000270313
0.00238344
-0.00140616
-0.416463
-0.820607
-0.837084
-0.822695
-0.80926
-0.780416
-0.722083
-0.589923
-0.437686
-0.250741
-0.133027
-0.0770458
-0.0134771
0.0309811
0.0500253
0.0802515
0.133055
0.18222
0.252585
0.292624
0.341214
0.403035
0.455102
0.489252
0.519887
0.543824
0.567988
0.587173
0.61168
0.633243
0.658249
0.688581
0.722832
0.755955
0.785478
0.805113
0.810583
0.80154
0.777147
0.733894
0.672817
0.605617
0.552286
0.513904
0.485022
0.460905
0.440665
0.423309
0.406887
0.389673
0.371959
0.35502
0.33901
0.324862
0.312861
0.302978
0.294195
0.287964
0.28348
0.282495
0.284905
0.286686
0.284422
0.287814
0.296738
0.302343
-5.05022e-07
-2.58088e-07
-3.44326e-07
-3.82284e-07
-5.37525e-07
-7.10922e-07
-9.24717e-07
-1.33345e-06
-1.64625e-06
-2.12955e-06
-2.6847e-06
-3.3503e-06
-3.8324e-06
-4.73312e-06
-5.44321e-06
-6.40455e-06
-6.83201e-06
-6.99386e-06
-7.44476e-06
-6.96026e-06
-5.94334e-06
-4.52961e-06
-7.04506e-07
1.30513e-06
6.04417e-06
1.36835e-05
2.05672e-05
2.25999e-05
4.12465e-05
5.50332e-05
5.69344e-05
7.57433e-05
0.000103123
0.000107778
0.000108916
0.00013624
0.000147145
0.000155301
0.000168983
0.000223064
0.000250043
0.000276074
0.000204931
0.000257709
0.000240872
0.000384103
0.000411301
0.00066998
0.000631677
0.00132231
0.000777943
0.00474648
-0.0163953
-0.599466
-0.843738
-0.845132
-0.838626
-0.832077
-0.818981
-0.779241
-0.700524
-0.562343
-0.312123
-0.120933
-0.00762946
0.0528172
0.142482
0.200476
0.242624
0.302578
0.342756
0.405242
0.45499
0.489773
0.522478
0.548119
0.569484
0.589967
0.60402
0.615981
0.628677
0.644972
0.662939
0.682217
0.704358
0.72902
0.751256
0.771588
0.785033
0.786748
0.777972
0.757681
0.722697
0.672093
0.614514
0.565054
0.528515
0.500129
0.477
0.458277
0.44226
0.426683
0.410065
0.392907
0.375082
0.357748
0.34277
0.330362
0.320165
0.311177
0.304521
0.299608
0.298637
0.300268
0.301687
0.29973
0.303753
0.313388
0.319045
-5.38624e-07
-2.81531e-07
-3.71599e-07
-4.2988e-07
-5.63444e-07
-7.84469e-07
-1.04958e-06
-1.38041e-06
-1.77623e-06
-2.3465e-06
-2.96795e-06
-3.78326e-06
-4.3212e-06
-5.15794e-06
-5.95226e-06
-6.86758e-06
-7.66298e-06
-8.14692e-06
-8.74885e-06
-8.07487e-06
-8.0369e-06
-5.96472e-06
-3.73624e-06
-7.04579e-07
4.57464e-06
9.26441e-06
1.84914e-05
2.36048e-05
3.29965e-05
5.91135e-05
6.12302e-05
6.12764e-05
0.000100705
0.000117115
9.74653e-05
0.000104046
0.000152388
0.000166478
0.000165928
0.000170409
0.000189695
0.000203677
0.000171555
0.000193874
0.000138802
0.000256322
0.000205416
0.000274644
1.64797e-05
0.0001533
-0.00143069
0.00125427
-0.126643
-0.719561
-0.851859
-0.848176
-0.846306
-0.843465
-0.840932
-0.81469
-0.751742
-0.624111
-0.313306
-0.0256648
0.118389
0.1997
0.281742
0.346721
0.404101
0.452324
0.480917
0.513855
0.53923
0.565715
0.58783
0.606617
0.619924
0.630376
0.637856
0.648435
0.657284
0.669301
0.682691
0.697333
0.713622
0.730763
0.746567
0.759089
0.767385
0.766466
0.756743
0.74001
0.711165
0.668841
0.619742
0.574784
0.540375
0.5129
0.491134
0.473919
0.458844
0.443971
0.428302
0.412135
0.39447
0.376015
0.360185
0.347283
0.336655
0.327387
0.320251
0.315083
0.314247
0.315145
0.316359
0.314836
0.319358
0.329345
0.335005
-5.52556e-07
-2.91645e-07
-3.84834e-07
-4.35071e-07
-6.30503e-07
-8.19231e-07
-1.10798e-06
-1.531e-06
-1.97386e-06
-2.48606e-06
-3.20513e-06
-3.9004e-06
-4.78196e-06
-5.72808e-06
-6.7756e-06
-7.75663e-06
-8.67827e-06
-9.37241e-06
-9.9994e-06
-9.65028e-06
-1.03563e-05
-7.9407e-06
-7.51488e-06
-3.49117e-06
7.13957e-08
5.12999e-06
9.33603e-06
2.3159e-05
2.78104e-05
3.61401e-05
5.57255e-05
5.76978e-05
7.5876e-05
0.000102765
0.000102396
9.32808e-05
0.00011867
0.000171674
0.000170174
0.000147432
0.000153032
0.000149639
0.000166122
0.000124849
0.000114443
9.64843e-05
0.000108262
3.40211e-05
-5.02264e-05
-0.000297461
-0.000386505
-0.000659536
-0.303369
-0.803425
-0.849959
-0.845095
-0.84331
-0.842204
-0.843058
-0.820478
-0.734443
-0.537313
-0.157978
0.116129
0.268972
0.360321
0.42427
0.472125
0.505861
0.541097
0.563582
0.588745
0.605889
0.617454
0.632385
0.645818
0.65699
0.662955
0.667282
0.674257
0.679872
0.687526
0.696788
0.706807
0.718432
0.730717
0.741808
0.749288
0.753399
0.751463
0.741407
0.725358
0.700363
0.665395
0.623301
0.582511
0.550168
0.524071
0.503806
0.487738
0.473272
0.459005
0.444429
0.429323
0.412593
0.393815
0.377262
0.363833
0.352692
0.342972
0.335295
0.329999
0.32931
0.329549
0.330813
0.329877
0.334749
0.34473
0.350409
-5.87647e-07
-3.16627e-07
-4.14897e-07
-4.88047e-07
-6.54775e-07
-8.94603e-07
-1.22506e-06
-1.58295e-06
-2.06954e-06
-2.76784e-06
-3.47634e-06
-4.41333e-06
-5.21779e-06
-6.31375e-06
-7.26708e-06
-8.5636e-06
-9.66617e-06
-1.09513e-05
-1.14585e-05
-1.18611e-05
-1.24018e-05
-1.06831e-05
-1.02184e-05
-6.86159e-06
-4.22317e-06
3.08704e-06
5.3493e-06
1.6505e-05
2.84963e-05
2.61965e-05
4.94904e-05
6.95688e-05
6.27331e-05
7.63963e-05
0.000114025
0.000102968
0.000113502
0.000120881
0.000167405
0.000132642
0.000149167
0.00011453
0.000195211
0.000138495
0.000246339
0.000180624
0.000450584
0.000423679
0.00111402
0.000843569
0.00366568
-0.00379119
-0.505079
-0.836421
-0.850633
-0.847528
-0.843236
-0.836292
-0.8285
-0.782688
-0.618603
-0.300379
0.0544661
0.267283
0.384755
0.457111
0.506278
0.543011
0.574007
0.597164
0.61753
0.635636
0.648836
0.658057
0.666843
0.675534
0.683973
0.686107
0.687228
0.691412
0.694922
0.700478
0.707125
0.714393
0.722932
0.73064
0.737113
0.741867
0.744092
0.741421
0.731025
0.714778
0.691902
0.662199
0.626295
0.590726
0.559905
0.535071
0.515744
0.500124
0.485883
0.472156
0.458702
0.444709
0.42914
0.41095
0.393958
0.380059
0.368252
0.357952
0.349727
0.344381
0.343831
0.343573
0.344988
0.344624
0.349712
0.359478
0.365093
-6.04174e-07
-3.28768e-07
-4.3004e-07
-4.93669e-07
-7.22711e-07
-9.3418e-07
-1.29246e-06
-1.74648e-06
-2.29341e-06
-2.87277e-06
-3.71035e-06
-4.53107e-06
-5.78888e-06
-6.83044e-06
-8.30349e-06
-9.53946e-06
-1.10465e-05
-1.2164e-05
-1.32413e-05
-1.42029e-05
-1.44808e-05
-1.44582e-05
-1.38259e-05
-1.20208e-05
-8.65893e-06
-5.62795e-06
4.14185e-07
5.3115e-06
1.70234e-05
2.19331e-05
2.57986e-05
5.50493e-05
6.51979e-05
5.69088e-05
8.67328e-05
0.000124039
0.00011134
0.000101069
0.000143913
0.000135866
0.000148699
0.000132268
0.000193265
0.000172441
0.000220898
0.000129302
0.00023928
-0.000104822
0.00041553
-0.00087005
0.00216468
-0.0477044
-0.667856
-0.853929
-0.85455
-0.852446
-0.845969
-0.827003
-0.785394
-0.675082
-0.374666
-0.0121525
0.236191
0.377062
0.465515
0.521038
0.56174
0.588443
0.612133
0.631173
0.648012
0.663234
0.675933
0.684426
0.691343
0.695339
0.701122
0.705239
0.706783
0.710621
0.713199
0.716663
0.720084
0.723273
0.727662
0.731422
0.735271
0.737622
0.738664
0.73531
0.725229
0.707887
0.685464
0.658651
0.627979
0.597586
0.569296
0.545955
0.527036
0.511153
0.497039
0.483945
0.471421
0.458422
0.443936
0.427011
0.410438
0.395996
0.38343
0.372567
0.363864
0.358608
0.35804
0.357307
0.358934
0.359163
0.364342
0.373808
0.379266
-6.39518e-07
-3.54548e-07
-4.62553e-07
-5.50137e-07
-7.45426e-07
-1.01515e-06
-1.38899e-06
-1.79871e-06
-2.41444e-06
-3.18629e-06
-4.05809e-06
-5.15192e-06
-6.19253e-06
-7.56441e-06
-8.91777e-06
-1.04527e-05
-1.23085e-05
-1.40588e-05
-1.53073e-05
-1.6883e-05
-1.75499e-05
-1.82748e-05
-1.78626e-05
-1.71836e-05
-1.54391e-05
-1.29222e-05
-6.25371e-06
-2.53085e-06
3.20654e-06
2.04999e-05
2.04569e-05
3.2861e-05
6.04422e-05
5.87195e-05
6.46132e-05
9.6832e-05
0.000127788
9.63058e-05
0.000117299
0.000137268
0.000176726
0.000137076
0.000149369
0.000116111
0.000110234
3.49464e-06
-0.000204379
-0.000522706
-0.000950687
-0.00170782
-0.00150188
-0.218865
-0.762045
-0.848372
-0.84752
-0.846404
-0.834852
-0.800934
-0.679963
-0.427058
-0.0661854
0.204217
0.363902
0.461573
0.524264
0.56486
0.595682
0.617658
0.636804
0.65263
0.666789
0.680202
0.693333
0.703386
0.713395
0.718278
0.724557
0.727781
0.727639
0.729178
0.729656
0.730137
0.731164
0.733474
0.735636
0.737282
0.738906
0.74013
0.738341
0.733709
0.723473
0.706385
0.683825
0.658618
0.63145
0.603998
0.578057
0.556154
0.537502
0.521263
0.507236
0.494788
0.482903
0.470775
0.457286
0.441846
0.426657
0.411525
0.398372
0.386883
0.377885
0.372645
0.371793
0.370624
0.372493
0.373268
0.378493
0.387594
0.392838
-6.6006e-07
-3.69322e-07
-4.79285e-07
-5.60722e-07
-8.15384e-07
-1.05643e-06
-1.48499e-06
-1.97405e-06
-2.59924e-06
-3.30072e-06
-4.24467e-06
-5.2681e-06
-6.78681e-06
-8.20116e-06
-9.95401e-06
-1.18484e-05
-1.35691e-05
-1.56472e-05
-1.75658e-05
-1.94655e-05
-2.07733e-05
-2.23943e-05
-2.2793e-05
-2.38065e-05
-2.08266e-05
-2.03017e-05
-1.69687e-05
-1.25006e-05
-9.1987e-06
2.49087e-07
1.4884e-05
1.57983e-05
3.47108e-05
6.81684e-05
5.32035e-05
7.33337e-05
9.8131e-05
0.000132846
9.20653e-05
0.000157368
0.000142629
0.000214575
0.00014689
0.000230327
0.000217105
0.000314126
0.000328187
0.000647499
0.00048409
0.00212465
-0.0022521
-0.428654
-0.829182
-0.848756
-0.843694
-0.837808
-0.804693
-0.716234
-0.467645
-0.10735
0.177642
0.34501
0.45107
0.519941
0.566307
0.596972
0.621259
0.639435
0.655511
0.669514
0.681699
0.693857
0.705825
0.718193
0.729395
0.736325
0.742932
0.745935
0.747547
0.748297
0.747908
0.748388
0.748756
0.749243
0.749123
0.747482
0.746594
0.744255
0.740205
0.733927
0.723562
0.707619
0.686301
0.661825
0.636018
0.610512
0.586603
0.565475
0.546901
0.530604
0.516847
0.504942
0.493475
0.482021
0.469484
0.455664
0.442005
0.426909
0.413193
0.401119
0.391835
0.386434
0.385195
0.383706
0.385841
0.387098
0.392262
0.40092
0.405919
-6.94753e-07
-3.95882e-07
-5.14356e-07
-6.16268e-07
-8.36555e-07
-1.13851e-06
-1.54711e-06
-2.0515e-06
-2.75421e-06
-3.61102e-06
-4.67044e-06
-5.93239e-06
-7.30562e-06
-8.86636e-06
-1.07877e-05
-1.26495e-05
-1.54744e-05
-1.75081e-05
-2.04043e-05
-2.2481e-05
-2.51521e-05
-2.69754e-05
-2.81932e-05
-3.02515e-05
-2.95102e-05
-3.09899e-05
-2.7921e-05
-2.59259e-05
-2.12378e-05
-1.79746e-05
6.45042e-07
1.10438e-05
7.03537e-06
4.12309e-05
6.41608e-05
5.76647e-05
7.098e-05
0.000139729
0.000146092
0.000176046
0.000171373
0.000322428
0.000293509
0.000459388
0.000357436
0.000559133
0.000388978
0.000886282
5.56055e-05
0.00322585
-0.0289032
-0.637357
-0.849144
-0.847669
-0.837162
-0.813242
-0.732079
-0.514591
-0.151383
0.148824
0.327073
0.438383
0.511809
0.561732
0.59791
0.622705
0.642186
0.657874
0.671422
0.683807
0.695011
0.706401
0.717247
0.728795
0.739215
0.747827
0.755523
0.760582
0.765153
0.766784
0.765652
0.765368
0.764855
0.764887
0.761287
0.759869
0.755918
0.751571
0.746616
0.739061
0.728262
0.712244
0.691194
0.666794
0.641519
0.617514
0.594826
0.57416
0.555571
0.539479
0.52608
0.514556
0.503412
0.492526
0.480914
0.468778
0.456297
0.442017
0.427871
0.415184
0.405552
0.399878
0.398259
0.396509
0.398872
0.400493
0.405567
0.413788
0.418533
-7.17524e-07
-4.12427e-07
-5.33625e-07
-6.34375e-07
-9.12304e-07
-1.18644e-06
-1.66477e-06
-2.19744e-06
-2.94221e-06
-3.7443e-06
-4.84229e-06
-6.09461e-06
-7.81948e-06
-9.75352e-06
-1.18819e-05
-1.4376e-05
-1.67235e-05
-1.96536e-05
-2.29143e-05
-2.55466e-05
-2.95498e-05
-3.16368e-05
-3.53437e-05
-3.74241e-05
-3.9216e-05
-3.97415e-05
-3.94915e-05
-4.04801e-05
-3.32431e-05
-3.1045e-05
-2.63115e-05
-1.14477e-05
-5.75284e-07
5.00676e-07
4.43018e-05
7.32959e-05
6.794e-05
9.90475e-05
0.000174733
0.000208005
0.000195227
0.00029142
0.000270071
0.000278648
0.000199893
0.000228254
5.51401e-05
-0.00012146
-0.000751985
-0.000571986
-0.196091
-0.758772
-0.852573
-0.841494
-0.817421
-0.742114
-0.554194
-0.19197
0.126598
0.313969
0.428744
0.504989
0.556459
0.593262
0.621785
0.642963
0.660098
0.674585
0.686403
0.697902
0.708353
0.718612
0.728219
0.738382
0.748095
0.757877
0.766787
0.773143
0.779298
0.781493
0.782769
0.782179
0.781035