/*--------------------------------*- C++ -*----------------------------------*\
| =========                 |                                                 |
| \\      /  F ield         | OpenFOAM: The Open Source CFD Toolbox           |
|  \\    /   O peration     | Version:  2.2.x                                 |
|   \\  /    A nd           | Web:      www.OpenFOAM.org                      |
|    \\/     M anipulation  |                                                 |
\*---------------------------------------------------------------------------*/
FoamFile
{
    version     2.0;
    format      ascii;
    class       volScalarField;
    location    "0.6";
    object      T;
}
// * * * * * * * * * * * * * * * * * * * * * * * * * * * * * * * * * * * * * //

dimensions      [0 0 0 1 0 0 0];

internalField   nonuniform List<scalar> 
14161
(
0.999901
0.999921
0.9999
0.999867
0.999826
0.999769
0.999685
0.999587
0.999455
0.999289
0.999065
0.998819
0.998511
0.99812
0.997673
0.997184
0.996588
0.99588
0.99514
0.994302
0.993391
0.992406
0.991319
0.990186
0.989085
0.987859
0.98659
0.985335
0.984143
0.983058
0.981946
0.98063
0.979547
0.978638
0.97783
0.977427
0.976944
0.976502
0.975959
0.975825
0.975893
0.976074
0.976375
0.976782
0.977352
0.978559
0.979806
0.981137
0.983165
0.985073
0.989362
0.990934
1.00462
0.996425
1.9334
2.93673
3.08053
2.99689
2.9542
2.90636
2.87631
2.83945
2.79941
2.76008
2.71789
2.68415
2.65333
2.62761
2.60742
2.59155
2.58324
2.57971
2.57598
2.57282
2.57425
2.57347
2.57155
2.57784
2.58632
2.59205
2.60754
2.57196
2.54804
2.52905
2.4726
2.41137
2.34668
2.26655
2.22333
2.39111
2.75039
2.86953
2.97153
3.01981
3.05655
3.07622
3.08867
3.1061
3.13172
3.15821
3.18001
3.19716
3.20625
3.21728
3.23048
3.24235
3.2517
3.2611
3.26913
3.27643
3.2806
3.28445
3.29067
3.29744
3.30578
3.31266
3.32837
3.34249
3.38486
0.999901
0.999922
0.999897
0.999871
0.999822
0.99977
0.999689
0.999577
0.999451
0.999291
0.999077
0.9988
0.998501
0.998135
0.997686
0.997149
0.996582
0.995911
0.99513
0.994256
0.993388
0.992403
0.991334
0.990212
0.989049
0.98783
0.986556
0.985379
0.98418
0.983049
0.981885
0.980627
0.979535
0.978634
0.977822
0.977406
0.976908
0.976475
0.975908
0.975748
0.975785
0.97592
0.976205
0.976616
0.977119
0.978395
0.979542
0.98107
0.982622
0.984344
0.98636
0.98909
0.984254
0.996841
1.31025
2.73699
2.91241
2.85007
2.83709
2.81165
2.78616
2.75343
2.71786
2.68213
2.64088
2.61335
2.58752
2.565
2.54829
2.53507
2.52884
2.52429
2.51796
2.51149
2.50861
2.50416
2.50028
2.50239
2.50434
2.50466
2.5092
2.47047
2.44465
2.42435
2.36585
2.30978
2.26122
2.17495
2.1544
2.48124
2.73091
2.86227
2.94091
2.99698
3.03496
3.06286
3.08107
3.09378
3.11039
3.13306
3.15643
3.17803
3.19489
3.2075
3.22126
3.23462
3.24614
3.25771
3.26853
3.2791
3.28702
3.29396
3.30154
3.30965
3.32211
3.33213
3.34959
3.36199
3.4011
0.999901
0.999922
0.999899
0.999867
0.999828
0.999762
0.999688
0.999592
0.999453
0.999271
0.999076
0.998837
0.998512
0.998132
0.997677
0.997138
0.996584
0.995902
0.995146
0.994283
0.993344
0.992415
0.991338
0.990219
0.989049
0.987811
0.986543
0.985324
0.984164
0.982948
0.981799
0.9806
0.979476
0.978567
0.977741
0.977287
0.976756
0.976318
0.975661
0.975436
0.975426
0.975513
0.97584
0.976159
0.976625
0.97754
0.978655
0.980199
0.981738
0.983357
0.984135
0.983875
0.975273
0.97108
1.23597
2.74327
2.92283
2.88002
2.87298
2.83237
2.80917
2.77751
2.75558
2.72169
2.69216
2.65969
2.63081
2.60925
2.59028
2.57692
2.56847
2.56529
2.56064
2.55588
2.55492
2.55326
2.55129
2.55164
2.55522
2.55423
2.55841
2.52446
2.49754
2.48311
2.42373
2.36268
2.32354
2.23852
2.38724
2.61508
2.76746
2.87205
2.90857
2.97069
3.01253
3.04461
3.06588
3.07902
3.08532
3.09633
3.11541
3.13691
3.1553
3.17056
3.18436
3.19813
3.21246
3.22749
3.24099
3.25535
3.26744
3.2783
3.28943
3.30088
3.3136
3.32639
3.34845
3.36789
3.40681
0.999901
0.999922
0.999898
0.999871
0.999823
0.99977
0.999689
0.999577
0.999453
0.999291
0.999077
0.99882
0.998487
0.998129
0.997697
0.997175
0.996577
0.995902
0.995124
0.994255
0.993379
0.992369
0.991289
0.990229
0.989058
0.98782
0.986577
0.985311
0.984045
0.982909
0.981783
0.980604
0.979397
0.978414
0.977544
0.977057
0.9765
0.975982
0.975399
0.975007
0.974943
0.974976
0.975106
0.975301
0.975737
0.976392
0.977462
0.978821
0.980672
0.983209
0.985829
0.990827
0.99766
1.00955
1.77226
2.87161
3.02693
2.96812
2.94852
2.90666
2.87543
2.83879
2.80807
2.76924
2.73414
2.6978
2.67795
2.65425
2.63338
2.6173
2.60767
2.60409
2.60182
2.59767
2.59805
2.59748
2.59705
2.59753
2.60349
2.60323
2.60467
2.57004
2.54715
2.53884
2.47152
2.42153
2.35929
2.36122
2.66053
2.82072
2.91849
2.97438
2.97977
3.01392
3.04624
3.07451
3.09153
3.10028
3.09946
3.10371
3.1179
3.13591
3.15197
3.16456
3.17387
3.18185
3.19378
3.2087
3.22257
3.2367
3.24945
3.26245
3.27564
3.29149
3.30845
3.32328
3.35394
3.37578
3.41042
0.999901
0.999922
0.9999
0.999868
0.999828
0.999769
0.999684
0.999588
0.999455
0.999287
0.999063
0.998822
0.998512
0.998132
0.997687
0.997171
0.996547
0.995886
0.995148
0.994303
0.993366
0.992323
0.99131
0.990202
0.989017
0.9878
0.98657
0.985274
0.984004
0.982795
0.981707
0.980538
0.979282
0.978238
0.977329
0.97669
0.976134
0.975473
0.974891
0.974427
0.974155
0.974035
0.973987
0.974061
0.974228
0.974647
0.97559
0.976908
0.978962
0.982655
0.988868
0.998464
1.01737
1.03252
1.93501
2.91669
3.07925
3.00858
2.98575
2.93438
2.89404
2.85355
2.80865
2.77327
2.72348
2.70371
2.66623
2.64078
2.62401
2.60762
2.59839
2.59609
2.59217
2.58677
2.5915
2.59262
2.59302
2.59712
2.60031
2.61199
2.59059
2.58417
2.54445
2.52679
2.45382
2.42661
2.34083
2.58586
2.81549
2.87476
2.98292
3.0361
3.07278
3.07953
3.09738
3.1185
3.13131
3.13346
3.12768
3.13019
3.14171
3.15516
3.16638
3.17381
3.17772
3.18638
3.19551
3.2067
3.21876
3.23114
3.24382
3.25834
3.27365
3.29088
3.30917
3.32707
3.36179
3.38734
3.41249
0.999902
0.999923
0.999899
0.999872
0.999823
0.999768
0.999692
0.999588
0.999445
0.999289
0.999081
0.998824
0.998508
0.998132
0.997662
0.997175
0.996595
0.995886
0.995113
0.994315
0.993381
0.992371
0.991295
0.990126
0.988994
0.987795
0.986547
0.985233
0.983929
0.982675
0.981576
0.980401
0.979129
0.978032
0.977069
0.976237
0.975603
0.974852
0.974168
0.973682
0.973256
0.97288
0.972615
0.972328
0.972121
0.972103
0.972021
0.972205
0.97277
0.973791
0.975694
0.978542
0.988091
0.989792
1.76294
2.87969
3.09007
3.00269
2.95422
2.90545
2.87315
2.80683
2.77372
2.71097
2.67173
2.63237
2.59579
2.56208
2.5488
2.53634
2.52377
2.52151
2.51957
2.51794
2.52418
2.52724
2.5267
2.53236
2.53457
2.55567
2.52978
2.54025
2.49686
2.46845
2.4229
2.35445
2.43846
2.6484
2.79248
2.856
2.96931
3.04631
3.11387
3.14159
3.15408
3.16615
3.16711
3.16113
3.15419
3.15735
3.16708
3.17706
3.18395
3.18647
3.18835
3.19515
3.20091
3.20928
3.22026
3.23202
3.24424
3.25831
3.27322
3.29093
3.31082
3.3324
3.37264
3.39599
3.41491
0.999902
0.999923
0.9999
0.999871
0.999827
0.999769
0.999683
0.999588
0.999458
0.999291
0.999081
0.998824
0.998489
0.99814
0.997699
0.99718
0.996577
0.995899
0.995137
0.994263
0.993331
0.992367
0.991302
0.99016
0.988936
0.987733
0.986532
0.98516
0.983832
0.982558
0.981443
0.980236
0.978926
0.97778
0.976738
0.975795
0.974949
0.974064
0.973256
0.97258
0.971971
0.971576
0.971086
0.970455
0.96979
0.969076
0.968311
0.96761
0.966763
0.965557
0.964462
0.965032
0.969937
0.975593
1.49421
2.81857
3.04718
2.89979
2.8112
2.76594
2.73219
2.65115
2.64486
2.57974
2.53458
2.51177
2.45063
2.43164
2.4063
2.39535
2.38112
2.38032
2.38097
2.38304
2.38722
2.396
2.40057
2.41032
2.40959
2.43109
2.41531
2.42096
2.39663
2.37718
2.34362
2.35025
2.52908
2.69306
2.71292
2.78489
2.89495
3.01032
3.1184
3.17413
3.19947
3.2035
3.19569
3.1812
3.17552
3.181
3.18923
3.19503
3.19669
3.19671
3.20035
3.20598
3.20933
3.21517
3.22436
3.23476
3.24669
3.26031
3.27475
3.29309
3.31481
3.34006
3.38464
3.40336
3.41659
0.999902
0.999923
0.999901
0.999872
0.999828
0.999769
0.999691
0.999589
0.999458
0.999291
0.999069
0.99883
0.998517
0.998145
0.997699
0.997183
0.99655
0.995897
0.99515
0.994308
0.993367
0.992315
0.991282
0.990159
0.988948
0.987663
0.986441
0.985094
0.983734
0.982431
0.981286
0.980066
0.978655
0.97745
0.976319
0.975265
0.974278
0.97323
0.972299
0.971417
0.970537
0.969966
0.969165
0.968072
0.966616
0.965038
0.962967
0.960393
0.957319
0.952901
0.946243
0.933219
0.906447
0.874362
0.826142
2.19164
2.79859
2.64175
2.58994
2.54687
2.55526
2.4963
2.50207
2.44137
2.38891
2.38777
2.34416
2.32376
2.30849
2.29799
2.28303
2.28402
2.28775
2.2888
2.29695
2.30371
2.30772
2.31558
2.32924
2.34309
2.35258
2.34151
2.33577
2.32497
2.33358
2.56798
2.62271
2.67796
2.60788
2.70334
2.79525
2.9212
3.05257
3.14974
3.20533
3.22622
3.22417
3.20709
3.19849
3.20134
3.20472
3.20433
3.20092
3.20155
3.20664
3.21144
3.21397
3.22037
3.22943
3.23936
3.25028
3.26336
3.27795
3.29698
3.32023
3.34797
3.39392
3.40804
3.41655
0.999903
0.999923
0.999901
0.999872
0.999829
0.999771
0.999692
0.999591
0.999459
0.999293
0.999085
0.99883
0.998518
0.998148
0.997679
0.997193
0.9966
0.995898
0.995122
0.994329
0.993374
0.992352
0.99125
0.990062
0.98891
0.987641
0.986362
0.985035
0.983632
0.982263
0.981048
0.979784
0.978365
0.977085
0.975872
0.974709
0.973551
0.972313
0.971191
0.97013
0.969005
0.968231
0.967317
0.966197
0.964377
0.962241
0.9594
0.955798
0.950163
0.943428
0.934403
0.92
0.903539
0.874299
0.978255
1.70242
2.47676
2.58888
2.49174
2.46476
2.46597
2.44872
2.4058
2.43285
2.36288
2.32636
2.33683
2.29966
2.28052
2.28511
2.26924
2.27632
2.28067
2.28263
2.29133
2.30198
2.3049
2.32292
2.32908
2.34538
2.35344
2.3795
2.40949
2.5368
2.65537
2.70341
2.77399
2.69205
2.62256
2.67269
2.73282
2.84978
2.97712
3.10059
3.18529
3.22348
3.238
3.2371
3.2313
3.22756
3.22212
3.21225
3.20594
3.20769
3.21122
3.21299
3.21496
3.22326
3.23348
3.24399
3.2548
3.26753
3.28194
3.30211
3.32687
3.3567
3.40098
3.41091
3.41545
0.999903
0.999924
0.999901
0.999873
0.999829
0.999772
0.999693
0.999592
0.999461
0.999296
0.999089
0.998835
0.998524
0.998152
0.997711
0.997196
0.996597
0.995921
0.995154
0.994301
0.993321
0.992354
0.991279
0.990093
0.988842
0.987553
0.986293
0.984973
0.983536
0.982115
0.980716
0.979403
0.978015
0.976619
0.975348
0.974149
0.972857
0.971418
0.970128
0.968913
0.967543
0.966623
0.965523
0.964055
0.961527
0.958975
0.955875
0.952503
0.948051
0.94464
0.938934
0.940531
0.924618
0.968704
1.19707
1.92751
2.21141
2.42511
2.4228
2.51283
2.47205
2.52768
2.44888
2.47381
2.38612
2.33989
2.33726
2.33491
2.32004
2.3201
2.30513
2.31803
2.32854
2.32731
2.34081
2.34955
2.34383
2.37244
2.3856
2.45217
2.50063
2.60352
2.7153
2.82014
2.87344
2.94477
2.84331
2.80697
2.72838
2.72489
2.745
2.82633
2.92832
3.0516
3.15108
3.20586
3.23182
3.24746
3.25422
3.25541
3.24569
3.22732
3.21791
3.2175
3.21744
3.21529
3.21725
3.22681
3.23794
3.24917
3.26011
3.27277
3.28735
3.30848
3.33448
3.36527
3.40508
3.41209
3.41352
0.999904
0.999924
0.999902
0.999873
0.99983
0.999772
0.999695
0.999594
0.999464
0.999299
0.999093
0.998839
0.99853
0.99816
0.99772
0.997206
0.996608
0.995931
0.995162
0.994314
0.993369
0.992338
0.991203
0.990083
0.988847
0.987535
0.986132
0.984782
0.983423
0.981925
0.980453
0.979074
0.977623
0.976174
0.974807
0.973504
0.972054
0.970489
0.969125
0.967744
0.966372
0.965416
0.964254
0.962866
0.960529
0.958325
0.955832
0.95331
0.950452
0.948598
0.947117
0.949357
0.943184
0.997456
1.93487
2.20456
2.23648
2.37954
2.47528
2.5961
2.53652
2.55553
2.50272
2.43523
2.4604
2.35576
2.35064
2.37032
2.35036
2.34962
2.33563
2.34773
2.36174
2.36215
2.39935
2.42367
2.45443
2.53906
2.62039
2.70023
2.81421
2.8879
2.97543
3.03677
3.046
3.02381
2.92553
2.87314
2.79429
2.77686
2.78417
2.84289
2.91375
3.01342
3.12031
3.18318
3.21623
3.23766
3.25535
3.26565
3.26361
3.24687
3.23383
3.22941
3.22434
3.21869
3.22107
3.23138
3.24316
3.25511
3.2664
3.27917
3.2942
3.31601
3.34265
3.37448
3.40735
3.41247
3.41124
0.999905
0.999924
0.999902
0.999874
0.999831
0.999774
0.999696
0.999596
0.999466
0.999302
0.999098
0.998844
0.998537
0.998167
0.997729
0.997215
0.996619
0.995942
0.995175
0.994318
0.993374
0.992347
0.991228
0.990043
0.988782
0.987456
0.98603
0.984649
0.983262
0.981769
0.980213
0.978679
0.977237
0.975753
0.974207
0.972757
0.971213
0.969605
0.96814
0.966692
0.965545
0.96458
0.963187
0.961494
0.95935
0.957312
0.954921
0.952491
0.949524
0.94499
0.939465
0.92924
0.916627
0.907843
2.02508
2.20186
2.21433
2.20826
2.35867
2.5052
2.4928
2.56531
2.43927
2.48582
2.38393
2.31665
2.32999
2.37092
2.33563
2.34937
2.34316
2.3854
2.41425
2.43815
2.54285
2.63662
2.7391
2.8129
2.90505
2.9792
3.03967
3.06709
3.08078
3.09513
3.08194
3.05587
2.99262
2.92761
2.86289
2.82376
2.81651
2.85775
2.92042
3.00441
3.09802
3.16123
3.19833
3.22585
3.24723
3.26419
3.27096
3.265
3.2521
3.24183
3.23169
3.22404
3.22569
3.235
3.24647
3.25883
3.27136
3.28573
3.30201
3.32448
3.35138
3.38273
3.40837
3.41228
3.40859
0.999906
0.999925
0.999903
0.999875
0.999832
0.999775
0.999698
0.999598
0.99947
0.999307
0.999103
0.998851
0.998545
0.998177
0.99774
0.997227
0.996632
0.995955
0.995187
0.994328
0.993379
0.992346
0.99122
0.99002
0.988734
0.987382
0.985991
0.984506
0.982987
0.981555
0.979998
0.978351
0.97679
0.975179
0.973599
0.97207
0.970505
0.968812
0.967249
0.96579
0.964572
0.96354
0.962171
0.960642
0.958925
0.957443
0.956195
0.954993
0.955316
0.95491
0.960682
0.955596
0.999215
1.35523
2.14902
2.2415
2.23509
2.23107
2.31708
2.30367
2.52175
2.52151
2.51465
2.5017
2.46884
2.37758
2.40237
2.42265
2.38591
2.44583
2.48061
2.56445
2.6478
2.7384
2.80645
2.90507
2.97558
3.04831
3.0863
3.09682
3.10187
3.1075
3.10638
3.09586
3.08331
3.06483
3.03218
2.97498
2.92374
2.88253
2.8632
2.88131
2.92674
2.99633
3.07998
3.13919
3.17932
3.2111
3.23694
3.25655
3.26958
3.27245
3.26671
3.25487
3.24118
3.23168
3.23133
3.23912
3.24988
3.26176
3.27532
3.29191
3.31063
3.33386
3.36073
3.39028
3.40846
3.4117
3.40599
0.999906
0.999926
0.999904
0.999876
0.999833
0.999777
0.9997
0.999601
0.999473
0.999312
0.999109
0.998859
0.998555
0.998188
0.997752
0.99724
0.996648
0.995971
0.995201
0.994339
0.993387
0.99234
0.991208
0.989992
0.988695
0.987313
0.985892
0.984399
0.982805
0.981277
0.979714
0.977989
0.976352
0.974815
0.973124
0.971335
0.969653
0.96812
0.96653
0.965003
0.963607
0.962369
0.961019
0.959425
0.95832
0.957395
0.957115
0.957081
0.957815
0.958584
0.96297
0.964816
1.00674
1.8787
2.24321
2.27914
2.25636
2.26831
2.26236
2.28767
2.47149
2.45641
2.61378
2.43199
2.52776
2.44795
2.50365
2.56574
2.59778
2.69176
2.77857
2.83816
2.9242
2.99343
3.03956
3.0425
3.07152
3.09755
3.12227
3.12626
3.11614
3.10149
3.09485
3.08826
3.07811
3.06423
3.05479
3.01337
2.97062
2.92622
2.90611
2.91263
2.94582
2.99804
3.06554
3.11673
3.15932
3.19367
3.2238
3.24643
3.26214
3.27142
3.27229
3.26544
3.25291
3.24112
3.2376
3.24317
3.25322
3.26463
3.27862
3.29702
3.3184
3.3431
3.37066
3.39731
3.40787
3.41108
3.4036
0.999907
0.999926
0.999905
0.999877
0.999835
0.999779
0.999703
0.999605
0.999478
0.999317
0.999116
0.998867
0.998565
0.998201
0.997767
0.997258
0.996667
0.99599
0.995219
0.994357
0.993402
0.99235
0.991209
0.989972
0.988656
0.987263
0.985791
0.984266
0.982647
0.981031
0.979439
0.977649
0.975906
0.974298
0.97261
0.970689
0.968955
0.967412
0.965903
0.964239
0.962578
0.961152
0.959754
0.958304
0.957074
0.956077
0.955062
0.954343
0.952826
0.949484
0.945122
0.937128
0.926072
2.02083
2.28965
2.30198
2.28065
2.27333
2.26455
2.26659
2.26594
2.42659
2.57248
2.53508
2.62126
2.61281
2.69588
2.77873
2.84403
2.90727
2.97531
2.99691
3.03234
3.05769
3.07496
3.0814
3.0931
3.10154
3.11322
3.11276
3.11067
3.09656
3.08664
3.07844
3.07134
3.06491
3.06548
3.03709
3.00452
2.9649
2.93478
2.93436
2.95994
2.99832
3.05073
3.09528
3.13809
3.17412
3.20799
3.23541
3.25261
3.26554
3.27148
3.2706
3.26438
3.25222
3.2444
3.24716
3.2564
3.26759
3.28187
3.30178
3.32555
3.35222
3.38072
3.4018
3.40694
3.41051
3.40132
0.999908
0.999927
0.999906
0.999878
0.999836
0.999781
0.999706
0.999608
0.999483
0.999323
0.999124
0.998878
0.998578
0.998215
0.997785
0.997277
0.99669
0.996013
0.995244
0.99438
0.99342
0.992358
0.991207
0.989962
0.988629
0.987206
0.985684
0.984127
0.982549
0.980856
0.979115
0.977357
0.975522
0.973786
0.972059
0.970171
0.968352
0.966629
0.965119
0.963477
0.961541
0.95991
0.958389
0.957007
0.955602
0.95413
0.952245
0.951245
0.948955
0.948609
0.940889
0.951754
1.06012
2.13262
2.28432
2.29172
2.27823
2.27167
2.26846
2.2807
2.243
2.52464
2.62449
2.78333
2.81811
2.89385
2.93339
2.96426
2.99404
3.01162
3.03551
3.04921
3.06762
3.07101
3.07329
3.06862
3.08002
3.09266
3.10497
3.10615
3.10442
3.09157
3.0798
3.07151
3.06657
3.06416
3.06738
3.04931
3.02503
2.99553
2.96644
2.94909
2.96448
2.99496
3.03358
3.07253
3.11426
3.15205
3.19021
3.22317
3.2429
3.25687
3.26602
3.27041
3.26997
3.26292
3.25137
3.25098
3.25928
3.27051
3.28502
3.30633
3.3324
3.36188
3.39028
3.40495
3.40599
3.41022
3.39912
0.999909
0.999928
0.999907
0.999879
0.999838
0.999783
0.999709
0.999613
0.999488
0.999331
0.999133
0.998889
0.998592
0.998233
0.997805
0.997301
0.996716
0.996041
0.995274
0.99441
0.993446
0.992383
0.99122
0.989951
0.9886
0.987163
0.985633
0.984
0.982384
0.98065
0.978805
0.97706
0.97526
0.973294
0.971428
0.969713
0.967873
0.96597
0.964269
0.962606
0.960785
0.959052
0.957521
0.956211
0.955237
0.954496
0.953544
0.95361
0.953213
0.957926
0.953799
0.988211
1.51639
2.22481
2.30752
2.30655
2.3084
2.30884
2.32029
2.34518
2.37478
2.71577
2.88362
3.00524
3.01993
3.03327
3.04188
3.04127
3.05556
3.05113
3.0535
3.04715
3.05418
3.05266
3.05836
3.05677
3.0622
3.0722
3.08238
3.08618
3.08761
3.08159
3.07194
3.06762
3.06441
3.06554
3.06647
3.05632
3.04116
3.01725
2.99388
2.97001
2.96879
2.98858
3.01411
3.05356
3.09533
3.13549
3.17631
3.21137
3.23292
3.24739
3.25886
3.26684
3.27094
3.26887
3.25793
3.25457
3.26194
3.27327
3.28824
3.31082
3.33888
3.37174
3.39812
3.40642
3.40478
3.41044
3.3968
0.99991
0.999929
0.999908
0.999881
0.99984
0.999786
0.999712
0.999617
0.999494
0.999339
0.999143
0.998902
0.998608
0.998252
0.997828
0.997329
0.996746
0.996076
0.99531
0.994447
0.993482
0.992415
0.991245
0.989976
0.988613
0.987138
0.98559
0.983951
0.982212
0.980477
0.978627
0.976713
0.974908
0.972925
0.970957
0.969134
0.96738
0.965417
0.963526
0.961789
0.960097
0.958359
0.956792
0.955316
0.954405
0.953243
0.951828
0.950449
0.948925
0.949984
0.945008
0.973741
1.92398
2.33703
2.3339
2.32175
2.32286
2.32515
2.35733
2.44537
2.60079
2.88508
3.05329
3.10478
3.09014
3.08242
3.07932
3.06264
3.05465
3.04542
3.04277
3.03727
3.03484
3.03055
3.03449
3.03538
3.03872
3.04766
3.05962
3.06786
3.07289
3.07269
3.06867
3.06568
3.06341
3.06529
3.06496
3.05892
3.0477
3.03179
3.01267
2.99079
2.98154
2.98656
2.99784
3.03554
3.07806
3.12136
3.16361
3.19909
3.2219
3.23734
3.24985
3.26032
3.26804
3.27026
3.26331
3.25776
3.26426
3.27589
3.29148
3.31541
3.3453
3.38039
3.4037
3.40677
3.40298
3.4114
3.39445
0.999911
0.99993
0.999909
0.999882
0.999842
0.999789
0.999716
0.999622
0.999501
0.999348
0.999155
0.998917
0.998626
0.998275
0.997855
0.99736
0.996783
0.996116
0.995355
0.994494
0.99353
0.992461
0.991283
0.989999
0.988603
0.987112
0.985532
0.983876
0.982108
0.980277
0.978462
0.976485
0.97452
0.972614
0.970548
0.968555
0.96676
0.964908
0.962916
0.961117
0.959458
0.957802
0.956109
0.954362
0.952615
0.950615
0.947863
0.942628
0.936657
0.925084
0.912563
0.905478
2.08146
2.31091
2.32679
2.32788
2.33376
2.34109
2.40217
2.61948
2.85512
3.02444
3.12353
3.10647
3.10669
3.08941
3.08526
3.06517
3.05488
3.04331
3.03995
3.02952
3.02219
3.01684
3.01134
3.01665
3.0189
3.02333
3.03153
3.04185
3.04978
3.05476
3.05732
3.05908
3.05996
3.062
3.06107
3.05819
3.0515
3.04184
3.02569
3.0089
2.99375
2.99254
2.997
3.02623
3.06506
3.10704
3.14981
3.1857
3.20966
3.22664
3.24022
3.2525
3.26278
3.26844
3.26631
3.26042
3.26649
3.27864
3.29492
3.32005
3.35142
3.38814
3.40755
3.406
3.40062
3.41307
3.392
0.999913
0.999931
0.99991
0.999884
0.999844
0.999792
0.99972
0.999628
0.999509
0.999358
0.999168
0.998934
0.998646
0.9983
0.997886
0.997397
0.996825
0.996165
0.995409
0.994553
0.99359
0.992522
0.991342
0.990056
0.988663
0.987164
0.985567
0.983875
0.982078
0.980158
0.978304
0.976322
0.974223
0.972199
0.970255
0.968125
0.966102
0.964273
0.962393
0.960416
0.9587
0.95714
0.955628
0.954103
0.952948
0.951637
0.951176
0.950181
0.953819
0.949516
0.979171
1.31613
2.21914
2.32737
2.33156
2.33842
2.34948
2.41428
2.54258
2.85421
3.01063
3.11857
3.11115
3.09216
3.08731
3.07064
3.06709
3.0536
3.04912
3.04141
3.03833
3.0302
3.01866
3.00836
3.00058
2.99856
2.99364
2.99638
3.00214
3.01421
3.02523
3.03894
3.04971
3.05642
3.06033
3.06096
3.05926
3.05671
3.05317
3.04704
3.03673
3.02307
3.00411
2.99476
2.99461
3.01863
3.0551
3.09348
3.13407
3.17051
3.19619
3.21555
3.23105
3.2441
3.25601
3.2642
3.26587
3.26233
3.26873
3.28161
3.29861
3.3249
3.35759
3.39477
3.40971
3.40433
3.39762
3.41549
3.38971
0.999914
0.999932
0.999912
0.999886
0.999847
0.999795
0.999725
0.999635
0.999517
0.999369
0.999182
0.998952
0.99867
0.998329
0.997921
0.99744
0.996875
0.996223
0.995473
0.994624
0.993667
0.992604
0.991423
0.990136
0.988725
0.987211
0.985581
0.983831
0.982023
0.980111
0.978098
0.976149
0.974037
0.971873
0.969869
0.967802
0.965579
0.963569
0.961709
0.959776
0.957902
0.95632
0.955094
0.95383
0.953102
0.952519
0.953007
0.953736
0.957297
0.957576
0.99263
1.92403
2.30359
2.33936
2.3397
2.37157
2.40916
2.57505
2.82506
3.00978
3.12555
3.12482
3.10146
3.07692
3.0636
3.04971
3.046
3.04021
3.04025
3.03592
3.02901
3.02529
3.01611
3.00545
2.99608
2.98912
2.98293
2.98126
2.98051
2.98898
2.99929
3.01417
3.02991
3.0438
3.05253
3.05344
3.0508
3.04858
3.04827
3.04696
3.04284
3.03203
3.01318
2.99669
2.99369
3.01179
3.0451
3.08025
3.11696
3.15325
3.18292
3.20529
3.22222
3.2361
3.24865
3.25872
3.26336
3.2632
3.27105
3.2849
3.30273
3.33012
3.36392
3.40005
3.41049
3.40158
3.39441
3.41872
3.38772
0.999915
0.999933
0.999913
0.999888
0.99985
0.999799
0.99973
0.999642
0.999527
0.999381
0.999198
0.998973
0.998696
0.998361
0.997961
0.997487
0.996933
0.996289
0.995551
0.994711
0.993765
0.992707
0.991533
0.990247
0.988838
0.987323
0.985686
0.983951
0.982097
0.980183
0.978129
0.976008
0.973917
0.971684
0.969449
0.967372
0.965181
0.962917
0.960755
0.95878
0.956711
0.954884
0.953266
0.951835
0.950057
0.947827
0.944377
0.940545
0.933559
0.923165
0.903428
2.06934
2.34475
2.36111
2.35804
2.40157
2.52002
2.788
2.97247
3.10076
3.11498
3.0966
3.08778
3.06879
3.05018
3.03389
3.02758
3.02669
3.0289
3.0281
3.02029
3.01482
3.00821
3.00227
2.99179
2.98259
2.97704
2.97311
2.96926
2.96968
2.97391
2.9909
3.00664
3.02292
3.03816
3.04625
3.04467
3.04402
3.04479
3.04595
3.04359
3.03755
3.02124
3.00177
2.99382
3.00665
3.03608
3.06855
3.1023
3.13701
3.17034
3.19534
3.21366
3.22838
3.24121
3.25227
3.25927
3.26329
3.2735
3.28856
3.30737
3.33577
3.37047
3.40389
3.41011
3.39788
3.39139
3.4227
3.38615
0.999917
0.999934
0.999915
0.99989
0.999853
0.999803
0.999736
0.999649
0.999537
0.999395
0.999216
0.998995
0.998725
0.998398
0.998006
0.997543
0.996999
0.996368
0.995642
0.994815
0.993883
0.992835
0.991676
0.990394
0.988995
0.987475
0.98583
0.98408
0.982193
0.980221
0.978155
0.975958
0.973784
0.971584
0.969203
0.966853
0.964675
0.962341
0.959882
0.957543
0.95548
0.95344
0.951376
0.949954
0.948373
0.947526
0.94636
0.948693
0.943968
0.967762
1.25675
2.21395
2.34979
2.3528
2.38368
2.47509
2.7368
2.9465
3.07731
3.10604
3.07911
3.07152
3.06646
3.06032
3.04427
3.02791
3.01646
3.01299
3.01464
3.01612
3.00912
3.00245
2.99875
2.99499
2.98901
2.98198
2.97272
2.96603
2.96132
2.95943
2.95619
2.96775
2.98027
2.99779
3.01365
3.02707
3.03258
3.03366
3.03656
3.04088
3.04276
3.03903
3.02771
3.00813
2.99676
3.00335
3.02731
3.05781
3.09006
3.12358
3.15805
3.1855
3.20528
3.22082
3.23379
3.24529
3.25416
3.26286
3.27614
3.29249
3.31249
3.34192
3.3774
3.40589
3.40853
3.39325
3.38868
3.42738
3.38499
0.999919
0.999936
0.999917
0.999893
0.999856
0.999808
0.999742
0.999658
0.999548
0.99941
0.999236
0.999021
0.998758
0.998439
0.998057
0.997605
0.997074
0.996459
0.995749
0.99494
0.994025
0.992996
0.991856
0.990586
0.989207
0.987692
0.986058
0.984302
0.982425
0.980413
0.978305
0.97607
0.973691
0.97143
0.969089
0.966535
0.964019
0.961625
0.958879
0.956198
0.95389
0.951981
0.949998
0.948935
0.948193
0.94884
0.949258
0.95339
0.953677
0.991954
1.92122
2.29774
2.36726
2.38353
2.49433
2.696
2.94266
3.09154
3.12828
3.09977
3.07149
3.05013
3.04154
3.04327
3.03813
3.02772
3.01585
3.00869
3.0058
3.00442
3.00149
2.99457
2.99062
2.98865
2.9844
2.98062
2.97196
2.96182
2.95454
2.95066
2.94584
2.94847
2.95585
2.97235
2.98728
3.00239
3.01521
3.02289
3.0289
3.03625
3.04218
3.04236
3.03455
3.01764
3.00307
3.00214
3.01928
3.04735
3.07815
3.11136
3.14632
3.17566
3.19698
3.21331
3.22632
3.23803
3.24864
3.26146
3.27792
3.29642
3.31812
3.3487
3.38442
3.4065
3.40593
3.38808
3.38636
3.43265
3.38426
0.99992
0.999937
0.999919
0.999896
0.99986
0.999813
0.999749
0.999667
0.999561
0.999426
0.999257
0.999049
0.998793
0.998484
0.998115
0.997676
0.997161
0.996563
0.995873
0.995086
0.994195
0.993193
0.992076
0.990835
0.989478
0.987981
0.986372
0.984609
0.982741
0.980714
0.978565
0.976361
0.974014
0.971494
0.96907
0.966489
0.963629
0.96079
0.958083
0.955163
0.952382
0.94973
0.947216
0.944173
0.940654
0.935988
0.930062
0.920999
0.907761
0.892809
2.03004
2.34615
2.37678
2.46309
2.67212
2.90962
3.07512
3.12202
3.10584
3.08728
3.06495
3.04799
3.03485
3.03096
3.02855
3.02521
3.01717
3.0082
3.00101
2.99589
2.99409
2.98862
2.98284
2.98096
2.97774
2.97584
2.97053
2.96247
2.95125
2.94269
2.93797
2.93616
2.93579
2.94786
2.96026
2.9769
2.99182
3.00442
3.01564
3.02674
3.03405
3.03701
3.03338
3.0219
3.00757
3.00094
3.01123
3.03666
3.06676
3.09909
3.13394
3.16533
3.18828
3.20553
3.21874
3.23062
3.24297
3.2585
3.27798
3.30008
3.32419
3.35631
3.39042
3.40585
3.40213
3.38259
3.38433
3.43843
3.38382
0.999922
0.999939
0.999921
0.999898
0.999864
0.999818
0.999757
0.999677
0.999574
0.999444
0.999281
0.99908
0.998833
0.998535
0.998178
0.997755
0.997259
0.996682
0.996018
0.995258
0.994396
0.993427
0.992343
0.991143
0.989817
0.988361
0.986783
0.98505
0.983196
0.981178
0.979039
0.976726
0.97431
0.971671
0.968839
0.96613
0.963133
0.959945
0.956887
0.954104
0.951313
0.948412
0.946734
0.944918
0.944612
0.943946
0.950066
0.948296
0.99125
1.40365
2.2085
2.38936
2.43326
2.6759
2.8909
3.05323
3.10472
3.08117
3.07043
3.0589
3.04502
3.03987
3.02964
3.02004
3.01365
3.01118
3.00858
3.00441
2.99822
2.99268
2.98925
2.988
2.9828
2.98003
2.97517
2.97201
2.96667
2.9614
2.95193
2.94056
2.93403
2.92824
2.92195
2.92779
2.93469
2.9507
2.9661
2.98204
2.9987
3.01497
3.02582
3.03215
3.03192
3.0252
3.01266
3.00113
3.00452
3.02576
3.05565
3.08729
3.12115
3.15401
3.179
3.19736
3.21098
3.2231
3.23674
3.25415
3.27639
3.30271
3.33018
3.36456
3.39486
3.40418
3.39724
3.37712
3.38281
3.44456
3.38368
0.999924
0.999941
0.999924
0.999902
0.999868
0.999824
0.999765
0.999688
0.999589
0.999464
0.999307
0.999114
0.998877
0.998591
0.99825
0.997845
0.997369
0.996818
0.996182
0.995456
0.994631
0.993706
0.992665
0.991517
0.990237
0.988842
0.987303
0.985631
0.98381
0.981829
0.979706
0.977408
0.97497
0.972413
0.969662
0.966761
0.963942
0.960712
0.957231
0.953915
0.950613
0.946847
0.942489
0.938476
0.934852
0.930673
0.925777
0.912626
0.935477
1.83899
2.39011
2.4435
2.66922
2.89234
3.04898
3.1213
3.09407
3.07675
3.04923
3.03375
3.02481
3.02451
3.0179
3.01258
3.00553
3.0011
2.9985
2.99863
2.99396
2.99025
2.98549
2.98512
2.98118
2.97833
2.97311
2.96922
2.96507
2.95959
2.95298
2.9414
2.93114
2.9232
2.91651
2.91483
2.91498
2.92433
2.93894
2.95792
2.97734
2.99571
3.01104
3.02276
3.02755
3.02671
3.01998
3.0062
3.00198
3.0174
3.04565
3.07649
3.10908
3.14236
3.16969
3.18907
3.20306
3.21558
3.23016
3.24918
3.27379
3.30374
3.33491
3.37162
3.39671
3.40133
3.39126
3.37175
3.38188
3.45094
3.38369
0.999927
0.999943
0.999926
0.999905
0.999873
0.999831
0.999773
0.9997
0.999605
0.999485
0.999335
0.999151
0.998925
0.998653
0.998328
0.997943
0.997493
0.996971
0.996369
0.995683
0.994905
0.99403
0.993048
0.991964
0.990751
0.989433
0.987963
0.98638
0.984615
0.982725
0.98065
0.978422
0.97601
0.973404
0.97059
0.967529
0.964286
0.960685
0.956661
0.95216
0.946763
0.940443
0.932268
0.924092
0.914399
0.904837
0.887032
0.885098
0.944705
2.05432
2.4543
2.54028
2.85411
3.01319
3.09598
3.0796
3.0682
3.05712
3.05148
3.04036
3.02541
3.01883
3.00956
3.00322
2.99541
2.99027
2.98667
2.98823
2.98542
2.9833
2.97802
2.97683
2.97465
2.97266
2.96902
2.96558
2.96306
2.95793
2.95215
2.94449
2.93295
2.92176
2.91558
2.91009
2.90263
2.90597
2.91452
2.93289
2.95289
2.97372
2.99241
3.00863
3.01921
3.02425
3.02275
3.01141
3.00173
3.01111
3.03641
3.06665
3.09775
3.13062
3.16042
3.18098
3.19545
3.20839
3.22349
3.24359
3.27034
3.30346
3.33835
3.37618
3.39638
3.39773
3.38436
3.36667
3.3816
3.45754
3.38368
0.999929
0.999945
0.999929
0.999909
0.999878
0.999837
0.999783
0.999712
0.999622
0.999508
0.999366
0.999191
0.998978
0.998721
0.998415
0.998053
0.997631
0.997142
0.99658
0.99594
0.995216
0.994402
0.993496
0.992485
0.99137
0.99014
0.988783
0.987302
0.985662
0.983895
0.981939
0.979856
0.977543
0.975084
0.972401
0.969553
0.966513
0.963299
0.959978
0.956392
0.953081
0.949413
0.945791
0.943678
0.941176
0.945515
0.946298
1.00935
1.69465
2.50524
2.60824
2.89316
3.04717
3.11652
3.07381
3.03964
3.01753
3.00811
3.01029
3.01707
3.02107
3.01547
3.0011
2.99211
2.98414
2.97979
2.97681
2.98049
2.97921
2.97778
2.97218
2.9693
2.9654
2.96278
2.96028
2.95744
2.95498
2.95111
2.94497
2.93987
2.93204
2.92096
2.91369
2.90765
2.89876
2.8958
2.89569
2.9097
2.92774
2.95005
2.97147
2.99175
3.00718
3.01971
3.02324
3.01506
3.00055
3.00389
3.02527
3.05503
3.08543
3.11756
3.14951
3.17197
3.18736
3.20106
3.21674
3.23773
3.26614
3.30155
3.34035
3.37777
3.39382
3.39302
3.3765
3.36171
3.38179
3.46419
3.38334
0.999932
0.999947
0.999932
0.999912
0.999883
0.999845
0.999793
0.999726
0.99964
0.999533
0.999399
0.999235
0.999035
0.998795
0.99851
0.998175
0.997783
0.997333
0.996816
0.996231
0.995571
0.994831
0.994011
0.993094
0.992096
0.990978
0.989773
0.988425
0.986973
0.985364
0.98363
0.981732
0.979658
0.977407
0.974914
0.972208
0.969155
0.965752
0.961921
0.957422
0.952163
0.945345
0.937314
0.925585
0.912126
0.887428