/*--------------------------------*- C++ -*----------------------------------*\
| =========                 |                                                 |
| \\      /  F ield         | OpenFOAM: The Open Source CFD Toolbox           |
|  \\    /   O peration     | Version:  2.2.x                                 |
|   \\  /    A nd           | Web:      www.OpenFOAM.org                      |
|    \\/     M anipulation  |                                                 |
\*---------------------------------------------------------------------------*/
FoamFile
{
    version     2.0;
    format      ascii;
    class       surfaceScalarField;
    location    "0.02";
    object      phi;
}
// * * * * * * * * * * * * * * * * * * * * * * * * * * * * * * * * * * * * * //

dimensions      [1 0 -1 0 0 0 0];

internalField   nonuniform List<scalar> 
1023
(
0
0
0
0
0
0
0
0
0
0
0
0
0
0
0
0
0
0
0
0
0
0
0
0
0
0
0
0
0
0
0
0
0
0
0
0
0
0
0
0
0
0
0
0
0
0
0
0
0
0
0
0
0
0
0
0
0
0
0
0
0
0
0
0
0
0
0
0
0
0
0
0
0
0
0
0
0
0
0
0
0
0
0
0
0
0
0
0
0
0
0
0
0
0
0
0
0
0
0
0
0
0
0
0
0
0
0
0
0
0
0
0
0
0
0
0
0
0
0
0
0
0
0
0
0
0
0
0
0
0
0
0
0
0
0
0
0
0
0
0
0
0
0
0
0
0
0
0
0
0
0
0
0
0
0
0
0
0
0
0
0
0
0
0
0
0
0
0
0
0
0
0
0
0
0
0
0
0
0
0
0
0
0
0
0
0
0
0
0
0
0
0
0
0
0
0
0
0
0
0
0
0
0
0
0
0
0
0
0
0
0
0
0
0
0
0
0
0
0
0
0
0
0
0
0
0
0
0
0
0
0
0
0
0
0
0
0
0
0
0
0
0
0
0
0
0
0
0
0
0
0
0
0
0
0
0
0
0
0
0
0
0
0
0
0
0
0
0
0
0
0
0
0
0
0
0
0
0
0
0
0
0
0
0
0
0
0
0
0
0
0
0
0
0
0
0
0
0
0
0
0
0
0
0
0
0
0
0
0
0
0
0
0
0
0
0
0
0
0
0
0
0
0
0
0
0
0
0
0
0
0
0
0
0
0
0
0
0
0
0
0
0
0
0
0
0
0
0
0
0
0
0
0
0
0
0
0
0
0
0
0
0
0
0
0
0
0
0
0
0
0
0
0
0
0
0
0
0
0
0
0
0
0
0
0
0
0
0
0
0
0
0
0
9.10377e-17
3.48978e-16
7.88993e-16
2.29111e-15
6.52437e-15
1.81165e-14
4.91603e-14
1.31838e-13
3.49478e-13
9.14443e-13
2.36217e-12
6.02202e-12
1.51484e-11
3.75902e-11
9.19968e-11
2.22002e-10
5.281e-10
1.23803e-09
2.85942e-09
6.50467e-09
1.45692e-08
3.21189e-08
6.96699e-08
1.48634e-07
3.11749e-07
6.42554e-07
1.30084e-06
2.58538e-06
5.04157e-06
9.64016e-06
1.8063e-05
3.31413e-05
5.94951e-05
0.000104414
0.00017898
0.000299372
0.000488159
0.000775257
0.0011981
0.00180053
0.00263011
0.00373394
0.00515393
0.00692415
0.00905795
0.011144
0.0130314
0.0147123
0.0162213
0.017564
0.0187848
0.0199213
0.0209905
0.0220456
0.0230831
0.0241233
0.0251917
0.0263391
0.0275394
0.0286426
0.0296202
0.0304441
0.0311017
0.0316089
0.0319651
0.0322041
0.0323475
0.0324131
0.0324382
0.0324372
0.0324122
0.0323341
0.0321766
0.0319298
0.0316912
0.0314941
0.0313391
0.0312248
0.03115
0.0311093
0.0310936
0.0310931
0.0311008
0.0311305
0.0311836
0.0312265
0.0311939
0.0306078
0.0256146
-0.00857625
-0.120438
-0.166227
-0.177612
-0.17984
-0.17996
-0.179909
-0.179345
-0.178301
-0.177422
-0.176966
-0.176938
-0.178182
-0.183448
-0.196703
-0.224521
-0.275348
-0.329856
-0.36846
-0.392368
-0.405063
-0.410627
-0.413023
-0.416312
-0.420898
-0.423639
-0.42443
-0.423917
-0.420458
-0.418601
-0.416521
-0.41671
-0.412144
-0.402915
-0.399856
-0.395223
-0.412168
-0.435477
-0.448405
-0.45106
-0.45028
-0.447608
-0.44245
-0.435032
-0.426599
-0.416112
-0.404106
-0.391471
-0.377264
-0.362203
-0.346446
-0.329454
-0.311529
-0.292747
-0.272949
-0.252053
-0.230215
-0.207362
-0.183348
-0.158414
-0.133155
-0.10908
-0.0866175
-0.0663505
-0.0488239
-0.0343965
-0.0231469
-0.0148617
-0.00910354
-0.00532453
-0.00297799
-0.00159571
-0.000820852
-0.000406217
-0.000193773
-8.92631e-05
-3.97758e-05
-1.71709e-05
-7.191e-06
-2.92509e-06
-1.15699e-06
-4.45453e-07
-1.67092e-07
-6.11175e-08
-2.18157e-08
-7.60473e-09
-2.59062e-09
-8.62979e-10
-2.81275e-10
-8.97507e-11
-2.80504e-11
-8.59091e-12
-2.57987e-12
-7.60017e-13
-2.19455e-13
-6.20595e-14
-1.75173e-14
-4.94913e-15
-1.43264e-15
-3.25601e-16
0
0
0
0
0
0
0
0
0
0
0
0
0
0
0
0
0
0
0
0
0
0
0
0
0
0
0
0
0
0
0
0
0
0
0
0
0
0
0
0
0
0
0
0
0
0
0
0
0
0
0
0
0
0
0
0
0
0
0
0
0
0
0
0
0
0
0
0
0
0
0
0
0
0
0
0
0
0
0
0
0
0
0
0
0
0
0
0
0
0
0
0
0
0
0
0
0
0
0
0
0
0
0
0
0
0
0
0
0
0
0
0
0
0
0
0
0
0
0
0
0
0
0
0
0
0
0
0
0
0
0
0
0
0
0
0
0
0
0
0
0
0
0
0
0
0
0
0
0
0
0
0
0
0
0
0
0
0
0
0
0
0
0
0
0
0
0
0
0
0
0
0
0
0
0
0
0
0
0
0
0
0
0
0
0
0
0
0
0
0
0
0
0
0
0
0
0
0
0
0
0
0
0
0
0
0
0
0
0
0
0
0
0
0
0
0
0
0
0
0
0
0
0
0
0
0
0
0
0
0
0
0
0
0
0
0
0
0
0
0
0
0
0
0
0
0
0
0
0
0
0
0
0
0
0
0
0
0
0
0
0
0
0
0
0
0
0
0
0
0
0
0
0
0
0
0
0
0
0
0
0
0
0
0
0
0
0
0
0
0
0
0
0
0
0
0
0
0
0
0
0
0
0
0
0
0
0
0
0
0
0
0
0
0
0
0
0
0
0
0
0
0
0
0
0
0
0
0
0
0
0
0
0
0
0
0
0
0
0
0
0
0
0
0
0
0
0
0
0
0
0
0
0
0
0
0
0
0
0
0
0
0
0
0
0
0
0
0
0
0
0
0
0
0
0
0
0
0
0
0
0
0
0
0
0
0
0
0
0
0
0
0
0
0
0
0
0
0
0
0
0
0
0
0
0
0
0
0
0
0
0
0
0
0
0
0
0
0
0
0
0
0
0
0
0
0
0
0
0
0
0
0
0
0
0
0
0
0
0
0
0
)
;

boundaryField
{
    front-back
    {
        type            empty;
        value           nonuniform 0();
    }
    inlet-outlet
    {
        type            calculated;
        value           uniform 0;
    }
    top-down
    {
        type            empty;
        value           nonuniform 0();
    }
}


// ************************************************************************* //
