/*--------------------------------*- C++ -*----------------------------------*\
| =========                 |                                                 |
| \\      /  F ield         | OpenFOAM: The Open Source CFD Toolbox           |
|  \\    /   O peration     | Version:  2.2.x                                 |
|   \\  /    A nd           | Web:      www.OpenFOAM.org                      |
|    \\/     M anipulation  |                                                 |
\*---------------------------------------------------------------------------*/
FoamFile
{
    version     2.0;
    format      ascii;
    class       volScalarField;
    location    "0.7";
    object      Bz;
}
// * * * * * * * * * * * * * * * * * * * * * * * * * * * * * * * * * * * * * //

dimensions      [1 0 -2 0 0 -1 0];

internalField   nonuniform List<scalar> 
14161
(
1.13371e-19
-3.71745e-20
-6.28994e-20
-3.85649e-20
-2.9234e-19
6.15292e-19
-1.79763e-18
3.9507e-18
-9.69012e-18
2.45835e-17
-6.3777e-17
1.6644e-16
-4.01146e-16
8.62902e-16
-1.63179e-15
2.58827e-15
-3.26758e-15
3.12365e-15
-1.77938e-15
-4.94938e-15
2.47552e-14
-6.41529e-14
1.14744e-13
-1.745e-13
2.33497e-13
-4.90346e-13
1.04207e-12
-2.04455e-12
5.23293e-12
-9.00056e-12
1.55925e-11
-2.59597e-11
2.73285e-11
-1.44987e-11
3.76584e-12
1.77423e-11
-6.23965e-11
9.90418e-11
-1.31061e-10
1.81204e-10
-6.32053e-11
1.07148e-09
-3.1495e-09
3.7125e-09
-6.68648e-09
2.53835e-08
-5.40731e-08
8.98162e-08
-1.912e-07
3.66028e-07
-5.46721e-07
8.23853e-07
-1.33818e-06
-3.83991e-05
-5.88775e-05
-2.32917e-05
9.07289e-06
-0.000398455
0.000240402
0.00239129
-0.0020355
-0.00585858
0.000794332
0.00861357
0.00583257
-0.00475553
-0.0104743
-0.00602768
0.00444973
0.0103455
0.00853747
0.000710047
-0.00871339
-0.0102268
-0.00521867
0.00273851
0.00748456
0.0075743
0.00321451
-0.00326313
-0.00728483
-0.00565922
0.00237909
0.00806563
0.00754616
0.00145125
-0.0044392
-0.00598266
-0.00473521
0.00141228
0.00720048
0.00485917
-0.00305181
-0.00486743
-0.00138288
0.00153217
0.00168862
-0.000410704
-0.000737945
5.68416e-05
6.61333e-05
-0.000353894
-0.000517485
3.44552e-05
0.000226267
-4.61881e-05
-8.63301e-05
7.80668e-05
0.000260599
0.000150443
6.90693e-05
0.000121946
-1.72618e-05
-6.95578e-05
6.20299e-05
0.000100674
5.19758e-05
7.86826e-06
4.78041e-06
1.11846e-19
-5.94571e-20
-6.65756e-20
-7.30006e-20
-2.41235e-19
4.71522e-19
-1.51319e-18
3.3913e-18
-8.86219e-18
2.37209e-17
-6.25812e-17
1.62971e-16
-3.9078e-16
8.43252e-16
-1.62857e-15
2.69975e-15
-3.62315e-15
3.84019e-15
-2.99289e-15
-2.74609e-15
2.00279e-14
-6.12985e-14
1.03526e-13
-1.57107e-13
2.12588e-13
-3.90884e-13
7.67706e-13
-1.47263e-12
3.61543e-12
-6.86821e-12
1.16531e-11
-1.73312e-11
1.42213e-11
-5.93177e-12
-8.12744e-12
3.30913e-11
-6.34209e-11
7.52943e-11
-8.57999e-11
1.65251e-10
-1.37686e-10
8.97648e-10
-2.29395e-09
2.19912e-09
-6.34217e-09
1.45964e-08
-2.89633e-08
6.81828e-08
-1.4592e-07
2.86654e-07
-5.25519e-07
1.11497e-06
-5.61183e-06
-3.86413e-05
-5.82346e-05
-0.000101335
0.000164373
-0.000220827
-0.00113437
0.000849476
0.00250229
-0.00148991
-0.0048585
-0.00118441
0.00489649
0.00468459
-0.0016244
-0.00648548
-0.00390431
0.00326434
0.00649631
0.00342647
-0.0030404
-0.00636126
-0.00465931
0.000232631
0.00466191
0.00526882
0.0024057
-0.00209474
-0.00644371
-0.0056173
0.000559673
0.00548489
0.00611967
0.00176919
-0.00375308
-0.00520533
-0.00381308
0.000839058
0.00581836
0.003876
-0.00213019
-0.00318367
-0.00110779
0.00119421
0.00099439
-0.000528912
-0.000216812
0.00011494
-3.53429e-05
-0.000457351
-0.000435004
0.000164297
0.000172052
-0.000122099
-9.99678e-05
9.86257e-05
0.000244246
0.000104309
8.02991e-05
0.000110544
-4.80683e-05
-5.67688e-05
8.35226e-05
9.39671e-05
3.69106e-05
6.67244e-06
5.00595e-06
1.05198e-19
-8.51484e-20
-7.07787e-20
-1.36428e-19
-1.41845e-19
1.93439e-19
-9.46132e-19
2.18682e-18
-6.79038e-18
2.10207e-17
-5.86551e-17
1.52608e-16
-3.61204e-16
7.81577e-16
-1.57151e-15
2.85161e-15
-4.26697e-15
5.2032e-15
-5.59604e-15
1.21139e-15
1.15146e-14
-3.09153e-14
6.28322e-14
-8.87252e-14
1.36835e-13
-2.15477e-13
3.9772e-13
-7.99535e-13
1.93963e-12
-3.42163e-12
4.35158e-12
-4.97888e-12
1.619e-12
6.72553e-12
-1.57948e-11
3.002e-11
-4.88056e-11
6.16509e-11
-3.74932e-11
2.45686e-11
-2.27374e-11
2.69166e-10
-9.63946e-10
1.45892e-09
-3.97075e-09
1.00059e-08
-1.75875e-08
4.10845e-08
-7.72155e-08
1.46006e-07
-2.29642e-07
4.11917e-07
-7.17052e-06
-4.12946e-05
-4.31267e-05
-0.000121929
-0.000203806
0.0005036
4.43001e-05
-0.00182244
-0.000607856
0.0020732
0.000921714
-0.00182204
-0.00135977
0.000779806
0.000262
-0.00233651
-0.00202265
0.00178894
0.00391737
0.00186953
-0.00216588
-0.00368179
-0.00275901
0.000135526
0.00369204
0.00400224
0.00108885
-0.00168751
-0.00471229
-0.00425187
3.27283e-05
0.00331698
0.00414649
0.00210476
-0.00241948
-0.00375079
-0.00256986
0.00109207
0.00364048
0.00181617
-0.00104689
-0.0016482
-0.00022184
0.000972913
-6.63535e-06
-0.000371659
9.44201e-05
9.0477e-05
-9.39757e-05
-0.000506549
-0.000309506
0.000246999
9.90147e-05
-0.00017381
-9.4094e-05
0.000120342
0.000220993
7.20447e-05
8.7293e-05
9.00082e-05
-6.88126e-05
-4.19277e-05
0.000106287
8.23634e-05
2.26175e-05
5.63023e-06
4.89103e-06
7.44004e-20
-1.46175e-19
-7.65806e-20
-2.9463e-19
1.6255e-19
-7.1905e-19
9.54767e-19
-1.94761e-18
1.06292e-18
8.32744e-18
-4.14022e-17
1.16379e-16
-2.66538e-16
5.70327e-16
-1.24829e-15
2.80108e-15
-4.92173e-15
7.14951e-15
-9.07537e-15
5.24078e-15
5.59594e-15
-2.27871e-14
3.84498e-14
-4.57311e-14
4.10217e-14
-7.96651e-15
-3.63881e-15
-1.593e-14
1.89888e-13
-6.49877e-13
1.88019e-13
1.19195e-12
-4.60712e-12
8.59495e-12
-9.00112e-12
8.76221e-12
-9.56518e-12
1.04987e-11
-8.42683e-12
-1.59311e-12
2.60816e-11
-3.98165e-11
9.9141e-12
7.67086e-11
-4.01057e-11
2.08821e-10
-3.59985e-11
-1.0617e-09
4.78337e-09
-7.96521e-09
1.17476e-08
-2.27963e-07
-7.0342e-06
-4.20383e-05
-5.44041e-05
0.000121043
-0.000659622
-0.000411826
0.00161248
0.00140506
-0.0034752
-0.00385932
0.00245276
0.00653587
0.00285548
-0.00426582
-0.00736866
-0.00268631
0.00495479
0.00674874
0.00245352
-0.00262524
-0.0040264
-0.00251054
0.000885305
0.0031857
0.00236173
6.54838e-05
-0.00167183
-0.00157243
-0.000335984
-0.000139942
0.000109089
0.000689832
0.000870462
0.00071336
-0.000885443
-0.00136835
-0.000743955
0.000652692
0.00148529
0.000695867
-0.000722775
-0.000553006
0.000382012
0.000187929
-0.000283601
-4.94655e-05
0.000155238
3.98727e-06
-0.000267115
-0.000454823
5.08052e-06
0.000304948
-7.37142e-05
-0.00021553
-4.09894e-05
0.000158845
0.000171181
3.5911e-05
0.000105533
4.85716e-05
-0.000102349
-9.22615e-07
0.000124993
6.43536e-05
1.17361e-05
5.16722e-06
4.97553e-06
7.75526e-20
-2.22091e-19
-6.0304e-20
-5.58136e-19
6.92204e-19
-2.1739e-18
4.16574e-18
-8.91985e-18
1.45827e-17
-1.50946e-17
-4.87966e-18
5.68705e-17
-1.5248e-16
3.2227e-16
-7.32679e-16
2.08094e-15
-4.16555e-15
7.4487e-15
-1.06972e-14
8.42655e-15
1.02264e-15
-1.76057e-14
4.08002e-14
-3.78481e-14
1.92905e-14
3.87783e-14
-1.32258e-13
2.76134e-13
-3.82448e-13
6.52119e-13
-1.22289e-12
2.31766e-12
-3.63365e-12
3.65724e-12
-1.53607e-12
1.29548e-13
4.24741e-13
-1.16183e-13
2.09086e-12
-5.06666e-12
2.06011e-12
-1.97652e-11
1.00113e-10
-2.35658e-10
5.22731e-10
-1.43777e-09
2.936e-09
-6.88219e-09
1.16546e-08
-2.17439e-08
4.55926e-08
-4.05687e-07
-6.19786e-06
-3.59438e-05
-6.45361e-05
7.69034e-05
7.11501e-05
-0.000531509
-0.00159441
0.000634866
0.00420443
0.000605591
-0.00639332
-0.00502147
0.00464747
0.00887829
0.00103663
-0.00728814
-0.00537562
0.00199901
0.00478295
0.00239085
-0.000927158
-0.00219113
-0.00139716
0.00121671
0.00245541
0.00113808
-0.00106581
-0.00183473
-0.000721617
0.000280072
0.000514333
0.000581376
0.000472877
0.000270893
-0.000293772
-0.000498074
-0.000274669
0.000225432
0.00052683
5.37651e-05
-0.00034748
-2.82184e-07
0.00012252
-8.14875e-05
-0.00017722
0.000169328
6.60469e-05
-0.000182274
-0.000319101
-0.000197876
0.000261821
0.000138017
-0.000241714
-0.000166086
2.79504e-05
0.000160293
9.42765e-05
2.79533e-05
0.000115817
-1.8009e-05
-0.000109126
5.09687e-05
0.000126141
4.16018e-05
5.24657e-06
5.08032e-06
5.17906e-06
1.25433e-19
-3.2069e-19
2.24405e-20
-1.01574e-18
1.77277e-18
-5.2337e-18
1.16317e-17
-2.59573e-17
4.9953e-17
-8.6374e-17
1.17739e-16
-1.07646e-16
-6.43809e-18
2.42653e-16
-5.73356e-16
7.53291e-16
-1.26737e-15
5.24443e-15
-1.18726e-14
1.45385e-14
-1.5716e-14
1.02087e-14
5.76932e-15
-1.22149e-14
1.91555e-14
-2.14988e-14
6.54971e-15
1.73774e-13
-5.18545e-13
1.163e-12
-2.67303e-12
4.33206e-12
-4.07723e-12
1.19149e-12
2.5221e-12
-6.05356e-12
4.47886e-12
-4.17505e-13
3.51847e-13
-1.66531e-12
-6.31924e-12
7.3522e-12
9.07587e-12
2.9522e-13
2.6432e-12
-1.72704e-11
2.00097e-10
-1.06434e-09
3.96218e-09
-5.01047e-09
7.62185e-09
-3.59265e-07
-4.75963e-06
-2.72202e-05
-5.27704e-05
8.45953e-05
-0.000421914
0.000755877
0.000368272
-0.0030627
-0.00174913
0.00617777
0.00462457
-0.00669859
-0.00716718
0.00367925
0.00764489
0.00055738
-0.00532203
-0.00334014
0.0018767
0.00411965
0.00243487
-0.000768579
-0.002814
-0.00286228
-1.29253e-05
0.00271048
0.00293585
0.0011186
-0.000677298
-0.0010904
-0.00088288
0.000163743
0.000788101
0.000661084
0.000175109
-0.000406778
-0.000380271
2.36976e-05
0.00018763
-5.60305e-05
-0.000153788
2.84422e-05
3.09933e-05
-0.00013939
7.49592e-05
0.000169262
-0.000194618
-0.000225333
-0.000196132
9.24104e-05
0.000249193
-0.000125649
-0.000262953
-7.14567e-05
6.68864e-05
0.000121675
3.11794e-05
5.60955e-05
9.08653e-05
-8.80868e-05
-7.87063e-05
9.80079e-05
0.000108257
2.00415e-05
2.86868e-06
5.28351e-06
5.49348e-06
2.13264e-19
-3.64039e-19
1.16018e-19
-1.36903e-18
2.67661e-18
-7.62134e-18
1.76425e-17
-4.03298e-17
8.20746e-17
-1.51691e-16
2.42423e-16
-3.43555e-16
4.55868e-16
-6.33684e-16
9.98301e-16
-2.05775e-15
3.44681e-15
-3.06577e-16
-1.04915e-14
2.90121e-14
-5.22078e-14
8.07638e-14
-1.23388e-13
1.64898e-13
-2.61858e-13
4.67995e-13
-7.2377e-13
1.41264e-12
-2.3863e-12
4.14905e-12
-6.2301e-12
6.68211e-12
-5.31743e-12
2.44506e-12
-2.04547e-12
2.56344e-12
-6.19296e-12
1.10777e-11
-1.41638e-11
1.49444e-11
-2.26239e-11
1.96876e-11
6.64451e-11
-2.17419e-10
2.44039e-10
-1.20316e-10
8.99643e-11
-3.27807e-10
-1.05824e-09
6.25714e-09
-1.8821e-09
-2.01994e-07
-3.25796e-06
-1.71992e-05
-3.60919e-05
3.83038e-05
0.000267787
-0.000184271
0.000433142
-1.42536e-05
-0.00429647
-0.000882563
0.0103936
0.00464166
-0.010886
-0.0122321
0.00422525
0.01352
0.00818592
-0.00519066
-0.0102382
-0.00757019
0.00282567
0.0073761
0.00685213
-1.90903e-05
-0.00522028
-0.00538968
-0.00103482
0.00390904
0.00383221
0.00229669
-0.00158048
-0.00277588
-0.00044541
0.000935462
0.000659043
-0.000412844
-0.00051447
-6.87241e-06
0.000149819
-0.000209489
-9.09678e-06
0.000123534
-3.72246e-05
3.58772e-05
0.000182392
-0.000133857
-0.000244232
-0.000130102
-3.06481e-05
0.000221868
2.9789e-05
-0.000260286
-0.000170263
-9.63816e-06
6.95276e-05
6.71541e-05
1.20554e-05
8.59832e-05
2.28303e-05
-0.000127728
-1.9216e-05
0.000125756
7.63875e-05
2.7588e-06
3.61789e-06
5.77559e-06
5.93964e-06
3.32379e-19
-3.13981e-19
2.45526e-19
-1.48435e-18
3.35915e-18
-9.49072e-18
2.3552e-17
-5.62059e-17
1.21592e-16
-2.39352e-16
4.28573e-16
-7.18304e-16
1.17778e-15
-1.92503e-15
3.13167e-15
-4.30697e-15
2.64769e-15
9.45933e-16
-1.06915e-14
4.07008e-14
-8.49997e-14
1.38556e-13
-1.89308e-13
2.50389e-13
-3.60981e-13
5.38496e-13
-8.09195e-13
1.43653e-12
-2.19852e-12
3.31238e-12
-4.36104e-12
5.38005e-12
-7.58998e-12
1.34812e-11
-2.06888e-11
3.19372e-11
-3.51288e-11
4.56768e-11
-4.52976e-11
2.55318e-11
-5.65398e-12
-1.55853e-11
7.84678e-11
-3.4068e-10
5.41857e-10
5.57645e-11
-2.07043e-09
7.60067e-09
-2.05039e-08
5.52728e-08
-2.69387e-08
-8.56646e-08
-9.28292e-07
-9.71327e-06
-1.90926e-05
-0.000495773
0.000237471
0.00149551
5.69777e-05
-0.000276992
-0.000247183
-0.00919276
0.00088565
0.0170071
0.00900797
-0.0151826
-0.0174784
-0.000276343
0.0148006
0.013355
-0.00214861
-0.0108654
-0.0101872
-0.000779846
0.00860278
0.00919055
0.00298754
-0.00628896
-0.00709512
-0.00242318
0.00509177
0.00545055
0.000429326
-0.00370694
-0.00162722
0.000979119
0.000765463
-0.000405901
-0.000244468
0.000183861
-0.000237353
-4.24862e-05
0.000263706
4.92453e-05
2.50583e-05
0.000130543
-3.36254e-05
-0.000251134
-0.000131636
-8.52976e-05
0.000140644
0.000143736
-0.000180935
-0.000222495
-8.11089e-05
7.87959e-06
5.21745e-05
2.74522e-05
3.4518e-05
8.26339e-05
-6.23252e-05
-0.000120592
4.83205e-05
0.000127036
3.99433e-05
-7.81557e-06
6.37402e-06
6.50794e-06
6.5182e-06
4.21686e-19
-1.05734e-19
3.69325e-19
-1.09461e-18
3.11438e-18
-8.45925e-18
2.239e-17
-5.48278e-17
1.2399e-16
-2.55287e-16
4.87279e-16
-8.81399e-16
1.55534e-15
-2.66919e-15
4.24689e-15
-5.62069e-15
5.50444e-15
-2.08601e-15
-1.04069e-14
4.33504e-14
-9.68517e-14
1.52509e-13
-1.73497e-13
1.89728e-13
-2.60547e-13
3.19894e-13
-2.83566e-13
7.27741e-14
1.15043e-14
-3.30676e-13
2.14321e-12
-3.60214e-12
2.69859e-12
4.11466e-13
-7.83957e-12
2.02035e-11
-2.54613e-11
2.16852e-11
-1.60909e-11
-2.31395e-12
3.22275e-11
-9.03931e-11
1.873e-10
-4.22023e-10
7.52136e-10
5.83427e-11
-5.38377e-09
1.99754e-08
-5.48762e-08
5.03872e-08
8.69583e-08
-5.99329e-07
1.93527e-06
-1.14338e-05
6.11505e-05
-0.000150307
-0.00137167
0.00184342
0.00240439
0.000709072
-0.00114117
-0.00779173
-0.0101442
0.0138915
0.0209409
0.000796374
-0.0211402
-0.0190685
0.0029401
0.0177797
0.0150522
-0.00193556
-0.0122106
-0.0116292
-0.000283831
0.00985539
0.00963973
-0.000247369
-0.00904429
-0.00700102
0.00272387
0.00640637
0.00102282
-0.0036205
-0.00108731
0.00122612
0.000378655
-9.02054e-05
6.51893e-05
-0.000243382
1.64275e-05
0.000395773
0.000136756
-5.31595e-05
9.1307e-05
2.50519e-05
-0.000165212
-0.000195921
-0.00010687
4.22767e-05
0.000210612
-7.90444e-05
-0.00022318
-0.000118839
-4.65609e-05
1.38249e-05
3.68867e-05
2.44905e-05
6.45587e-05
3.22139e-05
-0.000128857
-7.0804e-05
0.000102219
0.000104037
6.88372e-06
-1.11612e-05
1.07328e-05
7.2862e-06
7.03926e-06
6.19954e-19
2.66111e-19
5.05934e-19
-3.18405e-19
2.15467e-18
-4.96518e-18
1.52386e-17
-3.89656e-17
9.59591e-17
-2.13597e-16
4.45285e-16
-8.71458e-16
1.62794e-15
-2.87649e-15
4.67276e-15
-6.59379e-15
7.556e-15
-5.01593e-15
-5.89613e-15
2.99562e-14
-6.38293e-14
8.6897e-14
-8.48108e-14
5.58532e-14
4.6064e-15
-9.44527e-14
2.35379e-13
-3.5807e-13
2.38638e-13
-1.84689e-13
5.19958e-13
-1.75006e-12
3.49591e-12
-3.8988e-12
-6.04405e-13
9.3564e-12
-1.7061e-11
1.78006e-11
1.09145e-12
-4.1534e-11
1.02097e-10
-2.04573e-10
3.71555e-10
-4.14339e-10
-4.6145e-11
2.63325e-09
-6.27607e-09
1.025e-08
-8.81265e-09
-2.32265e-08
8.28995e-08
-1.53748e-07
-1.37077e-07
8.86613e-06
-6.45566e-05
0.000619838
-0.00427751
-0.000559131
0.00692869
0.00447283
-0.000383129
-0.00912265
-0.0171284
0.0023794
0.0266041
0.0204097
-0.013317
-0.0252746
-0.0174433
0.0117254
0.0195122
0.0145038
-0.00770744
-0.0150058
-0.011527
0.00635677
0.0123368
0.00590027
-0.00854668
-0.0078517
0.00286492
0.00529422
-0.000950403
-0.00257204
0.000418129
0.000877419
0.000129478
-0.000102297
-0.000206571
0.000164174
0.000477663
0.00015418
-0.000161287
-6.36448e-06
6.39501e-05
-8.25128e-05
-0.000210023
-0.000177834
-2.59473e-05
0.00019196
5.7607e-05
-0.000194871
-0.000112006
-8.15274e-05
-3.49679e-05
2.78575e-05
3.11281e-05
4.39648e-05
6.3804e-05
-4.88066e-05
-0.000148945
5.47543e-07
0.000127676
6.46357e-05
-1.66941e-05
-8.07424e-06
1.57285e-05
8.08673e-06
7.49972e-06
7.65123e-19
5.84877e-19
6.76675e-19
3.5051e-19
1.34475e-18
-1.87697e-18
8.29177e-18
-2.15125e-17
5.86652e-17
-1.38295e-16
3.062e-16
-6.24721e-16
1.1958e-15
-2.11499e-15
3.47252e-15
-5.34094e-15
7.05002e-15
-7.4288e-15
3.21753e-15
1.04366e-14
-2.46675e-14
2.26415e-14
-8.95476e-15
-2.8685e-14
8.86313e-14
-1.90005e-13
4.19159e-13
-6.62985e-13
7.9833e-13
-9.67725e-13
1.35979e-12
-2.4638e-12
4.22649e-12
-4.44589e-12
2.17295e-12
3.61289e-12
-1.40158e-11
1.80207e-11
-7.61946e-12
-8.02583e-12
7.44097e-11
-2.14326e-10
3.22352e-10
-2.88978e-10
8.57468e-11
3.04598e-10
8.64628e-11
-1.39995e-09
2.94615e-09
-1.05472e-08
-2.16994e-08
2.71968e-07
-2.46278e-06
2.20045e-05
3.4321e-05
0.0014781
-0.00343057
-0.0111565
0.00678301
0.0161139
0.00966197
-0.0104204
-0.0258553
-0.0150908
0.0251353
0.0317596
0.00614667
-0.0259963
-0.026815
-0.00416837
0.0203608
0.0218406
0.00349252
-0.0163251
-0.0167106
0.000897826
0.0129769
0.0052027
-0.00767547
-0.00355232
0.0039039
0.00116031
-0.00225113
7.48176e-05
0.000922709
0.000149126
-0.000260163
-0.000141685
0.000258819
0.000406225
1.22629e-05
-0.000283513
-0.000121115
9.22676e-05
1.22736e-06
-0.000147227
-0.000248946
-8.20991e-05
0.00013583
0.000170658
-9.96724e-05
-0.000113059
-7.24983e-05
-9.86946e-05
1.33201e-05
3.61454e-05
3.35344e-05
5.95994e-05
1.91781e-05
-0.00012208
-0.000115054
6.68152e-05
0.000119773
2.15055e-05
-2.79875e-05
-5.14309e-07
2.07827e-05
8.53474e-06
7.55916e-06
8.72183e-19
8.06021e-19
8.05414e-19
7.73187e-19
8.27074e-19
4.32987e-19
2.57304e-18
-6.10113e-18
2.27459e-17
-6.06066e-17
1.54371e-16
-3.48653e-16
7.29966e-16
-1.40718e-15
2.51983e-15
-4.12403e-15
6.01514e-15
-7.28812e-15
6.13602e-15
-1.26439e-15
-4.21788e-15
1.59376e-15
1.28015e-14
-3.23404e-14
7.07021e-14
-1.47945e-13
3.06819e-13
-5.38707e-13
7.80741e-13
-1.0014e-12
1.55489e-12
-2.37764e-12
3.28608e-12
-4.23677e-12
3.27037e-12
1.75278e-12
-9.4602e-12
1.89774e-11
-2.27784e-11
8.80736e-12
2.22335e-11
-1.09143e-10
2.03891e-10
-1.88497e-10
5.7536e-11
-2.03864e-10
8.72481e-10
-1.88938e-09
3.17891e-09
-1.08605e-09
-3.52101e-08
2.96733e-07
-2.68946e-06
3.75336e-05
5.44972e-05
-0.000518913
0.0110634
-0.0219596
-0.00947216
0.0220433
0.0239296
-0.00199957
-0.0295562
-0.0256089
0.0160632
0.0352994
0.0190234
-0.0224934
-0.0290119
-0.0133977
0.0180418
0.0222767
0.00749244
-0.0161741
-0.014357
0.00495979
0.00985039
-0.00150008
-0.00426376
0.00159356
0.000736374
-0.00109433
9.36105e-05
0.00058234
2.70632e-05
-0.000294253
-9.20194e-05
0.000222644
0.000186056
-0.000190437
-0.000348125
-0.00010155
0.000158946
0.00012939
-8.21162e-05
-0.000250104
-0.000182418
9.44024e-05
0.00020357
3.83592e-05
-0.000122497
-5.93793e-05
-0.000120684
-3.03466e-05
6.4619e-05
1.93388e-05
4.61475e-05
5.02624e-05
-5.1248e-05
-0.000154779
-4.71056e-05
0.000107937
8.62714e-05
-1.36201e-05
-2.76651e-05
9.12678e-06
2.45617e-05
8.6972e-06
7.31677e-06
9.0044e-19
8.77138e-19
8.78121e-19
8.68107e-19
8.13887e-19
8.63949e-19
1.21742e-18
-1.39131e-18
9.42772e-18
-2.61756e-17
7.3867e-17
-1.7491e-16
3.83435e-16
-7.62342e-16
1.38508e-15
-2.40073e-15
3.86011e-15
-5.43456e-15
6.7004e-15
-6.12859e-15
2.73137e-15
6.91993e-16
6.00049e-15
-9.58661e-15
2.60518e-14
-7.40834e-14
1.41012e-13
-2.93429e-13
4.7158e-13
-6.44146e-13
9.86473e-13
-1.49391e-12
2.3947e-12
-3.21685e-12
2.51099e-12
-3.60682e-13
-6.1209e-12
1.75204e-11
-3.04082e-11
4.12459e-11
-3.6897e-11
2.73887e-11
-2.30835e-11
1.9268e-11
6.22373e-11
-3.09193e-10
3.87081e-10
7.28912e-10
-3.17957e-09
6.32117e-09
-5.5991e-09
-1.87707e-07
3.75731e-06
-2.31707e-05
7.15738e-06
-0.000781127
0.00132306
0.00685198
-0.0188792
-0.00317602
0.0269229
0.0108512
-0.0243464
-0.0259499
0.0121463
0.0311712
0.0131495
-0.0209256
-0.0238598
-0.00390685
0.0170231
0.0148355
-0.0057842
-0.012998
-2.77785e-05
0.00768223
0.000371119
-0.00263835
0.000371889
0.000461204
-0.000421399
8.34721e-06
0.000238783
-5.56319e-05
-0.00019001
-2.82844e-05
0.000120454
-3.86554e-05
-0.000302111
-0.00028904
4.54379e-05
0.000274884
0.000217089
-7.24999e-05
-0.000282367
-0.000289544
3.89747e-05
0.000194968
0.000140148
-8.97635e-05
-8.80844e-05
-7.08505e-05
-7.5019e-05
7.79499e-05
3.93624e-05
9.07588e-06
6.48419e-05
6.28065e-06
-0.000117732
-0.000137238
2.57191e-05
0.000116502
4.09487e-05
-3.44743e-05
-1.88982e-05
1.85295e-05
2.66675e-05
8.27815e-06
6.59349e-06
7.80399e-19
7.74931e-19
7.88207e-19
7.82474e-19
7.28931e-19
8.01751e-19
5.89579e-19
6.10031e-19
2.06859e-18
-5.44914e-18
2.17806e-17
-6.05271e-17
1.56763e-16
-3.60075e-16
7.60977e-16
-1.45205e-15
2.52719e-15
-3.83491e-15
4.89512e-15
-4.98067e-15
2.67389e-15
9.99448e-16
-1.82772e-15
1.12611e-15
1.9627e-15
-2.76103e-14
8.3633e-14
-1.60102e-13
2.58893e-13
-3.68328e-13
5.1511e-13
-8.67122e-13
1.38136e-12
-1.8334e-12
2.16869e-12
-9.40405e-13
-3.03575e-12
9.2126e-12
-2.08768e-11
3.47704e-11
-4.73342e-11
5.04646e-11
-2.78526e-11
-7.20783e-12
2.76884e-11
2.1542e-11
-2.14797e-10
1.5457e-11
4.59526e-10
-2.5704e-09
2.27711e-08
-2.70622e-07
2.77124e-06
-2.97395e-06
-1.1137e-05
0.000318804
-0.00127784
0.00138977
0.00189339
-0.00924126
0.0116431
0.003517
-0.0161273
-0.00716401
0.0159803
0.0155666
-0.00962855
-0.0172225
-0.00394565
0.0141531
0.00832103
-0.00525311
-0.00793156
0.00121662
0.00369165
-0.000207433
-0.00121253
0.000144619
0.000265262
-0.000187143
-0.000107398
5.95397e-05
-3.68843e-06
-2.9846e-05
5.07019e-05
3.44731e-05
-0.000155662
-0.000287051
-0.000125285
0.000206497
0.00035267
0.000214184
-0.000124523
-0.000344057
-0.000310181
1.9521e-05
0.000230951
0.000182277
1.66173e-06
-0.00012486
1.05822e-07
-4.46442e-05
3.21818e-05
8.37308e-05
-1.88617e-05
3.78193e-05
5.52565e-05
-6.47942e-05
-0.00015209
-8.17105e-05
8.07211e-05
9.64613e-05
-2.37881e-06
-4.01434e-05
-4.49152e-06
2.59642e-05
2.65114e-05
7.49295e-06
5.60719e-06
4.25925e-19
3.93306e-19
3.56794e-19
3.65608e-19
3.799e-19
3.8145e-19
4.28589e-19
3.49658e-19
7.84395e-19
-1.54462e-18
7.35338e-18
-2.14094e-17
6.02313e-17
-1.47287e-16
3.28108e-16
-6.51426e-16
1.19206e-15
-1.95984e-15
2.75807e-15
-3.4334e-15
3.34592e-15
-1.4654e-15
-9.28564e-16
3.32488e-15
-4.79921e-15
-9.38294e-15
4.21931e-14
-8.79006e-14
1.51031e-13
-1.92863e-13
2.01238e-13
-3.45597e-13
5.87253e-13
-9.57108e-13
1.2623e-12
-7.20009e-13
-5.5286e-13
4.12422e-12
-1.07409e-11
1.83957e-11
-2.56246e-11
2.69307e-11
-2.34461e-11
1.659e-11
-1.30725e-11
-7.95525e-13
1.16566e-11
-3.92146e-11
4.09345e-11
-1.14089e-10
-4.61694e-09
7.31447e-08
-1.01607e-06
7.55235e-07
9.58862e-07
1.62549e-05
0.000163882
-0.000496203
3.69644e-05
0.00202611
-0.00308624
-0.00466565
0.00648616
0.00805232
-0.00317154
-0.00992425
-0.00098205
0.00516927
0.00350463
-0.000521381
-0.00296021
-0.00126878
0.0011159
0.00109197
-0.000357193
-0.000453277
0.000153203
0.00013727
-0.000139466
-0.000118441
4.64034e-05
0.000102428
9.7177e-05
8.66573e-05
-2.16012e-05
-0.000197314
-0.000228844
2.11511e-05
0.000286721
0.000329493
0.000152633
-0.000148253
-0.000314
-0.000226899
3.9395e-05
0.000252874
0.000156947
5.94271e-05
-0.000125864
8.85744e-06
5.55868e-05
-3.87731e-05
6.84512e-05
1.62837e-06
-3.002e-05
6.53884e-05
-3.36073e-06
-0.000128815
-0.000139261
-1.18034e-05
0.000105115
5.85932e-05
-3.39334e-05
-3.26118e-05
1.10292e-05
3.02667e-05
2.4721e-05
6.13976e-06
4.21938e-06
-3.2015e-19
-2.50745e-19
-2.32697e-19
-1.77659e-19
-1.1032e-19
-7.51925e-20
-1.48866e-20
1.80966e-20
-1.35304e-20
1.66579e-19
2.33674e-19
-2.42552e-18
1.12596e-17
-3.66565e-17
1.01801e-16
-2.41407e-16
4.99883e-16
-9.30052e-16
1.49556e-15
-2.1339e-15
2.62421e-15
-1.78751e-15
-3.22878e-16
2.67749e-15
-2.51807e-15
-2.84296e-15
2.01628e-14
-4.80709e-14
8.20776e-14
-1.01271e-13
9.83349e-14
-1.44577e-13
3.19844e-13
-5.34743e-13
6.99832e-13
-6.59734e-13
1.26881e-13
1.55721e-12
-3.84494e-12
6.48263e-12
-8.76308e-12
9.4646e-12
-1.00969e-11
9.17005e-12
-5.41926e-12
-1.57966e-12
1.73133e-11
-2.12681e-11
-3.77083e-11
3.56911e-10
-3.86601e-09
1.8051e-08
-9.63404e-08
-4.11707e-07
3.25881e-09
-1.73719e-05
9.56753e-06
8.80289e-05
-5.10561e-05
-0.000186711
0.000251835
0.000587403
-0.000376552
-0.00113227
-0.000787253
0.000915458
0.00185007
-7.30885e-05
-0.00090371
-0.000580606
7.94859e-05
0.000305423
0.000137719
-0.000206221
-0.000164469
9.90478e-05
5.33707e-05
-0.000142667
-9.30674e-05
9.1641e-05
0.00017126
0.000139845
6.38977e-05
-6.90926e-05
-0.000201201
-0.000163655
8.59471e-05
0.000282279
0.000237068
7.66092e-05
-0.000130822
-0.000235503
-0.000147004
3.45265e-05
0.000194248
9.22943e-05
2.27784e-05
-7.82287e-05
-4.42862e-05
0.000146892
-4.47404e-05
-1.91401e-05
5.60329e-05
-6.73138e-05
5.92571e-06
5.0801e-05
-7.92126e-05
-0.000151586
-8.91797e-05
4.68764e-05
9.751e-05
1.73622e-05
-4.85361e-05
-1.76782e-05
2.4413e-05
3.13244e-05
2.14914e-05
4.46273e-06
2.6123e-06
-8.17179e-19
-5.63092e-19
-5.27015e-19
-4.79673e-19
-4.87043e-19
-4.32889e-19
-3.76096e-19
-3.26709e-19
-2.37879e-19
-1.84167e-19
-1.66597e-19
-2.88264e-20
4.29431e-19
-3.44145e-18
1.40271e-17
-4.36127e-17
1.08679e-16
-2.40296e-16
4.55764e-16
-7.32452e-16
1.07351e-15
-1.0994e-15
3.95385e-17
1.2212e-15
-1.33545e-15
-1.3838e-15
1.03907e-14
-2.45277e-14
4.4716e-14
-4.69668e-14
2.52303e-14
-3.02196e-14
9.09145e-14
-1.7919e-13
3.0352e-13
-3.91614e-13
2.84832e-13
-2.46368e-14
-4.341e-14
-4.89113e-14
2.95804e-13
-6.06359e-13
6.7815e-13
-1.7031e-12
2.60886e-12
-1.34837e-12
-2.05198e-12
3.04486e-12
5.81382e-12
-1.89151e-11
3.63762e-09
-3.74957e-08
1.94121e-07
-2.08128e-08
-4.68423e-07
5.89737e-06
-1.05133e-05
-7.72746e-06
1.80513e-05
1.68154e-05
-2.94925e-05
1.1868e-06
2.69729e-05
-4.48268e-05
0.000224555
0.000260081
-0.000164542
-0.000210767
1.56673e-05
5.99323e-05
5.87603e-05
-1.30127e-05
-0.000105493
-6.15953e-05
6.22426e-05
1.19391e-05
-0.000131607
-7.94073e-05
9.68849e-05
0.000168747
0.000118667
2.81671e-05
-7.29034e-05
-0.000139896
-8.58099e-05
8.03929e-05
0.000202296
0.0001434
2.38675e-05
-0.000101865
-0.000167573
-0.000122785
-1.74686e-05
7.30315e-05
3.14774e-05
-6.10051e-05
-1.73266e-05
-6.7133e-05
0.000161517
4.59578e-05
-0.000116868
7.04725e-05
-2.49299e-05
-9.40527e-05
5.0813e-05
1.64003e-06
-0.000130916
-0.000130477
-2.87539e-05
7.81003e-05
6.82433e-05
-1.59232e-05
-4.78153e-05
-8.17367e-07
3.33989e-05
2.96125e-05
1.75347e-05
2.52728e-06
8.78051e-07
-6.99071e-19
-6.70407e-19
-5.99406e-19
-5.8962e-19
-4.63006e-19
-4.36747e-19
-3.70125e-19
-3.41253e-19
-3.38449e-19
-2.5762e-19
-3.99359e-19
3.10236e-19
-1.7994e-18
3.66477e-18
-8.15534e-18
1.34086e-17
-1.66697e-17
9.04343e-18
3.00432e-17
-1.03078e-16
1.99094e-16
-2.44166e-16
-1.82103e-16
8.93916e-16
-1.03594e-15
-6.99859e-17
4.65511e-15
-1.20251e-14
2.09166e-14
-2.0531e-14
9.47062e-15
-6.01931e-15
2.14217e-14
-6.79417e-14
1.3832e-13
-2.11142e-13
2.72193e-13
-3.13641e-13
3.55651e-13
-4.20332e-13
4.48305e-13
-4.12872e-13
2.9566e-13
-2.51397e-13
2.55244e-13
2.41396e-13
-1.5746e-12
2.07763e-12
2.43161e-11
1.83059e-10
1.8927e-09
1.75259e-08
3.00245e-08
4.78421e-08
-1.05908e-07
-1.89575e-07
2.99991e-06
-1.55429e-07
-2.54193e-06
9.367e-07
7.17392e-06
-1.57648e-06
-3.5769e-06
2.84472e-05
2.35828e-05
-3.71336e-05
-2.03789e-05
3.18583e-05
-2.39053e-06
8.96675e-06
1.48296e-05
-6.01397e-05
-4.25887e-05
5.16052e-05
1.79761e-05
-9.91045e-05
-7.57398e-05
5.85557e-05
0.000115604
6.7867e-05
9.53856e-06
-3.96716e-05
-7.09105e-05
-4.21253e-05
6.77779e-05
0.000174445
0.000148432
3.14943e-05
-7.2812e-05
-0.0001321
-0.000125403
-7.01174e-05
-2.59255e-05
-2.2408e-05
-8.9624e-05
-4.76863e-06
-3.28663e-06
9.81864e-05
0.000155699
-0.000133838
1.94053e-06
6.11137e-05
-0.000156766
-4.07678e-05
7.59393e-05
-6.38367e-05
-0.000147234
-8.58917e-05
2.04613e-05
8.1713e-05
3.19043e-05
-3.66858e-05
-3.70472e-05
1.46442e-05
3.76106e-05
2.60315e-05
1.32887e-05
6.46111e-07
-7.52819e-07
-5.41255e-19
-5.02083e-19
-5.24278e-19
-5.55078e-19
-4.57919e-19
-4.01228e-19
-4.11657e-19
-4.06752e-19
-4.00395e-19
-3.99644e-19
-3.0906e-19
-5.835e-19
1.78145e-19
-1.22471e-18
8.56243e-19
-1.31753e-18
-9.63798e-19
3.48677e-18
-8.78528e-18
1.26633e-17
-2.70152e-17
4.51996e-17
-1.88765e-16
5.02655e-16
-6.26422e-16
4.32085e-16
6.14564e-16
-4.28232e-15
8.4463e-15
-1.10536e-14
1.14209e-14
-1.1367e-14
1.81065e-14
-3.7755e-14
6.45763e-14
-9.91755e-14
1.40176e-13
-1.75254e-13
2.02855e-13
-2.19784e-13
2.19891e-13
-1.78157e-13
1.10308e-13
-5.73628e-14
-1.11196e-13
4.65868e-13
-7.85989e-13
4.73868e-13
2.99307e-11
3.76235e-10
2.5547e-09
2.57074e-08
3.41002e-08
6.01326e-08
8.01775e-08
1.62814e-07
1.58451e-07
8.30075e-07
1.04676e-06
1.56204e-07
5.78718e-07
-4.18234e-07
5.82448e-06
3.47693e-06
-1.01543e-05
3.41766e-06
1.57068e-05
-1.27204e-05
-7.29821e-06
3.21053e-05
-2.09641e-05
-4.9475e-05
3.13432e-05
4.20202e-05
-5.07491e-05
-6.6831e-05
2.05048e-05
6.3076e-05
2.78592e-05
-7.65506e-06
-2.37543e-05
-3.9722e-05
-2.77744e-05
4.30488e-05
0.00013549
0.000157247
6.52161e-05
-3.22375e-05
-9.10186e-05
-0.000110387
-9.91898e-05
-8.47049e-05
-7.67247e-05
-8.10551e-05
-3.556e-05
8.07863e-05
5.15079e-05
0.00017907
-5.21292e-05
-9.89919e-05
9.91142e-05
-0.000130211
-0.000183671
7.71689e-05
4.47693e-05
-0.000126676
-0.000130592
-3.64499e-05
4.99211e-05
6.64977e-05
-3.45467e-08
-4.43936e-05
-2.13303e-05
2.59462e-05
3.77377e-05
2.16748e-05
9.35019e-06
-1.05538e-06
-2.18535e-06
-9.9501e-20
-1.00348e-19
-9.73864e-20
-1.30239e-19
-2.00115e-19
-2.08977e-19
-3.47489e-19
-4.75713e-19
-5.19911e-19
-4.82987e-19
-5.36222e-19
-4.58885e-19
-7.11797e-19
-5.22936e-19
-5.95468e-19
-1.08235e-18
1.40335e-19
-1.85206e-18
-6.45576e-19
1.14048e-18
-6.69294e-18
1.23117e-17
-3.53794e-17
1.18327e-16
-2.51645e-16
3.09903e-16
-3.02838e-16
-8.83462e-16
2.19392e-15
-3.89874e-15
5.60226e-15
-6.84393e-15
9.74825e-15
-1.41985e-14
1.99886e-14
-2.65774e-14
3.33642e-14
-3.92489e-14
4.20413e-14
-4.29797e-14
3.93414e-14
-2.30357e-14
2.64723e-15
3.31762e-14
-1.11085e-13
2.57593e-13
-3.5147e-13
1.19507e-12
3.50424e-11
3.98293e-10
3.60787e-09
1.87463e-08
2.97686e-08
4.01095e-08
8.00909e-08
1.1363e-07
1.31135e-07
2.17271e-07
4.92416e-07
6.72135e-07
3.07997e-07
1.02481e-06
2.05153e-06
-3.79232e-06
-1.17999e-07
9.58984e-06
-5.9661e-06
-1.2165e-05
1.92625e-05
1.03637e-05
-3.94237e-05
-2.93514e-06
4.66278e-05
-7.09858e-06
-5.78164e-05
-1.52362e-06
5.26562e-05
1.5267e-05
-2.67587e-05
-2.39966e-05
-1.82433e-05
-1.98582e-05
1.1065e-05
8.61708e-05
0.000131593
9.96826e-05
1.63279e-05
-3.94533e-05
-7.6075e-05
-0.000101124
-0.000115954
-0.000118766
-9.25096e-05
-4.76636e-05
7.67641e-05
8.6053e-05
9.90296e-05
5.2214e-05
-0.000159251
3.45441e-05
-4.40031e-05
-0.00026768
-2.31166e-05
0.000138326
-5.3724e-05
-0.00015928
-8.89177e-05
7.17706e-06
6.08959e-05
4.36009e-05
-2.15697e-05
-4.1386e-05
-5.59621e-06
3.25571e-05
3.49649e-05
1.69113e-05
5.78689e-06
-2.48315e-06
-3.33504e-06
-2.30161e-19
-2.89828e-19
-2.855e-19
-1.87555e-19
-3.47883e-19
-5.93699e-19
-5.78739e-19
-6.4838e-19
-6.97013e-19
-7.76751e-19
-8.02196e-19
-9.56563e-19