/*--------------------------------*- C++ -*----------------------------------*\
| =========                 |                                                 |
| \\      /  F ield         | OpenFOAM: The Open Source CFD Toolbox           |
|  \\    /   O peration     | Version:  2.2.x                                 |
|   \\  /    A nd           | Web:      www.OpenFOAM.org                      |
|    \\/     M anipulation  |                                                 |
\*---------------------------------------------------------------------------*/
FoamFile
{
    version     2.0;
    format      ascii;
    class       volScalarField;
    location    "0.7";
    object      pB;
}
// * * * * * * * * * * * * * * * * * * * * * * * * * * * * * * * * * * * * * //

dimensions      [1 1 -3 0 0 -1 0];

internalField   nonuniform List<scalar> 
14161
(
-6.46549e-08
-1.25975e-08
-4.86358e-08
-8.54786e-08
-1.47005e-07
-2.41578e-07
-3.91067e-07
-6.23584e-07
-9.80307e-07
-1.51817e-06
-2.31514e-06
-3.47434e-06
-5.12971e-06
-7.44824e-06
-1.06354e-05
-1.49258e-05
-2.0594e-05
-2.79296e-05
-3.72233e-05
-4.87409e-05
-6.28301e-05
-7.92998e-05
-9.89309e-05
-0.00012063
-0.000144757
-0.000172499
-0.000197834
-0.000227041
-0.000257846
-0.000276384
-0.000305967
-0.000322624
-0.000329141
-0.00031108
-0.000277086
-0.00022703
-0.000159776
-7.54685e-05
-1.70052e-05
0.000148991
0.000310765
0.000552242
0.000815576
0.00113495
0.00148859
0.00192517
0.00237685
0.00295377
0.00362144
0.0043952
0.00510278
0.00606985
0.00419253
-0.00514902
0.000934746
-0.00164621
0.00417781
0.00377667
0.00362723
0.00211393
0.00220098
0.00203517
0.00186554
0.00178338
0.0010199
0.00137956
0.00112862
0.000514848
0.000681162
0.000503469
-4.51195e-05
-0.000207355
-0.000181399
-0.000592118
-0.000843119
-0.00076175
-0.00108129
-0.00131967
-0.00143259
-0.00151116
-0.00145277
-0.0020132
-0.00163334
-0.00165464
-0.00120079
-0.00196757
-0.00276946
-0.00149759
-0.00337945
-0.0026867
-0.00293805
-0.00446639
-0.00401057
-0.0060718
-0.00858297
-0.0136464
-0.0154402
-0.0190483
-0.0149735
-0.0099588
-0.00852486
-0.00659491
-0.00511261
-0.00394131
-0.00298263
-0.00233361
-0.00186574
-0.00158605
-0.00121478
-0.000986883
-0.000636104
-0.000533791
-0.000845541
-0.00111747
-0.00133817
-0.00185738
-0.00354044
0.00341329
-0.0319364
-6.49812e-08
-1.25778e-08
-4.89902e-08
-8.59126e-08
-1.47715e-07
-2.42668e-07
-3.92739e-07
-6.26101e-07
-9.84053e-07
-1.52371e-06
-2.32311e-06
-3.48567e-06
-5.14541e-06
-7.46946e-06
-1.06621e-05
-1.49595e-05
-2.06357e-05
-2.79715e-05
-3.72704e-05
-4.87963e-05
-6.28284e-05
-7.94171e-05
-9.89798e-05
-0.00012071
-0.000144999
-0.000172059
-0.000198342
-0.000226924
-0.000257596
-0.000278752
-0.000305779
-0.000325525
-0.000330197
-0.000316895
-0.000283448
-0.000234811
-0.000168069
-7.86079e-05
-2.43291e-05
0.000130558
0.000296078
0.000520802
0.000777004
0.00108716
0.00143657
0.00186817
0.00231573
0.00294807
0.0036753
0.00452794
0.00567585
0.00672543
0.00656257
-0.00784647
0.0017681
0.00111679
0.00233946
0.00292009
0.00318358
0.00127168
0.00113429
0.000809109
7.69817e-05
-0.000422542
-0.000976316
-0.00121114
-0.00090178
-0.00109329
-0.00160868
-0.00140353
-0.00148695
-0.00173745
-0.00152698
-0.00161946
-0.00183956
-0.00167728
-0.00180551
-0.0019278
-0.00228625
-0.00257867
-0.00264403
-0.00329846
-0.00336012
-0.00367637
-0.00277322
-0.00362866
-0.00360222
-0.00255248
-0.00482323
-0.00443452
-0.00426703
-0.00480051
-0.00435691
-0.00480484
-0.00316017
-0.00114134
0.000379516
0.00167137
0.00238565
0.00141062
0.00113018
0.000742618
0.000558638
0.000415297
9.07057e-05
-7.50966e-05
-0.000128299
-8.95515e-05
2.3598e-05
0.000189481
0.000499873
0.000614835
0.000353573
0.000127988
-6.47037e-05
-0.000152629
-0.00256001
0.00439716
-0.0264347
-6.45249e-08
-1.25944e-08
-4.86984e-08
-8.54772e-08
-1.46998e-07
-2.4157e-07
-3.91066e-07
-6.23595e-07
-9.80351e-07
-1.51828e-06
-2.31527e-06
-3.47461e-06
-5.13028e-06
-7.44933e-06
-1.06371e-05
-1.49296e-05
-2.06039e-05
-2.7933e-05
-3.72496e-05
-4.87919e-05
-6.28474e-05
-7.94906e-05
-9.90362e-05
-0.000120851
-0.000145398
-0.000172222
-0.000200015
-0.000227223
-0.000258724
-0.000283163
-0.000305625
-0.000329102
-0.000333897
-0.000327863
-0.000301416
-0.000253727
-0.000193227
-0.000119287
-5.85109e-05
6.26288e-05
0.000230424
0.000419876
0.000649743
0.000924667
0.00123018
0.00162865
0.00205341
0.00267705
0.00328123
0.00405145
0.00518542
0.0049547
0.00666055
-0.0114735
0.00285837
0.00205538
0.00417283
0.00194007
0.00308653
0.00103692
0.00112915
0.00125071
0.00105077
0.0006396
0.000574826
0.000132369
-0.000218092
-5.68396e-05
-0.0003184
-0.000342443
-0.000587469
-0.000793009
-0.000748759
-0.00102885
-0.00161196
-0.00176847
-0.00182559
-0.00184265
-0.00242666
-0.00207208
-0.00159717
-0.00196304
-0.00239455
-0.00236015
-0.00165032
-0.0031687
-0.00330913
-0.00365712
-0.00526166
-0.00320288
-0.00364017
-0.00541954
-0.00417972
-0.00555334
-0.00725351
-0.00808508
-0.00488689
-0.00829971
-0.00216798
-7.08258e-05
-0.000486482
-0.00127133
-0.00148651
-0.00143923
-0.00103997
-0.000803514
-0.000564843
-0.000399898
-0.000168834
-4.71152e-05
0.000155077
6.64535e-05
-0.000267842
-0.000236801
-0.00040329
-3.74755e-05
-0.00305615
0.00359502
-0.0238198
-6.43753e-08
-1.25666e-08
-4.86865e-08
-8.54026e-08
-1.46865e-07
-2.41352e-07
-3.90744e-07
-6.23131e-07
-9.797e-07
-1.51741e-06
-2.31419e-06
-3.47337e-06
-5.12894e-06
-7.4482e-06
-1.06363e-05
-1.4931e-05
-2.06067e-05
-2.79412e-05
-3.72725e-05
-4.88218e-05
-6.28874e-05
-7.96381e-05
-9.9137e-05
-0.000121129
-0.000146228
-0.000172143
-0.000201532
-0.000228935
-0.000258701
-0.000289832
-0.000304294
-0.000337263
-0.000346632
-0.000337966
-0.00032793
-0.000287804
-0.000229289
-0.00016439
-9.35531e-05
-3.31183e-05
0.000125011
0.000291133
0.000489628
0.000694357
0.000924082
0.00130332
0.00169284
0.00228289
0.00281244
0.00365887
0.00459199
0.00480744
0.00724566
-0.00979032
0.00582527
0.00219098
0.00435633
0.00218784
0.00243689
0.00146475
0.00108526
0.000919078
0.000571101
0.000259504
-1.83458e-05
-0.000462269
-0.000677926
-0.000814629
-0.00047422
-0.000746623
-0.00100712
-0.00117276
-0.0010613
-0.00126529
-0.00156077
-0.00161465
-0.00170499
-0.00199673
-0.00242062
-0.00204313
-0.00203274
-0.00264892
-0.00269206
-0.00318832
-0.00348103
-0.00407631
-0.00249642
-0.00266636
-0.0032123
-0.0047332
-0.00368817
-0.00427084
-0.00376175
-0.00455771
-0.00275246
-0.00159231
-0.00132321
-0.00131461
-0.00144509
0.000668854
-1.58126e-05
0.000322741
0.000287478
0.0001209
-5.87109e-05
-0.000148608
-0.000169693
-0.000113068
2.05782e-05
0.000115811
0.000304172
0.000426108
0.000111355
-4.40465e-05
-0.000397495
-7.70437e-05
-0.00286465
0.00291103
-0.0207237
-6.39199e-08
-1.25635e-08
-4.84672e-08
-8.50252e-08
-1.4624e-07
-2.40386e-07
-3.89263e-07
-6.20897e-07
-9.76393e-07
-1.51262e-06
-2.30739e-06
-3.46397e-06
-5.11636e-06
-7.43205e-06
-1.06163e-05
-1.49078e-05
-2.05827e-05
-2.79222e-05
-3.72553e-05
-4.88416e-05
-6.29125e-05
-7.97757e-05
-9.93376e-05
-0.000121531
-0.000146862
-0.000172868
-0.000202856
-0.000232711
-0.0002599
-0.00029336
-0.000314109
-0.00034301
-0.000371515
-0.00034682
-0.000356262
-0.000338469
-0.000295763
-0.000221911
-0.000174939
-0.000113645
-6.23932e-05
9.12313e-05
0.000237021
0.0003825
0.000532695
0.000803156
0.000987844
0.00138612
0.00187057
0.00262976
0.00330974
0.00379095
0.00579379
-0.00230532
0.00533002
0.00424835
0.00540188
0.00403911
0.00226707
0.00200713
0.00166852
0.00165829
0.00145824
0.000623593
0.000793948
0.000317076
8.48889e-05
-7.60002e-05
-0.000313372
-0.000275424
-0.00072048
-0.00111077
-0.00138809
-0.00132204
-0.00149357
-0.00152822
-0.00154692
-0.00152426
-0.00209907
-0.00229658
-0.00209235
-0.00235493
-0.00281762
-0.00220216
-0.00254107
-0.00233235
-0.00222316
-0.00431174
-0.00395783
-0.00407256
-0.00256316
-0.0044548
-0.00328417
-0.00331792
-0.00265442
-0.00172685
-0.00172913
-0.00097353
0.00125277
0.00089387
0.000830526
0.000471238
0.000308129
0.00020632
0.00016219
0.000123882
0.00011287
0.000120443
0.000135537
0.000137519
0.000249187
0.00030879
4.68169e-05
-5.30257e-05
-0.000533126
-0.000253442
-0.00263704
0.00229247
-0.0180299
-6.34979e-08
-1.25475e-08
-4.82842e-08
-8.4695e-08
-1.45673e-07
-2.39492e-07
-3.87896e-07
-6.18855e-07
-9.73396e-07
-1.50833e-06
-2.30135e-06
-3.4557e-06
-5.10547e-06
-7.4181e-06
-1.05992e-05
-1.48895e-05
-2.05631e-05
-2.79068e-05
-3.72442e-05
-4.8863e-05
-6.2977e-05
-7.99604e-05
-9.95844e-05
-0.000122215
-0.000147566
-0.000174189
-0.000205238
-0.00023515
-0.000264682
-0.000296625
-0.000327154
-0.000349187
-0.000379447
-0.00039051
-0.000370421
-0.000398723
-0.000380737
-0.00032239
-0.000256037
-0.00027458
-0.000246333
-0.000181151
-0.000101986
2.63782e-05
0.00011716
0.000219981
0.000232384
0.000328758
0.000564855
0.0010011
0.00134561
0.00195531
0.00233312
0.00471003
0.00563601
0.00508374
0.00643272
0.00429203
0.0019949
0.00149277
0.0015773
0.00121086
0.00111775
0.000384281
0.00030796
2.81217e-05
7.9027e-05
0.000202215
-0.000202915
-0.000584542
-0.000288156
-0.000761743
-0.00101141
-0.00115891
-0.00137384
-0.00174918
-0.00172635
-0.00164378
-0.00227629
-0.00144274
-0.00170256
-0.00241977
-0.00209071
-0.00124313
-0.00250093
-0.00333273
-0.00372017
-0.00321552
-0.00275241
-0.00393124
-0.00321946
-0.00305037
-0.00236831
-0.00274929
-0.0022911
-0.00192163
-0.00112255
0.00034948
0.000623364
0.000897792
0.000822686
0.00064998
0.000599568
0.000511781
0.000405059
0.000282439
0.000209085
0.000193482
0.000203585
0.000201065
0.00030121
0.000319132
4.91914e-05
-2.12857e-05
-0.000627144
-0.000290615
-0.00232855
0.00181534
-0.0154548
-6.28227e-08
-1.25378e-08
-4.79461e-08
-8.41025e-08
-1.44682e-07
-2.3795e-07
-3.85531e-07
-6.1529e-07
-9.68103e-07
-1.50062e-06
-2.2904e-06
-3.44053e-06
-5.08499e-06
-7.39169e-06
-1.0566e-05
-1.48508e-05
-2.052e-05
-2.78706e-05
-3.72185e-05
-4.88641e-05
-6.30583e-05
-8.00852e-05
-9.99026e-05
-0.000122796
-0.000148614
-0.00017588
-0.000207142
-0.000239245
-0.000268468
-0.000302821
-0.00034369
-0.000362766
-0.000378451
-0.000440921
-0.000437107
-0.000409905
-0.000442189
-0.000479669
-0.000433971
-0.000375822
-0.000398255
-0.000481518
-0.000532974
-0.000505776
-0.000503045
-0.000409812
-0.000602177
-0.000814585
-0.00131823
-0.00173586
-0.00228384
-0.00178394
-0.00415692
0.017006
0.0089122
0.0066524
0.00831336
0.00686985
0.00448491
0.00311839
0.00312971
0.00245636
0.00147229
0.000809995
0.000258069
-0.00019476
-0.000619281
-0.000892752
-0.00117514
-0.00116806
-0.0013472
-0.00126446
-0.00123304
-0.00145257
-0.00180726
-0.00154894
-0.00150016
-0.00138448
-0.00181441
-0.00192248
-0.00144526
-0.001346
-0.00221218
-0.00320606
-0.00303745
-0.00275242
-0.00159927
-0.00298872
-0.00356212
-0.00372024
-0.00171596
-0.00100642
-0.00144363
-0.00251627
-0.00189296
-0.000873403
-8.58011e-05
0.000358724
0.000707904
0.000837286
0.000815953
0.000747272
0.000703844
0.000581827
0.000456476
0.000393376
0.00036736
0.00031755
0.000268911
0.000208373
0.000293941
0.000297047
8.99869e-06
-3.12759e-05
-0.00072712
-0.000396005
-0.00213392
0.00141268
-0.0133202
-6.21376e-08
-1.25157e-08
-4.75961e-08
-8.34938e-08
-1.43667e-07
-2.36356e-07
-3.83075e-07
-6.11581e-07
-9.62593e-07
-1.49262e-06
-2.27906e-06
-3.42485e-06
-5.06378e-06
-7.36455e-06
-1.05317e-05
-1.48099e-05
-2.04755e-05
-2.78304e-05
-3.7187e-05
-4.88614e-05
-6.31532e-05
-8.02453e-05
-0.000100399
-0.000123608
-0.000149508
-0.000178439
-0.000208809
-0.000244336
-0.00027473
-0.000311041
-0.000355301
-0.000379685
-0.000398003
-0.000472336
-0.000489946
-0.000461973
-0.000481003
-0.000611856
-0.000610221
-0.00058147
-0.000563527
-0.000680175
-0.00090904
-0.0010273
-0.00113862
-0.001112
-0.00140674
-0.00168807
-0.00251874
-0.00360294
-0.00523557
-0.00659845
-0.00847023
0.00962935
0.0118696
0.0122855
0.00586408
0.00561022
0.0029284
0.00319586
0.00154127
0.00119154
0.000510986
0.000513212
0.000120524
-5.56415e-05
-0.000435959
-0.000594566
-0.00102601
-0.00131061
-0.0012688
-0.00113583
-0.00115795
-0.00112391
-0.00114847
-0.00121139
-0.00136915
-0.00133006
-0.00132093
-0.00214474
-0.0024278
-0.00235104
-0.00245329
-0.000848336
-0.00207336
-0.00217478
-0.00262244
-0.00193521
-0.00233778
0.000577323
-0.00156271
-0.00172052
-0.00151585
-0.00157701
-0.000577462
-0.000220022
-0.0002795
0.000312925
0.000533561
0.000629413
0.000720317
0.000685724
0.000612825
0.000538885
0.000490681
0.00049405
0.000432689
0.000356849
0.000277499
0.000212615
0.000278554
0.000254453
-1.71177e-05
-1.11066e-05
-0.000732177
-0.000410339
-0.00190744
0.00111495
-0.0113936
-6.12098e-08
-1.24792e-08
-4.71061e-08
-8.26379e-08
-1.4222e-07
-2.34079e-07
-3.79559e-07
-6.06252e-07
-9.54659e-07
-1.481e-06
-2.2624e-06
-3.4016e-06
-5.03209e-06
-7.32257e-06
-1.04794e-05
-1.47462e-05
-2.04031e-05
-2.77626e-05
-3.7127e-05
-4.88376e-05
-6.32224e-05
-8.04045e-05
-0.000100656
-0.000124403
-0.000150731
-0.000180483
-0.000212584
-0.000246965
-0.00028431
-0.000321216
-0.000358324
-0.000402531
-0.000445076
-0.000470876
-0.000519323
-0.000579338
-0.000601096
-0.000628803
-0.000714057
-0.000821495
-0.000913969
-0.000963728
-0.00106277
-0.00130498
-0.00160252
-0.0018631
-0.00231749
-0.00278771
-0.00366415
-0.00486041
-0.00649218
-0.00770212
-0.00552849
0.00366014
0.0214815
0.0280911
0.00371143
0.00220195
-0.000535151
5.88209e-05
-0.000952119
-0.000643176
-0.00074729
-0.000605514
-0.00106456
-0.00090796
-0.0010614
-0.000672963
-0.000813837
-0.000902737
-0.000895785
-0.000984901
-0.00118055
-0.00111172
-0.00124257
-0.00132329
-0.0012833
-0.00152481
-0.00262405
-0.00156912
-0.00188602
-0.00155939
-0.00200425
-0.000941942
-0.00247972
-0.00107034
-0.00230994
0.00134527
-0.00122333
-0.00134056
-0.00116214
-0.00121112
-0.00108349
-0.000834585
1.70585e-05
-0.000492142
-8.93754e-05
0.000402235
0.000456512
0.000606367
0.000630181
0.00060445
0.000574475
0.000551436
0.000539003
0.000525118
0.000430606
0.000357318
0.000256953
0.000194951
0.000251887
0.000153348
-5.87588e-05
-3.62906e-05
-0.000766568
-0.000452544
-0.00178325
0.000856732
-0.00985225
-6.02448e-08
-1.24234e-08
-4.6575e-08
-8.17181e-08
-1.40675e-07
-2.31646e-07
-3.75786e-07
-6.00509e-07
-9.46073e-07
-1.46843e-06
-2.24436e-06
-3.37643e-06
-4.99776e-06
-7.27743e-06
-1.04225e-05
-1.46772e-05
-2.03219e-05
-2.76818e-05
-3.7054e-05
-4.87889e-05
-6.32615e-05
-8.05848e-05
-0.000101029
-0.000125322
-0.000151983
-0.000182545
-0.000216906
-0.000250284
-0.000292024
-0.000333477
-0.000364496
-0.000421247
-0.000478986
-0.000491464
-0.000534771
-0.000656749
-0.000702234
-0.000691058
-0.000767404
-0.000973276
-0.0011252
-0.00119081
-0.00124249
-0.00143137
-0.00180746
-0.00214968
-0.00252696
-0.00291467
-0.00336539
-0.00388838
-0.00437904
-0.00386966
-0.0014144
0.00726087
0.0393544
0.0221165
0.000551609
-0.000625879
-0.00228206
-0.00260532
-0.00270501
-0.0015282
-0.00161366
-0.00167893
-0.00148223
-0.000969118
-0.00124097
-0.000936504
-0.000937422
-0.000978162
-0.000799687
-0.000497697
-0.000786582
-0.000708649
-0.000843546
-0.00192715
-0.00115163
-0.00170253
-0.00121487
-0.00157619
-0.00163099
-0.00239015
-0.00121483
-0.000206305
-0.00155817
0.00206483
-0.000460898
-0.000109994
-0.000890592
-0.00054289
-0.000968922
-0.000860802
-0.000739079
-1.95033e-05
-0.000503689
-0.000309681
8.50722e-05
0.000410943
0.000399119
0.00052587
0.00054967
0.000560821
0.000563394
0.000551749
0.00052866
0.000489876
0.000389496
0.000326724
0.000225518
0.000177095
0.000199854
6.06781e-05
-9.21515e-05
-9.04655e-05
-0.000747758
-0.000436084
-0.00163185
0.000686003
-0.0085686
-5.90417e-08
-1.2347e-08
-4.58978e-08
-8.05374e-08
-1.38682e-07
-2.28495e-07
-3.70892e-07
-5.93039e-07
-9.34873e-07
-1.45195e-06
-2.22057e-06
-3.34295e-06
-4.9518e-06
-7.21595e-06
-1.03428e-05
-1.45797e-05
-2.02076e-05
-2.7559e-05
-3.69408e-05
-4.87134e-05
-6.32384e-05
-8.07437e-05
-0.000101384
-0.000125898
-0.000153234
-0.000184875
-0.000219617
-0.000256241
-0.000297778
-0.000343803
-0.000384512
-0.000432708
-0.000493831
-0.000544038
-0.000588499
-0.000667394
-0.000760316
-0.000826187
-0.000900908
-0.00101938
-0.00118429
-0.00132184
-0.00145032
-0.00160014
-0.00182809
-0.00219649
-0.00262256
-0.00305659
-0.00349177
-0.00461624
-0.00547779
-0.00777207
-0.00866943
0.0076788
0.0367978
-0.0101374
0.00528298
-0.00416033
-0.000795441
-0.00310881
-0.00255757
-0.00236222
-0.00207671
-0.00140249
-0.0011642
-0.00089485
-0.000869565
-0.00123843
-0.0012114
-0.00102989
-0.0013074
-0.000960549
-0.00165832
-0.00183135
-0.00102966
-0.00217503
-0.00113604
-0.00113226
-0.00147454
-0.00131204
-0.000281297
-0.00235083
8.59686e-05
0.00202931
0.000826961
0.000602265
-0.000116879
0.000113044
-8.15712e-05
-0.000464316
-0.000496601
-0.000692582
7.55823e-05
-0.000393476
-0.000159493
-8.55864e-05
0.000278586
0.000345241
0.000399684
0.000456659
0.000494796
0.000507102
0.000513888
0.000496567
0.000463725
0.00041686
0.000341738
0.000291654
0.000186513
0.000129449
9.75119e-05
-2.83896e-05
-0.000152983
-0.000183975
-0.000780849
-0.00047235
-0.00157534
0.000514938
-0.00758502
-5.77723e-08
-1.22544e-08
-4.51542e-08
-7.92505e-08
-1.36524e-07
-2.25073e-07
-3.65554e-07
-5.84862e-07
-9.22552e-07
-1.43377e-06
-2.19426e-06
-3.30579e-06
-4.90074e-06
-7.14743e-06
-1.02545e-05
-1.44711e-05
-2.00772e-05
-2.74117e-05
-3.67975e-05
-4.86022e-05
-6.31482e-05
-8.08681e-05
-0.00010176
-0.000126368
-0.000154973
-0.000186841
-0.000222157
-0.000263084
-0.000303232
-0.000350024
-0.000403441
-0.000447913
-0.000502686
-0.000578402
-0.000641055
-0.000684401
-0.000776965
-0.000899932
-0.00099631
-0.00106434
-0.00118997
-0.00135448
-0.00152061
-0.00165981
-0.00176882
-0.00199432
-0.00212053
-0.00239325
-0.00243676
-0.00224881
-0.00123333
0.00147045
0.00848586
0.0372353
0.000669713
-0.00509481
-0.00391456
-0.00243805
-0.00339489
-0.00333653
-0.00346689
-0.00262907
-0.00151677
-0.00153235
-0.00126483
-0.0014007
-0.000801117
-0.00156492
-0.00128176
-0.00128365
-0.00144225
-0.00107956
-0.00161177
-0.00181125
-0.000796656
-0.00185901
-0.000921308
-2.23296e-05
-0.000624944
-0.000756473
0.00196397
0.00184905
0.00169559
0.000885689
0.000729756
0.000971815
0.000396479
0.000279325
-8.61688e-05
-0.000139507
-0.000474742
0.000164084
-0.000310501
-3.90117e-05
-1.79868e-05
0.00016253
0.000352518
0.000343309
0.000421776
0.000455527
0.000488382
0.00048085
0.000462459
0.000431696
0.000401194
0.000367238
0.000308191
0.000258981
0.000134299
5.85229e-05
1.40456e-05
-8.58982e-05
-0.000210101
-0.000232545
-0.000783192
-0.000454405
-0.00147466
0.000436386
-0.00671808
-5.62591e-08
-1.21176e-08
-4.42638e-08
-7.77007e-08
-1.33894e-07
-2.20881e-07
-3.59002e-07
-5.7481e-07
-9.07382e-07
-1.41131e-06
-2.16166e-06
-3.25934e-06
-4.83648e-06
-7.06101e-06
-1.01395e-05
-1.43269e-05
-1.99047e-05
-2.72054e-05
-3.65906e-05
-4.84139e-05
-6.29958e-05
-8.08566e-05
-0.000102041
-0.000126629
-0.000155898
-0.00018853
-0.000224118
-0.000267509
-0.000310462
-0.000357055
-0.000413302
-0.000466893
-0.000517917
-0.000592408
-0.000669402
-0.000724671
-0.000802669
-0.000921446
-0.0010298
-0.00110596
-0.00120478
-0.00133758
-0.00148534
-0.00158955
-0.00164186
-0.0017093
-0.00191586
-0.00195858
-0.00213797
-0.00208111
-0.00226264
-0.00168792
0.011166
0.0226684
-4.989e-05
0.00121792
0.000659449
-0.000917851
-0.000847119
-0.000968345
-0.000141564
-0.00151399
-0.00139894
-0.00138079
-0.0013421
-0.00229563
-0.00117843
-0.00185917
-0.000601236
-0.00163682
-0.00146872
-0.000974486
-0.00268807
-0.000262349
-0.000369143
-0.000162409
-0.000611225
-8.88206e-05
0.00183418
0.00244375
0.00186334
0.00108222
0.00130187
0.00155517
0.00095391
0.00073234
0.000583636
0.000411038
0.000308214
-0.000102766
0.000352815
-0.000141014
0.000110644
8.58382e-05
0.000220428
0.000278333
0.000402386
0.000403478
0.000452327
0.000445632
0.000447459
0.000422823
0.000386748
0.000366282
0.000345758
0.000322528
0.00024371
0.000167681
5.10385e-05
-2.25641e-05
-6.90272e-05
-0.000148183
-0.000282183
-0.000294248
-0.000795744
-0.000458155
-0.00141151
0.000343512
-0.00602337
-5.46545e-08
-1.19615e-08
-4.32829e-08
-7.59928e-08
-1.31017e-07
-2.16296e-07
-3.51809e-07
-5.63732e-07
-8.90588e-07
-1.38631e-06
-2.12525e-06
-3.20737e-06
-4.76387e-06
-6.96297e-06
-1.00098e-05
-1.4161e-05
-1.97061e-05
-2.69647e-05
-3.63285e-05
-4.81629e-05
-6.27534e-05
-8.06985e-05
-0.000102166
-0.000127071
-0.000156573
-0.000190213
-0.000227739
-0.000270417
-0.000315607
-0.000364621
-0.000420614
-0.000481066
-0.000536681
-0.000600187
-0.000681558
-0.000755827
-0.000824425
-0.000915869
-0.00102403
-0.00112073
-0.00120712
-0.00131163
-0.00139943
-0.00147459
-0.00147436
-0.00148729
-0.0015311
-0.00150819
-0.00126145
-0.00102379
-0.000132907
0.000282034
0.0241753
0.0110871
0.00123249
-0.000186462
-0.000184689
-0.00137752
0.00106843
-0.00102712
-0.000475653
-0.00252283
-0.00171743
-0.000663033
-0.00127385
-0.00153019
-0.00216283
-0.0012737
-0.000302907
-0.00255735
0.000300047
-0.0011489
-0.000383545
-0.000291928
-0.00148067
0.0023468
0.00331468
0.00222177
0.00127058
0.00152405
0.00216869
0.00176854
0.00126339
0.00117332
0.0010371
0.000880865
0.000582132
0.000496395
0.000182373
0.000394301
-2.34548e-05
0.000198522
0.000132638
0.000252217
0.000266404
0.000366174
0.000436305
0.0004646
0.000483903
0.000459659
0.000434561
0.000386833
0.000351022
0.00033885
0.000316436
0.00029188
0.000182878
0.000106678
1.03523e-05
-6.50005e-05
-0.000102183
-0.00019814
-0.000283102
-0.000305034
-0.000712893
-0.00038207
-0.00126904
0.000325379
-0.00537769
-5.28051e-08
-1.17517e-08
-4.21358e-08
-7.40033e-08
-1.27643e-07
-2.10892e-07
-3.43312e-07
-5.50608e-07
-8.70672e-07
-1.35658e-06
-2.08175e-06
-3.14508e-06
-4.67629e-06
-6.84336e-06
-9.85126e-06
-1.39525e-05
-1.94484e-05
-2.66562e-05
-3.59644e-05
-4.77911e-05
-6.24044e-05
-8.03735e-05
-0.000102041
-0.000127335
-0.000156852
-0.000191331
-0.000228768
-0.000271872
-0.000321032
-0.000370504
-0.000424153
-0.000487047
-0.000549156
-0.000610715
-0.000684332
-0.00076447
-0.000837815
-0.000912334
-0.0010145
-0.00109645
-0.00117438
-0.00125058
-0.00134148
-0.00136725
-0.00131251
-0.00122463
-0.0010911
-0.000854493
-0.000350386
0.000196001
0.00167728
0.00676025
0.026548
-0.00720274
-0.00156155
-0.00356735
-0.00272373
-0.00280547
-0.00150868
-0.00309037
-0.00060773
-0.000116278
-0.00216796
-0.00102106
-0.00224705
0.00118656
-0.0037167
0.00191342
-0.00140103
-6.16536e-05
-7.06918e-05
-0.00137823
0.0020475
0.00404933
0.00180578
0.00116106
0.00184106
0.00202347
0.00211918
0.00180732
0.00159316
0.00149568
0.00138207
0.00119398
0.000947884
0.000827024
0.000713855
0.00072572
0.000548391
0.000344653
0.000380685
0.000353424
0.000358272
0.000369952
0.000366962
0.000447898
0.000473772
0.000481976
0.000460427
0.000424704
0.000382768
0.000330342
0.000311041
0.000304951
0.000277764
0.000235968
0.000126705
7.59795e-05
-1.67318e-05
-9.79337e-05
-0.000136144
-0.000243033
-0.000270834
-0.000306297
-0.000649174
-0.000370225
-0.0011987
0.000265702
-0.00486598
-5.08245e-08
-1.15268e-08
-4.08799e-08
-7.18152e-08
-1.23941e-07
-2.04958e-07
-3.33956e-07
-5.36099e-07
-8.4855e-07
-1.32343e-06
-2.03295e-06
-3.07491e-06
-4.57728e-06
-6.70648e-06
-9.66895e-06
-1.37129e-05
-1.91438e-05
-2.62947e-05
-3.55219e-05
-4.72989e-05
-6.19372e-05
-7.98256e-05
-0.000101645
-0.000127248
-0.000156902
-0.000191893
-0.000230436
-0.000273226
-0.000322839
-0.000374597
-0.000431999
-0.000493871
-0.000557702
-0.000620676
-0.000691811
-0.000765716
-0.000834845
-0.000903744
-0.000982739
-0.00106826
-0.00114316
-0.00117974
-0.0012515
-0.00127303
-0.00125068
-0.00118824
-0.00119115
-0.00129441
-0.00123991
-0.0014064
-0.000966112
0.00722245
0.0172517
-0.00278373
0.00050162
-0.00208173
-0.000931318
-0.00140788
-0.000794038
-0.0025655
-0.00194574
-0.00337966
-0.00418726
-0.00341812
-6.51219e-05
0.00116993
-0.0018965
0.00257573
-0.0019282
0.0016498
0.00417273
0.00171655
0.00127224
0.00209825
0.00181719
0.00227294
0.00214135
0.00163057
0.00194219
0.00176665
0.00167572
0.00150922
0.00119158
0.00102877
0.000816703
0.000652093
0.000588212
0.000426959
0.000377069
0.000246128
0.000265451
0.000239418
0.000318236
0.000361694
0.000400299
0.00047852
0.000467615
0.000443218
0.000406235
0.000370006
0.000327963
0.000289425
0.000280693
0.000279679
0.00024275
0.000182852
9.29165e-05
6.41579e-05
-5.10304e-05
-0.000112887
-0.000149654
-0.000276421
-0.000240262
-0.000292835
-0.000576418
-0.000339709
-0.00108981
0.000241373
-0.00439769
-4.85928e-08
-1.12315e-08
-3.94454e-08
-6.93234e-08
-1.19707e-07
-1.98141e-07
-3.23177e-07
-5.19351e-07
-8.22936e-07
-1.28498e-06
-1.97618e-06
-2.99274e-06
-4.46118e-06
-6.54458e-06
-9.45078e-06
-1.34256e-05
-1.87676e-05
-2.58358e-05
-3.49637e-05
-4.66252e-05
-6.12643e-05
-7.90682e-05
-0.000100842
-0.000126847
-0.000156481
-0.000191664
-0.00023142
-0.000274107
-0.000324251
-0.000377699
-0.000431212
-0.000493324
-0.000559653
-0.000619734
-0.000685944
-0.000762253
-0.000829457
-0.000891699
-0.000959225
-0.00103745
-0.00109249
-0.00112193
-0.00117186
-0.00121439
-0.00120011
-0.00114703
-0.00111417
-0.00110825
-0.00108954
-0.0010698
-0.00227036
0.0159702
0.0133262
-0.00062863
0.000503816
-0.00143332
-0.00202636
-0.00303178
-0.00245365
-0.0035309
-0.00350132
-0.00163082
-0.00275705
-0.00428177
-0.000275618
0.000254211
0.00324479
0.00468918
0.00186316
0.00151446
0.00244246
0.00218812
0.00242091
0.00232113
0.00176782
0.00207307
0.00207468
0.00184566
0.00163793
0.00143544
0.00125981
0.00106797
0.00091389
0.000822656
0.000716875
0.000673206
0.000628218
0.000535856
0.000307393
0.000470113
0.000490678
0.000537599
0.000522144
0.000481651
0.000405907
0.000362349
0.000331175
0.0003009
0.000280815
0.00027135
0.000240375
0.000228469
0.000229025
0.000218518
0.000181153
0.000124966
6.63224e-05
3.95342e-05
-8.51551e-05
-0.000118106
-0.000172027
-0.000284803
-0.000214627
-0.00030626
-0.00053717
-0.000348229
-0.00102426
0.000206122
-0.00399944
-4.61971e-08
-1.09116e-08
-3.78774e-08
-6.65875e-08
-1.1506e-07
-1.90653e-07
-3.11309e-07
-5.00855e-07
-7.94548e-07
-1.24212e-06
-1.91271e-06
-2.90017e-06
-4.32957e-06
-6.36074e-06
-9.19804e-06
-1.30927e-05
-1.83304e-05
-2.52807e-05
-3.43005e-05
-4.57925e-05
-6.03507e-05
-7.8093e-05
-9.96424e-05
-0.000125856
-0.000155709
-0.00019052
-0.000231259
-0.000274451
-0.000323763
-0.00037911
-0.000433412
-0.000493788
-0.00056102
-0.000624234
-0.00068253
-0.000755701
-0.000825018
-0.000879046
-0.000928961
-0.00100235
-0.00105479
-0.0010939
-0.00110822
-0.00115585
-0.00110503
-0.000980861
-0.000777225
-0.000331696
7.91618e-06
0.00161482
0.00557473
0.0255488
-0.00575431
-0.00247837
-0.00275782
-0.00204991
-0.00186385
-0.00112982
-8.26675e-05
0.00101747
-0.00568087
-0.00294037
-0.00312939
0.00336984
0.0028013
0.00247137
0.00278205
0.00324005
0.00282053
0.00264441
0.0026189
0.00201217
0.00207115
0.00204757
0.00177675
0.00159109
0.00157452
0.00130923
0.00126994
0.00107275
0.000904605
0.000745571
0.000588819
0.000425394
0.000418889
0.000489952
0.000451066
0.000312623
0.000277208
0.000286516
0.000250057
0.000276366
0.000340274
0.000392827
0.000425145
0.000407601
0.000386175
0.000324845
0.000281796
0.000248216
0.000201074
0.00020133
0.000188237
0.000174024
0.000150164
0.000101774
6.34839e-05
1.73548e-05
-0.000113475
-0.000134756
-0.000192255
-0.000287047
-0.000189744
-0.000310712
-0.000474797
-0.000346526
-0.000956807
0.000173953
-0.00365303
-4.35401e-08
-1.05245e-08
-3.61119e-08
-6.35194e-08
-1.09839e-07
-1.82207e-07
-2.97886e-07
-4.7988e-07
-7.62281e-07
-1.19328e-06
-1.84011e-06
-2.79413e-06
-4.17733e-06
-6.14797e-06
-8.90367e-06
-1.26969e-05
-1.78141e-05
-2.46041e-05
-3.34734e-05
-4.47722e-05
-5.90928e-05
-7.6816e-05
-9.80395e-05
-0.000124077
-0.000154412
-0.000188627
-0.000229652
-0.000273943
-0.000321962
-0.000378158
-0.000435084
-0.00049248
-0.000558178
-0.000625572
-0.00068049
-0.000745175
-0.000815383
-0.000874298
-0.000909654
-0.000968141
-0.0010284
-0.00106478
-0.00105603
-0.00108927
-0.00106377
-0.00100333
-0.000973357
-0.00065334
-0.000398924
0.000162134
0.00693512
0.0190732
-0.00100241
0.000582377
0.000123626
-1.65026e-05
-0.000341621
-0.00165981
-0.00422969
-0.00296201
-0.00588327
-0.0049853
7.9916e-05
-0.000125809
0.00161501
0.00180943
0.00259319
0.00240072
0.00212331
0.00210447
0.00207057
0.00184663
0.00146194
0.00126809
0.00114072
0.0010373
0.000968786
0.000633011
0.000655334
0.000644567
0.000566733
0.000591832
0.000545264
0.000583445
0.000614922
0.000743405
0.000555434
0.0004295
0.000310817
0.000276484
0.000256175
0.000296348
0.00034509
0.000361941
0.000391527
0.000342207
0.000341721
0.000263703
0.000232182
0.000177794
0.000146068
0.000147552
0.000118503
9.92984e-05
8.63373e-05
3.56111e-05
1.11081e-05
-2.28054e-05
-0.000130654
-0.000159578
-0.000199608
-0.000293374
-0.000180617
-0.000305474
-0.000427213
-0.000346294
-0.000889667
0.000159564
-0.00331718
-4.06821e-08
-1.0109e-08
-3.41966e-08
-6.01718e-08
-1.04128e-07
-1.72958e-07
-2.8315e-07
-4.56778e-07
-7.26612e-07
-1.13905e-06
-1.7591e-06
-2.67527e-06
-4.00567e-06
-5.90559e-06
-8.56864e-06
-1.22378e-05
-1.72119e-05
-2.38125e-05
-3.24699e-05
-4.35552e-05
-5.75352e-05
-7.50811e-05
-9.61158e-05
-0.00012152
-0.000152225
-0.000186153
-0.000226398
-0.000272317
-0.000319292
-0.000374804
-0.000434799
-0.00049088
-0.000554233
-0.00062405
-0.000683312
-0.000736947
-0.000805956
-0.000871781
-0.000907
-0.000944734
-0.00100134
-0.0010566
-0.00106274
-0.00106977
-0.00109445
-0.00122058
-0.00131725
-0.00145643
-0.00193622
-0.00250906
0.0123099
0.0135879
-0.000587283
0.0013327
-0.000117633
-5.44496e-05
-0.00018542
-0.000375072
-0.0048248
-0.00397253
-0.00277306
-0.00222366
-0.000816352
-4.48369e-05
0.000466701
0.000875594
0.00104851
0.00137499
0.00142919
0.00123292
0.00116516
0.000986264
0.000672686
0.000576518
0.000557503
0.000514595
0.000644415
0.000616025
0.000695027
0.00066883
0.00054808
0.000622929
0.000419249
0.000427911
0.000453743
0.000489984
0.000365503
0.000220307
0.000168854
0.000167536
0.000171503
0.000216276
0.000269838
0.000294295
0.000344037
0.000380886
0.000412836
0.000349904
0.000309344
0.000224398
0.000150022
0.000121823
7.35739e-05
6.97301e-05
7.29334e-05
2.28835e-05
7.97508e-07
-2.52695e-05
-0.000108111
-0.000168733
-0.000204133
-0.000305271
-0.000197313
-0.000283978
-0.000406736
-0.000360259
-0.000846778
0.000129713
-0.0030156
-3.75521e-08
-9.61649e-09