/*--------------------------------*- C++ -*----------------------------------*\
| =========                 |                                                 |
| \\      /  F ield         | OpenFOAM: The Open Source CFD Toolbox           |
|  \\    /   O peration     | Version:  2.2.x                                 |
|   \\  /    A nd           | Web:      www.OpenFOAM.org                      |
|    \\/     M anipulation  |                                                 |
\*---------------------------------------------------------------------------*/
FoamFile
{
    version     2.0;
    format      ascii;
    class       surfaceScalarField;
    location    "0.7";
    object      phi;
}
// * * * * * * * * * * * * * * * * * * * * * * * * * * * * * * * * * * * * * //

dimensions      [1 0 -1 0 0 0 0];

internalField   nonuniform List<scalar> 
28084
(
0.000746224
0.000742988
0.000740213
0.000737877
0.000735962
0.000734443
0.000733299
0.000732504
0.000732032
0.000731857
0.000731952
0.00073229
0.000732843
0.000733586
0.000734491
0.000735532
0.000736685
0.000737925
0.00073923
0.000740579
0.00074195
0.000743326
0.000744687
0.00074602
0.000747305
0.000748538
0.000749693
0.000750762
0.000751758
0.000752659
0.000753395
0.000754058
0.000754623
0.000755032
0.000755294
0.000755431
0.000755428
0.000755275
0.000754969
0.000754513
0.00075391
0.000753153
0.000752232
0.000751144
0.000749902
0.000759044
0.000768606
0.000778496
0.000788157
0.000798414
0.000809423
0.000819726
0.000826146
0.000812878
0.000795646
0.000799153
0.000818489
0.000844856
0.000879334
0.000914545
0.000949982
0.00098335
0.00101457
0.00104171
0.0010649
0.00108842
0.00110871
0.00112482
0.00113848
0.00114971
0.00115899
0.00117037
0.00118217
0.00119513
0.00120068
0.00119985
0.00119845
0.00119725
0.00119924
0.00120369
0.00120764
0.00120792
0.00120729
0.00120587
0.00121127
0.00121511
0.00121213
0.00120779
0.00120101
0.00119857
0.00119342
0.00119136
0.0011918
0.00118873
0.00118657
0.00117506
0.00114839
0.00110784
0.00103961
0.000954327
0.000865942
0.000788007
0.000723942
0.000664234
0.000609364
0.000563641
0.000524284
0.000486884
0.000452127
0.000421834
0.000394514
0.000366792
0.000336472
0.000301067
0.000259277
0.000212221
0.000156129
9.44829e-05
3.7119e-06
3.23513e-06
0.00074974
2.77572e-06
0.000748785
2.33538e-06
0.000748259
1.91574e-06
0.000748147
1.51833e-06
0.000748429
1.14451e-06
0.000749084
7.95452e-07
0.000750087
4.72134e-07
0.000751415
1.75292e-07
0.00075304
-9.45769e-08
0.000754934
-3.37222e-07
0.00075707
-5.52634e-07
0.000759416
-7.41041e-07
0.000761945
-9.02897e-07
0.000764627
-1.03886e-06
0.000767433
-1.14976e-06
0.000770334
-1.23657e-06
0.000773304
-1.30055e-06
0.000776316
-1.34268e-06
0.000779345
-1.36456e-06
0.000782368
-1.36738e-06
0.000785363
-1.3522e-06
0.000788308
-1.32254e-06
0.000791186
-1.275e-06
0.000793978
-1.2171e-06
0.000796668
-1.14555e-06
0.000799246
-1.06159e-06
0.000801694
-9.71478e-07
0.000803994
-8.67535e-07
0.000806165
-7.61362e-07
0.000808185
-6.47613e-07
0.000809983
-5.22578e-07
0.000811646
-3.99433e-07
0.000813164
-2.68332e-07
0.000814466
-1.28079e-07
0.000815572
1.49656e-08
0.000816497
1.53143e-07
0.000817229
3.00057e-07
0.000817755
4.46171e-07
0.000818088
5.98204e-07
0.00081822
7.54388e-07
0.000818154
9.12562e-07
0.000817886
1.07629e-06
0.000817416
1.22702e-06
0.000816752
-9.16223e-06
0.000815838
-9.51578e-06
0.000824491
-9.82663e-06
0.00083361
-1.00434e-05
0.000842939
-1.02738e-05
0.000851941
-1.05176e-05
0.000861647
-1.04383e-05
0.000871826
-6.74133e-06
0.000880661
6.95498e-06
0.000884412
1.67147e-05
0.000862136
-3.35537e-06
0.000844051
-1.92307e-05
0.00084841
-2.63616e-05
0.00087163
-3.45918e-05
0.00090281
-3.55739e-05
0.000939762
-3.47152e-05
0.000976312
-3.3738e-05
0.0010114
-3.1333e-05
0.00104514
-2.8006e-05
0.00107568
-2.41884e-05
0.00110324
-2.2025e-05
0.00112688
-2.00999e-05
0.00114746
-1.7142e-05
0.00116758
-1.25834e-05
0.00118348
-9.97892e-06
0.00119673
-9.98357e-06
0.00120914
-9.4174e-06
0.00121907
-8.55602e-06
0.00122816
-8.29215e-06
0.00123761
-8.73174e-06
0.00124617
-8.12326e-06
0.00125274
-6.84946e-06
0.00125521
-6.81128e-06
0.00125525
-6.63822e-06
0.0012543
-5.1802e-06
0.00125496
-1.57073e-06
0.00125699
3.41095e-06
0.00125793
6.72568e-06
0.00125728
4.92196e-06
0.00125664
4.13724e-06
0.00125373
4.8545e-06
0.00125658
3.08784e-06
0.00126006
4.01285e-07
0.00125636
9.72325e-07
0.0012517
3.90841e-07
0.00124501
1.12015e-06
0.00124183
1.33072e-06
0.0012362
-4.94071e-07
0.00123101
4.01729e-06
0.00122534
4.18653e-06
0.00121771
1.39692e-05
0.00120321
2.43849e-05
0.00117766
4.67598e-05
0.00112785
7.41129e-05
0.00105665
8.76453e-05
0.000970027
8.95429e-05
0.000886473
7.92022e-05
0.000811407
6.9213e-05
0.000744391
6.00603e-05
0.000685828
5.22325e-05
0.000630699
4.56499e-05
0.000580045
3.98397e-05
0.000537794
3.49905e-05
0.0005009
3.16066e-05
0.000465089
2.96217e-05
0.00043136
2.866e-05
0.000401268
2.90675e-05
0.00037334
3.11809e-05
0.000344665
3.46008e-05
0.000312963
4.02974e-05
0.000275903
4.76552e-05
0.000232197
5.74392e-05
0.000184963
6.2557e-05
0.000131855
9.34646e-05
7.10653e-05
5.11203e-06
4.19073e-06
0.000754435
3.30116e-06
0.00075573
2.44751e-06
0.000757427
1.63381e-06
0.00075951
8.63806e-07
0.000761963
1.40861e-07
0.000764765
-5.32086e-07
0.000767892
-1.1526e-06
0.000771318
-1.71876e-06
0.000775016
-2.22922e-06
0.000778957
-2.6832e-06
0.000783109
-3.08048e-06
0.000787443
-3.42138e-06
0.000791925
-3.70673e-06
0.000796525
-3.93785e-06
0.000801211
-4.11645e-06
0.000805953
-4.24457e-06
0.00081072
-4.32484e-06
0.000815485
-4.35948e-06
0.00082022
-4.35175e-06
0.000824899
-4.30438e-06
0.000829499
-4.21981e-06
0.000833998
-4.10424e-06
0.000838375
-3.95403e-06
0.000842612
-3.77985e-06
0.000846692
-3.58075e-06
0.0008506
-3.3548e-06
0.000854326
-3.11729e-06
0.000857847
-2.85462e-06
0.000861174
-2.58143e-06
0.000864303
-2.29777e-06
0.000867155
-1.99769e-06
0.000869804
-1.69024e-06
0.000872264
-1.37545e-06
0.000874453
-1.04267e-06
0.000876393
-7.0981e-07
0.000878098
-3.69795e-07
0.000879557
-3.62441e-08
0.000880766
3.07208e-07
0.000881734
6.55968e-07
0.000882457
1.00976e-06
0.000882932
1.37179e-06
0.000883153
1.74248e-06
0.00088314
2.11043e-06
0.00088289
-1.78602e-05
0.000882242
-1.85128e-05
0.000890445
-1.90677e-05
0.000899142
-1.95216e-05
0.00090787
-1.99313e-05
0.000916461
-2.0311e-05
0.000925835
-1.95687e-05
0.00093493
-1.04586e-05
0.000942495
2.287e-05
0.000945738
3.3663e-05
0.000913371
-7.78916e-06
0.000896932
-4.25516e-05
0.000900314
-5.77773e-05
0.00092379
-7.19658e-05
0.000961302
-7.26091e-05
0.00100104
-6.94185e-05
0.00104314
-6.71795e-05
0.00108214
-6.19105e-05
0.00111642
-5.59339e-05
0.00114653
-4.89057e-05
0.00117377
-4.28348e-05
0.00119779
-4.01578e-05
0.00121803
-3.51996e-05
0.00123547
-2.70435e-05
0.00125095
-2.08862e-05
0.00126544
-1.824e-05
0.00127669
-1.70054e-05
0.00128574
-1.52465e-05
0.00129376
-1.39073e-05
0.00129979
-1.33925e-05
0.00130382
-1.23333e-05
0.001306
-1.017e-05
0.00130865
-1.08775e-05
0.00131182
-1.19264e-05
0.00131375
-1.04983e-05
0.00131594
-4.74109e-06
0.00131761
3.53203e-06
0.00131673
8.72102e-06
0.00131606
7.93181e-06
0.00131556
6.01495e-06
0.0013108
8.84912e-06
0.00130998
7.95503e-06
0.00130958
2.30627e-06
0.00130465
3.1283e-06
0.0012975
1.5163e-06
0.00129059
3.8008e-06
0.00128551
7.30921e-06
0.00127835
6.04522e-06
0.00126881
1.27891e-05
0.00125406
1.89383e-05
0.00123332
4.12826e-05
0.00118943
7.21083e-05
0.00112881
0.000123138
0.00103365
0.000165897
0.000938254
0.000174351
0.000858547
0.000164967
0.000795432
0.000148076
0.000742613
0.000132183
0.00069512
0.000115505
0.000650316
0.000100092
0.000606057
8.76438e-05
0.000562039
7.71497e-05
0.00052332
6.86421e-05
0.000487728
6.26842e-05
0.000452321
5.90362e-05
0.000418145
5.75562e-05
0.00038679
5.88382e-05
0.000356824
6.35709e-05
0.000325768
7.07501e-05
0.000291281
8.24058e-05
0.000251591
9.57519e-05
0.000207023
0.000112384
0.00016225
0.000123897
0.000112726
0.000163357
5.84023e-05
4.23053e-06
2.89594e-06
0.000760308
1.6045e-06
0.000763821
3.63709e-07
0.000767708
-8.19269e-07
0.000771957
-1.93779e-06
0.000776551
-2.98585e-06
0.000781471
-3.95817e-06
0.000786693
-4.85036e-06
0.00079219
-5.6589e-06
0.000797934
-6.38124e-06
0.000803894
-7.01579e-06
0.000810038
-7.56192e-06
0.000816333
-8.01991e-06
0.000822744
-8.39093e-06
0.000829238
-8.67691e-06
0.000835781
-8.88052e-06
0.00084234
-9.00497e-06
0.000848883
-9.05435e-06
0.000855378
-9.03243e-06
0.000861797
-8.94421e-06
0.000868112
-8.79395e-06
0.000874298
-8.58659e-06
0.00088033
-8.32964e-06
0.000886188
-8.02181e-06
0.000891851
-7.67333e-06
0.000897303
-7.29175e-06
0.000902527
-6.86676e-06
0.000907512
-6.42444e-06
0.000912243
-5.94764e-06
0.000916711
-5.44599e-06
0.000920924
-4.94124e-06
0.000924831
-4.41791e-06
0.000928454
-3.86698e-06
0.000931832
-3.31085e-06
0.000934905
-2.73776e-06
0.000937661
-2.16866e-06
0.00094014
-1.58055e-06
0.000942316
-1.00296e-06
0.000944197
-4.11282e-07
0.000945786
1.77787e-07
0.000947096
7.69132e-07
0.000948118
1.3774e-06
0.000948855
1.99828e-06
0.000949296
2.61229e-06
0.000949413
-2.6043e-05
0.000949014
-2.6977e-05
0.000956654
-2.77657e-05
0.000964842
-2.85022e-05
0.000973023
-2.91005e-05
0.000981815
-2.93873e-05
0.000990513
-2.8052e-05
0.00099812
-1.34118e-05
0.00100551
4.83317e-05
0.00100855
4.7785e-05
0.000976103
-1.18267e-05
0.000955618
-6.61199e-05
0.000964399
-9.56051e-05
0.000994815
-0.000112149
0.00103846
-0.000114888
0.0010813
-0.000108125
0.00112589
-9.99561e-05
0.00116717
-9.14792e-05
0.00120389
-8.28235e-05
0.00123552
-7.34072e-05
0.00126431
-6.49415e-05
0.00128871
-5.72966e-05
0.00130755
-4.99706e-05
0.00132213
-4.29215e-05
0.00133566
-3.44745e-05
0.0013489
-2.81229e-05
0.00136008
-2.53221e-05
0.00136666
-2.33521e-05
0.00137054
-2.0532e-05
0.00137176
-1.68192e-05
0.00137259
-1.36712e-05
0.00137441
-1.05301e-05
0.00137656
-1.00223e-05
0.00137985
-1.11399e-05
0.0013838
-1.06161e-05
0.00138627
-5.60288e-06
0.00138828
2.33009e-06
0.00138601
8.38042e-06
0.00138511
8.90996e-06
0.00138494
5.81353e-06
0.00137699
9.42358e-06
0.00137031
1.08965e-05
0.00136242
5.67746e-06
0.00135427
7.89055e-06
0.0013469
5.71906e-06
0.00133932
1.19674e-05
0.0013315
1.8677e-05
0.00131822
2.12205e-05
0.00129343
3.4982e-05
0.00125443
6.23634e-05
0.00119558
0.000102903
0.00109875
0.000167548
0.000972018
0.000221849
0.000861904
0.000248213
0.000783458
0.000239922
0.00072841
0.000218598
0.000685336
0.000197789
0.000650366
0.000179238
0.000619128
0.000160167
0.000586776
0.000141488
0.000553147
0.000126342
0.000517917
0.000113394
0.000485074
0.000102479
0.000452661
9.46381e-05
0.000419483
8.98291e-05
0.000387096
8.80462e-05
0.000356605
9.05083e-05
0.000326412
9.83409e-05
0.000295173
0.000109475
0.000261252
0.00012541
0.000223589
0.000141671
0.000182078
0.000163923
0.000141086
0.000178255
9.66421e-05
0.000220088
4.88912e-05
1.10116e-06
-6.16603e-07
0.000767362
-2.2826e-06
0.000773056
-3.88528e-06
0.000779098
-5.41361e-06
0.000785478
-6.85736e-06
0.00079218
-8.20725e-06
0.000799185
-9.45513e-06
0.00080647
-1.05941e-05
0.000814007
-1.16187e-05
0.000821766
-1.25248e-05
0.000829716
-1.33097e-05
0.000837823
-1.39723e-05
0.000846051
-1.45125e-05
0.000854363
-1.49319e-05
0.000862724
-1.5233e-05
0.000871097
-1.54195e-05
0.000879447
-1.5496e-05
0.000887739
-1.54678e-05
0.000895941
-1.53409e-05
0.00090402
-1.51219e-05
0.000911947
-1.48168e-05
0.000919696
-1.44336e-05
0.00092724
-1.39807e-05
0.000934557
-1.34604e-05
0.000941626
-1.28826e-05
0.00094843
-1.22598e-05
0.000954951
-1.15826e-05
0.000961175
-1.08749e-05
0.000967098
-1.01313e-05
0.000972692
-9.35116e-06
0.000977968
-8.56418e-06
0.000982922
-7.75851e-06
0.00098752
-6.91696e-06
0.000991785
-6.06331e-06
0.000995719
-5.19832e-06
0.000999289
-4.34572e-06
0.00100253
-3.47783e-06
0.00100542
-2.60271e-06
0.00100796
-1.69605e-06
0.00101017
-8.1631e-07
0.00101204
4.60043e-08
0.00101359
9.39055e-07
0.00101484
1.83977e-06
0.00101576
2.73799e-06
0.00101632
-3.37674e-05
0.00101631
-3.48353e-05
0.00102315
-3.5913e-05
0.00103054
-3.69433e-05
0.0010385
-3.75276e-05
0.00104741
-3.78659e-05
0.00105517
-3.65477e-05
0.00106198
-1.61635e-05
0.00106857
7.34645e-05
0.0010729
6.46939e-05
0.00105436
-2.13827e-05
0.00103066
-9.66395e-05
0.00104612
-0.000139399
0.00108464
-0.000154443
0.00113414
-0.000159515
0.00118274
-0.000148733
0.00122932
-0.000135872
0.0012713
-0.00012198
0.00130829
-0.000109828
0.00134042
-9.76883e-05
0.00136948
-8.45488e-05
0.00139365
-7.29981e-05
0.0014115
-6.19713e-05
0.00142796
-5.40405e-05
0.00143924
-4.74461e-05
0.00144851
-3.85364e-05
0.00145948
-3.18479e-05
0.00146878
-2.86217e-05
0.00147044
-2.56381e-05
0.00146875
-2.05181e-05
0.00146618
-1.57238e-05
0.00146621
-1.09685e-05
0.00146952
-8.00087e-06
0.00147358
-7.71231e-06
0.00147428
-7.57296e-06
0.00147077
-3.4623e-06
0.00147013
2.34647e-06
0.00146834
8.30298e-06
0.00146471
1.04232e-05
0.00146183
7.88997e-06
0.00145142
1.21739e-05
0.0014388
1.70844e-05
0.00142509
1.23929e-05
0.0014139
1.66287e-05
0.00140265
1.71783e-05
0.00138983
2.817e-05
0.00136608
4.66261e-05
0.00133315
6.32607e-05
0.00127628
9.65456e-05
0.00118802
0.000159157
0.00105753
0.000229359
0.00091048
0.000276493
0.000795334
0.000299683
0.000713848
0.000303884
0.00066097
0.000284811
0.000627981
0.00025701
0.000601272
0.00023354
0.000574961
0.00021372
0.000548964
0.000193765
0.000522714
0.000174753
0.000494766
0.000158524
0.000466893
0.000144571
0.000439941
0.000133209
0.000411992
0.000125308
0.000382725
0.000120693
0.000353804
0.000119181
0.000325463
0.00012222
0.000296604
0.000131964
0.000266034
0.000145769
0.000233156
0.000165265
0.000197366
0.000183699
0.000159074
0.000210229
0.000122238
0.00022547
8.3677e-05
0.000266769
4.14184e-05
-4.23855e-06
-6.31051e-06
0.0007756
-8.32484e-06
0.000783435
-1.02651e-05
0.000791593
-1.21158e-05
0.000800066
-1.38623e-05
0.000808839
-1.54915e-05
0.000817893
-1.69919e-05
0.000827205
-1.83535e-05
0.000836747
-1.95685e-05
0.000846489
-2.06308e-05
0.000856395
-2.15366e-05
0.000866432
-2.22836e-05
0.00087656
-2.28719e-05
0.000886743
-2.3303e-05
0.00089694
-2.35801e-05
0.000907113
-2.3708e-05
0.000917225
-2.36926e-05
0.000927238
-2.3541e-05
0.000937118
-2.32612e-05
0.00094683
-2.28619e-05
0.000956343
-2.23507e-05
0.000965628
-2.17395e-05
0.000974659
-2.10368e-05
0.000983412
-2.02495e-05
0.000991863
-1.93888e-05
0.000999997
-1.84674e-05
0.00100779
-1.74836e-05
0.00101524
-1.64566e-05
0.00102233
-1.53892e-05
0.00102903
-1.42821e-05
0.00103535
-1.31496e-05
0.00104132
-1.19895e-05
0.00104691
-1.08184e-05
0.00105202
-9.63965e-06
0.00105681
-8.42656e-06
0.0010612
-7.21349e-06
0.00106517
-6.02629e-06
0.00106874
-4.83951e-06
0.00107197
-3.59164e-06
0.00107478
-2.29866e-06
0.00107715
-1.12605e-06
0.0010792
9.74385e-08
0.00108092
1.26193e-06
0.00108237
2.4898e-06
0.00108339
-4.10585e-05
0.00108395
-4.23067e-05
0.0010904
-4.34387e-05
0.00109646
-4.44696e-05
0.00110351
-4.52572e-05
0.0011123
-4.57762e-05
0.00111991
-4.45301e-05
0.00112719
-2.10886e-05
0.00113393
8.42633e-05
0.00113983
8.38356e-05
0.00113656
-3.70531e-05
0.00112234
-0.000135463
0.00115785
-0.000188186
0.00121013
-0.000200871
0.0012655
-0.000205406
0.00132634
-0.000190476
0.00137667
-0.000173625
0.00141693
-0.00015352
0.00145317
-0.000137175
0.00148154
-0.000120927
0.00150877
-0.000103057
0.00152948
-8.95888e-05
0.00154268
-7.4863e-05
0.00155512
-6.12248e-05
0.00156432
-5.30448e-05
0.00156969
-4.70607e-05
0.00157416
-3.87318e-05
0.00158222
-3.13298e-05
0.00158696
-2.68578e-05
0.00158543
-2.23291e-05
0.00158154
-1.67313e-05
0.00157738
-1.1194e-05
0.00157703
-5.86058e-06
0.00157912
-3.21018e-06
0.00157445
-4.02227e-06
0.00156604
-3.94122e-07
0.00155808
5.52919e-06
0.00155095
1.01655e-05
0.00154517
1.45146e-05
0.00154008
1.4745e-05
0.0015284
1.77164e-05
0.00151128
2.8908e-05
0.00149207
2.67679e-05
0.00147529
3.40683e-05
0.00144902
4.76875e-05
0.0014169
6.61031e-05
0.00136158
0.000108609
0.00127943
0.000156221
0.00115985
0.000230582
0.000999898
0.000305302
0.000855547
0.000341294
0.000747668
0.000356129
0.000667869
0.000354381
0.000614908
0.000339767
0.000582047
0.000314858
0.000559093
0.000287485
0.000537727
0.000262285
0.000513685
0.000239921
0.000489986
0.000218748
0.000467837
0.000200002
0.000444511
0.000184124
0.000420846
0.000171296
0.000397801
0.000160959
0.000373776
0.000154461
0.000347333
0.000150133
0.000320191
0.000148694
0.000293715
0.000152645
0.000266622
0.000163917
0.000238249
0.00017968
0.000207502
0.000202144
0.000173612
0.000221705
0.000139055
0.000250027
0.000106201
0.000266107
7.23585e-05
0.000305387
3.50378e-05
-1.17471e-05
-1.41455e-05
0.000785028
-1.64831e-05
0.00079496
-1.87378e-05
0.000805191
-2.08888e-05
0.000815715
-2.29165e-05
0.000826517
-2.48033e-05
0.000837581
-2.65338e-05
0.000848881
-2.80945e-05
0.00086039
-2.94749e-05
0.000872075
-3.06667e-05
0.000883902
-3.16643e-05
0.000895832
-3.24648e-05
0.000907827
-3.30675e-05
0.000919844
-3.34742e-05
0.000931843
-3.36889e-05
0.000943784
-3.37174e-05
0.000955625
-3.35671e-05
0.000967327
-3.32469e-05
0.000978853
-3.27671e-05
0.000990168
-3.21386e-05
0.00100124
-3.13711e-05
0.00101203
-3.048e-05
0.00102252
-2.94747e-05
0.00103268
-2.83667e-05
0.00104249
-2.71699e-05
0.00105193
-2.58952e-05
0.00106098
-2.45508e-05
0.00106962
-2.31494e-05
0.00107786
-2.17015e-05
0.00108565
-2.02131e-05
0.001093
-1.86869e-05
0.00109995
-1.71301e-05
0.0011065
-1.55538e-05
0.00111246
-1.40173e-05
0.00111807
-1.24149e-05
0.0011233
-1.07814e-05
0.00112801
-9.16945e-06
0.00113216
-7.6527e-06
0.00113609
-6.0779e-06
0.00113956
-4.43914e-06
0.00114253
-2.6955e-06
0.00114486
-1.10656e-06
0.00114697
3.84868e-07
0.00114891
1.86596e-06
0.00115059
-4.78735e-05
0.00115173
-4.95438e-05
0.0011579
-5.03754e-05
0.00116348
-5.1243e-05
0.00116846
-5.21796e-05
0.00117586
-5.3099e-05
0.00118401
-5.20309e-05
0.00119302
-2.87685e-05
0.00120157
7.7905e-05
0.00121602
9.32406e-05
0.00123785
-7.16542e-05
0.00124336
-0.000186445
0.00131252
-0.000241885
0.00139076
-0.00025877
0.00145786
-0.000255991
0.00151406
-0.000232357
0.00155448
-0.000210463
0.00158891
-0.000183729
0.00161888
-0.000161673
0.00163813
-0.000141221
0.00165791
-0.000118229
0.0016723
-0.000100016
0.0016764
-8.6479e-05
0.00168577
-6.97553e-05
0.00169265
-5.40052e-05
0.00169513
-4.73982e-05
0.00169413
-4.08206e-05
0.0016931
-3.21045e-05
0.00169596
-2.57018e-05
0.00169818
-1.99642e-05
0.00169442
-1.44656e-05
0.00168781
-8.61195e-06
0.00168189
-2.48169e-06
0.00167515
1.83868e-06
0.00166797
1.23218e-06
0.00165505
3.565e-06
0.00164173
1.08304e-05
0.00163058
1.54457e-05
0.00161898
2.29507e-05
0.00160732
2.87371e-05
0.00159375
3.35939e-05
0.00157535
4.87037e-05
0.00154621
5.68388e-05
0.00150779
7.20722e-05
0.0014478
0.000111034
0.00137268
0.000153808
0.00126186
0.000233575
0.00109935
0.000320028
0.000938542
0.000375493
0.000813218
0.00040865
0.000714817
0.000416686
0.000640003
0.000411226
0.000584445
0.000393039
0.000550835
0.000367543
0.000529169
0.000338815
0.000509534
0.00030994
0.000487012
0.000283551
0.000463289
0.000259002
0.000442679
0.000238778
0.000423384
0.000221983
0.000403976
0.000207777
0.000383584
0.00019626
0.000361965
0.000187321
0.000337934
0.0001809
0.000312545
0.000176162
0.000288591
0.000175494
0.000264549
0.000180701
0.000239492
0.000193844
0.00021258
0.000211434
0.000183256
0.000235842
0.000152398
0.000255614
0.000121967
0.000284191
9.21521e-05
0.000301261
6.1679e-05
0.000337637
2.93243e-05
-2.13788e-05
-2.40774e-05
0.000795653
-2.67144e-05
0.000807633
-2.92614e-05
0.00081989
-3.16915e-05
0.000832419
-3.39798e-05
0.000845207
-3.61035e-05
0.000858235
-3.80425e-05
0.000871481
-3.97798e-05
0.000884915
-4.13013e-05
0.000898503
-4.25964e-05
0.000912209
-4.36577e-05
0.000925993
-4.44809e-05
0.000939814
-4.50652e-05
0.000953628
-4.54123e-05
0.000967392
-4.55268e-05
0.000981063
-4.54158e-05
0.000994597
-4.50884e-05
0.00100795
-4.45552e-05
0.00102109
-4.38289e-05
0.00103398
-4.29232e-05
0.00104657
-4.18502e-05
0.00105884
-4.06282e-05
0.00107076
-3.92684e-05
0.0010823
-3.77876e-05
0.00109343
-3.62013e-05
0.00110415
-3.45194e-05
0.00111442
-3.2759e-05
0.00112424
-3.09327e-05
0.00113359
-2.90525e-05
0.00114246
-2.7116e-05
0.00115082
-2.51521e-05
0.00115874
-2.31665e-05
0.0011662
-2.11436e-05
0.00117302
-1.91425e-05
0.00117943
-1.71225e-05
0.00118544
-1.5095e-05
0.00119089
-1.29833e-05
0.00119565
-1.09833e-05
0.0012002
-9.00895e-06
0.00120431
-7.05162e-06
0.00120789
-5.00883e-06
0.00121084
-2.80045e-06
0.00121304
-7.59805e-07
0.00121524
1.06475e-06
0.00121733
-5.39926e-05
0.00121915
-5.60333e-05
0.00122529
-5.75982e-05
0.00123106
-5.81279e-05
0.00123577
-5.86032e-05
0.00123902
-5.95733e-05
0.00124654
-5.86407e-05
0.00125537
-4.3435e-05
0.00126647
4.39448e-05
0.00128939
8.04525e-05
0.00138816
-0.000139729
0.00147164
-0.000262233
0.00157318
-0.000304987
0.00163184
-0.000311501
0.00166766
-0.000298191
0.00169285
-0.000271014
0.0017176
-0.000240431
0.00174436
-0.000207048
0.00176576
-0.000179638
0.00177766
-0.000154965
0.00178785
-0.000128806
0.00179649
-0.00010581
0.00179492
-8.9147e-05
0.00179603
-7.32446e-05
0.00180178
-5.49873e-05
0.00180442
-4.43243e-05
0.00180005
-3.86529e-05
0.00179294
-3.08509e-05
0.00178888
-2.26374e-05
0.00178824
-1.54202e-05
0.00178371
-1.0095e-05
0.00177649
-3.73027e-06
0.00176767
2.78317e-06
0.00175728
9.92893e-06
0.00174704
1.04584e-05
0.00173289
1.35916e-05
0.00171401
2.23676e-05
0.00169916
2.79997e-05
0.00168304
3.7171e-05
0.00165996
4.94051e-05
0.00163564
6.15334e-05
0.0016022
8.42484e-05
0.00154492
0.000116706
0.00146916
0.000151419
0.00135793
0.000228122
0.00119615
0.000320695
0.00102201
0.000397823
0.000878916
0.000447184
0.000770782
0.000472395
0.000687961
0.000478956
0.000622162
0.00047011
0.00057023
0.000449778
0.0005325
0.000420954
0.000509446
0.000389976
0.000491897
0.000358731
0.000471411
0.000328535
0.000446795
0.000302249
0.00042524
0.000278198
0.000408058
0.000259053
0.000391237
0.000243876
0.000372475
0.00023016
0.000351993
0.000219199
0.000328525
0.000210264
0.00030427
0.000203649
0.000282064
0.000199725
0.000260808
0.000200679
0.000238421
0.00020765
0.000214364
0.00022226
0.000188681
0.00024082
0.000161327
0.000266078
0.000133792
0.000285582
0.000106772
0.000313895
7.94517e-05
0.000331809
5.22176e-05
0.000365073
2.4422e-05
-3.30838e-05
-3.60577e-05
0.000807485
-3.89715e-05
0.000821461
-4.17898e-05
0.000835692
-4.44792e-05
0.000850176
-4.70084e-05
0.000864899
-4.9349e-05
0.000879845
-5.14759e-05
0.000894989
-5.33677e-05
0.000910301
-5.50069e-05
0.000925747
-5.638e-05
0.000941288
-5.74774e-05
0.000956883
-5.82938e-05
0.000972487
-5.88275e-05
0.000988056
-5.90804e-05
0.00100354
-5.90578e-05
0.0010189
-5.8768e-05
0.00103409
-5.82219e-05
0.00104906
-5.74323e-05
0.00106378
-5.64142e-05
0.00107819
-5.51841e-05
0.00109227
-5.37574e-05
0.00110599
-5.21542e-05
0.0011193
-5.03897e-05
0.00113218
-4.84844e-05
0.00114462
-4.64554e-05
0.00115658
-4.43153e-05
0.00116805
-4.20867e-05
0.00117901
-3.97809e-05
0.00118945
-3.74129e-05
0.00119936
-3.49863e-05
0.00120874
-3.25292e-05
0.00121759
-3.00619e-05
0.0012259
-2.75612e-05
0.0012336
-2.50027e-05
0.00124082
-2.24986e-05
0.00124751
-2.00571e-05
0.00125365
-1.75224e-05
0.00125925
-1.49098e-05
0.00126434
-1.2402e-05
0.00126875
-1.00089e-05
0.00127292
-7.71033e-06
0.00127664
-5.22208e-06
0.00127969
-2.50466e-06
0.00128206
2.92612e-08
0.00128352
-5.93443e-05
0.00128549
-6.17328e-05
0.00129156
-6.36994e-05
0.00129818
-6.52417e-05
0.0013037
-6.54721e-05
0.00130731
-6.58625e-05
0.00130911
-6.64825e-05
0.00131679
-6.28296e-05
0.00132694
-5.90896e-05
0.00134676
-2.23361e-05
0.00141621
-0.000243404
0.00169456
-0.000317696
0.0018035
-0.000336138
0.00183398
-0.000333671
0.0018454
-0.000324026
0.00185308
-0.000299903
0.0018633
-0.000263365
0.00187609
-0.000224451
0.00188911
-0.000190289
0.0018945
-0.000162247
0.00190197
-0.000134551
0.0019061
-0.00010715
0.00189563
-8.9301e-05
0.00189241
-7.29274e-05
0.00189107
-5.40434e-05
0.00189059
-3.96624e-05
0.00188765
-3.13977e-05
0.00187977
-2.61551e-05
0.00186993
-1.82969e-05
0.00186381
-9.36813e-06
0.00185735
-3.31015e-06
0.0018485
4.42815e-06
0.00183879
1.25008e-05
0.00182718
2.197e-05
0.00181344
2.46167e-05
0.00179983
2.82144e-05
0.0017779
3.97508e-05
0.0017477
5.3509e-05
0.00171933
6.90923e-05
0.00167364
9.1503e-05
0.00161847
0.000122019
0.001546
0.00015827
0.00144087
0.000227459
0.0012864
0.000312835
0.00110301
0.000403389
0.000939464
0.0004653
0.000819376
0.000508285
0.00072908
0.000531679
0.000660907
0.000537194
0.000606994
0.000527878
0.000563723
0.000507138
0.00052721
0.000477734
0.000499547
0.000443276
0.000481274
0.000409407
0.000463162
0.000376338
0.000439894
0.000346833
0.00041683
0.000321294
0.000398503
0.000299143
0.000382614
0.000280255
0.00036498
0.000264636
0.000344964
0.00025086
0.000322501
0.000239599
0.000298532
0.000231061
0.000276961
0.000225533
0.00025749
0.000223032
0.000237131
0.000225528
0.000215055
0.000233316
0.000191636
0.000248606
0.000166816
0.00026776
0.000142014
0.000292758
0.000117622
0.000311735
9.34674e-05
0.000339631
6.84257e-05
0.000358455
4.42123e-05
0.000388634
2.02815e-05
-4.68079e-05
-5.00336e-05
0.000820535
-5.3203e-05
0.000836449
-5.6273e-05
0.000852599
-5.92028e-05
0.000868983
-6.19543e-05
0.000885589
-6.44929e-05
0.0009024
-6.67879e-05
0.000919391
-6.88133e-05
0.000936532
-7.05475e-05
0.000953786
-7.19739e-05
0.000971113
-7.30809e-05
0.000988471
-7.38613e-05
0.00100581
-7.43131e-05
0.00102309
-7.4438e-05
0.00104026
-7.42423e-05
0.00105726
-7.37354e-05
0.00107406
-7.293e-05
0.0010906
-7.18415e-05
0.00110685
-7.0487e-05
0.00112276
-6.88864e-05
0.00113829
-6.70587e-05
0.00115341
-6.50254e-05
0.00116808
-6.28068e-05
0.00118227
-6.0427e-05
0.00119597
-5.79031e-05
0.00120914
-5.5255e-05
0.00122177
-5.2508e-05
0.00123385
-4.96714e-05
0.00124535
-4.67652e-05
0.00125627
-4.38052e-05
0.00126664
-4.0797e-05
0.0012764
-3.77718e-05
0.00128551
-3.47433e-05
0.0012941
-3.16856e-05
0.00130214
-2.85827e-05
0.00130945
-2.56058e-05
0.00131624
-2.26029e-05
0.00132264
-1.95553e-05
0.00132837
-1.63983e-05
0.00133312
-1.3488e-05
0.00133761
-1.06791e-05
0.00134205
-7.80981e-06
0.00134601
-4.80972e-06
0.00134889
-1.6264e-06
0.00134988
-6.43728e-05
0.00135145
-6.68191e-05
0.00135691
-6.91097e-05
0.00136331
-7.07511e-05
0.00137005
-7.19116e-05
0.00137496
-7.21114e-05
0.001374
-7.37757e-05
0.00137908
-7.91699e-05
0.00138693
-0.000127756
0.00140663
-0.000320158
0.00149046
-0.000355104
0.00173356
-0.000343488
0.0018773
-0.000343315
0.00193217
-0.000339108
0.00194554
-0.000333901
0.00196121
-0.000311464
0.00196951
-0.000275713
0.00197461
-0.000233936
0.00198091
-0.000195666
0.00198374
-0.000161354
0.00198804
-0.000135448
0.00198902
-0.000104991
0.00197814
-8.37999e-05
0.00197126
-7.03888e-05
0.00196659
-5.09209e-05
0.00196241
-3.47744e-05
0.00196174
-2.44193e-05
0.00195562
-1.78906e-05
0.00194141
-1.03401e-05
0.00193
-9.36753e-07
0.00192052
6.01529e-06
0.0019099
1.60294e-05
0.00189827
2.48281e-05
0.0018852
3.49283e-05
0.00186183
4.29053e-05
0.00183853
5.25635e-05
0.00180688
7.03285e-05
0.00175218
0.00010205
0.00168824
0.000131985
0.00159727
0.000173664
0.00148109
0.000234817
0.00133104
0.00031529
0.00115856
0.000407838
0.00099465
0.000472026
0.000864559
0.000522843
0.000763318
0.000557655
0.000688816
0.000579431
0.00063331
0.000587091
0.00059025
0.000580499
0.000555654
0.000562243
0.000525148
0.000534894
0.000497477
0.000500293
0.000475841
0.000463005
0.000459242
0.000427594
0.000439522
0.00039427
0.000416662
0.000365602
0.000396548
0.000340638
0.000379745
0.000318879
0.000362574
0.000300334
0.000342849
0.0002838
0.000320831
0.000269881
0.00029747
0.000259418
0.000275319
0.000251959
0.000255746
0.000247576
0.000236804
0.000246208
0.00021657
0.000249595
0.000194332
0.000257377
0.0001711
0.000272864
0.00014788
0.000292179
0.000125396
0.000316265
0.000103392
0.000335012
8.15583e-05
0.000362174
5.86817e-05
0.000381578
3.71551e-05
0.000408574
1.67571e-05
-6.24921e-05
-6.59478e-05
0.000834816
-6.93531e-05
0.000852607
-7.26565e-05
0.000870615
-7.58091e-05
0.00088884
-7.87653e-05
0.000907272
-8.14839e-05
0.000925891
-8.39283e-05
0.000944674
-8.6067e-05
0.000963589
-8.78745e-05
0.000982597
-8.93306e-05
0.00100166
-9.04212e-05
0.00102073
-9.11377e-05
0.00103975
-9.1477e-05
0.00105869
-9.14412e-05
0.00107749
-9.10371e-05
0.00109609
-9.02756e-05
0.00111445
-8.91715e-05
0.00113252
-8.77424e-05
0.00115026
-8.60084e-05
0.00116762
-8.3992e-05
0.00118455
-8.17171e-05
0.00120103
-7.92065e-05
0.00121702
-7.64851e-05
0.00123249
-7.35824e-05
0.00124741
-7.0513e-05
0.00126176
-6.73069e-05
0.00127552
-6.39916e-05
0.00128868
-6.05728e-05
0.00130121
-5.70809e-05
0.00131311
-5.35299e-05
0.0013244
-4.99425e-05
0.00133508
-4.63042e-05
0.00134503
-4.26805e-05
0.00135437
-3.90765e-05
0.00136319
-3.54232e-05
0.00137129
-3.17626e-05
0.00137863
-2.82039e-05
0.0013856
-2.47007e-05
0.00139199
-2.10919e-05
0.00139754
-1.74466e-05
0.00140223
-1.40128e-05
0.00140696
-1.06232e-05
0.00141134
-7.30727e-06
0.00141494
-3.82307e-06
0.00141718
-6.9184e-05
0.00141796
-7.15154e-05
0.00142226
-7.37231e-05
0.00142776
-7.55244e-05
0.00143441
-7.65884e-05
0.00143984
-7.75458e-05
0.00143954
-7.99048e-05
0.00144349
-9.5844e-05
0.0014528
-0.00020956
0.00147988
-0.00058066
0.00164351
-0.000505678
0.00176369
-0.000396572
0.00186026
-0.000351825
0.00194075
-0.000351859
0.00198308
-0.000338198
0.00202013
-0.000311062
0.00203118
-0.000280612
0.00204577
-0.000237891
0.00205597
-0.000198073
0.00205212
-0.000159262
0.00205291
-0.00013012
0.00204879
-0.000102713
0.00204219
-7.84467e-05
0.00203497
-5.94826e-05
0.00202608
-4.46828e-05
0.00201554
-3.00703e-05
0.00201927
-1.7337e-05
0.00201449
-9.9716e-06
0.00200245
5.77391e-07
0.00198387
1.28773e-05
0.00197211
2.16662e-05
0.00195624
3.26612e-05
0.00193077
4.48212e-05
0.00191033
6.04532e-05
0.00186818
7.9798e-05
0.00181374
9.98281e-05
0.00174425
0.000132125
0.0016454
0.000192737
0.00150691
0.000253968
0.00133843
0.000332761
0.00116837
0.000414233
0.00101922
0.000478283
0.000896577
0.000532837
0.000795828
0.000570599
0.000717519
0.000598041
0.000656035
0.000616463
0.000608874
0.000626006
0.000572968
0.000623101
0.00054593
0.000609963
0.000521741
0.000587468
0.000498238
0.000556752
0.000475987
0.000519336
0.000457717
0.000481386
0.000440565
0.000445121