/*--------------------------------*- C++ -*----------------------------------*\
| =========                 |                                                 |
| \\      /  F ield         | OpenFOAM: The Open Source CFD Toolbox           |
|  \\    /   O peration     | Version:  2.2.x                                 |
|   \\  /    A nd           | Web:      www.OpenFOAM.org                      |
|    \\/     M anipulation  |                                                 |
\*---------------------------------------------------------------------------*/
FoamFile
{
    version     2.0;
    format      ascii;
    class       volScalarField;
    location    "0.4";
    object      T;
}
// * * * * * * * * * * * * * * * * * * * * * * * * * * * * * * * * * * * * * //

dimensions      [0 0 0 1 0 0 0];

internalField   nonuniform List<scalar> 
14161
(
1
1
0.999999
0.999999
0.999998
0.999996
0.999993
0.999988
0.99998
0.999968
0.999949
0.999921
0.99988
0.999821
0.99974
0.999629
0.999482
0.999288
0.999041
0.998729
0.998343
0.997875
0.997315
0.996666
0.995898
0.995044
0.994066
0.993002
0.991814
0.990542
0.989164
0.987716
0.986207
0.98463
0.983017
0.981363
0.979671
0.977915
0.976197
0.974611
0.972954
0.971347
0.969795
0.968319
0.966704
0.965055
0.963342
0.961839
0.960069
0.958382
0.956976
0.955652
0.954362
0.953539
0.952773
0.952397
0.952118
0.95294
0.953839
0.955066
0.957569
0.960663
0.964722
0.977419
0.992437
1.00753
2.48067
3.06369
3.28928
3.22066
3.18177
3.07027
2.96441
2.87477
2.78395
2.70176
2.63398
2.58046
2.53629
2.49281
2.46057
2.44658
2.43972
2.40983
2.38649
2.35568
2.42293
2.72011
2.89397
3.0329
3.12866
3.16919
3.18983
3.2065
3.22077
3.23382
3.24376
3.25112
3.25624
3.26091
3.26528
3.26855
3.27142
3.2751
3.27899
3.28251
3.28584
3.29022
3.29637
3.30426
3.31299
3.32316
3.33705
3.35781
3.38927
3.43438
3.4788
3.50276
3.51288
1
1
0.999999
0.999999
0.999998
0.999996
0.999993
0.999988
0.99998
0.999968
0.999949
0.999921
0.99988
0.999821
0.99974
0.999629
0.999482
0.999289
0.999041
0.998728
0.998343
0.997878
0.997317
0.996665
0.995902
0.995042
0.994066
0.992989
0.991808
0.990536
0.989176
0.987722
0.986198
0.984636
0.983023
0.981375
0.979691
0.977943
0.976231
0.974636
0.972969
0.971351
0.969769
0.968295
0.966706
0.965073
0.963409
0.96183
0.960166
0.958437
0.956902
0.955564
0.954204
0.953132
0.952514
0.951659
0.951052
0.950841
0.951312
0.952014
0.954415
0.95734
0.960088
0.964165
0.977689
0.990091
2.33252
3.06542
3.26446
3.11768
3.01856
2.91845
2.84126
2.78576
2.70886
2.65171
2.5963
2.54867
2.51113
2.47509
2.44671
2.43533
2.42918
2.40256
2.39588
2.37094
2.44424
2.67567
2.80707
2.92305
3.03112
3.10154
3.14424
3.17552
3.19912
3.21815
3.23185
3.24237
3.24995
3.25654
3.26238
3.26668
3.27037
3.27478
3.27919
3.28307
3.28667
3.29129
3.29759
3.30552
3.31415
3.32429
3.33831
3.35921
3.39052
3.43525
3.47936
3.50213
3.51206
1
1
0.999999
0.999999
0.999998
0.999996
0.999993
0.999988
0.99998
0.999968
0.999949
0.999921
0.99988
0.999821
0.99974
0.99963
0.999482
0.999289
0.999042
0.998731
0.998347
0.997879
0.99732
0.996666
0.99591
0.995049
0.99408
0.993005
0.991831
0.990555
0.989181
0.987733
0.986222
0.984658
0.983051
0.981401
0.979706
0.97797
0.976245
0.974647
0.972972
0.97132
0.969769
0.968249
0.966678
0.965098
0.963496
0.961904
0.960215
0.958494
0.956872
0.955491
0.953904
0.952669
0.95161
0.950562
0.949549
0.948079
0.947632
0.947209
0.947951
0.94861
0.947826
0.946541
0.947681
0.975463
2.03196
3.04058
3.24783
3.01704
2.87284
2.78903
2.7419
2.66694
2.63297
2.5717
2.52641
2.48941
2.46119
2.42931
2.41107
2.4045
2.40618
2.38936
2.41678
2.41752
2.59251
2.71719
2.81264
2.90263
2.97423
3.0405
3.08837
3.12608
3.15639
3.18208
3.2031
3.22015
3.23245
3.24254
3.25108
3.25766
3.26346
3.26972
3.27544
3.28036
3.28491
3.29035
3.29726
3.30555
3.31425
3.32449
3.33859
3.35971
3.39132
3.43575
3.47942
3.5005
3.50952
1
1
0.999999
0.999999
0.999998
0.999996
0.999993
0.999988
0.99998
0.999968
0.999949
0.999921
0.99988
0.999822
0.999741
0.999631
0.999484
0.999291
0.999045
0.998734
0.998351
0.997884
0.997331
0.996674
0.995924
0.995059
0.994095
0.99302
0.991845
0.990572
0.989208
0.987769
0.986253
0.984689
0.983076
0.981428
0.979742
0.978032
0.976303
0.97467
0.97297
0.971317
0.96972
0.968181
0.966645
0.965132
0.96357
0.962059
0.960297
0.95859
0.956971
0.955207
0.953522
0.951961
0.950495
0.948847
0.947229
0.945457
0.944018
0.942157
0.940039
0.935521
0.927234
0.915889
0.910571
0.922277
1.39494
2.85521
3.12809
2.85946
2.76425
2.68238
2.67917
2.5611
2.58247
2.50419
2.45584
2.43265
2.42013
2.38422
2.37987
2.37427
2.39691
2.39754
2.45419
2.5439
2.66291
2.79928
2.87328
2.94183
2.97335
3.01538
3.05659
3.09082
3.12214
3.15121
3.17643
3.19643
3.21149
3.22405
3.23503
3.24423
3.25268
3.26104
3.26833
3.27459
3.28051
3.28723
3.29504
3.30382
3.3126
3.323
3.3374
3.35903
3.39146
3.43586
3.47909
3.49849
3.50667
1
1
0.999999
0.999999
0.999998
0.999996
0.999993
0.999988
0.99998
0.999968
0.999949
0.999921
0.999881
0.999823
0.999742
0.999633
0.999486
0.999295
0.999048
0.998739
0.998358
0.997893
0.997343
0.996687
0.995943
0.995077
0.99412
0.993045
0.991878
0.99061
0.989255
0.987816
0.986299
0.984731
0.983122
0.981484
0.979793
0.978095
0.976427
0.974708
0.972983
0.971334
0.969737
0.968117
0.966556
0.965187
0.963737
0.962016
0.960415
0.95877
0.95703
0.955036
0.953081
0.951033
0.949177
0.946917
0.944841
0.942665
0.940552
0.938073
0.934723
0.929252
0.922956
0.914768
0.903761
0.908351
0.967138
2.49183
2.87576
2.72067
2.68149
2.59717
2.61574
2.48733
2.5231
2.47777
2.40731
2.39198
2.39354
2.35774
2.37346
2.37729
2.41611
2.44457
2.5451
2.67323
2.75761
2.84155
2.90142
2.95945
2.99345
3.02793
3.05562
3.07979
3.1052
3.13102
3.1534
3.17124
3.18612
3.20038
3.21392
3.22573
3.23672
3.24738
3.25671
3.265
3.27279
3.28113
3.29005
3.29948
3.30879
3.32013
3.33546
3.35774
3.39105
3.43543
3.47806
3.49653
3.50453
1
1
0.999999
0.999999
0.999998
0.999996
0.999993
0.999988
0.99998
0.999968
0.99995
0.999922
0.999881
0.999824
0.999744
0.999635
0.999489
0.999299
0.999054
0.998747
0.998367
0.997905
0.997357
0.996707
0.995964
0.995104
0.994154
0.993087
0.991929
0.990665
0.98931
0.987869
0.986357
0.984792
0.983193
0.981556
0.979858
0.978204
0.976516
0.974763
0.973038
0.971421
0.969711
0.967995
0.966588
0.965202
0.963731
0.962085
0.960432
0.958917
0.957182
0.955059
0.952678
0.95022
0.947995
0.945547
0.943044
0.940523
0.938705
0.936026
0.9331
0.929204
0.921643
0.906348
0.868638
0.836484
0.945084
2.00191
2.61829
2.66051
2.63047
2.56788
2.58119
2.47136
2.48441
2.47009
2.37861
2.37608
2.39058
2.35371
2.40433
2.41565
2.49361
2.5875
2.68829
2.78521
2.85717
2.88785
2.93361
2.97436
3.01958
3.04979
3.07409
3.0942
3.1137
3.13363
3.15087
3.16499
3.17735
3.18952
3.20112
3.21151
3.22182
3.23303
3.24397
3.25471
3.26479
3.27498
3.28498
3.29514
3.30533
3.31797
3.33408
3.35699
3.39095
3.43498
3.47681
3.49479
3.50286
1
1
0.999999
0.999999
0.999998
0.999996
0.999993
0.999988
0.999981
0.999968
0.99995
0.999922
0.999882
0.999825
0.999746
0.999637
0.999493
0.999304
0.999061
0.998757
0.998379
0.997922
0.997376
0.996733
0.995993
0.995144
0.994197
0.993139
0.991984
0.990724
0.989376
0.987945
0.986447
0.984893
0.983293
0.981649
0.97996
0.978317
0.976625
0.974898
0.973141
0.97151
0.96968
0.968046
0.966609
0.965271
0.963654
0.96217
0.960456
0.959043
0.957203
0.954955
0.952407
0.949678
0.947079
0.944159
0.941232
0.938805
0.936878
0.934635
0.932762
0.931499
0.928313
0.922784
0.923898
0.976991
1.35391
2.04132
2.44706
2.56065
2.66472
2.58435
2.61689
2.47537
2.46776
2.47954
2.36431
2.40112
2.42654
2.39741
2.49033
2.54168
2.64967
2.74527
2.83334
2.89521
2.92552
2.93818
2.96472
2.98451
3.02124
3.04585
3.07771
3.10497
3.12701
3.14511
3.15891
3.17033
3.1807
3.19
3.19838
3.20607
3.21442
3.2242
3.23488
3.24614
3.25725
3.26837
3.27882
3.28987
3.30116
3.31504
3.3321
3.35583
3.39062
3.43428
3.47536
3.49332
3.50171
1
1
0.999999
0.999999
0.999998
0.999996
0.999993
0.999989
0.999981
0.999969
0.999951
0.999923
0.999883
0.999827
0.999748
0.999641
0.999498
0.99931
0.999071
0.998768
0.998395
0.997943
0.9974
0.996769
0.996029
0.995194
0.994249
0.993202
0.992053
0.990806
0.989475
0.988055
0.986572
0.985014
0.983408
0.981761
0.9801
0.97846
0.976785
0.975084
0.97329
0.971584
0.969766
0.968095
0.966638
0.965226
0.963611
0.962122
0.960573
0.959051
0.957294
0.955028
0.952553
0.948977
0.94633
0.942979
0.939959
0.938111
0.936422
0.934162
0.933125
0.932414
0.929639
0.921327
0.916748
0.926617
1.7707
2.22142
2.33707
2.46975
2.6807
2.62275
2.6896
2.53069
2.49223
2.517
2.39552
2.45835
2.50925
2.51692
2.63235
2.73343
2.82848
2.90417
2.94301
2.96449
2.97241
2.98254
2.99528
3.00831
3.02911
3.04679
3.07581
3.10596
3.12909
3.14691
3.16031
3.17116
3.18147
3.1903
3.19716
3.20314
3.21031
3.2196
3.23006
3.24147
3.25274
3.26408
3.27479
3.28631
3.29815
3.31252
3.33028
3.35466
3.39048
3.4339
3.47406
3.49205
3.50047
1
1
0.999999
0.999999
0.999998
0.999996
0.999993
0.999989
0.999981
0.999969
0.999951
0.999924
0.999885
0.999829
0.999751
0.999645
0.999504
0.999319
0.999082
0.998783
0.998415
0.997968
0.99743
0.996808
0.996073
0.995253
0.994313
0.993281
0.992144
0.990914
0.989598
0.988189
0.986712
0.985153
0.983554
0.981914
0.980286
0.978641
0.976978
0.975286
0.973534
0.971733
0.969906
0.968208
0.966715
0.965318
0.963702
0.962265
0.960744
0.959227
0.957328
0.955216
0.952558
0.949834
0.946898
0.943478
0.940263
0.9373
0.935083
0.933055
0.931522
0.929835
0.924823
0.912019
0.934116
1.00844
2.01255
2.21946
2.24562
2.33701
2.56248
2.65536
2.72445
2.62705
2.55773
2.57446
2.52071
2.58985
2.65605
2.72282
2.8031
2.90176
2.96227
2.99032
2.99919
3.00355
3.00733
3.01656
3.02211
3.03356
3.04421
3.05849
3.08181
3.10827
3.13094
3.14937
3.16286
3.1728
3.18213
3.18984
3.19525
3.20037
3.20716
3.21635
3.22682
3.23829
3.24935
3.26074
3.27155
3.28333
3.29534
3.31025
3.3286
3.35366
3.39067
3.43391
3.47278
3.49082
3.49933
1
1
0.999999
0.999999
0.999998
0.999996
0.999994
0.999989
0.999981
0.99997
0.999952
0.999925
0.999887
0.999832
0.999755
0.999651
0.999511
0.999329
0.999096
0.998801
0.998439
0.997998
0.99747
0.996854
0.996133
0.995321
0.994394
0.993381
0.992257
0.991043
0.989734
0.988339
0.986874
0.985335
0.983757
0.982129
0.980499
0.97885
0.977179
0.975528
0.973823
0.972034
0.970158
0.968363
0.966946
0.965485
0.963784
0.962374
0.960981
0.959397
0.957488
0.955475
0.953172
0.950753
0.947999
0.944286
0.941016
0.938245
0.935848
0.934046
0.933363
0.933674
0.934854
0.938351
1.00669
1.32799
2.12196
2.24801
2.25211
2.34194
2.4843
2.71156
2.71427
2.74266
2.62182
2.66575
2.70538
2.75887
2.83862
2.91544
2.95545
2.99623
3.01901
3.02759
3.03112
3.03316
3.03909
3.04443
3.04967
3.05696
3.06406
3.07425
3.09305
3.11425
3.13326
3.15021
3.16376
3.17454
3.18362
3.18977
3.19377
3.19804
3.20395
3.21219
3.22203
3.23332
3.24421
3.25588
3.26686
3.2789
3.29148
3.30734
3.32666
3.35278
3.39124
3.43436
3.4717
3.48966
3.49802
1
1
1
0.999999
0.999998
0.999996
0.999994
0.999989
0.999982
0.99997
0.999953
0.999927
0.999889
0.999835
0.999759
0.999657
0.99952
0.999341
0.999112
0.998823
0.998467
0.998032
0.997518
0.996907
0.996204
0.9954
0.994495
0.993493
0.992384
0.991187
0.989891
0.988527
0.98708
0.985575
0.984002
0.98238
0.980736
0.979087
0.97743
0.975847
0.974182
0.972401
0.970523
0.968794
0.967246
0.965538
0.963968
0.962573
0.961124
0.959448
0.957617
0.955789
0.953864
0.951784
0.948997
0.946058
0.942722
0.940094
0.937495
0.935473
0.933844
0.931691
0.931191
0.93272
0.992664
1.78521
2.28012
2.29791
2.29349
2.35711
2.46379
2.72706
2.7496
2.83877
2.74493
2.80731
2.89269
2.92956
2.97377
3.00685
3.02074
3.03464
3.04057
3.04446
3.04721
3.05154
3.05703
3.06166
3.06904
3.07585
3.08367
3.09327
3.10893
3.12549
3.14032
3.15457
3.16715
3.17783
3.18618
3.19164
3.19555
3.19972
3.20477
3.21211
3.22122
3.23193
3.24211
3.25334
3.26379
3.27553
3.28846
3.30485
3.32503
3.3524
3.39242
3.43537
3.47087
3.4886
3.49676
1
1
1
0.999999
0.999998
0.999997
0.999994
0.999989
0.999982
0.999971
0.999954
0.999928
0.999891
0.999838
0.999764
0.999664
0.99953
0.999355
0.99913
0.998848
0.998499
0.998073
0.99757
0.99697
0.996287
0.995495
0.994613
0.993623
0.992541
0.991364
0.990099
0.988758
0.987334
0.98585
0.98428
0.982671
0.981029
0.979402
0.977773
0.976204
0.974566
0.972825
0.970994
0.969291
0.967624
0.965882
0.964282
0.962807
0.961223
0.959462
0.957768
0.956153
0.954391
0.952311
0.950235
0.947736
0.945136
0.942179
0.939085
0.9361
0.933202
0.927962
0.922096
0.936241
1.02167
2.0907
2.31619
2.32667
2.33265
2.39047
2.55963
2.79001
2.86168
2.95885
2.92325
2.98289
3.01809
3.03525
3.04068
3.04677
3.04682
3.04891
3.0518
3.05284
3.0563
3.06215
3.06714
3.07378
3.08063
3.08794
3.09552
3.10499
3.1185
3.13217
3.14467
3.15671
3.16754
3.17668
3.18398
3.18937
3.19324
3.19701
3.20136
3.20811
3.21687
3.22746
3.23752
3.24884
3.25943
3.27172
3.28542
3.30245
3.32355
3.35231
3.39402
3.43671
3.47019
3.48758
3.49553
1
1
1
0.999999
0.999998
0.999997
0.999994
0.99999
0.999983
0.999972
0.999955
0.99993
0.999894
0.999842
0.99977
0.999672
0.999541
0.999371
0.999151
0.998876
0.998535
0.998123
0.997629
0.997047
0.996378
0.995605
0.994746
0.993777
0.992726
0.991572
0.990336
0.989014
0.987622
0.986156
0.984625
0.983041
0.981419
0.979792
0.978177
0.976551
0.974967
0.973326
0.971622
0.969834
0.968159
0.966401
0.964799
0.963142
0.961442
0.959708
0.958105
0.956425
0.954534
0.952647
0.950751
0.948754
0.946376
0.943785
0.940991
0.938711
0.937017
0.937078
0.939397
1.00296
1.23706
2.18669
2.324
2.32773
2.36494
2.43598
2.68442
2.84891
3.0153
3.09057
3.0729
3.07958
3.07581
3.07034
3.06349
3.05712
3.05466
3.05013
3.05588
3.05724
3.06138
3.067
3.0735
3.0812
3.08898
3.09753
3.10605
3.11623
3.12793
3.13874
3.1494
3.15956
3.1691
3.17769
3.1851
3.19126
3.195
3.19831
3.20183
3.20768
3.21533
3.22516
3.23466
3.24556
3.25596
3.26862
3.2829
3.30057
3.32262
3.35283
3.39602
3.43803
3.4697
3.48659
3.49437
1
1
1
0.999999
0.999998
0.999997
0.999994
0.99999
0.999983
0.999973
0.999956
0.999932
0.999897
0.999847
0.999777
0.999681
0.999554
0.999389
0.999176
0.998909
0.998577
0.998178
0.997697
0.997136
0.996481
0.995736
0.994897
0.993959
0.992933
0.991806
0.990602
0.989308
0.987953
0.986525
0.985038
0.983482
0.981877
0.98025
0.978628
0.976997
0.975434
0.973884
0.972242
0.970509
0.968821
0.967192
0.965361
0.963613
0.961996
0.960266
0.958427
0.956632
0.954651
0.952791
0.951057
0.949072
0.94711
0.945209
0.943572
0.941479
0.938999
0.939559
0.943507
1.02003
1.65846
2.33954
2.36185
2.36578
2.44197
2.5553
2.80378
2.98073
3.12173
3.13199
3.12378
3.11088
3.09962
3.08648
3.07459
3.0638
3.05905
3.05737
3.05913
3.06185
3.06644
3.07189
3.07837
3.08482
3.09241
3.10052
3.10937
3.11927
3.12975
3.13873
3.14798
3.15672
3.16547
3.17387
3.18135
3.18818
3.19245
3.1953
3.1983
3.20424
3.21194
3.22204
3.23157
3.24252
3.25299
3.26608
3.28085
3.29918
3.3222
3.35393
3.3983
3.43923
3.46936
3.48572
3.49319
1
1
1
0.999999
0.999998
0.999997
0.999994
0.99999
0.999984
0.999974
0.999958
0.999934
0.9999
0.999852
0.999784
0.999692
0.999569
0.999409
0.999203
0.998945
0.998625
0.998239
0.997774
0.997234
0.996599
0.995884
0.995068
0.994165
0.993168
0.992082
0.990912
0.989658
0.988339
0.986947
0.985505
0.983986
0.982414
0.9808
0.97919
0.977583
0.975995
0.974462
0.972866
0.97123
0.969631
0.968021
0.966168
0.964343
0.962717
0.960956
0.958899
0.956981
0.95509
0.9531
0.951248
0.94919
0.946959
0.944827
0.942622
0.940209
0.934731
0.925082
0.923135
0.985632
2.06276
2.3688
2.39659
2.43781
2.55277
2.74515
2.94422
3.12428
3.1712
3.13701
3.13263
3.11605
3.10039
3.08718
3.07773
3.06932
3.06399
3.06012
3.06093
3.0615
3.06566
3.0715
3.07987
3.08812
3.09801
3.10772
3.11786
3.12662
3.1352
3.14263
3.15082
3.15941
3.16834
3.17684
3.18398
3.18987
3.19367
3.1956
3.19753
3.20284
3.20991
3.21984
3.2291
3.23984
3.25036
3.26381
3.27898
3.29803
3.32221
3.35562
3.40095
3.44053
3.4691
3.48486
3.49203
1
1
1
0.999999
0.999998
0.999997
0.999995
0.999991
0.999984
0.999975
0.999959
0.999937
0.999904
0.999857
0.999792
0.999703
0.999585
0.999431
0.999234
0.998985
0.99868
0.998307
0.997863
0.997342
0.996735
0.996047
0.995261
0.994398
0.993434
0.992395
0.991263
0.990056
0.988775
0.987431
0.986031
0.984564
0.983046
0.981462
0.97987
0.978273
0.976686
0.975125
0.973576
0.972009
0.97041
0.96888
0.967137
0.965313
0.963514
0.961657
0.959583
0.957583
0.955546
0.953532
0.951405
0.949312
0.94703
0.94404
0.94109
0.939201
0.940065
0.949551
1.01893
1.2542
2.23283
2.39831
2.41057
2.51558
2.65979
2.89418
3.08616
3.17267
3.15488
3.13649
3.11975
3.10808
3.09875
3.09049
3.08349
3.07476
3.06984
3.06321
3.06266
3.06282
3.06599
3.07111
3.07832
3.08709
3.09754
3.10851
3.11939
3.12796
3.13529
3.14136
3.14828
3.1562
3.16462
3.1728
3.18002
3.18627
3.19021
3.1927
3.1954
3.20125
3.2084
3.21835
3.22747
3.23806
3.24852
3.26218
3.27755
3.29728
3.32267
3.35777
3.4038
3.44194
3.46902
3.48413
3.49097
1
1
1
0.999999
0.999999
0.999997
0.999995
0.999991
0.999985
0.999976
0.999961
0.99994
0.999908
0.999863
0.999801
0.999716
0.999603
0.999456
0.999268
0.99903
0.998739
0.998383
0.997962
0.997461
0.996888
0.996227
0.995483
0.994655
0.993737
0.992744
0.991657
0.990506
0.989269
0.987982
0.986629
0.985229
0.983768
0.982249
0.98069
0.979108
0.977528
0.975943
0.974403
0.97286
0.971314
0.969716
0.968035
0.966329
0.964446
0.962517
0.960443
0.958433
0.956106
0.953777
0.951722
0.949867
0.948107
0.946406
0.944862
0.942705
0.94326
0.94824
1.02434
1.64546
2.39513
2.44408
2.48095
2.6281
2.83793
3.02455
3.14192
3.16391
3.13896
3.12618
3.1069
3.09501
3.08723
3.0815
3.07709
3.07011
3.06724
3.06214
3.06131
3.06087
3.06397
3.06894
3.0763
3.08522
3.09607
3.10768
3.11938
3.12956
3.13826
3.14515
3.15227
3.16002
3.16763
3.17486
3.18083
3.18568
3.18841
3.19058
3.1931
3.19895
3.20614
3.21631
3.22559
3.23631
3.24676
3.26069
3.27632
3.29673
3.32341
3.36004
3.40659
3.44331
3.46896
3.48336
3.48983
1
1
1
0.999999
0.999999
0.999997
0.999995
0.999992
0.999986
0.999977
0.999963
0.999943
0.999913
0.99987
0.999811
0.99973
0.999623
0.999484
0.999304
0.99908
0.998803
0.998467
0.998068
0.997595
0.997054
0.996426
0.995729
0.99494
0.994077
0.99313
0.992107
0.991009
0.989833
0.988602
0.987304
0.985974
0.984574
0.983139
0.981634
0.9801
0.978539
0.976978
0.975411
0.973886
0.972331
0.970723
0.969029
0.967357
0.965444
0.96342
0.961473
0.959508
0.957115
0.954637
0.952271
0.949936
0.947573
0.94436
0.940912
0.934244
0.919312
0.911667
0.966116
2.06646
2.4422
2.47957
2.63326
2.75263
2.99957
3.15314
3.18204
3.13909
3.13
3.1116
3.09682
3.08679
3.08088
3.07651
3.07275
3.06609
3.06241
3.05873
3.0572
3.05833
3.06206
3.06678
3.07306
3.08071
3.08995
3.10045
3.11159
3.1226
3.13268
3.14092
3.14887
3.15747
3.16571
3.17363
3.1797
3.18374
3.18604
3.18848
3.19136
3.19755
3.205
3.21535
3.22451
3.23526
3.24557
3.25969
3.27554
3.29664
3.32443
3.36245
3.40923
3.44455
3.46892
3.48269
3.48891
1
1
1
0.999999
0.999999
0.999998
0.999996
0.999992
0.999987
0.999978
0.999965
0.999946
0.999918
0.999877
0.999822
0.999746
0.999645
0.999513
0.999345
0.999134
0.998873
0.99856
0.998183
0.997744
0.997233
0.996649
0.995994
0.995256
0.994451
0.993558
0.992609
0.991569
0.990472
0.9893
0.988078
0.986806
0.985487
0.984126
0.9827
0.98124
0.979727
0.97821
0.976666
0.975138
0.973589
0.97201
0.970381
0.968617
0.966668
0.964582
0.962552
0.960344
0.957989
0.955484
0.952842
0.949787
0.945255
0.939604
0.935823
0.935522
0.94949
1.04023
1.30067
2.2922
2.4954
2.55121
2.74345
2.92617
3.11461
3.18763
3.15581
3.14582
3.12228
3.1049
3.08852
3.07698
3.07032
3.06602
3.0629
3.05826
3.05501
3.05199
3.05047
3.0526
3.05749
3.0636
3.07107
3.07946
3.08896
3.09911
3.1098
3.121
3.13167
3.141
3.1496
3.15812
3.16565
3.17257
3.17721
3.17987
3.18162
3.18446
3.18792
3.19486
3.20304
3.21398
3.22329
3.2342
3.2445
3.25895
3.27515
3.29682
3.32546
3.36484
3.41165
3.44562
3.46885
3.48202
3.4879
1
1
1
0.999999
0.999999
0.999998
0.999996
0.999993
0.999988
0.99998
0.999968
0.99995
0.999923
0.999885
0.999833
0.999762
0.999668
0.999545
0.999388
0.999192
0.99895
0.998659
0.998309
0.997903
0.997428
0.996893
0.996281
0.995605
0.994855
0.994037
0.993153
0.992195
0.99118
0.990086
0.988952
0.987748
0.98652
0.985235
0.983913
0.982537
0.981118
0.979662
0.978176
0.97668
0.975158
0.973633
0.971979
0.970224
0.968293
0.966189
0.963755
0.961035
0.958824
0.956618
0.954289
0.951904
0.949229
0.946173
0.94411
0.94234
0.9468
1.04223
1.79137
2.53301
2.56737
2.76121
2.92035
3.10725
3.18045
3.16894
3.14635
3.1342
3.11387
3.10022
3.08604
3.07304
3.0645
3.05938
3.05612
3.05227
3.04808
3.04528
3.04327
3.04557
3.0508
3.05751
3.06567
3.07493
3.08509
3.09576
3.10708
3.11893
3.13107
3.14206
3.1514
3.15993
3.1667
3.17254
3.17607
3.17802
3.17932
3.18227
3.18601
3.19339
3.20202
3.21333
3.22255
3.23352
3.24382
3.25857
3.27516
3.29733
3.32662
3.36722
3.41386
3.44647
3.46868
3.48131
3.48702
1
1
1
1
0.999999
0.999998
0.999996
0.999994
0.999989
0.999982
0.99997
0.999953
0.999929
0.999894
0.999846
0.99978
0.999693
0.999579
0.999435
0.999254
0.999033
0.998764
0.998446
0.998073
0.997641
0.997152
0.996595
0.995983
0.995297
0.99456
0.993747
0.992886
0.991954
0.990967
0.98992
0.988822
0.987685
0.986498
0.985283
0.984006
0.982705
0.981332
0.979952
0.978521
0.977064
0.975551
0.973915
0.972168
0.970375
0.968457
0.966242
0.963821
0.961168
0.958578
0.955518
0.95253
0.948656
0.941814
0.927162
0.901363
0.910804
1.03095
2.2252
2.602
2.65047
2.87179
3.07226
3.16742
3.19313
3.15887
3.14693
3.12022
3.10552
3.09342
3.08145
3.06951
3.06132
3.05545
3.05152
3.04715
3.04115
3.03811
3.03556
3.03812
3.0434
3.0505
3.05871
3.06797
3.07828
3.08934
3.10119
3.11312
3.12606
3.13881
3.14911
3.1579
3.16425
3.16916
3.17173
3.17376
3.17547
3.17898
3.18325
3.19134
3.20054
3.21228
3.22153
3.23275
3.24335
3.25839
3.27521
3.29798
3.32788
3.36957
3.41576
3.44709
3.46846
3.48063
3.48604
1
1
1
1
0.999999
0.999998
0.999997
0.999994
0.99999
0.999983
0.999973
0.999957
0.999935
0.999903
0.999859
0.999799
0.999719
0.999616
0.999484
0.999321
0.99912
0.998877
0.998591
0.998254
0.99787
0.997428
0.996936
0.996384
0.995778
0.995118
0.994399
0.993634
0.992805
0.991937
0.990998
0.990029
0.988994
0.987938
0.986831
0.985687
0.984498
0.983262
0.98201
0.980722
0.979387
0.977931
0.976337
0.974703
0.97303
0.971261
0.969276
0.96686
0.963725
0.959568
0.955028
0.95296
0.95193
0.952524
0.957289
0.975203
1.06503
1.64158
2.62724
2.7086
2.84954
3.02653
3.15377
3.18699
3.15399
3.14722
3.12859
3.11255
3.09786
3.08643
3.07638
3.06674
3.05801
3.0513
3.04629
3.0416
3.03507
3.03202
3.02906
3.03129
3.03606
3.04338
3.05172
3.06145
3.07243
3.08435
3.09724
3.10982
3.12342
3.13685
3.14749
3.15604
3.16188
3.16618
3.1685
3.17081
3.17266
3.1764
3.18105
3.1896
3.19902
3.21102
3.22046
3.23213
3.24307
3.25837
3.27537
3.29874
3.3293
3.37181
3.41732
3.44748
3.4682
3.47989
3.48507
1
1
1
1
0.999999
0.999999
0.999997
0.999995
0.999991
0.999985
0.999976
0.999962
0.999941
0.999913
0.999873
0.999819
0.999747
0.999655
0.999537
0.999391
0.999212
0.998998
0.998743
0.998448
0.998109
0.997723
0.997296
0.996814
0.996294
0.995715
0.995104
0.994435
0.993733
0.992981
0.992188
0.991351
0.99047
0.989559
0.988597
0.987608
0.986553
0.985495
0.98441
0.983322
0.982132
0.980794
0.979228
0.977744
0.97637
0.974822
0.973249
0.971475
0.969
0.965675
0.962349
0.959683
0.956611
0.949252
0.929988
0.921158
0.937132
2.18359
2.73926
2.80631
3.00955
3.16695
3.19416
3.16444
3.14523
3.1306
3.11583
3.10257
3.08889
3.07765
3.06839
3.06065
3.05274
3.04619
3.04118
3.03648
3.02987
3.0265
3.02347
3.02451
3.02822
3.03488
3.04262
3.05222
3.06346
3.07611
3.08981
3.10362
3.11808
3.13227
3.14361
3.15219
3.15811
3.16263
3.16522
3.16792
3.16995
3.17379
3.17866
3.18747
3.19709
3.20942
3.21941
3.23157
3.24285
3.25846
3.27567
3.29966
3.33084
3.37387
3.41854
3.44773
3.4679
3.47903
3.48407
1
1
1
1
1
0.999999
0.999998
0.999996
0.999992
0.999987
0.999979
0.999966
0.999948
0.999923
0.999887
0.999839
0.999776
0.999695
0.999592
0.999464
0.999309
0.999123
0.998904
0.998652
0.998361
0.998037
0.997671
0.997272
0.996833
0.996357
0.995849
0.995301
0.994729
0.994114
0.99348
0.992795
0.992097
0.991341
0.990575
0.989742
0.988888
0.988022
0.987159
0.986301
0.985309
0.98414
0.982804
0.981656
0.980594
0.979357
0.978109
0.976388
0.973601
0.969555
0.967387
0.96536
0.965449
0.967534
0.980236
1.05374
1.50121
2.70523
2.83538
2.95566
3.10669
3.18283
3.15517
3.14291
3.11746
3.10234
3.08962
3.07894
3.06981
3.06263
3.05657
3.05083
3.04481
3.03918
3.03472
3.03036
3.02499
3.02138
3.01856
3.01837
3.02059
3.02611
3.03291
3.04182
3.0527
3.06556
3.07988
3.09491
3.11053
3.12605
3.13829
3.14729
3.15361
3.15869
3.16184
3.16487
3.16698
3.17082
3.17599
3.18502
3.19494
3.20761
3.21828
3.23101
3.24273
3.25875
3.27622
3.30057
3.33235
3.37546
3.41921
3.44794
3.46757
3.47816
3.48285
1
1
1
1
1
0.999999
0.999998
0.999997
0.999994
0.999989
0.999982
0.999971
0.999956
0.999933
0.999903
0.999861
0.999807
0.999737
0.999649
0.99954
0.99941
0.999253
0.999072
0.998862
0.998625
0.998361
0.998067
0.99775
0.9974
0.997034
0.996634
0.996221
0.995777
0.995324
0.994843
0.99435
0.993826
0.993282
0.992715
0.992107
0.991483
0.990873
0.990259
0.989607
0.988875
0.987998
0.987161
0.986375
0.985626
0.98486
0.983986
0.982726
0.981184
0.979742
0.97851
0.977004
0.972599
0.960317
0.957289
0.958096
2.25963
2.89544
2.97804
3.07736
3.18116
3.15564
3.14176
3.11878
3.10157
3.08339
3.07054
3.06054
3.05349
3.04731
3.04181
3.03628
3.03146
3.02776
3.0251
3.02269
3.01927
3.01581
3.0129
3.01183
3.0131
3.01756
3.02371
3.03196
3.04223
3.05462
3.06885
3.08439
3.1009
3.11804
3.1316
3.14169
3.14886
3.15479
3.15849
3.16166
3.16361
3.16754
3.17321
3.1824
3.19267
3.20565
3.21716
3.2306
3.24277
3.25912
3.27692
3.30144
3.33373
3.37668
3.41955
3.44807
3.46729
3.47723
3.48186
1
1
1
1
1
1
0.999999
0.999997
0.999995
0.999991
0.999985
0.999976
0.999963
0.999944
0.999918
0.999884
0.999838
0.999781
0.999708
0.999619
0.999513
0.999388
0.999243
0.999078
0.998895
0.998691
0.998474
0.998236
0.997985
0.997722
0.997446
0.997165
0.996867
0.996574
0.996265
0.995969
0.995648
0.995334
0.994977
0.994639
0.99427
0.993958
0.993599
0.993237
0.992816
0.992376
0.991942
0.991669
0.991215
0.990703
0.989778
0.988808
0.987847
0.98748
0.987608
0.988401
0.989683
0.997172
1.05856
1.54052
2.82839
2.97008
3.0728
3.13601
3.16494
3.12938
3.12614
3.09931
3.08684
3.07057
3.05853
3.04847
3.04077
3.03389
3.02791
3.02238
3.01847
3.01574
3.01402
3.01301
3.01173
3.00911
3.00672
3.00498
3.00583
3.00877
3.01432
3.02172
3.03105
3.04266
3.05656
3.07248
3.08975
3.10778
3.12303
3.13506
3.1435
3.1504
3.15461
3.15803
3.16005
3.16421
3.17027
3.17953
3.19022
3.20347
3.21599
3.23019
3.24273
3.25936
3.27764
3.30223
3.33485
3.37751
3.41971
3.44797
3.46696
3.47624
3.48047
1
1
1
1
1
1
0.999999
0.999998
0.999996
0.999993
0.999989
0.999981
0.999971
0.999956
0.999935
0.999907
0.999871
0.999825
0.999768
0.999699
0.999618
0.999524
0.999416
0.999297
0.999166
0.999027
0.99888
0.998725
0.998573
0.998412
0.998265
0.998111
0.997971
0.997833
0.997711
0.997588
0.9975
0.997413
0.997323
0.997232
0.997158
0.997092
0.997026
0.996985
0.996917
0.996854
0.996834
0.99693
0.997118
0.997198
0.99715
0.997044
0.997187
0.997432
0.996543
0.992395
0.980655
0.983108
0.994303
2.37296
2.97637
3.07082
3.12703
3.18486
3.13329
3.12718
3.09699
3.08576
3.07097
3.05904
3.04707
3.03736
3.02854
3.02111
3.0147
3.00948
3.00569
3.00283
3.00094
3.00045
3.00119
3.00087
2.99922
2.99771
2.99858
3.00027
3.00531
3.01186
3.02036
3.03109
3.04438
3.06007
3.07743
3.09561
3.11267
3.1274
3.13764
3.14565
3.15029
3.15396
3.15624
3.16079
3.16715
3.17651
3.18785
3.20128
3.21476
3.22967
3.24289
3.25962
3.27831
3.30297
3.33569
3.37805
3.41974
3.44774
3.46634
3.47496
3.4794
1
1
1
1
1
1
1
0.999999
0.999998
0.999996
0.999992
0.999987
0.999978
0.999967
0.999951
0.99993
0.999904
0.99987
0.999829
0.999779
0.999723
0.999659
0.999589
0.999514
0.999437
0.99936
0.999285
0.999214
0.999155
0.999102
0.999068
0.999054
0.999048
0.999085
0.99912
0.999203
0.999273
0.999426
0.999601
0.999811
1.00001
1.00018
1.0004
1.00055
1.00084
1.00107
1.00131
1.00164
1.00221
1.00298
1.0039
1.00487
1.00577
1.0073
1.00954
1.01323
1.01975
1.06462
1.74223
2.89767
3.05135
3.12301
3.17252
3.13641
3.12119
3.10447
3.08724
3.07233
3.05959
3.04797
3.03756
3.02858
3.02009
3.01216
3.00498
2.99871
2.99388
2.99033
2.9877
2.98698
2.9883
2.98987
2.98963
2.98892
2.98936
2.9909
2.99574
3.00185
3.00975
3.0196
3.032
3.04716
3.06439
3.08275
3.10117
3.11855
3.13071
3.13996
3.14517
3.14929
3.15198
3.15701
3.16353
3.17319
3.18534
3.19898
3.21345
3.229
3.24313
3.25983
3.27889
3.30347
3.33622
3.37825
3.41947
3.44726
3.46553
3.47367
3.47774
1
1
1
1
1
1
1
1
0.999999
0.999998
0.999996
0.999992
0.999986
0.999979
0.999968
0.999954
0.999936
0.999914
0.999888
0.999859
0.999827
0.999794
0.99976
0.999728
0.999704
0.999684
0.999681
0.99969
0.999717
0.999774
0.999853
0.999958
1.0001
1.00026
1.00049
1.00072
1.00101
1.00133
1.00174
1.00216
1.00267
1.00316
1.00362
1.00406
1.00459
1.00507
1.00561
1.00613
1.00682
1.0077
1.00856
1.0093
1.01022
1.01184
1.01525
1.02123
1.04307
1.05557
2.51704
3.0343
3.12813
3.16935
3.15621
3.12714
3.11566
3.09407
3.07952
3.06399
3.05128
3.03936
3.02971
3.02104
3.01319
3.005
2.99719
2.98988
2.98401
2.97918
2.97516
2.97341
2.97441
2.97676
2.97865
2.97887
2.97875
2.98075
2.98511
2.99109
2.99882
3.00816
3.0199
3.03445
3.05137
3.06969
3.08895
3.10845
3.12257
3.13324
3.13925
3.14418
3.14743
3.15315
3.15969
3.16983
3.18254
3.19632
3.21184
3.22796
3.24319
3.2599
3.27927
3.30391
3.3366
3.37813
3.41907
3.44642
3.46456
3.47215
3.47686
1
1
1
1
1
1
1
1
1
1
0.999999
0.999997
0.999994
0.99999
0.999985
0.999978
0.999969
0.999959
0.999947
0.999938
0.999929
0.999925
0.999928
0.999935
0.999963
0.999996
1.00006
1.00014
1.00026
1.00039
1.00059
1.0008
1.00107
1.00137
1.00172
1.00212
1.00256
1.00307
1.00364
1.00426
1.00494
1.00569
1.00645
1.00726
1.00809
1.00893
1.00979
1.01062
1.01152
1.01251
1.01358
1.0146
1.01561
1.01698
1.01806
1.01839
1.06979
1.93978
2.93245
3.13251
3.16831
3.15999
3.12444
3.11321
3.09077
3.07847
3.0655
3.05366
3.04204
3.03213
3.02252
3.0143
3.00682
2.99911
2.99128
2.98363
2.97672
2.97081
2.96545
2.96193
2.96142
2.96355
2.96646
2.96719
2.9669
2.96948
2.97346
2.97982
2.9875
2.99668
3.008
3.02208
3.03872
3.05693
3.0765
3.09718
3.11324
3.12529
3.13229
3.13844
3.14253
3.14899
3.15569
3.16651
3.17948
3.19374
3.21024