/*--------------------------------*- C++ -*----------------------------------*\
| =========                 |                                                 |
| \\      /  F ield         | OpenFOAM: The Open Source CFD Toolbox           |
|  \\    /   O peration     | Version:  2.2.x                                 |
|   \\  /    A nd           | Web:      www.OpenFOAM.org                      |
|    \\/     M anipulation  |                                                 |
\*---------------------------------------------------------------------------*/
FoamFile
{
    version     2.0;
    format      ascii;
    class       surfaceScalarField;
    location    "1.05";
    object      cfmax;
}
// * * * * * * * * * * * * * * * * * * * * * * * * * * * * * * * * * * * * * //

dimensions      [0 3 -1 0 0 0 0];

internalField   nonuniform List<scalar> 
28084
(
0.00103347
0.00102899
0.00102514
0.0010219
0.00101925
0.00101715
0.00101556
0.00101446
0.0010138
0.00101356
0.00101369
0.00101415
0.00101492
0.00101594
0.00101719
0.00101863
0.00102022
0.00102194
0.00102374
0.0010256
0.00102748
0.00102938
0.00103125
0.00103308
0.00082731
0.000764295
0.000764798
0.000765382
0.000765816
0.000765946
0.000765643
0.000764841
0.000763523
0.000761711
0.000759458
0.000756838
0.000753935
0.000750836
0.000747621
0.000744357
0.000741097
0.000737874
0.000734708
0.000731601
0.000728545
0.000735693
0.000743234
0.00075116
0.000759425
0.00076798
0.000776774
0.000785753
0.000794861
0.000804038
0.000813223
0.000822355
0.000831371
0.000840212
0.000848816
0.000857126
0.000865086
0.000872642
0.000879743
0.000886341
0.000892389
0.000897842
0.000902655
0.000906786
0.000910199
0.000912876
0.000914805
0.00091598
0.000916405
0.000916088
0.000915043
0.000913291
0.000910854
0.000907758
0.000904029
0.000899696
0.000894789
0.000889341
0.000883385
0.000876961
0.000870113
0.00086289
0.000855349
0.000847554
0.000839577
0.000831499
0.000823404
0.000815388
0.000807549
0.000799991
0.00079282
0.000786145
0.000780076
0.000774722
0.000770192
0.000766597
0.000764043
0.00076264
0.00076249
0.000763693
0.000766339
0.000770504
0.000776243
0.000783584
0.000792519
0.000802995
0.000814901
0.000828057
0.000842208
0.000857011
0.00087204
0.000886803
0.000900798
0.000913642
0.00144695
0.00144445
0.00103834
0.00143891
0.00103701
0.00143036
0.00103628
0.00141888
0.00103613
0.00140457
0.00103652
0.00138752
0.00103742
0.00136789
0.00103881
0.00134583
0.00104065
0.00132151
0.0010429
0.00129529
0.00104552
0.00126748
0.00104847
0.00123793
0.00105172
0.00120683
0.00105522
0.0011744
0.00105893
0.00114085
0.00106282
0.00110637
0.00106683
0.00107116
0.00107094
0.00103541
0.0010751
0.000999315
0.00107929
0.000963037
0.00108347
0.000926741
0.00108761
0.000890577
0.00109167
0.000854685
0.00109564
0.00133687
0.0010995
0.00137263
0.000866427
0.00131907
0.000797702
0.00126639
0.000794751
0.00121436
0.000792705
0.00116235
0.00079125
0.00110997
0.000790123
0.00105737
0.000789052
0.00100505
0.000787855
0.000953646
0.000786483
0.000903707
0.000784979
0.000855612
0.000783409
0.00080957
0.000781829
0.000765661
0.000780265
0.000723884
0.000778718
0.00068419
0.000777175
0.000646505
0.000775615
0.000610745
0.000774014
0.000576827
0.000772349
0.000544664
0.000770595
0.000514175
0.00076873
0.000512127
0.000766729
0.000512875
0.000773691
0.000513754
0.000780969
0.000514778
0.000788499
0.000515934
0.000796225
0.000517206
0.00080409
0.000518572
0.000812037
0.000520009
0.000820005
0.000521494
0.000827931
0.000523002
0.000835749
0.00052451
0.000843392
0.000525996
0.000850792
0.000527443
0.000857884
0.000528839
0.000864606
0.000530178
0.000870906
0.000531462
0.000876736
0.000532762
0.000882062
0.000534308
0.000886862
0.000535882
0.000891126
0.000537513
0.000894859
0.000539239
0.000898073
0.000541096
0.00090079
0.000543114
0.000903036
0.000545316
0.000904838
0.000547722
0.000906218
0.000550339
0.000907178
0.000553169
0.000907712
0.000556201
0.000907802
0.000559413
0.00090742
0.000562778
0.00090653
0.000566259
0.000905087
0.00056982
0.000903046
0.000573424
0.000900362
0.000577041
0.000897001
0.00058065
0.00089294
0.000584242
0.000888175
0.000587822
0.000882726
0.000591407
0.000876631
0.000595026
0.000869954
0.000598709
0.000862769
0.000602488
0.000855161
0.000606389
0.00084722
0.000610428
0.000839028
0.000614612
0.000830663
0.000618937
0.000822193
0.000623389
0.000813678
0.000627955
0.000805176
0.000632617
0.000796745
0.000637364
0.000788446
0.00064219
0.000780349
0.000647094
0.000772532
0.00065208
0.000765081
0.000657156
0.000758089
0.000662332
0.000751652
0.000667616
0.000745866
0.000673016
0.000740825
0.00067854
0.000736623
0.000684195
0.000733351
0.000689991
0.0007311
0.000695942
0.000729956
0.000702065
0.00073001
0.000708385
0.000731346
0.00071493
0.000734049
0.000721741
0.000738196
0.000728866
0.000743859
0.000736366
0.000751093
0.000744311
0.000759936
0.000752785
0.000770393
0.000761877
0.000782433
0.000771685
0.000795978
0.000782318
0.000810906
0.000793897
0.000827076
0.000806597
0.000844386
0.000865593
0.000862905
0.00144822
0.00144528
0.00104484
0.00143931
0.00104663
0.00143035
0.00104898
0.00141848
0.00105187
0.00140379
0.00105526
0.0013864
0.00105914
0.00136751
0.00106347
0.00134639
0.00106821
0.00132293
0.00107333
0.00129731
0.00107879
0.00126971
0.00108454
0.00124035
0.00109054
0.00120941
0.00109674
0.00117711
0.00110311
0.00114365
0.0011096
0.00110924
0.00111616
0.00107407
0.00112276
0.00103835
0.00112935
0.00100224
0.0011359
0.00096594
0.00114237
0.000929597
0.00114873
0.000893368
0.00115495
0.000857392
0.00116099
0.00134122
0.00116685
0.00137229
0.000928616
0.00131819
0.000857632
0.00126558
0.000857438
0.00121361
0.000857494
0.00116166
0.000857575
0.00110935
0.000857585
0.00105681
0.000857422
0.00100455
0.000857005
0.000953205
0.000856286
0.000903323
0.000855268
0.000855284
0.000853989
0.000809299
0.000852512
0.000765446
0.000850904
0.000723787
0.00084922
0.000684458
0.000847499
0.000646998
0.00084576
0.000611369
0.000844007
0.000577512
0.000842235
0.000545364
0.000840435
0.000514855
0.000838597
0.000514657
0.000836716
0.000515477
0.000843268
0.000516416
0.000850101
0.000517484
0.000857152
0.000518671
0.000864379
0.000519959
0.000871734
0.000521327
0.000879162
0.000522753
0.000886611
0.000524213
0.000894025
0.000525683
0.000901349
0.00052714
0.000908526
0.000528563
0.0009155
0.000529936
0.000922215
0.000531247
0.000928613
0.000532491
0.000934641
0.00053367
0.000940248
0.000534795
0.000945384
0.000535885
0.000950006
0.000536962
0.000954072
0.000538057
0.000957541
0.000539204
0.000960385
0.000541385
0.000962586
0.000543685
0.000964137
0.000546098
0.000965038
0.000548645
0.0009653
0.000551342
0.000964935
0.000554202
0.000963962
0.000557234
0.000962395
0.00056044
0.000960244
0.000563814
0.000957517
0.000567343
0.00095421
0.000571008
0.000950316
0.000574781
0.000945819
0.000578636
0.000940703
0.000582543
0.000934952
0.000586479
0.000928555
0.000590427
0.000921514
0.000594379
0.000913844
0.00059834
0.00090558
0.000602325
0.000896776
0.000606356
0.000887506
0.000610461
0.000877854
0.000614664
0.000867915
0.000618984
0.000857786
0.00062343
0.000847557
0.000628
0.00083731
0.000632682
0.00082712
0.000637459
0.000817051
0.000642314
0.000807166
0.000647232
0.000797532
0.000652209
0.000788219
0.00065725
0.000779309
0.000662365
0.000770891
0.000667569
0.000763061
0.000672877
0.000755915
0.000678302
0.000749549
0.000683853
0.000744051
0.000689541
0.000739507
0.000695377
0.000735998
0.000701377
0.000733602
0.000707563
0.000732396
0.000713964
0.000732458
0.000720619
0.000733863
0.000727577
0.000736685
0.000734902
0.000740996
0.00074267
0.000746863
0.000750973
0.000754349
0.000759911
0.000763504
0.000769583
0.000774362
0.000780069
0.000786923
0.000791434
0.000801148
0.000803761
0.000816973
0.000817255
0.000834395
0.000876427
0.000853653
0.00144723
0.00144388
0.00105298
0.0014375
0.00105784
0.00142816
0.00106322
0.00141756
0.00106911
0.00140475
0.00107547
0.00138914
0.00108228
0.00137083
0.00108951
0.00134999
0.00109712
0.00132678
0.00110507
0.00130137
0.00111333
0.00127395
0.00112183
0.00124473
0.00113055
0.00121392
0.00113943
0.0011817
0.00114842
0.0011483
0.00115748
0.00111392
0.00116655
0.00107875
0.00117561
0.001043
0.0011846
0.00100685
0.00119348
0.000970463
0.00120222
0.00093402
0.00121077
0.00089767
0.00121911
0.000861556
0.00122721
0.00133921
0.00123503
0.00137087
0.000994265
0.00131445
0.000920767
0.00125905
0.000924083
0.00120461
0.000926991
0.00115109
0.000929351
0.00109849
0.000931131
0.00104687
0.000932336
0.000996298
0.000932994
0.000946918
0.000933146
0.000898895
0.000932835
0.000852406
0.000932111
0.000807603
0.000931029
0.000764598
0.000929649
0.000723457
0.000928034
0.000684252
0.000926244
0.000647245
0.000924328
0.000611895
0.000922321
0.000578188
0.000920249
0.000546093
0.000918125
0.000515567
0.000915953
0.00051504
0.000913736
0.000515605
0.000919228
0.000516272
0.000925026
0.000517035
0.000931085
0.000517888
0.000937362
0.00051882
0.000943807
0.000519821
0.00095037
0.000520883
0.000957001
0.000521995
0.000963646
0.00052315
0.000970252
0.000524337
0.000976766
0.000525549
0.000983134
0.000526776
0.0009893
0.000528013
0.000995208
0.000529252
0.0010008
0.000530489
0.00100602
0.000531721
0.0010108
0.000532944
0.00101509
0.000534163
0.00101884
0.000536093
0.001022
0.000538347
0.00102454
0.000540912
0.00102642
0.00054365
0.00102761
0.000546488
0.00102808
0.000549427
0.00102783
0.00055247
0.00102684
0.000555623
0.00102511
0.000558889
0.00102265
0.000562274
0.00101947
0.00056578
0.00101558
0.000569408
0.00101101
0.000573154
0.00100576
0.000577012
0.00099985
0.00058097
0.000993295
0.000585014
0.000986105
0.000589125
0.00097829
0.000593289
0.000969863
0.000597489
0.000960842
0.000601717
0.000951255
0.000605969
0.000941141
0.000610249
0.000930553
0.000614567
0.000919558
0.000618939
0.000908236
0.000623382
0.000896678
0.00062791
0.000884978
0.000632532
0.00087323
0.00063725
0.000861526
0.000642059
0.00084995
0.000646949
0.000838579
0.000651908
0.000827488
0.000656931
0.000816749
0.000662015
0.00080644
0.000667168
0.000796643
0.000672405
0.00078745
0.000677743
0.000778951
0.0006832
0.00077124
0.000688792
0.000764409
0.000694535
0.000758541
0.000700446
0.000753716
0.000706541
0.00075001
0.000712848
0.000747496
0.000719399
0.000746246
0.000726236
0.000746333
0.000733412
0.000747831
0.000740995
0.000750811
0.000749067
0.000755346
0.000757728
0.000761507
0.000767091
0.000769364
0.000777266
0.000778974
0.000788335
0.000790372
0.000800328
0.000803539
0.000813263
0.000818403
0.00082731
0.000834902
0.000883577
0.000853237
0.00144401
0.00144151
0.00106275
0.00143809
0.00107063
0.00143159
0.001079
0.00142207
0.00108783
0.00140959
0.00109711
0.00139428
0.00110681
0.00137625
0.0011169
0.00135566
0.00112734
0.00133266
0.00113808
0.00130744
0.00114909
0.00128018
0.00116032
0.00125108
0.00117171
0.00122034
0.00118322
0.00118818
0.00119479
0.0011548
0.00120639
0.0011204
0.00121795
0.00108519
0.00122942
0.00104936
0.00124078
0.0010131
0.00125196
0.000976592
0.00126292
0.000939996
0.00127364
0.000903473
0.00128408
0.000867165
0.00129419
0.00133541
0.00130397
0.00137402
0.0010403
0.0013179
0.000962615
0.00126262
0.000964967
0.00120829
0.000967355
0.0011549
0.00096965
0.0011024
0.000971769
0.00105082
0.000973607
0.00100023
0.000975075
0.000950806
0.000976129
0.000902723
0.000976774
0.000856169
0.000977054
0.000811299
0.000977035
0.000768218
0.000976779
0.000726988
0.000976342
0.000687626
0.000975758
0.000650116
0.000975048
0.00061442
0.000974214
0.000580483
0.000973247
0.000548244
0.000972132
0.000517637
0.000970844
0.000515323
0.000969359
0.000515778
0.000974509
0.000516329
0.000979934
0.000516945
0.000985576
0.000517615
0.000991377
0.000518333
0.000997285
0.000519096
0.00100325
0.0005199
0.00100921
0.00052074
0.00101513
0.000521613
0.00102095
0.000522518
0.00102662
0.00052345
0.0010321
0.000524408
0.00103732
0.00052539
0.00104224
0.00052741
0.00104681
0.000529656
0.00105099
0.000531978
0.00105472
0.000534368
0.00105797
0.000536822
0.00106068
0.000539338
0.00106282
0.000541921
0.00106436
0.000544581
0.00106528
0.000547327
0.00106556
0.000550173
0.00106519
0.000553132
0.00106418
0.000556215
0.00106251
0.000559433
0.00106021
0.000562791
0.00105727
0.000566293
0.00105369
0.000569937
0.00104948
0.000573719
0.00104464
0.000577629
0.00103917
0.000581655
0.00103307
0.00058578
0.00102633
0.000589987
0.00101895
0.000594256
0.00101094
0.000598567
0.0010023
0.000602905
0.00099304
0.000607256
0.000983184
0.000611614
0.000972765
0.000615979
0.000961832
0.000620357
0.000950446
0.000624761
0.000938683
0.000629208
0.00092663
0.000633714
0.000914382
0.000638294
0.000902037
0.000642956
0.000889694
0.000647704
0.000877444
0.000652535
0.000865374
0.00065744
0.000853563
0.000662415
0.000842088
0.000667458
0.000831024
0.000672573
0.000820451
0.000677775
0.000810453
0.000683081
0.00080112
0.000688515
0.000792544
0.0006941
0.000784817
0.000699859
0.000778027
0.000705813
0.000772257
0.000711985
0.000767583
0.000718404
0.000764079
0.000725105
0.000761817
0.000732133
0.000760866
0.000739543
0.0007613
0.000747404
0.000763191
0.0007558
0.000766611
0.000764836
0.000771636
0.00077463
0.000778341
0.000785308
0.000786797
0.000796967
0.000797053
0.000809632
0.00080911
0.000823259
0.000822885
0.000837934
0.000838238
0.000890742
0.000855245
0.00144709
0.00144715
0.00107416
0.00144408
0.00108501
0.00143792
0.0010963
0.00142871
0.00110804
0.00141655
0.00112019
0.00140151
0.00113272
0.00138374
0.00114562
0.00136337
0.00115883
0.00134057
0.00117232
0.0013155
0.00118604
0.00128837
0.00119994
0.00125935
0.00121397
0.00122867
0.00122807
0.00119652
0.00124218
0.00116312
0.00125627
0.00112866
0.00127027
0.00109336
0.00128413
0.00105741
0.00129781
0.001021
0.00131125
0.000984311
0.00132441
0.000947511
0.00133726
0.00091076
0.00134975
0.000874204
0.00136185
0.00133439
0.00137354
0.00137391
0.0011011
0.00131731
0.00101979
0.00126162
0.00102366
0.00120702
0.0010273
0.00115355
0.00103059
0.00110118
0.00103351
0.00104991
0.00103602
0.000999751
0.00103805
0.000950761
0.00103957
0.000903071
0.00104059
0.000856832
0.00104115
0.000812194
0.00104132
0.000769278
0.00104117
0.000728161
0.00104079
0.000688879
0.00104022
0.000651432
0.00103951
0.000615789
0.00103867
0.000581901
0.0010377
0.000549711
0.0010366
0.000519153
0.00103536
0.00051665
0.00103395
0.000517245
0.00103847
0.000517894
0.00104323
0.000518602
0.00104818
0.000519362
0.00105328
0.000520171
0.00105848
0.000521021
0.00106371
0.000521907
0.00106894
0.000522824
0.00107411
0.000523766
0.00107916
0.000524728
0.00108406
0.000525701
0.00108874
0.000526679
0.00109315
0.000527655
0.00109724
0.000528833
0.00110097
0.000531194
0.00110426
0.00053364
0.00110709
0.000536167
0.00110939
0.00053877
0.00111113
0.000541447
0.00111227
0.000544201
0.00111279
0.000547038
0.00111265
0.000549967
0.00111185
0.000552999
0.00111038
0.000556148
0.00110826
0.000559426
0.00110548
0.000562843
0.00110206
0.000566408
0.00109802
0.000570124
0.00109337
0.000573992
0.00108811
0.000578006
0.00108227
0.000582155
0.00107584
0.000586422
0.00106883
0.000590789
0.00106122
0.000595232
0.00105302
0.000599727
0.00104423
0.000604251
0.00103483
0.000608783
0.00102485
0.000613306
0.0010143
0.00061781
0.00100319
0.000622294
0.000991589
0.000626762
0.000979541
0.000631226
0.00096712
0.000635704
0.000954411
0.000640215
0.000941509
0.000644775
0.00092851
0.000649399
0.000915513
0.000654094
0.000902612
0.000658861
0.000889893
0.000663697
0.000877436
0.000668599
0.000865314
0.000673567
0.000853601
0.000678606
0.000842369
0.000683731
0.000831699
0.000688966
0.000821675
0.000694337
0.000812386
0.000699877
0.000803923
0.000705614
0.000796376
0.000711577
0.000789827
0.000717797
0.000784355
0.000724304
0.00078003
0.00073114
0.000776922
0.00073835
0.0007751
0.000745992
0.000774633
0.000754137
0.000775591
0.000762872
0.000778045
0.000772301
0.00078207
0.000782549
0.000787741
0.000793754
0.000795132
0.000806034
0.000804305
0.000819432
0.000815278
0.000833871
0.000827974
0.000849325
0.000842194
0.000898882
0.000857861
0.00145458
0.00145496
0.00108721
0.00145222
0.00110097
0.00144638
0.00111514
0.00143747
0.00112971
0.00142559
0.00114467
0.00141082
0.00115999
0.00139328
0.00117564
0.00137311
0.00119158
0.00135047
0.00120776
0.00132554
0.00122414
0.0012985
0.00124066
0.00126954
0.00125727
0.00123887
0.00127391
0.0012067
0.00129053
0.00117324
0.00130706
0.00113868
0.00132345
0.00110325
0.00133965
0.00106713
0.00135561
0.00103052
0.00137127
0.000993604
0.00138659
0.000956548
0.00140152
0.000919517
0.00141604
0.000882659
0.00143009
0.00133197
0.00144365
0.00137458
0.00115922
0.00131824
0.00107399
0.00126273
0.00107901
0.00120827
0.00108371
0.00115491
0.00108798
0.00110262
0.00109182
0.00105139
0.00109516
0.00100124
0.00109797
0.000952241
0.0011002
0.000904533
0.00110187
0.000858276
0.00110301
0.000813624
0.00110369
0.0007707
0.001104
0.000729585
0.00110401
0.000690312
0.00110379
0.00065288
0.00110339
0.000617255
0.00110282
0.000583389
0.00110209
0.000551221
0.00110121
0.000520686
0.00110015
0.000517711
0.0010989
0.000518313
0.00110277
0.000518959
0.00110686
0.000519643
0.00111114
0.00052036
0.00111554
0.000521106
0.00112003
0.000521876
0.00112454
0.000522665
0.00112903
0.00052347
0.00113344
0.000524285
0.00113773
0.000525108
0.00114184
0.000525933
0.00114573
0.000526755
0.00114933
0.000528193
0.0011526
0.00053058
0.00115548
0.00053307
0.00115793
0.000535654
0.00115989
0.000538327
0.00116131
0.000541083
0.00116215
0.000543921
0.00116238
0.000546842
0.00116196
0.000549852
0.00116088
0.00055296
0.00115911
0.000556176
0.00115666
0.000559513
0.00115354
0.000562983
0.00114975
0.000566598
0.0011453
0.000570366
0.00114023
0.000574291
0.00113454
0.000578373
0.00112825
0.000582606
0.00112138
0.00058698
0.00111393
0.000591476
0.00110592
0.000596074
0.00109733
0.000600747
0.00108817
0.000605468
0.00107844
0.000610209
0.00106814
0.000614945
0.00105727
0.000619656
0.00104584
0.000624328
0.00103389
0.000628956
0.00102146
0.000633543
0.0010086
0.000638099
0.000995375
0.000642642
0.000981881
0.000647189
0.000968208
0.000651762
0.000954453
0.000656374
0.000940714
0.000661037
0.000927085
0.000665755
0.000913653
0.000670527
0.000900495
0.000675352
0.000887682
0.000680234
0.000875284
0.000685179
0.000863369
0.000690208
0.000852013
0.000695347
0.000841295
0.000700631
0.000831304
0.000706099
0.000822127
0.000711787
0.000813854
0.000717734
0.000806566
0.000723976
0.000800342
0.00073055
0.000795249
0.0007375
0.000791355
0.000744878
0.000788724
0.000752745
0.000787421
0.000761175
0.000787515
0.000770255
0.000789072
0.000780092
0.000792163
0.000790816
0.000796863
0.000802573
0.000803245
0.000815504
0.000811377
0.000829684
0.000821293
0.000845029
0.000832934
0.000861409
0.000846076
0.000908161
0.000860494
0.00146423
0.00146492
0.00110193
0.00146248
0.00111852
0.00145693
0.0011355
0.00144831
0.00115285
0.00143669
0.00117056
0.00142216
0.0011886
0.00140483
0.00120695
0.00138484
0.00122555
0.00136235
0.00124437
0.00133752
0.00126335
0.00131055
0.00128244
0.00128162
0.00130158
0.00125093
0.00132071
0.0012187
0.00133977
0.00118514
0.00135869
0.00115045
0.00137743
0.00111484
0.00139592
0.0010785
0.00141411
0.00104165
0.00143195
0.00100445
0.00144938
0.000967089
0.00146636
0.000929725
0.00148284
0.000892512
0.00149881
0.00133008
0.00151421
0.00137571
0.00121653
0.00131984
0.00112709
0.00126471
0.00113293
0.00121056
0.00113848
0.0011574
0.0011436
0.0011052
0.00114826
0.00105394
0.0011524
0.00100367
0.00115596
0.000954502
0.00115889
0.00090661
0.0011612
0.000860182
0.00116293
0.000815388
0.00116415
0.00077236
0.00116496
0.000731177
0.00116544
0.000691867
0.00116565
0.000654422
0.00116564
0.000618803
0.00116544
0.000584954
0.00116504
0.00055281
0.00116446
0.000522303
0.00116366
0.000518512
0.00116265
0.000519123
0.0011659
0.000519761
0.00116937
0.000520419
0.001173
0.000521091
0.00117675
0.000521773
0.00118055
0.000522462
0.00118436
0.000523153
0.00118812
0.000523843
0.00119179
0.000524531
0.00119532
0.000525213
0.00119865
0.000525886
0.00120174
0.000528087
0.00120453
0.000530478
0.00120697
0.000532985
0.001209
0.000535598
0.00121059
0.000538309
0.00121167
0.000541111
0.0012122
0.000544
0.00121214
0.000546975
0.00121145
0.00055004
0.00121011
0.0005532
0.00120809
0.000556465
0.00120539
0.000559848
0.001202
0.000563361
0.00119792
0.000567016
0.00119318
0.000570824
0.00118779
0.000574793
0.00118177
0.000578928
0.00117513
0.000583226
0.0011679
0.000587679
0.00116009
0.000592277
0.0011517
0.000596998
0.00114275
0.00060182
0.00113324
0.000606714
0.00112317
0.00061165
0.00111253
0.000616599
0.00110133
0.000621531
0.00108957
0.000626424
0.00107727
0.000631262
0.00106446
0.000636035
0.00105117
0.000640745
0.00103747
0.000645401
0.00102342
0.000650018
0.00100912
0.000654616
0.000994642
0.000659213
0.0009801
0.000663827
0.000965589
0.000668468
0.000951202
0.000673142
0.000937025
0.000677852
0.000923134
0.000682598
0.000909598
0.000687386
0.000896484
0.000692227
0.000883858
0.000697145
0.00087179
0.000702173
0.000860358
0.000707352
0.000849648
0.000712729
0.000839748
0.00071835
0.000830744
0.000724259
0.000822719
0.000730501
0.000815746
0.00073712
0.000809894
0.000744167
0.000805226
0.000751697
0.000801802
0.000759779
0.000799684
0.000768488
0.000798936
0.000777916
0.000799621
0.000788172
0.000801808
0.000799387
0.000805565
0.000811716
0.000810967
0.000825322
0.000818084
0.000840312
0.000826962
0.000856625
0.000837567
0.000874042
0.000849676
0.000918488
0.000862945
0.00147602
0.00147699
0.00111832
0.00147483
0.00113767
0.00146956
0.00115738
0.0014612
0.00117744
0.00144983
0.00119783
0.00143551
0.00121853
0.00141838
0.00123951
0.00139855
0.00126071
0.00137618
0.0012821
0.00135143
0.00130363
0.00132449
0.00132522
0.00129555
0.00134683
0.00126482
0.00136839
0.0012325
0.00138984
0.0011988
0.00141111
0.00116393
0.00143214
0.00112809
0.00145287
0.00109151
0.00147324
0.00105436
0.00149319
0.00101683
0.00151268
0.000979113
0.00153166
0.000941365
0.00155008
0.000903743
0.0015679
0.00132888
0.0015851
0.00137651
0.00127532
0.00132096
0.00118134
0.00126612
0.00118806
0.00121221
0.00119447
0.00115922
0.00120042
0.00110711
0.00120586
0.00105587
0.00121075
0.00100554
0.00121499
0.00095629
0.00121855
0.000908298
0.00122142
0.000861778
0.00122365
0.000816914
0.00122533
0.000773842
0.00122655
0.00073264
0.00122741
0.000693334
0.00122796
0.000655908
0.00122827
0.00062032
0.00122836
0.000586509
0.00122824
0.000554407
0.00122789
0.000523944
0.00122731
0.000519194
0.00122649
0.00051983
0.00122913
0.000520472
0.00123196
0.000521115
0.00123494
0.000521755
0.001238
0.000522387
0.00124111
0.000523008
0.00124421
0.000523617
0.00124725
0.000524209
0.00125017
0.000524784
0.00125293
0.00052604
0.00125548
0.00052827
0.00125777
0.000530641
0.00125974
0.000533143
0.00126134
0.000535764
0.00126252
0.000538495
0.00126323
0.000541327
0.00126343
0.000544254
0.00126305
0.000547274
0.00126207
0.000550387
0.00126045
0.000553596
0.00125817
0.00055691
0.0012552
0.000560339
0.00125154
0.000563895
0.00124719
0.000567592
0.00124216
0.000571442
0.00123646
0.000575457
0.00123011
0.000579641
0.00122314
0.000583999
0.00121555
0.000588527
0.00120738
0.000593216
0.00119863
0.000598049
0.00118932
0.000603007
0.00117944
0.000608062
0.00116901
0.000613183
0.00115802
0.000618338
0.00114648
0.000623494
0.00113438
0.000628621
0.00112173
0.000633693
0.00110855
0.000638691
0.00109486
0.000643606
0.00108071
0.000648436
0.00106615
0.000653189
0.00105126
0.000657879
0.00103613
0.000662526
0.00102084
0.000667148
0.0010055
0.000671762
0.000990197
0.000676379
0.000975037
0.000681007
0.000960099
0.000685649
0.000945459
0.000690308
0.000931183
0.000694992
0.000917335
0.000699716
0.000903979
0.00070451
0.000891182
0.000709411
0.000879021
0.00071447
0.000867579
0.000719739
0.000856944
0.000725274
0.0008472
0.000731127
0.00083843
0.000737349
0.000830705
0.000743994
0.00082409
0.000751119
0.000818645
0.000758787
0.000814428
0.00076707
0.000811498
0.000776051
0.000809913
0.000785823
0.000809735
0.000796499
0.000811027
0.000808214
0.000813856
0.000821128
0.000818293
0.00083542
0.000824409
0.000851234
0.000832263
0.000868544
0.000841843
0.000887074
0.000852949
0.000929692
0.000865149
0.0014899
0.00149113
0.00113639
0.00148923
0.00115843
0.00148421
0.0011808
0.0014761
0.00120349
0.00146495
0.00122649
0.00145084
0.00124978
0.00143388
0.00127331
0.00141419
0.00129705
0.00139191
0.00132094
0.00136722
0.00134494
0.0013403
0.00136898
0.00131132
0.001393
0.00128051
0.00141692
0.00124806
0.00144069
0.00121418
0.00146424
0.0011791
0.0014875
0.001143
0.00151041
0.00110611
0.0015329
0.00106862
0.00155492
0.00103072
0.00157642
0.000992598
0.00159734
0.000954415
0.00161764
0.000916333
0.00163728
0.00133039
0.00165622
0.00137728
0.0013346
0.00132206
0.00123571
0.00126751
0.00124328
0.00121384
0.00125052
0.00116102
0.00125728
0.00110899
0.0012635
0.00105774
0.0012691
0.00100735
0.00127402
0.000958
0.00127818
0.000909907
0.0012816
0.000863302
0.00128433
0.00081838
0.00128646
0.000775279
0.00128809
0.000734074
0.00128931
0.000694786
0.00129021
0.000657393
0.00129083
0.000621847
0.00129121
0.000588083
0.00129134
0.000556031
0.00129123
0.000525617
0.00129087
0.000519714
0.00129023
0.000520366
0.00129226
0.000521005
0.00129445
0.000521627
0.00129678
0.000522227
0.00129918
0.000522802
0.00130159
0.00052335
0.00130398
0.000523867
0.00130629
0.000524549
0.00130847
0.000526557
0.00131047
0.000528733
0.00131224
0.000531064
0.00131372
0.000533541
0.00131488
0.000536151
0.00131564
0.000538884
0.00131597
0.000541731
0.00131581
0.000544684
0.00131511
0.000547738
0.00131383
0.00055089
0.00131193
0.000554143
0.00130938
0.000557502
0.00130616
0.000560975
0.00130224
0.000564575
0.00129762
0.000568313
0.00129231
0.000572205
0.00128631
0.000576262
0.00127965
0.000580494
0.00127235
0.000584908
0.00126442
0.000589504
0.00125589
0.000594278
0.00124677
0.000599217
0.00123709
0.000604302
0.00122684
0.000609511
0.00121604
0.000614812
0.00120469
0.000620173
0.00119278
0.000625556
0.00118033
0.000630928
0.00116732
0.000636254
0.00115377
0.000641507
0.00113969
0.000646667
0.00112512
0.000651721
0.00111009
0.000656667
0.00109466
0.000661513
0.00107892
0.000666273
0.00106294
0.000670963
0.00104682
0.000675603
0.00103066
0.000680209
0.00101457
0.000684794
0.000998622
0.000689365
0.000982912
0.000693927
0.00096751
0.000698485
0.000952482
0.000703049
0.000937887
0.000707641
0.000923788
0.000712293
0.00091025
0.00071705
0.000897349
0.00072197
0.000885167
0.000727113
0.000873788
0.000732542
0.000863298
0.000738318
0.000853777
0.000744502
0.000845293
0.000751153
0.00083791
0.000758336
0.000831685
0.000766123
0.000826672
0.000774592
0.000822926
0.000783832
0.000820505
0.000793941
0.000819465
0.000805033
0.000819867
0.000817248
0.000821773
0.00083075
0.000825254
0.000845732
0.00083038
0.00086237
0.00083722
0.000880682
0.000845784
0.000900365
0.000855903
0.000941587
0.000867097
0.00150583
0.00150729
0.00115617
0.00150564
0.00118081
0.00150086
0.00120576
0.00149298
0.001231
0.00148204
0.00125653
0.00146811
0.00128232
0.0014513
0.00130833
0.00143173
0.00133453
0.00140953
0.00136085
0.00138487
0.00138725
0.00135793
0.00141366
0.0013289
0.00144001
0.00129797
0.00146624
0.00126536
0.00149227
0.00123127
0.00151803
0.00119593
0.00154346
0.00115953
0.00156848
0.0011223
0.00159303
0.00108442
0.00161706
0.0010461
0.00164051
0.00100752
0.00166331
0.000968852
0.00168544
0.000930259
0.00170684
0.00133222
0.00172748
0.00137806
0.00139439
0.00132318
0.00129011
0.00126894
0.00129848
0.00121552
0.00130653
0.00116285
0.00131407
0.00111088
0.00132103
0.0010596
0.00132733
0.00100913
0.00133288
0.000959673
0.00133763
0.000911473
0.00134158
0.000864784
0.00134478
0.00081981
0.00134734
0.00077669
0.00134936
0.000735494
0.00135095
0.000696236
0.00135218
0.000658888
0.00135312
0.000623394
0.00135378
0.000589686
0.00135418
0.00055769
0.00135431
0.000527331
0.00135416
0.000520027
0.00135371
0.000520688
0.00135513
0.000521317
0.0013567
0.00052191
0.00135838
0.000522463
0.00136012
0.000522974
0.00136185
0.000523755
0.00136354
0.000525482
0.00136512
0.000527402
0.00136656
0.000529504
0.0013678
0.000531777
0.00136879
0.000534209
0.00136947
0.00053679
0.00136981
0.000539508
0.00136974
0.000542352
0.00136922
0.000545315
0.00136819
0.000548388
0.0013666
0.000551569
0.00136442
0.000554856
0.00136161
0.000558253
0.00135812
0.000561765
0.00135396
0.000565404
0.00134909
0.000569181
0.00134352
0.000573111
0.00133725
0.000577208
0.0013303
0.000581484
0.00132268
0.000585948
0.00131442
0.000590606
0.00130555
0.000595456
0.00129607
0.00060049
0.00128601
0.000605695
0.00127539
0.000611049
0.00126422
0.000616524
0.00125249
0.000622086
0.00124022
0.0006277
0.0012274
0.000633324
0.00121403
0.000638922
0.00120011
0.000644456
0.00118565
0.000649896
0.00117068
0.000655221
0.00115521
0.000660416
0.00113929
0.000665479
0.00112299
0.000670416
0.00110638
0.000675239
0.00108955
0.000679966
0.00107259
0.000684616
0.00105561
0.000689205
0.00103871
0.000693745
0.00102197
0.000698244
0.00100547
0.00070271
0.000989302
0.000707148
0.000973511
0.000711574
0.00095816
0.000716012
0.000943308
0.000720501
0.000929021
0.000725093
0.000915373
0.000729852
0.000902442
0.000734847
0.000890315
0.000740148
0.000879074
0.000745825
0.000868797
0.000751947
0.000859551
0.000758581
0.000851396
0.000765801
0.000844386
0.000773686
0.000838574
0.000782323
0.000834012
0.000791805
0.000830753
0.000802237
0.000828852
0.000813735
0.000828366
0.000826441
0.000829355
0.000840526
0.000831886
0.000856192
0.000836032
0.000873642
0.000841865
0.000892944
0.000849421
0.00091379
0.000858564
0.000953986
0.000868794
0.00152375
0.00152543
0.00117768
0.001524
0.00120483
0.00151945
0.00123226
0.00151178
0.00125996
0.00150104
0.00128793
0.00148728
0.00131614
0.00147061
0.00134456
0.00145113
0.00137313
0.00142899
0.00140181
0.00140435
0.00143053
0.00137736
0.00145923
0.00134824
0.00148785
0.00131717
0.0015163
0.00128436
0.00154451
0.00125003
0.00157241
0.00121439
0.00159993
0.00117765
0.001627
0.00114003
0.00165355
0.00110172
0.00167952
0.00106293
0.00170485
0.00102385
0.00172948
0.000984648
0.00175337
0.000945493
0.00177647
0.00133431
0.00179875
0.00137886