/*--------------------------------*- C++ -*----------------------------------*\
| =========                 |                                                 |
| \\      /  F ield         | OpenFOAM: The Open Source CFD Toolbox           |
|  \\    /   O peration     | Version:  2.2.x                                 |
|   \\  /    A nd           | Web:      www.OpenFOAM.org                      |
|    \\/     M anipulation  |                                                 |
\*---------------------------------------------------------------------------*/
FoamFile
{
    version     2.0;
    format      ascii;
    class       volScalarField;
    location    "1.05";
    object      rho;
}
// * * * * * * * * * * * * * * * * * * * * * * * * * * * * * * * * * * * * * //

dimensions      [1 -3 0 0 0 0 0];

internalField   nonuniform List<scalar> 
14161
(
1
1
1
1
1
1
1
1
1
1
1
1
1
1
1
1
1
1
1
1
1
1
1
1
2.30804
2.81922
2.83195
2.84412
2.85631
2.8683
2.8795
2.8895
2.89811
2.90537
2.91144
2.91659
2.92112
2.92528
2.92926
2.93317
2.93705
2.9409
2.9447
2.94841
2.95201
2.9548
2.95777
2.96056
2.96321
2.9657
2.96805
2.97028
2.97243
2.97453
2.97664
2.97882
2.98111
2.98358
2.98626
2.98918
2.99236
2.9958
2.99948
3.00337
3.00744
3.01165
3.01596
3.02027
3.02447
3.02851
3.03238
3.03606
3.03956
3.04287
3.04598
3.04891
3.05168
3.05431
3.05684
3.05931
3.06178
3.06432
3.06696
3.06977
3.07278
3.07598
3.07939
3.08296
3.08665
3.0904
3.09413
3.09778
3.10129
3.10459
3.10766
3.11049
3.11311
3.11554
3.11785
3.12008
3.12227
3.12444
3.1266
3.12871
3.13073
3.13262
3.13431
3.1358
3.13706
3.13811
3.13893
3.13953
3.13983
3.13967
3.13874
3.1365
3.13207
3.12404
3.16022
1
1
1
1
1
1
1
1
1
1
1
1
1
1
1
1
1
1
1
1
1
1
1
1
2.30499
2.78181
2.77476
2.7617
2.74787
2.73767
2.73466
2.74009
2.75305
2.77139
2.79265
2.81466
2.83582
2.85512
2.872
2.88628
2.89798
2.90728
2.91443
2.91972
2.92345
2.9252
2.92565
2.925
2.92342
2.92108
2.9182
2.91501
2.91176
2.90873
2.90619
2.90441
2.90361
2.90399
2.90569
2.90877
2.91323
2.91896
2.92577
2.93344
2.94165
2.95003
2.95821
2.96587
2.97276
2.97861
2.98325
2.98664
2.98883
2.99
2.99045
2.99053
2.99061
2.99107
2.99225
2.99436
2.9975
3.00165
3.00664
3.01222
3.01807
3.02391
3.02947
3.03459
3.03922
3.04339
3.0472
3.05079
3.05431
3.05784
3.06144
3.06509
3.06876
3.07236
3.07583
3.07909
3.0821
3.08484
3.08729
3.08942
3.09122
3.09269
3.09384
3.09468
3.0953
3.0958
3.09635
3.0972
3.09864
3.10099
3.10445
3.10884
3.11322
3.11532
3.15731
1
1
1
1
1
1
1
1
1
1
1
1
1
1
1
1
1
1
1
1
1
1
1
1
2.305
2.80021
2.80354
2.80339
2.80211
2.80108
2.80158
2.80457
2.81056
2.81952
2.83096
2.84408
2.85796
2.87173
2.88471
2.89643
2.90663
2.91523
2.92225
2.92779
2.93201
2.93538
2.93781
2.93959
2.94075
2.94139
2.94162
2.94154
2.94128
2.94094
2.94065
2.94052
2.94067
2.9412
2.94222
2.94382
2.94606
2.94903
2.9528
2.95735
2.9626
2.96842
2.97467
2.98114
2.98759
2.99378
2.99945
3.00441
3.00848
3.01161
3.0138
3.01515
3.01586
3.01619
3.01643
3.01688
3.0178
3.01938
3.02171
3.02474
3.02835
3.03231
3.03636
3.04024
3.04378
3.04687
3.04952
3.05186
3.05403
3.0562
3.0585
3.06098
3.06361
3.06632
3.069
3.07156
3.07393
3.07608
3.078
3.07968
3.08112
3.0823
3.08319
3.08376
3.08401
3.08397
3.08371
3.08336
3.08317
3.08356
3.08505
3.08808
3.09228
3.09529
3.1274
1
1
1
1
1
1
1
1
1
1
1
1
1
1
1
1
1
1
1
1
1
1
1
1
2.30117
2.81818
2.82961
2.83997
2.84951
2.85799
2.86532
2.87159
2.8771
2.88228
2.88756
2.89323
2.89938
2.90594
2.91269
2.91938
2.9258
2.93175
2.93711
2.94184
2.94591
2.94945
2.95263
2.95547
2.958
2.96025
2.96227
2.9641
2.9658
2.96743
2.96902
2.97063
2.97232
2.97414
2.97614
2.97838
2.98092
2.98372
2.98674
2.99
2.9935
2.99726
3.00127
3.0055
3.0099
3.01438
3.01886
3.0232
3.02728
3.03098
3.0342
3.03689
3.03903
3.04066
3.04189
3.04286
3.04373
3.04468
3.04588
3.04743
3.04937
3.05167
3.05422
3.05687
3.05945
3.0618
3.06384
3.06554
3.06698
3.06824
3.06948
3.07077
3.07219
3.07371
3.07528
3.07681
3.07823
3.07948
3.08053
3.08138
3.08201
3.08241
3.08254
3.08236
3.08183
3.08094
3.07971
3.07819
3.07656
3.07516
3.07465
3.0759
3.07932
3.08312
3.11681
1
1
1
1
1
1
1
1
1
1
1
1
1
1
1
1
1
1
1
1
1
1
1
1
2.30173
2.80098
2.80378
2.80434
2.80405
2.80404
2.80552
2.80944
2.81622
2.82571
2.83734
2.85032
2.8638
2.87708
2.8896
2.901
2.91111
2.91988
2.92738
2.93371
2.93904
2.94309
2.94643
2.9491
2.95119
2.95277
2.95391
2.95468
2.95515
2.95539
2.95549
2.95553
2.95561
2.95583
2.95631
2.95716
2.95849
2.96046
2.96316
2.96663
2.97087
2.97581
2.98136
2.98737
2.99365
3.00002
3.00628
3.01225
3.01778
3.02276
3.0271
3.03079
3.03385
3.03636
3.03843
3.04022
3.04189
3.04361
3.04554
3.04778
3.0504
3.05337
3.05664
3.06005
3.06344
3.06662
3.06947
3.07189
3.07387
3.07549
3.07684
3.07806
3.07925
3.08045
3.08165
3.0828
3.08383
3.08466
3.08526
3.0856
3.08567
3.08547
3.08496
3.08409
3.08284
3.08115
3.07902
3.07646
3.07357
3.07061
3.06818
3.06735
3.06926
3.07312
3.11091
1
1
1
1
1
1
1
1
1
1
1
1
1
1
1
1
1
1
1
1
1
1
1
1
2.29877
2.8071
2.81292
2.81664
2.81912
2.82093
2.82294
2.82608
2.83106
2.83819
2.84732
2.858
2.86957
2.88133
2.89273
2.90331
2.91281
2.92113
2.92826
2.93426
2.93925
2.94316
2.94643
2.94909
2.95118
2.9528
2.95399
2.95483
2.9554
2.95576
2.95599
2.95617
2.9564
2.95678
2.9574
2.95838
2.95983
2.96183
2.96445
2.96775
2.97173
2.97635
2.98156
2.98722
2.99318
2.99926
3.00528
3.01103
3.01636
3.02113
3.02526
3.02872
3.03154
3.03381
3.03565
3.03726
3.0388
3.04047
3.04244
3.04483
3.0477
3.05105
3.05479
3.05877
3.06281
3.06671
3.07028
3.0734
3.07602
3.07817
3.07995
3.08147
3.08286
3.0842
3.0855
3.08672
3.08779
3.08862
3.08915
3.08935
3.0892
3.08869
3.08781
3.08651
3.08474
3.08246
3.07963
3.07623
3.07231
3.06803
3.06387
3.0609
3.0608
3.06393
3.1057
1
1
1
1
1
1
1
1
1
1
1
1
1
1
1
1
1
1
1
1
1
1
1
1
2.29532
2.80743
2.81358
2.81786
2.82095
2.82332
2.82577
2.82918
2.83424
2.84128
2.8502
2.86058
2.87181
2.88326
2.89435
2.90467
2.91397
2.92212
2.92912
2.93503
2.93996
2.94385
2.94713
2.94983
2.95199
2.95368
2.95498
2.95594
2.95664
2.95713
2.95749
2.95781
2.95816
2.95863
2.95933
2.96034
2.96178
2.96373
2.96626
2.96944
2.97327
2.97773
2.98275
2.98823
2.99401
2.99993
3.00579
3.01141
3.01662
3.02127
3.02528
3.0286
3.03126
3.03334
3.03497
3.03634
3.03764
3.03909
3.04085
3.04309
3.04586
3.04919
3.05299
3.05712
3.06138
3.06556
3.06946
3.07294
3.07592
3.07841
3.0805
3.08231
3.08397
3.08555
3.08709
3.08855
3.08984
3.09087
3.09154
3.09182
3.09168
3.09111
3.09008
3.08857
3.08651
3.08385
3.08052
3.0765
3.07177
3.06642
3.06079
3.05584
3.05347
3.05521
3.1
1
1
1
1
1
1
1
1
1
1
1
1
1
1
1
1
1
1
1
1
1
1
1
1
2.29164
2.80557
2.81123
2.81494
2.81755
2.81962
2.82201
2.82559
2.83102
2.83855
2.84801
2.8589
2.87057
2.88235
2.89368
2.90416
2.91355
2.92174
2.92875
2.93466
2.93959
2.94344
2.94667
2.9493
2.95139
2.95302
2.95424
2.95513
2.95576
2.95618
2.95647
2.95672
2.957
2.95742
2.95807
2.95907
2.96051
2.96249
2.96509
2.96834
2.97226
2.97682
2.98193
2.98749
2.99335
2.99932
3.00522
3.01085
3.01607
3.02071
3.0247
3.028
3.03063
3.03267
3.03425
3.03555
3.03677
3.03811
3.03977
3.0419
3.04459
3.04784
3.0516
3.05571
3.05999
3.06422
3.06821
3.07179
3.0749
3.07753
3.07978
3.08176
3.08359
3.08538
3.08715
3.08885
3.09039
3.09165
3.09253
3.09298
3.09296
3.09246
3.09144
3.08988
3.0877
3.08483
3.0812
3.07673
3.0714
3.0652
3.05835
3.05164
3.047
3.04688
3.09352
1
1
1
1
1
1
1
1
1
1
1
1
1
1
1
1
1
1
1
1
1
1
1
1
2.28666
2.80487
2.81067
2.81435
2.81692
2.81898
2.82139
2.82506
2.83063
2.83834
2.84797
2.859
2.87077
2.88259
2.89392
2.90434
2.91363
2.92171
2.9286
2.93439
2.9392
2.94293
2.94604
2.94856
2.95055
2.95208
2.95321
2.95401
2.95456
2.95491
2.95515
2.95535
2.95561
2.95602
2.95668
2.95771
2.95921
2.96125
2.96392
2.96726
2.97126
2.97589
2.98107
2.98668
2.99257
2.99855
3.00443
3.01004
3.01521
3.01981
3.02375
3.02699
3.02957
3.03157
3.03312
3.03439
3.03559
3.03692
3.03857
3.04068
3.04334
3.04657
3.05029
3.05438
3.05863
3.06285
3.06681
3.07039
3.0735
3.07616
3.07845
3.08049
3.08242
3.08434
3.08626
3.08814
3.08987
3.09133
3.09241
3.09303
3.09317
3.09279
3.09186
3.09034
3.08815
3.08519
3.08139
3.07663
3.07085
3.06399
3.05616
3.04794
3.04114
3.03889
3.08625
1
1
1
1
1
1
1
1
1
1
1
1
1
1
1
1
1
1
1
1
1
1
1
1
2.28038
2.80398
2.80988
2.81356
2.81611
2.81818
2.82068
2.82451
2.83031
2.83826
2.84811
2.85933
2.8712
2.88305
2.89433
2.90466
2.91383
2.92176
2.92849
2.93412
2.93878
2.94239
2.94537
2.94776
2.94964
2.95107
2.95211
2.95284
2.95332
2.95363
2.95383
2.95401
2.95427
2.95469
2.95539
2.95646
2.95801
2.96013
2.96287
2.96628
2.97035
2.97504
2.98027
2.98591
2.99179
2.99775
3.00359
3.00914
3.01423
3.01873
3.02257
3.02573
3.02823
3.03016
3.03166
3.03291
3.0341
3.03543
3.03709
3.03923
3.04191
3.04515
3.04888
3.05296
3.05719
3.06137
3.06529
3.06883
3.07189
3.07452
3.07678
3.07883
3.0808
3.08277
3.08478
3.08677
3.08863
3.09023
3.09146
3.09222
3.09249
3.09223
3.09142
3.08998
3.08783
3.08487
3.08097
3.07604
3.06994
3.06258
3.05395
3.04444
3.03568
3.03117
3.07828
1
1
1
1
1
1
1
1
1
1
1
1
1
1
1
1
1
1
1
1
1
1
1
1
2.27262
2.80293
2.80887
2.81248
2.81496
2.81703
2.81963
2.82368
2.82977
2.83805
2.8482
2.85965
2.87165
2.88355
2.89479
2.90501
2.91402
2.92178
2.92833
2.93378
2.93827
2.94172
2.94455
2.94681
2.94857
2.94989
2.95084
2.95149
2.9519
2.95216
2.95233
2.95249
2.95275
2.95319
2.95392
2.95505
2.95666
2.95886
2.96169
2.96518
2.96934
2.9741
2.97937
2.98503
2.99091
2.99684
3.00263
3.00809
3.01308
3.01748
3.02121
3.02425
3.02665
3.0285
3.02994
3.03115
3.03233
3.03367
3.03536
3.03752
3.04024
3.04352
3.04727
3.05135
3.05558
3.05972
3.0636
3.06708
3.07009
3.07265
3.07488
3.0769
3.07886
3.08086
3.08291
3.08495
3.08688
3.08856
3.08987
3.09073
3.0911
3.09094
3.09023
3.08888
3.08679
3.08385
3.07993
3.07488
3.06856
3.06081
3.05154
3.04095
3.03041
3.02365
3.0697
1
1
1
1
1
1
1
1
1
1
1
1
1
1
1
1
1
1
1
1
1
1
1
1
2.26316
2.80175
2.80771
2.81125
2.81366
2.81574
2.81849
2.82281
2.82926
2.83793
2.84844
2.86013
2.87228
2.8842
2.89537
2.90544
2.91426
2.92179
2.92812
2.93336
2.93766
2.94092
2.94359
2.9457
2.94732
2.94853
2.94938
2.94995
2.9503
2.95051
2.95065
2.95081
2.95107
2.95154
2.95231
2.9535
2.9552
2.95748
2.96041
2.96399
2.96823
2.97306
2.97838
2.98405
2.98993
2.99581
3.00153
3.0069
3.01178
3.01605
3.01965
3.02257
3.02486
3.02662
3.02799
3.02916
3.03031
3.03166
3.03337
3.03558
3.03834
3.04165
3.04544
3.04953
3.05375
3.05786
3.0617
3.06511
3.06806
3.07057
3.07274
3.07473
3.07667
3.07866
3.08072
3.08278
3.08474
3.08645
3.0878
3.0887
3.08913
3.08904
3.08839
3.08711
3.08508
3.08218
3.07825
3.07313
3.06665
3.0586
3.0488
3.0373
3.02519
3.01622
3.0606
1
1
1
1
1
1
1
1
1
1
1
1
1
1
1
1
1
1
1
1
1
1
1
1
2.25184
2.80032
2.80624
2.80963
2.81193
2.81402
2.81696
2.82163
2.82856
2.83772
2.84865
2.86066
2.87297
2.88491
2.89597
2.90586
2.91444
2.92172
2.92779
2.93279
2.93686
2.93993
2.94241
2.94435
2.94583
2.9469
2.94765
2.94813
2.94842
2.94858
2.94869
2.94883
2.94911
2.94961
2.95045
2.95171
2.9535
2.95589
2.95892
2.96262
2.96695
2.97185
2.97722
2.98292
2.98878
2.99462
3.00026
3.00552
3.01027
3.01441
3.01787
3.02066
3.02283
3.02449
3.02579
3.02691
3.02805
3.02941
3.03115
3.03339
3.0362
3.03955
3.04336
3.04747
3.05167
3.05576
3.05955
3.0629
3.06578
3.06823
3.07035
3.0723
3.07421
3.07619
3.07824
3.0803
3.08225
3.08396
3.08531
3.08622
3.08667
3.08661
3.086
3.08476
3.08277
3.07989
3.07596
3.07079
3.06419
3.05589
3.04566
3.03339
3.01988
3.00881
3.05102
1
1
1
1
1
1
1
1
1
1
1
1
1
1
1
1
1
1
1
1
1
1
1
1
2.23838
2.79873
2.80459
2.80784
2.81006
2.81221
2.81542
2.82055
2.82804
2.83776
2.84917
2.86148
2.87393
2.88583
2.89673
2.90636
2.91464
2.9216
2.92736
2.93207
2.93589
2.93872
2.94099
2.94275
2.94407
2.94501
2.94564
2.94603
2.94625
2.94636
2.94644
2.94659
2.94689
2.94744
2.94835
2.94971
2.95161
2.95412
2.95727
2.96109
2.96552
2.9705
2.97592
2.98163
2.98747
2.99325
2.99879
3.00394
3.00855
3.01253
3.01584
3.01849
3.02054
3.0221
3.02332
3.0244
3.02552
3.02689
3.02866
3.03095
3.0338
3.0372
3.04104
3.04515
3.04934
3.0534
3.05713
3.06042
3.06323
3.06561
3.06768
3.0696
3.07149
3.07345
3.07548
3.07752
3.07945
3.08113
3.08245
3.08335
3.08378
3.08372
3.08312
3.08189
3.07991
3.07703
3.07309
3.06788
3.06117
3.05267
3.04207
3.02913
3.01439
3.00133
3.04103
1
1
1
1
1
1
1
1
1
1
1
1
1
1
1
1
1
1
1
1
1
1
1
1
2.22264
2.79676
2.80248
2.8055
2.8076
2.80986
2.81343
2.81917
2.82737
2.83777
2.84972
2.86238
2.87495
2.88678
2.89747
2.90679
2.91471
2.92131
2.92672
2.93111
2.93465
2.93721
2.93926
2.94082
2.94196
2.94276
2.94327
2.94357
2.94371
2.94378
2.94385
2.944
2.94433
2.94495
2.94595
2.94742
2.94946
2.95211
2.95541
2.95935
2.9639
2.96897
2.97444
2.98016
2.98597
2.99167
2.99711
3.00211
3.00657
3.01039
3.01354
3.01603
3.01795
3.0194
3.02056
3.02159
3.02271
3.02409
3.02589
3.02823
3.03114
3.03458
3.03844
3.04257
3.04674
3.05075
3.05442
3.05765
3.06039
3.06271
3.06473
3.0666
3.06847
3.07041
3.07243
3.07444
3.07634
3.07798
3.07925
3.0801
3.08049
3.0804
3.07978
3.07853
3.07654
3.07364
3.06967
3.0644
3.05759
3.04892
3.038
3.02447
3.00863
2.99371
3.03064
1
1
1
1
1
1
1
1
1
1
1
1
1
1
1
1
1
1
1
1
1
1
1
1
2.20426
2.79453
2.80008
2.80287
2.80489
2.80736
2.81145
2.81794
2.82697
2.83814
2.85065
2.86362
2.87624
2.88791
2.89828
2.90721
2.9147
2.92087
2.92587
2.92991
2.93313
2.93542
2.93721
2.93857
2.93953
2.94018
2.94058
2.94078
2.94086
2.94089
2.94095
2.94112
2.94151
2.94221
2.94332
2.94493
2.94712
2.94993
2.95339
2.95748
2.96214
2.9673
2.97281
2.97853
2.98428
2.98989
2.9952
3.00004
3.00432
3.00795
3.01093
3.01326
3.01504
3.01638
3.01746
3.01846
3.01957
3.02098
3.02283
3.02522
3.02818
3.03167
3.03556
3.03969
3.04384
3.04781
3.05142
3.05457
3.05724
3.0595
3.06147
3.06331
3.06515
3.06708
3.06907
3.07106
3.07291
3.0745
3.07571
3.0765
3.07683
3.07669
3.07601
3.07472
3.07268
3.06974
3.06572
3.06039
3.05347
3.04462
3.03341
3.01937
3.00254
2.98587
3.01987
1
1
1
1
1
1
1
1
1
1
1
1
1
1
1
1
1
1
1
1
1
1
1
1
2.18296
2.7919
2.79723
2.79979
2.8018
2.80462
2.80943
2.81687
2.82689
2.83889
2.85197
2.86518
2.87776
2.88916
2.89911
2.90754
2.91451
2.92019
2.92475
2.92839
2.93128
2.93326
2.9348
2.93593
2.93672
2.93722
2.9375
2.93761
2.93763
2.93763
2.9377
2.93791
2.93838
2.93919
2.94044
2.94221
2.94458
2.94757
2.9512
2.95545
2.96024
2.96547
2.97102
2.97671
2.9824
2.98789
2.99304
2.9977
3.00178
3.00521
3.00799
3.01015
3.01178
3.01302
3.01403
3.01499
3.01611
3.01754
3.01944
3.0219
3.02492
3.02845
3.03238
3.03651
3.04064
3.04456
3.0481
3.05118
3.05377
3.05597
3.05789
3.0597
3.06152
3.06343
3.0654
3.06736
3.06916
3.07068
3.07183
3.07255
3.07281
3.07259
3.07184
3.07048
3.06837
3.06536
3.06126
3.05584
3.04881
3.03979
3.02831
3.01379
2.99607
2.97778
3.00872
1
1
1
1
1
1
1
1
1
1
1
1
1
1
1
1
1
1
1
1
1
1
1
1
2.1584
2.78878
2.79385
2.79617
2.79828
2.80166
2.80743
2.81604
2.82719
2.84008
2.85368
2.86704
2.87944
2.89044
2.89985
2.90768
2.91406
2.91919
2.92327
2.92649
2.92904
2.9307
2.93199
2.9329
2.93351
2.93386
2.93402
2.93406
2.93404
2.93403
2.93412
2.9344
2.93497
2.93592
2.93734
2.9393
2.94187
2.94507
2.94889
2.95329
2.9582
2.9635
2.96906
2.97472
2.98031
2.98566
2.99062
2.99507
2.99892
3.00212
3.00469
3.00667
3.00815
3.00928
3.01022
3.01116
3.01229
3.01376
3.01573
3.01825
3.02133
3.02492
3.02888
3.03301
3.03712
3.04098
3.04446
3.04745
3.04997
3.0521
3.05398
3.05575
3.05756
3.05945
3.0614
3.06332
3.06508
3.06653
3.0676
3.06824
3.06841
3.0681
3.06727
3.06581
3.06361
3.0605
3.0563
3.05078
3.04361
3.03442
3.02268
3.00773
2.98919
2.96938
2.9972
1
1
1
1
1
1
1
1
1
1
1
1
1
1
1
1
1
1
1
1
1
1
1
1
2.13011
2.78516
2.78994
2.7921
2.79451
2.79874
2.80578
2.81578
2.82817
2.84191
2.85592
2.86925
2.88129
2.89171
2.90043
2.90756
2.91328
2.91781
2.92138
2.92418
2.92636
2.92771
2.92873
2.92944
2.92987
2.93008
2.93015
2.93012
2.93006
2.93007
2.93021
2.93059
2.9313
2.93242
2.93404
2.93623
2.93902
2.94244
2.94646
2.95102
2.95604
2.9614
2.96695
2.97254
2.97799
2.98316
2.9879
2.99211
2.99571
2.99867
3.00101
3.0028
3.00413
3.00515
3.00603
3.00695
3.0081
3.00963
3.01166
3.01426
3.01742
3.02106
3.02505
3.02919
3.03326
3.03707
3.04047
3.04339
3.04583
3.04789
3.04972
3.05147
3.05325
3.05513
3.05706
3.05895
3.06065
3.06204
3.06302
3.06356
3.06364
3.06324
3.0623
3.06073
3.05841
3.05519
3.05086
3.0452
3.0379
3.02852
3.01651
3.00115
2.98186
2.96062
2.9853
1
1
1
1
1
1
1
1
1
1
1
1
1
1
1
1
1
1
1
1
1
1
1
1
2.09758
2.78091
2.78541
2.78755
2.79058
2.79604
2.80468
2.81629
2.82995
2.84444
2.85865
2.87172
2.88317
2.89282
2.90072
2.90706
2.91206
2.91597
2.91901
2.92137
2.92321
2.92424
2.92502
2.92552
2.92579
2.92588
2.92586
2.92578
2.92573
2.92577
2.92601
2.92652
2.9274
2.92873
2.93059
2.93303
2.93607
2.93972
2.94394
2.94866
2.95377
2.95916
2.96467
2.97014
2.97543
2.98038
2.98487
2.9888
2.99212
2.99482
2.99693
2.99851
2.99969
3.00061
3.00144
3.00235
3.00353
3.00512
3.00724
3.00992
3.01316
3.01687
3.02088
3.02502
3.02906
3.03281
3.03614
3.03897
3.04133
3.04333
3.04511
3.04683
3.0486
3.05047
3.05237
3.05422
3.05586
3.05718
3.05808
3.05852
3.0585
3.05798
3.05693
3.05523
3.05278
3.04941
3.04495
3.03913
3.03166
3.02208
3.00981
2.99405
2.97405
2.95148
2.973
1
1
1
1
1
1
1
1
1
1
1
1
1
1
1
1
1
1
1
1
1
1
1
1
2.06016
2.77597
2.78027
2.78267
2.78675
2.79392
2.80452
2.81786
2.8327
2.84771
2.86181
2.87431
2.88492
2.89361
2.90057
2.90603
2.91029
2.91357
2.91609
2.91804
2.91954
2.92026
2.92081
2.92113
2.92125
2.92124
2.92115
2.92106
2.92103
2.92116
2.92152
2.92221
2.92331
2.92489
2.92702
2.92974
2.93305
2.93694
2.94136
2.94621
2.95139
2.95677
2.96219
2.96752
2.97259
2.97727
2.98147
2.9851
2.98812
2.99054
2.9924
2.99379
2.99481
2.99564
2.99642
2.99735
2.99858
3.00025
3.00245
3.00523
3.00856
3.01232
3.01637
3.0205
3.02451
3.02819
3.03144
3.03418
3.03647
3.0384
3.04014
3.04184
3.04359
3.04544
3.04733
3.04913
3.05072
3.05195
3.05276
3.0531
3.05297
3.05234
3.05115
3.04932
3.04672
3.04319
3.03855
3.03257
3.0249
3.01511
3.00257
2.98642
2.96576
2.94193
2.9603
1
1
1
1
1
1
1
1
1
1
1
1
1
1
1
1
1
1
1
1
1
1
1
1
2.01699
2.7703
2.77459
2.77772
2.78346
2.79287
2.80569
2.82074
2.83651
2.85164
2.86522
2.87681
2.8863
2.89388
2.8998
2.90437
2.90787
2.91054
2.91258
2.91413
2.91531
2.91576
2.9161
2.91624
2.91624
2.91615
2.91603
2.91595
2.916
2.91625
2.91679
2.9177
2.91907
2.92095
2.92339
2.92641
2.93
2.93413
2.93872
2.94368
2.94889
2.95421
2.9595
2.96461
2.96942
2.9738
2.97766
2.98096
2.98366
2.98579
2.9874
2.98859
2.98948
2.99022
2.99099
2.99194
2.99323
2.99499
2.9973
3.00019
3.0036
3.00743
3.01151
3.01563
3.01959
3.02321
3.02637
3.02903
3.03123
3.03311
3.0348
3.03647
3.03822
3.04005
3.04191
3.04368
3.0452
3.04635
3.04706
3.0473
3.04705
3.04629
3.04497
3.04298
3.04021
3.03651
3.03169
3.02551
3.01763
3.00761
2.99479
2.97825
2.95696
2.93195
2.9472
1
1
1
1
1
1
1
1
1
1
1
1
1
1
1
1
1
1
1
1
1
1
1
1
1.96688
2.76404
2.76872
2.7733
2.78146
2.7936
2.80874
2.82522
2.84139
2.85608
2.86865
2.87894
2.8871
2.89344
2.89829
2.90198
2.90476
2.90686
2.90844
2.90963
2.91052
2.91071
2.91086
2.91087
2.91077
2.91063
2.91052
2.91051
2.91068
2.91111
2.91189
2.91308
2.91477
2.91698
2.91976
2.9231
2.92696
2.93131
2.93604
2.94106
2.94624
2.95145
2.95654
2.96139
2.96588
2.9699
2.9734
2.97634
2.97871
2.98054
2.98191
2.98291
2.98367
2.98436
2.98511
2.98611
2.98749
2.98936
2.99179
2.99479
2.9983
3.00219
3.00629
3.0104
3.01432
3.01786
3.02093
3.02349
3.02562
3.02743
3.02909
3.03074
3.03247
3.03429
3.03612
3.03784
3.03929
3.04036
3.04097
3.0411
3.04073
3.03984
3.03837
3.03622
3.03328
3.02938
3.02435
3.01796
3.00986
2.99958
2.98647
2.96955
2.94765
2.92151
2.93367
1
1
1
1
1
1
1
1
1
1
1
1
1
1
1
1
1
1
1
1
1
1
1
1
1.90837
2.7574
2.76313
2.77015
2.78152
2.79667
2.81386
2.83113
2.84697
2.86054
2.8716
2.88031
2.887
2.89208
2.89589
2.89875
2.90088
2.90246
2.90363
2.90449
2.90511
2.90507
2.90507
2.90497
2.90482
2.90469
2.90464
2.90476
2.90512
2.90581
2.90689
2.90843
2.91048
2.91307
2.9162
2.91985
2.92397
2.92849
2.93332
2.93834
2.94342
2.94844
2.95326
2.95779
2.9619
2.96553
2.96864
2.97119
2.97322
2.97476
2.97589
2.97672
2.97738
2.97803
2.97881
2.97988
2.98136
2.98336
2.98592
2.98904
2.99264
2.9966
3.00072
3.00481
3.00867
3.01213
3.0151
3.01757
3.01962
3.02137
3.02299
3.02462
3.02634
3.02815
3.02995
3.03162
3.033
3.03398
3.03449
3.0345
3.03401
3.03298
3.03135
3.02903
3.02589
3.02179
3.01655
3.00992
3.00157
2.99103
2.97761
2.9603
2.93781
2.9106
2.91971
1
1
1
1
1
1
1
1
1
1
1
1
1
1
1
1
1
1
1
1
1
1
1
1
1.83939
2.7513
2.7591
2.76971
2.78484
2.80277
2.82119
2.83821
2.85276
2.86451
2.87365
2.88058
2.88578
2.88965
2.89251
2.89463
2.89617
2.89729
2.89808
2.89864
2.89904
2.89881
2.8987
2.89854
2.8984
2.89834
2.89844
2.89877
2.89942
2.90044
2.9019
2.90384
2.9063
2.90928
2.91277
2.91671
2.92104
2.92569
2.93053
2.93547
2.94037
2.94512
2.9496
2.95373
2.95742
2.96062
2.96331
2.96548
2.96716
2.96841
2.96933
2.97002
2.97061
2.97125
2.97208
2.97324
2.97485
2.97699
2.9797
2.98294
2.98664
2.99066
2.9948
2.99886
3.00265
3.00602
3.00889
3.01126
3.01323
3.01492
3.01651
3.01812
3.01983
3.02162
3.0234
3.02501
3.02632
3.0272
3.0276
3.02749
3.02687
3.0257
3.02391
3.02141
3.01807
3.01375
3.00826
3.00139
2.99277
2.98195
2.96822
2.95051
2.92745
2.89921
2.90532
1
1
1
1
1
1
1
1
1
1
1
1
1
1
1
1
1
1
1
1
1
1
1
1
1.75745
2.7473
2.75842
2.77353
2.79227
2.81192
2.83014
2.84558
2.85786
2.86724
2.87424
2.87941
2.88322
2.88601
2.88804
2.8895
2.89054
2.89124
2.89171
2.89202
2.89222
2.89187
2.89172
2.89159
2.89155
2.89167
2.89203
2.89268
2.8937
2.89514
2.89705
2.89945
2.90235
2.90572
2.90953
2.91371
2.91819
2.92286
2.92763
2.93238
2.93701
2.9414
2.94547
2.94915
2.95237
2.95512
2.95737
2.95915
2.9605
2.9615
2.96223
2.96281
2.96336
2.96403
2.96494
2.96622
2.96798
2.97029
2.97314
2.97652
2.98031
2.98438
2.98852
2.99254
2.99626
2.99953
3.00229
3.00456
3.00644
3.00808
3.00964
3.01124
3.01294
3.01471
3.01645
3.01801
3.01923
3.02002
3.0203
3.02007
3.01931
3.01799
3.01603
3.01334
3.00979
3.00524
2.99951
2.99236
2.98347
2.97235
2.95828
2.94018
2.91655
2.88733
2.89049
1
1
1
1
1
1
1
1
1
1
1
1
1
1
1
1
1
1
1
1
1
1
1
1
1.65991
2.74819
2.76359
2.78309
2.80397
2.82328
2.83938
2.85188
2.86119
2.86798
2.87291
2.8765
2.87911
2.88099
2.88233
2.88324
2.88384
2.88421
2.88443
2.88456
2.88466
2.88428
2.88421
2.88424
2.88443
2.88487
2.8856
2.88669
2.88819
2.89014
2.89255
2.89543
2.89874
2.90246
2.90653
2.91086
2.91537
2.91997
2.92454
2.929
2.93324
2.93719
2.94078
2.94395
2.94668
2.94895
2.95077
2.95219
2.95324
2.95401
2.9546
2.9551
2.95566
2.95639
2.95741
2.95885
2.96078
2.96325
2.96627
2.96978
2.97366
2.97776
2.9819
2.98587
2.98949
2.99265
2.9953
2.99747
2.99927
3.00085
3.00238
3.00396
3.00565
3.00741
3.00911
3.01061
3.01174
3.01243
3.01259
3.01224
3.01133
3.00985
3.00772
3.00483
3.00106
2.99626
2.99027
2.98285
2.97366
2.96222
2.94781
2.9293
2.90512
2.87495
2.87522
1
1
1
1
1
1
1
1
1
1
1
1
1
1
1
1
1
1
1
1
1
1
1
1
1.54514
2.75756
2.77677
2.79842
2.81836
2.83456
2.84671
2.85543
2.86162
2.86604
2.86924
2.87158
2.87326
2.87444
2.87522
2.87572
2.876
2.87615
2.87624
2.87633
2.87645
2.87621
2.87638
2.87673
2.87732
2.87822
2.87947
2.88111
2.88317
2.88567
2.88859
2.89191
2.89559
2.89956
2.90377
2.90812
2.91252
2.91689
2.92114
2.92518
2.92895
2.93237
2.93542
2.93806
2.94027
2.94208
2.94349
2.94457
2.94536
2.94595
2.94644
2.94693
2.94753
2.94836
2.94954
2.95115
2.95327
2.95593
2.95911
2.96274
2.9667
2.97083
2.97494
2.97883
2.98236
2.9854
2.98792
2.98999
2.9917
2.99323
2.99473
2.9963
2.99798
2.99972
3.00138
3.0028
3.00385
3.00442
3.00447
3.00397
3.00293
3.00128
2.99897
2.99587
2.99187
2.98682
2.98055
2.97284
2.96334
2.95157
2.9368
2.91789
2.89315
2.86206
2.85949
1
1
1
1
1
1
1
1
1
1
1
1
1
1
1
1
1
1
1
1
1
1
1
1
1.41501
2.77742
2.7973
2.8164
2.83148
2.84225
2.84963
2.85473
2.85838
2.86107
2.86309
2.86457
2.86562
2.86632
2.86676
2.86701
2.86716
2.86728
2.86742
2.86765
2.86798
2.86806
2.86866
2.86951
2.87067
2.87216
2.87403
2.87629
2.87894
2.88196
2.88533
2.88899
2.8929
2.89698
2.90116
2.90535
2.90948
2.91347
2.91725
2.92077
2.92397
2.92681
2.92929
2.93138
2.9331
2.93446
2.93551
2.9363
2.93689
2.93736
2.9378
2.93832
2.93902
2.93999
2.94135
2.94316
2.94549
2.94833
2.95167
2.95541
2.95944
2.96357
2.96764
2.97144
2.97485
2.97776
2.98016
2.98211
2.98375
2.98523
2.9867
2.98826
2.98993
2.99164
2.99325
2.9946
2.99555
2.996
2.99592
2.99529
2.99409
2.99228
2.98977
2.98646
2.98222
2.97691
2.97036
2.96234
2.95252
2.94041
2.92527
2.90593
2.88064
2.84868
2.84331
1
1
1
1
1
1
1
1
1
1
1
1
1
1
1
1
1
1
1
1
1
1
1
1
1.278
2.80207
2.81818
2.82976
2.83762
2.84278
2.84641
2.84922
2.85149
2.85332
2.85473
2.85577
2.85648
2.85696
2.85727
2.85752
2.85776
2.85808
2.85851
2.8591
2.85985
2.86044
2.86166
2.86317
2.865
2.86717
2.86969
2.87254
2.87571
2.87915
2.88281
2.88665
2.89058
2.89455
2.89849
2.90233
2.90601
2.90947
2.91267
2.91557
2.91814
2.92038
2.92228
2.92385
2.92511
2.9261
2.92684
2.92741
2.92786
2.92828
2.92874
2.92934
2.93018
2.93134
2.9329
2.93494
2.93747
2.9405
2.94398
2.94782
2.95189
2.95601
2.96
2.9637
2.96697
2.96974
2.97201
2.97385
2.9754
2.97683
2.97828
2.97983
2.98149
2.98317
2.98472
2.98599
2.98684
2.98717
2.98696
2.98618
2.98482
2.98284
2.98013
2.9766
2.97211
2.96652
2.95968
2.95134
2.94118
2.92872
2.9132
2.89343
2.8676
2.83478
2.82668
1
1
1
1
1
1
1
1
1
1
1
1
1
1
1
1
1
1
1
1
1
1
1
1
1.14916
2.81355
2.82701
2.83047
2.83302
2.83547
2.83793
2.84022
2.8422
2.84377
2.84495
2.84581
2.84643
2.84691
2.84737
2.84788
2.8485
2.84929
2.85027
2.85145
2.85281
2.85408
2.85604
2.85828
2.86082
2.86364
2.86672
2.87003
2.87352
2.87716
2.88088
2.88462
2.88833
2.89196
2.89544
2.89874
2.90181
2.90462
2.90715
2.90939
2.91134
2.91299
2.91435
2.91546
2.91633
2.917
2.91753
2.91795
2.91835
2.91878
2.91932
2.92007
2.92109
2.92246
2.92425
2.92651
2.92926
2.93246
2.93608
2.93999
2.94407
2.94814
2.95204
2.95561
2.95873
2.96134
2.96347
2.9652
2.96667
2.96806
2.96948
2.97103
2.97267
2.97431
2.97581
2.97699
2.97772
2.97793
2.97757
2.97664
2.97512
2.97295
2.97004
2.96628
2.96153
2.95567
2.94852
2.93986
2.92935
2.91652
2.9006
2.8804
2.85403
2.82038
2.8096
1
1
1
1
1
1
1
1
1
1
1
1
1
1
1
1
1
1
1
1
1
1
1
1
1.04496
2.79185
2.81695
2.81832
2.82119
2.82447
2.82749
2.82999
2.83193
2.83338
2.83446
2.83533
2.83611
2.83692
2.83785
2.83897
2.84031
2.84188
2.84365
2.84561
2.84772
2.84972
2.85241
2.85533
2.85843
2.86171
2.86511
2.8686
2.87212
2.87564
2.8791
2.88246
2.88568
2.88873
2.89156
2.89417
2.89654
2.89864
2.9005
2.90209
2.90345
2.90457
2.90548
2.90621
2.90679
2.90725
2.90764
2.90802
2.90844
2.90895
2.90964
2.91057
2.91181
2.91343
2.91546
2.91795
2.92089
2.92425
2.92796
2.93192
2.93598
2.93997
2.94375
2.94716
2.95011
2.95256
2.95455
2.95617
2.95757
2.95891
2.96032
2.96185
2.96347
2.96508
2.96651
2.96759
2.9682
2.96827
2.96777
2.96668
2.96499
2.96263
2.95951
2.95551
2.9505
2.94435
2.93688
2.92788
2.91701
2.9038
2.88748
2.86684
2.83993
2.80547
2.79207
1
1
1
1
1
1
1
1
1
1
1
1
1
1
1
1
1
1
1
1
1
1
1
1
1.0049
2.7178
2.79759
2.804
2.80934
2.81361
2.81688
2.8193
2.82111
2.82252
2.82377
2.82502
2.82641
2.82801
2.82989
2.83202
2.83439
2.83695
2.83965
2.84243
2.84525
2.84782
2.85104
2.85434
2.85769
2.86106
2.8644
2.86767
2.87085
2.8739
2.8768
2.87951
2.88202
2.88432
2.88641
2.88827
2.88991
2.89134
2.89256
2.89359
2.89445
2.89515
2.89572
2.89619
2.89659
2.89695
2.89732
2.89773
2.89825
2.89892
2.89981
2.90097
2.90245
2.90432
2.90659
2.90929
2.9124
2.91589
2.91966
2.92362
2.92762
2.93151
2.93513
2.93837
2.94113
2.94341
2.94525
2.94676
2.94809
2.9494
2.95079
2.95231
2.95391
2.95547
2.95682
2.9578
2.95828
2.95821
2.95755
2.9563
2.95443
2.95188
2.94853
2.94428
2.939
2.93255
2.92477
2.91541
2.90418
2.89057
2.87384
2.85275
2.82531
2.79006
2.77409
1
1
1
1
1
1
1
1
1
1
1
1
1
1
1
1
1
1
1
1
1
1
1
1
1.00031
2.62171
2.78372
2.79214
2.79824
2.80264
2.80579
2.80814
2.8101
2.81198
2.81399
2.81629
2.81891
2.82184
2.82504
2.82843
2.83192
2.83543
2.83888
2.84223
2.84542
2.84814
2.85143
2.85464
2.85774
2.86072
2.86356
2.86622
2.86871
2.87101
2.87312
2.87503
2.87674
2.87826
2.8796
2.88076
2.88176
2.88261
2.88333
2.88393
2.88443
2.88486
2.88523
2.88557
2.88591
2.88628
2.88671
2.88725
2.88794
2.88881
2.88994
2.89134
2.89308
2.89519
2.89769
2.90057
2.90382
2.90739
2.91118
2.9151
2.919
2.92274
2.92618
2.92922
2.93179
2.93388
2.93558
2.93698
2.93825
2.93953
2.94091
2.94241
2.94399
2.94549
2.94676
2.94762
2.94797
2.94774
2.94692
2.9455
2.94345
2.94068
2.93711
2.93261
2.92705
2.92029
2.91217
2.90246
2.89085
2.87684
2.85969
2.83814
2.81017
2.77415
2.75567
1
1
1
1
1
1
1
1
1
1
1
1
1
1
1
1
1
1
1
1
1
1
1
1
1.00002
2.51054
2.77135
2.78074
2.78703
2.79139
2.79466
2.79751
2.80042
2.80366
2.8073
2.81134
2.81567
2.82015
2.82465
2.82904
2.83324
2.83717
2.84079
2.84408
2.84705
2.84931
2.85206
2.85463
2.857
2.85918
2.86117
2.86298
2.8646
2.86604
2.86732
2.86844
2.86941
2.87025
2.87098
2.8716
2.87212
2.87257
2.87296
2.8733
2.87362
2.87392
2.87423
2.87457
2.87497
2.87544
2.87603
2.87676
2.87766
2.87878
2.88015
2.88181
2.88379
2.88612
2.8888
2.89182
2.89516
2.89876
2.90252
2.90634
2.9101
2.91366
2.91689
2.91971
2.92207
2.92399
2.92554
2.92685
2.92807
2.92932
2.93068
2.93218
2.93372
2.93516
2.93633
2.93706
2.93726
2.93688
2.93589
2.93429
2.93204
2.92906
2.92526
2.92049
2.91464
2.90757
2.89911
2.88903
2.87703
2.86261
2.84503
2.82302
2.79452
2.75775
2.73681
1
1
1
1
1
1
1
1
1
1
1
1
1
1
1
1
1
1
1
1
1
1
1
1
1
2.38042
2.75943
2.76971
2.77625
2.78109
2.78545
2.79002
2.79508
2.80061
2.80643
2.81232
2.81806
2.82346
2.82841
2.83284
2.83674
2.84012
2.84302
2.84549
2.84758
2.84887
2.85063
2.85221
2.85361
2.85485
2.85593
2.85688
2.8577
2.85841
2.85901
2.85954
2.85998
2.86037
2.8607
2.861
2.86127
2.86153
2.86179
2.86205
2.86235
2.86268
2.86306
2.86351
2.86406
2.86472
2.86551
2.86646
2.8676
2.86896
2.87057
2.87246
2.87465
2.87714
2.87995
2.88306
2.88643
2.88999
2.89367
2.89735
2.90092
2.90426
2.90726
2.90985
2.912
2.91374
2.91516
2.91638
2.91755
2.91877
2.92013
2.92161
2.92311
2.92448
2.92554
2.92614
2.92618
2.92562
2.92446
2.92267
2.92022
2.91702
2.91297
2.90793
2.90178
2.89439
2.88557
2.87513
2.86272
2.84789
2.82987
2.8074
2.77836
2.74086
2.71752
1
1
1
1
1
1
1
1
1
1
1
1
1
1
1
1
1
1
1
1
1
1
1
1
1
2.22563
2.74925
2.76079
2.76853
2.77537
2.78244
2.78998
2.79775
2.80537
2.81252
2.81893
2.82449
2.82917
2.83301
2.83611
2.83856
2.84048
2.84198
2.84314
2.84405
2.84429
2.84506
2.84572
2.84629
2.84678
2.84721
2.84757
2.84789
2.84817
2.84842
2.84864
2.84886
2.84907
2.84928
2.84951
2.84976
2.85003
2.85034
2.8507
2.85111
2.85158
2.85213
2.85277
2.85351
2.85438
2.85539
2.85656
2.85792