/*--------------------------------*- C++ -*----------------------------------*\
| =========                 |                                                 |
| \\      /  F ield         | OpenFOAM: The Open Source CFD Toolbox           |
|  \\    /   O peration     | Version:  2.2.x                                 |
|   \\  /    A nd           | Web:      www.OpenFOAM.org                      |
|    \\/     M anipulation  |                                                 |
\*---------------------------------------------------------------------------*/
FoamFile
{
    version     2.0;
    format      ascii;
    class       volScalarField;
    location    "2.9";
    object      Bx;
}
// * * * * * * * * * * * * * * * * * * * * * * * * * * * * * * * * * * * * * //

dimensions      [1 0 -2 0 0 -1 0];

internalField   nonuniform List<scalar> 
14161
(
1.00425
1.00311
1.00332
1.00339
1.00351
1.00365
1.0038
1.00397
1.00416
1.00436
1.00457
1.00478
1.00501
1.00523
1.00544
1.00566
1.00586
1.00605
1.00622
1.00637
1.00649
1.00657
1.00663
1.00667
1.00669
1.00666
1.0066
1.00649
1.00633
1.00612
1.00584
1.0055
1.00506
1.00457
1.00397
1.00326
1.00233
1.00117
0.999693
0.997035
0.994721
0.987068
0.986749
0.942996
0.901586
0.921126
0.96151
1.0103
1.05199
1.08418
1.10827
1.12885
1.14521
1.1573
1.16609
1.17274
1.1781
1.18245
1.18621
1.18968
1.19296
1.19592
1.1986
1.20103
1.20327
1.20508
1.20655
1.20779
1.20899
1.2102
1.21124
1.21233
1.2136
1.21486
1.21631
1.21799
1.21962
1.22125
1.22283
1.22436
1.22611
1.22834
1.23106
1.23395
1.23726
1.24088
1.24474
1.24909
1.25337
1.25736
1.26146
1.26541
1.26935
1.27306
1.27764
1.28317
1.28823
1.29252
1.29848
1.30624
1.31413
1.32183
1.3291
1.33559
1.34196
1.34742
1.35325
1.36158
1.36894
1.37985
1.36323
1.28877
1.14612
0.955949
0.754261
0.572575
0.380164
0.232595
0.0621228
1.00426
1.00311
1.00333
1.00339
1.00351
1.00364
1.0038
1.00398
1.00416
1.00436
1.00457
1.00479
1.00501
1.00523
1.00545
1.00566
1.00586
1.00605
1.00623
1.00638
1.00649
1.00658
1.00663
1.00668
1.00669
1.00667
1.0066
1.0065
1.00634
1.00612
1.00585
1.00552
1.00511
1.0046
1.00402
1.00334
1.00256
1.00147
1.00032
0.998391
0.997004
0.992098
0.992432
0.966154
0.944112
0.970133
1.00904
1.03748
1.06107
1.08393
1.10373
1.11988
1.13295
1.14491
1.15463
1.16247
1.16899
1.17447
1.1792
1.18343
1.18748
1.19135
1.1948
1.19794
1.20071
1.20314
1.20515
1.20679
1.20824
1.20971
1.21104
1.21236
1.2138
1.2153
1.21679
1.21839
1.22007
1.22184
1.22363
1.22546
1.22727
1.22936
1.23187
1.23456
1.23752
1.24085
1.24423
1.24815
1.25226
1.25634
1.2605
1.26472
1.2689
1.27314
1.27754
1.28291
1.28811
1.29317
1.2985
1.3054
1.31243
1.32061
1.32646
1.33274
1.33853
1.34437
1.35053
1.35799
1.36012
1.33375
1.24913
1.09207
0.892925
0.713215
0.544811
0.400056
0.253476
0.167961
0.0624464
1.00425
1.00311
1.00333
1.0034
1.00351
1.00364
1.0038
1.00398
1.00416
1.00436
1.00457
1.00479
1.00501
1.00523
1.00545
1.00566
1.00587
1.00606
1.00623
1.00638
1.00649
1.00658
1.00664
1.00669
1.00671
1.00669
1.00662
1.00652
1.00637
1.00616
1.0059
1.00556
1.00518
1.0047
1.00415
1.00349
1.0028
1.00198
1.00123
1.00039
1.00001
1.00094
0.998553
1.01079
1.04098
1.04069
1.05582
1.06276
1.07097
1.08317
1.09673
1.10909
1.12177
1.13391
1.14442
1.15354
1.16133
1.16803
1.17371
1.1788
1.18337
1.18804
1.19248
1.19633
1.19975
1.20268
1.20535
1.20749
1.20953
1.2114
1.21307
1.2147
1.21632
1.21799
1.21954
1.22115
1.22281
1.22452
1.22632
1.22815
1.22999
1.23195
1.23433
1.23695
1.23959
1.24261
1.24554
1.24906
1.25297
1.25692
1.26088
1.26499
1.26893
1.27337
1.27747
1.28309
1.28786
1.29328
1.29801
1.3048
1.31189
1.31947
1.32602
1.33307
1.33752
1.34158
1.34469
1.34191
1.30927
1.19306
1.00577
0.784343
0.620157
0.499191
0.387959
0.290705
0.190849
0.133416
0.0445763
1.00425
1.00311
1.00333
1.00339
1.00351
1.00365
1.0038
1.00398
1.00417
1.00436
1.00457
1.00479
1.00501
1.00523
1.00545
1.00567
1.00587
1.00607
1.00624
1.00639
1.00651
1.00659
1.00666
1.00671
1.00673
1.00672
1.00666
1.00657
1.00642
1.00623
1.00598
1.00567
1.0053
1.00486
1.00435
1.00374
1.00316
1.00261
1.00231
1.00296
1.00393
1.01093
1.01118
1.07405
1.11052
1.09494
1.08508
1.07805
1.08094
1.08853
1.09782
1.10847
1.12252
1.135
1.1461
1.1561
1.16433
1.17132
1.17774
1.18347
1.18925
1.19432
1.19877
1.20271
1.20638
1.20952
1.21242
1.21456
1.21678
1.21868
1.22043
1.22229
1.22394
1.22556
1.22709
1.22862
1.23015
1.2317
1.23337
1.23512
1.23701
1.23882
1.24134
1.24393
1.24638
1.24919
1.25187
1.2552
1.25889
1.26248
1.26615
1.27001
1.27382
1.2784
1.28265
1.28801
1.29248
1.29827
1.30313
1.30999
1.3171
1.3241
1.33145
1.33802
1.3405
1.34254
1.33499
1.28366
1.14141
0.900389
0.699325
0.56708
0.455731
0.372378
0.293567
0.229984
0.161885
0.120925
0.0398701
1.00425
1.00311
1.00333
1.00339
1.00351
1.00365
1.00381
1.00398
1.00417
1.00437
1.00458
1.00479
1.00501
1.00524
1.00546
1.00567
1.00588
1.00607
1.00625
1.0064
1.00653
1.00662
1.00669
1.00674
1.00677
1.00676
1.00672
1.00663
1.00651
1.00632
1.00609
1.00582
1.00548
1.00508
1.0046
1.00408
1.00349
1.00289
1.0023
1.00191
1.00175
1.00352
1.00122
1.01381
1.06464
1.07866
1.07418
1.08042
1.0906
1.10099
1.11406
1.12776
1.14422
1.15679
1.16827
1.17812
1.18601
1.19236
1.19798
1.20275
1.2076
1.21162
1.21527
1.21878
1.22207
1.22522
1.22802
1.22984
1.23207
1.23381
1.23549
1.23727
1.23872
1.24008
1.24138
1.2426
1.2438
1.24504
1.24646
1.24811
1.25
1.25167
1.25407
1.25672
1.2589
1.26135
1.26374
1.26659
1.27002
1.27316
1.27646
1.27977
1.28334
1.28772
1.29182
1.29666
1.30083
1.30736
1.31201
1.3189
1.32634
1.33477
1.34372
1.34886
1.3496
1.33823
1.28457
1.11954
0.873086
0.676812
0.536799
0.442656
0.366325
0.30632
0.248336
0.202337
0.149567
0.117757
0.0498
1.00425
1.00311
1.00333
1.0034
1.00351
1.00365
1.00381
1.00398
1.00417
1.00437
1.00458
1.0048
1.00502
1.00524
1.00547
1.00568
1.00589
1.00608
1.00626
1.00642
1.00655
1.00664
1.00672
1.00678
1.00681
1.00682
1.00678
1.00671
1.00661
1.00645
1.00626
1.00601
1.00572
1.00538
1.00497
1.00446
1.00387
1.00319
1.00244
1.00138
0.999939
0.996649
0.993064
0.977905
0.974366
0.999701
1.02109
1.04364
1.06692
1.08791
1.10832
1.12832
1.14836
1.16518
1.18047
1.19372
1.20469
1.21259
1.21915
1.22421
1.22957
1.23456
1.23867
1.24277
1.24626
1.24956
1.25278
1.25537
1.25753
1.25902
1.26033
1.26188
1.26287
1.26374
1.26467
1.26551
1.26635
1.26723
1.26836
1.26985
1.27168
1.27253
1.27343
1.27538
1.27734
1.27944
1.28122
1.28328
1.28635
1.28894
1.2918
1.29455
1.29757
1.30124
1.30468
1.30897
1.31293
1.31946
1.32399
1.33069
1.3386
1.34915
1.3585
1.35972
1.35474
1.30293
1.13998
0.900319
0.705796
0.573615
0.462806
0.381078
0.320467
0.272711
0.226671
0.188729
0.142448
0.113649
0.0545999
1.00424
1.00311
1.00333
1.0034
1.00351
1.00365
1.00381
1.00398
1.00417
1.00437
1.00458
1.0048
1.00502
1.00524
1.00548
1.00569
1.0059
1.00609
1.00627
1.00644
1.00657
1.00668
1.00677
1.00682
1.00687
1.00689
1.00687
1.00682
1.00673
1.00662
1.00645
1.00625
1.00602
1.00573
1.00539
1.00496
1.00438
1.00359
1.00243
1.00051
0.998729
0.994921
0.993386
0.968009
0.939598
0.954621
0.983939
1.02195
1.06304
1.09582
1.12264
1.14842
1.1723
1.19278
1.20927
1.22358
1.23458
1.2429
1.24904
1.25397
1.25972
1.26483
1.26915
1.27387
1.27716
1.28068
1.2836
1.28559
1.28889
1.29048
1.2917
1.29321
1.29421
1.29527
1.29602
1.29665
1.29726
1.29766
1.29814
1.29872
1.29954
1.30034
1.30067
1.30124
1.30297
1.30463
1.30583
1.30699
1.3092
1.31058
1.3127
1.3148
1.31749
1.3202
1.32296
1.32674
1.32987
1.33637
1.34141
1.34841
1.35645
1.36521
1.36968
1.36266
1.32326
1.17417
0.944081
0.750513
0.610864
0.514504
0.428049
0.356932
0.304309
0.260325
0.218524
0.184015
0.141802
0.114334
0.0638477
1.00423
1.00311
1.00333
1.0034
1.00351
1.00365
1.00381
1.00398
1.00417
1.00437
1.00458
1.0048
1.00502
1.00525
1.00548
1.0057
1.00591
1.00611
1.00629
1.00646
1.0066
1.00672
1.00681
1.00688
1.00693
1.00697
1.00698
1.00694
1.00688
1.0068
1.00668
1.00654
1.00638
1.00619
1.00596
1.00568
1.00532
1.00483
1.00411
1.00291
1.00183
0.997935
0.999724
0.981217
0.936803
0.954376
0.981611
1.03103
1.081
1.11851
1.14931
1.17699
1.20145
1.22371
1.23947
1.25415
1.26528
1.27385
1.28044
1.28554
1.29168
1.29566
1.30075
1.30514
1.30784
1.31121
1.31298
1.31663
1.31988
1.32133
1.32279
1.32444
1.32572
1.327
1.32782
1.32822
1.32884
1.32932
1.32919
1.32982
1.32928
1.33002
1.3309
1.33046
1.33066
1.33133
1.33216
1.33263
1.33353
1.33411
1.33568
1.33721
1.33862
1.34061
1.34219
1.34509
1.34783
1.35204
1.35664
1.36071
1.36579
1.37018
1.37162
1.34198
1.2145
0.992735
0.809719
0.681683
0.560639
0.479486
0.404716
0.344324
0.296711
0.253565
0.214099
0.182096
0.143067
0.117299
0.0732783
1.00422
1.0031
1.00332
1.00339
1.00351
1.00365
1.00381
1.00399
1.00417
1.00438
1.00459
1.00481
1.00503
1.00526
1.00549
1.00571
1.00592
1.00613
1.00631
1.00649
1.00664
1.00677
1.00687
1.00695
1.007
1.00706
1.00709
1.00709
1.00705
1.00701
1.00695
1.00687
1.00679
1.0067
1.00661
1.00652
1.00643
1.0063
1.00613
1.00568
1.00515
1.00275
1.00202
0.994063
0.963288
0.981235
1.02515
1.08105
1.1347
1.16719
1.20282
1.23191
1.253
1.27304
1.28533
1.29722
1.30734
1.31112
1.31585
1.3223
1.32589
1.32866
1.33112
1.33287
1.33602
1.33801
1.33942
1.343
1.34418
1.34602
1.34785
1.34905
1.35015
1.35101
1.35165
1.35198
1.35229
1.35282
1.35274
1.35332
1.3532
1.35299
1.35393
1.35407
1.35391
1.35475
1.35524
1.35547
1.35588
1.35656
1.35756
1.35867
1.35976
1.36093
1.36156
1.36228
1.3636
1.36477
1.36549
1.3656
1.36683
1.36145
1.34262
1.2312
1.04796
0.851528
0.721932
0.629358
0.534144
0.461392
0.394798
0.343052
0.296936
0.253865
0.214107
0.182318
0.146359
0.122977
0.0861223
1.00421
1.0031
1.00332
1.00339
1.00351
1.00365
1.00381
1.00398
1.00417
1.00437
1.00459
1.00481
1.00504
1.00526
1.00549
1.00572
1.00594
1.00615
1.00635
1.00652
1.00669
1.00683
1.00694
1.00703
1.0071
1.00716
1.00721
1.00725
1.00725
1.00725
1.00724
1.00724
1.00723
1.00727
1.00734
1.00748
1.00774
1.00813
1.00878
1.00988
1.01134
1.0147
1.01673
1.02626
1.03737
1.06276
1.14762
1.1872
1.22214
1.24137
1.27272
1.29641
1.30694
1.31675
1.32296
1.33384
1.33815
1.34145
1.34257
1.34751
1.35096
1.35334
1.35325
1.35426
1.35711
1.35754
1.35913
1.36156
1.36176
1.36334
1.36518
1.36594
1.36658
1.36676
1.36715
1.36736
1.36729
1.3675
1.36756
1.36764
1.3682
1.36787
1.36848
1.36908
1.36929
1.3701
1.3703
1.37051
1.37063
1.37102
1.37146
1.37195
1.372
1.37204
1.37191
1.37061
1.36947
1.36853
1.3673
1.36343
1.35526
1.32147
1.2094
1.02428
0.816022
0.709257
0.612605
0.546211
0.47727
0.417237
0.363844
0.321008
0.278895
0.240241
0.204613
0.176888
0.145919
0.126363
0.0953577
1.0042
1.00309
1.00332
1.00339
1.00351
1.00365
1.00381
1.00398
1.00417
1.00437
1.00459
1.00481
1.00504
1.00527
1.0055
1.00574
1.00596
1.00617
1.00638
1.00656
1.00674
1.0069
1.00703
1.00713
1.00721
1.00729
1.00735
1.00743
1.00747
1.00751
1.00755
1.0076
1.00768
1.0078
1.00802
1.00834
1.00885
1.00955
1.01051
1.01204
1.01342
1.01712
1.0161
1.03079
1.11833
1.23656
1.30396
1.31081
1.31779
1.31604
1.329
1.33927
1.34638
1.35276
1.35505
1.36304
1.36218
1.36619
1.36643
1.36786
1.36923
1.37015
1.3699
1.37113
1.37173
1.37215
1.37375
1.37415
1.37428
1.37495
1.37586
1.37588
1.3758
1.37561
1.37575
1.37585
1.37572
1.37608
1.37603
1.37607
1.37638
1.37627
1.3761
1.37679
1.37714
1.37743
1.37763
1.3775
1.37728
1.3772
1.37682
1.37669
1.37581
1.37478
1.37339
1.37234
1.36838
1.36135
1.35079
1.3252
1.27363
1.1453
0.952293
0.782586
0.694441
0.612412
0.55233
0.498942
0.447375
0.398051
0.351668
0.312303
0.272524
0.237189
0.204296
0.178558
0.150745
0.133514
0.108067
1.00419
1.00309
1.00331
1.00338
1.0035
1.00364
1.0038
1.00398
1.00417
1.00437
1.00459
1.00481
1.00504
1.00528
1.00551
1.00575
1.00598
1.00619
1.00641
1.00661
1.0068
1.00698
1.00712
1.00724
1.00734
1.00743
1.00752
1.00761
1.0077
1.00778
1.00786
1.00796
1.0081
1.00831
1.00864
1.00913
1.00988
1.01093
1.0124
1.01471
1.01824
1.02472
1.03003
1.07313
1.17466
1.30057
1.32656
1.34116
1.34767
1.34473
1.3553
1.35725
1.36371
1.36661
1.36922
1.37206
1.37395
1.3749
1.37621
1.37651
1.37659
1.37745
1.37744
1.37794
1.37785
1.37846
1.37895
1.37867
1.37888
1.379
1.37904
1.37891
1.3788
1.37858
1.37892
1.37922
1.37922
1.37989
1.37978
1.38002
1.38054
1.38034
1.38016
1.38018
1.3803
1.38002
1.38003
1.37932
1.37867
1.37839
1.37758
1.37685
1.37393
1.36905
1.36274
1.35392
1.33848
1.31023
1.26219
1.17505
1.02521
0.833328
0.688535
0.584669
0.524925
0.487887
0.454607
0.423594
0.390921
0.356169
0.321746
0.289385
0.257531
0.228433
0.200003
0.177704
0.153757
0.13955
0.118388
1.00418
1.00308
1.00331
1.00338
1.0035
1.00364
1.0038
1.00398
1.00417
1.00437
1.00459
1.00481
1.00505
1.00528
1.00552
1.00576
1.00601
1.00622
1.00644
1.00666
1.00686
1.00705
1.00722
1.00736
1.00748
1.00759
1.0077
1.0078
1.00793
1.00805
1.00817
1.0083
1.00846
1.00868
1.00898
1.00936
1.00984
1.01047
1.01111
1.01188
1.01152
1.01216
0.997558
1.03938
1.11532
1.15296
1.20441
1.26223
1.29685
1.31188
1.33265
1.33799
1.35107
1.35884
1.36314
1.36876
1.37186
1.37212
1.37504
1.37635
1.37569
1.3771
1.3772
1.37727
1.37731
1.37749
1.37821
1.37751
1.37789
1.37819
1.37836
1.3783
1.37811
1.37782
1.37797
1.37826
1.37813
1.37864
1.37876
1.3785
1.37969
1.37967
1.37905
1.37917
1.37884
1.37825
1.37691
1.37497
1.37157
1.36767
1.36236
1.35555
1.3446
1.32699
1.30197
1.26585
1.21196
1.12407
1.00656
0.83893
0.690073
0.575003
0.500421
0.457725
0.4263
0.406743
0.389817
0.37103
0.351393
0.328404
0.303921
0.277089
0.250357
0.224732
0.1999
0.180531
0.159714
0.147604
0.130287
1.00417
1.00308
1.0033
1.00337
1.00349
1.00363
1.0038
1.00397
1.00416
1.00437
1.00459
1.00481
1.00505
1.00529
1.00553
1.00578
1.00603
1.00626
1.00648
1.00671
1.00693
1.00714
1.00733
1.0075
1.00764
1.00777
1.0079
1.00802
1.00816
1.00831
1.00846
1.00861
1.00877
1.00896
1.00922
1.0095
1.00983
1.01024
1.01079
1.0114
1.0119
1.01305
1.00751
1.04238
1.09229
1.09706
1.1384
1.19945
1.25733
1.29654
1.31564
1.31924
1.33784
1.34171
1.35286
1.35766
1.36265
1.36552
1.36781
1.37031
1.3692
1.37036
1.37112
1.37098
1.37142
1.37117
1.37153
1.371
1.3714
1.37175
1.37193
1.37189
1.37182
1.37191
1.37166
1.37173
1.37126
1.37087
1.37051
1.36991
1.36989
1.3689
1.36725
1.36492
1.36173
1.35817
1.35187
1.34425
1.33245
1.31582
1.29463
1.26524
1.22737
1.17006
1.09584
1.00502
0.899179
0.766578
0.647392
0.548221
0.465289
0.40637
0.373996
0.355326
0.342829
0.335574
0.331208
0.324312
0.315372
0.303761
0.288443
0.26791
0.245834
0.223358
0.201802
0.184623
0.166292
0.156081
0.141491
1.00415
1.00307
1.00329
1.00336
1.00349
1.00363
1.00379
1.00397
1.00416
1.00437
1.00459
1.00481
1.00505
1.0053
1.00555
1.0058
1.00605
1.0063
1.00653
1.00676
1.007
1.00722
1.00744
1.00764
1.00781
1.00797
1.00811
1.00826
1.00842
1.00859
1.00876
1.00891
1.00905
1.00917
1.0093
1.0094
1.00955
1.00968
1.01003
1.01007
1.01206
1.00987
1.03763
1.08035
1.08509
1.08707
1.09962
1.12638
1.16975
1.23432
1.27249
1.29459
1.31936
1.31954
1.34229
1.34061
1.35068
1.35577
1.35556
1.35879
1.35734
1.35776
1.35899
1.35831
1.35916
1.35895
1.3589
1.35893
1.35814
1.35854
1.35827
1.35792
1.3572
1.35689
1.35558
1.35447
1.35222
1.34999
1.3469
1.34313
1.33889
1.33285
1.32481
1.31375
1.29959
1.28274
1.25977
1.23011
1.19274
1.14101
1.07943
1.00784
0.928038
0.832904
0.732035
0.639086
0.558713
0.491873
0.422725
0.367007
0.332122
0.303868
0.296503
0.293458
0.294153
0.293351
0.295753
0.296099
0.294589
0.289901
0.279158
0.262107
0.243416
0.224123
0.205425
0.190489
0.174549
0.165954
0.153974
1.00414
1.00306
1.00328
1.00336
1.00348
1.00362
1.00378
1.00396
1.00415
1.00436
1.00458
1.00481
1.00506
1.00531
1.00556
1.00582
1.00608
1.00634
1.00659
1.00683
1.00708
1.00732
1.00757
1.00779
1.008
1.00818
1.00835
1.00852
1.00869
1.00887
1.00906
1.00921
1.00932
1.00938
1.0094
1.00929
1.00916
1.0089
1.00852
1.00698
1.00717
0.997125
1.02133
1.05537
1.05923
1.06071
1.06805
1.08046
1.10926
1.16224
1.20328
1.26808
1.28069
1.30976
1.32183
1.32934
1.33324
1.33616
1.33991
1.34068
1.34167
1.34037
1.34156
1.34052
1.34097
1.34049
1.33854
1.33857
1.33614
1.33373
1.33215
1.32944
1.32506
1.3218
1.31575
1.30928
1.30042
1.28929
1.27675
1.26076
1.24194
1.21996
1.19135
1.15658
1.11242
1.06315
1.00707
0.943758
0.875758
0.797309
0.721616
0.649026
0.585106
0.531129
0.473559
0.420486
0.371518
0.331242
0.297581
0.269151
0.251765
0.245447
0.244758
0.25283
0.259041
0.265714
0.270983
0.2758
0.278193
0.278805
0.272173
0.259353
0.243972
0.226682
0.211066
0.197838
0.183977
0.176475
0.166097
1.00412
1.00305
1.00327
1.00335
1.00347
1.00361
1.00377
1.00395
1.00415
1.00435
1.00458
1.00481
1.00505
1.00531
1.00557
1.00583
1.00611
1.00638
1.00664
1.0069
1.00716
1.00744
1.00769
1.00795
1.00819
1.0084
1.00859
1.00878
1.00897
1.00917
1.00936
1.00953
1.00963
1.00965
1.00958
1.00946
1.00923
1.0084
1.00739
1.00552
1.00407
0.995101
0.999978
1.0362
1.04106
1.04707
1.05501
1.0651
1.08253
1.10527
1.15669
1.21827
1.2616
1.29706
1.30259
1.32054
1.31666
1.32026
1.3247
1.32011
1.32382
1.31912
1.31819
1.31522
1.31236
1.31005
1.30348
1.29939
1.29224
1.2829
1.27244
1.26061
1.24508
1.2286
1.20868
1.18447
1.15716
1.12327
1.08626
1.04432
0.998843
0.951709
0.898819
0.841433
0.779307
0.719298
0.661716
0.606058
0.560597
0.518711
0.474382
0.432361
0.395155
0.363113
0.330197
0.300786
0.272191
0.250785
0.231403
0.21901
0.210144
0.212085
0.215683
0.228602
0.23927
0.250143
0.257463
0.265121
0.269782
0.271834
0.267736
0.258853
0.245674
0.231965
0.218543
0.206817
0.194728
0.187739
0.179174
1.0041
1.00303
1.00326
1.00333
1.00346
1.0036
1.00376
1.00394
1.00414
1.00435
1.00457
1.00481
1.00505
1.00532
1.00559
1.00586
1.00614
1.00642
1.0067
1.00698
1.00726
1.00755
1.00783
1.00811
1.00839
1.00864
1.00886
1.00907
1.00928
1.00949
1.00968
1.00987
1.01001
1.01009
1.01008
1.01002
1.01002
1.00974
1.00948
1.00873
1.00911
1.00393
1.00798
1.04106
1.04201
1.04718
1.05143
1.05763
1.06528
1.0802
1.10725
1.14668
1.21869
1.25522
1.28806
1.29549
1.29968
1.30183
1.30325
1.29492
1.29405
1.28751
1.27947
1.27087
1.25714
1.24586
1.22827
1.20979
1.18636
1.15697
1.1224
1.08565
1.04348
1.00159
0.958039
0.912169
0.864776
0.814041
0.764285
0.715525
0.66824
0.624384
0.584684
0.551346
0.518341
0.484378
0.45276
0.420698
0.392311
0.367673
0.343716
0.318009
0.296752
0.279445
0.258942
0.241338
0.223201
0.209795
0.199153
0.192727
0.189133
0.194893
0.201337
0.216432
0.228041
0.240857
0.249882
0.259644
0.266322
0.268996
0.266871
0.260344
0.249778
0.238195
0.226708
0.215881
0.205596
0.198908
0.191916
1.00409
1.00302
1.00324
1.00332
1.00345
1.00359
1.00375
1.00393
1.00413
1.00434
1.00456
1.00481
1.00505
1.00532
1.0056
1.00588
1.00617
1.00646
1.00676
1.00706
1.00736
1.00767
1.00798
1.00828
1.00859
1.00888
1.00915
1.0094
1.00962
1.00985
1.01006
1.01025
1.01043
1.01059
1.01071
1.01081
1.01106
1.01148
1.01184
1.01278
1.01378
1.01906
1.02739
1.03853
1.03772
1.0419
1.04392
1.04864
1.05487
1.06476
1.08031
1.10632
1.15499
1.20833
1.26046
1.26625
1.28095
1.2718
1.26339
1.2465
1.23395
1.21775
1.19311
1.16802
1.13183
1.09287
1.04907
1.00224
0.954163
0.90076
0.845293
0.792532
0.742488
0.695521
0.652123
0.612286
0.579169
0.547652
0.518833
0.490357
0.463323
0.437611
0.413983
0.393198
0.375704
0.357878
0.340608
0.323982
0.308071
0.29357
0.280346
0.263852
0.24941
0.237555
0.224252
0.21248
0.200356
0.190788
0.184033
0.181086
0.180763
0.188421
0.197719
0.214013
0.224786
0.237426
0.246366
0.25682
0.264013
0.26787
0.267541
0.263246
0.255551
0.246294
0.236334
0.226406
0.2175
0.210735
0.205482
1.00407
1.00301
1.00323
1.00331
1.00343
1.00357
1.00374
1.00392
1.00412
1.00432
1.00455
1.0048
1.00505
1.00532
1.00561
1.0059
1.0062
1.00651
1.00683
1.00715
1.00747
1.0078
1.00813
1.00846
1.0088
1.00914
1.00946
1.00975
1.01002
1.01026
1.01048
1.01071
1.01089
1.01107
1.0112
1.01134
1.01136
1.01145
1.0111
1.01176
1.00857
1.01943
1.03621
1.03216
1.03094
1.03163
1.03207
1.0359
1.04054
1.0475
1.05869
1.07264
1.1013
1.14328
1.1873
1.22212
1.21468
1.19883
1.17282
1.13513
1.09435
1.05585
1.00849
0.957497
0.898878
0.839844
0.782745
0.730239
0.68365
0.644113
0.607223
0.572954
0.539866
0.509089
0.480582
0.453772
0.430683
0.408986
0.390432
0.372849
0.357651
0.343037
0.32975
0.317971
0.307558
0.298301
0.288668
0.27905
0.269256
0.259514
0.251055
0.239691
0.228913
0.219549
0.209053
0.200085
0.190582
0.183282
0.178181
0.177053
0.178451
0.187579
0.198483
0.214378
0.226387
0.239535
0.248938
0.2603
0.268574
0.27369
0.274849
0.270957
0.264215
0.255484
0.246212
0.236781
0.228415
0.221977
0.218252
1.00405
1.003
1.00322
1.00329
1.00342
1.00356
1.00372
1.0039
1.0041
1.00431
1.00454
1.00479
1.00505
1.00532
1.00562
1.00592
1.00623
1.00655
1.00689
1.00724
1.00759
1.00794
1.00829
1.00865
1.00902
1.0094
1.00978
1.01013
1.01045
1.01073
1.01098
1.01122
1.01143
1.01164
1.01181
1.01202
1.01213
1.0123
1.01207
1.01324
1.00987
1.02304
1.03194
1.02768
1.02777
1.02897
1.03058
1.03424
1.0393
1.0451
1.05174
1.06173
1.07444
1.09612
1.10341
1.12313
1.08471
1.04616
0.998346
0.939431
0.877367
0.823284
0.773003
0.729189
0.69062
0.653116
0.615862
0.581189
0.548774
0.519578
0.492319
0.466362
0.442445
0.41986
0.400091
0.381016
0.364961
0.348877
0.335046
0.321486
0.310841
0.301148
0.292511
0.284656
0.277622
0.271478
0.265897
0.259581
0.253311
0.246159
0.239689
0.231053
0.222082
0.213514
0.204442
0.19702
0.188928
0.183317
0.17915
0.179251
0.181208
0.190379
0.201626
0.218607
0.231782
0.24525
0.255736
0.267855
0.276824
0.28265
0.28441
0.280959
0.274655
0.265763
0.257486
0.248041
0.240748
0.234365
0.231866
1.00403
1.00298
1.0032
1.00328
1.0034
1.00354
1.0037
1.00388
1.00408
1.0043
1.00453
1.00478
1.00505
1.00532
1.00563
1.00594
1.00627
1.0066
1.00696
1.00733
1.00771
1.00808
1.00847
1.00886
1.00926
1.00967
1.0101
1.01051
1.0109
1.01124
1.01154
1.01181
1.01207
1.0123
1.01246
1.01258
1.01258
1.01256
1.01205
1.01258
1.00871
1.01095
1.02323
1.02425
1.02565
1.02637
1.02827
1.02855
1.03
1.03102
1.03083
1.02853
1.02457
1.01386
1.00057
0.959378
0.901279
0.851008
0.80272
0.763663
0.720569
0.683412
0.648567
0.618951
0.590353
0.565562
0.539432
0.514742
0.490776
0.468833
0.44823
0.427256
0.407313
0.388056
0.371213
0.355473
0.341935
0.328667
0.317645
0.305688
0.296573
0.288214
0.281354
0.274953
0.269181
0.263922
0.259614
0.254597
0.249712
0.244155
0.23879
0.232214
0.224549
0.217044
0.208907
0.202713
0.19549
0.190584
0.18642
0.186525
0.188099
0.196817
0.207758
0.225403
0.239887
0.254311
0.266386
0.279035
0.28842
0.295292
0.296341
0.291607
0.285421
0.276139
0.268513
0.258905
0.252914
0.24618
0.24441
1.00401
1.00297
1.00318
1.00326
1.00338
1.00352
1.00368
1.00386
1.00407
1.00428
1.00451
1.00476
1.00504
1.00532
1.00563
1.00596
1.00629
1.00665
1.00703
1.00742
1.00783
1.00823
1.00865
1.00908
1.00952
1.00996
1.01042
1.01089
1.01135
1.01179
1.0122
1.01255
1.01288
1.01318
1.0135
1.01378
1.01401
1.01434
1.01446
1.01552
1.01142
1.00956
1.02671
1.02728
1.03025
1.03142
1.03315
1.03363
1.03416
1.03443
1.03336
1.02065
0.986708
0.940075
0.865705
0.799664
0.761842
0.723756
0.693191
0.664652
0.637352
0.612658
0.588579
0.568619
0.548924
0.532445
0.515659
0.498434
0.480735
0.462997
0.446773
0.43015
0.413285
0.395782
0.379413
0.364171
0.350671
0.337551
0.326348
0.314036
0.303962
0.29464
0.28699
0.280522
0.274689
0.269401
0.265068
0.260438
0.255864
0.251111
0.246193
0.240899
0.234406
0.227663
0.220124
0.214452
0.207857
0.203072
0.198808
0.198342
0.199296
0.207021
0.217801
0.235376
0.250144
0.264835
0.277839
0.290701
0.30029
0.305623
0.307364
0.303096
0.296542
0.287144
0.280374
0.271051
0.266137
0.258853
0.25779
1.00399
1.00295
1.00316
1.00324
1.00336
1.0035
1.00366
1.00384
1.00404
1.00426
1.0045
1.00475
1.00503
1.00532
1.00563
1.00596
1.00632
1.0067
1.0071
1.00751
1.00793
1.00838
1.00884
1.00931
1.00979
1.01027
1.01077
1.01128
1.01181
1.01233
1.01283
1.01329
1.01375
1.01421
1.01476
1.0153
1.01592
1.01645
1.017
1.01832
1.01525
1.01272
1.04379
1.03947
1.04224
1.04238
1.04301
1.04183
1.03978
1.03415
1.02342
0.999531
0.921137
0.830353
0.756289
0.71493
0.68328
0.659915
0.637288
0.619189
0.599936
0.584139
0.568329
0.555129
0.542277
0.530774
0.520589
0.510122
0.500018
0.487781
0.474674
0.460589
0.445479
0.42869
0.41197
0.395563
0.380276
0.365523
0.352212
0.338281
0.326016
0.314718
0.304839
0.296564
0.289333
0.28325
0.27808
0.27314
0.268408
0.263647
0.258802
0.253968
0.248136
0.24202
0.234914
0.229275
0.223095
0.218218
0.213765
0.212652
0.213206
0.220382
0.23101
0.248132
0.263026
0.277935
0.291339
0.304078
0.313355
0.318585
0.319377
0.314384
0.308374
0.29878
0.29236
0.282848
0.278626
0.271151
0.270552
1.00396
1.00293
1.00314
1.00322
1.00334
1.00348
1.00364
1.00382
1.00402
1.00424
1.00448
1.00473
1.00502
1.00532
1.00564
1.00597
1.00635
1.00675
1.00716
1.00759
1.00804
1.00853
1.00904
1.00956
1.01008
1.01061
1.01115
1.01172
1.01231
1.01291
1.0135
1.0141
1.01472
1.01537
1.01614
1.01695
1.01816
1.01928
1.02189
1.02311
1.04034
1.04544
1.04673
1.04506
1.04736
1.04708
1.04854
1.04746
1.04238
1.02928
0.987271
0.932981
0.83048
0.754077
0.704363
0.672769
0.648744
0.630867
0.614858
0.60165
0.58911
0.577762
0.567636
0.558601
0.550776
0.543268
0.536986
0.530602
0.524814
0.51783
0.510063
0.500123
0.488228
0.473845
0.457507
0.439741
0.421899
0.404469
0.388253
0.372508
0.357481
0.343682
0.331205
0.320503
0.310971
0.30332
0.296631
0.290654
0.285472
0.279956
0.274917
0.269779
0.263975
0.258281
0.25149
0.245801
0.240119
0.235366
0.231243
0.229792
0.230198
0.236245
0.246288
0.261441
0.27622
0.290473
0.303631
0.315113
0.323829
0.32738
0.329421
0.325538
0.320077
0.310854
0.304904
0.295603
0.292194
0.284661
0.284248
1.00394
1.00291
1.00312
1.00319
1.00331
1.00345
1.00361
1.00379
1.00399
1.00421
1.00445
1.00471
1.005
1.00531
1.00564
1.00599
1.00637
1.00679
1.00722
1.00767
1.00815
1.00867
1.00923
1.0098
1.01038
1.01096
1.01156
1.01219
1.01284
1.01349
1.01418
1.01486
1.01552
1.01601
1.01641
1.01661
1.01675
1.01586
1.0164
1.0087
1.02238
1.05458
1.0497
1.04902
1.04955
1.04973
1.04887
1.04691
1.03375
1.01089
0.930132
0.83359
0.759131
0.711044
0.680117
0.658875
0.642685
0.629865
0.618441
0.608516
0.599454
0.590728
0.582844
0.575124
0.568622
0.562422
0.557093
0.551864
0.547062
0.541752
0.536493
0.530461
0.522347
0.511638
0.498568
0.483165
0.466429
0.448603
0.431016
0.413778
0.396286
0.379938
0.36473
0.351289
0.339112
0.329061
0.320337
0.312448
0.306374
0.299651
0.293864
0.288249
0.281686
0.276314
0.269701
0.263799
0.258403
0.253395
0.249589
0.247692
0.248166
0.253249
0.263334
0.27712
0.291501
0.303402
0.316707
0.328109
0.336103
0.339344
0.340589
0.336749
0.332438
0.323743
0.317956
0.308427
0.305443
0.297402
0.297308
1.00391
1.00289
1.0031
1.00317
1.00328
1.00342
1.00358
1.00376
1.00396
1.00418
1.00442
1.00468
1.00497
1.00529
1.00563
1.00599
1.00639
1.00682
1.00728
1.00775
1.00826
1.00882
1.00942
1.01003
1.01068
1.01133
1.01199
1.01268
1.01338
1.01412
1.0149
1.01571
1.01648
1.0172
1.01784
1.01838
1.0189
1.019
1.01994
1.01354
1.02139
1.045
1.04483
1.0482
1.04864
1.05064
1.04441
1.03564
0.994866
0.933543
0.836168
0.765892
0.719067
0.689785
0.668814
0.654471
0.642601
0.633358
0.624627
0.616741
0.609552
0.60234
0.595691
0.588938
0.582781
0.576856
0.571513
0.566296
0.56173
0.557117
0.552975
0.549093
0.544682
0.538178
0.529232
0.51792
0.504247
0.488463
0.471555
0.453572
0.435557
0.41799
0.400635
0.384586
0.370191
0.357584
0.346413
0.336589
0.328775
0.320553
0.313746
0.307698
0.300208
0.294606
0.288239
0.281958
0.276862
0.271689
0.268241
0.265982
0.266628
0.270413
0.279901
0.291888
0.305799
0.318047
0.327693
0.337305
0.344699
0.348424
0.350468
0.348003
0.344163
0.336544
0.331146
0.321874
0.319421
0.311056
0.311361
1.00388
1.00287
1.00307
1.00314
1.00325
1.00339
1.00355
1.00372
1.00392
1.00414
1.00439
1.00465
1.00495
1.00527
1.00561
1.00599
1.0064
1.00684
1.00732
1.00781
1.00836
1.00895
1.00958
1.01024
1.01096
1.01169
1.01243
1.01318
1.01395
1.01477
1.01564
1.01658
1.0175
1.01847
1.01937
1.02031
1.02117
1.02245
1.02441
1.02566
1.02552
1.05085
1.04785
1.05111
1.0493
1.04867
1.03611
1.00185
0.930333
0.834062
0.767774
0.725654
0.698202
0.679699
0.665744
0.655368
0.646334
0.638976
0.632247
0.625918
0.620147
0.614349
0.608684
0.602893
0.597095
0.591349
0.585967
0.580532
0.57564
0.570955
0.566642
0.562974
0.55971
0.556016
0.550719
0.543062
0.532881
0.520379
0.505381
0.488447
0.470652
0.452445
0.434666
0.417765
0.401977
0.38755
0.374438
0.36279
0.353077
0.343651
0.33564
0.329094
0.320988
0.314515
0.30801
0.301169
0.295885
0.290414
0.287019
0.284429
0.285174
0.28817
0.297658
0.30778
0.320873
0.331246
0.341289
0.34983
0.356513
0.359802
0.361187
0.359131
0.356175
0.349596
0.344708
0.335585
0.333156
0.324266
0.324751
1.00385
1.00285
1.00305
1.00311
1.00322
1.00335
1.00351
1.00368
1.00388
1.00411
1.00435
1.00462
1.00491
1.00524
1.00559
1.00597
1.00639
1.00685
1.00734
1.00787
1.00845
1.00907
1.00971
1.01044
1.01122
1.01204
1.01287
1.01369
1.01453
1.01544
1.01641
1.0175
1.01857
1.01976
1.02083
1.022
1.02282
1.02503
1.02331
1.04399
1.04406
1.04279
1.04268
1.04647
1.04364
1.03167
0.999224
0.921354
0.828094
0.767053
0.72687
0.701987
0.684637
0.672603
0.6631
0.655902
0.649146
0.643044
0.63702
0.63126
0.625812
0.620652
0.615894
0.611079
0.606425
0.601658
0.597171
0.592445
0.587956
0.583582
0.579378
0.575671
0.572412
0.569514
0.566335
0.561699
0.554627
0.545353
0.533619
0.519472
0.503112
0.485513
0.467601
0.448915
0.431714
0.41554
0.40094
0.387903
0.376565
0.366505
0.357547
0.350081
0.34155
0.334162
0.327329
0.320149
0.314577
0.309156
0.305659
0.302965
0.30347
0.305712
0.313804
0.323175
0.334992
0.343663
0.35278
0.359631
0.365864
0.369741
0.371746
0.370507
0.368029
0.3622
0.358101
0.34949
0.347298
0.338049
0.338938
1.00382
1.00282
1.00302
1.00308
1.00319
1.00331
1.00347
1.00364
1.00384
1.00406
1.0043
1.00457
1.00487
1.0052
1.00555
1.00595
1.00638
1.00685
1.00735
1.00791
1.00852
1.00915
1.00982
1.01059
1.01142
1.01231
1.01322
1.01415
1.01512
1.01611
1.01717
1.01827
1.01929
1.02015
1.02069
1.02099
1.02009
1.02006
1.01197
1.01373
1.03871
1.04086
1.04046
1.03602
1.02705
0.984481
0.916668
0.824913
0.767316
0.731178
0.707828
0.692448
0.681573
0.673936
0.667168
0.661019
0.655055
0.649167
0.643401
0.637716
0.632357
0.626913
0.622095
0.617249
0.612833
0.608368
0.604447
0.600588
0.596901
0.593351
0.589954
0.586702
0.583809
0.581134
0.578567
0.575761
0.571427
0.565021
0.556256
0.544979
0.531184
0.515376
0.497218
0.478364
0.460057
0.442911
0.428043
0.414173
0.40174
0.39057
0.38083
0.372224
0.363224