/*--------------------------------*- C++ -*----------------------------------*\
| =========                 |                                                 |
| \\      /  F ield         | OpenFOAM: The Open Source CFD Toolbox           |
|  \\    /   O peration     | Version:  2.2.x                                 |
|   \\  /    A nd           | Web:      www.OpenFOAM.org                      |
|    \\/     M anipulation  |                                                 |
\*---------------------------------------------------------------------------*/
FoamFile
{
    version     2.0;
    format      ascii;
    class       volScalarField;
    location    "2.9";
    object      Bz;
}
// * * * * * * * * * * * * * * * * * * * * * * * * * * * * * * * * * * * * * //

dimensions      [1 0 -2 0 0 -1 0];

internalField   nonuniform List<scalar> 
14161
(
6.42708e-21
6.10455e-21
6.94822e-21
5.3173e-21
5.42631e-21
4.00344e-21
5.5715e-21
3.66857e-21
5.7617e-21
4.09258e-21
5.32545e-21
4.3533e-21
4.98193e-21
4.48947e-21
4.29395e-21
3.52723e-21
4.84455e-21
4.09496e-21
4.73063e-21
4.32078e-21
4.13634e-21
4.79719e-21
4.26112e-21
4.41337e-21
4.21508e-21
4.43209e-21
4.38779e-21
4.45179e-21
4.42931e-21
4.38929e-21
4.78246e-21
4.6689e-21
4.93601e-21
4.82074e-21
5.15318e-21
4.95162e-21
5.50155e-21
4.86525e-21
6.10178e-21
3.20974e-21
9.56005e-21
-1.25694e-20
1.65616e-19
-6.11043e-18
-8.25509e-18
-7.54065e-18
-2.27496e-18
-3.43243e-19
-3.41147e-19
-2.83268e-19
-3.00665e-19
-2.77323e-19
-2.67881e-19
-2.47998e-19
-2.45707e-19
-2.27176e-19
-2.46195e-19
-2.31999e-19
-2.66894e-19
-2.58861e-19
-2.97143e-19
-2.8255e-19
-3.33642e-19
-3.23658e-19
-3.49808e-19
-3.14272e-19
-3.11723e-19
-2.81628e-19
-2.28572e-19
-2.11561e-19
-9.79748e-20
-3.51036e-20
4.09137e-20
1.0223e-19
1.9804e-19
2.49758e-19
3.02138e-19
4.24347e-19
4.71044e-19
5.7492e-19
6.13088e-19
6.68823e-19
7.29983e-19
7.93082e-19
7.81395e-19
9.19949e-19
9.79744e-19
1.08001e-18
1.23278e-18
1.25625e-18
1.3168e-18
1.36707e-18
1.3069e-18
1.38565e-18
1.14292e-18
1.11106e-18
9.24299e-19
3.86754e-19
5.71783e-19
6.39901e-19
6.70015e-19
2.62066e-19
6.13871e-19
7.05218e-19
9.76087e-19
2.16813e-18
3.10756e-18
7.61347e-18
2.76571e-17
7.26976e-17
1.41828e-16
8.53969e-17
8.81904e-17
6.54536e-17
6.25765e-17
5.8435e-17
6.18575e-17
9.19069e-17
1.22083e-16
5.83539e-21
6.15586e-21
6.8229e-21
4.93011e-21
5.04819e-21
4.04109e-21
4.98639e-21
3.73843e-21
5.68483e-21
4.07666e-21
5.42654e-21
4.18912e-21
4.70529e-21
3.37304e-21
3.93307e-21
3.85928e-21
5.14749e-21
3.81545e-21
4.82185e-21
3.27783e-21
4.56755e-21
4.0243e-21
3.84686e-21
3.64765e-21
4.43432e-21
4.41403e-21
3.83396e-21
4.31204e-21
3.51341e-21
4.99487e-21
4.1956e-21
4.90103e-21
5.22302e-21
5.17482e-21
5.2342e-21
5.38776e-21
5.53336e-21
5.29729e-21
6.0821e-21
5.40389e-21
6.65004e-21
1.57346e-21
4.12946e-19
-6.15996e-18
-9.89019e-18
-9.3602e-18
-4.62852e-18
-2.01832e-18
-5.50505e-19
-4.59405e-19
-3.98914e-19
-3.39518e-19
-3.10183e-19
-2.58489e-19
-2.40017e-19
-2.09046e-19
-2.25059e-19
-2.11736e-19
-2.47121e-19
-2.41612e-19
-2.76785e-19
-2.42549e-19
-2.8757e-19
-2.83171e-19
-3.16493e-19
-2.79522e-19
-2.86019e-19
-2.62979e-19
-2.28067e-19
-2.17466e-19
-1.33088e-19
-6.28624e-20
3.55289e-20
7.85606e-20
1.58144e-19
2.43642e-19
2.78492e-19
4.00085e-19
4.64849e-19
5.51702e-19
6.11526e-19
6.70353e-19
7.5389e-19
8.47153e-19
8.25111e-19
9.60452e-19
9.61075e-19
1.02635e-18
1.27969e-18
1.28822e-18
1.35763e-18
1.50621e-18
1.45062e-18
1.67355e-18
1.54831e-18
1.47315e-18
1.52126e-18
1.05781e-18
9.48365e-19
1.02841e-18
1.02444e-18
9.54094e-19
7.13651e-19
8.0026e-19
1.07331e-18
2.01293e-18
3.9182e-18
7.29226e-18
2.68051e-17
6.82843e-17
1.1165e-16
7.4082e-17
5.95445e-17
5.34297e-17
5.3418e-17
6.37718e-17
7.24752e-17
1.06428e-16
1.2485e-16
5.35589e-21
4.74519e-21
5.81173e-21
4.31049e-21
3.28638e-21
3.75539e-21
3.14889e-21
3.86138e-21
5.10005e-21
4.01507e-21
5.93283e-21
3.04828e-21
3.62398e-21
3.56748e-21
5.54776e-21
4.3813e-21
5.09352e-21
4.48972e-21
5.08328e-21
4.58e-21
4.5367e-21
2.2878e-21
4.1927e-21
4.79357e-21
2.59233e-21
3.03919e-21
3.2608e-21
3.98313e-21
4.86307e-21
6.07545e-21
5.54439e-21
6.29892e-21
5.68513e-21
6.43707e-21
6.27691e-21
5.96837e-21
7.1574e-21
6.03443e-21
7.40638e-21
7.78807e-21
9.34715e-21
1.85865e-21
3.6255e-19
-4.7789e-18
-1.40957e-17
-1.18756e-17
-6.5386e-18
-3.18293e-18
-9.66503e-19
-6.02751e-19
-4.60875e-19
-2.75514e-19
-1.80245e-19
-1.24905e-19
-1.25377e-19
-1.15866e-19
-1.17155e-19
-1.34887e-19
-1.58184e-19
-1.77906e-19
-2.39714e-19
-1.88057e-19
-2.54908e-19
-2.59075e-19
-2.8345e-19
-2.71677e-19
-2.65412e-19
-2.56846e-19
-2.19914e-19
-2.15878e-19
-1.60528e-19
-9.00937e-20
2.55232e-20
6.29666e-20
1.34751e-19
2.31086e-19
2.59406e-19
3.87341e-19
4.55356e-19
5.42362e-19
6.11473e-19
6.77395e-19
7.67474e-19
8.88284e-19
8.84898e-19
9.80807e-19
1.04899e-18
1.04431e-18
1.29348e-18
1.34279e-18
1.39999e-18
1.57716e-18
1.52519e-18
1.74331e-18
1.62184e-18
1.60843e-18
1.58501e-18
1.23289e-18
1.05847e-18
1.15178e-18
1.18579e-18
1.14087e-18
9.37926e-19
1.00584e-18
1.16073e-18
2.25406e-18
4.77222e-18
9.80848e-18
2.69177e-17
5.14758e-17
5.78846e-17
4.89483e-17
4.01121e-17
4.43741e-17
4.78343e-17
7.07518e-17
8.01049e-17
1.10679e-16
1.23368e-16
2.54488e-21
3.26032e-21
5.17915e-21
3.31764e-21
1.72991e-21
3.55752e-21
1.44699e-21
4.7216e-21
7.33293e-22
7.63978e-21
1.09262e-22
2.92993e-21
1.4944e-21
2.61505e-21
5.27679e-21
4.78586e-21
4.33957e-21
6.29086e-21
2.77775e-22
7.66428e-21
4.41886e-21
7.40083e-21
4.59429e-21
5.97597e-21
6.49947e-21
4.84815e-21
6.6805e-21
9.32627e-21
8.78491e-21
6.14169e-21
6.47075e-21
6.57869e-21
7.67964e-21
7.36327e-21
8.46105e-21
7.5553e-21
9.15823e-21
6.49117e-21
9.44505e-21
8.9955e-21
1.21571e-20
-1.80048e-20
2.03989e-19
-1.72317e-18
-1.97284e-17
-1.51877e-17
-8.64456e-18
-4.56103e-18
-2.98452e-18
-1.7209e-18
-9.68719e-19
-4.51535e-19
-2.70605e-19
-1.91849e-19
-1.76992e-19
-1.39694e-19
-1.41831e-19
-1.60365e-19
-1.96408e-19
-2.32246e-19
-2.69287e-19
-2.41635e-19
-3.03254e-19
-2.84687e-19
-3.23029e-19
-3.1312e-19
-3.16846e-19
-2.94165e-19
-2.81439e-19
-2.45185e-19
-2.10833e-19
-1.43266e-19
-9.42797e-21
1.27047e-20
7.90904e-20
1.66936e-19
2.12317e-19
3.48954e-19
4.07586e-19
4.75289e-19
5.487e-19
6.20069e-19
7.2028e-19
8.22463e-19
8.63693e-19
9.60109e-19
9.95252e-19
1.02632e-18
1.27036e-18
1.29257e-18
1.36603e-18
1.5396e-18
1.49967e-18
1.70231e-18
1.61195e-18
1.61739e-18
1.5767e-18
1.25237e-18
1.12583e-18
1.25324e-18
1.29404e-18
1.27594e-18
1.07378e-18
1.30881e-18
1.42726e-18
2.97206e-18
5.83127e-18
1.29658e-17
2.08307e-17
2.71997e-17
2.70708e-17
2.77244e-17
2.56832e-17
3.67789e-17
4.31069e-17
7.47534e-17
8.66139e-17
1.1574e-16
1.25886e-16
6.13189e-22
2.13919e-21
-4.56969e-22
1.03658e-21
1.1147e-21
4.87152e-21
-1.40904e-22
5.99683e-21
-2.73085e-21
1.14579e-20
-1.20024e-20
1.04606e-20
-2.76696e-21
4.36771e-21
-1.23402e-21
1.5377e-21
9.83799e-21
3.43417e-21
1.20521e-20
-2.96591e-22
3.52957e-22
4.24161e-21
4.40096e-21
1.60831e-21
7.68979e-21
9.96817e-21
9.61226e-21
8.28928e-21
8.91701e-21
1.16647e-20
1.23853e-20
9.67508e-21
1.16897e-20
9.96959e-21
1.05665e-20
1.01694e-20
1.4062e-20
8.23567e-21
1.49447e-20
1.07985e-20
1.42792e-20
-6.60542e-21
3.43593e-19
-5.29686e-18
-1.76519e-17
-1.37733e-17
-7.76247e-18
-4.51576e-18
-2.44944e-18
-1.3669e-18
-9.98615e-19
-4.95476e-19
-4.73998e-19
-4.0841e-19
-3.61487e-19
-3.39085e-19
-3.14867e-19
-3.2998e-19
-3.67945e-19
-4.26825e-19
-4.44933e-19
-4.28697e-19
-4.74552e-19
-4.8363e-19
-4.75785e-19
-4.78971e-19
-4.44383e-19
-4.27946e-19
-3.79146e-19
-3.4802e-19
-2.92126e-19
-2.55243e-19
-7.51604e-20
-4.55766e-20
-2.9634e-20
5.69687e-20
1.0862e-19
2.83698e-19
2.50743e-19
3.60096e-19
4.00774e-19
5.07912e-19
6.23996e-19
6.66633e-19
7.70724e-19
8.404e-19
9.10219e-19
9.30748e-19
1.1173e-18
1.19019e-18
1.19923e-18
1.45619e-18
1.44732e-18
1.63705e-18
1.58324e-18
1.65659e-18
1.54371e-18
1.24123e-18
1.22984e-18
1.4909e-18
1.53363e-18
1.49988e-18
1.42106e-18
1.80969e-18
1.98687e-18
3.77292e-18
7.27341e-18
1.02245e-17
1.0383e-17
1.32725e-17
1.27874e-17
1.64887e-17
1.73406e-17
2.98273e-17
3.86092e-17
6.90729e-17
8.52095e-17
1.11338e-16
1.22684e-16
7.9775e-22
7.27929e-22
-6.57962e-22
-2.12459e-21
-2.53975e-21
-3.10394e-21
-1.54299e-21
8.03275e-21
-5.49482e-21
-5.06133e-21
7.71687e-21
4.9402e-21
-1.31532e-20
1.09723e-20
-4.79969e-21
1.66445e-20
-1.63539e-20
9.56366e-21
4.86575e-21
4.0269e-22
6.8112e-21
4.47763e-21
1.32497e-20
1.26536e-20
1.7408e-20
1.90248e-20
1.80803e-20
1.58251e-20
1.48879e-20
1.24546e-20
1.48299e-20
1.2079e-20
1.40711e-20
1.20075e-20
1.41748e-20
1.21046e-20
1.70379e-20
1.20418e-20
2.054e-20
6.75342e-21
3.21162e-20
-5.60208e-20
3.25302e-19
-8.01107e-18
-1.62186e-17
-1.43456e-17
-5.56786e-18
-3.61011e-18
-2.03022e-18
-1.23657e-18
-1.06962e-18
-6.83064e-19
-7.29587e-19
-6.77026e-19
-6.39579e-19
-6.68777e-19
-6.65711e-19
-6.64773e-19
-6.20221e-19
-6.15445e-19
-6.46724e-19
-6.30313e-19
-5.89335e-19
-6.36678e-19
-6.18661e-19
-6.18518e-19
-5.67328e-19
-5.4475e-19
-4.8577e-19
-5.00175e-19
-3.96845e-19
-4.04091e-19
-2.36395e-19
-1.38583e-19
-1.50968e-19
-6.75037e-20
-2.02609e-20
6.52653e-20
1.07037e-19
2.52031e-19
2.68942e-19
3.70163e-19
4.31828e-19
5.93718e-19
6.23714e-19
6.96411e-19
7.32605e-19
8.01515e-19
9.13136e-19
1.0892e-18
9.89583e-19
1.26667e-18
1.38868e-18
1.60176e-18
1.60007e-18
1.73098e-18
1.65796e-18
1.41631e-18
1.54425e-18
1.92972e-18
1.97023e-18
1.84824e-18
1.90371e-18
2.33974e-18
2.74801e-18
4.5749e-18
5.13184e-18
5.33792e-18
3.40652e-18
6.0916e-18
5.63487e-18
1.06008e-17
1.22297e-17
2.12948e-17
2.92419e-17
5.21141e-17
7.11171e-17
9.93375e-17
1.1098e-16
-1.20367e-21
-4.37317e-21
-3.62936e-21
-4.94108e-21
5.29819e-22
3.62636e-22
-3.26516e-23
7.18097e-21
6.38313e-21
-2.64687e-21
4.36242e-21
1.4575e-21
2.14206e-20
9.46014e-21
-3.29628e-21
9.96451e-21
8.00597e-21
1.56185e-20
2.05549e-21
2.09012e-20
1.9371e-20
2.07913e-20
1.40008e-20
2.17072e-20
1.34162e-20
1.24158e-20
1.30473e-20
1.56217e-20
1.50862e-20
1.21566e-20
1.55864e-20
1.6234e-20
1.82341e-20
1.85444e-20
1.92788e-20
1.80817e-20
2.23147e-20
1.73282e-20
2.87926e-20
3.47136e-21
4.60685e-20
-1.37039e-19
3.2472e-19
-1.10049e-17
-1.8783e-17
-1.42248e-17
-4.48992e-18
-3.6567e-18
-2.79921e-18
-1.92931e-18
-1.69227e-18
-1.03619e-18
-1.11462e-18
-8.58969e-19
-8.52014e-19
-8.41119e-19
-8.18643e-19
-8.71452e-19
-8.00531e-19
-7.89135e-19
-7.88769e-19
-7.16416e-19
-7.74396e-19
-7.96716e-19
-7.67494e-19
-8.61814e-19
-8.16748e-19
-7.99849e-19
-7.0246e-19
-7.07022e-19
-6.29378e-19
-5.87552e-19
-5.42127e-19
-3.63308e-19
-3.49586e-19
-3.23447e-19
-2.80353e-19
-2.472e-19
-1.52968e-19
-1.34492e-19
-1.12069e-19
5.62175e-20
1.10178e-19
2.84224e-19
4.17414e-19
4.86479e-19
5.10843e-19
6.64973e-19
7.88195e-19
1.0906e-18
8.64132e-19
1.21169e-18
1.27298e-18
1.61655e-18
1.61823e-18
1.85533e-18
1.87323e-18
1.53841e-18
1.71205e-18
2.24148e-18
2.24175e-18
2.26056e-18
2.34639e-18
2.96788e-18
3.30652e-18
3.46294e-18
1.8946e-18
2.64318e-18
8.56394e-19
2.98451e-18
2.09126e-18
7.14988e-18
8.01328e-18
1.36039e-17
2.02621e-17
3.68293e-17
5.56082e-17
8.44975e-17
9.63182e-17
-1.2908e-20
-9.61488e-21
-7.2322e-21
-7.06387e-21
-1.31787e-21
9.44164e-23
4.14141e-21
-1.35172e-21
7.68125e-21
9.46553e-21
1.78196e-20
9.62517e-21
1.78688e-20
3.94504e-20
4.84849e-20
2.80065e-20
4.48756e-20
2.91099e-20
1.61792e-20
3.85632e-20
3.29264e-20
1.85954e-20
2.63288e-20
1.86514e-20
3.65984e-20
2.97144e-20
2.61074e-20
2.71254e-20
2.63825e-20
3.07159e-20
2.49262e-20
2.6747e-20
2.37806e-20
2.69475e-20
2.61915e-20
2.28934e-20
2.46701e-20
1.9241e-20
2.69154e-20
1.13882e-20
2.81959e-20
-9.05419e-21
1.29445e-19
-1.37523e-17
-2.55528e-17
-2.18015e-17
-9.064e-18
-7.8501e-18
-6.65083e-18
-5.35164e-18
-5.02065e-18
-3.45908e-18
-3.30805e-18
-2.70497e-18
-2.28922e-18
-1.87902e-18
-1.76224e-18
-1.62627e-18
-1.53912e-18
-1.39029e-18
-1.41346e-18
-1.3784e-18
-1.19939e-18
-1.09282e-18
-1.07018e-18
-1.11011e-18
-1.08484e-18
-1.06028e-18
-8.76354e-19
-9.20337e-19
-8.04966e-19
-7.56856e-19
-8.59466e-19
-5.47954e-19
-5.94685e-19
-5.42037e-19
-5.39547e-19
-5.38922e-19
-3.99499e-19
-4.24875e-19
-5.7673e-19
-2.9272e-19
-3.30744e-19
-1.59722e-19
-1.5518e-19
-1.99661e-19
-9.94516e-20
-2.05779e-19
2.11995e-19
1.09855e-19
-5.79416e-20
6.01941e-19
2.74556e-19
8.36741e-19
7.94537e-19
1.14989e-18
1.44117e-18
1.60708e-18
1.79162e-18
2.3815e-18
2.49904e-18
2.61457e-18
2.84078e-18
3.46398e-18
2.72569e-18
1.80334e-18
-9.98443e-20
1.11897e-18
4.77874e-21
1.60638e-18
7.08637e-19
4.37822e-18
4.57571e-18
7.94675e-18
1.27215e-17
2.35441e-17
3.83014e-17
6.44056e-17
7.42188e-17
-1.34804e-20
-1.10498e-20
-8.63535e-21
8.97603e-21
4.16905e-21
5.11093e-22
6.16918e-21
8.63259e-22
9.72838e-21
1.20833e-20
1.76467e-20
1.50791e-20
2.27126e-20
9.00392e-21
1.1354e-20
3.14535e-20
2.29126e-21
3.10358e-20
3.80404e-20
2.43913e-20
2.03733e-20
4.12549e-20
3.52304e-20
4.42017e-20
2.23642e-20
2.11796e-20
2.35013e-20
3.0308e-20
1.75024e-20
3.1637e-20
1.97659e-20
2.48917e-20
2.11818e-20
2.42841e-20
2.01581e-20
2.09246e-20
2.26498e-20
2.25618e-20
2.56598e-20
2.1966e-20
3.33756e-20
-1.60964e-20
6.63046e-19
-1.53579e-17
-3.64741e-17
-3.21856e-17
-2.04028e-17
-2.17115e-17
-1.84257e-17
-1.46546e-17
-1.25073e-17
-8.25607e-18
-6.30781e-18
-4.52026e-18
-3.32441e-18
-2.34575e-18
-1.9198e-18
-1.63557e-18
-1.46957e-18
-1.42349e-18
-1.40584e-18
-1.35376e-18
-1.2088e-18
-1.17587e-18
-1.05775e-18
-1.0648e-18
-1.02731e-18
-9.53806e-19
-9.09096e-19
-9.60692e-19
-8.68996e-19
-8.03118e-19
-8.36721e-19
-6.43107e-19
-7.02562e-19
-6.25489e-19
-6.24674e-19
-6.26943e-19
-5.57285e-19
-5.39836e-19
-6.46019e-19
-4.98476e-19
-4.82703e-19
-3.50494e-19
-3.8707e-19
-3.30737e-19
-2.36095e-19
-1.83826e-19
6.65239e-20
1.67548e-19
-7.36606e-20
3.45078e-19
1.95373e-19
8.16898e-19
6.14395e-19
1.03056e-18
1.39803e-18
1.63491e-18
1.78105e-18
2.4982e-18
2.67595e-18
3.00129e-18
3.23467e-18
3.23352e-18
1.48172e-18
1.25997e-18
-3.81256e-19
6.51181e-19
-2.72261e-19
1.37458e-18
5.54363e-19
4.10049e-18
4.30034e-18
7.81381e-18
1.12628e-17
1.88681e-17
3.08694e-17
5.27458e-17
6.05222e-17
1.19811e-20
1.67746e-20
1.93002e-20
-8.91573e-23
3.30335e-20
2.739e-20
1.29174e-20
3.66779e-21
9.60895e-21
2.25503e-20
1.12002e-20
2.19418e-20
2.54666e-20
-1.14236e-20
2.94868e-20
1.19269e-20
3.01177e-20
1.85131e-20
2.40067e-20
1.36739e-20
3.07786e-20
9.0602e-21
-1.44365e-21
9.45254e-21
3.41542e-21
2.67573e-20
2.37366e-20
2.04286e-20
4.34723e-20
1.89678e-20
2.83228e-20
2.09222e-20
2.42071e-20
2.5112e-20
2.88247e-20
3.01106e-20
2.9293e-20
2.68147e-20
2.91988e-20
2.34698e-20
3.91349e-20
-3.07929e-20
4.2591e-19
-8.76701e-18
-5.06395e-17
-5.2081e-17
-3.80963e-17
-3.89291e-17
-3.54087e-17
-2.9424e-17
-2.22548e-17
-1.52094e-17
-1.05044e-17
-7.17653e-18
-4.60948e-18
-3.00277e-18
-2.30114e-18
-1.83185e-18
-1.5725e-18
-1.57417e-18
-1.48528e-18
-1.43015e-18
-1.29221e-18
-1.18329e-18
-1.09809e-18
-1.13952e-18
-9.84062e-19
-1.0085e-18
-9.614e-19
-9.70438e-19
-9.02143e-19
-9.17996e-19
-8.76683e-19
-7.96258e-19
-6.93298e-19
-7.43141e-19
-7.15512e-19
-6.13349e-19
-6.57945e-19
-6.14023e-19
-6.70418e-19
-5.76004e-19
-6.22152e-19
-4.9e-19
-2.93311e-19
-4.51776e-19
-2.10286e-19
-1.84291e-19
-4.5522e-20
1.26637e-19
3.2641e-20
2.59631e-19
2.23891e-19
7.10977e-19
6.05762e-19
9.37966e-19
1.37341e-18
1.66015e-18
1.85984e-18
2.5601e-18
2.87355e-18
3.54946e-18
3.06497e-18
2.21824e-18
4.60122e-19
7.03899e-19
-3.63504e-19
4.61617e-19
-1.21808e-19
1.15513e-18
4.74769e-19
3.28663e-18
3.56197e-18
6.62309e-18
9.05525e-18
1.42163e-17
2.28743e-17
3.93881e-17
4.50706e-17
3.28049e-20
2.90938e-20
1.89152e-20
4.82764e-20
1.92557e-20
1.85826e-20
3.19714e-20
3.68203e-20
2.19638e-20
1.59033e-20
1.49846e-20
1.37941e-20
2.05014e-20
1.76873e-20
-1.00257e-20
-4.37393e-21
-7.07082e-21
-7.08856e-21
-2.34352e-20
-2.00312e-21
-1.20989e-20
-9.62543e-21
2.5039e-20
1.58185e-20
2.60033e-20
9.55739e-21
8.69452e-21
3.63394e-20
5.42673e-21
3.18793e-20
2.23126e-20
2.7484e-20
2.51488e-20
2.9007e-20
2.55538e-20
2.25728e-20
2.07319e-20
1.70519e-20
1.33841e-20
1.4163e-20
1.04915e-20
2.53079e-21
7.19571e-20
-1.42803e-18
-3.78251e-17
-7.99149e-17
-6.50059e-17
-5.70763e-17
-4.73333e-17
-3.85148e-17
-2.67667e-17
-1.72036e-17
-1.15147e-17
-8.04699e-18
-4.33598e-18
-3.15566e-18
-2.08486e-18
-1.71409e-18
-1.61136e-18
-1.5869e-18
-1.45511e-18
-1.38196e-18
-1.31383e-18
-9.93618e-19
-1.06859e-18
-1.12178e-18
-9.66939e-19
-1.02815e-18
-9.5983e-19
-1.00909e-18
-9.57291e-19
-1.0642e-18
-9.26022e-19
-8.83619e-19
-7.13355e-19
-7.8432e-19
-7.01076e-19
-6.22145e-19
-6.52696e-19
-6.10659e-19
-5.37686e-19
-4.64607e-19
-5.16726e-19
-3.04314e-19
-1.38606e-19
-2.61262e-19
4.5456e-20
9.37893e-20
1.53469e-19
3.55562e-19
2.97508e-19
3.86076e-19
5.12134e-19
8.57126e-19
7.09976e-19
1.23899e-18
1.44876e-18
1.78086e-18
2.05972e-18
2.84779e-18
3.28595e-18
3.19704e-18
2.06352e-18
1.42925e-18
1.03681e-19
5.20329e-19
-2.40796e-19
5.15581e-19
-8.41035e-20
7.83143e-19
4.9784e-19
2.77695e-18
2.84041e-18
5.47743e-18
7.71844e-18
1.16164e-17
1.85628e-17
3.05294e-17
3.48145e-17
2.2412e-20
2.27396e-20
2.97674e-20
8.71204e-21
1.33658e-20
6.08789e-21
3.05588e-20
1.73401e-22
-3.3777e-22
2.37592e-20
1.86922e-20
1.28891e-21
2.25253e-20
-1.50307e-20
1.31847e-20
-1.41523e-20
9.47478e-21
-1.20477e-20
2.04193e-20
-4.25016e-21
-3.47292e-21
1.81366e-20
1.4657e-20
-6.38704e-22
1.80321e-20
-1.61157e-21
1.96161e-20
-2.57876e-20
1.05725e-20
-5.76898e-21
1.25716e-20
8.71408e-21
8.23829e-21
8.67577e-21
7.06071e-21
5.7204e-21
1.61202e-21
6.32232e-22
2.19988e-21
1.72224e-22
-3.16571e-21
-1.13192e-20
-7.29663e-21
1.42391e-18
-2.61702e-17
-8.42932e-17
-8.23476e-17
-7.33009e-17
-5.43979e-17
-4.17686e-17
-2.6465e-17
-1.62453e-17
-1.00517e-17
-7.27054e-18
-3.56839e-18
-2.7606e-18
-1.91762e-18
-1.67206e-18
-1.73121e-18
-1.66318e-18
-1.46908e-18
-1.33668e-18
-1.50538e-18
-9.46498e-19
-1.13604e-18
-1.18366e-18
-1.06067e-18
-1.18856e-18
-1.07855e-18
-1.11172e-18
-1.02708e-18
-1.13543e-18
-1.00367e-18
-9.8312e-19
-7.38553e-19
-8.4372e-19
-6.78824e-19
-6.83544e-19
-5.85818e-19
-6.67293e-19
-4.80356e-19
-4.12261e-19
-4.69962e-19
-2.4683e-19
-9.86081e-20
-1.34181e-19
1.69171e-19
1.43286e-19
2.44273e-19
4.82369e-19
4.99817e-19
5.52888e-19
6.88994e-19
8.71042e-19
8.31375e-19
1.34127e-18
1.69549e-18
1.97269e-18
2.46812e-18
3.04545e-18
2.85962e-18
2.49389e-18
1.42032e-18
7.58416e-19
-4.48276e-20
3.38543e-19
-2.04859e-19
4.94977e-19
1.40721e-19
5.36804e-19
6.47887e-19
2.3584e-18
2.60367e-18
4.84713e-18
6.90435e-18
1.0007e-17
1.52281e-17
2.38741e-17
2.69611e-17
1.22663e-20
1.25525e-20
2.59989e-20
5.06884e-21
2.47607e-21
1.52659e-20
7.9749e-21
1.66062e-22
8.26822e-21
7.51619e-21
4.28757e-21
1.39785e-20
-4.52752e-22
-4.67032e-21
2.80842e-20
4.32291e-21
3.82703e-21
1.04382e-21
4.08088e-20
9.56838e-21
4.44641e-20
5.71723e-21
-9.63885e-21
6.25856e-22
-2.39289e-20
1.19452e-20
-1.65769e-20
1.40424e-20
2.39174e-21
3.61295e-21
-4.49169e-21
-4.59072e-21
-1.40962e-20
-9.34292e-21
-1.00338e-20
-1.41269e-20
-1.50303e-20
-9.80494e-21
-2.80903e-21
-1.37818e-20
-2.34156e-20
-3.33937e-20
-2.18064e-20
-2.3226e-18
-2.46559e-17
-5.47091e-17
-7.52145e-17
-8.21609e-17
-6.56257e-17
-4.64056e-17
-2.97949e-17
-1.86166e-17
-1.17607e-17
-8.24362e-18
-4.47167e-18
-3.41884e-18
-2.47086e-18
-2.08101e-18
-2.07527e-18
-1.95129e-18
-1.51536e-18
-1.32168e-18
-1.62856e-18
-8.94704e-19
-1.20144e-18
-1.24125e-18
-1.08975e-18
-1.17113e-18
-1.0515e-18
-9.19831e-19
-9.3122e-19
-1.01146e-18
-9.28305e-19
-8.67236e-19
-6.18077e-19
-8.32997e-19
-7.30799e-19
-7.65897e-19
-6.35503e-19
-7.98765e-19
-6.59564e-19
-6.42455e-19
-6.08524e-19
-4.24522e-19
-3.42934e-19
-3.50572e-19
7.25582e-22
-1.32886e-19
6.49658e-20
3.19601e-19
3.92833e-19
4.93008e-19
5.3185e-19
7.12723e-19
8.33078e-19
1.26156e-18
1.68263e-18
2.00301e-18
2.28645e-18
2.54925e-18
2.13557e-18
1.904e-18
8.0771e-19
7.09282e-19
1.98044e-20
2.3233e-19
3.02174e-20
5.68883e-19
2.48705e-19
5.71161e-19
5.56287e-19
1.84337e-18
2.28421e-18
4.5012e-18
5.81801e-18
8.35055e-18
1.21347e-17
1.8545e-17
2.09433e-17
2.41393e-21
3.40541e-21
1.70453e-20
3.26425e-20
-7.1461e-21
2.61306e-20
-5.41257e-20
8.21891e-21
2.76263e-20
1.53658e-20
-3.03517e-21
1.5222e-20
-2.63775e-20
5.27618e-20
1.55417e-20
2.85922e-20
1.19924e-20
-8.88047e-21
3.60245e-20
-5.36258e-23
2.24134e-20
-3.84194e-20
-9.33123e-22
-3.65205e-20
-4.74555e-22
-2.43998e-20
-8.9013e-21
-1.93416e-20
-2.91753e-20
-3.66684e-20
-2.83151e-20
-2.64064e-20
-3.00328e-20
-3.2936e-20
-2.83056e-20
-4.52671e-20
-4.90312e-20
-6.23382e-20
-7.02431e-20
-6.83615e-20
-6.59943e-20
-6.70928e-20
-3.93388e-20
-4.27566e-18
-1.45887e-17
-2.57485e-17
-5.28569e-17
-8.88389e-17
-8.98992e-17
-6.54548e-17
-4.51295e-17
-3.11022e-17
-1.49958e-17
-9.52813e-18
-5.03522e-18
-4.00061e-18
-2.76588e-18
-2.51022e-18
-2.50319e-18
-2.05553e-18
-1.75499e-18
-1.56031e-18
-1.50365e-18
-9.99162e-19
-1.52714e-18
-1.2441e-18
-1.15765e-18
-1.1644e-18
-1.083e-18
-7.38009e-19
-8.65068e-19
-9.64272e-19
-8.83467e-19
-9.60208e-19
-6.41334e-19
-8.91945e-19
-8.30348e-19
-8.2316e-19
-6.39166e-19
-8.57919e-19
-5.87283e-19
-7.80643e-19
-6.30281e-19
-5.35132e-19
-3.91547e-19
-3.04895e-19
-1.0787e-19
-9.52018e-20
1.27435e-21
2.34065e-19
3.50007e-19
3.23686e-19
3.45125e-19
4.82097e-19
4.33634e-19
9.03761e-19
1.27016e-18
1.49571e-18
1.65631e-18
1.97324e-18
1.60321e-18
1.19007e-18
6.65125e-19
5.63276e-19
1.57096e-19
4.22456e-19
1.47565e-19
4.29047e-19
3.25395e-19
4.58183e-19
5.62908e-19
1.50991e-18
1.80371e-18
3.67757e-18
5.58048e-18
7.77564e-18
1.10397e-17
1.55623e-17
1.72216e-17
-6.56367e-21
-1.35066e-20
-5.60825e-20
-3.95277e-20
-3.27173e-20
-4.16523e-21
-1.27432e-21
5.52854e-20
-4.06225e-20
1.00403e-20
-1.28245e-20
-4.6426e-22
-1.99881e-20
9.5214e-21
-3.2181e-20
1.51831e-20
-3.24606e-21
4.61301e-20
-2.88462e-20
-3.18345e-21
-3.71133e-20
5.2039e-21
-1.12423e-20
-1.26976e-20
2.55862e-20
-1.38753e-20
1.92782e-20
-2.4479e-20
-9.03535e-21
-2.69456e-20
-1.68311e-20
-3.24514e-20
-4.11968e-20
-3.48498e-20
-5.75051e-20
-7.2576e-20
-9.24456e-20
-9.52301e-20
-9.8597e-20
-1.13498e-19
-1.08934e-19
-1.17922e-19
-2.27892e-19
-4.51889e-18
-8.97788e-18
-1.21846e-17
-3.72545e-17
-5.92773e-17
-9.4025e-17
-8.88013e-17
-6.53498e-17
-3.93048e-17
-2.38772e-17
-1.19944e-17
-6.54955e-18
-4.62498e-18
-3.20572e-18
-2.55905e-18
-2.49623e-18
-1.61754e-18
-1.39507e-18
-1.38055e-18
-1.34346e-18
-3.02402e-19
-1.13948e-18
-8.35729e-19
-8.90963e-19
-8.85116e-19
-1.0358e-18
-7.1078e-19
-8.37911e-19
-1.1685e-18
-1.22454e-18
-1.36221e-18
-9.72567e-19
-1.35177e-18
-1.13348e-18
-1.20377e-18
-9.73575e-19
-1.09837e-18
-9.14509e-19
-1.08823e-18
-7.49543e-19
-7.63561e-19
-3.91628e-19
-2.34232e-19
-9.59041e-20
-5.1142e-20
-4.37126e-20
1.12294e-19
1.93924e-19
4.39474e-20
1.9327e-19
1.12126e-19
1.46554e-19
6.39649e-19
4.24883e-19
8.06888e-19
1.16779e-18
1.26266e-18
1.23728e-18
1.02607e-18
5.56518e-19
5.83709e-19
2.42814e-19
4.13887e-19
3.13741e-19
4.62749e-19
4.44954e-19
5.10312e-19
5.24337e-19
1.3719e-18
1.65637e-18
3.36294e-18
5.23719e-18
7.54668e-18
9.84519e-18
1.30046e-17
1.37929e-17
-1.50205e-20
-3.48809e-20
-5.01e-20
-3.96128e-20
-1.42059e-20
-9.95234e-22
2.66543e-21
3.11708e-20
6.93515e-21
2.1966e-20
-7.23387e-20
-1.0491e-20
-2.8806e-21
-5.78743e-20
-2.96228e-20
-2.88188e-20
-3.64634e-20
-5.49683e-20
-1.32005e-19
-3.44944e-20
-8.00297e-20
-3.95256e-20
-9.61413e-20
-2.75292e-20
-1.21227e-19
-8.27704e-20
-1.24585e-19
-1.29074e-19
-1.29555e-19
-1.49208e-19
-1.36343e-19
-1.74848e-19
-1.38548e-19
-1.68951e-19
-1.6383e-19
-1.51738e-19
-1.47394e-19
-1.4907e-19
-1.54804e-19
-1.6182e-19
-1.59536e-19
-1.67599e-19
-1.25682e-18
-5.31436e-18
-7.37008e-18
-8.10559e-18
-2.39569e-17
-3.87184e-17
-6.54337e-17
-9.90621e-17
-8.91122e-17
-6.74832e-17
-4.08705e-17
-1.72581e-17
-8.24987e-18
-5.48721e-18
-3.59092e-18
-2.72594e-18
-2.58859e-18
-1.33222e-18
-1.7618e-18
-1.10856e-18
-9.06541e-19
-7.57346e-19
-1.32768e-18
-9.08225e-19
-1.10966e-18
-9.91761e-19
-9.86373e-19
-1.05325e-18
-1.14145e-18
-1.25273e-18
-1.45571e-18
-1.67491e-18
-1.25184e-18
-1.55265e-18
-1.26492e-18
-1.01389e-18
-9.28788e-19
-9.61377e-19
-9.39837e-19
-9.51744e-19
-5.39509e-19
-4.98604e-19
-1.18673e-19
1.27832e-19
-8.40486e-20
-7.06563e-20
-5.02232e-20
7.86689e-20
1.6376e-19
-1.87093e-19
9.33187e-20
-9.96802e-21
-2.91812e-19
3.28417e-19
-1.03224e-19
4.2541e-19
1.08601e-18
9.83491e-19
1.07502e-18
9.27165e-19
6.06296e-19
5.05684e-19
3.35744e-19
5.7201e-19
3.98221e-19
5.36715e-19
4.27931e-19
5.29249e-19
5.69261e-19
1.34902e-18
1.40162e-18
3.40553e-18
5.24065e-18
7.41212e-18
9.66206e-18
1.27288e-17
1.37199e-17
-2.30192e-20
2.76376e-20
2.67712e-20
-6.45008e-22
-5.53953e-20
-6.66851e-20
-4.62525e-20
-6.9304e-20
-3.88174e-20
-1.89764e-20
-4.05549e-20
-3.36453e-20
-6.74202e-20
-1.90247e-20
-1.23867e-19
-6.68928e-20
-1.38974e-19
-6.6945e-20
-5.22818e-20
-1.10852e-19
-1.84789e-19
-1.43727e-19
-1.67335e-19
-1.84876e-19
-1.88434e-19
-1.77097e-19
-1.73658e-19
-1.8565e-19
-1.78924e-19
-1.97387e-19
-1.85524e-19
-1.91465e-19
-2.1192e-19
-2.17148e-19
-2.18819e-19
-2.15527e-19
-2.18813e-19
-2.28242e-19
-2.33467e-19
-2.41775e-19
-2.44119e-19
-2.39064e-19
-3.50306e-18
-7.79472e-18
-7.756e-18
-7.04842e-18
-1.83214e-17
-2.58542e-17
-4.40863e-17
-7.23444e-17
-9.76422e-17
-1.02658e-16
-6.81743e-17
-4.28283e-17
-1.8875e-17
-9.4462e-18
-5.80383e-18
-4.39788e-18
-4.37031e-18
-2.93905e-18
-2.26039e-18
-1.84296e-18
-1.53352e-18
-1.41712e-18
-1.56981e-18
-1.25315e-18
-1.10716e-18
-1.00549e-18
-8.16866e-19
-1.12397e-18
-1.08812e-18
-1.33856e-18
-1.40827e-18
-1.7805e-18
-1.31818e-18
-1.50903e-18
-1.17726e-18
-8.91679e-19
-7.92142e-19
-6.36804e-19
-8.7321e-19
-7.59809e-19
-2.65524e-19
-1.35096e-19
2.30917e-19
2.86713e-19
3.87094e-20
-8.00754e-20
4.13366e-21
-9.55888e-20
-9.75793e-20
-5.3714e-19
1.88742e-20
-1.68558e-19
-1.69323e-19
1.87249e-19
-2.285e-19
4.99811e-19
8.95367e-19
6.6842e-19
1.01165e-18
7.04397e-19
5.78598e-19
6.78007e-19
4.11691e-19
6.43929e-19
5.62095e-19
6.3404e-19
4.21343e-19
4.03492e-19
5.49472e-19
1.23853e-18
1.25211e-18
2.50012e-18
4.07881e-18
6.42858e-18
9.15473e-18
1.24748e-17
1.26317e-17
-3.19089e-20
-4.54134e-20
2.31335e-20
-6.19221e-20
1.07933e-20
-3.1939e-20
-6.09626e-21
-4.26431e-20
-6.50693e-20
-9.20206e-20
-4.45688e-20
-8.89181e-20
-9.85977e-20
-7.39114e-20
-1.41816e-19
-7.20359e-20
-2.09266e-19
-5.26994e-20
-2.01958e-19
-8.08785e-20
-1.69733e-19
-1.08652e-19
-1.69003e-19
-1.36423e-19
-1.91206e-19
-1.71906e-19
-2.37508e-19
-2.1441e-19
-2.49497e-19
-2.63467e-19
-2.70417e-19
-2.72912e-19
-2.95284e-19
-2.7517e-19
-2.94974e-19
-3.08368e-19
-3.11711e-19
-3.19281e-19
-3.1864e-19
-3.26413e-19
-3.25951e-19
-3.1984e-19
-6.66217e-18
-1.12232e-17
-1.11752e-17
-1.11311e-17
-1.34861e-17
-1.66662e-17
-2.61586e-17
-4.2248e-17
-7.21914e-17
-9.6506e-17
-9.77569e-17
-6.61658e-17
-3.29734e-17
-1.70857e-17
-8.55968e-18
-5.96601e-18
-5.03996e-18
-2.70739e-18
-1.95653e-18
-1.38498e-18
-1.14377e-18
-1.2481e-18
-1.39758e-18
-1.34036e-18
-1.36382e-18
-1.31486e-18
-1.22419e-18
-1.491e-18
-1.48269e-18
-1.49417e-18
-1.47013e-18
-1.7882e-18
-1.07037e-18
-1.05999e-18
-6.1743e-19
-2.07787e-19
-3.07438e-19
-9.08835e-20
-3.70404e-19
5.56601e-21
2.20345e-19
3.21582e-19
6.16539e-19
2.06693e-19
-1.84617e-19
3.38776e-20
9.05995e-20
2.87094e-20
-2.62742e-19
-2.85838e-19
2.85019e-20
-2.37939e-19
1.51794e-19
3.37152e-19
-2.24009e-19
4.18933e-19
7.6673e-19
6.93196e-19
8.06187e-19
7.34258e-19
4.71122e-19
6.94968e-19
4.83363e-19
6.25839e-19
6.4962e-19
5.92121e-19
5.2401e-19
5.65135e-19
4.74662e-19
1.16969e-18
1.44833e-18
3.06977e-18
3.85053e-18
6.71004e-18
9.44297e-18
1.27037e-17
1.27028e-17
-4.14464e-20
-4.39097e-20
-5.85065e-20
-1.63858e-19
-9.24173e-20
-2.44345e-20
-6.00176e-20
-7.17034e-20
-1.18311e-19
-8.62432e-20
-1.19793e-19
-1.12191e-19
-7.34209e-20
-1.68203e-19
-1.35172e-19
-2.61243e-19
-1.56964e-19
-2.75408e-19
-2.11062e-19
-3.03731e-19
-2.82333e-19
-2.58786e-19
-3.45597e-19
-3.37186e-19
-3.55662e-19
-3.45538e-19
-3.993e-19
-3.75432e-19
-4.20855e-19
-3.81133e-19
-3.99424e-19
-4.29752e-19
-3.86785e-19
-4.36904e-19
-4.21418e-19
-4.03481e-19
-3.85526e-19
-3.80293e-19
-3.83012e-19
-3.81165e-19
-3.77116e-19
-4.16897e-19
-9.61701e-18
-1.34125e-17
-1.37138e-17
-1.38237e-17
-1.47564e-17
-1.5176e-17
-2.31131e-17
-3.12107e-17
-4.43343e-17
-6.99718e-17
-9.49223e-17
-8.15625e-17
-4.92825e-17
-2.56201e-17
-1.11678e-17
-6.90248e-18
-5.41655e-18
-3.3107e-18
-2.4032e-18
-2.04511e-18
-1.35639e-18
-1.27799e-18
-1.10779e-18
-7.19541e-19
-6.75469e-19
-3.80533e-19
-1.89255e-19
-5.23699e-19
-6.39143e-19
-5.55551e-19
-5.99955e-19
-1.18806e-18
-3.56028e-19
-7.16816e-19
-3.75806e-20
2.20716e-19
-3.57612e-20
3.46052e-20
7.4296e-21
-8.93809e-20
1.95409e-19
1.9216e-19
4.51333e-19
3.9487e-19
-3.57848e-19
-3.0073e-19
8.4058e-20
-9.02614e-20
-4.17889e-20
-4.29688e-20
3.60163e-20
-7.71624e-20
1.40974e-19
4.45683e-19
-3.59734e-19
1.12862e-19
3.49168e-19
8.75229e-19
6.50456e-19
5.7028e-19
4.33108e-19
5.73086e-19
6.80131e-19
7.48708e-19
7.08929e-19
5.46899e-19
4.59952e-19
6.18959e-19
7.4257e-19
1.01638e-18
9.80479e-19
2.37774e-18
3.71088e-18
6.38206e-18
8.81982e-18
1.22725e-17
1.2438e-17
-5.4367e-20
-1.66991e-20
-1.51673e-20
1.39053e-20
-2.50726e-20
2.00254e-21
-8.60182e-20
-1.53648e-19
-2.05588e-19
-1.20888e-19
-1.30378e-19
-7.53511e-20
-1.70538e-19
-2.17554e-19
-1.91895e-19
-2.8889e-19
-1.93696e-19
-4.01685e-19
-3.18767e-19
-4.15003e-19
-3.40682e-19
-5.41029e-19
-3.35806e-19
-4.73129e-19
-4.26221e-19
-4.90617e-19
-4.03556e-19
-4.40111e-19
-4.10299e-19
-4.07679e-19
-4.64858e-19
-3.92825e-19
-4.32797e-19
-4.07611e-19
-4.24146e-19
-4.1674e-19
-4.36975e-19
-4.25007e-19
-4.16951e-19
-4.16701e-19
-4.09937e-19
-1.65773e-18
-1.3448e-17
-1.62213e-17
-1.66135e-17
-1.60064e-17
-1.63263e-17
-1.79981e-17
-2.19641e-17
-2.81614e-17
-3.67208e-17
-4.88037e-17
-6.85813e-17
-7.55843e-17
-5.7608e-17
-3.12452e-17
-1.56194e-17
-6.9314e-18
-4.66863e-18
-1.23245e-18
-8.43914e-19
-7.97998e-19
-5.19007e-19
-5.37872e-19
-7.17555e-19
3.44835e-20
-1.77434e-19
1.53128e-20
8.57284e-20
-3.02957e-19
3.39667e-20
-4.27947e-20
-3.54337e-19
-3.56095e-19
-2.18346e-19
-4.42135e-19
-2.4832e-19
1.49435e-19
1.45911e-19
8.05545e-20
-1.09975e-19
-2.01594e-19
1.36785e-19
2.30803e-19
5.34615e-19
5.14581e-19
1.57063e-19
-5.95407e-19
2.31239e-19
1.49514e-19
-5.97975e-20
-1.23773e-19