/*--------------------------------*- C++ -*----------------------------------*\
| =========                 |                                                 |
| \\      /  F ield         | OpenFOAM: The Open Source CFD Toolbox           |
|  \\    /   O peration     | Version:  2.2.x                                 |
|   \\  /    A nd           | Web:      www.OpenFOAM.org                      |
|    \\/     M anipulation  |                                                 |
\*---------------------------------------------------------------------------*/
FoamFile
{
    version     2.0;
    format      ascii;
    class       volScalarField;
    location    "2.9";
    object      divBf;
}
// * * * * * * * * * * * * * * * * * * * * * * * * * * * * * * * * * * * * * //

dimensions      [1 -3 -2 0 0 -1 0];

internalField   nonuniform List<scalar> 
14161
(
1872.29
158.766
369.063
292.684
274.794
239.847
207.586
176.533
146.009
116.793
85.4625
55.1541
26.2851
-6.77331
-40.2084
-72.2388
-106.869
-142.837
-182.026
-224.843
-266.921
-308.654
-345.854
-385.369
-422.791
-466.018
-509.879
-558.64
-596.746
-643.231
-697.901
-734.747
-795.508
-818.786
-898.219
-913.55
-1097.53
-1179.45
-1509.79
-2208.95
-3759.81
-1058.38
-17637
17970.2
-2174.76
-25854.8
-35149.8
-35132.2
-35238.4
-34822.3
-34410.7
-34304.7
-33605.2
-33031.4
-32249.5
-31397.7
-30444.5
-29331.3
-28211
-26921.7
-25671.2
-24245.8
-22832.5
-21308.8
-19757.5
-17965.5
-16255.4
-14492.1
-12864.2
-11099.2
-9330.65
-7657.59
-6020.56
-4315.66
-2813.71
-1089.85
569.796
2183.94
3723.37
5126.33
6299.1
7431.18
8689.53
9839.23
10614.2
11643.4
12296.5
12731.9
13574.5
13782.8
14051.7
13954
13683.5
13267.6
12244.4
11693.4
10460.3
9325.12
7148.12
6241.1
4117
1696.83
-324.818
-3630.64
-5532.43
-8477.72
-11151.6
-14729.9
-15701.4
-24658.7
-18322.7
-25714
-18104.2
-26195.3
-4778.18
-17258.9
22805.8
-24387.3
74366.7
1622.02
-87.8526
122.682
45.3405
24.5892
-11.8673
-45.0894
-79.8664
-116.222
-150.428
-186.077
-222.879
-259.317
-298.106
-339.904
-381.996
-424.878
-471.182
-519.883
-572.818
-626.855
-683.114
-733.212
-787.517
-839.908
-897.457
-958.097
-1015.86
-1083.25
-1153.15
-1211.05
-1273.35
-1333.54
-1417.9
-1463.67
-1533.01
-1551.17
-1756.71
-1729.49
-1786.66
-2669.19
-813.271
-9371.31
12901.4
-3327.35
-32286.5
-29244.4
-29823.5
-30991.3
-30719.3
-29615.6
-29249.2
-29915.9
-29575
-28676.2
-27729
-26772.2
-25687.7
-24576.7
-23461.6
-22380.6
-21024.8
-19706.8
-18188.5
-16796.2
-15124.6
-13465
-11780.7
-10198.5
-8613.36
-6845.16
-5343.15
-3718.06
-2175.29
-635.102
858.116
2362.88
3859.18
5355.03
6731.18
8004.05
9086.29
10193.3
11191.4
11973.6
12858.5
13546.1
13746.4
14490.2
14657.6
14928.7
14843.6
14693.9
14244
13378.1
12571.8
11692.3
10416.3
8574.04
7482.42
5266.36
2827.28
1224.24
-1878.24
-3497.06
-6677.99
-8056.5
-13635.2
-15279.5
-21121.1
-30448.2
-37212.7
-32798.6
-34233.6
-18276.7
-28519.8
9441.78
-23063
51300.9
1370.44
-326.613
-116.818
-192.747
-214.286
-251.266
-285.451
-322.292
-360.76
-398.844
-438.288
-479.428
-520.999
-564.229
-612.511
-660.904
-710.575
-764.105
-821.614
-882.894
-944.312
-1010.29
-1070.37
-1137.74
-1202.02
-1269.18
-1344.72
-1417.13
-1502.53
-1576.13
-1640.8
-1741.17
-1803.57
-1886.69
-1946.93
-2054.48
-2016.61
-2105.03
-2068.45
-2027.72
-1996.44
-2023.85
-510.403
-14143.2
-876.194
-18668.8
-18194.5
-19410
-22878.1
-25161.6
-27562.3
-27824.9
-28195.5
-28014
-27003.3
-25856
-24686
-23386.3
-21997.1
-20911.5
-19884.5
-18462
-17012
-15398.8
-14004.3
-12570.2
-11218.9
-9654.29
-8168.75
-6691.29
-5041.4
-3485.38
-2001.35
-445.921
1145.24
2576.14
4048.87
5410.83
6809.58
8108.44
9322.18
10362
11445.4
12432.2
13243.5
14140.4
14683
14898.1
15787.8
16075.5
16286.9
16160.8
15900.9
15302
14453.6
14017
13273.5
11236.1
9885.13
8895.58
7042.57
5150.8
2916.37
168.534
-2064.67
-5087.7
-9657.12
-11871.6
-17108.6
-19481.5
-22855.1
-19747.8
-15537.9
-19656.3
-5884.2
-16364.1
9831.81
-16867.7
43107.3
1124.22
-557.944
-347.863
-420.995
-440.183
-477.325
-512.344
-549.586
-588.652
-629.064
-670.931
-714.471
-760.519
-806.221
-858.407
-911.913
-967.085
-1027.08
-1089.96
-1157.46
-1226.76
-1299.36
-1365.91
-1443.43
-1518.11
-1593.81
-1678.9
-1762.72
-1853.68
-1933.17
-2029.82
-2123.4
-2195.26
-2291.44
-2365.69
-2445.27
-2433.14
-2320.25
-1995.91
-1271.77
861.431
688.245
14479.3
-33446.6
-11496.6
-21439.9
-16997.8
-20091.5
-25182.9
-25722.7
-25501.9
-25313.8
-25540.6
-23755.8
-22647.8
-21687.1
-20814
-19935.6
-19525.9
-18353.1
-17659.3
-16463.8
-15157.5
-13792.2
-12293.5
-10810.6
-9229.07
-7567.59
-5957.5
-4592.1
-3128.64
-1645.58
-205.351
1275.95
2904.67
4239.25
5679.68
6946.97
8229.37
9531.23
10676.9
11792.7
12542.1
13507.2
14431.7
15271.2
15781.1
15914.1
16684.1
16855.9
17013.5
16877.8
16647.5
16013.7
15297.4
14834.7
13863.3
11887.6
11312.3
9532.05
7991.03
5378.65
3982.67
706.253
-1606.69
-5321.32
-7557.28
-14659.3
-15613.5
-21607
-18451.7
-14425.4
-12174.8
-14859.6
-4730.31
-13063.6
6018.46
-10421.4
36100.7
883.028
-780.052
-569.005
-637.785
-654.68
-690.185
-724.24
-761.613
-800.518
-841.564
-884.315
-929.627
-977.808
-1026.24
-1081.32
-1138.63
-1196.9
-1260.71
-1326.87
-1399.62
-1476.43
-1553.18
-1625.64
-1708.72
-1793.38
-1874.81
-1965.78
-2062.1
-2147.04
-2257.76
-2347.87
-2437.92
-2544.25
-2625.46
-2728.85
-2761
-2852.53
-2862.49
-2826.22
-2761.11
-2724.13
-2705.45
-1108.83
-23676.9
-21840.6
-3824.8
-8389.94
-13580.7
-13566.7
-18271
-21153.8
-24881
-25734.2
-25862
-25442.7
-23918.4
-22233.9
-20030.9
-18449.2
-16489.5
-15205.9
-13992.7
-12719.6
-11614.1
-10259.4
-8923.98
-7716.63
-6086.05
-4353.7
-2873.24
-1501.5
177.668
1666.28
3074.45
4583.41
5967.21
7246.81
8459.99
9610.41
10761.6
11907.3
13109.4
13626.6
14901.5
15836.6
16323.2
16802.9
16951.1
17619.8
17856.1
17980.2
17803.8
17508.8
16849.7
16072.5
15921.9
14907.3
12187.4
12804.3
10227.9
9657.43
6456.42
3677.8
2349.41
-815.137
-4196.37
-5681.59
-9419.73
-15870.1
-12525.7
-9538.28
-10454.9
-8335.46
-10884.6
-3597.87
-9924.61
3611.66
-6972.93
27615.6
647.772
-991.448
-778.651
-843.178
-857.024
-889.537
-921.576
-957.816
-995.735
-1036.73
-1079.84
-1125.43
-1174.57
-1225.78
-1281.45
-1341.45
-1402.56
-1468.66
-1539.13
-1613.89
-1694.4
-1775.43
-1855.1
-1943.23
-2032.79
-2120.64
-2216.39
-2315.31
-2411.56
-2523.75
-2612.67
-2719.09
-2819.97
-2914.12
-3002.91
-3085.68
-3184.33
-3244.4
-3308.62
-3103.87
-3168.49
-2777.94
-4048.42
545.785
-9633.78
-30037.5
-35124.8
-36216.8
-35397.9
-33930.1
-32050.6
-30773.6
-27873.3
-25720.4
-23237.4
-20833.2
-18462.9
-16540.3
-15323
-14408.5
-13827.5
-12603.3
-10978.7
-9660.83
-8075.7
-6758.19
-5314.92
-3269.9
-1839.9
-454.609
585.481
2121.14
3684.91
4886.68
6368.85
7692.66
8903.1
10077.4
11052.8
12085.8
13174.9
14331.5
14863.3
15335
16592.7
17365
17907.3
17784.1
18507.3
18766.3
18965.1
18820
18541.7
17874.3
16940.4
16641.2
15486.8
13487.7
13976.9
11278.9
10068.2
7187.05
7216.51
3874.78
2363.79
2320.45
611.981
-7602.52
-5530.17
-6811.12
-5210.65
-7250.36
-5396.31
-7101.28
-2881.29
-6470.3
2666.74
-4589.97
22974
420.45
-1191.52
-976.679
-1035.33
-1045.91
-1075.18
-1104.87
-1138.87
-1174.58
-1215.13
-1258.14
-1303.08
-1352.49
-1405.13
-1460.7
-1522.58
-1585.68
-1654.26
-1725.88
-1804.37
-1885.44
-1969.02
-2055.64
-2147.55
-2238.92
-2335.92
-2432.17
-2534.85
-2641.24
-2740.95
-2849.94
-2956.77
-3046.15
-3156.99
-3248.3
-3363.14
-3477.12
-3626.83
-3859.35
-4392.96
-4759.55
-4349.43
-7040.98
19777.8
-1985.36
-27960.3
-38199.5
-42930.8
-37631
-34207.1
-30862.6
-31069.9
-28806.8
-27267.3
-24949.6
-21825.9
-20243.7
-17013.7
-14875.1
-13081
-12510.2
-11213
-10242
-8705.31
-7204.17
-5588.51
-4205.77
-3149.25
-1576.79
567.51
2121.65
3374.08
5231.69
6325.4
7959.36
9287.08
10637.4
11808.4
12949.7
13975.6
14837.6
16153.9
17241.8
17439.2
18019.5
18554.6
19536.8
19295.5
20012.6
19987.7
20109.5
19606.9
19422.3
18926.9
17761
17758.2
16594.4
13934.6
14399
11866.1
11639.6
8526
7733.79
4921.19
8354.62
8373.23
-1061.21
-1336.76
-4151.5
-5557.09
-5191.11
-6503.17
-4152.45
-5708.48
-2879.48
-5537.16
1103.79
-4355.07
17976.6
202.19
-1379.45
-1162.12
-1214.92
-1220.95
-1246.33
-1274
-1304.14
-1338.31
-1377.53
-1418.99
-1463.68
-1512.95
-1565.98
-1620.86
-1682.99
-1748.47
-1817.95
-1890.53
-1971.48
-2054.1
-2139.69
-2231.45
-2322.5
-2418.74
-2518.02
-2619.63
-2725.8
-2830.92
-2935.98
-3045.21
-3146.52
-3247.53
-3342.34
-3425.17
-3511.32
-3589.15
-3635.67
-3671.21
-3608.76
-3626.46
-2626.22
-6591.81
28054.2
972.471
-32856.9
-49308.3
-56196.2
-51470.2
-41805
-35150.9
-33014.7
-28968.3
-25794.8
-21410
-20278.3
-16441.3
-15828.2
-11572
-11925.4
-10827.6
-9041.03
-8669.88
-6550.89
-4741.64
-3716.97
-2064.47
-1602.45
-123.389
2661.76
3302.11
5020.01
6150.61
7743.34
9409.74
10816.3
11875.3
13370.8
14438.3
15674.2
16603.8
16942.7
17939.8
19479.5
19882.6
19961.2
20590.3
20814
21449.4
21080.1
21141.9
20898.4
20727.1
20023.3
19036.4
18216.5
17381.3
15758.3
15314
13805.8
13007.4
10688.3
10270.8
13773.3
17867.7
12421.8
7141.87
4275.37
907.837
-2074.1
-1713.5
-3874.3
-1879.76
-3939.4
-2078.52
-4002.52
438.178
-4017.67
14622.7
-5.6503
-1554.36
-1334.51
-1380.61
-1382.53
-1403.87
-1426.51
-1454.78
-1487.46
-1523.3
-1564.42
-1607.32
-1656.13
-1709.14
-1763.15
-1826.07
-1891.46
-1962.92
-2036.23
-2115.11
-2201.83
-2287.99
-2382.88
-2474.99
-2577.02
-2673.36
-2782.89
-2886.82
-2994.48
-3103.19
-3209.9
-3310.2
-3407.13
-3502.81
-3590.45
-3666.16
-3746.66
-3797.25
-3893.36
-4010.15
-4190.44
-4475.68
-6717.21
3320.55
2551.16
-50910.5
-51903.8
-55736
-46104.8
-42168.7
-32688.3
-31799.4
-23425.3
-23341.1
-18524.9
-17680.3
-14647.4
-7393.58
-11586.3
-8227.99
-7362.89
-5228.85
-4483.5
-3166.63
-2158.46
-700.495
-466.733
939.692
3025.48
4093.29
5101.64
6729.07
8100.91
9562.03
10835
12290.1
13160.8
14539.3
15632.1
16676.7
18010.9
18406.8
19311.1
20031.4
20834.7
21221.7
21487.1
22182.2
22211.9
22162
22049.7
21644.3
21500
20614
20505
19316.2
18622.7
17274.8
16701.7
14275.1
12739.1
12797.9
17548.4
25889.6
25849.8
11589.9
4206.75
1815.7
-2854.07
-4792.51
-4531.06
-5208.65
-3773.6
-4904.96
-3047.45
-4270.55
-1371.29
-4279.5
10556
-201.894
-1715.46
-1493.36
-1532.72
-1529.55
-1546.66
-1566.29
-1591.91
-1620.38
-1654.69
-1693.4
-1735.63
-1782.76
-1835.36
-1889.68
-1951.34
-2017.69
-2087.39
-2162.47
-2241.55
-2327.81
-2416.97
-2511.84
-2608.68
-2707.54
-2813.38
-2914.74
-3028.76
-3135.01
-3242.17
-3349.41
-3450.69
-3544.18
-3623.34
-3687.49
-3727
-3723.05
-3678.24
-3480.68
-3313.02
-2722.51
-2229.13
855.662
-5458.65
-23891
-89440.9
-53269.1
-40377
-33396.7
-33968.1
-27536.3
-22923.5
-15617
-14909.6
-12613.5
-12829.1
-8565.04
-6039.21
-8595.08
-6682.24
-5359.4
-2786.29
-1087.12
-2446.19
-648.469
959.957
1053.3
2785.4
4312.32
4359.99
6486.28
8232.84
9906.75
11042.2
12103
13486.2
14570.9
15608.5
16664.1
17709.4
18671.5
19592.9
19927.9
20713.8
21219.4
21998.5
22212.7
22809.3
22848.4
22719.7
22848.5
22516.4
22750
21629.4
21414.6
20050.5
19058.6
17472.9
16508.7
16936.4
17176.7
25007.7
33602.9
30154.4
13018.1
11085.1
4301.91
5877.26
-595.852
-1499.39
-1025.98
-1768.82
-1685.18
-3053.43
-2141.16
-3361.84
-1447.15
-3800.47
8140.18
-385.455
-1861.89
-1637.86
-1670.65
-1662.84
-1675.45
-1691.07
-1713.81
-1739.91
-1771.47
-1808.17
-1848.32
-1894.56
-1945.6
-2001.45
-2059.14
-2125.98
-2197.11
-2271.17
-2352.02
-2434.75
-2527.82
-2620.69
-2723.52
-2818.01
-2928.21
-3032.75
-3142.65
-3252.99
-3361.65
-3470.23
-3571.79
-3664.58
-3751.68
-3813.9
-3865.34
-3873.85
-3901.03
-3885.2
-3915.83
-3882.99
-5329.78
-2997.5
-44210.2
-156603
-99540.8
-24304.5
-3490.69
-1737.41
-7133.09
-10782.7
-7708.68
-8623.74
-5477.21
-6674.74
-4897.12
-3638.35
-4072.58
-2416.25
-3201.9
-1645.24
-501.445
709.205
985.783
2582.86
3078.44
4325.95
5532.44
6870.84
7154.15
9030.88
10284.5
11549.1
12627.1
13518.4
14653
15762.7
16704.4
17725.2
18505
19007.7
20192.4
20868.8
21321.7
22058.3
22556.3
23051.8
23498.3
23582.6
23384.4
23221.1
22553.3
22930.1
21285.8
21839.3
20882.1
21284.9
19718.7
20213.8
21817.3
28490.7
42755.2
35051.9
23935.2
15797.2
7131.24
2519.12
2649.23
-2419.61
-2209.94
-2318.72
-2769.13
-2341.63
-3246.65
-2500.96
-3498.86
-2189.99
-4100.83
5158.4
-555.748
-1993.76
-1767.81
-1794.17
-1781.86
-1790.26
-1802.11
-1821.36
-1844.96
-1874.2
-1908.79
-1947.93
-1991.57
-2041.28
-2097.49
-2152.24
-2220.36
-2292.52
-2362.81
-2443.49
-2528
-2619.62
-2715.09
-2814.34
-2915.46
-3021.85
-3135.1
-3240.07
-3353.58
-3462.01
-3573.21
-3679.32
-3771.09
-3849.4
-3899.29
-3907.01
-3846.76
-3651.71
-3443.31
-2890.4
-1815.8
-994.129
3178.89
-76668.2
-170856
-32574.3
-16142.9
-4619.57
-3868.42
-3696.12
-5374.03
-4504.74
-5201.71
-4383.75
-4252.99
-3177.6
-2824.96
-1873.24
-2045.51
-580.267
-18.9591
786.008
1735.85
2585.15
3855.32
4320.49
5609.63
6625.75
7765.43
8598.42
9889.66
11189.1
12194.4
13313.4
14189.5
15344.6
16283.7
17283.5
18213.1
19072.3
19644.8
20569.6
21173.6
21736.2
22200.7
22742.5
22970.3
23411
23542.7
23524.7
23953.9
23960
25015
23691.2
23659
23546.8
24491.3
25633.4
29830.1
37122.8
49680.2
34809.6
22233.2
12481.1
6552.42
5529.55
1770.09
2165.45
-1561.36
-519.725
-1047.01
-1904.43
-1855.67
-2725.68
-2259.16
-3291.69
-2205.24
-3965.22
3494.68
-711.764
-2110.47
-1883.19
-1903.23
-1886.51
-1890.96
-1899.18
-1915.27
-1936.47
-1963.01
-1995.76
-2033.46
-2074.98
-2123.54
-2178.71
-2232.06
-2300.13
-2370.99
-2441.22
-2519.72
-2605.8
-2696.48
-2791.65
-2891.35
-2995.98
-3098.19
-3213.72
-3326.88
-3435.05
-3549.27
-3662.76
-3771.14
-3870.17
-3956.35
-4026.6
-4084.62
-4097.18
-4164.97
-4216.58
-4346.65
-4472.91
-5451.38
-5325.03
-137305
-41448.4
-47571.5
-60712.7
-38457.9
-19979.5
-11628.5
-13665.8
-8216.89
-9274.45
-4973.58
-4532.33
-2441.53
-1584.14
133.487
-2072.24
1696
2006.66
2533.73
3672.03
4317.49
5518.39
5607.71
7302.37
8343.61
9164.54
10039.1
11346.7
12687.4
13409
14525.3
14816.5
16205.2
16799.2
17897.1
18983.6
19464.6
20308.6
21440.6
22086.5
22499.6
23343.3
24123.9
24541.1
25191
25418.6
25455.1
25833
26367.9
27352.4
28723.5
30102.4
32861.7
35478.5
39488.6
48375.4
45246.2
31310.3
23528.1
12966.6
10372.4
6189.52
4177.94
1168.5
537.898
-1029.56
-485.543
-914.374
-1754.73
-1478
-2438.16
-2120.88
-3132.49
-2294.07
-3989.79
1716.23
-853.163
-2211.81
-1983.77
-1997.96
-1977.11
-1977.9
-1982.72
-1995.77
-2014.76
-2038.75
-2069.31
-2106.04
-2145.09
-2192.22
-2246.42
-2300.46
-2364.05
-2432.73
-2509.82
-2582.33
-2668.9
-2758.17
-2852.33
-2954.31
-3057.15
-3162.04
-3274.25
-3397.56
-3504.02
-3620.67
-3739.06
-3851.68
-3961.38
-4058.13
-4126.84
-4200.61
-4275.16
-4284.27
-4293.88
-4185.92
-4307.5
-3374.41
-11024.8
-108088
-17606.9
-27151.3
-52376.8
-67059.3
-46771
-27817
-13798
-11326.7
-11481.1
-6240.94
-8226.65
-1216.35
-2083.04
-94.1817
403.506
1950.07
4188.56
3023.32
4848.41
5479.71
6245.25
7120.27
8001.71
9234.58
9506.65
10853.9
11883.2
13503.1
13647.4
15320.8
15627.6
17152.7
17792.1
18742
19419.9
20201
20809.1
22125
22630.6
23789.2
24400.9
25499.8
26865.6
28016.5
29976.3
30873.8
33279.8
35043.8
37867.5
39225.7
43085.5
46791
49142.7
41380.2
31824
25983.6
18362.5
11252.6
7366.07
3940.72
2068.82
1559.51
-174.786
-468.448
-1943.82
-731.807
-1257
-1782.63
-1575.77
-2456.83
-2108.15
-3153.45
-2344.89
-4034.55
581.772
-979.374
-2297.56
-2069.42
-2078.32
-2053.96
-2051.31
-2052.92
-2063.21
-2080.29
-2101.96
-2129.86
-2165.64
-2203.78
-2248.48
-2300.75
-2356.31
-2415.16
-2485.12
-2560.78
-2635.07
-2714.98
-2807.91
-2900.68
-3000.15
-3106.18
-3213.39
-3320.69
-3444.47
-3564.15
-3679.07
-3799.56
-3922.29
-4042.68
-4154.37
-4269.43
-4366.64
-4425.14
-4465.89
-4613.54
-4425.29
-5152.36
-2684.01
-54530.5
-45322.1
-5251.05
-4706.27
-14797.7
-34209.9
-56089.3
-49976.4
-24023.7
-19633.4
-12762
-8756.14
-7024.73
-1833.66
-5753.83
1363.5
3171.21
1464.24
5928.36
3233.72
5695.8
6323.39
6743.9
8132.26
9149.29
10533.1
10529.4
11932
13048.8
14207.4
14756
16217.1
17244.2
18397
19607.7
20535.6
21833.3
22718.8
24281.8
25989.9
27437
29707.7
30698.2
33482.3
35865.5
37752.7
40245.3
43088.2
45524.2
48037
50466.1
48168.4
41485.1
31694.8
24721
24347.4
18980
13873.9
8762.95
5183.84
3464.09
2418.07
1055.68
206.492
-24.4843
-1409.88
-1049.98
-771.879
-1248.78
-1416.37
-1423.58
-2082.47
-1954.12
-2904.61
-2283.13
-3929.97
-395.436
-1090.08
-2367.8
-2140.25
-2144.44
-2117.06
-2111.4
-2110.29
-2118.23
-2132.99
-2152.74
-2178.66
-2212.77
-2250.1
-2293.1
-2342.65
-2399.14
-2456.8
-2523.71
-2596.69
-2675.33
-2751.99
-2845.84
-2934.2
-3033.09
-3139.43
-3248.86
-3359.03
-3474.18
-3606.48
-3724.94
-3849.98
-3976.06
-4099.34
-4223.78
-4353.41
-4519.28
-4588.15
-4515.97
-4645.57
-4433.39
-5065.96
-2039.07
-77163.2
-30607.8
-6221.51
-5168.53
-10123.7
-20924.3
-36704.2
-56681
-56491.7
-37313.2
-17352.9
-16876.2
-3563.01
-4880.38
2675.85
792.497
2773.23
2562.19
5900.54
5532.64
5859.7
7395.57
7485.18
10103.7
10790.4
12222.9
13361
14087.7
15378.8
17069.8
17794.7
19999.5
22039.1
23332.3
26149.3
27065.1
29257.8
31423.6
33558.6
36274.8
37880.9
41310.3
43345.8
46820.6
48311.1
50985.4
51439.7
47403.4
41116.9
33997.1
28185.9
26095.4
22687
19956.6
15692.1
12137.9
9292.38
6324.71
3500.42
1549.9
5.80455
-383.478
-1048.14
-1324.26
-875.924
-2005.72
-1447.65
-1468.51
-1711.99
-1805.83
-1610.52
-2224.96
-1990.61
-2902.91
-2350.42
-4027.04
-1174.02
-1185.19
-2422.58
-2196.46
-2196.6
-2166.78
-2158.36
-2155.11
-2160.87
-2173.54
-2192.19
-2216.04
-2248.25
-2285.56
-2325.72
-2374.14
-2429.81
-2486.68
-2551.12
-2621.76
-2702.49
-2778.4
-2862.39
-2961.81
-3056.04
-3159.37
-3269.52
-3383.69
-3497.37
-3621.88
-3760.79
-3882.6
-4019.46
-4151.69
-4280.93
-4411.98
-4495.35
-4625.66
-5097.22
-5294.14
-5190.05
-5869.89
-4380.94
-64546.5
-21251.9
-10251.2
-4167.4
-6842.92
-10090.1
-18431.6
-31706.7
-58989
-49045.7
-36540.1
-18861.9
-7306.81
404.604
5687.08
-1330.76
4695.92
5380.64
6281.55
10170.5
7855.81
11574.8
11283.9
14415.6
14773.6
17107.7
19299.8
21571
23874.4
26510.7
28754.6
31415.3
34339.9
36184.5
39139.3
41354.9
43791.4
45719.9
47905.5
48794.8
51613.2
50047.3
47570.8
42346.1
36571.2
31805.3
28008.4
25516.1
23436.7
20122.5
17005.3
13019.8
11345.1
9773.85
8066.56
5998.21
4048.31
2639.34
1018.83
-224.118
-1270.32
-1261.98
-1929.11
-2175.75
-959.319
-1941.25
-1552.42
-1726.94
-1678.82
-1167
-1538.59
-1661.37
-1796.88
-2556.46
-2309.26
-3844.45
-1714.57
-1264.6
-2462.09
-2238.42
-2235.13
-2203.11
-2192.65
-2187.88
-2191.61
-2202.4
-2220.5
-2242.33
-2272.41
-2308.45
-2347.63
-2394.33
-2448.81
-2505.73
-2567.84
-2637.57
-2714.13
-2794.22
-2874.16
-2974.48
-3066.63
-3168.72
-3276.36
-3394.31
-3510.67
-3627.36
-3767.17
-3902.07
-4034.57
-4181.09
-4313.61
-4439.89
-4560.93
-4685.82
-4907.48
-5152.28
-5120.27
-5555.82
-5357.68
-65600.2
-13861.8
-10011.5
-4246.09
-5579.47
-5716.31
-10459.7
-18895.9
-32673.4
-54228.6
-61276.8
-26074.3
-12298.9
2121.16
34.2693
4955.06
9294.25
11259.6
10779.3
14817.7
15652.4
20124.8
21276.8
24269.6
27792.7
32279.4
36938.9
41784.4
45190.9
47235
48870.2
50224.5
50666.6
52324.8
51264.9
49728.9
46063.6
42155.2
38215
33503.9
29846.9
27267.7
25823
23643.4
21336.1
19221.3
15536.7
12562
11918
9572.59
8256.81
6026.62
5818.95
4800.36
4030.5
2576.33
1527.77
349.128
-434.9
-1411.91
-2153.85
-2612.96
-3005.04
-3040.32
-2146.37
-2694.88
-2374.87
-2340.28
-1999.68
-1504.19
-1680.24
-1802.03
-2053.9
-2526.1
-2621.97
-3641.54
-2271.64
-1328.4
-2486.68
-2266.27
-2260.28
-2227.06
-2214.78
-2208.59
-2210.81
-2220.45
-2237.22
-2257.95
-2285.64
-2322
-2361.1
-2403.85
-2456.4
-2514.78
-2574.2
-2642.42
-2716.36
-2797.26
-2878.13
-2967
-3070.37
-3166.9
-3274.11
-3386.16
-3508.59
-3630.82
-3754.65
-3897.26
-4033.98
-4172.18
-4312.15
-4440.68
-4559.09
-4599.12
-4677.09
-4710.74
-4896.46
-4244.46
-16578.9
-46701.1
-5239.72
-7546.19
-825
-1976.25
-2633.87
-4828.59
-8483.19
-16777.3
-29014.1
-48057.7
-52917.8
-17071.3
-4847.71
4158.51
15297
18985.7
20018.6
22062.1
27552.1
33932.7
40349.5
46644.5
50976.7
55138.5
58269
60928.1
62490.4
58961.8
53381.5
49364.2
44217.1
39447.8
35297.9
31553.9
29358.9
26830.6
24731.5
23099.8
20537.5
17848.9
14603.7
12578.2
11379.3
9938.65
8986.6
7647.61
6302.93
5722.36
4868.59
4276.52
2483.21
2837.19
2059.12
1868.47
880.04
154.383
-779.747
-1373.32
-2072.87
-2839.65
-2679.08
-3061.83
-2709.05
-2579.33
-2226.82
-1830.9
-1746.24
-1547.67
-1208.98
-1479.47
-1450.48
-1859.99
-2189.77
-2568.94
-3177.11
-2613.79
-1376.77
-2496.81
-2280.35
-2272.35
-2238.76
-2225.11
-2217.94
-2219.07
-2227.48
-2243.09
-2263.43
-2289.39
-2324.32
-2362.65
-2403.85
-2454.43
-2512.64
-2571.27
-2636.55
-2709.47
-2786.96
-2870.94
-2956.9
-3054.79
-3156.73
-3260.85
-3372.75
-3490.36
-3614.68
-3741.45
-3873.69
-4016.15
-4149.34
-4299.61
-4442.44
-4580.37
-4690.02
-4871.01
-4847.4
-5594.73
-3792.2
-40823.6
-32147.1
-4258.09
-4457.87
977.551
-532.653
-2983.69
-4424.69
-6450.16
-10347.5
-16816.2
-28733.7
-36693.2
-31789.3
3665.27
25784.4
31379.1
40840
44902.6
48588.7
54442.2
63443.9
67187.8
67896.9
65186.5
59553.4
53352.9
46347.9
41389.4
38293.2
35130.7
33089.6
30119.7
27495.5
24426.8
21127.3
18183.4
15647.4
13450.3
11859.8
10394.5
8920.34
7742.49
6269.58
5348.02
4772.84
4139.59
3358.11
2926.4
2314.78
2080.21
1926.96
885.349
1105.54
619.786
448.017
-159.536
-725.259
-1489.45
-1950.51
-2766.8
-2826.84
-3416.29
-3243.31
-2992.91
-3470.39
-2847.98
-2624.78
-2558.5
-2228.91
-1587.35
-1578.76
-1497.49
-2025.1
-2105.03
-2722.28
-2897.12
-3024.21
-1410.19
-2492.77
-2281.46
-2272.08
-2238.2
-2224.08
-2216.14
-2216.99
-2224.09
-2238.93
-2259.09
-2283.65
-2316.89
-2353.85
-2395.53
-2443.84
-2499.41
-2559.06
-2621.58
-2692.79
-2768.29
-2852.11
-2938.04
-3030.27
-3132.92
-3235.76
-3345.51
-3463.45
-3583.47
-3706.9
-3845.86
-3971.92
-4117.8
-4250.93
-4403.31
-4524.98
-4606.9
-4752.76
-4569.44
-5244.86
-2819.18
-45933.2
-21973.2
-4126.26
-4334.46
1296.66
-256.592
-763.338
-1375.44
81.2496
647.461
-740.751
-1243.15
-2022.3
8734.86
37479.2
52211.6
59506
67647.7
69339.5
68479.1
60760
54291.3
47780.3
45452.9
43254.9
40898.2
38274.3
34423
30434.6
27787.1
24956.8
22767.8
19934.6
17890.4
16020.8
14262.1
12427
11026.8
9073.65
7548.37
6162.21
5074.14
4040.04
3164.26
2435.92
1998.53
1627.49
1244.5
1306.02
753.365
899.691
801.559
434.52
429.734
6.61919
-261.496
-731.255
-1229.67
-1753.65
-2222.72
-2723.28
-3256.21
-3558.38
-3662.88
-3207.06
-3133.46
-2699.32
-2557.36
-2343.61
-1989.09
-1417.71
-1497.32
-1140.1
-1827.42
-1689.74
-2638.52
-2425.79
-3174.79
-1429.19
-2475.16
-2270.07
-2260.01
-2226.26
-2211.82
-2203.94
-2204.79
-2210.82
-2225.1
-2244.78
-2269.08
-2299.81
-2337.47
-2377
-2424.24
-2477.73
-2536.54
-2597.75
-2665.74
-2740.47
-2823.61
-2907.15
-2998.02
-3096.69
-3201.12
-3307.89
-3425.33
-3544.37
-3667.02
-3793.82
-3925.02
-4065.83
-4207.91
-4365.15
-4530.67
-4677.78
-4858.56
-4804.67
-5600.6
-3481.7
-47571.8
-24595.7
-6034.27
-5354.65
673.433
1636.19
2019.84
1832.83
2279.1
3599.08
6433.24
14174.8
35221.2
66216.8
78563
68354.8
61711.9
51647.3
48226
47308.8
43392.6
39556.6
35733.7
31743.6
29719.4
28943.8
27645.9
25766
23817.7
22458.3
21440.8
20021.9
17883.8
15746.4
13916.2
12169.2
10124.5
9206.87
7255.93
5957.72
4539.62
3730.42
2773.31
1999.04
1302.79
754.953
472.613
62.0417
146.635
-370.594
-40.7096
-118.109
-220.519
-373.279
-642.687
-864.524
-1201.23
-1663.26
-2192.75
-2698.71
-3202.07
-3704.3
-4015.62
-4180.67
-3801.48
-3598.5
-3338.59
-3102.51
-2538.37
-2131.84
-1233.28
-1464.99
-1169.74
-1896.9
-1680.5
-2642.03
-2141.02
-3367.97
-1434.43
-2444.85
-2246.4
-2236.34
-2203.66
-2189.39
-2181.99
-2182.39
-2188.39
-2201.92
-2221.37
-2245.71
-2274.08
-2311.62
-2351.02
-2396.16
-2447.97
-2503.92
-2565.68
-2631.59
-2703.72
-2784.83
-2866.86
-2954.86
-3052.27
-3155.23
-3259.99
-3374.86
-3495.66
-3613.96
-3727.16
-3853.31
-3988.85
-4136.46
-4260.62
-4393.47
-4515.07
-4563.06
-4539.12
-4484.1
-4549.94
-51615.2
-14493.5
-6750.39
-6295.2
988.018
1888.49
2659.55
3595.47
5324.68
12815.5
32213.8
62949.7
110400
117051
67540.8
52393.6
43011.6
37892.7
33265.5
31689.3
29675.1
27642.4
24858.6
22904.9
21227.9
21016.9
20796.7
20687.3
19241.4
17952.7
17801.4
17339.7
16692.1
14935.2
13428.4
11604.3
10161.2
9274.65
7806.35
6537.57
5193.25
3728.26
2780.86
1885
1449.13
714.411
333.54
-137.674
-283.681
-555.903
-563.372
-570.284
-532.892
-670.24
-1002.2
-1206.33
-1513.66
-1833.42
-2187.22
-2585.71
-3089.28
-3729.58
-4169.8
-4431.42
-4114.65
-3672.28
-3152.27
-2958.56
-2343.71
-1892.92
-1108.27
-1398.26
-864.129
-1686.96
-1300
-2458.52
-1717.24
-3344.1
-1426.66
-2402.46
-2211.41
-2202.08
-2170.5
-2157
-2150.45
-2150.87
-2157.55
-2169.88
-2189.35
-2213.48
-2241.24
-2276.69
-2316.34
-2360.78
-2409.6
-2463.56
-2524.51
-2589.19
-2659.87
-2736.27
-2816.95
-2903.8
-2994.99
-3100.23
-3200.7
-3313.85
-3433.95
-3551.63
-3661.38
-3780.01
-3922.96
-4081.84
-4240.72
-4384.03
-4589.62
-4746.66
-5116.36
-5246.49
-8645.12
-70731.3
-10293.7
-7395.69
-5891.11
2276.61
3710.2
5652.69
8354.05
15003.7
28984.4
70498
133581
140217
82271.9
53481.3
38791.5
31838.3
27131
24469.2
22926.5
21065.8
19564.2
17806.2
16714.4
15653.9
14948
14791.7
15087.9
16102.3
16859.6
17013.8
17085.2
16773.5
15446.9
13959.9
12355.9
11303.6
10035.5
8464.69
7170.51
5835.28
4435.92
3224.09
2126.22
1500.58
787.558
212.661
-132.626
-560.039
-669.309
-854.293
-943.033
-894.206
-985.103
-1242.61
-1409.97
-1636.68
-1905.08
-2279.11
-2739.93
-3305.88
-4051.84
-4468.84
-4603.69
-4471.44
-4025.45
-3347.4
-2977.69
-2209.25
-1761.28
-915.082
-1209.26
-863.558
-1695.78
-1334.8
-2382.65
-1333.85
-3352.69
-1406.7
-2348.87
-2165.63
-2157.52
-2127.82
-2116.12
-2109.15
-2111.01
-2117.96
-2129.96
-2149.2
-2173.09
-2200.51
-2233.69
-2274.01
-2317.53
-2363.54
-2415.95
-2474.9
-2537.63
-2609.37
-2680.23
-2757.99
-2840.13
-2934.96
-3031.58
-3133.5
-3240.18
-3354.93
-3467.64
-3583.78
-3705.15
-3819.2
-3925.18
-3972.78
-4049.3
-4035.15
-3863.34
-4176.02
-2405.18
-30682.9
-38091.3
-3020.68
-4500.4
-3787.34
3179.12
4346.5
7556.04
15659.5
36425
71183.3
130677
142611
89347.5
57296.6
39551.7
29862.1
23995
20677.3
18286.2
17201
15862
15008.5
13656.3
13007.9
12311.6
11541.6
11142.9
10999.6
11482
12349.5
13494.2
14364.1
15528.1
16171.1
16205.8
14704.2
13637.5
11630.5
10407.5
9056.48
7653.65
6072.54
4698.63
3288.15
2352.5
1538.44
538.872
260.862
-444.756
-444.213
-809.122
-1020.83
-1030.4
-1131.85
-1378.45
-1578.52
-1813.36
-2032.29
-2355.56
-2755.19
-3255.36
-3956.1
-4336.77
-4790.46
-5134.94
-3023.75
-3105.54
-2580.34
-2036.23
-1612.7
-959.918
-1133.32
-613.776
-1430.32
-1031.93
-2038.56
-899.308
-3286.22
-1375.43
-2284.84
-2110.1
-2103.64
-2076.28
-2065.93
-2060.06
-2062.82
-2070.19
-2082.63
-2101.5
-2125.41
-2152.26
-2184.69
-2223.14
-2265.57
-2310.26
-2362.18
-2417.86
-2478.92
-2548.7
-2617.33
-2693.59
-2770.43
-2862.45
-2956.03
-3055.58
-3160.42
-3261.58
-3388.1
-3498.27
-3638.83
-3748.38
-3894.27
-4039.01
-4203.81
-4448.3
-4487.49
-5630.22
-2849.57
-72169.3
-34825.1
-4154.26
-4231.61
-4029.35
4363.69
6751.82
13954.4
31796.2
75975.6
147286
140323
88569
57270.5
38711.1
28165
22210.6
18720.2
16593.3
15267.8
14530.9
13914.6
13315.5
12505.4
11639.3
10938.4
10299.7
9923.28
9704.52
9809.84
10002.9
10684.1
11710
12922.6
14024.4
14530.6
14342.5
13920.4
12203.8
11769.7
10412
8905.12
7352.33
5893.75
4469.63
3314.54
2252.37
1269.51
790.638
43.3018
-124.242
-544.143
-980.538
-1054.78
-1264.46
-1471.26
-1694.4
-1967.5
-2153.96
-2499.1
-2833.1
-3322.19
-4092.28
-4205.38
-4721.3
-4250.66
-4166.8
-3055.67
-2736.76
-1940.43
-1372.83
-874.686
-920.863
-647.319
-1399.92
-896.466
-1799.34
-659.033
-3266.87
-1333.84
-2211.32
-2045.49
-2041.11
-2016.24
-2007.64
-2003.61
-2007.04
-2015.09
-2028.22
-2046.72
-2070.6
-2096.96
-2128.8
-2166.11
-2208.4
-2251.04
-2300.05
-2354.7
-2414.52
-2477.28
-2546.97
-2617.94
-2698.31
-2777.8
-2868.71
-2968.71
-3067.5
-3169
-3287.96
-3406.76
-3538.04
-3632.65
-3740.8
-3835.93
-4012
-4019.94
-4223
-4033.68
-4286.68
-68288.9
-16592.9
-6001.71
-4547.28
-3709.63
6803.02
15303.1
34927.9
78834.5
141657
134110
85916.1
55643.1
37910.6
27151.9
20935.5
17252.1
15068.4
13851.3
13107.6
12654.2
12426.7
11992.9
11695.7
11240.7
10848.5
10423.9
9949.4
9462.24
9060.54
8650.35
8518.02
8956.01
9875.43
10880.8
11858.1
12599.1
12801.8
12469.4
12010.6
10747.2
9902.43
8671.02
7156.29
5697.52
4516.52
2829.13
2211.28
1380.37
459.516
84.6469
-413.684
-873.056
-1116.89
-1365.37
-1586.48
-1852.51
-2112.32
-2318.83
-2627.6
-2964.5
-3411.56
-4100.55
-4419.73
-4047.37
-4146.92
-4540.36
-3060.85
-2530.37
-1868.24
-1425.65
-1004.44
-867.097
-471.239
-940.777
-458.187
-1490.2
-291.82
-3190.68
-1282.91
-2129.26
-1972.58
-1970.63
-1948.69
-1942.21
-1939.65
-1944.62
-1952.96
-1967.14
-1985.47
-2009.27
-2035.31
-2066.78
-2103.08
-2142.38
-2185.71
-2234.03
-2283.22
-2344.42
-2401.77
-2468.88
-2538.83
-2618.49
-2690.38
-2779.47
-2870.08
-2964.59
-3068.68
-3182.79
-3298.17
-3420.73
-3552.59
-3662.68
-3836.96
-4020.92
-4154.6
-4545.62
-4035.98
-13228.3
-66764.9
-9882.15
-6419.51
-4344.29
-1531.2
12739.3
36041.2
81183.8
153237
130225
80990.4
52238
35535.4
25580.1
19671.7
16088.3
13835.2
12401.6
11634.1
11279.4
11016.7
10954.8
10875.8
10912
10825
10652.5
10328.9
9930.51
9414.77
8875.72
8297.01
7737.55
7344.46
7596.44
8256.81
9128.71
10019
10893.3
11353.2
11258.7
10498.8
9634.74
8412.9
7253.86
6086.61
5003.19
3522.59
2889.34
1682.62
920.271
288.941
-287.326
-633.389
-1016.53
-1334.51
-1641.5
-1957.96
-2237.31
-2524.16
-2788.44
-3121.48
-3391.05
-4040.06
-4235.4
-4239.52
-4314.95
-3953.44
-3209.56
-2423.32
-1733.12
-1238.73
-782.879
-720.737
-473.927
-939.375
-458.101
-1462.54
-120.609
-3123.58
-1223.68
-2039.57
-1892.33
-1893.1
-1874.32
-1870.23
-1869.26
-1875.4
-1884.7
-1899.96
-1918.55
-1941.74
-1967.91
-1998.9
-2034.49
-2071.49
-2113.45
-2159.36
-2209.8
-2264.78
-2320.55
-2381.32
-2454.93
-2525.74
-2598.13
-2673.53
-2756.3
-2850.66
-2957.76
-3062.82
-3170.29
-3255
-3395.2
-3422.16
-3524.37
-3584.24
-3425.06
-3947.19
-2065.46
-39702.4
-33852.8
-3881.55
-4712.8
-2746.32
7328.12
36269.1
87107.7
157944
123506
77373.9
49721.3
33526.5
24166.3
18319.4
14953.7
12921.6
12021
11481.1
11228.2
10931.6
10643.4
10166.4
10027.1
9824.37
9726.4
9593.6
9449.72
9233.18
8887.36
8486.55
8002.58
7379.45
6809.37
6392.25
6490.48
7017.48
7726.54
8604.28
9186.75
9828.79
9672.38
9106.36
8714.34
7699.06
6438.19
5321.41
3895.7
3160.53
1597.7
1032.28
497.404
-212.133
-530.408
-991.144
-1403.66
-1734.09
-2129.71
-2384.71
-2679.57
-2920.97
-3223.42
-3579.3
-4053.17