/*--------------------------------*- C++ -*----------------------------------*\
| =========                 |                                                 |
| \\      /  F ield         | OpenFOAM: The Open Source CFD Toolbox           |
|  \\    /   O peration     | Version:  2.2.x                                 |
|   \\  /    A nd           | Web:      www.OpenFOAM.org                      |
|    \\/     M anipulation  |                                                 |
\*---------------------------------------------------------------------------*/
FoamFile
{
    version     2.0;
    format      ascii;
    class       volVectorField;
    location    "2.9";
    object      U;
}
// * * * * * * * * * * * * * * * * * * * * * * * * * * * * * * * * * * * * * //

dimensions      [0 1 -1 0 0 0 0];

internalField   nonuniform List<vector> 
14161
(
(1.50506 -2.15486e-06 2.25012e-22)
(1.50408 6.90902e-07 -4.44383e-22)
(1.50428 2.65338e-06 -3.85663e-22)
(1.50436 3.7827e-06 -1.16079e-21)
(1.50451 -1.77718e-06 -1.44503e-21)
(1.5047 -5.48413e-06 -1.99122e-21)
(1.50489 1.9683e-06 -8.84133e-22)
(1.50509 4.82126e-06 -1.39335e-21)
(1.50534 -6.03073e-07 -6.63079e-22)
(1.5056 -3.4797e-06 -1.38128e-21)
(1.50585 1.80954e-06 -1.31004e-21)
(1.50612 1.3152e-06 -1.39186e-21)
(1.50641 2.30904e-07 -1.57939e-21)
(1.5067 1.17248e-06 -1.30758e-21)
(1.50696 3.36465e-06 -1.87935e-21)
(1.50725 -4.41699e-07 -1.53108e-21)
(1.50752 -1.52125e-07 -1.62408e-21)
(1.50781 -3.91547e-08 -1.85811e-21)
(1.50805 1.08971e-06 -1.61484e-21)
(1.50822 3.42844e-06 -2.248e-21)
(1.50834 3.84278e-06 -2.10369e-21)
(1.50844 1.94785e-06 -1.93328e-21)
(1.50856 -1.64588e-06 -2.23947e-21)
(1.50871 8.2339e-07 -1.94594e-21)
(1.50874 2.03115e-06 -2.22105e-21)
(1.50873 3.30666e-06 -1.88364e-21)
(1.50867 5.51544e-06 -1.94639e-21)
(1.50856 4.63586e-06 -1.91117e-21)
(1.5084 2.78654e-06 -1.91533e-21)
(1.5081 4.61296e-06 -1.83063e-21)
(1.50775 3.55456e-06 -1.55699e-21)
(1.50737 1.38805e-05 -1.59747e-21)
(1.50684 1.78242e-05 -1.49762e-21)
(1.50636 4.61483e-06 -1.45991e-21)
(1.50572 8.34607e-06 -1.37184e-21)
(1.50494 2.58968e-05 -1.39991e-21)
(1.50396 4.88013e-05 -1.28801e-21)
(1.50283 5.02064e-05 -1.22446e-21)
(1.50125 9.30589e-05 -1.32757e-21)
(1.4987 0.000445698 -5.39664e-22)
(1.49586 0.000648278 -2.5207e-21)
(1.49105 0.000356698 1.95823e-21)
(1.48521 0.00239261 2.44279e-20)
(0.948959 0.0418758 -5.55191e-18)
(0.512405 0.0252227 -5.91578e-18)
(0.480457 -0.0127965 -3.2413e-18)
(0.509445 -0.0234396 -8.37011e-19)
(0.539539 -0.0255358 4.99188e-19)
(0.568891 -0.0177557 4.99757e-19)
(0.594219 -0.0136268 5.21957e-19)
(0.61685 -0.0110526 5.23643e-19)
(0.637585 -0.00986895 5.37035e-19)
(0.657012 -0.00877357 5.4106e-19)
(0.674782 -0.00731166 5.47362e-19)
(0.69009 -0.00604671 5.53024e-19)
(0.702824 -0.00509542 5.47395e-19)
(0.713088 -0.00438951 5.44899e-19)
(0.72168 -0.00385198 5.17976e-19)
(0.72879 -0.0034118 5.20031e-19)
(0.73511 -0.00310985 4.91419e-19)
(0.74082 -0.00284957 4.96657e-19)
(0.746071 -0.00255308 4.72624e-19)
(0.750703 -0.00223391 4.52876e-19)
(0.754767 -0.00186572 4.30319e-19)
(0.758154 -0.00158411 4.35834e-19)
(0.760964 -0.00117871 4.29426e-19)
(0.76293 -0.00091527 4.42505e-19)
(0.764283 -0.000734849 4.65195e-19)
(0.765331 -0.00070909 4.65789e-19)
(0.766382 -0.000598535 5.07464e-19)
(0.767953 -0.000536785 5.69994e-19)
(0.769257 -0.000644139 6.14343e-19)
(0.770328 -0.000798521 6.41127e-19)
(0.771429 -0.000845773 7.01478e-19)
(0.77346 -0.00105631 7.63014e-19)
(0.775186 -0.00106246 7.88395e-19)
(0.776706 -0.000980725 8.45225e-19)
(0.777909 -0.000820329 8.87779e-19)
(0.778973 -0.000780366 9.44921e-19)
(0.779962 -0.000736713 9.77622e-19)
(0.781026 -0.00102495 1.02599e-18)
(0.783984 -0.00130487 1.03606e-18)
(0.78599 -0.0014638 1.10303e-18)
(0.787607 -0.00160511 1.13273e-18)
(0.79172 -0.00189036 1.16459e-18)
(0.794238 -0.00191086 1.21081e-18)
(0.796735 -0.00220159 1.28668e-18)
(0.803987 -0.00232791 1.33133e-18)
(0.807916 -0.00189703 1.43981e-18)
(0.811211 -0.00186534 1.44214e-18)
(0.814582 -0.00167879 1.50246e-18)
(0.817366 -0.00160464 1.51204e-18)
(0.819258 -0.00138552 1.50128e-18)
(0.82041 -0.00149292 1.50686e-18)
(0.827373 -0.00233065 1.36552e-18)
(0.831327 -0.00213302 1.35275e-18)
(0.834031 -0.00167096 1.17863e-18)
(0.834476 -0.00172335 8.79961e-19)
(0.84454 -0.0032073 9.33017e-19)
(0.852305 -0.00311622 1.07777e-18)
(0.865209 -0.00313355 9.82715e-19)
(0.876584 -0.00269422 8.7272e-19)
(0.894403 -0.00269656 8.91764e-19)
(0.918533 -0.00218458 1.1367e-18)
(0.943693 -0.00155498 1.16811e-18)
(0.969024 -0.00137796 2.1353e-18)
(0.978544 -0.00161449 2.9882e-18)
(0.981892 -0.00319644 5.4304e-18)
(0.98606 -0.00428539 2.69564e-17)
(0.991743 -0.0107876 5.37242e-17)
(0.928615 0.00516049 1.09512e-16)
(0.871146 0.0267684 6.50088e-17)
(0.736717 0.0665467 6.58532e-17)
(0.614935 0.0799336 4.7596e-17)
(0.515743 0.0833588 5.36238e-17)
(0.414188 0.084351 3.94247e-17)
(0.320192 0.0979186 6.06506e-17)
(0.208071 0.114473 4.32888e-17)
(0.106298 0.109512 9.38732e-17)
(1.50507 -3.07038e-06 -4.66064e-22)
(1.50409 1.19132e-06 1.67662e-21)
(1.50429 1.16307e-06 2.39733e-21)
(1.50439 1.8397e-06 2.49051e-22)
(1.50452 -5.02073e-07 -4.1062e-23)
(1.50467 -1.20654e-06 5.70211e-23)
(1.5049 -1.0509e-07 -2.11226e-22)
(1.50513 1.99417e-07 1.25955e-23)
(1.50535 3.69942e-07 6.54875e-22)
(1.50558 4.37858e-07 1.04902e-22)
(1.50586 -9.98451e-08 1.88165e-22)
(1.50615 -2.5856e-06 3.24545e-23)
(1.50642 9.99465e-07 7.92577e-22)
(1.5067 4.66007e-06 -1.28658e-21)
(1.50698 1.42608e-06 -1.73695e-21)
(1.50726 -3.03781e-07 -1.10552e-21)
(1.50753 1.02288e-06 -1.12566e-21)
(1.50782 -1.11227e-07 -2.14958e-21)
(1.50806 2.65937e-06 -1.60707e-21)
(1.50823 6.43728e-06 -2.92487e-21)
(1.50835 8.89776e-06 -2.68442e-21)
(1.50846 5.44268e-06 -3.17911e-21)
(1.50857 -2.22085e-06 -4.01584e-21)
(1.50871 3.07802e-06 -3.79461e-21)
(1.50875 4.34797e-06 -2.85794e-21)
(1.50874 6.56013e-06 -2.49287e-21)
(1.50868 8.23233e-06 -3.42595e-21)
(1.50857 1.07592e-05 -3.25412e-21)
(1.50841 1.27161e-05 -3.6691e-21)
(1.50808 1.06694e-05 -2.66171e-21)
(1.50774 1.20998e-05 -3.47707e-21)
(1.50741 1.87798e-05 -2.75972e-21)
(1.50697 3.39046e-05 -2.58417e-21)
(1.50636 2.95035e-05 -2.71418e-21)
(1.50568 2.50238e-05 -2.65641e-21)
(1.50504 4.50306e-05 -2.39185e-21)
(1.50425 6.47371e-05 -2.6789e-21)
(1.50298 0.000142535 -2.57021e-21)
(1.50181 0.000202761 -2.37745e-21)
(1.50024 0.000240551 -2.46014e-21)
(1.49853 0.000698113 -2.19757e-21)
(1.49643 -0.000454476 -5.17712e-21)
(1.49118 0.00478821 2.06846e-20)
(1.03859 0.097825 -5.64775e-18)
(0.559477 0.0309636 -7.72663e-18)
(0.526036 -0.0115189 -4.21009e-18)
(0.55085 -0.0226983 -2.55048e-18)
(0.569123 -0.0278449 -5.47834e-19)
(0.590501 -0.0256082 2.82329e-19)
(0.612078 -0.0223981 3.26474e-19)
(0.632621 -0.019774 3.29779e-19)
(0.65305 -0.0183742 3.31446e-19)
(0.672173 -0.0160692 3.02903e-19)
(0.690958 -0.01305 2.91338e-19)
(0.70729 -0.0104972 2.66153e-19)
(0.721113 -0.00866621 2.42711e-19)
(0.732684 -0.00730069 2.11314e-19)
(0.742604 -0.00622344 1.60208e-19)
(0.750767 -0.00546961 1.41267e-19)
(0.758223 -0.0050921 8.41328e-20)
(0.764793 -0.00435572 7.46676e-20)
(0.770776 -0.00356924 4.31107e-20)
(0.776053 -0.0028224 1.64826e-20)
(0.780606 -0.0023917 -2.41612e-20)
(0.784685 -0.00199804 -4.36562e-20)
(0.787914 -0.00151406 -4.45606e-20)
(0.790374 -0.00118084 -5.42147e-20)
(0.792212 -0.00100476 -4.24504e-20)
(0.793612 -0.000982603 -4.31339e-20)
(0.794735 -0.000761761 -3.21958e-20)
(0.796594 -0.000562406 1.36662e-20)
(0.79806 -0.000698672 5.50202e-20)
(0.799258 -0.000843386 1.00558e-19)
(0.800373 -0.000891291 1.46647e-19)
(0.802254 -0.00128479 1.91891e-19)
(0.803853 -0.00130963 2.31027e-19)
(0.805182 -0.00120427 2.78618e-19)
(0.806264 -0.00104698 3.24981e-19)
(0.807368 -0.000913444 3.85996e-19)
(0.80832 -0.000904109 4.26654e-19)
(0.809233 -0.00127944 4.89765e-19)
(0.811902 -0.00173806 5.11065e-19)
(0.813494 -0.00195362 5.81977e-19)
(0.815048 -0.00208455 6.37144e-19)
(0.818616 -0.00262199 6.50995e-19)
(0.820597 -0.00272643 7.15774e-19)
(0.822663 -0.00315555 7.5477e-19)
(0.8292 -0.00344464 7.67235e-19)
(0.832703 -0.00279798 9.7947e-19)
(0.835732 -0.0027262 9.53726e-19)
(0.838854 -0.00243955 1.03934e-18)
(0.841461 -0.00230595 1.09779e-18)
(0.843078 -0.00197765 1.09452e-18)
(0.844767 -0.00191488 1.18979e-18)
(0.851571 -0.00300048 1.14026e-18)
(0.855146 -0.00291976 1.07927e-18)
(0.857206 -0.00220093 1.08894e-18)
(0.859285 -0.00174364 7.98134e-19)
(0.869087 -0.00375359 7.25312e-19)
(0.875885 -0.00402393 7.70961e-19)
(0.888349 -0.00421417 8.20991e-19)
(0.900802 -0.00341214 6.51288e-19)
(0.915431 -0.00278435 6.03489e-19)
(0.938684 -0.00284022 5.2615e-19)
(0.961797 -0.00228843 7.54985e-19)
(0.987565 -0.00193289 1.78695e-18)
(0.997063 -0.0027352 1.95958e-18)
(1.0001 -0.00361874 7.38617e-18)
(1.0061 -0.00608687 1.88368e-17)
(0.945065 -0.0114436 5.24353e-17)
(0.800061 0.0166876 7.28798e-17)
(0.63947 0.0516716 4.44769e-17)
(0.500492 0.0931036 3.9472e-17)
(0.378006 0.0907346 2.53554e-17)
(0.293474 0.0935506 4.00986e-17)
(0.221376 0.0951145 3.06641e-17)
(0.170029 0.108858 6.10841e-17)
(0.107603 0.128811 5.00159e-17)
(0.0927414 0.206428 8.72048e-17)
(1.50507 -4.97727e-06 1.43221e-21)
(1.50409 1.63669e-06 -1.2116e-21)
(1.50429 1.05297e-06 -1.56276e-21)
(1.50438 2.05563e-06 -2.41613e-21)
(1.50452 7.7378e-07 -2.46962e-21)
(1.5047 2.64648e-07 -2.68799e-21)
(1.50489 -2.19613e-07 -2.80216e-21)
(1.50509 6.60299e-07 -1.96901e-21)
(1.50536 -8.28633e-07 -1.37929e-21)
(1.50562 -5.13714e-07 -8.59527e-22)
(1.50586 1.24876e-06 1.17812e-21)
(1.50612 -1.37106e-06 -2.6809e-21)
(1.50642 -1.67112e-07 -2.69771e-21)
(1.50672 3.17704e-06 -1.03464e-21)
(1.50698 1.7642e-06 -4.1677e-24)
(1.50725 2.6774e-06 -3.8131e-22)
(1.50754 2.93886e-07 -6.60392e-23)
(1.50782 4.41115e-07 -7.25362e-22)
(1.50806 6.88642e-06 1.04518e-21)
(1.50823 1.24326e-05 8.31558e-22)
(1.50836 1.69037e-05 -2.39693e-21)
(1.50847 1.01996e-05 -3.75476e-21)
(1.50858 -2.83495e-06 -1.20802e-21)
(1.50873 5.27071e-06 -3.87534e-21)
(1.50877 7.32062e-06 -6.34714e-21)
(1.50876 1.25907e-05 -5.49434e-21)
(1.50871 1.4002e-05 -5.79598e-21)
(1.50861 1.84727e-05 -6.36279e-21)
(1.50846 2.08481e-05 -5.58192e-21)
(1.50813 2.6545e-05 -3.94267e-21)
(1.50783 3.62852e-05 -4.1922e-21)
(1.50741 3.20847e-05 -3.65519e-21)
(1.50701 4.52868e-05 -4.48382e-21)
(1.50656 5.61783e-05 -3.72458e-21)
(1.50591 6.2033e-05 -4.11349e-21)
(1.5051 5.97098e-05 -3.76463e-21)
(1.50432 0.000108643 -3.65565e-21)
(1.5035 0.00026934 -3.76931e-21)
(1.50245 0.000338471 -3.07241e-21)
(1.50058 0.00031818 -2.9548e-21)
(1.49953 0.0014456 -1.61655e-21)
(1.49841 -6.33874e-05 -6.56514e-21)
(1.49271 0.0091068 -1.17404e-20)
(1.16771 0.146598 -4.82175e-18)
(0.602912 0.0503186 -9.22942e-18)
(0.557255 -0.0274126 -6.40761e-18)
(0.589836 -0.0530899 -5.07234e-18)
(0.609201 -0.0549037 -2.30746e-18)
(0.630119 -0.0495415 -9.8161e-19)
(0.650965 -0.0441439 -8.43219e-19)
(0.672281 -0.0378701 -8.1055e-19)
(0.69148 -0.0315664 -7.44847e-19)
(0.709864 -0.0268355 -6.88782e-19)
(0.727827 -0.0218055 -6.95642e-19)
(0.742864 -0.017344 -6.82097e-19)
(0.756117 -0.0142681 -6.9729e-19)
(0.767073 -0.0119129 -6.75602e-19)
(0.776109 -0.00991887 -6.97731e-19)
(0.783519 -0.00871278 -6.79986e-19)
(0.790363 -0.00788364 -6.91603e-19)
(0.796436 -0.00764756 -6.92274e-19)
(0.801765 -0.00705194 -6.87445e-19)
(0.806252 -0.00616505 -6.7707e-19)
(0.810099 -0.00534063 -7.2253e-19)
(0.813207 -0.00445727 -7.03133e-19)
(0.815811 -0.00340116 -6.95084e-19)
(0.818002 -0.0025589 -6.8576e-19)
(0.819204 -0.00183248 -6.58522e-19)
(0.820315 -0.0015986 -6.34098e-19)
(0.82101 -0.00126029 -6.13396e-19)
(0.82288 -0.00102362 -5.68626e-19)
(0.823979 -0.00124293 -5.23632e-19)
(0.825057 -0.00147833 -4.62711e-19)
(0.826042 -0.0015192 -4.16258e-19)
(0.827476 -0.00195529 -3.72129e-19)
(0.828994 -0.00203078 -3.22023e-19)
(0.830146 -0.0019698 -2.86425e-19)
(0.831044 -0.00188505 -2.18597e-19)
(0.832049 -0.00179271 -1.64415e-19)
(0.832853 -0.00182702 -9.7425e-20)
(0.833541 -0.00227306 -4.08624e-20)
(0.835923 -0.0030326 3.1502e-21)
(0.837224 -0.00346206 7.11099e-20)
(0.838675 -0.00377178 1.54658e-19)
(0.841759 -0.00459137 1.73008e-19)
(0.843359 -0.00470336 2.36596e-19)
(0.844858 -0.00529801 2.95852e-19)
(0.851271 -0.00592379 3.05069e-19)
(0.8542 -0.00527598 4.84463e-19)
(0.856857 -0.00511343 5.12168e-19)
(0.859539 -0.00468717 5.72804e-19)
(0.861893 -0.00453858 6.73033e-19)
(0.863318 -0.00397075 6.53236e-19)
(0.864896 -0.004054 7.71826e-19)
(0.870987 -0.00583263 7.12599e-19)
(0.874423 -0.00559741 7.18129e-19)
(0.876037 -0.00458457 7.21154e-19)
(0.878032 -0.00422256 4.82938e-19)
(0.886692 -0.0073646 4.17381e-19)
(0.89265 -0.00760451 4.8171e-19)
(0.903681 -0.00820565 5.80285e-19)
(0.91398 -0.00725428 4.93755e-19)
(0.930768 -0.00487687 4.16631e-19)
(0.950846 -0.00427817 4.31501e-19)
(0.97113 -0.00189322 7.09086e-19)
(0.995417 -0.00265814 1.78077e-18)
(1.00061 -0.00558639 2.74375e-18)
(0.999094 -0.00921735 7.18354e-18)
(0.940422 -0.0107591 2.08454e-17)
(0.777167 0.0214592 3.49518e-17)
(0.614269 0.127013 3.45799e-17)
(0.464929 0.17272 2.30455e-17)
(0.354125 0.20432 2.53412e-17)
(0.263686 0.186117 1.75232e-17)
(0.199302 0.1712 3.31004e-17)
(0.14635 0.154924 3.23406e-17)
(0.104106 0.171232 6.19637e-17)
(0.0571215 0.181567 5.38367e-17)
(0.0559753 0.288848 8.52658e-17)
(1.50507 -6.69792e-06 -7.551e-22)
(1.50409 1.45048e-06 4.87501e-22)
(1.5043 3.60222e-07 3.06812e-21)
(1.50439 1.12947e-06 1.78636e-21)
(1.50452 2.67078e-06 3.07252e-22)
(1.50467 1.4705e-06 -1.10853e-21)
(1.5049 -1.21341e-06 -6.29466e-22)
(1.50514 2.14559e-07 -4.06958e-22)
(1.50535 -1.21688e-06 4.22513e-22)
(1.50559 -1.53297e-07 5.22239e-23)
(1.50587 1.16285e-06 -2.1343e-21)
(1.50616 -1.8601e-06 -2.92727e-21)
(1.50642 -1.12662e-06 -3.42345e-21)
(1.5067 4.15038e-06 -1.98194e-21)
(1.50699 3.28186e-06 1.1879e-21)
(1.50727 4.0114e-06 1.97157e-21)
(1.50754 -1.86334e-06 1.93114e-21)
(1.50783 4.67112e-07 8.48482e-22)
(1.50807 1.01172e-05 -6.15228e-21)
(1.50825 1.82227e-05 1.46668e-21)
(1.50838 2.45404e-05 3.58786e-21)
(1.50849 1.66227e-05 5.20634e-21)
(1.5086 -4.85097e-07 3.3264e-21)
(1.50876 3.49687e-06 6.0006e-21)
(1.5088 9.11648e-06 6.61337e-21)
(1.5088 1.82269e-05 2.07037e-21)
(1.50875 2.01799e-05 5.31071e-21)
(1.50866 2.58275e-05 1.01e-20)
(1.50851 2.72825e-05 8.92206e-21)
(1.50822 3.84327e-05 5.8538e-21)
(1.50793 4.32524e-05 6.80465e-21)
(1.5076 6.18136e-05 7.3964e-21)
(1.50719 6.56867e-05 7.6195e-21)
(1.50666 6.33529e-05 7.33939e-21)
(1.50609 7.60979e-05 7.93565e-21)
(1.50546 0.000110918 7.98096e-21)
(1.50477 0.000122383 7.3513e-21)
(1.5042 0.000189169 7.51769e-21)
(1.50357 0.000307136 8.65862e-21)
(1.50433 0.000400755 9.27653e-21)
(1.50588 0.000668374 7.01795e-21)
(1.51116 0.000604149 1.50858e-20)
(1.51802 0.00181705 3.49013e-20)
(1.45009 0.042839 3.67157e-18)
(0.832022 -0.00768544 -1.25044e-17)
(0.693084 -0.031158 -1.01943e-17)
(0.697046 -0.0470919 -5.20056e-18)
(0.695608 -0.0515913 -4.44177e-18)
(0.699781 -0.0500267 -2.83515e-18)
(0.706436 -0.0467904 -1.85547e-18)
(0.715679 -0.0420634 -1.31389e-18)
(0.723721 -0.0381732 -9.72821e-19)
(0.737084 -0.0347121 -7.99885e-19)
(0.748384 -0.0295443 -7.02351e-19)
(0.759417 -0.0236881 -6.48217e-19)
(0.768714 -0.019621 -5.73185e-19)
(0.776691 -0.0162902 -5.11295e-19)
(0.783181 -0.0135322 -4.89997e-19)
(0.788684 -0.011883 -4.57412e-19)
(0.792732 -0.0109383 -4.51384e-19)
(0.79593 -0.0112741 -4.08693e-19)
(0.800329 -0.0105247 -3.72754e-19)
(0.804139 -0.00925378 -3.72809e-19)
(0.807211 -0.00805249 -3.4701e-19)
(0.809693 -0.0067764 -3.35021e-19)
(0.811959 -0.00531625 -3.01302e-19)
(0.813614 -0.00394048 -2.76238e-19)
(0.814669 -0.00265051 -2.51787e-19)
(0.814996 -0.00244171 -1.91418e-19)
(0.815435 -0.00191347 -2.07288e-19)
(0.816971 -0.00149062 -1.22833e-19)
(0.81804 -0.00173613 -8.67253e-20)
(0.818781 -0.00204715 -1.13285e-20)
(0.819561 -0.00214218 5.19636e-20)
(0.820871 -0.00241492 7.77093e-20)
(0.822182 -0.00272343 1.14531e-19)
(0.823142 -0.00266745 1.72406e-19)
(0.823895 -0.00264771 2.34885e-19)
(0.824856 -0.0025467 2.7157e-19)
(0.825786 -0.00248059 3.2879e-19)
(0.826507 -0.00301752 3.84843e-19)
(0.828472 -0.00419307 4.28657e-19)
(0.829834 -0.00505393 4.9395e-19)
(0.831736 -0.00537421 5.47237e-19)
(0.834565 -0.00649835 5.67647e-19)
(0.836396 -0.00660792 6.23744e-19)
(0.838047 -0.00733059 6.51467e-19)
(0.844216 -0.00874867 6.67079e-19)
(0.847151 -0.00809111 8.54207e-19)
(0.849972 -0.00783317 8.50495e-19)
(0.852821 -0.00721239 9.06463e-19)
(0.855117 -0.00715522 9.96066e-19)
(0.856878 -0.00648139 9.51434e-19)
(0.859122 -0.00650767 1.04109e-18)
(0.864556 -0.00916211 9.78439e-19)
(0.867767 -0.00886351 9.84233e-19)
(0.86944 -0.00784864 9.18564e-19)
(0.873712 -0.00668798 7.46894e-19)
(0.879948 -0.0113811 6.88435e-19)
(0.886674 -0.0120159 7.97488e-19)
(0.897611 -0.0125098 8.66605e-19)
(0.907734 -0.011101 7.84728e-19)
(0.927375 -0.00837609 8.42133e-19)
(0.947767 -0.00444751 7.53298e-19)
(0.966053 -0.0001429 1.49587e-18)
(0.987722 -0.00179308 1.95074e-18)
(0.982955 -0.00670518 4.54716e-18)
(0.899612 -0.00941585 9.86856e-18)
(0.724617 0.0348968 1.52766e-17)
(0.545711 0.134807 1.47969e-17)
(0.394761 0.200137 1.77805e-17)
(0.30006 0.234894 1.02067e-17)
(0.238521 0.250472 1.57525e-17)
(0.187244 0.228188 1.23717e-17)
(0.144618 0.208887 2.96686e-17)
(0.107031 0.190093 3.43701e-17)
(0.0774961 0.208065 6.50795e-17)
(0.0430853 0.20881 5.64661e-17)
(0.043149 0.328603 8.86655e-17)
(1.50507 -9.70706e-06 -8.99792e-22)
(1.50409 1.79442e-06 1.64754e-21)
(1.50429 1.716e-06 -2.88456e-21)
(1.50437 3.03634e-06 1.60049e-21)
(1.50453 1.88261e-06 2.8912e-21)
(1.50472 1.39104e-06 7.99929e-21)
(1.5049 -1.53549e-06 8.1496e-21)
(1.5051 2.99142e-07 4.48404e-21)
(1.50536 -1.53778e-06 9.33019e-21)
(1.50563 1.15949e-07 5.09614e-21)
(1.50587 1.01297e-06 -4.19897e-21)
(1.50613 -1.39644e-06 9.11678e-21)
(1.50643 -1.66802e-06 6.68945e-21)
(1.50673 3.69914e-06 6.72364e-21)
(1.507 3.2569e-06 2.18299e-21)
(1.50728 2.96706e-06 4.12643e-21)
(1.50755 2.08672e-06 1.25398e-20)
(1.50783 1.10401e-06 1.18468e-20)
(1.50808 1.0404e-05 1.66519e-20)
(1.50827 2.25777e-05 4.77259e-21)
(1.50841 2.93452e-05 4.54781e-21)
(1.50853 2.11349e-05 4.67622e-21)
(1.50865 4.26327e-06 5.5349e-22)
(1.50879 2.73012e-06 2.78684e-22)
(1.50885 1.1275e-05 2.18083e-21)
(1.50885 1.99407e-05 6.38247e-21)
(1.50882 2.4139e-05 5.76069e-21)
(1.50874 3.28406e-05 2.75935e-21)
(1.50863 4.27712e-05 5.55498e-21)
(1.50835 5.0417e-05 1.08823e-20)
(1.50805 4.93692e-05 1.05664e-20)
(1.50772 5.51005e-05 8.68373e-21)
(1.50742 8.4292e-05 9.55484e-21)
(1.50704 0.000105093 7.46521e-21)
(1.50642 9.77409e-05 6.2001e-21)
(1.50577 8.58295e-05 8.50127e-21)
(1.50504 0.000125459 8.22401e-21)
(1.50437 9.23183e-05 7.71816e-21)
(1.50385 0.000126015 8.82202e-21)
(1.50288 0.000162981 7.25392e-21)
(1.50189 -0.000242831 8.56251e-21)
(1.50172 0.000163986 -1.20849e-21)
(1.49887 -0.00638452 -2.61077e-20)
(1.27515 -0.102382 -7.99143e-18)
(0.651443 -0.0774713 -1.08624e-17)
(0.592114 -0.053996 -8.52127e-18)
(0.604946 -0.0576199 -5.12991e-18)
(0.616237 -0.0590515 -2.39933e-18)
(0.627437 -0.056176 -1.26809e-18)
(0.636941 -0.0504566 -5.83732e-19)
(0.651893 -0.0454541 -3.45472e-19)
(0.665753 -0.0412924 7.14519e-20)
(0.684332 -0.0388944 1.19154e-19)
(0.699191 -0.0329824 1.84504e-19)
(0.714573 -0.0266362 2.28652e-19)
(0.727489 -0.0223781 2.68736e-19)
(0.738946 -0.0188707 2.92741e-19)
(0.748635 -0.0161265 3.03227e-19)
(0.756225 -0.014222 2.7688e-19)
(0.762776 -0.0129073 2.63541e-19)
(0.768608 -0.011619 2.49373e-19)
(0.774619 -0.0103849 2.78702e-19)
(0.779773 -0.00894293 2.48324e-19)
(0.78438 -0.00784045 2.48305e-19)
(0.788099 -0.00667427 2.43294e-19)
(0.791491 -0.00544753 2.63853e-19)
(0.794392 -0.00414407 2.74484e-19)
(0.796389 -0.00300045 3.17517e-19)
(0.797399 -0.00274129 3.35045e-19)
(0.798013 -0.00231313 3.74818e-19)
(0.800789 -0.00170693 4.11759e-19)
(0.801777 -0.00206579 4.2513e-19)
(0.802672 -0.00219642 5.32765e-19)
(0.803668 -0.00210716 5.85584e-19)
(0.804801 -0.00239383 5.67667e-19)
(0.806241 -0.00262203 6.35656e-19)
(0.807172 -0.00250066 6.41331e-19)
(0.808032 -0.00253383 7.67324e-19)
(0.808932 -0.00255097 7.57456e-19)
(0.810263 -0.00245564 8.18054e-19)
(0.811555 -0.00300316 8.76191e-19)
(0.81374 -0.0042606 9.22228e-19)
(0.815335 -0.00572598 1.0121e-18)
(0.817342 -0.00536236 1.0082e-18)
(0.820563 -0.00602859 1.06284e-18)
(0.822696 -0.00616054 1.05406e-18)
(0.824628 -0.00694649 1.12916e-18)
(0.831046 -0.00840242 1.14211e-18)
(0.834216 -0.00761025 1.25891e-18)
(0.837362 -0.00717753 1.35426e-18)
(0.84052 -0.00654893 1.29321e-18)
(0.84286 -0.00651335 1.48849e-18)
(0.844942 -0.00607684 1.40552e-18)
(0.847751 -0.00631999 1.50348e-18)
(0.853886 -0.00881148 1.43219e-18)
(0.856931 -0.00812083 1.49166e-18)
(0.85911 -0.00730362 1.3968e-18)
(0.866194 -0.00646539 1.22716e-18)
(0.871505 -0.0111143 1.27485e-18)
(0.878982 -0.0114449 1.43622e-18)
(0.890841 -0.0119805 1.53039e-18)
(0.903525 -0.0100169 1.45998e-18)
(0.926405 -0.00733518 1.54511e-18)
(0.945139 -0.00473931 1.64785e-18)
(0.967675 6.5667e-06 2.1106e-18)
(0.970685 -0.00306515 3.43729e-18)
(0.878763 0.000554445 6.0719e-18)
(0.692122 0.0673283 7.15794e-18)
(0.501305 0.160308 8.29836e-18)
(0.369586 0.242079 4.92179e-18)
(0.292579 0.285041 9.15685e-18)
(0.230183 0.289957 3.71471e-18)
(0.186142 0.292007 1.1072e-17)
(0.150755 0.268202 8.07205e-18)
(0.116468 0.247539 2.57451e-17)
(0.0877018 0.216809 3.3433e-17)
(0.0687409 0.237908 5.83454e-17)
(0.0455539 0.231375 5.46792e-17)
(0.0444002 0.359147 8.72657e-17)
(1.50507 -1.11433e-05 8.14761e-22)
(1.50409 1.78939e-06 -4.93969e-22)
(1.5043 2.80714e-06 8.28563e-22)
(1.50439 4.59078e-06 -3.6962e-21)
(1.50453 1.3967e-06 -7.74021e-21)
(1.50468 1.1851e-06 -1.64403e-20)
(1.50491 -2.26797e-06 -1.23772e-20)
(1.50515 1.02893e-06 -8.45488e-21)
(1.50536 -1.54446e-06 -2.19547e-20)
(1.50559 1.62785e-07 -1.51847e-20)
(1.50588 1.04725e-06 -1.40356e-21)
(1.50617 -2.42894e-07 -2.25396e-20)
(1.50643 -1.89111e-06 -2.53607e-20)
(1.50672 2.72065e-06 -1.38022e-20)
(1.50701 5.07748e-06 -1.24791e-20)
(1.50729 5.72263e-06 -1.38108e-20)
(1.50757 4.72131e-06 -2.8815e-20)
(1.50784 2.45915e-06 -5.34906e-21)
(1.50809 1.16329e-05 -1.54946e-20)
(1.50829 2.77575e-05 -2.03964e-20)
(1.50844 3.41719e-05 -1.64348e-20)
(1.50857 2.75497e-05 -1.49771e-20)
(1.5087 9.89238e-06 -1.00475e-20)
(1.50882 1.01899e-06 -8.42283e-21)
(1.5089 1.32803e-05 -5.37912e-21)
(1.50892 2.22696e-05 2.45411e-22)
(1.5089 2.90628e-05 2.17706e-21)
(1.50884 3.70411e-05 1.03268e-21)
(1.50874 4.49794e-05 8.04981e-22)
(1.50854 6.75748e-05 -1.70518e-21)
(1.50825 7.23548e-05 -9.13804e-22)
(1.50797 8.14969e-05 -2.51027e-21)
(1.50764 8.00488e-05 -2.2289e-21)
(1.50733 9.24644e-05 -3.30449e-21)
(1.50689 0.000125598 -3.03623e-21)
(1.50617 0.000137562 -2.65466e-21)
(1.50548 0.000166833 -2.57427e-21)
(1.50481 0.000128733 -2.02817e-21)
(1.50434 9.4919e-05 -1.80071e-21)
(1.50359 0.000150626 -4.94161e-21)
(1.50256 -0.000120567 2.83583e-21)
(1.49953 9.45571e-05 -1.42861e-20)
(1.4942 -0.00248359 2.65342e-20)
(1.08495 -0.0977696 -1.09678e-17)
(0.573004 -0.0794127 -1.35495e-17)
(0.531385 -0.0565894 -6.02377e-18)
(0.555391 -0.058112 -2.87055e-18)
(0.575826 -0.0658062 -1.45202e-18)
(0.598173 -0.0656925 -5.32492e-19)
(0.61839 -0.0643743 -5.40037e-20)
(0.637715 -0.0628428 8.139e-20)
(0.65734 -0.0604852 2.83638e-19)
(0.679271 -0.0575383 2.61043e-19)
(0.698884 -0.0506057 2.82792e-19)
(0.716754 -0.0420354 3.05072e-19)
(0.733176 -0.0352483 2.87341e-19)
(0.746808 -0.0289949 2.9845e-19)
(0.758293 -0.023622 3.03182e-19)
(0.767167 -0.0202078 3.27641e-19)
(0.774614 -0.0180267 3.35323e-19)
(0.781467 -0.017172 3.21237e-19)
(0.787847 -0.0151765 3.36953e-19)
(0.793638 -0.0131096 3.51696e-19)
(0.798449 -0.0115787 3.3742e-19)
(0.80249 -0.00984617 3.20705e-19)
(0.805985 -0.00856984 3.39538e-19)
(0.808211 -0.00669781 3.36202e-19)
(0.810558 -0.00556797 4.00923e-19)
(0.812122 -0.00510288 4.14629e-19)
(0.811819 -0.00424255 4.45299e-19)
(0.815114 -0.00371488 4.90975e-19)
(0.81613 -0.00382633 4.96425e-19)
(0.816977 -0.0036608 5.61974e-19)
(0.81785 -0.00329978 6.45964e-19)
(0.818956 -0.00342274 6.29385e-19)
(0.820243 -0.00370468 6.73359e-19)
(0.820898 -0.00366987 7.06708e-19)
(0.821115 -0.00404331 7.70737e-19)
(0.821817 -0.00441055 7.9588e-19)
(0.822906 -0.00480088 9.11456e-19)
(0.824196 -0.00551952 9.41597e-19)
(0.825007 -0.0071446 1.01029e-18)
(0.825409 -0.00853662 1.03875e-18)
(0.828864 -0.00794334 1.13841e-18)
(0.831995 -0.00834941 1.14938e-18)
(0.833866 -0.00845356 1.15983e-18)
(0.835031 -0.00953321 1.19429e-18)
(0.84079 -0.0114309 1.22515e-18)
(0.843355 -0.0109634 1.33698e-18)
(0.845878 -0.0100912 1.44727e-18)
(0.848681 -0.00941319 1.37754e-18)
(0.850685 -0.00917847 1.5403e-18)
(0.852423 -0.0089979 1.57003e-18)
(0.854635 -0.00944281 1.65971e-18)
(0.860317 -0.0117995 1.61891e-18)
(0.86263 -0.0110538 1.69116e-18)
(0.864958 -0.010545 1.61988e-18)
(0.873563 -0.0104707 1.53568e-18)
(0.877605 -0.0145261 1.72678e-18)
(0.886935 -0.0158438 1.95349e-18)
(0.897996 -0.0163491 2.09284e-18)
(0.916881 -0.0166702 2.01149e-18)
(0.936005 -0.0117113 2.18404e-18)
(0.95482 -0.00400964 2.39495e-18)
(0.961829 0.00398158 2.91667e-18)
(0.883805 0.0129953 4.17024e-18)
(0.686296 0.0926644 4.63435e-18)
(0.503219 0.203078 2.95995e-18)
(0.360276 0.267888 4.7123e-18)
(0.272323 0.293265 9.07815e-19)
(0.22357 0.31951 4.98061e-18)
(0.186108 0.326449 3.224e-19)
(0.153769 0.317299 8.26026e-18)
(0.129265 0.293814 3.5513e-18)
(0.103802 0.275562 1.88771e-17)
(0.0811351 0.238739 2.45672e-17)
(0.0643818 0.259416 4.65062e-17)
(0.0447483 0.24997 4.66156e-17)
(0.0469704 0.385123 8.31798e-17)
(1.50506 -1.29406e-05 5.87269e-21)
(1.50409 1.56508e-06 4.22144e-21)
(1.5043 1.43105e-06 3.4673e-21)
(1.50439 3.10016e-06 3.27491e-21)
(1.50453 3.98872e-06 1.56305e-20)
(1.50471 3.9365e-06 2.09423e-20)
(1.5049 -3.90995e-06 1.5831e-20)
(1.50511 -2.3229e-07 2.74148e-20)
(1.50537 -1.59042e-06 1.86121e-20)
(1.50563 1.77127e-06 1.68452e-20)
(1.50588 1.4087e-07 1.57607e-20)
(1.50614 -3.78738e-07 2.71183e-20)
(1.50644 -1.88746e-06 3.90998e-20)
(1.50673 3.31769e-06 1.18045e-20)
(1.50703 6.84887e-06 -1.64878e-21)
(1.5073 5.83488e-06 1.61175e-21)
(1.50758 6.13315e-06 1.45606e-20)
(1.50785 3.8027e-06 8.89703e-21)
(1.5081 1.24224e-05 8.68636e-21)
(1.50832 3.21614e-05 2.15686e-20)
(1.50849 4.11671e-05 2.20526e-20)
(1.50863 3.41302e-05 2.15605e-20)
(1.50875 1.65932e-05 2.24393e-20)
(1.50885 -4.0402e-07 2.67597e-20)
(1.50896 1.0329e-05 1.18383e-20)
(1.509 2.52491e-05 1.32717e-20)
(1.509 3.36641e-05 1.3851e-20)
(1.50896 4.32837e-05 1.78703e-20)
(1.50888 5.1904e-05 1.69842e-20)
(1.50873 6.88675e-05 1.11678e-20)
(1.50848 7.7482e-05 1.29125e-20)
(1.50826 9.55866e-05 1.60953e-20)
(1.50805 0.000107698 1.78579e-20)
(1.50774 0.000114858 1.92601e-20)
(1.50732 0.000136133 1.97171e-20)
(1.50677 0.000185405 2.1084e-20)
(1.50608 0.000218562 2.20104e-20)
(1.50526 0.000233106 2.48698e-20)
(1.50407 0.000302576 1.72937e-20)
(1.5023 0.000350134 3.32819e-20)
(1.49961 0.000323954 7.83659e-21)
(1.49606 0.00117274 5.28872e-20)
(1.49184 -5.76626e-05 2.43566e-20)
(1.0041 -0.0252729 -1.1356e-17)
(0.542097 -0.0474749 -1.35101e-17)
(0.510522 -0.0782289 -6.56261e-18)
(0.536344 -0.0882863 -2.88728e-18)
(0.562494 -0.0975518 -2.24169e-18)
(0.59295 -0.0961069 -1.60866e-18)
(0.621279 -0.091388 -1.06185e-18)
(0.646414 -0.0872011 -7.53609e-19)
(0.671251 -0.0854425 -2.9577e-19)
(0.696125 -0.0802978 -2.75267e-19)
(0.719433 -0.0724404 -7.6347e-20)
(0.739583 -0.0609134 -6.03963e-22)
(0.759707 -0.0511915 -1.39673e-21)
(0.776207 -0.0417451 9.2176e-20)
(0.790546 -0.0335316 6.6101e-20)
(0.800703 -0.0282494 1.10373e-19)
(0.808994 -0.0252849 1.34081e-19)
(0.816817 -0.0244275 1.53092e-19)
(0.824001 -0.0218126 2.50995e-19)
(0.831526 -0.0192904 2.11306e-19)
(0.837585 -0.0165973 2.30382e-19)
(0.842709 -0.0147456 2.37351e-19)
(0.846097 -0.0127414 1.82552e-19)
(0.850082 -0.010991 1.94957e-19)
(0.852415 -0.00771023 2.35847e-19)
(0.855723 -0.00556476 2.79889e-19)
(0.856408 -0.00485944 3.29642e-19)
(0.860138 -0.00411736 3.50066e-19)
(0.861738 -0.00446993 3.75945e-19)
(0.862658 -0.00355598 3.84741e-19)
(0.86391 -0.0035131 5.07242e-19)
(0.864656 -0.0035779 4.62605e-19)
(0.865612 -0.00360111 5.11669e-19)
(0.865791 -0.00363384 5.39644e-19)
(0.865093 -0.00396559 5.80852e-19)
(0.864752 -0.00480851 6.27219e-19)
(0.864147 -0.00535076 6.89235e-19)
(0.864288 -0.00590162 6.7277e-19)
(0.864992 -0.00667402 7.97508e-19)
(0.8638 -0.00783472 8.45656e-19)
(0.862692 -0.0108805 9.45687e-19)
(0.865164 -0.0119849 1.04033e-18)
(0.865205 -0.0121277 1.05445e-18)
(0.865463 -0.0130077 1.04781e-18)
(0.868289 -0.0154682 1.17807e-18)
(0.869231 -0.0152145 1.27773e-18)
(0.870162 -0.014092 1.46505e-18)
(0.871285 -0.0133391 1.32374e-18)
(0.872267 -0.0128165 1.55829e-18)
(0.87253 -0.0131028 1.6296e-18)
(0.872305 -0.0139197 1.72006e-18)
(0.877292 -0.0156911 1.70181e-18)
(0.878818 -0.0152224 1.79986e-18)
(0.879007 -0.015154 1.79398e-18)
(0.887481 -0.0152 1.65082e-18)
(0.892459 -0.0179765 1.79923e-18)
(0.900213 -0.020572 2.25069e-18)
(0.911614 -0.0212559 2.34347e-18)
(0.928517 -0.0214095 2.47794e-18)
(0.945057 -0.0129319 2.60406e-18)
(0.952333 -0.000321954 3.13261e-18)
(0.880825 0.0138005 3.52249e-18)
(0.699923 0.0960676 3.10172e-18)
(0.526426 0.22305 2.9973e-18)
(0.406725 0.316564 3.92122e-19)
(0.326716 0.362417 2.91706e-18)
(0.259724 0.370144 -4.95796e-19)
(0.210054 0.372853 3.39543e-18)
(0.171916 0.359032 -1.32884e-18)
(0.143111 0.343003 5.89975e-18)
(0.122279 0.316299 -5.15749e-19)
(0.1004 0.297717 1.25411e-17)
(0.0794206 0.259225 1.52524e-17)
(0.063671 0.278311 3.41332e-17)
(0.046028 0.267389 3.82428e-17)
(0.0514378 0.407479 7.62559e-17)
(1.50506 -1.47127e-05 -6.80823e-21)
(1.50409 5.76719e-07 -1.09408e-20)
(1.50429 2.31699e-06 2.71827e-21)
(1.50439 4.97216e-06 -1.1561e-20)
(1.50453 1.9683e-06 -1.37126e-20)
(1.50471 -3.18144e-06 -1.11893e-20)
(1.5049 -6.14391e-09 -5.12698e-21)
(1.50513 2.00089e-06 -1.42353e-20)
(1.50536 -2.37314e-06 -9.35431e-21)
(1.50561 -5.87031e-07 -7.03399e-21)
(1.50588 2.12749e-06 -4.64808e-21)
(1.50617 2.52288e-06 -3.10335e-21)
(1.50644 -2.552e-06 1.61387e-20)
(1.50673 8.34322e-07 4.80647e-20)
(1.50704 1.00981e-05 5.25232e-20)
(1.50732 7.96074e-06 4.63964e-20)
(1.5076 7.03073e-06 5.65357e-20)