/*--------------------------------*- C++ -*----------------------------------*\
| =========                 |                                                 |
| \\      /  F ield         | OpenFOAM: The Open Source CFD Toolbox           |
|  \\    /   O peration     | Version:  2.2.x                                 |
|   \\  /    A nd           | Web:      www.OpenFOAM.org                      |
|    \\/     M anipulation  |                                                 |
\*---------------------------------------------------------------------------*/
FoamFile
{
    version     2.0;
    format      ascii;
    class       volScalarField;
    location    "0.45";
    object      rho;
}
// * * * * * * * * * * * * * * * * * * * * * * * * * * * * * * * * * * * * * //

dimensions      [1 -3 0 0 0 0 0];

internalField   nonuniform List<scalar> 
14161
(
1
1
1
1
1
1
1
1
1
1
1
1
1
1
1
1
1
1
1
1
1
1
1
1
1
1
1
1
1
1
1
1
1
1
1
1
1
1
1.26364
2.83963
2.90826
2.91206
2.90458
2.89595
2.89076
2.88949
2.89355
2.90109
2.90945
2.91638
2.92083
2.92309
2.92425
2.92544
2.92734
2.93006
2.93335
2.93682
2.94025
2.9436
2.94696
2.95047
2.95422
2.95822
2.96242
2.96669
2.97094
2.97512
2.97919
2.98312
2.98691
2.99053
2.994
2.99731
3.00049
3.00357
3.00656
3.00952
3.01248
3.01547
3.01851
3.02163
3.02483
3.0281
3.03141
3.03474
3.03804
3.04129
3.04446
3.04751
3.05043
3.05321
3.05584
3.05834
3.0607
3.06293
3.06504
3.06703
3.06888
3.07059
3.07212
3.07346
3.07457
3.07543
3.07602
3.07632
3.07631
3.07599
3.07536
3.07441
3.07312
3.07144
3.06928
3.06644
3.06257
3.05707
3.04891
3.03637
3.06161
1
1
1
1
1
1
1
1
1
1
1
1
1
1
1
1
1
1
1
1
1
1
1
1
1
1
1
1
1
1
1
1
1
1
1
1
1
1
1.28331
2.72044
2.84261
2.86676
2.85702
2.83923
2.82698
2.82443
2.8313
2.84313
2.85473
2.86288
2.86711
2.86889
2.87018
2.87232
2.87563
2.8797
2.88391
2.88786
2.89146
2.89486
2.89823
2.90176
2.90547
2.90928
2.91312
2.91694
2.92073
2.92442
2.92798
2.93139
2.93463
2.9377
2.94062
2.94341
2.94612
2.94879
2.95145
2.95415
2.95693
2.95979
2.96278
2.96588
2.96911
2.97244
2.97585
2.97932
2.98281
2.9863
2.98973
2.9931
2.99638
2.99954
3.00259
3.0055
3.00827
3.01089
3.01333
3.01556
3.01754
3.01921
3.0205
3.02132
3.02159
3.0212
3.02005
3.01802
3.01501
3.01092
3.00569
2.99928
2.99179
2.98351
2.97512
2.96789
2.96385
2.96525
2.97298
2.98372
3.04573
1
1
1
1
1
1
1
1
1
1
1
1
1
1
1
1
1
1
1
1
1
1
1
1
1
1
1
1
1
1
1
1
1
1
1
1
1
1
1.24759
2.84214
2.91255
2.91406
2.90496
2.89562
2.89037
2.89092
2.89668
2.9054
2.91435
2.92146
2.92598
2.92844
2.92997
2.93166
2.93409
2.93731
2.94101
2.94487
2.94872
2.95257
2.95654
2.96064
2.96488
2.96926
2.9737
2.97812
2.98242
2.98654
2.99045
2.9941
2.99748
3.00058
3.00339
3.00593
3.0082
3.01024
3.01207
3.01374
3.01528
3.01672
3.01809
3.01942
3.0207
3.02194
3.02314
3.02426
3.0253
3.02624
3.02706
3.02776
3.02833
3.02877
3.02909
3.02931
3.02943
3.02945
3.02937
3.02916
3.0288
3.02824
3.0274
3.02622
3.02458
3.02237
3.01946
3.0157
3.0109
3.00484
2.99723
2.98774
2.97595
2.96152
2.94454
2.92644
2.91119
2.90539
2.91456
2.93529
3.01133
1
1
1
1
1
1
1
1
1
1
1
1
1
1
1
1
1
1
1
1
1
1
1
1
1
1
1
1
1
1
1
1
1
1
1
1
1
1
1.24713
2.78967
2.8847
2.89597
2.88655
2.87359
2.86528
2.86323
2.8684
2.87787
2.88782
2.89538
2.89968
2.90152
2.90246
2.90383
2.90619
2.90942
2.91305
2.91665
2.92004
2.92328
2.92653
2.93
2.93377
2.9378
2.94203
2.94638
2.95078
2.95521
2.95962
2.96399
2.96831
2.97255
2.97672
2.9808
2.9848
2.98874
2.99261
2.99643
3.0002
3.00393
3.00762
3.01124
3.01479
3.01823
3.02152
3.02464
3.02753
3.03018
3.03254
3.0346
3.03634
3.03777
3.03889
3.03971
3.04025
3.0405
3.04047
3.04015
3.03953
3.03855
3.03717
3.03533
3.03292
3.02984
3.02598
3.02118
3.01524
3.00793
2.99891
2.98773
2.97377
2.95628
2.93464
2.90946
2.88459
2.86899
2.87352
2.89845
2.99368
1
1
1
1
1
1
1
1
1
1
1
1
1
1
1
1
1
1
1
1
1
1
1
1
1
1
1
1
1
1
1
1
1
1
1
1
1
1
1.23253
2.79757
2.89049
2.89864
2.88808
2.87488
2.86651
2.86517
2.87089
2.88073
2.8909
2.89866
2.90319
2.90533
2.9066
2.90828
2.91095
2.91449
2.91845
2.92241
2.9262
2.92986
2.93355
2.93738
2.9414
2.94557
2.94981
2.95403
2.95817
2.96218
2.96603
2.96971
2.9732
2.97653
2.97969
2.98272
2.98565
2.98853
2.99139
2.99427
2.99722
3.00026
3.0034
3.00664
3.00996
3.01335
3.01675
3.02013
3.02342
3.02659
3.02958
3.03235
3.03487
3.03712
3.03908
3.04073
3.04206
3.04307
3.04374
3.04405
3.04395
3.04341
3.04235
3.04071
3.03839
3.03529
3.03128
3.02621
3.0199
3.0121
3.00247
2.99053
2.97559
2.9567
2.93281
2.90367
2.87207
2.84713
2.84344
2.86695
2.97898
1
1
1
1
1
1
1
1
1
1
1
1
1
1
1
1
1
1
1
1
1
1
1
1
1
1
1
1
1
1
1
1
1
1
1
1
1
1
1.20555
2.81688
2.90232
2.90486
2.89353
2.88153
2.87459
2.87422
2.8803
2.8899
2.89957
2.90688
2.91113
2.91314
2.91434
2.91595
2.91853
2.92199
2.92591
2.92991
2.93378
2.93753
2.9413
2.94521
2.94931
2.95357
2.95789
2.96219
2.96639
2.97045
2.97432
2.97798
2.98144
2.98467
2.98769
2.99052
2.99318
2.99571
2.99815
3.00054
3.00293
3.00534
3.00782
3.01036
3.01299
3.01568
3.01842
3.02118
3.02393
3.02663
3.02925
3.03175
3.03411
3.03631
3.03831
3.04011
3.04168
3.043
3.04404
3.04475
3.04508
3.04497
3.04434
3.0431
3.04114
3.03834
3.03458
3.02968
3.02346
3.01566
3.00595
2.99383
2.97861
2.95924
2.93446
2.90336
2.86749
2.83486
2.82159
2.83937
2.96419
1
1
1
1
1
1
1
1
1
1
1
1
1
1
1
1
1
1
1
1
1
1
1
1
1
1
1
1
1
1
1
1
1
1
1
1
1
1
1.19066
2.79935
2.89494
2.8982
2.8853
2.87177
2.86426
2.86374
2.87027
2.88046
2.8904
2.89751
2.90126
2.90276
2.90364
2.90514
2.90771
2.91111
2.91484
2.91852
2.92204
2.92549
2.92903
2.93279
2.93679
2.94099
2.9453
2.94965
2.95398
2.95824
2.96242
2.96651
2.97047
2.97432
2.97805
2.98166
2.98516
2.98857
2.9919
2.99517
2.99841
3.00161
3.00479
3.00796
3.0111
3.01421
3.01725
3.02022
3.0231
3.02585
3.02846
3.03091
3.03321
3.03534
3.03729
3.03907
3.04066
3.04205
3.04321
3.04409
3.04465
3.04481
3.04449
3.04359
3.04198
3.03955
3.03615
3.03159
3.02568
3.01815
3.00866
2.99673
2.98164
2.96234
2.93745
2.90563
2.86732
2.82883
2.80609
2.81526
2.94859
1
1
1
1
1
1
1
1
1
1
1
1
1
1
1
1
1
1
1
1
1
1
1
1
1
1
1
1
1
1
1
1
1
1
1
1
1
1
1.15882
2.81153
2.90325
2.90075
2.88627
2.87301
2.86625
2.867
2.87442
2.88493
2.89477
2.90162
2.90521
2.90674
2.90781
2.90961
2.91252
2.91627
2.92037
2.9244
2.92825
2.93198
2.93576
2.93969
2.94378
2.94799
2.9522
2.95634
2.96035
2.9642
2.96788
2.97138
2.97471
2.97789
2.98093
2.98387
2.98673
2.98954
2.99235
2.99518
2.99805
3.00097
3.00396
3.00699
3.01006
3.01314
3.01619
3.01919
3.02208
3.02485
3.02747
3.02992
3.03219
3.03429
3.0362
3.03794
3.03949
3.04086
3.04203
3.04295
3.04359
3.04387
3.04371
3.04302
3.04167
3.03953
3.03645
3.03225
3.02671
3.01955
3.01044
2.99888
2.98416
2.96526
2.94071
2.90892
2.86943
2.82676
2.79542
2.7944
2.93207
1
1
1
1
1
1
1
1
1
1
1
1
1
1
1
1
1
1
1
1
1
1
1
1
1
1
1
1
1
1
1
1
1
1
1
1
1
1
1.12547
2.81216
2.90574
2.89886
2.88278
2.86957
2.86371
2.86548
2.87374
2.88459
2.89423
2.90055
2.90358
2.9047
2.90561
2.90741
2.91035
2.9141
2.91812
2.92205
2.92579
2.92946
2.93321
2.93715
2.94127
2.94551
2.94976
2.95396
2.95805
2.96199
2.9658
2.96944
2.97293
2.97627
2.97948
2.98256
2.98555
2.98848
2.99136
2.99423
2.99712
3.00003
3.00299
3.00599
3.00901
3.01204
3.01505
3.018
3.02087
3.02361
3.02621
3.02865
3.03091
3.03298
3.03488
3.03659
3.03813
3.03947
3.04062
3.04154
3.04219
3.0425
3.04242
3.04183
3.04064
3.0387
3.03587
3.03196
3.02676
3.01999
3.01129
3.00018
2.98596
2.9676
2.94365
2.91233
2.87252
2.82703
2.78832
2.77654
2.91474
1
1
1
1
1
1
1
1
1
1
1
1
1
1
1
1
1
1
1
1
1
1
1
1
1
1
1
1
1
1
1
1
1
1
1
1
1
1
1.08939
2.81289
2.90832
2.89618
2.8786
2.86576
2.8611
2.86435
2.87371
2.88495
2.89432
2.90006
2.90257
2.90345
2.90441
2.90644
2.90965
2.91359
2.91773
2.92171
2.9255
2.92922
2.93303
2.93701
2.94114
2.94533
2.9495
2.95358
2.95751
2.9613
2.96493
2.96842
2.97177
2.975
2.97812
2.98115
2.98411
2.98704
2.98994
2.99285
2.99578
2.99873
3.00172
3.00473
3.00776
3.01077
3.01375
3.01667
3.01949
3.02219
3.02475
3.02715
3.02938
3.03143
3.03331
3.035
3.03652
3.03785
3.03898
3.03989
3.04052
3.04084
3.04077
3.04023
3.03911
3.03729
3.03463
3.03095
3.02602
3.01959
3.01129
3.00064
2.98694
2.9692
2.94598
2.91538
2.87579
2.82855
2.78378
2.76136
2.89674
1
1
1
1
1
1
1
1
1
1
1
1
1
1
1
1
1
1
1
1
1
1
1
1
1
1
1
1
1
1
1
1
1
1
1
1
1
1
1.05414
2.80723
2.90825
2.89145
2.87305
2.86118
2.85827
2.86336
2.87393
2.88544
2.89429
2.89922
2.90105
2.90163
2.90267
2.90496
2.90845
2.91259
2.91684
2.92088
2.92471
2.92849
2.93237
2.9364
2.94054
2.94471
2.94881
2.95279
2.95661
2.96028
2.96379
2.96717
2.97042
2.97356
2.97661
2.97959
2.98253
2.98544
2.98834
2.99126
2.99421
2.99719
3.0002
3.00323
3.00626
3.00927
3.01223
3.01512
3.0179
3.02056
3.02307
3.02543
3.02762
3.02964
3.03149
3.03317
3.03467
3.03599
3.03711
3.03799
3.03861
3.03892
3.03884
3.0383
3.03721
3.03545
3.03288
3.02935
3.02464
3.01848
3.01052
3.00029
2.98711
2.96999
2.94752
2.91777
2.87873
2.83056
2.78096
2.74851
2.87828
1
1
1
1
1
1
1
1
1
1
1
1
1
1
1
1
1
1
1
1
1
1
1
1
1
1
1
1
1
1
1
1
1
1
1
1
1
1
1.02387
2.79067
2.90476
2.8846
2.86627
2.85611
2.85551
2.8628
2.87462
2.88618
2.89426
2.89819
2.89932
2.89972
2.90096
2.90364
2.90748
2.91185
2.91619
2.92027
2.92413
2.92796
2.93187
2.93592
2.94003
2.94412
2.94811
2.95194
2.95561
2.95912
2.9625
2.96576
2.96891
2.97197
2.97496
2.9779
2.98081
2.98371
2.98662
2.98954
2.9925
2.99549
2.99851
3.00154
3.00457
3.00756
3.01049
3.01334
3.01609
3.0187
3.02116
3.02347
3.02562
3.02761
3.02943
3.03109
3.03257
3.03388
3.03498
3.03585
3.03645
3.03673
3.03663
3.03607
3.03497
3.03323
3.03071
3.02726
3.02269
3.01674
3.00907
2.9992
2.98648
2.96996
2.94823
2.91935
2.88107
2.83253
2.77919
2.73758
2.85952
1
1
1
1
1
1
1
1
1
1
1
1
1
1
1
1
1
1
1
1
1
1
1
1
1
1
1
1
1
1
1
1
1
1
1
1
1
1
1.00452
2.75407
2.89704
2.87562
2.85831
2.85064
2.85298
2.86275
2.87568
2.88691
2.89381
2.89653
2.89696
2.89728
2.89889
2.90206
2.90631
2.91091
2.91533
2.91942
2.9233
2.92714
2.93108
2.93511
2.93916
2.94314
2.94697
2.95065
2.95416
2.95754
2.96079
2.96395
2.96702
2.97003
2.97299
2.97592
2.97883
2.98174
2.98467
2.98762
2.9906
2.9936
2.99662
2.99965
3.00266
3.00562
3.00852
3.01133
3.01402
3.01658
3.01899
3.02126
3.02337
3.02532
3.02711
3.02875
3.03022
3.03151
3.0326
3.03345
3.03402
3.03428
3.03414
3.03355
3.03242
3.03066
3.02815
3.02474
3.02026
3.01445
3.00699
2.99742
2.9851
2.96911
2.94807
2.92005
2.88262
2.83412
2.77796
2.72819
2.84062
1
1
1
1
1
1
1
1
1
1
1
1
1
1
1
1
1
1
1
1
1
1
1
1
1
1
1
1
1
1
1
1
1
1
1
1
1
1
1.00022
2.69235
2.88641
2.86492
2.84952
2.84532
2.85124
2.86361
2.87727
2.8876
2.89292
2.89432
2.8942
2.89471
2.89693
2.90075
2.90543
2.91021
2.91465
2.9187
2.92253
2.92635
2.93024
2.9342
2.93812
2.94193
2.94558
2.94907
2.95241
2.95563
2.95877
2.96183
2.96484
2.9678
2.97074
2.97366
2.97659
2.97952
2.98248
2.98546
2.98846
2.99148
2.9945
2.99752
3.0005
3.00344
3.00629
3.00904
3.01168
3.01418
3.01655
3.01877
3.02083
3.02276
3.02453
3.02614
3.0276
3.02887
3.02994
3.03077
3.03132
3.03154
3.03137
3.03073
3.02956
3.02776
3.02522
3.02182
3.01737
3.01165
3.00434
2.995
2.98301
2.96748
2.94707
2.91985
2.88329
2.8351
2.77687
2.71996
2.8217
1
1
1
1
1
1
1
1
1
1
1
1
1
1
1
1
1
1
1
1
1
1
1
1
1
1
1
1
1
1
1
1
1
1
1
1
1
1
1.00001
2.61588
2.87347
2.85257
2.84036
2.84082
2.85088
2.86564
2.87927
2.88792
2.89123
2.89132
2.89093
2.892
2.89507
2.89962
2.90472
2.90961
2.91399
2.91793
2.92167
2.92542
2.92923
2.93306
2.93681
2.94041
2.94386
2.94715
2.95033
2.95342
2.95645
2.95944
2.96239
2.96533
2.96826
2.97119
2.97413
2.97709
2.98007
2.98308
2.98609
2.98912
2.99214
2.99513
2.99808
3.00097
3.00377
3.00647
3.00904
3.01149
3.01381
3.01598
3.01801
3.01991
3.02166
3.02326
3.0247
3.02596
3.02701
3.02782
3.02834
3.02851
3.02829
3.0276
3.02637
3.02452
3.02193
3.0185
3.01405
3.00836
3.00115
2.99197
2.98025
2.9651
2.94523
2.91875
2.88304
2.83532
2.77564
2.71256
2.80285
1
1
1
1
1
1
1
1
1
1
1
1
1
1
1
1
1
1
1
1
1
1
1
1
1
1
1
1
1
1
1
1
1
1
1
1
1
1
1
2.52437
2.85779
2.83878
2.83162
2.83807
2.8525
2.86884
2.88126
2.88738
2.88848
2.88758
2.88747
2.88955
2.89371
2.899
2.90437
2.90919
2.91336
2.91709
2.92067
2.92428
2.92794
2.93158
2.93511
2.93849
2.94172
2.94483
2.94787
2.95085
2.95381
2.95675
2.95969
2.96262
2.96556
2.96851
2.97148
2.97446
2.97746
2.98048
2.98349
2.98651
2.9895
2.99246
2.99537
2.9982
3.00094
3.00357
3.00609
3.00849
3.01075
3.01289
3.01489
3.01676
3.0185
3.02009
3.02151
3.02276
3.02379
3.02457
3.02505
3.02518
3.0249
3.02415
3.02286
3.02093
3.01828
3.0148
3.01031
3.00462
2.99745
2.98838
2.97685
2.962
2.9426
2.91676
2.88185
2.83471
2.77403
2.7057
2.78413
1
1
1
1
1
1
1
1
1
1
1
1
1
1
1
1
1
1
1
1
1
1
1
1
1
1
1
1
1
1
1
1
1
1
1
1
1
1
1
2.41417
2.8392
2.82455
2.82503
2.83861
2.85686
2.87316
2.8828
2.88566
2.88471
2.88353
2.88443
2.88793
2.89322
2.89901
2.90432
2.90877
2.91251
2.9159
2.91925
2.92268
2.92615
2.92959
2.9329
2.93607
2.93912
2.9421
2.94504
2.94797
2.95089
2.95382
2.95675
2.9597
2.96266
2.96564
2.96863
2.97163
2.97463
2.97764
2.98065
2.98363
2.98658
2.98949
2.99233
2.9951
2.99777
3.00034
3.0028
3.00515
3.00737
3.00947
3.01145
3.01331
3.01503
3.01661
3.01803
3.01926
3.02026
3.02101
3.02145
3.02153
3.02119
3.02037
3.019
3.01699
3.01427
3.0107
3.00616
3.00043
2.99325
2.98424
2.97283
2.95822
2.93919
2.91392
2.87974
2.83321
2.7719
2.69912
2.76556
1
1
1
1
1
1
1
1
1
1
1
1
1
1
1
1
1
1
1
1
1
1
1
1
1
1
1
1
1
1
1
1
1
1
1
1
1
1
1
2.28064
2.81796
2.81182
2.82286
2.8437
2.86385
2.87757
2.88284
2.88227
2.88012
2.87971
2.88233
2.88743
2.89356
2.89936
2.90414
2.90792
2.9111
2.91412
2.91724
2.9205
2.9238
2.92704
2.93016
2.93317
2.9361
2.93901
2.94191
2.94482
2.94775
2.95069
2.95364
2.95661
2.9596
2.96259
2.96559
2.96858
2.97158
2.97456
2.97752
2.98046
2.98335
2.98619
2.98896
2.99165
2.99426
2.99676
2.99917
3.00146
3.00365
3.00573
3.0077
3.00954
3.01125
3.01283
3.01423
3.01544
3.01642
3.01714
3.01753
3.01755
3.01714
3.01624
3.01478
3.01269
3.00987
3.00622
3.00159
2.9958
2.98858
2.97956
2.96822
2.95378
2.93505
2.91025
2.87672
2.83081
2.76913
2.69261
2.74715
1
1
1
1
1
1
1
1
1
1
1
1
1
1
1
1
1
1
1
1
1
1
1
1
1
1
1
1
1
1
1
1
1
1
1
1
1
1
1
2.11657
2.79607
2.8048
2.82848
2.85434
2.87261
2.88068
2.8807
2.87756
2.87567
2.87716
2.88184
2.88814
2.89435
2.89942
2.90319
2.90611
2.90874
2.91151
2.91452
2.9177
2.92089
2.924
2.92699
2.92991
2.93279
2.93567
2.93858
2.94151
2.94446
2.94743
2.9504
2.95338
2.95637
2.95936
2.96234
2.96531
2.96826
2.97119
2.97409
2.97695
2.97977
2.98253
2.98522
2.98784
2.99037
2.99282
2.99518
2.99744
2.9996
3.00166
3.00361
3.00545
3.00716
3.00872
3.01011
3.0113
3.01226
3.01293
3.01327
3.01322
3.01274
3.01176
3.01021
3.00801
3.00509
3.00134
2.99661
2.99072
2.98342
2.97437
2.96304
2.94869
2.93018
2.90577
2.87281
2.8275
2.76566
2.68601
2.72889
1
1
1
1
1
1
1
1
1
1
1
1
1
1
1
1
1
1
1
1
1
1
1
1
1
1
1
1
1
1
1
1
1
1
1
1
1
1
1
1.91255
2.77924
2.81042
2.84478
2.86944
2.88053
2.88064
2.87602
2.8722
2.87218
2.87616
2.88246
2.88899
2.89431
2.89807
2.9007
2.90294
2.90534
2.90813
2.91122
2.91442
2.91757
2.9206
2.92353
2.92642
2.92931
2.93222
2.93517
2.93812
2.94109
2.94407
2.94704
2.95
2.95296
2.95591
2.95884
2.96174
2.96463
2.96748
2.9703
2.97308
2.97581
2.97849
2.9811
2.98365
2.98612
2.98852
2.99083
2.99306
2.99521
2.99726
2.9992
3.00104
3.00274
3.00429
3.00567
3.00683
3.00775
3.00837
3.00865
3.00853
3.00797
3.0069
3.00525
3.00296
2.99992
2.99605
2.9912
2.9852
2.9778
2.96866
2.9573
2.94299
2.92463
2.90052
2.86804
2.82329
2.76141
2.67917
2.71074
1
1
1
1
1
1
1
1
1
1
1
1
1
1
1
1
1
1
1
1
1
1
1
1
1
1
1
1
1
1
1
1
1
1
1
1
1
1
1
1.65969
2.77972
2.8368
2.87065
2.88381
2.88305
2.87531
2.86859
2.86656
2.86965
2.87595
2.88287
2.88853
2.89232
2.89471
2.89659
2.8987
2.90134
2.90443
2.90772
2.91098
2.91409
2.91708
2.92
2.9229
2.92583
2.92878
2.93174
2.9347
2.93765
2.94058
2.94351
2.94642
2.94931
2.95217
2.95502
2.95784
2.96063
2.96339
2.96612
2.96881
2.97145
2.97405
2.97659
2.97908
2.9815
2.98386
2.98614
2.98835
2.99048
2.99252
2.99447
2.99629
2.99799
2.99953
3.00088
3.00201
3.00289
3.00345
3.00366
3.00347
3.00282
3.00166
2.99991
2.9975
2.99435
2.99035
2.98537
2.97924
2.97171
2.96246
2.95101
2.93669
2.91841
2.89452
2.86244
2.81819
2.75638
2.67198
2.69268
1
1
1
1
1
1
1
1
1
1
1
1
1
1
1
1
1
1
1
1
1
1
1
1
1
1
1
1
1
1
1
1
1
1
1
1
1
1
1
1.36745
2.81066
2.88155
2.89278
2.88549
2.87328
2.86226
2.85813
2.86084
2.86781
2.8757
2.88203
2.88601
2.8882
2.88975
2.89163
2.89422
2.89744
2.90093
2.90438
2.90764
2.91071
2.91366
2.91657
2.91949
2.92242
2.92535
2.92827
2.93116
2.93403
2.93688
2.93971
2.94252
2.94531
2.94807
2.95081
2.95353
2.95622
2.95888
2.96152
2.96413
2.9667
2.96923
2.97171
2.97415
2.97653
2.97885
2.98111
2.98331
2.98543
2.98746
2.9894
2.99122
2.9929
2.99442
2.99575
2.99684
2.99766
2.99816
2.9983
2.99803
2.99729
2.99603
2.99417
2.99165
2.98837
2.98424
2.97911
2.97282
2.96514
2.95574
2.94418
2.92979
2.91153
2.8878
2.85604
2.81223
2.75055
2.66436
2.67466
1
1
1
1
1
1
1
1
1
1
1
1
1
1
1
1
1
1
1
1
1
1
1
1
1
1
1
1
1
1
1
1
1
1
1
1
1
1
1
1.11474
2.82965
2.90099
2.88089
2.86152
2.84913
2.84474
2.84909
2.85833
2.8681
2.87544
2.87957
2.88145
2.88264
2.88436
2.88707
2.89056
2.89437
2.89808
2.90149
2.9046
2.90753
2.91039
2.91325
2.9161
2.91896
2.92178
2.92458
2.92735
2.93009
2.93282
2.93553
2.93822
2.94089
2.94355
2.94618
2.9488
2.9514
2.95397
2.95653
2.95906
2.96157
2.96404
2.96647
2.96887
2.97122
2.97351
2.97576
2.97794
2.98005
2.98208
2.984
2.98581
2.98747
2.98896
2.99025
2.99129
2.99205
2.99249
2.99255
2.9922
2.99136
2.99
2.98803
2.98538
2.98198
2.9777
2.97241
2.96595
2.95809
2.94853
2.93682
2.92231
2.90402
2.88037
2.84886
2.80543
2.7439
2.65624
2.65665
1
1
1
1
1
1
1
1
1
1
1
1
1
1
1
1
1
1
1
1
1
1
1
1
1
1
1
1
1
1
1
1
1
1
1
1
1
1
1
1.01271
2.67863
2.86095
2.84131
2.82966
2.82871
2.83676
2.84971
2.86186
2.86996
2.87373
2.87489
2.8756
2.87728
2.88032
2.88428
2.88848
2.8924
2.89583
2.89884
2.90161
2.90429
2.90698
2.9097
2.91241
2.91511
2.91778
2.92043
2.92307
2.92569
2.9283
2.9309
2.93349
2.93605
2.93861
2.94115
2.94367
2.94619
2.94869
2.95118
2.95365
2.95609
2.95851
2.9609
2.96326
2.96558
2.96786
2.97008
2.97225
2.97434
2.97635
2.97826
2.98004
2.98168
2.98313
2.98437
2.98536
2.98606
2.98642
2.98641
2.98596
2.98503
2.98356
2.98148
2.97871
2.97516
2.97073
2.96527
2.95863
2.95057
2.94081
2.92891
2.91426
2.89588
2.87226
2.84092
2.7978
2.73645
2.64758
2.6386
1
1
1
1
1
1
1
1
1
1
1
1
1
1
1
1
1
1
1
1
1
1
1
1
1
1
1
1
1
1
1
1
1
1
1
1
1
1
1
1.00079
2.41689
2.81649
2.80763
2.81206
2.82648
2.84442
2.85891
2.86678
2.86913
2.86896
2.8691
2.87097
2.87457
2.87906
2.88352
2.88736
2.89049
2.89311
2.89551
2.8979
2.90037
2.90292
2.90552
2.9081
2.91068
2.91324
2.91579
2.91833
2.92086
2.92338
2.92589
2.92838
2.93085
2.93331
2.93576
2.9382
2.94064
2.94307
2.94549
2.9479
2.95029
2.95267
2.95502
2.95734
2.95963
2.96188
2.96408
2.96623
2.9683
2.97029
2.97217
2.97392
2.97552
2.97692
2.97811
2.97904
2.97967
2.97996
2.97986
2.97932
2.97829
2.97671
2.97451
2.97161
2.96791
2.96332
2.95768
2.95084
2.94257
2.93259
2.92048
2.90564
2.88713
2.86348
2.83225
2.78939
2.72821
2.63832
2.62048
1
1
1
1
1
1
1
1
1
1
1
1
1
1
1
1
1
1
1
1
1
1
1
1
1
1
1
1
1
1
1
1
1
1
1
1
1
1
1
1.00004
2.07945
2.77801
2.79725
2.82406
2.8479
2.8627
2.86762
2.86644
2.86399
2.86342
2.86562
2.8698
2.87457
2.87882
2.88209
2.88454
2.88657
2.88857
2.89074
2.89312
2.89564
2.89821
2.90077
2.90331
2.90583
2.90833
2.91082
2.9133
2.91575
2.91819
2.92059
2.92298
2.92535
2.92771
2.93007
2.93243
2.93479
2.93715
2.9395
2.94185
2.94419
2.94651
2.94882
2.9511
2.95336
2.95558
2.95776
2.95987
2.96192
2.96387
2.96572
2.96743
2.96898
2.97033
2.97146
2.97232
2.97288
2.97309
2.9729
2.97227
2.97114
2.96945
2.96712
2.96409
2.96024
2.95547
2.94964
2.94258
2.93409
2.92387
2.91152
2.89646
2.87779
2.85405
2.82287
2.7802
2.71918
2.62846
2.60225
1
1
1
1
1
1
1
1
1
1
1
1
1
1
1
1
1
1
1
1
1
1
1
1
1
1
1
1
1
1
1
1
1
1
1
1
1
1
1
1
1.63657
2.78212
2.8419
2.86889
2.87619
2.87102
2.86285
2.85716
2.85612
2.85907
2.86397
2.86884
2.8726
2.87514
2.87695
2.87864
2.88058
2.88289
2.88546
2.88815
2.89082
2.89343
2.89597
2.89846
2.90092
2.90335
2.90575
2.90812
2.91045
2.91276
2.91504
2.9173
2.91956
2.92182
2.92408
2.92636
2.92864
2.93092
2.93321
2.9355
2.93778
2.94005
2.94231
2.94456
2.94677
2.94896
2.95109
2.95317
2.95518
2.9571
2.9589
2.96056
2.96205
2.96335
2.96441
2.9652
2.96569
2.96581
2.96554
2.96481
2.96358
2.96177
2.95932
2.95613
2.95212
2.94717
2.94114
2.93386
2.92512
2.91464
2.90203
2.88673
2.86785
2.84398
2.81279
2.77026
2.70938
2.61797
2.58388
1
1
1
1
1
1
1
1
1
1
1
1
1
1
1
1
1
1
1
1
1
1
1
1
1
1
1
1
1
1
1
1
1
1
1
1
1
1
1
1
1.17697
2.83741
2.89903
2.87831
2.85835
2.84395
2.83909
2.84189
2.84876
2.85607
2.86164
2.86502
2.86693
2.86841
2.8702
2.87254
2.87532
2.87827
2.88117
2.88391
2.88647
2.88892
2.8913
2.89364
2.89595
2.89824
2.90048
2.90269
2.90487
2.90703
2.90917
2.91131
2.91346
2.91562
2.9178
2.91999
2.92219
2.92441
2.92663
2.92885
2.93107
2.93329
2.9355
2.93769
2.93986
2.942
2.94409
2.94613
2.94809
2.94995
2.9517
2.95331
2.95474
2.95598
2.95697
2.95769
2.95809
2.95814
2.95777
2.95695
2.9556
2.95368
2.95109
2.94775
2.94357
2.93843
2.93218
2.92466
2.91566
2.90491
2.89202
2.87644
2.85733
2.83329
2.80204
2.7596
2.69884
2.60685
2.56533
1
1
1
1
1
1
1
1
1
1
1
1
1
1
1
1
1
1
1
1
1
1
1
1
1
1
1
1
1
1
1
1
1
1
1
1
1
1
1
1
1.01946
2.58479
2.83028
2.81553
2.81123
2.81761
2.83031
2.84289
2.85173
2.8563
2.8581
2.85908
2.86056
2.86293
2.86598
2.86923
2.87231
2.87507
2.87753
2.87979
2.88196
2.88412
2.88629
2.88845
2.89061
2.89274
2.89484
2.8969
2.89894
2.90097
2.903
2.90504
2.90709
2.90916
2.91124
2.91335
2.91547
2.9176
2.91975
2.9219
2.92405
2.92621
2.92836
2.93049
2.93261
2.9347
2.93674
2.93872
2.94063
2.94244
2.94413
2.94568
2.94705
2.94821
2.94913
2.94978
2.9501
2.95006
2.9496
2.94867
2.94722
2.94516
2.94243
2.93894
2.93457
2.92923
2.92275
2.91499
2.90572
2.89467
2.88149
2.86562
2.84623
2.82199
2.79064
2.74822
2.68756
2.5951
2.54659
1
1
1
1
1
1
1
1
1
1
1
1
1
1
1
1
1
1
1
1
1
1
1
1
1
1
1
1
1
1
1
1
1
1
1
1
1
1
1
1
1.00115
2.1254
2.76855
2.78925
2.81385
2.83611
2.8494
2.85385
2.8535
2.85232
2.85253
2.85454
2.85768
2.86105
2.86406
2.86653
2.86859
2.87047
2.87236
2.87434
2.87643
2.87858
2.88074
2.88286
2.88494
2.88696
2.88893
2.89087
2.89278
2.89468
2.89659
2.89851
2.90046
2.90242
2.90441
2.90642
2.90845
2.9105
2.91257
2.91464
2.91673
2.91881
2.9209
2.92297
2.92503
2.92706
2.92904
2.93096
2.93281
2.93456
2.93619
2.93767
2.93897
2.94007
2.94091
2.94148
2.94172
2.94158
2.94103
2.93999
2.93842
2.93623
2.93335
2.92969
2.92513
2.91957
2.91286
2.90483
2.89528
2.88394
2.87044
2.85425
2.83457
2.81009
2.7786
2.73617
2.67557
2.58271
2.52763
1
1
1
1
1
1
1
1
1
1
1
1
1
1
1
1
1
1
1
1
1
1
1
1
1
1
1
1
1
1
1
1
1
1
1
1
1
1
1
1
1.00006
1.50524
2.79064
2.85898
2.87117
2.86479
2.85412
2.84602
2.84287
2.84396
2.84732
2.85108
2.85422
2.85657
2.85842
2.86017
2.86208
2.86421
2.86649
2.86882
2.87111
2.87331
2.8754
2.87738
2.87927
2.88109
2.88287
2.88462
2.88636
2.88812
2.8899
2.8917
2.89353
2.8954
2.89729
2.89921
2.90115
2.90311
2.90509
2.90709
2.9091
2.91111
2.91312
2.91513
2.91712
2.91908
2.921
2.92286
2.92464
2.92632
2.92788
2.9293
2.93053
2.93155
2.93232
2.9328
2.93295
2.93272
2.93206
2.93091
2.92921
2.92688
2.92384
2.92
2.91525
2.90946
2.90251
2.89421
2.88436
2.8727
2.85887
2.84236
2.82236
2.79761
2.76593
2.72344
2.66288
2.56969
2.50844
1
1
1
1
1
1
1
1
1
1
1
1
1
1
1
1
1
1
1
1
1
1
1
1
1
1
1
1
1
1
1
1
1
1
1
1
1
1
1
1
1
1.07149
2.69828
2.85225
2.82954
2.81695
2.81656
2.82335
2.83213
2.8394
2.84408
2.84675
2.84855
2.85033
2.85245
2.85488
2.85744
2.85993
2.86227
2.86442
2.8664
2.86823
2.86996
2.87161
2.87321
2.87479
2.87636
2.87795
2.87956
2.88121
2.88289
2.8846
2.88634
2.88811
2.88991
2.89173
2.89358
2.89545
2.89734
2.89925
2.90118
2.90311
2.90505
2.90698
2.90889
2.91078
2.91263
2.91442
2.91613
2.91774
2.91923
2.92057
2.92172
2.92266
2.92335
2.92374
2.9238
2.92347
2.9227
2.92143
2.91959
2.91711
2.91391
2.90987
2.90491
2.8989
2.89168
2.8831
2.87295
2.86097
2.8468
2.82993
2.8096
2.78455
2.75265
2.71008
2.64952
2.55605
2.489
1
1
1
1
1
1
1
1
1
1
1
1
1
1
1
1
1
1
1
1
1
1
1
1
1
1
1
1
1
1
1
1
1
1
1
1
1
1
1
1
1
1.00584
2.14202
2.76004
2.78315
2.80714
2.8269
2.83749
2.8409
2.84115
2.84126
2.84245
2.84464
2.84726
2.8498
2.85203
2.85396
2.85568
2.8573
2.8589
2.86048
2.86203
2.86356
2.86507
2.86655
2.86803
2.86952
2.87102
2.87255
2.8741
2.87569
2.8773
2.87893
2.8806
2.88229
2.88401
2.88576
2.88753
2.88933
2.89114
2.89298
2.89483
2.89668
2.89853
2.90037
2.90218
2.90395
2.90566
2.9073
2.90883
2.91024
2.9115
2.91257
2.91342
2.91402
2.91432
2.91428
2.91384
2.91296
2.91156
2.90957
2.90693
2.90355
2.89932
2.89414
2.88788
2.8804
2.87153
2.86107
2.84874
2.83422
2.81699
2.79631
2.77094
2.73879
2.69608
2.63551
2.5418
2.46929
1
1
1
1
1
1
1
1
1
1
1
1
1
1
1
1
1
1
1
1
1
1
1
1
1
1
1
1
1
1
1
1
1
1
1
1
1
1
1
1
1
1.00031
1.36705
2.79254
2.86802
2.86056
2.84658
2.83619
2.83163
2.83169
2.83413
2.83713
2.83979
2.84198
2.84389
2.84572
2.84756
2.84938
2.85113
2.85278
2.85433
2.85579
2.85719
2.85855
2.8599
2.86125
2.86261
2.86399
2.8654
2.86683
2.8683
2.86979
2.87131
2.87287
2.87445
2.87606
2.8777
2.87937
2.88106
2.88278
2.88452
2.88628
2.88804
2.8898
2.89155
2.89328
2.89497
2.8966
2.89815
2.8996
2.90093
2.9021
2.90308
2.90385
2.90435
2.90455
2.9044
2.90384
2.90283
2.90129
2.89915
2.89634
2.89277
2.88833
2.88292
2.87641
2.86866
2.85949
2.8487
2.83603
2.82114
2.80354
2.78248
2.75677
2.72434
2.68147
2.62087
2.52696
2.44932
1
1
1
1
1
1
1
1
1
1
1
1
1
1
1
1
1
1
1
1
1
1
1
1
1
1
1
1
1
1
1
1
1
1
1
1
1
1
1
1
1
1.00001
1.04549
2.43653
2.79573
2.79261
2.79903
2.81085
2.82138
2.828
2.83138
2.83329
2.83504
2.83709
2.83932
2.84147
2.84332
2.84484
2.84611
2.84723
2.8483
2.84939
2.85052
2.8517
2.85292
2.85416
2.85543
2.85672
2.85803
2.85936
2.86072
2.8621
2.86351
2.86494
2.8664
2.8679
2.86942
2.87098
2.87257
2.87418
2.87582
2.87747
2.87914
2.88081
2.88247
2.8841
2.8857
2.88724
2.88871
2.89007
2.8913
2.89238
2.89327
2.89393
2.89433
2.89442
2.89416
2.89348
2.89232
2.89063
2.88833
2.88534
2.88157
2.87692
2.87127
2.8645
2.85646
2.84699
2.83587
2.82285
2.80758
2.78958
2.76814
2.74206
2.70934
2.66627
2.60561
2.51154
2.42908
1
1
1
1
1
1
1
1
1
1
1
1
1
1
1
1
1
1
1
1
1
1
1
1
1
1
1
1
1
1
1
1
1
1
1
1
1
1
1
1
1
1
1.00292
1.61144
2.74949
2.82473
2.83842
2.83666
2.83208
2.8295
2.82945
2.83086
2.83261
2.83409
2.83519
2.83608
2.83693
2.83786
2.8389
2.84002
2.84119
2.84237
2.84356
2.84474
2.84591
2.84708
2.84824
2.84941
2.85058
2.85177
2.85299
2.85423
2.85551
2.85681
2.85815
2.85953
2.86094
2.86238
2.86385
2.86536
2.86689
2.86844
2.87001
2.87158
2.87314
2.87467
2.87617
2.87762
2.87898
2.88025
2.88138
2.88236
2.88315
2.88371
2.88399
2.88396
2.88357
2.88275
2.88145
2.8796
2.87713
2.87395
2.86997
2.86508
2.85919
2.85215
2.84382
2.83403
2.82257
2.80918
2.79353
2.77513
2.75328
2.72683
2.69378
2.6505
2.58975
2.49555
2.40856
1
1
1
1
1
1
1
1
1
1
1
1
1
1
1
1
1
1
1
1
1
1
1
1
1
1
1
1
1
1
1
1
1
1
1
1
1
1
1
1
1
1
1.00014
1.08181
2.45716
2.80325
2.80246
2.80495
2.81245
2.81945
2.82365
2.82545
2.82615
2.82679
2.82777
2.82906
2.83046
2.83179
2.83298
2.83403
2.835
2.83592
2.83685
2.8378
2.83877
2.83977
2.84078
2.84182
2.84287
2.84394
2.84504
2.84616
2.84732
2.8485
2.84972
2.85098
2.85227
2.85359
2.85495
2.85634
2.85776
2.8592
2.86066
2.86212
2.86357
2.865
2.8664
2.86774
2.869
2.87016
2.87119
2.87206
2.87273
2.87317
2.87333
2.87318
2.87264
2.87168
2.87022
2.8682
2.86554
2.86216
2.85796
2.85284
2.84669
2.83937
2.83074
2.82063
2.80882
2.79506
2.77901
2.7602
2.73793
2.71108
2.67769
2.63417
2.57333
2.47901
2.38777
1
1
1
1
1
1
1
1
1
1
1
1
1
1
1
1
1
1
1
1
1
1
1
1
1
1
1
1
1
1
1
1
1
1
1
1
1
1
1
1
1
1
1.00001
1.00666
1.53529
2.74461
2.83107
2.83577
2.83007
2.82422
2.82084
2.8198
2.82019
2.82116
2.82219
2.8231
2.82394
2.82477
2.82564
2.82655
2.8275
2.82845
2.82941
2.83037
2.83132
2.83226
2.8332
2.83413
2.83507
2.83603
2.83699
2.83799
2.83901
2.84007
2.84116
2.84229
2.84345
2.84465
2.84589
2.84716
2.84846
2.84978
2.85112
2.85246
2.8538
2.85512
2.8564
2.85762
2.85877
2.85982
2.86073
2.86148
2.86203
2.86234
2.86237
2.86207
2.86139
2.86027
2.85865
2.85644
2.85359
2.85
2.84557
2.8402
2.83378
2.82618
2.81724
2.80679
2.79462
2.78047
2.76402
2.74479
2.7221
2.69483
2.66109
2.61731
2.55635
2.46193
2.3667
1
1
1
1
1
1
1
1
1
1
1
1
1
1
1
1
1
1
1
1
1
1
1
1
1
1
1
1
1
1
1
1
1
1
1
1
1
1
1
1
1
1
1
1.00034
1.06742
2.3471
2.78738
2.79171
2.79476
2.80115
2.80684
2.81029
2.81197
2.81294
2.81391
2.81509
2.81641
2.81772
2.8189
2.81994
2.82086
2.8217
2.82249
2.82327
2.82405
2.82483
2.82561
2.82641
2.82721
2.82802
2.82886
2.82972
2.83061
2.83153
2.83249
2.83348
2.83451
2.83558
2.83668
2.83782
2.839
2.84019
2.8414
2.84262
2.84384
2.84503
2.84619
2.84729
2.84832
2.84924
2.85002
2.85064
2.85106
2.85123
2.85112
2.85067
2.84983
2.84854
2.84674
2.84434
2.84128
2.83746
2.8328
2.82718
2.82048
2.81258
2.80332
2.79252
2.77999
2.76545
2.74858
2.72891
2.70578
2.6781
2.64398
2.59993
2.53884
2.44435
2.34536
1
1
1
1
1
1
1
1
1
1
1
1
1
1
1
1
1
1
1
1
1
1
1
1
1
1
1
1
1
1
1
1
1
1
1
1
1
1
1
1
1
1
1
1.00002
1.00518
1.4669
2.72275
2.81284
2.81415
2.80901
2.80567
2.80487
2.8057
2.80719
2.80867
2.8099
2.81086
2.81167
2.81242
2.81315
2.81387
2.81459
2.8153
2.81599
2.81668
2.81735
2.81801
2.81867
2.81933
2.82
2.82069
2.8214
2.82214
2.82292
2.82373
2.82458
2.82547
2.8264
2.82737
2.82837
2.82941
2.83047
2.83154
2.83263
2.83371
2.83477
2.8358
2.83677
2.83766
2.83844
2.83909
2.83957
2.83984
2.83987
2.8396
2.83899
2.83798
2.8365
2.83451
2.83191
2.82863
2.82458
2.81966
2.81377
2.80679
2.79858
2.78899
2.77784
2.76493
2.74999
2.73269
2.71259
2.68901
2.66089
2.62638
2.58204
2.52081
2.42627
2.32375
1
1
1
1
1
1
1
1
1
1
1
1
1
1
1
1
1
1
1
1
1
1
1
1
1
1
1
1
1
1
1
1
1
1
1
1
1
1
1
1
1
1
1
1
1.00027
1.06957
2.21811
2.76147
2.7807
2.78837
2.79547
2.79975
2.8015
2.80211
2.80263
2.8034
2.80435
2.80531
2.80616
2.80686
2.80745
2.80797
2.80846
2.80894
2.80943
2.80991
2.81041
2.8109
2.81141
2.81193
2.81247
2.81303
2.81363
2.81426
2.81492
2.81562
2.81636
2.81714
2.81796
2.81882
2.81971
2.82062
2.82156
2.8225
2.82344
2.82436
2.82524
2.82607
2.82681
2.82745
2.82795
2.82827
2.82839
2.82825
2.82782
2.82703
2.82584
2.82418
2.82197
2.81916
2.81565
2.81136
2.80618
2.80001
2.79273
2.7842
2.77427
2.76276
2.74945
2.7341
2.71637
2.69582
2.67179
2.64322
2.60832
2.56367
2.50229
2.40772
2.30189
1
1
1
1
1
1
1
1
1
1
1
1
1
1
1
1
1
1
1
1
1
1
1
1
1
1
1
1
1
1
1
1
1
1
1
1
1
1
1
1
1
1
1
1
1.00001
1.00944
1.29442
2.69022
2.80947
2.80143
2.79534
2.79362
2.79426
2.79571
2.7971
2.7981