/*--------------------------------*- C++ -*----------------------------------*\
| =========                 |                                                 |
| \\      /  F ield         | OpenFOAM: The Open Source CFD Toolbox           |
|  \\    /   O peration     | Version:  2.2.x                                 |
|   \\  /    A nd           | Web:      www.OpenFOAM.org                      |
|    \\/     M anipulation  |                                                 |
\*---------------------------------------------------------------------------*/
FoamFile
{
    version     2.0;
    format      ascii;
    class       volScalarField;
    location    "0.45";
    object      T;
}
// * * * * * * * * * * * * * * * * * * * * * * * * * * * * * * * * * * * * * //

dimensions      [0 0 0 1 0 0 0];

internalField   nonuniform List<scalar> 
14161
(
1
1
1
1
1
1
1
1
1
1
1
1
1
1
1
1
1
1
1
1
1
1
1
1
1
1
1
1
1
1
1
1
1
1
1
1
1
1
1.62678
3.1332
3.1345
3.14128
3.1607
3.18096
3.1967
3.20663
3.2104
3.21002
3.20854
3.20846
3.21092
3.21558
3.22128
3.2268
3.23144
3.23513
3.23826
3.24131
3.24462
3.24829
3.25226
3.2564
3.26059
3.26477
3.26892
3.27309
3.27723
3.28134
3.28537
3.28929
3.2931
3.29679
3.30039
3.30393
3.30745
3.31097
3.31453
3.31815
3.32185
3.32564
3.32951
3.33346
3.33748
3.34156
3.34568
3.34983
3.35398
3.35812
3.36225
3.36634
3.3704
3.37443
3.37843
3.38242
3.38641
3.39042
3.39445
3.39851
3.4026
3.40673
3.41089
3.41507
3.41926
3.42346
3.42767
3.43189
3.43613
3.44041
3.44478
3.44927
3.45395
3.45892
3.4643
3.47027
3.47712
3.48532
3.49566
3.5098
3.5544
1
1
1
1
1
1
1
1
1
1
1
1
1
1
1
1
1
1
1
1
1
1
1
1
1
1
1
1
1
1
1
1
1
1
1
1
1
1
1.91392
3.22772
3.18719
3.18764
3.21888
3.25453
3.28064
3.29282
3.29275
3.28645
3.28031
3.27819
3.28063
3.28594
3.29184
3.29678
3.30038
3.30314
3.30578
3.30885
3.3125
3.3166
3.32097
3.32542
3.32996
3.33458
3.3393
3.34405
3.3488
3.3535
3.35812
3.36264
3.36703
3.37131
3.37547
3.37952
3.38349
3.38738
3.39122
3.39504
3.39885
3.40267
3.40652
3.41041
3.41432
3.41824
3.42218
3.42609
3.42998
3.43383
3.43762
3.44135
3.44503
3.44868
3.4523
3.45594
3.45962
3.46338
3.46727
3.47133
3.47559
3.4801
3.4849
3.49005
3.49561
3.50165
3.50824
3.51551
3.52357
3.53255
3.54261
3.55383
3.56625
3.57966
3.59337
3.60597
3.61505
3.61776
3.61281
3.60398
3.58997
1
1
1
1
1
1
1
1
1
1
1
1
1
1
1
1
1
1
1
1
1
1
1
1
1
1
1
1
1
1
1
1
1
1
1
1
1
1
1.58624
3.12256
3.13361
3.14451
3.16583
3.18692
3.20281
3.21126
3.21386
3.21293
3.21144
3.21167
3.21441
3.21911
3.22457
3.22965
3.23377
3.23698
3.23972
3.24244
3.24545
3.24883
3.25252
3.25651
3.26068
3.26497
3.26938
3.27391
3.27854
3.28324
3.28798
3.29273
3.29747
3.30223
3.30701
3.31186
3.31679
3.32184
3.32704
3.33242
3.33799
3.34375
3.34971
3.35586
3.36218
3.36865
3.37524
3.38191
3.38865
3.3954
3.40215
3.40888
3.41557
3.42221
3.4288
3.43537
3.44192
3.44847
3.45506
3.46172
3.46848
3.47538
3.48247
3.48981
3.49745
3.50551
3.51408
3.52334
3.53348
3.54477
3.55755
3.5723
3.58957
3.60987
3.63322
3.65796
3.67912
3.68809
3.67761
3.65201
3.5895
1
1
1
1
1
1
1
1
1
1
1
1
1
1
1
1
1
1
1
1
1
1
1
1
1
1
1
1
1
1
1
1
1
1
1
1
1
1
1.71239
3.16897
3.1552
3.16153
3.18736
3.21481
3.23536
3.2469
3.24948
3.24673
3.2432
3.24219
3.24471
3.24986
3.25593
3.26144
3.26577
3.26913
3.27209
3.27521
3.27874
3.28269
3.28688
3.29111
3.29531
3.29944
3.30353
3.30754
3.31147
3.31526
3.31887
3.3223
3.32553
3.3286
3.33153
3.33437
3.33717
3.33998
3.34287
3.34587
3.34902
3.35238
3.35596
3.35978
3.36385
3.36818
3.37274
3.37754
3.38256
3.38777
3.39317
3.39873
3.40446
3.41035
3.41639
3.42261
3.42902
3.43562
3.44243
3.44948
3.45679
3.46437
3.47227
3.48053
3.48919
3.49835
3.5081
3.5186
3.53006
3.54277
3.55713
3.57373
3.59339
3.61714
3.64589
3.67914
3.71212
3.73305
3.72724
3.69445
3.59973
1
1
1
1
1
1
1
1
1
1
1
1
1
1
1
1
1
1
1
1
1
1
1
1
1
1
1
1
1
1
1
1
1
1
1
1
1
1
1.6665
3.15757
3.15141
3.16015
3.18633
3.21332
3.23328
3.24365
3.24544
3.24229
3.23858
3.23742
3.23973
3.24459
3.25032
3.2555
3.25953
3.2626
3.26529
3.26813
3.27141
3.27512
3.27913
3.28331
3.28757
3.29186
3.29621
3.3006
3.305
3.30938
3.31369
3.31791
3.32202
3.32603
3.32995
3.3338
3.3376
3.34139
3.34516
3.34896
3.3528
3.35669
3.36064
3.36466
3.36876
3.37294
3.37721
3.38156
3.38599
3.39051
3.39511
3.39983
3.40466
3.40963
3.41476
3.4201
3.42567
3.4315
3.43762
3.44408
3.45089
3.4581
3.46573
3.47384
3.48247
3.49172
3.50167
3.51249
3.52437
3.5376
3.5526
3.56998
3.59066
3.6159
3.6472
3.68519
3.72663
3.75958
3.76408
3.73198
3.61281
1
1
1
1
1
1
1
1
1
1
1
1
1
1
1
1
1
1
1
1
1
1
1
1
1
1
1
1
1
1
1
1
1
1
1
1
1
1
1.57383
3.13582
3.14275
3.15485
3.18017
3.20493
3.2229
3.23207
3.23376
3.23119
3.22827
3.22778
3.23046
3.23545
3.24118
3.24633
3.25036
3.25344
3.25611
3.25893
3.26217
3.26587
3.26989
3.27407
3.27834
3.28264
3.28699
3.29138
3.29579
3.30019
3.30455
3.30884
3.31306
3.31724
3.32138
3.32552
3.3297
3.33392
3.33822
3.34261
3.3471
3.35168
3.35636
3.36112
3.36595
3.37082
3.37573
3.38064
3.38556
3.39046
3.39534
3.40022
3.4051
3.41001
3.41499
3.42008
3.42531
3.43074
3.43642
3.44239
3.4487
3.45539
3.46253
3.47016
3.47837
3.48723
3.49687
3.50745
3.51916
3.5323
3.5473
3.56476
3.5856
3.61121
3.64335
3.68353
3.73022
3.77316
3.79017
3.76483
3.62707
1
1
1
1
1
1
1
1
1
1
1
1
1
1
1
1
1
1
1
1
1
1
1
1
1
1
1
1
1
1
1
1
1
1
1
1
1
1
1.58662
3.14131
3.1476
3.16177
3.19017
3.21723
3.23613
3.24543
3.24618
3.24248
3.23888
3.23832
3.24138
3.24685
3.25291
3.25821
3.26227
3.26542
3.26828
3.27136
3.27488
3.27878
3.2829
3.28709
3.29126
3.2954
3.2995
3.30356
3.30754
3.31142
3.31516
3.31876
3.32221
3.32554
3.3288
3.33202
3.33526
3.33855
3.34195
3.34548
3.34917
3.35304
3.3571
3.36135
3.36576
3.37033
3.37503
3.37983
3.3847
3.38963
3.39458
3.39955
3.40454
3.40956
3.41461
3.41974
3.42497
3.43033
3.43588
3.44166
3.44772
3.45411
3.46088
3.46811
3.47588
3.48429
3.49347
3.50359
3.51487
3.52761
3.54222
3.55933
3.57983
3.60513
3.63713
3.67789
3.72737
3.77779
3.80734
3.79295
3.64203
1
1
1
1
1
1
1
1
1
1
1
1
1
1
1
1
1
1
1
1
1
1
1
1
1
1
1
1
1
1
1
1
1
1
1
1
1
1
1.48931
3.11907
3.14151
3.16012
3.18886
3.21469
3.23206
3.23958
3.2393
3.23533
3.23195
3.23175
3.23504
3.24049
3.24634
3.25132
3.25506
3.25794
3.2606
3.26354
3.26698
3.27087
3.27503
3.2793
3.28361
3.28794
3.29229
3.29665
3.30101
3.30531
3.30953
3.31366
3.31768
3.3216
3.32546
3.32928
3.33308
3.33689
3.34074
3.34466
3.34865
3.35275
3.35695
3.36126
3.36569
3.37022
3.37485
3.37956
3.38434
3.38918
3.39406
3.39899
3.40395
3.40897
3.41404
3.41919
3.42444
3.42981
3.43535
3.44107
3.44703
3.45327
3.45983
3.46679
3.47422
3.48225
3.49099
3.50063
3.51139
3.52359
3.53764
3.55416
3.57403
3.59863
3.62991
3.67027
3.72083
3.77639
3.81729
3.81628
3.65741
1
1
1
1
1
1
1
1
1
1
1
1
1
1
1
1
1
1
1
1
1
1
1
1
1
1
1
1
1
1
1
1
1
1
1
1
1
1
1.41094
3.10278
3.13959
3.16238
3.19236
3.21786
3.23411
3.24042
3.23912
3.23469
3.23147
3.23179
3.23566
3.24151
3.24751
3.25247
3.25615
3.25903
3.26178
3.26487
3.26846
3.27246
3.27667
3.28093
3.28518
3.2894
3.29361
3.29778
3.3019
3.30595
3.30989
3.31372
3.31746
3.32112
3.32476
3.32838
3.33205
3.33577
3.33959
3.34351
3.34756
3.35173
3.35602
3.36042
3.36493
3.36953
3.37421
3.37894
3.38373
3.38855
3.39341
3.39831
3.40325
3.40824
3.4133
3.41845
3.42371
3.4291
3.43464
3.44036
3.44628
3.45245
3.4589
3.46569
3.4729
3.48063
3.48901
3.49822
3.50849
3.52013
3.53356
3.54938
3.56847
3.59216
3.62241
3.66177
3.71227
3.77103
3.82153
3.83489
3.67296
1
1
1
1
1
1
1
1
1
1
1
1
1
1
1
1
1
1
1
1
1
1
1
1
1
1
1
1
1
1
1
1
1
1
1
1
1
1
1.30852
3.08023
3.13772
3.16514
3.19601
3.22067
3.23533
3.23981
3.23718
3.23225
3.22927
3.23019
3.2346
3.24071
3.24666
3.25141
3.25489
3.25766
3.26044
3.26364
3.26736
3.27147
3.27576
3.28007
3.28434
3.28858
3.29278
3.29696
3.30107
3.3051
3.30903
3.31284
3.31657
3.32022
3.32383
3.32744
3.33108
3.33478
3.33858
3.34249
3.34652
3.35069
3.35499
3.35942
3.36395
3.36857
3.37327
3.37803
3.38282
3.38766
3.39251
3.39741
3.40234
3.40732
3.41238
3.41752
3.42278
3.42818
3.43373
3.43945
3.44536
3.4515
3.45789
3.46458
3.47163
3.47915
3.48725
3.4961
3.50594
3.51706
3.52988
3.54498
3.56324
3.58592
3.61496
3.65301
3.70271
3.76316
3.82137
3.84901
3.6884
1
1
1
1
1
1
1
1
1
1
1
1
1
1
1
1
1
1
1
1
1
1
1
1
1
1
1
1
1
1
1
1
1
1
1
1
1
1
1.19687
3.05412
3.13747
3.16908
3.20037
3.22375
3.23633
3.23864
3.23457
3.22929
3.22683
3.22862
3.23375
3.24018
3.24607
3.25058
3.25383
3.25652
3.25934
3.26266
3.26652
3.27072
3.27504
3.27935
3.28359
3.28778
3.29193
3.29603
3.30007
3.30402
3.30787
3.31162
3.31528
3.3189
3.32249
3.3261
3.32975
3.33348
3.3373
3.34123
3.3453
3.34949
3.3538
3.35824
3.36278
3.36741
3.37211
3.37687
3.38167
3.3865
3.39136
3.39625
3.40118
3.40616
3.41122
3.41637
3.42164
3.42704
3.43259
3.43832
3.44423
3.45036
3.45671
3.46333
3.47029
3.47765
3.48554
3.4941
3.50357
3.51423
3.52648
3.5409
3.55832
3.57998
3.60775
3.64432
3.69275
3.75378
3.81791
3.85901
3.70346
1
1
1
1
1
1
1
1
1
1
1
1
1
1
1
1
1
1
1
1
1
1
1
1
1
1
1
1
1
1
1
1
1
1
1
1
1
1
1.08705
3.02441
3.13936
3.17426
3.20533
3.22674
3.23663
3.23638
3.23084
3.22544
3.2238
3.22666
3.23255
3.23922
3.24495
3.24914
3.25216
3.25481
3.25774
3.26126
3.26529
3.26959
3.27396
3.27825
3.28246
3.28659
3.29068
3.29471
3.29867
3.30254
3.30631
3.30999
3.31361
3.31719
3.32078
3.32439
3.32806
3.33182
3.33568
3.33966
3.34376
3.34799
3.35235
3.35681
3.36136
3.366
3.37071
3.37546
3.38026
3.38509
3.38994
3.39483
3.39976
3.40475
3.40982
3.41498
3.42026
3.42567
3.43124
3.43697
3.44288
3.449
3.45533
3.46191
3.46879
3.47603
3.48376
3.4921
3.50126
3.51151
3.52326
3.53704
3.55366
3.57432
3.60083
3.63586
3.68275
3.74355
3.81202
3.86534
3.71787
1
1
1
1
1
1
1
1
1
1
1
1
1
1
1
1
1
1
1
1
1
1
1
1
1
1
1
1
1
1
1
1
1
1
1
1
1
1
1.01171
2.993
3.14423
3.18096
3.21104
3.22966
3.23615
3.23301
3.22614
3.22105
3.22066
3.22486
3.23157
3.2384
3.24385
3.24766
3.25046
3.25312
3.25623
3.25997
3.26417
3.26856
3.27292
3.27715
3.28127
3.28531
3.28929
3.29321
3.29706
3.30082
3.3045
3.3081
3.31166
3.31521
3.31877
3.32239
3.32608
3.32986
3.33376
3.33779
3.34194
3.34621
3.3506
3.35509
3.35967
3.36432
3.36903
3.37378
3.37857
3.3834
3.38825
3.39314
3.39808
3.40308
3.40816
3.41334
3.41863
3.42406
3.42964
3.43539
3.4413
3.44741
3.45372
3.46027
3.46709
3.47425
3.48184
3.49
3.4989
3.50882
3.52012
3.53333
3.5492
3.5689
3.59419
3.62768
3.67291
3.73292
3.80438
3.86846
3.73141
1
1
1
1
1
1
1
1
1
1
1
1
1
1
1
1
1
1
1
1
1
1
1
1
1
1
1
1
1
1
1
1
1
1
1
1
1
1
1.00015
2.95763
3.15153
3.18903
3.21712
3.2318
3.23411
3.22791
3.22016
3.21602
3.2174
3.22311
3.23054
3.23732
3.24233
3.24571
3.24834
3.25111
3.25449
3.25849
3.26286
3.2673
3.27161
3.27575
3.27975
3.28367
3.28754
3.29135
3.29508
3.29875
3.30234
3.30588
3.3094
3.31293
3.31649
3.32012
3.32384
3.32766
3.3316
3.33567
3.33986
3.34417
3.34859
3.3531
3.3577
3.36235
3.36706
3.37181
3.3766
3.38141
3.38627
3.39116
3.39611
3.40113
3.40623
3.41143
3.41675
3.4222
3.4278
3.43356
3.43948
3.44558
3.45188
3.4584
3.46517
3.47226
3.47975
3.48775
3.49645
3.50608
3.51699
3.52967
3.54487
3.56368
3.5878
3.6198
3.66331
3.72215
3.79553
3.86885
3.74388
1
1
1
1
1
1
1
1
1
1
1
1
1
1
1
1
1
1
1
1
1
1
1
1
1
1
1
1
1
1
1
1
1
1
1
1
1
1
1
2.91449
3.16081
3.19844
3.22306
3.23236
3.22981
3.22081
3.21305
3.2108
3.21448
3.22181
3.22977
3.23624
3.24063
3.24357
3.2461
3.24906
3.25273
3.25696
3.26142
3.2658
3.26998
3.27395
3.2778
3.28158
3.28532
3.28901
3.29265
3.29622
3.29975
3.30325
3.30675
3.31029
3.31387
3.31754
3.32131
3.32518
3.32918
3.33329
3.33753
3.34187
3.34631
3.35084
3.35544
3.36009
3.3648
3.36954
3.37432
3.37913
3.38399
3.38889
3.39385
3.39889
3.40402
3.40925
3.4146
3.42008
3.4257
3.43147
3.4374
3.4435
3.44979
3.45628
3.46301
3.47004
3.47744
3.48532
3.49384
3.50322
3.51378
3.52601
3.54059
3.55857
3.5816
3.61218
3.65399
3.71141
3.78583
3.86695
3.75515
1
1
1
1
1
1
1
1
1
1
1
1
1
1
1
1
1
1
1
1
1
1
1
1
1
1
1
1
1
1
1
1
1
1
1
1
1
1
1
2.86221
3.17252
3.20896
3.22789
3.23019
3.22251
3.21167
3.2053
3.206
3.21239
3.22116
3.22921
3.235
3.23862
3.24114
3.24369
3.24692
3.25088
3.25527
3.25969
3.26392
3.26788
3.27166
3.27534
3.27898
3.28261
3.28621
3.28977
3.29328
3.29677
3.30026
3.30377
3.30733
3.31096
3.31467
3.31849
3.32243
3.32648
3.33064
3.33492
3.33929
3.34375
3.34828
3.35288
3.35753
3.36222
3.36696
3.37173
3.37655
3.38141
3.38632
3.3913
3.39637
3.40153
3.40679
3.41218
3.41769
3.42334
3.42913
3.43507
3.44117
3.44744
3.45391
3.46061
3.46758
3.4749
3.48267
3.49103
3.5002
3.51047
3.52228
3.5363
3.55353
3.57554
3.60478
3.64492
3.70079
3.77559
3.86313
3.76511
1
1
1
1
1
1
1
1
1
1
1
1
1
1
1
1
1
1
1
1
1
1
1
1
1
1
1
1
1
1
1
1
1
1
1
1
1
1
1
2.79803
3.187
3.21947
3.22958
3.22351
3.21142
3.20074
3.19773
3.20244
3.21161
3.22126
3.22875
3.23345
3.23622
3.23844
3.24115
3.24472
3.24893
3.25335
3.25762
3.26158
3.26528
3.26884
3.27236
3.27589
3.27943
3.28295
3.28646
3.28994
3.29342
3.29692
3.30046
3.30406
3.30775
3.31152
3.31541
3.3194
3.3235
3.3277
3.33201
3.3364
3.34087
3.3454
3.34999
3.35463
3.35932
3.36405
3.36882
3.37364
3.37851
3.38344
3.38845
3.39355
3.39875
3.40405
3.40948
3.41502
3.4207
3.42651
3.43246
3.43856
3.44483
3.45127
3.45793
3.46486
3.47211
3.47978
3.48801
3.49699
3.50699
3.51844
3.53195
3.54849
3.56957
3.59754
3.63609
3.69033
3.76498
3.85775
3.7737
1
1
1
1
1
1
1
1
1
1
1
1
1
1
1
1
1
1
1
1
1
1
1
1
1
1
1
1
1
1
1
1
1
1
1
1
1
1
1
2.71784
3.2042
3.22781
3.22553
3.21107
3.19704
3.1897
3.19218
3.20144
3.21272
3.22218
3.22826
3.23147
3.23338
3.23545
3.23844
3.24232
3.24664
3.25092
3.25489
3.25854
3.26199
3.26538
3.26881
3.27228
3.27578
3.27927
3.28276
3.28624
3.28974
3.29327
3.29686
3.30052
3.30426
3.3081
3.31204
3.31608
3.32022
3.32445
3.32877
3.33317
3.33764
3.34217
3.34676
3.35139
3.35607
3.36079
3.36557
3.3704
3.37529
3.38025
3.3853
3.39044
3.39568
3.40103
3.40649
3.41208
3.41778
3.42362
3.42958
3.43568
3.44193
3.44836
3.45499
3.46186
3.46905
3.47664
3.48475
3.49356
3.50333
3.51444
3.5275
3.5434
3.56361
3.59041
3.62743
3.68003
3.75415
3.85108
3.78089
1
1
1
1
1
1
1
1
1
1
1
1
1
1
1
1
1
1
1
1
1
1
1
1
1
1
1
1
1
1
1
1
1
1
1
1
1
1
1
2.6134
3.22206
3.22923
3.21231
3.19261
3.18151
3.18143
3.1908
3.20386
3.2155
3.22314
3.22687
3.2284
3.22968
3.2319
3.23531
3.23946
3.24375
3.24776
3.25138
3.25474
3.25801
3.26133
3.26474
3.26822
3.27172
3.27523
3.27873
3.28224
3.28577
3.28936
3.293
3.29671
3.30051
3.3044
3.30837
3.31245
3.31661
3.32086
3.32519
3.32959
3.33405
3.33857
3.34314
3.34777
3.35245
3.35718
3.36197
3.36682
3.37174
3.37675
3.38184
3.38702
3.39231
3.39771
3.40322
3.40884
3.41458
3.42043
3.4264
3.43251
3.43875
3.44516
3.45175
3.45859
3.46572
3.47322
3.48122
3.48988
3.49944
3.51025
3.52289
3.53822
3.55762
3.58332
3.61891
3.66987
3.74317
3.84336
3.78668
1
1
1
1
1
1
1
1
1
1
1
1
1
1
1
1
1
1
1
1
1
1
1
1
1
1
1
1
1
1
1
1
1
1
1
1
1
1
1
2.46775
3.23372
3.21682
3.1886
3.17181
3.17014
3.18005
3.19534
3.20935
3.2185
3.22254
3.22341
3.2236
3.22485
3.22766
3.23162
3.23596
3.24007
3.24374
3.24706
3.25025
3.25348
3.25685
3.26032
3.26384
3.26738
3.27091
3.27444
3.27798
3.28156
3.28519
3.28888
3.29263
3.29646
3.30038
3.30438
3.30847
3.31264
3.31689
3.32121
3.3256
3.33005
3.33457
3.33914
3.34377
3.34845
3.3532
3.35802
3.36291
3.36787
3.37292
3.37806
3.3833
3.38864
3.39409
3.39964
3.4053
3.41107
3.41695
3.42293
3.42903
3.43527
3.44166
3.44822
3.45502
3.46209
3.46952
3.47742
3.48594
3.4953
3.50584
3.5181
3.53289
3.55155
3.57624
3.61046
3.65983
3.73211
3.83476
3.79108
1
1
1
1
1
1
1
1
1
1
1
1
1
1
1
1
1
1
1
1
1
1
1
1
1
1
1
1
1
1
1
1
1
1
1
1
1
1
1
2.24186
3.2224
3.18544
3.16031
3.15792
3.1698
3.18778
3.20411
3.21431
3.21806
3.21776
3.21656
3.21672
3.219
3.22291
3.22747
3.23183
3.23564
3.23897
3.24211
3.24529
3.24863
3.25212
3.25569
3.25928
3.26284
3.26639
3.26994
3.2735
3.2771
3.28075
3.28446
3.28823
3.29207
3.296
3.3
3.30409
3.30826
3.3125
3.31681
3.32119
3.32564
3.33016
3.33473
3.33938
3.34409
3.34887
3.35372
3.35865
3.36367
3.36877
3.37397
3.37927
3.38467
3.39017
3.39576
3.40146
3.40726
3.41315
3.41914
3.42525
3.43148
3.43785
3.44439
3.45114
3.45817
3.46553
3.47333
3.48172
3.49089
3.50119
3.51309
3.52739
3.54536
3.5691
3.60205
3.64986
3.72098
3.82546
3.79415
1
1
1
1
1
1
1
1
1
1
1
1
1
1
1
1
1
1
1
1
1
1
1
1
1
1
1
1
1
1
1
1
1
1
1
1
1
1
1
1.85428
3.16331
3.14441
3.14351
3.1605
3.18141
3.1994
3.20984
3.21255
3.21059
3.20784
3.20708
3.20915
3.21337
3.21842
3.22321
3.22725
3.23064
3.23373
3.23686
3.2402
3.24372
3.24735
3.25098
3.25457
3.25812
3.26164
3.26517
3.26873
3.27232
3.27596
3.27966
3.28342
3.28726
3.29119
3.29519
3.29927
3.30343
3.30767
3.31198
3.31636
3.32081
3.32534
3.32994
3.33461
3.33935
3.34417
3.34907
3.35406
3.35914
3.3643
3.36956
3.37492
3.38037
3.38592
3.39156
3.3973
3.40312
3.40903
3.41504
3.42114
3.42736
3.43372
3.44024
3.44696
3.45393
3.46123
3.46894
3.4772
3.4862
3.49626
3.50783
3.52167
3.53901
3.56186
3.59361
3.63993
3.7098
3.81555
3.79591
1
1
1
1
1
1
1
1
1
1
1
1
1
1
1
1
1
1
1
1
1
1
1
1
1
1
1
1
1
1
1
1
1
1
1
1
1
1
1
1.28482
3.05828
3.1227
3.14898
3.17506
3.19435
3.20452
3.20568
3.20167
3.19733
3.19594
3.19829
3.2033
3.20918
3.21454
3.21884
3.22225
3.22527
3.22834
3.23167
3.23523
3.2389
3.24255
3.24612
3.24962
3.25308
3.25653
3.26001
3.26352
3.26708
3.2707
3.27438
3.27814
3.28198
3.2859
3.2899
3.29399
3.29815
3.30239
3.30671
3.31111
3.31558
3.32013
3.32476
3.32946
3.33425
3.33913
3.34408
3.34913
3.35427
3.3595
3.36483
3.37024
3.37575
3.38135
3.38703
3.3928
3.39865
3.40458
3.4106
3.41671
3.42292
3.42926
3.43576
3.44245
3.44938
3.45661
3.46423
3.47237
3.48121
3.49104
3.5023
3.51572
3.53246
3.55448
3.5851
3.63
3.69856
3.80513
3.79644
1
1
1
1
1
1
1
1
1
1
1
1
1
1
1
1
1
1
1
1
1
1
1
1
1
1
1
1
1
1
1
1
1
1
1
1
1
1
1
1.00998
2.94836
3.13586
3.16922
3.19108
3.20013
3.19807
3.19087
3.18472
3.18327
3.1868
3.19334
3.20044
3.20644
3.21086
3.21411
3.21692
3.21986
3.22313
3.22668
3.23034
3.23394
3.23743
3.24082
3.24416
3.2475
3.25087
3.25429
3.25777
3.26131
3.26491
3.2686
3.27236
3.27621
3.28014
3.28416
3.28826
3.29244
3.2967
3.30104
3.30545
3.30995
3.31454
3.31921
3.32396
3.3288
3.33373
3.33875
3.34387
3.34907
3.35437
3.35975
3.36523
3.37079
3.37644
3.38216
3.38796
3.39384
3.39979
3.40582
3.41193
3.41815
3.42448
3.43096
3.43761
3.44449
3.45166
3.45919
3.46721
3.47589
3.48551
3.49648
3.5095
3.52568
3.54693
3.57649
3.62002
3.68724
3.79427
3.79577
1
1
1
1
1
1
1
1
1
1
1
1
1
1
1
1
1
1
1
1
1
1
1
1
1
1
1
1
1
1
1
1
1
1
1
1
1
1
1
1.00053
2.8038
3.16651
3.19214
3.19688
3.18921
3.17705
3.16948
3.16951
3.1758
3.18485
3.1934
3.19972
3.20375
3.20637
3.20865
3.21126
3.21439
3.21787
3.22144
3.22493
3.22827
3.23151
3.23471
3.23794
3.24123
3.24458
3.248
3.25147
3.25502
3.25864
3.26234
3.26613
3.27001
3.27397
3.27801
3.28213
3.28633
3.29061
3.29497
3.29942
3.30396
3.30858
3.3133
3.3181
3.323
3.32799
3.33308
3.33826
3.34353
3.34889
3.35433
3.35987
3.36548
3.37117
3.37694
3.38277
3.38867
3.39465
3.40069
3.40681
3.41303
3.41935
3.42581
3.43244
3.43927
3.44637
3.45382
3.46172
3.47025
3.47966
3.49035
3.50298
3.51864
3.53917
3.56773
3.60995
3.67584
3.78301
3.79398
1
1
1
1
1
1
1
1
1
1
1
1
1
1
1
1
1
1
1
1
1
1
1
1
1
1
1
1
1
1
1
1
1
1
1
1
1
1
1
1.00003
2.59143
3.19823
3.19447
3.17459
3.15822
3.15183
3.15684
3.16814
3.18019
3.18934
3.19462
3.19698
3.19815
3.19953
3.20175
3.20479
3.20826
3.2118
3.2152
3.21842
3.22154
3.22467
3.22785
3.23111
3.23444
3.23782
3.24126
3.24476
3.24833
3.25198
3.25571
3.25953
3.26343
3.26741
3.27147
3.27561
3.27983
3.28414
3.28853
3.29302
3.29759
3.30226
3.30703
3.31189
3.31685
3.3219
3.32705
3.3323
3.33763
3.34305
3.34856
3.35415
3.35981
3.36555
3.37136
3.37722
3.38315
3.38915
3.39521
3.40134
3.40756
3.41388
3.42032
3.42692
3.43371
3.44074
3.4481
3.45589
3.46426
3.47346
3.48389
3.49616
3.51132
3.53116
3.55879
3.59977
3.66432
3.7714
3.79112
1
1
1
1
1
1
1
1
1
1
1
1
1
1
1
1
1
1
1
1
1
1
1
1
1
1
1
1
1
1
1
1
1
1
1
1
1
1
1
1
2.20364
3.18103
3.15001
3.13304
3.13625
3.15072
3.16752
3.1802
3.18672
3.18828
3.18754
3.18694
3.18782
3.19031
3.19384
3.1977
3.20143
3.20484
3.20802
3.21111
3.21423
3.21743
3.2207
3.22403
3.22738
3.23078
3.23422
3.23772
3.2413
3.24496
3.24872
3.25255
3.25648
3.26048
3.26456
3.26872
3.27296
3.2773
3.28173
3.28625
3.29087
3.29559
3.30041
3.30532
3.31034
3.31546
3.32067
3.32597
3.33137
3.33685
3.34242
3.34806
3.35378
3.35956
3.36541
3.37131
3.37727
3.38329
3.38937
3.39552
3.40174
3.40806
3.41448
3.42105
3.42779
3.43476
3.44203
3.44969
3.45791
3.46692
3.47708
3.48901
3.5037
3.5229
3.54963
3.58943
3.65266
3.75946
3.78724
1
1
1
1
1
1
1
1
1
1
1
1
1
1
1
1
1
1
1
1
1
1
1
1
1
1
1
1
1
1
1
1
1
1
1
1
1
1
1
1
1.40346
3.053
3.10676
3.13045
3.15315
3.1698
3.17778
3.17829
3.17514
3.17219
3.17167
3.17394
3.17806
3.1828
3.18728
3.19116
3.19451
3.19759
3.20063
3.20375
3.20695
3.2102
3.21347
3.21675
3.22005
3.22338
3.22679
3.23029
3.23388
3.23756
3.24134
3.2452
3.24914
3.25317
3.25727
3.26145
3.26573
3.27009
3.27456
3.27912
3.28378
3.28855
3.29342
3.29839
3.30347
3.30864
3.31392
3.31928
3.32474
3.33028
3.33591
3.3416
3.34737
3.3532
3.35909
3.36503
3.37103
3.37707
3.38318
3.38934
3.39557
3.40188
3.40829
3.41483
3.42152
3.42842
3.43559
3.44314
3.4512
3.46001
3.46992
3.48151
3.49576
3.51434
3.54023
3.57891
3.64085
3.7472
3.78239
1
1
1
1
1
1
1
1
1
1
1
1
1
1
1
1
1
1
1
1
1
1
1
1
1
1
1
1
1
1
1
1
1
1
1
1
1
1
1
1
1.01667
2.89438
3.13168
3.15884
3.17055
3.16944
3.16214
3.15535
3.15308
3.15574
3.16151
3.16808
3.17387
3.17835
3.18175
3.1846
3.18734
3.19021
3.19323
3.19635
3.19948
3.20261
3.20574
3.2089
3.21213
3.21546
3.21889
3.22242
3.22606
3.22979
3.2336
3.23749
3.24145
3.2455
3.24962
3.25383
3.25812
3.26252
3.26702
3.27162
3.27633
3.28114
3.28606
3.29109
3.29623
3.30146
3.30679
3.31222
3.31774
3.32334
3.32902
3.33477
3.34059
3.34647
3.3524
3.35839
3.36442
3.3705
3.37662
3.3828
3.38904
3.39535
3.40174
3.40824
3.41488
3.42171
3.42878
3.43621
3.44412
3.45273
3.46239
3.47366
3.48748
3.50548
3.53057
3.56818
3.62885
3.73463
3.77663
1
1
1
1
1
1
1
1
1
1
1
1
1
1
1
1
1
1
1
1
1
1
1
1
1
1
1
1
1
1
1
1
1
1
1
1
1
1
1
1
1.00078
2.62361
3.17048
3.16779
3.15055
3.13561
3.13142
3.13651
3.14618
3.15593
3.16326
3.16778
3.17035
3.17214
3.17401
3.17631
3.17902
3.18199
3.18503
3.18807
3.1911
3.19414
3.19724
3.20044
3.20374
3.20715
3.21066
3.21426
3.21795
3.22171
3.22554
3.22944
3.23342
3.23747
3.2416
3.24583
3.25015
3.25458
3.25911
3.26375
3.2685
3.27337
3.27834
3.28342
3.28861
3.29391
3.2993
3.30479
3.31037
3.31603
3.32176
3.32757
3.33344
3.33937
3.34535
3.35138
3.35745
3.36356
3.36971
3.37591
3.38215
3.38845
3.39482
3.40129
3.40787
3.41462
3.4216
3.4289
3.43665
3.44507
3.45449
3.46544
3.47884
3.49629
3.52062
3.55721
3.61665
3.72175
3.76999
1
1
1
1
1
1
1
1
1
1
1
1
1
1
1
1
1
1
1
1
1
1
1
1
1
1
1
1
1
1
1
1
1
1
1
1
1
1
1
1
1.00004
2.01598
3.11936
3.10695
3.10484
3.11909
3.13661
3.14973
3.15651
3.15835
3.15791
3.15746
3.15821
3.16029
3.16327
3.16663
3.16998
3.17319
3.17627
3.17929
3.18232
3.18542
3.1886
3.19188
3.19525
3.19871
3.20225
3.20587
3.20956
3.21332
3.21714
3.22104
3.22501
3.22906
3.23321
3.23745
3.2418
3.24626
3.25083
3.25551
3.26031
3.26522
3.27025
3.27539
3.28064
3.28599
3.29144
3.29699
3.30263
3.30835
3.31414
3.32001
3.32593
3.33191
3.33794
3.34401
3.35012
3.35627
3.36244
3.36865
3.3749
3.38119
3.38754
3.39396
3.40049
3.40716
3.41403
3.4212
3.4288
3.43702
3.44619
3.45684
3.46985
3.48675
3.51037
3.54598
3.60423
3.70858
3.76252
1
1
1
1
1
1
1
1
1
1
1
1
1
1
1
1
1
1
1
1
1
1
1
1
1
1
1
1
1
1
1
1
1
1
1
1
1
1
1
1
1
1.09098
2.93209
3.10398
3.13027
3.14417
3.14755
3.14428
3.13982
3.13775
3.13899
3.14264
3.14728
3.1518
3.15574
3.15908
3.16205
3.16487
3.16769
3.17058
3.17356
3.17665
3.17983
3.1831
3.18648
3.18994
3.19348
3.1971
3.20079
3.20454
3.20836
3.21225
3.21623
3.22029
3.22445
3.22872
3.2331
3.23759
3.24219
3.24692
3.25176
3.25672
3.2618
3.267
3.2723
3.27771
3.28322
3.28883
3.29453
3.30031
3.30616
3.31208
3.31807
3.3241
3.33018
3.33629
3.34244
3.34861
3.35481
3.36104
3.36729
3.37357
3.37989
3.38627
3.39273
3.39931
3.40608
3.41311
3.42055
3.42858
3.43751
3.44786
3.46047
3.47687
3.49979
3.53447
3.59156
3.6951
3.75426
1
1
1
1
1
1
1
1
1
1
1
1
1
1
1
1
1
1
1
1
1
1
1
1
1
1
1
1
1
1
1
1
1
1
1
1
1
1
1
1
1
1.00429
2.62887
3.14564
3.14429
3.12721
3.11566
3.1138
3.11921
3.12736
3.13487
3.14037
3.14398
3.14645
3.14851
3.1506
3.1529
3.15541
3.15812
3.161
3.16402
3.16719
3.17048
3.17386
3.17732
3.18085
3.18442
3.18804
3.19172
3.19545
3.19925
3.20314
3.20711
3.21118
3.21535
3.21964
3.22404
3.22856
3.23321
3.23797
3.24286
3.24788
3.25301
3.25825
3.26361
3.26908
3.27465
3.28032
3.28608
3.29192
3.29783
3.30381
3.30985
3.31594
3.32206
3.32822
3.3344
3.34061
3.34683
3.35306
3.35931
3.36558
3.37186
3.37819
3.38459
3.39108
3.39774
3.40464
3.4119
3.41973
3.42843
3.43848
3.45072
3.46662
3.48887
3.52266
3.57863
3.68131
3.74523
1
1
1
1
1
1
1
1
1
1
1
1
1
1
1
1
1
1
1
1
1
1
1
1
1
1
1
1
1
1
1
1
1
1
1
1
1
1
1
1
1
1.00021
1.77563
3.04862
3.07437
3.08968
3.10908
3.12296
3.12974
3.13145
3.13102
3.1307
3.13149
3.1334
3.13603
3.13897
3.14199
3.14505
3.14815
3.15133
3.1546
3.15794
3.16134
3.16476
3.16821
3.17168
3.17518
3.17873
3.18235
3.18603
3.1898
3.19367
3.19763
3.20171
3.2059
3.21021
3.21464
3.2192
3.22388
3.22869
3.23363
3.23869
3.24387
3.24917
3.25459
3.26012
3.26575
3.27148
3.27729
3.28319
3.28917
3.2952
3.30129
3.30743
3.3136
3.3198
3.32602
3.33225
3.33849
3.34473
3.35097
3.35722
3.36347
3.36974
3.37606
3.38246
3.389
3.39576
3.40286
3.41049
3.41894
3.4287
3.44057
3.45599
3.47761
3.51053
3.56542
3.66721
3.73548
1
1
1
1
1
1
1
1
1
1
1
1
1
1
1
1
1
1
1
1
1
1
1
1
1
1
1
1
1
1
1
1
1
1
1
1
1
1
1
1
1
1.00001
1.04878
2.7906
3.1079
3.12241
3.12096
3.11428
3.10935
3.10875
3.11159
3.11589
3.1202
3.12394
3.12718
3.13018
3.13315
3.13619
3.1393
3.14245
3.14564
3.14886
3.1521
3.15537
3.15869
3.16206
3.16549
3.16899
3.17257
3.17623
3.17999
3.18385
3.18782
3.19191
3.19612
3.20045
3.20491
3.20951
3.21423
3.21908
3.22407
3.22918
3.23441
3.23977
3.24524
3.25083
3.25652
3.26231
3.26818
3.27414
3.28017
3.28626
3.29241
3.29859
3.30481
3.31105
3.3173
3.32355
3.3298
3.33605
3.34228
3.34849
3.3547
3.36092
3.36716
3.37346
3.37988
3.38649
3.39342
3.40085
3.40906
3.41852
3.43002
3.44498
3.46598
3.49808
3.55192
3.65278
3.72501
1
1
1
1
1
1
1
1
1
1
1
1
1
1
1
1
1
1
1
1
1
1
1
1
1
1
1
1
1
1
1
1
1
1
1
1
1
1
1
1
1
1
1.00206
2.12828
3.07913
3.07725
3.07715
3.08855
3.1002
3.1076
3.11099
3.11227
3.11321
3.11475
3.1171
3.12004
3.12325
3.12652
3.12975
3.13292
3.13605
3.13919
3.14236
3.14556
3.14881
3.15211
3.15548
3.15892
3.16246
3.16609
3.16983
3.17369
3.17767
3.18177
3.186
3.19037
3.19486
3.1995
3.20426
3.20916
3.21419
3.21936
3.22465
3.23006
3.23559
3.24123
3.24698
3.25282
3.25876
3.26477
3.27086
3.277
3.2832
3.28943
3.29569
3.30196
3.30824
3.31451
3.32077
3.32701
3.33322
3.33941
3.34557
3.35172
3.35787
3.36407
3.37037
3.37683
3.38358
3.3908
3.39876
3.40793
3.41908
3.43357
3.45398
3.48529
3.5381
3.63803
3.71387
1
1
1
1
1
1
1
1
1
1
1
1
1
1
1
1
1
1
1
1
1
1
1
1
1
1
1
1
1
1
1
1
1
1
1
1
1
1
1
1
1
1
1.00009
1.1177
2.78198
3.08464
3.10088
3.09988
3.09489
3.09157
3.09192
3.09517
3.09972
3.10431
3.1084
3.11193
3.11507
3.11799
3.12082
3.12363
3.12645
3.12933
3.13227
3.13529
3.13841
3.14162
3.14494
3.14836
3.15189
3.15553
3.15929
3.16317
3.16717
3.17131
3.17558
3.17998
3.18451
3.18919
3.194
3.19895
3.20403
3.20924
3.21458
3.22005
3.22564
3.23134
3.23714
3.24304
3.24903
3.2551
3.26124
3.26744
3.27368
3.27995
3.28625
3.29255
3.29885
3.30514
3.3114
3.31763
3.32381
3.32996
3.33607
3.34215
3.34822
3.35431
3.36047
3.36677
3.37334
3.38035
3.38806
3.39694
3.40773
3.42178
3.4416
3.47215
3.52397
3.62294
3.70207
1
1
1
1
1
1
1
1
1
1
1
1
1
1
1
1
1
1
1
1
1
1
1
1
1
1
1
1
1
1
1
1
1
1
1
1
1
1
1
1
1
1
1
1.00499
2.00951
3.03293
3.05628
3.0625
3.07501
3.08564
3.09228
3.09571
3.09741
3.09864
3.10012
3.10208
3.10443
3.10701
3.10972
3.11249
3.11531
3.11821
3.12119
3.12426
3.12743
3.13068
3.13403
3.13748
3.14103
3.14469
3.14847
3.15237
3.1564
3.16057
3.16487
3.16931
3.17389
3.1786
3.18346
3.18845
3.19359
3.19885
3.20425
3.20977
3.21541
3.22116
3.22702
3.23298
3.23902
3.24514
3.25133
3.25757
3.26386
3.27017
3.2765
3.28282
3.28914
3.29543
3.30169
3.3079
3.31406
3.32017
3.32622
3.33222
3.33819
3.34416
3.35018
3.35633
3.36271
3.3695
3.37696
3.38554
3.39597
3.40958
3.42885
3.45865
3.50951
3.60752
3.68963
1
1
1
1
1
1
1
1
1
1
1
1
1
1
1
1
1
1
1
1
1
1
1
1
1
1
1
1
1
1
1
1
1
1
1
1
1
1
1
1
1
1
1
1.00023
1.09051
2.70763
3.07162
3.08521
3.08398
3.07997
3.07744
3.07776
3.08023
3.08361
3.08704
3.09021
3.09313
3.09592
3.09867
3.10144
3.10426
3.10715
3.11011
3.11316
3.1163
3.11954
3.12288
3.12633
3.1299
3.13358
3.13738
3.14131
3.14537
3.14957
3.15391
3.15839
3.163
3.16776
3.17266
3.17771
3.18289
3.1882
3.19365
3.19922
3.20492
3.21072
3.21664
3.22264
3.22874
3.23491
3.24114
3.24743
3.25375
3.26009
3.26645
3.27279
3.27912
3.28542
3.29166
3.29785
3.30398
3.31003
3.31601
3.32193
3.3278
3.33365
3.33952
3.3455
3.35168
3.35825
3.36545
3.37373
3.38381
3.39699
3.4157
3.44479
3.49471
3.59175
3.67657
1
1
1
1
1
1
1
1
1
1
1
1
1
1
1
1
1
1
1
1
1
1
1
1
1
1
1
1
1
1
1
1
1
1
1
1
1
1
1
1
1
1
1
1.00001
1.00379
1.89846
2.99462
3.03657
3.04712
3.05882
3.06702
3.07157
3.07394
3.0755
3.07714
3.07918
3.0816
3.08426
3.08703
3.08985
3.09271
3.09562
3.09862
3.1017
3.10487
3.10814
3.1115
3.11497
3.11855
3.12225
3.12607
3.13003
3.13412
3.13834
3.14271
3.14723
3.15188
3.15669
3.16163
3.16672
3.17195
3.17731
3.18281
3.18844
3.19418
3.20004
3.206
3.21206
3.2182
3.22441
3.23069
3.23701
3.24336
3.24974
3.25611
3.26247
3.2688
3.27509
3.28132
3.28748
3.29356
3.29956
3.30547
3.31129
3.31705
3.32277
3.32849
3.33429
3.34027
3.3466
3.35354
3.36151
3.37124
3.38399
3.40217
3.43055
3.47956
3.57563
3.6629
1
1
1
1
1
1
1
1
1
1
1
1
1
1
1
1
1
1
1
1
1
1
1
1
1
1
1
1
1
1
1
1
1
1
1
1
1
1
1
1
1
1
1
1
1.00018
1.10984
2.61412
3.04917
3.06252
3.05866
3.05484
3.05425
3.05656
3.06019
3.06392
3.06727
3.07026
3.07305
3.07577
3.07852
3.08132
3.08418
3.08714
3.09018
3.09332
3.09657
3.09992
3.10339
3.10698
3.1107
3.11454
3.11852
3.12264
3.1269
3.1313
3.13585
3.14055
3.14539
3.15038
3.15552
3.16079
3.1662
3.17175
3.17742
3.18322
3.18912
3.19513
3.20124
3.20742
3.21367
3.21999
3.22634
3.23272
3.23911
3.2455
3.25187
3.2582
3.26447
3.27068
3.2768
3.28284
3.28876
3.29459
3.30032
3.30595
3.31153
3.31709
3.3227
3.32847
3.33456
3.34123
3.3489
3.35827
3.37059
3.38824
3.41595
3.46407
3.55915
3.64865
1
1
1
1
1
1
1
1
1
1
1
1
1
1
1
1
1
1
1
1
1
1
1
1
1
1
1
1
1
1
1
1
1
1
1
1
1
1
1
1
1
1
1
1
1.00001
1.00777
1.57702
2.90317
3.01483
3.03466
3.04445
3.04904
3.05109
3.05235
3.05381
3.0558