/*--------------------------------*- C++ -*----------------------------------*\
| =========                 |                                                 |
| \\      /  F ield         | OpenFOAM: The Open Source CFD Toolbox           |
|  \\    /   O peration     | Version:  2.2.x                                 |
|   \\  /    A nd           | Web:      www.OpenFOAM.org                      |
|    \\/     M anipulation  |                                                 |
\*---------------------------------------------------------------------------*/
FoamFile
{
    version     2.0;
    format      ascii;
    class       volScalarField;
    location    "1.05";
    object      Bx;
}
// * * * * * * * * * * * * * * * * * * * * * * * * * * * * * * * * * * * * * //

dimensions      [1 0 -2 0 0 -1 0];

internalField   nonuniform List<scalar> 
14161
(
1.0006
1.00045
1.00051
1.00056
1.00064
1.00073
1.00084
1.00096
1.00111
1.00129
1.00148
1.00169
1.00192
1.00217
1.00245
1.00274
1.00304
1.00336
1.0037
1.00403
1.00438
1.00473
1.00508
1.0054
1.0057
1.00602
1.00628
1.00653
1.00676
1.00693
1.00703
1.00709
1.00712
1.00707
1.00696
1.00678
1.00654
1.00621
1.00576
1.00523
1.0046
1.00389
1.00303
1.00208
1.00099
0.999783
0.99837
0.996779
0.994728
0.992677
0.988043
0.978396
0.980761
0.99555
1.0205
1.04998
1.07845
1.10342
1.12415
1.14398
1.16313
1.18014
1.19248
1.20227
1.20978
1.21543
1.21954
1.2225
1.22426
1.22515
1.22535
1.22511
1.22459
1.22384
1.22347
1.22403
1.22576
1.2277
1.22979
1.23262
1.23607
1.23989
1.24458
1.24918
1.2528
1.25661
1.26055
1.26344
1.26608
1.2711
1.27923
1.29063
1.30288
1.31318
1.31954
1.32426
1.33365
1.34567
1.34731
1.30693
1.19319
1.0525
0.913879
0.802432
0.71269
0.639114
0.575716
0.520384
0.470198
0.423277
0.377576
0.333137
0.288805
0.244638
0.199175
0.154469
0.105051
0.0648451
0.0182561
1.0006
1.00045
1.00051
1.00056
1.00064
1.00073
1.00084
1.00097
1.00111
1.00128
1.00148
1.00169
1.00192
1.00217
1.00245
1.00274
1.00305
1.00336
1.0037
1.00404
1.00438
1.00474
1.00508
1.0054
1.00571
1.00602
1.00629
1.00653
1.00676
1.00693
1.00704
1.0071
1.00713
1.00709
1.00698
1.00682
1.00657
1.00624
1.00582
1.00532
1.00469
1.00394
1.0031
1.00221
1.00117
0.999969
0.998547
0.996966
0.995358
0.993149
0.992583
0.991214
0.993036
1.00252
1.01985
1.04423
1.06878
1.09161
1.11291
1.13414
1.15404
1.17135
1.18523
1.19666
1.20601
1.21277
1.21801
1.22162
1.22397
1.22531
1.22646
1.2268
1.2267
1.22665
1.22702
1.22743
1.22904
1.23132
1.2336
1.23682
1.24034
1.24394
1.24796
1.25178
1.25547
1.25942
1.2633
1.26673
1.27143
1.27744
1.28552
1.29435
1.30598
1.31151
1.31852
1.32378
1.33126
1.32242
1.26876
1.17827
1.0453
0.917885
0.812278
0.721531
0.643038
0.575601
0.51635
0.463257
0.413644
0.366444
0.320392
0.275875
0.231792
0.188876
0.145919
0.107623
0.0698482
0.0470983
0.0208445
1.0006
1.00045
1.00051
1.00056
1.00064
1.00073
1.00084
1.00096
1.00111
1.00129
1.00148
1.00169
1.00192
1.00217
1.00245
1.00274
1.00305
1.00337
1.0037
1.00404
1.00439
1.00474
1.00508
1.00541
1.00572
1.00602
1.0063
1.00654
1.00677
1.00695
1.00707
1.00713
1.00716
1.00715
1.00706
1.0069
1.00666
1.00637
1.006
1.00553
1.00492
1.00423
1.00343
1.00253
1.00149
1.00035
0.999137
0.997518
0.996407
0.994563
0.995851
0.99545
0.996661
1.00846
1.03039
1.05578
1.08069
1.10313
1.12602
1.14739
1.16633
1.18216
1.19565
1.20601
1.21563
1.2215
1.22651
1.22893
1.23077
1.23142
1.23246
1.23237
1.23236
1.23275
1.2333
1.23394
1.23547
1.23777
1.2398
1.24256
1.24629
1.24965
1.25372
1.25725
1.2607
1.26462
1.26829
1.27245
1.2764
1.281
1.28869
1.29949
1.31225
1.3156
1.32148
1.32279
1.30871
1.24477
1.10506
0.958081
0.83398
0.743911
0.670971
0.602002
0.538936
0.482647
0.432067
0.3846
0.337814
0.293468
0.250785
0.210462
0.171701
0.13619
0.103161
0.0767105
0.0516441
0.0376408
0.0157534
1.0006
1.00045
1.00051
1.00056
1.00064
1.00073
1.00084
1.00096
1.00111
1.00128
1.00148
1.00169
1.00192
1.00217
1.00245
1.00274
1.00305
1.00337
1.0037
1.00405
1.00439
1.00474
1.00508
1.00542
1.00574
1.00603
1.00632
1.00656
1.00679
1.00697
1.0071
1.00718
1.00722
1.00723
1.00716
1.00703
1.00684
1.00659
1.00625
1.00585
1.00534
1.00473
1.00395
1.00309
1.00209
1.00098
0.999665
0.99812
0.996315
0.994264
0.992323
0.987293
0.990506
1.00247
1.02891
1.05885
1.08584
1.11055
1.13539
1.15714
1.17776
1.19438
1.2078
1.22061
1.22988
1.23463
1.23973
1.24217
1.24277
1.24252
1.24342
1.24315
1.24315
1.24336
1.24396
1.24451
1.24576
1.24855
1.25077
1.25307
1.25662
1.25937
1.2631
1.26626
1.26981
1.27358
1.27754
1.28262
1.28755
1.29311
1.29935
1.31213
1.32485
1.32558
1.32741
1.30667
1.21195
1.04988
0.866224
0.748955
0.672946
0.615991
0.567106
0.513478
0.461503
0.412191
0.365362
0.32144
0.279132
0.239356
0.201076
0.166079
0.133335
0.104856
0.0795443
0.0603114
0.0427475
0.0333911
0.0154951
1.0006
1.00045
1.00051
1.00056
1.00064
1.00073
1.00084
1.00096
1.00111
1.00128
1.00148
1.00169
1.00192
1.00218
1.00245
1.00274
1.00305
1.00337
1.0037
1.00405
1.0044
1.00474
1.00509
1.00543
1.00575
1.00604
1.00633
1.00659
1.00682
1.00701
1.00716
1.00726
1.00732
1.00734
1.00732
1.00723
1.00709
1.00689
1.00662
1.00629
1.00588
1.0054
1.00477
1.00406
1.00319
1.00219
1.00086
0.99917
0.997028
0.994438
0.988268
0.973777
0.971986
0.994127
1.02391
1.06322
1.0974
1.12527
1.15325
1.17558
1.19684
1.21074
1.22295
1.23932
1.24547
1.25061
1.25927
1.26133
1.26208
1.26161
1.2623
1.26149
1.26056
1.26023
1.26024
1.26057
1.26088
1.26316
1.26564
1.26714
1.27001
1.27181
1.27493
1.27777
1.28126
1.2848
1.28898
1.29483
1.29979
1.30691
1.312
1.32287
1.33307
1.33527
1.32174
1.2345
1.04079
0.863419
0.732763
0.643695
0.58424
0.540726
0.499256
0.456035
0.412355
0.368781
0.324979
0.28402
0.24516
0.20956
0.175124
0.144276
0.115165
0.0905338
0.0688505
0.0526899
0.0377626
0.0298408
0.0134102
1.0006
1.00045
1.00051
1.00056
1.00064
1.00073
1.00084
1.00097
1.00111
1.00128
1.00148
1.00169
1.00192
1.00218
1.00245
1.00275
1.00305
1.00338
1.00371
1.00405
1.0044
1.00475
1.0051
1.00544
1.00578
1.00606
1.00636
1.00664
1.00686
1.00706
1.00723
1.00736
1.00745
1.0075
1.00752
1.00749
1.0074
1.00727
1.0071
1.00687
1.00657
1.00625
1.00584
1.00532
1.00464
1.00389
1.00293
1.00157
1.00011
0.997356
0.99528
0.97346
0.962337
0.996663
1.03319
1.08192
1.12001
1.15397
1.18352
1.2105
1.23125
1.24349
1.25616
1.26772
1.26991
1.27668
1.28028
1.28318
1.28602
1.28638
1.28653
1.28534
1.28388
1.28352
1.28332
1.28483
1.28502
1.28548
1.28774
1.28861
1.29047
1.29168
1.29443
1.29706
1.30047
1.30399
1.30858
1.31537
1.32027
1.3269
1.33017
1.33471
1.34025
1.3332
1.2644
1.10536
0.923705
0.781078
0.672767
0.596467
0.542808
0.502526
0.463205
0.422555
0.381871
0.341756
0.30138
0.263741
0.227584
0.1954
0.164084
0.13678
0.109981
0.0873512
0.0665933
0.0515641
0.0367989
0.0287749
0.0126962
1.0006
1.00045
1.00051
1.00056
1.00064
1.00073
1.00084
1.00097
1.00111
1.00129
1.00148
1.00169
1.00192
1.00218
1.00245
1.00274
1.00306
1.00338
1.00371
1.00406
1.00441
1.00475
1.00511
1.00546
1.00579
1.00609
1.00639
1.00668
1.00692
1.00713
1.00732
1.00748
1.00761
1.0077
1.00776
1.0078
1.00779
1.00775
1.00769
1.00761
1.0075
1.00736
1.00718
1.00694
1.00663
1.00631
1.00599
1.00512
1.00434
0.999401
1.0034
0.989517
0.979521
1.03111
1.07095
1.12111
1.15789
1.19268
1.21957
1.24454
1.26391
1.27419
1.28362
1.2942
1.29732
1.30119
1.30177
1.3066
1.3097
1.31242
1.31204
1.31269
1.31278
1.31314
1.31287
1.31347
1.31585
1.31473
1.31604
1.31669
1.31784
1.31846
1.32052
1.32257
1.3255
1.32818
1.33129
1.33455
1.3362
1.33638
1.33623
1.33335
1.32778
1.27595
1.12561
0.958614
0.850594
0.742136
0.652144
0.580709
0.527773
0.489703
0.448835
0.410372
0.370534
0.332231
0.294157
0.259357
0.225985
0.196605
0.167456
0.142109
0.115273
0.0931265
0.0710726
0.0557252
0.0393392
0.0304637
0.0142046
1.0006
1.00045
1.00051
1.00056
1.00064
1.00073
1.00084
1.00097
1.00112
1.00128
1.00148
1.00169
1.00192
1.00218
1.00245
1.00274
1.00306
1.00339
1.00371
1.00406
1.00441
1.00476
1.00512
1.00548
1.00582
1.00613
1.00644
1.00673
1.007
1.00722
1.00743
1.00763
1.00779
1.00792
1.00804
1.00814
1.00823
1.00829
1.00836
1.00843
1.00849
1.00858
1.00866
1.00882
1.00894
1.00928
1.0097
1.01059
1.01131
1.01451
1.01614
1.04058
1.04684
1.11799
1.15088
1.19163
1.22137
1.24671
1.27242
1.29472
1.30409
1.31462
1.32389
1.3209
1.33023
1.33422
1.32932
1.33255
1.332
1.3349
1.33426
1.33647
1.3388
1.3396
1.34161
1.34121
1.34331
1.34474
1.34465
1.3455
1.34662
1.34639
1.34659
1.3466
1.34711
1.3459
1.34564
1.34456
1.34286
1.33943
1.33301
1.30484
1.25063
1.1116
0.975551
0.852659
0.785112
0.71509
0.657662
0.59094
0.535411
0.488978
0.449249
0.412387
0.374254
0.337293
0.300366
0.266761
0.234158
0.205467
0.176932
0.152329
0.124961
0.10168
0.0773474
0.0607445
0.0422301
0.0324662
0.0156266
1.0006
1.00045
1.00051
1.00056
1.00064
1.00073
1.00084
1.00097
1.00111
1.00128
1.00148
1.00169
1.00193
1.00218
1.00245
1.00274
1.00306
1.00339
1.00372
1.00407
1.00442
1.00478
1.00514
1.00551
1.00585
1.00618
1.00649
1.00679
1.00708
1.00734
1.00756
1.00779
1.008
1.00817
1.00835
1.00852
1.00869
1.00888
1.00907
1.00932
1.00957
1.0099
1.01029
1.01078
1.01141
1.01229
1.01357
1.01568
1.01742
1.02249
1.0223
1.08394
1.1738
1.25259
1.25747
1.27795
1.29861
1.31222
1.33045
1.3403
1.34441
1.34928
1.36087
1.34889
1.35344
1.35844
1.35378
1.34999
1.35049
1.35107
1.35134
1.35321
1.35568
1.3569
1.35971
1.36014
1.36141
1.36285
1.3623
1.3628
1.36293
1.36194
1.35987
1.35749
1.35501
1.35167
1.34755
1.34342
1.33052
1.3052
1.26169
1.16821
1.02489
0.871664
0.790274
0.752106
0.712407
0.672667
0.637485
0.584362
0.541142
0.491296
0.452797
0.416178
0.379771
0.344464
0.308533
0.275228
0.242168
0.213007
0.18392
0.158952
0.131144
0.108258
0.0831719
0.0664102
0.0457603
0.0351923
0.0174299
1.00059
1.00045
1.0005
1.00056
1.00063
1.00072
1.00083
1.00096
1.00111
1.00128
1.00147
1.00168
1.00192
1.00218
1.00245
1.00274
1.00306
1.00339
1.00373
1.00407
1.00443
1.0048
1.00516
1.00553
1.00588
1.00623
1.00656
1.00687
1.00717
1.00746
1.00772
1.00797
1.00821
1.00845
1.00868
1.00892
1.00917
1.00944
1.00977
1.01011
1.01055
1.01103
1.01164
1.01235
1.01322
1.01435
1.0159
1.01802
1.0204
1.02472
1.02448
1.06537
1.27552
1.3132
1.31894
1.33773
1.34943
1.35664
1.36402
1.36998
1.37465
1.37301
1.37904
1.37076
1.36687
1.37028
1.36713
1.36173
1.36096
1.36148
1.36306
1.36463
1.36764
1.36907
1.37107
1.3714
1.37195
1.37162
1.37036
1.36926
1.36815
1.3662
1.36269
1.35942
1.35289
1.34003
1.31689
1.29073
1.24051
1.14821
1.03558
0.87155
0.747857
0.682241
0.636615
0.624208
0.618008
0.608816
0.593049
0.561526
0.524397
0.481832
0.447814
0.414457
0.38176
0.348641
0.314409
0.282087
0.249352
0.220425
0.191106
0.166457
0.139158
0.118027
0.0919362
0.0741199
0.0506252
0.0389117
0.0197538
1.00059
1.00045
1.0005
1.00056
1.00063
1.00072
1.00083
1.00096
1.00111
1.00128
1.00147
1.00168
1.00192
1.00218
1.00245
1.00274
1.00306
1.00339
1.00374
1.00408
1.00445
1.00482
1.00518
1.00555
1.00593
1.00629
1.00663
1.00695
1.00727
1.00758
1.00789
1.00817
1.00844
1.00873
1.00902
1.00931
1.00963
1.00997
1.01038
1.01081
1.01136
1.01201
1.01282
1.01377
1.01491
1.01632
1.01853
1.0207
1.02523
1.02766
1.05702
1.10124
1.20706
1.26615
1.33236
1.36389
1.36326
1.37439
1.37463
1.38144
1.38453
1.38227
1.38395
1.38296
1.37645
1.37598
1.37446
1.36912
1.36595
1.36587
1.36736
1.36906
1.37244
1.37401
1.37452
1.37475
1.37428
1.3733
1.37212
1.36887
1.36552
1.35657
1.34156
1.32403
1.29583
1.25027
1.17589
1.08234
0.975647
0.832682
0.711254
0.629137
0.560718
0.535072
0.529996
0.533413
0.539615
0.543839
0.539149
0.525734
0.499782
0.46874
0.439388
0.411199
0.382335
0.352203
0.320326
0.289027
0.257062
0.22856
0.199164
0.174727
0.147768
0.12734
0.0998461
0.0809889
0.0552616
0.042558
0.0219389
1.00059
1.00044
1.0005
1.00056
1.00063
1.00072
1.00083
1.00096
1.00111
1.00128
1.00147
1.00168
1.00191
1.00217
1.00245
1.00274
1.00306
1.0034
1.00374
1.00409
1.00446
1.00484
1.00521
1.00558
1.00597
1.00635
1.00671
1.00705
1.00738
1.00773
1.00807
1.00839
1.00869
1.00901
1.00933
1.00968
1.01004
1.01044
1.01085
1.01131
1.01181
1.01239
1.013
1.01353
1.01419
1.01453
1.01506
1.01376
1.01541
1.00219
1.04285
1.11039
1.13201
1.17421
1.27077
1.3136
1.34137
1.35634
1.36485
1.37341
1.3809
1.38188
1.38056
1.3862
1.37431
1.37418
1.3729
1.36932
1.36843
1.36789
1.36873
1.36911
1.37099
1.37204
1.37266
1.37135
1.36844
1.36402
1.3553
1.33911
1.32106
1.29096
1.23895
1.16869
1.08438
0.984833
0.860758
0.748689
0.658959
0.590429
0.518464
0.471567
0.448313
0.439902
0.449663
0.462782
0.47874
0.493375
0.497131
0.496098
0.478167
0.456725
0.431578
0.408224
0.382527
0.355676
0.325956
0.29585
0.264488
0.236264
0.207222
0.183144
0.156591
0.136248
0.108351
0.0892328
0.0617383
0.0478568
0.0252771
1.00059
1.00044
1.0005
1.00055
1.00063
1.00072
1.00083
1.00096
1.0011
1.00127
1.00147
1.00168
1.00191
1.00217
1.00245
1.00274
1.00306
1.0034
1.00375
1.0041
1.00448
1.00486
1.00524
1.00561
1.00601
1.00641
1.00679
1.00715
1.00751
1.00788
1.00825
1.00861
1.00894
1.00928
1.00963
1.01
1.01038
1.0108
1.01121
1.01165
1.01209
1.01256
1.01303
1.01348
1.01394
1.0143
1.01467
1.01446
1.01553
1.00624
1.04009
1.09795
1.10311
1.13084
1.17461
1.2235
1.29664
1.32132
1.35114
1.35801
1.36732
1.37794
1.37267
1.38528
1.37335
1.36898
1.3682
1.3664
1.36707
1.36506
1.36463
1.36336
1.36238
1.36036
1.35475
1.3437
1.32807
1.30418
1.26802
1.21226
1.13797
1.05844
0.960625
0.8434
0.743489
0.665262
0.601289
0.540007
0.487385
0.448523
0.414525
0.390359
0.380584
0.384901
0.398537
0.413634
0.433387
0.452809
0.461908
0.467607
0.457489
0.443065
0.422822
0.403942
0.381723
0.358412
0.331629
0.303643
0.273738
0.245861
0.217055
0.193201
0.166481
0.145697
0.117567
0.0979331
0.0690395
0.0539911
0.0295432
1.00058
1.00044
1.0005
1.00055
1.00063
1.00072
1.00083
1.00095
1.0011
1.00127
1.00146
1.00168
1.00191
1.00216
1.00245
1.00274
1.00306
1.0034
1.00375
1.00412
1.00449
1.00488
1.00527
1.00566
1.00607
1.00648
1.00688
1.00727
1.00764
1.00803
1.00843
1.00883
1.00921
1.00956
1.00992
1.0103
1.01069
1.01109
1.01151
1.01194
1.01237
1.01277
1.01318
1.01364
1.01414
1.01487
1.01558
1.01732
1.01815
1.03169
1.06717
1.09254
1.09332
1.10977
1.12736
1.16458
1.22149
1.28066
1.33092
1.35202
1.3665
1.37753
1.36932
1.3798
1.3759
1.36741
1.36503
1.36001
1.35845
1.35358
1.34805
1.33894
1.32535
1.30958
1.27873
1.23651
1.17266
1.10049
1.01601
0.915025
0.809553
0.721027
0.652104
0.596913
0.540884
0.496941
0.460277
0.429598
0.401039
0.380141
0.36182
0.349924
0.347025
0.35277
0.36663
0.383365
0.402867
0.423877
0.436484
0.445287
0.440574
0.430017
0.413719
0.398448
0.379453
0.359722
0.335996
0.310714
0.282676
0.255277
0.226466
0.202592
0.175748
0.154734
0.126949
0.107377
0.0778254
0.0618016
0.0354646
1.00058
1.00044
1.00049
1.00055
1.00062
1.00071
1.00082
1.00095
1.0011
1.00126
1.00146
1.00167
1.0019
1.00216
1.00244
1.00274
1.00306
1.0034
1.00376
1.00413
1.00451
1.0049
1.0053
1.00571
1.00612
1.00655
1.00698
1.00739
1.00778
1.00819
1.00861
1.00904
1.00946
1.00985
1.01022
1.01059
1.01098
1.01137
1.01175
1.01215
1.01252
1.01281
1.013
1.01318
1.01313
1.01329
1.01217
1.01352
1.00492
1.03285
1.08728
1.09028
1.09124
1.10006
1.11014
1.12962
1.16256
1.21858
1.2984
1.34992
1.37507
1.37967
1.3727
1.36938
1.37246
1.35751
1.34787
1.33762
1.32419
1.3072
1.27884
1.24161
1.1815
1.1194
1.03962
0.950562
0.849349
0.761976
0.690112
0.636444
0.582555
0.535838
0.494688
0.463553
0.435875
0.413235
0.392481
0.376506
0.359965
0.348415
0.338958
0.332329
0.331914
0.336773
0.348861
0.364078
0.383118
0.403752
0.418149
0.428552
0.427582
0.419236
0.406072
0.393405
0.377516
0.360745
0.339848
0.317375
0.291337
0.265005
0.236689
0.212664
0.185911
0.164934
0.137647
0.11846
0.0882845
0.0711007
0.0430716
1.00058
1.00044
1.00049
1.00055
1.00062
1.00071
1.00082
1.00095
1.00109
1.00126
1.00145
1.00167
1.0019
1.00215
1.00244
1.00274
1.00305
1.00339
1.00376
1.00414
1.00452
1.00492
1.00534
1.00575
1.00618
1.00663
1.00708
1.00751
1.00793
1.00834
1.00876
1.00923
1.00969
1.01013
1.01053
1.01092
1.01129
1.01166
1.01205
1.01247
1.01287
1.01321
1.0135
1.0137
1.01368
1.01373
1.01313
1.01331
1.00404
1.03024
1.08276
1.08218
1.08627
1.09305
1.10069
1.11394
1.13547
1.16906
1.23378
1.29701
1.36416
1.36114
1.36554
1.34798
1.33422
1.31642
1.28568
1.24962
1.19218
1.13614
1.06139
0.978128
0.876277
0.788245
0.713293
0.656708
0.60588
0.558373
0.51687
0.486145
0.46174
0.440843
0.422524
0.404729
0.389654
0.376474
0.363599
0.354091
0.343942
0.335869
0.330522
0.326776
0.328097
0.330992
0.340101
0.353899
0.371709
0.391084
0.406074
0.415915
0.416881
0.409875
0.399271
0.388436
0.375439
0.360927
0.342738
0.322561
0.298768
0.273921
0.246594
0.222429
0.195743
0.174754
0.148008
0.12926
0.098896
0.0813161
0.0521636
1.00057
1.00043
1.00049
1.00054
1.00062
1.00071
1.00081
1.00094
1.00109
1.00125
1.00144
1.00166
1.00189
1.00215
1.00243
1.00274
1.00305
1.00339
1.00376
1.00415
1.00454
1.00495
1.00537
1.0058
1.00624
1.0067
1.00717
1.00763
1.00807
1.0085
1.00894
1.00941
1.00989
1.01037
1.01082
1.01123
1.01164
1.01203
1.01243
1.01285
1.01329
1.01369
1.01416
1.01458
1.01518
1.01577
1.01688
1.01866
1.02296
1.04912
1.08441
1.08236
1.08772
1.09245
1.09814
1.10673
1.1193
1.14113
1.16397
1.23162
1.28595
1.31459
1.29958
1.27058
1.21364
1.155
1.08898
1.01221
0.914346
0.828317
0.750656
0.692115
0.641417
0.593702
0.551176
0.51568
0.486642
0.462992
0.441092
0.423343
0.408971
0.398362
0.388698
0.378826
0.369234
0.361689
0.352504
0.345823
0.339235
0.334068
0.330679
0.328654
0.329174
0.332363
0.339521
0.351587
0.367229
0.383756
0.397804
0.406232
0.408073
0.402
0.393192
0.383834
0.373224
0.360752
0.345074
0.327253
0.305769
0.282894
0.25662
0.232916
0.206018
0.185131
0.15892
0.140311
0.110501
0.0932451
0.0636913
1.00057
1.00043
1.00049
1.00054
1.00061
1.0007
1.00081
1.00093
1.00108
1.00125
1.00144
1.00165
1.00189
1.00214
1.00242
1.00273
1.00305
1.00339
1.00376
1.00415
1.00456
1.00497
1.0054
1.00585
1.0063
1.00677
1.00725
1.00774
1.00821
1.00867
1.00912
1.00959
1.01009
1.01059
1.01109
1.01155
1.012
1.01245
1.01289
1.01332
1.01378
1.01422
1.01472
1.01506
1.01559
1.01544
1.01724
1.01277
1.03685
1.07801
1.08313
1.08388
1.08764
1.09147
1.09693
1.10419
1.11228
1.12805
1.13687
1.15921
1.1662
1.19123
1.12306
1.04436
0.964402
0.878907
0.807391
0.748984
0.698246
0.648081
0.601186
0.561008
0.528074
0.502339
0.479206
0.45974
0.441946
0.427613
0.414861
0.403515
0.394537
0.387478
0.381442
0.374847
0.367279
0.361885
0.355016
0.349634
0.344558
0.339803
0.336639
0.334316
0.334786
0.337928
0.344382
0.354474
0.367059
0.379566
0.391712
0.398594
0.400469
0.395532
0.387808
0.379571
0.37061
0.359851
0.346592
0.331056
0.311904
0.290759
0.266084
0.242354
0.215702
0.194834
0.169101
0.150829
0.122319
0.105505
0.0766396
1.00056
1.00043
1.00048
1.00054
1.00061
1.0007
1.0008
1.00093
1.00108
1.00124
1.00143
1.00164
1.00188
1.00213
1.00241
1.00272
1.00304
1.00339
1.00376
1.00416
1.00457
1.00499
1.00543
1.00589
1.00635
1.00683
1.00733
1.00783
1.00833
1.00883
1.0093
1.00979
1.01031
1.01082
1.01135
1.01185
1.01235
1.01285
1.01332
1.01373
1.01412
1.01445
1.01473
1.01487
1.01496
1.01428
1.01462
1.00393
1.02988
1.08008
1.07714
1.07909
1.08012
1.08178
1.08356
1.08599
1.08675
1.08739
1.08716
1.05161
1.03211
0.959546
0.881764
0.829911
0.779078
0.73238
0.688126
0.649176
0.614454
0.584698
0.555664
0.529613
0.50422
0.484351
0.469171
0.455711
0.443006
0.431652
0.422075
0.412105
0.403565
0.395521
0.38949
0.383809
0.377009
0.371385
0.365609
0.359973
0.355273
0.350473
0.347295
0.344659
0.344411
0.346683
0.352003
0.359941
0.369168
0.377753
0.386913
0.392852
0.393945
0.390076
0.383107
0.375775
0.36813
0.359018
0.347942
0.33458
0.317694
0.298259
0.275256
0.252046
0.225938
0.205042
0.179849
0.161861
0.135097
0.119239
0.0917998
1.00056
1.00042
1.00048
1.00053
1.0006
1.00069
1.0008
1.00092
1.00107
1.00124
1.00142
1.00163
1.00187
1.00212
1.0024
1.00271
1.00304
1.00338
1.00376
1.00416
1.00457
1.005
1.00546
1.00593
1.00641
1.00689
1.0074
1.00792
1.00844
1.00896
1.00948
1.00999
1.01052
1.01106
1.01161
1.01216
1.01269
1.01323
1.01376
1.01429
1.01478
1.01533
1.01587
1.01666
1.01738
1.01862
1.02063
1.02255
1.04391
1.08198
1.07778
1.08
1.08007
1.08022
1.07989
1.0802
1.07732
1.07168
1.0587
0.964234
0.86255
0.794628
0.75439
0.715611
0.687467
0.657155
0.632672
0.610938
0.591106
0.573326
0.55693
0.541046
0.523885
0.506166
0.490564
0.47765
0.465525
0.454
0.443751
0.433394
0.423896
0.414333
0.406601
0.400387
0.393719
0.387318
0.381623
0.375687
0.370726
0.365529
0.361871
0.358656
0.357361
0.357845
0.360854
0.365636
0.371799
0.376932
0.383407
0.388307
0.388707
0.385719
0.379354
0.372754
0.365934
0.358245
0.349089
0.337721
0.322661
0.304814
0.283387
0.260999
0.235485
0.214493
0.189854
0.172143
0.147374
0.132526
0.107466
1.00055
1.00042
1.00047
1.00053
1.0006
1.00068
1.00079
1.00091
1.00106
1.00122
1.00141
1.00161
1.00185
1.00211
1.00238
1.00269
1.00302
1.00337
1.00375
1.00415
1.00457
1.00501
1.00548
1.00596
1.00645
1.00694
1.00746
1.008
1.00855
1.0091
1.00964
1.01017
1.01071
1.01128
1.01186
1.01245
1.01302
1.01361
1.0142
1.01482
1.01542
1.01613
1.01673
1.0177
1.01802
1.02039
1.01727
1.04329
1.07443
1.08362
1.08129
1.08268
1.08194
1.08223
1.08022
1.07691
1.06729
1.02334
0.967114
0.855943
0.771767
0.724604
0.693497
0.670008
0.651567
0.635517
0.620808
0.608121
0.596893
0.587126
0.577426
0.5674
0.556327
0.543411
0.528859
0.515068
0.502124
0.489292
0.476796
0.464648
0.45303
0.441746
0.431467
0.423111
0.415746
0.408381
0.40183
0.395203
0.389613
0.383556
0.379176
0.375076
0.372782
0.371265
0.371774
0.373356
0.376228
0.37879
0.382174
0.385893
0.385644
0.38275
0.376636
0.370471
0.364229
0.357632
0.35017
0.340695
0.327274
0.311219
0.291547
0.270245
0.245314
0.22473
0.200584
0.18342
0.160439
0.14656
0.12366
1.00055
1.00042
1.00047
1.00052
1.00059
1.00068
1.00078
1.0009
1.00104
1.00121
1.00139
1.0016
1.00183
1.00209
1.00237
1.00267
1.00301
1.00336
1.00374
1.00414
1.00457
1.00502
1.00549
1.00598
1.00649
1.00699
1.00751
1.00807
1.00865
1.00922
1.00978
1.01032
1.01088
1.01147
1.01207
1.01267
1.01327
1.01385
1.01439
1.0149
1.01532
1.01569
1.01585
1.01598
1.01533
1.01578
1.005
1.03277
1.08587
1.07913
1.08002
1.08005
1.08016
1.08005
1.07818
1.06921
1.05642
0.960767
0.851353
0.765099
0.714381
0.684448
0.664707
0.65041
0.638157
0.628318
0.619099
0.611241
0.60373
0.598191
0.592718
0.587446
0.580491
0.572676
0.562218
0.550096
0.537778
0.524609
0.51227
0.499625
0.487326
0.474289
0.461974
0.451014
0.441471
0.432496
0.424148
0.416428
0.409852
0.402943
0.397595
0.392333
0.38863
0.385563
0.38384
0.383014
0.383505
0.383968
0.384134
0.385212
0.384346
0.381155
0.375403
0.369162
0.36336
0.357139
0.351015
0.343453
0.331324
0.317184
0.299069
0.278928
0.254951
0.234718
0.210898
0.194224
0.172852
0.159851
0.139211
1.00054
1.00041
1.00046
1.00052
1.00059
1.00067
1.00077
1.00089
1.00103
1.0012
1.00138
1.00158
1.00182
1.00207
1.00235
1.00265
1.00299
1.00334
1.00372
1.00413
1.00456
1.00501
1.00549
1.00599
1.00651
1.00703
1.00756
1.00813
1.00873
1.00932
1.0099
1.01046
1.01102
1.01162
1.01222
1.01284
1.01346
1.01405
1.01466
1.01525
1.01592
1.0166
1.01752
1.01847
1.02015
1.02144
1.03021
1.05031
1.08099
1.07505
1.0759
1.07519
1.07469
1.07082
1.06391
1.0271
0.980438
0.87064
0.778443
0.726945
0.695958
0.676273
0.662754
0.652589
0.644054
0.636015
0.628753
0.622177
0.615771
0.610521
0.606188
0.602084
0.597344
0.592276
0.585394
0.576521
0.56659
0.555072
0.54328
0.530569
0.517893
0.504588
0.491112
0.477829
0.466346
0.456125
0.44671
0.438194
0.430653
0.422968
0.416494
0.409995
0.404934
0.400363
0.396528
0.393784
0.392085
0.39107
0.388701
0.386774
0.384094
0.380055
0.374518
0.36846
0.363033
0.356736
0.351427
0.345222
0.334965
0.323048
0.30678
0.288159
0.265259
0.245381
0.222037
0.205873
0.185969
0.173931
0.155309
1.00054
1.00041
1.00046
1.00051
1.00058
1.00066
1.00076
1.00088
1.00102
1.00118
1.00137
1.00157
1.00179
1.00205
1.00233
1.00263
1.00296
1.00332
1.00369
1.0041
1.00454
1.005
1.00549
1.00599
1.00652
1.00705
1.00759
1.00818
1.00879
1.0094
1.00999
1.01058
1.01114
1.01173
1.01234
1.01296
1.01357
1.01413
1.01467
1.01512
1.01553
1.01564
1.01589
1.01487
1.01639
1.00823
1.03257
1.07399
1.07081
1.07075
1.0707
1.07062
1.0701
1.06237
1.05105
0.967217
0.866275
0.780521
0.729986
0.699717
0.680741
0.668187
0.659209
0.652212
0.646376
0.640677
0.635414
0.630435
0.625257
0.620482
0.616262
0.612772
0.608919
0.605556
0.601795
0.59599
0.589248
0.580328
0.570255
0.558271
0.546046
0.533002
0.519942
0.506101
0.493421
0.481518
0.470511
0.460163
0.451127
0.442579
0.435085
0.427584
0.421049
0.415228
0.40974
0.405434
0.401996
0.399011
0.394921
0.390621
0.386034
0.380775
0.375303
0.368743
0.363251
0.356918
0.352291
0.347399
0.338792
0.328336
0.31418
0.296954
0.275245
0.255969
0.232887
0.21723
0.1985
0.187263
0.170435
1.00053
1.0004
1.00045
1.0005
1.00057
1.00065
1.00075
1.00087
1.00101
1.00116
1.00135
1.00155
1.00177
1.00202
1.0023
1.0026
1.00293
1.00329
1.00366
1.00407
1.00451
1.00498
1.00546
1.00597
1.00651
1.00705
1.0076
1.00819
1.0088
1.00943
1.01005
1.01065
1.01123
1.0118
1.01239
1.01299
1.01358
1.01412
1.01463
1.0151
1.01554
1.01595
1.01637
1.0166
1.01787
1.01421
1.03048
1.07193
1.06582
1.06493
1.06255
1.0587
1.05246
1.0246
0.981094
0.880499
0.79263
0.742081
0.712662
0.694349
0.683944
0.675857
0.669145
0.662453
0.656371
0.650501
0.644929
0.64008
0.635173
0.630486
0.626183
0.62271
0.619141
0.616039
0.613367
0.610073
0.605714
0.59892
0.591361
0.581719
0.571068
0.558357
0.545225
0.531572
0.517742
0.504603
0.492576
0.481475
0.471555
0.462476
0.454004
0.445366
0.437382
0.430017
0.42359
0.41801
0.412565
0.407434
0.402019
0.395849
0.389566
0.382921
0.376716
0.370295
0.364609
0.358419
0.354091
0.350806
0.343137
0.333637
0.321303
0.30558
0.28595
0.266989
0.244652
0.229441
0.211643
0.201225
0.186
1.00052
1.0004
1.00045
1.0005
1.00056
1.00064
1.00074
1.00086
1.00099
1.00114
1.00132
1.00153
1.00174
1.00199
1.00227
1.00256
1.00289
1.00325
1.00363
1.00402
1.00447
1.00494
1.00542
1.00594
1.00647
1.00703
1.00759
1.00817
1.00878
1.00942
1.01007
1.01069
1.0113
1.01187
1.01246
1.01306
1.01367
1.01426
1.01484
1.01548
1.01619
1.01721
1.01792
1.0205
1.01957
1.03946
1.0497
1.06168
1.05722
1.0581
1.05775
1.05175
1.03749
0.972076
0.880481
0.797502
0.749177
0.720047
0.702403
0.690423
0.682918
0.67698
0.672378
0.668227
0.664186
0.660055
0.655389
0.651076
0.646571
0.642179
0.637757
0.634008
0.630253
0.62707
0.624123
0.621728
0.619306
0.614609
0.609311
0.601887
0.593337
0.582255
0.57072
0.557379
0.54388
0.530196
0.517178
0.504844
0.493078
0.482388
0.472803
0.463424
0.454671
0.446406
0.438488
0.430499
0.423209
0.416422
0.409897
0.402197
0.394353
0.386555
0.379247
0.372731
0.36658
0.360378
0.356006
0.353914
0.346973
0.33806
0.327604
0.31392
0.296431
0.277958
0.256239
0.241409
0.224319
0.214719
0.2008
1.00052
1.00039
1.00044
1.00049
1.00055
1.00063
1.00073
1.00084
1.00098
1.00112
1.0013
1.0015
1.00171
1.00196
1.00223
1.00252
1.00284
1.0032
1.00358
1.00397
1.00441
1.00488
1.00537
1.00587
1.00642
1.00698
1.00755
1.00812
1.00873
1.00938
1.01004
1.0107
1.01132
1.01191
1.01246
1.01303
1.01353
1.01394
1.01416
1.01422
1.01382
1.01323
1.01153
1.01049
0.998141
1.01553
1.06003
1.05209
1.0499
1.04476
1.04118
1.02092
0.980401
0.889982
0.806956
0.759442
0.730742
0.712237
0.700973
0.691722
0.684707
0.679702
0.676071
0.673107
0.670122
0.666971
0.66326
0.659464
0.655393
0.651397
0.647063
0.643484
0.639642
0.63659
0.633571
0.631309
0.629542
0.62721
0.623703
0.617932
0.611627
0.603122
0.593202
0.580536
0.567571
0.553529
0.539871
0.526506
0.5143
0.503371
0.492575
0.48264
0.472379
0.462138
0.452518
0.443453
0.435087
0.426931
0.418796
0.409443
0.40029
0.391311
0.382988
0.376127
0.369563
0.363356
0.359123
0.35802
0.3521
0.343774
0.334993
0.322688
0.307352
0.289523
0.268833
0.254393
0.237701
0.228844
0.216137
1.00051
1.00038
1.00043
1.00048
1.00054
1.00062
1.00071
1.00082
1.00096
1.0011
1.00127
1.00147
1.00168
1.00192
1.00219
1.00248
1.00279
1.00314
1.00351
1.00391
1.00434
1.0048
1.00529
1.00579
1.00633
1.0069
1.00749
1.00807
1.00865
1.00929
1.00998
1.01067
1.01134
1.01197
1.01254
1.0131
1.01367
1.01416
1.01466
1.01507
1.01552
1.01588
1.01669
1.01696
1.02191
1.02663
1.05407
1.04944
1.05034
1.04361
1.02956
0.97942
0.899488
0.817027
0.770764
0.742355
0.725027
0.713019
0.70561
0.70043
0.696596
0.692786
0.688888
0.685476
0.682159
0.678905
0.675364
0.671655
0.66755
0.663618
0.659009
0.655208
0.650974
0.647673
0.644236
0.64178
0.639517
0.638021
0.636098
0.631747
0.627479
0.621023
0.613054
0.602296
0.591096
0.577353
0.564119
0.549907
0.537035
0.523726
0.511821
0.500756
0.489824
0.479516
0.468975
0.458769
0.448266
0.438044
0.427537
0.417163
0.406824
0.396995
0.387714
0.380316
0.373299
0.36702
0.363042
0.362316
0.357244
0.349286
0.341855
0.331136
0.317612
0.301008
0.281574
0.267158
0.250791
0.242483
0.23075
1.0005
1.00038
1.00042
1.00047
1.00053
1.00061
1.0007
1.0008
1.00093
1.00108
1.00124
1.00143
1.00164
1.00187
1.00213
1.00242
1.00273
1.00306
1.00343
1.00383
1.00425
1.0047
1.00518
1.00568
1.00622
1.00679
1.00738
1.00797
1.00855
1.00918
1.00987
1.01061
1.01134
1.01203
1.01269
1.01327
1.01386
1.01437
1.01485
1.0151
1.0153
1.0148
1.0153
1.00719
1.02716
1.05601
1.0562
1.05578
1.05184
1.03987
0.998265
0.916836
0.832552
0.785435
0.755759
0.737365
0.724638
0.715949
0.709045
0.704145
0.700337
0.697576
0.69477
0.692158
0.689243
0.686616
0.683696
0.680593
0.677045
0.673761
0.669586
0.666061
0.661869
0.658457
0.654741
0.651928
0.649286
0.647358
0.64627
0.643466
0.640471
0.635365
0.629414
0.621121
0.611275
0.5987
0.585696
0.571517
0.557789
0.544302
0.532171
0.520304
0.508843
0.497101
0.484845
0.472692
0.460673
0.449472
0.437584
0.426384
0.414511
0.403682
0.39347
0.385484
0.377999
0.371676
0.367837
0.367242
0.363291
0.356048
0.350123
0.340492
0.328544
0.313253
0.294929
0.280726
0.264726
0.256863
0.245991
1.00049
1.00037
1.00042
1.00046
1.00052
1.00059
1.00068
1.00078
1.00091
1.00105
1.00121
1.00139
1.0016
1.00182
1.00208
1.00236
1.00265
1.00298
1.00334
1.00373
1.00414
1.00457
1.00504
1.00553
1.00607
1.00663
1.00722
1.00781
1.00842
1.00904
1.00973
1.01049
1.01128
1.01208
1.01287
1.01364
1.01435
1.01513
1.01584
1.01675
1.01735
1.01815
1.01899
1.01897
1.03491
1.07447
1.06754
1.06978
1.05295
1.00867
0.927636
0.840862
0.790893
0.759633
0.739974
0.728494
0.721987
0.71785
0.714458
0.711175
0.708054
0.705347
0.702831