/*--------------------------------*- C++ -*----------------------------------*\
| =========                 |                                                 |
| \\      /  F ield         | OpenFOAM: The Open Source CFD Toolbox           |
|  \\    /   O peration     | Version:  2.2.x                                 |
|   \\  /    A nd           | Web:      www.OpenFOAM.org                      |
|    \\/     M anipulation  |                                                 |
\*---------------------------------------------------------------------------*/
FoamFile
{
    version     2.0;
    format      ascii;
    class       volScalarField;
    location    "1.05";
    object      By;
}
// * * * * * * * * * * * * * * * * * * * * * * * * * * * * * * * * * * * * * //

dimensions      [1 0 -2 0 0 -1 0];

internalField   nonuniform List<scalar> 
14161
(
-7.59132e-07
-8.57915e-08
3.52654e-08
-1.72668e-07
-7.12189e-07
-5.99546e-07
5.82983e-07
4.15763e-07
-8.95939e-07
-6.04393e-07
-4.86454e-07
4.41035e-07
2.22991e-07
-1.44046e-06
4.78365e-07
1.25481e-06
8.26698e-07
-2.30568e-06
2.40833e-06
1.61669e-06
-3.0683e-06
6.01779e-07
5.01042e-06
5.86632e-06
-3.90082e-06
6.11906e-06
6.84164e-06
-2.49735e-06
1.54585e-06
9.6612e-06
1.44201e-05
1.22867e-05
1.46098e-05
2.51346e-05
2.38854e-05
3.08715e-05
3.69785e-05
4.85707e-05
5.51914e-05
6.72118e-05
8.70286e-05
0.000108041
9.51947e-05
9.74696e-05
0.000153216
0.00017388
0.000192801
0.000218737
0.000495004
0.000422909
0.00615524
0.00310641
-0.00795544
-0.0171016
-0.0222303
-0.0199577
-0.0158229
-0.0132472
-0.0117561
-0.0115122
-0.0110858
-0.00831239
-0.0063086
-0.00478286
-0.00344279
-0.00233832
-0.00163827
-0.000754884
-0.000239366
0.00032251
0.000690557
0.00124588
0.00142167
0.0014089
0.000795092
-0.000535566
-0.00125391
-0.00126055
-0.00155509
-0.00244838
-0.00271431
-0.00307615
-0.00333194
-0.0018648
-0.00163791
-0.00194507
-0.00171579
-2.62628e-05
-0.00163837
-0.00449091
-0.00608057
-0.00838955
-0.00676846
-0.00262772
-0.000518219
-0.0012544
-0.00863625
-0.00550722
0.00579222
0.0523617
0.0971402
0.104299
0.0781068
0.0578594
0.0462237
0.0399481
0.036128
0.0334171
0.0318519
0.0315409
0.0320321
0.0322889
0.0337947
0.0343422
0.0376449
0.0368247
0.0363008
0.0351647
0.0261454
-1.73889e-06
-2.74378e-07
-2.9151e-07
-4.72726e-07
-4.94987e-07
-2.97216e-07
-3.2898e-07
-4.05122e-07
-4.1981e-07
-3.0462e-07
-1.74637e-06
-5.71885e-08
1.79251e-06
-1.62621e-06
-1.45555e-06
2.33098e-06
3.2144e-06
-1.94304e-06
1.50115e-06
2.62184e-06
-3.68691e-06
1.33334e-07
1.18552e-05
1.66206e-05
-8.2055e-06
1.19541e-05
1.91894e-05
-2.42952e-08
5.69109e-06
3.10046e-05
4.58072e-05
3.99352e-05
4.91252e-05
7.78121e-05
8.15311e-05
9.96052e-05
0.000115298
0.000150754
0.000179161
0.000211988
0.000265782
0.000321956
0.000329569
0.000351252
0.000460676
0.000582452
0.000598797
0.00082973
0.000667058
0.00155725
0.00856665
0.00500209
-0.0125202
-0.0318055
-0.0472276
-0.0522609
-0.0474842
-0.0408818
-0.0378955
-0.0371938
-0.0350325
-0.0276561
-0.0216386
-0.0172696
-0.0134757
-0.00958222
-0.00740828
-0.00430246
-0.0023893
-0.00082024
4.34178e-06
0.00134494
0.00186375
0.00178479
0.00102441
-0.000637441
-0.00206479
-0.00203901
-0.00288926
-0.00436255
-0.00457098
-0.00552238
-0.00642402
-0.00505768
-0.00417689
-0.00483255
-0.00364147
-0.00200632
-0.00373443
-0.00830357
-0.0109982
-0.0171758
-0.0139143
-0.0096633
-0.00278266
-0.00587357
-0.0106994
0.00475788
0.0353287
0.134581
0.199658
0.199062
0.169764
0.139123
0.114315
0.0958815
0.0815478
0.0710359
0.0656425
0.062061
0.0607289
0.0587958
0.0595914
0.0592611
0.0605815
0.0612164
0.062897
0.0597876
0.0485881
-2.61703e-06
-5.53942e-07
-5.22797e-07
-8.07554e-07
-6.97072e-07
-4.37397e-07
-5.24187e-07
-6.01294e-07
-1.03624e-06
-3.89879e-07
-2.35786e-06
2.77926e-07
2.18119e-06
-2.70868e-06
-2.80899e-06
4.46602e-06
4.4332e-06
-2.84403e-06
3.02395e-06
5.31655e-06
-6.73828e-06
-4.1043e-07
2.08342e-05
2.45686e-05
-9.51154e-06
2.40954e-05
3.04447e-05
-1.85649e-06
1.26725e-05
4.97547e-05
7.35608e-05
7.38418e-05
8.54242e-05
0.000119663
0.000147569
0.000168001
0.000193963
0.000231547
0.000305977
0.000363649
0.000447285
0.000510992
0.000599373
0.000690117
0.000792071
0.000870715
0.000985749
0.000990642
0.00103132
0.00103974
0.00458431
0.00206537
-0.0233674
-0.0542789
-0.0759788
-0.0840448
-0.0784211
-0.0699421
-0.0662302
-0.0632975
-0.0583995
-0.0476411
-0.0380153
-0.0316657
-0.0243146
-0.0174893
-0.0130933
-0.00756238
-0.00411167
-0.001332
0.000404865
0.00252779
0.00269277
0.00215278
0.000713125
-0.00175012
-0.00401596
-0.00437804
-0.00588065
-0.00870658
-0.00879366
-0.0100214
-0.0104418
-0.00817308
-0.00741257
-0.00815314
-0.00694036
-0.00459809
-0.00871569
-0.0165819
-0.0210777
-0.0302668
-0.0215418
-0.0141541
-0.004877
-0.00873428
-0.000655152
0.0758786
0.179518
0.287704
0.317284
0.290625
0.24057
0.196611
0.163169
0.139621
0.123878
0.112181
0.105357
0.100709
0.0991519
0.0964233
0.0973666
0.0968627
0.0975644
0.0968458
0.0916749
0.0815766
0.0714632
-3.53229e-06
-9.5415e-07
-7.43012e-07
-1.08834e-06
-7.88396e-07
-3.15228e-07
-8.58737e-07
-1.00008e-06
-1.47918e-06
-3.18018e-07
-3.08692e-06
2.57517e-07
2.39804e-06
-2.60395e-06
-4.81628e-06
6.00822e-06
5.9356e-06
-2.62164e-06
1.7471e-06
7.20327e-06
-7.38857e-06
-7.08675e-07
2.88979e-05
2.7523e-05
-6.82004e-07
3.18142e-05
3.71205e-05
2.34894e-06
2.063e-05
6.70702e-05
0.000101841
0.000112812
0.000122489
0.000154418
0.000208017
0.000229257
0.000271806
0.00033382
0.000404627
0.000527002
0.000666687
0.000736235
0.000831463
0.000954905
0.00112926
0.00117684
0.00153335
0.00135428
0.00178068
0.000253422
0.00187125
-0.00109342
-0.0353297
-0.08181
-0.111152
-0.119298
-0.1127
-0.102661
-0.0978181
-0.0914967
-0.0827533
-0.0683252
-0.0518732
-0.0443746
-0.0325086
-0.0210261
-0.0151228
-0.00770338
-0.00370466
-0.00116766
0.000431648
0.00323804
0.00309612
0.00240956
0.00115905
-0.00182204
-0.00535405
-0.00614974
-0.00741187
-0.0111625
-0.0113707
-0.0126144
-0.0133631
-0.0107846
-0.00991622
-0.0109856
-0.0105289
-0.00668654
-0.0112034
-0.0210051
-0.029718
-0.0394153
-0.0239262
-0.0162465
-0.00194339
0.0148778
0.0958777
0.244455
0.336432
0.381346
0.382842
0.345934
0.296449
0.251924
0.214157
0.183365
0.16201
0.148464
0.140957
0.13385
0.130764
0.125917
0.125513
0.12246
0.119585
0.115086
0.108024
0.0968586
0.0897786
-4.41079e-06
-1.07317e-06
-1.15079e-06
-1.44865e-06
-9.10276e-07
-4.27749e-07
-1.07484e-06
-1.35802e-06
-2.24288e-06
-3.90631e-07
-3.62654e-06
-6.217e-08
2.71992e-06
-2.52729e-06
-7.01596e-06
6.62858e-06
8.36753e-06
-1.75558e-06
-4.80216e-07
6.93516e-06
-5.79658e-06
-1.93862e-07
3.3405e-05
2.99864e-05
1.83094e-05
2.72274e-05
4.70081e-05
8.71778e-06
3.43204e-05
8.59489e-05
0.00013353
0.000146161
0.000155671
0.000194025
0.000250206
0.0002893
0.000350649
0.000433231
0.00051015
0.000620563
0.000776552
0.000982256
0.00111153
0.00128734
0.00161793
0.00183654
0.00216974
0.00230333
0.00296616
0.00235749
0.00984892
0.00673389
-0.0516579
-0.119666
-0.157365
-0.167445
-0.154564
-0.143006
-0.132719
-0.125332
-0.112154
-0.0914273
-0.0755175
-0.0645812
-0.0434025
-0.0313526
-0.0239049
-0.0101697
-0.00316632
-0.000963009
0.00112184
0.00440954
0.00388605
0.00281156
0.000697439
-0.0030016
-0.0074709
-0.00941755
-0.0103065
-0.0144626
-0.0146198
-0.0159238
-0.0170348
-0.0141374
-0.0133243
-0.0147933
-0.0161515
-0.01229
-0.018419
-0.0288519
-0.040525
-0.0518218
-0.033088
-0.0116213
0.0211616
0.130551
0.305651
0.435939
0.472651
0.469663
0.437181
0.388561
0.337927
0.294364
0.257023
0.225984
0.203527
0.187277
0.177526
0.168646
0.163941
0.156064
0.153199
0.145885
0.139537
0.130509
0.12123
0.109377
0.105399
-4.65122e-06
-1.43681e-06
-1.60129e-06
-1.90576e-06
-8.8691e-07
-5.04027e-07
-1.23364e-06
-1.2355e-06
-2.90744e-06
-4.39367e-07
-3.85276e-06
-1.02031e-06
2.53215e-06
-1.28657e-06
-8.43968e-06
5.97956e-06
8.24421e-06
3.93441e-07
-1.48452e-06
8.55374e-06
-8.10565e-07
2.83051e-07
3.42076e-05
3.17815e-05
3.61925e-05
3.14623e-05
4.32679e-05
2.47024e-05
4.77302e-05
9.67155e-05
0.00014899
0.000171267
0.000193098
0.000229018
0.000290138
0.000354946
0.000416237
0.000490609
0.000616994
0.000753089
0.000890899
0.00110482
0.00136927
0.00162003
0.0019789
0.00234619
0.00292228
0.00315633
0.00371044
0.00421055
0.0225289
0.0258548
-0.0762001
-0.173302
-0.218611
-0.227094
-0.203899
-0.188553
-0.170482
-0.155379
-0.133144
-0.10575
-0.0890064
-0.0720763
-0.0463187
-0.0380417
-0.027215
-0.00818616
-0.0010685
0.00120643
0.00426922
0.0083863
0.0078032
0.00494574
0.00254922
-0.00180664
-0.00852541
-0.011455
-0.0118645
-0.0157935
-0.0160475
-0.0173423
-0.0196095
-0.0177447
-0.0167216
-0.0196188
-0.022636
-0.0162927
-0.0232712
-0.035647
-0.0474902
-0.0559293
-0.0343286
0.00755109
0.121296
0.362973
0.530171
0.588019
0.576435
0.534976
0.48358
0.427187
0.376179
0.332177
0.295061
0.263963
0.240595
0.222095
0.210308
0.199409
0.193383
0.183331
0.17903
0.167733
0.158215
0.145011
0.134157
0.122169
0.120139
-5.50118e-06
-1.73703e-06
-2.03046e-06
-1.91711e-06
-9.51367e-07
-1.1059e-06
-1.49411e-06
-1.52488e-06
-3.1328e-06
-6.07579e-07
-3.74728e-06
-2.55974e-06
2.67198e-06
-4.30926e-07
-1.00109e-05
2.67165e-06
1.09062e-05
4.64146e-06
-3.56794e-06
8.10431e-06
5.29544e-06
1.66662e-06
3.00437e-05
3.38193e-05
6.15769e-05
3.92961e-05
3.02334e-05
5.03825e-05
7.19637e-05
0.000113788
0.000167605
0.000187181
0.000218039
0.000262415
0.000318607
0.000394169
0.000478234
0.000570461
0.000688358
0.000832423
0.00101113
0.00123105
0.00153766
0.00183638
0.0022149
0.00262
0.00334942
0.00407142
0.00540023
0.00672339
0.0367161
0.0467836
-0.112937
-0.241651
-0.292249
-0.297297
-0.266805
-0.238065
-0.212102
-0.191418
-0.160088
-0.124742
-0.10656
-0.0841513
-0.0523229
-0.0431751
-0.0307083
-0.0192209
-0.00562274
0.000394064
0.00437769
0.00934859
0.00854758
0.00459704
-0.000410885
-0.00629829
-0.00770937
-0.0109821
-0.0151239
-0.0170845
-0.0179718
-0.020575
-0.0227341
-0.0209013
-0.019147
-0.0248291
-0.0279599
-0.0224412
-0.0301219
-0.0404596
-0.0474643
-0.0571547
-0.0201111
0.0931791
0.341077
0.570991
0.689075
0.708961
0.669063
0.600994
0.529852
0.465962
0.414747
0.370937
0.333509
0.30186
0.277319
0.256848
0.242674
0.229826
0.222099
0.209801
0.204165
0.189185
0.176867
0.159589
0.147643
0.135392
0.134726
-5.81173e-06
-2.05424e-06
-2.20952e-06
-2.22257e-06
-1.59798e-06
-2.12907e-06
-1.35413e-06
-1.20707e-06
-4.08537e-06
-9.95614e-07
-2.81393e-06
-3.00897e-06
1.03776e-07
1.29535e-06
-7.71375e-06
-1.13682e-06
1.0054e-05
7.71558e-06
-2.16163e-06
8.66005e-06
1.23177e-05
2.93508e-06
2.22557e-05
4.19796e-05
7.3915e-05
5.07988e-05
2.10711e-05
5.67718e-05
0.000101451
0.000121281
0.000176165
0.000202838
0.000238689
0.000295798
0.000338077
0.000417047
0.000503588
0.000610943
0.000731457
0.000877134
0.00106808
0.00130115
0.001599
0.00195514
0.00239783
0.00293896
0.00392302
0.00517911
0.00807521
0.00838399
0.0262819
0.0512154
-0.188742
-0.321705
-0.353081
-0.35105
-0.315085
-0.27958
-0.244112
-0.216598
-0.179944
-0.130023
-0.114203
-0.0955856
-0.0507235
-0.0423234
-0.0334105
-0.0203154
-0.00747634
-7.02583e-05
0.00516033
0.00922072
0.00894874
0.00513518
0.00229687
-0.00693165
-0.00911715
-0.0110367
-0.015231
-0.0178372
-0.0185075
-0.0219516
-0.0238788
-0.0259301
-0.022532
-0.0297615
-0.0288794
-0.0220092
-0.0287284
-0.0373012
-0.0371002
-0.030315
0.0666226
0.306283
0.577212
0.722526
0.795208
0.795936
0.745677
0.664739
0.575091
0.505163
0.452427
0.408063
0.370599
0.338104
0.311974
0.28908
0.272454
0.25752
0.248298
0.234708
0.228672
0.212035
0.197008
0.175929
0.162476
0.149464
0.149575
-6.51293e-06
-2.27096e-06
-2.57006e-06
-2.57276e-06
-2.14105e-06
-2.12362e-06
-1.88013e-06
-2.04401e-06
-4.51354e-06
-8.05992e-07
-2.58935e-06
-4.75998e-06
-2.18891e-06
3.83896e-06
-5.47269e-06
-6.63486e-06
8.67347e-06
1.31205e-05
6.34408e-07
4.77651e-06
1.83064e-05
8.39022e-06
9.25229e-06
4.85498e-05
8.68572e-05
6.86534e-05
2.5429e-05
5.07833e-05
0.000121334
0.000160091
0.000176546
0.000211321
0.000250871
0.000307183
0.000364286
0.000413939
0.000505554
0.000596862
0.000727165
0.000842961
0.00102082
0.00118618
0.00137888
0.00161423
0.00178105
0.00212392
0.00247861
0.00306019
0.00364138
0.00417171
0.00586141
-0.0555756
-0.305433
-0.360217
-0.384028
-0.3917
-0.347699
-0.309513
-0.272275
-0.230746
-0.188769
-0.144658
-0.109975
-0.0898738
-0.0648105
-0.0377922
-0.0264844
-0.0177189
-0.00601208
9.20226e-05
0.00396049
0.0056794
0.00469308
0.00142294
-0.00131739
-0.00918228
-0.0117272
-0.012953
-0.0164274
-0.0198633
-0.0199238
-0.0217747
-0.0242757
-0.0234025
-0.0196882
-0.0243498
-0.0257377
-0.0149016
-0.0150215
-0.0138072
0.0118783
0.0986694
0.289624
0.527507
0.722986
0.823141
0.86049
0.849312
0.804455
0.726935
0.624063
0.544702
0.487126
0.442417
0.405156
0.372393
0.345239
0.320812
0.302521
0.285733
0.275161
0.260702
0.254486
0.236431
0.218634
0.193901
0.178685
0.164438
0.165063
-6.67609e-06
-2.68855e-06
-3.13016e-06
-3.03339e-06
-2.40066e-06
-2.73405e-06
-2.60298e-06
-2.29563e-06
-5.07376e-06
-1.57901e-06
-1.06711e-06
-5.83821e-06
-5.32781e-06
5.14785e-06
-2.10922e-06
-9.4142e-06
5.71042e-06
1.5689e-05
4.8779e-06
5.3839e-06
2.15448e-05
1.60244e-05
5.73909e-07
5.7235e-05
9.1535e-05
7.36578e-05
4.22952e-05
4.61729e-05
0.000116643
0.000181629
0.000195814
0.000211426
0.000257807
0.000309393
0.000347659
0.000413916
0.000478439
0.000561151
0.000638674
0.000795025
0.00091089
0.00109203
0.00123698
0.00143976
0.00151005
0.00181477
0.00161966
0.00258151
0.00131175
0.00498549
-0.00940924
-0.344042
-0.488141
-0.3902
-0.384886
-0.40063
-0.362999
-0.320906
-0.282849
-0.233248
-0.184887
-0.152414
-0.0998807
-0.0743107
-0.0705426
-0.0346896
-0.013325
-0.0131841
-0.00730416
-0.000175343
0.00227959
0.00284644
0.002315
-0.000443647
-0.0036682
-0.00976663
-0.0124077
-0.0127739
-0.0155901
-0.0192715
-0.017952
-0.0166402
-0.019739
-0.0148499
-0.00992713
-0.00791969
-0.0074283
0.0156771
0.0555316
0.0970976
0.20507
0.326765
0.507144
0.67911
0.78884
0.859864
0.885163
0.880305
0.841196
0.768915
0.667157
0.582095
0.520319
0.475031
0.43773
0.405393
0.378005
0.352634
0.332781
0.314065
0.302034
0.2864
0.278954
0.259413
0.240676
0.213449
0.196504
0.1805
0.181507
-7.26629e-06
-3.07106e-06
-3.53919e-06
-3.35497e-06
-2.73157e-06
-3.04945e-06
-3.37331e-06
-2.21755e-06
-5.9068e-06
-2.83602e-06
7.71125e-07
-6.81774e-06
-7.69943e-06
4.9147e-06
1.23037e-06
-1.04084e-05
1.05325e-06
1.72591e-05
1.09539e-05
2.21338e-06
2.3678e-05
2.0089e-05
2.66205e-06
5.13077e-05
9.28134e-05
8.53509e-05
7.1257e-05
5.55394e-05
0.000114952
0.000184379
0.000226114
0.000231198
0.000261098
0.000293935
0.000327483
0.000390429
0.000436317
0.000504848
0.000546463
0.000642389
0.000714689
0.000774421
0.000773208
0.000828686
0.000622995
0.000721348
-0.000211598
-1.02394e-06
-0.00312405
0.000529002
-0.0671067
-0.627485
-0.651704
-0.491727
-0.438923
-0.423202
-0.369157
-0.324417
-0.281023
-0.235578
-0.181198
-0.148712
-0.0955462
-0.0623801
-0.0625478
-0.0297409
-0.00500572
-0.00490499
-0.00341141
-0.000755535
0.00118912
-0.0010987
-0.00148644
-0.00349753
-0.00602971
-0.0105913
-0.0118034
-0.0110056
-0.0116139
-0.0159052
-0.00982542
-0.00500325
-0.00585961
0.00456471
0.0238942
0.0565091
0.09067
0.156816
0.255771
0.312291
0.4041
0.528663
0.634961
0.748546
0.83528
0.87716
0.889757
0.884089
0.854334
0.79314
0.698619
0.610303
0.547333
0.50252
0.466554
0.435613
0.408733
0.383303
0.362336
0.342187
0.328689
0.311855
0.302423
0.282163
0.264389
0.23547
0.216119
0.198011
0.199044
-7.44155e-06
-3.42904e-06
-4.03632e-06
-3.53774e-06
-3.29057e-06
-3.45814e-06
-3.89051e-06
-2.47475e-06
-5.51542e-06
-4.68115e-06
8.02659e-07
-5.39864e-06
-1.08233e-05
2.56715e-06
4.56113e-06
-9.80841e-06
-4.13819e-06
1.67616e-05
1.74627e-05
2.627e-06
1.82763e-05
2.86829e-05
1.41618e-05
4.41468e-05
8.75379e-05
8.93223e-05
8.81286e-05
7.78194e-05
9.51584e-05
0.000156213
0.000225918
0.000247419
0.00025485
0.000261277
0.000313527
0.000322939
0.000395628
0.000403761
0.000466426
0.000464144
0.000501745
0.000440149
0.000367141
0.000167282
-3.17007e-05
-0.000454648
-0.00118922
-0.00214127
-0.00355089
-0.00515102
-0.252477
-0.767715
-0.737296
-0.632598
-0.567291
-0.459923
-0.390631
-0.333654
-0.287212
-0.245155
-0.181123
-0.144261
-0.092007
-0.0511628
-0.0464844
-0.0231407
0.0033129
0.00407257
-0.000234423
-0.00217408
-0.000368318
-0.00616734
-0.0063502
-0.00584221
-0.00692555
-0.00855821
-0.0070238
-0.00408272
-0.000422024
-0.00184663
0.0138972
0.0433836
0.0652114
0.103495
0.169762
0.251341
0.302694
0.357142
0.434769
0.499794
0.552422
0.622789
0.702022
0.777456
0.834904
0.874803
0.891239
0.885069
0.857243
0.801438
0.716877
0.631079
0.569123
0.525576
0.491835
0.462915
0.437828
0.413139
0.391381
0.37025
0.355216
0.337039
0.325586
0.304876
0.288317
0.258458
0.237407
0.217026
0.218217
-7.97976e-06
-3.69056e-06
-4.21818e-06
-4.14678e-06
-3.72628e-06
-3.96344e-06
-4.73551e-06
-2.4429e-06
-5.88031e-06
-6.38553e-06
-4.0238e-07
-3.29488e-06
-1.27506e-05
3.01164e-07
6.28063e-06
-7.96537e-06
-8.93722e-06
1.62599e-05
2.12475e-05
6.86859e-06
1.16716e-05
3.16703e-05
2.9837e-05
3.1223e-05
8.0684e-05
9.571e-05
0.000110151
0.000107646
9.07892e-05
0.000126941
0.000240112
0.000287626
0.000267918
0.000253137
0.000266997
0.000288105
0.000298417
0.000346793
0.00041853
0.000427238
0.00040398
0.000300578
0.000271522
0.000146409
0.00021583
-3.65195e-05
0.000334341
-0.00039967
0.0033785
-0.00463237
-0.457834
-0.803595
-0.787941
-0.744481
-0.682749
-0.56576
-0.459537
-0.364498
-0.313325
-0.254091
-0.192811
-0.141058
-0.0971331
-0.0428718
-0.0289431
-0.0181964
0.00766987
0.00659881
0.00295687
-0.000792425
-6.44605e-05
-0.00642213
-0.00621688
-0.0026438
-0.000369351
0.00228272
0.0119936
0.0270505
0.0535771
0.0827898
0.127044
0.201268
0.271918
0.313445
0.362667
0.43197
0.48141
0.517279
0.556081
0.595858
0.633355
0.67838
0.729915
0.784986
0.832861
0.863514
0.877907
0.870454
0.845777
0.798156
0.72455
0.644641
0.58575
0.544516
0.51358
0.487246
0.464682
0.44169
0.419626
0.39757
0.381003
0.361466
0.348639
0.327593
0.312364
0.282513
0.260665
0.238065
0.239112
-8.20773e-06
-3.94514e-06
-4.66453e-06
-4.54288e-06
-4.64521e-06
-4.08096e-06
-5.13293e-06
-3.13785e-06
-5.33741e-06
-7.8471e-06
-2.38602e-06
-2.53375e-06
-1.27683e-05
-2.07894e-06
6.26755e-06
-5.597e-06
-1.2472e-05
1.3046e-05
2.34123e-05
1.27402e-05
7.13494e-06
3.3215e-05
4.97772e-05
2.86799e-05
5.67426e-05
0.000101496
0.000120632
0.000130893
8.48353e-05
8.47e-05
0.000193036
0.000288987
0.000287796
0.000255862
0.000244818
0.000247993
0.000225794
0.000264989
0.000353918
0.000414495
0.000391697
0.000268568
0.000200202
-9.74336e-06
-1.58533e-05
-0.00039168
-0.000166829
-0.00183884
0.0015816
-0.0413988
-0.642982
-0.83152
-0.813906
-0.794672
-0.758665
-0.693035
-0.580838
-0.449442
-0.360969
-0.278576
-0.211404
-0.138253
-0.0982656
-0.0399284
-0.00855122
-0.010352
0.0158723
0.00787432
0.00404895
0.00375322
0.00526725
0.00199324
0.00458798
0.0216707
0.0396505
0.0743639
0.10742
0.164765
0.238008
0.292096
0.334121
0.387678
0.448242
0.493496
0.520553
0.550939
0.576895
0.602228
0.625231
0.650148
0.67488
0.705401
0.741484
0.781835
0.820498
0.846421
0.860143
0.854737
0.832258
0.78914
0.724071
0.652241
0.597497
0.559463
0.531748
0.508363
0.488782
0.468115
0.447168
0.424775
0.406707
0.386078
0.37212
0.350804
0.336469
0.307201
0.28545
0.261002
0.262063
-8.67058e-06
-4.20621e-06
-4.9397e-06
-5.21698e-06
-4.92748e-06
-4.65036e-06
-6.60142e-06
-3.24999e-06
-4.84201e-06
-9.58144e-06
-5.60164e-06
-8.37195e-07
-1.1245e-05
-8.35135e-06
5.4149e-06
-1.86231e-06
-1.33473e-05
7.16529e-06
2.4581e-05
1.55109e-05
6.14961e-06
3.14081e-05
5.99279e-05
3.48992e-05
3.74617e-05
0.000105538
0.00013431
0.000151394
0.000103677
6.53249e-05
0.000146605
0.000295954
0.000317828
0.000291996
0.000252553
0.00022276
0.000191604
0.000214393
0.000283636
0.000367862
0.00041492
0.000370563
0.000277041
0.000107925
-2.56856e-05
-0.000289359
-0.000674517
-0.00152563
-0.00126529
-0.193431
-0.743263
-0.836934
-0.825223
-0.817728
-0.797588
-0.764067
-0.701694
-0.584454
-0.466255
-0.331505
-0.228615
-0.131963
-0.0868229
-0.0434927
0.00821833
0.0153638
0.0293998
0.0207131
0.0176641
0.0298202
0.0378001
0.0619857
0.0827369
0.140354
0.206493
0.270581
0.309124
0.352468
0.413083
0.471759
0.505588
0.536565
0.561576
0.583082
0.596565
0.615814
0.631395
0.648382
0.66161
0.679208
0.698145
0.720102
0.746123
0.776873
0.80735
0.828849
0.839233
0.833978
0.81346
0.775642
0.71969
0.656581
0.606108
0.571433
0.546732
0.526448
0.510115
0.491885
0.473137
0.451518
0.4319
0.41026
0.395226
0.373652
0.359815
0.3317
0.311749
0.285965
0.2868
-8.95701e-06
-4.46463e-06
-5.4445e-06
-5.44799e-06
-6.15038e-06
-4.62631e-06
-6.69896e-06
-4.95588e-06
-3.25004e-06
-1.06221e-05
-8.30271e-06
-8.02225e-07
-7.69386e-06
-1.17273e-05
2.74518e-06
1.53517e-06
-1.23927e-05
1.31428e-06
2.30782e-05
1.91364e-05
6.40005e-06
3.27855e-05
6.15809e-05
4.07984e-05
1.85815e-05
8.92914e-05
0.000139463
0.000148047
0.000138912
7.39753e-05
8.36471e-05
0.000191491
0.000312219
0.000322999
0.000287704
0.00025801
0.000229162
0.000227116
0.000196957
0.000278933
0.000335576
0.000538523
0.000504428
0.000635967
0.000685989
0.00106758
0.000998707
0.00302691
-0.000414526
-0.377733
-0.817578
-0.843045
-0.836114
-0.834712
-0.823598
-0.804802
-0.772849
-0.714398
-0.613645
-0.434706
-0.269926
-0.116058
-0.0723138
-0.0143536
0.0198312
0.054697
0.0625517
0.0765608
0.0848995
0.131245
0.186577
0.250017
0.282786
0.326215
0.378842
0.438221
0.475329
0.505756
0.536837
0.565436
0.589286
0.609027
0.624386
0.631482
0.640325
0.651817
0.660961
0.673102
0.683297
0.695934
0.71045
0.727319
0.747458
0.770798
0.794062
0.810444
0.8174
0.812198
0.793561
0.760858
0.713196
0.658283
0.612066
0.580793
0.559081
0.542144
0.528986
0.513673
0.497272
0.477263
0.457076
0.434467
0.418374
0.396625
0.382929
0.356203
0.339417
0.313069
0.313377
-9.37338e-06
-4.7074e-06
-5.86039e-06
-6.22302e-06
-5.92963e-06
-5.26151e-06
-8.25564e-06
-5.94025e-06
-2.9368e-06
-1.07661e-05
-1.25291e-05
-8.76426e-07
-3.79637e-06
-1.59342e-05
-2.08439e-06
4.55306e-06
-1.06996e-05
-4.14705e-06
1.86355e-05
1.99642e-05
1.11783e-05
3.34464e-05
5.70201e-05
4.33199e-05
2.3696e-05
6.02189e-05
0.000147975
0.000160162
0.00015646
0.000110283
7.02992e-05
0.000104557
0.000270518
0.000348575
0.000330401
0.000321755
0.000302177
0.000266482
0.000193104
0.000243212
0.000299351
0.000522512
0.000531443
0.000804268
0.000627985
0.00110989
0.00052664
0.00428222
-0.0190989
-0.584334
-0.845976
-0.849934
-0.846839
-0.846558
-0.840842
-0.831368
-0.813779
-0.780523
-0.718454
-0.59382
-0.325052
-0.134929
-0.0440004
0.0507586
0.100745
0.144371
0.191351
0.254002
0.274039
0.309611
0.353743
0.411863
0.452048
0.482396
0.51177
0.539401
0.562168
0.584775
0.601475
0.615869
0.628384
0.641053
0.650714
0.656257
0.66278
0.671844
0.678424
0.6877
0.696539
0.706688
0.718198
0.731582
0.747396
0.764782
0.781016
0.79237
0.795776
0.790001
0.774185
0.746805
0.70628
0.658551
0.616382
0.588194
0.569383
0.555757
0.545689
0.533348
0.519397
0.501042
0.481502
0.458242
0.441155
0.418977
0.40526
0.38036
0.367089
0.341235
0.341126
-9.68139e-06
-5.20425e-06
-6.26035e-06
-5.95749e-06
-7.50256e-06
-6.20189e-06
-7.60199e-06
-8.12023e-06
-2.93065e-06
-9.77513e-06
-1.5968e-05
-2.90856e-06
-1.32158e-06
-1.66341e-05
-7.41992e-06
6.37529e-06
-7.3851e-06
-9.96132e-06
1.24032e-05
1.9776e-05
1.30937e-05
3.47422e-05
5.6892e-05
4.30015e-05
2.00103e-05
3.18023e-05
0.00012561
0.000157642
0.000179359
0.00014374
6.32307e-05
6.59009e-05
0.000165159
0.000298556
0.000330823
0.000359475
0.000338479
0.000315718
0.000204612
0.000228687
0.000176591
0.00033211
0.000346808
0.000379899
0.000120805
6.79571e-05
-0.00102955
-0.000762598
-0.136079
-0.726473
-0.857727
-0.856137
-0.857739
-0.856808
-0.854367
-0.850297
-0.841304
-0.819607
-0.773465
-0.68457
-0.398606
-0.094657
0.096688
0.195878
0.270836
0.295733
0.33922
0.39676
0.434978
0.464117
0.489238
0.515257
0.535872
0.559103
0.579635
0.597116
0.609998
0.623007
0.634295
0.643405
0.650734
0.6592
0.666617
0.672314
0.677722
0.685299
0.691227
0.698487
0.705597
0.713548
0.722699
0.733215
0.745672
0.758549
0.76921
0.775966
0.776318
0.770277
0.757227
0.734205
0.699463
0.657705
0.61941
0.594027
0.577978
0.567578
0.560406
0.551058
0.539613
0.523409
0.504941
0.482243
0.463932
0.44133
0.427512
0.404526
0.394648
0.370267
0.369883
-1.00799e-05
-5.68198e-06
-6.39354e-06
-6.35764e-06
-8.13694e-06
-6.45777e-06
-8.61107e-06
-9.83273e-06
-4.51147e-06
-7.96233e-06
-1.79651e-05
-4.99865e-06
-8.61091e-07
-1.65578e-05
-1.19337e-05
5.96834e-06
-3.33431e-06
-1.49555e-05
4.80793e-06
1.85335e-05
1.65272e-05
3.02478e-05
5.26201e-05
4.83905e-05
2.03904e-05
2.7319e-05
9.34901e-05
0.000157142
0.000185379
0.000173867
8.31103e-05
6.03143e-05
0.000115021
0.000257624
0.000337764
0.000359333
0.000347242
0.000327265
0.000278977
0.000198368
0.00019422
0.000212281
0.000411092
0.000484503
0.000698889
0.00063625
0.00150427
-0.000740858
-0.335266
-0.812755
-0.859335
-0.858873
-0.861489
-0.861602
-0.861658
-0.859067
-0.851798
-0.833171
-0.767965
-0.647048
-0.27866
0.0849365
0.248625
0.355614
0.414145
0.450327
0.481991
0.509618
0.531334
0.555761
0.574676
0.590331
0.596989
0.608425
0.621097
0.632426
0.641708
0.650146
0.658245
0.662123
0.66723
0.671693
0.677402
0.683241
0.687785
0.69358
0.698766
0.703935
0.70998
0.716598
0.724607
0.733488
0.74278
0.751495
0.758299
0.761855
0.760393
0.754312
0.742956
0.723083
0.692872
0.656136
0.621766
0.599013
0.585491
0.577829
0.573227
0.566804
0.558018
0.54412
0.527062
0.505589
0.486122
0.463113
0.449007
0.427809
0.42113
0.398617
0.398192
-1.04268e-05
-5.92167e-06
-7.13598e-06
-6.45143e-06
-9.09491e-06
-7.714e-06
-6.93098e-06
-1.24929e-05
-7.58064e-06
-5.89829e-06
-1.75367e-05
-9.95618e-06
-1.34442e-06
-1.48821e-05
-1.61566e-05
3.47183e-06
-1.80264e-07
-1.8469e-05
-4.13705e-06
1.88041e-05
1.63245e-05
2.49938e-05
4.20728e-05
4.88069e-05
2.59209e-05
1.31495e-05
6.90434e-05
0.000151135
0.000174783
0.000162852
0.000107174
4.86004e-05
9.29736e-05
0.000197967
0.0002971
0.000348546
0.000314863
0.000356343
0.000357223
0.000356548
0.000423255
0.000502503
0.000928528
0.000908589
0.00174836
0.00128574
0.00497462
-0.0144565
-0.555777
-0.85054
-0.861139
-0.861009
-0.86213
-0.862075
-0.861443
-0.857752
-0.846237
-0.817621
-0.670398
-0.403985
-0.0146131
0.250884
0.383697
0.456988
0.502743
0.530151
0.555285
0.577231
0.595032
0.611703
0.626493
0.637197
0.641862
0.64521
0.651517
0.658281
0.663982
0.667424
0.672254
0.673175
0.677383
0.678064
0.681941
0.687813
0.692827
0.698036
0.703557
0.708597
0.714617
0.720275
0.726982
0.73341
0.739636
0.7452
0.748801
0.750441
0.748583
0.742262
0.731369
0.713357
0.687025
0.654278
0.62369
0.603412
0.591943
0.586657
0.584474
0.580857
0.574986
0.563531
0.548185
0.528185
0.50823
0.484971
0.47058
0.450954
0.446592
0.426276
0.425948
-1.08171e-05
-6.20779e-06
-7.70078e-06
-7.56505e-06
-8.59117e-06
-8.30647e-06
-8.24469e-06
-1.30997e-05
-1.10084e-05
-5.591e-06
-1.58694e-05
-1.48876e-05
-3.12047e-06
-1.23126e-05
-2.04486e-05
-1.40474e-06
2.11634e-06
-2.08883e-05
-1.41233e-05
1.83338e-05
1.81718e-05
1.79851e-05
3.07128e-05
4.5682e-05
3.51278e-05
8.02682e-06
5.05158e-05
0.000131398
0.000167816
0.000152834
0.000115562
4.97762e-05
6.82915e-05
0.000157379
0.000271211
0.000341724
0.000311178
0.00031578
0.00026405
0.0002662
0.00017911
0.00012572
8.18284e-05
-2.48956e-05
-0.000142084
-0.00118356
-0.00125921
-0.128891
-0.729598
-0.864015
-0.862326
-0.861537
-0.86081
-0.85961
-0.855985
-0.846797
-0.80533
-0.735202
-0.449693
-0.060936
0.226015
0.387604
0.477476
0.530867
0.564801
0.587032
0.603396
0.617605
0.630498
0.643302
0.654166
0.662208
0.667907
0.669967
0.669051
0.673026
0.676743
0.681704
0.68475
0.686566
0.690926
0.689724
0.691654
0.695356
0.69962
0.703318
0.707539
0.71124
0.716825
0.721561
0.727879
0.733212
0.737921
0.740996
0.742853
0.742568
0.739953
0.732978
0.721689
0.704866
0.681228
0.651979
0.625261
0.607517
0.597727
0.594363
0.594363
0.593525
0.590766
0.581483
0.567959
0.549533
0.529755
0.5061
0.491455
0.47303
0.470359
0.451965
0.451847
-1.11771e-05
-6.58185e-06
-8.29387e-06
-7.67991e-06
-9.53737e-06
-1.05254e-05
-6.87924e-06
-1.25494e-05
-1.54852e-05
-5.49395e-06
-1.33999e-05
-2.02964e-05
-6.50672e-06
-9.02957e-06
-2.2777e-05
-8.3904e-06
1.87562e-06
-1.99907e-05
-2.42863e-05
1.32353e-05
2.26233e-05
7.58795e-06
1.86604e-05
3.88124e-05
4.2405e-05
1.19281e-05
2.41629e-05
9.32079e-05
0.00014972
0.000147238
0.000130397
5.81263e-05
3.72442e-05
9.35907e-05
0.00019087
0.000289549
0.000266482
0.000286521
0.000204592
0.000225485
9.67938e-05
0.000183523
0.0001461
0.000425639
0.00018046
0.00134442
-0.00324769
-0.364347
-0.822503
-0.862091
-0.860103
-0.859645
-0.858812
-0.856677
-0.845587
-0.822082
-0.697656
-0.486771
-0.106719
0.204585
0.378865
0.480697
0.540509
0.576997
0.600137
0.616827
0.629977
0.641165
0.650925
0.661554
0.671096
0.679542
0.685325
0.691168
0.693404
0.694755
0.698297
0.699782
0.699492
0.702143
0.699912
0.699605
0.698466
0.700878
0.70452
0.708389
0.712661
0.717054
0.722923
0.726592
0.731159
0.734049
0.73684
0.738538
0.739593
0.738139
0.734413
0.72635
0.714179
0.697843
0.676373
0.65037
0.627308
0.611727
0.603167
0.601259
0.603178
0.604919
0.605507
0.59792
0.586634
0.570066
0.550854
0.527119
0.51224
0.494797
0.493187
0.476487
0.476378
-1.16159e-05
-6.98331e-06
-8.5679e-06
-8.87363e-06
-9.05466e-06
-1.14225e-05
-9.08133e-06
-1.08103e-05
-1.8965e-05
-8.2715e-06
-9.89074e-06
-2.35376e-05
-1.15971e-05
-7.36028e-06
-2.40867e-05
-1.65125e-05
-7.83245e-07
-1.547e-05
-3.34441e-05
3.84163e-06
2.42683e-05
-2.24315e-06
6.474e-08
3.01909e-05
4.93038e-05
2.86392e-05
-9.00876e-07
3.51514e-05
0.000119386
0.000143877
0.000142685
7.83939e-05
1.86042e-05
5.76142e-05
0.000130622
0.000260122
0.000247757
0.00027624
0.000199492
0.000218826
2.20889e-05
0.000158074
-0.000164188
0.000312385
-0.000845216
0.00242592
-0.0353132
-0.611207
-0.854752
-0.860424
-0.860002
-0.859153
-0.855753
-0.848087
-0.81256
-0.750119
-0.489283
-0.112548
0.193107
0.37328
0.480864
0.544977
0.584875
0.610814
0.628145
0.640428
0.649863
0.657995
0.664813
0.672437
0.68084
0.689135
0.696531
0.703737
0.709515
0.712835
0.71699
0.716011
0.718094
0.716486
0.719046
0.717856
0.714689
0.715152
0.716703
0.718789
0.720403
0.7223
0.726515