/*--------------------------------*- C++ -*----------------------------------*\
| =========                 |                                                 |
| \\      /  F ield         | OpenFOAM: The Open Source CFD Toolbox           |
|  \\    /   O peration     | Version:  2.2.x                                 |
|   \\  /    A nd           | Web:      www.OpenFOAM.org                      |
|    \\/     M anipulation  |                                                 |
\*---------------------------------------------------------------------------*/
FoamFile
{
    version     2.0;
    format      ascii;
    class       volScalarField;
    location    "1.05";
    object      Ma;
}
// * * * * * * * * * * * * * * * * * * * * * * * * * * * * * * * * * * * * * //

dimensions      [0 0 0 0 0 0 0];

internalField   nonuniform List<scalar> 
14161
(
2.6023
2.60133
2.60171
2.60208
2.60261
2.6033
2.60404
2.60489
2.606
2.60723
2.60863
2.61018
2.61184
2.6137
2.61568
2.61784
2.62004
2.62244
2.62485
2.62728
2.6299
2.63271
2.63527
2.63752
2.63981
2.64219
2.64419
2.64641
2.64837
2.64964
2.65032
2.65074
2.6511
2.65135
2.65048
2.64931
2.64825
2.64633
2.64326
2.63965
2.63523
2.63014
2.62381
2.61771
2.61149
2.60323
2.59299
2.5826
2.5679
2.56038
2.08436
0.672182
0.5325
0.536171
0.564601
0.590085
0.62162
0.649924
0.677117
0.705385
0.73528
0.76583
0.793032
0.818719
0.841694
0.859943
0.874739
0.886917
0.894323
0.897386
0.898039
0.889067
0.883917
0.875936
0.868208
0.862492
0.860035
0.860321
0.859049
0.865574
0.869243
0.873128
0.878028
0.882782
0.885441
0.886872
0.885698
0.876058
0.871835
0.882836
0.889805
0.930841
0.971993
1.01429
1.05653
1.06101
1.03983
0.99511
1.01916
0.912074
0.769158
0.643041
0.547885
0.479716
0.429997
0.392416
0.362777
0.33955
0.320089
0.30431
0.290242
0.277382
0.26495
0.251637
0.236816
0.217207
0.189548
0.151243
0.115903
2.60231
2.60132
2.60174
2.60216
2.6026
2.60317
2.60404
2.60504
2.60602
2.60715
2.60863
2.61028
2.61183
2.61353
2.61572
2.61795
2.62005
2.62228
2.62487
2.62741
2.62991
2.63274
2.63528
2.63757
2.63987
2.64218
2.64424
2.64651
2.64838
2.64965
2.65036
2.65079
2.65113
2.65146
2.65067
2.64956
2.64845
2.64655
2.64361
2.64022
2.63579
2.6306
2.62462
2.61815
2.61182
2.60458
2.59412
2.58357
2.57095
2.55883
2.18832
0.698156
0.556519
0.563202
0.590554
0.614886
0.644496
0.672621
0.699392
0.728129
0.758762
0.787774
0.81511
0.840894
0.863391
0.881546
0.896432
0.908655
0.915764
0.918716
0.919226
0.910215
0.905051
0.897871
0.890944
0.885166
0.882933
0.884272
0.884009
0.892197
0.896964
0.901681
0.906875
0.911746
0.915303
0.91786
0.916668
0.911312
0.907425
0.921336
0.929109
0.970203
1.00865
1.04725
1.09249
1.09644
1.09407
0.979911
0.893821
0.73892
0.609704
0.506165
0.433995
0.382125
0.342726
0.312486
0.287937
0.266902
0.247638
0.229762
0.212324
0.194926
0.177733
0.160594
0.143334
0.125642
0.109015
0.0951623
0.157751
2.6023
2.60134
2.60171
2.60207
2.60262
2.60331
2.60401
2.60481
2.60602
2.60732
2.6086
2.61002
2.61184
2.61378
2.61566
2.61765
2.6201
2.62257
2.62486
2.62722
2.62995
2.63271
2.63532
2.63767
2.63996
2.64216
2.64425
2.64666
2.64844
2.64974
2.65054
2.65101
2.65139
2.65182
2.65124
2.65014
2.64908
2.64733
2.64509
2.6418
2.63714
2.6323
2.62731
2.62105
2.61397
2.60704
2.59885
2.58765
2.57851
2.57145
2.24356
0.706232
0.556318
0.563226
0.588866
0.611936
0.638612
0.663234
0.692709
0.721762
0.750893
0.778455
0.809812
0.835347
0.859589
0.878194
0.895009
0.90627
0.914469
0.917392
0.919259
0.91014
0.90554
0.899365
0.892737
0.887871
0.8862
0.889688
0.890048
0.898712
0.903952
0.908651
0.914215
0.918583
0.922521
0.925354
0.924846
0.920506
0.914783
0.929947
0.93869
0.987877
1.02127
1.04145
1.09864
1.09874
1.02259
0.85964
0.709771
0.589728
0.501977
0.432999
0.374041
0.323523
0.281395
0.246341
0.216906
0.192994
0.171545
0.151855
0.133336
0.116322
0.101197
0.0880556
0.0778297
0.0714403
0.081666
0.103172
0.197345
2.60231
2.60132
2.60174
2.60213
2.6026
2.60317
2.60403
2.60503
2.606
2.60709
2.60865
2.61029
2.61182
2.61349
2.61571
2.61797
2.62006
2.62221
2.62493
2.62753
2.62997
2.63267
2.63531
2.63782
2.64008
2.64223
2.64448
2.64676
2.64858
2.64985
2.65081
2.65136
2.65188
2.65225
2.65193
2.65129
2.65039
2.64882
2.6465
2.64384
2.64071
2.63653
2.63054
2.62452
2.61773
2.61025
2.60088
2.59004
2.5798
2.56885
2.17295
0.689909
0.542729
0.555285
0.583984
0.613175
0.64151
0.669258
0.701821
0.732135
0.760988
0.789736
0.817917
0.84393
0.86788
0.884273
0.902
0.913187
0.919877
0.922105
0.923268
0.913485
0.908331
0.900742
0.893438
0.888309
0.885286
0.888255
0.888094
0.894268
0.898225
0.900977
0.905641
0.908494
0.912313
0.914545
0.913812
0.912524
0.905859
0.921971
0.926796
0.973569
1.0065
1.0344
1.08644
1.01488
0.801964
0.639723
0.502297
0.435928
0.395288
0.357362
0.320723
0.283129
0.246587
0.211718
0.17875
0.15027
0.127126
0.108069
0.0920228
0.0780065
0.0669096
0.0576081
0.0531239
0.0552708
0.0771801
0.110534
0.217193
2.6023
2.60132
2.60174
2.60209
2.60262
2.60331
2.60401
2.60482
2.60602
2.60732
2.6086
2.61002
2.61186
2.61379
2.61564
2.61766
2.62015
2.6226
2.6249
2.62733
2.63003
2.63266
2.63535
2.63794
2.64023
2.6423
2.64468
2.64694
2.64874
2.65008
2.65121
2.65193
2.65259
2.65302
2.65327
2.65262
2.65208
2.65098
2.64924
2.64661
2.64409
2.6411
2.63708
2.63113
2.62521
2.619
2.60985
2.59825
2.58488
2.57293
2.10836
0.67419
0.526771
0.545914
0.575371
0.611877
0.643891
0.673423
0.71005
0.740598
0.773482
0.794987
0.832141
0.85902
0.870399
0.900719
0.918876
0.927937
0.936548
0.937617
0.939093
0.927623
0.921685
0.914582
0.90783
0.90227
0.898283
0.902089
0.902529
0.906602
0.909657
0.910826
0.914919
0.916791
0.920768
0.921978
0.922686
0.922846
0.914843
0.934013
0.936012
0.985635
1.01543
1.03191
1.04422
0.823012
0.638317
0.503314
0.427657
0.379733
0.345511
0.318018
0.291314
0.264669
0.238151
0.211199
0.182964
0.153798
0.12557
0.102669
0.0847664
0.0696137
0.0589869
0.0510038
0.0483499
0.0515727
0.0767772
0.114876
0.228416
2.6023
2.60132
2.60174
2.60213
2.60261
2.60319
2.60403
2.60502
2.606
2.60711
2.60862
2.61027
2.61187
2.61356
2.61566
2.61797
2.62017
2.62241
2.62489
2.62755
2.63006
2.63262
2.63544
2.6381
2.6404
2.64241
2.64503
2.64724
2.64887
2.65039
2.65162
2.65264
2.65346
2.65414
2.65471
2.65467
2.65426
2.65355
2.65239
2.65083
2.64883
2.64674
2.6437
2.63903
2.6339
2.62963
2.62389
2.61432
2.6048
2.59377
2.19177
0.685208
0.518859
0.552084
0.586739
0.630924
0.664462
0.699441
0.736898
0.76995
0.80442
0.823162
0.867839
0.894768
0.903451
0.940495
0.949398
0.968459
0.978978
0.983243
0.97973
0.972736
0.96383
0.955719
0.948596
0.94567
0.937969
0.93823
0.940087
0.940762
0.943693
0.9433
0.946573
0.947892
0.952667
0.952914
0.95184
0.95297
0.945989
0.964903
0.967724
0.997767
1.01686
1.02469
0.856689
0.685868
0.572645
0.490067
0.419166
0.36476
0.322879
0.290276
0.264654
0.243739
0.224149
0.205021
0.18535
0.163867
0.139835
0.1155
0.0955062
0.0783289
0.0665389
0.0571764
0.0531095
0.0548562
0.0787414
0.118576
0.235799
2.60227
2.60131
2.60172
2.60208
2.60262
2.60331
2.60404
2.60489
2.606
2.60731
2.60861
2.61005
2.6119
2.61382
2.61564
2.61774
2.6202
2.62265
2.62494
2.62748
2.63012
2.63263
2.6355
2.6382
2.64054
2.64266
2.64527
2.64757
2.64932
2.65082
2.65223
2.65348
2.65456
2.65545
2.65639
2.65694
2.65699
2.6569
2.65654
2.6561
2.65519
2.65428
2.65333
2.65107
2.64849
2.64642
2.64466
2.63739
2.63151
2.59627
2.40097
0.731172
0.520945
0.583042
0.625719
0.676712
0.714417
0.757105
0.797739
0.832974
0.872445
0.888642
0.93804
0.962915
0.981533
1.01059
1.01071
1.04232
1.05282
1.05649
1.05997
1.05378
1.04657
1.03813
1.03074
1.0248
1.02085
1.01823
1.02273
1.02119
1.02134
1.02094
1.01963
1.01991
1.02156
1.02114
1.01663
1.0145
1.00287
1.01232
1.00692
1.023
1.03501
0.86297
0.717387
0.609011
0.576124
0.537581
0.472177
0.399887
0.337517
0.293064
0.262453
0.240107
0.221688
0.20513
0.189902
0.174156
0.156789
0.135567
0.113987
0.0934135
0.0786552
0.0662997
0.059535
0.0599112
0.0818418
0.122386
0.242006
2.60227
2.60131
2.6017
2.60208
2.60262
2.60325
2.60404
2.60497
2.60605
2.60722
2.60861
2.61015
2.61192
2.61379
2.61561
2.61777
2.62025
2.62268
2.62495
2.62751
2.63019
2.6327
2.63557
2.63837
2.6408
2.64304
2.64551
2.64789
2.64987
2.65147
2.65304
2.65453
2.65583
2.65707
2.65823
2.65936
2.66016
2.66069
2.66112
2.66156
2.66183
2.66212
2.66212
2.66287
2.66301
2.66386
2.66535
2.66942
2.67649
2.70841
2.70261
0.908321
0.565793
0.681017
0.740613
0.795544
0.833029
0.868408
0.905829
0.931932
0.959128
0.973071
1.02722
1.01472
1.05764
1.08563
1.08125
1.10332
1.10976
1.11986
1.11534
1.11606
1.11336
1.10138
1.09708
1.08918
1.08585
1.09121
1.09063
1.09126
1.09313
1.09365
1.09067
1.09337
1.09393
1.09044
1.08006
1.07264
1.06265
1.06201
1.06617
0.996683
0.878994
0.722787
0.684808
0.632104
0.622629
0.572941
0.511468
0.434438
0.364767
0.311368
0.275285
0.24956
0.230442
0.214412
0.200369
0.186613
0.172457
0.154785
0.134305
0.111362
0.0932635
0.0777325
0.067992
0.0669839
0.0856763
0.126377
0.247808
2.60226
2.6013
2.60171
2.60208
2.60265
2.60325
2.60402
2.60498
2.606
2.60722
2.60859
2.61012
2.61191
2.6138
2.61562
2.61769
2.62026
2.62271
2.62501
2.62751
2.63028
2.63283
2.63559
2.63852
2.64108
2.64348
2.64586
2.64818
2.65036
2.65232
2.65401
2.65565
2.6572
2.65881
2.6605
2.66207
2.66343
2.66478
2.6663
2.66802
2.6697
2.67197
2.67505
2.67852
2.68369
2.68746
2.69442
2.71103
2.7291
2.77147
2.74992
2.08267
0.811059
0.82975
0.881845
0.908953
0.941814
0.945178
0.990123
1.00015
1.00922
1.03008
1.08471
1.03824
1.09538
1.12667
1.11527
1.11957
1.13711
1.14017
1.14162
1.14387
1.14426
1.12978
1.12996
1.11748
1.11427
1.12102
1.11974
1.12093
1.12293
1.1205
1.11663
1.11328
1.11122
1.10238
1.09915
1.09211
1.05234
1.02574
0.925925
0.798806
0.685565
0.601758
0.622871
0.658918
0.655225
0.617208
0.55561
0.46772
0.387668
0.326412
0.28676
0.259038
0.239169
0.223172
0.209923
0.197383
0.185493
0.170403
0.15257
0.129797
0.10918
0.0903476
0.0777374
0.0750794
0.0907155
0.130892
0.253724
2.60225
2.60128
2.6017
2.60212
2.6026
2.60322
2.60407
2.60493
2.606
2.60724
2.60858
2.61011
2.61185
2.61379
2.61565
2.61765
2.62025
2.62272
2.6251
2.62753
2.63037
2.63301
2.63562
2.63863
2.64138
2.64405
2.64651
2.6486
2.65083
2.65326
2.65523
2.65691
2.65874
2.66075
2.66303
2.665
2.66679
2.66876
2.67111
2.67356
2.67664
2.6798
2.68429
2.68853
2.69328
2.69762
2.70501
2.7177
2.7363
2.77706
2.75192
1.49043
1.07734
0.993473
0.954648
0.943089
0.986717
1.0008
1.01118
1.0183
1.04196
1.0387
1.09811
1.07354
1.08909
1.14504
1.1353
1.12913
1.14458
1.1471
1.1507
1.15079
1.1526
1.13756
1.1374
1.12492
1.12252
1.12669
1.1254
1.12331
1.12274
1.12026
1.11416
1.11188
1.10757
1.07666
1.04249
1.00488
0.906534
0.800837
0.696981
0.593099
0.522395
0.568247
0.605333
0.626377
0.636267
0.624767
0.580784
0.502435
0.415145
0.344305
0.299149
0.268814
0.248359
0.232429
0.219547
0.20775
0.19734
0.184096
0.16844
0.14744
0.12615
0.103947
0.0885884
0.0839888
0.0970587
0.13595
0.25947
2.60223
2.60127
2.6017
2.60207
2.60262
2.60322
2.60399
2.60497
2.60595
2.60717
2.60858
2.61016
2.6118
2.61373
2.6157
2.61769
2.6202
2.62271
2.62518
2.62757
2.63047
2.63319
2.63576
2.63863
2.64177
2.64457
2.64711
2.64909
2.65126
2.65421
2.65659
2.65843
2.66046
2.66278
2.6655
2.6678
2.67034
2.67266
2.67539
2.67841
2.68253
2.68744
2.69355
2.70167
2.71115
2.72191
2.73618
2.75772
2.80741
2.85982
2.94678
1.76589
1.09041
1.01779
1.06345
0.94472
0.971155
0.980529
0.999316
0.99682
1.02984
1.03411
1.08452
1.08321
1.08096
1.12899
1.13748
1.12812
1.13312
1.13825
1.14151
1.14012
1.14084
1.1297
1.12672
1.11388
1.11216
1.11528
1.11484
1.10927
1.10701
1.09354
1.0689
1.04941
1.003
0.926968
0.831779
0.735684
0.650616
0.558047
0.477923
0.475736
0.474857
0.52817
0.596122
0.626654
0.624273
0.609504
0.574041
0.514699
0.433504
0.358654
0.309298
0.276984
0.256028
0.240838
0.228796
0.217855
0.208517
0.196622
0.182827
0.163706
0.143252
0.118821
0.101006
0.0942594
0.104838
0.141975
0.265624
2.6022
2.60126
2.60166
2.60208
2.60256
2.6032
2.60403
2.60491
2.60594
2.60716
2.60862
2.6101
2.61177
2.61369
2.61573
2.61771
2.62011
2.62274
2.62526
2.62766
2.63053
2.63338
2.63594
2.63867
2.64217
2.64511
2.64776
2.64981
2.65196
2.65508
2.65797
2.66015
2.66233
2.66478
2.66782
2.67057
2.67322
2.67624
2.6791
2.68227
2.68616
2.69115
2.69571
2.69952
2.70339
2.70355
2.70394
2.69272
2.69634
2.59525
2.12104
1.37452
1.17205
1.10068
1.13873
0.979932
0.970842
0.942313
0.98647
0.980953
1.01831
1.04815
1.05984
1.10503
1.09039
1.11892
1.13919
1.12992
1.1408
1.14206
1.14495
1.13944
1.13658
1.12982
1.12472
1.11128
1.10613
1.10496
1.09157
1.05817
1.04036
0.980072
0.907143
0.817116
0.734476
0.654941
0.56754
0.497837
0.44195
0.4322
0.409273
0.425451
0.46707
0.510861
0.560834
0.593464
0.606179
0.603918
0.577484
0.52427
0.449489
0.375173
0.32147
0.286329
0.263925
0.248898
0.237792
0.227808
0.219344
0.208618
0.19631
0.178771
0.159328
0.134035
0.114404
0.105402
0.113713
0.148778
0.271191
2.60219
2.60126
2.60165
2.60203
2.6026
2.60321
2.60394
2.60492
2.60595
2.6071
2.60855
2.61016
2.61172
2.61362
2.61574
2.61776
2.62002
2.62277
2.62536
2.62779
2.63055
2.63353
2.63616
2.63882
2.64252
2.64562
2.64838
2.65074
2.65289
2.65575
2.65929
2.662
2.66437
2.66694
2.67018
2.67294
2.67576
2.67887
2.68154
2.68475
2.68832
2.69229
2.69629
2.69936
2.70167
2.70331
2.70469
2.70214
2.71114
2.6497
1.55435
1.23495
1.20664
1.21237
1.173
1.02924
1.00653
0.93239
0.970402
0.950665
1.01409
1.02676
1.05753
1.11056
1.08621
1.10929
1.11834
1.12882
1.13749
1.13091
1.13128
1.12482
1.12066
1.1102
1.09659
1.06305
1.04615
1.00717
0.944978
0.867758
0.783908
0.712155
0.633289
0.555377
0.48725
0.448734
0.412004
0.40716
0.392217
0.393941
0.404183
0.426762
0.456657
0.496784
0.542597
0.577069
0.585963
0.584094
0.563183
0.521815
0.457752
0.389638
0.33424
0.296215
0.272108
0.256566
0.246529
0.237626
0.229949
0.220342
0.20924
0.192987
0.174575
0.149406
0.128508
0.117488
0.124217
0.157025
0.277682
2.60218
2.60125
2.60164
2.60206
2.60254
2.60316
2.60398
2.60487
2.60592
2.60707
2.60851
2.61014
2.6117
2.61356
2.61572
2.6178
2.61998
2.62276
2.62542
2.62794
2.63061
2.63368
2.63645
2.63917
2.64275
2.64616
2.6491
2.65182
2.65381
2.65644
2.66053
2.66385
2.66665
2.66937
2.67244
2.67529
2.67814
2.68044
2.6834
2.68743
2.69144
2.69506
2.69826
2.70217
2.70649
2.71262
2.72162
2.73785
2.75498
2.82531
1.39445
1.22366
1.2141
1.22872
1.21251
1.19524
1.05344
1.00888
0.94507
0.989604
0.980222
1.0423
1.02824
1.12478
1.11466
1.10437
1.11759
1.12476
1.13014
1.12022
1.11518
1.0916
1.0757
1.03089
0.973927
0.899104
0.822436
0.749762
0.681088
0.605673
0.534909
0.481146
0.439927
0.417339
0.397106
0.393693
0.380851
0.380642
0.388524
0.400206
0.406804
0.425645
0.450843
0.4823
0.518507
0.553567
0.567858
0.569071
0.552908
0.518255
0.462045
0.40121
0.346705
0.306629
0.280595
0.264259
0.254944
0.24706
0.240185
0.231734
0.221726
0.20667
0.189234
0.16475
0.143109
0.13035
0.135829
0.16621
0.28411
2.60215
2.60122
2.60163
2.602
2.60254
2.60319
2.60391
2.60486
2.60592
2.60701
2.60848
2.61011
2.61167
2.61347
2.6157
2.61784
2.61995
2.62268
2.62544
2.6281
2.6307
2.63376
2.63675
2.63962
2.64291
2.64667
2.64982
2.65296
2.65503
2.65756
2.6608
2.6654
2.66884
2.67201
2.67495
2.67787
2.68024
2.68202
2.68476
2.68833
2.69285
2.6955
2.69669
2.69722
2.69622
2.69583
2.68761
2.69037
2.63572
2.2128
1.2609
1.19492
1.19545
1.21073
1.21649
1.21658
1.1963
1.05042
1.04394
0.960279
1.04494
0.99945
1.06569
1.07673
1.13128
1.09139
1.09949
1.08758
1.08001
1.04185
0.997514
0.920594
0.843581
0.779027
0.700561
0.632581
0.5632
0.503487
0.459518
0.435181
0.412505
0.406241
0.395495
0.390487
0.381771
0.387756
0.386156
0.389684
0.393177
0.404202
0.412658
0.427039
0.446635
0.472237
0.501205
0.533049
0.549377
0.551318
0.538787
0.510569
0.463828
0.41075
0.359232
0.317772
0.289764
0.272166
0.263043
0.255975
0.249798
0.242387
0.233481
0.219675
0.20325
0.179762
0.157884
0.143897
0.148757
0.176904
0.291791
2.60213
2.60121
2.6016
2.60201
2.60249
2.60313
2.60393
2.60481
2.60588
2.607
2.6084
2.61006
2.61169
2.6134
2.61568
2.61785
2.61996
2.62256
2.62548
2.62826
2.63085
2.63376
2.63704
2.64003
2.64314
2.64712
2.65062
2.6538
2.6567
2.65863
2.66138
2.66657
2.67097
2.67454
2.67765
2.68056
2.68302
2.68436
2.68701
2.68971
2.6957
2.69925
2.70138
2.70285
2.70297
2.7024
2.69698
2.69735
2.63619
1.67798
1.20367
1.18188
1.19031
1.20197
1.21197
1.22525
1.23728
1.19547
1.17205
1.01113
1.03899
0.964968
1.06184
1.02991
1.07832
1.03495
1.00827
0.935596
0.863785
0.805068
0.72532
0.660662
0.586298
0.524836
0.47708
0.447656
0.428109
0.417876
0.405549
0.400524
0.392283
0.390523
0.392188
0.396126
0.390004
0.392329
0.392843
0.396455
0.400447
0.409386
0.417242
0.428221
0.443861
0.464586
0.487531
0.514119
0.531262
0.53475
0.525447
0.502391
0.464081
0.417767
0.371538
0.329625
0.299853
0.280714
0.271294
0.264654
0.259132
0.252527
0.244582
0.232099
0.216738
0.194392
0.172583
0.157468
0.162435
0.188672
0.299525
2.60211
2.60119
2.60159
2.60196
2.60248
2.60314
2.60386
2.60476
2.60587
2.60696
2.60833
2.61
2.61167
2.61335
2.61559
2.61785
2.61995
2.62245
2.62548
2.62834
2.63097
2.63386
2.63733
2.64051
2.64362
2.64725
2.65137
2.65481
2.65816
2.66013
2.66298
2.66646
2.67237
2.67664
2.68028
2.68326
2.68632
2.68778
2.68999
2.69296
2.69622
2.7015
2.7056
2.70887
2.71372
2.71958
2.73024
2.75029
2.77441
1.42371
1.19906
1.18614
1.19522
1.20334
1.21161
1.22362
1.23597
1.25044
1.18784
1.10492
0.976098
1.04941
0.903498
0.939048
0.852621
0.800182
0.748676
0.676809
0.604534
0.542738
0.491512
0.457882
0.432053
0.417032
0.402944
0.39632
0.390743
0.39231
0.396291
0.402959
0.40324
0.402016
0.400478
0.403409
0.399977
0.401669
0.401488
0.403878
0.407094
0.414111
0.421734
0.430869
0.442833
0.458537
0.47638
0.497617
0.514338
0.519393
0.51313
0.494349
0.463434
0.422865
0.382205
0.341919
0.310658
0.28986
0.279707
0.27307
0.268121
0.262132
0.255034
0.24372
0.229556
0.208527
0.187158
0.170663
0.176622
0.20158
0.309163
2.60207
2.60116
2.60156
2.60194
2.60244
2.60308
2.60387
2.6047
2.6058
2.60698
2.60824
2.60993
2.61165
2.61331
2.61547
2.61779
2.61998
2.62238
2.6255
2.62839
2.6311
2.63397
2.63764
2.641
2.644
2.64738
2.65201
2.65584
2.65934
2.66195
2.66433
2.66764
2.67275
2.67825
2.68245
2.68587
2.68892
2.69233
2.69408
2.69674
2.70023
2.70425
2.71013
2.7144
2.71837
2.71884
2.73126
2.71021
2.507
1.29848
1.19832
1.19433
1.20041
1.20406
1.21316
1.2232
1.23576
1.23868
1.2431
1.07374
0.939764
0.766127
0.689247
0.668762
0.595459
0.543862
0.497366
0.468442
0.44547
0.42874
0.414225
0.408424
0.402763
0.400388
0.399686
0.401904
0.402248
0.401046
0.399951
0.403808
0.408333
0.40832
0.407603
0.410214
0.408753
0.410715
0.410617
0.412466
0.414989
0.419851
0.426058
0.433011
0.442872
0.454571
0.467567
0.48319
0.499192
0.505571
0.501754
0.486957
0.461653
0.426523
0.390987
0.354333
0.322164
0.299746
0.288524
0.281538
0.276905
0.271429
0.265049
0.25481
0.241866
0.222224
0.201498
0.183547
0.190865
0.21489
0.318739
2.60205
2.60115
2.60153
2.6019
2.60242
2.60305
2.60377
2.60465
2.60575
2.60697
2.60817
2.60984
2.6116
2.61329
2.61531
2.61772
2.62
2.62233
2.62547
2.6284
2.63116
2.63407
2.63794
2.6414
2.64446
2.64777
2.65212
2.65655
2.66024
2.66386
2.66597
2.6694
2.67313
2.67976
2.68439
2.68833
2.6919
2.69526
2.69868
2.70004
2.70281
2.7053
2.70793
2.70968
2.70844
2.7021
2.69936
2.62544
1.78004
1.18971
1.17697
1.18609
1.1932
1.19876
1.20378
1.20649
1.20596
1.17801
1.14349
0.890144
0.686745
0.53857
0.489314
0.48033
0.456903
0.436955
0.419957
0.409553
0.401121
0.395488
0.393592
0.39845
0.404458
0.40539
0.405331
0.407409
0.411591
0.413437
0.41277
0.414068
0.418104
0.420237
0.418681
0.419986
0.419179
0.420792
0.420167
0.420559
0.421865
0.4249
0.429947
0.435908
0.443469
0.451833
0.460886
0.471993
0.48588
0.494126
0.492116
0.480444
0.459191
0.428992
0.39792
0.365911
0.334234
0.310132
0.297603
0.290046
0.285576
0.280441
0.274767
0.265446
0.253636
0.235392
0.215229
0.19655
0.205021
0.228291
0.330175
2.60201
2.60113
2.60151
2.6019
2.60237
2.60298
2.60377
2.60458
2.60567
2.60691
2.60812
2.60971
2.61152
2.61327
2.61516
2.61764
2.62
2.62231
2.62537
2.6284
2.63122
2.63413
2.63814
2.6417
2.64501
2.64813
2.6521
2.65723
2.66126
2.66501
2.66801
2.67078
2.67462
2.68053
2.68646
2.69088
2.69473
2.69842
2.70225
2.7051
2.70727
2.71159
2.71501
2.72518
2.73334
2.74567
2.76819
2.77471
1.47342
1.19222
1.18358
1.18848
1.19149
1.19398
1.19488
1.19105
1.17731
1.10024
0.995613
0.66602
0.499039
0.425043
0.444994
0.439198
0.442965
0.434869
0.427473
0.423937
0.421558
0.418708
0.414994
0.414684
0.419182
0.423681
0.42538
0.425394
0.42797
0.429933
0.42809
0.426358
0.427871
0.430326
0.428353
0.42892
0.428502
0.429555
0.428986
0.428743
0.429734
0.4319
0.435922
0.440074
0.445029
0.449719
0.455808
0.463785
0.474388
0.483751
0.483635
0.474799
0.456384
0.430675
0.403652
0.375955
0.346637
0.321027
0.306995
0.298716
0.294365
0.289412
0.28434
0.275832
0.264986
0.24803
0.228555
0.20947
0.21873
0.241166
0.341458
2.60199
2.60109
2.60148
2.60184
2.60234
2.60296
2.60374
2.60453
2.60558
2.60685
2.60806
2.60955
2.61141
2.6132
2.61502
2.61752
2.61996
2.62228
2.6252
2.62833
2.63123
2.63419
2.63825
2.64195
2.64549
2.64835
2.6521
2.65788
2.66223
2.66615
2.66978
2.6721
2.67615
2.68103
2.68825
2.69317
2.6974
2.70161
2.70576
2.71018
2.71274
2.71874
2.72397
2.73448
2.74159
2.76172
2.75073
2.60576
1.31768
1.20396
1.19137
1.1901
1.18806
1.18904
1.18618
1.16074
1.12189
0.920246
0.726581
0.491254
0.405392
0.417707
0.431595
0.437793
0.443005
0.443817
0.443503
0.441906
0.44038
0.438932
0.437177
0.435843
0.43708
0.44002
0.443717
0.443136
0.443626
0.446096
0.446844
0.442806
0.442209
0.443264
0.441912
0.442122
0.441383
0.441779
0.440858
0.439056
0.43839
0.438865
0.441264
0.444112
0.447348
0.451251
0.453769
0.458355
0.465982
0.475063
0.475858
0.469078
0.453566
0.431798
0.408366
0.384366
0.358466
0.332298
0.316553
0.307473
0.303318
0.298316
0.293749
0.286039
0.276178
0.260193
0.241494
0.222356
0.232163
0.253539
0.35318
2.60195
2.60107
2.60143
2.6018
2.60229
2.6029
2.60369
2.60448
2.60547
2.60675
2.608
2.6094
2.61129
2.61312
2.6149
2.61735
2.61987
2.62225
2.62495
2.62825
2.63128
2.63427
2.6383
2.64216
2.64586
2.64855
2.65222
2.65822
2.66314
2.66728
2.67129
2.67339
2.67735
2.68152
2.6897
2.69504
2.6996
2.70367
2.70731
2.71079
2.71152
2.71359
2.71395
2.71583
2.70598
2.70217
2.62062
1.71072
1.20214
1.18605
1.18753
1.18797
1.18743
1.18036
1.16975
1.10067
1.01233
0.698365
0.512865
0.404449
0.417932
0.43375
0.450087
0.459916
0.465431
0.466967
0.465517
0.465133
0.46276
0.460507
0.458858
0.457164
0.455593
0.457019
0.458624
0.462631
0.464372
0.465088
0.466812
0.463672
0.459032
0.457521
0.454483
0.453384
0.451959
0.451862
0.451034
0.448858
0.448211
0.447974
0.449355
0.450662
0.451962
0.452987
0.455705
0.457249
0.461126
0.467591
0.469478
0.464268
0.451148
0.432761
0.412598
0.39192
0.369344
0.343835
0.326418
0.316363
0.312551
0.307276
0.303214
0.296172
0.287261
0.272023
0.254163
0.235127
0.245271
0.265447
0.364497
2.6019
2.60104
2.60141
2.60177
2.60226
2.60282
2.60359
2.60446
2.60536
2.60663
2.60794
2.60929
2.61115
2.61301
2.61479
2.61711
2.61972
2.62222
2.62472
2.62804
2.63124
2.63431
2.63818
2.64223
2.64606
2.64892
2.65261
2.65814
2.66376
2.66825
2.6724
2.67502
2.67835
2.68245
2.68972
2.69633
2.7012
2.7055
2.70979
2.71452
2.71844
2.72323
2.73118
2.74436
2.76578
2.79396
2.83619
1.40184
1.19429
1.18067
1.1814
1.17797
1.17507
1.1513
1.11735
0.938777
0.758037
0.511511
0.403235
0.416221
0.433356
0.451091
0.463448
0.471323
0.476487
0.480448
0.480726
0.480871
0.479917
0.477799
0.476196
0.474885
0.473076
0.473149
0.473777
0.475192
0.478628
0.478441
0.481326
0.48235
0.479729
0.477026
0.473158
0.471248
0.468695
0.467377
0.465501
0.462105
0.459352
0.457032
0.456829
0.457192
0.458064
0.458201
0.457498
0.458255
0.45909
0.462612
0.464096
0.460045
0.449444
0.433822
0.416792
0.398972
0.379103
0.355258
0.336423
0.325345
0.321893
0.316106
0.312727
0.306207
0.2983
0.283764
0.266774
0.247786
0.258119
0.276936
0.375545
2.60187
2.60099
2.60136
2.60172
2.60221
2.60276
2.60351
2.60439
2.60526
2.6065
2.60785
2.60918
2.61094
2.61285
2.61469
2.61683
2.61955
2.62213
2.62459
2.62764
2.63114
2.63437
2.63799
2.64224
2.64615
2.64939
2.65293
2.6578
2.66402
2.66884
2.67308
2.67664
2.67933
2.68367
2.68941
2.69713
2.70223
2.70653
2.71009
2.71327
2.71555
2.71491
2.71584
2.70902
2.71345
2.65975
2.16363
1.23313
1.17227
1.16984
1.16753
1.16011
1.15083
1.09156
1.00809
0.71711
0.521939
0.410137
0.414975
0.437683
0.456375
0.471239
0.48051
0.487832
0.491269
0.494616
0.495713
0.495241
0.495152
0.493356
0.492144
0.491303
0.489691
0.488945
0.488583
0.488255
0.490307
0.490293
0.492651
0.494574
0.496764
0.495206
0.490859
0.486899
0.482329
0.479512
0.477077
0.473958
0.4715
0.468302
0.466876
0.46526
0.463801
0.462664
0.462014
0.460661
0.459612
0.460112
0.460793
0.456901
0.447654
0.434694
0.420849
0.405712
0.388317
0.366525
0.346822
0.334347
0.331145
0.324868
0.322388
0.316047
0.309264
0.295438
0.279352
0.26035
0.270676
0.287997
0.386211
2.60183
2.60097
2.60132
2.60166
2.60216
2.6027
2.60341
2.60432
2.6052
2.6063
2.60773
2.6091
2.61068
2.61265
2.61455
2.61656
2.61931
2.62194
2.62439
2.62722
2.63091
2.63433
2.63769
2.64193
2.64597
2.64988
2.65304
2.65716
2.66374
2.66898
2.67354
2.67786
2.68026
2.68451
2.68885
2.69716
2.70231
2.70641
2.70983
2.71283
2.716
2.7166
2.71839
2.71737
2.7291
2.69379
1.49372
1.14599
1.14018
1.14128
1.14201
1.12739
1.09461
0.950669
0.758443
0.522766
0.414061
0.41584
0.438113
0.456039
0.470491
0.482388
0.49043
0.49692
0.501314
0.504391
0.506552
0.506383
0.506699
0.505795
0.504949
0.504678
0.503771
0.502949
0.503171
0.501174
0.501803
0.501808
0.504023
0.504633
0.508081
0.510574
0.509604
0.505728
0.500672
0.496674
0.493224
0.489266
0.484684
0.47922
0.476349
0.473603
0.472262
0.470419
0.467232
0.463835
0.461906
0.460483
0.459754
0.455856
0.447369
0.436253
0.424703
0.411971
0.396904
0.377392
0.357668
0.3435
0.340201
0.333687
0.332158
0.325849
0.320039
0.307076
0.292021
0.272854
0.283186
0.29873
0.396281
2.60177
2.60092
2.60127
2.60161
2.6021
2.60264
2.60332
2.6042
2.60513
2.60613
2.60755
2.60898
2.61046
2.61241
2.61437
2.61632
2.61895
2.62163
2.62417
2.62684
2.63059
2.63414
2.63744
2.64125
2.64576
2.64995
2.65352
2.65726
2.6622
2.66865
2.67375
2.67844
2.68166
2.68515
2.68914
2.69703
2.70309
2.70787
2.71244
2.7182
2.72471
2.73452
2.74355
2.76441
2.78291
2.7738
1.30256
1.15082
1.13511
1.12787
1.12278
1.08353
0.998372
0.745406
0.539227
0.427935
0.420328
0.448431
0.467006
0.483802
0.494294
0.501594
0.50663
0.510173
0.513826
0.515575
0.518
0.517885
0.518162
0.517882
0.516629
0.516267
0.516352
0.515304
0.516088
0.514558
0.514017
0.513361
0.514705
0.515051
0.518058
0.520209
0.523736
0.52197
0.517281
0.511556
0.506622
0.502148
0.498149
0.492511
0.488713
0.484749
0.480693
0.476468
0.473121
0.469345
0.466164
0.463497
0.460436
0.455734
0.447516
0.438044
0.428601
0.417882
0.405005
0.387664
0.36894
0.352924
0.349026
0.342369
0.341908
0.335643
0.330513
0.318603
0.304669
0.285304
0.295617
0.309145
0.406165
2.60172
2.60088
2.60123
2.60155
2.60202
2.60258
2.60322
2.60406
2.60504
2.60601
2.60733
2.60881
2.61026
2.6121
2.61414
2.61608
2.61848
2.62125
2.62387
2.6265
2.63008
2.6337
2.63702
2.6405
2.64533
2.64964
2.65397
2.65692
2.66103
2.66723
2.67345
2.6785
2.68307
2.68597
2.69004
2.69472
2.70149
2.7047
2.70562
2.70509
2.70021
2.69237
2.67508
2.65604
2.56271
1.66321
1.11616
1.10113
1.11267
1.09876
1.07187
0.958973
0.757889
0.537357
0.424351
0.414952
0.442767
0.462031
0.479262
0.493991
0.505142
0.512542
0.518699
0.521713
0.52467
0.526228
0.52796
0.528737
0.528656
0.529232
0.528407
0.528129
0.528472
0.527299
0.527816
0.526747
0.526443
0.52482
0.525231
0.52547
0.528099
0.528794
0.53208
0.535136
0.534064
0.529214
0.52422
0.519109
0.513808
0.506182
0.500344
0.494608
0.490844
0.48677
0.482313
0.477002
0.470899
0.465767
0.462262
0.456593
0.448868
0.440371
0.432469
0.42357
0.412635
0.397296
0.380345
0.362835
0.357959
0.350926
0.351516
0.345404
0.340984
0.330177
0.317424
0.297855
0.308218
0.319498
0.415419
2.60166
2.60085
2.60118
2.60149
2.60193
2.60251
2.60312
2.60392
2.60489
2.60589
2.60707
2.60858
2.61007
2.61176
2.6138
2.61582
2.61799
2.62077
2.62348
2.6261
2.62944
2.63307
2.63639
2.63981
2.64458
2.64925
2.65357
2.65722
2.66039
2.66471
2.67251
2.67841
2.68356
2.68803
2.69108
2.69523
2.70038
2.70678
2.71154
2.71511
2.71944
2.72445
2.73401
2.74724
2.76571
1.3503
1.11366
1.10583
1.10374
1.07824
0.989887
0.770846
0.558105
0.443311
0.425789
0.457477
0.476047
0.493233
0.504148
0.512341
0.519528
0.524597
0.529453
0.532642
0.535263
0.536928
0.537883
0.538936
0.538836
0.539348
0.539276
0.539002
0.539304
0.538445
0.538957
0.538027
0.538149
0.536845
0.536474
0.535983
0.537706
0.538016
0.540656
0.543111
0.546725
0.543991
0.539104
0.533231
0.527058
0.521182
0.514989
0.508178
0.503433
0.497082
0.490275
0.483346
0.477067
0.470688
0.465968
0.459179
0.451209
0.443099
0.436551
0.42925
0.420058
0.406582
0.391638
0.373185
0.367123
0.359504
0.360923
0.355107
0.351399
0.341657
0.33012
0.31052
0.320443
0.329936
0.424872
2.6016
2.6008
2.60112
2.60143
2.60185
2.60241
2.60305
2.60376
2.60471
2.60577
2.60684
2.60825
2.60983
2.61144
2.6134
2.61545
2.61751
2.62017
2.62294
2.62561
2.62866
2.63226
2.63557
2.63899
2.64347
2.64846
2.65283
2.65709
2.65967
2.66392
2.66955
2.67748
2.68369
2.68905
2.69398
2.69689
2.70093
2.70474
2.7114
2.71432
2.71503
2.71132
2.71156
2.65159
2.17314
1.19621
1.11995
1.11501
1.08282
0.997156
0.792912
0.566411
0.452536
0.42609
0.461866
0.482521
0.500032
0.514468
0.524017
0.530903
0.53517
0.538381
0.541427
0.544112
0.545809
0.547806
0.548057
0.549134
0.549118
0.549531
0.549896
0.549841
0.550082
0.549266
0.549612
0.548739
0.549087
0.548006
0.54799
0.54646
0.547342
0.547539
0.549775
0.550554
0.554587
0.556465
0.554991
0.549742
0.544051
0.537703
0.528651
0.520134
0.513389
0.508035
0.501779
0.494186
0.486552
0.478192
0.470953
0.462759
0.45441
0.446842
0.441103
0.435083
0.427443
0.415672
0.402378
0.383959
0.376844
0.368248
0.370264
0.364801
0.361945
0.353092
0.342831
0.323314
0.332634
0.340489
0.433777
2.60154
2.60074
2.60106
2.60134
2.60175
2.60229
2.60294
2.6036
2.60452
2.60559
2.60666
2.60789
2.60947
2.61114
2.61299
2.61496
2.61698
2.61945
2.62222
2.62496
2.62779
2.63125
2.63458
2.63788
2.64201
2.64723
2.65167
2.65596
2.65948
2.66275
2.66715
2.6754