/*--------------------------------*- C++ -*----------------------------------*\
| =========                 |                                                 |
| \\      /  F ield         | OpenFOAM: The Open Source CFD Toolbox           |
|  \\    /   O peration     | Version:  2.2.x                                 |
|   \\  /    A nd           | Web:      www.OpenFOAM.org                      |
|    \\/     M anipulation  |                                                 |
\*---------------------------------------------------------------------------*/
FoamFile
{
    version     2.0;
    format      ascii;
    class       surfaceScalarField;
    location    "2.2";
    object      cfmax;
}
// * * * * * * * * * * * * * * * * * * * * * * * * * * * * * * * * * * * * * //

dimensions      [0 3 -1 0 0 0 0];

internalField   nonuniform List<scalar> 
28084
(
0.00103347
0.00102899
0.00102514
0.0010219
0.00101925
0.00101715
0.00101556
0.00101446
0.0010138
0.00101356
0.00101369
0.00101415
0.00101492
0.00101594
0.00101719
0.00101863
0.00102022
0.00102188
0.000945663
0.000775848
0.000753669
0.000751886
0.000750404
0.000748943
0.000747334
0.000745572
0.00074362
0.000741463
0.000739638
0.000737982
0.000736386
0.000734795
0.000733177
0.000731515
0.00072981
0.000728049
0.000726254
0.000724393
0.000722476
0.000720499
0.000718468
0.000716378
0.000714237
0.000712019
0.000709733
0.000717309
0.000725176
0.000733299
0.000741622
0.000750102
0.00075869
0.00076735
0.000776033
0.000784695
0.000793285
0.000801757
0.00081006
0.000818148
0.000825975
0.000833495
0.000840664
0.000847439
0.000853785
0.000859669
0.000865062
0.000869931
0.000874239
0.000877954
0.000881047
0.000883488
0.000885252
0.000886318
0.000886678
0.000886325
0.000885258
0.000883475
0.00088098
0.000877788
0.000873915
0.000869385
0.000864224
0.00085847
0.00085216
0.000845338
0.000838054
0.000830366
0.000822343
0.000814057
0.000805582
0.000796996
0.000788373
0.000779808
0.000771371
0.000763135
0.00075519
0.000747633
0.00074056
0.000734067
0.000728281
0.000723254
0.000719009
0.000715584
0.000712986
0.00071139
0.000711081
0.00071218
0.000714736
0.000718779
0.000724338
0.000731369
0.000739776
0.000749469
0.000760625
0.000773463
0.000787985
0.000804174
0.000821906
0.000841695
0.00144695
0.00144445
0.00103834
0.00143891
0.00103701
0.00143036
0.00103628
0.00141888
0.00103613
0.00140457
0.00103652
0.00138752
0.00103742
0.00136789
0.00103881
0.00134583
0.00104065
0.00132151
0.0010429
0.00129529
0.00104552
0.00126748
0.00104847
0.00123793
0.00105172
0.00120683
0.00105522
0.0011744
0.00105893
0.00114085
0.00106282
0.00110637
0.00106683
0.00107116
0.00107094
0.00103306
0.00107511
0.00156428
0.000996351
0.00166138
0.000819447
0.00160344
0.00079772
0.00154435
0.000797456
0.00148514
0.000797463
0.00142593
0.000797389
0.0013668
0.000797063
0.00130796
0.000796478
0.00124962
0.000795619
0.00119261
0.000794469
0.0011375
0.000793613
0.00108408
0.000792879
0.00103227
0.000792158
0.000982045
0.000791388
0.000933451
0.000790541
0.000886488
0.000789595
0.000841231
0.000788555
0.000797668
0.000787405
0.000755876
0.000786176
0.000715793
0.000784834
0.000677446
0.000783394
0.000640755
0.000781852
0.000605736
0.000780217
0.000572298
0.000778485
0.000540465
0.000776663
0.000510134
0.000774727
0.00051004
0.000772683
0.000510403
0.000779687
0.000510837
0.000786957
0.000511346
0.000794459
0.000511929
0.000802138
0.000512586
0.000809949
0.000513313
0.000817847
0.000514109
0.000825793
0.000514973
0.000833743
0.000515907
0.000841651
0.00051691
0.000849469
0.000517984
0.000857148
0.000519129
0.000864641
0.000520346
0.000871902
0.000521637
0.000878885
0.000523005
0.000885547
0.00052445
0.000891844
0.000525974
0.000897733
0.000527576
0.000903179
0.000529381
0.000908153
0.000531491
0.000912625
0.000533698
0.000916563
0.000535999
0.000919931
0.000538397
0.0009227
0.000540894
0.000924841
0.000543491
0.000926327
0.000546189
0.000927135
0.000548992
0.000927243
0.000551898
0.000926645
0.000554907
0.000925336
0.000558017
0.00092332
0.000561223
0.0009206
0.00056452
0.000917183
0.000567907
0.00091308
0.00057138
0.000908308
0.000574939
0.000902886
0.000578582
0.000896838
0.000582308
0.000890195
0.00058612
0.000882994
0.000590017
0.000875283
0.000593994
0.000867114
0.000598048
0.000858551
0.000602179
0.000849665
0.000606388
0.000840531
0.000610674
0.000831226
0.000615043
0.000821826
0.000619515
0.000812409
0.00062411
0.000803068
0.000628821
0.000793872
0.000633632
0.00078489
0.000638532
0.000776208
0.000643512
0.000767927
0.000648582
0.000760134
0.000653787
0.000752915
0.000659174
0.000746398
0.000664732
0.000740631
0.000670448
0.000735649
0.000676275
0.000731511
0.00068216
0.000728242
0.00068822
0.000726033
0.000694534
0.000725158
0.000701056
0.000725703
0.000707731
0.000727655
0.000714564
0.00073101
0.000721545
0.000735795
0.000728629
0.000741982
0.000735747
0.000749497
0.000742945
0.00075827
0.000750418
0.000768474
0.00075821
0.000780297
0.000766265
0.000793704
0.000774506
0.000808667
0.000782617
0.000825118
0.000791387
0.000843287
0.00144822
0.00144528
0.00104484
0.00143931
0.00104663
0.00143035
0.00104898
0.00141848
0.00105187
0.00140379
0.00105526
0.0013864
0.00105914
0.00136751
0.00106347
0.00134639
0.00106821
0.00132293
0.00107333
0.00129731
0.00107879
0.00126971
0.00108454
0.00124035
0.00109054
0.00120941
0.00109674
0.00117711
0.00110311
0.00114365
0.0011096
0.00110924
0.00111616
0.00107408
0.00112276
0.00103599
0.00112941
0.00156448
0.00104821
0.00166282
0.000863584
0.00160526
0.000842103
0.00154614
0.000843283
0.00148685
0.00084472
0.00142754
0.000845984
0.00136838
0.000846888
0.00130952
0.00084744
0.00125113
0.00084765
0.0011941
0.000847454
0.00113899
0.000847503
0.00108555
0.000847636
0.00103376
0.000847739
0.000983511
0.000847746
0.000934929
0.000847628
0.000887935
0.000847363
0.00084268
0.000846952
0.00079908
0.000846383
0.000757296
0.00084569
0.000717184
0.000844839
0.000678847
0.000843851
0.000642129
0.000842723
0.00060712
0.000841467
0.000573653
0.00084008
0.000541831
0.000838565
0.000511475
0.000836901
0.000511507
0.000835092
0.000511924
0.000841494
0.000512399
0.000848135
0.000512933
0.000854984
0.000513526
0.000861984
0.000514179
0.000869093
0.000514887
0.000876265
0.000515648
0.000883464
0.000516466
0.000890647
0.000517339
0.000897768
0.000518267
0.000904778
0.000519253
0.00091163
0.000520296
0.000918276
0.000521398
0.00092467
0.00052256
0.000930769
0.000523785
0.000936531
0.000525076
0.000941911
0.000526435
0.000946873
0.000527862
0.000951382
0.000529858
0.00095541
0.000532143
0.00095893
0.000534529
0.000961911
0.000537018
0.000964317
0.000539609
0.000966121
0.000542306
0.000967296
0.000545107
0.000967816
0.000548016
0.000967659
0.000551032
0.000966807
0.000554155
0.000965257
0.000557376
0.000963002
0.000560695
0.00096005
0.000564109
0.000956407
0.000567611
0.000952086
0.000571197
0.000947098
0.000574865
0.000941459
0.000578613
0.000935189
0.000582438
0.000928311
0.000586337
0.000920855
0.000590309
0.00091286
0.000594345
0.000904369
0.000598438
0.000895432
0.000602581
0.000886109
0.000606771
0.000876467
0.000611013
0.000866577
0.000615313
0.000856508
0.000619684
0.000846335
0.000624155
0.000836131
0.000628753
0.000826001
0.000633463
0.000816024
0.000638255
0.000806279
0.000643112
0.000796854
0.000648035
0.000787845
0.000653048
0.000779332
0.000658215
0.000771395
0.000663596
0.000764161
0.000669184
0.000757683
0.000674949
0.000752002
0.000680836
0.000747181
0.000686771
0.000743242
0.000692861
0.000740377
0.000699207
0.000738846
0.000705784
0.000738711
0.000712563
0.000739937
0.000719544
0.000742511
0.000726752
0.000746436
0.000734163
0.000751697
0.000741716
0.000758247
0.000749461
0.000766054
0.000757609
0.000775328
0.000766177
0.000786261
0.000775067
0.000798777
0.000784233
0.000812777
0.000793166
0.000828084
0.000803244
0.000844719
0.00144723
0.00144388
0.00105298
0.0014375
0.00105784
0.00142816
0.00106322
0.00141756
0.00106911
0.00140475
0.00107547
0.00138914
0.00108228
0.00137083
0.00108951
0.00134999
0.00109712
0.00132678
0.00110507
0.00130137
0.00111333
0.00127395
0.00112183
0.00124473
0.00113055
0.00121392
0.00113943
0.0011817
0.00114842
0.0011483
0.00115748
0.00111392
0.00116655
0.00107876
0.00117561
0.00104023
0.00118471
0.0015656
0.00110091
0.00166416
0.000908638
0.0016067
0.000887286
0.00154758
0.000889849
0.0014883
0.000892668
0.00142901
0.000895293
0.00136995
0.000897472
0.00131117
0.000899194
0.00125288
0.000900514
0.00119583
0.000901273
0.00114072
0.00090221
0.00108726
0.000903183
0.00103549
0.000904082
0.000985228
0.000904835
0.000936663
0.000905421
0.00088965
0.000905809
0.000844403
0.000906001
0.000800775
0.000905985
0.000758996
0.000905798
0.000718853
0.000905409
0.000680518
0.000904842
0.00064377
0.000904095
0.000608761
0.000903184
0.000575269
0.000902107
0.000543447
0.000900866
0.00051307
0.000899444
0.000512609
0.000897843
0.000513079
0.000903628
0.000513591
0.000909626
0.000514147
0.000915808
0.000514748
0.000922118
0.000515394
0.000928512
0.000516083
0.000934944
0.000516811
0.00094138
0.000517579
0.000947775
0.000518389
0.000954086
0.00051924
0.000960263
0.000520134
0.00096626
0.00052107
0.000972029
0.000522051
0.000977525
0.000523078
0.000982708
0.000524156
0.000987538
0.000525287
0.000991975
0.000526476
0.000995982
0.00052864
0.00099953
0.00053098
0.00100259
0.000533427
0.00100514
0.000535982
0.00100715
0.000538645
0.00100858
0.000541418
0.00100942
0.000544301
0.00100962
0.000547295
0.00100917
0.000550402
0.00100806
0.000553621
0.00100626
0.000556948
0.00100377
0.000560373
0.0010006
0.000563888
0.000996746
0.000567491
0.000992214
0.000571179
0.000987012
0.000574948
0.000981155
0.000578794
0.00097466
0.000582714
0.000967547
0.000586704
0.000959842
0.000590759
0.000951575
0.000594874
0.000942783
0.000599041
0.000933506
0.000603246
0.000923796
0.000607478
0.000913708
0.000611739
0.000903306
0.000616034
0.000892655
0.000620369
0.000881824
0.000624761
0.000870885
0.000629239
0.000859912
0.000633831
0.000849013
0.000638521
0.000838269
0.000643271
0.000827759
0.000648063
0.000817575
0.000652912
0.000807811
0.00065786
0.000798545
0.00066298
0.00078986
0.000668339
0.000781884
0.000673931
0.000774675
0.00067972
0.000768275
0.000685639
0.00076275
0.000691598
0.000758117
0.000697716
0.000754571
0.000704111
0.000752356
0.000710781
0.000751518
0.000717709
0.000752007
0.000724915
0.000753807
0.000732424
0.000756922
0.000740206
0.000761341
0.000748199
0.00076702
0.000756476
0.000773923
0.000765284
0.000782263
0.00077468
0.00079221
0.000784544
0.000803665
0.000794866
0.000816538
0.000805126
0.000830647
0.000816575
0.000845978
0.00144401
0.00144151
0.00106275
0.00143809
0.00107063
0.00143159
0.001079
0.00142207
0.00108783
0.00140959
0.00109711
0.00139428
0.00110681
0.00137625
0.0011169
0.00135566
0.00112734
0.00133266
0.00113808
0.00130744
0.00114909
0.00128018
0.00116032
0.00125108
0.00117171
0.00122034
0.00118322
0.00118818
0.00119479
0.0011548
0.00120639
0.0011204
0.00121795
0.0010852
0.00122942
0.00104639
0.00124093
0.00156624
0.00115449
0.00166519
0.000954438
0.00160775
0.000933168
0.0015486
0.000937033
0.00148934
0.000941142
0.00143011
0.000945032
0.00137119
0.000948418
0.00131251
0.000951264
0.00125436
0.00095366
0.00119733
0.000955374
0.00114225
0.000957198
0.00108879
0.000959021
0.00103705
0.000960729
0.000986787
0.000962239
0.000938254
0.000963536
0.00089124
0.000964581
0.00084602
0.000965382
0.000802381
0.000965926
0.000760623
0.000966256
0.000720463
0.000966341
0.000682142
0.00096621
0.000645376
0.000965858
0.000610376
0.000965305
0.000576868
0.000964546
0.000545054
0.000963586
0.000514661
0.000962404
0.000513719
0.000961008
0.000514236
0.000966177
0.000514781
0.00097154
0.000515354
0.000977061
0.000515957
0.000982688
0.000516589
0.000988374
0.00051725
0.000994076
0.000517934
0.000999757
0.000518644
0.00100538
0.00051938
0.00101089
0.000520143
0.00101624
0.000520933
0.00102139
0.000521752
0.00102629
0.000522603
0.0010309
0.000523487
0.00103518
0.00052441
0.00103909
0.000525456
0.0010426
0.000527709
0.00104566
0.000530082
0.00104826
0.000532571
0.00105036
0.000535174
0.00105195
0.00053789
0.00105299
0.000540721
0.00105345
0.000543667
0.00105331
0.000546728
0.00105253
0.000549903
0.00105111
0.000553195
0.00104901
0.000556601
0.00104624
0.000560116
0.00104278
0.000563729
0.00103865
0.000567433
0.00103384
0.000571225
0.00102836
0.000575098
0.00102222
0.000579049
0.00101544
0.000583073
0.00100803
0.000587167
0.00100003
0.000591323
0.000991453
0.000595537
0.00098233
0.000599803
0.000972702
0.000604108
0.000962607
0.000608431
0.000952096
0.000612764
0.000941222
0.000617105
0.000930045
0.000621461
0.000918628
0.000625841
0.000907038
0.000630261
0.000895343
0.000634752
0.000883618
0.000639342
0.000871974
0.000644007
0.000860484
0.000648707
0.000849229
0.000653425
0.0008383
0.000658191
0.000827786
0.00066306
0.000817765
0.000668117
0.000808324
0.000673432
0.00079959
0.000678998
0.000791626
0.000684778
0.000784476
0.000690696
0.000778208
0.000696655
0.000772833
0.000702793
0.000768556
0.000709246
0.000765604
0.000716029
0.000764012
0.000723133
0.000763713
0.00073059
0.000764704
0.000738423
0.000766978
0.000746595
0.000770535
0.000755054
0.000775329
0.000763902
0.000781319
0.000773432
0.000788733
0.000783737
0.000797737
0.000794631
0.000808225
0.000806147
0.000820049
0.000817826
0.000833021
0.000830876
0.000847053
0.00144709
0.00144715
0.00107416
0.00144408
0.00108501
0.00143792
0.0010963
0.00142871
0.00110804
0.00141655
0.00112019
0.00140151
0.00113272
0.00138374
0.00114562
0.00136337
0.00115883
0.00134057
0.00117232
0.0013155
0.00118604
0.00128837
0.00119994
0.00125935
0.00121397
0.00122867
0.00122807
0.00119652
0.00124218
0.00116312
0.00125627
0.00112866
0.00127027
0.00109337
0.00128413
0.00105423
0.001298
0.00156627
0.00120897
0.00166594
0.00100091
0.00160852
0.000979665
0.00154934
0.000984781
0.0014901
0.00099015
0.00143093
0.000995277
0.00137217
0.000999853
0.00131362
0.0010038
0.00125563
0.00100724
0.00119865
0.00100989
0.00114363
0.00101259
0.0010902
0.00101525
0.00103851
0.00101775
0.000988259
0.00101999
0.000939776
0.00102199
0.000892774
0.00102367
0.000847596
0.00102508
0.000803956
0.00102618
0.000762228
0.00102704
0.000722061
0.0010276
0.000683762
0.00102792
0.000646989
0.00102798
0.000612007
0.0010278
0.000578492
0.00102737
0.000546698
0.0010267
0.000516299
0.00102578
0.000514701
0.00102461
0.000515259
0.00102918
0.00051583
0.00103392
0.000516413
0.0010388
0.00051701
0.00104376
0.000517621
0.00104875
0.000518245
0.00105373
0.000518876
0.00105868
0.000519516
0.00106353
0.000520168
0.00106825
0.000520832
0.0010728
0.000521508
0.00107713
0.0005222
0.00108118
0.000522911
0.00108493
0.000523646
0.00108833
0.000524844
0.00109135
0.000527095
0.00109395
0.000529479
0.00109611
0.00053199
0.00109779
0.000534624
0.00109896
0.000537378
0.00109961
0.000540254
0.00109971
0.000543252
0.00109921
0.000546371
0.00109811
0.000549608
0.00109636
0.000552966
0.00109395
0.000556443
0.00109087
0.000560035
0.0010871
0.000563736
0.00108266
0.000567534
0.00107753
0.000571421
0.00107172
0.000575393
0.00106524
0.000579445
0.00105811
0.000583571
0.00105034
0.000587766
0.00104196
0.000592027
0.00103299
0.000596346
0.00102346
0.000600714
0.0010134
0.000605126
0.00100285
0.000609565
0.000991859
0.000614006
0.000980467
0.000618446
0.000968732
0.000622872
0.000956718
0.000627293
0.000944488
0.000631722
0.000932103
0.000636175
0.000919627
0.000640683
0.000907139
0.000645271
0.000894744
0.00064991
0.000882513
0.000654555
0.000870528
0.000659196
0.000858875
0.000663873
0.00084764
0.000668655
0.000836896
0.000673638
0.000826734
0.000678889
0.000817279
0.000684405
0.000808594
0.000690148
0.000800722
0.00069604
0.000793732
0.000701979
0.000787625
0.00070813
0.000782625
0.000714644
0.000778939
0.00072155
0.000776592
0.000728841
0.000775504
0.000736562
0.000775683
0.000744726
0.000777116
0.000753299
0.000779808
0.000762238
0.000783708
0.000771685
0.000788768
0.00078197
0.00079524
0.000793213
0.00080327
0.000805224
0.000812734
0.000818031
0.000823464
0.000831339
0.000835271
0.000846111
0.000848049
0.00145458
0.00145496
0.00108721
0.00145222
0.00110097
0.00144638
0.00111514
0.00143747
0.00112971
0.00142559
0.00114467
0.00141082
0.00115999
0.00139328
0.00117564
0.00137311
0.00119158
0.00135047
0.00120776
0.00132554
0.00122414
0.0012985
0.00124066
0.00126954
0.00125727
0.00123887
0.00127391
0.0012067
0.00129053
0.00117324
0.00130706
0.00113868
0.00132345
0.00110326
0.00133965
0.00106364
0.00135585
0.0015656
0.00126433
0.00166644
0.00104796
0.00160902
0.00102664
0.00154983
0.00103298
0.00149062
0.00103958
0.00143154
0.0010459
0.00137296
0.00105164
0.00131454
0.00105667
0.00125672
0.0010611
0.00119981
0.00106468
0.00114488
0.00106826
0.00109149
0.00107175
0.00103988
0.00107503
0.000989653
0.001078
0.000941233
0.00108068
0.000894248
0.00108299
0.000849118
0.00108498
0.000805484
0.00108663
0.000763788
0.00108798
0.00072362
0.00108901
0.000685347
0.00108974
0.000648574
0.00109018
0.000613619
0.00109035
0.000580104
0.00109024
0.000548335
0.00108986
0.00051794
0.00108919
0.000515544
0.00108823
0.000516137
0.0010922
0.000516729
0.00109632
0.000517316
0.00110056
0.000517901
0.00110486
0.000518485
0.00110918
0.000519065
0.00111347
0.000519637
0.00111769
0.000520202
0.00112182
0.000520762
0.0011258
0.000521319
0.00112959
0.000521875
0.00113314
0.000522433
0.00113642
0.000523
0.00113937
0.000524528
0.00114196
0.000526762
0.00114416
0.000529136
0.00114592
0.000531649
0.00114722
0.000534297
0.00114802
0.000537074
0.0011483
0.000539983
0.00114804
0.000543022
0.00114721
0.000546191
0.00114577
0.000549488
0.0011437
0.000552911
0.00114097
0.00055646
0.00113757
0.000560133
0.00113348
0.000563925
0.00112869
0.000567827
0.00112322
0.000571829
0.00111707
0.000575922
0.00111023
0.000580097
0.00110272
0.000584346
0.00109457
0.000588661
0.00108578
0.000593036
0.0010764
0.000597468
0.00106643
0.000601947
0.00105592
0.000606466
0.0010449
0.000611015
0.0010334
0.000615578
0.00102148
0.000620124
0.00100917
0.000624639
0.00099654
0.000629123
0.000983642
0.000633591
0.000970539
0.000638053
0.000957294
0.000642524
0.00094397
0.000647037
0.000930651
0.000651611
0.000917442
0.00065621
0.000904412
0.000660791
0.00089164
0.000665351
0.000879214
0.000669933
0.000867216
0.000674621
0.00085572
0.000679517
0.000844818
0.000684689
0.000834629
0.000690136
0.000825216
0.000695822
0.000816621
0.000701666
0.000808909
0.00070757
0.000802072
0.00071373
0.000796355
0.000720307
0.000791941
0.00072734
0.000788843
0.000734822
0.000786969
0.000742811
0.000786339
0.000751308
0.000786927
0.000760288
0.000788744
0.000769721
0.000791734
0.000779789
0.000795841
0.000790858
0.000801347
0.00080307
0.000808375
0.000816222
0.000816791
0.00083037
0.000826414
0.000845372
0.000837092
0.000861957
0.000848609
0.00146423
0.00146492
0.00110193
0.00146248
0.00111852
0.00145693
0.0011355
0.00144831
0.00115285
0.00143669
0.00117056
0.00142216
0.0011886
0.00140483
0.00120695
0.00138484
0.00122555
0.00136235
0.00124437
0.00133752
0.00126335
0.00131055
0.00128244
0.00128162
0.00130158
0.00125093
0.00132071
0.0012187
0.00133977
0.00118514
0.00135869
0.00115045
0.00137743
0.00111485
0.00139592
0.00107458
0.00141438
0.00156431
0.00132052
0.00166671
0.00109549
0.00160934
0.00107408
0.00155012
0.00108162
0.00149095
0.00108942
0.00143195
0.0010969
0.00137354
0.00110374
0.00131526
0.0011098
0.00125761
0.00111518
0.0012008
0.00111963
0.00114599
0.00112407
0.00109266
0.00112835
0.00104115
0.00113239
0.000990966
0.00113605
0.000942626
0.00113939
0.000895665
0.00114231
0.000850594
0.00114487
0.000806976
0.00114706
0.000765317
0.00114891
0.000725157
0.0011504
0.000686915
0.00115156
0.000650149
0.00115238
0.000615225
0.00115291
0.000581717
0.00115312
0.000549975
0.00115302
0.00051959
0.00115261
0.000516254
0.00115187
0.000516882
0.00115525
0.000517491
0.00115877
0.00051808
0.00116237
0.000518652
0.00116602
0.000519206
0.00116967
0.000519739
0.00117326
0.000520248
0.00117678
0.000520735
0.00118018
0.000521202
0.00118341
0.00052165
0.00118643
0.000522082
0.0011892
0.000522505
0.00119167
0.000524455
0.00119381
0.000526659
0.00119557
0.000529014
0.00119692
0.000531517
0.00119783
0.000534167
0.00119826
0.000536962
0.00119818
0.000539897
0.00119758
0.000542971
0.00119642
0.000546185
0.00119468
0.000549537
0.00119233
0.000553029
0.00118934
0.000556653
0.00118571
0.000560404
0.0011814
0.00056428
0.0011764
0.000568278
0.00117071
0.000572388
0.00116433
0.000576598
0.00115727
0.000580896
0.00114952
0.000585273
0.0011411
0.000589717
0.00113203
0.000594221
0.00112232
0.000598777
0.00111199
0.000603383
0.00110109
0.000608028
0.00108962
0.000612702
0.00107764
0.000617394
0.00106518
0.000622084
0.00105229
0.000626742
0.00103901
0.000631347
0.00102541
0.000635904
0.00101154
0.000640431
0.000997451
0.000644932
0.000983225
0.000649422
0.00096893
0.000653936
0.000954663
0.000658486
0.000940525
0.000663028
0.000926595
0.000667523
0.000912947
0.000671971
0.000899668
0.000676428
0.000886838
0.00068099
0.000874522
0.000685769
0.000862815
0.000690831
0.000851833
0.000696179
0.000841632
0.000701782
0.000832256
0.000707555
0.000823767
0.000713408
0.000816148
0.000719573
0.000809672
0.000726212
0.000804495
0.000733373
0.000800615
0.000741048
0.000797933
0.000749306
0.000796482
0.000758142
0.00079622
0.000767537
0.000797162
0.000777479
0.000799247
0.00078819
0.000802422
0.000800064
0.000806999
0.000813254
0.000813071
0.000827531
0.000820484
0.00084307
0.000829058
0.000859921
0.000838675
0.000878049
0.000849054
0.00147602
0.00147699
0.00111832
0.00147483
0.00113767
0.00146956
0.00115738
0.0014612
0.00117744
0.00144983
0.00119783
0.00143551
0.00121853
0.00141838
0.00123951
0.00139855
0.00126071
0.00137618
0.0012821
0.00135143
0.00130363
0.00132449
0.00132522
0.00129555
0.00134683
0.00126482
0.00136839
0.0012325
0.00138984
0.0011988
0.00141111
0.00116393
0.00143214
0.00112811
0.00145287
0.00108725
0.00147351
0.00156383
0.00137743
0.00166681
0.00114339
0.00160947
0.00112186
0.00155026
0.00113062
0.00149111
0.00113962
0.00143219
0.00114824
0.00137396
0.00115614
0.00131583
0.00116317
0.00125836
0.00116944
0.00120167
0.00117473
0.001147
0.00118002
0.00109375
0.00118509
0.00104235
0.00118987
0.000992222
0.00119421
0.000943967
0.0011982
0.000897038
0.00120172
0.00085203
0.00120485
0.000808437
0.00120757
0.000766819
0.0012099
0.000726676
0.00121184
0.000688468
0.00121341
0.000651714
0.00121461
0.000616825
0.00121548
0.00058333
0.00121599
0.000551616
0.00121616
0.000521247
0.001216
0.000516826
0.00121547
0.000517483
0.00121824
0.000518106
0.00122113
0.000518694
0.00122408
0.000519247
0.00122705
0.000519767
0.00123
0.000520249
0.00123287
0.00052069
0.00123564
0.000521093
0.00123826
0.00052146
0.0012407
0.000521794
0.00124291
0.000522651
0.00124484
0.000524651
0.00124646
0.000526809
0.00124773
0.000529127
0.00124862
0.000531603
0.00124908
0.000534236
0.00124909
0.000537026
0.00124861
0.000539968
0.00124761
0.000543061
0.00124607
0.000546302
0.00124398
0.000549691
0.00124129
0.000553227
0.00123799
0.000556911
0.00123406
0.000560737
0.00122948
0.000564697
0.00122423
0.000568788
0.00121829
0.000573006
0.00121167
0.000577341
0.00120437
0.000581779
0.00119638
0.000586307
0.00118771
0.000590913
0.00117838
0.000595582
0.0011684
0.000600306
0.00115779
0.000605076
0.00114658
0.000609884
0.00113479
0.000614716
0.00112246
0.000619563
0.00110962
0.000624413
0.00109631
0.000629243
0.00108258
0.000634022
0.00106847
0.000638728
0.00105404
0.000643366
0.00103935
0.00064794
0.00102446
0.000652461
0.00100942
0.000656948
0.000994312
0.000661438
0.000979222
0.000665932
0.00096426
0.00067039
0.000949494
0.000674771
0.000934999
0.000679085
0.000920859
0.0006834
0.000907152
0.000687823
0.000893949
0.000692465
0.000881359
0.000697393
0.000869501
0.000702612
0.000858432
0.000708103
0.000848198
0.000713775
0.000838862
0.000719554
0.000830402
0.000725703
0.000823124
0.000732389
0.00081715
0.000739659
0.000812453
0.000747515
0.000808941
0.000756031
0.000806648
0.000765196
0.000805515
0.000775003
0.000805566
0.000785454
0.000806735
0.000796811
0.00080897
0.000809489
0.000812615
0.000823637
0.000817713
0.000839018
0.000824074
0.000856006
0.000831549
0.00087469
0.00084014
0.000894165
0.000849429
0.0014899
0.00149113
0.00113639
0.00148923
0.00115843
0.00148421
0.0011808
0.0014761
0.00120349
0.00146495
0.00122649
0.00145084
0.00124978
0.00143388
0.00127331
0.00141419
0.00129705
0.00139191
0.00132094
0.00136722
0.00134494
0.0013403
0.00136898
0.00131132
0.001393
0.00128051
0.00141692
0.00124806
0.00144069
0.00121418
0.00146424
0.0011791
0.0014875
0.00114302
0.00151041
0.00110142
0.00153317
0.00156616
0.00143508
0.00166673
0.00119163
0.00160948
0.00116997
0.00155026
0.00117995
0.00149114
0.00119014
0.0014323
0.00119985
0.00137426
0.00120875
0.00131629
0.00121672
0.00125897
0.00122378
0.00120242
0.00122992
0.00114793
0.00123603
0.00109478
0.00124185
0.0010435
0.00124734
0.000993431
0.00125233
0.000945265
0.00125695
0.000898372
0.00126104
0.000853432
0.00126472
0.000809871
0.00126795
0.000768299
0.00127075
0.000728181
0.00127312
0.000690011
0.00127508
0.000653278
0.00127663
0.000618424
0.00127782
0.00058495
0.00127862
0.000553266
0.00127904
0.000522919
0.00127909
0.000517232
0.00127874
0.000517911
0.00128089
0.00051854
0.00128313
0.000519118
0.0012854
0.000519645
0.00128768
0.00052012
0.00128991
0.000520541
0.00129205
0.000520905
0.00129406
0.000521216
0.00129591
0.000521475
0.00129755
0.000523225
0.00129896
0.000525153
0.00130007
0.00052725
0.00130087
0.000529512
0.0013013
0.000531943
0.00130134
0.000534541
0.00130094
0.000537306
0.00130009
0.000540238
0.00129873
0.000543334
0.00129685
0.000546589
0.00129442
0.000550001
0.00129142
0.000553568
0.00128782
0.000557289
0.00128359
0.000561165
0.00127871
0.000565189
0.00127318
0.000569358
0.00126697
0.000573668
0.00126006
0.000578111
0.00125247
0.000582677
0.0012442
0.000587347
0.00123523
0.000592108
0.00122559
0.000596944
0.00121529
0.000601839
0.00120435
0.000606783
0.00119279
0.000611766
0.00118064
0.00061678
0.00116792
0.000621812
0.00115467
0.000626848
0.00114093
0.000631875
0.00112673
0.000636865
0.00111212
0.000641781
0.00109716
0.0006466
0.00108189
0.000651332
0.00106637
0.000655978
0.00105066
0.000660546
0.00103483
0.000665051
0.00101894
0.00066953
0.00100308
0.00067398
0.000987371
0.00067836
0.000971861
0.000682633
0.000956625
0.000686815
0.000941742
0.00069098
0.000927287
0.000695231
0.000913329
0.000699697
0.000899966
0.000704451
0.000887315
0.0007095
0.000875442
0.000714832
0.000864398
0.00072036
0.000854231
0.000726032
0.00084494
0.000732142
0.000836839
0.000738853
0.000830038
0.000746206
0.00082448
0.000754226
0.000820104
0.000762983
0.000816927
0.000772461
0.000814878
0.000782668
0.00081399
0.000793621
0.000814192
0.00080562
0.00081544
0.000819095
0.000818102
0.000834165
0.000822159
0.000850704
0.000827415
0.000869092
0.000833778
0.000889516
0.000841314
0.000910205
0.000849667
0.00150583
0.00150729
0.00115617
0.00150564
0.00118081
0.00150086
0.00120576
0.00149298
0.001231
0.00148204
0.00125653
0.00146811
0.00128232
0.0014513
0.00130833
0.00143173
0.00133453
0.00140953
0.00136085
0.00138487
0.00138725
0.00135793
0.00141366
0.0013289
0.00144001
0.00129797
0.00146624
0.00126536
0.00149227
0.00123127
0.00151803
0.00119593
0.00154346
0.00115955
0.00156848
0.00111704
0.00159328
0.00156892
0.00149343
0.00166651
0.00124016
0.00160935
0.00121836
0.00155013
0.00122958
0.00149107
0.00124093
0.00143233
0.00125169
0.00137445
0.00126152
0.00131664
0.00127034
0.00125947
0.00127812
0.00120309
0.00128507
0.00114881
0.00129199
0.00109578
0.00129855
0.00104463
0.00130474
0.000994616
0.00131037
0.000946538
0.00131559
0.000899691
0.00132025
0.000854817
0.00132445
0.000811298
0.00132817
0.000769775
0.00133142
0.000729691
0.00133422
0.000691564
0.00133656
0.000654858
0.00133846
0.000620043
0.00133997
0.000586595
0.00134105
0.000554945
0.00134172
0.000524624
0.001342
0.00051745
0.00134185
0.000518142
0.00134339
0.00051877
0.00134501
0.000519332
0.00134664
0.000519826
0.00134825
0.000520252
0.0013498
0.000520607
0.00135122
0.000520978
0.00135251
0.000522466
0.00135361
0.000524129
0.00135449
0.000525968
0.0013551
0.000527984
0.00135542
0.000530177
0.0013554
0.000532544
0.00135501
0.000535089
0.00135421
0.000537811
0.00135298
0.000540711
0.00135127
0.000543788
0.00134905
0.000547039
0.00134629
0.000550461
0.00134298
0.00055405
0.00133909
0.000557803
0.00133459
0.000561719
0.00132946
0.000565796
0.00132368
0.000570031
0.00131723
0.000574421
0.00131009
0.000578961
0.00130226
0.000583642
0.00129375
0.00058845
0.00128454
0.000593366
0.00127464
0.000598374
0.00126407
0.000603453
0.00125283
0.000608588
0.00124094
0.000613766
0.00122842
0.000618975
0.00121531
0.000624205
0.00120162
0.000629446
0.00118739
0.000634681
0.00117267
0.00063989
0.0011575
0.000645039
0.00114192
0.000650093
0.00112601
0.000655024
0.0011098
0.00065984
0.00109336
0.000664545
0.00107676
0.000669147
0.00106004
0.000673657
0.00104328
0.00067811
0.00102658
0.000682506
0.00101004
0.000686801
0.000993717
0.000690961
0.000977685
0.000695008
0.000962017
0.000699022
0.000946787
0.000703112
0.00093206
0.000707402
0.000917929
0.000711966
0.00090451
0.000716825
0.000891865
0.000721981
0.000880047
0.000727342
0.000869089
0.000732896
0.000859019
0.000738941
0.000850144
0.000745647
0.00084254
0.000753059
0.000836121
0.00076122
0.000830865
0.000770197
0.000826787
0.00077997
0.000823803
0.000790561
0.000821963
0.000802002
0.000821198
0.000814632
0.000821479
0.000828879
0.000823177
0.000844849
0.000826207
0.000862567
0.000830401
0.000882246
0.000835813
0.000904184
0.000842336
0.000925993
0.000849787
0.00152375
0.00152543
0.00117768
0.001524
0.00120483
0.00151945
0.00123226
0.00151178
0.00125996
0.00150104
0.00128793
0.00148728
0.00131614
0.00147061
0.00134456
0.00145113
0.00137313
0.00142899
0.00140181
0.00140435
0.00143053
0.00137736
0.00145923
0.00134824
0.00148785
0.00131717
0.0015163
0.00128436
0.00154451
0.00125003
0.00157241
0.00121439
0.00159993
0.00117767
0.001627
0.00113409
0.00165374
0.00157223
0.00155246
0.00166612
0.00128888
0.00160909
0.00126699
0.00154989
0.00127941
0.00149096
0.00129192