/*--------------------------------*- C++ -*----------------------------------*\
| =========                 |                                                 |
| \\      /  F ield         | OpenFOAM: The Open Source CFD Toolbox           |
|  \\    /   O peration     | Version:  2.2.x                                 |
|   \\  /    A nd           | Web:      www.OpenFOAM.org                      |
|    \\/     M anipulation  |                                                 |
\*---------------------------------------------------------------------------*/
FoamFile
{
    version     2.0;
    format      ascii;
    class       volVectorField;
    location    "2.2";
    object      U;
}
// * * * * * * * * * * * * * * * * * * * * * * * * * * * * * * * * * * * * * //

dimensions      [0 1 -1 0 0 0 0];

internalField   nonuniform List<vector> 
14161
(
(1.5 -2.61483e-16 3.24468e-23)
(1.5 -4.02309e-16 -8.55698e-23)
(1.5 -9.16911e-16 3.16387e-23)
(1.5 -5.1963e-16 3.1238e-23)
(1.5 2.54654e-16 1.13345e-22)
(1.5 8.42794e-17 -1.85373e-22)
(1.5 -4.18542e-16 2.00216e-22)
(1.5 4.41067e-17 6.19137e-23)
(1.5 1.23305e-16 1.43458e-22)
(1.5 -5.57402e-16 -1.56623e-27)
(1.5 -3.67578e-14 -3.22308e-24)
(1.5 1.64309e-12 1.33749e-24)
(1.5 -5.45229e-12 -3.908e-23)
(1.5 5.78329e-10 1.73585e-23)
(1.5 2.64713e-09 -8.12865e-23)
(1.5 -6.44917e-08 -8.35863e-23)
(1.5 -2.50592e-07 -1.52511e-22)
(1.5 -7.44039e-07 -1.81317e-22)
(1.50133 -0.000159681 -2.04321e-22)
(0.770044 0.00137628 -5.84312e-22)
(0.532548 0.00100564 -6.38377e-21)
(0.521502 0.000930644 6.45187e-21)
(0.513514 0.000976099 -1.02418e-20)
(0.505758 0.000991232 8.51233e-21)
(0.498303 0.00100499 -6.73887e-21)
(0.491107 0.00103261 3.96215e-21)
(0.484184 0.00104941 -6.16472e-21)
(0.477699 0.00106082 1.79939e-21)
(0.471466 0.00107746 -7.00926e-21)
(0.46557 0.00110418 3.43113e-21)
(0.45996 0.0011221 -5.74872e-21)
(0.4546 0.00115193 3.22151e-21)
(0.449482 0.00116913 -6.8699e-21)
(0.444589 0.00119729 1.19014e-21)
(0.43992 0.0012061 -7.79407e-21)
(0.435464 0.00122636 -1.40111e-22)
(0.431201 0.00122887 -8.07169e-21)
(0.427138 0.00125115 -9.34179e-22)
(0.423196 0.00125553 -7.43832e-21)
(0.419461 0.00127969 -9.20242e-22)
(0.415879 0.00128217 -6.76854e-21)
(0.412516 0.00130544 -7.00496e-22)
(0.409342 0.00130033 -6.61214e-21)
(0.40636 0.00132183 -8.2407e-22)
(0.403528 0.00131126 -6.39317e-21)
(0.400799 0.00132741 -1.6986e-21)
(0.398037 0.00134344 -3.86234e-21)
(0.395267 0.00136132 -2.09352e-21)
(0.392464 0.00137961 -8.13493e-22)
(0.389628 0.00139833 -4.46435e-22)
(0.386754 0.00141751 -8.59984e-22)
(0.383861 0.001438 1.33275e-21)
(0.380951 0.00145924 1.12473e-21)
(0.378024 0.0014807 2.65975e-21)
(0.375078 0.00150213 9.21472e-22)
(0.372106 0.00152384 2.14982e-21)
(0.369101 0.00154627 1.16294e-21)
(0.366059 0.00156968 2.08165e-21)
(0.362973 0.001595 1.14211e-21)
(0.35984 0.00162241 1.32386e-21)
(0.356656 0.00165101 1.19913e-21)
(0.353419 0.00168076 6.0313e-22)
(0.350133 0.00171134 1.40732e-21)
(0.346821 0.0017418 -2.84166e-21)
(0.34349 0.00177182 3.03429e-21)
(0.340146 0.00180133 -3.39172e-21)
(0.336782 0.00183098 1.57748e-21)
(0.333395 0.00186068 -3.19019e-21)
(0.329979 0.00189182 2.3932e-21)
(0.326524 0.00192576 -2.678e-21)
(0.323019 0.00196197 1.3386e-21)
(0.31945 0.00200004 -2.42896e-21)
(0.315805 0.00203982 3.02816e-21)
(0.312089 0.00208098 -1.20118e-21)
(0.308307 0.0021239 1.28821e-21)
(0.304456 0.00216961 1.21167e-21)
(0.300534 0.0022158 5.26182e-22)
(0.296539 0.00226023 1.38178e-21)
(0.292471 0.0023021 9.52921e-22)
(0.288327 0.00234127 1.93123e-21)
(0.284105 0.00237748 2.63948e-21)
(0.279803 0.00241068 2.24838e-21)
(0.275416 0.00244181 1.59484e-21)
(0.270942 0.00247262 3.00018e-21)
(0.266372 0.00250359 2.07825e-21)
(0.261705 0.00253114 4.45341e-21)
(0.256944 0.00255204 8.47967e-22)
(0.2521 0.00256797 4.36295e-21)
(0.247176 0.00258115 2.99887e-21)
(0.242173 0.0025903 -3.77198e-22)
(0.237087 0.00260252 6.5151e-21)
(0.2319 0.00262521 -8.5398e-22)
(0.226578 0.00266133 7.59556e-21)
(0.221098 0.00270571 -3.76699e-21)
(0.215445 0.00274934 1.44205e-20)
(0.209627 0.00278473 -4.71085e-21)
(0.203668 0.00281247 1.51448e-20)
(0.197572 0.00284468 -8.32911e-21)
(0.191315 0.00289739 1.60715e-20)
(0.184859 0.00298189 -1.11479e-20)
(0.178135 0.00310164 1.64469e-20)
(0.171063 0.0032742 -3.81779e-21)
(0.16359 0.00350043 1.82526e-20)
(0.15569 0.00372894 -1.29778e-20)
(0.147417 0.00392061 2.33988e-20)
(0.138871 0.00404443 -1.91066e-20)
(0.130152 0.00408278 3.64521e-20)
(0.121327 0.00407839 -5.09547e-20)
(0.112398 0.0041396 3.59496e-20)
(0.103312 0.00426065 -6.16639e-20)
(0.0939769 0.00443862 4.75531e-20)
(0.0842947 0.0046742 -7.5204e-20)
(0.0741907 0.00495108 6.18862e-20)
(0.0636447 0.00524843 -1.13024e-19)
(0.0526876 0.00553669 5.58876e-20)
(0.0413742 0.00580998 -1.02779e-19)
(0.0297748 0.00607228 1.29804e-19)
(0.017989 0.00613918 -4.51324e-19)
(0.00648943 0.00657443 4.91738e-19)
(1.5 -3.1208e-16 -5.71645e-23)
(1.5 -4.97031e-16 3.96717e-22)
(1.5 -8.40028e-16 3.90259e-22)
(1.5 -6.06737e-16 6.63462e-23)
(1.5 6.14814e-16 6.32777e-23)
(1.5 2.05524e-16 5.36346e-23)
(1.5 -3.57744e-16 9.09127e-24)
(1.5 2.24254e-16 4.79433e-24)
(1.5 3.37528e-16 9.42922e-23)
(1.5 -4.41273e-17 -2.14091e-24)
(1.5 -1.33212e-14 2.91979e-23)
(1.5 -9.35652e-13 -5.92697e-24)
(1.5 -4.38348e-11 6.07475e-23)
(1.5 4.91898e-10 -2.64883e-22)
(1.5 -2.49738e-09 -3.25517e-22)
(1.5 -1.19664e-07 -2.40329e-22)
(1.5 -2.48056e-07 -2.0824e-22)
(1.5 -1.18018e-06 -3.81808e-22)
(1.50129 -6.72267e-05 -3.2346e-22)
(0.768338 0.00187381 -2.21285e-21)
(0.5322 0.00246786 -8.44904e-21)
(0.521453 0.0028059 6.94533e-21)
(0.513714 0.00289328 -1.58577e-20)
(0.506199 0.00288846 6.8874e-21)
(0.498891 0.00286452 -1.0431e-20)
(0.49178 0.00290381 6.6579e-21)
(0.484895 0.00294673 -1.22711e-20)
(0.47843 0.00297674 3.02481e-21)
(0.472212 0.00302288 -1.53427e-20)
(0.46633 0.00310341 4.98133e-21)
(0.460733 0.00315336 -1.30408e-20)
(0.455388 0.00324363 2.71695e-21)
(0.450286 0.00328841 -1.19603e-20)
(0.445407 0.00337419 9.6116e-22)
(0.44075 0.00339805 -1.36995e-20)
(0.436302 0.00346618 2.59235e-23)
(0.43204 0.00347456 -1.31687e-20)
(0.427982 0.00355013 -1.66947e-21)
(0.424044 0.00356171 -1.1493e-20)
(0.420318 0.0036393 -1.65629e-21)
(0.416744 0.00364186 -1.00933e-20)
(0.413391 0.00371436 -1.86555e-21)
(0.410225 0.00369537 -9.07663e-21)
(0.40725 0.00376413 -2.03811e-21)
(0.404424 0.00373038 -8.95665e-21)
(0.401684 0.00379715 -2.48755e-21)
(0.398908 0.00386755 -1.12188e-20)
(0.39612 0.00394307 2.86053e-21)
(0.393297 0.00402193 -1.3019e-20)
(0.390438 0.00410242 -1.63178e-21)
(0.387539 0.00418478 -1.21866e-20)
(0.384618 0.00427009 -1.91948e-21)
(0.38168 0.00435608 -1.75135e-20)
(0.378725 0.00444165 -2.79746e-21)
(0.37575 0.0045265 -1.55519e-20)
(0.372748 0.00461179 -2.84064e-22)
(0.369715 0.00469822 -7.97569e-21)
(0.366644 0.00478702 1.45178e-21)
(0.36353 0.00487977 -8.01548e-21)
(0.36037 0.00497803 -1.32367e-21)
(0.357159 0.00507993 -1.22957e-20)
(0.353896 0.00518462 1.80532e-21)
(0.350585 0.0052913 -1.79101e-20)
(0.347245 0.00539784 7.1644e-21)
(0.343885 0.0055027 -1.57196e-20)
(0.340508 0.00560629 2.05397e-21)
(0.337108 0.005709 -7.25243e-21)
(0.333683 0.00581179 2.61189e-21)
(0.330227 0.00591748 -5.61738e-21)
(0.326732 0.00602908 -2.17981e-21)
(0.323187 0.00614562 -7.19509e-21)
(0.319577 0.00626676 -4.16159e-21)
(0.315891 0.00639119 -6.47873e-21)
(0.312133 0.00651718 -5.93625e-21)
(0.308312 0.00664246 -6.70966e-21)
(0.304432 0.00676919 -5.70052e-21)
(0.300492 0.00689439 -7.17409e-21)
(0.29649 0.00701423 -6.32608e-21)
(0.292421 0.00712782 -7.99705e-21)
(0.288281 0.00723577 -6.16391e-21)
(0.28406 0.00733819 -6.31922e-21)
(0.279748 0.00743526 -9.74427e-21)
(0.275338 0.00752814 -7.10335e-21)
(0.270822 0.00761787 -5.21227e-21)
(0.2662 0.00770188 -7.68542e-21)
(0.261474 0.00777141 -1.084e-20)
(0.256653 0.00781965 4.25673e-21)
(0.251749 0.00784839 -2.31816e-20)
(0.246772 0.00786281 1.24291e-20)
(0.241727 0.00787499 -7.96722e-21)
(0.23661 0.00790034 2.61641e-21)
(0.231405 0.0079607 -6.74948e-21)
(0.226079 0.00806575 5.71948e-21)
(0.220607 0.00819933 -2.07583e-20)
(0.214969 0.00832491 1.29415e-20)
(0.209178 0.00842576 -7.76392e-21)
(0.203253 0.0085108 1.13585e-20)
(0.197185 0.00861435 -1.2743e-20)
(0.190947 0.00877905 8.02921e-21)
(0.1845 0.00903481 2.51081e-22)
(0.177785 0.00939045 1.35915e-20)
(0.170759 0.00984054 -6.3781e-21)
(0.163407 0.0103381 -8.77024e-21)
(0.155731 0.0108084 -1.22301e-20)
(0.147786 0.0112004 1.72067e-20)
(0.139632 0.0114989 -3.65038e-20)
(0.131292 0.0117157 4.66301e-20)
(0.122748 0.0119172 -4.19116e-20)
(0.113988 0.0121821 9.68201e-20)
(0.104984 0.0125709 -6.89288e-20)
(0.0956835 0.0131176 7.8215e-20)
(0.0860308 0.0138176 -6.70501e-20)
(0.075967 0.0146401 1.04368e-19)
(0.065445 0.015563 -8.40645e-20)
(0.0544416 0.0165123 7.30845e-20)
(0.0429945 0.0174203 -5.62005e-20)
(0.0311553 0.0183107 -2.42715e-19)
(0.019043 0.0186494 3.80677e-20)
(0.00697364 0.0200152 -6.12517e-19)
(1.5 -3.1196e-16 1.23545e-22)
(1.5 -4.49742e-16 -2.45056e-22)
(1.5 -5.92341e-16 -1.90955e-22)
(1.5 -4.27039e-16 -8.41889e-23)
(1.5 2.86547e-16 5.20184e-23)
(1.5 -2.37734e-16 -5.14673e-23)
(1.5 -6.02613e-16 -4.92341e-23)
(1.5 4.34258e-17 -5.70655e-23)
(1.5 1.28356e-15 8.34507e-23)
(1.5 3.1542e-15 3.83984e-23)
(1.5 -3.40972e-14 2.77563e-22)
(1.5 -3.35646e-12 -3.79024e-22)
(1.5 -1.18992e-10 -2.66368e-22)
(1.5 3.60145e-10 -1.4125e-22)
(1.5 -2.09567e-08 2.69265e-23)
(1.5 -1.52737e-07 -7.44748e-23)
(1.5 -4.55496e-07 -6.62294e-23)
(1.5 -1.94811e-06 -1.89556e-22)
(1.50159 6.13483e-05 6.19829e-23)
(0.767019 0.0033193 -1.40291e-21)
(0.531424 0.00408322 -8.32587e-21)
(0.52066 0.00464319 1.36475e-21)
(0.513098 0.00483189 -2.37634e-20)
(0.505765 0.00490759 1.1101e-20)
(0.498557 0.00492483 -2.4699e-20)
(0.491475 0.00502388 -2.49669e-21)
(0.484586 0.00511315 -2.32046e-20)
(0.478102 0.00517147 -4.19407e-21)
(0.471838 0.00525461 -2.63853e-20)
(0.465909 0.00539222 2.89216e-21)
(0.460272 0.00547604 -2.13569e-20)
(0.454893 0.00562818 3.347e-21)
(0.449759 0.00570283 -2.15393e-20)
(0.444856 0.00584969 1.11381e-21)
(0.440174 0.00589295 -2.05053e-20)
(0.435698 0.00601149 -1.11063e-21)
(0.431409 0.00602488 -1.94713e-20)
(0.427323 0.0061531 -1.45476e-21)
(0.423361 0.00617085 -1.80877e-20)
(0.419618 0.00630274 -1.27791e-21)
(0.416032 0.00630892 -1.70687e-20)
(0.412672 0.00643417 -2.89284e-22)
(0.409502 0.00641018 -1.55204e-20)
(0.40652 0.00652939 -8.62395e-22)
(0.403697 0.0064861 -1.48296e-20)
(0.400933 0.00659583 -6.3949e-22)
(0.398123 0.00671 -5.7497e-21)
(0.395297 0.00682947 4.87128e-21)
(0.392432 0.00695362 2.61548e-21)
(0.389527 0.00707977 8.45061e-21)
(0.386579 0.00720827 3.4228e-21)
(0.383609 0.00733897 4.27354e-21)
(0.380623 0.00747091 1.01612e-20)
(0.37762 0.00760294 2.15233e-21)
(0.374596 0.00773482 1.05732e-20)
(0.371545 0.00786824 3.01258e-21)
(0.36846 0.00800384 -2.6973e-21)
(0.365336 0.00814382 3.42321e-21)
(0.362166 0.00828997 -1.41067e-20)
(0.358949 0.00844528 8.58026e-21)
(0.355681 0.00860739 -1.55673e-20)
(0.352361 0.00877432 -2.96114e-21)
(0.348994 0.00894513 -2.41908e-21)
(0.345602 0.00911644 -3.13284e-21)
(0.34219 0.0092865 -1.93759e-20)
(0.338764 0.00945329 -1.29337e-21)
(0.335317 0.0096174 -1.91133e-20)
(0.331846 0.00978214 9.35773e-22)
(0.328346 0.00995075 -1.44531e-20)
(0.32481 0.0101281 7.09292e-21)
(0.32123 0.0103142 -1.33973e-20)
(0.31759 0.0105096 5.82738e-21)
(0.31388 0.0107111 -1.04205e-20)
(0.310107 0.0109161 1.25803e-20)
(0.306276 0.0111167 -1.79959e-20)
(0.302394 0.0113152 1.41848e-20)
(0.298466 0.0115124 -1.16249e-20)
(0.294493 0.0117069 3.85983e-21)
(0.290469 0.0118984 -1.33795e-20)
(0.286386 0.0120878 1.03021e-21)
(0.282235 0.0122744 -4.76765e-21)
(0.278006 0.0124579 -8.77209e-21)
(0.27369 0.0126382 -6.07893e-21)
(0.269278 0.0128135 -1.36535e-20)
(0.264764 0.0129718 6.8621e-21)
(0.260147 0.0131008 -3.11151e-20)
(0.255432 0.0131937 1.38297e-22)
(0.250623 0.0132545 -2.56074e-20)
(0.245721 0.0132935 -2.46693e-20)
(0.240721 0.0133244 -2.76134e-20)
(0.235615 0.01337 -2.49304e-20)
(0.230395 0.0134618 -5.05365e-20)
(0.225043 0.0136176 -5.59663e-21)
(0.219555 0.0138161 -7.28571e-20)
(0.213923 0.014009 3.325e-20)
(0.208159 0.0141643 -9.52155e-20)
(0.202271 0.0143038 3.65522e-20)
(0.196246 0.014483 -8.8065e-20)
(0.190053 0.0147659 3.98865e-20)
(0.183662 0.015196 -9.93226e-20)
(0.177032 0.0157795 6.85831e-20)
(0.170128 0.0164887 -8.34679e-20)
(0.162942 0.0172519 8.61736e-20)
(0.15547 0.017958 -8.86433e-20)
(0.147753 0.0185513 9.62192e-20)
(0.139823 0.019042 -1.071e-19)
(0.13167 0.0194691 9.83977e-20)
(0.123265 0.0199175 -7.64592e-20)
(0.114573 0.02046 4.03605e-20)
(0.105563 0.021174 8.60788e-20)
(0.0962258 0.0221047 3.7743e-20)
(0.0865692 0.0232475 3.11034e-19)
(0.076586 0.0245772 -1.24897e-19)
(0.0662605 0.0260886 5.34436e-19)
(0.0555331 0.0277072 -2.0141e-19)
(0.0443511 0.0293143 5.08567e-19)
(0.0326689 0.0309565 6.13027e-19)
(0.020314 0.0319818 -3.56327e-19)
(0.00787167 0.0341515 8.46297e-19)
(1.5 -9.49972e-17 -1.6531e-22)
(1.5 -4.2107e-16 2.94853e-23)
(1.5 -7.78318e-16 1.82762e-22)
(1.5 -1.00041e-15 2.56476e-22)
(1.5 -4.93699e-16 -1.13932e-22)
(1.5 -5.84801e-16 -3.26173e-22)
(1.5 -1.09362e-15 -1.27685e-22)
(1.5 -3.22148e-16 -1.37257e-22)
(1.5 1.94143e-15 -7.024e-23)
(1.5 -1.48303e-16 -1.46816e-22)
(1.5 -1.19812e-13 -4.78359e-22)
(1.5 2.4837e-12 -7.13654e-22)
(1.5 -1.96306e-10 -6.48784e-22)
(1.5 5.12436e-10 -5.63116e-22)
(1.5 -6.45852e-10 1.36988e-22)
(1.5 -6.82325e-08 1.36341e-22)
(1.5 -3.02078e-07 -3.8252e-23)
(1.5 -2.304e-06 -3.23063e-22)
(1.50191 0.000102567 -1.21236e-21)
(0.765986 0.00528808 5.02778e-21)
(0.531027 0.00594875 4.03708e-21)
(0.520138 0.00662619 8.74133e-21)
(0.512689 0.00685597 1.34439e-20)
(0.505519 0.00698363 4.98188e-21)
(0.498484 0.00705048 2.00356e-20)
(0.491513 0.00723689 6.38549e-21)
(0.48468 0.00738759 1.287e-20)
(0.478219 0.00751564 1.55544e-20)
(0.471925 0.00765147 2.70058e-20)
(0.465948 0.00785878 1.2179e-20)
(0.460254 0.00798709 1.72605e-20)
(0.454822 0.00821023 1.1551e-20)
(0.449634 0.00832124 1.60311e-20)
(0.444683 0.00853215 9.69578e-21)
(0.439948 0.0086047 1.63607e-20)
(0.435419 0.00878369 9.65751e-21)
(0.431071 0.00881239 1.71863e-20)
(0.426928 0.00899856 8.75293e-21)
(0.422908 0.00902489 1.73935e-20)
(0.419109 0.00920714 7.21708e-21)
(0.415469 0.00921418 1.59955e-20)
(0.412059 0.00938123 6.10856e-21)
(0.408838 0.00935507 1.31608e-20)
(0.40581 0.00951459 6.64517e-21)
(0.402942 0.00946544 1.07831e-20)
(0.400135 0.00961928 5.97272e-21)
(0.397282 0.00978304 3.22854e-21)
(0.394409 0.009953 5.2949e-21)
(0.391496 0.0101287 -1.40306e-20)
(0.388543 0.0103063 2.84876e-21)
(0.385543 0.0104847 -1.45741e-20)
(0.382519 0.0106632 -3.17818e-21)
(0.379474 0.0108427 -1.01133e-20)
(0.376408 0.0110222 -1.10091e-20)
(0.373318 0.0112015 -2.18417e-21)
(0.370195 0.0113828 -1.60478e-20)
(0.367034 0.0115669 1.80508e-20)
(0.36383 0.0117558 -9.30781e-21)
(0.360577 0.0119516 2.26684e-20)
(0.357276 0.0121574 -6.18312e-21)
(0.353926 0.0123708 2.82975e-20)
(0.350527 0.0125891 4.59711e-21)
(0.347086 0.0128122 3.72634e-20)
(0.343626 0.0130374 -1.6012e-21)
(0.340151 0.0132626 5.95403e-20)
(0.33667 0.0134852 -5.26446e-21)
(0.333173 0.0137077 7.03238e-20)
(0.329659 0.0139336 -9.61926e-21)
(0.326121 0.0141649 6.78213e-20)
(0.322554 0.0144063 -9.78261e-21)
(0.318953 0.0146603 4.84347e-20)
(0.315305 0.014929 -1.1768e-20)
(0.311602 0.0152078 5.22958e-20)
(0.307855 0.0154923 -7.41038e-21)
(0.304068 0.0157726 4.738e-20)
(0.300243 0.0160448 -1.27329e-20)
(0.296378 0.0163107 5.12765e-20)
(0.292472 0.0165713 -1.57798e-20)
(0.28852 0.0168284 5.54809e-20)
(0.284518 0.0170841 -1.99446e-20)
(0.280456 0.0173392 5.23336e-20)
(0.276324 0.0175923 -2.74469e-20)
(0.272111 0.0178424 5.89272e-20)
(0.267807 0.0180877 -3.44624e-20)
(0.263404 0.0183181 5.88047e-20)
(0.258897 0.0185096 -3.51111e-20)
(0.254288 0.0186541 7.93253e-20)
(0.249572 0.0187581 -6.22496e-20)
(0.244748 0.0188381 7.91453e-20)
(0.239809 0.0189128 -1.49676e-20)
(0.234746 0.019009 5.74193e-20)
(0.229551 0.0191585 1.74368e-20)
(0.224213 0.0193776 3.68467e-20)
(0.21873 0.0196382 -2.32453e-20)
(0.213101 0.0198788 2.63049e-20)
(0.207339 0.0200689 -5.46236e-20)
(0.201452 0.0202494 -2.79465e-20)
(0.19543 0.0204968 -5.19597e-20)
(0.18925 0.0208888 -5.65687e-20)
(0.182891 0.0214725 -4.64805e-20)
(0.176324 0.0222481 -1.04539e-19)
(0.169521 0.0231728 -2.14983e-20)
(0.162476 0.0241563 -1.70005e-19)
(0.155176 0.0250587 1.35215e-20)
(0.147646 0.0258312 -2.80392e-19)
(0.139903 0.0265143 6.4687e-20)
(0.131922 0.0271705 -3.98851e-19)
(0.123667 0.0278896 1.47732e-19)
(0.115104 0.0287484 -5.55535e-19)
(0.106216 0.0298177 1.12042e-19)
(0.097003 0.0311267 -5.01023e-19)
(0.0874789 0.0326675 -9.05197e-20)
(0.0776288 0.0344386 -2.17486e-19)
(0.0674256 0.0364757 -4.49385e-19)
(0.0567886 0.0387466 3.71133e-19)
(0.0456521 0.0410595 -7.63087e-19)
(0.0340236 0.0435111 5.44576e-19)
(0.0216422 0.0454394 2.71245e-19)
(0.00903461 0.048535 -8.25552e-19)
(1.5 7.97128e-17 -1.87455e-22)
(1.5 -1.35015e-17 2.67358e-22)
(1.5 -7.20894e-16 -5.29117e-22)
(1.5 -1.94862e-15 4.85578e-22)
(1.5 -1.74827e-15 5.73324e-22)
(1.5 -9.73424e-16 1.17514e-21)
(1.5 -5.74894e-16 5.67698e-22)
(1.5 -6.69893e-17 -2.89696e-22)
(1.5 1.50784e-15 1.29202e-22)
(1.5 -4.81747e-15 -2.16657e-22)
(1.5 -3.50473e-13 -1.55976e-21)
(1.5 4.81431e-12 2.92107e-22)
(1.5 -2.41083e-12 -1.98584e-22)
(1.5 -3.95902e-10 -3.66249e-22)
(1.5 1.74556e-08 -1.10159e-21)
(1.5 8.95566e-08 -1.13819e-21)
(1.5 -1.76908e-07 1.84391e-22)
(1.5 -2.308e-06 1.69914e-22)
(1.50213 0.000128454 5.29597e-22)
(0.765312 0.00750429 -8.23672e-21)
(0.53085 0.00797447 -1.61133e-20)
(0.519808 0.0087111 3.16575e-21)
(0.512348 0.00894845 -1.7935e-20)
(0.505204 0.00911599 -4.17766e-21)
(0.49822 0.00924439 -1.77456e-20)
(0.491296 0.00954085 -1.66824e-21)
(0.484491 0.00976362 -8.48078e-21)
(0.478056 0.00998392 -7.08297e-21)
(0.471759 0.0101793 -1.63409e-20)
(0.465776 0.010463 5.14813e-21)
(0.460075 0.0106396 -2.67791e-21)
(0.45464 0.0109374 6.42176e-21)
(0.449439 0.011088 -6.00904e-21)
(0.444478 0.01137 6.72194e-21)
(0.439723 0.0114809 -9.8298e-21)
(0.435176 0.0117313 2.3561e-21)
(0.430806 0.0117852 -2.10093e-21)
(0.426647 0.0120398 5.57176e-22)
(0.422612 0.0120864 -1.73834e-21)
(0.418802 0.0123307 4.19189e-21)
(0.415147 0.0123547 -1.20344e-21)
(0.411721 0.0125785 4.35206e-21)
(0.408479 0.0125663 2.32512e-21)
(0.405425 0.012779 5.60461e-21)
(0.402521 0.0127352 -6.01179e-22)
(0.399689 0.0129411 4.46803e-21)
(0.396815 0.0131628 7.20239e-21)
(0.393918 0.0133906 6.98406e-21)
(0.390982 0.0136265 1.51708e-20)
(0.388004 0.0138641 -7.7472e-21)
(0.38498 0.0141013 1.57897e-20)
(0.381928 0.0143385 -4.40673e-21)
(0.378852 0.0145772 2.75989e-20)
(0.375751 0.0148171 2.14576e-21)
(0.372621 0.0150576 2.08853e-20)
(0.369453 0.0153011 1.18791e-21)
(0.366243 0.015549 1.37091e-20)
(0.362985 0.0158017 -2.82988e-22)
(0.359676 0.0160606 2.20767e-20)
(0.356318 0.016329 -1.49938e-21)
(0.352911 0.0166033 1.53541e-20)
(0.349456 0.0168801 -9.86129e-21)
(0.345964 0.0171598 2.4039e-20)
(0.342455 0.0174413 -1.87093e-20)
(0.338937 0.0177218 1.6644e-20)
(0.335415 0.0179989 -1.84169e-20)
(0.331879 0.0182747 9.2736e-21)
(0.328326 0.0185532 -1.60538e-20)
(0.324749 0.0188359 9.65472e-21)
(0.321144 0.0191254 -9.403e-21)
(0.317505 0.0194259 4.52798e-21)
(0.313822 0.0197387 7.97872e-21)
(0.310089 0.0200586 -6.91845e-21)
(0.306316 0.0203802 2.5395e-20)
(0.302508 0.0206959 6.67761e-21)
(0.298664 0.0210038 1.44263e-20)
(0.294787 0.0213076 1.78602e-21)
(0.290875 0.0216065 5.11881e-21)
(0.286926 0.0219034 4.18794e-20)
(0.282937 0.0222016 1.13844e-21)
(0.278898 0.022504 3.24759e-20)
(0.274801 0.0228095 -1.00365e-20)
(0.270634 0.023117 3.46842e-20)
(0.26639 0.0234244 3.44167e-20)
(0.262057 0.0237185 -1.49469e-20)
(0.257629 0.023969 6.06283e-20)
(0.253101 0.024171 -4.09756e-20)
(0.248466 0.0243284 1.09359e-19)
(0.243722 0.0244631 -6.69571e-20)
(0.238859 0.0245982 1.37684e-19)
(0.233865 0.0247607 -7.8638e-20)
(0.228731 0.0249801 1.50024e-19)
(0.223446 0.0252713 -3.57733e-20)
(0.218008 0.0255973 1.80836e-19)
(0.212416 0.0258887 -2.78664e-20)
(0.206678 0.026119 2.14192e-19)
(0.200804 0.0263453 8.13328e-22)
(0.194787 0.0266617 2.38944e-19)
(0.188609 0.0271545 -6.34663e-21)
(0.182262 0.0278715 2.66568e-19)
(0.175724 0.0288087 -5.99674e-20)
(0.168976 0.0299143 2.99492e-19)
(0.162011 0.0310834 -5.19824e-20)
(0.15481 0.0321551 3.16421e-19)
(0.14739 0.0330977 -5.48711e-20)
(0.139757 0.0339806 3.25337e-19)
(0.131882 0.0348829 -3.31259e-20)
(0.123726 0.0358914 2.95458e-19)
(0.115264 0.0370851 1.14177e-19)
(0.106486 0.0385173 -1.42807e-19)
(0.0974005 0.0402034 2.76027e-19)
(0.0880205 0.0421399 -4.52336e-19)
(0.07833 0.0443583 3.4763e-19)
(0.068307 0.0469346 -5.53579e-19)
(0.0579 0.0498822 -3.24349e-20)
(0.0469816 0.052965 2.94405e-19)
(0.0355605 0.0562833 -5.94371e-19)
(0.0232516 0.0592509 -7.26787e-20)
(0.0105865 0.0633817 7.56847e-19)
(1.5 -7.87104e-17 3.48636e-22)
(1.5 3.59115e-16 9.62796e-23)
(1.5 -3.31604e-16 4.17764e-22)
(1.5 -9.91086e-16 -4.33515e-22)
(1.5 -1.08053e-15 -1.12894e-21)
(1.5 -6.63824e-16 -2.36239e-21)
(1.5 6.59528e-16 -2.33743e-21)
(1.5 3.18397e-16 1.82717e-22)
(1.5 8.33001e-16 -2.37773e-21)
(1.5 -3.12801e-15 -1.93844e-21)
(1.5 -4.33551e-13 -3.77874e-22)
(1.5 2.28849e-12 -2.81963e-21)
(1.5 1.07388e-10 -2.99483e-21)
(1.5 -5.73268e-10 -1.28185e-21)
(1.5 1.36189e-08 -1.54144e-21)
(1.5 1.50734e-07 -1.41158e-21)
(1.5 -1.72778e-09 -3.8002e-21)
(1.5 -2.12981e-06 -1.32117e-21)
(1.50234 0.000170628 -2.69045e-21)
(0.765029 0.00985334 -5.67556e-21)
(0.530842 0.0101687 3.01374e-20)
(0.519632 0.0109287 -4.72169e-20)
(0.512126 0.0111675 5.39886e-20)
(0.504992 0.0113726 -4.84713e-20)
(0.498059 0.0115603 3.42356e-20)
(0.491193 0.0119705 -1.92075e-20)
(0.484421 0.0122754 4.20905e-20)
(0.478007 0.0126105 -1.54056e-20)
(0.471714 0.0128703 4.2749e-20)
(0.46573 0.0132338 -3.64637e-20)
(0.46002 0.0134617 3.84354e-20)
(0.454579 0.0138395 -3.60124e-20)
(0.449361 0.0140355 3.63808e-20)
(0.444391 0.0143949 -3.01918e-20)
(0.439624 0.0145485 3.95225e-20)
(0.435078 0.0148744 -2.81102e-20)
(0.430711 0.0149564 4.00262e-20)
(0.426567 0.0152796 -2.51077e-20)
(0.422547 0.0153484 3.50106e-20)
(0.418759 0.0156547 -2.65695e-20)
(0.415122 0.0157014 2.95634e-20)
(0.411718 0.0159862 -2.75814e-20)
(0.408486 0.0159962 2.96594e-20)
(0.405448 0.0162721 -2.16547e-20)
(0.402548 0.0162431 2.63863e-20)
(0.399724 0.0165069 -1.5469e-20)
(0.396861 0.0167869 1.37189e-20)
(0.39397 0.0170748 -4.08208e-21)
(0.39104 0.0173716 2.71683e-20)
(0.388067 0.0176706 7.7917e-21)
(0.385046 0.0179686 2.9875e-20)
(0.381993 0.0182675 1.08487e-21)
(0.378912 0.0185692 9.68454e-21)
(0.375802 0.018874 1.34725e-20)
(0.372659 0.019181 -1.14096e-20)
(0.369476 0.0194922 1.21047e-20)
(0.366249 0.0198098 -1.94872e-20)
(0.362972 0.0201321 4.30498e-21)
(0.359644 0.0204587 -2.00247e-20)
(0.35627 0.020793 1.17409e-20)
(0.352852 0.0211309 -1.43353e-20)
(0.34939 0.0214686 4.18473e-21)
(0.345894 0.021807 -3.81685e-20)
(0.342381 0.0221458 1.25484e-20)
(0.338857 0.0224811 -4.21238e-20)
(0.335326 0.0228147 6.6597e-21)
(0.331777 0.0231467 -4.51605e-20)
(0.328206 0.0234812 9.18498e-21)
(0.324605 0.0238193 -4.74968e-20)
(0.320969 0.0241614 2.55761e-20)
(0.317293 0.0245128 -7.13536e-20)
(0.313565 0.0248709 5.24615e-20)
(0.309783 0.0252312 -9.57293e-20)
(0.305957 0.0255891 4.75138e-20)
(0.302089 0.0259391 -8.53449e-20)
(0.29818 0.0262792 5.9603e-20)
(0.294231 0.0266109 -9.03748e-20)
(0.290244 0.0269337 6.6343e-20)
(0.286219 0.0272519 -1.10656e-19)
(0.282154 0.0275707 6.00018e-20)
(0.278045 0.0278959 -9.29108e-20)
(0.273884 0.0282279 7.75054e-20)
(0.269663 0.0285663 -9.69279e-20)
(0.265374 0.0289106 6.54405e-20)
(0.261009 0.0292455 -6.09176e-20)
(0.256557 0.0295376 8.70044e-20)
(0.25202 0.0297855 -4.45966e-20)
(0.247397 0.0299859 8.719e-20)
(0.242678 0.0301696 -4.43145e-20)
(0.23785 0.0303645 5.0489e-20)
(0.232901 0.0305957 -5.23949e-20)
(0.227817 0.0308904 -1.83444e-20)
(0.222589 0.0312586 -7.86585e-20)
(0.217214 0.0316534 -6.50557e-20)
(0.211688 0.0320015 -3.85769e-20)
(0.206016 0.0322823 -1.08256e-19)
(0.200207 0.0325646 -4.80664e-20)
(0.194252 0.032958 -1.54508e-19)
(0.188141 0.0335545 -1.16167e-20)
(0.181867 0.0343999 -1.41298e-19)
(0.175415 0.0354857 -4.2271e-20)
(0.168767 0.0367551 -9.97601e-20)
(0.161916 0.0380893 -5.00357e-20)
(0.154832 0.0393129 -1.58227e-19)
(0.147531 0.0404185 4.2573e-20)
(0.140011 0.0415003 -3.36726e-19)
(0.132245 0.0426504 2.73645e-19)
(0.124194 0.0439475 -4.92403e-19)
(0.115842 0.0454702 5.57564e-19)
(0.107183 0.0472515 -3.48211e-19)
(0.0982265 0.0492976 5.22153e-19)
(0.0889839 0.051614 8.06116e-20)
(0.0794383 0.054267 -9.76783e-20)
(0.0695709 0.0573662 4.84944e-19)
(0.0593404 0.0609657 -7.1563e-19)
(0.0485971 0.0648108 -7.39824e-19)
(0.0373481 0.0690083 8.42374e-19)
(0.025117 0.0730985 -1.81664e-19)
(0.0126524 0.0783384 -1.03322e-18)
(1.5 -3.33961e-16 1.09335e-21)
(1.5 -1.05431e-16 8.27101e-22)
(1.5 1.70626e-16 1.94655e-22)
(1.5 -9.43199e-17 -5.6674e-22)
(1.5 -4.5916e-16 1.68507e-21)
(1.5 -4.68802e-16 2.22929e-21)
(1.5 7.19412e-16 -4.1577e-23)
(1.5 3.61066e-16 1.57087e-21)
(1.5 1.79091e-15 -3.78233e-23)
(1.5 -1.5685e-15 -1.51745e-22)
(1.5 -2.29492e-13 -2.08434e-22)
(1.5 1.77899e-12 8.32603e-22)
(1.5 7.68154e-11 1.79196e-21)
(1.5 -6.36964e-11 -1.45269e-21)
(1.5 -1.78356e-09 -2.51942e-21)
(1.5 1.41768e-07 -1.65738e-21)
(1.5 1.05582e-07 1.72565e-22)
(1.5 -1.84867e-06 -8.77212e-22)
(1.50259 0.000244346 -6.33868e-23)
(0.765158 0.0123127 8.18144e-21)
(0.530916 0.0125416 9.9764e-21)
(0.519501 0.0132997 3.53114e-21)
(0.511944 0.0135121 1.87926e-20)
(0.504807 0.0137413 -9.48625e-21)
(0.497913 0.0139815 1.4518e-20)
(0.491099 0.014511 -2.74509e-20)
(0.484363 0.0149127 -1.67177e-21)
(0.477978 0.0153743 -2.81889e-20)
(0.471708 0.0157009 -6.93859e-22)
(0.465741 0.0161486 -5.13258e-20)
(0.460036 0.0164331 -1.97969e-20)
(0.454603 0.0168994 -4.3432e-20)
(0.449378 0.017148 -1.55981e-20)
(0.444409 0.0175914 -3.31768e-20)
(0.43963 0.0177875 -1.61263e-20)
(0.435081 0.0181884 -2.88125e-20)
(0.430706 0.0182985 -1.71654e-20)
(0.426559 0.018686 -2.44617e-20)
(0.422534 0.0187783 -2.11692e-20)
(0.418749 0.0191454 -1.83078e-20)
(0.41511 0.0192186 -2.03779e-20)
(0.411715 0.0195671 -1.4824e-20)
(0.408482 0.0196012 -2.53593e-20)
(0.405454 0.0199379 -9.79453e-21)
(0.402558 0.0199298 -2.60456e-20)
(0.399743 0.0202501 -4.062e-21)
(0.396895 0.0205869 -2.43069e-20)
(0.394019 0.0209335 -1.83342e-20)
(0.391112 0.0212892 -4.3773e-20)
(0.388165 0.0216478 -2.69012e-20)
(0.385175 0.0220059 -5.72332e-20)
(0.382158 0.0223667 -2.79093e-20)
(0.379116 0.0227317 -6.41246e-20)
(0.376051 0.0231012 -2.11969e-20)
(0.372958 0.0234743 -5.0045e-20)
(0.369831 0.0238523 -2.71907e-20)
(0.366665 0.0242377 -5.61082e-20)
(0.363454 0.0246278 2.79236e-21)
(0.360197 0.0250194 -6.23616e-20)
(0.356893 0.0254132 -1.87881e-21)
(0.353542 0.0258077 -6.33753e-20)
(0.350143 0.0262004 8.42914e-22)
(0.346701 0.026593 -4.34451e-20)
(0.343231 0.0269862 1.70405e-20)
(0.33974 0.0273773 -4.61388e-20)
(0.336227 0.0277686 3.47309e-20)
(0.332684 0.0281599 -5.66699e-20)
(0.329104 0.0285552 3.86598e-20)
(0.325482 0.0289564 -5.88719e-20)
(0.321805 0.0293626 3.96756e-20)
(0.318071 0.0297754 -6.30105e-20)
(0.314277 0.0301933 3.81934e-20)
(0.31042 0.0306123 -6.60756e-20)
(0.306509 0.031027 2.54182e-20)
(0.302545 0.0314305 -5.10146e-20)
(0.298534 0.0318187 2.67856e-20)
(0.29448 0.0321924 -5.25668e-20)
(0.290388 0.0325498 3.10791e-20)
(0.286259 0.032896 -5.17734e-20)
(0.282095 0.0332377 1.96694e-20)
(0.277893 0.033584 -5.71718e-20)
(0.273647 0.0339369 1.99402e-20)
(0.269348 0.0342973 -5.32094e-20)
(0.26499 0.0346662 1.13956e-20)
(0.260564 0.0350267 -4.63341e-20)
(0.256062 0.0353452 7.08083e-20)
(0.25148 0.0356077 -4.60535e-22)
(0.246813 0.03583 2.80043e-20)
(0.242052 0.0360493 8.32656e-20)
(0.237186 0.0362904 -3.06508e-20)
(0.232201 0.0365775 2.1207e-19)
(0.227086 0.0369366 -2.67419e-20)
(0.221833 0.0373659 2.30853e-19)
(0.216442 0.0378133 -4.25659e-20)
(0.210908 0.0382071 2.00997e-19)
(0.205237 0.038534 -5.06664e-20)
(0.199439 0.0388672 1.83473e-19)
(0.193509 0.0393328 1.12004e-19)
(0.187441 0.040026 7.29897e-20)
(0.181229 0.04099 3.98255e-20)
(0.174861 0.0422119 1.23421e-19)
(0.168316 0.0436339 -2.67781e-20)
(0.161586 0.0451233 1.68561e-19)
(0.154627 0.0464936 -4.84856e-20)
(0.147454 0.0477663 1.40851e-19)
(0.14006 0.0490551 -4.92614e-20)
(0.132418 0.0504613 -6.26951e-20)
(0.124488 0.0520519 -4.58615e-20)
(0.116262 0.0539043 -1.88688e-19)
(0.107729 0.0560321 -2.68672e-20)
(0.0989004 0.058437 -6.07774e-19)
(0.0897833 0.0611344 3.00513e-19)
(0.0803641 0.0642245 -1.65826e-19)
(0.070631 0.0678461 2.33796e-19)
(0.0605675 0.0720957 1.12319e-18)
(0.0500272 0.0766998 -8.91367e-20)
(0.0389673 0.0818131 -1.46807e-18)
(0.0270139 0.0872161 6.27946e-19)
(0.0148931 0.0934575 1.00496e-18)
(1.5 -1.38847e-16 -1.65179e-21)
(1.5 -1.85156e-16 -1.7003e-21)
(1.5 2.81252e-16 -1.46833e-21)
(1.5 -9.08535e-17 -2.98105e-21)
(1.5 -1.62885e-16 -3.05178e-21)
(1.5 -3.60112e-17 -2.31653e-21)
(1.5 3.15808e-16 -5.06469e-22)
(1.5 2.06453e-16 -2.52637e-21)
(1.5 2.00698e-15 -1.50305e-21)
(1.5 -2.47687e-15 -1.39475e-21)
(1.5 -2.13107e-13 -5.08447e-22)
(1.5 -1.04077e-12 -5.80743e-23)
(1.5 3.94707e-11 2.70746e-21)
(1.5 -1.05313e-10 7.46911e-21)
(1.5 -1.48987e-09 8.47258e-21)
(1.5 7.07166e-08 6.60179e-21)
(1.5 1.28603e-07 1.01824e-20)
(1.49999 -1.61311e-06 7.37218e-21)
(1.50285 0.00027796 7.71252e-21)
(0.765701 0.0149461 2.22281e-20)
(0.531081 0.0150976 -1.32516e-20)
(0.519488 0.0158231 1.91981e-20)
(0.511886 0.0160032 -6.84236e-20)
(0.504741 0.0162386 3.6247e-20)
(0.49786 0.0165236 -4.98252e-20)
(0.491068 0.0171744 6.264e-20)
(0.484344 0.017683 -4.64884e-20)
(0.477961 0.0182747 6.26042e-20)
(0.471691 0.0186651 -5.96118e-20)
(0.465723 0.0192034 9.49974e-20)
(0.460007 0.0195501 -6.71839e-20)
(0.454569 0.0201121 1.0249e-19)
(0.449327 0.020418 -8.01386e-20)
(0.444357 0.0209516 1.00685e-19)
(0.43957 0.0211924 -8.23321e-20)
(0.435029 0.0216722 9.55358e-20)
(0.430661 0.0218173 -8.75e-20)
(0.426531 0.0222706 8.96566e-20)
(0.42252 0.0223919 -9.04645e-20)
(0.418757 0.0228217 8.59495e-20)
(0.415136 0.0229254 -8.89346e-20)
(0.411768 0.0233381 8.66947e-20)
(0.408552 0.0234012 -9.12996e-20)
(0.40555 0.0237938 8.1578e-20)