/*--------------------------------*- C++ -*----------------------------------*\
| =========                 |                                                 |
| \\      /  F ield         | OpenFOAM: The Open Source CFD Toolbox           |
|  \\    /   O peration     | Version:  2.2.x                                 |
|   \\  /    A nd           | Web:      www.OpenFOAM.org                      |
|    \\/     M anipulation  |                                                 |
\*---------------------------------------------------------------------------*/
FoamFile
{
    version     2.0;
    format      ascii;
    class       volScalarField;
    location    "0.75";
    object      rho;
}
// * * * * * * * * * * * * * * * * * * * * * * * * * * * * * * * * * * * * * //

dimensions      [1 -3 0 0 0 0 0];

internalField   nonuniform List<scalar> 
14161
(
0.999999
0.999999
0.999999
0.999999
0.999998
0.999996
0.999994
0.999991
0.999986
0.999978
0.999968
0.999952
0.99993
0.999899
0.999858
0.999802
0.999729
0.999634
0.999514
0.999364
0.999181
0.998961
0.9987
0.998398
0.998055
0.997664
0.997233
0.996808
0.99631
0.995764
0.995282
0.994783
0.994266
0.993809
0.99346
0.993177
0.992979
0.992872
0.992898
0.993039
0.993344
0.993824
0.994504
0.995452
0.996689
0.998478
1.0003
1.00165
1.00505
1.01069
1.01668
1.0169
1.31028
2.44608
2.71842
2.73899
2.72072
2.69214
2.65079
2.61029
2.55651
2.51009
2.46265
2.4178
2.37645
2.34156
2.31142
2.28511
2.25971
2.238
2.21976
2.20588
2.19672
2.18901
2.17857
2.1703
2.1648
2.16201
2.1581
2.12858
2.12308
2.12095
2.12176
2.13144
2.07944
2.07836
2.09537
2.05954
2.05208
2.04733
2.01482
2.00651
2.00709
2.01833
2.0359
2.05908
2.15153
2.23487
2.40054
2.60527
2.80339
2.92412
2.99107
3.04123
3.0832
3.11116
3.1268
3.14148
3.16034
3.17524
3.18383
3.18882
3.19124
3.19215
3.19142
3.18627
3.17458
3.16269
3.16777
0.999999
0.999999
0.999999
0.999999
0.999998
0.999996
0.999994
0.999991
0.999986
0.999978
0.999968
0.999952
0.99993
0.999899
0.999858
0.999802
0.999729
0.999634
0.999514
0.999364
0.999181
0.998961
0.9987
0.998397
0.998055
0.997663
0.997233
0.996808
0.996302
0.995758
0.995287
0.994761
0.994254
0.993818
0.993443
0.993129
0.992937
0.992838
0.99286
0.992985
0.993257
0.993673
0.994311
0.995264
0.996502
0.998258
1.00004
1.00139
1.00451
1.00992
1.0156
1.01716
1.31918
2.43024
2.71294
2.72515
2.70474
2.67971
2.63763
2.59709
2.54527
2.499
2.45099
2.40482
2.36447
2.32915
2.29986
2.27748
2.25449
2.23106
2.21203
2.19693
2.1874
2.18149
2.1719
2.1652
2.16043
2.15829
2.15424
2.12379
2.11934
2.11738
2.11904
2.12894
2.0775
2.07491
2.08877
2.05494
2.04797
2.04477
2.01603
2.01316
2.02071
2.04259
2.07071
2.11257
2.23409
2.34999
2.52996
2.70006
2.84051
2.93431
2.9956
3.04215
3.08108
3.10786
3.12488
3.1407
3.15967
3.17494
3.18422
3.19006
3.19272
3.19375
3.19242
3.18651
3.17477
3.1622
3.1704
0.999999
0.999999
0.999999
0.999999
0.999998
0.999996
0.999994
0.999991
0.999986
0.999978
0.999968
0.999952
0.99993
0.999899
0.999858
0.999802
0.999729
0.999634
0.999514
0.999364
0.999181
0.99896
0.9987
0.998397
0.998052
0.997662
0.997233
0.996799
0.996287
0.995747
0.995282
0.994732
0.994205
0.993795
0.993394
0.99303
0.992802
0.992719
0.992732
0.992823
0.993021
0.993309
0.99381
0.994662
0.995874
0.997547
0.999291
1.00067
1.00331
1.00774
1.01206
1.01488
1.31407
2.39804
2.71289
2.70957
2.6855
2.66098
2.61468
2.57649
2.52694
2.48416
2.43656
2.38767
2.34726
2.31276
2.28415
2.26168
2.24416
2.22823
2.20915
2.19054
2.17699
2.1682
2.16204
2.15977
2.1568
2.15613
2.15254
2.1204
2.11519
2.11344
2.11415
2.12662
2.08091
2.08015
2.08961
2.05848
2.049
2.04943
2.03122
2.03898
2.06218
2.10132
2.16034
2.23516
2.38878
2.52772
2.67346
2.76512
2.83817
2.90686
2.96656
3.01743
3.05874
3.09028
3.11213
3.13176
3.15212
3.16856
3.17909
3.18537
3.1882
3.18966
3.18903
3.18355
3.17212
3.15939
3.16884
0.999999
0.999999
0.999999
0.999999
0.999998
0.999996
0.999994
0.999991
0.999986
0.999978
0.999968
0.999952
0.99993
0.9999
0.999858
0.999802
0.999729
0.999634
0.999514
0.999364
0.999181
0.99896
0.998699
0.998396
0.998048
0.997659
0.997234
0.996769
0.996267
0.995746
0.995245
0.994696
0.994149
0.993691
0.99331
0.992918
0.992568
0.992395
0.992399
0.992467
0.992602
0.992775
0.992976
0.993437
0.994388
0.995888
0.997663
0.999196
1.00143
1.004
1.00612
1.00941
1.27898
2.34924
2.71739
2.70921
2.66757
2.6393
2.58313
2.54429
2.49381
2.45089
2.40652
2.35944
2.32188
2.28945
2.26318
2.24134
2.22504
2.21475
2.20171
2.18386
2.16729
2.15595
2.14931
2.14728
2.14643
2.14879
2.14682
2.11728
2.10948
2.10683
2.10582
2.12146
2.08351
2.08373
2.09095
2.06582
2.05787
2.07222
2.07183
2.09899
2.14716
2.2245
2.34856
2.47724
2.6313
2.73751
2.81888
2.85692
2.8845
2.91872
2.96198
3.00325
3.03789
3.06674
3.09123
3.1177
3.14202
3.16047
3.17101
3.17793
3.18225
3.18473
3.18377
3.17828
3.16797
3.15539
3.16643
0.999999
0.999999
0.999999
0.999999
0.999998
0.999996
0.999994
0.999991
0.999986
0.999978
0.999968
0.999952
0.99993
0.9999
0.999858
0.999802
0.999729
0.999635
0.999514
0.999364
0.999181
0.998959
0.998697
0.998394
0.998042
0.997657
0.997233
0.996735
0.996233
0.995754
0.995169
0.994631
0.994112
0.993542
0.993125
0.992787
0.99235
0.991938
0.99177
0.991815
0.991921
0.99203
0.992041
0.991943
0.99209
0.992853
0.994881
0.996584
0.998214
0.999146
0.999939
1.00172
1.19553
2.28284
2.71945
2.70153
2.63815
2.60756
2.53956
2.50285
2.46233
2.41674
2.375
2.33349
2.29714
2.26979
2.24277
2.22365
2.20838
2.19927
2.19083
2.17805
2.16401
2.15139
2.14239
2.1385
2.1373
2.14198
2.14376
2.1204
2.10935
2.10729
2.10708
2.12559
2.09849
2.09708
2.10616
2.09144
2.08764
2.13155
2.15258
2.21371
2.31686
2.44739
2.59772
2.7095
2.8013
2.85398
2.88809
2.91096
2.9245
2.93753
2.96353
2.99394
3.02075
3.04433
3.07131
3.10119
3.12718
3.14588
3.15861
3.1684
3.17463
3.1768
3.17594
3.17058
3.16236
3.15072
3.16242
0.999999
0.999999
0.999999
0.999999
0.999998
0.999996
0.999994
0.999991
0.999986
0.999979
0.999968
0.999952
0.99993
0.9999
0.999858
0.999803
0.99973
0.999635
0.999515
0.999365
0.999181
0.998959
0.998696
0.998391
0.998037
0.997651
0.997225
0.996708
0.996203
0.995739
0.995092
0.994519
0.994058
0.993432
0.992845
0.992496
0.992126
0.99157
0.991049
0.990801
0.990861
0.990916
0.990909
0.990675
0.989831
0.989263
0.989979
0.99194
0.992803
0.993132
0.993826
0.994499
1.07352
2.17046
2.72696
2.69618
2.59458
2.56191
2.49225
2.45816
2.42987
2.38647
2.35044
2.31368
2.27924
2.25539
2.22891
2.21076
2.1949
2.1832
2.17467
2.16497
2.1533
2.14351
2.13504
2.13096
2.12894
2.13275
2.13793
2.12156
2.11026
2.10991
2.11475
2.13155
2.12349
2.12398
2.13732
2.15187
2.16223
2.23942
2.30472
2.42234
2.56588
2.69496
2.79017
2.84501
2.88347
2.91236
2.93222
2.94506
2.95276
2.96221
2.97601
2.99385
3.01328
3.03442
3.05727
3.0825
3.1073
3.12869
3.14622
3.15803
3.16415
3.16588
3.16547
3.16175
3.15595
3.14511
3.1567
0.999999
0.999999
0.999999
0.999999
0.999998
0.999996
0.999994
0.999991
0.999986
0.999979
0.999968
0.999952
0.999931
0.9999
0.999859
0.999803
0.99973
0.999636
0.999515
0.999365
0.999181
0.998958
0.998695
0.998387
0.998032
0.99764
0.997204
0.996695
0.996173
0.995679
0.995053
0.99442
0.993899
0.993334
0.992639
0.992083
0.991676
0.991228
0.990555
0.989797
0.989323
0.989255
0.989304
0.989188
0.988568
0.986401
0.984774
0.984371
0.984492
0.984937
0.985784
0.987106
0.996171
1.91299
2.73624
2.69431
2.55543
2.51995
2.46478
2.4312
2.40533
2.3619
2.33201
2.30503
2.26453
2.24853
2.21851
2.20096
2.18449
2.16935
2.16025
2.14927
2.13953
2.13311
2.12745
2.1256
2.127
2.13
2.13617
2.12625
2.11545
2.12411
2.13665
2.14498
2.16775
2.18137
2.20505
2.25836
2.30778
2.43618
2.54643
2.67097
2.77992
2.8439
2.87692
2.89831
2.92019
2.941
2.95687
2.96626
2.97242
2.97941
2.98794
2.99877
3.01287
3.0271
3.04378
3.06481
3.08944
3.11358
3.13254
3.1444
3.15071
3.15331
3.15447
3.15227
3.14844
3.13884
3.14993
0.999999
0.999999
0.999999
0.999999
0.999998
0.999996
0.999994
0.999991
0.999986
0.999979
0.999968
0.999953
0.999931
0.999901
0.999859
0.999804
0.999731
0.999637
0.999516
0.999366
0.999181
0.998958
0.998694
0.998383
0.998028
0.997625
0.997173
0.996688
0.996157
0.995572
0.995005
0.994383
0.993672
0.993113
0.992537
0.991775
0.99105
0.990568
0.990047
0.989276
0.988097
0.987198
0.98697
0.987034
0.986679
0.985568
0.982089
0.977817
0.97574
0.974318
0.972912
0.973296
0.980756
1.57846
2.71649
2.71519
2.54582
2.49043
2.44133
2.39976
2.36939
2.32916
2.30686
2.28646
2.24184
2.2337
2.20175
2.18478
2.16806
2.14998
2.13915
2.1275
2.12085
2.11856
2.11564
2.11973
2.12737
2.12919
2.13725
2.13509
2.12935
2.15488
2.17882
2.19065
2.24335
2.27941
2.33363
2.44897
2.55303
2.68533
2.77072
2.83818
2.87853
2.8981
2.91012
2.92292
2.93765
2.95507
2.97039
2.97915
2.98459
2.99075
2.99828
3.00561
3.01255
3.02069
3.03475
3.05409
3.07577
3.09792
3.1166
3.12879
3.13655
3.14083
3.14312
3.14141
3.13992
3.13307
3.14345
0.999999
0.999999
0.999999
0.999999
0.999998
0.999996
0.999994
0.999991
0.999986
0.999979
0.999968
0.999953
0.999931
0.999901
0.99986
0.999805
0.999732
0.999638
0.999518
0.999367
0.999182
0.998959
0.998693
0.99838
0.998022
0.997614
0.997148
0.996668
0.996131
0.995484
0.994911
0.994324
0.993521
0.992813
0.99228
0.991592
0.990569
0.989731
0.989227
0.988639
0.987584
0.985807
0.984527
0.984122
0.984188
0.983589
0.981524
0.976099
0.970491
0.965997
0.962507
0.960805
0.969563
1.27051
2.62602
2.79947
2.60166
2.49698
2.43945
2.38376
2.33681
2.29328
2.27856
2.25875
2.20801
2.20533
2.17197
2.15352
2.13879
2.12184
2.11087
2.1023
2.10313
2.1075
2.10776
2.11712
2.12857
2.13267
2.15017
2.16132
2.16824
2.21186
2.24826
2.28804
2.38665
2.46487
2.56158
2.69499
2.78337
2.85324
2.88208
2.89763
2.90944
2.91767
2.92502
2.93301
2.94479
2.96276
2.978
2.98664
2.99301
2.99967
3.00522
3.00866
3.01146
3.01877
3.03184
3.04718
3.06346
3.08183
3.09998
3.11363
3.12326
3.12869
3.13147
3.13022
3.13123
3.12739
3.1371
0.999999
0.999999
0.999999
0.999999
0.999998
0.999997
0.999994
0.999991
0.999986
0.999979
0.999969
0.999953
0.999932
0.999902
0.999861
0.999806
0.999734
0.999639
0.999519
0.999369
0.999184
0.998959
0.998692
0.998378
0.998015
0.997601
0.997132
0.99663
0.996087
0.995451
0.994785
0.994181
0.993455
0.992589
0.991881
0.991249
0.990354
0.989117
0.988236
0.987722
0.986974
0.985488
0.983204
0.981713
0.981108
0.980896
0.980204
0.977335
0.969691
0.963404
0.961449
0.963165
0.985063
1.19857
2.33484
2.70425
2.62644
2.51661
2.44564
2.38046
2.31123
2.26548
2.24458
2.22087
2.17553
2.17046
2.13457
2.11961
2.10704
2.09832
2.09354
2.0878
2.095
2.10673
2.10927
2.12579
2.14158
2.15251
2.19101
2.21431
2.24365
2.3241
2.3994
2.48958
2.61443
2.70219
2.78727
2.86512
2.89477
2.90273
2.90649
2.91246
2.91889
2.9239
2.92865
2.93544
2.9504
2.96933
2.98339
2.99177
2.99889
3.00525
3.00934
3.01114
3.01369
3.02043
3.03044
3.04116
3.05241
3.06685
3.08412
3.09938
3.11046
3.11662
3.12054
3.12054
3.12298
3.12106
3.13027
0.999999
0.999999
0.999999
0.999999
0.999998
0.999997
0.999994
0.999991
0.999987
0.999979
0.999969
0.999954
0.999933
0.999903
0.999862
0.999808
0.999735
0.999642
0.999522
0.999372
0.999186
0.998961
0.998692
0.998378
0.99801
0.997591
0.99712
0.996588
0.996027
0.995424
0.994705
0.993983
0.993331
0.992495
0.991517
0.990798
0.990048
0.988893
0.987519
0.986708
0.986153
0.985178
0.983123
0.980534
0.979128
0.978449
0.978567
0.977385
0.971758
0.963909
0.961454
0.964451
1.00134
1.39119
2.04563
2.38634
2.55808
2.50151
2.43078
2.37298
2.28611
2.24734
2.21918
2.18522
2.14665
2.13944
2.09825
2.09324
2.08923
2.08628
2.08799
2.08358
2.09744
2.11509
2.12399
2.1618
2.18732
2.21487
2.28779
2.3447
2.41937
2.53468
2.6331
2.72644
2.81597
2.86699
2.89673
2.90974
2.90849
2.90696
2.90975
2.91554
2.91998
2.92358
2.92772
2.9385
2.9564
2.97494
2.98679
2.99497
3.00222
3.00784
3.01123
3.01365
3.01698
3.02222
3.02857
3.03476
3.0423
3.05412
3.07009
3.08567
3.09737
3.10431
3.10979
3.11174
3.11521
3.11406
3.12274
0.999999
0.999999
0.999999
0.999999
0.999998
0.999997
0.999995
0.999991
0.999987
0.99998
0.999969
0.999954
0.999933
0.999904
0.999864
0.999809
0.999737
0.999644
0.999525
0.999375
0.99919
0.998964
0.998694
0.998377
0.998007
0.997582
0.997108
0.996562
0.995963
0.995371
0.994664
0.993839
0.993133
0.992385
0.991366
0.990357
0.989611
0.988716
0.987346
0.986006
0.98521
0.984513
0.983201
0.980674
0.978658
0.977551
0.977279
0.977155
0.974183
0.967265
0.966806
0.972134
1.05946
1.6704
1.98802
2.09725
2.33559
2.42101
2.38894
2.36156
2.2764
2.24385
2.20901
2.16903
2.11957
2.12577
2.0853
2.08614
2.08664
2.08712
2.10186
2.10136
2.13164
2.15787
2.18308
2.25615
2.30757
2.37364
2.48434
2.57507
2.66126
2.75211
2.82036
2.86626
2.89234
2.90507
2.90858
2.90554
2.90009
2.90204
2.90873
2.91415
2.91816
2.92133
2.92857
2.94346
2.96272
2.97909
2.98995
2.99798
3.00417
3.00864
3.01217
3.0154
3.01859
3.02193
3.02466
3.02832
3.03411
3.04357
3.05723
3.07203
3.0841
3.09263
3.0997
3.10314
3.10729
3.10648
3.11458
0.999999
0.999999
0.999999
0.999999
0.999998
0.999997
0.999995
0.999992
0.999987
0.99998
0.99997
0.999955
0.999934
0.999905
0.999865
0.999811
0.99974
0.999647
0.999529
0.999379
0.999194
0.998968
0.998697
0.998378
0.998006
0.997577
0.997095
0.996547
0.995924
0.995295
0.994627
0.993779
0.992923
0.992211
0.991309
0.990113
0.989178
0.988428
0.98737
0.985762
0.984588
0.983829
0.98302
0.981332
0.978951
0.977554
0.976972
0.976901
0.976065
0.972162
0.972993
0.989928
1.28651
1.84945
1.95522
1.97352
2.07916
2.27177
2.35378
2.35472
2.28562
2.26392
2.20449
2.17868
2.10496
2.12767
2.08952
2.10216
2.11483
2.11586
2.16106
2.17602
2.22643
2.27712
2.3422
2.4532
2.54016
2.6207
2.71225
2.78174
2.828
2.86062
2.8803
2.8891
2.89335
2.89481
2.89519
2.89312
2.89249
2.89781
2.90488
2.91052
2.91431
2.92065
2.93189
2.94868
2.96635
2.98097
2.99133
2.99892
3.0043
3.00858
3.01265
3.01613
3.01835
3.01923
3.01993
3.02302
3.02731
3.03418
3.04498
3.05843
3.07155
3.08194
3.08991
3.0942
3.09888
3.09878
3.10608
0.999999
0.999999
0.999999
0.999999
0.999998
0.999997
0.999995
0.999992
0.999987
0.99998
0.99997
0.999956
0.999935
0.999907
0.999867
0.999814
0.999743
0.999651
0.999533
0.999384
0.9992
0.998975
0.998703
0.998382
0.998008
0.997575
0.997086
0.996539
0.995909
0.995225
0.994572
0.99377
0.992811
0.992009
0.991207
0.990068
0.98892
0.988109
0.98724
0.985825
0.984411
0.983545
0.982874
0.981787
0.97955
0.977843
0.977133
0.977008
0.976898
0.974947
0.976881
1.01119
1.56569
1.96701
1.97678
1.96621
1.99151
2.07796
2.22779
2.30972
2.28407
2.28116
2.18848
2.21529
2.12399
2.15324
2.13721
2.16406
2.19163
2.20228
2.30096
2.34885
2.42636
2.51497
2.59159
2.68221
2.75724
2.80526
2.83713
2.85304
2.86656
2.87559
2.87406
2.87454
2.87923
2.88065
2.88006
2.88098
2.8857
2.89248
2.89976
2.90522
2.91206
2.92153
2.9351
2.95151
2.9679
2.9814
2.99141
2.99851
3.00371
3.00847
3.01284
3.01573
3.01621
3.01513
3.01578
3.01819
3.02072
3.02517
3.03378
3.04604
3.05979
3.07154
3.07999
3.08496
3.09026
3.09119
3.09765
0.999999
0.999999
0.999999
0.999999
0.999998
0.999997
0.999995
0.999992
0.999987
0.999981
0.999971
0.999957
0.999936
0.999908
0.999869
0.999817
0.999747
0.999656
0.999539
0.999391
0.999207
0.998983
0.998711
0.998389
0.998014
0.997579
0.997081
0.996535
0.995908
0.995195
0.994496
0.99376
0.992789
0.991851
0.991071
0.99009
0.988834
0.987872
0.987078
0.985924
0.984468
0.983548
0.982869
0.982066
0.980366
0.978372
0.977499
0.977267
0.977407
0.976228
0.980558
1.07161
1.7888
2.00408
2.00125
1.98081
1.9766
1.99254
2.06647
2.18162
2.28485
2.30517
2.22024
2.29214
2.18469
2.24246
2.2622
2.30474
2.36309
2.40617
2.52948
2.58928
2.65799
2.73
2.77942
2.81898
2.83944
2.8507
2.85514
2.85749
2.85519
2.85896
2.85882
2.86018
2.86468
2.86584
2.86623
2.87043
2.87807
2.88602
2.89313
2.90082
2.91005
2.92166
2.93573
2.95166
2.96728
2.98033
2.99032
2.99723
3.00293
3.00832
3.01218
3.01359
3.01186
3.01071
3.01167
3.01271
3.01336
3.01652
3.02429
3.03546
3.04874
3.06034
3.06988
3.07613
3.08186
3.08317
3.08911
0.999999
0.999999
0.999999
0.999999
0.999998
0.999997
0.999995
0.999992
0.999988
0.999981
0.999972
0.999958
0.999938
0.99991
0.999872
0.999821
0.999752
0.999662
0.999546
0.9994
0.999217
0.998994
0.998723
0.9984
0.998025
0.997588
0.997084
0.996533
0.995917
0.995194
0.994436
0.993735
0.992816
0.991785
0.990957
0.990087
0.988865
0.98779
0.986961
0.986026
0.984597
0.983602
0.983013
0.982452
0.981343
0.979224
0.97824
0.97817
0.978569
0.98024
0.994479
1.2834
1.94232
2.01561
2.01192
1.99553
1.97921
1.97915
2.01684
2.07157
2.21155
2.33691
2.31814
2.39345
2.34833
2.44691
2.48661
2.53229
2.59997
2.64063
2.71471
2.76098
2.79436
2.81705
2.83214
2.84072
2.84359
2.84062
2.84043
2.84351
2.84157
2.84087
2.84306
2.84685
2.8493
2.85105
2.8547
2.86181
2.87009
2.87836
2.88641
2.89542
2.90665
2.91975
2.9339
2.94921
2.96447
2.97789
2.98834
2.99592
3.0023
3.00724
3.00956
3.00831
3.00602
3.006
3.00663
3.00617
3.00594
3.00908
3.01625
3.02605
3.03767
3.04858
3.05993
3.06779
3.0736
3.07459
3.08022
0.999999
0.999999
0.999999
0.999999
0.999998
0.999997
0.999995
0.999992
0.999988
0.999982
0.999972
0.999959
0.99994
0.999913
0.999875
0.999825
0.999757
0.999669
0.999555
0.999411
0.999229
0.999008
0.99874
0.998417
0.998042
0.997607
0.997098
0.996538
0.995937
0.995212
0.994418
0.9937
0.992853
0.991781
0.990886
0.990071
0.98895
0.987783
0.986926
0.986092
0.984823
0.98368
0.983104
0.982737
0.982104
0.980647
0.978764
0.978264
0.978401
0.981097
1.00825
1.5223
2.04265
2.02545
2.01939
2.00935
1.99372
1.98914
2.01656
2.05737
2.16093
2.38209
2.49731
2.55336
2.58518
2.67145
2.69632
2.7221
2.74525
2.7653
2.78935
2.80704
2.81883
2.82511
2.82371
2.82492
2.82806
2.82616
2.8245
2.82542
2.82498
2.82526
2.82817
2.83155
2.83389
2.8381
2.84513
2.85359
2.86195
2.87049
2.87927
2.88965
2.90198
2.9163
2.93076
2.94627
2.96186
2.97572
2.98635
2.99423
3.00033
3.00362
3.00377
3.0018
3.00089
3.00143
3.00114
2.99951
2.99948
3.00268
3.00896
3.01683
3.02629
3.03736
3.05044
3.0595
3.06512
3.0655
3.07108
1
0.999999
0.999999
0.999999
0.999998
0.999997
0.999995
0.999993
0.999989
0.999982
0.999973
0.99996
0.999941
0.999915
0.999879
0.99983
0.999764
0.999677
0.999565
0.999423
0.999245
0.999026
0.998761
0.998441
0.998066
0.997635
0.997127
0.996554
0.995966
0.995254
0.994432
0.993683
0.992894
0.991824
0.990865
0.990058
0.989059
0.987821
0.986933
0.98618
0.985101
0.983796
0.983099
0.982755
0.982482
0.981783
0.979581
0.977595
0.977614
0.980774
1.02922
1.76904
2.0618
2.06113
2.05363
2.04346
2.02757
2.03162
2.07317
2.1137
2.28767
2.56891
2.68141
2.71191
2.74475
2.77967
2.78124
2.77907
2.77897
2.78443
2.7942
2.79572
2.80178
2.80771
2.80794
2.80698
2.80837
2.80714
2.80594
2.8057
2.80716
2.81041
2.81381
2.8172
2.82108
2.82724
2.83549
2.84425
2.85272
2.8615
2.87133
2.88293
2.89656
2.91166
2.9269
2.94301
2.95951
2.97379
2.98386
2.99106
2.99603
2.99797
2.99747
2.99651
2.99652
2.99679
2.99525
2.99324
2.99366
2.99636
3.00102
3.00683
3.01546
3.02706
3.04101
3.05073
3.05622
3.05629
3.06176
1
1
0.999999
0.999999
0.999998
0.999997
0.999996
0.999993
0.999989
0.999983
0.999974
0.999962
0.999944
0.999918
0.999883
0.999835
0.999771
0.999687
0.999578
0.999439
0.999264
0.999048
0.998788
0.998473
0.9981
0.997675
0.997173
0.996591
0.996
0.995325
0.994482
0.993684
0.992939
0.991926
0.990886
0.990065
0.989186
0.987941
0.986955
0.986221
0.985386
0.984001
0.983079
0.982703
0.98261
0.98236
0.981345
0.979442
0.979969
0.988663
1.196
1.91958
2.06478
2.06863
2.07168
2.07422
2.07037
2.0895
2.17578
2.2669
2.53078
2.77191
2.80169
2.79583
2.78979
2.78965
2.78312
2.77406
2.76956
2.77105
2.77703
2.77948
2.78161
2.78453
2.78707
2.78619
2.78736
2.78716
2.78873
2.79
2.79187
2.79511
2.79825
2.80201
2.80753
2.81531
2.82386
2.83214
2.84106
2.85089
2.86207
2.87529
2.89037
2.90664
2.92305
2.9401
2.95686
2.97053
2.97985
2.98632
2.99037
2.99189
2.99176
2.992
2.99243
2.99134
2.98873
2.98722
2.98782
2.9893
2.99236
2.99688
3.0054
3.01757
3.03155
3.04118
3.04686
3.04724
3.05224
1
1
0.999999
0.999999
0.999998
0.999997
0.999996
0.999993
0.99999
0.999984
0.999976
0.999963
0.999946
0.999922
0.999888
0.999842
0.99978
0.999698
0.999592
0.999457
0.999287
0.999076
0.99882
0.998512
0.998144
0.997724
0.997236
0.996653
0.996046
0.99541
0.994584
0.993723
0.992987
0.992076
0.990957
0.990081
0.989288
0.988162
0.987
0.986212
0.985483
0.984357
0.983135
0.982611
0.982434
0.982431
0.982327
0.981418
0.982753
1.00118
1.44877
2.01515
2.05267
2.0602
2.07017
2.09129
2.11071
2.15939
2.32583
2.51156
2.76449
2.84595
2.83289
2.80715
2.78975
2.77545
2.76423
2.75581
2.75146
2.75092
2.75252
2.75551
2.75781
2.76094
2.76401
2.76437
2.76584
2.76686
2.76959
2.77223
2.77455
2.77742
2.7802
2.78475
2.79175
2.80032
2.80855
2.81676
2.82647
2.83749
2.85024
2.86537
2.88202
2.89939
2.91705
2.93501
2.95197
2.9656
2.97501
2.98109
2.9844
2.98597
2.98665
2.98727
2.98714
2.98501
2.98231
2.98117
2.98138
2.98173
2.98407
2.98767
2.99635
3.00862
3.02201
3.03107
3.03711
3.03843
3.04298
1
1
0.999999
0.999999
0.999999
0.999998
0.999996
0.999994
0.99999
0.999985
0.999977
0.999965
0.999949
0.999926
0.999893
0.999849
0.99979
0.999711
0.999609
0.999479
0.999315
0.999109
0.99886
0.998561
0.998201
0.997784
0.997316
0.996744
0.996112
0.995505
0.994734
0.993822
0.99305
0.992237
0.991121
0.990129
0.989337
0.988421
0.98713
0.98617
0.985426
0.984552
0.98315
0.982202
0.981781
0.981545
0.981575
0.98121
0.983313
1.02258
1.70621
2.0746
2.0841
2.08511
2.08997
2.13309
2.18351
2.28944
2.55306
2.74636
2.85918
2.84923
2.82225
2.79913
2.77595
2.75761
2.74409
2.73538
2.73007
2.72753
2.72667
2.72845
2.73122
2.73476
2.73755
2.73829
2.74097
2.74337
2.74664
2.74975
2.75254
2.75556
2.75963
2.76584
2.774
2.78196
2.78984
2.79823
2.80887
2.8216
2.83641
2.85326
2.8711
2.88947
2.90831
2.92721
2.94468
2.95883
2.9689
2.97505
2.97835
2.98034
2.98131
2.98156
2.98062
2.97845
2.97628
2.97511
2.97458
2.9743
2.97635
2.97931
2.98794
2.9998
3.01226
3.02091
3.0274
3.02974
3.03432
1
1
0.999999
0.999999
0.999999
0.999998
0.999996
0.999994
0.999991
0.999986
0.999978
0.999967
0.999952
0.99993
0.999899
0.999857
0.999801
0.999726
0.999629
0.999504
0.999347
0.99915
0.998908
0.99862
0.998272
0.99786
0.997408
0.996862
0.996221
0.9956
0.994913
0.993988
0.99313
0.992377
0.991388
0.990224
0.989323
0.988519
0.987443
0.986189
0.985241
0.984409
0.983216
0.981763
0.980894
0.980536
0.980627
0.981222
0.988105
1.14141
1.87556
2.07236
2.08928
2.10195
2.11334
2.19491
2.31287
2.50667
2.77277
2.86233
2.85722
2.83276
2.80747
2.78281
2.76227
2.74453
2.7311
2.7215
2.71458
2.71017
2.70796
2.70749
2.70744
2.70892
2.71007
2.71076
2.71396
2.71783
2.72212
2.72581
2.72909
2.73308
2.73793
2.7442
2.7519
2.75926
2.76685
2.77654
2.78884
2.80336
2.82004
2.83826
2.85715
2.87671
2.8971
2.91751
2.93614
2.95136
2.96233
2.96879
2.9724
2.97459
2.97559
2.97543
2.97387
2.97195
2.97029
2.96885
2.96753
2.96706
2.96885
2.9716
2.97979
2.9909
3.00245
3.01107
3.01793
3.02116
3.02586
1
1
1
0.999999
0.999999
0.999998
0.999997
0.999995
0.999991
0.999987
0.99998
0.99997
0.999955
0.999935
0.999906
0.999867
0.999814
0.999744
0.999652
0.999533
0.999384
0.999197
0.998966
0.998689
0.998357
0.997957
0.997515
0.997004
0.996371
0.995715
0.995092
0.994226
0.993267
0.992501
0.991662
0.990447
0.989315
0.988449
0.987604
0.98647
0.98511
0.984064
0.983042
0.981569
0.98034
0.980004
0.980422
0.983305
1.00396
1.4161
1.98661
2.05179
2.07954
2.11623
2.15081
2.30029
2.51195
2.74707
2.86587
2.86015
2.83799
2.813
2.78706
2.76609
2.74692
2.73127
2.7195
2.71061
2.70338
2.69724
2.69239
2.68906
2.6872
2.68714
2.68782
2.68862
2.69102
2.69436
2.69864
2.70328
2.7061
2.71007
2.71451
2.72044
2.72818
2.73641
2.74395
2.75533
2.76931
2.78523
2.80326
2.82241
2.84194
2.86226
2.88403
2.90616
2.92635
2.94284
2.95473
2.96156
2.96543
2.9679
2.96923
2.96899
2.96719
2.96544
2.96394
2.96221
2.96058
2.96011
2.96143
2.96429
2.97179
2.98185
2.99269
3.00164
3.0088
3.01262
3.01735
1
1
1
0.999999
0.999999
0.999998
0.999997
0.999995
0.999992
0.999988
0.999982
0.999972
0.999959
0.99994
0.999914
0.999878
0.999828
0.999763
0.999678
0.999567
0.999427
0.999252
0.999034
0.99877
0.998457
0.998076
0.997639
0.997166
0.996562
0.995883
0.995266
0.994503
0.993482
0.992629
0.991872
0.99079
0.98939
0.988309
0.987461
0.98662
0.985389
0.983771
0.982535
0.981239
0.979499
0.978447
0.978799
0.984099
1.03833
1.71746
2.0469
2.07439
2.10215
2.1715
2.2514
2.51959
2.73299
2.85605
2.85368
2.83445
2.81205
2.78676
2.76617
2.74789
2.73245
2.72045
2.71104
2.70295
2.69564
2.68849
2.6818
2.67619
2.67237
2.67068
2.6701
2.66949
2.67026
2.67173
2.67503
2.68009
2.68452
2.6902
2.69511
2.70052
2.70743
2.71512
2.72222
2.7339
2.74852
2.76514
2.78376
2.80368
2.82409
2.84565
2.86934
2.89372
2.91574
2.93361
2.94643
2.95374
2.95801
2.96069
2.96234
2.96239
2.96071
2.95889
2.95736
2.95534
2.95373
2.95325
2.95412
2.95716
2.96367
2.97256
2.98311
2.99255
2.99964
3.00397
3.00863
1
1
1
0.999999
0.999999
0.999998
0.999997
0.999996
0.999993
0.999989
0.999984
0.999975
0.999963
0.999946
0.999922
0.999889
0.999845
0.999785
0.999707
0.999606
0.999476
0.999314
0.999113
0.998865
0.998573
0.998218
0.997793
0.997343
0.996792
0.996112
0.995465
0.994791
0.9938
0.992821
0.992047
0.991129
0.989655
0.988233
0.987186
0.986414
0.985583
0.984177
0.982289
0.980439
0.978575
0.97843
0.979696
0.995729
1.22902
1.92302
2.05486
2.08637
2.14185
2.28344
2.45751
2.74612
2.83355
2.83549
2.82046
2.80409
2.78201
2.76221
2.74571
2.73164
2.72022
2.71088
2.7032
2.69617
2.68933
2.68207
2.6742
2.66663
2.66038
2.65664
2.65443
2.65237
2.6518
2.65153
2.65341
2.65739
2.66155
2.66796
2.67383
2.67973
2.68668
2.69456
2.70312
2.71512
2.72941
2.7459
2.76446
2.78493
2.80633
2.8291
2.85436
2.88047
2.90403
2.92307
2.93654
2.94437
2.94969
2.95321
2.95534
2.95591
2.9545
2.95252
2.95057
2.94819
2.94651
2.94592
2.94688
2.94981
2.95551
2.9636
2.97385
2.98336
2.99059
2.99512
2.99955
1
1
1
0.999999
0.999999
0.999999
0.999998
0.999996
0.999994
0.999991
0.999986
0.999978
0.999968
0.999953
0.999932
0.999903
0.999863
0.99981
0.99974
0.999649
0.999532
0.999385
0.999203
0.998976
0.998704
0.998382
0.997984
0.997545
0.997052
0.996408
0.995713
0.995087
0.994214
0.993108
0.99224
0.991422
0.990098
0.988315
0.986994
0.986055
0.985493
0.984526
0.982764
0.979582
0.976587
0.976725
0.980443
1.02255
1.54856
2.05953
2.07391
2.12782
2.22329
2.49106
2.69183
2.82605
2.82035
2.80051
2.78678
2.76891
2.75149
2.73711
2.72586
2.71631
2.70818
2.70126
2.69479
2.68902
2.68297
2.67576
2.66726
2.65861
2.65058
2.64479
2.6406
2.63646
2.63433
2.63324
2.63466
2.63704
2.63985
2.64533
2.65141
2.65855
2.66654
2.67512
2.68537
2.69667
2.71015
2.72584
2.74379
2.7644
2.78656
2.81041
2.83696
2.86476
2.89014
2.91068
2.92497
2.93381
2.94068
2.94544
2.94831
2.94948
2.94834
2.94606
2.94356
2.94091
2.9392
2.93841
2.93957
2.94205
2.9473
2.95506
2.96458
2.97395
2.98159
2.98627
2.99013
1
1
1
1
0.999999
0.999999
0.999998
0.999997
0.999995
0.999992
0.999988
0.999982
0.999973
0.99996
0.999942
0.999917
0.999883
0.999837
0.999776
0.999697
0.999595
0.999465
0.999305
0.999104
0.998856
0.998568
0.998212
0.997785
0.997337
0.996764
0.996064
0.995413
0.994678
0.993569
0.992531
0.991706
0.990614
0.988684
0.986956
0.985832
0.985277
0.984701
0.983059
0.979446
0.97448
0.975161
0.987573
1.14592
1.86113
2.05601
2.1155
2.23172
2.43118
2.72229
2.82156
2.8173
2.79396
2.7762
2.75668
2.74005
2.72584
2.71535
2.70773
2.70158
2.69578
2.6908
2.68582
2.68061
2.67479
2.6676
2.65912
2.65078
2.64209
2.63424
2.62792
2.62188
2.61854
2.61704
2.61807
2.61905
2.62091
2.62528
2.63059
2.63771
2.64615
2.65532
2.66698
2.6788
2.69182
2.70676
2.72411
2.74416
2.7665
2.79137
2.81923
2.8485
2.87542
2.8972
2.91244
2.92314
2.93183
2.93787
2.94143
2.94287
2.94149
2.93872
2.93604
2.93344
2.93173
2.93085
2.93203
2.93413
2.93936
2.94686
2.95521
2.96425
2.97244
2.97774
2.98085
1
1
1
1
0.999999
0.999999
0.999998
0.999998
0.999996
0.999994
0.999991
0.999986
0.999978
0.999968
0.999953
0.999933
0.999905
0.999867
0.999817
0.999751
0.999666
0.999556
0.999418
0.999249
0.999033
0.998775
0.998473
0.998088
0.997657
0.997168
0.996522
0.995821
0.99518
0.994219
0.993008
0.992076
0.991132
0.989458
0.987299
0.985926
0.98524
0.984924
0.983538
0.979736
0.976565
0.98005
1.02241
1.51062
2.04376
2.07646
2.19477
2.4148
2.67146
2.81481
2.81111
2.78675
2.76826
2.74847
2.73082
2.71585
2.70424
2.69604
2.69043
2.68645
2.68284
2.67893
2.67474
2.66998
2.66384
2.65677
2.6487
2.6411
2.63287
2.62416
2.61649
2.60934
2.60506
2.60266
2.60285
2.60278
2.60364
2.60682
2.61115
2.61774
2.6261
2.63465
2.64644
2.65862
2.67221
2.68707
2.70369
2.72293
2.74529
2.7708
2.79923
2.82927
2.85764
2.88114
2.89854
2.91217
2.92299
2.93038
2.93453
2.93596
2.93363
2.9305
2.92811
2.92577
2.92414
2.92328
2.92422
2.92645
2.9317
2.93838
2.94551
2.95446
2.96302
2.96904
2.97194
1
1
1
1
1
0.999999
0.999999
0.999998
0.999997
0.999996
0.999993
0.99999
0.999984
0.999977
0.999966
0.99995
0.999929
0.9999
0.999862
0.99981
0.999743
0.999657
0.999546
0.999409
0.999235
0.999015
0.998764
0.998447
0.998047
0.997616
0.997076
0.996402
0.995766
0.995001
0.993789
0.992672
0.991791
0.990548
0.988286
0.986452
0.985382
0.984874
0.983748
0.97889
0.977499
0.990611
1.17016
1.88579
2.10249
2.20449
2.41965
2.67395
2.8105
2.80156
2.7737
2.75551
2.73687
2.72157
2.70838
2.69755
2.68955
2.68372
2.67896
2.67495
2.67177
2.66797
2.66382
2.6585
2.65212
2.64536
2.63801
2.63095
2.62383
2.61536
2.60691
2.59892
2.59365
2.59019
2.58917
2.58817
2.58802
2.58997
2.59273
2.59814
2.60558
2.61346
2.62525
2.63824
2.65224
2.66719
2.68389
2.70311
2.72526
2.75032
2.77808
2.80841
2.83852
2.8643
2.88441
2.90092
2.91373
2.92224
2.92658
2.92738
2.92435
2.92168
2.91975
2.91756
2.91603
2.91538
2.91617
2.91905
2.92413
2.92918
2.93548
2.94471
2.95379
2.95966
2.96229
1
1
1
1
1
1
0.999999
0.999999
0.999998
0.999998
0.999996
0.999994
0.999991
0.999986
0.999979
0.999969
0.999955
0.999936
0.99991
0.999875
0.999828
0.999768
0.999689
0.999587
0.99946
0.999292
0.99909
0.998858
0.998531
0.998143
0.997718
0.997162
0.99653
0.995908
0.994898
0.993677
0.9928
0.991874
0.990089
0.987891
0.986545
0.985774
0.984943
0.982026
0.98458
1.04036
1.58228
2.13219
2.20338
2.45158
2.64398
2.78544
2.78071
2.75124
2.73295
2.71484
2.69988
2.68863
2.67973
2.67257
2.66712
2.66297
2.66
2.65768
2.65579
2.65308
2.64925
2.6447
2.63927
2.63367
2.62753
2.62071
2.61353
2.60567
2.59757
2.58951
2.58386
2.57955
2.57722
2.57473
2.57366
2.57517
2.5765
2.58075
2.58703
2.59328
2.60432