/*--------------------------------*- C++ -*----------------------------------*\
| =========                 |                                                 |
| \\      /  F ield         | OpenFOAM: The Open Source CFD Toolbox           |
|  \\    /   O peration     | Version:  2.2.x                                 |
|   \\  /    A nd           | Web:      www.OpenFOAM.org                      |
|    \\/     M anipulation  |                                                 |
\*---------------------------------------------------------------------------*/
FoamFile
{
    version     2.0;
    format      ascii;
    class       surfaceScalarField;
    location    "0.25";
    object      cfmax;
}
// * * * * * * * * * * * * * * * * * * * * * * * * * * * * * * * * * * * * * //

dimensions      [0 3 -1 0 0 0 0];

internalField   nonuniform List<scalar> 
28084
(
0.00124603
0.00124043
0.00123837
0.00123837
0.00124237
0.00124685
0.00125868
0.00126955
0.00128106
0.00129034
0.00129039
0.00128888
0.00127721
0.00125432
0.0012191
0.00117964
0.00116593
0.00115332
0.00116404
0.00117444
0.00118982
0.00121916
0.00125452
0.00130406
0.00132822
0.00133388
0.00132591
0.00129895
0.00125608
0.00120301
0.00117638
0.00115661
0.00116185
0.00117399
0.00118186
0.00119339
0.00121624
0.00123488
0.00127297
0.00129227
0.00129625
0.00130418
0.00130335
0.00129487
0.00126965
0.00126966
0.00127194
0.00128095
0.00129497
0.00130578
0.00132001
0.00133113
0.00134452
0.00136269
0.00138296
0.00140138
0.00141693
0.0014383
0.00146317
0.00148962
0.00151817
0.00155097
0.00158812
0.00162253
0.00165296
0.00169762
0.0017545
0.00180451
0.00184286
0.00170124
0.0013573
0.00106583
0.000984533
0.00091143
0.000870841
0.000852832
0.000839165
0.000832502
0.000830317
0.000830278
0.000831309
0.000832999
0.000834701
0.000833956
0.000829439
0.000822805
0.000813529
0.000804874
0.000797593
0.000791317
0.000785007
0.000778903
0.000773369
0.000766977
0.000761174
0.000756405
0.000752168
0.000749346
0.000748665
0.000749914
0.000752182
0.000753768
0.000754479
0.000754519
0.000755252
0.000757514
0.000761495
0.000767571
0.000774858
0.000782049
0.000786701
0.000789747
0.000790037
0.000784938
0.000773836
0.000771992
0.000777531
0.000796808
0.00357582
0.00357019
0.00124289
0.00354167
0.00124118
0.00349373
0.00123234
0.00342042
0.00121951
0.00333018
0.00120021
0.00321773
0.00117808
0.00309577
0.0011489
0.00296728
0.00112035
0.00282814
0.00109079
0.00272257
0.00107374
0.00262822
0.00106586
0.00261279
0.00106986
0.00264725
0.00109769
0.00276246
0.00116084
0.00280261
0.00125653
0.0026331
0.00139267
0.0025475
0.00146311
0.00247884
0.00146776
0.00238874
0.00144904
0.00231956
0.00141534
0.00227135
0.0013624
0.00209213
0.00128177
0.001864
0.00117861
0.00168961
0.00110306
0.00156385
0.00108075
0.00149315
0.0010807
0.0014666
0.00109594
0.00150846
0.00112855
0.00156638
0.00124419
0.00148811
0.00137024
0.00136976
0.00146159
0.00132549
0.00149391
0.00127824
0.00148702
0.00121526
0.00145587
0.00115126
0.00143024
0.001104
0.00138914
0.00101725
0.00131577
0.000914371
0.00123642
0.000823366
0.00115928
0.000749678
0.00111723
0.000703373
0.00110755
0.000660867
0.00110727
0.000623728
0.00110796
0.000592768
0.00111163
0.000587017
0.00111339
0.000599142
0.00113003
0.000611772
0.00116425
0.000620786
0.00120381
0.000631835
0.00123714
0.000641577
0.00126484
0.000649266
0.00128879
0.000655029
0.00130861
0.000659353
0.00132488
0.000660981
0.00133956
0.000660081
0.00135102
0.000657595
0.00135934
0.00065414
0.0013635
0.000650384
0.00136494
0.000645879
0.00136282
0.000639954
0.00135586
0.000631319
0.00134699
0.000625768
0.00134513
0.000618282
0.00134898
0.000611033
0.00135286
0.000603861
0.00135753
0.000601691
0.0013621
0.000601504
0.00137335
0.000600234
0.00137969
0.00065206
0.00140018
0.000620308
0.000939565
0.000590174
0.0007525
0.000603478
0.000775292
0.000597835
0.00078279
0.000572048
0.000770561
0.000554814
0.000760402
0.00055139
0.000757613
0.000548623
0.00075499
0.000549335
0.000754624
0.000552848
0.000754496
0.000557918
0.000754072
0.000563372
0.000753035
0.000568761
0.000751253
0.000573574
0.000746525
0.000578247
0.000742296
0.000582604
0.000738382
0.000586654
0.000732966
0.000590437
0.000728475
0.000594698
0.000725761
0.000599288
0.00072472
0.000603873
0.000725357
0.000607656
0.000728784
0.000610205
0.000730447
0.000611493
0.000725937
0.000612198
0.00071653
0.000613504
0.00070876
0.00061584
0.000702934
0.000618853
0.000700034
0.00062302
0.000700101
0.000628258
0.000695122
0.000633566
0.000686677
0.000639092
0.000674214
0.00064495
0.000661233
0.000651031
0.000653125
0.000656139
0.000647409
0.000661206
0.00064459
0.000667318
0.000643102
0.000674097
0.000642424
0.000682633
0.000644241
0.000685495
0.00064736
0.000691497
0.000654056
0.000695287
0.000662156
0.000699934
0.000671486
0.000700106
0.000682024
0.000701465
0.000691846
0.000698191
0.000705067
0.000709751
0.000722715
0.000709427
0.000742312
0.00075309
0.000755119
0.0035815
0.00357461
0.00126805
0.00354891
0.00127081
0.00350593
0.00128624
0.003439
0.00131024
0.00335567
0.00134479
0.00324592
0.00138703
0.00312307
0.00143732
0.00299098
0.00148747
0.00285455
0.00153711
0.00274522
0.00156615
0.00264228
0.00157659
0.00260718
0.00156453
0.00265837
0.00154432
0.00276375
0.00147441
0.00276698
0.00134114
0.00241582
0.00118814
0.00217628
0.00107639
0.00204369
0.00106766
0.00195642
0.00108483
0.00196465
0.00109672
0.00210956
0.00119815
0.00215896
0.00135761
0.00194968
0.00156508
0.00176237
0.0016974
0.00162613
0.00173943
0.00152154
0.00173859
0.00146155
0.00168932
0.00150196
0.00162428
0.00157742
0.00150203
0.0014503
0.00133753
0.0012845
0.00118703
0.00116405
0.0011526
0.00107522
0.00115446
0.00100682
0.00114277
0.00098986
0.00116751
0.00100361
0.00124524
0.0010251
0.00138492
0.000939743
0.00152721
0.000863974
0.0016477
0.000793185
0.00171635
0.000731899
0.00174049
0.000685734
0.00174882
0.000642278
0.0017469
0.000604579
0.00170651
0.000587304
0.00167355
0.000602891
0.00164909
0.000620557
0.00161418
0.000634752
0.00158842
0.000645277
0.00156831
0.000654772
0.00155415
0.00066136
0.00154478
0.000664813
0.0015441
0.000666991
0.00156067
0.000666416
0.00158199
0.000664011
0.0016056
0.000660878
0.00163103
0.000656132
0.00165968
0.000650562
0.00169281
0.000643648
0.00172951
0.000635042
0.00177059
0.000623631
0.00181773
0.000614846
0.00186728
0.000604242
0.00192508
0.00059434
0.00198999
0.000586866
0.0020513
0.000583487
0.00210185
0.000584304
0.00214508
0.00058655
0.00218397
0.000621408
0.0022035
0.000593068
0.00200973
0.000600375
0.00163149
0.000591811
0.00115881
0.000592551
0.00107503
0.00057062
0.00104485
0.000552547
0.0010286
0.000549643
0.00101997
0.000548844
0.00101499
0.000548954
0.00100954
0.000550346
0.00100365
0.000553432
0.000998856
0.000557381
0.000994604
0.000561685
0.000991093
0.000566785
0.000989071
0.000572309
0.000987228
0.000577422
0.000982648
0.000581657
0.000975105
0.000585451
0.000964999
0.000589304
0.000954316
0.000593045
0.000943621
0.00059669
0.00093233
0.000600163
0.000921203
0.000602717
0.000910838
0.000604549
0.000901094
0.000606327
0.000891148
0.000607946
0.000880359
0.000609995
0.000868916
0.000612433
0.000857563
0.000614983
0.000846155
0.000617928
0.000834113
0.000622395
0.000822408
0.000628591
0.000811411
0.000637637
0.000801701
0.000649494
0.000793598
0.000661971
0.000787143
0.000671517
0.000780308
0.000678051
0.000771483
0.000679664
0.000761425
0.000682014
0.000751196
0.000683721
0.000740971
0.000688949
0.000731701
0.00069427
0.000723452
0.000700384
0.000716258
0.000702856
0.000707867
0.000712786
0.000708812
0.000717248
0.000719006
0.000733172
0.00073437
0.000736718
0.000756238
0.000758996
0.000761787
0.00355435
0.00354749
0.00125369
0.00350998
0.00125873
0.00343988
0.00124879
0.00333379
0.00122881
0.00319524
0.00119644
0.00302844
0.00115467
0.00285308
0.00110352
0.00267487
0.00107752
0.00251672
0.00107167
0.00237938
0.00107089
0.00228196
0.00108411
0.00218778
0.00109461
0.00223241
0.00111872
0.00259441
0.00116598
0.00282164
0.00136752
0.00247127
0.00165228
0.00216033
0.00181952
0.00195329
0.00182548
0.00191397
0.00178099
0.00198779
0.00169611
0.00212498
0.00158744
0.00213566
0.00145058
0.00182176
0.00122436
0.00159478
0.00115682
0.00144099
0.00116609
0.00132642
0.00117674
0.00124196
0.0011764
0.00132619
0.00120627
0.00153194
0.0013078
0.00146525
0.00159636
0.00128308
0.00185323
0.00114202
0.00194575
0.00102967
0.00194286
0.00097596
0.00190005
0.000991772
0.00181832
0.00102894
0.00171742
0.00106138
0.00159043
0.000941296
0.00140587
0.000825502
0.00127388
0.000737849
0.00123931
0.000671841
0.00123465
0.000615622
0.00123385
0.000569736
0.00123637
0.000528227
0.00123522
0.000562832
0.00125544
0.000572476
0.00127758
0.000590477
0.0013081
0.000608244
0.00134701
0.000624197
0.00139592
0.000640591
0.00144324
0.000655451
0.00147869
0.000669031
0.00151054
0.000678139
0.00153964
0.000684136
0.00156323
0.000687987
0.00157929
0.000691975
0.0015903
0.000694863
0.0015969
0.000697791
0.00160288
0.000700618
0.00160783
0.000700133
0.00161074
0.0006981
0.00160807
0.000696644
0.00160234
0.000694181
0.0015926
0.000689391
0.00158231
0.000685514
0.00158357
0.000686411
0.00159034
0.000686812
0.0016026
0.00069151
0.00161743
0.000677274
0.00165804
0.000597383
0.00113781
0.000663459
0.000948516
0.000643074
0.000963829
0.00062556
0.000941315
0.000587838
0.000916376
0.000566038
0.000898169
0.000561563
0.000883866
0.000559862
0.000877485
0.000558764
0.000871301
0.000559125
0.000863314
0.000561993
0.000856347
0.000565896
0.00084968
0.00057042
0.000844423
0.000576245
0.000840067
0.000584226
0.000836453
0.000592127
0.000832546
0.000598189
0.000828148
0.000603234
0.000823558
0.000608066
0.00081897
0.000612477
0.00081443
0.000616159
0.000809582
0.000619311
0.000804764
0.000622202
0.000800152
0.000625513
0.000795685
0.000629038
0.000791202
0.000630818
0.000787453
0.000631944
0.000784081
0.000633425
0.000780602
0.000635979
0.000777623
0.000638758
0.000774526
0.000643293
0.000771615
0.00064937
0.000768952
0.000657972
0.000766217
0.000668587
0.000762916
0.000679648
0.00075983
0.000686424
0.000755568
0.000691135
0.000749981
0.000693678
0.000743807
0.000697809
0.000737438
0.00069943
0.000731007
0.000703311
0.000724015
0.000702009
0.000716001
0.00070253
0.000706301
0.000702179
0.000692221
0.000716597
0.000695326
0.000723703
0.000708267
0.000745836
0.000728362
0.000757972
0.000753727
0.0007711
0.000767188
0.00356107
0.00355168
0.0012944
0.00351211
0.0013049
0.00344195
0.00133353
0.00333558
0.00137478
0.00319799
0.0014305
0.00302865
0.00149756
0.00284531
0.00157251
0.00265693
0.00164742
0.00248264
0.00171258
0.00232861
0.00175617
0.00223422
0.00177578
0.00215324
0.00177455
0.00219777
0.00175098
0.00259962
0.00167366
0.00280956
0.0015028
0.00237872
0.00129421
0.00206549
0.00112266
0.00189191
0.00113677
0.00180708
0.00113221
0.00186042
0.0011684
0.0019962
0.00125322
0.00213068
0.00150436
0.00184359
0.00182769
0.00161962
0.00200354
0.00146568
0.00204852
0.00135904
0.00204389
0.00127133
0.00200589
0.00130789
0.00194319
0.00153089
0.00178485
0.00146772
0.00157076
0.00125984
0.00131347
0.0011196
0.00126649
0.00101725
0.00125817
0.000957133
0.00127137
0.000915809
0.00129091
0.000938802
0.00132728
0.000999647
0.00150419
0.000928101
0.00172279
0.000834648
0.00194154
0.000752069
0.00206559
0.000691815
0.00212115
0.000638154
0.00214549
0.000594858
0.00214969
0.000562787
0.00210283
0.000544651
0.00205081
0.000569895
0.00198868
0.000595431
0.00193796
0.000617974
0.00190196
0.000640368
0.00186365
0.000657606
0.0018286
0.0006719
0.00180838
0.0006838
0.00180308
0.000692501
0.00180406
0.000694394
0.00180507
0.000693384
0.00180654
0.000693724
0.00181213
0.000693437
0.00183009
0.000691905
0.00184667
0.000691602
0.00186417
0.000689219
0.00188649
0.000685044
0.00191637
0.000681097
0.00195224
0.000674462
0.00198751
0.000666221
0.00201666
0.000657732
0.00207226
0.00065598
0.00211907
0.000657448
0.00214652
0.000668689
0.00215224
0.00070701
0.00214441
0.000634646
0.00202659
0.00065552
0.00128255
0.000656425
0.00112605
0.000635224
0.00107626
0.000596315
0.0010399
0.000574688
0.00100489
0.000569943
0.000985398
0.000569109
0.000971099
0.000567574
0.000961878
0.000566057
0.000950769
0.000566958
0.000939734
0.000567473
0.000930429
0.00056665
0.000921496
0.000564672
0.000910875
0.000565525
0.000899879
0.000568283
0.000888906
0.000571406
0.000878733
0.000575016
0.000868227
0.000579939
0.000857303
0.000586322
0.000847145
0.000593489
0.000837871
0.000600949
0.000829568
0.000609333
0.00082215
0.000618604
0.000815805
0.000626378
0.000810034
0.000630988
0.00080385
0.000636853
0.000796517
0.00064398
0.000788101
0.000651961
0.000779176
0.000659427
0.000769716
0.000667014
0.000759837
0.000674261
0.00074968
0.000681748
0.000739588
0.000688519
0.000730294
0.000695544
0.000721736
0.000700166
0.00071532
0.000704919
0.000710482
0.000706085
0.000707173
0.000710266
0.000703822
0.000711406
0.000701759
0.000714016
0.000698755
0.000711455
0.000694093
0.000712391
0.000689258
0.000705816
0.000684844
0.000718382
0.000691878
0.000726526
0.000704937
0.000755232
0.000726735
0.000774317
0.000755384
0.000784765
0.000787204
0.00355782
0.00355268
0.00127667
0.00351259
0.00128901
0.00343497
0.00128257
0.00331652
0.00126257
0.00315975
0.00122676
0.00297241
0.001177
0.0027794
0.00112909
0.00258839
0.00112062
0.00242532
0.00112077
0.00231745
0.00113054
0.00220641
0.00114766
0.00209835
0.00114177
0.00224957
0.00118302
0.00246405
0.00128052
0.00282124
0.00148238
0.00241765
0.00186728
0.00206795
0.00208887
0.00185555
0.00208811
0.00169032
0.00203934
0.0018491
0.00194907
0.0020796
0.00180995
0.00220393
0.00164024
0.00186558
0.00137667
0.00158692
0.00127663
0.00142816
0.00126468
0.00129348
0.00126927
0.00120097
0.00127478
0.00116802
0.0013178
0.00135191
0.00134914
0.00145655
0.00163126
0.00126485
0.0020305
0.00110465
0.00220016
0.000997066
0.00226624
0.000911047
0.00224286
0.000884802
0.00217283
0.00096266
0.00205674
0.00103728
0.00188647
0.00099963
0.00170833
0.000868112
0.00148134
0.000766374
0.00141557
0.000688201
0.0013854
0.000621275
0.00137327
0.000574572
0.00137961
0.000527012
0.00137973
0.000574195
0.00139655
0.000587386
0.00143991
0.00060825
0.0014756
0.000627626
0.00150939
0.000647199
0.00155278
0.000666421
0.00161215
0.000680166
0.00166467
0.000693154
0.00171193
0.000703835
0.00175497
0.000710487
0.00179154
0.000716849
0.00182375
0.000725348
0.00185476
0.000735179
0.00188791
0.000744483
0.00192375
0.000755987
0.00196048
0.000774241
0.00200166
0.00078093
0.00202465
0.000790347
0.00203424
0.000792434
0.0020297
0.000791816
0.00202892
0.000792256
0.0020312
0.000790253
0.00203616
0.000792747
0.00205163
0.000807387
0.00209335
0.000841139
0.00218667
0.000799392
0.00231602
0.00071429
0.00136862
0.000707612
0.001224
0.00067663
0.00116901
0.000636473
0.00112403
0.00060569
0.00108036
0.000594955
0.00104108
0.000588036
0.00101537
0.000583435
0.000996813
0.000577902
0.000980162
0.000574916
0.000964865
0.000571239
0.000951885
0.000567587
0.000938305
0.000566943
0.000925916
0.000568859
0.000915131
0.000572781
0.000905332
0.000576982
0.000896122
0.000581102
0.000886006
0.000586055
0.000876375
0.000592566
0.000867218
0.000600019
0.000858187
0.000607718
0.00084918
0.00061624
0.000840412
0.000625606
0.000832284
0.000634827
0.000825337
0.000643163
0.000819007
0.000650808
0.000811254
0.000658896
0.00080296
0.000666976
0.000794732
0.000673474
0.000786001
0.000679417
0.000776374
0.000684628
0.000765474
0.000689701
0.000753948
0.000694638
0.000741431
0.000700943
0.000729945
0.000706253
0.000721013
0.000712026
0.000713764
0.000714563
0.000708039
0.000717961
0.000702406
0.000715871
0.00069692
0.000715585
0.000690153
0.00070894
0.000681499
0.000710489
0.000676915
0.000712729
0.000680809
0.000725727
0.000689827
0.000727406
0.000704291
0.000760407
0.000721487
0.000785587
0.000748659
0.000805378
0.000809174
0.00355256
0.00354996
0.001324
0.00350108
0.00134119
0.00340789
0.00137784
0.0032861
0.00142883
0.0031277
0.00149658
0.00293785
0.00157902
0.00273737
0.00167054
0.00253759
0.00176242
0.00235669
0.00184613
0.00221615
0.00190974
0.00210132
0.00193546
0.00196474
0.00194534
0.00217619
0.00192229
0.00251433
0.00184141
0.00291855
0.00169358
0.00244723
0.00146196
0.00206319
0.00121892
0.00184207
0.00121339
0.00175386
0.00122332
0.00172901
0.00126889
0.00192938
0.00130084
0.00210585
0.00156696
0.00180843
0.00194491
0.00157971
0.00223232
0.00140622
0.00231168
0.00129574
0.00231086
0.00120063
0.00227421
0.00115369
0.00221877
0.00136887
0.00210903
0.00155784
0.00184851
0.00132703
0.00158216
0.00114839
0.00143441
0.00102318
0.00138704
0.000934873
0.00140187
0.000882608
0.00142173
0.000844569
0.00144368
0.000866329
0.00149018
0.00092631
0.00168009
0.000835516
0.0019514
0.000762737
0.0022042
0.000679843
0.00234419
0.000632765
0.00241782
0.000587654
0.00242346
0.000551992
0.00240054
0.000539191
0.00233491
0.000569778
0.00227974
0.000601852
0.0022315
0.000627612
0.00218228
0.000652046
0.00213793
0.000672955
0.00208898
0.000689687
0.00205693
0.000704597
0.00203221
0.000711783
0.00200824
0.000718138
0.00198356
0.000724624
0.00196131
0.000732149
0.00193748
0.000732684
0.0019093
0.000717673
0.00187952
0.000711686
0.00184316
0.000696775
0.0017995
0.000684667
0.00175244
0.000680653
0.00173489
0.000678279
0.00174609
0.000686046
0.00176389
0.000703229
0.00181706
0.000723482
0.00188558
0.000762989
0.00196844
0.000789697
0.00207737
0.000813239
0.00214764
0.00085291
0.0022614
0.000790856
0.00146082
0.000765721
0.00132953
0.00071246
0.00127182
0.00067265
0.0012331
0.000636356
0.00120321
0.000615882
0.00116522
0.000604977
0.00112789
0.000597302
0.00110012
0.000590815
0.00107403
0.000585174
0.00105149
0.000578482
0.00103335
0.000572827
0.00101819
0.000573041
0.00100038
0.000576477
0.000985777
0.000582353
0.000971909
0.000588336
0.000958
0.000593653
0.000943547
0.000599137
0.000929079
0.000605725
0.00091492
0.000612849
0.000901678
0.000619283
0.00088882
0.00062513
0.000875059
0.000632177
0.000860615
0.000639602
0.000847372
0.000648524
0.00083614
0.000657376
0.000826754
0.000666565
0.000818223
0.000674165
0.000810277
0.00068083
0.000801722
0.000687248
0.0007923
0.000692466
0.000781538
0.000697589
0.000769885
0.000701348
0.000756625
0.000707182
0.000743327
0.000713256
0.000733958
0.000720604
0.000725715
0.000724231
0.000719534
0.000727027
0.000712998
0.000723266
0.000705635
0.000721027
0.000696258
0.000711452
0.000683445
0.00071602
0.000680426
0.000719177
0.000684903
0.00073198
0.000693702
0.000732601
0.000707106
0.000765058
0.000722011
0.00079632
0.000748006
0.000826053
0.000820956
0.00358047
0.0035783
0.00131223
0.00354456
0.00133215
0.00347821
0.00133482
0.00337248
0.00132503
0.00322234
0.0012979
0.00303619
0.00125161
0.00283406
0.00119568
0.00263291
0.00118868
0.00244852
0.00118778
0.00233566
0.00119793
0.00223077
0.00121909
0.00214575
0.00121506
0.00226273
0.00127184
0.00252394
0.00137245
0.00284369
0.00156071
0.0024163
0.00198983
0.00205257
0.00233747
0.00181387
0.00233956
0.00162727
0.00229209
0.00167948
0.00220351
0.00198479
0.00205855
0.00231756
0.00184461
0.00198676
0.00162794
0.00168919
0.00143401
0.00148652
0.00139581
0.00133729
0.00138555
0.00123621
0.00140425
0.00117133
0.00141996
0.00119635
0.00145318
0.00141884
0.00160535
0.001296
0.00201446
0.00113419
0.00238555
0.0010132
0.00252671
0.000920761
0.00256585
0.000840123
0.00250512
0.000820757
0.00240469
0.000895594
0.00231165
0.000981363
0.00214054
0.000974546
0.00197834
0.0008482
0.00173423
0.000763132
0.001611
0.000669184
0.00157262
0.000612324
0.00156136
0.000547959
0.00154113
0.000610999
0.00156388
0.000622123
0.00159659
0.000640354
0.00164002
0.000657158
0.00167913
0.00066897
0.00172978
0.000682984
0.00177984
0.000697257
0.00183363
0.000710233
0.00188621
0.000720903
0.00193682
0.000727938
0.0019865
0.000738595
0.00203909
0.000739567
0.0021004
0.000727046
0.00217119
0.00071738
0.00225275
0.000698358
0.00234527
0.000678724
0.00244155
0.000663246
0.00253736
0.000654474
0.00260232
0.000661697
0.00263615
0.000676194
0.00261959
0.000698275
0.00260715
0.000726059
0.00259258
0.00075892
0.00257692
0.000784149
0.00256373
0.000790686
0.00254916
0.000866342
0.00255136
0.000824692
0.00199876
0.00079503
0.00151971
0.000744495
0.00143189
0.00071161
0.00138965
0.000691274
0.00136967
0.00067192
0.0013444
0.000655081
0.00131177
0.000642203
0.00126664
0.000630907
0.00122052
0.000618252
0.00118177
0.000607603
0.0011452
0.000601558
0.00111673
0.00059991
0.001093
0.000601825
0.00106879
0.000605771
0.00104539
0.000609233
0.00102103
0.000610799
0.000997777
0.000613617
0.00097779
0.000618622
0.000958896
0.000624758
0.000941081
0.000630794
0.00092488
0.000636763
0.000909624
0.000643125
0.000892153
0.000650764
0.000874463
0.000659867
0.000858891
0.000668025
0.000846283
0.000674221
0.000834408
0.00067965
0.000822798
0.00068653
0.000812532
0.000693607
0.000803314
0.000699066
0.000793209
0.000704524
0.00078147
0.000708394
0.000768388
0.000714088
0.000753008
0.000721362
0.000743668
0.000729467
0.000736161
0.000734007
0.000731213
0.000738123
0.000725897
0.000733946
0.00071916
0.000731224
0.000709398
0.000720523
0.000695196
0.000723229
0.000690676
0.00072587
0.000692815
0.000737691
0.00070113
0.000739954
0.000713009
0.000773191
0.000727962
0.000807259
0.000753483
0.000841048
0.000827283
0.0035808
0.00358105
0.00135782
0.00353903
0.00138102
0.00345623
0.00142024
0.00332479
0.00147146
0.00314308
0.00153998
0.00295508
0.00162889
0.00275149
0.00173231
0.00254844
0.00183988
0.00237057
0.00194516
0.00221187
0.00203336
0.00207254
0.00210037
0.00193979
0.00210007
0.00216317
0.00208733
0.0025347
0.00200413
0.00295786
0.00183943
0.00255567
0.0016367
0.00215193
0.00134817
0.00188611
0.00128827
0.0017506
0.00132144
0.00170632
0.00136037
0.00187701
0.00138795
0.00210298
0.00160748
0.00183318
0.00196056
0.00160188
0.00240382
0.00140721
0.00256674
0.00128059
0.00261678
0.00117494
0.00255352
0.00109784
0.0025078
0.00123093
0.00241635
0.00146665
0.00222759
0.00143304
0.00195806
0.00122983
0.00164229
0.00107471
0.00157013
0.00096154
0.0015469
0.000880689
0.00156053
0.000817649
0.00156815
0.000794739
0.00160196
0.000812678
0.00163914
0.00085952
0.00181605
0.000803771
0.00212907
0.000716065
0.00241566
0.000665143
0.00257218
0.000605466
0.00264199
0.000573012
0.00263808
0.000563632
0.00260397
0.000589635
0.00254573
0.000617618
0.00249997
0.000643353
0.00246286
0.000660164
0.00242668
0.000679605
0.00238026
0.000697192
0.00234219
0.000714151
0.00231047
0.000728854
0.00227758
0.000740207
0.00224064
0.000754916
0.00219773
0.000769888
0.00215383
0.00075699
0.00210332
0.000738598
0.00203944
0.000720653
0.00195848
0.000700383
0.00186613
0.000680032
0.00179027
0.000662724
0.00177073
0.000649428
0.00174545
0.000653311
0.0017445
0.000667252
0.00176321
0.00069576
0.00181217
0.000733403
0.00193571
0.000784183
0.00207999
0.000813669
0.00230935
0.000920409
0.00244308
0.00085304
0.00234064
0.000819139
0.00157824
0.000775228
0.00154545
0.000744002
0.00153403
0.000733751
0.00151504
0.000731119
0.0015094
0.000721498
0.00149485
0.000709342
0.00145745
0.000691477
0.00139754
0.000667225
0.00134419
0.000648268
0.00128022
0.000636159
0.00123183
0.00063223
0.00119222
0.00063044
0.00115842
0.000631444
0.0011291
0.000632287
0.00109695
0.000632296
0.00106288
0.000634242
0.00103001
0.000636965
0.00100375
0.000642425
0.000979383
0.000648556
0.000956438
0.00065509
0.000936417
0.000661765
0.000918554
0.000667515
0.000900318
0.000673752
0.000883748
0.00067954
0.000869103
0.000682991
0.000854359
0.000686046
0.000839575
0.000690443
0.000825575
0.000698496
0.000813082
0.000704792
0.000801753
0.000710633
0.000789118
0.000714997
0.000775334
0.000719695
0.000759529
0.000727272
0.00075012
0.000736049
0.000742302
0.000741456
0.000738338
0.000747956
0.00073501
0.000745005
0.000729858
0.000743212
0.000721797
0.000732068
0.000708333
0.0007334
0.000702624
0.000733394
0.000701525
0.000745453
0.000708852
0.000747892
0.000720306
0.000781108
0.000735651
0.000819426
0.000761609
0.000853701
0.000833863
0.00361657
0.00361651
0.00135822
0.00359239
0.00138524
0.00354492
0.00139999
0.00346925
0.00140641
0.00335825
0.00140016
0.00320495
0.00137661
0.00301031
0.00133214
0.00280177
0.00128478
0.00260014
0.00128425
0.00242065
0.00128655
0.002314
0.0013075
0.00219831
0.00130138
0.00237862
0.00136853
0.00258652
0.00148862
0.00279676
0.00166927
0.00242482
0.00203441
0.00206164
0.00251271
0.00178963
0.00258704
0.00162157
0.0025424
0.00160393
0.00245734
0.00189779
0.00230082
0.00220036
0.00208796
0.00214196
0.00189899
0.00183275
0.00164913
0.00158128
0.00154595
0.00142132
0.00152861
0.00129063
0.00153757
0.00119609
0.00151912
0.00123835
0.00158702
0.00131779
0.00169907
0.00134747
0.00200879
0.00117496
0.00248293
0.00104284
0.00280364
0.000941917
0.002932
0.000857009
0.00294174
0.000783953
0.00288075
0.00076298
0.00279537
0.00082178
0.00266674
0.000908895
0.00245165
0.000943995
0.00222904
0.000849316
0.00201665
0.000739177
0.00181978
0.000676973
0.00176888
0.000610275
0.00176083
0.00066502
0.00175387
0.000662793
0.00178116
0.00067727
0.00181442
0.000682977
0.00185181
0.00068826
0.00189697
0.00069299
0.00193992
0.000701184
0.00198208
0.0007137
0.00202332
0.000731269
0.00206547
0.000743507
0.00213598
0.000754669
0.00219413
0.000767514
0.00226658
0.000747236
0.00235494
0.000719164
0.00247076
0.000686895
0.00262055
0.000650343
0.00280318
0.000607425
0.0030079
0.000580017
0.00323228
0.000565656
0.00337276
0.000583433
0.00340241
0.000607385
0.00336943
0.000648159
0.00330893
0.000693844
0.00322916
0.000764577
0.00313328
0.000819375
0.00302124
0.000820902
0.00289271
0.000900867
0.00275378
0.000831813
0.00230347
0.000816129
0.00185601
0.000799697
0.00177692
0.00079517
0.00173469
0.000806033
0.00171531
0.000808775
0.00168575
0.000799811
0.00164879
0.000775887
0.00158618
0.000741563
0.00150923
0.000705817
0.00143146
0.000680965
0.00135112
0.000670171
0.00128693
0.000664996
0.00124094
0.000665128
0.00120002
0.00066533
0.00116696
0.000661686
0.00112983
0.000658149
0.00108976
0.000658564
0.00105751
0.000662765
0.00102644
0.000667415
0.000997917
0.000672852
0.000974008
0.00067871
0.000955429
0.000683612
0.00093534
0.000687938
0.000915245
0.000692692
0.000896417
0.000695885
0.000878777
0.000698053
0.000860926
0.000700218
0.00084313
0.000705479
0.000826564
0.000710998
0.000811863
0.000716366
0.000798034
0.000720648
0.000783513
0.000724554
0.000767417
0.000731804
0.000757163
0.000740713
0.00074888
0.000746748
0.000745174
0.000756137
0.000743638
0.000756448
0.000741277
0.000756276
0.000736388
0.000745306
0.000725452
0.000745392
0.000716171
0.000741842
0.000714116
0.000753676
0.000720531
0.000758957
0.00073191
0.000791402
0.000750172
0.000835103
0.000775782
0.00086543
0.000841707
0.00362454
0.00362643
0.00139868
0.00359644
0.00142781
0.00353723
0.00146731
0.00344223
0.00151414
0.00330217
0.00157252
0.00311021
0.00164814
0.0028781
0.00174669
0.00267292
0.00186633
0.00248185
0.00199258
0.00229978
0.0021214
0.00215389
0.0022261
0.00199179
0.00224436
0.00225919
0.00223325
0.00258063
0.00214201
0.0029113
0.00198082
0.00268765
0.00179237
0.00230134
0.00151929
0.00199289
0.00141952
0.00180124
0.00140339
0.00182219
0.00147278
0.00191631
0.0015297
0.00210416
0.00169553
0.00198618
0.00205098
0.00165128
0.00244808
0.00144362
0.00282316
0.0012889
0.00292841
0.00116281
0.00293954
0.00109058
0.00284572
0.00121678
0.00274834
0.00137764
0.00257468
0.00156425
0.0023087
0.00135097
0.00204445
0.00117343
0.00177985
0.00103749
0.00173083
0.000932609
0.00171888
0.00084554
0.00171802
0.00080156
0.00173495
0.000756859
0.00175486
0.000772351
0.00179759
0.000785435
0.00197003
0.000765259
0.00226776
0.000711174
0.00259561
0.000645282
0.00278912
0.000614936
0.00288888
0.000605854
0.00289085
0.000634369
0.00285668
0.000642763
0.00282245
0.000654323
0.00278264
0.000664811
0.00275172
0.000675081
0.00272455
0.000687639
0.00270972
0.000702552
0.00269682
0.000726004
0.00268229
0.000745141
0.00265563
0.000765146
0.00263057
0.00079165
0.00258054
0.000815934
0.00250353
0.000811321
0.00244024
0.000794216
0.002361
0.000766782
0.00224029
0.000734354
0.00210776
0.000711136
0.00196521
0.000686644
0.00192624
0.000670309
0.00188816
0.000645463
0.00188737
0.000660786
0.00189223
0.000687988
0.00193331
0.000741113
0.00213608
0.000848328
0.00243599
0.000989274
0.00275824
0.000891832
0.00305576
0.000816398
0.00224549
0.000857683
0.00186297
0.000849556
0.00188727
0.000843302
0.00190163
0.000845671
0.00189083
0.000849595
0.00186273
0.000855527
0.00181146
0.000842455
0.00174549
0.000813058
0.00164749
0.000774094
0.00154514
0.000736317
0.00143597
0.000711925
0.00135405
0.000705015
0.00129868
0.000703988
0.00125447
0.000703093
0.00121074
0.000696891
0.00117282
0.00068875
0.00112673
0.00068646
0.00109302
0.000688879
0.00106175
0.00069053
0.00103502
0.000693206
0.00101424
0.000698969
0.000997811
0.000703467
0.000977099
0.000706449
0.000953264
0.000709707
0.000930386
0.000711941
0.0009088
0.000712453
0.000886054
0.000712247
0.000863334
0.000714955
0.000842283
0.000718298
0.000824661
0.000722261
0.000808987
0.000725553
0.000793885
0.000728714
0.000777318
0.000735424
0.00076583
0.000743808
0.000756567
0.000750275
0.000751715
0.000762239
0.000750813
0.00076585
0.000751765
0.000769255
0.000748316
0.00076035
0.000740674
0.000757019
0.000725563
0.000751707
0.000724791
0.000764412
0.000731226
0.000773944
0.000744181
0.000805592
0.000767201
0.000853074
0.00079221
0.000878712
0.000849516
0.00366055
0.00366107
0.00141225
0.00364501
0.00144559
0.00361372
0.00147202
0.00356491
0.00149436
0.00349403
0.00151011
0.00339463
0.00151571
0.00325992
0.00150642
0.00308553
0.00147804
0.00287193
0.00142635
0.00265797
0.00140963
0.00246622
0.00141195
0.00232021
0.00140736
0.002481
0.00148867
0.00262618
0.00159101
0.00280341
0.00178837
0.00248975
0.00210368
0.00209373
0.00252657
0.00180036
0.00280086
0.00158858
0.00277095
0.0016791
0.0027026
0.00190006
0.00256578
0.00215792
0.00236651
0.00227728
0.0021874
0.0019992
0.00197621
0.00172097
0.00173836
0.00151259
0.00166928
0.0013833
0.00169184
0.0012809
0.00167859
0.00131075
0.0017626
0.0013757
0.00185132
0.00146177
0.00212658
0.00122186
0.00253667
0.00108209
0.00303489
0.00097202
0.00331388
0.000877925