/*--------------------------------*- C++ -*----------------------------------*\
| =========                 |                                                 |
| \\      /  F ield         | OpenFOAM: The Open Source CFD Toolbox           |
|  \\    /   O peration     | Version:  2.2.x                                 |
|   \\  /    A nd           | Web:      www.OpenFOAM.org                      |
|    \\/     M anipulation  |                                                 |
\*---------------------------------------------------------------------------*/
FoamFile
{
    version     2.0;
    format      ascii;
    class       volScalarField;
    location    "2.55";
    object      Ma;
}
// * * * * * * * * * * * * * * * * * * * * * * * * * * * * * * * * * * * * * //

dimensions      [0 0 0 0 0 0 0];

internalField   nonuniform List<scalar> 
14161
(
2.62398
2.62185
2.62175
2.62139
2.62071
2.61946
2.61778
2.61556
2.61268
2.60906
2.6046
2.59919
2.59272
2.5851
2.57624
2.56607
2.55468
2.54198
2.52801
2.51283
2.49597
2.47828
2.45987
2.44085
2.42141
2.40156
2.38071
2.35873
2.33707
2.31638
2.29772
2.27761
2.25195
2.20902
2.09083
1.74118
1.09407
0.729994
0.621464
0.601785
0.604967
0.622512
0.640264
0.65557
0.668267
0.679496
0.690127
0.70006
0.709554
0.718617
0.727486
0.735953
0.744277
0.752589
0.760402
0.768485
0.776135
0.78357
0.79128
0.798205
0.805017
0.812173
0.818882
0.825762
0.832956
0.839629
0.84662
0.853988
0.860787
0.867724
0.875328
0.882578
0.890246
0.898033
0.905363
0.912669
0.920433
0.92853
0.936534
0.945185
0.953919
0.962337
0.97114
0.98028
0.989343
0.998487
1.00849
1.01888
1.02916
1.03997
1.05092
1.06192
1.07359
1.08611
1.09841
1.11178
1.12617
1.14038
1.1534
1.16532
1.17631
1.18487
1.18984
1.19318
1.18779
1.16937
1.12687
1.04912
0.930098
0.781358
0.638485
0.517092
0.418445
0.33917
0.272689
0.210835
0.154041
0.0976725
0.0658168
2.62401
2.62187
2.62178
2.6214
2.62068
2.61947
2.6178
2.61559
2.61274
2.60912
2.60466
2.59925
2.59279
2.58516
2.57622
2.56606
2.55468
2.54209
2.52799
2.51273
2.49598
2.4783
2.45985
2.44084
2.42135
2.40146
2.38062
2.35877
2.33713
2.31643
2.29773
2.27746
2.25182
2.2094
2.09191
1.74742
1.10044
0.734764
0.627419
0.608909
0.613084
0.631418
0.649378
0.664402
0.676743
0.687653
0.698028
0.707696
0.717021
0.725765
0.734409
0.742562
0.750612
0.758765
0.766426
0.774457
0.782114
0.789474
0.797
0.803862
0.810665
0.817855
0.824577
0.831379
0.838527
0.84524
0.852316
0.859724
0.866638
0.873555
0.881036
0.888262
0.895961
0.903821
0.911227
0.918472
0.926093
0.934242
0.942243
0.950695
0.959188
0.96747
0.976278
0.985686
0.994876
1.00405
1.01408
1.02469
1.03516
1.04603
1.05686
1.06767
1.07905
1.09149
1.10349
1.11624
1.12934
1.14197
1.15311
1.16313
1.17095
1.17439
1.17468
1.16709
1.14658
1.1058
1.03492
0.929981
0.795464
0.656887
0.534323
0.434838
0.358126
0.295064
0.240215
0.190564
0.150271
0.108008
0.10605
2.62408
2.62196
2.62185
2.62142
2.62067
2.61951
2.61786
2.61565
2.61279
2.60917
2.60472
2.59931
2.59286
2.58529
2.57634
2.56618
2.55482
2.54226
2.52811
2.51286
2.49626
2.47862
2.45999
2.44092
2.42142
2.40158
2.38073
2.35912
2.33765
2.31683
2.29781
2.27748
2.25184
2.20945
2.09364
1.75747
1.11004
0.740577
0.634352
0.616736
0.621653
0.640386
0.658284
0.673077
0.685207
0.696035
0.70629
0.715932
0.725223
0.733985
0.742498
0.750648
0.758478
0.766415
0.773858
0.781413
0.788858
0.795853
0.803102
0.810052
0.816689
0.823719
0.830526
0.837188
0.844316
0.851232
0.858137
0.865512
0.872581
0.879435
0.886697
0.894164
0.901688
0.909486
0.916864
0.923889
0.931307
0.939386
0.947142
0.955217
0.963712
0.97195
0.980606
0.989659
0.998762
1.00804
1.01806
1.02895
1.03971
1.05076
1.06166
1.07243
1.08322
1.09488
1.106
1.11687
1.12767
1.13764
1.1457
1.1512
1.15303
1.14986
1.13708
1.111
1.06527
0.994271
0.89037
0.767127
0.637963
0.526584
0.441541
0.371979
0.314993
0.265648
0.226472
0.18978
0.166232
0.139779
0.153947
2.62419
2.62207
2.62195
2.62148
2.62073
2.61958
2.61796
2.61577
2.61293
2.60934
2.60489
2.59949
2.59305
2.58547
2.57654
2.56643
2.55507
2.54246
2.52826
2.51299
2.49658
2.47912
2.46047
2.44124
2.42161
2.4016
2.38086
2.35972
2.33851
2.31775
2.29824
2.27775
2.25223
2.21052
2.0987
1.77569
1.12755
0.750948
0.646424
0.629922
0.635315
0.652934
0.668865
0.682182
0.69331
0.703333
0.712943
0.722321
0.731441
0.740446
0.749183
0.757859
0.766182
0.774337
0.782351
0.789777
0.797238
0.804315
0.811216
0.818291
0.824975
0.831654
0.838673
0.845336
0.85217
0.859336
0.866218
0.873165
0.880412
0.887318
0.894277
0.90172
0.909194
0.916466
0.923773
0.930903
0.93801
0.945638
0.953385
0.960797
0.968648
0.976979
0.98528
0.993922
1.00232
1.01089
1.01999
1.03029
1.04058
1.05084
1.06088
1.07101
1.08105
1.09191
1.10246
1.1114
1.11913
1.12474
1.12605
1.12456
1.11455
1.09301
1.05384
0.99263
0.906024
0.796155
0.670027
0.553979
0.464997
0.409403
0.366514
0.324456
0.284764
0.24962
0.223383
0.198732
0.188144
0.172837
0.191694
2.62434
2.62219
2.62208
2.62161
2.62087
2.61972
2.6181
2.61594
2.6131
2.60953
2.6051
2.59973
2.59332
2.58572
2.57692
2.56688
2.55557
2.54281
2.52857
2.51331
2.497
2.4797
2.46128
2.44169
2.42176
2.40158
2.38122
2.36063
2.33979
2.31905
2.29902
2.2781
2.25191
2.20983
2.10404
1.79518
1.14814
0.763682
0.660254
0.644057
0.648798
0.664923
0.679035
0.691577
0.702231
0.711693
0.720858
0.729848
0.738648
0.747293
0.75575
0.764109
0.772395
0.780297
0.788163
0.795531
0.802666
0.809833
0.816597
0.823479
0.830391
0.836908
0.843679
0.850636
0.857365
0.864391
0.871457
0.878218
0.885317
0.892549
0.899343
0.906433
0.913859
0.92084
0.928074
0.935427
0.942452
0.949797
0.95739
0.964525
0.972054
0.980368
0.988752
0.997533
1.00572
1.01405
1.02254
1.03191
1.04164
1.05076
1.05932
1.06827
1.07675
1.08486
1.09184
1.09659
1.09828
1.09672
1.08839
1.07045
1.03869
0.98863
0.915037
0.818837
0.703716
0.588073
0.485598
0.416101
0.375568
0.3493
0.32492
0.296215
0.26957
0.244337
0.229594
0.213731
0.211746
0.203174
0.222049
2.6245
2.62235
2.62224
2.62182
2.62105
2.61991
2.61832
2.61617
2.61335
2.60981
2.60542
2.60008
2.59368
2.58615
2.57743
2.56754
2.55621
2.54323
2.52911
2.51394
2.49774
2.48057
2.46235
2.44247
2.42219
2.40193
2.38196
2.36174
2.3412
2.32087
2.30053
2.27932
2.25313
2.21142
2.10944
1.80876
1.16207
0.774775
0.671507
0.654829
0.658445
0.673183
0.685745
0.697522
0.707722
0.716724
0.725467
0.733866
0.742164
0.750068
0.757854
0.765157
0.772453
0.779577
0.786486
0.793637
0.800391
0.807165
0.814121
0.820728
0.827487
0.834245
0.840677
0.847483
0.854538
0.861246
0.868239
0.875228
0.882012
0.889245
0.896393
0.903177
0.910427
0.91764
0.924863
0.932465
0.939999
0.94716
0.954795
0.962363
0.970024
0.978482
0.987408
0.996
1.00465
1.01326
1.02145
1.02974
1.03842
1.04622
1.05317
1.05976
1.06524
1.06919
1.0699
1.06809
1.05983
1.04299
1.01503
0.971762
0.908857
0.825551
0.724032
0.614537
0.511395
0.433241
0.38563
0.357078
0.337592
0.321453
0.304206
0.283905
0.263317
0.246296
0.238962
0.229424
0.232923
0.229189
0.24683
2.62468
2.6225
2.62242
2.62205
2.62128
2.62017
2.61861
2.61648
2.61371
2.61022
2.60587
2.60057
2.59422
2.58676
2.57815
2.56839
2.55692
2.544
2.52997
2.51489
2.49877
2.48176
2.46358
2.4437
2.42299
2.40276
2.38301
2.36313
2.34299
2.32283
2.30226
2.28093
2.25466
2.21616
2.12017
1.82816
1.16907
0.780668
0.675766
0.658686
0.66142
0.675186
0.686712
0.697744
0.707273
0.715767
0.724124
0.732287
0.740257
0.747904
0.755333
0.76258
0.769244
0.776054
0.782692
0.789286
0.796236
0.802787
0.809445
0.816459
0.822967
0.829675
0.836579
0.843087
0.850003
0.857091
0.863737
0.870704
0.877856
0.884726
0.892041
0.899366
0.906408
0.913919
0.921685
0.929322
0.937348
0.945346
0.953162
0.961193
0.96936
0.977327
0.985873
0.994413
1.00243
1.0104
1.01773
1.02438
1.0309
1.03653
1.04052
1.04232
1.04208
1.03844
1.02917
1.01238
0.986176
0.946803
0.89171
0.819132
0.730997
0.631775
0.534736
0.454725
0.401193
0.369063
0.348924
0.335032
0.323147
0.310995
0.296317
0.279182
0.26453
0.252807
0.250322
0.2447
0.251316
0.251131
0.267141
2.62488
2.62271
2.62265
2.62229
2.62157
2.62048
2.61895
2.61687
2.61414
2.61069
2.6064
2.60117
2.5949
2.58746
2.57892
2.56925
2.55794
2.54519
2.53101
2.51598
2.49997
2.48305
2.465
2.44536
2.42433
2.40388
2.38432
2.36469
2.34494
2.3249
2.30434
2.28295
2.25607
2.218
2.11846
1.8159
1.14029
0.76901
0.667247
0.650995
0.653933
0.668114
0.680183
0.691236
0.700944
0.709759
0.718309
0.726843
0.735008
0.742988
0.750643
0.758184
0.765341
0.772363
0.779546
0.786445
0.793472
0.800615
0.807478
0.814522
0.821586
0.828222
0.835251
0.842118
0.848726
0.855741
0.862569
0.869257
0.876367
0.883525
0.890768
0.898448
0.90617
0.913644
0.921644
0.929989
0.93809
0.946364
0.954393
0.961889
0.969788
0.977692
0.984722
0.991694
0.998385
1.0043
1.00929
1.0133
1.01565
1.01627
1.01463
1.00831
0.997125
0.979384
0.953603
0.915652
0.864703
0.79916
0.720824
0.633222
0.544252
0.469721
0.415836
0.382877
0.361749
0.348279
0.339017
0.330477
0.320686
0.308537
0.295433
0.281429
0.269355
0.261363
0.262109
0.258932
0.267205
0.269755
0.284044
2.62513
2.62295
2.62289
2.62257
2.62191
2.62087
2.61937
2.61734
2.61468
2.61131
2.6071
2.60195
2.5958
2.58842
2.57991
2.57029
2.55929
2.54663
2.53246
2.51739
2.50151
2.48469
2.46674
2.44743
2.4263
2.40554
2.38583
2.36638
2.34682
2.32702
2.30679
2.28551
2.25846
2.22045
2.11753
1.81223
1.11266
0.753008
0.655086
0.639591
0.642824
0.658066
0.671463
0.68332
0.693584
0.702952
0.711964
0.720863
0.729788
0.738928
0.748211
0.757178
0.765556
0.773374
0.780883
0.788084
0.795088
0.801794
0.808427
0.814912
0.821319
0.827798
0.834288
0.840818
0.847409
0.854011
0.861026
0.868124
0.875274
0.882917
0.890891
0.899115
0.907872
0.916577
0.925174
0.93394
0.942581
0.950536
0.958029
0.964737
0.971019
0.976526
0.981686
0.985816
0.989548
0.99174
0.99215
0.990861
0.986783
0.978453
0.964758
0.944858
0.916939
0.878869
0.830278
0.769285
0.697558
0.620605
0.54138
0.475001
0.423584
0.392314
0.372527
0.360213
0.352137
0.345232
0.338182
0.330407
0.322164
0.311559
0.299808
0.287323
0.277511
0.271718
0.273917
0.272342
0.281385
0.285777
0.298299
2.62542
2.62321
2.62318
2.62287
2.62229
2.62128
2.61983
2.6179
2.6153
2.61199
2.60787
2.60284
2.59682
2.58949
2.58108
2.57159
2.56085
2.54824
2.53433
2.51927
2.50344
2.48667
2.46889
2.44983
2.42897
2.40804
2.38801
2.36849
2.34879
2.32913
2.30969
2.28876
2.26215
2.22504
2.12179
1.8131
1.09786
0.746843
0.653354
0.637851
0.640668
0.65622
0.67036
0.683061
0.693931
0.703695
0.71288
0.721827
0.730483
0.739068
0.747183
0.755164
0.76268
0.770174
0.777678
0.784975
0.792246
0.799286
0.806297
0.813329
0.820217
0.82708
0.834203
0.841292
0.848388
0.855705
0.863358
0.871311
0.879556
0.888004
0.897101
0.906689
0.916041
0.925108
0.933482
0.940912
0.94754
0.95339
0.95854
0.963016
0.967019
0.970177
0.971724
0.972058
0.971086
0.966813
0.959305
0.947683
0.93137
0.908669
0.877246
0.837584
0.788861
0.731196
0.665555
0.597321
0.528419
0.471062
0.425882
0.397914
0.37903
0.367795
0.361694
0.356945
0.351848
0.347605
0.343606
0.336133
0.327243
0.317154
0.306209
0.295337
0.287974
0.28335
0.286191
0.285569
0.294689
0.299956
0.310975
2.62573
2.62353
2.62352
2.62325
2.62269
2.62176
2.62038
2.61853
2.616
2.61279
2.60877
2.60391
2.59796
2.59077
2.58254
2.57318
2.56253
2.55017
2.53666
2.52171
2.50567
2.48895
2.47137
2.45254
2.43239
2.41163
2.39088
2.37107
2.35116
2.33143
2.31284
2.2926
2.26745
2.23264
2.13883
1.821
1.07762
0.737131
0.646267
0.629817
0.631704
0.647264
0.661849
0.675151
0.686607
0.696752
0.706206
0.715564
0.724701
0.733681
0.742388
0.750972
0.759705
0.76818
0.776699
0.784886
0.79269
0.800435
0.8077
0.815097
0.822506
0.829719
0.837426
0.845104
0.853027
0.861384
0.87002
0.879214
0.888913
0.898593
0.908577
0.91774
0.925777
0.932797
0.938715
0.944066
0.947876
0.951427
0.953834
0.955359
0.955788
0.9547
0.949943
0.942844
0.931975
0.916977
0.896353
0.869106
0.835358
0.793806
0.743916
0.686909
0.627226
0.565109
0.507283
0.45997
0.423763
0.399993
0.382896
0.37303
0.367544
0.364168
0.361277
0.360204
0.358293
0.353434
0.348701
0.341801
0.334032
0.325009
0.314924
0.305382
0.3002
0.295984
0.298829
0.298688
0.307498
0.31297
0.322923
2.6261
2.62389
2.62391
2.62366
2.62315
2.62229
2.62101
2.61921
2.61684
2.61372
2.60985
2.60512
2.59932
2.59237
2.5843
2.57498
2.56439
2.55245
2.53928
2.52474
2.50836
2.49143
2.47411
2.45573
2.43658
2.41634
2.39445
2.37367
2.35353
2.33399
2.3166
2.29718
2.27387
2.2424
2.16064
1.82752
1.05707
0.727989
0.641808
0.625522
0.626921
0.640937
0.65216
0.665527
0.67678
0.687173
0.697097
0.707012
0.716877
0.726525
0.736128
0.745619
0.75517
0.764819
0.774046
0.783277
0.79218
0.80097
0.809981
0.818643
0.827248
0.836068
0.844486
0.853495
0.862516
0.871715
0.881623
0.891818
0.901885
0.911687
0.920038
0.92685
0.931822
0.93605
0.938758
0.941463
0.942784
0.943084
0.941019
0.937507
0.930143
0.919295
0.904548
0.884794
0.859148
0.827933
0.790067
0.744847
0.695216
0.641653
0.587143
0.53126
0.484018
0.445794
0.417673
0.39875
0.38525
0.376869
0.372142
0.369514
0.367201
0.367171
0.367789
0.366786
0.365307
0.360519
0.355603
0.349063
0.341667
0.333402
0.324363
0.316026
0.312565
0.308537
0.311163
0.311529
0.32005
0.325486
0.33459
2.62653
2.62429
2.62433
2.62412
2.62367
2.62288
2.62166
2.61998
2.61773
2.61475
2.61103
2.60646
2.60082
2.59425
2.58644
2.57699
2.5666
2.55502
2.54227
2.52817
2.51166
2.4944
2.47743
2.45982
2.44164
2.42149
2.39829
2.37673
2.35622
2.33705
2.32112
2.30259
2.28085
2.25125
2.17424
1.82359
1.04047
0.72109
0.640912
0.625972
0.627204
0.639344
0.650084
0.662601
0.674023
0.684256
0.69502
0.705741
0.716304
0.72692
0.737337
0.747795
0.75811
0.768347
0.778516
0.788335
0.798105
0.807968
0.817453
0.827214
0.836746
0.846445
0.856634
0.86668
0.877253
0.887933
0.89822
0.907687
0.916257
0.922967
0.927878
0.930841
0.932551
0.9338
0.933667
0.93297
0.928737
0.921796
0.910876
0.896509
0.87683
0.851636
0.820971
0.78428
0.741292
0.69516
0.645381
0.595226
0.543579
0.499236
0.462582
0.433449
0.412274
0.397222
0.386018
0.379356
0.37618
0.374015
0.371527
0.372683
0.373596
0.374004
0.374211
0.374031
0.372837
0.368446
0.363121
0.356993
0.35015
0.342613
0.3345
0.327028
0.324798
0.320833
0.323269
0.324295
0.33248
0.337675
0.345825
2.62699
2.62474
2.62482
2.62465
2.62425
2.62355
2.62246
2.62089
2.6188
2.61591
2.61237
2.60799
2.60264
2.59635
2.58877
2.57939
2.56924
2.55803
2.54563
2.53191
2.51586
2.49821
2.48129
2.46446
2.44725
2.42702
2.40248
2.38021
2.35962
2.34097
2.32631
2.30848
2.28767
2.25798
2.18209
1.8168
1.03092
0.720419
0.644515
0.631807
0.633432
0.644942
0.655434
0.66631
0.678096
0.687772
0.699665
0.710532
0.721773
0.732696
0.743724
0.754488
0.765213
0.775923
0.786404
0.79713
0.807661
0.818408
0.829411
0.840081
0.851462
0.86313
0.874639
0.886583
0.897827
0.907815
0.916217
0.922514
0.927035
0.928839
0.930185
0.929001
0.928156
0.924068
0.918048
0.908218
0.893583
0.873836
0.848822
0.818408
0.781581
0.739203
0.693745
0.645365
0.597457
0.548718
0.50696
0.472326
0.443971
0.42309
0.40798
0.396328
0.38805
0.382655
0.380301
0.377808
0.376349
0.377771
0.378746
0.379654
0.380504
0.381259
0.381523
0.381377
0.380128
0.37606
0.370711
0.365001
0.358794
0.352021
0.344959
0.338268
0.336945
0.332975
0.335179
0.336848
0.344601
0.349403
0.356717
2.62753
2.62524
2.62538
2.62524
2.6249
2.6243
2.62333
2.62189
2.61993
2.61729
2.61395
2.60974
2.60463
2.59862
2.59145
2.58225
2.57225
2.56147
2.54951
2.53611
2.52087
2.50294
2.48555
2.46947
2.45313
2.43271
2.40744
2.38452
2.36389
2.34592
2.33193
2.3146
2.29433
2.26433
2.18727
1.80737
1.02459
0.724057
0.651038
0.640437
0.642576
0.653994
0.664163
0.674181
0.685138
0.693691
0.705503
0.715979
0.727805
0.739132
0.751291
0.763102
0.77523
0.787145
0.799191
0.81099
0.823137
0.835509
0.847838
0.861089
0.874091
0.887244
0.899837
0.911168
0.920238
0.926946
0.931328
0.932612
0.932788
0.929624
0.926595
0.919774
0.910582
0.896874
0.87746
0.85258
0.821603
0.784729
0.741955
0.696224
0.647693
0.600388
0.552521
0.511602
0.478114
0.451225
0.431289
0.416584
0.405347
0.396922
0.390921
0.38727
0.38497
0.38242
0.380854
0.382262
0.384118
0.385104
0.385729
0.387122
0.388315
0.388887
0.388826
0.388841
0.387423
0.383508
0.37833
0.373194
0.36769
0.361746
0.355935
0.349835
0.349081
0.34503
0.346859
0.349094
0.35642
0.360851
0.367409
2.62811
2.6258
2.62599
2.62591
2.62563
2.62512
2.62429
2.62301
2.62119
2.61888
2.61573
2.6116
2.60678
2.60114
2.5944
2.58562
2.57555
2.56516
2.55365
2.54081
2.52623
2.5084
2.49082
2.47492
2.45908
2.43885
2.41396
2.38985
2.36907
2.35139
2.33741
2.32077
2.3009
2.2701
2.19254
1.7966
1.01438
0.724892
0.657012
0.648593
0.651956
0.664163
0.674827
0.684852
0.695716
0.704036
0.716234
0.726344
0.738763
0.750079
0.76342
0.775492
0.78919
0.802291
0.816189
0.830494
0.844669
0.859688
0.875262
0.890154
0.904303
0.916471
0.926185
0.933815
0.93841
0.940656
0.939916
0.936751
0.930159
0.919954
0.907259
0.889107
0.86448
0.833117
0.795627
0.752021
0.705156
0.655138
0.607248
0.559397
0.518118
0.48515
0.458778
0.439208
0.424385
0.412859
0.405105
0.399268
0.393891
0.392616
0.390832
0.387399
0.387436
0.388289
0.389915
0.38906
0.391716
0.393506
0.394256
0.395073
0.396109
0.396469
0.396225
0.396177
0.394657
0.390938
0.386076
0.381604
0.376891
0.371791
0.367338
0.36167
0.361186
0.357012
0.358398
0.361112
0.368014
0.372022
0.377771
2.62873
2.62643
2.62668
2.62664
2.62645
2.62603
2.62536
2.62425
2.62267
2.62062
2.61772
2.6137
2.60926
2.604
2.59764
2.58959
2.57955
2.56933
2.55836
2.54609
2.53212
2.5151
2.49733
2.48099
2.46522
2.44555
2.4225
2.39721
2.37617
2.35766
2.34212
2.32585
2.30745
2.27738
2.19908
1.78641
1.00555
0.72709
0.66276
0.656099
0.660737
0.672784
0.684006
0.694724
0.706461
0.7159
0.729732
0.741118
0.755488
0.768251
0.783828
0.79751
0.813958
0.828843
0.846524
0.86354
0.881286
0.898211
0.913777
0.927459
0.938017
0.944709
0.950577
0.952377
0.951572
0.946563
0.938796
0.924788
0.908173
0.884474
0.854337
0.817013
0.772049
0.722468
0.669929
0.620285
0.571454
0.528366
0.494918
0.468713
0.449163
0.434203
0.422384
0.414191
0.407999
0.402378
0.399733
0.398599
0.395932
0.392676
0.396044
0.396668
0.395787
0.394916
0.397735
0.398149
0.399388
0.402044
0.40281
0.403354
0.403988
0.404097
0.403756
0.403513
0.401998
0.39856
0.394124
0.390379
0.386417
0.381992
0.378822
0.37351
0.373253
0.369025
0.369967
0.372942
0.379345
0.382934
0.388023
2.62944
2.6271
2.62743
2.62748
2.62737
2.62707
2.62654
2.62565
2.62427
2.62247
2.61995
2.61617
2.61202
2.60718
2.60128
2.59396
2.58429
2.57408
2.56368
2.5519
2.53856
2.52311
2.50509
2.48776
2.47186
2.45372
2.43199
2.40608
2.38437
2.36505
2.34753
2.33069
2.31218
2.28022
2.19587
1.77497
1.00243
0.734491
0.673949
0.668625
0.674955
0.687215
0.699489
0.711271
0.723367
0.733409
0.747855
0.759695
0.775572
0.790073
0.80852
0.824982
0.845563
0.864827
0.88679
0.90677
0.924796
0.940456
0.951885
0.961107
0.966101
0.967156
0.96912
0.961117
0.951884
0.932812
0.911601
0.883299
0.84705
0.801606
0.750481
0.694871
0.642123
0.591216
0.543966
0.508395
0.481356
0.461235
0.446065
0.434045
0.425478
0.419072
0.41356
0.409284
0.407285
0.404307
0.400846
0.401479
0.403337
0.402105
0.401278
0.404468
0.405077
0.403593
0.406375
0.40734
0.407714
0.410467
0.411257
0.411565
0.411809
0.41177
0.411423
0.41093
0.409534
0.406425
0.402431
0.399453
0.39622
0.392322
0.390276
0.385321
0.385266
0.381031
0.381534
0.384534
0.390426
0.393621
0.398029
2.63019
2.62782
2.62821
2.6284
2.62842
2.62823
2.62785
2.62719
2.626
2.6245
2.62239
2.61896
2.61501
2.61061
2.60528
2.59869
2.58974
2.57958
2.56956
2.55841
2.54582
2.53144
2.51418
2.49614
2.47944
2.46259
2.44194
2.41741
2.39403
2.374
2.35503
2.33752
2.32039
2.29082
2.19527
1.74326
0.987037
0.733443
0.680008
0.677709
0.688823
0.703009
0.718647
0.734114
0.74911
0.762077
0.779189
0.793649
0.81298
0.830677
0.853533
0.87561
0.900742
0.923967
0.945806
0.963353
0.97465
0.984765
0.987667
0.991598
0.986225
0.979636
0.966634
0.945626
0.917462
0.882181
0.838755
0.787255
0.729578
0.671042
0.617426
0.564938
0.52516
0.496584
0.475041
0.458887
0.446866
0.438228
0.431931
0.42622
0.42162
0.418733
0.4157
0.41214
0.410421
0.41147
0.410235
0.407918
0.409995
0.410562
0.409776
0.412841
0.414113
0.412328
0.415274
0.416718
0.416365
0.41877
0.41981
0.419829
0.419738
0.419578
0.419281
0.418581
0.417325
0.414624
0.411053
0.408868
0.406385
0.402874
0.401797
0.397131
0.397174
0.392949
0.393127
0.39594
0.401268
0.404041
0.407717
2.63102
2.62859
2.62908
2.62941
2.62955
2.62951
2.62928
2.62884
2.62793
2.62674
2.62501
2.62212
2.61843
2.61455
2.60982
2.60388
2.59597
2.58604
2.57598
2.56565
2.55382
2.54033
2.5247
2.5062
2.48825
2.47148
2.45267
2.43126
2.40576
2.38402
2.36204
2.34102
2.31583
2.27504
2.14048
1.65232
0.953447
0.724585
0.679428
0.682275
0.699037
0.717636
0.737881
0.75808
0.775878
0.794808
0.816726
0.837602
0.86423
0.888865
0.919192
0.946052
0.970211
0.99286
1.00444
1.01796
1.01647
1.02158
1.01003
1.0035
0.982262
0.959125
0.924737
0.881729
0.829246
0.770001
0.70619
0.647787
0.590834
0.54395
0.512486
0.488977
0.472001
0.460067
0.451334
0.444383
0.438415
0.435029
0.432038
0.428343
0.424791
0.423248
0.423102
0.42148
0.418094
0.418345
0.418353
0.41608
0.418135
0.419501
0.41819
0.421348
0.422825
0.421044
0.423933
0.425677
0.425358
0.426756
0.428325
0.428273
0.427918
0.427571
0.427374
0.426454
0.425358
0.42313
0.419966
0.41858
0.416788
0.413592
0.413226
0.408866
0.409002
0.404895
0.404832
0.407273
0.411935
0.414238
0.417245
2.63191
2.62943
2.63
2.63049
2.6308
2.63096
2.6309
2.63063
2.63009
2.62919
2.62783
2.62563
2.62234
2.61888
2.61482
2.60967
2.60269
2.59334
2.58355
2.57398
2.56299
2.55035
2.53583
2.51798
2.49945
2.48176
2.46401
2.44356
2.42053
2.39573
2.37134
2.34707
2.31703
2.26641
2.10213
1.58889
0.936715
0.729342
0.693279
0.701719
0.724467
0.74843
0.774238
0.799845
0.821125
0.84784
0.874387
0.904505
0.937653
0.967456
0.999022
1.02361
1.03868
1.05629
1.05045
1.05505
1.03636
1.02682
0.996911
0.968988
0.924389
0.871438
0.812964
0.745826
0.681876
0.621489
0.565851
0.528054
0.501186
0.482669
0.470047
0.461134
0.45469
0.450127
0.446789
0.443985
0.440225
0.436959
0.437076
0.435828
0.433577
0.430834
0.43056
0.429594
0.426431
0.427057
0.427155
0.424704
0.426403
0.428017
0.426682
0.429667
0.431326
0.429779
0.432339
0.43452
0.434636
0.434819
0.436773
0.436878
0.436377
0.435746
0.435678
0.434593
0.433669
0.431987
0.42924
0.428547
0.427378
0.424432
0.424595
0.420537
0.420725
0.416782
0.416453
0.418328
0.422334
0.424236
0.426695
2.63287
2.63033
2.63097
2.63163
2.63213
2.63252
2.63271
2.63268
2.63241
2.63185
2.63087
2.62939
2.62679
2.6236
2.62023
2.61589
2.60995
2.60154
2.59238
2.58337
2.57319
2.56141
2.54771
2.53158
2.51347
2.49431
2.47599
2.4563
2.43444
2.41058
2.38342
2.35495
2.32021
2.26069
2.07329
1.53947
0.920582
0.732452
0.708248
0.726183
0.7572
0.790538
0.825694
0.862068
0.89386
0.932947
0.968666
1.00361
1.03925
1.06157
1.08559
1.09339
1.09617
1.08758
1.06532
1.04978
1.01047
0.970274
0.914335
0.853157
0.785942
0.713585
0.648961
0.586098
0.539904
0.510484
0.489887
0.476572
0.467757
0.461977
0.457993
0.454551
0.452418
0.450434
0.448519
0.447537
0.44624
0.443264
0.442996
0.442909
0.441745
0.43909
0.439434
0.438496
0.435387
0.435821
0.435911
0.433503
0.434771
0.436306
0.435042
0.437738
0.439748
0.438944
0.440419
0.443143
0.443654
0.442991
0.445146
0.445681
0.445183
0.444213
0.444297
0.443131
0.442364
0.441213
0.43885
0.438702
0.438012
0.435312
0.435861
0.432027
0.432341
0.428646
0.42823
0.429528
0.432803
0.434232
0.436143
2.63391
2.63131
2.63201
2.63283
2.63353
2.63417
2.63468
2.63495
2.63503
2.63483
2.6343
2.6333
2.63168
2.62904
2.62619
2.62266
2.6178
2.61065
2.60251
2.59429
2.58475
2.57365
2.56084
2.54627
2.52986
2.51018
2.48984
2.47043
2.44888
2.42571
2.3991
2.36647
2.32821
2.26222
2.06003
1.52535
0.925038
0.752998
0.73644
0.764918
0.803571
0.846092
0.891817
0.942766
0.990056
1.03737
1.07873
1.10541
1.13771
1.14023
1.15191
1.12559
1.10815
1.06361
1.02493
0.96599
0.896845
0.82636
0.746431
0.674981
0.606549
0.551415
0.515533
0.491396
0.476506
0.467558
0.462388
0.459459
0.457868
0.456581
0.456019
0.455458
0.453464
0.453779
0.452523
0.452657
0.451946
0.449609
0.449709
0.450312
0.449538
0.447112
0.447694
0.447025
0.444269
0.444642
0.444666
0.442466
0.443023
0.444451
0.443401
0.445466
0.448124
0.448425
0.448516
0.451388
0.452446
0.451259
0.453621
0.454638
0.454288
0.452978
0.453194
0.452078
0.451483
0.450733
0.448747
0.449008
0.448722
0.446307
0.447142
0.443484
0.443796
0.440264
0.439784
0.440363
0.44284
0.443796
0.445187
2.63505
2.6324
2.63317
2.63409
2.63504
2.63587
2.63676
2.63744
2.63792
2.63812
2.63809
2.63762
2.63683
2.63513
2.63282
2.63013
2.62628
2.62078
2.6138
2.60686
2.59797
2.58747
2.57589
2.56275
2.54778
2.5294
2.50764
2.48667
2.46582
2.4428
2.41658
2.38145
2.33978
2.26726
2.04811
1.5318
0.946344
0.790748
0.785525
0.829356
0.882202
0.939663
1.00158
1.06394
1.11275
1.15266
1.18381
1.19471
1.2071
1.1768
1.1528
1.09537
1.04142
0.957539
0.879445
0.788491
0.706733
0.63073
0.56325
0.519349
0.49084
0.472769
0.462409
0.456743
0.453989
0.452986
0.452684
0.45352
0.454349
0.455306
0.456137
0.456931
0.457458
0.456871
0.457334
0.457757
0.457678
0.456197
0.456011
0.456998
0.45672
0.454803
0.455583
0.455241
0.45308
0.453121
0.453362
0.451918
0.45143
0.452725
0.452336
0.453321
0.456333
0.457317
0.456531
0.459464
0.460995
0.459818
0.462288
0.4638
0.463602
0.461951
0.462323
0.461335
0.460974
0.460562
0.458949
0.459569
0.459556
0.457349
0.458335
0.454773
0.455055
0.451742
0.451549
0.451664
0.453354
0.453607
0.454296
2.63631
2.63358
2.63443
2.63547
2.63665
2.63766
2.63893
2.64003
2.64102
2.64176
2.64231
2.64247
2.64232
2.64173
2.64025
2.6384
2.63572
2.63199
2.62645
2.62068
2.61312
2.60344
2.59323
2.58165
2.56823
2.55167
2.52929
2.50707
2.48639
2.46405
2.43623
2.40065
2.35602
2.27517
2.03121
1.53525
0.981354
0.85403
0.86519
0.926146
0.995505
1.06875
1.13428
1.1923
1.22719
1.25279
1.25248
1.23904
1.19053
1.13893
1.05744
0.95923
0.855293
0.752545
0.661156
0.57863
0.521705
0.48714
0.465962
0.454163
0.447781
0.445274
0.443876
0.445356
0.446209
0.448583
0.450114
0.452071
0.453698
0.45528
0.456953
0.458266
0.45972
0.461084
0.461017
0.462367
0.462941
0.462549
0.461993
0.46313
0.46336
0.461932
0.462863
0.463155
0.46203
0.461292
0.462043
0.461277
0.459832
0.461012
0.461591
0.461427
0.464324
0.465691
0.464657
0.467609
0.469714
0.469049
0.470921
0.472898
0.472871
0.471015
0.471626
0.470836
0.470896
0.470827
0.469438
0.470297
0.470496
0.4685
0.469623
0.466145
0.466257
0.463088
0.462853
0.462417
0.463154
0.462726
0.462864
2.63768
2.63488
2.63582
2.63699
2.63838
2.63964
2.64116
2.64282
2.64434
2.64558
2.6468
2.64786
2.64848
2.64869
2.64845
2.64761
2.64621
2.64386
2.64048
2.63607
2.62996
2.62181
2.61291
2.60323
2.59194
2.57718
2.55582
2.53349
2.51167
2.49053
2.46214
2.42712
2.38048
2.28771
2.03089
1.54492
1.05403
0.970256
0.99986
1.07617
1.15191
1.22691
1.27095
1.30743
1.30148
1.29358
1.23649
1.18051
1.07971
0.966745
0.842535
0.722874
0.618284
0.533735
0.484739
0.4568
0.442485
0.435618
0.43288
0.433435
0.434145
0.436943
0.437883
0.441043
0.443008
0.44592
0.448616
0.451317
0.453923
0.456292
0.458382
0.460433
0.461878
0.463938
0.465499
0.466591
0.467999
0.468636
0.46807
0.469319
0.470023
0.469109
0.469896
0.470949
0.470666
0.469453
0.470625
0.470281
0.468405
0.469456
0.47039
0.469612
0.472295
0.473888
0.472933
0.475753
0.478357
0.478629
0.479394
0.481673
0.481933
0.480237
0.481221
0.480704
0.481274
0.481493
0.480081
0.481089
0.481386
0.479502
0.480663
0.477254
0.477257
0.474381
0.474248
0.473554
0.473407
0.472417
0.471804
2.63916
2.63627
2.63732
2.63862
2.64026
2.64184
2.64356
2.64574
2.64782
2.64975
2.65151
2.65353
2.65523
2.65658
2.65747
2.658
2.65794
2.65708
2.65567
2.65325
2.64858
2.64271
2.63585
2.62815
2.61908
2.60662
2.58805
2.56667
2.54479
2.5242
2.49606
2.46571
2.41843
2.31232
2.04921
1.53354
1.17325
1.1248
1.1802
1.26063
1.31826
1.36913
1.36562
1.35553
1.28863
1.22964
1.10933
0.97941
0.834825
0.699173
0.581536
0.497759
0.452577
0.430404
0.42117
0.419473
0.418969
0.42188
0.423154
0.426693
0.429374
0.433545
0.437074
0.440783
0.444118
0.447261
0.450214
0.45299
0.455579
0.458163
0.460462
0.462965
0.465081
0.467065
0.469095
0.471109
0.472779
0.474
0.474119
0.475283
0.476514
0.476498
0.476853
0.478357
0.478599
0.477523
0.47906
0.478999
0.477125
0.478244
0.479011
0.477893
0.480303
0.482326
0.481839
0.483875
0.486842
0.487676
0.487633
0.490315
0.491112
0.489876
0.491202
0.490858
0.491843
0.492279
0.490845
0.492049
0.492479
0.490757
0.491978
0.488638
0.488462
0.485725
0.485235
0.483898
0.482675
0.481184
0.479975
2.64075
2.63779
2.63894
2.64037
2.64227
2.64422
2.64619
2.64887
2.65154
2.65412
2.65653
2.65951
2.66239
2.66511
2.66722
2.66933
2.67118
2.672
2.67233
2.67177
2.6694
2.66681
2.66255
2.65703
2.65004
2.6405
2.62687
2.60799
2.58818
2.56756
2.54562
2.52278
2.47895
2.36571
2.08806
1.57387
1.30761
1.29742
1.34864
1.40342
1.42568
1.4218
1.34769
1.28064
1.15146
1.00503
0.83743
0.684567
0.554721
0.468692
0.426103
0.408148
0.403777
0.402395
0.405659
0.408778
0.413121
0.417872
0.422184
0.426413
0.430015
0.433559
0.436897
0.44035
0.443808
0.44728
0.450697
0.45406
0.457187
0.460395
0.463205
0.466184
0.468683
0.471308
0.473483
0.47581
0.477813
0.479595
0.480489
0.481273
0.482962
0.483833
0.483796
0.485545
0.486286
0.485597
0.487461
0.487647
0.485922
0.487187
0.487679
0.486304
0.488346
0.490835
0.491231
0.491935
0.494819
0.496146
0.495911
0.498998
0.500556
0.500319
0.501656
0.501235
0.502486
0.503112
0.501672
0.502988
0.503416
0.501704
0.502896
0.499656
0.499439
0.4971
0.496486
0.494807
0.492692
0.490729
0.489173
2.64248
2.63942
2.64068
2.64227
2.64442
2.64677
2.64907
2.65213
2.65557
2.6589
2.66203
2.66571
2.67007
2.6741
2.67782
2.68125
2.68532
2.68863
2.69111
2.69278
2.69307
2.69354
2.69294
2.69082
2.68652
2.68061
2.67265
2.66015
2.64423
2.62705
2.61551
2.59969
2.56652
2.43909
2.17437
1.68479
1.46946
1.45159
1.45783
1.46627
1.43387
1.3418
1.22536
1.05197
0.870675
0.693217
0.542516
0.447842
0.403527
0.38939
0.384908
0.387526
0.391806
0.397209
0.402883
0.408259
0.413098
0.417644
0.421889
0.426077
0.430133
0.434098
0.437943
0.441683
0.445324
0.449023
0.452501
0.45613
0.459373
0.462986
0.466134
0.469557
0.472449
0.475463
0.478116
0.480707
0.483006
0.485255
0.486962
0.487725
0.489654
0.490932
0.490897
0.492729
0.493939
0.493645
0.495827
0.49625
0.494782