/*--------------------------------*- C++ -*----------------------------------*\
| =========                 |                                                 |
| \\      /  F ield         | OpenFOAM: The Open Source CFD Toolbox           |
|  \\    /   O peration     | Version:  2.2.x                                 |
|   \\  /    A nd           | Web:      www.OpenFOAM.org                      |
|    \\/     M anipulation  |                                                 |
\*---------------------------------------------------------------------------*/
FoamFile
{
    version     2.0;
    format      ascii;
    class       surfaceScalarField;
    location    "2.55";
    object      phi;
}
// * * * * * * * * * * * * * * * * * * * * * * * * * * * * * * * * * * * * * //

dimensions      [1 0 -1 0 0 0 0];

internalField   nonuniform List<scalar> 
28084
(
0.000746223
0.000742988
0.000740216
0.000737893
0.000735988
0.000734466
0.000733322
0.000732534
0.000732073
0.000731912
0.000732023
0.000732377
0.000732948
0.000733711
0.000734634
0.000735686
0.000736852
0.000738112
0.000739465
0.00074084
0.000742205
0.000743564
0.000744916
0.000746244
0.000747537
0.000748865
0.000750095
0.000751142
0.00075202
0.000752763
0.000753429
0.000754043
0.000754637
0.000755004
0.000755364
0.000753391
0.0007531
0.000756412
0.000765665
0.000777287
0.00078902
0.00080018
0.000810066
0.000818357
0.000825101
0.000842932
0.000860712
0.000878338
0.000896089
0.000914208
0.00093204
0.000950119
0.000968236
0.000986142
0.00100451
0.00102251
0.00104043
0.00105869
0.00107557
0.00109184
0.00110861
0.00112451
0.00114014
0.00115545
0.00116961
0.0011835
0.00119785
0.00120935
0.00121935
0.0012301
0.00124017
0.00124961
0.00126015
0.00126635
0.00127007
0.00127421
0.00127801
0.00128111
0.00128461
0.00128653
0.00128565
0.00128415
0.00128383
0.001281
0.00127668
0.00127271
0.0012686
0.00126388
0.00126012
0.00125469
0.00124768
0.00124123
0.00123747
0.00123241
0.00122644
0.00122193
0.00121897
0.00121622
0.00121489
0.00121574
0.0012181
0.00122072
0.00122544
0.00123207
0.00123952
0.00124621
0.0012488
0.00123975
0.00120681
0.00113758
0.0010338
0.000908769
0.000787368
0.000673907
0.000558163
0.000437789
0.000305001
0.000180991
3.71752e-06
3.23957e-06
0.000749741
2.77745e-06
0.000748786
2.32725e-06
0.000748264
1.90881e-06
0.00074816
1.5249e-06
0.00074845
1.14549e-06
0.000749106
7.87945e-07
0.000750113
4.58435e-07
0.000751448
1.57161e-07
0.000753086
-1.16872e-07
0.000754996
-3.63488e-07
0.000757148
-5.82268e-07
0.000759512
-7.72903e-07
0.00076206
-9.41708e-07
0.000764758
-1.07048e-06
0.000767574
-1.1781e-06
0.000770486
-1.26618e-06
0.000773474
-1.35301e-06
0.000776525
-1.38465e-06
0.000779581
-1.3861e-06
0.000782627
-1.39515e-06
0.00078562
-1.39199e-06
0.000788551
-1.36857e-06
0.000791415
-1.31881e-06
0.0007942
-1.25418e-06
0.000796897
-1.16046e-06
0.000799578
-1.07185e-06
0.000802101
-9.91707e-07
0.000804384
-9.13088e-07
0.000806429
-8.33036e-07
0.000808277
-7.18561e-07
0.00080999
-6.34417e-07
0.00081162
-4.33164e-07
0.000813131
-6.85094e-07
0.000814559
9.13588e-07
0.000815812
-1.60806e-06
0.000815442
-4.55172e-06
0.000817169
-9.498e-06
0.000823545
-1.16882e-05
0.000836281
-1.17457e-05
0.000850498
-1.11078e-05
0.000864535
-9.80868e-06
0.000877678
-8.20872e-06
0.000888756
-6.6948e-06
0.000897811
-1.77499e-05
0.000905183
-1.77213e-05
0.000922754
-1.77702e-05
0.000940296
-1.78056e-05
0.000957668
-1.79931e-05
0.000974991
-1.80739e-05
0.000992749
-1.80827e-05
0.00101009
-1.81139e-05
0.00102773
-1.81327e-05
0.00104535
-1.80799e-05
0.00106275
-1.7936e-05
0.00108083
-1.78002e-05
0.00109847
-1.76863e-05
0.00111581
-1.73354e-05
0.00113355
-1.68219e-05
0.00114976
-1.64661e-05
0.00116518
-1.6227e-05
0.00118141
-1.57784e-05
0.00119667
-1.51592e-05
0.00121126
-1.43789e-05
0.0012259
-1.35983e-05
0.00123918
-1.29903e-05
0.00125184
-1.24625e-05
0.00126546
-1.17647e-05
0.00127628
-1.09004e-05
0.0012852
-9.8448e-06
0.00129491
-8.74547e-06
0.00130394
-7.74789e-06
0.00131214
-7.06466e-06
0.00132181
-6.19855e-06
0.00132729
-5.20573e-06
0.00132993
-4.19875e-06
0.00133273
-3.19864e-06
0.00133551
-2.26932e-06
0.0013376
-1.36011e-06
0.00133977
-3.70018e-07
0.00134035
5.44417e-07
0.00133847
1.38061e-06
0.00133616
2.10758e-06
0.00133507
2.77264e-06
0.00133091
3.54723e-06
0.00132521
4.44173e-06
0.00131995
5.05098e-06
0.00131476
5.32088e-06
0.0013091
5.55856e-06
0.0013043
5.7571e-06
0.00129756
5.76294e-06
0.00128933
5.53303e-06
0.00128181
5.16787e-06
0.00127692
4.63225e-06
0.0012707
4.03223e-06
0.00126373
3.33021e-06
0.00125813
2.3233e-06
0.00125369
1.05446e-06
0.00124968
-3.70196e-07
0.00124726
-1.88159e-06
0.00124625
-2.90542e-06
0.00124533
-4.44907e-06
0.00124541
-6.29599e-06
0.00124807
-7.46133e-06
0.00125098
-6.82955e-06
0.00125266
-2.4806e-06
0.00124993
9.40959e-06
0.00123823
3.316e-05
0.00120622
6.93445e-05
0.00113712
0.000104368
0.0010263
0.000126067
0.000901752
0.000122148
0.00078503
0.000113468
0.000678819
0.000115452
0.000576326
0.000120104
0.000470102
0.00013267
0.000365833
0.000124103
0.00025293
0.000181273
0.000135397
5.12231e-06
4.19944e-06
0.000754437
3.30376e-06
0.000755736
2.43613e-06
0.000757436
1.62278e-06
0.000759521
8.71584e-07
0.000761977
1.42138e-07
0.000764788
-5.47442e-07
0.00076792
-1.18118e-06
0.000771354
-1.75514e-06
0.000775065
-2.27261e-06
0.00077902
-2.73231e-06
0.00078319
-3.13499e-06
0.000787541
-3.48208e-06
0.000792046
-3.77354e-06
0.000796668
-3.99961e-06
0.000801364
-4.17981e-06
0.000806118
-4.32223e-06
0.000810914
-4.41408e-06
0.000815721
-4.44565e-06
0.000820472
-4.40104e-06
0.000825171
-4.36194e-06
0.000829779
-4.29814e-06
0.000834272
-4.19921e-06
0.000838637
-4.04621e-06
0.000842868
-3.86442e-06
0.000846958
-3.61571e-06
0.000850949
-3.3712e-06
0.000854726
-3.15395e-06
0.000858241
-2.93926e-06
0.000861479
-2.72342e-06
0.000864442
-2.46232e-06
0.000867224
-2.19112e-06
0.000869849
-1.93187e-06
0.000872306
-2.28986e-06
0.000874737
1.20296e-07
0.000877087
-5.40387e-06
0.000878675
-1.22762e-05
0.000884478
-2.25714e-05
0.000894709
-2.5916e-05
0.000910546
-2.57513e-05
0.000927167
-2.41684e-05
0.000942928
-2.08024e-05
0.000958047
-1.71923e-05
0.000970485
-1.39827e-05
0.000980571
-3.53e-05
0.000988977
-3.51754e-05
0.00100673
-3.52132e-05
0.00102434
-3.53279e-05
0.0010418
-3.55259e-05
0.00105911
-3.56974e-05
0.00107668
-3.56694e-05
0.00109376
-3.5781e-05
0.00111084
-3.58686e-05
0.00112798
-3.56587e-05
0.00114474
-3.54986e-05
0.00116196
-3.51874e-05
0.0011786
-3.45683e-05
0.00119472
-3.40284e-05
0.0012115
-3.30911e-05
0.00122714
-3.21687e-05
0.00124187
-3.17607e-05
0.00125718
-3.08055e-05
0.00127147
-2.92667e-05
0.0012849
-2.79918e-05
0.00129882
-2.65644e-05
0.00131135
-2.49836e-05
0.00132282
-2.3975e-05
0.00133517
-2.25379e-05
0.00134523
-2.07282e-05
0.00135358
-1.88265e-05
0.00136184
-1.66381e-05
0.00136981
-1.44567e-05
0.00137705
-1.30427e-05
0.00138505
-1.12289e-05
0.00138977
-9.22871e-06
0.00139159
-7.41264e-06
0.00139291
-5.53831e-06
0.00139507
-3.55897e-06
0.00139583
-1.45139e-06
0.00139549
6.38875e-07
0.00139461
2.4696e-06
0.00139226
3.8545e-06
0.00138944
5.29406e-06
0.00138733
6.61873e-06
0.00138163
8.08125e-06
0.00137422
9.85753e-06
0.00136765
1.11615e-05
0.00136169
1.18143e-05
0.00135537
1.2363e-05
0.00134975
1.27576e-05
0.00134197
1.26766e-05
0.00133258
1.21385e-05
0.00132371
1.13375e-05
0.00131701
1.02154e-05
0.00130938
9.15769e-06
0.0013012
7.89184e-06
0.00129445
5.78194e-06
0.0012882
3.21292e-06
0.0012826
8.66319e-07
0.00127758
-7.90939e-07
0.00127312
-3.11209e-06
0.00126961
-6.58391e-06
0.0012669
-8.83308e-06
0.0012637
-9.39878e-06
0.00125824
-4.4699e-06
0.00124577
9.32065e-06
0.00121825
4.20664e-05
0.0011714
0.000102856
0.00108275
0.000180517
0.000955662
0.000229388
0.000833673
0.000243746
0.00072888
0.00022888
0.000638066
0.000215883
0.000553004
0.000221387
0.000470564
0.000224118
0.000384625
0.000245482
0.000297271
0.000241766
0.000203006
0.00031694
0.000103062
4.24439e-06
2.90557e-06
0.000760312
1.60829e-06
0.00076383
3.5583e-07
0.00076772
-8.29089e-07
0.000771966
-1.93636e-06
0.000776563
-2.98928e-06
0.000781493
-3.98155e-06
0.000786724
-4.89226e-06
0.00079223
-5.71251e-06
0.000797988
-6.44357e-06
0.000803965
-7.0839e-06
0.000810127
-7.63851e-06
0.00081644
-8.10886e-06
0.000822872
-8.47821e-06
0.00082939
-8.76575e-06
0.000835946
-8.98952e-06
0.000842515
-9.13744e-06
0.00084909
-9.1788e-06
0.000855626
-9.15917e-06
0.000862055
-9.02632e-06
0.000868375
-8.87736e-06
0.000874589
-8.70199e-06
0.00088063
-8.47926e-06
0.000886497
-8.18282e-06
0.000892156
-7.79691e-06
0.000897601
-7.3377e-06
0.000902851
-6.8923e-06
0.00090787
-6.48031e-06
0.000912603
-6.06323e-06
0.000917037
-5.67196e-06
0.000921149
-5.19556e-06
0.000925016
-4.69787e-06
0.000928646
-4.44511e-06
0.000932144
-5.02772e-06
0.000935651
-2.75402e-06
0.000939466
-1.34701e-05
0.000944471
-2.39695e-05
0.000956011
-3.8773e-05
0.000972225
-4.25191e-05
0.000992352
-4.14238e-05
0.00101157
-3.91574e-05
0.00102907
-3.31265e-05
0.00104406
-2.72032e-05
0.00105593
-2.2311e-05
0.00106582
-5.30331e-05
0.00107426
-5.27155e-05
0.00109138
-5.26556e-05
0.00110853
-5.2785e-05
0.00112582
-5.289e-05
0.00114315
-5.29833e-05
0.00116061
-5.28992e-05
0.00117803
-5.2768e-05
0.00119517
-5.28791e-05
0.00121255
-5.25769e-05
0.00122935
-5.20298e-05
0.00124564
-5.15248e-05
0.00126202
-5.07342e-05
0.00127745
-4.97532e-05
0.00129252
-4.85311e-05
0.0013081
-4.72161e-05
0.00132231
-4.61534e-05
0.00133568
-4.48821e-05
0.0013496
-4.27112e-05
0.00136239
-4.05281e-05
0.00137436
-3.85928e-05
0.00138668
-3.64747e-05
0.00139746
-3.43557e-05
0.0014071
-3.21315e-05
0.00141703
-2.93983e-05
0.00142493
-2.65215e-05
0.00143157
-2.37806e-05
0.0014387
-2.06978e-05
0.00144483
-1.77334e-05
0.00144967
-1.49655e-05
0.00145389
-1.20198e-05
0.00145546
-9.10304e-06
0.00145577
-6.58587e-06
0.00145662
-3.88225e-06
0.00145619
-6.73643e-07
0.00145356
2.74669e-06
0.00145041
5.67107e-06
0.00144724
7.95754e-06
0.00144335
9.76625e-06
0.00144035
1.18026e-05
0.00143365
1.38541e-05
0.00142414
1.61657e-05
0.00141529
1.7979e-05
0.00140787
1.90319e-05
0.00140036
1.99759e-05
0.00139337
2.06738e-05
0.00138422
2.07072e-05
0.0013732
2.00581e-05
0.00136261
1.90808e-05
0.00135373
1.7617e-05
0.00134523
1.6006e-05
0.00133647
1.39207e-05
0.00132883
1.10285e-05
0.00132103
7.9305e-06
0.00131235
5.47294e-06
0.00130344
2.83359e-06
0.0012952
-2.32527e-07
0.00128684
-2.86688e-06
0.00127636
-2.96421e-06
0.00126035
3.09947e-06
0.00123277
2.301e-05
0.00118876
5.60774e-05
0.00111119
0.000130759
0.000983815
0.000230399
0.000837223
0.00030348
0.000722538
0.000334984
0.000635456
0.000335215
0.000564135
0.000314248
0.000504713
0.000298293
0.000442931
0.000307076
0.000377835
0.000311206
0.000308523
0.000339634
0.000235837
0.000341916
0.000158907
0.000420327
7.73178e-05
1.11692e-06
-6.07336e-07
0.000767366
-2.27698e-06
0.000773065
-3.88561e-06
0.000779111
-5.42164e-06
0.000785489
-6.86331e-06
0.000792195
-8.21921e-06
0.000799209
-9.48631e-06
0.000806503
-1.06498e-05
0.00081405
-1.16907e-05
0.000821824
-1.26077e-05
0.000829792
-1.33994e-05
0.000837917
-1.4071e-05
0.000846164
-1.46265e-05
0.000854495
-1.50396e-05
0.000862879
-1.53465e-05
0.000871275
-1.55752e-05
0.000879645
-1.5688e-05
0.000887983
-1.56301e-05
0.000896198
-1.54941e-05
0.000904277
-1.52537e-05
0.000912196
-1.49233e-05
0.000919967
-1.45932e-05
0.000927574
-1.41868e-05
0.000934926
-1.36784e-05
0.000941977
-1.30433e-05
0.00094874
-1.23221e-05
0.000955223
-1.16224e-05
0.000961461
-1.09653e-05
0.000967418
-1.0295e-05
0.000973054
-9.6537e-06
0.000978314
-8.90369e-06
0.000983272
-8.23184e-06
0.000987921
-8.05568e-06
0.000992445
-9.29547e-06
0.000996973
-9.21629e-06
0.00100251
-2.74869e-05
0.001012
-4.17962e-05
0.00103179
-5.92724e-05
0.00105541
-6.17018e-05
0.00107882
-5.88065e-05
0.00109935
-5.40059e-05
0.0011167
-4.48938e-05
0.00113108
-3.70284e-05
0.00114289
-3.07268e-05
0.00115305
-7.01182e-05
0.00116182
-6.98739e-05
0.00117837
-6.98951e-05
0.00119496
-7.01103e-05
0.00121159
-7.03241e-05
0.00122827
-7.03134e-05
0.00124472
-7.02833e-05
0.00126155
-6.99528e-05
0.00127796
-6.96385e-05
0.00129414
-6.91725e-05
0.00131045
-6.81098e-05
0.00132596
-6.70454e-05
0.00134127
-6.61043e-05
0.00135604
-6.46255e-05
0.00137032
-6.29922e-05
0.00138493
-6.13612e-05
0.00139866
-5.96496e-05
0.00141119
-5.78476e-05
0.00142362
-5.53567e-05
0.00143588
-5.22381e-05
0.00144724
-4.9482e-05
0.00145828
-4.68932e-05
0.00146807
-4.3846e-05
0.00147675
-4.0534e-05
0.00148518
-3.68999e-05
0.00149277
-3.32057e-05
0.00149874
-2.96311e-05
0.00150408
-2.58341e-05
0.0015091
-2.15567e-05
0.00151236
-1.73728e-05
0.00151474
-1.33761e-05
0.00151611
-9.66634e-06
0.00151579
-6.25469e-06
0.00151499
-2.56823e-06
0.00151342
1.52426e-06
0.0015091
6.16446e-06
0.00150399
1.01904e-05
0.00149966
1.34176e-05
0.0014946
1.60104e-05
0.00149057
1.87943e-05
0.0014834
2.12866e-05
0.00147291
2.38057e-05
0.0014624
2.60306e-05
0.00145315
2.75733e-05
0.00144419
2.90031e-05
0.00143552
3.00334e-05
0.00142536
3.02294e-05
0.00141332
2.92832e-05
0.00140124
2.7925e-05
0.00139027
2.6294e-05
0.00138004
2.4081e-05
0.00136954
2.18071e-05
0.00135886
1.93039e-05
0.00134727
1.63937e-05
0.00133526
1.34417e-05
0.00132224
1.12594e-05
0.00130674
1.07721e-05
0.00128669
1.38722e-05
0.00125748
2.51185e-05
0.001214
4.73565e-05
0.00114426
0.000100412
0.00103044
0.000182869
0.000877589
0.000277301
0.000731995
0.000345925
0.00062326
0.000391579
0.000543304
0.000406744
0.000485919
0.000394688
0.000439966
0.000376225
0.000397454
0.000363506
0.000353683
0.000376226
0.00030332
0.000383613
0.000247121
0.000416437
0.000187907
0.000423737
0.000126521
0.000497989
5.9672e-05
-4.22097e-06
-6.3017e-06
0.000775603
-8.31788e-06
0.000783441
-1.02579e-05
0.000791605
-1.2124e-05
0.00080008
-1.38739e-05
0.000808856
-1.5511e-05
0.000817916
-1.70312e-05
0.000827238
-1.84229e-05
0.000836792
-1.96593e-05
0.000846548
-2.07364e-05
0.000856472
-2.16524e-05
0.000866527
-2.24092e-05
0.000876677
-2.30112e-05
0.00088688
-2.34424e-05
0.000897098
-2.37284e-05
0.000907301
-2.392e-05
0.000917466
-2.39213e-05
0.0009275
-2.37408e-05
0.000937376
-2.34417e-05
0.000947082
-2.30403e-05
0.000956596
-2.252e-05
0.000965898
-2.19448e-05
0.000975009
-2.12828e-05
0.000983829
-2.0505e-05
0.000992281
-1.958e-05
0.00100032
-1.8572e-05
0.00100803
-1.75678e-05
0.00101546
-1.65978e-05
0.0010226
-1.55967e-05
0.00102942
-1.46471e-05
0.00103585
-1.3552e-05
0.00104191
-1.27559e-05
0.00104765
-1.27417e-05
0.00105314
-1.54176e-05
0.00105867
-2.03531e-05
0.00106528
-5.00354e-05
0.00107808
-6.72335e-05
0.00110584
-8.30933e-05
0.00113624
-8.21787e-05
0.00116226
-7.60166e-05
0.00118386
-6.82164e-05
0.00120118
-5.658e-05
0.00121492
-4.7117e-05
0.00122639
-3.94825e-05
0.00123658
-8.66464e-05
0.00124559
-8.64728e-05
0.00126128
-8.65526e-05
0.00127715
-8.66693e-05
0.00129285
-8.68822e-05
0.00130839
-8.7e-05
0.00132382
-8.67686e-05
0.00133886
-8.6424e-05
0.00135429
-8.56826e-05
0.00136891
-8.48023e-05
0.0013833
-8.3675e-05
0.001398
-8.19471e-05
0.00141192
-8.04387e-05
0.00142574
-7.89137e-05
0.0014393
-7.67084e-05
0.00145233
-7.44457e-05
0.00146562
-7.2294e-05
0.00147765
-6.97883e-05
0.00148886
-6.6918e-05
0.00150017
-6.33444e-05
0.00151133
-5.95246e-05
0.00152094
-5.60797e-05
0.00152981
-5.24941e-05
0.0015377
-4.79449e-05
0.00154471
-4.33203e-05
0.00155185
-3.88757e-05
0.00155738
-3.43053e-05
0.00156117
-2.95026e-05
0.00156489
-2.43959e-05
0.00156722
-1.86908e-05
0.00156808
-1.35305e-05
0.00156938
-9.07578e-06
0.0015687
-4.59545e-06
0.00156634
1.8158e-07
0.0015638
5.32502e-06
0.00155886
1.08101e-05
0.00155257
1.57646e-05
0.00154689
1.97785e-05
0.00154103
2.36403e-05
0.00153492
2.69933e-05
0.00152768
3.00148e-05
0.00151752
3.27991e-05
0.00150629
3.53872e-05
0.00149536
3.73955e-05
0.00148502
3.9419e-05
0.00147431
4.06918e-05
0.00146293
4.10316e-05
0.00145026
4.0093e-05
0.00143727
3.86487e-05
0.00142415
3.6994e-05
0.00141025
3.53613e-05
0.00139553
3.37616e-05
0.00138083
3.12216e-05
0.00136497
2.90136e-05
0.00134622
2.83711e-05
0.00132236
3.10845e-05
0.00128973
4.05017e-05
0.0012439
5.83322e-05
0.00117913
9.56226e-05
0.00107771
0.000161277
0.000933151
0.00025286
0.000776306
0.00032816
0.000649399
0.000386688
0.000550633
0.000426484
0.000476523
0.00044917
0.00042175
0.000452624
0.000381942
0.000437224
0.000350155
0.000420352
0.00031951
0.000414088
0.000284163
0.00043229
0.000242459
0.000442557
0.000197105
0.000477755
0.000149352
0.000490849
0.000100636
0.000558014
4.63784e-05
-1.17267e-05
-1.41351e-05
0.000785029
-1.64759e-05
0.000794964
-1.87283e-05
0.000805201
-2.08955e-05
0.000815731
-2.29305e-05
0.000826535
-2.48299e-05
0.000837605
-2.65828e-05
0.000848918
-2.81781e-05
0.00086044
-2.95845e-05
0.000872141
-3.07965e-05
0.000883987
-3.18101e-05
0.000895937
-3.26237e-05
0.000907954
-3.3245e-05
0.000919995
-3.36653e-05
0.000932022
-3.38964e-05
0.000943994
-3.39582e-05
0.000955884
-3.38254e-05
0.000967601
-3.34872e-05
0.000979127
-3.30039e-05
0.000990455
-3.23794e-05
0.00100153
-3.1615e-05
0.00101233
-3.07303e-05
0.00102288
-2.97598e-05
0.00103314
-2.86528e-05
0.00104299
-2.74086e-05
0.00105232
-2.60721e-05
0.00106127
-2.47137e-05
0.00106989
-2.33845e-05
0.00107816
-2.19784e-05
0.00108606
-2.06213e-05
0.00109362
-1.9166e-05
0.00110076
-1.82262e-05
0.00110755
-1.85509e-05
0.00111398
-2.2805e-05
0.00112043
-3.49986e-05
0.00112839
-8.08007e-05
0.00114415
-9.96018e-05
0.00117512
-0.000109523
0.00120747
-0.00010371
0.00123493
-9.31838e-05
0.00125768
-8.1791e-05
0.00127538
-6.79383e-05
0.00128934
-5.72781e-05
0.00130124
-4.84879e-05
0.00131168
-0.000102384
0.00132096
-0.00010227
0.00133595
-0.000102366
0.00135101
-0.00010231
0.00136623
-0.000102155
0.00138068
-0.000102194
0.00139545
-0.000101981
0.00140984
-0.000101166
0.00142373
-0.000100361
0.00143788
-9.93268e-05
0.00145123
-9.7854e-05
0.00146458
-9.60833e-05
0.00147855
-9.39913e-05
0.00149111
-9.20965e-05
0.0015034
-8.9951e-05
0.00151621
-8.67732e-05
0.00152792
-8.38014e-05
0.00153956
-8.10525e-05
0.00155039
-7.7457e-05
0.00156037
-7.33038e-05
0.00157093
-6.90208e-05
0.00158036
-6.44528e-05
0.00158766
-5.99179e-05
0.00159491
-5.47622e-05
0.00160136
-4.88134e-05
0.00160653
-4.32965e-05
0.00161218
-3.82163e-05
0.00161565
-3.2448e-05
0.00161721
-2.60168e-05
0.00161864
-1.93231e-05
0.0016192
-1.27954e-05
0.00161861
-7.2578e-06
0.00161841
-2.17267e-06
0.00161565
3.87094e-06
0.00161077
1.02968e-05
0.0016055
1.63176e-05
0.00159928
2.21565e-05
0.00159217
2.71275e-05
0.00158512
3.1718e-05
0.00157734
3.597e-05
0.00156859
3.95187e-05
0.00155934
4.28674e-05
0.00154779
4.59459e-05
0.00153514
4.88074e-05
0.00152285
5.12402e-05
0.00151043
5.26256e-05
0.00149717
5.31927e-05
0.00148277
5.28619e-05
0.00146677
5.25528e-05
0.00144978
5.18858e-05
0.00143193
5.05807e-05
0.00141214
5.01484e-05
0.00138958
5.02527e-05
0.0013622
5.28746e-05
0.00132652
6.07088e-05
0.00127867
7.68245e-05
0.00121452
0.000105768
0.00112038
0.000160494
0.0009859
0.000240548
0.000830173
0.000317912
0.000693107
0.00037967
0.000583054
0.000427318
0.000496606
0.000461223
0.000430057
0.000481276
0.000379276
0.000488844
0.000340804
0.000484419
0.000311611
0.000468101
0.000287267
0.000456121
0.000261442
0.000455852
0.000230716
0.000477411
0.000195387
0.000490129
0.000157819
0.000526503
0.000118958
0.000545395
8.00662e-05
0.000604767
3.63092e-05
-2.13545e-05
-2.40637e-05
0.000795654
-2.67073e-05
0.000807637
-2.92528e-05
0.000819898
-3.1695e-05
0.000832434
-3.39971e-05
0.000845225
-3.61402e-05
0.000858262
-3.81027e-05
0.000871521
-3.98778e-05
0.000884968
-4.14307e-05
0.000898571
-4.27505e-05
0.000912296
-4.3832e-05
0.0009261
-4.46708e-05
0.000939944
-4.52849e-05
0.000953781
-4.5656e-05
0.000967574
-4.57818e-05
0.000981275
-4.56727e-05
0.000994859
-4.53819e-05
0.00100825
-4.48716e-05
0.00102141
-4.41416e-05
0.00103428
-4.32272e-05
0.00104687
-4.21574e-05
0.00105914
-4.09106e-05
0.00107109
-3.95992e-05
0.00108278
-3.81214e-05
0.001094
-3.6538e-05
0.00110462
-3.4827e-05
0.00111475
-3.30526e-05
0.00112453
-3.12631e-05
0.00113391
-2.94027e-05
0.00114286
-2.75071e-05
0.0011515
-2.57139e-05
0.00115972
-2.46628e-05
0.00116744
-2.54247e-05
0.00117457
-3.16928e-05
0.0011814
-5.2759e-05
0.00118912
-0.000114947
0.00119981
-0.000133947
0.0012249
-0.000137348
0.00125881
-0.00012634
0.00128807
-0.0001107
0.00131322
-9.55542e-05
0.00133338
-7.97058e-05
0.00134944
-6.76732e-05
0.00136321
-5.77916e-05
0.00137529
-0.000117406
0.00138602
-0.00011746
0.00140124
-0.000117517
0.00141655
-0.000117118
0.00143181
-0.00011681
0.0014467
-0.000116491
0.00146106
-0.000116118
0.00147577
-0.000115213
0.00148967
-0.00011397
0.00150345
-0.000112865
0.00151719
-0.000111359
0.00153047
-0.000109092
0.00154424
-0.000106924
0.00155737
-0.000104666
0.00156935
-0.000101978
0.00158168
-9.86616e-05
0.00159345
-9.47647e-05
0.00160391
-9.10189e-05
0.00161455
-8.73419e-05
0.00162412
-8.25434e-05
0.00163259
-7.72308e-05
0.00164186
-7.21593e-05
0.00164889
-6.65581e-05
0.00165419
-6.02304e-05
0.00166018
-5.37354e-05
0.00166471
-4.697e-05
0.00166772
-4.08162e-05
0.00167156
-3.45198e-05
0.00167327
-2.68753e-05
0.00167276
-1.89073e-05
0.00167213
-1.15101e-05
0.0016705
-4.62416e-06
0.00166742
1.62222e-06
0.00166418
8.37221e-06
0.00165896
1.59636e-05
0.00165248
2.30218e-05
0.0016456
2.93412e-05
0.00163827
3.51783e-05
0.00162961
4.05761e-05
0.00162047
4.52239e-05
0.00160996
5.00375e-05
0.0015988
5.44847e-05
0.00158656
5.81506e-05
0.00157244
6.16038e-05
0.00155717
6.46705e-05
0.00154088
6.71146e-05
0.00152381
6.8947e-05
0.00150606
6.9541e-05
0.00148634
7.00401e-05
0.00146361
7.135e-05
0.00143702
7.33005e-05
0.00140487
7.78236e-05
0.00136451
8.61993e-05
0.0013133
0.000101088
0.00124638
0.000125292
0.0011541
0.000171492
0.00102637
0.000240746
0.00087779
0.000316391
0.00073918
0.000377512
0.000625041
0.000427837
0.00053137
0.000466328
0.000456886
0.000494197
0.000398433
0.000512021
0.000352714
0.000519608
0.000316908
0.000517986
0.000287909
0.000509008
0.000264183
0.000494325
0.000242562
0.000487147
0.000218057
0.000491001
0.000190276
0.000514705
0.000159329
0.000528935
0.000127794
0.000565488
9.49097e-05
0.000589475
6.27558e-05
0.00064149
2.76455e-05
-3.30548e-05
-3.60405e-05
0.000807486
-3.89628e-05
0.000821464
-4.17836e-05
0.000835698
-4.44816e-05
0.000850189
-4.70301e-05
0.000864919
-4.93958e-05
0.000879875
-5.15481e-05
0.000895032
-5.34788e-05
0.000910359
-5.51556e-05
0.000925822
-5.65571e-05
0.000941384
-5.76811e-05
0.000957
-5.85164e-05
0.000972632
-5.90919e-05
0.00098823
-5.93735e-05
0.00100374
-5.93616e-05
0.00101911
-5.90501e-05
0.00103435
-5.85676e-05
0.0010494
-5.78051e-05
0.00106414
-5.67993e-05
0.00107852
-5.55489e-05
0.00109257
-5.41239e-05
0.00110627
-5.24932e-05
0.00111962
-5.07572e-05
0.00113267
-4.88623e-05
0.00114522
-4.68766e-05
0.00115714
-4.47564e-05
0.00116842
-4.25103e-05
0.00117932
-4.02053e-05
0.00118978
-3.78301e-05
0.00119979
-3.53227e-05
0.00120942
-3.31319e-05
0.00121864
-3.18547e-05
0.00122725
-3.27372e-05
0.00123514
-4.03372e-05
0.0012425
-6.55893e-05
0.0012502
-0.000143439
0.0012592
-0.000169839
0.00127674
-0.000166986
0.00130496
-0.000151385
0.00133403
-0.000130719
0.00136054
-0.000111454
0.00138359
-9.33723e-05
0.00140313
-7.97443e-05
0.00142002
-6.85886e-05
0.00143451
-0.000132717
0.00144711
-0.000132936
0.00146329
-0.000132818
0.00147929
-0.000132213
0.00149533
-0.0001314
0.00151155
-0.000130883
0.00152814
-0.000130265
0.00154466
-0.00012912
0.00156033
-0.000127704
0.00157507
-0.000126315
0.00158886
-0.000124715
0.00160209
-0.00012241
0.00161487
-0.000119465
0.00162695
-0.000116742
0.00163849
-0.000113625
0.00164907
-0.000109655
0.00165939
-0.000105199
0.00166918
-0.000100595
0.00167808
-9.5976e-05
0.00168643
-9.06871e-05
0.00169389
-8.45026e-05
0.00170059
-7.83136e-05
0.00170755
-7.21545e-05
0.00171281
-6.49286e-05
0.0017168
-5.72481e-05
0.00172075
-4.99735e-05
0.00172366
-4.25194e-05
0.0017256
-3.49067e-05
0.00172835
-2.67598e-05
0.00172809
-1.75232e-05
0.0017258
-8.78834e-06
0.0017236
-9.60167e-07
0.0017207
6.57934e-06
0.00171637
1.43602e-05
0.00171103
2.25413e-05
0.00170428
3.02108e-05
0.00169641
3.74085e-05
0.0016873
4.4135e-05
0.00167635
5.0678e-05
0.00166401
5.6429e-05
0.00165093
6.21352e-05
0.00163631
6.78154e-05
0.0016205
7.29491e-05
0.00160304
7.76875e-05
0.001584
8.17258e-05
0.00156349
8.51305e-05
0.00154056
8.87264e-05
0.00151479
9.22497e-05
0.00148458
9.64481e-05
0.00144797
0.000103225
0.00140191
0.000113647
0.00134627
0.000129129
0.00127418
0.00015337
0.00117875
0.000193926
0.00105405
0.000253752
0.000912841
0.000320662
0.000778281
0.000379479
0.000664497
0.000430416
0.000569361
0.000471088
0.000491503
0.000502357
0.000428049
0.000525015
0.000377155
0.000540023
0.000335828
0.000547758
0.000301482
0.000548584
0.000274313
0.000541853
0.000251915
0.000530881
0.000231384
0.000519132
0.000210503
0.000514988
0.000187194
0.000521664
0.000160463
0.000546068
0.000132385
0.000561906
0.000105083
0.00059782
7.71021e-05
0.000624904
5.03263e-05
0.000669526
2.19557e-05
-4.67742e-05
-5.00126e-05
0.000820536
-5.31907e-05
0.000836452
-5.62684e-05
0.000852604
-5.92075e-05
0.000868994
-6.19818e-05
0.00088561
-6.45506e-05
0.000902431
-6.68728e-05
0.000919437
-6.89413e-05
0.000936595
-7.07167e-05
0.000953867
-7.21745e-05
0.000971214
-7.33149e-05
0.000988594
-7.41209e-05
0.00100597
-7.46191e-05
0.00102328
-7.47677e-05
0.00104045
-7.45963e-05
0.00105748
-7.40862e-05
0.00107433
-7.33253e-05
0.00109097
-7.22564e-05
0.00110724
-7.09181e-05
0.00112313
-6.93108e-05
0.00113863
-6.74799e-05
0.00115374
-6.54361e-05
0.00116843
-6.32114e-05
0.00118275
-6.08496e-05
0.00119658
-5.83814e-05
0.00120979
-5.58105e-05
0.00122227
-5.30549e-05
0.00123427
-5.01917e-05
0.0012458
-4.72161e-05
0.0012568
-4.41085e-05
0.00126728
-4.14036e-05
0.00127735
-3.97946e-05
0.00128685
-4.05399e-05
0.00129561
-4.88441e-05
0.00130376
-7.6733e-05
0.00131176
-0.00016463
0.00132225
-0.000200241
0.00133956
-0.000196555
0.00136647
-0.000177906
0.00139526
-0.000153708
0.00142272
-0.000130869
0.00144804
-0.000110139
0.00147098
-9.42005e-05
0.00149068
-8.12222e-05
0.00150761
-0.000148984
0.00152227
-0.000149143
0.00153892
-0.000149032
0.00155498
-0.000148576
0.00157082
-0.000148054
0.00158626
-0.000147293
0.0016013
-0.000145913
0.00161551
-0.000143905
0.00162893
-0.000141627
0.0016423
-0.000139644
0.00165493
-0.000137566
0.00166729
-0.000134514
0.00167937
-0.000130968
0.00169087
-0.000127241
0.00170219
-0.000123638
0.00171268
-0.000119457
0.00172259
-0.000114032
0.00173223
-0.000108765
0.0017414
-0.000103465
0.00174931
-9.71572e-05
0.00175648
-9.05443e-05
0.00176311
-8.36652e-05
0.00176919
-7.64041e-05
0.00177503
-6.89719e-05
0.00177924
-6.02574e-05
0.00178217
-5.17727e-05
0.00178501
-4.38179e-05
0.00178712
-3.48544e-05
0.00178829
-2.55847e-05
0.00178883
-1.6011e-05
0.00178745
-6.39846e-06
0.00178404
3.1136e-06
0.0017789
1.19655e-05
0.00177214
2.12114e-05
0.00176402
3.05265e-05
0.00175483
3.94017e-05
0.00174475
4.77533e-05
0.00173312
5.57442e-05
0.00171932
6.34049e-05
0.00170329
7.0964e-05
0.00168583
7.82405e-05
0.00166744
8.5156e-05
0.00164738
9.14382e-05
0.00162443
9.78343e-05
0.00159793
0.000104516
0.00156747
0.000111126
0.00153187
0.000119024
0.00148899
0.000128835
0.00143698
0.000142531
0.00137414
0.000159023
0.00129482
0.000186059
0.00119281
0.000225026
0.00106874
0.000278599
0.000934696
0.000335563
0.000808231
0.000388651
0.00069879
0.000434519
0.000605432
0.000474532
0.000526709
0.000508245
0.0004612
0.000534615
0.00040773
0.00055338
0.000363062
0.000566472
0.000325557
0.000574405
0.000295351
0.000574913
0.000269385
0.000571073
0.000246874
0.000562558
0.000227033
0.000551958
0.000207701
0.000542517
0.000187216
0.000541539
0.000164972
0.0005495
0.000139223
0.00057334
0.000113743
0.000590066
8.97978e-05
0.000624805
6.5576e-05
0.000653565
4.26479e-05
0.000691803
1.91474e-05
-6.2454e-05
-6.59226e-05
0.000834817
-6.93365e-05
0.00085261
-7.26524e-05
0.00087062
-7.58175e-05
0.000888851
-7.8799e-05
0.000907292
-8.15538e-05
0.000925923
-8.40296e-05
0.000944721
-8.62125e-05
0.000963657
-8.80637e-05
0.000982679
-8.95557e-05
0.00100176
-9.06846e-05
0.00102085
-9.14371e-05
0.00103992
-9.18184e-05
0.00105888
-9.18122e-05
0.00107768
-9.14498e-05
0.00109632
-9.0715e-05
0.00111474
-8.96097e-05
0.00113288
-8.81921e-05
0.00115066
-8.6494e-05
0.00116802
-8.4518e-05
0.00118497
-8.22366e-05
0.00120144
-7.96998e-05
0.00121742
-7.69537e-05
0.00123293
-7.40472e-05
0.00124801
-7.10537e-05
0.00126244
-6.80042e-05
0.00127624
-6.47051e-05
0.00128941
-6.12238e-05
0.00130191
-5.75612e-05
0.00131379
-5.38474e-05
0.00132502
-5.05808e-05
0.00133578
-4.85134e-05
0.00134608
-4.89536e-05
0.00135585
-5.74488e-05
0.00136529
-8.92565e-05
0.0013759
-0.000185909
0.0013862
-0.00022985
0.00139887
-0.000226124
0.00141972
-0.000205556
0.00144498
-0.000179107
0.00147074
-0.000153754
0.00149701
-0.000129716
0.00152322
-0.000111063
0.00154619
-9.5888e-05
0.00156567
-0.000165727
0.00158244
-0.00016541
0.00159986
-0.000164882
0.00161651
-0.000164184
0.00163283
-0.000163153
0.00164892
-0.000161637
0.00166403
-0.000159787
0.00167901
-0.000157128
0.00169344
-0.000154557
0.00170762
-0.000152146
0.00172207
-0.00014937
0.00173507
-0.000146335
0.00174769
-0.000141939
0.00176016
-0.000137604
0.0017709
-0.000133415
0.0017812
-0.000128372
0.0017904
-0.000122754
0.00179924
-0.000116819
0.00180836
-0.000110276
0.00181615
-0.000103694
0.00182261
-9.60143e-05
0.0018291
-8.846e-05
0.00183529
-8.09595e-05
0.00184062
-7.22758e-05
0.00184623
-6.31556e-05
0.00184972
-5.3753e-05
0.00185249
-4.45089e-05
0.00185385
-3.45204e-05
0.00185335
-2.41223e-05
0.00185115
-1.28915e-05
0.0018476
-1.81061e-06
0.00184246
9.07799e-06
0.00183517
1.95682e-05
0.00182573
3.01748e-05
0.00181445
4.08207e-05
0.00180157
5.11236e-05
0.0017877
6.11346e-05
0.00177296
7.07966e-05
0.00175581
8.01022e-05
0.00173519
8.93491e-05
0.00171156
9.87837e-05
0.00168528
0.000108356
0.00165514
0.000117808
0.00161983
0.000128222
0.00157819
0.000140142
0.00152756
0.000153982
0.00146865
0.000170766
0.0013957
0.00019135
0.00130569
0.000221801
0.00119442
0.00026149
0.00106943
0.000310971
0.000943752
0.000359908
0.000828288
0.000405598
0.000726264
0.000445199
0.000637401
0.000482018
0.000560499
0.000513159
0.000495307
0.00054001
0.000440487
0.000561847
0.000394199
0.000579449