/*--------------------------------*- C++ -*----------------------------------*\
| =========                 |                                                 |
| \\      /  F ield         | OpenFOAM: The Open Source CFD Toolbox           |
|  \\    /   O peration     | Version:  2.2.x                                 |
|   \\  /    A nd           | Web:      www.OpenFOAM.org                      |
|    \\/     M anipulation  |                                                 |
\*---------------------------------------------------------------------------*/
FoamFile
{
    version     2.0;
    format      ascii;
    class       surfaceScalarField;
    location    "0.65";
    object      phi;
}
// * * * * * * * * * * * * * * * * * * * * * * * * * * * * * * * * * * * * * //

dimensions      [1 0 -1 0 0 0 0];

internalField   nonuniform List<scalar> 
28084
(
0.000746224
0.000742989
0.000740213
0.000737878
0.000735962
0.000734444
0.0007333
0.000732505
0.000732033
0.000731859
0.000731954
0.000732292
0.000732846
0.000733587
0.00073449
0.000735528
0.000736677
0.000737912
0.00073921
0.000740551
0.000741911
0.000743274
0.00074462
0.000745933
0.000747199
0.000748403
0.000749535
0.000750582
0.000751536
0.000752387
0.000753128
0.000753753
0.000754256
0.000754632
0.000754878
0.000754989
0.000754962
0.000754798
0.00075448
0.000754023
0.00075343
0.00075266
0.00075174
0.000750701
0.000749514
0.000758677
0.000768205
0.000778098
0.000788239
0.000798532
0.000809034
0.000819764
0.000831057
0.000843119
0.000850096
0.000856744
0.000879601
0.000906183
0.000932675
0.000958056
0.00098181
0.00100427
0.00102659
0.00104851
0.00106916
0.00108815
0.00110623
0.00112357
0.001139
0.00115298
0.00116695
0.00117898
0.00118864
0.00119721
0.00120537
0.00121288
0.00121926
0.00122487
0.00122985
0.00123458
0.00124002
0.00124406
0.00124562
0.00124518
0.00124154
0.00123634
0.00123182
0.0012248
0.00121312
0.00119607
0.00117191
0.00113674
0.00108735
0.00102346
0.000951585
0.000880815
0.000813778
0.000752817
0.000699831
0.000651443
0.000606743
0.000567651
0.000532674
0.000499979
0.000470432
0.000444004
0.000418531
0.000393543
0.000369463
0.000345864
0.000321837
0.000296549
0.000268488
0.000236849
0.000200408
0.000159931
0.00011453
6.69807e-05
3.7119e-06
3.23513e-06
0.00074974
2.77572e-06
0.000748785
2.33537e-06
0.00074826
1.91574e-06
0.000748148
1.51833e-06
0.00074843
1.14451e-06
0.000749085
7.95467e-07
0.000750089
4.7213e-07
0.000751417
1.75288e-07
0.000753042
-9.46127e-08
0.000754936
-3.37237e-07
0.000757072
-5.52757e-07
0.000759419
-7.40873e-07
0.000761947
-9.02886e-07
0.000764628
-1.03879e-06
0.000767432
-1.14934e-06
0.00077033
-1.23631e-06
0.000773296
-1.30036e-06
0.000776302
-1.34277e-06
0.000779324
-1.36475e-06
0.000782338
-1.36756e-06
0.000785322
-1.35271e-06
0.000788253
-1.32149e-06
0.000791114
-1.27577e-06
0.000793886
-1.21645e-06
0.000796554
-1.14552e-06
0.000799104
-1.06328e-06
0.000801523
-9.71897e-07
0.000803801
-8.71469e-07
0.000805927
-7.63644e-07
0.000807893
-6.49096e-07
0.000809693
-5.28058e-07
0.000811319
-4.02816e-07
0.000812768
-2.71734e-07
0.000814035
-1.38817e-07
0.000815118
4.53631e-10
0.000816014
1.37794e-07
0.000816719
2.8242e-07
0.000817234
4.31145e-07
0.000817554
5.75772e-07
0.00081768
7.27142e-07
0.000817618
8.76864e-07
0.00081735
1.02958e-06
0.000816889
1.19071e-06
0.000816237
-9.23349e-06
0.000815386
-9.58601e-06
0.000824077
-9.89053e-06
0.000833112
-1.01334e-05
0.000842454
-1.03211e-05
0.000852017
-1.0459e-05
0.000861763
-1.0423e-05
0.000871711
-1.04014e-05
0.000882
-1.05123e-05
0.000892948
-1.33308e-05
0.000905277
-2.03022e-05
0.000916137
-2.58491e-05
0.000927269
-2.52625e-05
0.00094868
-2.42008e-05
0.000973854
-2.30978e-05
0.000999166
-2.22566e-05
0.00102374
-2.17461e-05
0.00104732
-2.15656e-05
0.00107007
-2.08736e-05
0.00109283
-1.9831e-05
0.00111486
-1.87968e-05
0.00113564
-1.80214e-05
0.00115477
-1.71813e-05
0.00117276
-1.54837e-05
0.00118973
-1.35395e-05
0.00120446
-1.26824e-05
0.00121747
-1.21407e-05
0.00123049
-1.07219e-05
0.00124131
-9.09607e-06
0.00124997
-8.46345e-06
0.00125762
-8.37119e-06
0.00126496
-7.63093e-06
0.00127198
-6.47859e-06
0.00127796
-5.27324e-06
0.00128299
-4.28814e-06
0.00128735
-4.43754e-06
0.00129152
-3.60264e-06
0.00129452
-2.4027e-06
0.00129489
-5.11839e-07
0.00129328
1.95268e-06
0.00128946
4.31479e-06
0.00128336
5.9758e-06
0.00127583
8.23819e-06
0.00126697
1.14748e-05
0.00125486
1.63371e-05
0.00123748
2.32698e-05
0.00121301
3.37007e-05
0.00117889
4.79462e-05
0.00113053
6.42543e-05
0.00106403
7.35903e-05
0.000985619
7.27944e-05
0.000910897
6.74285e-05
0.000845056
6.09202e-05
0.000783364
5.45796e-05
0.000727077
4.87819e-05
0.000677732
4.35965e-05
0.000632655
3.89384e-05
0.000590881
3.52039e-05
0.000553858
3.20839e-05
0.000520089
2.93629e-05
0.000488155
2.69873e-05
0.000458953
2.53772e-05
0.000432545
2.42134e-05
0.000406924
2.3549e-05
0.000381642
2.3304e-05
0.000357132
2.37986e-05
0.000332882
2.50617e-05
0.000308084
2.75407e-05
0.000281905
3.08109e-05
0.000252837
3.5864e-05
0.000220107
4.02974e-05
0.000183066
4.53763e-05
0.000143874
4.74549e-05
0.000100426
6.67879e-05
5.35788e-05
5.11204e-06
4.19074e-06
0.000754435
3.30115e-06
0.00075573
2.44749e-06
0.000757427
1.63381e-06
0.000759511
8.63805e-07
0.000761964
1.40866e-07
0.000764766
-5.32061e-07
0.000767893
-1.1526e-06
0.00077132
-1.71874e-06
0.000775018
-2.22929e-06
0.000778959
-2.68334e-06
0.000783112
-3.0807e-06
0.000787445
-3.42101e-06
0.000791928
-3.70659e-06
0.000796526
-3.9376e-06
0.00080121
-4.11575e-06
0.000805949
-4.24407e-06
0.000810712
-4.32443e-06
0.000815471
-4.35951e-06
0.000820198
-4.35198e-06
0.000824868
-4.30453e-06
0.000829457
-4.22045e-06
0.00083394
-4.10265e-06
0.0008383
-3.95483e-06
0.000842515
-3.77932e-06
0.000846571
-3.57984e-06
0.000850452
-3.35792e-06
0.000854145
-3.11729e-06
0.00085764
-2.85934e-06
0.000860925
-2.58666e-06
0.000863995
-2.30133e-06
0.000866841
-2.00396e-06
0.00086946
-1.69852e-06
0.000871844
-1.38316e-06
0.000873994
-1.06395e-06
0.000875903
-7.35212e-07
0.000877574
-4.08232e-07
0.000879003
-7.08355e-08
0.00088019
2.74076e-07
0.00088114
6.10599e-07
0.000881843
9.56504e-07
0.000882303
1.30625e-06
0.000882533
1.66103e-06
0.000882522
2.01776e-06
0.000882241
-1.79777e-05
0.000881741
-1.86567e-05
0.000889973
-1.92406e-05
0.000898499
-1.97183e-05
0.000907241
-2.00891e-05
0.000916215
-2.0367e-05
0.000925438
-2.04961e-05
0.000934902
-2.07422e-05
0.000944789
-2.17979e-05
0.000955407
-2.85015e-05
0.00096811
-4.17779e-05
0.000981303
-5.08881e-05
0.000994842
-5.03864e-05
0.00101379
-4.84092e-05
0.00103681
-4.62428e-05
0.0010606
-4.46099e-05
0.00108423
-4.37604e-05
0.00110754
-4.35866e-05
0.00113052
-4.21925e-05
0.00115397
-4.00998e-05
0.00117672
-3.77564e-05
0.00119804
-3.57211e-05
0.00121737
-3.36955e-05
0.00123535
-3.028e-05
0.00125224
-2.64021e-05
0.00126675
-2.4455e-05
0.00127921
-2.32004e-05
0.00129085
-2.04026e-05
0.00130141
-1.72268e-05
0.0013101
-1.60775e-05
0.00131699
-1.58616e-05
0.00132279
-1.46636e-05
0.00132847
-1.26458e-05
0.0013338
-1.02029e-05
0.0013383
-8.33335e-06
0.00134266
-6.92679e-06
0.00134485
-4.17144e-06
0.00134443
-1.18918e-06
0.00134185
3.37649e-06
0.00133666
7.25783e-06
0.00133026
1.09289e-05
0.00132219
1.50167e-05
0.00131109
2.06522e-05
0.00129556
2.89107e-05
0.00127394
4.12589e-05
0.001244
5.77144e-05
0.00120306
8.11669e-05
0.00114926
0.000112852
0.00107633
0.000142264
0.000995948
0.000149173
0.000924808
0.000140538
0.000862772
0.000129712
0.000808143
0.000117295
0.000758019
0.000105397
0.000711703
9.42064e-05
0.000668289
8.43478e-05
0.000626453
7.59508e-05
0.000586767
6.91632e-05
0.00055055
6.32846e-05
0.000516656
5.82528e-05
0.000484368
5.398e-05
0.000454627
5.09814e-05
0.000427295
4.87309e-05
0.000400531
4.74972e-05
0.000374117
4.71936e-05
0.000348282
4.83526e-05
0.000322516
5.10077e-05
0.000295876
5.60863e-05
0.000267681
6.27151e-05
0.000236968
7.23545e-05
0.000204115
7.9328e-05
0.000168168
8.87837e-05
0.000131018
9.42265e-05
9.01367e-05
0.000120186
4.68248e-05
4.23055e-06
2.89594e-06
0.000760308
1.60449e-06
0.000763821
3.63689e-07
0.000767708
-8.19285e-07
0.000771958
-1.9378e-06
0.000776552
-2.98584e-06
0.000781472
-3.95815e-06
0.000786694
-4.85036e-06
0.000792191
-5.65886e-06
0.000797936
-6.3814e-06
0.000803896
-7.01616e-06
0.00081004
-7.56227e-06
0.000816336
-8.0194e-06
0.000822747
-8.39035e-06
0.00082924
-8.67631e-06
0.00083578
-8.87984e-06
0.000842336
-9.00441e-06
0.000848874
-9.05398e-06
0.000855364
-9.03237e-06
0.000861775
-8.94416e-06
0.00086808
-8.79397e-06
0.000874254
-8.58692e-06
0.000880271
-8.32799e-06
0.000886109
-8.02231e-06
0.000891751
-7.67462e-06
0.000897176
-7.28934e-06
0.000902372
-6.87118e-06
0.000907322
-6.42358e-06
0.000912019
-5.95174e-06
0.000916449
-5.45713e-06
0.000920609
-4.946e-06
0.000924488
-4.41681e-06
0.000928085
-3.87824e-06
0.000931394
-3.32456e-06
0.000934414
-2.76786e-06
0.00093714
-2.19895e-06
0.000939576
-1.62972e-06
0.00094172
-1.05295e-06
0.000943571
-4.66444e-07
0.000945138
1.13398e-07
0.000946409
6.98988e-07
0.000947393
1.29085e-06
0.000948105
1.88761e-06
0.000948525
2.48108e-06
0.00094863
-2.62187e-05
0.000948497
-2.71959e-05
0.00095623
-2.80357e-05
0.000964217
-2.87498e-05
0.000972399
-2.93325e-05
0.000980799
-2.9802e-05
0.000989388
-3.03054e-05
0.000998161
-3.12157e-05
0.00100723
-3.46432e-05
0.00101692
-4.57347e-05
0.00102853
-6.32435e-05
0.00104025
-7.38013e-05
0.00105167
-7.43467e-05
0.00106854
-7.20701e-05
0.00108972
-6.92608e-05
0.0011127
-6.70254e-05
0.00113626
-6.61319e-05
0.00116015
-6.65498e-05
0.00118438
-6.4564e-05
0.00120857
-6.11965e-05
0.00123189
-5.7083e-05
0.00125359
-5.34511e-05
0.001273
-4.99858e-05
0.00129075
-4.47455e-05
0.00130735
-3.891e-05
0.00132173
-3.55687e-05
0.00133428
-3.35018e-05
0.00134551
-2.93563e-05
0.00135658
-2.46389e-05
0.0013667
-2.23368e-05
0.00137503
-2.1768e-05
0.00138143
-2.04094e-05
0.00138695
-1.75706e-05
0.00139101
-1.4802e-05
0.0013939
-1.07539e-05
0.00139586
-7.157e-06
0.00139478
-2.1862e-06
0.00139035
3.82826e-06
0.0013836
9.89411e-06
0.00137584
1.52289e-05
0.0013669
2.16977e-05
0.0013541
2.99532e-05
0.00133451
4.13311e-05
0.00130451
5.82889e-05
0.00126261
8.26203e-05
0.0012081
0.000111905
0.00113768
0.000153708
0.00104658
0.000192702
0.000958287
0.000213265
0.000887004
0.00021157
0.0008303
0.000196659
0.000782689
0.000180483
0.00074036
0.000164163
0.000702258
0.000149769
0.000666457
0.000135904
0.000631007
0.000123316
0.000595586
0.000112435
0.000560285
0.00010309
0.000527438
9.47643e-05
0.000496094
8.77546e-05
0.000465806
8.18901e-05
0.000437231
7.76923e-05
0.000410007
7.44498e-05
0.000382874
7.28099e-05
0.00035587
7.25459e-05
0.000329481
7.46837e-05
0.000303377
7.88749e-05
0.000276761
8.62047e-05
0.000249146
9.47506e-05
0.000219682
0.000107793
0.000187892
0.000116401
0.000154204
0.000129611
0.000119383
0.000137436
8.12442e-05
0.00016684
4.15638e-05
1.10117e-06
-6.16605e-07
0.000767362
-2.28262e-06
0.000773056
-3.88531e-06
0.000779099
-5.41364e-06
0.000785479
-6.85737e-06
0.000792181
-8.20725e-06
0.000799186
-9.45512e-06
0.000806471
-1.05941e-05
0.000814008
-1.16187e-05
0.000821768
-1.25251e-05
0.000829719
-1.33103e-05
0.000837826
-1.39727e-05
0.000846054
-1.4512e-05
0.000854366
-1.49309e-05
0.000862726
-1.52321e-05
0.000871096
-1.5419e-05
0.000879443
-1.54957e-05
0.000887731
-1.54677e-05
0.000895926
-1.53405e-05
0.000903997
-1.51211e-05
0.000911915
-1.48164e-05
0.00091965
-1.44333e-05
0.000927178
-1.39793e-05
0.000934475
-1.34607e-05
0.000941521
-1.28854e-05
0.000948297
-1.22579e-05
0.000954787
-1.15876e-05
0.000960979
-1.08762e-05
0.000966859
-1.01346e-05
0.000972419
-9.36168e-06
0.000977651
-8.56997e-06
0.000982548
-7.75464e-06
0.000987107
-6.92964e-06
0.000991327
-6.08566e-06
0.000995203
-5.23985e-06
0.000998736
-4.38064e-06
0.00100193
-3.51865e-06
0.00100478
-2.65456e-06
0.00100728
-1.78021e-06
0.00100946
-9.10488e-07
0.00101129
-3.83999e-08
0.0010128
8.3417e-07
0.00101398
1.71347e-06
0.00101482
2.5914e-06
0.00101532
-3.39423e-05
0.00101554
-3.51985e-05
0.00102275
-3.62989e-05
0.00103016
-3.72174e-05
0.00103776
-3.79769e-05
0.0010456
-3.86158e-05
0.00105362
-3.93905e-05
0.00106177
-4.09715e-05
0.00107002
-4.67664e-05
0.00107845
-6.14875e-05
0.00108704
-8.16091e-05
0.00109395
-9.3584e-05
0.00110029
-9.64236e-05
0.00111401
-9.51295e-05
0.00113457
-9.24274e-05
0.00115853
-9.01972e-05
0.00118376
-8.98403e-05
0.00120981
-9.05084e-05
0.00123795
-8.77912e-05
0.00126588
-8.2888e-05
0.00129223
-7.66515e-05
0.00131616
-7.1096e-05
0.00133732
-6.61267e-05
0.00135644
-5.95014e-05
0.00137382
-5.21234e-05
0.00138894
-4.6948e-05
0.0014022
-4.39893e-05
0.00141331
-3.92421e-05
0.00142395
-3.30611e-05
0.00143354
-2.91012e-05
0.00144267
-2.72607e-05
0.00144844
-2.47146e-05
0.00145142
-2.03595e-05
0.00145179
-1.60065e-05
0.00145133
-1.04665e-05
0.00145058
-3.98741e-06
0.0014466
3.39073e-06
0.00143848
1.08994e-05
0.00142747
1.95402e-05
0.00141295
2.97178e-05
0.00139466
4.23157e-05
0.00136978
5.91554e-05
0.00133356
8.13902e-05
0.00128033
0.000111714
0.00120823
0.0001532
0.00111214
0.000203185
0.00100536
0.000242213
0.000915045
0.000264481
0.000844331
0.00026995
0.000789625
0.000258823
0.000746715
0.000239065
0.000710335
0.000219022
0.000677459
0.000201361
0.000647259
0.00018647
0.000617839
0.000171277
0.000588235
0.00015737
0.000557162
0.000145181
0.000526918
0.000134492
0.00049841
0.000124634
0.000470393
0.000116383
0.000442751
0.000109526
0.000416157
0.00010464
0.000390037
0.000100567
0.000363792
9.855e-05
0.000337604
9.82665e-05
0.000311551
0.00010101
0.000285383
0.000106218
0.000258793
0.000115108
0.00023161
0.000125762
0.000202611
0.000141044
0.000172088
0.000151217
0.000140593
0.000167733
0.000108234
0.000177019
7.33807e-05
0.000208237
3.70508e-05
-4.23853e-06
-6.31052e-06
0.0007756
-8.32486e-06
0.000783435
-1.02652e-05
0.000791594
-1.21158e-05
0.000800067
-1.38623e-05
0.00080884
-1.54915e-05
0.000817894
-1.69919e-05
0.000827207
-1.83535e-05
0.000836749
-1.95684e-05
0.000846491
-2.06312e-05
0.000856398
-2.15374e-05
0.000866434
-2.22841e-05
0.000876563
-2.28714e-05
0.000886746
-2.33017e-05
0.000896942
-2.35789e-05
0.000907113
-2.37077e-05
0.000917221
-2.36924e-05
0.00092723
-2.35407e-05
0.000937103
-2.32605e-05
0.000946807
-2.28607e-05
0.00095631
-2.23505e-05
0.000965582
-2.17389e-05
0.000974596
-2.10359e-05
0.000983328
-2.025e-05
0.000991755
-1.93913e-05
0.000999859
-1.84671e-05
0.00100762
-1.7488e-05
0.00101503
-1.64591e-05
0.00102208
-1.53913e-05
0.00102875
-1.42873e-05
0.00103504
-1.31589e-05
0.00104093
-1.20053e-05
0.00104644
-1.08393e-05
0.00105155
-9.65435e-06
0.00105627
-8.4666e-06
0.0010606
-7.26798e-06
0.00106453
-6.06622e-06
0.00106807
-4.86564e-06
0.00107123
-3.65746e-06
0.00107399
-2.45203e-06
0.00107638
-1.24898e-06
0.00107839
-5.52767e-08
0.00108004
1.15355e-06
0.0010813
2.35845e-06
0.00108217
-4.11561e-05
0.00108273
-4.26693e-05
0.00108941
-4.39849e-05
0.00109628
-4.50947e-05
0.00110328
-4.59838e-05
0.00111049
-4.67629e-05
0.00111789
-4.77596e-05
0.00112534
-4.97122e-05
0.00113274
-5.6333e-05
0.00114
-7.32779e-05
0.00114655
-9.5295e-05
0.00114957
-0.000109381
0.00115021
-0.000117271
0.0011628
-0.000118749
0.00118442
-0.000117112
0.00121234
-0.000115724
0.00124266
-0.000117622
0.00127429
-0.000118057
0.0013065
-0.000113878
0.00133769
-0.000106857
0.00136672
-9.81187e-05
0.00139246
-9.02791e-05
0.00141456
-8.34799e-05
0.00143408
-7.51125e-05
0.00145167
-6.61841e-05
0.00146678
-5.86296e-05
0.00147937
-5.42301e-05
0.00148931
-4.87669e-05
0.00149754
-4.17757e-05
0.00150456
-3.56227e-05
0.00151086
-3.12411e-05
0.00151549
-2.57524e-05
0.00151582
-1.97841e-05
0.00151302
-1.28808e-05
0.00150876
-5.39074e-06
0.00150463
2.7723e-06
0.00149831
1.20229e-05
0.00148627
2.38784e-05
0.00146632
3.8775e-05
0.00143852
5.74984e-05
0.00140194
8.07654e-05
0.00135128
0.000112269
0.00128361
0.00015242
0.00119045
0.000207032
0.00107445
0.000259255
0.000965584
0.000293301
0.000878272
0.000313384
0.0008095
0.000319535
0.000756914
0.000312336
0.000716234
0.000294236
0.000683496
0.000271836
0.000654515
0.00025111
0.000627764
0.000233214
0.000601862
0.000217
0.000575274
0.000201009
0.000547868
0.000186402
0.00052056
0.000173759
0.000494544
0.000162636
0.000469076
0.000151972
0.000443269
0.000143085
0.000417855
0.00013568
0.00039315
0.000130534
0.000368505
0.000126009
0.000343517
0.0001242
0.000318411
0.00012424
0.000293172
0.000127384
0.000267699
0.000133011
0.000241552
0.000143439
0.000214773
0.000155514
0.000186587
0.000172214
0.000157671
0.000183653
0.000128186
0.000202669
9.80514e-05
0.000213262
6.63249e-05
0.000245104
3.3092e-05
-1.17471e-05
-1.41455e-05
0.000785028
-1.64831e-05
0.00079496
-1.87379e-05
0.000805191
-2.08888e-05
0.000815715
-2.29165e-05
0.000826518
-2.48033e-05
0.000837582
-2.65338e-05
0.000848883
-2.80946e-05
0.000860392
-2.9475e-05
0.000872078
-3.06672e-05
0.000883905
-3.16652e-05
0.000895835
-3.24653e-05
0.000907829
-3.30672e-05
0.000919847
-3.34727e-05
0.000931846
-3.36874e-05
0.000943784
-3.37172e-05
0.000955621
-3.35666e-05
0.000967319
-3.32459e-05
0.000978839
-3.27663e-05
0.000990146
-3.21377e-05
0.0010012
-3.13716e-05
0.00101198
-3.04798e-05
0.00102246
-2.94743e-05
0.0010326
-2.83675e-05
0.00104238
-2.71708e-05
0.00105179
-2.58959e-05
0.0010608
-2.45528e-05
0.00106941
-2.31527e-05
0.00107759
-2.17045e-05
0.00108535
-2.02167e-05
0.00109268
-1.86979e-05
0.00109956
-1.71535e-05
0.00110599
-1.55933e-05
0.00111198
-1.40163e-05
0.00111753
-1.24354e-05
0.00112263
-1.08483e-05
0.00112729
-9.26048e-06
0.00113151
-7.67621e-06
0.00113529
-6.0857e-06
0.00113865
-4.50251e-06
0.00114157
-2.92667e-06
0.00114407
-1.36324e-06
0.00114618
2.16762e-07
0.00114785
1.7844e-06
0.00114909
-4.78483e-05
0.00114997
-4.95976e-05
0.00115614
-5.10894e-05
0.00116248
-5.23528e-05
0.00116885
-5.33521e-05
0.00117542
-5.42278e-05
0.00118218
-5.53118e-05
0.00118899
-5.73743e-05
0.00119568
-6.42115e-05
0.00120213
-8.20304e-05
0.0012076
-0.000104086
0.00120796
-0.000124255
0.00120518
-0.000139052
0.00121708
-0.000146013
0.0012405
-0.000146492
0.00127393
-0.000146327
0.00131005
-0.000149178
0.00134907
-0.000148344
0.00138636
-0.000141964
0.00142108
-0.000132387
0.00145313
-0.000120552
0.00148173
-0.000109725
0.00150563
-0.000100804
0.00152568
-9.08354e-05
0.00154344
-7.98198e-05
0.00155851
-6.95004e-05
0.00156973
-6.26301e-05
0.0015774
-5.56484e-05
0.00158313
-4.77743e-05
0.00158766
-4.03202e-05
0.00159133
-3.25473e-05
0.00159129
-2.38724e-05
0.00158659
-1.57034e-05
0.0015794
-7.20611e-06
0.00156974
2.56577e-06
0.0015583
1.43772e-05
0.00154411
2.91792e-05
0.00152207
4.91708e-05
0.0014866
7.53744e-05
0.00143551
0.000110123
0.0013676
0.000150274
0.00127651
0.000206561
0.00115573
0.000269234
0.00103482
0.000315593
0.000934791
0.000345537
0.000852612
0.000361795
0.000786093
0.000366457
0.000734183
0.000360266
0.000694441
0.000344508
0.000662834
0.000322889
0.000636041
0.000299877
0.000611183
0.000279365
0.000587325
0.000260745
0.000563274
0.000243269
0.000538333
0.000226878
0.00051311
0.00021247
0.000488731
0.000199531
0.000464972
0.000188108
0.000440801
0.000177024
0.000417029
0.000167978
0.000393885
0.000160409
0.00037054
0.000155175
0.000346792
0.00015076
0.000322925
0.00014927
0.000299094
0.0001494
0.000274821
0.000153049
0.000250003
0.000159153
0.000224356
0.000170832
0.000198408
0.000183788
0.000171544
0.00020152
0.000144284
0.000213962
0.000116811
0.000234547
8.89007e-05
0.00024638
6.00009e-05
0.00027797
2.96188e-05
-2.13788e-05
-2.40774e-05
0.000795653
-2.67144e-05
0.000807634
-2.92614e-05
0.000819891
-3.16916e-05
0.00083242
-3.39799e-05
0.000845208
-3.61035e-05
0.000858237
-3.80425e-05
0.000871483
-3.97798e-05
0.000884916
-4.13013e-05
0.000898505
-4.25968e-05
0.000912212
-4.36586e-05
0.000925996
-4.44816e-05
0.000939817
-4.50653e-05
0.000953631
-4.54108e-05
0.000967395
-4.5525e-05
0.000981064
-4.54151e-05
0.000994594
-4.50879e-05
0.00100794
-4.45544e-05
0.00102108
-4.38283e-05
0.00103395
-4.29223e-05
0.00104654
-4.18504e-05
0.00105879
-4.06275e-05
0.00107069
-3.92684e-05
0.00108221
-3.77883e-05
0.00109332
-3.62011e-05
0.001104
-3.45214e-05
0.00111424
-3.27618e-05
0.00112402
-3.09354e-05
0.00113332
-2.90542e-05
0.00114215
-2.71279e-05
0.00115048
-2.51677e-05
0.00115833
-2.31797e-05
0.00116567
-2.11759e-05
0.00117252
-1.91571e-05
0.00117888
-1.71334e-05
0.00118474
-1.51088e-05
0.0011901
-1.30882e-05
0.00119498
-1.10748e-05
0.00119939
-9.05629e-06
0.00120332
-7.05127e-06
0.00120677
-5.05986e-06
0.00120975
-3.08225e-06
0.00121229
-1.09777e-06
0.00121437
8.71169e-07
0.00121596
-5.40059e-05
0.00121718
-5.5959e-05
0.00122282
-5.76051e-05
0.00122861
-5.89964e-05
0.00123437
-6.00877e-05
0.00124031
-6.10292e-05
0.00124645
-6.21537e-05
0.0012526
-6.42623e-05
0.00125864
-7.11442e-05
0.00126455
-8.86761e-05
0.00126966
-0.000110323
0.00126836
-0.000138838
0.00126499
-0.000162573
0.00127886
-0.000178626
0.0013083
-0.000181385
0.00134864
-0.00018366
0.0013919
-0.000185665
0.00143784
-0.000182308
0.00148084
-0.000172761
0.00152051
-0.000160478
0.00155566
-0.000144559
0.00158676
-0.000129503
0.00161265
-0.000117564
0.00163269
-0.000105473
0.0016497
-9.17285e-05
0.00166396
-7.83283e-05
0.00167435
-6.86795e-05
0.00168092
-5.96183e-05
0.00168362
-5.04889e-05
0.00168357
-4.02147e-05
0.00168266
-2.92968e-05
0.00167953
-1.85737e-05
0.00167061
-7.06594e-06
0.00165504
5.17219e-06
0.00163654
1.9891e-05
0.00161215
3.90421e-05
0.00157871
6.44157e-05
0.00153165
9.86421e-05
0.00146586
0.00014242
0.00137573
0.000200828
0.00125438
0.000270948
0.00111871
0.000328589
0.00100368
0.000370003
0.000911128
0.000397273
0.000836155
0.000410824
0.000774348
0.000413448
0.000723026
0.000406977
0.000682519
0.000392304
0.00065112
0.000371445
0.000624937
0.000348086
0.000600965
0.000325103
0.0005778
0.000304308
0.000554932
0.000284991
0.000531537
0.000267015
0.000507809
0.000251086
0.000484636
0.000236689
0.000461897
0.000223272
0.000438587
0.000211282
0.000415365
0.000200242
0.000393117
0.000191612
0.000371273
0.000184246
0.000348994
0.000178695
0.000326494
0.000174275
0.000303771
0.000173115
0.000280701
0.000173632
0.000256942
0.000177983
0.000232753
0.000184298
0.00020784
0.000196994
0.000183005
0.00021061
0.000157649
0.000228946
0.000132005
0.000242115
0.000106328
0.000263615
8.05613e-05
0.000276569
5.42416e-05
0.000307323
2.65017e-05
-3.30838e-05
-3.60577e-05
0.000807485
-3.89715e-05
0.000821461
-4.17899e-05
0.000835693
-4.44793e-05
0.000850176
-4.70085e-05
0.0008649
-4.9349e-05
0.000879847
-5.14759e-05
0.000894991
-5.33678e-05
0.000910303
-5.5007e-05
0.00092575
-5.63803e-05
0.000941291
-5.74784e-05
0.000956886
-5.82948e-05
0.00097249
-5.88281e-05
0.000988059
-5.90792e-05
0.00100355
-5.90554e-05
0.00101891
-5.87665e-05
0.00103409
-5.82218e-05
0.00104906
-5.74324e-05
0.00106376
-5.64134e-05
0.00107817
-5.51826e-05
0.00109224
-5.37564e-05
0.00110594
-5.21526e-05
0.00111923
-5.03895e-05
0.0011321
-4.84846e-05
0.0011445
-4.64555e-05
0.00115643
-4.43183e-05
0.00116786
-4.20902e-05
0.00117878
-3.97845e-05
0.00118918
-3.74178e-05
0.00119905
-3.50005e-05
0.00120837
-3.25471e-05
0.00121715
-3.0065e-05
0.00122538
-2.75677e-05
0.00123307
-2.50595e-05
0.00124021
-2.25457e-05
0.00124681
-2.00348e-05
0.00125288
-1.75352e-05
0.00125841
-1.50482e-05
0.00126341
-1.25593e-05
0.0012679
-1.00885e-05
0.00127187
-7.63962e-06
0.00127534
-5.20837e-06
0.00127831
-2.77878e-06
0.00128077
-3.69446e-07
0.00128274
-5.96268e-05
0.00128426
-6.17554e-05
0.00128933
-6.35411e-05
0.0012945
-6.50316e-05
0.00129974
-6.61901e-05
0.00130511
-6.71638e-05
0.00131057
-6.83202e-05
0.001316
-7.05598e-05
0.00132147
-7.75964e-05
0.00132725
-9.40297e-05
0.00133352
-0.000116761
0.00133049
-0.000155832
0.00132999
-0.000192038
0.00134989
-0.000218219
0.00139004
-0.000223561
0.00144148
-0.000227826
0.00149605
-0.000227421
0.00155077
-0.000221249
0.00160256
-0.000206885
0.00164888
-0.000191282
0.00168972
-0.000171323
0.00172245
-0.000150507
0.00174655
-0.000133972
0.00176383
-0.000118384
0.00177634
-0.000101679
0.00178634
-8.53684e-05
0.00179282
-7.22907e-05
0.00179531
-5.97002e-05
0.00179148
-4.77508e-05
0.0017838
-3.50926e-05
0.00177462
-2.08782e-05
0.00176437
-5.58493e-06
0.00175054
8.7948e-06
0.00172696
2.9246e-05
0.00168772
5.63079e-05
0.00163408
9.0195e-05
0.00156717
0.000132922
0.00147877
0.000189824
0.00135977
0.000263631
0.00121853
0.000334769
0.00108813
0.000385461
0.000981676
0.000422201
0.000895645
0.000445926
0.000827063
0.000458653
0.000770643
0.000460573
0.000722982
0.000453645
0.00068202
0.000439748
0.00064855
0.000419777
0.000621323
0.000395884
0.000597765
0.000371647
0.000574697
0.000348688
0.000552
0.000327586
0.000529184
0.000307919
0.00050598
0.000290036
0.000482952
0.0002741
0.000460299
0.000259495
0.000437924
0.000245716
0.000415545
0.000233424
0.000393827
0.000222347
0.000372424
0.000213899
0.000350751
0.000206533
0.000328655
0.000201158
0.000306775
0.000196975
0.000284876
0.000196329
0.0002626
0.000197119
0.000239598
0.000202073
0.000216204
0.000208337
0.000192235
0.00022181
0.000168515
0.000236098
0.000144632
0.000254718
0.000120649
0.000268096
9.68565e-05
0.000290033
7.30044e-05
0.000304093
4.89183e-05
0.000333597
2.36408e-05
-4.68079e-05
-5.00336e-05
0.000820535
-5.3203e-05
0.00083645
-5.62731e-05
0.0008526
-5.92029e-05
0.000868984
-6.19544e-05
0.00088559
-6.44929e-05
0.000902402
-6.67879e-05
0.000919393
-6.88133e-05
0.000936534
-7.05476e-05
0.000953789
-7.19742e-05
0.000971116
-7.30817e-05
0.000988474
-7.38625e-05
0.00100582
-7.43143e-05
0.00102309
-7.44376e-05
0.00104026
-7.42397e-05
0.00105726
-7.37331e-05
0.00107406
-7.29302e-05
0.0010906
-7.18416e-05
0.00110684
-7.04859e-05
0.00112274
-6.88846e-05
0.00113826
-6.70569e-05
0.00115336
-6.50237e-05
0.00116801
-6.28067e-05
0.00118218
-6.04265e-05
0.00119585
-5.79039e-05
0.00120899
-5.52581e-05
0.00122159
-5.25092e-05
0.00123362
-4.96739e-05
0.00124508
-4.67701e-05
0.00125596
-4.38123e-05
0.00126625
-4.08155e-05
0.00127594
-3.77904e-05
0.00128503
-3.475e-05
0.00129354
-3.17034e-05
0.00130145
-2.86546e-05
0.00130877
-2.5612e-05
0.00131551
-2.25862e-05
0.00132167
-1.95806e-05
0.00132726
-1.65791e-05
0.00133229
-1.36045e-05
0.00133677
-1.06566e-05
0.0013407
-7.73209e-06
0.00134409
-4.81191e-06
0.00134693
-1.92081e-06
0.00134928
-6.471e-05
0.00135112
-6.69873e-05
0.00135556
-6.89029e-05
0.00136012
-7.04427e-05
0.00136486
-7.16322e-05
0.00136966
-7.26274e-05
0.00137438
-7.39034e-05
0.00137908
-7.65154e-05
0.00138406
-8.47601e-05
0.00139005
-9.82989e-05
0.00139954
-0.000127737
0.00139359
-0.00017962
0.0014086
-0.000232125
0.0014487
-0.000268603
0.00150744
-0.00027703
0.0015718
-0.000280961
0.00163864
-0.000277513
0.00170141
-0.000267152
0.00175946
-0.000246603
0.00180651
-0.000223491
0.00184363
-0.000196864
0.00187071
-0.000169519
0.0018894
-0.000147523
0.00190252
-0.000128173
0.00190782
-0.00010656
0.00190755
-8.72057e-05
0.00190539
-6.96806e-05
0.00190152
-5.3814e-05
0.00189158
-3.83388e-05
0.00187523
-2.26045e-05
0.00185441
-5.80585e-06
0.00182846
1.64931e-05
0.00179413
4.43747e-05
0.00174423
7.98487e-05
0.00167627
0.000123056
0.0015825
0.000181007
0.00145851
0.000255126
0.00131138
0.000333588
0.00117296
0.000393858
0.00105958
0.000439189
0.000965373
0.000470947
0.000887402
0.000492184
0.000823512
0.000503545
0.000771568
0.000505914
0.000727943
0.000500062
0.000689861
0.00048704
0.00065599
0.000468609
0.000626455
0.000445014
0.000601346
0.000419333
0.000578282
0.000394541
0.000554972
0.000371641
0.000532109
0.000350455
0.000509352
0.000330677
0.00048673
0.000312771
0.00046416
0.000296152
0.000441542
0.000281034
0.000418909
0.000267086
0.00039665
0.000255017
0.000375097
0.000244141
0.000353942
0.000235842
0.000332549
0.000228217
0.000310949
0.000222894
0.00028957
0.00021897
0.000268082
0.000218845
0.000246221
0.000219815
0.000223718
0.00022523
0.000200963
0.0002313
0.000177941
0.000245254
0.000155245
0.000260098
0.000132747
0.000278642
0.000110194
0.000292079
8.79186e-05
0.000314184
6.57144e-05
0.000329214
4.37362e-05
0.000357079
2.09602e-05
-6.24921e-05
-6.59479e-05
0.000834816
-6.93532e-05
0.000852607
-7.26566e-05
0.000870616
-7.58092e-05
0.000888841
-7.87654e-05
0.000907273
-8.1484e-05
0.000925893
-8.39283e-05
0.000944676
-8.60671e-05
0.000963591
-8.78746e-05
0.0009826
-8.93309e-05
0.00100166
-9.04219e-05
0.00102073
-9.11389e-05
0.00103976
-9.14787e-05
0.00105869
-9.14415e-05
0.00107749
-9.1035e-05
0.00109609
-9.02727e-05
0.00111445
-8.91706e-05
0.00113252
-8.77424e-05
0.00115025
-8.60074e-05
0.0011676
-8.39906e-05
0.00118452
-8.17146e-05
0.00120099
-7.92047e-05
0.00121696
-7.64855e-05
0.0012324
-7.35809e-05
0.00124729
-7.05148e-05
0.00126161
-6.73102e-05
0.00127534
-6.39898e-05
0.00128845
-6.05749e-05
0.00130094
-5.70853e-05
0.0013128
-5.35374e-05
0.00132402
-4.99495e-05
0.0013346
-4.63332e-05
0.00134453
-4.2703e-05
0.00135383
-3.90686e-05
0.00136248
-3.54398e-05
0.00137051
-3.18228e-05
0.0013779
-2.8227e-05
0.00138468
-2.46567e-05
0.00139084
-2.11007e-05
0.0013964
-1.75824e-05
0.00140136
-1.40955e-05
0.00140574
-1.06382e-05
0.00140953
-7.19283e-06
0.00141276
-3.77984e-06
0.00141544
-6.92344e-05
0.00141756
-7.16671e-05
0.00142145
-7.36767e-05
0.00142547
-7.52331e-05
0.00142964
-7.64328e-05
0.00143377
-7.74506e-05
0.00143778
-7.89255e-05
0.00144185
-8.23235e-05
0.00144629
-9.37629e-05
0.00145151
-0.000101862
0.00145618
-0.000156982
0.00147804
-0.000222154
0.00152669
-0.00028909
0.00159685
-0.000330615
0.00167617
-0.000341527
0.00174864
-0.000342134
0.00181525
-0.000334357
0.00187304
-0.000314023
0.00192031
-0.000283412
0.00195664
-0.000250167
0.00198398
-0.000214866
0.0020028
-0.000182592
0.002016
-0.000154872
0.00202334
-0.000129606
0.00201891
-0.000103295
0.00200523
-7.97287e-05
0.00199284
-5.82526e-05
0.00198616
-4.03913e-05
0.00197087
-2.09286e-05
0.00193714
4.67844e-06
0.00188719
3.42159e-05
0.00182937
7.09553e-05
0.00176099
0.000112622
0.0016686
0.000171492
0.00154107
0.000245633
0.00139078
0.000328132
0.00124536
0.000394986
0.00112508
0.000448046
0.00102644
0.000487549
0.000946539
0.000515607
0.000880256
0.000534449
0.000824075
0.000545468
0.000776456
0.000548311
0.000736219
0.000543995
0.000701253
0.000533217
0.000669488
0.000516787
0.000639956
0.000495572
0.000612993
0.000469671
0.000588744
0.000442742
0.000565196
0.000417354
0.000541088