/*--------------------------------*- C++ -*----------------------------------*\
| =========                 |                                                 |
| \\      /  F ield         | OpenFOAM: The Open Source CFD Toolbox           |
|  \\    /   O peration     | Version:  2.2.x                                 |
|   \\  /    A nd           | Web:      www.OpenFOAM.org                      |
|    \\/     M anipulation  |                                                 |
\*---------------------------------------------------------------------------*/
FoamFile
{
    version     2.0;
    format      ascii;
    class       volScalarField;
    location    "0.4";
    object      p;
}
// * * * * * * * * * * * * * * * * * * * * * * * * * * * * * * * * * * * * * //

dimensions      [1 -1 -2 0 0 0 0];

internalField   nonuniform List<scalar> 
14161
(
0.199722
0.199767
0.199727
0.199695
0.199642
0.199577
0.199493
0.199395
0.199279
0.199144
0.198989
0.198813
0.198618
0.198398
0.198162
0.197901
0.19762
0.197331
0.197001
0.196689
0.196333
0.195991
0.195631
0.195268
0.194908
0.194538
0.194171
0.193828
0.193491
0.19313
0.192815
0.192529
0.192263
0.192002
0.191752
0.191524
0.191296
0.19107
0.190915
0.19079
0.190674
0.190549
0.1904
0.190269
0.190196
0.190166
0.190168
0.190238
0.190347
0.190424
0.190516
0.190704
0.191131
0.191987
0.192987
0.193738
0.194148
0.194006
0.195382
0.199463
0.203222
0.37037
1.44824
1.77042
1.8652
1.81393
1.68137
1.59063
1.48988
1.41383
1.34949
1.28802
1.2255
1.18338
1.16083
1.15473
1.1664
1.21789
1.32854
1.48098
1.62932
1.75233
1.8417
1.87605
1.90732
1.93828
1.95122
1.95336
1.95591
1.96298
1.97334
1.98193
1.99104
1.99655
1.99962
2.00292
2.00856
2.01546
2.02453
2.03254
2.03985
2.04335
2.04702
2.04946
2.05429
2.0582
2.06176
2.06102
2.06065
2.05661
2.05851
2.05557
2.05973
2.05852
2.06377
2.0619
2.06287
2.06555
2.0683
0.199722
0.199767
0.199727
0.199695
0.199641
0.199576
0.199493
0.199395
0.199278
0.199143
0.198988
0.198814
0.198616
0.1984
0.19816
0.197898
0.197625
0.197314
0.197017
0.196668
0.196347
0.195986
0.195618
0.195276
0.194908
0.194534
0.194165
0.193819
0.19347
0.193131
0.192833
0.192559
0.192269
0.191984
0.191736
0.191507
0.19129
0.191073
0.190907
0.190774
0.190641
0.190513
0.19037
0.190244
0.190169
0.190138
0.19013
0.190171
0.190215
0.190222
0.190229
0.190235
0.190317
0.190453
0.190829
0.191392
0.192365
0.193162
0.194983
0.197957
0.204873
0.262428
1.22036
1.6355
1.69663
1.65501
1.57451
1.51492
1.4464
1.39173
1.3646
1.31134
1.26254
1.22324
1.20765
1.20639
1.23161
1.25309
1.33254
1.38899
1.46769
1.54484
1.65755
1.7427
1.8125
1.86613
1.89963
1.91746
1.93167
1.94559
1.95905
1.9706
1.97968
1.9863
1.99293
1.99914
2.00722
2.01553
2.02386
2.03138
2.03881
2.04295
2.04773
2.0507
2.05574
2.05939
2.06338
2.06294
2.06313
2.05919
2.06076
2.05833
2.06181
2.0614
2.06583
2.06397
2.06185
2.06774
2.07087
0.199722
0.199767
0.199727
0.199695
0.199641
0.199576
0.199493
0.199395
0.199278
0.199143
0.198988
0.198813
0.198615
0.198401
0.198156
0.197903
0.197619
0.197323
0.197012
0.196675
0.196342
0.195988
0.195625
0.195259
0.194902
0.194528
0.194161
0.193809
0.193462
0.193115
0.192816
0.192558
0.192285
0.191991
0.191738
0.191503
0.191279
0.19107
0.190905
0.190779
0.190664
0.190556
0.190439
0.19032
0.190241
0.19019
0.19017
0.19019
0.190281
0.19042
0.190614
0.190952
0.191502
0.192015
0.192406
0.192925
0.193101
0.192843
0.192089
0.191426
0.188616
0.197014
0.796616
1.47018
1.53897
1.48125
1.42759
1.39473
1.32672
1.29303
1.27431
1.21953
1.18183
1.15358
1.13887
1.13711
1.17586
1.20064
1.26942
1.29398
1.31529
1.33517
1.38795
1.44883
1.56914
1.66729
1.75408
1.80702
1.84291
1.87186
1.89644
1.91849
1.93262
1.9447
1.95898
1.9718
1.98708
1.99742
2.00654
2.01456
2.02356
2.03036
2.03779
2.04247
2.04792
2.05184
2.05644
2.05714
2.05802
2.0553
2.05685
2.05502
2.058
2.05873
2.06321
2.06253
2.06156
2.06592
2.0707
0.199723
0.199767
0.199727
0.199694
0.199641
0.199576
0.199493
0.199395
0.199277
0.199143
0.198987
0.198812
0.198616
0.198398
0.198159
0.197901
0.197617
0.197329
0.197001
0.196688
0.196333
0.195985
0.19563
0.195252
0.194908
0.194534
0.194166
0.193806
0.193463
0.193133
0.192818
0.19253
0.192249
0.191965
0.191709
0.191478
0.191254
0.191038
0.190847
0.190693
0.190552
0.190433
0.19031
0.190197
0.190096
0.19004
0.189999
0.189959
0.189904
0.189831
0.189685
0.189553
0.189442
0.18929
0.189301
0.189336
0.189308
0.188285
0.186169
0.18022
0.176966
0.176879
0.264897
1.28597
1.45177
1.33754
1.30721
1.262
1.24585
1.21149
1.21738
1.15037
1.13268
1.10824
1.09965
1.0925
1.13093
1.16754
1.22367
1.23955
1.24588
1.24535
1.25597
1.27583
1.35771
1.45824
1.57335
1.65868
1.7284
1.77891
1.82213
1.85989
1.88646
1.90782
1.92631
1.94442
1.96361
1.9792
1.99218
2.00237
2.01207
2.02162
2.03341
2.04008
2.04618
2.05027
2.05561
2.05669
2.05816
2.05602
2.05706
2.0555
2.05745
2.05841
2.06247
2.06266
2.0623
2.06595
2.07171
0.199723
0.199767
0.199727
0.199695
0.199641
0.199576
0.199493
0.199394
0.199277
0.199142
0.198987
0.198812
0.198616
0.198396
0.19816
0.197897
0.197619
0.197322
0.19701
0.19667
0.196342
0.195979
0.19562
0.195255
0.194891
0.194514
0.194141
0.193793
0.193453
0.193109
0.192792
0.192523
0.192264
0.191974
0.191694
0.191447
0.191214
0.191012
0.190831
0.190697
0.190591
0.190513
0.190436
0.190359
0.190286
0.19021
0.190142
0.190078
0.190047
0.190086
0.190275
0.190757
0.191346
0.191853
0.192257
0.192413
0.192395
0.19204
0.192782
0.193608
0.199844
0.208194
0.266387
1.40433
1.44345
1.36034
1.28241
1.23676
1.19773
1.18643
1.17644
1.11743
1.09847
1.07556
1.06647
1.05698
1.08603
1.12557
1.17674
1.19075
1.19197
1.19904
1.21082
1.23431
1.29934
1.39492
1.51124
1.61881
1.70716
1.76472
1.80617
1.84248
1.87718
1.90325
1.92304
1.93799
1.95542
1.97228
1.98486
1.99547
2.00777
2.01937
2.03229
2.03966
2.04512
2.04843
2.05407
2.05566
2.05796
2.05642
2.05718
2.05524
2.05667
2.05771
2.06031
2.06188
2.06031
2.06432
2.07057
0.199723
0.199767
0.199727
0.199694
0.199641
0.199576
0.199492
0.199394
0.199277
0.199142
0.198987
0.198812
0.198614
0.198398
0.198158
0.197899
0.19762
0.197321
0.197011
0.196671
0.196334
0.195987
0.195617
0.195253
0.194881
0.194519
0.194148
0.193803
0.193458
0.193099
0.192768
0.192475
0.192239
0.191972
0.191667
0.191398
0.191138
0.190919
0.19072
0.190562
0.190418
0.190313
0.190201
0.190105
0.189949
0.189859
0.189751
0.189611
0.189411
0.18927
0.189194
0.189125
0.189066
0.188927
0.188725
0.188563
0.188301
0.187661
0.187002
0.184977
0.182529
0.190709
0.401431
1.44652
1.48613
1.41368
1.31532
1.25907
1.21707
1.19748
1.1758
1.12551
1.10119
1.07939
1.06546
1.06149
1.07816
1.13044
1.16295
1.1679
1.16888
1.19108
1.20485
1.2646
1.32958
1.4386
1.54373
1.63737
1.71217
1.76559
1.80949
1.84665
1.87574
1.89851
1.92175
1.94066
1.95771
1.97047
1.97961
1.98967
2.00238
2.01427
2.02619
2.0332
2.03829
2.04227
2.0494
2.05228
2.05648
2.05647
2.05812
2.0562
2.05712
2.05844
2.05985
2.06108
2.05896
2.06232
2.06988
0.199724
0.199767
0.199727
0.199695
0.199641
0.199576
0.199492
0.199394
0.199277
0.199142
0.198986
0.198811
0.198614
0.198397
0.198157
0.197899
0.197618
0.197321
0.197002
0.196677
0.196322
0.195985
0.195609
0.195247
0.194882
0.194501
0.194139
0.19378
0.193433
0.193073
0.192759
0.192451
0.192189
0.191927
0.191623
0.191354
0.191108
0.190899
0.190724
0.190572
0.19047
0.190397
0.190324
0.190245
0.190186
0.190103
0.190044
0.189986
0.189955
0.189981
0.190137
0.190474
0.190806
0.190951
0.191075
0.191088
0.191171
0.191365
0.192479
0.192732
0.193819
0.206722
0.527751
1.36169
1.44642
1.45753
1.32841
1.27838
1.23102
1.19473
1.15727
1.11607
1.09076
1.0745
1.06574
1.06402
1.086
1.13541
1.16989
1.18425
1.20208
1.26145
1.31027
1.40363
1.48778
1.57962
1.66365
1.72914
1.77498
1.80709
1.83758
1.86303
1.88254
1.9014
1.92091
1.93811
1.95425
1.96485
1.9754
1.98823
2.0019
2.01421
2.02477
2.03108
2.03658
2.04213
2.05144
2.05597
2.0619
2.0624
2.06451
2.06232
2.06216
2.06274
2.06244
2.06238
2.05752
2.06037
2.06886
0.199724
0.199767
0.199727
0.199694
0.199641
0.199576
0.199492
0.199394
0.199276
0.199141
0.198986
0.198811
0.198613
0.198396
0.198157
0.197897
0.197618
0.19732
0.197004
0.196671
0.196332
0.195972
0.195606
0.195243
0.194875
0.194499
0.194126
0.193776
0.193424
0.193057
0.192721
0.192414
0.192134
0.191854
0.191565
0.191295
0.191031
0.19079
0.190575
0.190397
0.190249
0.190119
0.189993
0.189863
0.189736
0.189599
0.189456
0.189264
0.189002
0.188738
0.188571
0.188402
0.188236
0.188036
0.18785
0.187666
0.187376
0.186632
0.186021
0.184413
0.184461
0.210824
0.65192
1.20042
1.32182
1.39021
1.32099
1.26946
1.23709
1.18112
1.17336
1.09364
1.08742
1.08426
1.09019
1.10977
1.16988
1.23448
1.30636
1.35868
1.41253
1.46439
1.52835
1.58461
1.64431
1.68745
1.73443
1.78229
1.81199
1.84013
1.86215
1.88053
1.89287
1.91011
1.92627
1.94044
1.95371
1.96257
1.97677
1.9906
2.00394
2.01492
2.02313
2.02771
2.03231
2.03637
2.0443
2.04781
2.05344
2.05434
2.05792
2.05704
2.05858
2.05976
2.05997
2.06057
2.05279
2.05438
2.063
0.199724
0.199767
0.199727
0.199695
0.199641
0.199575
0.199492
0.199394
0.199276
0.199141
0.198985
0.19881
0.198613
0.198395
0.198156
0.197895
0.197616
0.197316
0.197
0.196668
0.196329
0.195963
0.195608
0.195233
0.19486
0.194487
0.194114
0.193759
0.19338
0.193026
0.1927
0.192407
0.192103
0.191781
0.191499
0.191227
0.190976
0.190749
0.190556
0.190384
0.190253
0.190133
0.190043
0.189969
0.189897
0.189825
0.189767
0.189716
0.189647
0.189631
0.189677
0.189715
0.189785
0.189885
0.190055
0.190278
0.190664
0.191165
0.192077
0.192971
0.19204
0.21144
0.818012
1.10285
1.21127
1.28291
1.29643
1.24869
1.24429
1.18414
1.18643
1.09981
1.10083
1.13625
1.20957
1.294
1.40624
1.48677
1.55145
1.59788
1.63256
1.66055
1.68894
1.70441
1.7261
1.75084
1.78772
1.8192
1.84799
1.86784
1.88715
1.90059
1.91135
1.92898
1.94218
1.95363
1.96316
1.97129
1.98546
1.99737
2.00863
2.01713
2.02423
2.02801
2.03272
2.03626
2.0434
2.0466
2.05227
2.05273
2.05722
2.05659
2.05924
2.06046
2.06009
2.06013
2.05003
2.05006
2.06
0.199725
0.199767
0.199727
0.199694
0.199641
0.199575
0.199492
0.199393
0.199276
0.199141
0.198985
0.198809
0.198612
0.198394
0.198155
0.197895
0.197614
0.197316
0.196998
0.196668
0.196318
0.195964
0.195596
0.195224
0.194854
0.194466
0.194099
0.193739
0.193355
0.192999
0.192662
0.192336
0.192031
0.19172
0.191426
0.191151
0.190864
0.190582
0.19035
0.190162
0.189997
0.189818
0.189664
0.18955
0.189442
0.189304
0.189103
0.188887
0.188601
0.188261
0.188036
0.187767
0.187511
0.18726
0.186994
0.186621
0.186261
0.185685
0.184856
0.184023
0.187549
0.221751
0.939306
1.06758
1.11421
1.17282
1.20383
1.27072
1.22407
1.25613
1.19212
1.19226
1.27698
1.36401
1.49662
1.61492
1.66226
1.69091
1.703
1.70119
1.70604
1.71352
1.7212
1.73146
1.74215
1.76928
1.80198
1.8298
1.85274
1.87455
1.8913
1.90317
1.91759
1.93128
1.94469
1.95611
1.96461
1.97205
1.98492
1.99593
2.00598
2.01422
2.02228
2.02733
2.03325
2.03699
2.0441
2.04686
2.05194
2.05211
2.05665
2.05617
2.0601
2.06099
2.05974
2.05912
2.04802
2.04716
2.05524
0.199725
0.199767
0.199727
0.199695
0.199641
0.199575
0.199492
0.199393
0.199275
0.19914
0.198984
0.198809
0.198611
0.198393
0.198153
0.197893
0.197612
0.197312
0.196996
0.196663
0.196314
0.195955
0.195588
0.195221
0.194836
0.194457
0.19408
0.193706
0.193329
0.192984
0.192656
0.192296
0.191939
0.191627
0.191343
0.19109
0.190825
0.190522
0.190263
0.190067
0.189904
0.189737
0.189583
0.18947
0.189384
0.189257
0.189151
0.189068
0.189023
0.188996
0.188993
0.188977
0.188978
0.189029
0.189065
0.189163
0.189158
0.189368
0.188736
0.18931
0.199847
0.298061
0.986543
1.04802
1.06781
1.09632
1.17684
1.21062
1.29552
1.26979
1.36566
1.42459
1.56995
1.63975
1.69463
1.71839
1.72535
1.73069
1.73063
1.72503
1.73266
1.73311
1.74354
1.74708
1.7616
1.78113
1.80998
1.83473
1.85621
1.87296
1.88817
1.90015
1.91324
1.92506
1.93859
1.95038
1.96243
1.97173
1.98461
1.99565
2.0045
2.01175
2.01987
2.02512
2.03197
2.03626
2.04367
2.04639
2.05127
2.0511
2.05606
2.05559
2.0606
2.06145
2.06047
2.05941
2.04815
2.04472
2.05068
0.199725
0.199767
0.199727
0.199694
0.199641
0.199575
0.199491
0.199393
0.199275
0.19914
0.198984
0.198808
0.19861
0.198392
0.198152
0.197891
0.19761
0.19731
0.196992
0.196657
0.19631
0.195946
0.195579
0.195209
0.194818
0.194437
0.194051
0.193667
0.19329
0.192921
0.192581
0.192254
0.191885
0.191545
0.191232
0.190944
0.190631
0.190327
0.190049
0.189822
0.189646
0.189448
0.189243
0.189033
0.188853
0.188654
0.188431
0.188237
0.188043
0.187831
0.187464
0.186931
0.186261
0.185918
0.185612
0.185516
0.185251
0.185061
0.183277
0.181674
0.194975
0.536908
0.977872
1.03162
1.05216
1.0752
1.1195
1.23
1.38424
1.48431
1.60604
1.64595
1.67315
1.7022
1.7103
1.72521
1.72541
1.72831
1.72926
1.72373
1.73412
1.73615
1.74629
1.75239
1.76556
1.78825
1.8154
1.83537
1.85643
1.87094
1.88741
1.90203
1.91577
1.92732
1.93816
1.94741
1.95909
1.96856
1.98136
1.9924
2.00176
2.00923
2.01823
2.02407
2.03158
2.03606
2.04327
2.04587
2.05012
2.04917
2.05434
2.05378
2.05992
2.06088
2.05993
2.0585
2.04557
2.03923
2.04501
0.199726
0.199768
0.199727
0.199695
0.199641
0.199575
0.199491
0.199392
0.199275
0.199139
0.198983
0.198807
0.198609
0.19839
0.19815
0.197889
0.197607
0.197307
0.196987
0.196652
0.196302
0.19594
0.195571
0.195187
0.1948
0.194419
0.194051
0.193646
0.193251
0.192873
0.19251
0.192161
0.191808
0.191474
0.191184
0.190883
0.190548
0.190239
0.189945
0.189678
0.189447
0.189256
0.189046
0.18884
0.188671
0.188519
0.188408
0.188348
0.188298
0.188232
0.188072
0.187764
0.18735
0.18713
0.186834
0.186769
0.186618
0.186714
0.187113
0.188284
0.204091
0.806686
1.01352
1.04378
1.05629
1.08538
1.14938
1.32153
1.56153
1.68116
1.70482
1.70701
1.71268
1.71394
1.71094
1.70811
1.70906
1.70945
1.7113
1.71139
1.71839
1.72349
1.73319
1.74427
1.76069
1.78343
1.80995
1.8355
1.85299
1.86917
1.88651
1.90031
1.91387
1.92642
1.93671
1.94618
1.95807
1.96858
1.9814
1.99259
2.00179
2.00839
2.01704
2.02284
2.03057
2.03528
2.04224
2.04454
2.04827
2.04704
2.05227
2.05184
2.05852
2.05918
2.05808
2.05511
2.04206
2.03602
2.04069
0.199726
0.199768
0.199727
0.199695
0.199641
0.199575
0.199491
0.199392
0.199274
0.199139
0.198982
0.198806
0.198608
0.198389
0.198148
0.197887
0.197604
0.197303
0.196982
0.196646
0.196294
0.195931
0.195557
0.195172
0.194781
0.194388
0.194004
0.193607
0.19321
0.192832
0.19247
0.19208
0.191708
0.191355
0.191019
0.190699
0.190401
0.190092
0.189743
0.189415
0.189132
0.188903
0.188667
0.188417
0.18813
0.18786
0.187569
0.187349
0.187115
0.186849
0.186477
0.186208
0.185886
0.185703
0.185412
0.185001
0.18423
0.181983
0.179536
0.183436
0.225691
0.963718
1.05197
1.06987
1.08416
1.13006
1.25474
1.50977
1.70747
1.74578
1.73522
1.72445
1.71953
1.71722
1.70821
1.70683
1.69938
1.69904
1.69911
1.70162
1.70606
1.71548
1.72277
1.73485
1.74623
1.77489
1.80392
1.82849
1.84953
1.86794
1.88428
1.89897
1.91257
1.92373
1.93386
1.94299
1.95523
1.96642
1.97952
1.99047
2.00056
2.00729
2.01528
2.02077
2.0281
2.0325
2.039
2.0412
2.04492
2.04365
2.04955
2.04947
2.05669
2.05671
2.05592
2.05186
2.03909
2.03212
2.03558
0.199726
0.199768
0.199728
0.199695
0.199641
0.199575
0.199491
0.199392
0.199274
0.199138
0.198982
0.198805
0.198607
0.198388
0.198146
0.197885
0.197601
0.197299
0.196977
0.196639
0.196286
0.195921
0.195544
0.195159
0.194764
0.194376
0.193969
0.193556
0.193157
0.19279
0.192424
0.192019
0.191627
0.191252
0.190897
0.19057
0.190272
0.189976
0.189644
0.189272
0.188947
0.188674
0.188462
0.188244
0.188033
0.187835
0.18766
0.187546
0.187352
0.187047
0.186556
0.186195
0.185948
0.185746
0.185642
0.185441
0.185638
0.184673
0.184395
0.195732
0.325528
1.02391
1.06615
1.07985
1.09648
1.1835
1.38308
1.66278
1.76241
1.75869
1.74269
1.72471
1.70777
1.70155
1.70027
1.6979
1.69252
1.68933
1.69061
1.69087
1.69169
1.70367
1.70436
1.7219
1.73526
1.76427
1.78754
1.81815
1.84262
1.86277
1.88087
1.89568
1.90861
1.92011
1.93051
1.93971
1.95121
1.96315
1.97647
1.98701
1.99763
2.00433
2.01181
2.01705
2.02423
2.02877
2.0345
2.03637
2.04049
2.03929
2.04625
2.04677
2.05452
2.05421
2.05401
2.04896
2.0365
2.02802
2.03097
0.199727
0.199768
0.199728
0.199695
0.199641
0.199575
0.199491
0.199392
0.199273
0.199138
0.198981
0.198804
0.198606
0.198386
0.198144
0.197881
0.197597
0.197294
0.196971
0.196632
0.196277
0.195908
0.195528
0.195138
0.194741
0.194341
0.193935
0.193522
0.193116
0.192719
0.192337
0.191934
0.19154
0.191148
0.190783
0.190404
0.190042
0.189708
0.1894
0.189051
0.188636
0.188274
0.18796
0.187645
0.187368
0.187128
0.186964
0.186738
0.186458
0.186031
0.185682
0.185369
0.185139
0.184936
0.184546
0.183762
0.183569
0.182677
0.182908
0.203873
0.638198
1.02037
1.0703
1.091
1.14497
1.29074
1.5735
1.75113
1.76899
1.74639
1.73685
1.72061
1.70511
1.69528
1.69063
1.69074
1.68686
1.68217
1.67817
1.6772
1.67807
1.69081
1.69352
1.70853
1.72068
1.74492
1.77561
1.80496
1.83217
1.85473
1.87222
1.88609
1.89908
1.91018
1.92241
1.93442
1.94677
1.95968
1.97305
1.98252
1.99334
2.00033
2.00713
2.01226
2.01897
2.02343
2.02871
2.03035
2.03533
2.03481
2.04271
2.04397
2.05199
2.05121
2.05118
2.04559
2.03284
2.02224
2.02614
0.199727
0.199768
0.199728
0.199695
0.199641
0.199574
0.19949
0.199391
0.199273
0.199137
0.19898
0.198803
0.198604
0.198384
0.198142
0.197879
0.197594
0.197289
0.196965
0.196624
0.196268
0.195897
0.195514
0.195121
0.194721
0.194311
0.193895
0.193476
0.193071
0.192662
0.19224
0.191831
0.19144
0.191061
0.190711
0.190307
0.189904
0.189553
0.189232
0.188971
0.188651
0.188246
0.187895
0.187583
0.187322
0.18705
0.186896
0.18657
0.185953
0.185389
0.185012
0.184597
0.184219
0.183806
0.183413
0.182985
0.183124
0.184354
0.187899
0.211173
0.898556
1.07472
1.10386
1.13479
1.24779
1.47096
1.7289
1.77786
1.76019
1.7362
1.72453
1.71245
1.69913
1.68933
1.68466
1.68523
1.68136
1.67499
1.67033
1.66681
1.66948
1.67643
1.68277
1.69319
1.70955
1.72797
1.75996
1.78989
1.82035
1.84313
1.8615
1.87574
1.8884
1.90013
1.91347
1.9261
1.93905
1.952
1.96573
1.97483
1.98674
1.99488
2.00098
2.00592
2.01218
2.01663
2.02188
2.02338
2.02981
2.0301
2.03869
2.04046
2.04831
2.04692
2.047
2.0409
2.02871
2.01793
2.02189
0.199727
0.199768
0.199728
0.199695
0.199641
0.199574
0.19949
0.199391
0.199273
0.199136
0.198979
0.198802
0.198603
0.198382
0.198139
0.197875
0.197589
0.197284
0.196959
0.196616
0.196257
0.195883
0.195495
0.195101
0.194694
0.194278
0.193867
0.193443
0.193012
0.192601
0.192177
0.191755
0.191339
0.190936
0.190548
0.190113
0.189654
0.189236
0.188871
0.188569
0.18826
0.187897
0.187473
0.187119
0.186842
0.186592
0.186435
0.186104
0.185761
0.185476
0.185325
0.185123
0.184817
0.184274
0.182863
0.181307
0.178866
0.177392
0.186039
0.252057
0.994463
1.09851
1.14324
1.21895
1.40939
1.65977
1.7929
1.77601
1.75127
1.72526
1.70878
1.69964
1.69458
1.68566
1.67677
1.6706
1.66589
1.66277
1.65894
1.65654
1.66154
1.6636
1.67365
1.67773
1.69365
1.70837
1.74131
1.77059
1.80275
1.82861
1.84863
1.86406
1.87814
1.89094
1.90535
1.91889
1.93232
1.94512
1.95899
1.9684
1.98012
1.98884
1.99416
1.99869
2.00438
2.00874
2.01463
2.01693
2.02454
2.0257
2.03451
2.03611
2.04377
2.04158
2.04243
2.03631
2.02442
2.01278
2.01737
0.199727
0.199768
0.199728
0.199695
0.19964
0.199574
0.19949
0.199391
0.199272
0.199136
0.198978
0.198801
0.198601
0.198381
0.198137
0.197872
0.197585
0.197278
0.196952
0.196608
0.196246
0.195871
0.19548
0.195081
0.194667
0.194245
0.193826
0.193402
0.192963
0.192524
0.192094
0.191674
0.191274
0.19088
0.190465
0.190021
0.189594
0.18919
0.188811
0.188442
0.188109
0.187748
0.187313
0.186943
0.1866
0.186225
0.18587
0.185383
0.184773
0.184355
0.183927
0.18355
0.183289
0.183184
0.182968
0.183665
0.183433
0.183631
0.19728
0.490022
1.05249
1.11573
1.16458
1.31232
1.57843
1.75774
1.78381
1.75637
1.74369
1.7233
1.70461
1.69229
1.68885
1.68118
1.66951
1.65308
1.64784
1.64776
1.64853
1.64727
1.65238
1.65007
1.66267
1.66432
1.67823
1.69143
1.71941
1.75003
1.78378
1.81125
1.83415
1.85095
1.86661
1.88084
1.89621
1.91017
1.92398
1.9368
1.95086
1.96137
1.97278
1.98148
1.98667
1.99072
1.99651
2.00126
2.00801
2.01105
2.0194
2.02117
2.02975
2.03094
2.03854
2.03615
2.03802
2.03163
2.02008
2.00813
2.01284
0.199728
0.199768
0.199728
0.199695
0.19964
0.199574
0.19949
0.19939
0.199271
0.199135
0.198977
0.1988
0.198599
0.198378
0.198133
0.197868
0.19758
0.197273
0.196944
0.196598
0.196234
0.195856
0.195463
0.19506
0.194645
0.194223
0.19379
0.193358
0.192914
0.192464
0.192017
0.191583
0.191142
0.190703
0.190272
0.189837
0.189403
0.188997
0.188589
0.188166
0.187752
0.187447
0.187115
0.186725
0.186424
0.186071
0.185693
0.1853
0.184828
0.18451
0.184164
0.18397
0.183747
0.183432
0.182624
0.181859
0.180955
0.181286
0.206966
0.823082
1.10233
1.17483
1.27076
1.52712
1.73209
1.77277
1.74749
1.73443
1.73561
1.72317
1.69964
1.68579
1.68108
1.67233
1.65918
1.64123
1.63475
1.63663
1.63864
1.63917
1.63879
1.63802
1.64813
1.65057
1.66115
1.67669
1.69864
1.7292
1.76197
1.79397
1.81898
1.837
1.85386
1.86918
1.88505
1.8995
1.91344
1.92674
1.9408
1.95279
1.96357
1.9721
1.97837
1.98281
1.98917
1.99428
2.00153
2.00517
2.0139
2.01617
2.02452
2.02545
2.03328
2.03099
2.03336
2.02678
2.01562
2.00325
2.00821
0.199728
0.199768
0.199728
0.199695
0.19964
0.199574
0.199489
0.19939
0.199271
0.199134
0.198976
0.198798
0.198598
0.198376
0.198131
0.197865
0.197576
0.197267
0.196937
0.19659
0.196225
0.195843
0.195447
0.195038
0.194619
0.194191
0.193753
0.193311
0.192868
0.192417
0.191965
0.191535
0.191094
0.190637
0.190181
0.189743
0.189312
0.188886
0.188463
0.188026
0.187491
0.187126
0.186789
0.186509
0.186252
0.185906
0.185502
0.184986
0.184417
0.183876
0.183345
0.18275
0.182024
0.181126
0.17995
0.177407
0.175869
0.182137
0.243903
0.976274
1.16055
1.24572
1.42318
1.70117
1.80031
1.77465
1.74
1.72768
1.72288
1.70643
1.69135
1.68179
1.67551
1.66566
1.64919
1.63233
1.62565
1.62631
1.62873
1.62847
1.62552
1.62757
1.6326
1.63728
1.64338
1.66071
1.67652
1.70912
1.74108
1.77529
1.80239
1.82192
1.83974
1.85629
1.87257
1.88731
1.90143
1.91522
1.92895
1.94163
1.95256
1.9612
1.96942
1.97473
1.98149
1.98704
1.99491
1.99904
2.00791
2.01038
2.01879
2.01983
2.02793
2.02543
2.02819
2.02142
2.0108
1.99848
2.00326
0.199728
0.199769
0.199728
0.199695
0.19964
0.199574
0.199489
0.199389
0.19927
0.199133
0.198975
0.198797
0.198596
0.198373
0.198128
0.19786
0.197571
0.197261
0.196929
0.19658
0.196212
0.195829
0.195431
0.19502
0.194597
0.194165
0.193724
0.193273
0.192816
0.192355
0.191888
0.191426
0.190969
0.190493
0.190011
0.189593
0.18919
0.188764
0.188348
0.187897
0.187428
0.187036
0.186709
0.186421
0.186142
0.185723
0.185066
0.184412
0.183924
0.183733
0.183607
0.183654
0.184262
0.184532
0.185248
0.184245
0.181082
0.194885
0.490075
1.10499
1.20727
1.33156
1.61716
1.7693
1.7984
1.7601
1.73326
1.72259
1.71351
1.69747
1.68332
1.67579
1.66919
1.65921
1.64166
1.6281
1.62229
1.62111
1.61913
1.6178
1.61421
1.61673
1.61668
1.62352
1.627
1.6454
1.65915
1.68881
1.72039
1.75535
1.78438
1.80521
1.82475
1.84248
1.8592
1.87413
1.88829
1.90223
1.91598
1.92884
1.9404
1.94979
1.95983
1.96646
1.97371
1.97974
1.9879
1.99246
2.00119
2.00392
2.01264
2.01413
2.02217
2.01947
2.02285
2.01614
2.00573
1.99355
1.99854
0.199728
0.199769
0.199728
0.199695
0.19964
0.199574
0.199489
0.199389
0.19927
0.199133
0.198974
0.198795
0.198594
0.198371
0.198125
0.197857
0.197566
0.197255
0.196922
0.196572
0.196202
0.195816
0.195413
0.194999
0.194573
0.194137
0.193694
0.193245
0.192788
0.192328
0.191864
0.191403
0.190941
0.190474
0.190002
0.189555
0.189076
0.18862
0.188151
0.187701
0.187204
0.186726
0.18629
0.185865
0.185441
0.184873
0.184277
0.183739
0.18353
0.183423
0.183429
0.183459
0.18332
0.183036
0.182754
0.182353
0.181965
0.211329
0.854429
1.19554
1.328
1.56319
1.76526
1.77619
1.76205
1.73145
1.70168
1.70282
1.69402
1.67905
1.66468
1.65763
1.65431
1.64911
1.63737
1.62749
1.62232
1.61877
1.61309
1.60994
1.60323
1.60521
1.60317
1.61114
1.6136
1.6295
1.64412
1.66764
1.69938
1.73365
1.76519
1.78792
1.80944
1.82806
1.84488
1.85956
1.87396
1.88763
1.90156
1.91464
1.92741
1.93795
1.94971
1.95794
1.96553
1.97188
1.98025
1.98528
1.99406
1.99707
2.00602
2.00811
2.01612
2.01345
2.01718
2.01061
2.00015
1.98881
1.99327
0.199728
0.199769
0.199728
0.199695
0.19964
0.199574
0.199489
0.199389
0.199269
0.199132
0.198973
0.198794
0.198592
0.198368
0.198121
0.197853
0.197561
0.197249
0.196915
0.196562
0.196191
0.195804
0.195401
0.194984
0.194555
0.194117
0.193667
0.193206
0.192741
0.192273
0.191804
0.191329
0.190843
0.190358
0.1899
0.189466
0.189017
0.188603
0.188233
0.187897
0.187527
0.187185
0.186854
0.186526
0.186204
0.185811
0.185203
0.184474
0.183638
0.182746
0.181559
0.180051
0.177853
0.176594
0.174833
0.175195
0.187166
0.260084
1.06496
1.28026
1.46956
1.70622
1.79158
1.7766
1.75113
1.71732
1.68891
1.68284
1.68095
1.66899
1.65179
1.64245
1.64207
1.63466
1.62212
1.61362
1.61118
1.60816
1.60304
1.59816
1.59297
1.59323
1.59218
1.59618
1.60211
1.612
1.628
1.64517
1.67758
1.7102
1.74453
1.76988
1.79357
1.81323
1.83009
1.8445
1.85905
1.87247
1.8866
1.9002
1.91403
1.92593
1.93918
1.94864
1.95656
1.96332
1.97202
1.9777
1.98662
1.98971
1.99897
2.00151
2.00955
2.0068
2.01156
2.00483
1.99511
1.98384
1.98808
0.199728
0.199769
0.199729
0.199695
0.19964
0.199573
0.199488
0.199388
0.199269
0.199131
0.198972
0.198792
0.19859
0.198366
0.198118
0.197849
0.197556
0.197243
0.196908
0.196555
0.196182
0.195792
0.195386
0.194967
0.194536
0.194096
0.193649
0.193193
0.192729
0.192269
0.191801
0.191318
0.19084
0.190375
0.189923
0.189441
0.188937
0.188429
0.187917
0.187377
0.186805
0.186224
0.185704
0.185256
0.184914
0.184665
0.184355
0.184141
0.184081
0.184217
0.184266
0.184597
0.184757
0.185782
0.18601
0.189908
0.21313
0.6951
1.23617
1.40471
1.66016
1.75726
1.74603
1.72477
1.72792
1.70605
1.6751
1.66373
1.66577
1.65655
1.64112
1.63086
1.62794
1.6218
1.61293
1.60451
1.60051
1.59497
1.58923
1.58382
1.58184
1.58162
1.5816
1.58134
1.58968
1.59438
1.6109
1.62479
1.65396
1.68556
1.72187
1.75095
1.7769
1.79769
1.81433
1.82814
1.8431
1.85684
1.87155
1.88577
1.90062
1.91389
1.92797
1.93818
1.94662
1.95406
1.96335
1.96971
1.97889
1.98227
1.99157
1.99454
2.00239
1.99995
2.00507
1.99899
1.99008
1.97926
1.98347
0.199728
0.199769
0.199729
0.199695
0.19964
0.199573
0.199488
0.199388
0.199268
0.19913
0.19897
0.198791
0.198588
0.198363
0.198115
0.197845
0.197552
0.197237
0.196901
0.196546
0.196172
0.195783
0.195377
0.194956
0.194524
0.194084
0.193625
0.193164
0.192706
0.192239
0.19176
0.191268
0.190798
0.190347
0.189924
0.189494
0.189035
0.188579
0.18816
0.187733
0.187363
0.187077
0.186806
0.186581
0.18638
0.186125
0.185682
0.18485
0.183701
0.182574
0.181224
0.17966
0.1778
0.174422
0.171125
0.170749
0.194554
1.04067
1.40972
1.60335
1.76651
1.77932
1.72437
1.70017
1.70519
1.69593
1.67041
1.65265
1.64894
1.64294
1.63114
1.61985
1.61617
1.61212
1.60381
1.59373
1.58832
1.58239
1.57604
1.57131
1.57173
1.56948
1.57001
1.56769
1.57625
1.57815
1.59228
1.60583
1.62976
1.66037
1.69754
1.73083
1.75865
1.78054
1.79744
1.81144
1.82702
1.84134
1.85673
1.87147
1.88701
1.90111
1.91595
1.92692
1.93618
1.94452
1.95437
1.96135
1.97101
1.97474
1.984
1.98646
1.99416
1.99119
1.99726
1.9931
1.98604
1.9749
1.9792
0.199728
0.199769
0.199729
0.199695
0.19964
0.199573
0.199488
0.199387
0.199267
0.199129
0.198969
0.198789
0.198585
0.19836
0.198112
0.197841
0.197547
0.197231
0.196896
0.196541
0.196166
0.195774
0.195365
0.194947
0.194516
0.194069
0.193628
0.193174
0.192715
0.192249
0.191769
0.191283
0.190819
0.190374
0.189947
0.189515
0.189048
0.188549
0.187997
0.18738
0.186718
0.186212
0.185786
0.185437
0.185326
0.185191
0.185055
0.184933
0.184972
0.185
0.185375
0.185614
0.186333
0.186285
0.188234
0.203174
0.476813
1.33251
1.5154
1.72557
1.76713
1.76586
1.7189
1.68992
1.69065
1.68219
1.6612
1.64034
1.63403
1.62824
1.61793
1.60604
1.60067
1.59474
1.58632
1.57883
1.57499
1.57012
1.56512
1.55978
1.55831
1.55547
1.55693
1.55584
1.56283
1.56552
1.57517
1.5885
1.60697
1.63642
1.67354
1.7097
1.73978
1.76264
1.77988
1.79467
1.81095
1.82596
1.84185
1.85663
1.87282
1.88755
1.90317
1.91502
1.9252
1.93462
1.94508
1.95277
1.96296
1.96677
1.97561
1.97718
1.985
1.98256
1.99035
1.98575
1.98177
1.97017
1.97479
0.199728
0.199769
0.199729
0.199695
0.19964
0.199573
0.199488
0.199387
0.199267
0.199128
0.198968
0.198787
0.198583
0.198358
0.198108
0.197837
0.197543
0.197227
0.19689
0.196533
0.196158
0.195769
0.195363
0.194941
0.194509
0.194073
0.193623
0.193164
0.19271
0.192254
0.191781
0.191301
0.190854
0.190443
0.190013
0.189521
0.189056
0.188629
0.188219
0.187747
0.187211
0.186765
0.18647
0.18622
0.185916
0.185613
0.185155
0.184567
0.183874
0.182923
0.181692
0.17982
0.177366
0.174681
0.175664
0.188821
0.977569
1.50313
1.68097
1.77952
1.74612
1.72208
1.68968
1.6616
1.66402
1.65687
1.64013
1.62407
1.61824
1.61441
1.60526
1.59331
1.58634
1.57961
1.57239
1.56586
1.56171
1.55704
1.55062
1.54595
1.54408
1.54295
1.54388
1.54561
1.54998
1.55496
1.55959
1.57147
1.58695
1.61342
1.64922
1.68637
1.71895
1.74339
1.7617
1.77804
1.79505
1.81056
1.82684
1.84189
1.85837
1.87356
1.88966
1.90245
1.91408
1.92453
1.93554
1.94373
1.95408
1.95782
1.96633
1.96774
1.97577
1.97415
1.98319
1.97864
1.97565
1.96496
1.96927
0.199728
0.199769
0.199729
0.199695
0.19964
0.199573
0.199487
0.199387
0.199266
0.199127
0.198967
0.198785
0.198581
0.198355
0.198105
0.197834
0.197538
0.197222
0.196885
0.19653
0.196155
0.195763
0.195357
0.194942
0.194516
0.194076
0.193629
0.193183
0.192727
0.192285
0.191813
0.191344
0.190905
0.190497
0.190032
0.189583
0.189143
0.188771
0.188463
0.188095
0.187705
0.187356
0.18687
0.18631
0.185738
0.185398
0.184954
0.184537
0.184404
0.184428
0.184353
0.184615
0.184186
0.18411
0.19217
0.373154
1.39839
1.61989
1.75278
1.75294
1.74089
1.70978
1.67447
1.64862
1.64351
1.63776
1.62548
1.60703
1.59962
1.59607
1.58875
1.5777
1.56981
1.56284
1.55711
1.5517
1.54631
1.54252
1.53682
1.53406
1.53222
1.53254
1.53295
1.53534
1.53736
1.54212
1.54556
1.55352
1.57009
1.59026
1.62366
1.66121
1.69595
1.72303
1.74311
1.76146
1.77926
1.79496
1.81132
1.8265
1.84303
1.85896
1.87578
1.88971
1.90262
1.91413
1.92519
1.93357
1.94403
1.948
1.95651
1.95851
1.96685
1.96552
1.97504
1.97174
1.96959
1.9592
1.96363
0.199728
0.199769
0.199729
0.199695
0.19964
0.199573
0.199487
0.199386
0.199265
0.199126
0.198965
0.198784
0.198579
0.198353