/*--------------------------------*- C++ -*----------------------------------*\
| =========                 |                                                 |
| \\      /  F ield         | OpenFOAM: The Open Source CFD Toolbox           |
|  \\    /   O peration     | Version:  2.2.x                                 |
|   \\  /    A nd           | Web:      www.OpenFOAM.org                      |
|    \\/     M anipulation  |                                                 |
\*---------------------------------------------------------------------------*/
FoamFile
{
    version     2.0;
    format      ascii;
    class       volScalarField;
    location    "0.4";
    object      rho;
}
// * * * * * * * * * * * * * * * * * * * * * * * * * * * * * * * * * * * * * //

dimensions      [1 -3 0 0 0 0 0];

internalField   nonuniform List<scalar> 
14161
(
0.999793
0.999807
0.999794
0.999779
0.999748
0.999707
0.999652
0.999585
0.999503
0.999407
0.999296
0.999169
0.999025
0.998864
0.998689
0.998492
0.998287
0.998055
0.997819
0.997569
0.9973
0.997036
0.996742
0.996473
0.996168
0.995856
0.99557
0.995323
0.995023
0.99471
0.994448
0.994208
0.993985
0.993771
0.993572
0.99338
0.993169
0.992958
0.992807
0.992686
0.992566
0.992446
0.992311
0.99221
0.992131
0.99209
0.992054
0.992049
0.992068
0.992061
0.99204
0.992043
0.992135
0.99238
0.992829
0.993376
0.99341
0.994007
0.994952
0.996778
0.992174
1.14921
2.28776
2.62158
2.83441
2.79148
2.66607
2.56361
2.45406
2.38503
2.32789
2.25993
2.20198
2.15926
2.14065
2.13091
2.14124
2.18936
2.29147
2.43367
2.58107
2.69482
2.77195
2.81083
2.83794
2.8634
2.87361
2.87811
2.88231
2.891
2.90016
2.90773
2.91382
2.91818
2.9223
2.92809
2.93531
2.9447
2.95321
2.96167
2.96768
2.97342
2.97792
2.98469
2.98987
2.99712
3.00045
3.00512
3.00674
3.01022
3.01016
3.00862
3.00485
2.99882
2.9877
2.96665
2.92579
2.83214
2.63338
0.999793
0.999807
0.999793
0.999778
0.999748
0.999706
0.999651
0.999584
0.999503
0.999407
0.999295
0.999168
0.999024
0.998865
0.998685
0.998495
0.99828
0.998061
0.997818
0.997561
0.99731
0.997015
0.996751
0.996472
0.996171
0.995882
0.995588
0.995313
0.994996
0.994707
0.99449
0.99427
0.994
0.993744
0.993529
0.993338
0.993153
0.992948
0.99279
0.992655
0.992521
0.992403
0.992271
0.99217
0.992096
0.992051
0.992017
0.99201
0.991992
0.991951
0.991862
0.991803
0.991784
0.991729
0.991734
0.992013
0.992356
0.992895
0.994188
0.995124
0.996141
1.10126
2.04582
2.60494
2.72615
2.68467
2.58889
2.53487
2.47011
2.43311
2.41119
2.35198
2.29803
2.26662
2.23881
2.22347
2.23609
2.25962
2.33541
2.39829
2.46872
2.53375
2.63421
2.70828
2.76454
2.8116
2.84574
2.86204
2.87316
2.88679
2.90016
2.91145
2.91805
2.92349
2.92941
2.93717
2.94714
2.96057
2.97202
2.98034
2.98456
2.98758
2.9904
2.99547
2.99991
3.00569
3.00818
3.01073
3.0111
3.01258
3.0134
3.01289
3.00983
3.00485
2.99403
2.9742
2.93503
2.85691
2.65857
0.999793
0.999807
0.999793
0.999778
0.999748
0.999706
0.999651
0.999584
0.999502
0.999407
0.999295
0.999168
0.999024
0.998865
0.998686
0.998494
0.998281
0.998058
0.997814
0.997561
0.997303
0.997018
0.996737
0.996465
0.996182
0.995864
0.995574
0.995295
0.994989
0.994699
0.994481
0.994286
0.994023
0.993754
0.993534
0.993338
0.993148
0.99296
0.992801
0.992675
0.992554
0.992438
0.992311
0.992207
0.992141
0.992092
0.992053
0.992034
0.992037
0.99205
0.992081
0.992166
0.992375
0.992545
0.992895
0.993253
0.993325
0.993496
0.993292
0.992609
0.992633
1.01552
1.67751
2.50125
2.568
2.52267
2.47089
2.4575
2.41105
2.41473
2.4077
2.34538
2.29459
2.26372
2.23359
2.2135
2.23264
2.2578
2.31285
2.35571
2.38283
2.39707
2.44024
2.48092
2.57537
2.64885
2.70465
2.76746
2.81109
2.82961
2.84299
2.86065
2.87825
2.89275
2.9045
2.91736
2.93249
2.94902
2.96387
2.9769
2.98539
2.99155
2.99624
3.00209
3.00619
3.01238
3.01554
3.01769
3.01557
3.01277
3.00944
3.00714
3.00372
3.00097
2.99222
2.97476
2.93899
2.86519
2.66967
0.999794
0.999807
0.999793
0.999778
0.999747
0.999706
0.999651
0.999584
0.999502
0.999406
0.999295
0.999167
0.999024
0.998862
0.998687
0.99849
0.998284
0.998057
0.997818
0.997567
0.997293
0.997034
0.996731
0.996451
0.996188
0.995861
0.995566
0.995285
0.99503
0.994742
0.994481
0.994248
0.993996
0.993721
0.993503
0.993311
0.993124
0.992928
0.992759
0.992611
0.992473
0.992347
0.992221
0.992098
0.992002
0.991946
0.991904
0.991868
0.991821
0.991744
0.991617
0.99147
0.991241
0.991029
0.990989
0.990894
0.990957
0.990584
0.989952
0.986409
0.990379
0.998623
1.2934
2.37569
2.58668
2.50187
2.44694
2.41919
2.39698
2.3838
2.36729
2.29457
2.27093
2.23287
2.20882
2.1889
2.22872
2.27017
2.32646
2.35791
2.3629
2.35903
2.36915
2.37743
2.44924
2.54462
2.65016
2.71347
2.78039
2.83969
2.87882
2.90463
2.91945
2.93613
2.94904
2.95816
2.96657
2.97531
2.98578
2.99759
3.00638
3.01377
3.02006
3.02561
3.02818
3.03267
3.03631
3.0373
3.03387
3.02729
3.01842
3.0116
3.00512
3.00173
2.99325
2.97779
2.9449
2.87363
2.68446
0.999794
0.999806
0.999793
0.999778
0.999747
0.999706
0.999651
0.999583
0.999502
0.999406
0.999294
0.999167
0.999023
0.998863
0.998685
0.998489
0.998282
0.998057
0.99781
0.997563
0.997304
0.997012
0.996736
0.996454
0.996175
0.995851
0.995563
0.995308
0.994999
0.994695
0.994446
0.994256
0.994034
0.993742
0.993502
0.993297
0.993099
0.992921
0.992751
0.99262
0.992505
0.992397
0.992285
0.992166
0.992079
0.99201
0.991959
0.991927
0.991924
0.991932
0.991966
0.992081
0.992294
0.992572
0.99269
0.992826
0.993156
0.993121
0.99386
0.993188
0.998792
1.00655
1.18559
2.49579
2.63848
2.52541
2.43589
2.3968
2.35284
2.34448
2.31831
2.24539
2.21483
2.17606
2.15219
2.13932
2.17278
2.2288
2.28584
2.3206
2.32517
2.32108
2.33737
2.36311
2.42582
2.5199
2.63461
2.73448
2.80195
2.86615
2.92058
2.95297
2.97053
2.98343
2.99855
3.01356
3.02247
3.02909
3.03412
3.04206
3.04869
3.0536
3.06029
3.06466
3.0658
3.06639
3.06577
3.06247
3.05675
3.04773
3.0353
3.02173
3.0086
3.00154
2.99118
2.97742
2.94567
2.87749
2.69731
0.999794
0.999806
0.999793
0.999777
0.999747
0.999705
0.99965
0.999583
0.999501
0.999405
0.999294
0.999167
0.999023
0.998863
0.998684
0.998491
0.99828
0.998057
0.997812
0.997558
0.997311
0.99702
0.996724
0.99644
0.996165
0.995868
0.995564
0.99531
0.995006
0.994697
0.994427
0.9942
0.994003
0.993749
0.993464
0.99323
0.993005
0.992819
0.992655
0.992537
0.992429
0.992318
0.992181
0.992003
0.991819
0.991743
0.991663
0.991594
0.991493
0.991437
0.991337
0.99123
0.991087
0.990774
0.990665
0.990512
0.99039
0.990107
0.990202
0.988635
0.990475
0.996285
1.32979
2.51772
2.64169
2.52963
2.42201
2.38611
2.33768
2.31471
2.28049
2.20992
2.17629
2.13816
2.10854
2.09395
2.11921
2.18742
2.22194
2.24935
2.27717
2.28617
2.31038
2.37548
2.44918
2.5649
2.65872
2.74811
2.81185
2.8804
2.93705
2.96908
2.98108
2.99062
3.00833
3.02498
3.03246
3.03416
3.03523
3.04252
3.05264
3.06107
3.06836
3.07381
3.07508
3.07576
3.07584
3.07342
3.0702
3.06404
3.05398
3.0384
3.01897
3.00643
2.98986
2.97476
2.94539
2.87963
2.71009
0.999794
0.999806
0.999793
0.999777
0.999747
0.999705
0.99965
0.999583
0.999501
0.999405
0.999293
0.999166
0.999022
0.998861
0.998684
0.998489
0.998279
0.998052
0.997814
0.997556
0.997297
0.997026
0.996724
0.996464
0.996144
0.995845
0.995554
0.995284
0.99499
0.994681
0.994416
0.994166
0.993957
0.993712
0.993426
0.9932
0.992996
0.992821
0.992682
0.99257
0.99247
0.992365
0.992239
0.992099
0.991952
0.991864
0.991808
0.99177
0.991771
0.991776
0.991814
0.99193
0.992129
0.992132
0.992256
0.992297
0.992367
0.992384
0.993402
0.992833
0.996802
1.00127
1.50021
2.4063
2.58105
2.54974
2.43646
2.40812
2.35881
2.3126
2.28453
2.2216
2.19161
2.16251
2.14217
2.1337
2.15617
2.2203
2.25395
2.25184
2.29439
2.36646
2.41973
2.50811
2.59236
2.68302
2.75537
2.80503
2.85169
2.90758
2.9536
2.97169
2.97644
2.98263
2.99913
3.01901
3.03084
3.03563
3.04138
3.05507
3.06734
3.07631
3.08269
3.088
3.09115
3.09418
3.09854
3.09809
3.09726
3.09221
3.08309
3.06625
3.04166
3.01932
2.99435
2.97603
2.94404
2.88043
2.72376
0.999794
0.999806
0.999793
0.999777
0.999747
0.999705
0.99965
0.999582
0.999501
0.999405
0.999293
0.999166
0.999022
0.998861
0.998683
0.998488
0.998278
0.998051
0.997811
0.997558
0.997293
0.99701
0.996735
0.996453
0.996147
0.995835
0.995553
0.995288
0.994978
0.994663
0.994396
0.994166
0.993928
0.993664
0.993393
0.993159
0.99294
0.992743
0.992568
0.992427
0.992304
0.992177
0.992036
0.991886
0.991673
0.991539
0.99142
0.991289
0.991134
0.990982
0.990879
0.990731
0.990627
0.990442
0.990265
0.989992
0.989863
0.989389
0.989662
0.987939
0.990898
1.00228
1.58495
2.26815
2.42803
2.48675
2.43016
2.40611
2.36033
2.32481
2.29189
2.20243
2.19473
2.18226
2.17805
2.19822
2.25298
2.34359
2.42559
2.45814
2.51009
2.57867
2.63497
2.69737
2.74236
2.78459
2.8297
2.85225
2.88088
2.93236
2.9747
2.98533
2.98294
2.99121
3.00971
3.02767
3.03704
3.04043
3.04957
3.06273
3.07143
3.07749
3.0818
3.08591
3.08961
3.09294
3.09823
3.09814
3.09744
3.09268
3.0854
3.07163
3.05082
3.02657
2.99474
2.97344
2.93786
2.87404
2.72284
0.999795
0.999806
0.999793
0.999777
0.999746
0.999705
0.99965
0.999582
0.9995
0.999404
0.999293
0.999165
0.999021
0.99886
0.998682
0.998488
0.998276
0.998051
0.997809
0.99756
0.997287
0.997012
0.996731
0.996427
0.996146
0.995839
0.995563
0.995258
0.994931
0.994632
0.994383
0.994176
0.99388
0.993591
0.993349
0.993124
0.992928
0.992741
0.992552
0.992367
0.992218
0.992099
0.992008
0.991932
0.99185
0.99175
0.991649
0.991527
0.991413
0.991366
0.991368
0.991353
0.991398
0.9915
0.991607
0.991704
0.992012
0.992259
0.993001
0.993033
0.996361
1.01873
1.77938
2.16991
2.29672
2.39751
2.39474
2.38334
2.35076
2.30824
2.28067
2.18084
2.18685
2.22537
2.29656
2.39217
2.51096
2.60569
2.66902
2.70674
2.7374
2.77828
2.79344
2.80376
2.82233
2.83863
2.86226
2.88991
2.93382
2.98075
3.00227
3.00105
3.00091
3.01602
3.03114
3.04012
3.04212
3.0451
3.05613
3.06797
3.07491
3.08002
3.08448
3.08875
3.09404
3.09825
3.10448
3.10468
3.10432
3.09893
3.09258
3.08074
3.06311
3.03809
3.00018
2.97536
2.93594
2.87009
2.72467
0.999795
0.999806
0.999793
0.999777
0.999746
0.999705
0.999649
0.999582
0.9995
0.999404
0.999292
0.999165
0.99902
0.99886
0.998682
0.998487
0.998275
0.998049
0.997807
0.997553
0.997282
0.997009
0.99672
0.996436
0.996129
0.995823
0.995557
0.995243
0.994909
0.994622
0.994348
0.99409
0.993847
0.993566
0.993321
0.993092
0.99285
0.992624
0.992425
0.992242
0.99207
0.991883
0.991736
0.991639
0.991547
0.991431
0.991292
0.991137
0.990902
0.99059
0.99039
0.990102
0.989917
0.989752
0.989536
0.989349
0.989217
0.989101
0.988841
0.989276
0.991272
1.07568
1.98348
2.17256
2.23137
2.26434
2.34084
2.35478
2.3654
2.35637
2.28667
2.28401
2.35918
2.44642
2.58525
2.68248
2.73849
2.77267
2.78009
2.78225
2.80213
2.81878
2.82251
2.82679
2.83476
2.85428
2.88037
2.91559
2.96138
2.98802
2.99424
2.9954
3.0034
3.01805
3.0266
3.0302
3.03081
3.03574
3.04916
3.06206
3.06966
3.07759
3.08617
3.09445
3.10345
3.10872
3.11581
3.11543
3.11409
3.10744
3.09968
3.08575
3.06765
3.04195
3.00232
2.9747
2.93207
2.86433
2.72194
0.999795
0.999807
0.999793
0.999777
0.999746
0.999704
0.999649
0.999581
0.999499
0.999403
0.999292
0.999164
0.99902
0.998859
0.998681
0.998485
0.998275
0.998046
0.997806
0.997547
0.997279
0.997005
0.996723
0.996423
0.996114
0.995822
0.995514
0.995217
0.994907
0.99465
0.994388
0.99405
0.993737
0.993473
0.993252
0.993066
0.992835
0.992558
0.992329
0.99217
0.992025
0.991862
0.991696
0.991565
0.991442
0.991309
0.991217
0.991163
0.991113
0.991028
0.990926
0.990742
0.990667
0.990696
0.99059
0.990688
0.990604
0.99115
0.990443
0.993059
0.995365
1.23714
2.05783
2.14755
2.16999
2.2009
2.24636
2.3286
2.35543
2.36765
2.43902
2.51075
2.64045
2.69336
2.75295
2.78327
2.79355
2.79934
2.79537
2.79508
2.8112
2.82137
2.8321
2.83728
2.85134
2.87212
2.90208
2.9383
2.9656
2.97689
2.98127
2.98934
3.00452
3.01453
3.01662
3.01953
3.02527
3.03349
3.04498
3.05616
3.0633
3.07215
3.08274
3.09269
3.10469
3.11145
3.11903
3.11799
3.11605
3.10838
3.10154
3.0882
3.07131
3.04511
3.0045
2.97442
2.92954
2.85893
2.71673
0.999795
0.999807
0.999793
0.999777
0.999746
0.999704
0.999649
0.999581
0.999499
0.999403
0.999291
0.999164
0.999019
0.998858
0.99868
0.998485
0.998272
0.998045
0.997803
0.997545
0.997277
0.996995
0.996714
0.996411
0.996098
0.99581
0.995511
0.995195
0.994877
0.994577
0.994323
0.994051
0.99372
0.993445
0.993202
0.992957
0.992679
0.992432
0.992226
0.992079
0.991913
0.9917
0.991398
0.99119
0.991
0.99082
0.990653
0.99055
0.990483
0.990373
0.99012
0.989672
0.989165
0.988957
0.988432
0.98842
0.988056
0.988351
0.986768
0.989151
0.994209
1.48424
2.0396
2.11264
2.13762
2.16251
2.20345
2.29681
2.43999
2.57294
2.68928
2.70174
2.74216
2.75651
2.77346
2.7856
2.78581
2.79128
2.78929
2.79002
2.80431
2.81341
2.82571
2.83356
2.84901
2.87364
2.90269
2.93702
2.95768
2.96506
2.97739
2.9938
3.00837
3.01342
3.01441
3.01863
3.0276
3.0355
3.04401
3.05157
3.05833
3.06702
3.07956
3.09215
3.10676
3.11321
3.11907
3.11744
3.1147
3.10565
3.0995
3.08618
3.07004
3.04374
3.00341
2.97201
2.92408
2.8493
2.70825
0.999795
0.999807
0.999793
0.999777
0.999746
0.999704
0.999649
0.999581
0.999499
0.999403
0.999291
0.999163
0.999018
0.998857
0.998678
0.998484
0.99827
0.998043
0.997799
0.997543
0.997272
0.996993
0.996701
0.996398
0.996099
0.995822
0.995516
0.99516
0.994826
0.99452
0.994248
0.993997
0.993694
0.993417
0.993179
0.992907
0.992605
0.992341
0.99211
0.991936
0.991782
0.991598
0.99133
0.991089
0.990901
0.990732
0.990619
0.990554
0.990489
0.990367
0.990172
0.989922
0.98964
0.989481
0.989076
0.989065
0.988866
0.989121
0.988909
0.992171
1.01318
1.76463
2.07596
2.13386
2.15373
2.17606
2.21788
2.36943
2.6023
2.73071
2.76243
2.78035
2.77606
2.77625
2.7602
2.76595
2.76583
2.76739
2.76532
2.76652
2.77463
2.78614
2.80243
2.81722
2.83602
2.86341
2.89578
2.92908
2.94295
2.95866
2.97748
2.99305
3.00472
3.01006
3.01389
3.02071
3.02947
3.03532
3.04211
3.04858
3.05522
3.0641
3.07838
3.09228
3.10796
3.11402
3.11849
3.11613
3.11227
3.10228
3.09692
3.08385
3.06795
3.04085
3.00054
2.96697
2.91743
2.84182
2.69858
0.999796
0.999807
0.999793
0.999777
0.999746
0.999704
0.999648
0.999581
0.999499
0.999402
0.99929
0.999162
0.999017
0.998856
0.998677
0.998481
0.998269
0.99804
0.997796
0.997538
0.997266
0.996985
0.996692
0.996389
0.996083
0.995784
0.995484
0.99514
0.994818
0.994536
0.994229
0.993887
0.993588
0.993317
0.993058
0.992825
0.992585
0.992287
0.991975
0.991704
0.991487
0.991297
0.991084
0.990858
0.990613
0.990432
0.990257
0.990147
0.989972
0.989647
0.98918
0.988882
0.988595
0.98839
0.988032
0.987741
0.987529
0.986699
0.986986
0.988654
1.08511
2.00041
2.16387
2.17011
2.17802
2.21015
2.30509
2.54192
2.72947
2.75279
2.7662
2.7741
2.78221
2.77278
2.76362
2.76104
2.75479
2.75444
2.75223
2.75132
2.75765
2.76807
2.78161
2.79739
2.81641
2.84789
2.88111
2.91146
2.93082
2.95176
2.97397
2.98974
3.00015
3.00898
3.01829
3.02517
3.0307
3.03398
3.0385
3.0434
3.05084
3.06088
3.07621
3.09027
3.10585
3.11132
3.11418
3.11138
3.10701
3.09659
3.09242
3.07991
3.06418
3.03594
2.99611
2.96087
2.91009
2.8322
2.68628
0.999796
0.999807
0.999793
0.999777
0.999746
0.999704
0.999648
0.99958
0.999498
0.999402
0.999289
0.999162
0.999017
0.998855
0.998676
0.998479
0.998267
0.998037
0.997793
0.997533
0.997261
0.996978
0.996683
0.996381
0.996077
0.995764
0.995431
0.9951
0.994799
0.994535
0.994222
0.993844
0.993519
0.993211
0.99293
0.992691
0.992495
0.992239
0.991931
0.991611
0.991317
0.991059
0.990853
0.990657
0.990478
0.990345
0.990292
0.990227
0.990021
0.989617
0.989162
0.988887
0.988738
0.988506
0.98836
0.988005
0.988368
0.987131
0.989951
0.992016
1.2677
2.09279
2.16667
2.16695
2.1809
2.2504
2.4231
2.68812
2.8284
2.80898
2.78068
2.76032
2.76029
2.75899
2.75664
2.75136
2.74249
2.74189
2.74343
2.73952
2.74336
2.75363
2.75848
2.77553
2.79296
2.82621
2.8569
2.88878
2.91429
2.94197
2.9641
2.97903
2.99256
3.00551
3.01725
3.02329
3.02669
3.02975
3.0335
3.03878
3.04839
3.05909
3.0737
3.08736
3.10268
3.10744
3.10829
3.1043
3.10005
3.08949
3.08674
3.07486
3.05922
3.03022
2.99143
2.95481
2.9035
2.82307
2.67395
0.999796
0.999807
0.999793
0.999777
0.999746
0.999704
0.999648
0.99958
0.999498
0.999401
0.999289
0.999161
0.999016
0.998854
0.998674
0.998477
0.998264
0.998034
0.997788
0.997529
0.997255
0.996969
0.996674
0.996367
0.996056
0.99574
0.995414
0.995087
0.994764
0.994463
0.994152
0.993799
0.993478
0.993185
0.9929
0.992572
0.992292
0.992065
0.991812
0.991467
0.991085
0.990773
0.990513
0.990271
0.990099
0.990022
0.989957
0.989727
0.989259
0.988797
0.988524
0.988232
0.988064
0.987787
0.987563
0.986934
0.987168
0.98581
0.989164
0.998365
1.5515
2.10095
2.15329
2.16295
2.19533
2.3082
2.55701
2.7927
2.81858
2.79648
2.78265
2.76167
2.75113
2.74395
2.74041
2.73897
2.73507
2.73023
2.73027
2.72749
2.73049
2.74109
2.74207
2.75684
2.77025
2.79817
2.83195
2.86573
2.89945
2.92735
2.94802
2.96527
2.98272
2.99837
3.01131
3.01787
3.02054
3.024
3.02863
3.03421
3.04485
3.05561
3.06865
3.08208
3.09664
3.10054
3.10003
3.0948
3.09145
3.08152
3.07998
3.06876
3.05306
3.02337
2.98559
2.94792
2.89534
2.81092
2.66001
0.999796
0.999807
0.999793
0.999777
0.999745
0.999703
0.999648
0.99958
0.999497
0.999401
0.999288
0.99916
0.999015
0.998852
0.998672
0.998476
0.998261
0.998031
0.997784
0.997523
0.997249
0.996961
0.996665
0.996356
0.996043
0.995719
0.995391
0.995071
0.99476
0.994405
0.994036
0.993695
0.993397
0.993148
0.992863
0.992489
0.992157
0.991902
0.991678
0.991434
0.991106
0.990712
0.990425
0.9902
0.990043
0.98994
0.989821
0.989473
0.988913
0.988495
0.988227
0.987876
0.98768
0.987387
0.986945
0.986187
0.986202
0.986845
0.991035
1.02225
1.87463
2.15758
2.19273
2.21865
2.30234
2.4943
2.71568
2.79896
2.80209
2.79216
2.77691
2.75804
2.74352
2.7383
2.73421
2.73401
2.72922
2.72183
2.72016
2.71701
2.72065
2.72805
2.73002
2.73911
2.75291
2.77405
2.8073
2.84105
2.87756
2.90475
2.9281
2.94997
2.97158
2.98863
3.00137
3.00785
3.011
3.0153
3.02194
3.02815
3.04028
3.05097
3.06214
3.07509
3.08882
3.09144
3.09028
3.08382
3.08181
3.073
3.07228
3.06155
3.04534
3.01511
2.9785
2.94003
2.88725
2.80105
2.64769
0.999796
0.999808
0.999793
0.999777
0.999745
0.999703
0.999648
0.99958
0.999497
0.999401
0.999288
0.999159
0.999014
0.998851
0.998671
0.998473
0.998258
0.998027
0.99778
0.997518
0.997242
0.996952
0.996653
0.996343
0.996023
0.995703
0.995376
0.995033
0.994704
0.994372
0.994014
0.993666
0.993337
0.993045
0.99274
0.992365
0.991991
0.991682
0.991425
0.99121
0.990925
0.990515
0.990155
0.989901
0.98972
0.989582
0.98943
0.989071
0.988567
0.988289
0.988133
0.988043
0.987976
0.987681
0.986755
0.985868
0.984172
0.985178
0.990278
1.15139
2.04681
2.19307
2.23902
2.29835
2.44098
2.69113
2.83961
2.81032
2.79337
2.77441
2.75909
2.74697
2.73963
2.73053
2.72329
2.71631
2.71293
2.70958
2.7074
2.70565
2.70883
2.71429
2.72012
2.72325
2.73498
2.74957
2.78108
2.81317
2.84978
2.87882
2.90702
2.9335
2.95753
2.97539
2.98854
2.99611
3.00157
3.00807
3.01718
3.02376
3.03487
3.04473
3.05461
3.06719
3.07971
3.08093
3.07972
3.07294
3.07201
3.06449
3.06405
3.05305
3.03624
3.00567
2.97068
2.93237
2.87846
2.78876
2.6346
0.999797
0.999808
0.999793
0.999777
0.999745
0.999703
0.999647
0.999579
0.999497
0.9994
0.999287
0.999159
0.999013
0.99885
0.998669
0.998471
0.998256
0.998023
0.997776
0.997512
0.997235
0.996945
0.996642
0.996331
0.996005
0.995681
0.995352
0.995006
0.994649
0.994301
0.993956
0.993633
0.993345
0.993017
0.992635
0.992251
0.991893
0.991571
0.9913
0.991077
0.990837
0.990495
0.990087
0.989803
0.989604
0.989448
0.989183
0.988687
0.988051
0.987732
0.987374
0.987144
0.986903
0.98673
0.985969
0.986058
0.984853
0.987764
0.99262
1.45165
2.09361
2.17377
2.21818
2.34804
2.57296
2.80673
2.8321
2.80051
2.7864
2.75552
2.7385
2.73386
2.73141
2.72352
2.70815
2.69759
2.69323
2.69478
2.69467
2.69417
2.69657
2.6997
2.70891
2.70833
2.71898
2.73109
2.75736
2.78786
2.82248
2.8554
2.88615
2.91404
2.93967
2.95829
2.97277
2.98254
2.99124
2.99965
3.01013
3.01706
3.02704
3.03631
3.0462
3.05866
3.06996
3.07019
3.06909
3.06225
3.06208
3.05576
3.05509
3.04342
3.02626
2.9961
2.96329
2.92498
2.87044
2.77758
2.62285
0.999797
0.999808
0.999793
0.999777
0.999746
0.999703
0.999647
0.999579
0.999496
0.9994
0.999287
0.999158
0.999011
0.998848
0.998667
0.998469
0.998253
0.99802
0.99777
0.997506
0.997227
0.996934
0.99663
0.996316
0.995991
0.99566
0.995321
0.994979
0.994625
0.994272
0.993936
0.993583
0.993219
0.992881
0.992539
0.992161
0.991784
0.991448
0.991133
0.990823
0.990509
0.990277
0.989945
0.989607
0.989375
0.989131
0.988885
0.988554
0.988048
0.9878
0.987531
0.987444
0.987207
0.986903
0.986054
0.985946
0.985405
0.988259
1.01525
1.79327
2.15038
2.24426
2.33078
2.53748
2.71184
2.78568
2.77489
2.78102
2.7852
2.76291
2.73418
2.72644
2.72157
2.71202
2.69519
2.68131
2.67701
2.6799
2.68323
2.68344
2.68137
2.68464
2.69355
2.6932
2.70235
2.71517
2.73653
2.76592
2.79778
2.83341
2.86407
2.89137
2.91771
2.93726
2.95393
2.96681
2.97879
2.98861
2.99952
3.0074
3.01615
3.02532
3.03691
3.05003
3.05999
3.05944
3.05809
3.05135
3.05185
3.04656
3.04555
3.03323
3.01614
2.98696
2.95544
2.91766
2.86201
2.7656
2.61085
0.999797
0.999808
0.999794
0.999777
0.999746
0.999703
0.999647
0.999579
0.999496
0.999399
0.999286
0.999157
0.99901
0.998847
0.998665
0.998466
0.998249
0.998016
0.997765
0.9975
0.99722
0.996926
0.996619
0.996301
0.995974
0.995637
0.995294
0.994945
0.994592
0.994231
0.993893
0.993561
0.993184
0.9928
0.992431
0.992081
0.991729
0.991404
0.991129
0.990794
0.990342
0.99005
0.98972
0.989436
0.989181
0.988862
0.988595
0.988337
0.987937
0.98757
0.987236
0.986845
0.986238
0.985603
0.984824
0.983079
0.983807
0.988105
1.11127
2.03532
2.21815
2.3006
2.45679
2.71062
2.86441
2.83077
2.76914
2.76804
2.7662
2.74679
2.73224
2.72163
2.71183
2.70039
2.68419
2.6694
2.66444
2.66776
2.67157
2.67081
2.66729
2.67079
2.67678
2.678
2.68458
2.69821
2.71436
2.74479
2.77594
2.81127
2.84063
2.86666
2.89357
2.91567
2.93539
2.95053
2.96437
2.97476
2.98502
2.99369
3.00212
3.01206
3.02653
3.04026
3.0488
3.04789
3.0467
3.04032
3.04127
3.03662
3.03539
3.02265
3.00587
2.97787
2.94769
2.90944
2.85301
2.75474
2.59972
0.999797
0.999808
0.999794
0.999777
0.999746
0.999703
0.999647
0.999579
0.999496
0.999399
0.999285
0.999156
0.999009
0.998845
0.998663
0.998463
0.998246
0.998012
0.99776
0.997493
0.997212
0.996916
0.996608
0.996289
0.995959
0.99562
0.995276
0.994921
0.994562
0.994198
0.99383
0.993468
0.993103
0.992725
0.992349
0.992014
0.991648
0.991283
0.990985
0.990677
0.990269
0.989947
0.989659
0.989407
0.989144
0.988766
0.988332
0.987944
0.987623
0.987423
0.987258
0.986869
0.986677
0.986132
0.986855
0.985483
0.988028
0.992164
1.45155
2.14482
2.22411
2.33221
2.58796
2.82757
2.86067
2.80816
2.7682
2.76525
2.75699
2.73965
2.72402
2.71757
2.71121
2.69979
2.68169
2.66705
2.66107
2.66011
2.65923
2.65695
2.65413
2.65627
2.65828
2.6621
2.66679
2.68263
2.69637
2.72441
2.75477
2.78917
2.81778
2.84298
2.87066
2.89585
2.91785
2.93416
2.94822
2.95825
2.96779
2.97685
2.98609
2.99763
3.01506
3.02933
3.03703
3.036
3.03482
3.02887
3.03001
3.02579
3.02466
3.01181
2.99541
2.96836
2.93972
2.90177
2.84393
2.74388
2.58819
0.999797
0.999808
0.999794
0.999777
0.999746
0.999703
0.999647
0.999579
0.999496
0.999398
0.999285
0.999155
0.999008
0.998844
0.998661
0.998461
0.998243
0.998008
0.997755
0.997488
0.997204
0.996908
0.996596
0.996275
0.995942
0.995601
0.995252
0.994898
0.994539
0.994174
0.99381
0.993441
0.993065
0.992691
0.992349
0.991988
0.991576
0.991226
0.990909
0.990552
0.990111
0.989738
0.989425
0.989163
0.988861
0.988386
0.987938
0.987442
0.987313
0.987229
0.987063
0.986757
0.98634
0.985819
0.985928
0.985675
0.988484
1.02161
1.83064
2.22505
2.36867
2.58819
2.76591
2.78095
2.79517
2.77101
2.74933
2.75256
2.74109
2.72104
2.70948
2.70405
2.70015
2.69114
2.67611
2.66523
2.66021
2.65537
2.65041
2.64555
2.64133
2.64185
2.6424
2.64902
2.65258
2.66654
2.68029
2.70367
2.73332
2.76614
2.79506
2.82035
2.84864
2.87588
2.8995
2.91646
2.93009
2.93918
2.9484
2.95796
2.96899
2.9825
3.00257
3.01758
3.0247
3.02343
3.02221
3.01672
3.01818
3.01434
3.01339
3.00087
2.98527
2.95934
2.93143
2.89399
2.83517
2.73431
2.57696
0.999797
0.999809
0.999794
0.999777
0.999746
0.999703
0.999647
0.999578
0.999495
0.999398
0.999284
0.999154
0.999006
0.998842
0.998659
0.998458
0.998239
0.998004
0.997751
0.997481
0.997197
0.996899
0.996587
0.996264
0.99593
0.995588
0.995236
0.994876
0.994512
0.994142
0.993769
0.993395
0.993016
0.992641
0.99229
0.991907
0.991507
0.991169
0.990886
0.990579
0.990231
0.989951
0.989685
0.989438
0.989225
0.988895
0.988423
0.987955
0.987487
0.987048
0.986621
0.985849
0.984169
0.98323
0.9811
0.982591
0.988322
1.18187
2.0609
2.31667
2.49827
2.74199
2.84818
2.82075
2.79694
2.75101
2.73311
2.72888
2.72566
2.71106
2.6948
2.68806
2.68682
2.67595
2.66057
2.65158
2.64949
2.6434
2.63654
2.63213
2.62943
2.62862
2.62944
2.63396
2.63893
2.64946
2.66315
2.68105
2.7103
2.74089
2.77178
2.79803
2.82738
2.85591
2.88023
2.8974
2.91055
2.91947
2.92911
2.93948
2.952
2.96716
2.989
3.00477
3.01177
3.01036
3.00919
3.00418
3.00608
3.00237
3.00178
2.98972
2.97485
2.95009
2.92358
2.88569
2.82728
2.72465
2.56684
0.999797
0.999809
0.999794
0.999778
0.999746
0.999703
0.999647
0.999578
0.999495
0.999397
0.999283
0.999153
0.999005
0.99884
0.998657
0.998456
0.998236
0.998
0.997746
0.997476
0.99719
0.996891
0.996577
0.996253
0.995918
0.995573
0.995222
0.994864
0.9945
0.994134
0.993761
0.993378
0.993012
0.992674
0.992295
0.991891
0.991478
0.991091
0.99076
0.990438
0.989987
0.989507
0.989046
0.988667
0.988412
0.988163
0.987822
0.987446
0.987259
0.987209
0.986983
0.987072
0.986764
0.987431
0.986193
0.992544
0.999714
1.59633
2.24325
2.4146
2.61126
2.7791
2.78817
2.78378
2.78555
2.74983
2.71229
2.70863
2.70869
2.69612
2.67799
2.67046
2.66823
2.66189
2.65141
2.64266
2.63922
2.63136
2.62328
2.61948
2.61868
2.61771
2.61711
2.61969
2.62473
2.631
2.64513
2.65905
2.68612
2.71488
2.74787
2.77621
2.80664
2.83531
2.85952
2.8763
2.89001
2.90006
2.9108
2.92194
2.93538
2.95157
2.97403
2.99076
2.99802
2.99677
2.99586
2.99143
2.99377
2.99032
2.99019
2.97836
2.96447
2.94054
2.91526
2.87782
2.81797
2.71551
2.55625
0.999797
0.999809
0.999794
0.999778
0.999746
0.999703
0.999647
0.999578
0.999495
0.999397
0.999282
0.999152
0.999004
0.998838
0.998654
0.998453
0.998233
0.997996
0.997741
0.99747
0.997183
0.996884
0.99657
0.996245
0.995909
0.995565
0.995209
0.994849
0.994487
0.994116
0.993738
0.993355
0.992982
0.992634
0.99228
0.991905
0.991515
0.991146
0.990835
0.990561
0.990264
0.989954
0.989652
0.989441
0.989332
0.989168
0.98883
0.988297
0.987683
0.987155
0.986332
0.985681
0.984615
0.983138
0.982536
0.983505
1.06022
1.97976
2.42933
2.60636
2.82475
2.83722
2.75269
2.73214
2.74058
2.73325
2.71251
2.69824
2.6937
2.68225
2.66509
2.65772
2.65604
2.65096
2.64073
2.6318
2.62671
2.62005
2.61163
2.60866
2.60758
2.60533
2.60369
2.60409
2.61006
2.61298
2.62556
2.63798
2.66106
2.68896
2.7235
2.75438
2.7855
2.81327
2.83743
2.85481
2.8703
2.88185
2.89339
2.90477
2.9185
2.93505
2.95779
2.97601
2.98399
2.98313
2.98243
2.97852
2.98156
2.97859
2.97867
2.96639
2.95333
2.92963
2.90593
2.86984
2.81155
2.706
2.54539
0.999797
0.999809
0.999795
0.999778
0.999746
0.999703
0.999647
0.999578
0.999494
0.999396
0.999282
0.999151
0.999002
0.998837
0.998652
0.99845
0.99823
0.997991
0.997737
0.997466
0.997179
0.996878
0.996563
0.996238
0.995903
0.995557
0.995206
0.994848
0.994488
0.99412
0.993745
0.993375
0.993012
0.992645
0.992298
0.991929
0.991547
0.991183
0.990815
0.990429
0.990007
0.989608
0.989128
0.988727
0.988603
0.988455
0.988188
0.987805
0.987606
0.987335
0.987504
0.987291
0.987826
0.986939
0.991139
0.993743
1.38853
2.27651
2.49309
2.71508
2.82753
2.8401
2.77478
2.74172
2.74585
2.73485
2.70665
2.68611
2.67935
2.67119
2.65576
2.64545
2.64087
2.63317
2.62342
2.61667
2.61188
2.60709
2.60056
2.59773
2.59458
2.59154
2.59069
2.59073
2.59574
2.59816
2.60751
2.61932
2.63794
2.66496
2.69913
2.73282
2.76435
2.79057
2.81453
2.83369
2.85121
2.86429
2.8761
2.88725
2.90097
2.91751
2.94062
2.96087
2.96967
2.96936
2.96888
2.96566
2.96955
2.96698
2.96672
2.95342
2.94147
2.91943
2.89727
2.86042
2.80433
2.69509
2.53584
0.999797
0.999809
0.999795
0.999778
0.999746
0.999704
0.999647
0.999578
0.999494
0.999396
0.999281
0.99915
0.999001
0.998835
0.99865
0.998448
0.998227
0.997988
0.997733
0.997461
0.997173
0.996873
0.99656
0.996234
0.995897
0.995557
0.995205
0.994844
0.99449
0.994126
0.993746
0.993377
0.993062
0.992719
0.992324
0.991911
0.991555
0.991271
0.990985
0.9906
0.990184
0.989874
0.989595
0.989365
0.98918
0.988971
0.98851
0.988062
0.987682
0.987086
0.986483
0.985131
0.984483
0.983115
0.984939
1.0254
1.85872
2.48741
2.73071
2.8164
2.78371
2.75442
2.7182
2.71036
2.71999
2.71051
2.68649
2.67038
2.66734
2.66245
2.64853
2.63594
2.62796
2.61824
2.60887
2.60284
2.59745
2.59247
2.58532
2.5822
2.57975
2.57714
2.57651
2.578
2.58157
2.58535
2.59103
2.60145
2.61677
2.64196
2.67476
2.71005
2.74202
2.76749
2.79173
2.81346
2.83291
2.84698
2.85892
2.87015
2.88371
2.90013
2.92322
2.94554
2.95557
2.95566
2.9554
2.9528
2.95728
2.95489
2.95441
2.94076
2.92998
2.90915
2.88859
2.85174
2.7949
2.68424
2.52486
0.999797
0.999809
0.999795
0.999778
0.999746
0.999704
0.999647
0.999578
0.999494
0.999395
0.99928
0.999149
0.999
0.998833
0.998648
0.998445
0.998224
0.997985
0.997729
0.997458
0.99717
0.996869
0.996556
0.996233
0.9959
0.995558
0.995207
0.994853
0.994512
0.994155
0.993759
0.993392
0.993088
0.992771
0.992357
0.991997
0.991648
0.991381
0.991098
0.990727
0.990382
0.990124
0.989851
0.989561
0.989181
0.98896
0.988491
0.988029
0.987779
0.987611
0.987178
0.98734
0.986667
0.988347
0.989278
1.26532
2.32533
2.62143
2.79295
2.81024
2.80195
2.76664
2.71681
2.6977
2.69513
2.68702
2.66756
2.65162
2.64751
2.64469
2.63437
2.62215
2.61196
2.60138
2.59394
2.58869
2.58292
2.57759
2.57149
2.56863
2.56618
2.56504
2.56503
2.56588
2.56803
2.57143
2.5751
2.58266
2.59769
2.6186
2.64932
2.6848
2.71836
2.74475
2.76955
2.79391
2.81476
2.82956
2.84173
2.85291
2.86625
2.88303
2.90609
2.93028
2.94129
2.94199
2.94156
2.93929
2.94416
2.94202
2.94164
2.92842
2.91899
2.89877
2.87918
2.8432
2.78491
2.67324
2.51428
0.999797
0.999809
0.999795
0.999778
0.999747
0.999704
0.999647
0.999578
0.999493
0.999395
0.999279
0.999148
0.998998
0.998832
0.998646
0.998442
0.998221
0.997982
0.997726
0.997454