/*--------------------------------*- C++ -*----------------------------------*\
| =========                 |                                                 |
| \\      /  F ield         | OpenFOAM: The Open Source CFD Toolbox           |
|  \\    /   O peration     | Version:  2.2.x                                 |
|   \\  /    A nd           | Web:      www.OpenFOAM.org                      |
|    \\/     M anipulation  |                                                 |
\*---------------------------------------------------------------------------*/
FoamFile
{
    version     2.0;
    format      ascii;
    class       surfaceScalarField;
    location    "2.55";
    object      cfmax;
}
// * * * * * * * * * * * * * * * * * * * * * * * * * * * * * * * * * * * * * //

dimensions      [0 3 -1 0 0 0 0];

internalField   nonuniform List<scalar> 
28084
(
0.00119468
0.00121848
0.00123263
0.0011916
0.00114334
0.00112358
0.00111039
0.00111945
0.0011514
0.00116477
0.00117383
0.00116786
0.00113854
0.00111809
0.00110303
0.00110525
0.00112433
0.00116257
0.00117984
0.00119402
0.0011958
0.00118731
0.00118828
0.00119341
0.00121158
0.00124203
0.00127852
0.00133703
0.00130556
0.00106267
0.00108307
0.00115299
0.00116188
0.00114971
0.00112171
0.00109422
0.00107595
0.00106288
0.00105177
0.00104168
0.00103237
0.00102668
0.00102357
0.00102215
0.0010182
0.0010286
0.00103698
0.0010472
0.0010602
0.00107349
0.00108662
0.00109949
0.00111356
0.00112434
0.00113258
0.00113898
0.00114459
0.00114697
0.00114573
0.00113855
0.00111876
0.00109547
0.00108001
0.00106947
0.00106181
0.00106
0.00106356
0.00106599
0.00106459
0.00106012
0.00105972
0.00105696
0.00105512
0.00105679
0.00106692
0.00107757
0.00109429
0.00111491
0.00113644
0.00115672
0.00116835
0.00117857
0.00117734
0.00116931
0.00115935
0.00114446
0.00112539
0.00110519
0.00108273
0.00105897
0.00103454
0.00101302
0.000995483
0.000979767
0.000964631
0.00095116
0.000941142
0.000936085
0.000929753
0.000922988
0.000918019
0.000912374
0.000904287
0.000894823
0.000886268
0.000882239
0.000877119
0.00087249
0.000865934
0.00085858
0.000849433
0.000835508
0.000822263
0.000817746
0.000805892
0.000790472
0.000775867
0.000779889
0.0034785
0.00322656
0.00114078
0.00314608
0.00108125
0.00324584
0.00108548
0.00338625
0.00114708
0.00326458
0.00123349
0.00322049
0.00125192
0.00317879
0.00124855
0.0031897
0.00122032
0.00300981
0.00115384
0.00285439
0.00109087
0.00278953
0.00108012
0.00279502
0.00109913
0.00281086
0.00115656
0.00269344
0.00121753
0.00261479
0.00122909
0.0025612
0.00121998
0.00245074
0.00118552
0.00226648
0.00112199
0.00214116
0.00108413
0.00210329
0.00109884
0.00209375
0.00113209
0.00210011
0.00120314
0.00206192
0.00125589
0.0019803
0.0012733
0.00188778
0.00127452
0.00179879
0.00126804
0.00172848
0.00127177
0.00175922
0.00129084
0.00157909
0.00124624
0.00129107
0.000939711
0.00119096
0.000860061
0.00111807
0.000814604
0.00105677
0.000778241
0.000971
0.000750213
0.000898642
0.000728003
0.000845397
0.000724125
0.000799607
0.00072789
0.000752735
0.000735552
0.000708665
0.000743318
0.000670312
0.00074974
0.000634651
0.000754174
0.000602686
0.000756592
0.000569058
0.000757632
0.000539977
0.000758053
0.000544723
0.000759489
0.000547681
0.000769146
0.000549905
0.000778647
0.000551912
0.000787779
0.000552954
0.000797446
0.000553318
0.000806818
0.000553381
0.000816418
0.000553874
0.000826093
0.000553355
0.000835846
0.000553513
0.000846242
0.000554175
0.000857553
0.000555815
0.000869638
0.000557707
0.000882314
0.000559449
0.000895143
0.000562187
0.000908052
0.000570787
0.000921281
0.000580537
0.000934057
0.000586206
0.0009457
0.000589375
0.000957734
0.000591399
0.000969342
0.000593874
0.000982809
0.000596091
0.000993651
0.000600643
0.00100133
0.000602813
0.00100668
0.000604626
0.00100957
0.000607406
0.00101011
0.000609526
0.00100863
0.00061113
0.00100796
0.000611342
0.00100696
0.000612849
0.0010055
0.000613038
0.00100251
0.000613813
0.000999299
0.000616219
0.000996414
0.00061939
0.000992977
0.000618842
0.000985397
0.000615188
0.00097626
0.000615409
0.000966218
0.000621411
0.000955413
0.000623411
0.000943628
0.000627076
0.000933558
0.00063032
0.000923154
0.000633586
0.000912046
0.000635868
0.000899613
0.000635021
0.000885619
0.000634105
0.000870027
0.00063275
0.000854008
0.000632252
0.000840403
0.000630765
0.000828718
0.000630616
0.00081672
0.00063074
0.000804254
0.000630765
0.000792143
0.000629995
0.000780938
0.000630745
0.000769455
0.000630463
0.000759088
0.000630415
0.000749116
0.000635376
0.000739505
0.000638791
0.00072908
0.000640062
0.000718097
0.00064113
0.000708349
0.000646649
0.000701964
0.000651093
0.000698953
0.000659512
0.000698509
0.000667922
0.00070022
0.00067517
0.000704417
0.000674609
0.000709176
0.000673048
0.000711871
0.000672318
0.000714768
0.000674447
0.00072053
0.000676918
0.000727671
0.000691905
0.00073436
0.000698735
0.000740277
0.000695401
0.000740449
0.000681285
0.00074071
0.000730846
0.000750286
0.00342899
0.00328851
0.0012035
0.00316142
0.00135826
0.00322382
0.00135101
0.00341129
0.00126806
0.00309028
0.00111031
0.00297055
0.001067
0.00296599
0.00107752
0.00316426
0.00112406
0.00307781
0.0012593
0.00289114
0.00136997
0.00279563
0.00135932
0.00279451
0.00132821
0.00279431
0.00125207
0.00255407
0.00113322
0.00245176
0.0011162
0.00244911
0.00113671
0.00245559
0.00121175
0.00230485
0.00134956
0.00216518
0.00143631
0.00210456
0.00144034
0.00211295
0.00140145
0.00212853
0.00133674
0.00204035
0.00129163
0.00197914
0.00131557
0.0018851
0.00134989
0.00179783
0.00139347
0.00172834
0.00144149
0.00178068
0.0014397
0.00137319
0.00114656
0.00110556
0.000810537
0.00103709
0.000737972
0.000967913
0.000701149
0.00089725
0.000678798
0.000839887
0.000668859
0.000791101
0.000666907
0.000750052
0.000669897
0.00071066
0.000676965
0.00067352
0.000685405
0.000637688
0.000692956
0.000604718
0.000698219
0.000572982
0.000702102
0.000542704
0.000704467
0.000512822
0.000706519
0.000485554
0.000708198
0.000494491
0.000710107
0.000497635
0.00071911
0.000500928
0.000728124
0.000503118
0.000737565
0.000505513
0.000747554
0.000507913
0.000758092
0.000510203
0.000769014
0.000512503
0.000780265
0.00051455
0.000791851
0.000516936
0.000804018
0.000519454
0.000816757
0.00052215
0.000829923
0.000524567
0.000843264
0.00052636
0.000856389
0.000526139
0.000868804
0.000525075
0.000881162
0.000525168
0.000894349
0.000527162
0.000906781
0.000530516
0.000917492
0.000531682
0.000925005
0.000532792
0.000930994
0.00053427
0.000935711
0.000535105
0.00093876
0.000535785
0.000939327
0.00053697
0.000937962
0.000538043
0.000934495
0.000538611
0.000929298
0.000538739
0.000924399
0.000538806
0.000919613
0.00053993
0.000916828
0.000541162
0.000914301
0.000542815
0.000912478
0.000545585
0.000909026
0.000549332
0.000903817
0.000552082
0.000897497
0.00055678
0.000889457
0.000559187
0.000879952
0.000562569
0.000868463
0.000563644
0.000854824
0.000566643
0.00083993
0.000569978
0.000824332
0.000574125
0.000808038
0.000579846
0.00079227
0.000582454
0.000776753
0.000586281
0.000762367
0.000587753
0.000748868
0.000589725
0.000736471
0.000594116
0.000724536
0.000596204
0.000713044
0.000595986
0.000701649
0.000596584
0.000691261
0.000595153
0.000680476
0.000593218
0.000669183
0.000593491
0.000657944
0.000594324
0.000647065
0.000596719
0.000636458
0.000599589
0.000625917
0.000604448
0.00061602
0.000609622
0.000607863
0.000617189
0.000602394
0.000622988
0.000599233
0.000631287
0.000598759
0.000638487
0.000600993
0.0006476
0.000606526
0.000653412
0.000614049
0.000659872
0.000623571
0.00066521
0.000634083
0.000672907
0.000645923
0.000681194
0.00065665
0.000697496
0.000669515
0.000706383
0.000684075
0.000707525
0.000698003
0.000689522
0.0007108
0.000762075
0.000726037
0.00346084
0.00319804
0.00121029
0.00284721
0.00103133
0.00307519
0.00104616
0.00346507
0.00115215
0.00312487
0.00135489
0.00293376
0.00140283
0.00298056
0.00139258
0.00317897
0.00133794
0.00300041
0.00121362
0.00269179
0.00109394
0.00257807
0.00110829
0.00265998
0.0011316
0.00280813
0.00121777
0.00254795
0.00139205
0.0024294
0.00141155
0.00247392
0.00140123
0.0025004
0.00133379
0.00222747
0.00119637
0.00204125
0.00113286
0.00198093
0.00116283
0.00203556
0.00119239
0.00212937
0.00132753
0.0020159
0.00145098
0.00197448
0.00147644
0.00190907
0.00146506
0.00179585
0.00142183
0.00165507
0.0013659
0.0014464
0.00130282
0.00113751
0.000833553
0.00108874
0.00071041
0.00102992
0.000689102
0.000960704
0.000681867
0.000892673
0.000675414
0.000837054
0.000670387
0.000789773
0.000667198
0.000747052
0.000666081
0.000708079
0.000668286
0.00067076
0.000673599
0.000636618
0.000680236
0.000604313
0.000687617
0.000572978
0.00069513
0.000542402
0.000702022
0.000512426
0.00070825
0.000484151
0.000713906
0.000493846
0.00071933
0.000496133
0.000731036
0.000499325
0.000743806
0.000502081
0.000757099
0.000505191
0.000771104
0.000508531
0.000785262
0.000511683
0.000799826
0.000514872
0.000814729
0.00051792
0.000829985
0.00052115
0.000845602
0.000524471
0.000861466
0.000527546
0.000877636
0.000530275
0.000893594
0.000532024
0.000908956
0.000532335
0.000923683
0.000533144
0.000938216
0.000532978
0.000952458
0.00053489
0.000965903
0.000534318
0.000977312
0.000535264
0.000987826
0.000535846
0.000996735
0.000536197
0.00100294
0.000535694
0.00100604
0.000535185
0.00100635
0.000535324
0.0010039
0.000536368
0.00099909
0.000537312
0.000992066
0.00053769
0.000983059
0.000537762
0.000973149
0.000538501
0.000961894
0.000541662
0.000951063
0.000544379
0.000940486
0.000548543
0.000930815
0.000551436
0.00092256
0.00055527
0.000914553
0.000559901
0.000906125
0.000563692
0.000897127
0.000568444
0.000886772
0.000569809
0.000874427
0.000572037
0.000858941
0.000573927
0.000840745
0.000575892
0.000820998
0.000580582
0.000802975
0.000580687
0.000784983
0.000583792
0.000767023
0.00058407
0.00075
0.000584847
0.000734428
0.00058584
0.000720955
0.000587218
0.000708452
0.000587138
0.000696285
0.000588387
0.000684509
0.000587309
0.000672105
0.000587501
0.000660255
0.000588839
0.000649135
0.000591091
0.00063855
0.000593724
0.00062754
0.000597571
0.000616661
0.000602976
0.000606513
0.000608388
0.000597681
0.000616414
0.000590735
0.000622919
0.000586186
0.000631802
0.000589044
0.000639202
0.000595062
0.000648026
0.0006003
0.000653255
0.000605752
0.00066048
0.000611564
0.00066552
0.000618763
0.000674348
0.000626879
0.000682731
0.000636403
0.000698518
0.000650569
0.0007068
0.000668174
0.000709172
0.000684084
0.000692819
0.000701326
0.000771254
0.000718864
0.00322148
0.00317796
0.00115471
0.00288614
0.00147118
0.00302791
0.00144219
0.00340657
0.00132169
0.00300418
0.00111551
0.00280452
0.00104606
0.0028521
0.00107709
0.00311003
0.0011421
0.00301227
0.00134214
0.00270583
0.00151993
0.00259245
0.00150816
0.00264984
0.00146124
0.00278432
0.00137253
0.00248117
0.00118173
0.00232136
0.00114127
0.00233735
0.00117234
0.00244359
0.00126032
0.00223392
0.0014723
0.00203482
0.00162909
0.00197552
0.00163067
0.00205239
0.00156918
0.00215991
0.00148203
0.00201142
0.00139725
0.00193429
0.00141866
0.00188237
0.00145617
0.00177994
0.00152273
0.00162289
0.00159181
0.0014421
0.00160318
0.00118955
0.00127862
0.00111283
0.000908024
0.00105058
0.000818569
0.000983208
0.000781444
0.000913612
0.000764992
0.000855877
0.000757505
0.00080135
0.000755045
0.00075344
0.000754035
0.00071393
0.000753572
0.000677223
0.000754904
0.000640955
0.000757532
0.000605377
0.000762141
0.000572566
0.000767494
0.000542372
0.000772606
0.000514795
0.000777486
0.000488487
0.000781808
0.000500817
0.000786394
0.000504327
0.00079887
0.000508404
0.00081331
0.000511758
0.000828176
0.000515199
0.000844068
0.000518631
0.000860324
0.000521956
0.000877049
0.000525373
0.000894111
0.000528742
0.00091135
0.000532298
0.000928522
0.000535912
0.000945691
0.000539416
0.000962599
0.000542494
0.00097918
0.000544151
0.000994655
0.000544764
0.00100921
0.000547318
0.00102406
0.000547599
0.00103779
0.000549286
0.00105067
0.000548809
0.00106141
0.000549434
0.00107062
0.000549301
0.00107832
0.000548973
0.00108414
0.00054704
0.00108746
0.000545336
0.00108888
0.000548239
0.0010883
0.00055128
0.00108536
0.000554573
0.00108055
0.000556432
0.00107433
0.000557968
0.00106685
0.000558862
0.00105705
0.000560997
0.00104584
0.000561022
0.00103451
0.000560168
0.00102217
0.000561361
0.00100899
0.00056504
0.000995898
0.000569889
0.000982445
0.000573951
0.000967468
0.000579183
0.000950213
0.000582396
0.000931165
0.000586346
0.000909823
0.000589363
0.00088811
0.000589949
0.000864816
0.000594833
0.000842996
0.000593545
0.000821182
0.000596251
0.000799256
0.000592878
0.000778523
0.000591387
0.000757234
0.000590814
0.000739342
0.000590845
0.000723699
0.000589256
0.000708697
0.000589751
0.000694434
0.000587761
0.000680677
0.000587495
0.000667678
0.000588224
0.000655055
0.000590503
0.000642891
0.000593535
0.000630774
0.000598865
0.000619974
0.000606101
0.000610897
0.000612877
0.000602872
0.000621582
0.00059619
0.000627931
0.000602016
0.000636763
0.000608124
0.000643579
0.000613523
0.000651657
0.000617853
0.000655532
0.000622685
0.000662225
0.000627665
0.000666092
0.000633766
0.000674309
0.000640537
0.000681045
0.000648178
0.00069536
0.00065876
0.000703738
0.0006697
0.000706292
0.000680888
0.000695111
0.000699169
0.000773836
0.000717338
0.00326038
0.003228
0.001302
0.0027231
0.00101672
0.00295252
0.00106521
0.00346308
0.00114707
0.00301623
0.00145128
0.00276382
0.00151668
0.00285409
0.00150984
0.00316723
0.00143968
0.00302611
0.00130016
0.00263823
0.00114477
0.00248073
0.00117224
0.00254155
0.00119295
0.00279874
0.00126684
0.00247101
0.00152984
0.00227453
0.00158222
0.00235759
0.00156154
0.00256533
0.00150641
0.00228823
0.00133747
0.00205724
0.00123117
0.00198143
0.00127085
0.00197962
0.00129882
0.00208544
0.00143446
0.00196485
0.0016085
0.00191846
0.00165451
0.00191869
0.00165968
0.00187094
0.00163962
0.00177928
0.00162288
0.00176545
0.00163411
0.00143499
0.0015432
0.0012228
0.00107029
0.00109526
0.000903952
0.00100196
0.00084096
0.000920424
0.000816537
0.000858246
0.000805362
0.000804172
0.000799856
0.000753607
0.000797253
0.000707006
0.000794288
0.000667401
0.000796384
0.000632255
0.000801635
0.000600157
0.000809767
0.000569735
0.000819378
0.00054142
0.000828953
0.000515899
0.000839169
0.000491378
0.000849207
0.000508412
0.000858711
0.000513772
0.000875696
0.000518835
0.000896781
0.000523149
0.000917658
0.00052723
0.00093959
0.000531536
0.000962079
0.000535838
0.00098431
0.000539965
0.00100591
0.000543561
0.00102654
0.000547301
0.00104594
0.000550795
0.00106424
0.000553917
0.00108094
0.000556362
0.00109673
0.000557395
0.00111115
0.00055804
0.00112484
0.000558586
0.0011385
0.000558141
0.00115145
0.000558465
0.00116353
0.000556814
0.00117417
0.000556304
0.00118406
0.000554122
0.00119154
0.000553261
0.00119792
0.000550945
0.00120176
0.00054936
0.00120464
0.000552335
0.00120555
0.000557242
0.00120532
0.000562316
0.00120294
0.000567949
0.00119905
0.00057284
0.00119335
0.000576873
0.00118487
0.000581114
0.00117487
0.000584392
0.0011618
0.000587367
0.00114662
0.000590949
0.00112874
0.000593016
0.00110761
0.000598219
0.00108602
0.000600266
0.00106373
0.000605532
0.00104045
0.000607287
0.00101623
0.000610998
0.000989652
0.000613749
0.000962632
0.000611664
0.000934713
0.000615042
0.000907077
0.000611695
0.00087981
0.000612979
0.000852797
0.000607437
0.000827017
0.000603832
0.000800535
0.000601593
0.00077736
0.000600291
0.000756098
0.000597151
0.000736024
0.000596593
0.000717147
0.000593208
0.000699528
0.000592166
0.000683798
0.000591697
0.000669716
0.000593042
0.000657091
0.000595453
0.000644377
0.000601458
0.000633512
0.000610072
0.000624281
0.000618308
0.000616712
0.000627788
0.000610323
0.000634436
0.000613003
0.000642804
0.000619331
0.000648472
0.000624783
0.000656129
0.000628522
0.00065876
0.000632238
0.000664389
0.000635841
0.000667112
0.000640452
0.000674669
0.000645847
0.000680656
0.000654355
0.000692591
0.000664514
0.000700391
0.000674634
0.000702642
0.000685013
0.000697566
0.000698703
0.000774971
0.000718377
0.0030693
0.00313742
0.00113793
0.00270675
0.00157054
0.00289899
0.00153643
0.00345339
0.00140088
0.00297467
0.00116886
0.00270649
0.00106448
0.00277328
0.00111453
0.0029921
0.00116201
0.00295766
0.00137906
0.0025955
0.00162778
0.00246166
0.001639
0.00254597
0.00159366
0.00282569
0.00151078
0.00247964
0.00127899
0.00225488
0.00121133
0.00225929
0.00125605
0.00238956
0.00129496
0.00222937
0.00152248
0.00200302
0.00176156
0.00195089
0.00179248
0.00201786
0.00173017
0.00214429
0.00166617
0.00203188
0.00156202
0.00194471
0.00156559
0.00191952
0.00161137
0.00187772
0.00167931
0.00177977
0.00175312
0.00173443
0.00176585
0.00166067
0.0017467
0.00139785
0.00124921
0.0011593
0.00104811
0.00101586
0.000944594
0.000921626
0.000910855
0.000856818
0.000898792
0.000801331
0.000891503
0.000749994
0.000888336
0.000706037
0.000885959
0.000669138
0.000893014
0.000636285
0.000905529
0.00060528
0.00092073
0.000574936
0.0009373
0.000548127
0.000954674
0.000522747
0.000971908
0.000499639
0.00098875
0.000522571
0.00100424
0.000530872
0.00102853
0.000539187
0.001057
0.000547964
0.00108404
0.000555796
0.00111062
0.000563653
0.00113617
0.000571233
0.00116033
0.000578319
0.00118269
0.000584563
0.00120279
0.000590683
0.00122229
0.00059634
0.00123967
0.000600907
0.0012563
0.000603559
0.00127078
0.000605289
0.00128423
0.000606944
0.00129697
0.000607155
0.00130821
0.000606725
0.00131916
0.000605966
0.00132918
0.000603183
0.00133811
0.00060195
0.00134628
0.00059824
0.00135281
0.000596066
0.00135817
0.00059235
0.00136074
0.000589947
0.00136149
0.000588477
0.0013619
0.000595311
0.00135991
0.000601562
0.00135571
0.000609558
0.00134955
0.000616649
0.0013417
0.000622936
0.00133538
0.000628864
0.00132608
0.000632849
0.00131441
0.000635519
0.00129975
0.000637003
0.00128005
0.000635985
0.00125554
0.000638715
0.00122822
0.000638273
0.00119904
0.000642411
0.00117123
0.000643476
0.00114089
0.000646838
0.00110791
0.000649327
0.00107533
0.000645472
0.00103971
0.000646972
0.00100352
0.00064059
0.000966346
0.000639504
0.000928356
0.000630643
0.000892379
0.00062384
0.000856837
0.000619163
0.000824193
0.000616273
0.000794846
0.000610463
0.000768185
0.000607604
0.000744296
0.000601119
0.000723362
0.000597869
0.000705001
0.000595229
0.000688878
0.000596064
0.000674604
0.000598131
0.000661553
0.000604185
0.000650816
0.000614515
0.000642594
0.000624545
0.000636765
0.00063522
0.000632119
0.000642398
0.000627816
0.00065077
0.000623453
0.000654958
0.000629294
0.000661572
0.000633359
0.000662719
0.000636673
0.000668138
0.000639945
0.000669542
0.000644327
0.000677119
0.000649826
0.000681398
0.000657287
0.000691505
0.000666393
0.000697494
0.00067703
0.000700699
0.000687731
0.000700748
0.000701177
0.000774642
0.000721174
0.00309272
0.00328813
0.00138909
0.00269215
0.00103727
0.00281177
0.00108616
0.00346431
0.00114144
0.0029808
0.00153162
0.00266397
0.00162543
0.00275728
0.00162749
0.00309602
0.00154843
0.00310407
0.00140755
0.00267568
0.00122068
0.00247182
0.00124067
0.00247156
0.00126592
0.00279881
0.00133905
0.00244931
0.00165901
0.00219392
0.00177352
0.00225257
0.00176456
0.00247425
0.00167861
0.00241545
0.00154569
0.00217255
0.00139677
0.00205788
0.00141215
0.0020489
0.00145983
0.00207166
0.00158467
0.00197976
0.00174061
0.00193073
0.00184486
0.00189793
0.0018897
0.00189989
0.00188582
0.00185113
0.00188945
0.00171744
0.00189415
0.00179645
0.00189952
0.00156544
0.00143077
0.0012685
0.0012322
0.00107518
0.00110351
0.000958633
0.00105141
0.000882871
0.00102338
0.000817614
0.00100861
0.000761522
0.00100949
0.000723238
0.00101467
0.000691285
0.00103185
0.000662268
0.00105311
0.000633521
0.00107789
0.000604627
0.00110382
0.000578036
0.00113129
0.000552811
0.00115737
0.000529511
0.00118157
0.000561598
0.00120323
0.000574238
0.00123104
0.000585687
0.00126057
0.000594985
0.00128647
0.000603122
0.00131056
0.000610768
0.00133336
0.000617277
0.00135456
0.000623028
0.0013747
0.000628436
0.00139323
0.000634134
0.00141377
0.000639389
0.00143296
0.000644271
0.00145225
0.000647706
0.00146992
0.000650509
0.00148467
0.000653136
0.00149622
0.000653781
0.00150613
0.000654554
0.00151482
0.000654068
0.00152212
0.00065165
0.00153004
0.000650096
0.00153734
0.000646374
0.00154157
0.000644221
0.00154672
0.000639326
0.00154842
0.000636534
0.00154814
0.000631381
0.00154745
0.000637098
0.00154391
0.000642733
0.00153991
0.000650036
0.00153329
0.000655941
0.00152629
0.0006662
0.00151553
0.000674288
0.00150562
0.000683572
0.00149473
0.000690961
0.00148173
0.000698482
0.00146677
0.000699428
0.0014463
0.00070461
0.00142519
0.00070187
0.00139919
0.000706805
0.00136751
0.000703783
0.00133188
0.000705057
0.00128542
0.000706249
0.00123946
0.000699146
0.00119195
0.000698246
0.00114496
0.000686423
0.00109511
0.000680448
0.00104158
0.000666344
0.00099153
0.000655731
0.000941453
0.000645887
0.000895663
0.000638829
0.000854401
0.000628786
0.000816146
0.000622216
0.000782719
0.000611537
0.000754529
0.000605502
0.000730602
0.000599991
0.000710279
0.000599537
0.000693728
0.000600515
0.000680147
0.000606265
0.000669533
0.000617423
0.000662341
0.000630049
0.000658938
0.00064343
0.000657504
0.000652598
0.000654675
0.000660646
0.000650148
0.000663723
0.000646062
0.000669297
0.000640224
0.000668476
0.000639637
0.00067312
0.000642075
0.000673242
0.000646134
0.000680864
0.000651827
0.000683567
0.000659118
0.000692802
0.000667844
0.000695963
0.000678316
0.000701003
0.000690327
0.000704801
0.000704189
0.000772412
0.000723164
0.00300871
0.00312122
0.00112297
0.00259001
0.00166991
0.00276779
0.00165723
0.00347807
0.00152774
0.00298879
0.00123866
0.00267001
0.00109977
0.00274788
0.00116659
0.00296748
0.00121898
0.00294101
0.00141541
0.00257565
0.00173289
0.0024093
0.00178583
0.00251373
0.00175234
0.00289076
0.00167916
0.00253301
0.00141455
0.00224805
0.0013012
0.00224592
0.00135076
0.00235868
0.00139197
0.00231425
0.001579
0.00208137
0.00186273
0.00203608
0.00193957
0.00206417
0.00194508
0.00213059
0.00189223
0.00210732
0.00180764
0.00202484
0.00178311
0.0019651
0.00182603
0.00192886
0.00188502
0.00188237
0.00195589
0.00171039
0.00207223
0.00189974
0.00219041
0.00174183
0.00170029
0.0014018
0.00146721
0.00116382
0.00128245
0.00102722
0.00122135
0.000926757
0.00120155
0.000844339
0.00120304
0.000783914
0.00121103
0.000760957
0.00122407
0.000734121
0.00124149
0.000710697
0.00126679
0.0006851
0.0012941
0.000658468
0.00132123
0.000631435
0.00134934
0.00060471
0.00137506
0.000577992
0.00140052
0.000619173
0.00142358
0.000633424
0.00145182
0.000646742
0.00148368
0.000657801
0.00150999
0.000667655
0.0015326
0.000676172
0.00155195
0.000683399
0.00156867
0.000690084
0.00158496
0.000696343
0.00160046
0.000703221
0.00161541
0.000706707
0.00162939
0.000711815
0.00164319
0.000714123
0.00165733
0.000716158
0.00166757
0.000715511
0.00167632
0.000716035
0.00168575
0.000714943
0.00169456
0.000715316
0.00170377
0.000714039
0.00171571
0.000711608
0.00171899
0.000710445
0.00172327
0.000708227
0.00173135
0.000705698
0.00173576
0.000703735
0.00173829
0.000701308
0.00173748
0.000711488
0.00173712
0.000719382
0.00173482
0.000729811
0.00172817
0.000736831
0.00172129
0.000747407
0.00170782
0.000753431
0.00169611
0.000763264
0.0016826
0.000769883
0.00166732
0.000776614
0.00165076
0.000779042
0.00163166
0.000787564
0.00160116
0.000786604
0.00157054
0.000795046
0.00153696
0.000794235
0.0015031
0.000790494
0.00145415
0.000788476
0.00140505
0.000775967
0.00135089
0.000774582
0.00129054
0.000758079
0.00123058
0.00074493
0.00116967
0.000722467
0.00110708
0.00070474
0.00104251
0.000687089
0.000977651
0.0006734
0.000918734
0.000656499
0.000865172
0.000644247
0.000819435
0.000627458
0.000782704
0.000616913
0.000753282
0.00060671
0.000728941
0.000603332
0.000710366
0.000602723
0.000696241
0.000606795
0.000686064
0.000617401
0.000679487
0.000632407
0.000677435
0.000649907
0.00067791
0.000663145
0.000678952
0.000672189
0.00067948
0.000677151
0.000677177
0.000680031
0.000671417
0.000676856
0.00066472
0.000680167
0.000658524
0.00067827
0.000654977
0.000685729
0.00065715
0.00068623
0.000660595
0.00069538
0.000669462
0.000697209
0.000679163
0.000703269
0.000690831
0.000709382
0.000704322
0.000769285
0.000723175
0.00298629
0.00334958
0.00146259
0.00270417
0.00109481
0.00258839
0.00110055
0.00342718
0.00113479
0.00295938
0.0016272
0.00259685
0.00176331
0.00270433
0.00176326
0.00304203
0.00167147
0.00319501
0.00154224
0.00277514
0.00132695
0.00252993
0.00131051
0.00257991
0.00136364
0.00283
0.00146568
0.00245949
0.00185435
0.00215864
0.0020572
0.00219674
0.0020681
0.00240113
0.00196762
0.00262282
0.0018163
0.00242052
0.00171836
0.00234724
0.00175119
0.00228988
0.00181598
0.00222023
0.00190799
0.00210285
0.00202521
0.00199537
0.00213277
0.00195343
0.00218384
0.00192959
0.00222444
0.00192605
0.00226607
0.00187626
0.00229423
0.00200681
0.00234274
0.00190319
0.00206666
0.00152452
0.00161455
0.00123862
0.00141996
0.00109935
0.00137117
0.000990016
0.00137065
0.000918262
0.00139282
0.000865023
0.00141169
0.000848766
0.00143766
0.000825515
0.00146546
0.000803909
0.00149175
0.000776012
0.00151926
0.000747123
0.0015449
0.000717421
0.00157843
0.000688267
0.00160657
0.000659651
0.0016306
0.000709226
0.00164914
0.000723953
0.0016704
0.000734487
0.00169626
0.000741941
0.0017154
0.000747008
0.00172985
0.000750533
0.00174208
0.000753147
0.00175179
0.000756552
0.00176351
0.000758079
0.00177589
0.000761133
0.0017865
0.000760536
0.00179574
0.000762981
0.00180458
0.0007602
0.00181076
0.000760683
0.00181616
0.000756872
0.00182486
0.000757506
0.00183065
0.000753314
0.00184095
0.000753964
0.0018463
0.000749645
0.00185113
0.00074741
0.00185376
0.000745626
0.00186526
0.000742185
0.0018694
0.000741425
0.00187162
0.000738925
0.00187409
0.000741376
0.00187877
0.000752624
0.00187892
0.000764972
0.00187357
0.000777017
0.00186947
0.00078985
0.00186115
0.000802159
0.00185395
0.000816121
0.00184197
0.000829678
0.00183434
0.000842728
0.0018201
0.000857099
0.00181215
0.000862277
0.00179703
0.000870848
0.00177208
0.000871571
0.00174261
0.000878481
0.00170121
0.00088519
0.00166614
0.000880525
0.00162066
0.000884442
0.00157487
0.000870706
0.00152269
0.000862888
0.00146068
0.000835937
0.00139117
0.000822846
0.00131749
0.0007962
0.00123875
0.000773451
0.00115463
0.000746331
0.00108174
0.000722155
0.00101203
0.000694501
0.000944888
0.000672583
0.000882102
0.000647653
0.000830929
0.000631543
0.000789652
0.000615491
0.000757116
0.000608319
0.000733357
0.000604855
0.00071692
0.000606327
0.000705515
0.00061618
0.000698229
0.000632648
0.00069637
0.00065214
0.000698672
0.000668821
0.000703886
0.000683198
0.000708164
0.000692152
0.000708752
0.000695986
0.000706968
0.000690747
0.000701897
0.000691529
0.000691649
0.00068612
0.000680753
0.000692559
0.000677449
0.000690413
0.000676867
0.000699179
0.000682842
0.000700265
0.000689803
0.000706619
0.000698152
0.000715193
0.000706155
0.00076716
0.000722805
0.00301588
0.00312963
0.00115033
0.0025732
0.00180013
0.00258532
0.00180703
0.00350011
0.00164576
0.0030233
0.00133185
0.00266737
0.00113482
0.00278311
0.00122039
0.00302063
0.00128984
0.00304871
0.00150587
0.0026066
0.00186667
0.00242011
0.00202802
0.00258801
0.00199198
0.00299922
0.00187117
0.00269017
0.00163
0.00234661
0.00141318
0.00240033
0.00148461
0.00252213
0.00154938
0.00258332
0.00179935
0.00236667
0.00210195
0.00230578
0.002217
0.00229743
0.00223674
0.00229326
0.00218971
0.00227948
0.00216042
0.00219917
0.00212069
0.0021182
0.00213879
0.00207751
0.00218672
0.00202807
0.00227449
0.00196551
0.00235739
0.00206102
0.0025051
0.00195029
0.00248753
0.00155545
0.00175476
0.00126824
0.0015501
0.00112793
0.00150498
0.00104572
0.0015143
0.00097148
0.0015732
0.000953795
0.00162508
0.000939564
0.00167176
0.000915428
0.00170522
0.000892905
0.00174113
0.00086368
0.00177406
0.000836668
0.00180698
0.000806079
0.00183438
0.000772647
0.00185114
0.000734363
0.00186452
0.000785047
0.00186835
0.000791916
0.00187145
0.000796264
0.00187903
0.00079876
0.00188666
0.000799209
0.00189271
0.000800038
0.00189985
0.000800222
0.00190669
0.00080262
0.00191483
0.000802242
0.00192573
0.000801929
0.00193092
0.00079836
0.00193669
0.000798472
0.00194398
0.000791945
0.00194992
0.000791145
0.00195094
0.000783741
0.00195318
0.000782731
0.00195114
0.000776456
0.00196182
0.000773407
0.00195738
0.000767885
0.00195961
0.000767123
0.00196689
0.000762871
0.00196872
0.000758319
0.00197262
0.00075666
0.00197307
0.000752428
0.00197468
0.000760581
0.00197086
0.00077148
0.00197056
0.000788263
0.00196452
0.000800662
0.00196177
0.00081905
0.00195569
0.000832299
0.00195094
0.000853023
0.00194277
0.000868492
0.0019387
0.000888732
0.00192954
0.000906395
0.00192249
0.00092276
0.00191176
0.000935362
0.00190051
0.000947499
0.00188171
0.000954416
0.00186119
0.000967926
0.00182997
0.000963759
0.00180024
0.000973484
0.00176026
0.00096509
0.00171707
0.000965879
0.00165793
0.000937776
0.00159451
0.00092431
0.0015221
0.000888097
0.00144177
0.000855347
0.00133598
0.000822162
0.00124412
0.000790169
0.0011551
0.00075094
0.00106656
0.000713936
0.000979757
0.000677789
0.000902934
0.000653824
0.000839508
0.000629553
0.000792269
0.000616384
0.000760011
0.000608548
0.000738385
0.000607089
0.000724453
0.000614608
0.000716159
0.000630164
0.000713002
0.000650915
0.000715355
0.000671332
0.000723536
0.000691372
0.000731617
0.00070497
0.000736932
0.000712824
0.000739464
0.000712214
0.000737391
0.000710019
0.000728784
0.000699049
0.000715475
0.000702385
0.000702414
0.000697124
0.0006957
0.000704552
0.00069641
0.000705276
0.000699511
0.000712116
0.000704934
0.000721888
0.000710108
0.000767336
0.00072287
0.00293918
0.0034284
0.00155103
0.00275488
0.00113623
0.00275279
0.00116098
0.00344673
0.00121238
0.00292149
0.00176664
0.00250564
0.00198209
0.0027011
0.00196303
0.00305209
0.00187559
0.00342143
0.00172099
0.0030387
0.00155532
0.00275928
0.00147926
0.00286555
0.00156779
0.00300462
0.00174072
0.00252042
0.00220873
0.00217964
0.0025603
0.00227338
0.00257184
0.00249173
0.00246047
0.00275102
0.00223943
0.00277267
0.00212896
0.00268953
0.00214518
0.00262088
0.0022414
0.0024517
0.00232214
0.00229567
0.00242791
0.00218565
0.00256485
0.00209863
0.00267297
0.0020668
0.00272773
0.00202872
0.00277613
0.00200863
0.00282277