/*--------------------------------*- C++ -*----------------------------------*\
| =========                 |                                                 |
| \\      /  F ield         | OpenFOAM: The Open Source CFD Toolbox           |
|  \\    /   O peration     | Version:  2.2.x                                 |
|   \\  /    A nd           | Web:      www.OpenFOAM.org                      |
|    \\/     M anipulation  |                                                 |
\*---------------------------------------------------------------------------*/
FoamFile
{
    version     2.0;
    format      ascii;
    class       volScalarField;
    location    "2.55";
    object      divBf;
}
// * * * * * * * * * * * * * * * * * * * * * * * * * * * * * * * * * * * * * //

dimensions      [1 -3 -2 0 0 -1 0];

internalField   nonuniform List<scalar> 
14161
(
-3342.99
13099.9
59.112
-24367.9
-19086.3
-4118.63
105.82
8292.69
17365
8490.86
1418.66
-8491.3
-20285.6
-13102.3
-3738.25
5000.94
12104
21836.2
9826.7
3408.6
-5806.44
-8756.64
-2871.44
2509.93
11765
21429.3
27555.5
39965.4
67267.1
23232
80365
33761.7
12184.7
-151.732
-10236.1
-13782.2
-4276.81
-1409.95
1781.76
2019.05
-113.913
-1003.08
-2078.02
-2726.49
-10148.7
-41015.6
-43606.6
-41653.7
-40814.4
-39728.5
-38741.2
-37954.5
-38072.7
-37762.6
-37859.9
-37696
-37506
-38272.4
-37882.6
-36794.1
-33613.2
-32873.4
-27578.9
-21271.5
-16287.1
-15204.7
-14487.5
-14021
-12494.7
-12937.9
-11186.5
-8186.08
-5528.45
-3801.92
-1372.6
3578.23
9127.49
12394.3
11142
16056
15134.9
15356.7
12724.6
6739.72
7914.32
6159.62
6321.34
8754.42
7626.71
9446.66
8118
6880.72
6465.01
6320.74
5200.53
6115.05
5179.11
2419.04
1593.25
240.937
-2870.9
-2495.18
-4763.29
-8251.44
-11280.8
-15215.5
-16993.8
-17441.5
-17715.9
-19026.1
-19040.7
-20458.8
-17719.8
-17789
-12762.3
-10468.5
6379.03
-8115.25
19186.2
-45307.2
-37557.7
424.855
29574.9
53381.4
22059.6
936.479
-15869
-45310.6
-47954
-11850
4773.23
38115.6
47714.1
10111.8
-3745.77
-24330.3
-50875.8
-37466.1
-4887.28
17095.8
49754.1
38515.3
7989.85
-1886.18
-10449.7
-4454.6
7193.56
10252.3
-12542.4
-89839.7
-45307.7
-17512.5
-7831.55
-3118.02
-7003.59
-9729.08
-10986
-9470.55
-4327.69
-4561.68
-1714.19
1340.33
2395.79
4504.36
-9547.1
-9302.64
-12325.6
-10824.3
-13363
-13527.3
-14005.8
-13880.4
-13679.2
-13310.1
-13882.3
-13095.2
-12335
-9424.85
-8270.64
-8366.73
-8365.19
-8164.66
-10115.1
-8752.79
-8126.26
-8520.32
-5758.36
-4902.86
-3006.13
-2375.38
834.145
360.039
1430.16
-743.771
-1718.85
-3003.46
-3358.56
-1789.1
-3364.78
2889.99
3696.68
8912.61
8271.18
10332.2
9850.8
8677.82
7265.56
6702.96
8416.28
7349.09
7185.17
5843.84
7362.28
6454.47
3734.62
2789.69
2871.84
1744.63
2030.95
186.607
106.65
-2434.98
-3357.75
-5140.31
-4032.76
-5318.56
-6060.77
-6859.15
-9165.27
-6307.92
-7800.05
-6733.12
-3358.34
-2560.5
-3376.63
969.011
-3441.27
3738.27
10587.9
82259.5
614.659
-54547.7
-98672.6
-46328.3
-3869.41
23542.1
75990.9
72604.3
13721.2
-9176.56
-58634.4
-85145.8
-27782.3
2594.13
39991
82479.5
61374.3
6532.28
-14101.3
-58119
-45554.7
-4794
9228.42
27028
31941.1
713.256
-23402.3
-147609
-71639.7
-28868
-20610.6
-14899
788.545
-4861.1
9071.52
6217.75
7939.4
7618.92
5639.43
4723.32
2526.9
3445.1
-2159.2
-10929.4
-12672.9
-12861
-14181.2
-14540.8
-15726.9
-16002.3
-16147.7
-16782
-16915.6
-17738.5
-17496.3
-18096.4
-16976
-17205.8
-18329.2
-22829.8
-20127.9
-16857.6
-12925
-7797.26
-5916.6
-4160.4
-1840.64
570.787
2681.51
3952.72
4322.27
4732.81
4799.78
6309.56
7876.74
12557.8
21056.8
16563.4
17185.3
15226.7
15249.5
14385.2
15134.4
15250.4
12037.3
12964.5
9109.42
8194.77
5611.12
4353.33
3483.42
2847.38
2175.43
2408.79
1902.85
1674.78
1318.9
1150.92
1147.04
479.324
327.634
-1091
-1464.19
-2048.14
-2269.91
-2913.02
-2106.43
-2587.82
-1634.23
-1749.81
-764.012
-1236.37
-79.5469
-860.367
1091.88
-2663.9
2965.47
-37916
-105946
-2746.91
53818
113404
46824.9
1005.59
-31174.7
-83194.4
-94640.7
-24754.1
7923.59
62672.3
101406
31796.4
-4057.74
-41276.4
-89337
-75220.2
-10075.8
20129.4
74455.5
66656.7
14845.5
-4612.91
-25960.1
-42892
-56442.4
-85112.2
-35036.9
-7380.11
-7850.01
-4983.17
-1874.99
1143.79
7978.88
1987.09
2374.13
950.435
-931.854
-1881.68
-2887.29
-2269.52
-4726.93
-3771.99
-12720.2
-13489.9
-16718.8
-15244.6
-16404.3
-16221.2
-16937.8
-17136.5
-16797.9
-16545.6
-15993.5
-15140.5
-14388.1
-12926.8
-12413.3
-13673.5
-7373.6
-5258.37
-3230.25
-2447.08
-1318.76
866.434
2653.84
4834.44
6315.99
7746.04
10131.9
10453.9
11390.6
12969.4
12900.6
11451.8
5270.68
-1081.01
1749.57
2882.92
4489.95
7638.05
8700.43
10931.5
12460.3
10570.5
12817.2
9549.08
11163.8
7845.12
7513.23
6039.4
5833.28
3863.39
3106.16
2197.14
1849.79
1550.42
1360.77
881.176
-42.9405
-630.466
-463.721
-773.355
-625.455
-710.061
-246.815
286.916
236.314
973.439
586.709
1309.57
418.669
1063.15
-428.623
676.851
-1856.2
851.181
-5025.27
128087
1738.04
-66767.3
-131022
-70731.6
-5801.99
30799.6
96484.7
96703.2
21929
-9974.74
-64699.2
-118905
-50008.7
-84.5069
45291.3
101957
80296.7
11051.8
-13158.1
-65267.8
-66019.6
-14809.1
2982.62
29007.2
32421.8
4918.09
-24959.5
-108362
-64020.6
-23069.8
-1781.07
2401.2
5802.68
5127.73
2887.79
2594.05
1758.97
1736.25
1083.15
1681.35
1242.69
2074.52
1354.45
-8086.5
-5352.14
-9303.84
-10317.7
-13358.2
-14012.5
-15683.1
-16279.4
-16957.1
-17212.6
-17272
-17227
-17714.7
-17100.2
-17341
-15270.1
-15355.9
-14436.9
-13006.9
-10964.3
-9299.69
-6040.8
-4237.69
-2087.28
-628.737
748.353
672.67
6554
5828.37
10084.5
10969.1
14965.9
16453.3
22462.6
19845.2
23639.1
19613.5
20709.6
18886.2
19895.9
20831.8
15901.8
17685.3
11922.6
12473.8
9208.52
8121.39
6386.78
5841.21
4372.25
3847.7
2344.23
1738.2
1096.99
1433.56
1004.41
1058.5
961.255
62.2124
-242.302
-833.575
-836.641
-1154.51
-311.545
-439.541
359.899
-159.327
740.877
26.8595
1154.59
-854.417
812.936
-1769.55
349.055
-18491
-151185
-8471.99
59292.1
144108
61818.6
2311.9
-34498.3
-90101.8
-115535
-38174.9
5577.44
63700.9
125809
49693.3
-628.844
-39081
-88622.4
-92614.9
-15956
10976.8
62688.7
75191.4
26244.1
-1187.48
-12923.2
-18104.3
-5676.2
-21208.8
-17923.6
-79405.1
-35768.6
-17197.2
-8922.05
-5027.2
-3388.92
-2869.31
-3129.85
-2778.04
-2575.86
-3909.76
-3520.85
-5702.41
-7081.9
-7556.01
-16197.8
-19016.6
-27383.5
-26086.6
-27549.6
-27669.2
-27537.8
-26837.4
-25677.1
-24261.1
-21775.8
-19374.4
-17319.8
-15281
-14510.7
-11841.4
-8368.58
-5827.18
-2789.84
-1762.95
324.046
135.86
345.308
1556.37
1280.42
3970.77
4145.88
8846.64
7680.58
13199.3
13288.4
18298.4
19499.3
21766.1
19814.1
20566.6
19109
17039.6
16418.3
15960.9
18899.1
14732.3
19551
13839.4
17117
13938.8
12858.8
10477.1
9249.94
6627.04
5501.9
3790.13
2648.67
2106.1
1542.5
1152.89
982.493
565.06
903.325
223.371
461.765
-186.782
-94.8108
563.089
329.81
1515.45
425.482
1839.43
5.62631
1780.54
-961.653
1281.58
-1565.51
74.1623
-29111.8
161736
6006.46
-61020.4
-145803
-92584.7
-9815.29
27543
92616.2
109802
32379.8
-6864.76
-57298.1
-124087
-74197.7
-6748.47
34952.5
92927.6
89330.8
21461.9
-7787.59
-45925
-61480.7
-20128.5
-1825.87
17814.8
19216.8
2997.41
-7790.28
-41912.2
-41454.9
-38702.9
-15955.9
-6063.51
-593.208
458.925
2595.64
2063.59
593.172
649.599
-3799.36
-3915.91
-8298.81
-9644.34
-10172
-21531.1
-22147.2
-25520.5
-25322.1
-26557.8
-27205.9
-26538.5
-26021.9
-25802.3
-26325.4
-25029.6
-24294.4
-23177.7
-22086.2
-20259
-16813.2
-15534.2
-12219.5
-9593.08
-6831.12
-3275.24
-1261.45
570.898
3258.9
4348.44
6960.92
8283.29
11367.6
10883.5
16016
14019.2
19548.6
19255.6
25371.2
21764
27973.4
23389.9
27132.2
23290
22645.2
26620.6
20968.9
29438.6
19097.1
21732.4
16328.6
16431.1
13613.4
11925.3
8310.03
7145.71
4062.12
2941.18
1833.54
1572.36
1096.68
1095.57
1047.83
520.1
697.392
291.563
-538.503
-267.434
-435.02
-723.69
633.021
-790.815
1151.77
-704.18
1039.92
-959.389
1111.5
-1575.48
-63.0195
8277.04
-187043
-16591.8
53454.4
162931
75027.2
4348.73
-32203.1
-81401.5
-120994
-50886.1
1250.44
55734.4
128161
67291.4
4273.59
-28728.2
-71343.3
-87819.1
-27179.4
2472.77
35985
56307.1
36345.2
9400.08
-3119.53
-8187.68
-11126.9
-6348.58
-58323.5
-90.5937
-26814.6
-17869.2
-13877.2
-7616.16
-7653.08
-3955.11
-3696.84
-6909.37
-4693.84
-12042
-9941.4
-15685.1
-19190.7
-22971.8
-34798
-33297.4
-37877.4
-37695.6
-38719.7
-38117.4
-36290.4
-34498.3
-31881.4
-31484.3
-26025.9
-25734.3
-20456.5
-19501.8
-15525.8
-16032.7
-12965.3
-13927.6
-9973.08
-7788.51
-6125.19
-5732.57
-1157.24
771.643
3747.8
6650.67
8819.1
12903.9
14430.2
19074.3
19800.5
24158.5
24809.3
28368.5
30172.7
32176.9
31849.3
36203.8
39917.6
39311.9
43447.7
34906.1
41720.7
29479.7
35572.2
27970.8
27417.9
22102
18947.5
13697.9
11079.7
7016.02
5415.55
3129.06
2365.92
391.022
1358.23
328.113
1380.38
562.31
1487.13
225.34
909.144
218.482
142.663
1287.81
-496.015
1696.28
-835.904
1651.81
-1076.17
1424.03
-1362.05
190.475
-49158.3
182731
12909.5
-41690.9
-160989
-108948
-13726.3
22120.4
80225.1
114624
44181.9
-3315.13
-48333.3
-116720
-95334
-12928.2
22785.4
72826.1
85779.5
28763.4
-1751.49
-21475.3
-39204.4
-24557.4
-7324.92
4950.6
12634.3
18610.2
23122.4
-58317
19543.2
-28818.7
-17312.5
-7233.15
-2937.66
-119.975
2123.44
295.905
-5022.37
-6210.78
-13067
-12961.2
-19322.8
-19760
-22066.4
-35280.3
-29124.6
-27530
-24785.1
-22003.6
-20786.7
-18535.6
-20514.5
-19685.1
-20609.1
-17763.5
-17445.3
-14093.7
-15174
-13061.1
-13407.3
-11163.2
-6158.47
-6544.74
-5998.83
-1850.24
-2237.85
586.674
2291.06
6412.9
8980.49
11499.7
12803.5
16410.9
16633.6
21896.5
21821.1
25672
31998.4
32355.7
33057.3
37094.6
38821.5
43333.6
41331.7
54081.3
43290.3
47554.5
26698.6
35829.1
26349
27873.8
21985.8
23091.1
16786.4
13438.5
8359.81
6242.12
3483.59
2127.05
754.993
1403.99
571.579
1362.85
1058.24
-230.947
410.71
-384.041
-516.192
-482.653
351.7
-1375.9
972.924
-1296.99
802.622
-1292.09
1313.86
-1433.55
461.591
32903.1
-210857
-25737.3
41394.3
181380
85773.6
6448.09
-30767
-72424
-113435
-61888.5
-1745.09
50266.7
120036
85095.9
8155.99
-20372.6
-63090.5
-62219.8
-20627.7
-2452.56
15109.5
29431.4
26864
12558.4
5421.2
2229.3
-2841.89
40.3011
-47293
-16161.9
-43296.7
-25905
-9519.83
633.623
-1312.28
-12.4172
-6719.27
-9678.82
-10411.9
-16175.9
-16048.4
-20554
-22729.1
-21470.6
-32763.2
-26376
-23109.5
-20252.7
-17807.2
-17138.9
-17046.3
-17526
-18163.7
-16278.5
-15842.8
-13492.1
-14264.8
-10987.6
-11434.6
-8397.46
-7705.09
-4083.03
-6927.49
-1722.12
-6049.16
783.893
-741.883
4319.61
3857.76
5926.09
8839.95
10410.6
14160.7
15441.7
21537.9
19276.5
27184.7
24912.4
32602.5
32191.2
39837
38460.2
39584.2
35528.6
44709.6
38977.5
59000.6
41205.4
47894.6
34546.1
30168.5
24317.1
27587.5
25802.9
20120.5
14091.1
10328.3
6308.29
3758.5
1084.32
1178.43
-119.236
-813.159
-13.6738
1266.72
-306.401
797.104
328.951
1237.37
1113.82
-311.138
1263.53
-1484.09
1399.91
-1378.75
1692.6
-1466.48
932.839
-62117.9
197750
17350.2
-33116.6
-162490
-123330
-16374.3
20871.5
71867.6
109107
58087.3
-736.028
-43042.5
-106882
-109413
-16131.1
18248.1
64387
62918.6
31603.9
679.932
-8271.06
-21756.8
-23335.8
-13488
-7612.02
7974.02
8330.98
19899.5
5728.54
-17400.3
-25426.6
-21806.8
-7529.87
2084.89
-5249.82
-1223.46
-4654.59
-3035.57
-8814
-7952.3
-7986.55
-9185.71
-6546.26
-5332.02
-13007.7
-10990.2
-10974.2
-11121.6
-10850.2
-8827.4
-8384.53
-5486.19
-7882.29
-7441.47
-5648.37
-5175.36
-4501.51
-4231.31
-3718.04
1220.11
-4118.08
-18.7042
1820.04
-926.104
2869
-2402.36
2878.55
-29.1975
6825.6
8285.42
9934.11
12065.7
12854.1
16677
18210.9
20962.5
22609.9
25124.6
30753.8
32273.6
38521.3
38136.5
39785.6
41450.9
47749.3
41453.9
56763.5
38408.2
56388.5
54914.3
51445.5
44659.8
38495
38570.5
28830.5
22186.4
15878.8
9611.14
6294.6
3184.79
1174.04
11.5263
-847.644
389.549
-1348.49
270.251
-1801.1
-444.001
-446.84
361.103
-1223.88
114.69
-2116
732.828
-1909.73
1492.05
-1910.33
1132.87
54956.7
-221021
-27427.6
38491.7
178045
98568.9
8083.36
-27327.2
-65866.5
-94288.9
-56510.5
-3491.57
41180.2
109976
93017.6
9283.52
-18488.3
-63039.8
-51810.4
-24753.9
-5421.19
2583.07
13659.4
23886.8
23787.1
13896.3
8993.38
3945.12
1257.77
-65553.6
-66176.2
-50527.3
-22723.7
346.901
14688.8
1452.49
-5243.81
-9658.36
-6747.64
-5189.23
-5569.29
-6235.57
-4369.32
-3611.36
1499.2
-4917.17
-3523.37
-5781.81
-7026.52
-6712.54
-7863.21
-7717.43
-7070.26
-6611.84
-5130.5
-5090.31
-6103.63
-4682.22
-3914.26
-2833.65
583.313
1724.39
3189.35
1787.36
3708.3
1704.28
4922.23
2520.96
10557.5
5284.47
11231.1
13330.9
15101.3
16206.7
17445.2
17887.6
21357.2
20181.7
24379.8
25759.2
29853.4
33719.9
36605.2
40105
42301.8
45227.8
38281.8
51240.8
48113.1
53407.4
61554.5
64990.9
49411.4
39214.5
37223.4
41806.3
36946.7
28389.4
16777
10632
5894.51
1696.65
2790.8
-1095.2
-2614.98
-928.18
-32.9579
768.186
-1013.04
68.8095
1093.76
453.022
1244.54
-1327.46
1478.24
-1861.41
2063.55
-2252.09
1825.04
-69086.4
204756
18553.5
-29986.8
-153688
-133318
-17727.8
24391.8
64745.1
91087.6
51419
-265.63
-32758
-88119.3
-99641.4
-13797.4
18905.6
51588.9
52641
28457.8
6237.73
-4872.7
-10432.2
-15766.2
-22640.9
-21926.9
-14899.8
-8676.67
-9243.21
47260.1
-12448.1
46311.4
41781.1
7947.23
-289.135
-10198.9
-11269.1
-6709
-8210.73
-5283.7
-2178.05
-1619.88
147.718
-1469.15
1420.87
1635.53
2417.71
3049.38
1698.61
1567.33
736.229
2355
653.62
668.198
1817.32
793.519
109.68
-130.63
754.451
741.349
2880.2
2730.53
4981.47
4911.27
6503.9
5175.8
7405.36
7604.37
9608.29
11414.8
11468.5
12094.3
14020.7
16198.2
16263.5
17882.1
21171.8
18226
25492
21852.6
25091.2
27298.6
31279.7
37846.3
34414.3
42032.2
36474.2
49647
38293.5
43223
44514
58496.2
61540.8
36751.9
34758
37740.3
29795.3
29266.4
26029
16129.2
11240.5
4687.69
1878.97
663.23
-346.932
-4836.85
-778.846
-2725.12
-380.006
-2807.14
1469.86
-1715.74
636.503
-2375.66
229.407
-2490.13
1553.49
-3176.45
2030.19
87368.5
-217722
-27891.8
37031.5
159999
110852
10263.3
-24219
-65520.7
-72537.8
-37333.5
-4196.88
21326.4
66074.8
74616.9
5691.19
-21581.4
-50768
-48873.6
-25277.8
-7572.27
-1887.14
5678.68
11437.5
21438.1
25898.5
31768.9
44932.6
49620.7
9320.84
-85535
-92400.4
-82531.1
-32546.9
-13978.3
-9371.81
-11048.2
-5010.21
-5022.46
-2316.1
-739.554
1019.55
4373.93
8016.09
9721.05
13423.4
16413.7
16662.7
16290.6
14811.3
13590.8
11839.8
9640.43
9857.93
7260.65
5383.88
3237.49
1261.57
3127.88
1066.73
4190.6
1383.47
3720.37
3493.88
5959.91
6327.03
7521.14
8626.74
9300.77
8619.45
11108.3
9802.69
12945.7
11802.3
15983.5
16731.9
19069.7
17233.6
17278.2
16809.5
19391.1
24050.3
26412.9
32335.9
32002.4
44149.8
24316.3
35515.5
35920.5
30237
38916.1
21288
47825.3
34261.8
27226.7
33934.8
22889.1
31330.2
20010.5
16571.1
10457
7740.17
4821.43
2518.96
1586.47
2090.51
-4231.69
-2043.06
-140.183
-2525.87
2183.21
-1015.86
2316.65
-989.142
1731.91
-1746.87
2643.6
-3833.43
3694.96
-79991.8
202425
17070.2
-29061.8
-131787
-112966
-15818.2
16247.5
57861.7
63672.7
28127.2
-238.195
-13160.4
-35522.5
-45335.1
-8044.33
5200.99
25807.5
32073
14487.2
3227.72
-3156.2
-5724.3
-8660.74
-12298.9
-16599.1
-22402.5
-34198.9
-52364.9
-45000.1
-54504.7
50284.8
54195.8
26228.6
8812.38
1487.89
1086.02
18.4164
2251.5
3115.92
3982.63
4097.26
3232.34
3935.13
2635.32
6503.22
2468.94
1360.09
2063.17
3587.76
4971.18
4961.58
4163.81
4018.52
4702.91
5240.86
5376.86
5278.51
5689.32
3381.45
2154.04
2420.97
3187.88
4360.65
7034.56
8543.23
9155.31
9749
8536.24
8262.73
6455.56
7518.02
7338.87
9179.22
10928.5
13199
14858.4
11416
12886.4
13939.3
17177.2
23732.8
25178
30156.6
28594.6
37175.3
26775.9
36608.2
53529.3
16258.6
26682.6
10150.7
11428
27231.8
20805.1
27119.9
27026.5
28256.5
16585.7
14826.5
9125.97
7633.56
6904.45
3631.3
4051.11
-366.273
2343.48
-3536.69
-1448.17
-2746.62
-3102.7
-1600.67
2701.29
-1029.88
-66.1832
-3519.53
2162.8
-4622.76
3039.62
129936
-173719
-25454.8
17564.2
105164
82101.6
7251.01
-17864.5
-58086.4
-54153
-28866.3
-5079.82
5973.07
18744
27753.9
1614.66
-7497.5
-19692.1
-24713
-12866.5
-4444.55
-118.63
3346.04
2602.6
3627.34
5072.81
6237.42
10803.9
11129.8
-6584.87
-77323.7
-80316.8
-16374.3
-7676.88
-3476.82
-1694.38
-2187.72
-3166.88
-3663.9
-307.306
-2663.36
-550.147
-2031.32
-934.84
-454.422
3199.42
1694.97
1717.21
1586.38
2898.85
3914.94
5307.23
6491.37
7364.58
7824.52
7889.21
7934.53
6951.85
6446.46
5597.86
5322.74
5982.16
5707.02
7217.22
7264.43
8647.03
8973.69
10334
9698.36
10242.8
8428.93
8404.58
6289.06
7067.14
5364.42
7942.79
6840.34
7609.45
7182.15
10218.2
13950.2
18741.5
23025.1
28144.4
28670.2
29839.4
42318.8
34351.8
39599.2
28136.1
16031.8
15696.6
3986.32
15106.5
12366
21730
24960.2
17099.2
14878.9
10274.6
8980.91
12242.2
9991.65
6822.29
5373.59
3545.64
1349.64
1980.23
146.093
-4323.8
215.327
-4182.65
5738.82
-3103.36
1433.05
-3615.12
3494.09
-5709.16
4828.93
-91990.3
145943
14888.3
-14813.5
-68310.9
-57100.9
-9512.83
7330.97
33066.7
33207.9
17308.7
809.54
-4487.59
-12806.3
-12762.7
-4455.1
-1084.09
5598.65
5573.6
2145.21
-288.528
-3692.8
-5056.18
-5578.99
-5019.51
-3721.52
-3263.84
-568.517
1958.81
-1474.26
-71423.1
-494.682
2852.74
2623.86
-3752.53
-3405.59
-3506.27
-614.331
2236.55
2978.35
3558.6
2383.23
3580.89
3321.8
3113.27
11406.5
11178.3
12224.3
12646.7
13655.6
14282.9
13269.1
12851.7
11498
10245.8
8846.08
7710.12
6901.53
6355.77
5474.42
5181.74
6240.39
6760.67
7714.47
8823.92
8658.1
10081
9203.22
10476.9
10243.4
10871.2
11012.2
11286.4
11088.2
10917.4
10019.2
9286.37
8842.33
9751.53
9886.26
14519.5
13301.1
23216.6
16509.1
30742.9
16010.2
9351.19
1559.25
-1053.55
14291
7694.54
14669.3
15559.9
1672.25
6969.98
6743.95
6919.48
8295.22
422.165
8073.16
4337.65
9449.15
6943.05
5483.93
5322.5
3752.48
2810.23
835.907
244.724
-256.864
10.8708
-2488.98
2249.51
-2836.34
1272.89
-2179.55
1444.33
-5292.99
3918.01
143430
-128142
-26073.7
2141.95
35321.9
33924
1508.15
-11193
-29276
-31834.7
-9638.8
-2607.73
-795.005
2950.47
7659.7
2245.91
-2690.97
-4416.31
-4907.74
-3994.63
-3049.6
-1729.15
-1460.25
-1432.34
-2081.32
-1157.59
256.73
-219.301
-1950.14
-6103.56
-54912.7
-36842
3952.02
-1830.89
-3033.28
-1478.93
1600.4
89.2773
1730.02
556.223
2611.16
2395.72
3149.92
2985.64
4065.53
12481.8
12555.1
13388.3
12318.2
10914.4
9736.59
9268.75
9740.19
10437
10113.7
10665.9
10691.9
10837
11679.7
12827.1
14098.1
16020.1
19232.3
20520.5
23461.5
22263.4
23307.1
21757
20253
17789
14880.5
12628.5
9216.56
6691.57
4915.39
2126.32
523.286
-2833.65
-4410.95
-7609.98
-8204
-9012
-9105.69
79.0045
2501.69
7688.61
15598.1
7447.48
2997.95
-8280.56
-5814.93
11048.5
12977.9
13227.4
11837.8
17707.8
13995.2
11277.9
2515.23
-73.1277
1855.62
8756.46
6158.15
4413.88
6147.87
3981.94
3863.22
1883.94
1869.08
-275.514
-732.606
-2788.63
1268.89
-2832.75
2597.3
-3688.56
2035.55
-5717.79
4382.01
-64235.5
89804
9179.79
-7255.71
-26724.8
-15782.9
-4167.08
1660.3
9433.59
10631.7
1264.99
-2423.18
-5572.66
-5819.73
-4332.7
-2977.89
-2383.38
-79.7281
-163.919
-1523.22
-2373.96
-2042.33
-3211.98
-3165.6
-3282.69
-3450.42
-1578.99
628.619
289.212
-4440.5
-24341.2
-44826.7
-5152.93
-3985.68
-2366.92
-4895.06
-2759.21
503.762
2155.52
5178.16
6388.49
9526.2
7789.38
8868.53
8747.69
21200.1
20951.9
24071.8
23264.4
21008.2
18594.4
16574.9
15513.1
15442
16215.5
17050
17312.7
17061.7
16441.9
16244.7
16140.7
16865.2
17986.6
19985.8
21708.6
24160.8
24536.5
24490.6
22274.8
20426.5
18515.4
16697.6
14516.6
12414.5
8848.92
6013.07
1429.73
-2499.05
-7758.38
-11301.6
-15353.3
-17372.9
-17830.6
-15160.9
-11759.9
-2105.24
2111.56
8133.5
5644.96
8745.28
4356.99
62.7289
2545.6
4436.22
5123.2
4563.4
4089.24
3165.32
1568.9
-1442.92
2211.15
6382.8
3158.76
2617.49
4819.28
3153.85
2810.25
1413.23
1362.94
-257.186
144.485
-1183.13
-589.315
-2833.42
2799.64
-2994.56
2003.37
-5655.3
4150.55
92300
-74867.6
-15927.5
-2042.08
8219.55
7244.04
-1182.37
-4055.74
-9244.59
-10999.6
-5890.13
-2099.98
-627.35
-179.348
90.6675
-411.15
-974.229
-1464.82
-1407.78
-2929.73
-3102.82
-2745.32
-3495.16
-3762.94
-3644.62
-3906.1
-4261.49
-4330.07
-3059
-14476.2
905.389
-34447.3
-5114.54
-6724.59
-4426.91
-4250.38
-3149.59
-4822.19
-5033.08
-3559.32
-2616.08
-1991.8
-1182.2
1858.49
2782.94
13231.6
13085.8
16664.5
15885.1
18234
19780.2
20594
20058.6
19535.4
19356.8
19111.8
18468.1
17880.5
16917.4
15860.6
14432.3
13308.3
12485.8
12585
14753.3
15855.8
19537.7
19719
21836
19679.2
17515.7
15694
12828.4
11200.6
9539.9
8042.79
6498.97
4112.11
644.022
-4160.16
-9319.8
-14262.2
-17457.6
-21183.9
-16939.2
-14713
-11194.1
-9943.87
-7458.87
-2200.91
199.479
2324.08
670.64
1009.88
4296.81
2796
5001.61
3614.63
3849.22
-1626.69
9257.15
3207.27
1901.33
3476.37
3848.4
2899.67
2159.86
1402.56
1051.71
-327.119
224.073
-2613.24
1338.09
-5015.47
5110.28
-4187.57
1893.76
-5966.05
4434.49
-4603.9
24335.5
720.291
-6308.83
-8350.35
-6207.72
-2982.13
-1471.27
999.747
45.4873
-1456.93
-2830.64
-4480.3
-3100.66
-2545.94
-1771.3
-951.357
-956.104
-257.639
-1624.4
-2312.51
-2945.76
-3617.38
-4617.51
-4885.61
-5802.68
-6446.61
-8318.64
-6449.98
-19216.9
19158.4
-5614.35
-1100.11
-881.875
-1698.71
-3102.52
-4544.37
-5721.6
-5412.7
-3716.49
-3972.56
-3518.02
-1712.51
1107.71
2164.98
10143.5
10550.9
13483.6
13478
16327.2
17404.8
18611.8
18364.2
17975.5
17438.4
16568.4
15492
14105.3
12685
10892.3
8892.87
6836.68
4857.59
3936.33
4414.91
6746.74
9230.57
13932.4
16653.1
20627.9
17023.3
16570.5
14028.7
12930.7
10235.2
8704.2
6589.76
4864.86
2856.6
455.769
-2952.3
-9027.9
-13659
-18724.2
-19568.4
-23970.5
-18301.9
-14936.1
-11066.8
-6443.5
-2437.66
-333.408
3141.89
1389.52
1604.65
1624.58
1567.24
511.685
3414.47
959.208
9264.26
1902.09
1798.16
4152.87
2409.71
2446.03
1652.18
1131.34
859.955
343.762
-498.2
-920.928
-1037.28
-3796.35
4636.72
-4186.49
1285.53
-5055.47
3834.6
39365.1
-27013.2
-7288.77
-2454.72
451.798
-892.346
-2092.86
-2748.42
-2968.09
-3535.84
-3113.83
-2273.79
-1801.75
-1612.52
-1728.91
-1558.03
-2066.42
-1030.79
-1009.18
-2154.13
-1794.38
-3520.08
-3883.37
-4513.09
-5498.84
-5845.66
-7553.7
-9009.9
-5968.13
4468.12
-8463.38
-2206.75
4296.32
-714.941
340.247
-1565.14
170.78
-2187.05
-1303.65
-2516.81
-3809.66
-3762.46
-1447.03
-320.922
1187.96
5765.7
5951.69
7331.79
7816.32
8964.93
9189.77
10060.2
10585.1
10783.1
10785.1
10563.5
9793.33
9236.56
8258.36
7353.12
6008.74
4476.49
2122.46
-395.061
-1983.27
-1230.97
598.09
3447.35
6072.85
11237.8
17945.8
15211.2
12849.8
9945.57
8640.17
6766.35
5437.48
3832.05
2919.73
1507.86
-267.9
-2744.03
-8539.02
-15343.2
-21642
-29041
-23390.8
-15933.9
-10393.8
-5822.75
-2663.3
-2207.98
-2978.91
-2229.68
-3104.35
-2128.88
-544.034
-911.986
2239.2
2637.2
7760.86
2693.05
1723.04
4201.53
1990.51
2793.4
1767.24
1330.79
1134.15
107.769
279.607
-607.424
-825.949
-1718.53
3117.07
-4035.15
1136.49
-5012.88
3305.04
19121.1
-357.154
-4431.65
-6312.26
-4458.01
-3336.9
-2437.82
-1980.03
-767.395
-1778.79
-2207.41
-2218.92
-2198.47
-2277.76
-2045.53
-1824.28
-962.077
-1079.26
-1816.91
-1760.65
-1994.67
-3021.23
-4187.79
-5432.59
-6114.77
-8108.85
-12691.5
-20564.7
-33017.5
-31491.1
-92.3488
33187
10266.4
11249.2
6532.34
3441.89
67.7252
-835.79
-1169.65
-891.238
-1086.88
443.22
3396.65
6846.31
9485.5
12342.1
12146.3
11396.2
10570
10191.9
9850.87
9862.59
9924.46
10296.3
10543
10318.1
9291.54
7938.58
7139.54
6092.58
4868.62
3670.63
2207.49
-103.718
-3065.79
-4745.52
-5743.5
-2984.84
1296
3098.6
5751.74
11232.8
15186.4
15321.2
13895.6
12453
10171.9
8519.99
6183.57
4235.7
1369.45
-1141.5
-4597.74
-11475.8
-20201.6
-26129.9
-24526
-18673.8
-13965.7
-8201.21
-6107.02
-3959.8
-3790.64
-4089.28
-918.616
-1789.03
-2377.02
-1064.68
1703.75
6847.67
6362.45
4024.26
3781.21
4885.48
2447.82
2524.98
1964.93
1296.12
1169.99
450.879
245.866
-818.68
-1136.06
-1568.84
2873.76
-4025.62
1980.56
-4756.67
2650.2
22363.7
-10803
-4815.92
-2797.98
-2540.53
-2143.3
-2336.47
-2296.33
-2027.11
-2167.6
-1951.35
-1937.55
-1678.31
-1523.04
-1598.34
-1796.69
-1141.57
-1493.16
-1935.08
-1556.91
-2381.34
-2763.8
-3311.97
-3720.69
-4330.17
-5588.63
-6878.88
-7303.94
-2974.49
-7080.59
-26678.7
-8232.52
23488.3
14469.5
11152.1
8837.9
6435.11
3887.58
2843.43
4498.2
8223.96
8689.42
6127.76
4081.75
4249.68
6444.85
5532.33
5063.92
5071.99
4898.84
5382.35
5735.96
7426.63
9233.22
10501.7
10394.9
10206.9
8740.56
7347.44
6576.46
5848.81
4666.33
3676.06
2834.36
1530.03
-997.425
-4154.33
-7649.96
-9289.02
-6287.77
-1330.2
1363.64
4688.08
11375.7
15054
16115.3
13335.6
11438.3
8733.83
6917.37
3331.83
562.339
-3063.41
-7966.29
-15116.7
-20919
-27145.1
-23239.4
-17039.8
-12532.2
-8825.31
-4547.63
-1095.53
-2084.74
-1681.3
-1011.94
-4919.53
-2205.43
4128.32
11358.3
8493.94
8067.94
5940.55
6440.26
3800.71
3262.61
2625.38
1655.88
1702.64
475.076
773.049
-300.632
393.71
-1235.4
1943.33
-3800.54
2110.03
-5282.01
2499.63
16207
-3999.48
-2776.18
-5094.44
-3567.01
-2656.57
-2179.98
-2058.8
-1721.96
-1357.68
-1330.63
-1600.12
-1673.37
-1565.8
-1562.47
-1362.2
-669.046
-1020.1
-1955.23
-2103.17
-2673.03
-2961.32
-2849.59
-2559.68
-1680.72
-498.968
2036.22
6249.64
8879.82
8757.28
-51875.6
-290.765
10503.5
5525.22
17187.1
24418.2
16461.6
12968.7
11199.5
11248.7
17059.3
15763.9
16711.6
17728.6
20292.4
22251.2
22803.9
22160.5
20924.7
19130.9
18554.3
18638.9
18344.1
16623.9
15242.2
14399.7
14233.4
13463.4
11639.8
10043.5
8152.01
6376.26
4459.27
2669.54
760.75
-1209.58
-3232.42
-5232.2
-7564.41
-11203.4
-13224.9
-8180.47
-3376.52
892.511
7550.99
14734.4
19910.9
18582.2
14477
14118.3
7166.19
4135.32
87.6629
-3379.98
-8409.74
-12970.8
-23632.7
-30711
-27974.6
-22853.8
-20029.8
-14493.8
-10188.4
-10165.8
-11562.4
-7395.81
-2361.82
3269.46
9182.84
17612.4
12183.5
11650.5
9514.85
7863.13
5844.61
4529.64
3229.51
2225.69
1786.28
1029.28
1257.74
110.702
841.726
-1785.12
2513.65
-3178.25
2885.4
-5193.31
2169.64
15457.9
-4839.92
-3287.01
-3103.63
-3625.26
-2698.26
-2201.73
-2010.4
-1766.79
-1564.65
-1455.1
-1235.69
-1361.73
-811.223
-1068.87
-619.875
-940.056
-1848.21
-2537.98
-2636.71
-2783.3
-3038.54
-2407.16
-2090.37
-1361.89
29.8619
1491.05
2535.93
2032.77
-3316.49
-56384.2
-20114
509.809
-6589.86
-1899.19
10683.3
6580.77
17752.7
18612
16557.7
14786.7
18247.5
21890.6
22598.1
22660.3
22086
21565.3
23491
24157
23768.8
23167.1
22278.2
22292.3
22801
22778.2
23234.7
23080.7
22885.5
21337.8
19005.7
16181
14052.9
11492.1
8469.66
4807.3
1798.26
-968.533
-2989.42
-4986.92
-7201.2
-10283.4
-12608.3
-11178.1
-7002.53
-3173.36
1480.71
7225.57
14650.4
17976.6
21005.2
13402.1
9832.45
5265.3
1735.9
-1417.42
-7218.07
-13784.2
-23936.8
-29694.9
-29655.7
-22666
-19229.1
-12330.5
-10290.6
-5925.25
-9745.65
-5408.34
1804.71
8847.01
17246.2
18856
15156.3
13736.2
11225.9
9095.01
7097.85
4914.32
3288.74
3078.99
1781.14
1787.95
-200.942
1341.69
-1730.5
2746.12
-2367.92
3517.74
-7190.88
2837.65
12596.5
-3250.81
-2709.59
-3412.72
-3295.55
-2416.66
-2153.07
-2034.52
-1657.67
-1481.77
-1177.49
-1181.81
-1047.95
-558.736
-856.546
-1321.18
-1367.55
-1666.96
-2275.39
-2265.6
-2269.7
-2178.29
-1867.42
-1612.73
-977.46
356.892
763.995
2234.91
1688.22
-2829.61
-43217
-29583.2
-9882.66
-6812.72
-23289.9
-8474.05
-9416.04
-2069.16
5853.35
6572.55
9688.52
15956.9
24889.8
34059.4
42098.5
47417.7
47841
47438.5
48915.9
52392.6
53439.8
53759
53730.1
53630.5
52092.6
49817.5
46493.4
44313.6
43278.9
41797.8
40890.9
39112.3
35896.1
30660.2
23874.3
17277.5
10620.7
4476
-849.971
-3329.79
-4319.94
-5216.1
-6678.06
-8375.37
-7475.4
-3052.41
645.018
7689.83
10541.4
17707.5
17116.8
19743
12377.5
8247.44
4123.83
-588.052
-7837.11
-16736
-24803.2
-24582.8
-17202.1
-12353.4
-6725.9
-6811.44
-10572.2
-8809.75
-2850.15
35.2588
7526.68
14173.4
21230.4
19623.1
17527.7
14522
11250.2
7865.93
5694.44
3318.89
2514.42
1546.96
1441.04
164.391
1133.93
108.471
1224.64
-1419.9
2303.84
-7385.1
3346.18
10721.8
-2730.42
-2351.63
-2739.34
-2739.62
-2681.68
-2018.85
-1734.5
-1581.1
-1512.33
-1281.76
-801.118
-456.903
580.745
709.504
-275.12
-726.692
-1291.47
-1608
-1613.93
-1640.9
-1761.98
-1494.06
-574.911
59.4901
332.18
1438.87
2293.19
-831.078
-4007.92
-23080.5
-40281.4
-20437.4
-13239
-34852.2
-26500.2
-19077.4
-11579.1
-508.564
5831.13
7765.14
9551.78
10353.4
16368.7
25587.7
37732.4
36824.5
37430.1
37551.1
36755.6
37362.1
39883.5
42551.7
44906.2
46399.2
48877.6
49818.2
50409.8
49759.3
50109.7
50879.3
50469.6
48323
44128
38288.5
28993.3
22254.4
17198.7
13991.2
10713.2
9730.04
9935.3
8888.24
7896.76
5058.39
3219.82
4727.16
7599.2
7996.28
10410.4
11566.2
15893.4
17544.4
14118.8
9194.99
4630.84
-1085.83
-6312.07
-14413.2
-23812.8
-32205
-31885.4
-28804.1
-20734.5
-12394.7
-4914.16
-3634.54
-32.0007
5606.06
12438.8
17456.4
19716
19196.2
15077.8
10911
7686.65
5931.72
3744.8
3231.89
2418.89
2225.93
962.287
1345.76
182.968
2187.93
-3009.63
2560.33
-7660.87
4691.88
9158.53
-2302.59
-2106.71
-2384.1
-2386.82
-2264.75
-1920.87
-1806.35
-1559.42
-1078.52
-937.918
-819.176
-327.11
-82.1242
-1076.05
-1525.39
-1987.68
-2087.12
-2124.01
-2060.09
-1755.78
-1653.38
-807.632
-473.073
90.0996
911.433
2226.8
4645.85
5810.04
3708.81
-12969.8
-71862.8
-46250.9
-13956.7
-7781.76
1692.68
5145.04
3723.22
-793.001
-6981.2
-4773.55
-2050.04
-1494.01
635.991
319.526
11327.4
11344.6
11561.7
10497.3
9849.75
9646.28
9873.21
10886.1
16379.6
20973.6
26598.8
34953.4
36748.7
45705.2
52528.6
57077.7
59100.8
63435.4
71645
78781.7
84892
81580.6
75362.5
66775.9
55155.4
43670.6
36709
30296.8
26574.8
24802.1
23963.9
22657
20110.6
17497.6
14142.5
11239.1
7262
8401.45
9094.27
11102.2
10559.5
10510.9
8052.22
1050.16
-6856.27
-16013.9
-18870.8
-19102.5
-14715.9
-9622.75
-9501.31
-3924.38
-968.307
5466.07
9536.88
14225.7
16504.3
19365
14520.7
11011.1
8066.67
5873.12
4475.59
3452.07
2642.45
2596.75
1531.79
1630.9
444.119
1800.85
-5219.85
3388.71
-5727.06
4977.61
7849.11
-2173.66
-1731.53
-2020.22
-2097.66
-1912.14
-1769.92
-1699.1
-1373.31
-1185.9
-676.761
-678.961
-394.446
34.0515
-868.515
-1347.33
-1934.16
-2050.83
-2135.36
-1929.9
-1754.25
-1338.56
-451.044
-450.575
214.088
967.07
2159.61
3150.89
5274.34
5742.42
-7608.89
-64887.6
-47396.1
-18871.9
-5575.82
-7330.55
-14724.2
-13154.2
-3273.53
-3067.99
-653.739
1162.25
2846.12
1038.61
-3355.68
6015.15
5459.95
4320.95
4096.32
6034.48
7770.96
8468.11
11289
9867.51
10890.4
12106.1
18404.8
22918.5
27927
32323.2
36370.9
38894.8
39430.7
42360.1
44752
50607.9
58179
62853.7
65828.1
66547.1
62585.3
54510.7
50072.6
42044.8
33976.9
32734.6
28533.2
26528.7
21643.4
14367.8
10042.2
4629.69
2600.39