/*--------------------------------*- C++ -*----------------------------------*\
| =========                 |                                                 |
| \\      /  F ield         | OpenFOAM: The Open Source CFD Toolbox           |
|  \\    /   O peration     | Version:  2.2.x                                 |
|   \\  /    A nd           | Web:      www.OpenFOAM.org                      |
|    \\/     M anipulation  |                                                 |
\*---------------------------------------------------------------------------*/
FoamFile
{
    version     2.0;
    format      ascii;
    class       surfaceScalarField;
    location    "2.95";
    object      cfmax;
}
// * * * * * * * * * * * * * * * * * * * * * * * * * * * * * * * * * * * * * //

dimensions      [0 3 -1 0 0 0 0];

internalField   nonuniform List<scalar> 
28084
(
0.00116445
0.001191
0.00120685
0.00121321
0.00121545
0.00122179
0.00123394
0.00123764
0.00124249
0.00124556
0.00124221
0.0012432
0.00125644
0.00127858
0.00130333
0.0013351
0.00137817
0.0014312
0.0011787
0.00107992
0.00112408
0.00116065
0.00119496
0.00122441
0.00124646
0.00126234
0.00127272
0.00127708
0.0012827
0.00128791
0.00129488
0.00130266
0.00131165
0.00131572
0.00131366
0.00130221
0.00128065
0.00125473
0.00123012
0.00120338
0.00117093
0.00113587
0.00111076
0.00108835
0.00106968
0.00106908
0.0010594
0.00105659
0.00106119
0.00106359
0.00104741
0.00103285
0.00101664
0.00100123
0.000987648
0.000979157
0.000975592
0.000975032
0.000978247
0.000986335
0.000995741
0.00100506
0.00101388
0.00102305
0.00103146
0.00103992
0.00104966
0.00106131
0.00107435
0.0010875
0.00110214
0.00111686
0.00113198
0.00115179
0.00117312
0.00119446
0.00121349
0.00122974
0.00123839
0.00124092
0.00122546
0.00119953
0.00116667
0.00113029
0.00109022
0.00104345
0.00100348
0.000968308
0.000939787
0.00091634
0.000900231
0.000884732
0.000870868
0.000861845
0.000853936
0.000846457
0.000839357
0.000830532
0.000824615
0.000817984
0.000813315
0.000808606
0.000803193
0.000796929
0.00079017
0.000782922
0.000775006
0.000766326
0.000756122
0.00075022
0.000746164
0.000741838
0.000733444
0.000727023
0.000722686
0.00072374
0.000731245
0.000749529
0.00339431
0.00347864
0.00129253
0.00350346
0.00122207
0.00350834
0.00121571
0.00350549
0.0012527
0.00347814
0.00125362
0.00341758
0.00124758
0.00335893
0.00123198
0.00332893
0.00122958
0.00329334
0.00124378
0.00323568
0.00125072
0.00316613
0.00125639
0.00307695
0.00125217
0.00298812
0.00124646
0.00291426
0.00124816
0.00283155
0.00125169
0.00280574
0.00126207
0.0027764
0.00129567
0.00275385
0.00134842
0.0021587
0.00103651
0.00197412
0.000837298
0.00186485
0.000793134
0.00177124
0.000780336
0.00167557
0.000776947
0.00158483
0.000768125
0.00150675
0.000758854
0.00143091
0.000748264
0.00135678
0.000743595
0.00128542
0.000743875
0.00121977
0.000746372
0.00116217
0.000753275
0.00110921
0.000760121
0.00105717
0.000767718
0.0010039
0.000772346
0.000952788
0.000774892
0.00090409
0.000778651
0.000859896
0.000783838
0.000819566
0.000789926
0.000778858
0.000796068
0.000737487
0.000799501
0.000700604
0.000801424
0.000666205
0.000802605
0.000633928
0.000804727
0.000600207
0.00080611
0.000568394
0.000806366
0.000568033
0.000806529
0.00056801
0.0008161
0.000567753
0.000825333
0.000566761
0.000836778
0.000567569
0.000850319
0.000573874
0.000866523
0.000581452
0.00088657
0.000590768
0.000908218
0.000594575
0.000929105
0.000592624
0.000947132
0.000587954
0.0009636
0.000583856
0.000977562
0.000580506
0.000990641
0.000580228
0.0010026
0.000580166
0.00101547
0.000581725
0.00102719
0.000583705
0.00103731
0.000585962
0.00104821
0.000587982
0.00105768
0.000590005
0.00106725
0.00059191
0.00107522
0.000594416
0.00108086
0.000597687
0.00108423
0.000600936
0.00108562
0.000603877
0.00108737
0.000611279
0.00109039
0.000619805
0.00109258
0.000629211
0.00109467
0.000637
0.00109401
0.000641653
0.00108905
0.000643624
0.00108063
0.000642602
0.00106844
0.000637838
0.00105322
0.000631151
0.00103516
0.000623377
0.00101562
0.000623737
0.000997038
0.000625376
0.00097851
0.000626484
0.000961018
0.000625714
0.000942832
0.000625689
0.000923469
0.000625315
0.000904375
0.00061891
0.000884362
0.000614696
0.000866118
0.000607251
0.000848233
0.000601829
0.000831133
0.000594676
0.000815902
0.000591204
0.000800379
0.000589355
0.000782749
0.000588752
0.000764817
0.000589748
0.000747274
0.000592011
0.000733236
0.000594368
0.000720769
0.000598111
0.000711235
0.000601826
0.000704916
0.000604885
0.000700351
0.000606966
0.000697437
0.000609908
0.000695284
0.000613541
0.000692589
0.000617937
0.000689431
0.000623127
0.000685853
0.000628412
0.000682358
0.000632573
0.000678583
0.000636027
0.000674618
0.00063891
0.000671634
0.00064079
0.000668979
0.000644403
0.00066858
0.000649481
0.000669424
0.000657236
0.000671403
0.000661627
0.000673897
0.000667149
0.000679994
0.0006684
0.000688064
0.000670476
0.000697468
0.000668307
0.000709611
0.000706539
0.000726506
0.00306132
0.0034991
0.00106345
0.00350584
0.0012444
0.00342661
0.00123486
0.00339648
0.00118007
0.0033616
0.00120032
0.00335423
0.00121863
0.00336942
0.0012707
0.00331801
0.00130146
0.00327234
0.00131272
0.00322999
0.00132284
0.00316541
0.00133395
0.00308291
0.00134867
0.00298724
0.00137201
0.00293298
0.0014303
0.00283832
0.00148987
0.00281543
0.00154128
0.0027911
0.00156542
0.00276699
0.00146539
0.00194281
0.000930941
0.00177117
0.000755698
0.0016427
0.000703186
0.00155707
0.000691746
0.00148043
0.000691337
0.0014049
0.000688727
0.00133515
0.000685135
0.00126708
0.000682809
0.00120892
0.00068444
0.00115786
0.000690083
0.00111016
0.000700222
0.00105956
0.000713987
0.00101401
0.000727937
0.000969037
0.00073978
0.000922647
0.000749719
0.000876913
0.000758044
0.00083533
0.000765397
0.000794198
0.000772497
0.000755268
0.000779807
0.000716312
0.000786748
0.000677543
0.000793533
0.000642217
0.000800833
0.000607213
0.00080753
0.000575109
0.000811629
0.000543241
0.000814124
0.000512335
0.000815403
0.000515659
0.000816072
0.00051768
0.000825885
0.000519699
0.000835859
0.000521745
0.000846448
0.000524243
0.0008575
0.000526422
0.00086873
0.000527905
0.00088016
0.000528106
0.0008921
0.000527049
0.000904387
0.000526391
0.00091712
0.000526685
0.000929611
0.000529005
0.00094199
0.000532132
0.000954623
0.000536253
0.000967553
0.000540288
0.000980939
0.000544063
0.000994489
0.000547426
0.00100764
0.000550915
0.00102019
0.000554904
0.00103208
0.000558395
0.00104311
0.00056153
0.0010535
0.000564914
0.00106372
0.000569669
0.00107301
0.000575659
0.0010815
0.000582914
0.00108464
0.000587221
0.00108007
0.000587863
0.00106895
0.000583298
0.00105411
0.000576774
0.00103766
0.000572298
0.00101812
0.000567291
0.000999335
0.000562188
0.000982741
0.000564252
0.000965778
0.000567251
0.000948875
0.000566867
0.000928941
0.00056979
0.000908795
0.000571999
0.000888025
0.000576596
0.000868956
0.000580602
0.000849601
0.00058509
0.000832282
0.000588161
0.000814298
0.000585529
0.000796574
0.000584882
0.000777091
0.000579878
0.000758488
0.000576212
0.000737621
0.000571333
0.000715161
0.000571692
0.000695758
0.000571107
0.000677566
0.000569617
0.000662266
0.000568275
0.000650836
0.000568934
0.000640883
0.000570095
0.000632733
0.000574621
0.000627761
0.000579061
0.00062412
0.000583567
0.000621787
0.0005874
0.000621016
0.000592705
0.000621468
0.000598228
0.000621368
0.000604672
0.000620381
0.000610937
0.000618868
0.000618113
0.000617487
0.000624388
0.000616223
0.000630185
0.000615464
0.000635768
0.000615721
0.000639826
0.000616996
0.00064572
0.000619368
0.0006517
0.00062233
0.000662416
0.000628194
0.000669787
0.000635932
0.00067681
0.000648263
0.000679383
0.000663079
0.000682547
0.000679286
0.000676905
0.000696713
0.000722763
0.000715298
0.00303011
0.00347671
0.00132984
0.00355708
0.00125806
0.00347677
0.00127355
0.00338152
0.00136233
0.00336168
0.00135005
0.00336875
0.00133788
0.00337663
0.00130822
0.00333584
0.00130394
0.00331396
0.00132917
0.00328183
0.00135514
0.00325443
0.00137801
0.00322536
0.00140103
0.00314156
0.00140817
0.00310315
0.00140569
0.00309564
0.0014124
0.00297748
0.00143415
0.00275085
0.00142419
0.00219719
0.00135689
0.00177849
0.000754608
0.00165892
0.000672811
0.00154401
0.000657341
0.00146813
0.000657199
0.00140745
0.000663353
0.00135019
0.000669652
0.00128814
0.000674387
0.00122575
0.000679039
0.0011784
0.00068602
0.00113593
0.000695719
0.00109528
0.000709267
0.00105054
0.000726041
0.0010054
0.000743604
0.000963433
0.000762617
0.000925168
0.000783331
0.00088511
0.000805072
0.000843165
0.000826064
0.000801125
0.000844897
0.00076042
0.000861243
0.000721048
0.000875161
0.000683722
0.000887588
0.000648038
0.000899608
0.000611465
0.000911385
0.000578863
0.000921634
0.0005472
0.000929422
0.000515774
0.000935137
0.000523106
0.00093997
0.000524501
0.000953101
0.000526043
0.000966994
0.000527365
0.000981025
0.00052884
0.000995164
0.000530478
0.00100906
0.000531881
0.001022
0.000532411
0.00103467
0.000531777
0.00104659
0.000531009
0.00105858
0.000531531
0.00107093
0.000533853
0.00108293
0.000537206
0.00109343
0.000541337
0.00110408
0.000546192
0.00111349
0.000550971
0.00112178
0.000554828
0.00112917
0.00055817
0.00113484
0.000560444
0.00113781
0.000562285
0.00113867
0.000566535
0.00113817
0.000571058
0.00113692
0.000577219
0.00113259
0.000580467
0.00112341
0.00057701
0.00111235
0.000572652
0.00109938
0.000568303
0.00108721
0.000569843
0.00107465
0.000573891
0.00106334
0.000570827
0.00105008
0.000567787
0.00103553
0.000570042
0.00101751
0.000572524
0.000994224
0.000575718
0.000973414
0.000576357
0.000952145
0.00058024
0.00093072
0.00058173
0.000907865
0.000586272
0.000884663
0.000587455
0.000860544
0.000592109
0.000837595
0.00059559
0.000816759
0.000594316
0.000796293
0.000595469
0.000775392
0.000589681
0.000753685
0.000587285
0.000729835
0.000579484
0.000704933
0.00057845
0.000683187
0.000575753
0.000663829
0.000573413
0.0006486
0.000572428
0.000637012
0.000572179
0.000626784
0.000573453
0.000619898
0.000577459
0.000615322
0.000580901
0.000611519
0.000585317
0.000609374
0.00059005
0.000608584
0.000597417
0.000609088
0.000604997
0.000608762
0.000612182
0.000607078
0.000618396
0.000604588
0.000624882
0.000602359
0.000630257
0.000600699
0.000635703
0.000600043
0.000641688
0.000600352
0.000647031
0.000602108
0.000653486
0.000605494
0.00065843
0.000610086
0.000668695
0.000620201
0.000675335
0.000633129
0.00068186
0.0006462
0.00068497
0.000660339
0.000688167
0.000675534
0.000683113
0.000693518
0.000728351
0.000715411
0.00298454
0.00355172
0.00105773
0.00354395
0.00128677
0.00342905
0.00128089
0.00329673
0.00118434
0.00327477
0.00119329
0.00326139
0.00124083
0.00325782
0.00130338
0.00325057
0.00133799
0.00324008
0.00135476
0.00320009
0.0013617
0.00315138
0.00136905
0.00310806
0.0013775
0.0030678
0.00139737
0.00300357
0.00142026
0.00291632
0.00143228
0.0028492
0.00145301
0.0027517
0.00149922
0.00212481
0.00156511
0.00184503
0.000940723
0.00170495
0.000819883
0.00159803
0.00081856
0.00151583
0.000826193
0.00145262
0.000828656
0.00138751
0.000828453
0.00132054
0.000822904
0.00126181
0.000814378
0.00121404
0.000807397
0.0011713
0.000808679
0.00112922
0.000815596
0.00108202
0.00082622
0.00103671
0.000840014
0.000996262
0.000855205
0.000959399
0.000871728
0.000923389
0.000890515
0.000888423
0.000909898
0.000848465
0.000926472
0.000806225
0.000941702
0.000765924
0.00095554
0.000728238
0.000967942
0.000689131
0.000979233
0.000649671
0.000989119
0.000612668
0.000998503
0.000577835
0.0010065
0.00054554
0.00101245
0.000562927
0.00101621
0.000567024
0.00102919
0.000570736
0.00104372
0.000573712
0.00105715
0.000576451
0.0010701
0.000578521
0.00108263
0.000579758
0.00109476
0.000580217
0.00110652
0.000580169
0.00111825
0.000580897
0.00113125
0.000582878
0.00114537
0.000585766
0.0011598
0.00058904
0.00117305
0.00059203
0.00118482
0.000594827
0.00119572
0.00059669
0.0012059
0.000597742
0.00121555
0.000595723
0.00122497
0.00059446
0.00123375
0.000593106
0.00124269
0.000592431
0.00125026
0.000590373
0.00125675
0.000585994
0.00126042
0.000582392
0.00126175
0.000579859
0.00126227
0.000577403
0.00126025
0.000577779
0.00125095
0.000578178
0.0012362
0.000583819
0.00121326
0.0005848
0.00118807
0.0005873
0.00115961
0.000589471
0.00112899
0.00058913
0.00109666
0.00059331
0.00106507
0.000593922
0.00103315
0.000599546
0.00100145
0.000600655
0.000970502
0.000606112
0.00094092
0.000605045
0.000911896
0.000609777
0.00088243
0.000612175
0.00085706
0.000609404
0.000830851
0.000611502
0.000804631
0.000604667
0.000778654
0.000603258
0.000750908
0.000594955
0.000722843
0.000593762
0.000698621
0.000587589
0.000677855
0.000581588
0.000662123
0.000577748
0.000650724
0.000576142
0.00064221
0.000577382
0.000636298
0.000581877
0.000631522
0.000585734
0.000627748
0.000590555
0.000625681
0.000596295
0.000624867
0.000604345
0.000626011
0.000612239
0.000625447
0.000619501
0.00062326
0.000624942
0.000619831
0.000630748
0.000615723
0.000635838
0.000612267
0.000641516
0.000610103
0.000647478
0.000608549
0.000652223
0.000608403
0.000658907
0.00061075
0.000663081
0.000619305
0.000673045
0.000629475
0.000678342
0.000641208
0.0006849
0.00065313
0.000686474
0.000665883
0.000691258
0.000680348
0.000690338
0.000697773
0.000731214
0.000718058
0.00291736
0.00355412
0.0013632
0.00358749
0.00129856
0.00350852
0.00132964
0.00325838
0.00147004
0.00326235
0.00144314
0.00327512
0.00142927
0.00328573
0.00139956
0.00326054
0.00140751
0.00324548
0.00144078
0.00319386
0.00148826
0.00313956
0.00153513
0.00310135
0.00157271
0.00307828
0.00160531
0.00303121
0.00163888
0.00297579
0.00168639
0.00294454
0.00175584
0.00292572
0.00184588
0.00273781
0.00184265
0.00199491
0.0013037
0.00185644
0.000989377
0.00172879
0.000972944
0.00166045
0.000981009
0.00157478
0.000977109
0.00149189
0.000954068
0.00140824
0.000932465
0.00131899
0.000916725
0.00126924
0.000909195
0.00122882
0.000915817
0.00118464
0.000929328
0.00113498
0.000943205
0.00108539
0.000957835
0.00103827
0.000973039
0.000994483
0.000987897
0.000950925
0.00100385
0.000905396
0.00102077
0.000860256
0.00103873
0.00081659
0.00105787
0.000774478
0.00107519
0.000734545
0.00108973
0.000695922
0.0011015
0.000656575
0.0011104
0.000618046
0.00111661
0.000580327
0.00112135
0.000547424
0.00112551
0.000569378
0.0011299
0.000573525
0.00114096
0.000577117
0.00115537
0.000579698
0.0011682
0.00058199
0.00118033
0.000583378
0.00119183
0.00058409
0.00120272
0.000584242
0.0012136
0.000584317
0.00122476
0.000585655
0.00123689
0.000587288
0.00125
0.00058931
0.00126299
0.000591508
0.00127568
0.000593463
0.00128691
0.000595637
0.00129655
0.000596997
0.00130433
0.000597833
0.00131086
0.000598194
0.00131692
0.000600732
0.00132304
0.000603274
0.00132967
0.000605546
0.00133586
0.00060708
0.00134124
0.000609196
0.00134599
0.000615663
0.00134923
0.00062283
0.00135031
0.000627459
0.00134705
0.000633733
0.00134203
0.000635688
0.0013345
0.000638798
0.00132205
0.000636332
0.00130668
0.000636751
0.0012843
0.000637163
0.00125875
0.000635584
0.00122759
0.000638132
0.00119168
0.00063476
0.00115287
0.000638122
0.0011115
0.000636328
0.00107138
0.000641003
0.00103392
0.000635694
0.000998415
0.000637987
0.000962407
0.000638811
0.000931574
0.000632665
0.000898358
0.000633713
0.000865019
0.000624713
0.000831374
0.000623547
0.000797037
0.000613838
0.000762932
0.000610254
0.000732214
0.000598221
0.000705664
0.000588603
0.000685021
0.000582188
0.000671485
0.000579626
0.000662727
0.000580234
0.000656562
0.000584123
0.000652074
0.00058823
0.000650076
0.000594072
0.000650363
0.000601105
0.000652303
0.000611704
0.000655229
0.0006211
0.000657589
0.000628421
0.000657889
0.000632744
0.000654686
0.000637341
0.000647825
0.000641483
0.000638165
0.000646952
0.00062995
0.000652583
0.000623616
0.000656218
0.000620265
0.000663466
0.000620098
0.000666833
0.000625808
0.000676655
0.000635545
0.000680769
0.00064689
0.000687513
0.000657846
0.000688963
0.00067054
0.000695498
0.000684696
0.000700757
0.000703401
0.000733856
0.000720456
0.00297153
0.00361792
0.0010837
0.00355962
0.00135554
0.00345937
0.00133665
0.00327869
0.00120445
0.00327114
0.00122124
0.00325208
0.00129243
0.00323326
0.00136113
0.00321847
0.00139153
0.00320833
0.0014126
0.00316882
0.00142391
0.00311483
0.00142194
0.00309669
0.00143376
0.00308679
0.00145401
0.00305038
0.00148015
0.0029964
0.00149905
0.00294762
0.00149629
0.00284925
0.00150603
0.00267816
0.00154213
0.00221348
0.00156663
0.00192147
0.00113068
0.00179006
0.00115284
0.00173311
0.00117756
0.00162977
0.00119159
0.00153314
0.00118368
0.00144002
0.00117905
0.00133762
0.00118364
0.00128515
0.00118932
0.00125694
0.00119173
0.00121683
0.00118936
0.00116882
0.00118837
0.00111966
0.00118993
0.00107148
0.00119181
0.00102721
0.00119524
0.000983709
0.00119835
0.000941438
0.00120296
0.000901609
0.00120855
0.000862243
0.00121498
0.000823861
0.00122241
0.000786423
0.00122906
0.000745012
0.0012348
0.000701899
0.00123991
0.000660203
0.00124719
0.000620527
0.00125679
0.000585325
0.00126811
0.000612679
0.00127792
0.000618669
0.00129799
0.000623029
0.00131838
0.000625506
0.00133456
0.000627435
0.00134962
0.000628559
0.00136351
0.000629121
0.00137639
0.000629524
0.00138897
0.000630197
0.00140168
0.00063184
0.00141512
0.000633299
0.00142924
0.000634785
0.00144348
0.000635985
0.00145804
0.000636654
0.0014725
0.000637011
0.00148634
0.000636744
0.0014989
0.000636304
0.00151011
0.000635727
0.00151975
0.000635437
0.00152833
0.000634526
0.00153219
0.000633198
0.00153298
0.000630929
0.00153294
0.000631141
0.00152886
0.000637415
0.00152654
0.000644467
0.00151763
0.000649973
0.00150945
0.000660948
0.00150092
0.00066938
0.0014936
0.000679586
0.00148241
0.000689047
0.00147071
0.000695023
0.0014557
0.000703366
0.00143568
0.000701477
0.00141028
0.000703787
0.00137173
0.000696249
0.0013305
0.000695688
0.00128017
0.000687824
0.00122866
0.0006889
0.00117796
0.000679383
0.00112854
0.000679607
0.00108203
0.00067969
0.00104024
0.000669618
0.000995385
0.000668501
0.000948447
0.000655132
0.000902661
0.00065201
0.000858289
0.000639258
0.000815124
0.000630834
0.000776321
0.000612792
0.000740801
0.000597456
0.00071272
0.000587071
0.000695915
0.000581778
0.000685624
0.000580578
0.000679374
0.000583153
0.000676348
0.000586631
0.000675771
0.000592378
0.000676453
0.000600991
0.000677944
0.000614002
0.000679637
0.000628208
0.000681495
0.00064043
0.000683534
0.00064957
0.000683785
0.000654333
0.000680448
0.000654301
0.000672374
0.000656513
0.000660558
0.000659948
0.000647723
0.00066211
0.00063983
0.000668541
0.000635535
0.000671289
0.000635297
0.000680975
0.000639219
0.000683592
0.000648775
0.000690996
0.000659584
0.000692773
0.000673006
0.000702212
0.000688692
0.000709853
0.000709939
0.000736558
0.000722316
0.00287042
0.00367805
0.0014124
0.00353488
0.00134103
0.00349304
0.00136831
0.00322409
0.00154318
0.00323223
0.0015201
0.00324825
0.00150598
0.0032484
0.00148966
0.00321941
0.00151161
0.00319974
0.00155152
0.0031432
0.00161175
0.00307927
0.00166548
0.00305579
0.00172015
0.00304431
0.00177182
0.00300241
0.00182644
0.00291084
0.00192617
0.00281441
0.00206862
0.00269406
0.00224617
0.00269775
0.00242604
0.00237627
0.00208577
0.00207712
0.00137208
0.00189636
0.00122881
0.0018565
0.00123769
0.00182569
0.00127703
0.00178208
0.00130114
0.00172091
0.00133165
0.00164499
0.00135735
0.00158057
0.00137026
0.00152135
0.00136704
0.00145366
0.0013579
0.00138728
0.00137287
0.00131864
0.00138808
0.00125128
0.0014043
0.00118327
0.00141718
0.00111586
0.0014225
0.00105359
0.00142263
0.000992951
0.00142168
0.000935392
0.00142236
0.000879446
0.00142353
0.000827624
0.00142643
0.000777694
0.00143058
0.00073365
0.00143861
0.000694703
0.00144871
0.00065927
0.00145903
0.000623433
0.00146899
0.000664373
0.00148572
0.000674259
0.00150955
0.00068115
0.00153363
0.000686473
0.00155534
0.00068959
0.00157579
0.000690906
0.00159429
0.000691703
0.00161146
0.000692426
0.00162782
0.000693146
0.00164313
0.000694391
0.00165753
0.000695421
0.00167045
0.000696187
0.00168226
0.000697061
0.00169372
0.000697563
0.00170523
0.000697913
0.00171592
0.000697724
0.00172716
0.000696849
0.00173716
0.000694669
0.00174576
0.000691366
0.00174969
0.000686247
0.00175288
0.000680331
0.00175321
0.00067373
0.00175101
0.000675598
0.00174939
0.000681293
0.001749
0.000683914
0.00175008
0.000691935
0.00174493
0.000700898
0.00173673
0.000715881
0.00173142
0.000726632
0.00172025
0.000747218
0.00170409
0.000758757
0.0016895
0.000779161
0.00166514
0.000782816
0.00164004
0.000792417
0.00160236
0.000785675
0.00155894
0.0007842
0.00149873
0.000767749
0.00143132
0.000763746
0.00135867
0.00074423
0.00128509
0.000741471
0.00121627
0.000740363
0.00115812
0.000724013
0.0010975
0.000719502
0.00103828
0.000698803
0.00098522
0.000690112
0.000932955
0.000671672
0.000884497
0.000656923
0.000836199
0.000631077
0.000787755
0.00060891
0.000746953
0.00059372
0.000722919
0.000584681
0.000709946
0.000580252
0.000702797
0.000582528
0.00069879
0.000589196
0.000697861
0.000592865
0.000698369
0.000598507
0.000698498
0.000612025
0.000697984
0.000627026
0.000698655
0.000643555
0.000700548
0.000659006
0.00070339
0.000670519
0.000705306
0.000675281
0.000704311
0.000674378
0.000698013
0.000672243
0.000687545
0.00067174
0.000673939
0.000675909
0.000662573
0.000676594
0.00065662
0.000686233
0.000656809
0.000687734
0.000659568
0.000696182
0.000667297
0.000699834
0.000676949
0.000712569
0.000692754
0.000718797
0.000714093
0.000740445
0.000723936
0.00297599
0.00366356
0.00111601
0.00354191
0.0014352
0.00354187
0.00142389
0.0033942
0.00129104
0.0033216
0.00131169
0.00331364
0.00137829
0.00331126
0.00146217
0.00329934
0.00150323
0.00328971
0.00153038
0.00328002
0.00155123
0.00325055
0.00156938
0.00325251
0.00159436
0.00324653
0.00163179
0.0032416
0.00166475
0.00320642
0.00169725
0.00310696
0.00170686
0.00313145
0.00168403
0.00282937
0.00170983
0.00210149
0.00169179
0.00213728
0.00135395
0.0019195
0.00146518
0.00188271
0.00158463
0.00185631
0.00170603
0.00181959
0.00176442
0.00176579
0.00179672
0.00170443
0.00180201
0.00166254
0.00175448
0.00160357
0.00169939
0.00155248
0.00164682
0.00149911
0.00161428
0.00143868
0.00159836
0.00136463
0.00158442
0.00128903
0.00158976
0.00121316
0.00159468
0.00114417
0.00160021
0.00107923
0.00160652
0.00101902
0.00161498
0.000963197
0.00162859
0.000910601
0.00164095
0.000861569
0.00165356
0.000817047
0.00167113
0.000773996
0.00168826
0.000731657
0.00170176
0.00069319
0.00171351
0.000741952
0.0017252
0.000749125
0.00173859
0.000754993
0.00175999
0.000761279
0.00178037
0.00076623
0.0018014
0.000769566
0.00182068
0.000772623
0.0018399
0.000774997
0.00185801
0.000776287
0.0018729
0.000777247
0.00188419
0.000777035
0.00189369
0.000776156
0.001901
0.000775192
0.00190609
0.000773563
0.00191254
0.000772313
0.00191958
0.000770412
0.00192526
0.000767901
0.00193035
0.000764015
0.00193573
0.000759182
0.0019379
0.000754351
0.00193968
0.000747695
0.00193894
0.000745345
0.00193908
0.000750286
0.00193759
0.000757855
0.0019346
0.000766983
0.00193318
0.000773444
0.00193291
0.000784499
0.00193126
0.000798107
0.00192915
0.00080678
0.00192128
0.000823531
0.00190564
0.000835645
0.00189441
0.00085227
0.0018741
0.000861415
0.00185893
0.000877182
0.00182128
0.000877259
0.00178305
0.000885409
0.00171982
0.000868521
0.00164986
0.000866142
0.00157058
0.000835203
0.0014911
0.000826246
0.00139764
0.000820574
0.00133093
0.000795715
0.00126108
0.000782654
0.00119021
0.000754597
0.00112414
0.000739984
0.00106221
0.000716079
0.000994913
0.000692916
0.000923425
0.000657956
0.000854116
0.000626488
0.000792508
0.00060356
0.000758917
0.000589133
0.000742551
0.000581493
0.000733572
0.000590171
0.000727469
0.000597221
0.000723507
0.000599973
0.000720279
0.000597962
0.000717025
0.000610307
0.000714375
0.000625895
0.000714726
0.00064266
0.000717474
0.000659895
0.00072168
0.000677239
0.000725978
0.000689522
0.000729646
0.000695853
0.000730689
0.000695001
0.000726819
0.000690162
0.000717525
0.00068909
0.000702146
0.000686568
0.000689117
0.000694475
0.00068105
0.000694708
0.000677555
0.000704011
0.000680738
0.000710246
0.00068745
0.000724078
0.000703265
0.000728528
0.000716096
0.000746174
0.000725979
0.00285134
0.00377784
0.00148204
0.00355665
0.00140194
0.00350767
0.00143537
0.00330123
0.0016126
0.00328078
0.00160206
0.00330974
0.0015925
0.00332233
0.00157819
0.00330022
0.00160035
0.00326781
0.00164702
0.00325857
0.00170061
0.00321933
0.00175802
0.00321821
0.00182782
0.00321443
0.0018947
0.00318324
0.00198598
0.0030807
0.00213569
0.00289361
0.00235272
0.00281912
0.00264707
0.00255175
0.00302062
0.00215717
0.0032314
0.00217959
0.00259812
0.00233805
0.00222811
0.00239192
0.00210378
0.00242347
0.00204414
0.00229967
0.00202244
0.00211505
0.00200204
0.00192188
0.00194223
0.00171768
0.00182809
0.00159398
0.0017163
0.00150408
0.00166053
0.00142608
0.00163133
0.00135184
0.00160747
0.00130071
0.0016029
0.00125298
0.00161766
0.00120685
0.00163858
0.00116025
0.00167137
0.00111234
0.00169726
0.00106267
0.00172162
0.00101096
0.00174595
0.000962246
0.00177001
0.000915686
0.00179382
0.000872752
0.00182849
0.000830275
0.00186089
0.000788166
0.00189697
0.000746772
0.00192815
0.000802392
0.00195242
0.000809849
0.0019803
0.00081499
0.00201087
0.000820555
0.00203334
0.000823866
0.00205224
0.000825845
0.00206747
0.000827673
0.00208069
0.000828125
0.00209231
0.000826568
0.00209916
0.000825436
0.00210159
0.000823506
0.00210395
0.000820951
0.002107
0.000818348
0.00210606
0.000815917
0.00210678
0.000813404
0.00210812
0.000809945
0.00211119
0.000806173
0.00211411
0.000801278
0.00211739
0.000795804
0.00212175
0.000789862
0.00212259
0.000783209
0.00212031
0.000784331
0.00210594
0.000788865
0.00209556
0.000796251
0.00208198
0.000805282
0.00207156
0.000818147
0.00206113
0.000830136
0.00205332
0.000849233
0.00204195
0.000864787
0.00204145
0.000892922
0.00204108
0.000906566
0.00204536
0.000935644
0.00203893
0.000944974
0.0020255
0.000972027
0.00199312
0.00097499
0.00196227
0.000989412
0.00191341
0.000968153
0.00184652
0.00097059
0.0017669
0.000940268
0.00169616
0.00092066
0.00159592
0.000919689
0.00152219
0.000892055
0.00143891
0.000873858
0.00135949
0.000837965
0.0012734
0.000818573
0.00119259
0.000787163
0.00110383
0.000747841
0.0010164
0.00070022
0.000933799
0.000651657
0.00085892
0.000616753
0.000812059
0.00059615
0.000787005
0.000585683
0.000772076
0.000595661
0.000762569
0.000603919
0.000754885
0.00060739
0.000749168
0.000604683
0.000745275
0.000609416
0.00074353
0.000623034
0.000742864
0.000639408
0.000742142
0.000659222
0.000743858
0.00067807
0.000746349
0.000694179
0.000748417
0.000707718
0.000750747
0.000715498
0.000750927
0.000717182
0.000746863
0.000712208
0.000736625
0.000705447
0.000722236
0.000708613
0.00070656
0.0007064
0.000697773
0.000715626
0.000696615
0.000721478
0.00069944
0.000735007
0.000711356
0.00073916
0.000721121
0.000754394
0.000728618
0.00297439
0.00374145
0.00115196
0.00358761
0.00154421
0.00368904
0.00154576
0.00356967
0.00143224
0.00345274
0.00145516
0.00345229
0.0015168
0.00347239
0.00159908
0.00347211
0.00165923
0.00346198
0.00170113
0.00345615
0.00173576
0.00344429
0.00176877
0.00344952
0.0018084
0.00345951
0.0018568
0.00346964
0.00189976
0.00343926
0.001953
0.00345817
0.0020205
0.00363632
0.00220397
0.00394779
0.00238786
0.00356911
0.00252857
0.00308886
0.00217757
0.0028451
0.0022548
0.00266018
0.00232482
0.00247483
0.00229383
0.00231446
0.00230832
0.00212398
0.00234498
0.00192655
0.00236287
0.00171065
0.00229138
0.00158246
0.00221981
0.00151201
0.0021925
0.00144839
0.00218005
0.00138084
0.00216878
0.00132317
0.00213558
0.00126735
0.00204047
0.00121842
0.00199569
0.00116683
0.00197275
0.00111869
0.00196647
0.00106886
0.00196804
0.00102135
0.00197549
0.000976773
0.00199594
0.000936925
0.00202138
0.000899923
0.00204688
0.000862484
0.00207664
0.00082505
0.00210561
0.00078265
0.00212981
0.000849648
0.00214341
0.000860762
0.00214898
0.000864216
0.00216368
0.000865928
0.00217334
0.000866488
0.00218006
0.000866207
0.00219125
0.000864321
0.0022007
0.000862882
0.00220415
0.000860547
0.00221097
0.000857877
0.00221965
0.000855758
0.00222466
0.000853109
0.00223009
0.00085056
0.00223221
0.000847231
0.00223473
0.00084351
0.00223044
0.000839382
0.00222526
0.000834384
0.00222042
0.00082906
0.00221642
0.00082191
0.0022112
0.00081536
0.00220088
0.000806536
0.00219144
0.000811328
0.00218093
0.000813378
0.00216146
0.000822725
0.00214835
0.000831798
0.00214371
0.000846777
0.00214101
0.000857502
0.00214139
0.000881516
0.00213841
0.000902113
0.00214313
0.000934084
0.00213779
0.000954535
0.00214287
0.000992253
0.00213885
0.001012
0.00214602
0.00104909
0.00213013
0.00106409
0.00211852
0.00108855
0.00208593
0.00107275
0.00203874
0.00108179
0.00196629
0.00105856
0.00189538
0.00103519
0.00180489
0.00103044
0.00173251
0.000995402
0.00164164
0.000982186
0.00153355
0.000938668
0.00143278
0.000917282
0.00133121
0.000878425
0.00123811
0.000827483
0.00114501
0.000763112
0.00104512
0.000689993
0.000945341
0.000638191
0.000874214
0.000608377
0.00083624
0.000592915
0.000815826
0.000596462
0.000802137
0.000605936
0.000791679
0.000611136
0.000784299
0.000612085
0.000779038
0.000612751
0.000776937
0.000626321
0.000775845
0.000640694
0.000774916
0.000659281
0.000773485
0.000679735
0.00077172
0.000698135
0.00077192
0.000714613
0.000772656
0.000728938
0.000774509
0.000737721
0.00077551
0.000739104
0.000771626
0.000732075
0.000762897
0.000727935
0.000747399
0.000722841
0.000729281
0.00073041
0.00072115
0.000733166
0.00071725
0.000746258
0.000722346
0.000750152
0.000727496
0.000765095
0.000735255
0.00280319
0.00386618
0.00158721
0.00363292
0.00147905
0.00360148
0.00150149
0.00347245
0.00163064
0.00342006
0.00165989
0.0034568
0.00167072
0.00349954
0.0016697
0.00349765
0.00169205
0.0034923
0.00174263
0.00348234
0.00179768
0.00345943
0.00185303
0.00346406
0.00192075
0.00346001
0.00200782
0.00343394
0.00210918
0.00335979
0.00226455
0.00333475
0.00247059
0.00349151
0.00272252
0.00382746
0.00274464
0.00354283
0.00253334
0.00273984
0.00188627
0.00240849
0.00173698
0.00239284
0.00175312
0.00256916
0.00198396
0.00259175
0.00218714
0.00246066
0.00228207
0.00227527
0.00232014
0.00205378
0.00226188
0.00195004
0.002194
0.00187554
0.00218736
0.00179967
0.002191
0.00171179
0.00219029