/*--------------------------------*- C++ -*----------------------------------*\
| =========                 |                                                 |
| \\      /  F ield         | OpenFOAM: The Open Source CFD Toolbox           |
|  \\    /   O peration     | Version:  2.2.x                                 |
|   \\  /    A nd           | Web:      www.OpenFOAM.org                      |
|    \\/     M anipulation  |                                                 |
\*---------------------------------------------------------------------------*/
FoamFile
{
    version     2.0;
    format      ascii;
    class       volScalarField;
    location    "2.95";
    object      p;
}
// * * * * * * * * * * * * * * * * * * * * * * * * * * * * * * * * * * * * * //

dimensions      [1 -1 -2 0 0 0 0];

internalField   nonuniform List<scalar> 
14161
(
0.253047
0.240515
0.224554
0.210319
0.212232
0.211865
0.204967
0.196329
0.187907
0.18469
0.18614
0.189309
0.19031
0.187003
0.181604
0.173399
0.154419
0.0992831
0.336374
0.907328
0.860147
0.825494
0.774275
0.726983
0.693248
0.674146
0.649727
0.637974
0.626383
0.616327
0.604616
0.590599
0.574865
0.563085
0.561248
0.569973
0.59142
0.624659
0.659158
0.695357
0.73355
0.786234
0.824162
0.851376
0.879911
0.900033
0.931405
0.968974
1.01149
1.06042
1.12754
1.19277
1.26041
1.3293
1.39499
1.44849
1.49031
1.52587
1.54564
1.54484
1.54066
1.53336
1.52275
1.51011
1.4956
1.48111
1.46569
1.44749
1.43098
1.41781
1.40699
1.39794
1.38823
1.36584
1.33497
1.30135
1.26661
1.23663
1.20727
1.19497
1.21433
1.25281
1.30277
1.36368
1.42656
1.5009
1.57185
1.62754
1.67998
1.71391
1.74203
1.77197
1.79312
1.80634
1.81442
1.81324
1.80712
1.79694
1.78769
1.78825
1.79085
1.79811
1.81287
1.83532
1.86403
1.89487
1.92778
1.95972
1.99
2.01835
2.04691
2.07333
2.09204
2.11653
2.13071
2.14639
2.14505
2.13414
2.16643
0.170756
0.231309
0.225012
0.19894
0.197717
0.204861
0.213205
0.216031
0.208079
0.202085
0.203795
0.210679
0.230006
0.230645
0.236975
0.240726
0.231198
0.195474
0.589881
1.42831
1.59236
1.65675
1.70487
1.72825
1.73904
1.74783
1.74444
1.73873
1.73936
1.72942
1.71667
1.69874
1.68554
1.67244
1.6607
1.6506
1.64006
1.63459
1.63686
1.63214
1.62796
1.62918
1.62902
1.62918
1.63283
1.63192
1.63891
1.64515
1.64929
1.64952
1.64698
1.64202
1.64134
1.64655
1.64654
1.65182
1.65185
1.64931
1.64297
1.63622
1.62694
1.61554
1.60491
1.5934
1.58093
1.57375
1.57086
1.57264
1.57266
1.5689
1.56373
1.5593
1.5612
1.57113
1.58736
1.60893
1.63261
1.65753
1.67862
1.69696
1.71895
1.74496
1.77116
1.80142
1.82572
1.84905
1.87895
1.90146
1.92637
1.93947
1.95296
1.96639
1.97748
1.98567
1.98645
1.98279
1.97542
1.96957
1.9709
1.97465
1.98374
1.99236
2.00313
2.01574
2.03024
2.04535
2.06267
2.07992
2.09746
2.11227
2.12359
2.1299
2.13673
2.15332
2.1621
2.17088
2.16838
2.15174
2.17852
0.246429
0.202449
0.236457
0.25138
0.232592
0.217269
0.200325
0.185216
0.185423
0.18388
0.183134
0.182307
0.178954
0.173625
0.14829
0.129709
0.127988
0.115711
0.858299
1.71319
1.96841
2.05893
2.11995
2.14183
2.15125
2.15129
2.1453
2.13279
2.11515
2.09015
2.06155
2.03512
2.01052
1.98623
1.96415
1.9463
1.92709
1.9072
1.89073
1.87278
1.84987
1.82553
1.81157
1.80038
1.79559
1.79052
1.78729
1.78528
1.7829
1.77974
1.77674
1.77092
1.76441
1.75622
1.74715
1.7391
1.7296
1.72085
1.71124
1.70231
1.69251
1.68245
1.67168
1.66099
1.65182
1.6425
1.63481
1.62955
1.62911
1.64463
1.67577
1.70992
1.74375
1.77298
1.7989
1.82232
1.83775
1.85135
1.87298
1.89625
1.91885
1.94219
1.96333
1.98609
2.00395
2.01838
2.04066
2.04759
2.06653
2.07476
2.08012
2.08633
2.08777
2.08622
2.08117
2.07114
2.06196
2.05875
2.05882
2.05921
2.06731
2.07277
2.07923
2.08697
2.09545
2.10211
2.11019
2.11787
2.12504
2.13112
2.13521
2.13287
2.13495
2.14488
2.1467
2.15312
2.15311
2.14344
2.15466
0.139969
0.23825
0.218437
0.172387
0.166086
0.185093
0.201506
0.211972
0.200691
0.190118
0.184408
0.181154
0.185591
0.19801
0.218146
0.21452
0.235881
0.286469
1.24256
1.93094
2.08938
2.12346
2.14232
2.14077
2.13865
2.12737
2.10802
2.08859
2.0678
2.04324
2.01622
1.98902
1.9606
1.92967
1.89941
1.87287
1.85127
1.83567
1.82001
1.80775
1.79345
1.77722
1.76351
1.75008
1.73916
1.7297
1.71913
1.71092
1.7032
1.69645
1.69176
1.68723
1.68461
1.68234
1.68149
1.67704
1.6725
1.66602
1.65765
1.65123
1.64449
1.63893
1.6364
1.64075
1.64959
1.65716
1.66543
1.67975
1.6958
1.71131
1.7227
1.73787
1.75291
1.77223
1.80194
1.81833
1.85317
1.8851
1.90754
1.9301
1.94738
1.9708
1.98835
2.01362
2.02868
2.04183
2.06178
2.064
2.08171
2.08483
2.09275
2.09606
2.09898
2.09722
2.09052
2.07869
2.07111
2.06757
2.06606
2.06635
2.07479
2.07973
2.08653
2.09264
2.0995
2.10451
2.11065
2.11493
2.11904
2.12404
2.12748
2.12753
2.13116
2.14073
2.14297
2.14454
2.14207
2.1361
2.13903
0.23358
0.184677
0.235828
0.271661
0.249287
0.218576
0.199078
0.184839
0.185448
0.188975
0.195889
0.201061
0.206048
0.215902
0.232727
0.25268
0.248157
0.203973
0.913429
1.79382
1.98634
2.02682
2.04379
2.05802
2.06992
2.07462
2.07493
2.06528
2.05538
2.04193
2.02176
1.99914
1.97646
1.95088
1.92337
1.89792
1.87388
1.85119
1.82995
1.80686
1.7876
1.76969
1.75234
1.73723
1.72688
1.71862
1.70379
1.69304
1.68278
1.67351
1.66423
1.65603
1.64822
1.63827
1.62756
1.61496
1.60274
1.59221
1.58238
1.57354
1.56453
1.55473
1.54523
1.53457
1.52768
1.5216
1.52131
1.52178
1.52796
1.53238
1.54938
1.57157
1.60994
1.64884
1.69007
1.73154
1.77653
1.81794
1.8502
1.88378
1.9099
1.93803
1.95575
1.98655
2.00384
2.01815
2.04032
2.04661
2.06764
2.07217
2.08791
2.08798
2.09443
2.09298
2.08952
2.07957
2.07312
2.06755
2.06578
2.06627
2.07415
2.0793
2.08669
2.09496
2.10595
2.11195
2.11715
2.11979
2.12143
2.12457
2.12459
2.12615
2.13119
2.14003
2.14086
2.14026
2.13711
2.13054
2.1334
0.131708
0.233856
0.210318
0.150237
0.137342
0.169188
0.182848
0.189132
0.172712
0.163573
0.147246
0.137186
0.138367
0.137743
0.132929
0.114023
0.0767219
0.00447746
0.441332
1.58615
1.82152
1.84679
1.85351
1.88871
1.91766
1.92559
1.92472
1.91845
1.90868
1.8987
1.88756
1.87499
1.85944
1.84314
1.8266
1.80973
1.78693
1.7637
1.73994
1.71439
1.69126
1.67487
1.66228
1.65326
1.6432
1.63141
1.60967
1.59123
1.57428
1.55955
1.5473
1.5374
1.52944
1.52131
1.51162
1.50275
1.49364
1.48585
1.47826
1.47334
1.4697
1.46656
1.46299
1.45579
1.44766
1.43807
1.43196
1.4211
1.41974
1.41861
1.42766
1.43451
1.45531
1.48089
1.51903
1.56234
1.6077
1.66429
1.71617
1.77412
1.82024
1.86837
1.89776
1.93975
1.96317
1.97957
2.00324
2.01261
2.03899
2.04778
2.07152
2.07134
2.08114
2.08541
2.08389
2.07948
2.07468
2.06771
2.06399
2.06157
2.06608
2.06743
2.07026
2.07403
2.08254
2.09626
2.11127
2.1175
2.11999
2.12261
2.12202
2.124
2.12935
2.13861
2.13818
2.13859
2.13446
2.12809
2.12968
0.222734
0.168519
0.231999
0.28622
0.255523
0.218449
0.198356
0.186509
0.189468
0.192833
0.201788
0.208773
0.218885
0.232111
0.245502
0.258959
0.266971
0.236173
0.345607
1.28623
1.51442
1.60113
1.58385
1.60183
1.62226
1.62948
1.61869
1.61338
1.60467
1.60129
1.59396
1.58665
1.58043
1.57582
1.5711
1.56466
1.55616
1.54392
1.53289
1.51907
1.50684
1.49105
1.47151
1.45088
1.43178
1.40687
1.37489
1.35256
1.33573
1.32505
1.31613
1.30974
1.30384
1.29726
1.28913
1.28092
1.27172
1.26233
1.25241
1.24308
1.23497
1.22892
1.22418
1.22391
1.2287
1.23253
1.24395
1.25416
1.2687
1.2895
1.30509
1.32003
1.33526
1.35805
1.3699
1.40073
1.41383
1.46042
1.50643
1.57827
1.64226
1.7182
1.77235
1.83425
1.87024
1.89333
1.9314
1.94865
1.98982
2.01505
2.04904
2.05865
2.07028
2.07956
2.08203
2.0824
2.08159
2.07447
2.07073
2.06612
2.06601
2.06564
2.0665
2.0676
2.06683
2.07095
2.08767
2.10798
2.12007
2.12497
2.12534
2.12432
2.12817
2.13661
2.13554
2.13792
2.13297
2.12558
2.12703
0.118099
0.227354
0.209097
0.144403
0.121136
0.160337
0.170422
0.169216
0.146932
0.140028
0.124326
0.111789
0.102847
0.098968
0.072368
0.0212094
-0.0629518
-0.189362
-0.154548
0.924346
1.54522
1.59148
1.48011
1.44022
1.39773
1.34628
1.30115
1.29605
1.31604
1.30902
1.29644
1.2761
1.26675
1.2642
1.26918
1.27768
1.28657
1.29596
1.30228
1.30866
1.30693
1.2971
1.28496
1.27063
1.24932
1.22352
1.19418
1.17145
1.15239
1.1372
1.12509
1.11453
1.1049
1.09659
1.08984
1.0841
1.07984
1.07495
1.07118
1.06606
1.06248
1.05997
1.06205
1.06586
1.07126
1.08194
1.09068
1.09649
1.10056
1.10617
1.12071
1.12989
1.1341
1.16147
1.16931
1.2116
1.22951
1.28184
1.31665
1.38757
1.44281
1.52568
1.58805
1.67159
1.73321
1.77734
1.84129
1.87068
1.92536
1.96764
2.01224
2.04026
2.05835
2.07187
2.08054
2.08494
2.08311
2.07828
2.07665
2.07179
2.06759
2.06877
2.06587
2.06634
2.06295
2.06184
2.0648
2.08154
2.10448
2.12301
2.12838
2.12615
2.12397
2.13315
2.13024
2.13475
2.13056
2.12312
2.12706
0.223662
0.152042
0.221297
0.275366
0.249296
0.218968
0.195496
0.181177
0.182311
0.182637
0.189424
0.196395
0.204672
0.212754
0.221674
0.232559
0.237136
0.224423
0.250353
0.700101
0.974192
1.0146
0.941718
0.945751
0.950787
0.938507
0.975806
1.04136
1.10711
1.14442
1.14968
1.13969
1.13485
1.1247
1.11292
1.10775
1.10597
1.09968
1.09395
1.08896
1.07475
1.05779
1.04414
1.03292
1.01765
1.01207
0.993791
0.976173
0.956905
0.941061
0.928307
0.919391
0.91315
0.910702
0.910966
0.91355
0.916872
0.920452
0.922922
0.922655
0.925517
0.924288
0.928009
0.925728
0.929931
0.928891
0.932144
0.933949
0.940912
0.945024
0.949242
0.959007
0.959336
0.99572
0.992042
1.03072
1.02784
1.07813
1.10024
1.18027
1.23063
1.33329
1.38926
1.47969
1.55715
1.60332
1.6793
1.73352
1.79885
1.86749
1.93172
1.99241
2.03106
2.05873
2.07285
2.07906
2.07992
2.07834
2.07948
2.07381
2.06787
2.06764
2.06625
2.06416
2.06029
2.05618
2.05211
2.05279
2.06772
2.093
2.11434
2.12206
2.12004
2.13
2.12611
2.1311
2.12734
2.1201
2.1279
0.0967376
0.218054
0.195212
0.136928
0.109818
0.149063
0.160679
0.160337
0.143043
0.132333
0.131041
0.115323
0.1108
0.0950546
0.0532811
-0.0220718
-0.142122
-0.323871
-0.496774
-0.307561
0.23673
0.507658
0.549999
0.570958
0.600099
0.620094
0.687847
0.813496
0.907151
0.946812
0.985536
1.0088
1.02599
1.03019
1.01319
1.00844
1.00289
0.994919
0.984746
0.975154
0.953866
0.934228
0.909212
0.888835
0.872207
0.862585
0.847552
0.839371
0.833492
0.829044
0.826744
0.824839
0.825615
0.828929
0.834179
0.83677
0.84204
0.846115
0.849739
0.850795
0.851379
0.852593
0.849652
0.85069
0.848935
0.859948
0.864533
0.875762
0.877364
0.890108
0.886456
0.905827
0.894593
0.905599
0.881555
0.908791
0.896729
0.939192
0.932873
0.988346
1.01708
1.11717
1.17502
1.278
1.36441
1.41679
1.5004
1.55037
1.61004
1.67709
1.74752
1.8399
1.92632
2.00808
2.05537
2.06853
2.07379
2.07206
2.07472
2.07498
2.07495
2.07139
2.07042
2.06693
2.06403
2.05659
2.05329
2.05127
2.05088
2.06619
2.08692
2.10956
2.11648
2.12692
2.1238
2.12867
2.12474
2.11753
2.12946
0.22445
0.137924
0.185859
0.240444
0.230841
0.20874
0.184499
0.167182
0.158968
0.159153
0.16477
0.169383
0.172871
0.177137
0.178955
0.177019
0.147127
0.0769702
0.0963477
0.329387
0.581855
0.549534
0.668371
0.674509
0.644361
0.618998
0.661848
0.749792
0.793303
0.809025
0.816748
0.812511
0.878591
0.925141
0.943574
0.954762
0.962144
0.9557
0.941645
0.924559
0.907105
0.884483
0.862107
0.841726
0.828288
0.829889
0.821501
0.817376
0.81405
0.813506
0.807078
0.808271
0.809363
0.806625
0.806897
0.80626
0.809383
0.809717
0.815418
0.821377
0.826723
0.83042
0.832848
0.839159
0.844367
0.850763
0.855717
0.868461
0.859535
0.857857
0.840498
0.845011
0.822805
0.843739
0.818651
0.85108
0.818171
0.855462
0.829672
0.876839
0.871136
0.933277
0.961168
1.04562
1.11345
1.16508
1.27269
1.34589
1.43012
1.50899
1.59776
1.71054
1.82925
1.95364
2.02982
2.0581
2.0672
2.06423
2.06369
2.06504
2.06709
2.06669
2.06656
2.06425
2.06129
2.05442
2.04926
2.04894
2.04763
2.04975
2.05991
2.08201
2.10112
2.11789
2.11516
2.12478
2.12183
2.11389
2.13146
0.0419606
0.196698
0.178504
0.146266
0.130189
0.150469
0.158441
0.160315
0.149794
0.143025
0.143344
0.138757
0.131409
0.115241
0.0765953
0.0137364
-0.0794987
-0.167171
-0.00744882
0.438953
0.898195
0.941776
0.792887
0.663729
0.622762
0.592899
0.615379
0.685308
0.714182
0.716159
0.716232
0.739687
0.767198
0.804976
0.843783
0.874851
0.890884
0.889014
0.883573
0.874412
0.865451
0.855553
0.839485
0.827229
0.822571
0.815447
0.816233
0.810965
0.819681
0.817423
0.8235
0.820285
0.82849
0.827916
0.832425
0.83226
0.832075
0.834351
0.838016
0.841119
0.84452
0.847421
0.850489
0.852892
0.86333
0.868257
0.877244
0.88064
0.887713
0.877117
0.857811
0.8528
0.821351
0.833202
0.800363
0.822444
0.783621
0.812352
0.773133
0.805832
0.785526
0.832875
0.8344
0.891125
0.929312
0.951317
1.05292
1.16227
1.27662
1.3875
1.49408
1.60287
1.72906
1.89252
1.99343
2.02701
2.05137
2.0532
2.04919
2.05095
2.05427
2.0565
2.06112
2.06405
2.06379
2.0593
2.05157
2.04836
2.04962
2.04286
2.03988
2.04932
2.06383
2.09164
2.09894
2.11771
2.11806
2.11043
2.12879
0.222787
0.127944
0.160676
0.194006
0.205258
0.189588
0.170318
0.154255
0.143953
0.141604
0.145354
0.149627
0.15404
0.147486
0.131984
0.100401
0.0259529
-0.0408008
0.126797
0.737466
0.907907
0.915503
0.903907
0.90401
0.892536
0.857696
0.813265
0.814561
0.841591
0.866979
0.898948
0.952604
1.00016
1.04043
1.05911
1.06681
1.06509
1.05352
1.04493
1.03608
1.02388
1.0121
0.996329
0.979343
0.971491
0.969941
0.976946
0.976569
0.977671
0.980786
0.975237
0.981482
0.974947
0.977918
0.973047
0.971129
0.962466
0.958781
0.954106
0.950284
0.943949
0.939267
0.932264
0.925146
0.919516
0.918271
0.914262
0.921724
0.915575
0.917579
0.897262
0.897539
0.867736
0.877847
0.846061
0.86719
0.825837
0.84423
0.792834
0.807076
0.770731
0.801451
0.796515
0.809486
0.845388
0.856373
0.909975
0.985569
1.08911
1.21349
1.3339
1.46642
1.618
1.81543
1.94786
1.99616
2.0328
2.04334
2.04082
2.03766
2.04035
2.04885
2.06844
2.07744
2.07531
2.07388
2.0653
2.0678
2.06515
2.06286
2.04794
2.04145
2.03989
2.06378
2.08094
2.11318
2.11694
2.10929
2.13184
0.0045647
0.161563
0.162022
0.154873
0.153189
0.157939
0.161537
0.16075
0.151477
0.151828
0.149556
0.144104
0.147876
0.138554
0.112218
0.071296
0.0151944
0.00176383
0.293453
1.02828
1.28219
1.31327
1.25585
1.25128
1.23957
1.21446
1.18826
1.13807
1.09756
1.11332
1.15628
1.18486
1.20785
1.21427
1.21748
1.2074
1.20012
1.1898
1.18299
1.17271
1.16681
1.16142
1.15237
1.14365
1.1383
1.12256
1.12045
1.1186
1.12034
1.11303
1.11212
1.10303
1.09953
1.08822
1.0814
1.07065
1.06416
1.05808
1.05347
1.05032
1.04813
1.04746
1.0454
1.04122
1.04245
1.03646
1.04036
1.0303
1.02895
1.00589
1.00037
0.977484
0.98534
0.967182
0.986528
0.962735
0.968931
0.929685
0.927862
0.886029
0.879387
0.839477
0.847375
0.824454
0.863366
0.882346
0.905159
0.948325
1.00247
1.08931
1.19568
1.33533
1.5244
1.74342
1.92618
1.99653
2.01622
2.04405
2.06532
2.07025
2.07508
2.07201
2.06003
2.05545
2.06664
2.07448
2.08227
2.07231
2.06838
2.05848
2.05092
2.03814
2.02639
2.03445
2.04862
2.0937
2.10429
2.10395
2.12573
0.220938
0.122586
0.142357
0.170013
0.177522
0.17053
0.160138
0.152438
0.145679
0.143247
0.142674
0.145383
0.152512
0.150475
0.125434
0.0952038
0.0484737
0.00974816
0.500169
1.11132
1.37026
1.48387
1.4847
1.48416
1.47439
1.45685
1.42872
1.39769
1.38814
1.39047
1.38956
1.388
1.38137
1.36678
1.36069
1.3478
1.34362
1.33474
1.33058
1.3253
1.32233
1.31676
1.31133
1.30518
1.29725
1.28965
1.29174
1.29256
1.29459
1.29066
1.29042
1.28409
1.28197
1.2746
1.27199
1.2647
1.26187
1.25584
1.25214
1.24885
1.24884
1.25402
1.26276
1.27124
1.28734
1.29519
1.31122
1.30929
1.31569
1.30005
1.30536
1.28597
1.29396
1.27193
1.27908
1.24644
1.23818
1.18416
1.15957
1.09001
1.06366
0.9981
0.965187
0.941941
0.947642
0.955302
0.96547
0.987011
1.02021
1.08052
1.1591
1.26827
1.46243
1.70575
1.90558
2.0006
2.03546
2.04796
2.05203
2.05569
2.05915
2.05892
2.05855
2.06111
2.06663
2.07561
2.08107
2.07959
2.07407
2.06274
2.05523
2.03384
2.01919
2.01512
2.01523
2.06856
2.09096
2.09689
2.12179
0.0192985
0.14863
0.159337
0.163838
0.158412
0.158206
0.155585
0.154079
0.150045
0.153336
0.153455
0.149975
0.155211
0.151495
0.127958
0.106457
0.0911795
0.080799
0.715642
1.32881
1.57064
1.6838
1.69219
1.69178
1.67615
1.66162
1.64893
1.63546
1.62313
1.60395
1.58316
1.56605
1.55226
1.54352
1.53328
1.52149
1.51566
1.50937
1.50445
1.49955
1.49433
1.49067
1.48786
1.48736
1.48742
1.48587
1.49463
1.50364
1.51488
1.52333
1.53372
1.5397
1.5474
1.55142
1.55795
1.56201
1.5691
1.57561
1.5854
1.59447
1.60628
1.61544
1.62599
1.63086
1.63651
1.63845
1.64381
1.64096
1.64158
1.63093
1.63227
1.6205
1.62078
1.6057
1.59562
1.57034
1.54761
1.50555
1.45691
1.37384
1.30011
1.20254
1.1403
1.06586
1.01696
0.997779
1.00093
1.0171
1.04679
1.10407
1.1701
1.26926
1.44692
1.69082
1.90757
2.01815
2.05454
2.06603
2.06745
2.07078
2.06968
2.06769
2.06656
2.06799
2.07224
2.07785
2.08172
2.08413
2.08069
2.07038
2.05445
2.03644
2.01258
1.99964
1.98988
2.03678
2.07142
2.08404
2.1131
0.211641
0.13109
0.143371
0.159596
0.162233
0.157883
0.153517
0.149063
0.147121
0.149748
0.151936
0.149142
0.153162
0.151495
0.132384
0.119653
0.12021
0.109299
0.900849
1.51899
1.78793
1.91227
1.93549
1.90658
1.86853
1.83204
1.79787
1.76755
1.74377
1.71998
1.69946
1.68194
1.6688
1.66081
1.65298
1.64769
1.64493
1.64471
1.64512
1.64573
1.64686
1.64882
1.65188
1.65666
1.66247
1.66692
1.68119
1.69349
1.70654
1.72057
1.73444
1.74894
1.76202
1.77431
1.78602
1.79749
1.80854
1.82039
1.8324
1.84541
1.85744
1.86795
1.876
1.882
1.88692
1.88996
1.89109
1.88958
1.88311
1.87282
1.8569
1.83971
1.81866
1.7951
1.77345
1.74543
1.71878
1.68774
1.63888
1.55791
1.4685
1.35831
1.25144
1.16344
1.12334
1.08951
1.06002
1.03595
1.02791
1.06513
1.13331
1.23032
1.39044
1.62928
1.86498
2.00495
2.05004
2.06732
2.07348
2.07518
2.07222
2.07107
2.0703
2.07235
2.0753
2.07792
2.0816
2.08512
2.08392
2.07642
2.05995
2.03946
2.00997
1.99271
1.97381
2.00479
2.04051
2.07102
2.10038
0.0907451
0.161462
0.165035
0.162757
0.154018
0.151593
0.151076
0.148031
0.143876
0.154698
0.156128
0.152932
0.162768
0.159057
0.137463
0.130782
0.13838
0.122603
1.00182
1.62386
1.88431
1.98993
2.01673
1.99302
1.95684
1.91711
1.88393
1.86067
1.84343
1.82904
1.81867
1.81226
1.80866
1.80593
1.80515
1.80706
1.81093
1.81574
1.82016
1.82453
1.82904
1.83269
1.83584
1.83819
1.84071
1.84187
1.84812
1.8547
1.86235
1.86882
1.87804
1.88712
1.89585
1.90437
1.91247
1.92012
1.92747
1.93474
1.94157
1.94786
1.95335
1.95765
1.96087
1.96304
1.96418
1.96366
1.95983
1.95515
1.94838
1.93855
1.92527
1.90952
1.89264
1.87129
1.84926
1.8232
1.79776
1.77273
1.74162
1.68068
1.60449
1.50197
1.3818
1.26584
1.19566
1.12488
1.08608
1.06188
1.05534
1.06988
1.10715
1.18953
1.33054
1.55653
1.80076
1.96696
2.03102
2.05436
2.065
2.07314
2.07261
2.07188
2.07116
2.07073
2.07569
2.08125
2.08425
2.08695
2.0851
2.07682
2.06131
2.04087
2.01183
1.9916
1.96515
1.98549
2.01629
2.04357
2.08534
0.176798
0.145925
0.14537
0.149836
0.150471
0.149501
0.149523
0.148079
0.145568
0.152386
0.153543
0.154875
0.167329
0.16204
0.140494
0.138147
0.151085
0.150057
1.14088
1.75776
1.96318
2.02991
2.03889
2.01321
1.99165
1.9746
1.96668
1.95436
1.94263
1.93211
1.92512
1.92276
1.91954
1.91825
1.92028
1.92417
1.92998
1.93618
1.94219
1.94781
1.95275
1.95623
1.95978
1.96185
1.96135
1.96243
1.96903
1.97381
1.97788
1.98023
1.98265
1.98431
1.98464
1.98427
1.984
1.9845
1.98634
1.98936
1.9926
1.99658
1.99989
2.00266
2.0045
2.00539
2.00476
2.00124
1.99755
1.99009
1.97734
1.96411
1.94884
1.93068
1.91591
1.89996
1.88331
1.86242
1.83881
1.81371
1.78989
1.7493
1.68799
1.61043
1.51389
1.38979
1.29402
1.19904
1.14156
1.09846
1.0712
1.08227
1.10388
1.17279
1.28772
1.47502
1.69701
1.8926
1.99455
2.03208
2.0502
2.06735
2.07032
2.07082
2.07156
2.07277
2.07774
2.08257
2.08668
2.08865
2.08591
2.07717
2.06086
2.04074
2.0129
1.99006
1.95861
1.96833
1.99575
2.02865
2.06598
0.143483
0.164488
0.154573
0.150666
0.14659
0.145877
0.145586
0.143704
0.140403
0.153812
0.161966
0.163526
0.164632
0.157842
0.147243
0.145161
0.157001
0.163148
1.11983
1.71871
1.95543
2.0539
2.0689
2.05009
2.03345
2.01797
1.99643
1.9851
1.97815
1.9743
1.96782
1.96319
1.96126
1.96215
1.96579
1.9706
1.97709
1.98335
1.98994
1.99536
2.00038
2.00395
2.00673
2.00854
2.00608
2.00793
2.01101
2.01406
2.01525
2.01583
2.01578
2.01591
2.01531
2.01515
2.01566
2.01628
2.01714
2.01922
2.02194
2.025
2.02814
2.03071
2.03185
2.03161
2.02786
2.02228
2.01542
2.00725
1.99646
1.98233
1.9618
1.94153
1.92241
1.90466
1.88981
1.87322
1.85314
1.83199
1.81206
1.78511
1.74263
1.68869
1.61911
1.51045
1.39618
1.29279
1.21044
1.14722
1.09015
1.09503
1.09997
1.15302
1.25023
1.39544
1.56687
1.75422
1.91998
1.98171
2.01365
2.04417
2.05503
2.06066
2.06688
2.07148
2.07676
2.08225
2.08813
2.08957
2.08504
2.07408
2.05842
2.03734
2.01302
1.9792
1.94898
1.94968
1.97564
2.01329
2.0466
0.153334
0.15146
0.146975
0.147018
0.145837
0.145907
0.144967
0.144196
0.140645
0.156155
0.161886
0.164578
0.165405
0.158981
0.147548
0.142827
0.14878
0.174374
1.30612
1.83349
2.00881
2.07038
2.08499
2.06735
2.04658
2.03114
2.01671
2.00874
2.00459
2.00122
2.00422
2.00402
2.00525
2.01028
2.01758
2.02366
2.02979
2.03532
2.03919
2.04073
2.04165
2.0417
2.04141
2.04013
2.0334
2.03512
2.03533
2.03573
2.03465
2.03276
2.02928
2.02502
2.02155
2.01948
2.01857
2.01851
2.01955
2.02068
2.02281
2.02576
2.02895
2.03206
2.03457
2.03631
2.03595
2.03254
2.02679
2.01867
2.00793
1.99393
1.97283
1.9491
1.92759
1.90555
1.88829
1.87042
1.85152
1.83175
1.81343
1.79647
1.77362
1.73817
1.6902
1.62005
1.52692
1.42287
1.33223
1.25308
1.16825
1.12689
1.09606
1.12514
1.18097
1.28922
1.42539
1.58604
1.76483
1.88843
1.94296
1.99175
2.02044
2.03629
2.05233
2.06363
2.07242
2.08012
2.08782
2.0886
2.08288
2.07028
2.05474
2.03454
2.00943
1.96921
1.94088
1.92844
1.95268
1.99561
2.02749
0.146142
0.155448
0.15185
0.148606
0.142528
0.142766
0.142874
0.141015
0.13597
0.154288
0.161969
0.164209
0.165044
0.160526
0.15184
0.152566
0.172827
0.240702
1.34951
1.71196
1.92404
1.96277
1.97955
1.96739
1.94589
1.93317
1.92394
1.92468
1.92862
1.92918
1.92865
1.92769
1.93171
1.94314
1.95815
1.97216
1.98376
1.99233
2.00021
2.00659
2.01083
2.01314
2.01584
2.01701
2.01405
2.01846
2.01802
2.01711
2.01669
2.01595
2.015
2.01339
2.01244
2.01174
2.0126
2.01401
2.01592
2.01879
2.02166
2.02503
2.0284
2.0315
2.03413
2.03601
2.03557
2.0321
2.0259
2.0171
2.00545
1.99099
1.97085
1.94697
1.92304
1.89709
1.87651
1.85597
1.83699
1.81782
1.79985
1.78557
1.77199
1.75447
1.72957
1.6966
1.64002
1.56219
1.47294
1.39017
1.30645
1.23554
1.18969
1.16693
1.18282
1.23364
1.32524
1.45419
1.59574
1.75273
1.84555
1.91692
1.96466
1.99318
2.01975
2.04244
2.05988
2.07306
2.08243
2.08441
2.07826
2.0639
2.04911
2.0299
2.00464
1.96329
1.92795
1.90651
1.92867
1.97595
2.00844
0.146036
0.150191
0.14906
0.147627
0.139561
0.141551
0.141314
0.14101
0.143549
0.164664
0.171884
0.171599
0.168589
0.158944
0.137674
0.114336
0.0733574
-0.00807602
0.429311
1.51379
1.69638
1.66707
1.56438
1.50871
1.46994
1.47481
1.50687
1.55002
1.60063
1.6495
1.69827
1.73366
1.75467
1.77002
1.79264
1.81469
1.82982
1.84776
1.86141
1.8738
1.8844
1.89621
1.9061
1.91409
1.92163
1.9359
1.94188
1.94695
1.9518
1.95636
1.95928
1.96017
1.95981
1.96135
1.96436
1.96905
1.97373
1.98034
1.98621
1.99086
1.99589
2.0006
2.00493
2.00785
2.00907
2.00753
2.00307
1.9964
1.98586
1.9719
1.95412
1.93106
1.90663
1.87854
1.8543
1.83068
1.81247
1.79432
1.77806
1.76404
1.75334
1.74369
1.72941
1.71709
1.69328
1.64541
1.57455
1.49105
1.40472
1.32087
1.26487
1.20563
1.20792
1.22282
1.28052
1.36873
1.48282
1.61414
1.73623
1.82608
1.89921
1.94877
1.98527
2.01647
2.043
2.06245
2.0757
2.07695
2.07086
2.05592
2.04137
2.0229
1.99738
1.95796
1.9151
1.88474
1.903
1.95395
1.98864
0.146928
0.150298
0.149363
0.146747
0.140229
0.141349
0.14281
0.144905
0.146166
0.164946
0.17187
0.171543
0.164976
0.154267
0.133162
0.108531
0.0763578
0.0184338
0.102008
0.225401
0.649838
0.726066
0.708153
0.676428
0.675127
0.716562
0.762447
0.801465
0.846821
0.880322
0.899504
0.904443
0.926086
0.95521
0.993974
1.03494
1.08624
1.1425
1.20013
1.25668
1.31012
1.36504
1.41419
1.45285
1.48376
1.51927
1.54801
1.58352
1.62418
1.66469
1.69952
1.72728
1.75271
1.76893
1.78421
1.79788
1.814
1.83064
1.84555
1.85918
1.87152
1.8814
1.89038
1.90096
1.9075
1.9144
1.9192
1.92026
1.91522
1.90588
1.89493
1.87723
1.85887
1.83699
1.81518
1.78988
1.77104
1.75506
1.7428
1.73431
1.72934
1.72349
1.70989
1.7003
1.68804
1.66271
1.61974
1.56042
1.49053
1.41269
1.3507
1.27292
1.24623
1.24332
1.27453
1.33305
1.41315
1.52099
1.63873
1.73244
1.8134
1.88585
1.93728
1.97957
2.01559
2.04341
2.0612
2.06368
2.05894
2.04533
2.03058
2.01388
1.98824
1.94979
1.90004
1.8619
1.87454
1.93066
1.97041
0.14661
0.15092
0.147953
0.145404
0.143372
0.138883
0.139973
0.147163
0.150092
0.163857
0.170565
0.168754
0.160706
0.144582
0.119444
0.0841518
0.0106313
-0.151943
-0.287284
-0.262931
0.102451
0.288066
0.348211
0.345927
0.333795
0.355923
0.362684
0.360849
0.355426
0.345883
0.34099
0.338906
0.364011
0.396766
0.43427
0.471467
0.515196
0.570461
0.621633
0.668131
0.716807
0.783057
0.841726
0.881482
0.903698
0.927826
0.954751
0.988326
1.03964
1.09842
1.13667
1.15366
1.16268
1.1815
1.20343
1.23112
1.26113
1.30014
1.34411
1.38889
1.43985
1.49309
1.54769
1.6002
1.64902
1.69259
1.72932
1.76053
1.77917
1.78765
1.78417
1.77409
1.76307
1.75224
1.73844
1.71882
1.70218
1.68265
1.66717
1.65697
1.65811
1.66271
1.67059
1.67009
1.65229
1.63289
1.6078
1.57399
1.53231
1.47193
1.39649
1.33113
1.29762
1.28357
1.28839
1.32883
1.38864
1.47083
1.57161
1.6676
1.74228
1.8263
1.88855
1.94265
1.98704
2.02125
2.04398
2.0485
2.04516
2.0335
2.01921
2.00389
1.97817
1.93981
1.88467
1.83569
1.84455
1.90602
1.95026
0.145771
0.150422
0.148045
0.145265
0.14359
0.141708
0.145516
0.157158
0.160745
0.173219
0.178191
0.175408
0.16255
0.142597
0.122034
0.0825052
0.0100201
-0.116779
-0.118089
0.312086
0.89334
0.787706
0.592291
0.505463
0.443226
0.444001
0.451788
0.461511
0.502363
0.52511
0.53117
0.505595
0.480218
0.443117
0.42821
0.430248
0.449639
0.489536
0.528225
0.549114
0.56371
0.575328
0.583786
0.59472
0.612499
0.630009
0.64134
0.650628
0.655163
0.658612
0.663065
0.681496
0.713474
0.744555
0.777384
0.811426
0.840891
0.879916
0.918454
0.958664
0.998162
1.04526
1.09506
1.14227
1.18263
1.22302
1.28441
1.34617
1.40757
1.46509
1.51391
1.54433
1.57137
1.60898
1.6235
1.61187
1.5969
1.58616
1.58374
1.58317
1.58438
1.58737
1.59458
1.60398
1.60952
1.60286
1.58252
1.55419
1.52646
1.4872
1.4308
1.36975
1.32471
1.3088
1.3021
1.31566
1.35997
1.42526
1.50727
1.59492
1.67033
1.75531
1.82516
1.89068
1.95017
1.99378
2.02416
2.03439
2.03197
2.02126
2.00728
1.99214
1.9668
1.92739
1.86855
1.80854
1.81294
1.88028
1.93304
0.145963
0.150155
0.148237
0.145863
0.14523
0.142552
0.146383
0.159234
0.162773
0.172308
0.179283
0.172474
0.158618
0.139437
0.118794
0.0790579
-0.00453312
-0.102094
-0.109619
0.542051
1.0605
1.11975
1.06771
0.932093
0.870887
0.845605
0.833645
0.810253
0.766818
0.733066
0.71952
0.725203
0.739483
0.772948
0.77347
0.745198
0.705807
0.670512
0.63803
0.616555
0.606278
0.598699
0.595244
0.595753
0.598916
0.603471
0.611715
0.625997
0.638107
0.649179
0.661797
0.672349
0.678168
0.685322
0.697742
0.70912
0.71548
0.727144
0.739246
0.753238
0.770436
0.792319
0.810434
0.828946
0.859805
0.896277
0.939554
0.982281
1.02386
1.07267
1.12018
1.16559
1.20531
1.26167
1.31158
1.35352
1.3888
1.42637
1.46562
1.50287
1.535
1.5533
1.55549
1.55274
1.55382
1.55198
1.54688
1.53259
1.50964
1.47973
1.4427
1.39942
1.35208
1.31622
1.30757
1.31036
1.33212
1.38343
1.45071
1.52179
1.59331
1.67448
1.74602
1.81756
1.88955
1.94577
1.98751
2.01181
2.01442
2.00633
1.99256
1.97558
1.95043
1.91024
1.85008
1.77838
1.77944
1.85298
1.91409
0.144663
0.148705
0.147037
0.144581
0.143672
0.140195
0.142228
0.156338
0.160606
0.173319
0.179097
0.170186
0.154967
0.139124
0.11742
0.0776185
0.00423145
-0.0235361
-0.00297337
0.704103
1.12318
1.21188
1.19767
1.1453
1.12635
1.09802
1.08186
1.06721
1.07693
1.09433
1.08492
1.05665
1.00989
0.969899
0.932716
0.909899
0.889206
0.880744
0.872089
0.852199
0.836058
0.806174
0.772548
0.74065
0.720317
0.7087
0.704848
0.704871
0.708104
0.710149
0.708399
0.708054
0.705765
0.704533
0.701438
0.700499
0.697874
0.700955
0.705763
0.709429
0.711513
0.713684
0.712745
0.720339
0.724331
0.747107
0.759981
0.789195
0.809086
0.843295
0.887246
0.935682
0.975051
1.02752
1.09568
1.16532
1.21807
1.25647
1.28622
1.33051
1.40473
1.45959
1.50595
1.53802
1.53889
1.53279
1.52644
1.51734
1.49986
1.47714
1.44655
1.41092
1.37423
1.33745
1.31723
1.3075
1.31124
1.33646
1.38862
1.456
1.52783
1.60386
1.67839
1.74999
1.82481
1.89804
1.95146
1.98569
1.9948
1.98991
1.9784
1.96033
1.93543
1.89334
1.83153
1.75117
1.74655
1.8267
1.90004
0.145909
0.149376
0.147635
0.147137
0.148342
0.145917
0.152942
0.169285
0.171761
0.184395
0.18725
0.178114
0.161901
0.147069
0.125161
0.0801883
0.0108372
-0.00741285
0.143315
0.75367
1.14986
1.32596
1.32269
1.24497
1.23814
1.21387
1.19882
1.18421
1.18141
1.18491
1.18621
1.17409
1.1631
1.14713
1.13668
1.12937
1.11027
1.08344
1.05492
1.03555
1.00954
0.989646
0.97091
0.953772
0.93393
0.913076
0.892378
0.874335
0.858306
0.841067
0.819939
0.79966
0.782194
0.768663
0.752073
0.739402
0.729152
0.727455
0.72887
0.730211
0.724597
0.724966
0.72141
0.728488
0.726901
0.743262
0.747619
0.768723
0.783602
0.803726
0.82026
0.861846
0.908787
0.967817
1.02487
1.0974
1.16216
1.20389
1.22304
1.23853
1.30571
1.37408
1.4445
1.50429
1.53912
1.54796
1.53518
1.52135
1.50684
1.48966
1.46383
1.42795
1.38915
1.36245
1.33922
1.3254
1.31586
1.32204
1.35037
1.3971
1.46078
1.54109
1.61688
1.68745
1.75669
1.83575
1.90679
1.95388
1.97292
1.97242
1.9625
1.94464
1.91864
1.87423
1.81195
1.72465
1.71286
1.79883
1.88606
0.144529
0.148106
0.147815
0.14846
0.147621
0.144961
0.155322
0.169184
0.172818
0.187492
0.189923
0.179957
0.162803
0.14816
0.125105
0.0812902
0.0272705
0.0219503
0.326051
0.774437
1.07376
1.26112
1.31465
1.28909
1.29694
1.26174
1.24535
1.23153
1.23361
1.24039
1.23876
1.22714
1.21067
1.19355
1.18178
1.16767
1.15733
1.14378
1.13602
1.12313
1.10642
1.08678
1.06839
1.05145
1.03437
1.01683
0.995337
0.976094
0.954843
0.934728
0.918537
0.902077
0.887338
0.877467
0.868508
0.858738
0.850606
0.845711
0.843263
0.833282
0.822112
0.807516
0.802485
0.787922
0.774945
0.774021
0.774317
0.80028
0.822151
0.853594
0.89763
0.945326
0.979584
1.02659
1.08074
1.13575
1.19558
1.23327
1.24639
1.26276
1.29244
1.33679
1.39106
1.45108