/*--------------------------------*- C++ -*----------------------------------*\
| =========                 |                                                 |
| \\      /  F ield         | OpenFOAM: The Open Source CFD Toolbox           |
|  \\    /   O peration     | Version:  2.2.x                                 |
|   \\  /    A nd           | Web:      www.OpenFOAM.org                      |
|    \\/     M anipulation  |                                                 |
\*---------------------------------------------------------------------------*/
FoamFile
{
    version     2.0;
    format      ascii;
    class       volVectorField;
    location    "2.95";
    object      U;
}
// * * * * * * * * * * * * * * * * * * * * * * * * * * * * * * * * * * * * * //

dimensions      [0 1 -1 0 0 0 0];

internalField   nonuniform List<vector> 
14161
(
(1.43844 -0.0451549 -3.37263e-13)
(1.45302 -0.0149535 -4.77523e-13)
(1.46288 0.00277361 -5.41246e-13)
(1.47911 -0.00605675 -5.9392e-13)
(1.48314 -0.0191798 -7.83019e-13)
(1.48801 -0.0183804 2.76243e-14)
(1.50166 -0.0126153 -8.541e-13)
(1.51212 -0.00403656 -8.54708e-13)
(1.52062 -0.000773688 -7.56716e-13)
(1.52313 0.000137577 -1.41818e-13)
(1.52051 -0.000535106 -7.16392e-13)
(1.5164 -0.00110704 -7.37657e-13)
(1.51662 -0.000535833 1.53239e-12)
(1.52541 0.00841158 -5.59224e-12)
(1.53866 0.0129038 1.53436e-11)
(1.55029 0.0240886 -2.27035e-11)
(1.57895 0.0297282 4.14111e-11)
(1.6507 0.0329739 -2.11484e-10)
(1.4472 -0.0584796 -4.44448e-10)
(1.1069 0.0312887 -4.56279e-10)
(1.12686 0.0731776 -3.47602e-10)
(1.16548 0.0852657 -2.00398e-10)
(1.20596 0.0993398 -7.8364e-11)
(1.23059 0.109436 -4.67283e-11)
(1.25535 0.119032 -2.29074e-11)
(1.26824 0.12374 7.06714e-12)
(1.28696 0.128141 4.4349e-12)
(1.29212 0.130684 -1.02444e-11)
(1.29803 0.133579 -1.22613e-11)
(1.30116 0.136777 -3.72683e-11)
(1.30612 0.138149 -3.32377e-11)
(1.3136 0.139156 -1.39133e-11)
(1.32551 0.141199 -5.51924e-12)
(1.33187 0.141938 1.83015e-11)
(1.3338 0.141738 2.89365e-11)
(1.32755 0.13976 3.68139e-11)
(1.31224 0.135709 4.15995e-11)
(1.28767 0.128628 4.28906e-11)
(1.26151 0.123549 4.38513e-11)
(1.23172 0.117047 3.66161e-11)
(1.20876 0.107433 2.87638e-11)
(1.17752 0.0996382 2.23772e-11)
(1.15441 0.0947705 1.39817e-11)
(1.13511 0.08942 6.7245e-12)
(1.11713 0.0844984 -3.59448e-12)
(1.1034 0.0830282 -1.19509e-11)
(1.08538 0.0797391 -1.61572e-11)
(1.06334 0.0772664 -1.89459e-11)
(1.03849 0.074657 -2.04549e-11)
(1.00965 0.0713 -2.04883e-11)
(0.969606 0.0668001 -2.02955e-11)
(0.930835 0.0583614 -1.85626e-11)
(0.889265 0.0502719 -1.35177e-11)
(0.846919 0.0417321 -1.0417e-11)
(0.806721 0.0351899 2.14681e-12)
(0.770412 0.0311218 7.47331e-13)
(0.741164 0.0251023 1.98426e-11)
(0.717939 0.0196001 2.084e-11)
(0.699767 0.0162147 1.52417e-11)
(0.686555 0.0128524 1.36028e-11)
(0.680849 0.00832871 2.20012e-11)
(0.678445 0.00744271 -4.16828e-12)
(0.677292 0.00618586 8.75359e-13)
(0.677789 0.0047387 -1.80506e-11)
(0.680224 0.0040636 2.96144e-11)
(0.682628 0.00282045 -6.84373e-11)
(0.686796 0.00124306 1.17062e-10)
(0.693875 -0.000695884 -1.41333e-10)
(0.702732 -0.00231264 1.96644e-10)
(0.712536 -0.0025058 -1.17719e-10)
(0.72162 -0.00394763 1.7039e-10)
(0.73221 -0.00538921 -1.03271e-10)
(0.743405 -0.00733431 3.04285e-10)
(0.761034 -0.00802562 -4.92332e-10)
(0.783544 -0.00737025 6.82951e-10)
(0.809141 -0.0044329 -7.49309e-10)
(0.834235 0.00305018 4.96404e-10)
(0.859064 0.0117715 1.02524e-10)
(0.878243 0.0254555 -6.06043e-10)
(0.889165 0.031904 9.43066e-10)
(0.887441 0.0420555 -5.62184e-10)
(0.866694 0.0493795 6.07077e-10)
(0.837436 0.0540565 1.03926e-10)
(0.798909 0.0563276 -1.03612e-09)
(0.758164 0.0588599 2.90771e-09)
(0.708179 0.0608587 -3.936e-09)
(0.658279 0.0548908 3.04065e-09)
(0.612518 0.0505721 -1.82371e-09)
(0.575115 0.0402321 -3.65244e-10)
(0.546375 0.0333553 2.23874e-09)
(0.526102 0.02468 -9.9822e-10)
(0.513954 0.0198217 1.54263e-10)
(0.505443 0.0159955 3.53412e-10)
(0.498811 0.0119067 2.68635e-10)
(0.494216 0.0100654 1.03609e-09)
(0.489661 0.0102928 1.41069e-09)
(0.485909 0.0107389 1.31139e-09)
(0.481599 0.01287 9.22703e-10)
(0.476459 0.0157586 1.55136e-11)
(0.472309 0.0176422 4.33765e-10)
(0.467967 0.0188192 1.30353e-09)
(0.462055 0.0213212 2.20289e-09)
(0.452182 0.023747 3.03007e-09)
(0.437838 0.0256263 4.0324e-09)
(0.419209 0.0265957 4.75656e-09)
(0.397386 0.0276147 5.33955e-09)
(0.372755 0.0280903 5.05857e-09)
(0.346121 0.0290513 4.12541e-09)
(0.317612 0.0305612 2.92721e-09)
(0.288275 0.029969 1.29009e-09)
(0.259619 0.0296053 1.13664e-09)
(0.230543 0.0289564 -4.25088e-09)
(0.199154 0.0339766 -2.97921e-09)
(0.163319 0.0368275 -5.84191e-09)
(0.127395 0.0371096 -1.0472e-09)
(0.0957013 0.0300425 -7.37284e-09)
(0.0699514 0.0238738 -9.41225e-09)
(0.0541767 0.0117715 -9.08972e-09)
(0.0481411 0.043053 -7.50999e-09)
(1.57173 0.0122465 5.53058e-13)
(1.47681 0.0172225 -8.30185e-13)
(1.47619 0.00806046 -1.20613e-12)
(1.50582 0.00396406 -1.5683e-12)
(1.5126 0.00595829 -1.55858e-12)
(1.49773 0.0102178 -1.64416e-12)
(1.48286 0.0132944 -1.5796e-12)
(1.4726 0.0122491 -2.05639e-12)
(1.47549 0.00646325 -1.47768e-12)
(1.48331 0.00406437 -1.7283e-12)
(1.48261 -0.000847464 2.27322e-13)
(1.47637 -0.00367078 1.45871e-12)
(1.4608 -0.00239721 -1.98813e-11)
(1.46319 -0.0107024 6.20476e-13)
(1.46011 -0.0177407 7.87476e-11)
(1.45599 -0.0202047 -6.60696e-11)
(1.47521 -0.0242368 -4.84998e-11)
(1.53546 -0.0314007 -9.47144e-10)
(1.18939 -0.139983 -1.06806e-09)
(0.687158 -0.0152352 -5.15368e-10)
(0.568289 0.0136642 -2.71256e-10)
(0.518983 0.0207567 -1.69268e-10)
(0.504994 0.0280583 -1.00571e-10)
(0.491584 0.0350298 -2.07817e-12)
(0.474242 0.0418573 9.6473e-11)
(0.453713 0.0455843 1.16877e-10)
(0.437119 0.0484095 9.66231e-11)
(0.429239 0.0501906 5.9435e-11)
(0.428978 0.0526023 5.71067e-11)
(0.435743 0.0544347 6.9995e-11)
(0.444992 0.0559179 7.14812e-11)
(0.453029 0.0566457 6.86588e-11)
(0.459494 0.0581075 4.96583e-11)
(0.46396 0.0589987 3.5266e-11)
(0.469086 0.0596245 2.16355e-11)
(0.476388 0.0591165 1.3013e-11)
(0.485518 0.0576371 7.04809e-12)
(0.494806 0.0566466 9.23931e-12)
(0.503716 0.0580108 3.4928e-12)
(0.510253 0.0573384 1.0431e-13)
(0.511961 0.0553635 -3.55987e-12)
(0.514077 0.0551111 -1.1315e-11)
(0.516561 0.0556784 1.22253e-11)
(0.518516 0.0543716 1.46711e-11)
(0.518817 0.0526303 6.08985e-12)
(0.519142 0.0461353 8.97484e-12)
(0.51978 0.0438981 -9.94237e-12)
(0.52157 0.04362 -2.6069e-11)
(0.525865 0.0437281 -3.77592e-11)
(0.533145 0.0438506 -6.43913e-11)
(0.544718 0.0449243 -6.21543e-11)
(0.559647 0.0444907 -1.14742e-10)
(0.574059 0.0465504 -8.1679e-11)
(0.58608 0.0486643 -1.15268e-10)
(0.59557 0.045693 -1.2211e-10)
(0.603301 0.042829 -1.24774e-10)
(0.608194 0.0367228 -9.62336e-11)
(0.612986 0.0325692 -1.20079e-10)
(0.618863 0.0290381 -1.30792e-10)
(0.624009 0.02385 -1.40259e-10)
(0.628094 0.018994 -1.04744e-10)
(0.631544 0.0167803 -1.21898e-10)
(0.635083 0.0147844 -9.90288e-11)
(0.6373 0.0135836 -5.06154e-11)
(0.6394 0.0138471 2.2045e-11)
(0.638998 0.0143993 -1.77861e-10)
(0.635801 0.0159249 5.68542e-10)
(0.629967 0.0158174 -8.74923e-10)
(0.623626 0.0137658 1.43879e-09)
(0.619678 0.00827948 -7.7876e-10)
(0.61826 -0.000154347 1.32264e-09)
(0.615515 -0.0076496 -8.19594e-10)
(0.612629 -0.0122965 1.74948e-09)
(0.604859 -0.0113576 -5.24221e-09)
(0.594282 -0.00799173 1.28251e-08)
(0.579811 -0.00274688 -2.72853e-08)
(0.563355 0.00595207 4.49147e-08)
(0.544325 0.0157838 -6.51202e-08)
(0.525387 0.0253248 9.09395e-08)
(0.505168 0.029355 -9.05292e-08)
(0.486895 0.0377813 9.34102e-08)
(0.468652 0.043968 -8.75213e-08)
(0.45278 0.0503262 7.07306e-08)
(0.435508 0.0544324 -5.58654e-08)
(0.419284 0.059363 2.79722e-08)
(0.402765 0.0628621 1.75942e-08)
(0.385923 0.0573055 -7.9282e-08)
(0.369204 0.0535695 1.51022e-07)
(0.355738 0.0425308 -1.37427e-07)
(0.341774 0.0337698 -6.98567e-08)
(0.332742 0.0234745 1.29646e-07)
(0.320322 0.020369 -1.26994e-08)
(0.306983 0.0186797 -6.54855e-08)
(0.292639 0.0180074 -1.22257e-07)
(0.278782 0.01822 -2.3809e-07)
(0.26741 0.018159 -3.29912e-07)
(0.258081 0.0172198 -3.7065e-07)
(0.251369 0.0179264 -3.54995e-07)
(0.246959 0.0185065 -3.11378e-07)
(0.24436 0.0188199 -2.58764e-07)
(0.242408 0.017751 -2.14072e-07)
(0.240554 0.0193431 -1.84075e-07)
(0.235972 0.0217277 -1.43396e-07)
(0.228406 0.0244865 -1.26261e-07)
(0.217887 0.0269009 -8.7201e-08)
(0.205061 0.0293298 -6.35539e-08)
(0.189893 0.0305423 -2.85031e-08)
(0.173645 0.0313852 -9.18765e-09)
(0.157471 0.0321042 2.77303e-08)
(0.140987 0.0310565 3.18382e-08)
(0.124867 0.0309669 6.85534e-08)
(0.10801 0.0321869 7.90288e-08)
(0.0923968 0.0385065 3.80512e-08)
(0.0763535 0.0404306 1.02828e-08)
(0.061682 0.0404513 1.02709e-08)
(0.0483361 0.0339569 6.47608e-08)
(0.0327368 0.0276071 5.72897e-08)
(0.0225109 0.0131949 3.73048e-08)
(0.0196085 0.0609951 8.12805e-09)
(1.40111 -0.0264484 8.03635e-14)
(1.50424 -0.00216827 1.47902e-12)
(1.46529 0.00809465 1.85554e-12)
(1.43557 -0.00136924 1.53281e-12)
(1.4363 -0.0190131 1.43458e-12)
(1.4643 -0.0227182 1.41039e-12)
(1.49455 -0.017473 -1.46939e-11)
(1.52447 -0.0113847 6.33592e-11)
(1.52851 -0.010559 -7.39668e-11)
(1.5224 -0.0110959 -5.17469e-12)
(1.51873 -0.0151869 5.16022e-11)
(1.51863 -0.0208074 1.6457e-10)
(1.52469 -0.0279919 -5.80783e-10)
(1.53461 -0.0338324 2.31128e-10)
(1.57958 -0.043508 7.97281e-10)
(1.60987 -0.0375714 6.19623e-10)
(1.62429 -0.0334446 -2.50005e-09)
(1.63366 -0.0335817 -3.77818e-09)
(0.968538 -0.0987835 -3.28147e-09)
(0.532701 0.0292284 -2.65736e-09)
(0.384502 0.0282155 -2.71658e-09)
(0.331482 0.016894 -8.25738e-10)
(0.317323 0.0128746 -4.48371e-10)
(0.30916 0.0110146 -6.93959e-10)
(0.299747 0.00835285 -6.57109e-10)
(0.289473 0.00450309 -2.19837e-10)
(0.284766 -0.00435009 1.17498e-10)
(0.285352 -0.00863477 7.79928e-11)
(0.292744 -0.012322 1.07707e-10)
(0.306817 -0.0150038 1.10347e-10)
(0.323805 -0.0135208 -1.95033e-10)
(0.340023 -0.0103598 1.50116e-10)
(0.353393 -0.00739372 2.00511e-10)
(0.364336 -0.0063904 -9.76929e-12)
(0.373589 -0.00695479 1.98608e-11)
(0.381912 -0.00879708 1.5265e-11)
(0.390742 -0.00904436 -1.06266e-10)
(0.399651 -0.00945156 -1.19029e-10)
(0.408337 -0.00842929 -8.42052e-11)
(0.417715 -0.00684929 -1.61795e-10)
(0.428564 -0.00528294 -2.82059e-10)
(0.437228 -0.00432402 -3.58951e-10)
(0.442112 -0.0015269 -3.61942e-10)
(0.446066 -0.000507561 -1.01891e-10)
(0.449412 -0.000743126 -1.38466e-14)
(0.451843 -0.00482912 -6.45503e-11)
(0.454323 -0.00732915 -1.19515e-10)
(0.456461 -0.00895988 -3.49054e-10)
(0.458954 -0.0101659 -3.16216e-10)
(0.461424 -0.0114776 -5.41897e-10)
(0.464173 -0.0123142 -8.32679e-10)
(0.467427 -0.0113934 -8.65912e-10)
(0.470936 -0.00867201 -1.01902e-09)
(0.47564 -0.00357931 -1.21745e-09)
(0.479838 0.00255392 -9.32637e-10)
(0.484834 0.00630869 -6.65853e-10)
(0.490221 0.00653982 -5.0783e-10)
(0.495577 0.00586187 -4.83463e-10)
(0.501356 0.00426688 -4.05772e-10)
(0.507365 0.00248715 -5.76125e-10)
(0.513859 0.00163116 -2.78713e-10)
(0.520018 0.00169368 -7.51422e-11)
(0.526156 0.00223335 2.42899e-10)
(0.532049 0.00305559 5.90962e-11)
(0.53742 0.00489724 3.75772e-10)
(0.543115 0.00407495 7.00768e-10)
(0.548689 0.00272754 9.72121e-10)
(0.553567 -0.000683799 1.99254e-09)
(0.556115 -0.00659336 1.79128e-09)
(0.547662 -0.0110644 2.83864e-09)
(0.531845 -0.00930536 -6.24982e-10)
(0.512467 -0.00510137 1.10119e-08)
(0.490322 -0.00146972 -2.00423e-08)
(0.466332 0.000573663 4.53585e-08)
(0.442807 0.0013602 -5.48806e-08)
(0.421387 0.00438226 5.29649e-08)
(0.402804 0.00742637 -4.36583e-08)
(0.384628 0.0106716 3.93939e-08)
(0.364578 0.0172943 -4.51396e-08)
(0.342623 0.0200697 8.41147e-08)
(0.321968 0.0274345 -1.42864e-07)
(0.300828 0.0324412 1.7603e-07)
(0.281506 0.0399846 -2.0188e-07)
(0.261803 0.0451381 2.35708e-07)
(0.244076 0.0533869 -2.92419e-07)
(0.225923 0.0595534 2.95369e-07)
(0.207429 0.0559117 -1.15964e-07)
(0.189099 0.0554999 -3.00411e-07)
(0.172173 0.0455753 1.05961e-06)
(0.154109 0.040785 -9.2166e-07)
(0.138505 0.0321053 -3.76062e-07)
(0.123123 0.0325042 1.35415e-06)
(0.109285 0.0297784 9.07583e-07)
(0.0988834 0.0245839 1.92168e-06)
(0.0917132 0.0190047 2.84034e-06)
(0.0862655 0.0148492 2.57782e-06)
(0.0834535 0.0109615 1.67773e-06)
(0.0827947 0.0113027 8.71634e-07)
(0.0832659 0.0108583 3.64241e-07)
(0.0852352 0.0108765 1.42059e-07)
(0.0880717 0.0102989 5.517e-08)
(0.0904194 0.0136592 1.98461e-08)
(0.0902711 0.0177047 -1.34536e-08)
(0.0880234 0.0225952 -1.99594e-08)
(0.0835238 0.0263721 -4.28315e-08)
(0.0780225 0.0303793 -3.00392e-08)
(0.070756 0.0327453 -2.32613e-08)
(0.0632712 0.03454 -6.56459e-08)
(0.0555887 0.0363752 -8.37681e-08)
(0.0472693 0.0363393 -1.24925e-07)
(0.0386778 0.0378157 -1.43287e-07)
(0.0295298 0.0388651 -5.02453e-08)
(0.0239907 0.0466409 8.074e-08)
(0.0188926 0.0492073 4.21352e-08)
(0.0156062 0.0496102 -8.54932e-09)
(0.0137327 0.0452956 -4.12483e-08)
(0.00882344 0.0396509 -2.60395e-08)
(0.00528745 0.021497 -7.03337e-09)
(0.00548876 0.0751508 2.09329e-09)
(1.62337 -0.0041587 9.64925e-13)
(1.47876 0.00324449 -1.1121e-12)
(1.50095 0.0112887 -2.79868e-12)
(1.55446 0.0106137 1.26686e-12)
(1.57363 0.00240158 -1.13272e-12)
(1.52653 0.000603811 2.3268e-11)
(1.49655 0.0028727 -2.8084e-10)
(1.47266 0.00603192 4.45429e-10)
(1.45857 0.00732747 -1.63596e-10)
(1.47745 0.00657207 -6.69974e-12)
(1.49012 0.00270499 -4.32216e-10)
(1.4994 -0.000531887 3.06266e-09)
(1.50446 -0.00430147 -6.55892e-09)
(1.49902 -0.00975921 3.63743e-09)
(1.48729 -0.00260739 4.01413e-09)
(1.49844 0.0114207 -1.74872e-09)
(1.48653 0.0225819 -9.0426e-09)
(1.43199 0.0186452 -1.35627e-08)
(0.619057 0.00762154 -7.13418e-09)
(0.27411 0.0568575 -2.64161e-08)
(0.197842 0.0345747 -9.69727e-09)
(0.181118 0.00986572 3.75162e-09)
(0.184801 0.00209206 2.92472e-09)
(0.190359 0.00288278 1.79405e-09)
(0.193568 0.00567083 6.52854e-10)
(0.195099 0.00597464 -2.14721e-11)
(0.196895 2.07849e-05 -3.17481e-10)
(0.202562 -0.00499247 -1.61373e-10)
(0.213365 -0.0113242 2.66728e-10)
(0.230331 -0.0166636 7.82473e-10)
(0.250537 -0.0161066 1.21126e-10)
(0.27227 -0.0143083 5.0968e-10)
(0.296502 -0.0130177 2.88955e-10)
(0.323479 -0.012984 -1.54681e-09)
(0.350791 -0.0137339 -1.13379e-09)
(0.376175 -0.0162657 -9.89329e-10)
(0.398631 -0.0162612 -2.3244e-09)
(0.41759 -0.0156815 -3.2583e-09)
(0.433936 -0.0152813 -8.36261e-10)
(0.448931 -0.0178339 8.65785e-10)
(0.464493 -0.0156326 8.79668e-10)
(0.478373 -0.00891204 -3.81027e-09)
(0.490258 -0.00442333 -3.43751e-09)
(0.499626 -0.00257589 -2.96423e-09)
(0.506889 -0.00324723 -3.04705e-09)
(0.514379 -0.00358044 -3.39381e-09)
(0.5227 -0.00525663 -1.54367e-09)
(0.530752 -0.00689833 -7.7954e-10)
(0.538713 -0.00782352 1.20336e-09)
(0.546019 -0.00874303 -1.4953e-10)
(0.552689 -0.00897503 -3.88561e-09)
(0.558024 -0.00770714 -1.81043e-09)
(0.562964 -0.0047522 -2.22017e-09)
(0.566654 0.000294022 -5.34993e-09)
(0.569588 0.00549068 -5.72821e-09)
(0.574377 0.00751886 -4.56923e-09)
(0.578094 0.00586649 -4.39756e-09)
(0.580044 0.00275303 -5.2732e-09)
(0.583358 2.2092e-05 -4.55477e-09)
(0.584914 -0.00249997 -4.56045e-09)
(0.585625 -0.00383164 -2.84208e-09)
(0.58543 -0.00462153 -9.49088e-10)
(0.583515 -0.00506743 1.27266e-09)
(0.578475 -0.00556554 2.86409e-09)
(0.571837 -0.00634315 4.88489e-09)
(0.564846 -0.00629662 5.71381e-09)
(0.556819 -0.00376555 6.60136e-09)
(0.543707 -0.001358 1.25327e-08)
(0.528354 0.00440889 1.55535e-09)
(0.51198 0.00589823 2.43837e-08)
(0.495783 0.00685978 6.47429e-09)
(0.479864 0.00942305 8.40002e-09)
(0.464804 0.0114693 1.50983e-08)
(0.452149 0.0189393 4.54488e-09)
(0.434893 0.0185101 4.88111e-09)
(0.418757 0.0259883 5.8293e-09)
(0.394606 0.0312733 -3.90268e-09)
(0.37099 0.0377266 2.7929e-08)
(0.349693 0.0468135 -2.03001e-08)
(0.327087 0.0506832 1.299e-09)
(0.306134 0.0601158 2.85186e-08)
(0.281944 0.0640612 8.81974e-09)
(0.259698 0.0733088 -1.05651e-07)
(0.235473 0.0749799 1.18771e-07)
(0.214154 0.0827778 -7.07409e-08)
(0.192609 0.0862158 5.93253e-08)
(0.172278 0.0795486 2.54115e-07)
(0.15078 0.0798572 -2.99196e-07)
(0.131009 0.0672356 -1.16455e-07)
(0.108596 0.0632826 4.6348e-07)
(0.0899135 0.050816 2.05333e-07)
(0.0704891 0.0481918 -2.04755e-06)
(0.0556234 0.0401658 -3.76733e-06)
(0.0458779 0.0304336 -5.69867e-06)
(0.0393171 0.0217967 -4.00645e-06)
(0.0342237 0.0152053 -1.69532e-06)
(0.032698 0.0109958 -9.08638e-07)
(0.032729 0.0116008 -3.13035e-07)
(0.0338721 0.0108054 -1.05323e-07)
(0.03644 0.0109413 -9.72889e-09)
(0.0401471 0.0110293 2.52e-08)
(0.0430008 0.0156064 1.63113e-08)
(0.0433957 0.0208446 5.41079e-08)
(0.0413585 0.0256335 6.0294e-09)
(0.0371283 0.0288176 -3.26713e-08)
(0.0327299 0.0327674 4.18029e-11)
(0.0269384 0.0348483 -3.95184e-08)
(0.0209816 0.0363509 1.01882e-07)
(0.0153741 0.0383646 1.11626e-07)
(0.0100712 0.0389923 6.5036e-08)
(0.0059527 0.0416466 4.47639e-08)
(0.00102663 0.0417727 8.9174e-09)
(-0.000871224 0.0488213 -9.82297e-08)
(-0.00167997 0.0494727 -8.85875e-08)
(-0.00130157 0.0497847 -5.6498e-08)
(-0.000684894 0.0450475 2.46197e-08)
(0.00152014 0.0413701 4.36194e-08)
(-0.000413687 0.0245435 8.82182e-09)
(0.00142919 0.0764114 5.58937e-10)
(1.40268 -0.0212663 -1.70288e-13)
(1.50449 0.000550871 -3.84857e-12)
(1.46666 0.0130449 -8.01348e-12)
(1.42189 0.0094274 1.72047e-11)
(1.41173 -0.0151516 -1.31405e-11)
(1.47197 -0.0240021 3.78593e-10)
(1.5053 -0.0204292 -4.89236e-09)
(1.52917 -0.0161443 1.26019e-08)
(1.51435 -0.0114138 -8.15719e-09)
(1.49791 -0.0163596 5.21363e-10)
(1.48416 -0.0245529 -4.52953e-09)
(1.47898 -0.0341239 1.0045e-08)
(1.47857 -0.0431477 -1.87702e-08)
(1.47691 -0.0571748 3.6957e-09)
(1.46945 -0.0662255 3.02519e-08)
(1.45527 -0.0791017 4.97613e-09)
(1.47261 -0.0898279 -4.74506e-08)
(1.52105 -0.0687229 -1.08885e-07)
(0.845197 0.0736427 -1.04437e-07)
(0.431264 0.0289602 -2.31027e-07)
(0.357439 0.0153424 -6.12612e-08)
(0.351428 0.000349169 -4.30219e-08)
(0.354417 -0.00319881 -3.79201e-08)
(0.350695 -0.000722757 -4.25923e-08)
(0.342099 9.37892e-05 -3.81427e-08)
(0.325868 -0.0015578 -2.03692e-08)
(0.307851 -0.0097519 -4.92203e-09)
(0.296881 -0.0175474 1.87695e-09)
(0.296427 -0.0284193 3.1904e-09)
(0.304258 -0.0371604 5.22733e-09)
(0.317437 -0.0381704 1.3025e-09)
(0.333159 -0.0373861 -1.99192e-09)
(0.350336 -0.0370775 -6.25011e-09)
(0.370578 -0.0372113 -7.45184e-09)
(0.392921 -0.0358179 -1.18835e-08)
(0.413851 -0.0315302 -3.60484e-09)
(0.431942 -0.0285067 -1.56673e-08)
(0.448461 -0.0260575 -1.8762e-08)
(0.46324 -0.024687 -1.43169e-08)
(0.477166 -0.0243128 -4.38848e-09)
(0.489924 -0.0234115 -4.33465e-09)
(0.501304 -0.0186458 -5.46383e-09)
(0.512468 -0.0120593 -5.52181e-09)
(0.51999 -0.00461332 -1.14571e-08)
(0.527042 -0.00236336 -6.79612e-09)
(0.532316 -0.00734783 -5.87167e-09)
(0.54161 -0.00932756 -4.47797e-09)
(0.549447 -0.0117878 8.18964e-10)
(0.556602 -0.012903 1.06015e-08)
(0.562868 -0.013509 9.45857e-09)
(0.568599 -0.0121831 5.88919e-10)
(0.573457 -0.00967672 7.57287e-09)
(0.577727 -0.00592957 1.56441e-08)
(0.582741 -0.00117454 1.64923e-08)
(0.589344 0.00305483 1.95729e-08)
(0.596952 0.00731052 3.41713e-08)
(0.604306 0.0104508 2.20962e-08)
(0.610226 0.0125315 1.01422e-08)
(0.61503 0.0132001 3.53446e-08)
(0.619435 0.0132594 3.83555e-08)
(0.623579 0.0143954 3.6415e-08)
(0.62781 0.0166084 4.12131e-08)
(0.631946 0.0191345 4.85546e-08)
(0.636675 0.0196176 5.80801e-08)
(0.640844 0.020194 5.87262e-08)
(0.644155 0.0206405 5.86522e-08)
(0.646037 0.0226064 5.9828e-08)
(0.645633 0.0213515 5.96968e-08)
(0.642735 0.0197691 5.77591e-08)
(0.639842 0.0181677 5.75265e-08)
(0.630461 0.0200999 4.63958e-08)
(0.616449 0.0231664 6.40555e-08)
(0.592823 0.0260864 5.49016e-09)
(0.566518 0.0333013 6.71328e-08)
(0.536083 0.0393079 -2.91858e-08)
(0.504632 0.0501623 1.64733e-08)
(0.469985 0.0586806 -4.18854e-09)
(0.435928 0.0658941 4.41746e-08)
(0.404526 0.0772459 9.629e-09)
(0.371739 0.081535 7.88516e-08)
(0.342388 0.0944445 -6.38279e-08)
(0.311378 0.0998733 -4.56024e-08)
(0.284549 0.1127 2.95233e-07)
(0.254958 0.112288 -1.67194e-07)
(0.229279 0.120742 9.9336e-08)
(0.203458 0.123643 -6.53267e-07)
(0.178842 0.11447 -4.70639e-07)
(0.153248 0.115864 -4.78952e-07)
(0.130464 0.100998 2.94422e-07)
(0.104415 0.0987017 -3.72272e-07)
(0.0834946 0.0823235 -1.0357e-06)
(0.0606932 0.0750461 4.31058e-06)
(0.0467264 0.0564619 4.13935e-06)
(0.0378577 0.039236 2.62489e-06)
(0.0325074 0.0257758 1.40489e-06)
(0.0299735 0.0164188 9.44728e-07)
(0.0296568 0.0112457 4.58604e-07)
(0.0303977 0.0112323 2.02314e-07)
(0.0323044 0.0103844 1.36332e-07)
(0.0352079 0.0108317 6.8746e-08)
(0.0392212 0.0117949 4.27306e-08)
(0.0420989 0.0180631 2.14432e-07)
(0.0425299 0.0248334 3.95019e-08)
(0.0411027 0.0312493 -2.6938e-07)
(0.0363679 0.0347858 2.21832e-07)
(0.0311033 0.0381775 -9.46364e-08)
(0.02506 0.040024 -1.09858e-08)
(0.0186849 0.0423059 -4.57027e-08)
(0.0122718 0.0443959 -6.70112e-08)
(0.00635642 0.0436488 3.06976e-08)
(0.00223878 0.0470325 4.07249e-08)
(-0.00194561 0.0456646 -6.80073e-10)
(-0.00373471 0.0515678 2.26503e-08)
(-0.00398009 0.0497504 5.92842e-08)
(-0.00334598 0.0503762 2.19102e-08)
(-0.00296182 0.0438694 -2.1259e-08)
(-0.000142912 0.0414674 -4.06379e-08)
(-0.00198122 0.0278813 -1.77716e-08)
(0.000297261 0.0746817 -1.07933e-09)
(1.62696 -0.00800984 -2.04402e-11)
(1.48603 -0.00229831 2.0732e-11)
(1.51663 0.0120578 -3.14874e-11)
(1.595 0.0145323 9.72651e-11)
(1.62962 0.00134471 1.58181e-10)
(1.55448 -0.00607091 3.25259e-10)
(1.52406 -0.00619575 -4.9266e-09)
(1.49842 -0.00403274 8.01386e-09)
(1.47862 -0.00165181 -4.8438e-09)
(1.49758 -0.000752644 9.3043e-09)
(1.51471 -0.00457018 -5.04881e-08)
(1.5266 -0.0101415 1.12212e-07)
(1.53835 -0.0190566 -1.50618e-07)
(1.54916 -0.030735 4.96766e-08)
(1.56192 -0.0370168 3.50267e-08)
(1.59209 -0.0413821 6.19231e-08)
(1.63807 -0.0451408 -1.18125e-07)
(1.6967 -0.0246051 -2.788e-07)
(1.31515 0.14688 -4.20132e-07)
(0.660937 0.0985251 -5.67899e-07)
(0.575815 0.0475098 -3.97738e-07)
(0.564355 0.0154293 -2.88458e-07)
(0.550045 0.0126385 -1.21579e-07)
(0.509448 0.0140554 4.80279e-08)
(0.467709 0.0187068 1.54199e-07)
(0.432519 0.0219878 1.27584e-07)
(0.408015 0.00815871 6.96102e-08)
(0.396317 -0.0062072 2.14127e-08)
(0.400047 -0.0196148 -8.6972e-09)
(0.406836 -0.0288628 -8.91767e-09)
(0.41729 -0.0331707 -1.88757e-08)
(0.428818 -0.0346933 -3.08097e-08)
(0.441507 -0.0354893 -4.04555e-08)
(0.454542 -0.0393947 -3.28758e-08)
(0.469789 -0.0425163 -4.19418e-08)
(0.48645 -0.0446479 -5.75194e-09)
(0.505672 -0.0444284 -2.13356e-08)
(0.524557 -0.0431128 -9.71462e-09)
(0.541408 -0.0428048 -3.08858e-08)
(0.55531 -0.0453251 -2.5171e-08)
(0.566599 -0.0433524 -4.19439e-08)
(0.57361 -0.038058 -1.69172e-08)
(0.579602 -0.0330946 1.28706e-08)
(0.583571 -0.027753 -2.21786e-08)
(0.589276 -0.0269059 -2.58533e-08)
(0.59388 -0.0303153 1.41355e-08)
(0.603078 -0.032619 2.47292e-08)
(0.611742 -0.0332857 2.58103e-08)
(0.619065 -0.0318936 6.41947e-08)
(0.625323 -0.0304456 1.22797e-07)
(0.630641 -0.0281524 5.50876e-08)
(0.635122 -0.0248821 9.00809e-08)
(0.639482 -0.0211926 1.00877e-07)
(0.644215 -0.0172495 1.65333e-07)
(0.650501 -0.0150677 1.27626e-07)
(0.656721 -0.0124405 2.60483e-07)
(0.663088 -0.0107041 3.29992e-07)
(0.66875 -0.00930023 1.70532e-07)
(0.673104 -0.00828482 2.90782e-07)
(0.676113 -0.00856088 4.10408e-07)
(0.677714 -0.00821882 4.23442e-07)
(0.67894 -0.00821728 4.18558e-07)
(0.680409 -0.0073683 4.54077e-07)
(0.683561 -0.00638927 4.99368e-07)
(0.686711 -0.00439842 5.34568e-07)
(0.690398 -0.000536562 5.39272e-07)
(0.691686 0.00513284 5.32003e-07)
(0.695683 0.014479 4.86407e-07)
(0.693618 0.024964 4.95786e-07)
(0.693841 0.0388957 4.25521e-07)
(0.684835 0.0484552 4.46547e-07)
(0.679849 0.0611903 4.16432e-07)
(0.664273 0.0690915 3.76294e-07)
(0.650721 0.0816653 3.92183e-07)
(0.62861 0.089306 2.89502e-07)
(0.603051 0.0983443 2.28539e-07)
(0.574401 0.105662 3.60135e-08)
(0.537802 0.109297 -1.25045e-07)
(0.50132 0.121143 -3.97102e-07)
(0.45994 0.122802 1.09545e-07)
(0.421285 0.135258 -3.44795e-07)
(0.382425 0.136301 2.92269e-07)
(0.348808 0.14786 -6.88417e-07)
(0.314998 0.141718 6.08844e-07)
(0.284577 0.148844 2.59337e-07)
(0.254165 0.152969 1.81492e-06)
(0.22373 0.142813 3.05455e-06)
(0.192228 0.146249 2.17912e-06)
(0.162596 0.130273 1.08387e-06)
(0.130411 0.129984 1.26602e-06)
(0.103095 0.111592 -7.59991e-07)
(0.0735558 0.100694 -5.28359e-06)
(0.0551755 0.0732104 -7.56544e-06)
(0.0411453 0.0492897 -3.48391e-06)
(0.035126 0.0291317 -6.45883e-07)
(0.032923 0.0164933 -8.26911e-07)
(0.0336433 0.00956864 -9.20922e-07)
(0.0375766 0.00835404 -5.34065e-07)
(0.0432934 0.00716291 -4.52423e-07)
(0.0508478 0.00806093 -3.61702e-07)
(0.0592964 0.0106407 1.60979e-07)
(0.0649731 0.0193066 -8.742e-08)
(0.0673146 0.0285877 -1.65136e-06)
(0.0672106 0.0362705 2.5302e-06)
(0.0614338 0.0408996 -1.49438e-06)
(0.0518075 0.0462094 2.24376e-07)
(0.0401057 0.0474161 5.53577e-07)
(0.0286036 0.0492597 2.09406e-07)
(0.0184971 0.0510566 4.16093e-07)
(0.0102575 0.0491001 -1.20513e-07)
(0.00453818 0.0526261 -3.07948e-07)
(-6.47213e-05 0.0496483 1.02555e-07)
(-0.00245436 0.0549478 2.82e-07)
(-0.00329251 0.0504018 -3.91634e-08)
(-0.00307848 0.0514393 -1.09676e-07)
(-0.00334447 0.043629 -5.40681e-08)
(-0.000983818 0.0426232 -5.72962e-09)
(-0.0028295 0.0317722 1.00459e-08)
(-0.000411593 0.0719915 1.54184e-09)
(1.40703 -0.0251215 -3.71399e-11)
(1.53504 -0.00522682 -2.38979e-10)
(1.48014 0.0139617 -4.60124e-10)
(1.41069 0.016794 7.33784e-10)
(1.39538 -0.00522011 -3.94317e-10)
(1.47772 -0.0186125 2.4706e-09)
(1.51615 -0.0200105 -2.7154e-08)
(1.53375 -0.0178383 4.9412e-08)
(1.51257 -0.0174189 -2.43367e-08)
(1.49837 -0.0181644 1.15342e-07)
(1.47611 -0.0250859 -3.65308e-07)
(1.4635 -0.0347261 5.30541e-07)
(1.45804 -0.0523813 -5.62447e-07)
(1.45475 -0.0705699 2.85502e-07)
(1.45657 -0.087012 -3.63075e-08)
(1.45155 -0.106853 1.8165e-07)
(1.45182 -0.130873 -2.46162e-07)
(1.49353 -0.156802 -5.00361e-07)
(1.40123 0.0648054 -8.02851e-07)
(0.755705 0.1129 -3.0404e-06)
(0.682269 0.0175032 -2.27278e-06)
(0.690414 0.00726132 -1.27257e-06)
(0.703536 0.0282762 -1.05267e-06)
(0.687795 0.036079 -4.78067e-07)
(0.670543 0.0322914 -3.83771e-07)
(0.662152 0.0225758 -3.92263e-07)
(0.662032 0.00506062 -4.0927e-07)
(0.658842 -0.0199844 -4.0385e-07)
(0.652809 -0.0407464 -3.67237e-07)
(0.642657 -0.0481269 -1.9935e-07)
(0.639855 -0.0524304 -1.08188e-07)
(0.637898 -0.0566531 -7.86706e-08)
(0.63779 -0.059233 -9.55017e-08)
(0.637668 -0.0628723 -9.49157e-08)
(0.637857 -0.0639337 -3.04647e-09)
(0.639689 -0.062063 9.40709e-08)
(0.64278 -0.0583639 1.74063e-07)
(0.647717 -0.0517317 2.57432e-07)
(0.65252 -0.0445306 2.72712e-07)
(0.656401 -0.0373672 2.3974e-07)
(0.658619 -0.0291632 1.83282e-07)
(0.662332 -0.0215138 1.13876e-07)
(0.670573 -0.0170418 4.51638e-08)
(0.680543 -0.0119578 5.62649e-08)
(0.691503 -0.00959886 -5.81095e-08)
(0.703132 -0.0153515 1.44655e-08)
(0.718968 -0.0202485 1.03886e-07)
(0.730592 -0.0230841 4.53277e-08)
(0.739022 -0.0218348 -1.31343e-08)
(0.745315 -0.0186604 2.24736e-07)
(0.750827 -0.0151478 2.74479e-07)
(0.755358 -0.0113473 2.32904e-07)
(0.760064 -0.00765228 3.65624e-07)
(0.765421 -0.00442849 5.67796e-07)
(0.772313 -0.0021934 6.80729e-07)
(0.779327 0.000179873 8.77078e-07)
(0.787132 0.00305861 1.06945e-06)
(0.795175 0.00595899 1.27311e-06)
(0.803625 0.00893475 1.16778e-06)
(0.81161 0.0115574 1.6721e-06)
(0.818537 0.0138232 1.88126e-06)
(0.824974 0.015145 2.24375e-06)
(0.830068 0.0156843 2.35548e-06)
(0.834138 0.0168198 2.51566e-06)
(0.832885 0.0193076 2.64346e-06)
(0.832872 0.0216366 2.81941e-06)
(0.828087 0.0259023 2.75251e-06)
(0.824191 0.0325126 2.72045e-06)
(0.819749 0.0377271 2.36318e-06)
(0.809462 0.0406167 2.00316e-06)
(0.80085 0.0439033 1.76623e-06)
(0.793038 0.0523264 1.67953e-06)
(0.782891 0.0617885 1.45581e-06)
(0.76869 0.076041 1.64201e-06)
(0.757693 0.0949453 1.44276e-06)
(0.734759 0.115561 1.74483e-06)
(0.717246 0.137989 1.29592e-06)
(0.680666 0.152235 1.16525e-06)
(0.645804 0.169065 9.68789e-07)
(0.598291 0.174052 2.66853e-07)
(0.552136 0.187231 -5.56579e-07)
(0.502312 0.182878 2.66383e-08)
(0.456641 0.192343 -5.39066e-07)
(0.412659 0.181864 -2.14392e-06)
(0.372345 0.192769 -3.53024e-06)
(0.331796 0.20133 -4.94113e-06)
(0.289204 0.188893 -7.71011e-06)
(0.24683 0.192761 -5.5385e-06)
(0.207161 0.172071 -4.53335e-06)
(0.166494 0.168678 -2.007e-06)
(0.132572 0.146958 1.9094e-06)
(0.095409 0.129901 7.73783e-06)
(0.0708279 0.0936366 9.07085e-06)
(0.0525881 0.0592138 4.38201e-06)
(0.0431033 0.0322249 -1.83012e-07)
(0.0398389 0.0141741 -1.38883e-06)
(0.042249 0.00558156 3.62059e-07)
(0.0492673 0.0020087 8.76043e-07)
(0.057513 -0.000305386 1.00371e-06)
(0.066522 0.000812703 9.62768e-07)
(0.0756956 0.00627199 6.63342e-07)
(0.0816333 0.0180259 -1.12089e-06)
(0.0863211 0.0303364 4.33217e-06)
(0.0881378 0.0420445 -5.39379e-06)
(0.0842438 0.0511953 2.66486e-06)
(0.0761211 0.0576551 -3.03635e-07)
(0.0639131 0.0604592 -1.22309e-06)
(0.0492483 0.0613759 -7.52476e-07)
(0.0350043 0.0610772 -1.07013e-06)
(0.0233101 0.0570547 1.44323e-08)
(0.0139295 0.0584672 1.66074e-06)
(0.00793684 0.0535843 -2.25952e-08)
(0.00459583 0.0585622 -2.2689e-06)
(0.00233092 0.0521626 -1.23019e-06)
(0.00152675 0.0536208 -1.70864e-07)
(0.00034148 0.0451001 1.84827e-07)
(-0.000154995 0.0451047 7.58614e-08)
(-0.00209714 0.0363607 -1.43882e-08)
(6.88626e-05 0.0688936 -3.99742e-09)
(1.64099 -0.00825365 -4.83894e-10)
(1.49438 -0.00400701 4.89261e-10)
(1.5186 0.010164 3.67205e-10)
(1.60682 0.0143264 -1.60105e-09)
(1.6572 0.00211901 5.88787e-09)
(1.56319 -0.00696221 3.90591e-09)
(1.53722 -0.0106318 -3.22675e-08)
(1.51802 -0.0126762 4.17495e-08)
(1.50417 -0.0136618 -5.52539e-08)
(1.51478 -0.0139448 8.25806e-08)
(1.52903 -0.0208053 -5.06365e-07)
(1.54188 -0.0284289 9.97078e-07)
(1.55316 -0.040911 -1.51101e-06)
(1.56416 -0.0562912 1.01575e-06)
(1.60353 -0.0689961 -6.01042e-07)
(1.66666 -0.0760808 1.11176e-06)
(1.75689 -0.0770195 -1.97334e-06)
(1.86553 -0.0819282 -1.78511e-06)
(1.81389 -0.0183055 -8.70562e-06)
(1.17792 0.12674 -8.963e-06)
(0.831865 0.0715813 -4.29834e-06)
(0.801199 0.0382358 -3.50413e-06)
(0.814891 0.0485207 -1.34013e-06)
(0.814125 0.0548901 -8.17764e-07)
(0.820443 0.0514141 3.61348e-09)
(0.832295 0.0424734 4.44718e-07)
(0.841717 0.0251856 8.9846e-07)
(0.829007 0.00267537 8.21363e-07)
(0.803283 -0.0121006 6.62075e-07)
(0.789347 -0.0274178 7.62972e-07)