/*--------------------------------*- C++ -*----------------------------------*\
| =========                 |                                                 |
| \\      /  F ield         | OpenFOAM: The Open Source CFD Toolbox           |
|  \\    /   O peration     | Version:  2.2.x                                 |
|   \\  /    A nd           | Web:      www.OpenFOAM.org                      |
|    \\/     M anipulation  |                                                 |
\*---------------------------------------------------------------------------*/
FoamFile
{
    version     2.0;
    format      ascii;
    class       volScalarField;
    location    "0.8";
    object      Bx;
}
// * * * * * * * * * * * * * * * * * * * * * * * * * * * * * * * * * * * * * //

dimensions      [1 0 -2 0 0 -1 0];

internalField   nonuniform List<scalar> 
14161
(
1.00035
1.00029
1.00034
1.00041
1.00052
1.00065
1.00083
1.00106
1.00134
1.00167
1.00208
1.00256
1.00311
1.00375
1.00447
1.00529
1.00618
1.00717
1.00822
1.00935
1.01054
1.01177
1.01303
1.0143
1.01558
1.01683
1.01804
1.01921
1.02028
1.02129
1.02218
1.02302
1.02373
1.02436
1.0249
1.0253
1.02563
1.02586
1.02603
1.0261
1.02609
1.02605
1.02598
1.02612
1.02646
1.02812
1.02901
1.03772
1.03607
1.09035
1.00813
0.906745
0.839473
0.824163
0.833041
0.857896
0.877262
0.910808
0.94104
0.970957
0.997227
1.01927
1.03748
1.05281
1.06565
1.07576
1.08318
1.09015
1.09464
1.09809
1.101
1.10212
1.09968
1.09493
1.08681
1.07325
1.05519
1.02413
0.981132
0.919499
0.842337
0.730645
0.633752
0.536654
0.457872
0.393827
0.341805
0.304829
0.282135
0.269578
0.266765
0.271727
0.278198
0.284825
0.29079
0.294822
0.297015
0.298306
0.298927
0.29893
0.298263
0.29763
0.29657
0.295763
0.294688
0.292447
0.289458
0.284152
0.276495
0.266319
0.249124
0.236628
0.205652
0.195577
0.148261
0.142951
0.0749909
0.0743205
-0.00500896
1.00035
1.00029
1.00034
1.00041
1.00052
1.00065
1.00083
1.00106
1.00134
1.00168
1.00208
1.00256
1.00311
1.00375
1.00448
1.00529
1.00619
1.00717
1.00823
1.00936
1.01055
1.01178
1.01304
1.01431
1.01559
1.01686
1.01808
1.01924
1.02031
1.02133
1.02222
1.02307
1.02379
1.02441
1.02492
1.0253
1.02558
1.02576
1.02586
1.02587
1.02576
1.02557
1.02523
1.02472
1.02372
1.02211
1.01846
1.01479
0.996575
0.994856
0.829907
0.802319
0.813547
0.854869
0.871176
0.910058
0.947764
0.982923
1.01105
1.0381
1.06013
1.07995
1.09596
1.10846
1.11726
1.1237
1.12882
1.13157
1.13312
1.13367
1.13173
1.12835
1.12275
1.11396
1.10712
1.09385
1.08593
1.06055
1.02882
0.958045
0.892094
0.798569
0.712798
0.627223
0.553719
0.489976
0.43327
0.389388
0.352995
0.327527
0.310026
0.300008
0.296163
0.297408
0.299122
0.301081
0.302995
0.304427
0.304838
0.304282
0.303103
0.30115
0.298857
0.295915
0.293039
0.289862
0.286237
0.281993
0.276333
0.270151
0.256811
0.247044
0.220513
0.209082
0.163857
0.154221
0.0860493
0.0799498
0.000201902
1.00035
1.00029
1.00034
1.00041
1.00052
1.00066
1.00084
1.00106
1.00134
1.00168
1.00208
1.00256
1.00312
1.00376
1.00448
1.0053
1.00619
1.00718
1.00824
1.00936
1.01055
1.01178
1.01304
1.01432
1.0156
1.01686
1.01807
1.01922
1.02033
1.02135
1.02226
1.02309
1.02381
1.02446
1.02501
1.02548
1.02587
1.0262
1.02645
1.02666
1.02682
1.02696
1.02712
1.02743
1.02772
1.02825
1.02769
1.02794
1.01268
0.965238
0.757065
0.794894
0.788344
0.873801
0.930505
0.990176
1.03224
1.0681
1.096
1.11777
1.13665
1.15411
1.16676
1.17805
1.18658
1.19375
1.19975
1.20298
1.20599
1.20733
1.2085
1.20606
1.20477
1.19379
1.18476
1.16092
1.14299
1.10708
1.0897
1.03721
1.00196
0.937129
0.875952
0.798875
0.706268
0.611107
0.523809
0.454043
0.395461
0.358528
0.331609
0.322548
0.316073
0.317982
0.321848
0.323563
0.324938
0.324656
0.323553
0.321502
0.318997
0.31593
0.312747
0.309127
0.305475
0.301434
0.297695
0.293444
0.286857
0.280666
0.266767
0.256911
0.22834
0.215135
0.169257
0.157167
0.0928356
0.0848572
0.00234339
1.00035
1.00029
1.00034
1.00041
1.00052
1.00066
1.00084
1.00106
1.00134
1.00168
1.00209
1.00256
1.00312
1.00376
1.00449
1.0053
1.00621
1.00719
1.00825
1.00938
1.01057
1.01181
1.01308
1.01437
1.01564
1.01688
1.01813
1.01932
1.02043
1.02144
1.02234
1.02317
1.02393
1.02457
1.02509
1.02548
1.02578
1.02597
1.02606
1.02605
1.02593
1.02575
1.0254
1.02489
1.02392
1.0232
1.02072
1.0213
1.00145
1.04583
0.882612
0.88142
0.929407
1.01894
1.06462
1.10188
1.12977
1.15153
1.17181
1.18353
1.19903
1.20752
1.21769
1.22423
1.22915
1.23477
1.2372
1.24166
1.24378
1.24464
1.24706
1.24457
1.24805
1.23998
1.23997
1.22191
1.21442
1.17746
1.1687
1.12514
1.11186
1.07521
1.03528
0.983339
0.908789
0.817913
0.717505
0.616125
0.526931
0.461167
0.414302
0.384989
0.372028
0.364841
0.361796
0.360861
0.358853
0.356305
0.353421
0.349384
0.344933
0.339703
0.334223
0.328179
0.322304
0.316153
0.3097
0.303261
0.294953
0.287915
0.273902
0.264371
0.235926
0.221717
0.175317
0.159968
0.0965536
0.0849219
0.00834565
1.00035
1.00029
1.00034
1.00041
1.00052
1.00066
1.00084
1.00106
1.00134
1.00168
1.00209
1.00257
1.00312
1.00377
1.00449
1.00531
1.00621
1.0072
1.00826
1.0094
1.01059
1.01183
1.01309
1.01438
1.01568
1.01695
1.01819
1.01935
1.02047
1.02149
1.02245
1.02331
1.02407
1.02478
1.02537
1.02591
1.02638
1.0268
1.02716
1.0275
1.02783
1.0282
1.02869
1.02941
1.03055
1.03219
1.03558
1.04129
1.05379
1.08438
1.17006
1.19955
1.18123
1.18453
1.18532
1.19086
1.19889
1.20997
1.22098
1.22492
1.24034
1.24052
1.25261
1.25231
1.26171
1.26134
1.26768
1.2687
1.2729
1.27355
1.27685
1.27525
1.2807
1.27496
1.28311
1.26908
1.2723
1.24652
1.23046
1.20557
1.17513
1.15902
1.12232
1.09231
1.04636
0.997814
0.929756
0.837573
0.721707
0.605618
0.520162
0.468307
0.439179
0.427154
0.418787
0.412734
0.406767
0.399586
0.392225
0.383539
0.374718
0.364935
0.355388
0.345839
0.336747
0.327473
0.318526
0.309175
0.298768
0.289493
0.273235
0.263732
0.234306
0.221232
0.175487
0.161115
0.101384
0.0899165
0.0141031
1.00035
1.00029
1.00034
1.00041
1.00052
1.00066
1.00084
1.00107
1.00135
1.00169
1.00209
1.00257
1.00313
1.00377
1.0045
1.00532
1.00623
1.00722
1.00829
1.00942
1.01062
1.01187
1.01315
1.01445
1.01575
1.01701
1.01828
1.01947
1.02061
1.02165
1.02265
1.02351
1.02429
1.02497
1.02552
1.02599
1.02632
1.02656
1.02668
1.02672
1.0267
1.02662
1.02652
1.0265
1.02685
1.02766
1.02932
1.03215
1.04392
1.06084
1.21693
1.25642
1.24615
1.24346
1.24093
1.24198
1.24416
1.24751
1.25185
1.25467
1.26459
1.26179
1.27242
1.26991
1.27891
1.27711
1.28363
1.28276
1.28651
1.28663
1.28986
1.29135
1.29095
1.29642
1.28969
1.29796
1.27596
1.2823
1.24499
1.24924
1.21634
1.21243
1.18381
1.16494
1.13078
1.09806
1.05451
1.00077
0.926319
0.837504
0.726181
0.636459
0.580341
0.54984
0.525371
0.506375
0.488094
0.470282
0.453101
0.435344
0.417842
0.399522
0.382906
0.367086
0.352967
0.339571
0.326239
0.312721
0.29949
0.288196
0.270431
0.261508
0.234414
0.223023
0.179166
0.1653
0.107051
0.095441
0.0231267
1.00035
1.00029
1.00034
1.00041
1.00052
1.00066
1.00084
1.00107
1.00135
1.00169
1.00209
1.00258
1.00314
1.00378
1.00451
1.00533
1.00624
1.00723
1.0083
1.00945
1.01065
1.01191
1.01318
1.01449
1.0158
1.0171
1.01836
1.01957
1.0207
1.02178
1.02282
1.02374
1.02458
1.02534
1.02602
1.02665
1.02719
1.02769
1.02813
1.02849
1.02882
1.0291
1.02935
1.02955
1.02987
1.02995
1.03059
1.02993
1.03273
1.03267
1.08539
1.13628
1.19065
1.18962
1.21046
1.22607
1.23967
1.25127
1.25822
1.27026
1.26827
1.28033
1.27865
1.28801
1.28658
1.29352
1.29304
1.29739
1.29701
1.30095
1.30045
1.3047
1.30063
1.30663
1.29574
1.30481
1.27766
1.285
1.24344
1.25054
1.21725
1.21898
1.19271
1.18854
1.16671
1.14899
1.12432
1.09573
1.0594
1.01782
0.932813
0.869063
0.782054
0.726651
0.680378
0.640212
0.602847
0.56602
0.530816
0.496502
0.465613
0.436289
0.410879
0.387931
0.367885
0.349425
0.332583
0.316596
0.300323
0.286783
0.268684
0.25906
0.230647
0.217803
0.172111
0.159666
0.105383
0.0964051
0.0288221
1.00035
1.00029
1.00034
1.00041
1.00052
1.00066
1.00084
1.00107
1.00135
1.00169
1.0021
1.00258
1.00314
1.00379
1.00452
1.00535
1.00626
1.00726
1.00833
1.00949
1.0107
1.01196
1.01326
1.01458
1.0159
1.01722
1.01848
1.01974
1.02092
1.02201
1.02307
1.024
1.02487
1.02561
1.02631
1.02682
1.02725
1.0275
1.02765
1.02769
1.02759
1.02732
1.02687
1.02617
1.02498
1.02337
1.02081
1.01606
1.00907
0.997388
1.00187
1.02263
1.10205
1.13087
1.16318
1.18999
1.21184
1.22972
1.2463
1.261
1.26278
1.27412
1.27259
1.28219
1.27907
1.28624
1.28348
1.28772
1.28578
1.2888
1.28631
1.29017
1.28408
1.29114
1.2784
1.28794
1.26013
1.27289
1.23395
1.24684
1.21934
1.22517
1.20486
1.20335
1.19417
1.18573
1.17538
1.16346
1.15231
1.1236
1.08384
1.02297
0.947272
0.874467
0.805592
0.747135
0.69392
0.644615
0.601027
0.560578
0.522384
0.487087
0.454447
0.424872
0.396322
0.369425
0.343565
0.32127
0.300107
0.28233
0.261757
0.251461
0.225755
0.218184
0.177523
0.164718
0.110438
0.102329
0.0386983
1.00035
1.00029
1.00034
1.00041
1.00052
1.00066
1.00084
1.00107
1.00135
1.0017
1.0021
1.00259
1.00315
1.0038
1.00454
1.00536
1.00628
1.00728
1.00836
1.00952
1.01074
1.01201
1.01333
1.01465
1.016
1.01733
1.01862
1.01991
1.02114
1.02226
1.02333
1.02437
1.02531
1.02616
1.02699
1.02771
1.02837
1.02891
1.02939
1.02977
1.02997
1.03
1.02971
1.0291
1.02786
1.02604
1.02392
1.01985
1.01573
1.00854
1.01865
1.03838
1.11376
1.14416
1.17712
1.20047
1.22214
1.24029
1.2612
1.26423
1.27949
1.28344
1.28646
1.29604
1.29472
1.30281
1.3006
1.30541
1.30318
1.30664
1.30346
1.30723
1.30051
1.30588
1.29339
1.30152
1.27325
1.28459
1.24593
1.25708
1.23195
1.2369
1.22103
1.21791
1.21112
1.20678
1.20132
1.19386
1.1873
1.1662
1.14486
1.0945
1.03295
0.953477
0.87402
0.804093
0.73945
0.681033
0.629215
0.585226
0.545606
0.508576
0.472687
0.438746
0.404081
0.372377
0.342595
0.317178
0.292325
0.270054
0.245412
0.232742
0.2073
0.20264
0.169144
0.161205
0.113135
0.10609
0.046248
1.00035
1.00029
1.00034
1.00042
1.00052
1.00066
1.00085
1.00107
1.00136
1.0017
1.00211
1.0026
1.00316
1.00381
1.00455
1.00538
1.0063
1.00732
1.00841
1.00957
1.01081
1.01209
1.01343
1.01477
1.01612
1.01749
1.01884
1.02012
1.02138
1.02257
1.02368
1.02476
1.02574
1.02661
1.02739
1.02807
1.0286
1.029
1.02921
1.02933
1.02929
1.02902
1.02855
1.02774
1.02665
1.02523
1.02361
1.02068
1.02136
1.01496
1.05337
1.09558
1.16641
1.1859
1.22161
1.23569
1.25943
1.27111
1.28823
1.28693
1.30569
1.30659
1.31849
1.31456
1.3241
1.32048
1.32755
1.3253
1.32886
1.32626
1.33012
1.32514
1.33024
1.32139
1.32706
1.30557
1.29628
1.29251
1.25956
1.26656
1.24347
1.24239
1.22637
1.22465
1.21271
1.20968
1.20168
1.19273
1.17762
1.15097
1.11837
1.06025
1.0038
0.927888
0.852789
0.787484
0.727404
0.67374
0.621845
0.574835
0.532634
0.497016
0.462399
0.430085
0.395546
0.364525
0.33319
0.305035
0.276094
0.251507
0.225185
0.211097
0.188421
0.185684
0.160125
0.157178
0.114824
0.109979
0.0570732
1.00035
1.00029
1.00034
1.00042
1.00052
1.00066
1.00085
1.00108
1.00136
1.0017
1.00212
1.0026
1.00317
1.00382
1.00457
1.0054
1.00633
1.00735
1.00845
1.00962
1.01087
1.01217
1.01351
1.01489
1.01627
1.01767
1.01903
1.02035
1.02166
1.02294
1.02411
1.02524
1.02634
1.02735
1.02825
1.02912
1.02993
1.03065
1.03122
1.03173
1.0321
1.03231
1.03233
1.03201
1.03129
1.03039
1.02926
1.02708
1.02951
1.02006
1.08147
1.14189
1.20078
1.20595
1.25318
1.25692
1.28433
1.28411
1.30723
1.303
1.32532
1.32901
1.32715
1.33523
1.33035
1.33641
1.33339
1.33903
1.33727
1.34115
1.33931
1.34342
1.33887
1.34377
1.33233
1.33182
1.29264
1.3016
1.26197
1.25627
1.23254
1.22668
1.20313
1.19852
1.17987
1.16842
1.15105
1.13084
1.10044
1.05819
1.00703
0.948772
0.8932
0.82636
0.763046
0.712401
0.6664
0.625459
0.583585
0.545908
0.509597
0.47626
0.443666
0.412645
0.381337
0.353899
0.324709
0.297468
0.268768
0.24419
0.217592
0.201757
0.179029
0.17553
0.153079
0.153951
0.117361
0.114162
0.0672774
1.00035
1.00029
1.00034
1.00042
1.00053
1.00067
1.00085
1.00108
1.00136
1.00171
1.00212
1.00261
1.00318
1.00384
1.00459
1.00543
1.00637
1.00739
1.0085
1.00969
1.01095
1.01227
1.01364
1.01504
1.01645
1.01787
1.01929
1.02067
1.02198
1.02332
1.02458
1.02576
1.02689
1.02794
1.02891
1.02975
1.03046
1.03107
1.03156
1.03187
1.03203
1.03211
1.03206
1.03205
1.03198
1.03238
1.03319
1.03567
1.0393
1.0511
1.10048
1.13203
1.19941
1.20797
1.26514
1.27094
1.30559
1.30492
1.32981
1.32176
1.34385
1.33312
1.34674
1.33654
1.34396
1.33927
1.34439
1.34238
1.34481
1.34579
1.34444
1.34803
1.34025
1.33973
1.30964
1.30752
1.24494
1.24763
1.2005
1.19024
1.1556
1.14493
1.11619
1.09537
1.06588
1.03538
1.00069
0.963256
0.926394
0.882911
0.843317
0.806847
0.769248
0.725252
0.684398
0.648325
0.609784
0.57846
0.548303
0.520242
0.488055
0.456907
0.424806
0.396177
0.369397
0.34494
0.317681
0.291154
0.262463
0.237772
0.210302
0.192308
0.170563
0.16691
0.149988
0.152726
0.122906
0.120825
0.0796951
1.00035
1.00029
1.00035
1.00042
1.00053
1.00067
1.00085
1.00108
1.00137
1.00171
1.00213
1.00262
1.00319
1.00386
1.00461
1.00546
1.0064
1.00743
1.00856
1.00976
1.01104
1.01238
1.01376
1.0152
1.01666
1.01809
1.01956
1.02101
1.02239
1.02376
1.02512
1.02641
1.0276
1.02881
1.02995
1.03095
1.03188
1.03278
1.03365
1.03436
1.03499
1.03561
1.03625
1.03701
1.03783
1.03888
1.03981
1.04389
1.03914
1.11584
1.0889
1.1152
1.18194
1.21029
1.28403
1.28257
1.32382
1.31657
1.34337
1.33362
1.35927
1.34685
1.36118
1.35308
1.35849
1.35549
1.35849
1.35846
1.35558
1.35327
1.34506
1.33604
1.30219
1.26148
1.19417
1.15516
1.0699
1.03765
0.980254
0.954928
0.921445
0.899254
0.874002
0.846066
0.816732
0.785619
0.755291
0.728141
0.705009
0.691408
0.683819
0.674079
0.662085
0.644624
0.621007
0.593115
0.564409
0.541035
0.515144
0.490914
0.463095
0.437479
0.409865
0.384185
0.358966
0.335228
0.309231
0.283841
0.255543
0.230859
0.205075
0.186428
0.167137
0.161944
0.149564
0.152681
0.129583
0.127016
0.0905819
1.00035
1.0003
1.00035
1.00042
1.00053
1.00067
1.00086
1.00109
1.00137
1.00172
1.00214
1.00263
1.00321
1.00388
1.00464
1.00549
1.00644
1.00749
1.00863
1.00985
1.01114
1.01251
1.01392
1.01538
1.01688
1.01838
1.01988
1.02137
1.02284
1.02425
1.02569
1.02706
1.02834
1.02958
1.03075
1.03185
1.03282
1.03369
1.03447
1.03512
1.03564
1.03599
1.03623
1.03639
1.03633
1.03638
1.03527
1.03798
1.02602
1.08922
1.0479
1.05932
1.09438
1.11491
1.19991
1.22868
1.28074
1.29578
1.33357
1.34671
1.34832
1.36058
1.35256
1.36053
1.35224
1.35166
1.34075
1.33869
1.31065
1.26838
1.21032
1.1245
1.04198
0.927263
0.827111
0.771619
0.715086
0.691489
0.652742
0.636112
0.617432
0.606155
0.598193
0.592976
0.591535
0.591268
0.592011
0.594356
0.598457
0.600275
0.60188
0.599163
0.593568
0.584003
0.567305
0.549528
0.531096
0.510983
0.487904
0.467002
0.444071
0.423216
0.399336
0.375896
0.351216
0.327028
0.298857
0.273585
0.246492
0.223614
0.200017
0.181751
0.16454
0.158854
0.149044
0.15307
0.135941
0.134973
0.100886
1.00035
1.0003
1.00035
1.00042
1.00053
1.00067
1.00086
1.00109
1.00138
1.00173
1.00215
1.00264
1.00323
1.0039
1.00466
1.00552
1.00649
1.00754
1.00869
1.00994
1.01125
1.01264
1.01409
1.01557
1.01711
1.01866
1.02019
1.02178
1.02333
1.02484
1.0263
1.02779
1.02922
1.03057
1.03188
1.0332
1.0344
1.03545
1.03644
1.03743
1.03831
1.03897
1.03954
1.04004
1.04027
1.04045
1.04046
1.04193
1.04014
1.08884
1.07691
1.08159
1.09837
1.10781
1.18517
1.20013
1.2945
1.29881
1.35214
1.33784
1.36244
1.35346
1.35399
1.34532
1.32067
1.28883
1.2381
1.15322
1.07654
0.948573
0.825967
0.72557
0.645244
0.600652
0.553443
0.533401
0.51364
0.505246
0.496321
0.490334
0.491065
0.48992
0.495719
0.499834
0.506612
0.512296
0.520484
0.529858
0.538297
0.546136
0.551565
0.552508
0.550127
0.544944
0.534934
0.524538
0.508733
0.489446
0.47004
0.450368
0.429198
0.410177
0.387068
0.363817
0.337617
0.31147
0.284968
0.262258
0.239261
0.218979
0.196861
0.179932
0.164486
0.157425
0.150036
0.153867
0.143489
0.141385
0.11101
1.00035
1.0003
1.00035
1.00042
1.00053
1.00067
1.00086
1.00109
1.00138
1.00174
1.00216
1.00266
1.00324
1.00392
1.00469
1.00556
1.00654
1.00761
1.00877
1.01004
1.01138
1.0128
1.01429
1.0158
1.01738
1.019
1.0206
1.02221
1.02386
1.02547
1.02701
1.02858
1.0301
1.03156
1.03294
1.03431
1.03563
1.03691
1.03812
1.03927
1.04045
1.0418
1.0431
1.04456
1.0462
1.0483
1.05361
1.052
1.10299
1.10178
1.09673
1.09541
1.10058
1.11007
1.14634
1.16488
1.25225
1.25122
1.33147
1.30598
1.34146
1.30845
1.27376
1.22035
1.13116
1.03287
0.89508
0.794214
0.705435
0.654299
0.598096
0.55921
0.517715
0.49787
0.473226
0.461818
0.455076
0.452354
0.45293
0.450252
0.451819
0.451383
0.457179
0.464845
0.473603
0.483235
0.492421
0.501474
0.511525
0.518748
0.52459
0.524331
0.521973
0.516751
0.508914
0.498807
0.482328
0.464916
0.447457
0.429601
0.410242
0.391794
0.368234
0.346257
0.321362
0.298836
0.276789
0.256856
0.236723
0.216895
0.19703
0.180053
0.165177
0.157846
0.151414
0.155219
0.150369
0.150128
0.12236
1.00035
1.0003
1.00035
1.00042
1.00053
1.00068
1.00086
1.0011
1.00139
1.00174
1.00217
1.00267
1.00326
1.00394
1.00472
1.0056
1.00659
1.00768
1.00886
1.01014
1.01151
1.01295
1.01448
1.01606
1.01766
1.01934
1.02103
1.0227
1.02442
1.02612
1.02779
1.02939
1.03107
1.03267
1.0342
1.03565
1.03718
1.03863
1.03998
1.0411
1.04215
1.04304
1.04379
1.04415
1.04479
1.04435
1.0489
1.03315
1.12921
1.01858
1.05266
1.06404
1.07759
1.0921
1.10821
1.14002
1.15931
1.24259
1.23614
1.2729
1.18948
1.15793
1.01958
0.916707
0.808072
0.74144
0.683967
0.635899
0.591528
0.561222
0.532877
0.5187
0.497975
0.486688
0.472069
0.464184
0.458597
0.455259
0.454894
0.451639
0.451731
0.45119
0.453659
0.457249
0.462551
0.471592
0.481313
0.488725
0.49754
0.502681
0.507677
0.507088
0.504604
0.498467
0.489231
0.477718
0.462123
0.447058
0.430834
0.412587
0.393332
0.375124
0.353406
0.334465
0.312942
0.293569
0.273897
0.25545
0.235764
0.21678
0.197278
0.180345
0.166059
0.158706
0.153191
0.157697
0.156534
0.157897
0.133082
1.00036
1.0003
1.00035
1.00042
1.00053
1.00068
1.00087
1.0011
1.0014
1.00175
1.00218
1.00269
1.00328
1.00397
1.00476
1.00565
1.00665
1.00775
1.00895
1.01026
1.01166
1.01313
1.01469
1.01633
1.01799
1.01972
1.02148
1.02324
1.025
1.02681
1.02859
1.03032
1.03205
1.03379
1.03547
1.03704
1.03858
1.04017
1.04168
1.04318
1.04455
1.04581
1.04703
1.04785
1.04832
1.04762
1.04919
1.03911
1.08353
1.04685
1.05744
1.06459
1.07261
1.08136
1.09393
1.10717
1.12985
1.1377
1.1323
1.10023
0.987997
0.858417
0.793625
0.730458
0.686308
0.65053
0.620116
0.59522
0.569786
0.555302
0.537725
0.528197
0.517475
0.50797
0.496957
0.486607
0.481003
0.472977
0.470485
0.46553
0.46467
0.462093
0.463107
0.464427
0.467787
0.47453
0.482052
0.487515
0.492998
0.495571
0.496654
0.494951
0.49121
0.484293
0.47507
0.464095
0.450538
0.437668
0.421595
0.4039
0.38581
0.368035
0.348405
0.331805
0.311645
0.293334
0.274128
0.255276
0.234519
0.215776
0.196535
0.180852
0.167888
0.160754
0.156331
0.161258
0.164056
0.168145
0.145275
1.00036
1.0003
1.00035
1.00043
1.00054
1.00068
1.00087
1.00111
1.0014
1.00176
1.00219
1.0027
1.00331
1.004
1.0048
1.0057
1.00671
1.00783
1.00905
1.01038
1.01181
1.01332
1.01492
1.0166
1.01833
1.0201
1.02194
1.0238
1.02563
1.02753
1.02942
1.03127
1.03308
1.03494
1.03674
1.03851
1.04019
1.04181
1.04347
1.04497
1.04631
1.04734
1.04841
1.0494
1.05031
1.05187
1.05457
1.06004
1.09194
1.07958
1.07426
1.07351
1.07201
1.07168
1.07068
1.06887
1.06482
1.03468
0.957731
0.836325
0.769516
0.727018
0.685842
0.669372
0.641273
0.630367
0.610557
0.597265
0.583199
0.573221
0.562458
0.552791
0.544311
0.536189
0.530647
0.520688
0.51551
0.505589
0.500726
0.491519
0.488167
0.48273
0.481085
0.479596
0.479862
0.481817
0.485059
0.488161
0.491083
0.491812
0.491136
0.48688
0.481006
0.473338
0.465488
0.455394
0.444233
0.43249
0.416429
0.399492
0.382313
0.364705
0.346785
0.330202
0.310201
0.291588
0.270684
0.251229
0.231768
0.213919
0.196914
0.182859
0.170937
0.164367
0.161131
0.165826
0.171441
0.177055
0.156642
1.00036
1.0003
1.00035
1.00043
1.00054
1.00068
1.00087
1.00111
1.00141
1.00177
1.00221
1.00272
1.00333
1.00403
1.00484
1.00575
1.00678
1.00791
1.00916
1.01051
1.01198
1.01352
1.01516
1.01689
1.01869
1.02051
1.02243
1.02437
1.02631
1.02826
1.03028
1.03226
1.0342
1.0361
1.03807
1.03995
1.04177
1.04351
1.04519
1.04705
1.04884
1.05076
1.05265
1.0552
1.05765
1.06405
1.05905
1.12156
1.08374
1.08474
1.07855
1.07975
1.07781
1.07622
1.06986
1.05545
1.00855
0.913015
0.790644
0.745272
0.700766
0.672021
0.657979
0.645292
0.636228
0.624978
0.617542
0.610283
0.603662
0.594962
0.587178
0.57742
0.569285
0.560418
0.555144
0.548613
0.543487
0.53512
0.529737
0.519517
0.513952
0.505896
0.50163
0.496673
0.493623
0.491852
0.491746
0.491759
0.491823
0.49015
0.487626
0.482189
0.474653
0.464991
0.456727
0.446803
0.43671
0.424984
0.409883
0.395009
0.379173
0.362277
0.345433
0.328299
0.307565
0.288509
0.267153
0.248921
0.230896
0.214677
0.199355
0.185931
0.174931
0.168844
0.166342
0.17207
0.179382
0.188196
0.169142
1.00036
1.0003
1.00035
1.00043
1.00054
1.00069
1.00088
1.00112
1.00142
1.00178
1.00222
1.00274
1.00335
1.00407
1.00488
1.00581
1.00685
1.008
1.00927
1.01065
1.01214
1.01374
1.01541
1.01719
1.01904
1.02094
1.0229
1.02493
1.02698
1.02901
1.03112
1.03321
1.03528
1.03731
1.03935
1.04139
1.0434
1.04539
1.04731
1.04929
1.05116
1.0529
1.0543
1.05566
1.05521
1.06058
1.04435
1.12354
1.03581
1.05176
1.05798
1.06488
1.06752
1.06405
1.04913
1.01461
0.919189
0.808576
0.742746
0.707137
0.684223
0.66866
0.658295
0.651789
0.643572
0.634821
0.627755
0.623514
0.619243
0.613927
0.608596
0.600764
0.593392
0.585301
0.578626
0.571296
0.565515
0.557671
0.552386
0.543725
0.537298
0.527349
0.520325
0.512087
0.507317
0.502907
0.499839
0.49735
0.494849
0.491708
0.487807
0.480761
0.472976
0.461948
0.452615
0.442302
0.431419
0.419042
0.404668
0.390624
0.374837
0.358405
0.341519
0.324041
0.3038
0.285581
0.265582
0.24907
0.232674
0.217974
0.203695
0.190821
0.180453
0.174973
0.17358
0.178618
0.188143
0.198263
0.180932
1.00036
1.0003
1.00035
1.00043
1.00054
1.00069
1.00088
1.00113
1.00143
1.00179
1.00224
1.00276
1.00338
1.0041
1.00493
1.00586
1.00692
1.00809
1.00939
1.01079
1.01232
1.01397
1.01568
1.01749
1.01942
1.02139
1.02339
1.02551
1.02765
1.02979
1.03195
1.03417
1.03637
1.03852
1.04062
1.04278
1.04487
1.04684
1.04857
1.05026
1.05167
1.05259
1.05327
1.05367
1.05327
1.05477
1.05004
1.08527
1.06374
1.0671
1.06863
1.06937
1.06573
1.05584
1.02566
0.94438
0.846022
0.739813
0.718637
0.693796
0.683085
0.672305
0.666952
0.662301
0.6556
0.646024
0.638795
0.633798
0.629817
0.626151
0.62141
0.615869
0.610487
0.604083
0.597796
0.590617
0.584928
0.57693
0.571404
0.56456
0.55831
0.549259
0.541149
0.530543
0.523644
0.515857
0.509383
0.504777
0.499863
0.494976
0.489147
0.481115
0.472506
0.461615
0.451577
0.44087
0.429307
0.416843
0.403107
0.389559
0.373692
0.357413
0.340291
0.323425
0.304192
0.287534
0.269002
0.25333
0.237554
0.223191
0.208914
0.196054
0.185769
0.180467
0.180415
0.185977
0.197075
0.209654
0.193758
1.00036
1.0003
1.00035
1.00043
1.00054
1.00069
1.00089
1.00113
1.00143
1.0018
1.00225
1.00278
1.00341
1.00414
1.00497
1.00592
1.007
1.00819
1.00951
1.01096
1.0125
1.01418
1.01596
1.0178
1.01979
1.02184
1.02392
1.02607
1.0283
1.03055
1.03277
1.0351
1.03739
1.03966
1.0419
1.04411
1.04634
1.0486
1.05095
1.05321
1.05566
1.05871
1.0622
1.06626
1.07239
1.07393
1.1118
1.10719
1.10075
1.09432
1.08883
1.08623
1.07489
1.05407
0.974433
0.888476
0.770212
0.732613
0.705476
0.699256
0.6848
0.676414
0.671425
0.671538
0.667247
0.661557
0.655179
0.648266
0.64419
0.639725
0.634599
0.630001
0.625832
0.620508
0.61493
0.607899
0.602247
0.594422
0.588928
0.582685
0.576804
0.568877
0.560816
0.549948
0.541347
0.530733
0.521884
0.514328
0.506971
0.500246
0.49273
0.483569
0.474225
0.462733
0.452112
0.440696
0.429087
0.416729
0.403455
0.390119
0.374217
0.358043
0.341152
0.324922
0.30702
0.291491
0.273778
0.258553
0.242818
0.228477
0.214269
0.201557
0.192061
0.18731
0.188199
0.195045
0.207005
0.220695
0.205954
1.00036
1.0003
1.00036
1.00043
1.00055
1.0007
1.00089
1.00114
1.00144
1.00182
1.00227
1.0028
1.00344
1.00417
1.00502
1.00599
1.00708
1.0083
1.00963
1.01111
1.01269
1.01439
1.01623
1.01815
1.02014
1.02227
1.02446
1.02664
1.02898
1.03133
1.03367
1.03602
1.03849
1.04091
1.04326
1.04558
1.04803
1.05034
1.05243
1.05424
1.05584
1.05717
1.05832
1.05739
1.06063
1.0433
1.11892
1.06209
1.07323
1.07904
1.0823
1.07573
1.06013
0.997109
0.894477
0.79057
0.744691
0.717042
0.708695
0.702437
0.693316
0.684698
0.678455
0.677504
0.674744
0.670315
0.664245
0.658793
0.655966
0.650649
0.644827
0.639741
0.635238
0.631704
0.628114
0.62225
0.617613
0.611123
0.605763
0.599294
0.593104
0.585888
0.578454
0.569061
0.56015
0.547811
0.53684
0.526213
0.516611
0.507402
0.498133
0.487636
0.477587
0.46572
0.45477
0.442865
0.431141
0.418879
0.405988
0.393032
0.377301
0.361822
0.345465
0.329756
0.312865
0.297581
0.279991
0.264476
0.248279
0.233869
0.219637
0.20716
0.198095
0.193699
0.195245
0.204061
0.216789
0.232494
0.218885
1.00036
1.0003
1.00036
1.00043
1.00055
1.0007
1.0009
1.00114
1.00145
1.00183
1.00228
1.00283
1.00347
1.00421
1.00507
1.00605
1.00716
1.0084
1.00976
1.01126
1.01289
1.01461
1.0165
1.01848
1.02051
1.0227
1.02496
1.02726
1.02959
1.03206
1.03452
1.03695
1.0394
1.04189
1.04434
1.04668
1.04893
1.05127
1.05347
1.05578
1.05796
1.06007
1.06261
1.06609
1.07031
1.07718
1.11548
1.09996
1.09548
1.09485
1.09163
1.0759
1.02613
0.931932
0.806606
0.763331
0.726515
0.710644
0.704725
0.70294
0.698679
0.693221
0.686155
0.684579
0.681972
0.678182
0.672587
0.667917
0.665134
0.660683
0.655829
0.65045
0.645822
0.642777
0.638931
0.63435
0.630571
0.625048
0.620217
0.61375
0.60791
0.601574
0.594807
0.587354
0.577895
0.565517
0.553517
0.540191
0.528598
0.516878
0.505702
0.493817
0.48251
0.469798
0.45872
0.446078
0.434204
0.42195
0.409229
0.396505
0.380992
0.366161
0.350372
0.334727
0.318152
0.302574
0.284863
0.269452
0.253193
0.239242
0.225417
0.213712
0.205398
0.201981
0.203762
0.214386
0.227151
0.244611
0.231543
1.00036
1.0003
1.00036
1.00044
1.00055
1.0007
1.0009
1.00115
1.00146
1.00184
1.0023
1.00285
1.0035
1.00425
1.00512
1.00612
1.00724
1.0085
1.00989
1.01141
1.01309
1.01485
1.01675
1.01879
1.02092
1.0231
1.02545
1.02785
1.03025
1.03278
1.03534
1.0379
1.0404
1.04306
1.04569
1.04829
1.05085
1.05348
1.05631
1.05922
1.06207
1.065
1.06734
1.07381
1.06457
1.1541
1.09088
1.10465
1.10521
1.10544
1.08755
1.04339
0.950892
0.822492
0.776756
0.758781
0.73428
0.719357
0.713178
0.710485
0.706881
0.699887
0.693298
0.691096
0.68828
0.683731
0.678089
0.674113
0.671735
0.668514
0.663859
0.65843
0.65425
0.651148
0.647356
0.643095
0.639617
0.635153
0.630949
0.625332
0.620062
0.614228
0.607522
0.600329
0.591054
0.580076
0.568968
0.554627
0.541602
0.528334
0.515777
0.501757
0.489198
0.475377
0.463303
0.450021
0.437852
0.425313
0.412668
0.400049
0.385119
0.371085
0.355715
0.340144
0.323752
0.308044
0.290587
0.275356
0.259322
0.245696
0.232275
0.221081
0.213033
0.210129
0.211765
0.224047
0.238042
0.257111
0.244797
1.00036
1.00031
1.00036
1.00044
1.00055
1.00071
1.00091
1.00116
1.00147
1.00186
1.00232
1.00287
1.00353
1.00429
1.00517
1.00618
1.00732
1.0086
1.01002
1.01156
1.01326
1.01509
1.01701
1.01909
1.02129
1.02353
1.02592
1.02838
1.0309
1.03343
1.03608
1.03873
1.04134
1.04389
1.04648
1.04896
1.05127
1.05338
1.05542
1.05723
1.05877
1.06001
1.06131
1.06346
1.06985
1.10718
1.09944
1.09712
1.09921
1.08143
1.04851
0.942246
0.849337
0.768394
0.75482
0.743956
0.732201
0.722012
0.719657
0.718699
0.717296
0.709324
0.70191
0.699168
0.696528
0.69253
0.687194
0.683252
0.680916
0.678577
0.67401
0.669363
0.665495
0.661961
0.657816
0.653356
0.650169
0.645789
0.64146
0.635973
0.63094
0.625366
0.619009
0.612073
0.60342
0.594036
0.583615
0.570452
0.556637
0.541536
0.527709
0.511956
0.497976
0.482542
0.469042
0.454918
0.442231
0.429367
0.416772
0.403953
0.38977
0.376207
0.360783
0.345048
0.32866
0.313262
0.295957
0.281385
0.265731
0.2528
0.239848
0.229309
0.221802
0.219824
0.221667
0.234746
0.249843
0.269972
0.258097
1.00037
1.00031
1.00036
1.00044
1.00056
1.00071
1.00091
1.00117
1.00148
1.00187
1.00234
1.0029
1.00356
1.00433
1.00523
1.00625
1.0074
1.00869
1.01014
1.01171
1.01342
1.0153
1.01727
1.01938
1.02162
1.02395
1.02635
1.02889
1.0315
1.0341
1.03681
1.03956
1.04232
1.04501
1.04775
1.05059
1.0534
1.05617
1.05906
1.06232
1.06582
1.0695
1.07556
1.06987
1.1458
1.10452
1.10856
1.10755
1.09713
1.06657
0.970658
0.871908
0.80583
0.771501
0.755664
0.751066
0.743624
0.733103
0.725394
0.724485
0.722392
0.715121
0.707421
0.704326
0.702065
0.698906
0.693614
0.689937
0.68709
0.684467
0.679599
0.67561
0.67294
0.669191
0.665082
0.660206
0.656739
0.652079
0.648111
0.64368
0.639238
0.634457
0.628836
0.622644
0.614789
0.606771
0.597245
0.585032
0.571849
0.556028
0.540489
0.523326
0.508457
0.491274
0.476144
0.460819
0.447308
0.434205
0.421368
0.40844
0.395062
0.381687
0.36637
0.351383
0.33541
0.320325
0.303566
0.289351
0.274102
0.261528
0.248769
0.23858
0.231173
0.229289
0.231023
0.244563
0.261384
0.282778
0.271706
1.00037
1.00031
1.00036
1.00044
1.00056
1.00072
1.00092
1.00117
1.00149
1.00188
1.00236
1.00292
1.00359
1.00438
1.00528
1.00631
1.00749
1.00879
1.01026
1.01186
1.0136
1.0155
1.01752
1.01965
1.02193
1.02433
1.02677
1.02936
1.03202
1.03473
1.03744
1.04023
1.04302
1.04573
1.04835
1.05097
1.05338
1.05563
1.05744
1.05916
1.06072
1.06228
1.06393
1.07339
1.10804
1.10011
1.09139
1.09141
1.05161
0.983657
0.853637
0.809018
0.778689
0.753415
0.746932
0.748132
0.749363
0.739589
0.730451
0.727397
0.725879
0.722316
0.716113
0.712901
0.711338
0.708736
0.703611
0.699473
0.696184
0.692532
0.687786
0.683793
0.681373
0.676903
0.672553
0.667879
0.66448
0.65982
0.656174
0.652354
0.648318
0.643801
0.638694
0.632949
0.625992
0.618805
0.609631
0.5984
0.585753
0.570729
0.55473
0.536331
0.520249
0.501247
0.485126
0.468415
0.454045
0.440196
0.426802
0.413932
0.400959
0.387879
0.37275
0.358495
0.342882
0.328111
0.311774
0.297897
0.282746
0.270461
0.257781
0.248
0.241007
0.239498
0.241707
0.255988
0.273709
0.29621
0.285528
1.00037
1.00031
1.00036
1.00044
1.00056
1.00072
1.00092
1.00118
1.0015
1.0019
1.00238
1.00295
1.00362
1.00441
1.00533
1.00638
1.00756
1.00889
1.01037
1.012
1.01376
1.01568
1.01774
1.0199
1.02222
1.02466
1.02717
1.02979
1.03251
1.03529
1.03808
1.04094
1.04383
1.04674
1.04959
1.05241
1.05547
1.05844
1.06152
1.06466
1.06842
1.07479
1.06871
1.15193
1.0862
1.0891
1.08853
1.05151
0.983023
0.898566
0.801555
0.790207
0.783442