/*--------------------------------*- C++ -*----------------------------------*\
| =========                 |                                                 |
| \\      /  F ield         | OpenFOAM: The Open Source CFD Toolbox           |
|  \\    /   O peration     | Version:  2.2.x                                 |
|   \\  /    A nd           | Web:      www.OpenFOAM.org                      |
|    \\/     M anipulation  |                                                 |
\*---------------------------------------------------------------------------*/
FoamFile
{
    version     2.0;
    format      ascii;
    class       volScalarField;
    location    "0.8";
    object      rho;
}
// * * * * * * * * * * * * * * * * * * * * * * * * * * * * * * * * * * * * * //

dimensions      [1 -3 0 0 0 0 0];

internalField   nonuniform List<scalar> 
14161
(
0.999756
0.999764
0.999737
0.99969
0.999618
0.999518
0.999387
0.99922
0.999012
0.998758
0.998453
0.998091
0.997668
0.99718
0.996624
0.995998
0.995304
0.994544
0.993723
0.992844
0.991919
0.990952
0.98996
0.988958
0.987923
0.986934
0.986005
0.985028
0.984094
0.983311
0.982609
0.981962
0.981384
0.980936
0.980547
0.980171
0.979788
0.97957
0.979561
0.979606
0.97972
0.97988
0.980036
0.98018
0.980126
0.980409
0.978403
0.980677
0.959591
1.27197
2.46617
2.69018
2.80109
2.8214
2.81751
2.77837
2.74279
2.69046
2.64139
2.59234
2.55286
2.51231
2.47727
2.44539
2.41646
2.39284
2.3748
2.36073
2.351
2.34398
2.33971
2.33923
2.34547
2.3595
2.37771
2.40815
2.43802
2.48458
2.55161
2.62212
2.69659
2.80146
2.879
2.9166
2.96238
2.97038
2.9751
2.97369
2.97336
2.98278
2.98842
2.99097
2.98973
2.98197
2.97341
2.97006
2.96767
2.9649
2.96141
2.95976
2.95949
2.96104
2.96165
2.96175
2.95955
2.95741
2.95366
2.95034
2.94521
2.94199
2.93662
2.93596
2.93285
2.93318
2.93285
2.93511
2.93824
2.95357
2.95367
0.999755
0.999764
0.999737
0.999689
0.999617
0.999517
0.999385
0.999218
0.99901
0.998756
0.998451
0.998089
0.997665
0.997177
0.99662
0.995994
0.995299
0.994538
0.993716
0.992836
0.991913
0.990945
0.989946
0.988945
0.987919
0.986915
0.98596
0.984993
0.984069
0.983299
0.982604
0.981952
0.981348
0.98089
0.980494
0.98014
0.979786
0.979661
0.979687
0.979788
0.979984
0.980271
0.980638
0.981147
0.98207
0.984203
0.984549
0.991982
0.97609
1.43829
2.45524
2.71626
2.74938
2.71807
2.69119
2.64288
2.59501
2.542
2.49682
2.46135
2.42416
2.39226
2.36663
2.34802
2.32958
2.31155
2.29948
2.29251
2.28874
2.2866
2.28902
2.29484
2.30497
2.3258
2.34831
2.3802
2.41128
2.45776
2.49495
2.57345
2.64084
2.73334
2.80726
2.85775
2.91812
2.94306
2.96013
2.96377
2.96654
2.97271
2.98378
2.98947
2.99144
2.98968
2.98306
2.97629
2.97286
2.97075
2.96825
2.96507
2.96348
2.96374
2.96488
2.9671
2.96669
2.96577
2.96305
2.96034
2.95627
2.95281
2.94755
2.94561
2.94141
2.94101
2.9398
2.94153
2.94202
2.9536
2.95624
0.999755
0.999764
0.999736
0.999689
0.999616
0.999517
0.999385
0.999218
0.99901
0.998756
0.99845
0.998088
0.997664
0.997175
0.996619
0.995992
0.995298
0.994536
0.993713
0.992834
0.991905
0.990944
0.989943
0.988925
0.987903
0.9869
0.985993
0.985054
0.984091
0.983285
0.982567
0.981877
0.981277
0.980799
0.980408
0.98001
0.979587
0.9793
0.979153
0.979087
0.979042
0.979016
0.978954
0.978851
0.978673
0.979057
0.978335
0.98045
0.965737
1.55656
2.41843
2.69381
2.70849
2.65244
2.59977
2.5399
2.50256
2.46043
2.42739
2.39759
2.37992
2.3538
2.32226
2.29722
2.27951
2.26354
2.24255
2.22834
2.22446
2.22594
2.22532
2.22588
2.22789
2.24754
2.26919
2.31303
2.35227
2.39952
2.43743
2.48827
2.52367
2.58177
2.63066
2.68311
2.76442
2.83162
2.8818
2.91194
2.92958
2.9432
2.96329
2.97662
2.97997
2.97967
2.97465
2.96872
2.96663
2.96636
2.96529
2.96318
2.95959
2.95841
2.95888
2.96267
2.96416
2.96444
2.96258
2.95987
2.95642
2.95304
2.94839
2.9461
2.94151
2.94139
2.94019
2.9416
2.93828
2.94803
2.95211
0.999754
0.999763
0.999736
0.999688
0.999615
0.999515
0.999384
0.999216
0.999008
0.998753
0.998447
0.998085
0.99766
0.997171
0.996613
0.995986
0.995289
0.994527
0.993701
0.99282
0.991887
0.990915
0.989912
0.988903
0.98794
0.986908
0.985875
0.984898
0.98399
0.983207
0.982501
0.981838
0.981229
0.980788
0.980403
0.980068
0.979708
0.979529
0.979528
0.97961
0.979785
0.980051
0.98047
0.981026
0.981704
0.98282
0.983732
0.987087
0.978058
1.41669
2.24456
2.60055
2.62421
2.55995
2.52045
2.4939
2.47261
2.44187
2.41352
2.38544
2.36829
2.34023
2.30609
2.28433
2.26862
2.25445
2.23645
2.2196
2.2147
2.21442
2.21787
2.21868
2.21446
2.22611
2.2377
2.276
2.30623
2.35441
2.402
2.43736
2.45732
2.49125
2.50882
2.532
2.58795
2.65682
2.74217
2.81854
2.8703
2.89892
2.92836
2.94929
2.96354
2.96753
2.96626
2.96235
2.95887
2.95914
2.96068
2.96278
2.96167
2.95966
2.95808
2.95854
2.96108
2.96467
2.96571
2.96517
2.96336
2.96041
2.95673
2.95396
2.94772
2.94708
2.94319
2.9438
2.93874
2.94534
2.95402
0.999754
0.999763
0.999736
0.999688
0.999615
0.999515
0.999383
0.999216
0.999007
0.998752
0.998446
0.998083
0.997658
0.997168
0.99661
0.995982
0.995284
0.994521
0.993693
0.992811
0.991877
0.990918
0.989911
0.988861
0.987848
0.986827
0.985839
0.98495
0.984038
0.983187
0.982434
0.981717
0.981121
0.980617
0.980135
0.979665
0.979164
0.97879
0.978547
0.978334
0.978118
0.977896
0.977565
0.97714
0.97659
0.976094
0.974439
0.971346
0.972681
1.12917
1.88241
2.52145
2.5308
2.49204
2.46959
2.44824
2.43084
2.4035
2.38823
2.36699
2.33666
2.31577
2.28791
2.26958
2.24586
2.23256
2.2132
2.20401
2.19545
2.19265
2.19517
2.19827
2.19492
2.2018
2.20828
2.23874
2.26746
2.30784
2.35451
2.39148
2.40423
2.41834
2.43905
2.453
2.49098
2.53219
2.58115
2.64492
2.7295
2.80382
2.85864
2.89764
2.92181
2.9431
2.94933
2.94993
2.94736
2.94528
2.94592
2.94984
2.95638
2.9596
2.95833
2.95688
2.95683
2.95811
2.96193
2.96503
2.96536
2.96393
2.96191
2.95874
2.9532
2.95116
2.94392
2.94307
2.93461
2.93839
2.95018
0.999754
0.999762
0.999735
0.999687
0.999614
0.999514
0.999382
0.999214
0.999005
0.99875
0.998443
0.998079
0.997653
0.997162
0.996602
0.995972
0.995272
0.994506
0.993676
0.992789
0.991851
0.990867
0.989864
0.988836
0.987859
0.986815
0.985756
0.9848
0.983906
0.983028
0.982249
0.981543
0.980965
0.980499
0.980048
0.979625
0.97928
0.979066
0.979028
0.979068
0.979153
0.979281
0.979422
0.9796
0.979576
0.979359
0.978763
0.976822
0.981153
1.02177
1.66702
2.67355
2.57975
2.51111
2.46171
2.42353
2.3935
2.36654
2.34657
2.32477
2.29615
2.27856
2.25127
2.23688
2.2136
2.20168
2.18302
2.17873
2.17127
2.17218
2.16741
2.16792
2.16927
2.16779
2.18718
2.20622
2.24587
2.28628
2.31913
2.34684
2.36978
2.37071
2.39249
2.3918
2.4114
2.43043
2.46138
2.51177
2.57131
2.64988
2.74212
2.81913
2.86096
2.89635
2.91998
2.93561
2.94095
2.94244
2.94214
2.94195
2.94514
2.95324
2.96194
2.96569
2.96723
2.96768
2.96927
2.97135
2.97521
2.97428
2.97372
2.97022
2.96551
2.96052
2.94976
2.94748
2.9353
2.93592
2.94765
0.999754
0.999762
0.999735
0.999687
0.999614
0.999513
0.999381
0.999213
0.999003
0.998748
0.998441
0.998076
0.99765
0.997157
0.996596
0.995965
0.995264
0.994496
0.993662
0.992774
0.99183
0.990856
0.989855
0.988798
0.987733
0.986715
0.985711
0.984787
0.983892
0.982956
0.982127
0.981375
0.980725
0.980152
0.979603
0.979053
0.978538
0.978095
0.977793
0.977519
0.977251
0.976998
0.976731
0.976502
0.97624
0.976359
0.976295
0.975874
0.979221
1.00331
1.87723
2.73334
2.6285
2.5199
2.44614
2.39442
2.3569
2.33273
2.30398
2.28513
2.26337
2.23675
2.21854
2.19675
2.18045
2.16014
2.14824
2.13807
2.13357
2.12766
2.12664
2.12201
2.12851
2.12575
2.1511
2.17165
2.22038
2.25276
2.27685
2.28269
2.29734
2.30278
2.3184
2.32419
2.34542
2.35574
2.37044
2.39364
2.42222
2.47762
2.5725
2.6809
2.7656
2.8256
2.86872
2.90412
2.9266
2.94304
2.95151
2.95401
2.95668
2.96194
2.96805
2.97721
2.98411
2.9866
2.98664
2.98714
2.99128
2.99024
2.9914
2.9873
2.9812
2.97176
2.95613
2.94873
2.93236
2.92908
2.94329
0.999754
0.999762
0.999734
0.999686
0.999613
0.999512
0.999379
0.999211
0.999001
0.998745
0.998437
0.998071
0.997644
0.99715
0.996586
0.995952
0.995248
0.994475
0.993638
0.992741
0.991797
0.990798
0.989775
0.988735
0.98766
0.986676
0.985671
0.98461
0.983689
0.982788
0.981948
0.981192
0.980551
0.979964
0.979402
0.978891
0.978567
0.978276
0.978213
0.978234
0.9783
0.978464
0.978701
0.979155
0.979951
0.980613
0.981976
0.984522
0.990155
1.01377
2.06928
2.69618
2.63663
2.52661
2.45375
2.40365
2.36132
2.33539
2.30946
2.30028
2.27586
2.24848
2.23174
2.20916
2.19419
2.17199
2.16215
2.14987
2.1484
2.14144
2.1429
2.13786
2.14497
2.14182
2.17545
2.19745
2.22891
2.2509
2.26445
2.25867
2.26254
2.25759
2.26603
2.2648
2.27162
2.27394
2.2819
2.29308
2.30861
2.35217
2.42612
2.54899
2.66599
2.76113
2.82831
2.87552
2.9141
2.9465
2.971
2.98469
2.98742
2.98884
2.99039
2.99568
3.00747
3.01564
3.01623
3.01563
3.01723
3.01637
3.0197
3.01382
3.00486
2.98836
2.96485
2.95177
2.93069
2.92468
2.93969
0.999753
0.999761
0.999734
0.999685
0.999612
0.999511
0.999378
0.999209
0.998999
0.998742
0.998434
0.998067
0.997638
0.997143
0.996578
0.995942
0.995234
0.994458
0.993615
0.992715
0.991761
0.990758
0.989746
0.988693
0.98757
0.986534
0.985561
0.98446
0.983484
0.982626
0.981754
0.980902
0.980191
0.979523
0.978854
0.978182
0.977649
0.977157
0.976739
0.976491
0.976297
0.976107
0.976139
0.9763
0.976819
0.977761
0.979711
0.981158
0.98471
1.01396
2.0941
2.68976
2.65505
2.54708
2.48006
2.41554
2.37657
2.33665
2.32611
2.30264
2.2557
2.2418
2.22549
2.20179
2.18545
2.16259
2.15082
2.13805
2.13596
2.12912
2.13093
2.12677
2.13337
2.13396
2.16805
2.20416
2.22935
2.24756
2.24452
2.23841
2.24057
2.22748
2.22497
2.21964
2.22323
2.218
2.2209
2.22805
2.24394
2.28472
2.35521
2.4692
2.61046
2.71812
2.79824
2.85713
2.90068
2.9406
2.97019
2.99643
3.01615
3.0257
3.02927
3.0338
3.04376
3.05821
3.06338
3.06119
3.05734
3.05149
3.0509
3.04308
3.0326
3.00989
2.97817
2.95712
2.93047
2.91929
2.93505
0.999753
0.999761
0.999733
0.999685
0.999611
0.99951
0.999376
0.999207
0.998996
0.998739
0.998429
0.998061
0.99763
0.997133
0.996565
0.995925
0.995214
0.994431
0.993584
0.992673
0.991712
0.990699
0.989657
0.988623
0.987497
0.98638
0.985386
0.984323
0.983268
0.982379
0.981514
0.980622
0.979853
0.979183
0.978566
0.977939
0.977434
0.977126
0.976879
0.976838
0.976873
0.976968
0.977184
0.977603
0.978231
0.978594
0.979764
0.9804
0.983505
1.00429
2.00942
2.63147
2.62637
2.55788
2.49422
2.43091
2.37297
2.32986
2.32237
2.30125
2.24485
2.22946
2.21243
2.19264
2.16198
2.14688
2.12347
2.11633
2.10992
2.11085
2.10587
2.10634
2.10258
2.11781
2.14206
2.2106
2.21963
2.24564
2.23817
2.22246
2.23261
2.2223
2.2136
2.21892
2.21806
2.20675
2.20826
2.21401
2.23487
2.28238
2.36153
2.47874
2.60977
2.72617
2.79888
2.85667
2.90316
2.94242
2.96937
2.99315
3.01433
3.02595
3.02975
3.03364
3.0411
3.05347
3.06166
3.06153
3.06056
3.05697
3.06003
3.05475
3.04731
3.02447
2.99223
2.96179
2.92918
2.91298
2.92953
0.999753
0.999761
0.999733
0.999684
0.99961
0.999509
0.999375
0.999205
0.998994
0.998736
0.998425
0.998056
0.997623
0.997124
0.996553
0.995909
0.995194
0.994406
0.993552
0.992635
0.991663
0.990646
0.989572
0.988487
0.987392
0.986269
0.985245
0.984208
0.983044
0.982044
0.981196
0.980284
0.979353
0.97857
0.977863
0.977108
0.976345
0.975759
0.975259
0.974927
0.974624
0.974321
0.974052
0.97399
0.974148
0.97449
0.975162
0.976032
0.980455
1.00716
1.96509
2.48864
2.55844
2.53706
2.48727
2.4382
2.36904
2.32873
2.32135
2.30036
2.21849
2.21788
2.20647
2.17401
2.15561
2.13456
2.12075
2.09827
2.1012
2.09784
2.09912
2.08761
2.09377
2.10035
2.14262
2.19871
2.21676
2.22855
2.27129
2.24847
2.23338
2.23094
2.22092
2.22178
2.23641
2.23834
2.24787
2.26607
2.30813
2.37736
2.47246
2.57474
2.67261
2.75933
2.81952
2.86935
2.91055
2.942
2.96946
2.9978
3.02084
3.0355
3.04113
3.04554
3.0513
3.06059
3.07006
3.07111
3.07134
3.0674
3.07217
3.06869
3.06312
3.04024
3.00507
2.96613
2.92715
2.90581
2.92251
0.999752
0.99976
0.999732
0.999683
0.999609
0.999507
0.999373
0.999203
0.998991
0.998731
0.998419
0.998048
0.997614
0.997111
0.996537
0.995889
0.995168
0.994373
0.99351
0.992582
0.991594
0.990559
0.989477
0.988385
0.987316
0.986115
0.984964
0.983952
0.982839
0.981711
0.980801
0.979956
0.978971
0.97806
0.977329
0.976696
0.976029
0.97541
0.975108
0.974926
0.974775
0.974606
0.974463
0.974411
0.974469
0.974217
0.973661
0.974259
0.979513
1.05423
1.9055
2.2929
2.437
2.4482
2.43621
2.40979
2.34404
2.30519
2.28167
2.25104
2.18253
2.1903
2.16658
2.15388
2.11665
2.12066
2.10131
2.08867
2.08924
2.1013
2.10033
2.08511
2.10421
2.12762
2.18387
2.24723
2.28702
2.28597
2.31898
2.31979
2.31371
2.31115
2.31906
2.32761
2.35373
2.37933
2.40748
2.44205
2.48626
2.54562
2.61257
2.68041
2.74873
2.80948
2.8517
2.88814
2.9192
2.94485
2.97127
2.99898
3.02145
3.03634
3.04468
3.05057
3.05683
3.06664
3.07795
3.07991
3.08078
3.07597
3.08031
3.07678
3.07152
3.0492
3.01549
2.97005
2.92494
2.89788
2.91448
0.999752
0.99976
0.999732
0.999683
0.999608
0.999506
0.999371
0.9992
0.998988
0.998727
0.998414
0.998041
0.997604
0.997099
0.996521
0.995868
0.995142
0.99434
0.993467
0.99253
0.991528
0.990484
0.989385
0.988229
0.987132
0.985986
0.984737
0.983641
0.982593
0.981386
0.980311
0.979425
0.978472
0.977352
0.976455
0.975716
0.974991
0.974118
0.973419
0.972881
0.972368
0.971818
0.971008
0.97002
0.969049
0.968926
0.968069
0.969475
0.977547
1.22788
1.92915
2.10841
2.23579
2.29929
2.35155
2.36053
2.31066
2.26753
2.21612
2.19143
2.13407
2.13534
2.10953
2.10286
2.07236
2.0884
2.07259
2.05954
2.0729
2.09658
2.10152
2.10971
2.19695
2.28605
2.38403
2.47753
2.5079
2.51137
2.51894
2.52127
2.51934
2.52397
2.5325
2.54737
2.57366
2.59538
2.61581
2.64653
2.67824
2.70015
2.72154
2.75331
2.79334
2.82886
2.86474
2.90109
2.93048
2.95209
2.97546
2.99876
3.02121
3.0357
3.04442
3.04949
3.05693
3.06872
3.08262
3.08646
3.08879
3.08365
3.08875
3.08437
3.07817
3.05465
3.02201
2.97257
2.92299
2.89013
2.90609
0.999752
0.999759
0.999731
0.999682
0.999607
0.999504
0.999369
0.999198
0.998984
0.998722
0.998407
0.998032
0.997593
0.997083
0.996502
0.995843
0.995109
0.994299
0.993415
0.992465
0.991451
0.990375
0.989267
0.988101
0.986926
0.985806
0.98454
0.983314
0.982241
0.981074
0.979849
0.978827
0.977924
0.976871
0.975783
0.974939
0.974247
0.973634
0.972895
0.972257
0.971938
0.97176
0.971439
0.971134
0.971052
0.971068
0.971217
0.974722
0.990217
1.52243
1.94873
2.03792
2.09074
2.16363
2.2278
2.27209
2.27004
2.21325
2.14053
2.16249
2.13617
2.11531
2.11358
2.08373
2.08936
2.09472
2.10198
2.08545
2.14849
2.23802
2.32561
2.42278
2.54044
2.65383
2.68384
2.74396
2.73639
2.7524
2.76653
2.76684
2.75504
2.74904
2.73319
2.73044
2.72967
2.73724
2.74712
2.75086
2.75503
2.76147
2.77345
2.79484
2.82162
2.84966
2.8801
2.91005
2.93222
2.95261
2.97528
2.99615
3.01551
3.02846
3.03757
3.04462
3.05421
3.06743
3.08221
3.08673
3.09159
3.0874
3.09281
3.08901
3.08259
3.05902
3.02711
2.9749
2.92077
2.88115
2.89657
0.999752
0.999759
0.999731
0.999681
0.999606
0.999503
0.999367
0.999195
0.99898
0.998717
0.9984
0.998023
0.997581
0.997068
0.996482
0.995817
0.995075
0.994257
0.993362
0.992399
0.991369
0.990271
0.989156
0.987967
0.986697
0.985552
0.98435
0.982985
0.981792
0.980731
0.979454
0.978172
0.977148
0.976187
0.974917
0.97376
0.972898
0.972221
0.971498
0.970495
0.969639
0.969027
0.968454
0.967866
0.967824
0.96764
0.968026
0.971322
1.00484
1.75591
2.01659
2.03529
2.04145
2.06101
2.11665
2.18431
2.24111
2.24131
2.19298
2.20632
2.13658
2.1275
2.13611
2.11705
2.15646
2.21467
2.30135
2.39432
2.51097
2.64354
2.7226
2.76681
2.78466
2.8331
2.83391
2.84962
2.84069
2.85017
2.85405
2.85247
2.84053
2.82308
2.79982
2.78666
2.78274
2.78442
2.78878
2.78687
2.78828
2.79491
2.80847
2.82948
2.85295
2.87337
2.89253
2.9134
2.93176
2.95241
2.97366
2.99045
3.00654
3.01891
3.02912
3.03798
3.04879
3.06343
3.08034
3.08704
3.09164
3.0879
3.09345
3.08904
3.0824
3.05953
3.02897
2.97596
2.91754
2.87183
2.8865
0.999751
0.999759
0.99973
0.99968
0.999605
0.999501
0.999365
0.999192
0.998976
0.998711
0.998393
0.998013
0.997567
0.99705
0.996458
0.995787
0.995036
0.994208
0.9933
0.992318
0.991274
0.990146
0.988998
0.987827
0.98649
0.985214
0.984076
0.982705
0.981325
0.980198
0.979022
0.977562
0.976346
0.975373
0.974349
0.972993
0.971841
0.97101
0.970306
0.969477
0.968211
0.966573
0.965406
0.964133
0.963512
0.962289
0.962233
0.965268
1.10348
1.89902
2.03533
2.03466
2.02673
2.02227
2.03387
2.06724
2.12591
2.17035
2.17443
2.18908
2.12484
2.19043
2.25422
2.30013
2.42136
2.54454
2.68014
2.76098
2.78993
2.83126
2.83905
2.84156
2.82268
2.83952
2.84138
2.84981
2.84809
2.85355
2.85797
2.85787
2.85104
2.84096
2.82872
2.81922
2.81411
2.814
2.81127
2.80853
2.80985
2.81709
2.83211
2.85199
2.87228
2.88834
2.9011
2.91571
2.93334
2.95392
2.97099
2.98545
3.00035
3.01235
3.0227
3.03205
3.04457
3.061
3.07938
3.08581
3.08986
3.08607
3.09251
3.08716
3.0814
3.05886
3.02957
2.97577
2.91387
2.86206
2.87635
0.999751
0.999758
0.999729
0.999679
0.999603
0.999499
0.999363
0.999188
0.998971
0.998705
0.998385
0.998002
0.997553
0.997032
0.996434
0.995756
0.994996
0.994157
0.993235
0.992237
0.991171
0.990025
0.988816
0.987638
0.986324
0.984919
0.983692
0.982414
0.980904
0.979589
0.97845
0.977084
0.975534
0.974347
0.973348
0.972158
0.970548
0.96937
0.968676
0.967987
0.967081
0.965325
0.964482
0.96408
0.964394
0.964045
0.966527
0.971465
1.35494
1.99463
2.00885
2.01176
2.00703
2.00931
2.0077
2.02457
2.04911
2.10289
2.16544
2.22554
2.32384
2.39221
2.53038
2.63706
2.70022
2.7283
2.76574
2.79558
2.80051
2.82012
2.82346
2.82459
2.81407
2.8258
2.8301
2.83763
2.84124
2.84536
2.84918
2.84932
2.84464
2.83595
2.82747
2.8215
2.81875
2.82106
2.82315
2.828
2.83355
2.84081
2.85243
2.86849
2.88507
2.89709
2.90722
2.92175
2.93973
2.9558
2.96873
2.98104
2.99381
3.00535
3.0161
3.02616
3.03966
3.05554
3.07428
3.0816
3.08536
3.0821
3.08936
3.08432
3.07887
3.05715
3.02843
2.97403
2.90958
2.85196
2.86564
0.99975
0.999758
0.999729
0.999678
0.999602
0.999498
0.99936
0.999185
0.998966
0.998699
0.998376
0.99799
0.997537
0.997011
0.996406
0.995721
0.99495
0.994098
0.993163
0.992144
0.991057
0.989889
0.988642
0.987404
0.986133
0.98465
0.983262
0.982036
0.98055
0.978978
0.977726
0.976506
0.974878
0.973351
0.972236
0.971215
0.969856
0.968136
0.967014
0.96632
0.965519
0.964104
0.962229
0.960816
0.960673
0.960447
0.963292
0.98301
1.61862
2.02387
2.04374
2.03449
2.02683
2.02242
2.02272
2.02729
2.04969
2.13275
2.30742
2.48273
2.64422
2.70028
2.73351
2.73735
2.75099
2.76852
2.77479
2.78033
2.77814
2.79069
2.79487
2.79478
2.78678
2.79079
2.79552
2.80461
2.81503
2.82459
2.83284
2.83712
2.83596
2.83205
2.82716
2.8225
2.82159
2.82557
2.83206
2.84099
2.84875
2.85566
2.86543
2.87905
2.89479
2.90966
2.92163
2.93352
2.94264
2.95178
2.96005
2.9687
2.9795
2.99141
3.0038
3.01521
3.03109
3.04931
3.06845
3.07597
3.07992
3.07555
3.08457
3.08084
3.07523
3.0546
3.02597
2.97134
2.90396
2.84093
2.85446
0.99975
0.999757
0.999728
0.999677
0.999601
0.999496
0.999357
0.999181
0.998961
0.998692
0.998366
0.997978
0.997521
0.996989
0.996378
0.995684
0.994904
0.994038
0.993089
0.99205
0.990937
0.989757
0.988473
0.987147
0.985898
0.984412
0.982845
0.98154
0.980169
0.978425
0.976935
0.975712
0.974345
0.972485
0.971017
0.969925
0.96887
0.967197
0.965357
0.964408
0.963947
0.963407
0.96249
0.961299
0.959653
0.959536
0.962095
1.01092
1.81829
2.05964
2.06957
2.06413
2.05765
2.05276
2.05324
2.06979
2.13272
2.30212
2.57689
2.7593
2.77222
2.77646
2.7683
2.76724
2.76414
2.7629
2.75671
2.75467
2.75128
2.75584
2.75685
2.75755
2.75503
2.75372
2.75575
2.76139
2.77387
2.78827
2.80154
2.81083
2.81524
2.81829
2.81776
2.81724
2.81885
2.8246
2.83532
2.84521
2.85425
2.86277
2.87318
2.88923
2.9052
2.91873
2.92838
2.93445
2.94011
2.94467
2.949
2.95543
2.96587
2.97856
2.993
3.00581
3.02386
3.04364
3.06183
3.06858
3.07322
3.06875
3.07932
3.07635
3.07063
3.05039
3.02208
2.96728
2.89842
2.83004
2.84335
0.999749
0.999756
0.999727
0.999677
0.999599
0.999494
0.999354
0.999177
0.998956
0.998684
0.998356
0.997964
0.997502
0.996965
0.996347
0.995643
0.994854
0.993971
0.993008
0.991949
0.9908
0.989621
0.988309
0.986888
0.985585
0.984171
0.982477
0.980998
0.979674
0.977959
0.976163
0.974802
0.97356
0.971802
0.969856
0.968571
0.967543
0.966386
0.96434
0.962382
0.961335
0.960994
0.960418
0.958948
0.953322
0.952124
0.95548
1.15111
1.93451
2.06508
2.07694
2.07146
2.06503
2.06178
2.07079
2.11536
2.24672
2.52284
2.7513
2.78267
2.76687
2.76352
2.76311
2.75662
2.75317
2.74842
2.7399
2.73481
2.7275
2.72704
2.72573
2.72462
2.72349
2.72493
2.72765
2.73088
2.74258
2.75436
2.7673
2.78205
2.79086
2.79958
2.8023
2.80505
2.80925
2.81916
2.83267
2.84438
2.85488
2.86559
2.87828
2.89329
2.90601
2.91915
2.92882
2.93412
2.93737
2.93979
2.94287
2.94833
2.95756
2.96924
2.98333
2.99746
3.01735
3.03746
3.05446
3.05989
3.06594
3.06231
3.07348
3.07103
3.06502
3.04484
3.01681
2.96197
2.89142
2.81814
2.83197
0.999749
0.999756
0.999727
0.999675
0.999598
0.999491
0.999351
0.999173
0.99895
0.998676
0.998345
0.99795
0.997484
0.99694
0.996315
0.995601
0.994801
0.993905
0.992923
0.99185
0.990663
0.989452
0.988169
0.986671
0.985234
0.983895
0.982184
0.980477
0.979076
0.977535
0.975538
0.973897
0.972562
0.971141
0.969001
0.967181
0.965924
0.964898
0.963527
0.961026
0.958925
0.958247
0.957932
0.957703
0.955827
0.957922
0.966629
1.44646
1.98113
2.03545
2.0454
2.04785
2.05158
2.062
2.09884
2.21249
2.467
2.72298
2.803
2.77279
2.74951
2.75467
2.75225
2.74469
2.7374
2.73311
2.73017
2.72659
2.71764
2.71187
2.70535
2.70307
2.70513
2.70771
2.71043
2.71387
2.72238
2.73062
2.74085
2.75362
2.76528
2.77739
2.784
2.79102
2.79855
2.81129
2.82694
2.84125
2.85357
2.86609
2.87918
2.89348
2.90514
2.91724
2.92602
2.93095
2.93367
2.93566
2.93815
2.94265
2.95039
2.96042
2.97331
2.9884
3.01049
3.02961
3.04586
3.0502
3.05751
3.05498
3.0665
3.06443
3.05804
3.03815
3.00981
2.95525
2.88448
2.80727
2.82085
0.999748
0.999755
0.999726
0.999674
0.999596
0.999489
0.999348
0.999168
0.998944
0.998668
0.998334
0.997935
0.997464
0.996914
0.996281
0.995557
0.994744
0.993834
0.992827
0.991748
0.990529
0.989245
0.988005
0.986474
0.984878
0.983524
0.98191
0.980012
0.978462
0.977019
0.975033
0.973044
0.971561
0.970227
0.968314
0.965994
0.96452
0.963505
0.962511
0.961061
0.958819
0.95761
0.957393
0.957537
0.95848
0.962418
0.997026
1.72012
2.01851
2.04441
2.04927
2.05472
2.06793
2.10178
2.20268
2.4308
2.69338
2.8035
2.79886
2.74801
2.73823
2.74346
2.73297
2.72036
2.7119
2.71121
2.71284
2.71197
2.70584
2.69706
2.68788
2.68592
2.68882
2.69267
2.69722
2.69767
2.70245
2.70794
2.71562
2.72486
2.73679
2.74943
2.76011
2.77213
2.78353
2.79857
2.81541
2.83261
2.84771
2.86274
2.87691
2.89117
2.90215
2.91231
2.91943
2.92446
2.92797
2.9303
2.93302
2.93703
2.94324
2.95191
2.96512
2.98137
3.00391
3.02049
3.03518
3.03941
3.04888
3.04807
3.05891
3.05669
3.05018
3.03054
3.00247
2.94838
2.87635
2.79542
2.80972
0.999747
0.999755
0.999725
0.999673
0.999595
0.999487
0.999345
0.999164
0.998937
0.998659
0.998322
0.997919
0.997443
0.996886
0.996245
0.995512
0.994684
0.993763
0.992732
0.991635
0.99042
0.989046
0.987743
0.986325
0.984605
0.983071
0.981592
0.97966
0.977838
0.976353
0.97462
0.972388
0.970635
0.969234
0.967692
0.965226
0.963136
0.961787
0.960878
0.959553
0.956925
0.952516
0.950181
0.946715
0.94715
0.95412
1.11014
1.87862
2.0382
2.05984
2.05889
2.06058
2.08091
2.15794
2.36705
2.63683
2.77159
2.8027
2.76789
2.73372
2.73527
2.74134
2.72499
2.70731
2.69639
2.6958
2.69703
2.6977
2.69367
2.68613
2.67917
2.67634
2.67749
2.67911
2.68194
2.67984
2.68229
2.68576
2.69113
2.69693
2.70655
2.71741
2.72949
2.74511
2.76146
2.78043
2.79772
2.81835
2.83657
2.85489
2.87084
2.88539
2.8963
2.90472
2.9106
2.91654
2.92205
2.92559
2.92861
2.93224
2.93771
2.94633
2.95977
2.97581
2.99661
3.00994
3.02341
3.02885
3.04004
3.04061
3.05045
3.04783
3.04117
3.02188
2.99454
2.94018
2.86801
2.7847
2.79896
0.999746
0.999754
0.999724
0.999672
0.999593
0.999484
0.999341
0.999159
0.998931
0.99865
0.99831
0.997902
0.997421
0.996858
0.996207
0.995466
0.994623
0.993688
0.99264
0.991497
0.990311
0.988908
0.987437
0.986101
0.98442
0.982626
0.981127
0.979394
0.977296
0.975566
0.974031
0.971932
0.969688
0.968075
0.96666
0.964613
0.961906
0.960271
0.959364
0.958349
0.956861
0.953314
0.9525
0.952023
0.955346
0.970348
1.44928
1.95811
2.01207
2.02237
2.0311
2.05274
2.1208
2.30468
2.59173
2.74401
2.75865
2.76639
2.73143
2.7144
2.7226
2.73288
2.72068
2.70426
2.68853
2.68551
2.68665
2.68588
2.68184
2.67533
2.67192
2.67056
2.66875
2.66775
2.66783
2.66462
2.66647
2.66866
2.67163
2.67468
2.68301
2.6934
2.70603
2.72267
2.74013
2.76
2.77833
2.80131
2.82163
2.84266
2.86051
2.87647
2.88858
2.89733
2.90347
2.90992
2.91696
2.92137
2.92468
2.92861
2.93451
2.94327
2.95652
2.97076
2.98849
2.99932
3.01183
3.01869
3.03094
3.03206
3.04092
3.03829
3.0321
3.01378
2.98678
2.93261
2.85955
2.77328
2.78811
0.999746
0.999753
0.999723
0.999671
0.999591
0.999482
0.999338
0.999154
0.998924
0.99864
0.998297
0.997885
0.997398
0.996829
0.996169
0.995417
0.994562
0.993609
0.992551
0.991362
0.990151
0.988802
0.98722
0.98576
0.984248
0.982325
0.980581
0.979033
0.976979
0.974844
0.973216
0.97155
0.969188
0.966994
0.965468
0.964043
0.961907
0.959543
0.958074
0.957027
0.955814
0.953547
0.949849
0.949993
0.954691
1.01723
1.75579
2.00266
2.00903
2.01205
2.0312
2.10171
2.2697
2.57607
2.78337
2.76799
2.7625
2.75464
2.71897
2.69911
2.70327
2.71494
2.70727
2.69291
2.67573
2.67282
2.6748
2.67094
2.66403
2.65872
2.65822
2.65864
2.65697
2.65433
2.65177
2.64794
2.64926
2.64975
2.65289
2.65613
2.66376
2.67315
2.68547
2.70118
2.71738
2.73547
2.75455
2.78035
2.8029
2.82622
2.84619
2.86355
2.87759
2.88828
2.89638
2.90443
2.91232
2.91738
2.92159
2.9267
2.93366
2.94204
2.95381
2.9652
2.97917
2.98875
3.00093
3.00896
3.0215
3.0217
3.03021
3.02786
3.02234
3.00499
2.97788
2.9234
2.84983
2.7625
2.77772
0.999745
0.999752
0.999722
0.999669
0.999589
0.999479
0.999334
0.999149
0.998916
0.998631
0.998284
0.997868
0.997375
0.996799
0.996131
0.995368
0.994502
0.993528
0.99246
0.991253
0.989968
0.988665
0.987071
0.985414
0.983961
0.982129
0.980111
0.978481
0.976706
0.974334
0.972353
0.970775
0.968819
0.966087
0.964119
0.962688
0.961072
0.958319
0.955565
0.953749
0.952444
0.950753
0.946295
0.94812
0.958787
1.26464
1.91993
1.96551
1.97635
1.99166
2.05346
2.20823
2.50856
2.78189
2.77248
2.73493
2.75376
2.74873
2.72927
2.70388
2.70093
2.70355
2.69192
2.67605
2.66076
2.65927
2.66142
2.65749
2.64958
2.6458
2.64682
2.64711
2.64504
2.64138
2.6388
2.63519
2.635
2.63272
2.63716
2.64021
2.64761
2.65555
2.66542
2.67759
2.69222
2.70844
2.72856
2.75624
2.78162
2.80758
2.82891
2.8482
2.8639
2.87678
2.88706
2.89748
2.90709
2.91388
2.91969
2.92581
2.93323
2.94057
2.95034
2.95861
2.96901
2.97781
2.98986
2.99895
3.01126
3.01042
3.01921
3.01773
3.0131
2.99676
2.97019
2.91565
2.8414
2.75213
2.76705
0.999744
0.999751
0.999721
0.999668
0.999587
0.999477
0.99933
0.999143
0.998909
0.99862
0.99827
0.99785
0.997351
0.996768
0.996092
0.995317
0.99444
0.993451
0.992363
0.991152
0.9898
0.988466
0.986957
0.985179
0.983582
0.981938
0.979814
0.977892
0.976245
0.974102
0.971689
0.96987
0.968232
0.965887
0.963303
0.961705
0.960403
0.958747
0.956324
0.954504
0.953716
0.95301
0.953917
0.959182
1.01419
1.67034
1.93761
1.96648
1.98378
2.03733
2.17569
2.46213
2.72607
2.76227
2.71896
2.6838
2.69367
2.70244
2.69327
2.67612
2.67333
2.67529
2.66811
2.65479
2.64294
2.64188
2.64401
2.64078
2.63326
2.63134
2.63276
2.6318
2.62851
2.62509
2.62503
2.62358
2.62252
2.61831
2.62344
2.62596
2.63331
2.63995
2.64575
2.65378
2.66571
2.67993
2.70024
2.72771
2.75511
2.78483
2.80898
2.8306
2.84849
2.86352
2.8756
2.88874
2.90097
2.91085
2.91898
2.92532
2.93249
2.93835
2.94527
2.9507
2.95854
2.96669
2.97904
2.98856
3.00012
2.9986
3.00782
3.00722
3.00318
2.98732
2.96072
2.90578
2.83122
2.74108
2.75664
0.999743
0.99975
0.99972
0.999667
0.999585
0.999474
0.999326
0.999138
0.998901
0.99861
0.998256
0.997832
0.997328
0.996738
0.996053
0.995268
0.994379
0.993376
0.992265
0.991048
0.989678
0.988252
0.98681
0.985022
0.983211
0.981638
0.979632
0.977418
0.975669
0.973841
0.97127
0.969026
0.967325
0.965475
0.962599
0.960191
0.958572
0.956932
0.954591
0.951006
0.948218
0.944976
0.947502
0.962584
1.25282
1.91238
1.96577
1.97819
2.01244
2.13651
2.43561
2.71394
2.74763
2.75785
2.7241
2.67826
2.67756
2.68697
2.67654
2.66009
2.65367
2.65524
2.65313
2.64443
2.63477
2.63375
2.63444
2.6305
2.62296
2.62169
2.62244
2.62029
2.61545
2.61294
2.61382
2.61284
2.61166
2.60814
2.61241
2.61409
2.6192
2.62304
2.6267
2.63195
2.64237
2.65491
2.67347
2.69802
2.72416
2.75669
2.78515
2.8107
2.83117
2.84842
2.86309
2.87932
2.89497
2.90838
2.91838
2.9243
2.93042
2.93425
2.93828
2.94127
2.94733
2.95518
2.96822
2.97783
2.98831
2.98654
2.99637
2.99684
2.99346
2.9786
2.95239
2.89779
2.82272
2.731
2.74556
0.999742
0.999749
0.999719
0.999665
0.999583
0.999471
0.999322
0.999132
0.998894
0.9986
0.998242
0.997813
0.997304
0.996707
0.996015
0.995219
0.994318
0.993304
0.992172
0.990942
0.989567
0.988057
0.986608
0.984908
0.982945
0.981263
0.97946
0.977118
0.975096
0.97337
0.971095
0.968434
0.966493
0.964852
0.962732
0.959842
0.957907
0.956662
0.95545
0.953968
0.95171
0.952399
0.95791
1.02334
1.68807
1.96939
1.99931
2.02057
2.1289
2.39039
2.67987
2.71977
2.6892
2.69831
2.67952
2.64707
2.64246
2.64857
2.64885
2.64106
2.63236
2.63331
2.63631
2.63397
2.62676
2.62544
2.62592
2.62251
2.61674
2.61647
2.61627
2.6125
2.60591
2.60312
2.6035
2.6032
2.60268
2.60016
2.60241
2.60303
2.6053
2.60618
2.60898
2.61227
2.62124
2.63262
2.64937
2.67094
2.69481
2.72759
2.75751
2.78727
2.81107
2.83146
2.84926
2.86899
2.88883
2.90572
2.91669
2.92173
2.9261
2.92773
2.92955
2.93109
2.93702
2.94518
2.9582
2.96689
2.97576
2.9742
2.98478
2.98618
2.983
2.96859
2.94247
2.88825
2.81229
2.72015
2.7351
0.999741
0.999748
0.999718
0.999664
0.999581
0.999468
0.999318
0.999127
0.998886
0.998589
0.998228
0.997795
0.99728
0.996676
0.995976
0.995171
0.994258
0.993233
0.992085
0.990836
0.989459
0.987912
0.986388
0.984775
0.982759
0.9809
0.97921
0.976944
0.974625
0.972814
0.970867
0.968066
0.965683
0.963928
0.962138
0.959344
0.956271
0.954218
0.952532
0.950517
0.946231
0.947155
0.960307
1.29506
1.9553
2.00222
2.02537
2.12882
2.36835
2.65607
2.77523
2.73049
2.68207
2.69004
2.68534
2.66374
2.64203
2.64072
2.64383
2.63886
2.62818
2.62524
2.62738
2.62544