/*--------------------------------*- C++ -*----------------------------------*\
| =========                 |                                                 |
| \\      /  F ield         | OpenFOAM: The Open Source CFD Toolbox           |
|  \\    /   O peration     | Version:  2.2.x                                 |
|   \\  /    A nd           | Web:      www.OpenFOAM.org                      |
|    \\/     M anipulation  |                                                 |
\*---------------------------------------------------------------------------*/
FoamFile
{
    version     2.0;
    format      ascii;
    class       volScalarField;
    location    "0.8";
    object      T;
}
// * * * * * * * * * * * * * * * * * * * * * * * * * * * * * * * * * * * * * //

dimensions      [0 0 0 1 0 0 0];

internalField   nonuniform List<scalar> 
14161
(
0.998792
0.998858
0.998676
0.9984
0.997998
0.997465
0.996773
0.995904
0.994829
0.993526
0.991964
0.990121
0.987974
0.985503
0.982698
0.979551
0.976069
0.972262
0.968154
0.963774
0.959155
0.954366
0.949395
0.944449
0.939446
0.934458
0.92973
0.925187
0.920783
0.916864
0.91338
0.910082
0.907219
0.90475
0.902983
0.9014
0.899877
0.898917
0.898439
0.898288
0.898411
0.898695
0.898973
0.898603
0.896418
0.89172
0.880668
0.868388
0.785412
1.32432
2.87179
2.96897
3.00866
3.02361
3.02139
3.00019
2.9902
2.96857
2.94486
2.91733
2.89327
2.87164
2.84738
2.82447
2.80661
2.79176
2.78016
2.76851
2.76109
2.75729
2.75113
2.74554
2.7475
2.75586
2.76694
2.78621
2.81043
2.84591
2.90026
2.95929
3.01502
3.09107
3.13596
3.18066
3.20666
3.23562
3.26168
3.28297
3.2913
3.28919
3.28834
3.29479
3.30565
3.31744
3.32762
3.33153
3.33371
3.33623
3.34036
3.34316
3.34396
3.34322
3.3428
3.34289
3.34392
3.34529
3.34612
3.34695
3.34852
3.34944
3.35277
3.3524
3.35776
3.35597
3.36269
3.36008
3.36435
3.3504
3.35364
0.99879
0.998856
0.998673
0.998397
0.997995
0.99746
0.996767
0.995897
0.994821
0.993516
0.991953
0.990108
0.987959
0.985485
0.982678
0.979528
0.976043
0.972231
0.968119
0.963734
0.959099
0.954321
0.949376
0.944369
0.939406
0.934383
0.929597
0.925078
0.920687
0.916722
0.913183
0.909872
0.906976
0.904582
0.902849
0.901372
0.90007
0.899376
0.899169
0.899347
0.899872
0.900784
0.902205
0.904376
0.90754
0.917184
0.92658
0.963148
0.960825
2.1576
3.02687
3.07495
3.09009
3.05796
3.04878
3.02407
2.99944
2.97346
2.94354
2.90571
2.87787
2.85208
2.82411
2.7946
2.77413
2.76521
2.75562
2.7469
2.74214
2.74045
2.74113
2.7445
2.75507
2.77081
2.78302
2.80833
2.83034
2.86716
2.89531
2.96114
3.00356
3.06444
3.11138
3.15235
3.18484
3.21577
3.24389
3.26836
3.28085
3.28348
3.2804
3.28402
3.29317
3.30305
3.31421
3.32291
3.32684
3.32903
3.33192
3.33612
3.33852
3.33932
3.33837
3.337
3.33729
3.33801
3.33881
3.33972
3.34029
3.34045
3.34317
3.34314
3.34846
3.3474
3.35484
3.35327
3.36019
3.35068
3.35295
0.998789
0.998855
0.998672
0.998396
0.997993
0.997459
0.996765
0.995894
0.994818
0.993513
0.991949
0.990104
0.987953
0.985478
0.98267
0.979518
0.976032
0.972218
0.968104
0.963718
0.959097
0.954284
0.949369
0.944357
0.939351
0.934357
0.929613
0.925116
0.92054
0.916601
0.913086
0.909816
0.906944
0.904415
0.902458
0.900649
0.898886
0.897492
0.896603
0.895928
0.895351
0.894855
0.894151
0.892901
0.890773
0.889864
0.888716
0.894153
0.899455
2.41006
3.07987
3.06619
3.10923
3.05469
3.02111
2.97248
2.92742
2.8844
2.84135
2.80346
2.76905
2.73589
2.71776
2.68945
2.66795
2.64877
2.6393
2.63675
2.62507
2.61359
2.61041
2.61698
2.62281
2.65064
2.66889
2.71597
2.74903
2.79882
2.82678
2.88587
2.91096
2.96902
3.02524
3.07576
3.13422
3.17464
3.21896
3.25184
3.28079
3.28922
3.28886
3.28625
3.29345
3.30236
3.3118
3.32168
3.32561
3.32697
3.32888
3.33203
3.33622
3.33815
3.3376
3.33484
3.33375
3.33374
3.33377
3.33451
3.33516
3.3353
3.33757
3.33741
3.34306
3.34265
3.35065
3.35007
3.35762
3.34962
3.35206
0.998788
0.998853
0.99867
0.998392
0.997989
0.997453
0.996759
0.995887
0.994809
0.993501
0.991935
0.990087
0.987932
0.985454
0.982638
0.979483
0.975986
0.972168
0.96804
0.963642
0.959007
0.954175
0.949223
0.944124
0.939132
0.934314
0.929385
0.924718
0.920235
0.916252
0.912741
0.909445
0.906405
0.903981
0.90207
0.900578
0.899282
0.898568
0.898427
0.898725
0.899423
0.900397
0.901762
0.904346
0.908069
0.913208
0.9207
0.934075
0.960292
1.93417
2.95785
3.036
3.02451
2.93233
2.87276
2.81479
2.77605
2.73667
2.6972
2.67023
2.63486
2.6211
2.60629
2.58712
2.56765
2.54952
2.54464
2.54002
2.5328
2.5217
2.51293
2.52088
2.51803
2.54876
2.55201
2.60161
2.62542
2.69933
2.70844
2.76993
2.76846
2.80296
2.8538
2.90638
2.98674
3.06759
3.1465
3.20483
3.25273
3.27723
3.28573
3.28669
3.28479
3.29232
3.30116
3.31133
3.31946
3.32228
3.32267
3.32188
3.32382
3.32727
3.33014
3.33155
3.33086
3.32794
3.32656
3.32612
3.32669
3.32739
3.32946
3.32996
3.33634
3.33707
3.34584
3.3456
3.35328
3.34762
3.34753
0.998787
0.998851
0.998668
0.998391
0.997987
0.997451
0.996756
0.995883
0.994804
0.993495
0.991928
0.990078
0.987921
0.98544
0.982622
0.979462
0.975961
0.972135
0.968002
0.963594
0.958943
0.954047
0.949204
0.944127
0.939005
0.934049
0.929154
0.92452
0.920129
0.91597
0.912303
0.908933
0.905907
0.903244
0.900973
0.898826
0.89683
0.895052
0.893759
0.892563
0.891333
0.889858
0.887996
0.884993
0.880292
0.873013
0.860546
0.83277
0.813305
1.15388
2.46661
2.69608
2.72105
2.68775
2.67102
2.65526
2.64006
2.62398
2.59615
2.58913
2.5557
2.55438
2.52572
2.52424
2.50072
2.49974
2.47912
2.47395
2.46611
2.46112
2.45076
2.45487
2.44365
2.47089
2.45953
2.51321
2.52279
2.57829
2.59914
2.62289
2.65142
2.65946
2.70445
2.73396
2.79008
2.84857
2.92918
3.02688
3.13086
3.21505
3.25743
3.27572
3.28188
3.27771
3.28422
3.29431
3.30416
3.31331
3.3178
3.31816
3.3145
3.31487
3.31924
3.32503
3.32981
3.33134
3.32812
3.3246
3.32363
3.32325
3.32469
3.32441
3.32913
3.33009
3.3396
3.33984
3.3488
3.34451
3.34465
0.998786
0.998849
0.998666
0.998387
0.997983
0.997446
0.996749
0.995874
0.994794
0.993482
0.991911
0.990056
0.987895
0.985408
0.982581
0.979412
0.9759
0.97206
0.967911
0.963482
0.958815
0.953941
0.948948
0.943812
0.938719
0.933835
0.928783
0.924085
0.919659
0.915389
0.911496
0.908056
0.904999
0.902466
0.900373
0.898572
0.897093
0.896177
0.895969
0.896123
0.896462
0.897057
0.897692
0.898016
0.896696
0.894145
0.888926
0.875304
0.860356
0.890324
1.75645
2.72953
2.6794
2.64329
2.62349
2.60954
2.60006
2.58985
2.57603
2.57081
2.54321
2.54314
2.51368
2.51369
2.48701
2.48498
2.46745
2.4648
2.45105
2.44757
2.44201
2.43677
2.44355
2.42761
2.46435
2.45855
2.52727
2.52681
2.59191
2.56784
2.59013
2.56904
2.59495
2.60964
2.65165
2.69552
2.75516
2.82533
2.91805
3.02421
3.12911
3.1959
3.22935
3.23495
3.24251
3.24786
3.25906
3.27248
3.28613
3.29737
3.3049
3.30716
3.30505
3.30787
3.31382
3.31845
3.32017
3.3193
3.31635
3.31497
3.31587
3.3153
3.31927
3.32121
3.33229
3.33221
3.34278
3.33791
3.33963
0.998785
0.998848
0.998664
0.998385
0.99798
0.997442
0.996745
0.995869
0.994786
0.993473
0.9919
0.990042
0.987876
0.985385
0.982552
0.979377
0.975854
0.972005
0.96784
0.963394
0.958711
0.953747
0.948808
0.943734
0.938567
0.93348
0.92847
0.923683
0.919268
0.914905
0.910836
0.907191
0.903906
0.901006
0.898409
0.895864
0.893534
0.891412
0.889797
0.888511
0.887303
0.886333
0.885335
0.884336
0.883187
0.883079
0.8818
0.882549
0.884473
0.930766
2.56137
2.85502
2.77468
2.75708
2.71622
2.6801
2.65179
2.61973
2.60589
2.57094
2.56574
2.53122
2.52742
2.4984
2.49554
2.47325
2.46972
2.45861
2.45904
2.44932
2.45285
2.44338
2.45815
2.44119
2.48531
2.4769
2.55806
2.54888
2.613
2.57008
2.59786
2.5545
2.57376
2.55238
2.56955
2.59296
2.62434
2.66616
2.72703
2.80346
2.9187
3.00403
3.08781
3.1243
3.14861
3.16313
3.17901
3.19592
3.2163
3.23835
3.25824
3.27405
3.28145
3.28313
3.28685
3.29384
3.29943
3.30161
3.30141
3.30008
3.3008
3.30066
3.30601
3.3097
3.32359
3.32622
3.33883
3.33234
3.33493
0.998784
0.998846
0.998662
0.998382
0.997976
0.997436
0.996737
0.995859
0.994774
0.993457
0.991879
0.990016
0.987843
0.985343
0.982499
0.979308
0.975772
0.971897
0.967713
0.963237
0.958503
0.953584
0.948474
0.943368
0.938115
0.932901
0.928019
0.922967
0.91842
0.914012
0.909836
0.906093
0.902829
0.899893
0.897313
0.895184
0.893516
0.892385
0.892018
0.892287
0.892893
0.894218
0.896241
0.898882
0.903848
0.910806
0.920967
0.939708
0.972102
1.08508
2.8259
2.95
2.88196
2.82568
2.764
2.71158
2.67245
2.63355
2.61265
2.58337
2.57266
2.53723
2.53197
2.50042
2.50085
2.47768
2.4793
2.46897
2.47602
2.46979
2.4787
2.46914
2.48677
2.46866
2.51865
2.51824
2.59177
2.56612
2.61516
2.56284
2.59047
2.55673
2.56638
2.54748
2.54299
2.54398
2.54721
2.56128
2.58099
2.64336
2.72422
2.83439
2.93529
2.99689
3.04805
3.08209
3.10426
3.1238
3.13895
3.15802
3.18641
3.21372
3.23313
3.24549
3.25142
3.25838
3.26846
3.27512
3.28004
3.28061
3.28047
3.27973
3.28621
3.29137
3.30983
3.31606
3.33272
3.32557
3.32891
0.998783
0.998845
0.99866
0.99838
0.997972
0.997432
0.996731
0.995851
0.994764
0.993444
0.991863
0.989995
0.987817
0.985309
0.982456
0.979253
0.975702
0.971811
0.9676
0.963097
0.958349
0.953363
0.948134
0.943075
0.937757
0.932488
0.927476
0.922373
0.917484
0.913044
0.908863
0.904688
0.901078
0.897663
0.894557
0.891494
0.888848
0.886539
0.884464
0.883246
0.882549
0.882545
0.883701
0.88611
0.89092
0.897656
0.908802
0.922053
0.94231
1.06141
2.80774
2.90624
2.86348
2.81722
2.73867
2.69699
2.64151
2.61762
2.57066
2.56696
2.53327
2.51255
2.50037
2.46415
2.46037
2.43296
2.43204
2.42158
2.43044
2.4251
2.43515
2.42554
2.44471
2.43098
2.48509
2.48588
2.55915
2.52415
2.57633
2.52075
2.54176
2.53544
2.542
2.53279
2.52554
2.52554
2.52296
2.53085
2.54443
2.59256
2.65515
2.75802
2.85317
2.9443
3.00758
3.0501
3.08081
3.10239
3.12206
3.13329
3.1475
3.16857
3.18884
3.20573
3.21773
3.22112
3.22957
3.23811
3.24811
3.25424
3.25881
3.25912
3.26626
3.27283
3.29543
3.30479
3.32561
3.31841
3.32351
0.998782
0.998843
0.998657
0.998376
0.997968
0.997426
0.996723
0.99584
0.99475
0.993426
0.991838
0.989964
0.987776
0.985256
0.982389
0.979166
0.975595
0.971674
0.967434
0.962893
0.958081
0.953071
0.947779
0.942569
0.937311
0.93184
0.926606
0.92159
0.916448
0.911805
0.907481
0.903186
0.899333
0.895917
0.892995
0.890212
0.887963
0.886617
0.88556
0.885476
0.886048
0.887251
0.889281
0.892444
0.896771
0.901607
0.910394
0.918561
0.922261
1.03738
2.61812
2.78691
2.7622
2.73216
2.65184
2.61724
2.55601
2.54637
2.50429
2.51295
2.4585
2.4496
2.41744
2.42245
2.39204
2.3971
2.37574
2.37805
2.37331
2.38351
2.37645
2.3897
2.37474
2.41011
2.4111
2.46608
2.51103
2.48307
2.51518
2.49472
2.50425
2.50042
2.509
2.49061
2.49724
2.49806
2.50537
2.52098
2.55067
2.60278
2.67283
2.77423
2.85657
2.93533
2.99922
3.03772
3.06674
3.08692
3.10786
3.12276
3.13574
3.15275
3.17193
3.18784
3.20064
3.20464
3.21075
3.2211
3.23433
3.24338
3.24973
3.25049
3.25566
3.25977
3.281
3.29299
3.31882
3.31159
3.31849
0.998781
0.998841
0.998655
0.998373
0.997964
0.99742
0.996716
0.995831
0.994737
0.993409
0.991817
0.989935
0.987739
0.985208
0.982329
0.979089
0.975496
0.97155
0.967273
0.962695
0.957814
0.952777
0.947517
0.942062
0.936705
0.931161
0.925801
0.920751
0.915382
0.9103
0.905752
0.90142
0.896927
0.892947
0.889482
0.886075
0.88252
0.879721
0.877217
0.87522
0.874052
0.873196
0.873011
0.87426
0.87695
0.8808
0.886009
0.893435
0.898446
1.00003
2.38611
2.69018
2.65412
2.67599
2.59046
2.58419
2.51103
2.50531
2.45197
2.46944
2.40067
2.38875
2.40215
2.36573
2.36917
2.35241
2.35989
2.34066
2.35305
2.34374
2.35067
2.33232
2.3535
2.34485
2.40345
2.40839
2.49871
2.45782
2.4862
2.49226
2.49897
2.48698
2.51376
2.49803
2.51427
2.53011
2.557
2.59286
2.64623
2.71711
2.8
2.88521
2.95227
3.00805
3.0522
3.07647
3.09329
3.10596
3.11854
3.12558
3.13434
3.14714
3.16384
3.17875
3.19127
3.19654
3.20103
3.21087
3.22429
3.23341
3.23867
3.2387
3.2417
3.2455
3.26611
3.28115
3.31042
3.30453
3.31172
0.998779
0.998839
0.998653
0.998369
0.997958
0.997413
0.996706
0.995818
0.99472
0.993387
0.991788
0.989897
0.98769
0.985143
0.982245
0.978981
0.975357
0.971377
0.96705
0.962424
0.957505
0.952333
0.947004
0.941404
0.93598
0.930436
0.924738
0.919416
0.914262
0.908737
0.903828
0.899362
0.894964
0.890517
0.886704
0.883583
0.880795
0.878155
0.876278
0.875238
0.874777
0.874804
0.875226
0.875426
0.875618
0.873942
0.868916
0.86172
0.875951
0.939946
2.17051
2.5691
2.55486
2.65622
2.57164
2.57816
2.4781
2.46696
2.40822
2.4328
2.36935
2.41042
2.36023
2.38573
2.34603
2.36307
2.33986
2.33874
2.32968
2.33128
2.33365
2.30757
2.34266
2.34284
2.44005
2.43789
2.5324
2.49941
2.53558
2.52989
2.58289
2.57823
2.6089
2.62024
2.64517
2.68691
2.73255
2.77672
2.81304
2.85638
2.90345
2.95476
2.9999
3.04314
3.07849
3.10153
3.11789
3.12555
3.1305
3.13189
3.13703
3.14655
3.16083
3.17485
3.18537
3.18958
3.19136
3.2006
3.21409
3.22328
3.22916
3.22952
3.2326
3.23577
3.25329
3.26879
3.3012
3.29744
3.30542
0.998778
0.998837
0.99865
0.998366
0.997954
0.997407
0.996698
0.995807
0.994705
0.993366
0.99176
0.989861
0.987642
0.985081
0.982165
0.978879
0.975225
0.97121
0.966842
0.962158
0.957171
0.951883
0.946529
0.940851
0.935087
0.929597
0.923652
0.917986
0.912654
0.907125
0.901608
0.896755
0.892186
0.887089
0.882407
0.878553
0.874973
0.871269
0.867724
0.864814
0.862261
0.860269
0.857828
0.854561
0.850032
0.846947
0.841325
0.835263
0.881046
1.13477
2.16569
2.36583
2.40873
2.56801
2.49269
2.55048
2.45122
2.4795
2.42364
2.44262
2.38075
2.4152
2.3573
2.37669
2.32966
2.33596
2.32579
2.3116
2.31169
2.32349
2.33701
2.32841
2.4297
2.50484
2.61315
2.61103
2.70554
2.713
2.76276
2.77651
2.80839
2.81011
2.81578
2.81871
2.83087
2.86376
2.89483
2.91622
2.93369
2.96378
2.99528
3.02982
3.05934
3.08909
3.1067
3.11405
3.12621
3.13582
3.14086
3.14197
3.14369
3.15028
3.16245
3.17416
3.1835
3.18664
3.18466
3.19203
3.20393
3.21275
3.21821
3.21905
3.22348
3.22753
3.24442
3.25636
3.29186
3.29097
3.29916
0.998776
0.998835
0.998647
0.998362
0.997948
0.997399
0.996687
0.995792
0.994685
0.99334
0.991726
0.989815
0.987582
0.985002
0.982062
0.978748
0.975054
0.970997
0.966575
0.96182
0.956765
0.951418
0.945854
0.940159
0.934171
0.928389
0.922572
0.91647
0.910799
0.905346
0.899437
0.893993
0.889123
0.88439
0.879285
0.87488
0.870975
0.867929
0.865036
0.862246
0.860051
0.859236
0.858523
0.857945
0.858249
0.859136
0.861629
0.861013
0.949301
1.86834
2.22039
2.28388
2.34784
2.49965
2.52888
2.56208
2.50724
2.52142
2.45332
2.40013
2.41556
2.37146
2.39346
2.33429
2.33912
2.34128
2.37004
2.34837
2.42572
2.5313
2.6096
2.71432
2.79592
2.8667
2.92952
2.90145
2.93011
2.9104
2.93442
2.94856
2.97704
2.98558
2.99307
2.98654
2.97561
2.95999
2.95095
2.95633
2.96472
2.98516
3.0141
3.04862
3.08045
3.10308
3.11302
3.12144
3.13802
3.14653
3.14969
3.15034
3.15181
3.15676
3.16504
3.17441
3.1819
3.18419
3.18121
3.1865
3.19683
3.20557
3.21036
3.21219
3.21554
3.21992
3.23471
3.24603
3.28073
3.28254
3.29191
0.998775
0.998833
0.998645
0.998358
0.997943
0.997391
0.996677
0.995778
0.994666
0.993314
0.991691
0.98977
0.987522
0.984925
0.98196
0.978617
0.974887
0.970784
0.966305
0.961469
0.95635
0.950884
0.945111
0.939448
0.933319
0.927211
0.921363
0.914928
0.908742
0.902987
0.89731
0.890954
0.885356
0.88042
0.875138
0.869375
0.864446
0.860393
0.85691
0.853122
0.849161
0.846354
0.843959
0.841343
0.840706
0.840032
0.841327
0.848374
0.930264
2.12735
2.22438
2.23582
2.25245
2.32832
2.34357
2.51047
2.40341
2.47436
2.384
2.40603
2.36608
2.37427
2.3636
2.33457
2.39536
2.47564
2.56699
2.68254
2.77021
2.88584
2.99992
3.05935
3.07872
3.05153
3.05705
3.03068
3.02293
2.98863
2.98479
2.98471
2.98955
2.99579
3.00069
3.00152
2.9921
2.984
2.97844
2.98162
2.99048
3.00493
3.02547
3.05137
3.07791
3.09894
3.11289
3.12822
3.14171
3.14704
3.15043
3.15444
3.15773
3.16119
3.16622
3.17356
3.17974
3.18125
3.17749
3.1831
3.19322
3.20125
3.20606
3.20699
3.21013
3.21374
3.22661
3.23625
3.26979
3.27452
3.28468
0.998773
0.998831
0.998642
0.998354
0.997936
0.997383
0.996664
0.995761
0.994644
0.993284
0.991651
0.989716
0.98745
0.984832
0.981837
0.978461
0.974685
0.970524
0.965983
0.96106
0.955838
0.950281
0.944305
0.93851
0.93229
0.925831
0.919634
0.913436
0.90655
0.900373
0.89454
0.888094
0.881676
0.876138
0.870993
0.86548
0.859558
0.854292
0.849831
0.846196
0.841887
0.835087
0.82891
0.82157
0.814428
0.802501
0.790682
0.821752
0.86709
2.15297
2.22998
2.23621
2.23703
2.24592
2.25165
2.35343
2.33384
2.46778
2.35894
2.48243
2.37343
2.46032
2.53803
2.59593
2.74277
2.83136
2.94056
2.99065
3.03052
3.02759
3.05589
3.06949
3.08183
3.06267
3.06332
3.0467
3.03589
3.01487
3.0039
3.00301
3.00263
3.00468
3.00345
2.99941
2.98819
2.98072
2.9845
2.99186
2.99922
3.01063
3.02473
3.04591
3.07047
3.09412
3.11428
3.12974
3.1386
3.14371
3.151
3.1567
3.16071
3.1639
3.16767
3.17399
3.18006
3.18059
3.17608
3.18165
3.18963
3.19654
3.20039
3.20031
3.20451
3.20751
3.21959
3.22694
3.25845
3.26565
3.27696
0.998771
0.998829
0.998639
0.998349
0.99793
0.997374
0.996652
0.995745
0.994621
0.993253
0.99161
0.989661
0.987378
0.984737
0.981715
0.978302
0.974483
0.970267
0.965658
0.960661
0.955306
0.949666
0.9436
0.937367
0.931262
0.924472
0.917854
0.911524
0.904524
0.897599
0.891336
0.8852
0.877875
0.871326
0.865786
0.860304
0.853654
0.847096
0.841641
0.838304
0.835221
0.830749
0.82682
0.824158
0.822375
0.821221
0.817498
0.898557
1.35852
2.32037
2.2899
2.27466
2.25821
2.24118
2.24089
2.24443
2.33708
2.33439
2.53052
2.51774
2.68682
2.72611
2.88981
2.96436
3.02981
3.05992
3.06864
3.07505
3.07843
3.06625
3.06682
3.0621
3.0694
3.05739
3.05426
3.04085
3.03269
3.01987
3.00708
3.0037
3.00025
3.00166
3.00561
3.0066
2.99846
2.98954
2.98646
2.98829
2.99291
3.00372
3.01819
3.03964
3.0647
3.08883
3.1061
3.12022
3.12834
3.13818
3.1497
3.158
3.16408
3.16821
3.17253
3.17842
3.18291
3.18001
3.17484
3.17943
3.18506
3.19085
3.19327
3.19439
3.19805
3.20173
3.21174
3.21803
3.24728
3.25667
3.26795
0.998769
0.998826
0.998635
0.998345
0.997923
0.997364
0.996639
0.995726
0.994596
0.993219
0.991563
0.989599
0.987295
0.984629
0.981573
0.978116
0.974249
0.969961
0.965282
0.960189
0.954713
0.948948
0.942796
0.936246
0.929951
0.9231
0.916016
0.90924
0.902536
0.894789
0.887746
0.881386
0.874576
0.866797
0.860073
0.854555
0.848836
0.841316
0.834732
0.828627
0.824967
0.819396
0.814492
0.808232
0.807996
0.80958
0.811198
0.921442
2.06493
2.31923
2.28425
2.25818
2.23457
2.22032
2.21197
2.23991
2.29038
2.44072
2.64871
2.80762
2.89444
3.00115
3.01613
3.05175
3.05947
3.05808
3.06393
3.06369
3.06294
3.0504
3.05384
3.04903
3.05112
3.0464
3.04588
3.0387
3.02958
3.02102
3.01079
3.00665
3.00376
3.00396
3.00613
3.00772
3.00241
2.99418
2.98733
2.98405
2.98678
2.99727
3.01354
3.03588
3.05783
3.07475
3.08903
3.10355
3.12021
3.13511
3.14914
3.15944
3.16796
3.17232
3.17657
3.18153
3.18393
3.17883
3.17237
3.17586
3.17967
3.18355
3.18655
3.18866
3.19237
3.19602
3.20423
3.20956
3.23585
3.24678
3.25886
0.998766
0.998824
0.998632
0.99834
0.997916
0.997354
0.996625
0.995707
0.994569
0.993183
0.991515
0.989535
0.987211
0.984517
0.981429
0.97793
0.974012
0.969661
0.964899
0.959723
0.954088
0.948204
0.941951
0.935219
0.92849
0.92177
0.914107
0.906881
0.899994
0.892247
0.884315
0.87726
0.870503
0.862769
0.854746
0.847686
0.842214
0.835876
0.827426
0.821042
0.816111
0.812554
0.809554
0.806243
0.799849
0.794328
0.796225
0.894094
2.18004
2.27411
2.25734
2.24442
2.24145
2.24253
2.25413
2.29919
2.41972
2.66363
2.91675
3.01397
3.03511
3.03229
3.04266
3.03538
3.04415
3.03657
3.03966
3.03954
3.04464
3.04266
3.04907
3.04968
3.05043
3.04874
3.04671
3.04397
3.03176
3.01967
3.00623
3.0027
2.99878
3.00003
3.00313
3.00493
3.00389
3.00003
2.99319
2.98722
2.98723
2.99495
3.0095
3.02854
3.04826
3.06293
3.0767
3.09452
3.11267
3.13142
3.14762
3.16076
3.17009
3.17398
3.1784
3.18214
3.18196
3.17529
3.16822
3.17162
3.17415
3.17754
3.18118
3.18389
3.18755
3.18965
3.19674
3.20083
3.22523
3.23699
3.24965
0.998763
0.998821
0.998628
0.998334
0.997908
0.997343
0.99661
0.995686
0.99454
0.993144
0.991462
0.989464
0.987117
0.984393
0.98127
0.977719
0.973746
0.969322
0.964448
0.959202
0.953432
0.947294
0.941061
0.934128
0.927007
0.920148
0.912302
0.90449
0.897159
0.889705
0.880836
0.872896
0.866
0.858711
0.849399
0.841627
0.834648
0.829166
0.822456
0.812708
0.804518
0.796682
0.790384
0.78312
0.766526
0.748172
0.790678
0.978714
2.21604
2.26259
2.26053
2.25047
2.25156
2.26287
2.30125
2.40588
2.64266
2.93706
3.04568
3.05082
3.05279
3.04566
3.03919
3.03625
3.0258
3.02073
3.01973
3.02346
3.03195
3.03406
3.03826
3.04133
3.0438
3.04574
3.04405
3.03753
3.02569
3.01744
3.0049
3.00058
2.9968
2.99965
3.00227
3.0047
3.00349
3.00123
2.99476
2.98964
2.98937
2.99465
3.00607
3.02277
3.04327
3.05783
3.07212
3.09011
3.10899
3.12684
3.14238
3.15627
3.1663
3.17127
3.17734
3.18017
3.17785
3.1704
3.16399
3.16785
3.17017
3.17325
3.17698
3.18003
3.18234
3.18329
3.18882
3.19198
3.21425
3.22663
3.24049
0.998761
0.998818
0.998624
0.998329
0.9979
0.997332
0.996594
0.995664
0.99451
0.993103
0.991407
0.98939
0.98702
0.984265
0.981104
0.977509
0.973475
0.968985
0.963998
0.958669
0.952807
0.94638
0.94008
0.933048
0.925543
0.918313
0.910774
0.90218
0.894277
0.88667
0.877913
0.869031
0.861079
0.853737
0.845355
0.835746
0.827592
0.820498
0.813602
0.805582
0.794745
0.787829
0.782442
0.779442
0.778111
0.772359
0.86779
1.69565
2.2632
2.26728
2.25942
2.25781
2.26368
2.29953
2.39254
2.5822
2.88942
3.04595
3.04154
3.04081
3.0293
3.02119
3.02163
3.02079
3.01223
3.00675
3.0078
3.01048
3.01745
3.01955
3.02154
3.02303
3.02516
3.0286
3.02802
3.02314
3.01333
3.00514
2.99409
2.99222
2.98739
2.99206
2.99574
3.00132
3.00171
3.00123
2.99477
2.99012
2.98997
2.9944
3.00449
3.01894
3.03733
3.05227
3.0686
3.08673
3.10518
3.12129
3.13643
3.15094
3.16208
3.1693
3.17631
3.17836
3.17292
3.1661
3.16136
3.16559
3.16729
3.16949
3.17305
3.17554
3.17664
3.17654
3.18043
3.18319
3.2038
3.21624
3.23115
0.998757
0.998814
0.99862
0.998323
0.997892
0.99732
0.996577
0.995641
0.994478
0.993059
0.991348
0.989312
0.986917
0.984129
0.980926
0.977282
0.973172
0.968617
0.96352
0.958038
0.952144
0.945539
0.938907
0.932011
0.924065
0.916412
0.908938
0.899958
0.891351
0.883476
0.875123
0.865131
0.856275
0.848746
0.840904
0.830251
0.821433
0.813315
0.80822
0.802455
0.795705
0.790122
0.787542
0.785757
0.787666
0.793987
0.912199
2.12393
2.27383
2.24588
2.24381
2.24947
2.2791
2.35564
2.52661
2.8153
3.02743
3.0446
3.02455
3.02143
2.99975
3.00433
3.00959
3.01112
2.99846
2.99578
2.99737
2.99852
3.00348
3.00729
3.00852
3.00787
3.00796
3.00844
3.00695
3.00511
2.99974
2.99747
2.99154
2.99167
2.98705
2.99109
2.99272
2.99965
2.99962
3.00002
2.99519
2.99084
2.99012
2.99377
3.00281
3.01539
3.03265
3.04922
3.0679
3.0852
3.10139
3.1155
3.1296
3.14396
3.15648
3.1661
3.17247
3.17268
3.16625
3.16206
3.15936
3.16351
3.16435
3.16602
3.16913
3.17074
3.17103
3.16953
3.172
3.17372
3.19371
3.20625
3.22228
0.998754
0.998811
0.998615
0.998317
0.997883
0.997308
0.99656
0.995616
0.994445
0.993013
0.991287
0.989229
0.986808
0.983988
0.98074
0.977047
0.972875
0.968237
0.963088
0.957317
0.951462
0.944821
0.937706
0.930767
0.922747
0.914467
0.906649
0.898153
0.88868
0.880086
0.871792
0.861847
0.852074
0.843407
0.835541
0.826441
0.815418
0.805888
0.796718
0.790769
0.78156
0.764831
0.748621
0.724345
0.705477
0.736241
0.944902
2.14578
2.2248
2.22009
2.23531
2.25099
2.31621
2.46311
2.75086
3.01102
3.06556
3.02511
3.01139
2.99168
2.98157
2.99192
2.99698
2.99418
2.98129
2.9806
2.9836
2.98547
2.98724
2.98771
2.98808
2.98998
2.991
2.99112
2.99024
2.99024
2.98791
2.99139
2.99003
2.99101
2.98637
2.98769
2.98688
2.99414
2.99477
2.99673
2.99267
2.98927
2.9884
2.99157
2.99986
3.01187
3.02864
3.0478
3.06781
3.08374
3.0967
3.10875
3.1218
3.13613
3.14897
3.15915
3.16417
3.16339
3.15856
3.15802
3.15747
3.16134
3.16113
3.16258
3.1647
3.16566
3.16488
3.16254
3.16383
3.16486
3.18471
3.19618
3.21344
0.99875
0.998807
0.998611
0.99831
0.997874
0.997295
0.996541
0.995591
0.99441
0.992966
0.991223
0.989144
0.986695
0.983842
0.980551
0.976805
0.972569
0.967827
0.962625
0.956717
0.950599
0.944078
0.936666
0.929241
0.92166
0.91273
0.904232
0.895988
0.886147
0.876574
0.867866
0.858846
0.847727
0.837837
0.82959
0.820821
0.808742
0.798688
0.790457
0.785521
0.779739
0.771812
0.767373
0.768296
0.76978
0.876853
1.67827
2.187
2.20126
2.22485
2.24302
2.3072
2.44848
2.72958
2.962
3.08285
3.05038
3.0212
2.99656
2.96461
2.95948
2.97138
2.97586
2.97324
2.96365
2.96493
2.9696
2.97052
2.97097
2.96851
2.97049
2.97477
2.97838
2.97798
2.97594
2.97726
2.9774
2.98341
2.98305
2.9841
2.97996
2.98011
2.97818
2.9838
2.98577
2.99004
2.98831
2.98606
2.98444
2.98678
2.99484
3.00791
3.02487
3.04485
3.06448
3.07966
3.09025
3.10086
3.11338
3.12697
3.1387
3.14815
3.1522
3.15198
3.15059
3.15338
3.15495
3.15857
3.15754
3.15888
3.16025
3.16078
3.15907
3.15555
3.15562
3.15591
3.17464
3.18639
3.20501
0.998746
0.998803
0.998606
0.998303
0.997865
0.997281
0.996522
0.995564
0.994373
0.992916
0.991156
0.989056
0.986578
0.98369
0.980355
0.976551
0.972255
0.967416
0.962132
0.956228
0.949699
0.943215
0.935702
0.927781
0.920102
0.91132
0.902036
0.893312
0.884345
0.873549
0.863787
0.854975
0.845239
0.833726
0.823853
0.81584
0.807227
0.795844
0.786454
0.776559
0.770587
0.761381
0.74375
0.732923
0.740286
0.838443
2.01816
2.1639
2.18115
2.20063
2.25077
2.38892
2.65575
2.9102
3.00955
3.02903
3.01332
2.99752
2.9893
2.95944
2.95438
2.96148
2.96247
2.95771
2.94966
2.95263
2.95921
2.96061
2.9586
2.95295
2.95414
2.95814
2.96338
2.96406
2.96259
2.9655
2.96619
2.97172
2.9717
2.97313
2.97048
2.97086
2.96825
2.9726
2.97365
2.97963
2.98047
2.9805
2.97847
2.98022
2.98746
3.00078
3.01839
3.0393
3.05861
3.07276
3.08242
3.09258
3.10435
3.11614
3.12634
3.13523
3.13945
3.14107
3.1436
3.14901
3.15215
3.15554
3.15377
3.15467
3.15571
3.15563
3.15299
3.1485
3.14801
3.14796
3.16703
3.17722
3.19666
0.998742
0.998799
0.9986
0.998296
0.997855
0.997267
0.996503
0.995537
0.994335
0.992865
0.991087
0.988965
0.986459
0.983536
0.980157
0.9763
0.97194
0.967036
0.961604
0.955681
0.948953
0.942155
0.934881
0.926545
0.918325
0.910034
0.90007
0.890652
0.881642
0.871188
0.860287
0.8507
0.84133
0.829601
0.818142
0.80806
0.799181
0.788669
0.774443
0.761911
0.750382
0.739767
0.724961
0.715222
0.789999
1.07238
2.15618
2.16883
2.18169
2.21164
2.3344
2.59746
2.93428
3.00277
3.00454
2.98168
2.97404
2.96775
2.96671
2.94668
2.94539
2.95535
2.95643
2.95142
2.94197
2.9452
2.95111
2.95218
2.94842
2.94296
2.94447
2.94737
2.95188
2.9513
2.94968
2.95309
2.95503
2.96013
2.95952
2.96108
2.95958
2.96107
2.95916
2.96341
2.96431
2.96929
2.97165
2.97393
2.97223
2.97344
2.97945
2.99207
3.00961
3.03025
3.04933
3.06342
3.07329
3.08312
3.09355
3.1034
3.11281
3.12185
3.12689
3.13142
3.13776
3.14499
3.14943
3.1522
3.14983
3.15063
3.15137
3.15047
3.14682
3.1412
3.14009
3.13899
3.15703
3.16706
3.18827
0.998738
0.998795
0.998595
0.998289
0.997845
0.997253
0.996482
0.995509
0.994297
0.992812
0.991017
0.988872
0.986337
0.983376
0.979956
0.97604
0.971615
0.966649
0.961078
0.955098
0.948391
0.941084
0.93388
0.925443
0.916687
0.908233
0.898635
0.888366
0.878784
0.869204
0.857401
0.846613
0.837288
0.827534
0.814925
0.804715
0.796407
0.788503
0.780049
0.77053
0.764628
0.758838
0.756018
0.768011
0.859131
1.94738
2.12648
2.16413
2.19805
2.31903
2.55568
2.9101
3.02097
3.03911
3.00878
2.98402
2.96714
2.96455
2.95894
2.94123
2.93663
2.94678
2.94841
2.94903
2.94062
2.94015
2.94224
2.94179
2.93676
2.93187
2.93396
2.93674
2.94083
2.93966
2.93915
2.94074
2.94263
2.94596
2.94488
2.94657
2.94578
2.94962
2.94941
2.95417
2.95506
2.96027
2.9634
2.96608
2.96481
2.96548
2.97056
2.98257
2.99987
3.0201
3.03837
3.0523
3.0622
3.07119
3.07974
3.08914
3.09882
3.10898
3.11575
3.12361
3.13289
3.14119
3.14587
3.14811
3.14569
3.14667
3.14683
3.14508
3.14033
3.13385
3.13281
3.13167
3.14974
3.1591
3.1805
0.998733
0.99879
0.998589
0.998282
0.997834
0.997238
0.996461
0.99548
0.994257
0.992759
0.990945
0.988778
0.986214
0.983219
0.979755
0.975788
0.971302
0.966264
0.96062
0.954493
0.94777
0.940194
0.932694
0.924569
0.91534
0.906326
0.897274
0.886312
0.875985
0.866308
0.855368
0.843225
0.83248
0.822698
0.811352
0.798138
0.786199
0.777002
0.764965
0.750737
0.7337
0.712884
0.703302
0.775303
1.10733
2.13284
2.15453
2.17818
2.26486
2.4942
2.85022
2.99515
3.01521
2.98685
2.97314
2.95239
2.94283
2.9529
2.95272
2.94074
2.93007
2.93386
2.93543
2.93669
2.93127
2.92864
2.92858
2.9278
2.92201
2.91752
2.92095
2.92464
2.92744
2.92645
2.92764
2.92965
2.93054
2.93111
2.93037
2.9333
2.93357
2.93898
2.93926
2.94405
2.94646
2.95266
2.95571
2.95864
2.95719
2.95756
2.9611
2.97277
2.98945
3.00929
3.02692
3.0408
3.04942
3.05653
3.06439
3.07453
3.08524
3.0971
3.10625
3.11679
3.12787
3.13658
3.14076
3.14304
3.14152
3.14282
3.14221
3.13947
3.13375
3.12652
3.12512
3.12303
3.14011
3.14887
3.17157
0.998728
0.998785
0.998583
0.998274
0.997823
0.997223
0.99644
0.99545
0.994217
0.992705
0.990873
0.988682
0.986091
0.983058
0.979552
0.975536
0.970981
0.965877
0.960178
0.95386
0.947127
0.939567
0.931518
0.923567
0.914137
0.904641
0.895485
0.884861
0.8738
0.863559
0.853415
0.840645
0.829191
0.819301
0.809605
0.797519
0.786334
0.777457
0.771133
0.764566
0.755025
0.751565
0.767847
0.854248
1.95143
2.14852
2.20091
2.26551
2.48906
2.83322
2.99835
3.02167
3.00191
2.99527
2.97957
2.96061
2.94358
2.94817
2.94547
2.94105
2.92845
2.92389
2.92244
2.92085
2.91639
2.9117
2.9101
2.9088
2.90367
2.90067
2.90355
2.9095
2.91197
2.91322
2.91566
2.91863
2.91896
2.91812
2.91858
2.92315
2.9232
2.92826
2.92994
2.93513
2.93881
2.94505
2.94661
2.94907
2.94867
2.9493
2.9529
2.96304
2.97897
2.99838
3.01523
3.02898
3.03536
3.04061
3.04814
3.06014
3.07277
3.08656
3.09845
3.11103
3.12197
3.12994
3.13368
3.13719
3.13747
3.139
3.13722
3.13331
3.1267
3.11923
3.11821
3.11646
3.13387
3.14124
3.16392
0.998723
0.998781
0.998577
0.998266
0.997812
0.997207
0.996419
0.995421
0.994176
0.99265
0.9908
0.988587
0.985968
0.982902
0.979357
0.97529
0.970679
0.965511
0.959743
0.953303
0.946509
0.938915
0.930536
0.922455
0.913192
0.903253
0.893629
0.883669
0.87181
0.860821
0.850547
0.838892
0.82591
0.814182
0.804606
0.793231
0.778064
0.765344
0.752787
0.740393
0.719595
0.711123
0.784463
1.16277
2.20934
2.23985
2.29677
2.48847
2.78985
3.00191
3.01745
2.98109
2.95491
2.94926
2.95159
2.9506
2.93354
2.92776
2.92955
2.9265
2.91488
2.90668
2.90592
2.90531