/*--------------------------------*- C++ -*----------------------------------*\
| =========                 |                                                 |
| \\      /  F ield         | OpenFOAM: The Open Source CFD Toolbox           |
|  \\    /   O peration     | Version:  2.2.x                                 |
|   \\  /    A nd           | Web:      www.OpenFOAM.org                      |
|    \\/     M anipulation  |                                                 |
\*---------------------------------------------------------------------------*/
FoamFile
{
    version     2.0;
    format      ascii;
    class       volVectorField;
    location    "2.7";
    object      U;
}
// * * * * * * * * * * * * * * * * * * * * * * * * * * * * * * * * * * * * * //

dimensions      [0 1 -1 0 0 0 0];

internalField   nonuniform List<vector> 
14161
(
(3.5 -6.35564e-16 3.38533e-24)
(3.5 -1.31216e-15 -7.38082e-24)
(3.5 -1.08728e-15 2.53414e-23)
(3.5 -6.00539e-16 1.78728e-23)
(3.5 1.68241e-15 3.1757e-23)
(3.5 4.76064e-15 -3.50892e-23)
(3.5 6.20146e-15 7.4022e-23)
(3.5 2.05979e-15 -4.28667e-24)
(3.5 -3.34633e-15 5.45655e-23)
(3.5 -3.44473e-15 -2.38052e-24)
(3.5 -6.38563e-16 5.25042e-24)
(3.5 -8.08574e-16 6.31264e-24)
(3.5 6.23282e-16 -9.41181e-24)
(3.5 4.43434e-16 2.50945e-23)
(3.5 -3.97167e-15 -5.87969e-23)
(3.5 -4.93481e-15 -7.81161e-23)
(3.5 -3.05427e-15 -8.36344e-23)
(3.5 -2.03707e-15 -9.605e-23)
(3.5 -2.97471e-15 -9.79158e-23)
(3.5 -3.3818e-15 -1.2908e-22)
(3.5 -3.18042e-15 -1.39338e-22)
(3.5 -2.89809e-15 -1.17044e-22)
(3.5 -2.1204e-15 -1.67727e-22)
(3.5 -8.19169e-16 -1.81806e-22)
(3.5 -7.80033e-16 -1.99585e-22)
(3.5 -1.28897e-15 -1.73869e-22)
(3.5 -2.91855e-15 -1.96909e-22)
(3.5 -2.52278e-15 -2.15979e-22)
(3.5 -1.69908e-15 -2.31175e-22)
(3.5 -9.60009e-16 -2.28721e-22)
(3.5 1.32325e-16 -2.07977e-22)
(3.5 3.63906e-17 -2.16078e-22)
(3.5 5.41251e-16 -2.16037e-22)
(3.5 4.60633e-15 -2.17464e-22)
(3.5 6.10565e-14 -2.179e-22)
(3.5 8.21475e-13 -2.24601e-22)
(3.5 1.06946e-11 -2.272e-22)
(3.5 1.32932e-10 -2.31543e-22)
(3.5 1.53868e-09 -2.34706e-22)
(3.49997 1.54571e-08 -2.3356e-22)
(3.49953 1.02225e-07 -2.34803e-22)
(3.49217 -1.1407e-06 -2.3418e-22)
(3.36355 -7.39534e-06 -2.45618e-22)
(2.41891 0.00114743 -3.49001e-22)
(1.33504 0.00188774 -5.75725e-22)
(1.01623 0.00311195 1.28976e-21)
(0.946472 0.0038357 9.92923e-22)
(0.925274 0.00413155 2.32985e-21)
(0.912341 0.0041728 6.02843e-21)
(0.902522 0.00415787 3.98255e-21)
(0.893907 0.00417268 6.41373e-21)
(0.88593 0.00421339 7.55541e-21)
(0.87777 0.00426815 9.53821e-21)
(0.86905 0.00433622 9.20768e-21)
(0.859079 0.0043911 8.09962e-21)
(0.848478 0.00441085 7.94911e-21)
(0.838871 0.00443162 7.47989e-21)
(0.830533 0.0044885 7.66366e-21)
(0.823121 0.00458045 6.69798e-21)
(0.815134 0.0046834 6.90921e-21)
(0.806079 0.00478544 5.50013e-21)
(0.795535 0.00486785 7.30541e-21)
(0.784843 0.0048954 2.02789e-21)
(0.775294 0.00492026 2.74759e-21)
(0.767292 0.00497854 3.43246e-21)
(0.759936 0.00505844 3.1221e-22)
(0.751633 0.00515126 4.3982e-22)
(0.741673 0.00524316 -1.23453e-22)
(0.730301 0.00529254 1.59924e-21)
(0.719666 0.00532223 -5.97629e-22)
(0.710535 0.00536071 1.84606e-22)
(0.702887 0.00541531 1.46574e-22)
(0.69488 0.00547995 3.52385e-21)
(0.68545 0.00554996 -1.13406e-21)
(0.673878 0.00560278 2.08188e-21)
(0.662358 0.00563845 3.39325e-22)
(0.652254 0.00567126 5.24432e-23)
(0.643812 0.00570576 8.66882e-22)
(0.635503 0.00574403 -6.47771e-22)
(0.625951 0.00578734 1.93853e-21)
(0.614045 0.00582666 2.05555e-21)
(0.601878 0.00586131 -4.3765e-22)
(0.59101 0.00589496 1.54832e-21)
(0.581769 0.00592192 9.95589e-22)
(0.572624 0.00594854 -5.27551e-21)
(0.562122 0.00597661 1.38886e-20)
(0.549428 0.00600189 -1.61705e-20)
(0.536721 0.00603627 -3.20832e-20)
(0.525259 0.00607131 1.34383e-19)
(0.51509 0.00609582 -3.48835e-19)
(0.504607 0.00611826 8.04225e-19)
(0.492307 0.00614346 -1.86027e-18)
(0.478531 0.00618241 3.64008e-18)
(0.465244 0.00624953 -5.78565e-18)
(0.453245 0.00631201 7.32754e-18)
(0.441692 0.00635708 -7.30144e-18)
(0.429042 0.0063966 3.87723e-18)
(0.414478 0.00644154 6.28265e-18)
(0.399748 0.00652247 -2.29456e-17)
(0.385841 0.00663121 3.76954e-17)
(0.37258 0.0067457 -3.81921e-17)
(0.358543 0.00686364 1.68082e-17)
(0.342693 0.00698866 1.33724e-17)
(0.326406 0.00713172 2.43317e-18)
(0.310566 0.00730854 -1.45736e-16)
(0.295148 0.00751272 4.8454e-16)
(0.278855 0.0077297 -1.21737e-15)
(0.260967 0.00797368 2.65229e-15)
(0.242634 0.00825816 -3.6792e-15)
(0.224482 0.00859889 -6.19182e-16)
(0.206253 0.00898663 1.45713e-14)
(0.186746 0.00940633 -2.96709e-14)
(0.165906 0.00989513 2.38412e-14)
(0.144424 0.0104846 6.71829e-15)
(0.122488 0.0112457 -3.37783e-14)
(0.0995128 0.0121483 2.61028e-14)
(0.0744393 0.0134087 -6.57764e-14)
(0.0473651 0.0143852 -1.77013e-13)
(0.0209039 0.0211051 -1.21364e-13)
(3.5 -8.56334e-16 1.21631e-23)
(3.5 -1.72634e-15 1.15272e-22)
(3.5 -3.84903e-15 1.03229e-22)
(3.5 -4.17017e-15 6.84233e-24)
(3.5 -1.65103e-17 7.9359e-24)
(3.5 4.0285e-15 1.27615e-23)
(3.5 4.01133e-15 4.89178e-24)
(3.5 2.18666e-15 -2.3811e-23)
(3.5 -2.89355e-15 4.33034e-23)
(3.5 -3.50042e-15 -8.89562e-24)
(3.5 -6.41906e-16 2.42202e-23)
(3.5 4.73142e-16 -1.25969e-23)
(3.5 9.19482e-16 1.0073e-22)
(3.5 2.48168e-15 -1.2075e-22)
(3.5 -2.46986e-15 -1.49044e-22)
(3.5 -2.78049e-15 -1.23446e-22)
(3.5 -1.76295e-15 -5.43715e-23)
(3.5 -3.34903e-15 -1.77863e-22)
(3.5 -4.61465e-15 -1.18385e-22)
(3.5 -3.33437e-15 -2.06408e-22)
(3.5 -2.71418e-15 -1.67361e-22)
(3.5 -1.5667e-16 -1.97153e-22)
(3.5 7.69676e-16 -2.51319e-22)
(3.5 1.25419e-15 -2.56161e-22)
(3.5 9.94592e-16 -2.06466e-22)
(3.5 -1.58845e-16 -1.74059e-22)
(3.5 -4.02217e-15 -2.79004e-22)
(3.5 -3.58424e-15 -2.66621e-22)
(3.5 2.46898e-16 -3.68628e-22)
(3.5 1.14217e-15 -2.42651e-22)
(3.5 1.0513e-15 -3.03091e-22)
(3.5 6.73799e-16 -2.51262e-22)
(3.5 1.75422e-15 -2.44008e-22)
(3.5 1.55771e-14 -2.58121e-22)
(3.5 2.1303e-13 -2.58021e-22)
(3.5 3.05485e-12 -2.4707e-22)
(3.5 4.35134e-11 -2.66791e-22)
(3.5 6.17226e-10 -2.5823e-22)
(3.5 8.6762e-09 -2.5735e-22)
(3.49997 1.17979e-07 -2.48636e-22)
(3.49954 1.39989e-06 -2.57196e-22)
(3.49218 -8.95129e-06 -2.48369e-22)
(3.36367 0.00068402 -2.56437e-22)
(2.41934 0.00624463 -3.38864e-22)
(1.33345 0.00820493 -2.46039e-22)
(1.01263 0.00969465 -1.46098e-21)
(0.942295 0.0105064 1.91925e-21)
(0.921043 0.0108971 5.97713e-21)
(0.908253 0.0111245 -2.97018e-21)
(0.898639 0.0113585 8.07453e-22)
(0.890216 0.0116109 -2.22889e-22)
(0.882339 0.011842 -2.24239e-21)
(0.874223 0.0120481 -7.66428e-21)
(0.865493 0.0122366 -2.84206e-21)
(0.855445 0.0123952 -6.10359e-21)
(0.844836 0.0125361 2.78699e-21)
(0.83525 0.0127144 3.02349e-21)
(0.826963 0.0129439 2.62195e-21)
(0.819553 0.0131809 6.61656e-22)
(0.811517 0.0134056 -5.54366e-21)
(0.802387 0.0136113 -1.72897e-21)
(0.791719 0.0137893 -6.17759e-21)
(0.781005 0.0139443 -7.5734e-21)
(0.77145 0.0141286 5.19368e-21)
(0.763501 0.0143441 -1.04995e-20)
(0.756139 0.0145491 1.95868e-21)
(0.747808 0.0147489 -8.30735e-22)
(0.737756 0.014932 4.08833e-21)
(0.726309 0.0150772 -1.87344e-21)
(0.715672 0.0152282 -1.71567e-21)
(0.706566 0.0153959 -3.79956e-21)
(0.698937 0.0155623 -1.48761e-21)
(0.690926 0.0157201 -1.82494e-21)
(0.681443 0.0158695 -1.37665e-21)
(0.669816 0.0160017 -1.06921e-21)
(0.658292 0.0161325 1.04713e-21)
(0.648203 0.0162638 -1.28377e-21)
(0.639772 0.0163773 3.23037e-21)
(0.631464 0.0164817 -4.24035e-21)
(0.621894 0.0165855 5.88174e-21)
(0.609971 0.0166918 7.00507e-21)
(0.597821 0.0168124 -2.45386e-20)
(0.586969 0.0169255 4.81029e-20)
(0.577727 0.017006 -3.487e-20)
(0.568588 0.0170753 -1.73334e-21)
(0.558078 0.0171535 9.20378e-20)
(0.54542 0.0172503 -9.87658e-20)
(0.532764 0.0173782 -1.87818e-19)
(0.521333 0.0174958 9.24733e-19)
(0.511158 0.0175698 -2.1454e-18)
(0.500676 0.0176387 4.98012e-18)
(0.48839 0.017734 -1.28005e-17)
(0.474681 0.0178792 2.86093e-17)
(0.461447 0.018076 -5.06707e-17)
(0.449443 0.0182388 7.00768e-17)
(0.437857 0.0183642 -7.5875e-17)
(0.425184 0.0184974 3.88792e-17)
(0.410669 0.0186909 1.05483e-16)
(0.395988 0.0189693 -3.90118e-16)
(0.382111 0.0192922 6.98002e-16)
(0.368833 0.0196147 -7.01634e-16)
(0.354767 0.0199576 -2.1115e-16)
(0.338916 0.0203595 2.73762e-15)
(0.322667 0.0208328 -6.79849e-15)
(0.306883 0.0213943 1.19348e-14)
(0.291497 0.0219959 -2.27152e-14)
(0.275204 0.0226798 6.08877e-14)
(0.25736 0.0234602 -1.45961e-13)
(0.239114 0.0243575 1.76162e-13)
(0.221109 0.0254328 1.37787e-13)
(0.202905 0.0266673 -9.22719e-13)
(0.183331 0.0280096 1.4305e-12)
(0.162511 0.0295213 -7.02317e-13)
(0.141051 0.0312959 -7.50358e-13)
(0.119115 0.0335651 1.93788e-12)
(0.0958628 0.0362436 -7.14738e-13)
(0.0704628 0.0400505 1.86318e-12)
(0.0429311 0.0430456 5.81205e-12)
(0.016609 0.0520859 -2.81177e-12)
(3.5 -1.22877e-15 4.58933e-23)
(3.5 -1.2136e-15 -7.92576e-23)
(3.5 -2.64882e-15 -3.46167e-23)
(3.5 -2.27339e-15 -6.81307e-24)
(3.5 2.24398e-16 3.60802e-23)
(3.5 3.64303e-15 -1.52513e-23)
(3.5 1.70867e-15 6.81233e-24)
(3.5 4.60776e-15 -7.66074e-23)
(3.5 1.55337e-16 5.24686e-23)
(3.5 -3.26233e-15 -3.98398e-23)
(3.5 -3.73108e-15 1.08146e-22)
(3.5 -1.8685e-15 -1.52805e-22)
(3.5 -4.1455e-15 -6.02924e-23)
(3.5 -2.05377e-15 -8.05228e-23)
(3.5 -2.09119e-15 3.65006e-23)
(3.5 -3.39529e-15 -3.90482e-23)
(3.5 -3.29249e-15 -4.39194e-23)
(3.5 -2.63766e-15 -1.09655e-22)
(3.5 -3.97706e-15 -2.81445e-23)
(3.5 -3.59752e-15 -9.46515e-23)
(3.5 -2.39366e-15 -2.67664e-22)
(3.5 -1.00777e-15 -3.55988e-22)
(3.5 3.66014e-16 -2.00105e-22)
(3.5 1.15403e-15 -3.15096e-22)
(3.5 6.8952e-16 -5.33723e-22)
(3.5 -9.48463e-16 -4.46375e-22)
(3.5 -1.56846e-15 -4.57244e-22)
(3.5 -3.55709e-17 -4.50677e-22)
(3.5 1.53657e-15 -3.99099e-22)
(3.5 7.7734e-16 -2.24037e-22)
(3.5 -4.65088e-17 -2.567e-22)
(3.5 1.62397e-16 -2.30431e-22)
(3.5 1.88872e-15 -2.58506e-22)
(3.5 2.70005e-14 -2.10363e-22)
(3.5 4.15003e-13 -2.39808e-22)
(3.5 6.3715e-12 -2.14316e-22)
(3.5 9.81124e-11 -2.1317e-22)
(3.5 1.50611e-09 -2.13964e-22)
(3.5 2.29363e-08 -2.12443e-22)
(3.49997 3.41627e-07 -2.10611e-22)
(3.49955 4.53525e-06 -2.08244e-22)
(3.49241 -1.38787e-05 -1.90487e-22)
(3.36587 0.00218745 -2.09206e-22)
(2.42588 0.0151328 -2.8201e-22)
(1.33533 0.0174728 -2.94485e-22)
(1.01243 0.0190735 4.7554e-21)
(0.941484 0.019775 6.12381e-21)
(0.919973 0.020029 1.3521e-20)
(0.907124 0.020232 9.33358e-21)
(0.897548 0.0205365 1.58975e-20)
(0.889183 0.0208939 3.01734e-21)
(0.881307 0.0212413 9.93624e-21)
(0.873153 0.0215675 9.88362e-21)
(0.864349 0.0218669 2.56433e-21)
(0.854208 0.022148 1.40955e-20)
(0.843612 0.0224062 -7.72491e-21)
(0.834067 0.0226917 1.81778e-21)
(0.82586 0.0230535 -1.17765e-20)
(0.818447 0.0234182 -8.73208e-21)
(0.810359 0.0237578 2.05253e-21)
(0.801148 0.0240861 -1.84315e-20)
(0.790404 0.0243944 -3.84646e-21)
(0.779705 0.0246768 6.47647e-21)
(0.770187 0.0249841 -1.42916e-20)
(0.762314 0.0253347 -1.26079e-20)
(0.754935 0.025652 -9.6638e-21)
(0.746558 0.0259447 -9.22102e-21)
(0.73641 0.0262417 -4.2107e-21)
(0.724918 0.0264851 1.23133e-21)
(0.714302 0.0267291 5.35295e-21)
(0.705237 0.027001 6.78749e-22)
(0.697615 0.0272598 2.75112e-21)
(0.689575 0.0274928 1.04801e-20)
(0.68002 0.0277253 6.78374e-21)
(0.668338 0.0279328 -1.36985e-21)
(0.656811 0.0281241 1.88475e-20)
(0.646742 0.0283222 -3.48415e-21)
(0.638318 0.0285079 1.37627e-20)
(0.629976 0.0286691 -1.45576e-20)
(0.62035 0.0288217 9.64854e-21)
(0.608382 0.0289727 6.27184e-20)
(0.596243 0.0291233 -1.87808e-19)
(0.58539 0.0292865 3.34959e-19)
(0.576125 0.0294174 -3.33694e-19)
(0.566941 0.0295275 3.07274e-20)
(0.556371 0.0296351 7.70054e-19)
(0.543689 0.0297549 -1.56575e-18)
(0.531032 0.0298988 8.50474e-19)
(0.519592 0.0300702 1.85219e-18)
(0.509354 0.0302078 -4.5371e-18)
(0.498799 0.030328 7.65836e-18)
(0.486461 0.0304611 -2.64502e-17)
(0.472773 0.0306363 8.22666e-17)
(0.459561 0.0308941 -1.67134e-16)
(0.447531 0.0311515 2.40571e-16)
(0.435853 0.0313882 -2.80419e-16)
(0.423064 0.0316395 1.49504e-16)
(0.408517 0.031937 5.9104e-16)
(0.393823 0.0323545 -2.40348e-15)
(0.379908 0.0328562 5.03911e-15)
(0.36651 0.0333772 -6.66837e-15)
(0.352264 0.0339487 1.70612e-15)
(0.336295 0.0346039 1.76138e-14)
(0.319959 0.0353702 -3.58009e-14)
(0.304112 0.0362621 -3.96662e-14)
(0.288573 0.0372264 4.29731e-13)
(0.272059 0.038309 -1.40038e-12)
(0.254053 0.0395394 2.50349e-12)
(0.235715 0.0409728 -1.68166e-12)
(0.217738 0.0426513 -3.51373e-12)
(0.199493 0.0446288 1.12771e-11)
(0.179805 0.0468908 -1.19265e-11)
(0.159003 0.0494865 1.35041e-12)
(0.13771 0.052463 8.96294e-12)
(0.11623 0.0562109 -2.90317e-11)
(0.0933146 0.0605815 -1.45965e-12)
(0.0685607 0.066852 5.69523e-12)
(0.0418441 0.0721237 -1.72777e-11)
(0.0168556 0.0827519 -4.38574e-11)
(3.5 -9.47346e-16 -5.69248e-23)
(3.5 -1.05684e-15 4.39686e-23)
(3.5 2.3129e-15 7.66318e-23)
(3.5 1.98736e-15 1.14235e-22)
(3.5 1.0266e-15 -1.07182e-23)
(3.5 4.85514e-16 -1.22709e-22)
(3.5 1.08899e-15 -4.79362e-23)
(3.5 1.50647e-15 -9.02585e-23)
(3.5 1.34585e-15 -9.15493e-23)
(3.5 -3.27179e-15 -7.35066e-23)
(3.5 -5.68387e-15 -2.21879e-22)
(3.5 -5.82546e-15 -2.82183e-22)
(3.5 -6.57037e-15 -3.00495e-22)
(3.5 -7.27864e-15 -3.7385e-22)
(3.5 -4.05736e-15 4.10364e-23)
(3.5 -4.81683e-15 4.29215e-23)
(3.5 -3.31018e-15 -2.12142e-23)
(3.5 2.76513e-16 5.40533e-24)
(3.5 -1.1483e-15 -6.11241e-22)
(3.5 -2.65876e-15 -2.20691e-22)
(3.5 -3.92411e-15 -2.79134e-22)
(3.5 -3.39722e-15 4.75371e-23)
(3.5 7.69489e-16 -4.45718e-23)
(3.5 2.24489e-15 1.04029e-22)
(3.5 2.84995e-15 3.16795e-23)
(3.5 2.95553e-15 -1.79106e-22)
(3.5 2.65151e-15 -7.30994e-23)
(3.5 3.03443e-15 1.80877e-22)
(3.5 6.66182e-16 1.3393e-22)
(3.5 -2.10837e-15 -1.69269e-22)
(3.5 -2.29845e-15 -1.13524e-22)
(3.5 -5.73438e-16 -9.55761e-23)
(3.5 3.87486e-15 -9.7613e-23)
(3.5 4.10368e-14 -9.18868e-23)
(3.5 5.98152e-13 -5.11054e-23)
(3.5 9.2596e-12 -4.82e-23)
(3.5 1.43924e-10 -6.64701e-23)
(3.5 2.23466e-09 -3.25116e-23)
(3.5 3.45583e-08 -3.42254e-23)
(3.49997 5.22939e-07 -4.37864e-23)
(3.49958 6.98056e-06 -4.3836e-23)
(3.49287 -2.65056e-05 -4.89377e-23)
(3.37025 0.00361228 1.53042e-23)
(2.4391 0.0225929 -1.87104e-22)
(1.34106 0.0257939 -3.78092e-22)
(1.01622 0.0279295 -5.86936e-21)
(0.944821 0.0288074 -2.33375e-21)
(0.923011 0.0290917 -1.03094e-20)
(0.909943 0.029386 -2.32928e-20)
(0.90021 0.0298544 -3.26067e-21)
(0.891733 0.0303857 -2.42546e-20)
(0.883745 0.0308939 -2.10108e-21)
(0.875473 0.0313788 -1.98094e-20)
(0.866544 0.0318242 1.24444e-22)
(0.856296 0.0322179 -1.45581e-20)
(0.845748 0.0326005 8.20838e-21)
(0.836256 0.0330411 1.55975e-20)
(0.828192 0.0335393 1.67813e-20)
(0.82081 0.034012 1.84302e-20)
(0.812676 0.0344569 1.95118e-20)
(0.803379 0.034881 2.14781e-20)
(0.792619 0.03526 3.65145e-20)
(0.78201 0.0356748 1.50377e-20)
(0.7726 0.0361533 3.82653e-20)
(0.76484 0.0366518 2.8806e-20)
(0.757435 0.0370845 3.06144e-20)
(0.749003 0.0374679 3.1036e-20)
(0.738749 0.0378176 1.29189e-20)
(0.727267 0.038142 2.97837e-20)
(0.716749 0.0385055 -4.63825e-21)
(0.707795 0.0389086 3.37075e-21)
(0.700199 0.0392718 -2.01098e-21)
(0.692117 0.03958 1.06093e-20)
(0.682466 0.0398636 3.71897e-21)
(0.670751 0.0401157 -1.88496e-21)
(0.659282 0.0403827 1.72959e-20)
(0.649297 0.0406784 -3.15605e-20)
(0.640907 0.0409453 5.31094e-20)
(0.632507 0.0411681 -3.37322e-20)
(0.622778 0.0413586 -1.31179e-19)
(0.610777 0.0415375 7.39725e-19)
(0.598683 0.0417394 -1.98004e-18)
(0.587876 0.0419765 3.274e-18)
(0.57858 0.042172 -2.94569e-18)
(0.569301 0.0423289 -1.50516e-18)
(0.558618 0.0424685 1.26468e-17)
(0.54589 0.0426179 -2.47036e-17)
(0.533233 0.0428183 1.94133e-17)
(0.521793 0.0430599 8.21584e-18)
(0.511474 0.0432783 -1.89608e-17)
(0.500773 0.0434634 -4.0551e-17)
(0.488285 0.0436452 9.72138e-17)
(0.474564 0.0438451 9.0647e-17)
(0.461328 0.0441652 -4.03501e-16)
(0.449228 0.0445272 2.02294e-16)
(0.437332 0.0448965 3.93519e-16)
(0.424263 0.0452849 -2.30586e-16)
(0.409534 0.0457237 -1.16913e-15)
(0.394694 0.0462901 3.46797e-15)
(0.380621 0.0469564 -8.58703e-15)
(0.36696 0.047674 1.93781e-14)
(0.352383 0.0484736 -1.71369e-14)
(0.336153 0.0493953 -5.18004e-14)
(0.319611 0.0504697 2.09842e-13)
(0.303587 0.0516823 -2.41239e-13)
(0.287818 0.0529897 -6.55627e-13)
(0.27099 0.0544818 3.61985e-12)
(0.252743 0.0561831 -6.66511e-12)
(0.234226 0.0581485 1.42348e-12)
(0.216147 0.060397 1.81392e-11)
(0.197761 0.0630432 -3.35863e-11)
(0.177904 0.066091 9.62449e-12)
(0.157052 0.0697122 1.56868e-11)
(0.135838 0.0738132 9.41401e-12)
(0.114674 0.0788768 1.68684e-10)
(0.0920753 0.0846385 1.18229e-10)
(0.0681021 0.0928787 -2.26573e-10)
(0.0423827 0.100302 -4.32584e-10)
(0.0185774 0.111398 -5.26326e-10)
(3.5 5.7506e-16 -2.46693e-23)
(3.5 8.6644e-16 1.59405e-22)
(3.5 2.35488e-15 -1.4311e-22)
(3.5 1.72813e-15 1.80185e-22)
(3.5 -4.64994e-16 2.2827e-22)
(3.5 -3.84401e-15 3.45445e-22)
(3.5 -2.93076e-15 9.99897e-23)
(3.5 -3.14175e-15 -2.14707e-22)
(3.5 -1.4235e-15 -8.06503e-23)
(3.5 6.39242e-16 -2.24716e-22)
(3.5 6.38357e-16 -5.71354e-22)
(3.5 -2.14388e-15 9.40038e-23)
(3.5 -1.50355e-15 -9.29693e-23)
(3.5 -3.89911e-15 2.70831e-24)
(3.5 -3.5863e-15 -4.84976e-22)
(3.5 -2.51517e-15 -4.53532e-22)
(3.5 -3.21607e-16 2.13066e-22)
(3.5 -5.66779e-16 4.736e-23)
(3.5 6.06869e-16 5.4316e-22)
(3.5 -2.76315e-15 -7.21146e-22)
(3.5 -2.81408e-15 -6.40168e-22)
(3.5 -4.28527e-18 -4.71881e-22)
(3.5 3.55048e-15 -5.91599e-22)
(3.5 4.79289e-15 -5.85396e-22)
(3.5 7.34405e-15 -2.13754e-22)
(3.5 7.41967e-15 1.33951e-22)
(3.5 5.62141e-15 -4.22845e-23)
(3.5 2.90226e-15 -1.98991e-22)
(3.5 6.89301e-16 -2.39685e-22)
(3.5 -1.56969e-15 1.15745e-22)
(3.5 4.20649e-16 1.8795e-22)
(3.5 1.5735e-15 1.77023e-22)
(3.5 4.50287e-15 2.64964e-22)
(3.5 4.57411e-14 1.6376e-22)
(3.5 6.69193e-13 1.27643e-22)
(3.5 1.02871e-11 2.60237e-22)
(3.5 1.58772e-10 2.19129e-22)
(3.5 2.44764e-09 1.65789e-22)
(3.5 3.75424e-08 2.17404e-22)
(3.49998 5.61902e-07 1.92653e-22)
(3.49961 7.26426e-06 1.77734e-22)
(3.4934 -4.23579e-05 2.11659e-22)
(3.37545 0.00413423 2.7625e-22)
(2.45517 0.0277121 -1.11e-21)
(1.34712 0.0329291 -1.80355e-21)
(1.01903 0.0364638 5.21452e-21)
(0.946943 0.0380229 2.62779e-22)
(0.925037 0.0386001 1.93196e-20)
(0.912083 0.0390243 -7.22757e-22)
(0.902552 0.0395739 -2.83817e-21)
(0.894291 0.0401695 3.44271e-23)
(0.886476 0.0407437 5.20345e-21)
(0.878348 0.0412968 1.97346e-20)
(0.869508 0.0418285 7.73207e-21)
(0.859275 0.0423064 9.33198e-21)
(0.848839 0.0427657 7.00753e-22)
(0.839471 0.0432923 -3.51677e-21)
(0.831577 0.043894 5.828e-21)
(0.824297 0.0444705 6.35986e-21)
(0.816218 0.045031 3.6013e-21)
(0.806885 0.045585 -7.78192e-21)
(0.796095 0.0460706 5.90345e-21)
(0.785571 0.046547 -7.88603e-22)
(0.776311 0.0471182 -8.0529e-21)
(0.768751 0.047728 -1.16252e-21)
(0.761416 0.0482747 -9.16936e-21)
(0.752982 0.0487845 -2.17317e-21)
(0.742619 0.0492195 -8.87752e-21)
(0.731193 0.0495857 9.7007e-21)
(0.720865 0.0499991 -8.76173e-21)
(0.712117 0.0504728 1.20601e-20)
(0.704643 0.0509253 -7.30749e-22)
(0.69659 0.0513254 -1.4096e-21)
(0.686874 0.0516746 2.42901e-20)
(0.675176 0.0519403 -1.02947e-20)
(0.663864 0.0522118 3.49674e-20)
(0.654083 0.0525407 -8.68555e-20)
(0.645838 0.0528742 1.12975e-19)
(0.637449 0.0531808 -3.07758e-20)
(0.627662 0.0534344 -4.11531e-19)
(0.615686 0.0536113 1.91666e-18)
(0.603742 0.0537896 -4.99453e-18)
(0.593113 0.0540345 8.11345e-18)
(0.583884 0.0543105 -6.38818e-18)
(0.574553 0.0545711 -9.75665e-18)
(0.563781 0.0547849 5.3449e-17)
(0.551084 0.0549274 -1.00679e-16)
(0.538543 0.0551182 4.96171e-17)
(0.527196 0.0553917 1.913e-16)
(0.516837 0.0557261 -4.71524e-16)
(0.50597 0.0560792 3.39048e-16)
(0.493296 0.0564032 1.48695e-16)
(0.47953 0.0566997 1.41117e-15)
(0.466244 0.0571158 -6.18087e-15)
(0.454008 0.0576623 5.08948e-15)
(0.441818 0.0582856 1.02768e-14)
(0.428352 0.0589397 -2.63989e-14)
(0.413342 0.0596273 3.96769e-15)
(0.398302 0.0604115 7.7694e-14)
(0.384038 0.0613321 -1.16525e-13)
(0.370023 0.0623487 -9.08106e-14)
(0.354972 0.063473 5.17764e-13)
(0.338378 0.064736 -5.54308e-13)
(0.321584 0.0661372 -8.68009e-13)
(0.30537 0.0676763 3.73863e-12)
(0.289334 0.0693187 -2.93429e-12)
(0.27217 0.0712192 -1.02469e-11)
(0.253657 0.0734266 2.21945e-11)
(0.234926 0.0759223 6.56557e-12)
(0.216695 0.0786984 -7.34062e-11)
(0.198155 0.0819479 4.38747e-11)
(0.178172 0.0857157 1.17407e-10)
(0.157263 0.0903058 8.55637e-12)
(0.136041 0.0954679 -3.15308e-10)
(0.115034 0.10176 -8.55237e-10)
(0.0927195 0.108738 -7.57276e-10)
(0.0694193 0.118554 3.24226e-10)
(0.0445875 0.127994 9.20129e-10)
(0.0212241 0.139091 1.04227e-09)
(3.5 2.65388e-16 1.70162e-22)
(3.5 -1.07253e-15 1.03086e-23)
(3.5 -2.16674e-15 8.80219e-23)
(3.5 -2.32985e-15 -2.46367e-22)
(3.5 -4.08988e-15 -3.53677e-22)
(3.5 -3.67795e-15 -1.37471e-21)
(3.5 -3.44698e-15 -6.62485e-22)
(3.5 -3.21898e-15 -1.45472e-23)
(3.5 -7.11081e-16 -8.14155e-22)
(3.5 1.69623e-15 -1.39707e-21)
(3.5 2.84631e-15 8.22152e-22)
(3.5 4.0823e-15 -1.10068e-21)
(3.5 1.49062e-16 -1.3306e-21)
(3.5 8.90746e-16 -3.20931e-22)
(3.5 -3.54101e-16 -7.95509e-22)
(3.5 -9.48034e-16 3.39273e-22)
(3.5 1.37206e-15 -2.31332e-21)
(3.5 3.33311e-15 -3.23842e-22)
(3.5 2.35065e-15 -7.94984e-22)
(3.5 3.25128e-15 -1.02371e-21)
(3.5 2.77647e-15 -8.17932e-22)
(3.5 3.00803e-15 -7.11868e-22)
(3.5 6.00163e-15 -1.95315e-22)
(3.5 6.21304e-15 -1.30428e-22)
(3.5 4.98511e-15 3.67214e-22)
(3.5 3.52415e-15 5.71266e-22)
(3.5 3.06369e-15 5.40646e-22)
(3.5 1.27076e-15 4.71433e-22)
(3.5 2.17843e-16 5.61526e-22)
(3.5 3.63417e-15 3.7448e-22)
(3.5 4.72894e-15 4.73219e-22)
(3.5 3.09378e-15 4.00377e-22)
(3.5 2.84219e-15 4.22809e-22)
(3.5 4.25278e-14 3.39262e-22)
(3.5 6.89152e-13 3.04685e-22)
(3.5 1.06746e-11 2.71864e-22)
(3.5 1.64826e-10 2.49085e-22)
(3.5 2.545e-09 2.37241e-22)
(3.5 3.9158e-08 2.0305e-22)
(3.49998 5.87205e-07 1.76308e-22)
(3.49965 7.41127e-06 1.69591e-22)
(3.49397 -6.2611e-05 1.65677e-22)
(3.38121 0.00483555 5.01479e-22)
(2.47421 0.0337516 1.58351e-21)
(1.35335 0.0409376 3.97022e-21)
(1.02032 0.0457155 -9.90443e-21)
(0.946974 0.0479922 1.60673e-21)
(0.924478 0.0487728 -3.12487e-22)
(0.911381 0.0493346 3.04849e-20)
(0.901854 0.0500269 1.35706e-20)
(0.893588 0.0507447 4.20461e-20)
(0.885628 0.0514231 -1.14772e-20)
(0.877254 0.0520549 2.3977e-20)
(0.868024 0.0526645 -6.00908e-21)
(0.857431 0.0532251 -2.92776e-21)
(0.846953 0.0537904 -8.33916e-21)
(0.837545 0.0544588 -1.65599e-20)
(0.829582 0.055191 -1.75906e-20)
(0.822009 0.0558452 -1.02079e-20)
(0.813561 0.0564633 -2.33016e-21)
(0.803866 0.0570514 2.86158e-21)
(0.792883 0.0576161 -2.88645e-20)
(0.782438 0.058197 -1.71209e-20)
(0.773331 0.0588953 -1.27934e-20)
(0.765835 0.0595943 -1.88399e-20)
(0.758318 0.0601881 -2.01381e-20)
(0.749637 0.0607419 -1.23666e-20)
(0.739031 0.0612481 -2.60498e-20)
(0.727693 0.0616988 1.07115e-20)
(0.717603 0.0622145 -3.15047e-20)
(0.709095 0.0628129 5.27986e-21)
(0.701682 0.0633547 -8.19918e-21)
(0.693492 0.0638076 -3.18735e-20)
(0.683529 0.0642018 -4.7819e-21)
(0.67183 0.06451 -2.02378e-20)
(0.660795 0.064853 4.72439e-20)
(0.651346 0.0652784 -1.13916e-19)
(0.643349 0.0657238 1.50932e-19)
(0.635007 0.0661073 -4.06191e-20)
(0.625036 0.0664447 -1.17139e-18)
(0.61305 0.0666694 5.16155e-18)
(0.601379 0.0668878 -1.37294e-17)
(0.591177 0.0672036 2.30668e-17)
(0.582376 0.0675806 -1.75058e-17)
(0.573266 0.0679466 -4.54643e-17)
(0.562411 0.0682902 2.47433e-16)
(0.54979 0.0684957 -4.69144e-16)
(0.537609 0.0686785 -2.07485e-16)
(0.52684 0.068967 3.58124e-15)
(0.517009 0.0693221 -1.05359e-14)
(0.506498 0.0697197 1.59562e-14)
(0.49391 0.0701714 3.15148e-15)
(0.480419 0.0705603 -6.81902e-14)
(0.467629 0.0710018 1.27743e-13)
(0.456029 0.0715235 -5.26692e-14)
(0.444336 0.0721815 -2.19821e-13)
(0.431086 0.0729835 5.07686e-13)
(0.416253 0.0738674 -2.56816e-13)
(0.401479 0.074855 -9.17616e-13)
(0.387597 0.0759717 2.09028e-12)
(0.373852 0.077229 -1.08433e-12)
(0.358862 0.0786595 -4.26465e-12)
(0.342277 0.0802655 1.07932e-11)
(0.325442 0.0820564 -3.64357e-12)
(0.30915 0.084017 -2.77204e-11)
(0.292815 0.0861279 4.12481e-11)
(0.275232 0.0885085 4.39763e-11)
(0.256344 0.0912534 -1.27251e-10)
(0.237297 0.0943244 -4.65322e-11)
(0.218748 0.097627 3.28869e-10)
(0.199968 0.101451 1.00412e-10)
(0.179858 0.105858 -6.45022e-10)
(0.158884 0.111294 -6.39021e-10)
(0.137621 0.117388 1.26139e-09)
(0.116693 0.12483 3.5795e-09)
(0.0947088 0.133014 3.41466e-09)
(0.0720387 0.144221 1.89279e-09)
(0.0480318 0.155511 1.14246e-09)
(0.0247278 0.166373 1.15481e-09)
(3.5 -4.26925e-16 3.47243e-22)
(3.5 -2.54192e-15 1.77888e-22)
(3.5 -3.74946e-15 -3.19608e-23)
(3.5 -5.03352e-15 -5.66264e-22)
(3.5 -4.66403e-15 6.53377e-22)
(3.5 -2.88012e-15 7.3299e-22)
(3.5 -1.36881e-15 -1.96988e-22)
(3.5 3.34088e-16 9.04453e-22)
(3.5 2.96445e-16 -2.69946e-22)
(3.5 -1.66081e-15 -1.81636e-22)
(3.5 1.64797e-15 -2.6812e-22)
(3.5 4.54136e-15 5.7336e-23)
(3.5 3.95192e-15 1.33438e-21)
(3.5 1.12469e-15 -6.62199e-22)
(3.5 -1.25276e-15 -1.04179e-21)
(3.5 -1.78281e-15 -8.83097e-22)
(3.5 -2.30662e-16 9.0094e-22)
(3.5 1.78559e-15 3.84974e-22)
(3.5 4.94145e-15 -2.41227e-24)
(3.5 8.25631e-15 1.13277e-21)
(3.5 7.13531e-15 1.02042e-21)
(3.5 4.83701e-15 9.6474e-22)
(3.5 5.61173e-15 8.64154e-22)
(3.5 6.16666e-15 1.1174e-21)
(3.5 4.00385e-15 3.6889e-22)
(3.5 2.35586e-15 3.37075e-22)
(3.5 1.04099e-15 4.15099e-22)
(3.5 1.65819e-15 6.65326e-22)
(3.5 2.49564e-15 8.1924e-22)
(3.5 -5.4204e-16 3.17105e-22)
(3.5 -1.01487e-15 7.13699e-22)
(3.5 -7.34201e-16 8.75425e-22)
(3.5 3.00144e-15 9.94418e-22)
(3.5 4.83614e-14 1.02355e-21)
(3.5 7.63253e-13 1.04257e-21)
(3.5 1.18791e-11 1.10718e-21)
(3.5 1.84576e-10 1.15853e-21)
(3.5 2.87229e-09 1.20116e-21)
(3.5 4.45911e-08 1.27179e-21)
(3.49998 6.72828e-07 1.34149e-21)
(3.49969 8.29594e-06 1.31996e-21)
(3.49463 -8.5506e-05 1.23812e-21)
(3.38819 0.00599681 1.26814e-21)
(2.49856 0.0417558 1.45821e-21)
(1.36105 0.0509704 1.17514e-21)
(1.0211 0.0566555 1.45283e-21)
(0.945775 0.0590043 -4.97511e-21)
(0.92259 0.0597287 -2.77783e-20)
(0.909368 0.0603987 -2.24194e-20)
(0.899924 0.0612337 -4.549e-20)
(0.891757 0.0620474 -3.66503e-20)
(0.883813 0.0627957 -4.38642e-20)
(0.875436 0.0635108 -4.10084e-20)
(0.866137 0.064223 -2.43406e-20)
(0.855568 0.0649229 -1.54056e-20)
(0.845318 0.0656504 -4.61677e-20)
(0.836187 0.0665049 -3.37723e-21)
(0.828482 0.0673803 -7.39154e-21)
(0.820936 0.068152 -1.85349e-20)
(0.81244 0.0688825 -1.40273e-20)
(0.802626 0.0695883 -2.14251e-20)
(0.791661 0.0702401 -5.81603e-21)
(0.781372 0.0709586 1.90096e-20)
(0.772412 0.0717961 5.20949e-21)
(0.764919 0.07258 2.83243e-20)
(0.757181 0.07324 1.76285e-20)
(0.748241 0.0738546 1.55584e-20)
(0.737364 0.0744101 1.67183e-20)
(0.726068 0.074932 7.53037e-21)
(0.716051 0.0755553 1.47277e-20)
(0.707633 0.0762045 -2.63283e-21)
(0.700009 0.0767482 1.21144e-20)
(0.691544 0.0772035 -1.34242e-20)
(0.681175 0.0776149 -3.45116e-21)
(0.669334 0.0779465 9.78556e-21)
(0.658365 0.0783434 -2.42037e-20)
(0.649027 0.0787873 6.82008e-20)
(0.640959 0.0791887 -9.49383e-20)
(0.632377 0.0795244 -4.02983e-20)
(0.621997 0.0798238 9.83432e-19)
(0.609819 0.0800503 -3.8716e-18)
(0.598231 0.0803152 1.05143e-17)
(0.588223 0.0806197 -2.16935e-17)
(0.579489 0.0809206 3.11536e-17)
(0.570291 0.0812135 1.02127e-17)
(0.559153 0.0814973 -2.97311e-16)
(0.546493 0.0817046 9.04759e-16)
(0.534565 0.081983 -4.14922e-16)
(0.524173 0.0823081 -5.3128e-15)
(0.514539 0.0826706 2.00964e-14)
(0.504088 0.0830815 -3.22323e-14)
(0.491434 0.0835587 -2.49885e-14)
(0.478153 0.0840354 2.28913e-13)
(0.46579 0.0846732 -4.39331e-13)
(0.454715 0.0854086 1.7912e-13)
(0.44348 0.0862737 1.03508e-12)
(0.430542 0.0872958 -2.69142e-12)
(0.416136 0.0883776 1.96526e-12)
(0.401916 0.089563 4.08994e-12)
(0.388665 0.090878 -1.3178e-11)
(0.375478 0.0923825 1.51278e-11)
(0.360869 0.0941205 1.07681e-11)
(0.34465 0.096092 -6.66537e-11)
(0.328229 0.0982768 6.47903e-11)
(0.312378 0.100638 1.10006e-10)
(0.296469 0.103235 -2.64079e-10)
(0.279095 0.106174 -1.46017e-10)
(0.260245 0.109513 7.13935e-10)
(0.241008 0.113321 2.689e-10)
(0.221972 0.117294 -1.41551e-09)
(0.202852 0.121718 -1.14675e-09)
(0.18258 0.126673 1.9215e-09)
(0.161539 0.132787 3.44751e-09)
(0.140264 0.139623 -1.69967e-09)
(0.119403 0.148101 -9.34263e-09)
(0.0976638 0.157505 -1.05099e-08)
(0.0754597 0.169988 -7.78542e-09)
(0.052477 0.183052 -4.76299e-09)
(0.028888 0.193599 -3.65803e-09)
(3.5 5.50954e-16 -6.22854e-22)
(3.5 -5.19606e-16 -5.88318e-22)
(3.5 -3.7784e-16 -3.864e-22)
(3.5 1.76197e-15 -8.70909e-22)
(3.5 8.0961e-16 -9.06237e-22)
(3.5 5.29918e-16 -6.95429e-22)
(3.5 4.51529e-16 3.16707e-22)
(3.5 -4.16292e-16 -9.31867e-22)
(3.5 -3.21561e-15 -3.16725e-22)
(3.5 -3.00377e-15 -3.40458e-22)
(3.5 1.06809e-15 -1.12271e-22)
(3.5 2.29781e-15 -1.2224e-22)
(3.5 1.54806e-15 1.28285e-21)
(3.5 -8.21584e-16 3.0549e-21)
(3.5 -1.71782e-15 3.21431e-21)
(3.5 -4.12691e-16 2.2309e-21)
(3.5 -2.07336e-16 3.12157e-21)
(3.5 7.86581e-16 2.02241e-21)
(3.5 2.79624e-15 2.13944e-21)
(3.5 5.16034e-15 3.70219e-21)
(3.5 8.54114e-15 1.83656e-21)
(3.5 8.55504e-15 1.38371e-21)
(3.5 7.42082e-15 1.39664e-21)
(3.5 6.10832e-15 1.58656e-21)
(3.5 5.59436e-15 2.41651e-21)
(3.5 4.09129e-15 2.21765e-21)
(3.5 3.38218e-15 2.01889e-21)
(3.5 1.72602e-15 1.92981e-21)
(3.5 -1.82392e-15 2.02051e-21)
(3.5 -4.92322e-15 2.56004e-21)
(3.5 -5.71641e-15 2.21564e-21)
(3.5 -4.54845e-15 2.18101e-21)
(3.5 9.43002e-16 2.09363e-21)
(3.5 5.80984e-14 2.23356e-21)
(3.5 9.0596e-13 1.99459e-21)
(3.5 1.38984e-11 1.87247e-21)
(3.5 2.13923e-10 1.81026e-21)
(3.5 3.31928e-09 1.63884e-21)
(3.5 5.1816e-08 1.5913e-21)
(3.49998 7.84265e-07 1.60638e-21)
(3.49974 9.32789e-06 1.56938e-21)
(3.49552 -0.000112878 1.54721e-21)
(3.39759 0.00754497 1.24702e-21)
(2.53311 0.0511656 1.9794e-21)
(1.37312 0.0624557 1.97591e-21)
(1.02473 0.0687581 -5.68785e-21)
(0.947183 0.0712491 -1.56158e-20)
(0.92339 0.0718999 1.77595e-20)
(0.910179 0.0726287 -4.60979e-20)
(0.900847 0.0735612 1.12571e-20)
(0.892745 0.0744629 -3.03474e-21)
(0.884759 0.0752747 1.44028e-20)
(0.876312 0.0760391 1.25556e-20)
(0.866884 0.076783 2.44196e-20)
(0.856367 0.0775374 -1.35985e-20)
(0.846405 0.0783549 4.90665e-20)
(0.837557 0.0793308 -7.62279e-22)
(0.830043 0.0802997 1.60684e-20)
(0.822423 0.0811553 -1.32494e-20)
(0.813857 0.0819675 1.03497e-20)
(0.80393 0.0827534 -3.30989e-21)
(0.793103 0.0835149 -1.06723e-20)
(0.783126 0.0843458 -3.10526e-20)
(0.774477 0.0853095 1.59729e-20)
(0.767068 0.0861933 1.85313e-20)