/*--------------------------------*- C++ -*----------------------------------*\
| =========                 |                                                 |
| \\      /  F ield         | OpenFOAM: The Open Source CFD Toolbox           |
|  \\    /   O peration     | Version:  2.2.x                                 |
|   \\  /    A nd           | Web:      www.OpenFOAM.org                      |
|    \\/     M anipulation  |                                                 |
\*---------------------------------------------------------------------------*/
FoamFile
{
    version     2.0;
    format      ascii;
    class       volScalarField;
    location    "1.95";
    object      Bx;
}
// * * * * * * * * * * * * * * * * * * * * * * * * * * * * * * * * * * * * * //

dimensions      [1 0 -2 0 0 -1 0];

internalField   nonuniform List<scalar> 
14161
(
1.00187
1.00166
1.00167
1.00167
1.00166
1.00164
1.00161
1.00155
1.00147
1.00133
1.00115
1.0009
1.00056
1.00014
0.999606
0.99896
0.998183
0.997271
0.996206
0.994987
0.993606
0.992075
0.990374
0.988518
0.98651
0.984385
0.982137
0.979769
0.977265
0.974649
0.971928
0.969136
0.966284
0.963437
0.960524
0.957623
0.954878
0.952447
0.951111
0.954065
0.96406
0.979897
1.00529
1.031
1.05454
1.07378
1.08884
1.10124
1.11185
1.12143
1.13017
1.13852
1.14597
1.15323
1.15958
1.16603
1.17232
1.17766
1.18312
1.1881
1.19272
1.19777
1.20224
1.20657
1.21144
1.21579
1.22024
1.22522
1.2299
1.23491
1.24043
1.24583
1.25132
1.25692
1.26214
1.26777
1.27387
1.28006
1.28652
1.2928
1.29864
1.30476
1.31119
1.31714
1.32275
1.32805
1.33354
1.33974
1.34571
1.3515
1.35793
1.36469
1.37244
1.38088
1.38845
1.39389
1.39882
1.40293
1.40626
1.40904
1.40966
1.40664
1.39844
1.38028
1.34554
1.28612
1.1948
1.0774
0.949055
0.823883
0.713829
0.618364
0.532566
0.452693
0.372404
0.291196
0.201849
0.124349
0.0338513
1.00187
1.00166
1.00167
1.00167
1.00166
1.00165
1.00161
1.00155
1.00146
1.00133
1.00115
1.00089
1.00056
1.00014
0.99961
0.998964
0.998188
0.997273
0.996202
0.994982
0.993613
0.992086
0.990381
0.988513
0.986505
0.984379
0.982128
0.979755
0.977253
0.974639
0.971919
0.969146
0.966302
0.963468
0.96054
0.957635
0.95482
0.952435
0.952551
0.957457
0.974025
0.995162
1.02314
1.04913
1.06911
1.08422
1.0966
1.1072
1.11666
1.12527
1.13343
1.14108
1.14842
1.15518
1.16186
1.16805
1.17406
1.17945
1.18452
1.18964
1.19439
1.19913
1.20376
1.20803
1.21273
1.21748
1.22208
1.22711
1.23212
1.23714
1.24266
1.24815
1.25364
1.25932
1.2646
1.27005
1.27595
1.2819
1.28802
1.29404
1.29966
1.30558
1.3118
1.31769
1.32337
1.32869
1.33416
1.34041
1.34679
1.35327
1.36009
1.36663
1.37353
1.38055
1.3868
1.39207
1.39661
1.40002
1.40176
1.40078
1.39642
1.38758
1.36969
1.33838
1.28775
1.21252
1.10966
0.986906
0.864796
0.756207
0.659601
0.572539
0.492002
0.413913
0.33502
0.258047
0.177205
0.111849
0.0370727
1.00188
1.00166
1.00168
1.00167
1.00167
1.00165
1.00162
1.00156
1.00147
1.00134
1.00115
1.0009
1.00057
1.00015
0.999622
0.998978
0.998207
0.997288
0.996222
0.995008
0.993639
0.992109
0.99041
0.988548
0.986542
0.984418
0.982162
0.979791
0.977287
0.974678
0.97197
0.969212
0.966382
0.963525
0.960583
0.95772
0.954862
0.953
0.954104
0.962397
0.986128
1.00941
1.03877
1.06339
1.0806
1.09315
1.1036
1.11293
1.12131
1.12915
1.13654
1.14335
1.14991
1.15624
1.16235
1.16827
1.17365
1.17898
1.18405
1.18914
1.19422
1.19892
1.20371
1.20843
1.21314
1.21811
1.22276
1.22752
1.23253
1.2373
1.24238
1.2476
1.2528
1.25839
1.26374
1.26921
1.27519
1.28125
1.28741
1.29359
1.29932
1.30528
1.31151
1.31765
1.3239
1.32981
1.33565
1.34242
1.34969
1.35688
1.36383
1.37021
1.37547
1.38015
1.38416
1.38774
1.39024
1.39049
1.38756
1.38022
1.36597
1.34124
1.30159
1.23972
1.15212
1.04138
0.924135
0.814281
0.719886
0.638615
0.564195
0.493773
0.426027
0.359619
0.293352
0.227556
0.157699
0.101652
0.0368952
1.00188
1.00167
1.00168
1.00168
1.00167
1.00166
1.00163
1.00157
1.00148
1.00135
1.00117
1.00092
1.00059
1.00016
0.99964
0.998999
0.998232
0.997313
0.996251
0.995049
0.993679
0.992147
0.990457
0.988604
0.986609
0.984481
0.982214
0.979838
0.977333
0.974741
0.972062
0.969327
0.96651
0.963634
0.960681
0.957772
0.954761
0.95289
0.953053
0.957856
0.979911
1.002
1.0321
1.05618
1.07387
1.08747
1.09847
1.10822
1.11686
1.12492
1.13222
1.13907
1.14546
1.15198
1.15794
1.16375
1.1691
1.17444
1.17998
1.18515
1.19036
1.19534
1.20002
1.20501
1.20982
1.21466
1.21943
1.22401
1.229
1.23391
1.23882
1.24419
1.24971
1.25556
1.26154
1.26734
1.2735
1.27999
1.28648
1.29315
1.29946
1.3057
1.3123
1.31897
1.32606
1.33314
1.34004
1.34711
1.35391
1.36002
1.36548
1.36976
1.37317
1.37638
1.37806
1.37809
1.37516
1.36822
1.35521
1.33306
1.2975
1.24428
1.16747
1.06472
0.945198
0.832918
0.743845
0.667543
0.600739
0.540677
0.482667
0.426011
0.369568
0.313327
0.256661
0.201449
0.142547
0.0943733
0.0392764
1.00189
1.00168
1.00169
1.00169
1.00168
1.00167
1.00164
1.00158
1.0015
1.00137
1.00119
1.00094
1.00061
1.0002
0.999678
0.99904
0.99827
0.997361
0.996312
0.995109
0.993739
0.992207
0.990525
0.98869
0.986708
0.984576
0.982302
0.979916
0.977423
0.974852
0.972205
0.969496
0.966691
0.963819
0.960873
0.957928
0.954885
0.952981
0.952706
0.954684
0.971264
0.988116
1.01678
1.03968
1.05809
1.0734
1.08555
1.09618
1.1054
1.11401
1.12156
1.12891
1.13568
1.14261
1.14891
1.15507
1.16117
1.16701
1.17322
1.17905
1.18437
1.18985
1.19491
1.20004
1.20537
1.2103
1.2153
1.2203
1.2256
1.23134
1.23672
1.24226
1.24843
1.25504
1.26187
1.26862
1.27509
1.28203
1.28895
1.29602
1.30293
1.30955
1.31648
1.32357
1.33118
1.33884
1.3452
1.35076
1.35565
1.35926
1.36295
1.36574
1.36685
1.3662
1.36313
1.35625
1.34402
1.32361
1.29103
1.24185
1.17091
1.07258
0.953244
0.834597
0.738143
0.664571
0.605916
0.554709
0.510313
0.465107
0.418234
0.370911
0.323164
0.27471
0.226598
0.181775
0.132533
0.0905969
0.0436531
1.0019
1.00169
1.00171
1.0017
1.0017
1.00168
1.00166
1.0016
1.00152
1.00139
1.00122
1.00097
1.00065
1.00024
0.999728
0.999092
0.998326
0.99743
0.996392
0.99519
0.993822
0.992297
0.990622
0.988803
0.986835
0.984703
0.982428
0.980031
0.977557
0.975012
0.972398
0.969722
0.966934
0.964073
0.961156
0.958191
0.955338
0.953541
0.952965
0.953651
0.966123
0.980071
1.00693
1.02723
1.04449
1.05984
1.07274
1.08396
1.09375
1.10266
1.11062
1.11833
1.12577
1.13303
1.14018
1.1468
1.15368
1.16025
1.16652
1.17277
1.17836
1.18414
1.18999
1.1954
1.20137
1.20732
1.21292
1.21885
1.225
1.23155
1.23818
1.24411
1.25039
1.25733
1.26443
1.27181
1.27897
1.28635
1.29396
1.30155
1.30932
1.31662
1.32372
1.3305
1.33691
1.34277
1.34746
1.35067
1.35338
1.35567
1.35674
1.35557
1.35209
1.34532
1.33348
1.31347
1.28248
1.23662
1.17127
1.08125
0.969163
0.8483
0.745905
0.665206
0.601944
0.552684
0.512122
0.477275
0.444837
0.408374
0.369312
0.32801
0.286182
0.243853
0.202469
0.165966
0.125376
0.0890477
0.0492414
1.00192
1.0017
1.00172
1.00172
1.00172
1.0017
1.00168
1.00163
1.00155
1.00143
1.00126
1.00102
1.0007
1.0003
0.999789
0.99916
0.99841
0.997527
0.996492
0.995294
0.993933
0.992427
0.99077
0.988972
0.987008
0.984879
0.982605
0.980206
0.977738
0.975216
0.972629
0.969998
0.967238
0.964404
0.961565
0.958681
0.956091
0.954453
0.95367
0.953421
0.961348
0.971633
0.994691
1.01057
1.02596
1.03981
1.05325
1.06478
1.07555
1.08515
1.09435
1.10325
1.11212
1.12052
1.12854
1.13602
1.14339
1.1507
1.15759
1.16458
1.17119
1.1779
1.18491
1.19138
1.19799
1.20472
1.21119
1.21755
1.22455
1.23181
1.23914
1.24593
1.25269
1.2603
1.26824
1.2761
1.28407
1.29178
1.29976
1.30792
1.31649
1.32411
1.32994
1.3348
1.3391
1.34273
1.34542
1.34758
1.3478
1.34658
1.34255
1.33497
1.32257
1.30281
1.2728
1.22942
1.16815
1.08461
0.979947
0.864124
0.762575
0.679976
0.611634
0.558095
0.515651
0.480736
0.450636
0.425381
0.397778
0.366512
0.33212
0.295231
0.25805
0.220422
0.184556
0.1544
0.120839
0.0898374
0.0560718
1.00193
1.00172
1.00174
1.00174
1.00174
1.00173
1.00171
1.00166
1.00159
1.00147
1.0013
1.00107
1.00077
1.00037
0.999866
0.999254
0.998515
0.997643
0.996617
0.995438
0.9941
0.992599
0.990947
0.989168
0.98722
0.985104
0.982837
0.980442
0.97798
0.975479
0.972914
0.97032
0.967622
0.96483
0.962104
0.959325
0.957043
0.955493
0.954475
0.953367
0.957738
0.96367
0.980949
0.991866
1.0053
1.0179
1.03163
1.04439
1.05579
1.06647
1.07709
1.0875
1.09763
1.10735
1.11673
1.12586
1.13484
1.14355
1.15184
1.1599
1.16785
1.17583
1.18397
1.19169
1.19919
1.20665
1.21413
1.22103
1.22843
1.23624
1.2445
1.25236
1.26009
1.26816
1.27695
1.28572
1.29447
1.30265
1.31032
1.31745
1.32397
1.32933
1.33309
1.33564
1.33806
1.34018
1.3402
1.33817
1.33346
1.32542
1.31263
1.29261
1.26284
1.22079
1.1621
1.08318
0.985202
0.87627
0.779697
0.699174
0.630808
0.575508
0.530473
0.493854
0.463173
0.436295
0.412521
0.390411
0.364452
0.336284
0.304853
0.271298
0.237488
0.20348
0.171884
0.146431
0.118332
0.0913128
0.0622864
1.00195
1.00173
1.00175
1.00176
1.00176
1.00176
1.00174
1.0017
1.00163
1.00152
1.00136
1.00114
1.00084
1.00046
0.999969
0.999369
0.998641
0.997781
0.996776
0.995623
0.994302
0.992806
0.991159
0.98939
0.987474
0.985382
0.983122
0.980745
0.978294
0.975821
0.973289
0.970697
0.968063
0.965358
0.96274
0.960127
0.958135
0.95664
0.95559
0.953384
0.955557
0.956589
0.967511
0.975592
0.987191
0.999059
1.01346
1.02604
1.03833
1.0509
1.06336
1.0755
1.08725
1.0987
1.10988
1.12096
1.13178
1.14233
1.1523
1.16185
1.17105
1.18003
1.18908
1.19766
1.20601
1.21424
1.2229
1.23114
1.2393
1.24789
1.2567
1.2652
1.27331
1.28199
1.29089
1.29921
1.30668
1.31325
1.31876
1.32327
1.32721
1.33018
1.33207
1.33365
1.33333
1.33077
1.32526
1.3161
1.30235
1.28168
1.25187
1.20994
1.15224
1.07661
0.983793
0.882108
0.792605
0.71681
0.651237
0.597175
0.552264
0.51509
0.483555
0.456015
0.431477
0.409495
0.388888
0.367397
0.342511
0.315853
0.286183
0.255121
0.223811
0.192597
0.164213
0.141783
0.118022
0.0942945
0.0690558
1.00197
1.00175
1.00178
1.00179
1.00179
1.00179
1.00178
1.00174
1.00168
1.00158
1.00143
1.00122
1.00093
1.00056
1.00009
0.999504
0.998787
0.997947
0.996976
0.995845
0.994542
0.993064
0.991437
0.989684
0.987784
0.985717
0.983481
0.981127
0.978698
0.976243
0.973727
0.971133
0.96853
0.965933
0.963421
0.960893
0.958954
0.957366
0.955867
0.953072
0.951742
0.950528
0.954789
0.961719
0.971022
0.983498
0.997561
1.01137
1.02632
1.04127
1.05624
1.07104
1.08551
1.09961
1.11306
1.12587
1.13811
1.14962
1.16071
1.17113
1.18122
1.19086
1.20021
1.20949
1.21821
1.22725
1.23641
1.24546
1.25398
1.2631
1.2723
1.28144
1.28969
1.29724
1.30464
1.31112
1.31642
1.32053
1.32319
1.32552
1.32689
1.32817
1.32702
1.32369
1.3173
1.30696
1.29175
1.26963
1.23854
1.19571
1.1384
1.06487
0.975769
0.881394
0.798973
0.729193
0.668395
0.617592
0.574635
0.53859
0.507596
0.480364
0.456397
0.434598
0.41406
0.395135
0.375264
0.353776
0.329171
0.302946
0.274184
0.244835
0.215436
0.186619
0.16091
0.14068
0.120197
0.0991917
0.0769711
1.00199
1.00177
1.0018
1.00182
1.00183
1.00183
1.00182
1.00179
1.00174
1.00165
1.00151
1.00131
1.00104
1.00069
1.00024
0.999664
0.998972
0.99816
0.99721
0.996102
0.994821
0.993368
0.991777
0.990032
0.988151
0.986116
0.983926
0.9816
0.979203
0.976722
0.974193
0.971616
0.969018
0.966491
0.964075
0.961594
0.959616
0.95794
0.956113
0.952887
0.94827
0.946023
0.947747
0.954956
0.962976
0.976261
0.990531
1.00796
1.02657
1.04426
1.06167
1.07827
1.09423
1.10932
1.12358
1.13724
1.15018
1.16262
1.17418
1.18553
1.19624
1.20645
1.21637
1.22593
1.23588
1.2454
1.25537
1.26545
1.27459
1.28336
1.29156
1.29921
1.30578
1.3111
1.3152
1.3184
1.32047
1.32265
1.32339
1.32346
1.32144
1.31651
1.30847
1.29668
1.27957
1.25542
1.22249
1.17821
1.12049
1.04805
0.961552
0.875774
0.800545
0.736566
0.680879
0.633904
0.59395
0.560145
0.530803
0.504922
0.482346
0.461646
0.44241
0.423931
0.406449
0.389004
0.369549
0.348694
0.324763
0.299164
0.271425
0.24338
0.215299
0.188085
0.164017
0.14476
0.12617
0.106773
0.0867187
1.00202
1.0018
1.00183
1.00185
1.00187
1.00187
1.00187
1.00185
1.0018
1.00172
1.0016
1.00142
1.00117
1.00083
1.0004
0.999855
0.999196
0.998401
0.997474
0.996391
0.995143
0.993728
0.992176
0.990439
0.988562
0.986574
0.984432
0.982143
0.979757
0.977242
0.974668
0.972101
0.969536
0.96703
0.964627
0.962152
0.960041
0.95822
0.956249
0.952912
0.946705
0.945026
0.946398
0.955929
0.965529
0.978335
0.992515
1.01012
1.03036
1.04993
1.0697
1.08867
1.10689
1.12411
1.14027
1.15518
1.1695
1.18245
1.19491
1.20658
1.21798
1.22857
1.23878
1.24937
1.25946
1.2696
1.27937
1.28821
1.2961
1.30244
1.30804
1.31325
1.31678
1.31875
1.31987
1.32075
1.32081
1.31989
1.31632
1.30943
1.29938
1.28492
1.26492
1.23831
1.20278
1.15603
1.09658
1.02475
0.942185
0.865496
0.798112
0.739658
0.689227
0.646334
0.609754
0.578418
0.551038
0.526944
0.505792
0.486608
0.469357
0.452569
0.436539
0.421004
0.405723
0.388959
0.370416
0.350222
0.326968
0.302045
0.274958
0.247662
0.21997
0.193521
0.170167
0.150734
0.133237
0.115041
0.0967719
1.00204
1.00182
1.00186
1.00188
1.00191
1.00192
1.00193
1.00191
1.00188
1.00181
1.0017
1.00154
1.00131
1.00099
1.00059
1.00008
0.999452
0.998677
0.997772
0.996727
0.995528
0.994165
0.992643
0.99093
0.98907
0.98711
0.985013
0.98277
0.980361
0.977808
0.975179
0.972582
0.970044
0.967526
0.965054
0.962498
0.960208
0.958192
0.955948
0.952845
0.947722
0.946937
0.949998
0.962568
0.976002
0.99052
1.0066
1.02588
1.04754
1.06837
1.08948
1.10951
1.12857
1.14656
1.16329
1.17933
1.19406
1.20828
1.22135
1.23468
1.24705
1.25859
1.26957
1.27924
1.28849
1.29603
1.3025
1.30862
1.31322
1.31687
1.31889
1.32055
1.32148
1.3217
1.32007
1.31771
1.312
1.30227
1.28875
1.27081
1.24741
1.21718
1.17784
1.12789
1.06727
0.995835
0.917092
0.848752
0.789341
0.737326
0.69286
0.654661
0.621587
0.592947
0.568169
0.545943
0.525979
0.508363
0.492343
0.476843
0.462804
0.448683
0.434663
0.420852
0.406041
0.389623
0.371559
0.351423
0.328414
0.303532
0.276959
0.250517
0.22351
0.198146
0.175892
0.156906
0.140845
0.124208
0.107776
1.00208
1.00185
1.00189
1.00192
1.00196
1.00198
1.00199
1.00199
1.00197
1.00191
1.00182
1.00168
1.00146
1.00118
1.00081
1.00033
0.999733
0.999004
0.998133
0.997137
0.995986
0.99467
0.99318
0.991503
0.989665
0.987722
0.985671
0.983466
0.981045
0.978459
0.975788
0.973135
0.970541
0.967963
0.965364
0.962649
0.960197
0.95799
0.955743
0.953034
0.949389
0.950063
0.957163
0.97298
0.989842
1.00715
1.02596
1.04745
1.07044
1.09276
1.11537
1.13747
1.15832
1.17793
1.1959
1.21297
1.22909
1.24366
1.25772
1.27005
1.28177
1.29159
1.30001
1.30746
1.31296
1.3177
1.32091
1.32338
1.32451
1.32487
1.32477
1.32391
1.32112
1.31602
1.30681
1.29378
1.27712
1.25506
1.22706
1.19135
1.14723
1.09262
1.02889
0.955572
0.885493
0.82557
0.774008
0.728154
0.689685
0.656398
0.627839
0.602876
0.580987
0.560747
0.542907
0.527218
0.511978
0.497964
0.4854
0.47232
0.460089
0.447592
0.434969
0.421622
0.406928
0.390786
0.372845
0.352681
0.330202
0.305833
0.280321
0.254997
0.229169
0.205032
0.184008
0.165393
0.150119
0.134618
0.119648
1.00211
1.00189
1.00193
1.00197
1.00201
1.00204
1.00207
1.00207
1.00206
1.00203
1.00195
1.00183
1.00165
1.00139
1.00105
1.00061
1.00005
0.999372
0.998538
0.997588
0.996493
0.995232
0.993779
0.992153
0.990351
0.988411
0.986391
0.984228
0.981818
0.979244
0.976555
0.973797
0.971089
0.968345
0.965601
0.962675
0.959971
0.957508
0.955256
0.953397
0.95321
0.956311
0.968021
0.988866
1.01005
1.0317
1.05505
1.07974
1.10427
1.12752
1.15069
1.17288
1.19443
1.21398
1.23347
1.25143
1.26819
1.28271
1.29494
1.30562
1.31311
1.32035
1.32545
1.32949
1.33228
1.33354
1.33333
1.33293
1.33152
1.32855
1.32349
1.31475
1.30178
1.28473
1.26356
1.23662
1.20263
1.1607
1.11039
1.05125
0.98455
0.912572
0.851303
0.798618
0.752503
0.713392
0.680293
0.651803
0.627461
0.606022
0.587342
0.570427
0.5553
0.541203
0.527774
0.515651
0.503791
0.491937
0.481317
0.469891
0.458739
0.447318
0.435301
0.422286
0.408007
0.392286
0.374706
0.355112
0.333426
0.309666
0.285016
0.260385
0.235436
0.212224
0.192058
0.174092
0.159505
0.14538
0.131985
1.00215
1.00192
1.00197
1.00201
1.00206
1.00211
1.00215
1.00217
1.00217
1.00215
1.0021
1.00201
1.00186
1.00163
1.00132
1.00093
1.00041
0.999783
0.999002
0.998088
0.997052
0.995859
0.994463
0.992897
0.99114
0.989235
0.987224
0.9851
0.982752
0.980182
0.977493
0.974656
0.971791
0.968854
0.965936
0.962738
0.95978
0.957233
0.955314
0.955083
0.958337
0.965972
0.983962
1.01135
1.03785
1.06513
1.09366
1.12178
1.14786
1.17186
1.19484
1.21666
1.23697
1.25679
1.27494
1.2927
1.30659
1.31903
1.32764
1.3347
1.33907
1.34297
1.3443
1.34451
1.34416
1.34357
1.34103
1.33483
1.32571
1.31329
1.29708
1.27578
1.24825
1.21366
1.17205
1.12315
1.06574
1.00047
0.929883
0.866807
0.813926
0.768449
0.727908
0.694495
0.665855
0.641664
0.621321
0.603248
0.587749
0.573783
0.561105
0.549465
0.538596
0.528172
0.517989
0.508447
0.498867
0.488513
0.478986
0.468669
0.458211
0.447262
0.435492
0.422782
0.408885
0.393441
0.376289
0.357259
0.336323
0.313385
0.289752
0.26608
0.242407
0.220489
0.2012
0.184231
0.170341
0.157299
0.145209
1.00219
1.00196
1.00201
1.00206
1.00212
1.00218
1.00224
1.00228
1.0023
1.00229
1.00227
1.0022
1.00208
1.00189
1.00162
1.00127
1.00082
1.00024
0.999533
0.998668
0.997693
0.996572
0.995254
0.993756
0.992066
0.990214
0.988214
0.986106
0.98384
0.981302
0.978602
0.975716
0.972677
0.969504
0.966346
0.962861
0.959778
0.957349
0.956272
0.959029
0.968495
0.987284
1.01483
1.04623
1.07694
1.10653
1.13557
1.16157
1.18582
1.209
1.23198
1.25441
1.27541
1.29561
1.31279
1.32747
1.33824
1.34604
1.35111
1.35409
1.35543
1.35606
1.35497
1.35248
1.34768
1.33923
1.32683
1.30936
1.28761
1.26083
1.227
1.18477
1.13405
1.07545
1.01105
0.940639
0.877361
0.823457
0.77741
0.736605
0.702363
0.67388
0.649719
0.62872
0.611377
0.595915
0.583186
0.571695
0.561471
0.552134
0.543455
0.535139
0.527109
0.519036
0.51084
0.502922
0.494852
0.485729
0.477102
0.467668
0.457801
0.447284
0.435919
0.423631
0.410143
0.395148
0.378663
0.360347
0.340353
0.318494
0.29589
0.272947
0.250231
0.22937
0.210603
0.194411
0.1812
0.169185
0.158466
1.00224
1.00201
1.00206
1.00212
1.00219
1.00226
1.00234
1.0024
1.00244
1.00245
1.00245
1.00242
1.00233
1.00219
1.00197
1.00167
1.00128
1.00076
1.00013
0.999334
0.998422
0.997376
0.996155
0.994731
0.993133
0.991327
0.989365
0.98727
0.985061
0.982632
0.979929
0.976998
0.973849
0.970491
0.967088
0.963359
0.96041
0.95829
0.958325
0.965174
0.981804
1.01995
1.06441
1.09842
1.13059
1.15792
1.18289
1.20584
1.22831
1.2501
1.27225
1.29321
1.31275
1.32984
1.34432
1.35438
1.36058
1.36352
1.36518
1.36542
1.36463
1.35974
1.35083
1.33883
1.32304
1.30281
1.27559
1.2387
1.19394
1.14276
1.08394
1.01804
0.94617
0.882627
0.829282
0.782924
0.741685
0.707173
0.677824
0.653056
0.632492
0.614626
0.600338
0.587173
0.576383
0.566379
0.557917
0.550207
0.543399
0.536982
0.530839
0.524769
0.518658
0.512343
0.505588
0.498884
0.491827
0.483611
0.475754
0.466909
0.457476
0.447276
0.436279
0.424357
0.411237
0.396787
0.381012
0.363493
0.344569
0.323925
0.302462
0.280321
0.258387
0.238712
0.220717
0.20533
0.193001
0.181969
0.172607
1.0023
1.00206
1.00211
1.00218
1.00226
1.00234
1.00243
1.00252
1.00259
1.00263
1.00266
1.00265
1.00261
1.00251
1.00235
1.00211
1.00178
1.00134
1.00079
1.00009
0.99924
0.99827
0.997156
0.995836
0.99434
0.992623
0.990711
0.988647
0.986473
0.98415
0.981521
0.978634
0.975439
0.972106
0.968574
0.964837
0.962461
0.961236
0.963452
0.976919
1.00273
1.05372
1.09844
1.13295
1.164
1.18776
1.20929
1.23114
1.25216
1.27349
1.29493
1.31414
1.33256
1.34787
1.36009
1.36685
1.369
1.37162
1.36977
1.36322
1.35236
1.33653
1.31449
1.28547
1.24919
1.20571
1.15212
1.08932
1.02036
0.948303
0.885359
0.831942
0.785805
0.744922
0.710771
0.681767
0.65645
0.63541
0.617704
0.601956
0.589842
0.577784
0.568614
0.560079
0.553273
0.546692
0.541008
0.535687
0.530698
0.526086
0.521524
0.516821
0.511896
0.506773
0.501058
0.495358
0.489232
0.481735
0.474599
0.466352
0.457394
0.447584
0.437038
0.425507
0.412816
0.399022
0.383993
0.367362
0.349526
0.32996
0.309698
0.28816
0.266886
0.248321
0.231156
0.216415
0.204821
0.194774
0.186672
1.00235
1.00211
1.00217
1.00225
1.00233
1.00243
1.00254
1.00265
1.00275
1.00283
1.00289
1.00292
1.00292
1.00287
1.00277
1.00259
1.00233
1.00198
1.00152
1.00093
1.00017
0.999287
0.998278
0.997097
0.995699
0.994116
0.992291
0.990311
0.988187
0.985948
0.983474
0.980701
0.977615
0.974477
0.971069
0.968218
0.967009
0.967597
0.974313
0.997598
1.0331
1.06623
1.09627
1.12917
1.15714
1.17999
1.2042
1.22906
1.25186
1.27636
1.2988
1.32057
1.34182
1.35642
1.36472
1.36757
1.36876
1.36261
1.34963
1.32867
1.30011
1.26329
1.21647
1.15832
1.09343
1.0229
0.950824
0.886916
0.834201
0.789042
0.748625
0.714918
0.686244
0.66129
0.640288
0.622443
0.606646
0.592529
0.581319
0.570275
0.562829
0.555089
0.548718
0.542771
0.537892
0.533539
0.529235
0.525512
0.521865
0.518315
0.514787
0.511124
0.507007
0.502692
0.497672
0.492671
0.487269
0.480328
0.473808
0.466074
0.457606
0.448152
0.438003
0.426808
0.414592
0.401459
0.387154
0.371376
0.354564
0.335994
0.316915
0.296468
0.27644
0.258896
0.242588
0.22861
0.217568
0.208325
0.20135
1.00242
1.00217
1.00224
1.00232
1.00242
1.00253
1.00265
1.00279
1.00292
1.00305
1.00315
1.00323
1.00327
1.00327
1.00323
1.00313
1.00295
1.0027
1.00233
1.00185
1.00122
1.00044
0.999539
0.998501
0.99725
0.995799
0.994123
0.992235
0.990206
0.988056
0.985752
0.983202
0.980406
0.977505
0.97465
0.973309
0.973659
0.976536
0.984794
1.00314
1.02186
1.04131
1.06477
1.09207
1.116
1.14003
1.16853
1.20017
1.23306
1.26817
1.30063
1.32952
1.34851
1.35578
1.36006
1.35903
1.34479
1.31913
1.28214
1.23287
1.17283
1.10552
1.03103
0.956168
0.892926
0.840329
0.795317
0.75565
0.722588
0.694454
0.669985
0.648824
0.630497
0.614101
0.599707
0.587745
0.577768
0.56828
0.560666
0.5527
0.546957
0.541578
0.536787
0.532213
0.528153
0.524773
0.521616
0.518216
0.515339
0.512448
0.509491
0.506472
0.503007
0.499323
0.494931
0.490533
0.485819
0.479427
0.473598
0.466322
0.458456
0.449526
0.439784
0.428928
0.417229
0.404703
0.391102
0.376196
0.360278
0.342629
0.324575
0.305432
0.286824
0.269644
0.253797
0.240607
0.230066
0.221715
0.215716
1.00249
1.00224
1.0023
1.0024
1.00251
1.00264
1.00278
1.00294
1.00311
1.00327
1.00342
1.00355
1.00366
1.00372
1.00374
1.00371
1.00363
1.00348
1.00323
1.00287
1.00237
1.00174
1.00096
1.00006
0.998987
0.997686
0.996209
0.99448
0.992564
0.990528
0.988375
0.986057
0.983591
0.980834
0.978364
0.976757
0.975698
0.976614
0.980927
0.991925
1.00333
1.02155
1.04569
1.07321
1.10064
1.1347
1.17606
1.22115
1.26324
1.29983
1.32278
1.33522
1.33904
1.34204
1.33128
1.30396
1.25986
1.19969
1.12985
1.04834
0.970973
0.906444
0.853063
0.80744
0.768074
0.735303
0.707516
0.683403
0.662439
0.64394
0.627501
0.61325
0.601095
0.590233
0.580275
0.571045
0.563633
0.556229
0.550418
0.543982
0.539107
0.534609
0.530655
0.526763
0.523019
0.519735
0.517063
0.514237
0.511312
0.508822
0.506134
0.503432
0.5003
0.49702
0.493017
0.488951
0.48469
0.47873
0.47344
0.466542
0.459352
0.450908
0.441659
0.431171
0.420004
0.408022
0.395146
0.381166
0.366152
0.349584
0.33279
0.315125
0.297784
0.280985
0.265864
0.253538
0.24357
0.23595
0.230822
1.00256
1.00231
1.00238
1.00248
1.00261
1.00276
1.00292
1.0031
1.0033
1.00351
1.00371
1.00389
1.00407
1.00422
1.00432
1.00437
1.00438
1.00434
1.00421
1.00398
1.00365
1.00318
1.00256
1.00181
1.00093
0.999843
0.99855
0.997043
0.995309
0.993417
0.991448
0.989339
0.987136
0.984635
0.982647
0.981346
0.98112
0.982922
0.98923
0.995906
1.00962
1.02812
1.05354
1.08257
1.11363
1.14825
1.18421
1.21868
1.24936
1.27537
1.29424
1.30199
1.30009
1.27749
1.23014
1.16557
1.08212
0.995723
0.92722
0.871087
0.824494
0.784729
0.752161
0.724603
0.700934
0.680314
0.662024
0.646313
0.632762
0.62072
0.609435
0.598804
0.589146
0.580446
0.572647
0.564906
0.558284
0.55176
0.546276
0.54059
0.535891
0.531599
0.527999
0.524396
0.520924
0.517511
0.514741
0.512119
0.509253
0.506668
0.504096
0.501567
0.498714
0.495715
0.492224
0.488333
0.484412
0.478811
0.473977
0.467503
0.460874
0.452734
0.444181
0.434277
0.423709
0.412329
0.400271
0.387228
0.373082
0.357475
0.341616
0.325153
0.308583
0.292362
0.277764
0.266087
0.256582
0.249836
0.245703
1.00264
1.00238
1.00246
1.00257
1.00272
1.00288
1.00308
1.00328
1.00351
1.00377
1.00401
1.00426
1.00451
1.00475
1.00495
1.00511
1.00523
1.0053
1.0053
1.00522
1.00504
1.00475
1.00434
1.00378
1.0031
1.00226
1.00118
0.999934
0.998451
0.996772
0.994988
0.993105
0.991072
0.98886
0.987255
0.986021
0.985938
0.987924
0.998403
1.0072
1.02685
1.04674
1.07264
1.10227
1.1304
1.1577
1.18285
1.20305
1.2198
1.22815
1.22956
1.2237
1.18424
1.12462
1.03608
0.952892
0.891112
0.842614
0.801837
0.769266
0.742088
0.718977
0.699051
0.681808
0.667022
0.654264
0.64279
0.632014
0.622127
0.613099
0.60462
0.596349
0.588407
0.580781
0.574042
0.567361
0.5612
0.555143
0.549613
0.544042
0.539097
0.534353
0.530499
0.526707
0.523045
0.51929
0.515878
0.513061
0.510013
0.507145
0.50436
0.501713
0.498856
0.495882
0.492625
0.489003
0.485205
0.479829
0.475337
0.469288
0.463126
0.455185
0.447364
0.438015
0.427927
0.416996
0.405553
0.393299
0.380014
0.3654
0.35059
0.335377
0.319792
0.304546
0.290593
0.27972
0.270692
0.264768
0.261367
1.00273
1.00246
1.00255
1.00267
1.00283
1.00302
1.00324
1.00348
1.00374
1.00404
1.00435
1.00466
1.00497
1.0053
1.00562
1.0059
1.00616
1.00636
1.00651
1.00659
1.00657
1.00648
1.0063
1.00597
1.00552
1.00494
1.00415
1.00315
1.00198
1.00059
0.999012
0.997364
0.99554
0.993735
0.992428
0.991315
0.99162
0.994504
1.00884
1.02806
1.04651
1.07195
1.09946
1.12464
1.14691
1.1636
1.17378
1.17939
1.17859
1.17359
1.1485
1.09769
1.01834
0.930865
0.868744
0.822859
0.786639
0.759006
0.736024
0.717007
0.700756
0.687217
0.675338
0.664714
0.654906
0.645978
0.637966
0.630458
0.623302
0.616441
0.609964
0.603335
0.597015
0.590249
0.58365
0.577246
0.570838
0.564538
0.558446
0.552439
0.546848
0.541308
0.53673
0.532322
0.528131
0.523901
0.519751
0.51639
0.513005
0.509625
0.506487
0.503514
0.500482
0.497309
0.494055
0.490577
0.48695
0.481628
0.477366
0.471643
0.465888
0.45814
0.451028
0.442153
0.432685
0.42236
0.411584
0.400146
0.387799
0.374232
0.360277
0.345994
0.331155
0.316803
0.303373
0.292831
0.284414
0.279231
0.276453
1.00283
1.00255
1.00265
1.00278
1.00295
1.00317
1.00341
1.00369
1.00399
1.00433
1.00471
1.00508
1.00547
1.00589
1.00632
1.00674
1.00714
1.00749
1.00783
1.0081
1.00828
1.0084
1.00845
1.0084
1.00822
1.00791
1.00744
1.00676
1.00591
1.00488
1.00365
1.00226
1.00073
0.999551
0.998645
0.998143
0.999409
1.00375
1.01875
1.04097
1.06656
1.09879
1.12299
1.14455
1.15625
1.16166
1.16379
1.16024
1.14081
1.0996
1.02901
0.938372
0.861881
0.814701
0.777894
0.752445
0.732423
0.717006
0.704511
0.69393
0.684671
0.67634
0.668966
0.662121
0.65567
0.649416
0.6435
0.637737
0.632281
0.62668
0.621499
0.615866
0.610366
0.604441
0.597764
0.591251
0.584303
0.57727
0.570199
0.563233
0.556602
0.550077
0.544422
0.53909
0.534284
0.52956
0.524687
0.520599
0.516862
0.512994
0.509427
0.506169
0.502947
0.499643
0.496329
0.492937
0.489581
0.484367
0.480361
0.47497
0.469661
0.462264
0.45557
0.447033
0.438075
0.428209
0.417877
0.407029
0.395554
0.383031
0.369942
0.356576
0.342994
0.329827
0.316913
0.307041
0.299217
0.29469
0.292178
1.00293
1.00265
1.00275
1.0029
1.00308
1.00332
1.0036
1.00391
1.00425
1.00465
1.00509
1.00554
1.00602
1.00652
1.00708
1.00763
1.00818
1.00871
1.00922
1.00972
1.01016
1.01054
1.01085
1.01108
1.01123
1.01123
1.01108
1.01079
1.01032
1.00969
1.0089
1.0079
1.00692
1.00647
1.00635
1.00736
1.01081
1.02014
1.03601
1.06278
1.09933
1.12433
1.1444
1.15398
1.1574
1.15974
1.14915
1.12211
1.06885
0.986617
0.893861
0.825784
0.782681
0.752349
0.732062
0.717227
0.706435
0.69784
0.690862
0.684878
0.67958
0.674621
0.669981
0.665495
0.66113
0.656713
0.652341
0.647724
0.64328
0.638387
0.633706
0.628604
0.623338
0.618049
0.611766
0.60554
0.598737
0.591534
0.58393
0.57611
0.568495
0.561083
0.554277
0.547958
0.542301
0.537016
0.531466
0.526414
0.522114
0.517801
0.513571
0.50996
0.50646
0.502898
0.499475
0.495975
0.492779
0.487603
0.483785
0.478612
0.473642
0.466721
0.460282
0.45202
0.44368
0.434417
0.424868
0.414861
0.404197
0.392824
0.380495
0.367963
0.35555
0.342745
0.330686
0.321069
0.313701
0.30944
0.307218
1.00304
1.00275
1.00286
1.00302
1.00323
1.00349
1.0038
1.00415
1.00454
1.00498
1.00549
1.00604
1.00661
1.00721
1.00787
1.00859
1.00929
1.01001
1.01071
1.01144
1.01219
1.01284
1.01346
1.01403
1.01454
1.01495
1.01523
1.01533
1.0153
1.01511
1.01482
1.01448
1.01433
1.01461
1.01577
1.0189
1.02628
1.04331
1.0677
1.09906
1.12566
1.14452
1.15178
1.15402
1.15394
1.13901
1.10497
1.04169
0.949557
0.860858
0.80104
0.762731
0.73774
0.721352
0.709978
0.701865
0.695775
0.690932
0.686934
0.68342
0.680279
0.677297
0.674442
0.671529
0.668551
0.665278
0.661892
0.658
0.654106
0.649677
0.645226
0.640458
0.635366
0.63046
0.624522
0.618676
0.612339
0.605664
0.598574
0.590819
0.582649
0.574173
0.566182
0.558654
0.551829
0.545766
0.539566
0.533576
0.528442
0.523664
0.518753
0.514591
0.510821
0.506974
0.503445
0.499853
0.496809
0.491772
0.488188
0.483299
0.478587
0.472268
0.466117
0.458073
0.450266
0.441358
0.432353
0.422799
0.412452
0.402289
0.390929
0.379429
0.368166
0.35641
0.345143
0.335838
0.328939
0.324789
0.322982
1.00316
1.00286
1.00298
1.00315
1.00338
1.00366
1.00401
1.0044
1.00485
1.00534
1.00592
1.00656
1.00723
1.00796
1.00872
1.00959
1.01048
1.0114
1.01234
1.01329
1.01433
1.01535
1.01629
1.01719
1.01808
1.01902
1.01985
1.02059
1.02107
1.02139
1.02169
1.02206
1.02261
1.02365
1.02578
1.03045
1.04076
1.06426
1.09863
1.12067
1.14232
1.14833
1.1502
1.14602
1.12535
1.08574
1.01419
0.918037
0.838574
0.786737
0.752458
0.730993
0.716792
0.707551
0.7012
0.696588
0.693023
0.690014
0.687477
0.68516
0.683107
0.681095
0.679201
0.677168
0.675069
0.672607
0.669969
0.666779
0.663401
0.659526
0.655405
0.651012
0.64612
0.641555
0.635905
0.63041
0.624404
0.618164
0.61161
0.604415
0.596743
0.588201
0.579596
0.570981
0.56297
0.555914
0.549102
0.542281
0.536162
0.53077
0.525245
0.520352
0.516208
0.512019
0.508298
0.504576
0.501552
0.496612
0.493089
0.488381
0.483756
0.477958
0.472056
0.464316
0.457137
0.448541
0.440326
0.431397
0.421661
0.4128
0.402579
0.391978
0.381625
0.370384
0.359404
0.350273
0.343564
0.339476
0.338511
1.00329
1.00298
1.0031
1.00329
1.00354
1.00385
1.00423
1.00467
1.00517
1.00573
1.00636