/*--------------------------------*- C++ -*----------------------------------*\
| =========                 |                                                 |
| \\      /  F ield         | OpenFOAM: The Open Source CFD Toolbox           |
|  \\    /   O peration     | Version:  2.2.x                                 |
|   \\  /    A nd           | Web:      www.OpenFOAM.org                      |
|    \\/     M anipulation  |                                                 |
\*---------------------------------------------------------------------------*/
FoamFile
{
    version     2.0;
    format      ascii;
    class       surfaceScalarField;
    location    "1.95";
    object      phi;
}
// * * * * * * * * * * * * * * * * * * * * * * * * * * * * * * * * * * * * * //

dimensions      [1 0 -1 0 0 0 0];

internalField   nonuniform List<scalar> 
28084
(
0.000746226
0.000742994
0.000740221
0.000737889
0.000735978
0.000734465
0.000733327
0.00073254
0.000732077
0.00073191
0.000732014
0.000732362
0.000732926
0.000733672
0.000734581
0.000735629
0.000736787
0.00073804
0.00073935
0.000740694
0.00074206
0.00074344
0.000744803
0.000746125
0.000747398
0.000748641
0.000749805
0.000750864
0.000751794
0.000752609
0.000753361
0.000754051
0.00075472
0.000755328
0.000755629
0.000755635
0.000755614
0.000755903
0.000756826
0.000758847
0.00076504
0.000779691
0.000799999
0.000819074
0.000834044
0.000858351
0.000879962
0.000900279
0.000919746
0.000938685
0.000956987
0.00097522
0.000993811
0.00101176
0.00102973
0.00104693
0.00106377
0.00108116
0.00109712
0.00111216
0.0011275
0.00114192
0.00115591
0.00117024
0.00118302
0.00119479
0.00120686
0.00121776
0.00122787
0.0012382
0.00124678
0.00125425
0.00126225
0.00126827
0.00127307
0.00127732
0.00128024
0.00128267
0.0012854
0.0012859
0.00128507
0.0012843
0.0012831
0.00128219
0.00127889
0.00127428
0.00127042
0.00126596
0.00126175
0.00125736
0.00125147
0.00124605
0.00124208
0.0012384
0.00123507
0.00123121
0.00122651
0.00122226
0.00121926
0.001219
0.00122237
0.00122299
0.0012199
0.00121286
0.00119618
0.00116034
0.00109609
0.00100844
0.000905697
0.000807919
0.000721973
0.000646197
0.000575062
0.000502983
0.000423988
0.000336525
0.000237585
0.000140587
3.715e-06
3.23792e-06
0.000749743
2.77837e-06
0.00074879
2.33697e-06
0.000748267
1.91552e-06
0.000748159
1.51655e-06
0.000748446
1.1418e-06
0.000749106
7.91869e-07
0.000750116
4.67608e-07
0.000751451
1.68054e-07
0.000753084
-1.03404e-07
0.000754988
-3.4943e-07
0.000757133
-5.65388e-07
0.000759488
-7.51021e-07
0.000762027
-9.15773e-07
0.000764718
-1.05406e-06
0.00076753
-1.16535e-06
0.000770439
-1.26209e-06
0.000773418
-1.32659e-06
0.000776436
-1.36453e-06
0.000779463
-1.38864e-06
0.000782483
-1.39038e-06
0.000785485
-1.37759e-06
0.000788436
-1.34598e-06
0.000791305
-1.30055e-06
0.000794081
-1.25194e-06
0.000796757
-1.17973e-06
0.000799348
-1.09198e-06
0.000801798
-9.89476e-07
0.000804086
-8.70481e-07
0.000806192
-7.59633e-07
0.000808123
-6.56211e-07
0.000809937
-5.48315e-07
0.000811639
-4.54988e-07
0.000813294
-3.48345e-07
0.000814815
-2.28335e-07
0.000815927
-2.81958e-07
0.000816688
-6.75225e-07
0.000817392
-1.55055e-06
0.000818349
-3.38106e-06
0.000820663
-8.95564e-06
0.000826638
-1.68194e-05
0.000842152
-2.06985e-05
0.000866358
-1.88057e-05
0.000890015
-1.46456e-05
0.000908791
-2.41249e-05
0.000922012
-2.1664e-05
0.000943648
-2.03589e-05
0.000963401
-1.96276e-05
0.000982325
-1.91116e-05
0.00100059
-1.86388e-05
0.00101835
-1.85757e-05
0.00103606
-1.83943e-05
0.00105346
-1.82708e-05
0.00107118
-1.78406e-05
0.00108824
-1.7304e-05
0.00110497
-1.71682e-05
0.00112191
-1.6786e-05
0.00113802
-1.63051e-05
0.00115408
-1.58971e-05
0.00116918
-1.5265e-05
0.00118334
-1.47774e-05
0.00119767
-1.42187e-05
0.00121139
-1.34036e-05
0.00122438
-1.30113e-05
0.00123756
-1.25178e-05
0.00124949
-1.16968e-05
0.00126043
-1.11751e-05
0.00127154
-1.05184e-05
0.00128156
-9.62699e-06
0.00129064
-8.92109e-06
0.00130018
-8.30639e-06
0.00130791
-7.66835e-06
0.00131413
-6.97385e-06
0.0013212
-5.90014e-06
0.00132669
-4.64888e-06
0.00133029
-3.49462e-06
0.0013332
-2.58593e-06
0.00133507
-2.09825e-06
0.00133647
-1.50992e-06
0.00133807
-3.75918e-07
0.00133717
9.17182e-07
0.00133494
1.66798e-06
0.00133289
1.99412e-06
0.00133043
2.83171e-06
0.00132863
4.12125e-06
0.00132423
5.24975e-06
0.00131831
5.8163e-06
0.00131313
5.91066e-06
0.00130769
5.66465e-06
0.00130241
5.09928e-06
0.00129726
4.7148e-06
0.00129056
4.65133e-06
0.00128332
4.2872e-06
0.00127763
3.60565e-06
0.00127211
3.24951e-06
0.00126697
3.12732e-06
0.0012627
2.92705e-06
0.00125717
2.6257e-06
0.00125162
1.45952e-06
0.00124693
3.00144e-07
0.0012437
2.99321e-07
0.00124174
1.24025e-06
0.00123742
5.62423e-06
0.00122712
1.6469e-05
0.00120843
3.65455e-05
0.00117392
6.58547e-05
0.00111169
8.92995e-05
0.00101714
0.000103792
0.000912981
9.79464e-05
0.000816585
8.62853e-05
0.00073073
7.63753e-05
0.000653643
7.1502e-05
0.000582925
7.21846e-05
0.000515152
7.89493e-05
0.000446513
8.73821e-05
0.00036881
9.9013e-05
0.000289299
9.72816e-05
0.000201526
0.000140891
0.000108292
5.11807e-06
4.1967e-06
0.000754438
3.3065e-06
0.000755736
2.45069e-06
0.000757435
1.63383e-06
0.000759523
8.6021e-07
0.000761981
1.353e-07
0.000764789
-5.39444e-07
0.000767923
-1.16247e-06
0.000771357
-1.73148e-06
0.000775063
-2.24606e-06
0.000779013
-2.70345e-06
0.000783175
-3.10521e-06
0.000787518
-3.44568e-06
0.000792009
-3.73284e-06
0.00079662
-3.96781e-06
0.000801314
-4.15066e-06
0.000806066
-4.28944e-06
0.000810844
-4.36805e-06
0.00081561
-4.40324e-06
0.000820346
-4.41487e-06
0.000825033
-4.3613e-06
0.000829637
-4.267e-06
0.000834138
-4.14561e-06
0.000838508
-4.00334e-06
0.000842731
-3.85154e-06
0.000846809
-3.64979e-06
0.000850733
-3.41624e-06
0.00085445
-3.16196e-06
0.000857952
-2.86307e-06
0.000861193
-2.58673e-06
0.000864226
-2.32331e-06
0.000867104
-2.05057e-06
0.000869811
-1.8152e-06
0.000872466
-1.51764e-06
0.000874849
-1.22937e-06
0.000876746
-1.3123e-06
0.000878343
-2.05568e-06
0.000879852
-4.55394e-06
0.000881913
-1.08508e-05
0.000886126
-2.75073e-05
0.000898574
-4.33762e-05
0.000923381
-4.47851e-05
0.000952703
-3.73541e-05
0.000977594
-2.75811e-05
0.000996893
-4.56089e-05
0.00100947
-4.14649e-05
0.00102877
-3.92695e-05
0.00104663
-3.81054e-05
0.00106405
-3.72036e-05
0.00108093
-3.64874e-05
0.00109757
-3.61174e-05
0.00111412
-3.60609e-05
0.00113085
-3.54356e-05
0.00114709
-3.46179e-05
0.0011633
-3.3925e-05
0.0011791
-3.33827e-05
0.00119489
-3.28844e-05
0.0012106
-3.16817e-05
0.00122509
-3.04742e-05
0.00123933
-2.96811e-05
0.00125297
-2.85635e-05
0.00126609
-2.74001e-05
0.0012795
-2.62077e-05
0.0012917
-2.49361e-05
0.00130311
-2.39243e-05
0.00131466
-2.26225e-05
0.0013249
-2.11745e-05
0.00133442
-2.0039e-05
0.00134368
-1.84704e-05
0.00135178
-1.68978e-05
0.00135985
-1.55995e-05
0.00136658
-1.42025e-05
0.00137162
-1.26251e-05
0.00137693
-1.06296e-05
0.00138159
-8.27524e-06
0.00138423
-5.9639e-06
0.00138605
-4.13599e-06
0.00138712
-2.94579e-06
0.00138756
-1.7009e-06
0.00138844
5.14454e-07
0.00138659
3.03751e-06
0.00138318
4.63546e-06
0.00137996
5.48777e-06
0.0013763
6.86067e-06
0.0013741
9.11586e-06
0.0013692
1.10793e-05
0.00136224
1.22613e-05
0.00135603
1.26038e-05
0.00134967
1.23049e-05
0.0013433
1.14708e-05
0.00133757
1.14906e-05
0.00132988
1.10394e-05
0.00132212
9.84755e-06
0.00131522
8.5573e-06
0.00130785
7.65632e-06
0.00130024
7.89227e-06
0.00129225
7.48804e-06
0.00128418
6.24195e-06
0.00127684
4.87374e-06
0.00126912
4.33724e-06
0.0012604
5.60023e-06
0.00124904
1.13059e-05
0.0012307
2.41998e-05
0.00119933
5.12896e-05
0.00115271
9.94748e-05
0.00107588
0.00016139
0.00097067
0.000194309
0.000868481
0.000200874
0.000777122
0.000184064
0.000700534
0.000163839
0.000633248
0.000147711
0.000570225
0.000139599
0.000509484
0.000140912
0.000447847
0.000156595
0.000384695
0.000166814
0.000317499
0.000186863
0.000247248
0.000190828
0.000169762
0.000249494
8.72437e-05
4.23956e-06
2.90441e-06
0.000760311
1.6123e-06
0.000763827
3.69066e-07
0.000767717
-8.18134e-07
0.00077197
-1.94183e-06
0.000776569
-2.99371e-06
0.000781495
-3.97003e-06
0.000786725
-4.86642e-06
0.000792229
-5.6795e-06
0.000797982
-6.40669e-06
0.000803952
-7.04615e-06
0.000810105
-7.59701e-06
0.00081641
-8.05848e-06
0.000822829
-8.4305e-06
0.000829334
-8.72641e-06
0.000835887
-8.93599e-06
0.000842459
-9.06483e-06
0.000849013
-9.11244e-06
0.000855503
-9.10556e-06
0.00086193
-9.03775e-06
0.000868261
-8.87969e-06
0.000874437
-8.65463e-06
0.000880467
-8.39084e-06
0.000886327
-8.0952e-06
0.000891984
-7.78496e-06
0.000897458
-7.39382e-06
0.000902698
-6.96289e-06
0.00090766
-6.49285e-06
0.000912346
-5.97051e-06
0.000916698
-5.47408e-06
0.000920832
-4.99304e-06
0.000924761
-4.49367e-06
0.000928462
-4.02853e-06
0.000932103
-3.50223e-06
0.00093535
-3.07727e-06
0.000938042
-3.17495e-06
0.000940353
-4.57986e-06
0.000942547
-9.52328e-06
0.000945076
-2.49388e-05
0.000949041
-5.56303e-05
0.000960075
-7.51534e-05
0.000985843
-7.01089e-05
0.00101565
-5.64478e-05
0.00104219
-3.99008e-05
0.00106399
-6.47082e-05
0.00107929
-5.92867e-05
0.00109928
-5.66838e-05
0.0011177
-5.50816e-05
0.00113511
-5.39868e-05
0.00115184
-5.31387e-05
0.00116835
-5.26655e-05
0.00118448
-5.23345e-05
0.00120067
-5.14136e-05
0.00121649
-5.02871e-05
0.00123174
-4.93702e-05
0.00124737
-4.86943e-05
0.00126235
-4.77025e-05
0.00127728
-4.6039e-05
0.00129142
-4.42476e-05
0.0013044
-4.29978e-05
0.0013177
-4.16946e-05
0.0013304
-3.97657e-05
0.00134236
-3.78158e-05
0.00135404
-3.60682e-05
0.0013644
-3.43529e-05
0.00137455
-3.23496e-05
0.00138418
-3.02616e-05
0.00139254
-2.8394e-05
0.00140062
-2.61709e-05
0.0014079
-2.35826e-05
0.00141447
-2.13504e-05
0.00142046
-1.93123e-05
0.00142488
-1.70169e-05
0.00142857
-1.42542e-05
0.00143278
-1.10162e-05
0.00143504
-7.66307e-06
0.00143604
-4.89523e-06
0.00143631
-2.87831e-06
0.00143569
-9.32101e-07
0.00143604
2.35837e-06
0.00143417
6.1279e-06
0.00142998
8.76239e-06
0.00142562
1.02516e-05
0.00142106
1.20509e-05
0.00141787
1.48518e-05
0.0014128
1.73313e-05
0.00140532
1.8817e-05
0.00139827
1.90651e-05
0.00139097
1.86628e-05
0.00138277
1.89352e-05
0.00137477
1.91995e-05
0.00136581
1.84655e-05
0.00135753
1.69804e-05
0.00134922
1.60584e-05
0.00133864
1.58995e-05
0.00132764
1.57173e-05
0.00131707
1.44987e-05
0.00130619
1.34313e-05
0.00129337
1.334e-05
0.00127694
1.60066e-05
0.0012545
2.4024e-05
0.00122168
4.27333e-05
0.00117522
7.09726e-05
0.00110323
0.000128857
0.000994557
0.000205978
0.000872124
0.000264584
0.000772579
0.000286223
0.00069704
0.000277661
0.000634967
0.000251561
0.000582499
0.000227418
0.000533413
0.00020906
0.000484684
0.000201602
0.000434478
0.000204178
0.000382472
0.000223769
0.000328426
0.000237027
0.000270247
0.000264421
0.000208297
0.000273665
0.000140693
0.000337084
7.00248e-05
1.11282e-06
-6.06169e-07
0.000767365
-2.2725e-06
0.000773062
-3.87801e-06
0.000779108
-5.41153e-06
0.000785492
-6.86145e-06
0.000792199
-8.21739e-06
0.00079921
-9.47124e-06
0.000806503
-1.06168e-05
0.000814049
-1.16487e-05
0.000821818
-1.25612e-05
0.000829778
-1.33516e-05
0.000837895
-1.40168e-05
0.000846134
-1.45644e-05
0.000854455
-1.49873e-05
0.000862829
-1.53052e-05
0.000871214
-1.54978e-05
0.000879571
-1.55636e-05
0.000887871
-1.5545e-05
0.00089608
-1.54531e-05
0.000904179
-1.52375e-05
0.000912111
-1.49261e-05
0.000919844
-1.4532e-05
0.000927372
-1.40698e-05
0.000934688
-1.35612e-05
0.00094177
-1.30274e-05
0.00094862
-1.23908e-05
0.000955155
-1.17055e-05
0.000961352
-1.09708e-05
0.000967202
-1.01825e-05
0.000972663
-9.40878e-06
0.000977872
-8.66275e-06
0.000982835
-7.86703e-06
0.000987518
-7.0868e-06
0.000992107
-6.28396e-06
0.000996237
-5.65325e-06
0.000999726
-5.74431e-06
0.00100275
-7.60549e-06
0.00100553
-1.43056e-05
0.00100844
-3.77842e-05
0.0010122
-8.50457e-05
0.00101971
-0.000107607
0.00103868
-9.71625e-05
0.00106278
-7.8064e-05
0.00108952
-5.49247e-05
0.00111426
-8.44564e-05
0.00113354
-7.75754e-05
0.00115616
-7.40435e-05
0.00117653
-7.1833e-05
0.00119506
-7.03509e-05
0.00121252
-6.92753e-05
0.00122942
-6.85979e-05
0.00124591
-6.78424e-05
0.00126172
-6.6545e-05
0.00127758
-6.53039e-05
0.0012927
-6.4205e-05
0.00130824
-6.31068e-05
0.0013231
-6.15702e-05
0.00133688
-5.9352e-05
0.001351
-5.72565e-05
0.00136416
-5.56524e-05
0.00137665
-5.38747e-05
0.00138925
-5.12105e-05
0.00140015
-4.834e-05
0.0014104
-4.61142e-05
0.00142013
-4.38038e-05
0.00142908
-4.10855e-05
0.00143859
-3.82554e-05
0.00144657
-3.55698e-05
0.00145302
-3.28037e-05
0.00145965
-2.93634e-05
0.00146578
-2.60682e-05
0.001471
-2.33889e-05
0.00147548
-2.05472e-05
0.00147879
-1.70147e-05
0.00148168
-1.29907e-05
0.00148446
-8.6681e-06
0.00148554
-4.97421e-06
0.00148579
-2.36644e-06
0.0014844
4.28381e-07
0.00148261
4.76408e-06
0.0014803
9.77652e-06
0.00147559
1.37468e-05
0.00147028
1.61677e-05
0.00146477
1.87661e-05
0.00145917
2.17216e-05
0.00145399
2.39703e-05
0.00144718
2.5678e-05
0.00143928
2.66165e-05
0.00142983
2.69071e-05
0.00141945
2.78469e-05
0.00140912
2.78227e-05
0.00139853
2.73682e-05
0.00138758
2.7234e-05
0.00137572
2.67834e-05
0.0013628
2.64014e-05
0.00134857
2.67044e-05
0.00133249
2.75302e-05
0.00131376
2.98534e-05
0.00128895
3.58572e-05
0.00125341
4.90615e-05
0.00120489
7.0657e-05
0.00113356
0.000114851
0.00102854
0.000180062
0.000897913
0.000252743
0.000775269
0.000307029
0.000681228
0.000340643
0.000610503
0.000348288
0.000559165
0.000329723
0.000520369
0.000300669
0.000484712
0.000276916
0.000448407
0.000259846
0.000410494
0.000253861
0.000369595
0.000258298
0.000325609
0.000281957
0.000279282
0.000299017
0.000229681
0.000332133
0.000175784
0.000344636
0.000118607
0.000407488
5.77221e-05
-4.22409e-06
-6.2978e-06
0.000775603
-8.31231e-06
0.000783442
-1.02566e-05
0.000791604
-1.21133e-05
0.000800081
-1.38669e-05
0.000808859
-1.55049e-05
0.000817919
-1.70127e-05
0.000827239
-1.83829e-05
0.000836791
-1.96068e-05
0.000846542
-2.06768e-05
0.000856459
-2.15896e-05
0.000866506
-2.23395e-05
0.000876647
-2.2942e-05
0.00088684
-2.33786e-05
0.000897053
-2.36683e-05
0.000907237
-2.38041e-05
0.000917352
-2.378e-05
0.000927369
-2.36487e-05
0.000937273
-2.34004e-05
0.000947006
-2.29963e-05
0.000956512
-2.24791e-05
0.000965781
-2.18687e-05
0.000974794
-2.11687e-05
0.000983537
-2.03845e-05
0.000992007
-1.95595e-05
0.00100021
-1.86285e-05
0.00100803
-1.76327e-05
0.00101544
-1.65832e-05
0.00102243
-1.54924e-05
0.001029
-1.43819e-05
0.00103527
-1.32981e-05
0.00104124
-1.21378e-05
0.00104687
-1.09895e-05
0.00105239
-9.85442e-06
0.0010574
-8.96309e-06
0.00106168
-8.93623e-06
0.00106542
-1.10608e-05
0.00106883
-1.89824e-05
0.00107221
-4.7373e-05
0.0010761
-0.000107932
0.00108214
-0.000134367
0.00109721
-0.000124421
0.00111812
-0.000102605
0.00114351
-7.38826e-05
0.00116719
-0.000106751
0.00118777
-9.7688e-05
0.00121052
-9.2484e-05
0.00123102
-8.92572e-05
0.00124981
-8.69943e-05
0.00126767
-8.55112e-05
0.00128474
-8.43278e-05
0.00130141
-8.30531e-05
0.00131719
-8.1504e-05
0.00133322
-8.00092e-05
0.0013488
-7.86602e-05
0.00136355
-7.70413e-05
0.00137843
-7.49375e-05
0.00139195
-7.22847e-05
0.001405
-6.97831e-05
0.0014183
-6.7619e-05
0.00143026
-6.50658e-05
0.00144228
-6.16502e-05
0.00145306
-5.79237e-05
0.00146228
-5.51705e-05
0.00147177
-5.27863e-05
0.00148067
-4.91801e-05
0.00148918
-4.51501e-05
0.00149803
-4.19421e-05
0.00150449
-3.8637e-05
0.00150965
-3.47419e-05
0.00151649
-3.04341e-05
0.00152215
-2.68101e-05
0.00152566
-2.36286e-05
0.00152768
-1.95499e-05
0.00152895
-1.46245e-05
0.0015311
-9.21434e-06
0.0015331
-4.29358e-06
0.00153338
-6.65121e-07
0.00153103
2.81212e-06
0.00152695
7.98643e-06
0.00152403
1.39107e-05
0.00151966
1.91235e-05
0.001514
2.26411e-05
0.00150811
2.55685e-05
0.001501
2.88139e-05
0.00149336
3.20528e-05
0.00148461
3.44539e-05
0.00147585
3.59975e-05
0.00146543
3.69188e-05
0.00145356
3.83071e-05
0.00144013
3.9263e-05
0.00142553
3.99305e-05
0.00141108
4.00673e-05
0.00139555
4.04377e-05
0.0013772
4.19862e-05
0.0013549
4.559e-05
0.00132649
5.29549e-05
0.00128888
6.57246e-05
0.00123867
8.45905e-05
0.001168
0.00012064
0.00106586
0.000175925
0.000935427
0.000245904
0.000803769
0.000303642
0.000696625
0.000347953
0.00061149
0.000378144
0.000546411
0.000391733
0.000498119
0.000386618
0.000462502
0.000365018
0.000434619
0.000337396
0.00040821
0.000315884
0.000380557
0.000301064
0.000350205
0.000297901
0.000315294
0.000304685
0.000276589
0.000331636
0.000235953
0.000353038
0.000193748
0.000389463
0.00014743
0.000405825
9.94545e-05
0.000465605
4.74942e-05
-1.17297e-05
-1.41302e-05
0.000785031
-1.64672e-05
0.000794966
-1.87275e-05
0.000805201
-2.08862e-05
0.000815729
-2.29232e-05
0.000826538
-2.48209e-05
0.000837608
-2.65597e-05
0.000848917
-2.81301e-05
0.000860436
-2.95203e-05
0.000872132
-3.07204e-05
0.00088397
-3.17272e-05
0.000895912
-3.25302e-05
0.00090792
-3.31561e-05
0.000919951
-3.35692e-05
0.000931962
-3.37894e-05
0.00094391
-3.38263e-05
0.000955754
-3.36889e-05
0.000967473
-3.3384e-05
0.000979023
-3.29174e-05
0.000990351
-3.22937e-05
0.00100141
-3.1529e-05
0.00101219
-3.06453e-05
0.00102267
-2.96498e-05
0.00103283
-2.85498e-05
0.00104266
-2.73657e-05
0.00105218
-2.6084e-05
0.00106125
-2.47291e-05
0.00106985
-2.33195e-05
0.00107797
-2.18665e-05
0.00108559
-2.03591e-05
0.0010929
-1.88696e-05
0.00109985
-1.72847e-05
0.00110642
-1.57179e-05
0.00111286
-1.42043e-05
0.00111872
-1.30069e-05
0.00112383
-1.28192e-05
0.00112833
-1.50451e-05
0.00113238
-2.39119e-05
0.00113618
-5.58723e-05
0.00114007
-0.000127419
0.00114405
-0.000158232
0.00115403
-0.000150343
0.00117051
-0.000126025
0.00119349
-9.40891e-05
0.00121494
-0.000129061
0.00123534
-0.000117891
0.00125826
-0.000111175
0.00127877
-0.000106854
0.00129775
-0.000103766
0.00131575
-0.000101654
0.00133281
-0.000100042
0.00134935
-9.84586e-05
0.00136566
-9.65559e-05
0.00138174
-9.46229e-05
0.00139776
-9.27752e-05
0.00141281
-9.05288e-05
0.0014275
-8.78756e-05
0.00144135
-8.48412e-05
0.00145442
-8.16911e-05
0.00146783
-7.90209e-05
0.00148016
-7.57344e-05
0.00149175
-7.15051e-05
0.00150304
-6.72096e-05
0.00151307
-6.40367e-05
0.0015226
-6.14042e-05
0.00153145
-5.73245e-05
0.00153993
-5.20056e-05
0.00154816
-4.76263e-05
0.00155549
-4.4194e-05
0.00156096
-3.98194e-05
0.00156644
-3.44829e-05
0.00157256
-2.96592e-05
0.00157577
-2.55041e-05
0.00157732
-2.11728e-05
0.00157856
-1.5724e-05
0.00157958
-9.2722e-06
0.00158249
-3.33209e-06
0.00158139
1.91237e-06
0.00157741
6.52239e-06
0.00157326
1.21951e-05
0.00156927
1.87032e-05
0.00156522
2.47169e-05
0.00155997
2.94387e-05
0.00155261
3.37643e-05
0.00154313
3.7887e-05
0.00153317
4.15314e-05
0.00152208
4.451e-05
0.00151089
4.70487e-05
0.00149761
4.97263e-05
0.00148212
5.22798e-05
0.0014652
5.39365e-05
0.00144679
5.59392e-05
0.00142614
5.83189e-05
0.00140162
6.22445e-05
0.00136994
7.01251e-05
0.00132874
8.3571e-05
0.00127587
0.000103782
0.00120424
0.000136752
0.00110384
0.000186805
0.000975312
0.000251184
0.000841545
0.000307923
0.000727968
0.000353701
0.000634975
0.000389504
0.00056046
0.000413224
0.00050187
0.000426078
0.000456102
0.000426905
0.000421497
0.000414236
0.000395434
0.000391546
0.00037357
0.000366264
0.000351946
0.000347052
0.000327837
0.000335912
0.00030043
0.0003365
0.000269622
0.000345434
0.000235803
0.000373996
0.000200241
0.000399529
0.000163801
0.000437641
0.000123971
0.000458117
8.32256e-05
0.000513506
3.90258e-05
-2.13585e-05
-2.40587e-05
0.000795656
-2.66954e-05
0.000807639
-2.92494e-05
0.0008199
-3.16897e-05
0.000832434
-3.39884e-05
0.000845228
-3.6125e-05
0.000858264
-3.8074e-05
0.000871518
-3.98222e-05
0.000884963
-4.13543e-05
0.000898562
-4.26595e-05
0.00091228
-4.37325e-05
0.000926077
-4.45602e-05
0.000939913
-4.51689e-05
0.000953743
-4.5524e-05
0.000967512
-4.564e-05
0.000981188
-4.55535e-05
0.000994741
-4.52422e-05
0.00100811
-4.47133e-05
0.00102126
-4.39894e-05
0.00103416
-4.31075e-05
0.00104677
-4.20624e-05
0.00105903
-4.08503e-05
0.00107093
-3.94919e-05
0.00108245
-3.80117e-05
0.00109361
-3.64223e-05
0.00110441
-3.47352e-05
0.00111471
-3.29698e-05
0.00112448
-3.11356e-05
0.00113371
-2.9278e-05
0.0011424
-2.73269e-05
0.00115073
-2.5386e-05
0.00115865
-2.33054e-05
0.00116612
-2.12601e-05
0.00117337
-1.93495e-05
0.00118011
-1.78234e-05
0.00118603
-1.73649e-05
0.00119127
-1.95159e-05
0.0011959
-2.89367e-05
0.0012001
-6.26444e-05
0.00120395
-0.000142584
0.00120651
-0.000178262
0.00121193
-0.000173914
0.00122261
-0.000147141
0.00124136
-0.000113994
0.00125884
-0.000151372
0.00127756
-0.000137961
0.00129934
-0.0001298
0.00132022
-0.000124393
0.00134005
-0.00012043
0.00135866
-0.00011781
0.00137682
-0.00011603
0.0013948
-0.000114195
0.00141239
-0.000111916
0.00142937
-0.000109594
0.00144606
-0.000107044
0.00146232
-0.000104052
0.00147795
-0.000100787
0.00149284
-9.75553e-05
0.00150708
-9.39717e-05
0.00152126
-9.04354e-05
0.0015343
-8.66519e-05
0.0015465
-8.19651e-05
0.00155803
-7.68664e-05
0.00156891
-7.2997e-05
0.00157938
-6.99922e-05
0.00158839
-6.5501e-05
0.00159695
-5.91586e-05
0.00160414
-5.33133e-05
0.00161138
-4.9181e-05
0.00161678
-4.4727e-05
0.00162115
-3.85203e-05
0.00162655
-3.24689e-05
0.00163153
-2.72376e-05
0.00163286
-2.19178e-05
0.00163323
-1.5891e-05
0.00163394
-8.84334e-06
0.00163675
-1.94137e-06
0.0016361
4.58677e-06
0.00163211
1.05656e-05
0.00162733
1.67828e-05
0.00162162
2.43121e-05
0.00161493
3.17322e-05
0.00160714
3.8063e-05
0.00159776
4.33411e-05
0.0015867
4.8557e-05
0.0015738
5.29935e-05
0.00155888
5.78849e-05
0.00154209
6.2319e-05
0.00152451
6.60203e-05
0.0015049
6.98424e-05
0.00148184
7.42254e-05
0.00145417
8.0246e-05
0.00141974
8.95746e-05
0.00137519
0.000103332
0.00131823
0.00012363
0.00124291
0.000156184
0.00114099
0.000204818
0.00101325
0.000265409
0.000880989
0.000320338
0.000765549
0.00036499
0.000669239
0.000401417
0.000589875
0.00042857
0.000525607
0.000448135
0.000473329
0.0004587
0.000431591
0.000460396
0.000398315
0.000452886
0.000372207
0.000436238
0.000350898
0.000413742
0.000330843
0.000391397
0.000309763
0.000374661
0.000286823
0.000366527
0.000261012
0.000370356
0.000233227
0.000381141
0.000203112
0.000410596
0.000170689
0.000439553
0.000138476
0.000478618
0.000104071
0.000502652
6.93413e-05
0.000552926
3.1926e-05
-3.30605e-05
-3.60359e-05
0.000807488
-3.89501e-05
0.000821467
-4.17774e-05
0.000835703
-4.44781e-05
0.000850191
-4.70185e-05
0.000864921
-4.93738e-05
0.000879875
-5.15134e-05
0.000895027
-5.34176e-05
0.000910351
-5.50688e-05
0.000925808
-5.64547e-05
0.000941361
-5.75681e-05
0.000956968
-5.83917e-05
0.000972587
-5.89424e-05
0.000988176
-5.92066e-05
0.00100367
-5.92002e-05
0.00101905
-5.8934e-05
0.00103424
-5.83973e-05
0.00104922
-5.76154e-05
0.00106395
-5.66071e-05
0.00107839
-5.54125e-05
0.0010925
-5.40083e-05
0.0011062
-5.24236e-05
0.00111947
-5.06583e-05
0.00113234
-4.87482e-05
0.00114479
-4.6702e-05
0.00115684
-4.45543e-05
0.00116833
-4.23229e-05
0.00117924
-4.00247e-05
0.00118957
-3.77114e-05
0.00119936
-3.52865e-05
0.00120873
-3.2811e-05
0.00121761
-3.02228e-05
0.00122589
-2.76283e-05
0.00123376
-2.52615e-05
0.00124131
-2.33389e-05
0.0012482
-2.24861e-05
0.00125429
-2.44033e-05
0.0012596
-3.39582e-05
0.00126431
-6.82316e-05
0.00126831
-0.000153835
0.00127002
-0.000193052
0.0012724
-0.000193404
0.00127753
-0.000164356
0.00128992
-0.000132277
0.00130373
-0.000172616
0.00132105
-0.000158391
0.00134305
-0.000149292
0.00136538
-0.000142654
0.00138576
-0.00013827
0.00140533
-0.000135567
0.00142493
-0.000133362
0.00144429
-0.0001308
0.00146327
-0.000128157
0.0014819
-0.000125474
0.00150053
-0.000122264
0.00151871
-0.000118596
0.0015363
-0.000114725
0.00155303
-0.000111239
0.00156908
-0.000107124
0.00158421
-0.000102558
0.001598
-9.81246e-05
0.00161076
-9.30196e-05
0.00162252
-8.73135e-05
0.00163344
-8.22326e-05
0.00164445
-7.82248e-05
0.00165371
-7.31578e-05
0.00166238
-6.6047e-05
0.0016701
-5.90574e-05
0.0016777
-5.38857e-05
0.00168387
-4.94723e-05
0.00168742
-4.25755e-05
0.00169084
-3.48177e-05
0.00169469
-2.83285e-05
0.00169641
-2.22423e-05
0.00169647
-1.54838e-05
0.00169599
-8.49888e-06
0.00169598
-5.14282e-07
0.00169387
7.94747e-06
0.00168834
1.58491e-05
0.00168083
2.39258e-05
0.00167198
3.27884e-05
0.00166273
4.13116e-05
0.00165332
4.87835e-05
0.00164195
5.55931e-05
0.00162758
6.25482e-05
0.00161013
6.91096e-05
0.00159042
7.54046e-05
0.00156806
8.2085e-05
0.00154262
8.88129e-05
0.00151235
9.69781e-05
0.00147475
0.000108188
0.0014263
0.000124142
0.00136575
0.000145807
0.00128618
0.000178662
0.00117981
0.000226465
0.00105017
0.000284944
0.000919365
0.000337416
0.000805114
0.0003805
0.000708091
0.00041655
0.000626739
0.000444741
0.000559855
0.000466106
0.00050431
0.000480974
0.000458476
0.000489715
0.00042029
0.000491694
0.000388082
0.000486498
0.000361334
0.00047451
0.00033912
0.000456703
0.00031942
0.000435387
0.000299524
0.000414669
0.000278642
0.000400182
0.00025567
0.000394304
0.000231135
0.000400637
0.000205286
0.000413633
0.000177173
0.000442925
0.000146878
0.000474157
0.000117463
0.00051359
8.72524e-05
0.000540394
5.74165e-05
0.000585223
2.605e-05
-4.67817e-05
-5.00089e-05
0.000820538
-5.31799e-05
0.000836456
-5.62601e-05
0.000852611
-5.92023e-05
0.000868999
-6.19655e-05
0.000885612
-6.45199e-05
0.000902431
-6.68313e-05
0.00091943
-6.88708e-05
0.000936583
-7.06205e-05
0.00095385
-7.20628e-05
0.000971192
-7.31889e-05
0.000988563
-7.3983e-05
0.00100592
-7.44393e-05
0.00102321
-7.45905e-05
0.0010404
-7.44099e-05
0.00105742
-7.39215e-05
0.00107421
-7.31328e-05
0.00109076
-7.20584e-05
0.00110702
-7.07305e-05
0.00112298
-6.91488e-05
0.00113853
-6.73362e-05
0.00115364
-6.53284e-05
0.00116828
-6.31186e-05
0.00118247
-6.0743e-05
0.0011962
-5.8179e-05
0.0012094
-5.55132e-05
0.00122203
-5.27705e-05
0.00123406
-4.99768e-05
0.0012455
-4.71481e-05
0.00125641
-4.42034e-05
0.0012668
-4.11105e-05
0.00127654
-3.79677e-05
0.00128558
-3.48578e-05
0.00129409
-3.19391e-05
0.00130231
-2.9553e-05
0.00131009
-2.82391e-05
0.00131714
-2.98059e-05
0.0013233
-3.91943e-05
0.00132844
-7.31649e-05
0.00133246
-0.000162469
0.00133292
-0.000202523
0.0013312
-0.000206497
0.00133263
-0.000178012
0.00133815
-0.000149187
0.00134918
-0.000194115
0.00136522
-0.00018028
0.00138759
-0.000169379
0.00141095
-0.000162023
0.00143263
-0.000157696
0.00145592
-0.000154808
0.00147916
-0.00015219
0.00150234
-0.000149177
0.00152515
-0.000146382
0.00154755
-0.000143302
0.00156915
-0.000139501
0.00158974
-0.000135096
0.00160913
-0.000130613
0.00162726
-0.000126134
0.00164389
-0.000121211
0.00165953
-0.000115299
0.00167411
-0.000109687
0.00168684
-0.0001041
0.00169888
-9.78087e-05
0.00171018
-9.18111e-05
0.00172021
-8.6465e-05
0.00172956
-8.08427e-05
0.00173679
-7.34358e-05
0.00174379
-6.5282e-05
0.00175102
-5.88784e-05
0.00175673
-5.36004e-05
0.00175972
-4.62344e-05
0.00176219
-3.70039e-05
0.0017639
-2.88445e-05
0.00176475
-2.12277e-05
0.0017643
-1.34233e-05
0.00176174
-5.13721e-06
0.00175868
3.93267e-06
0.00175327
1.37184e-05
0.00174606
2.36503e-05
0.00173712
3.33549e-05
0.00172627
4.3381e-05
0.00171324
5.34131e-05
0.00169889
6.31718e-05
0.00168249
7.24837e-05
0.00166297
8.11111e-05
0.00163921
9.0278e-05
0.00161075
0.000100275
0.00157649
0.000112298
0.00153445
0.000126329
0.00148039
0.000145396
0.00141467
0.000168737
0.00133019
0.000203303
0.00121894
0.000251572
0.00108728
0.000308168
0.000957284
0.000357816
0.000844452
0.000399717
0.000748525
0.000434223
0.000667469
0.000461503
0.000598922
0.000483628
0.000541281
0.000500801
0.000493456
0.000512267
0.000452938
0.000519219
0.000417353
0.000521872
0.000387207
0.000518411
0.000361426
0.000508946
0.000339003
0.000494643
0.000318677
0.000477086
0.000298745
0.000456591
0.000277954
0.000437487
0.000256034
0.000424623
0.000232731
0.000420419
0.000208699
0.000428889
0.000183763
0.000443918
0.000157086
0.000472467
0.000128806
0.000504613
0.000101747
0.000543709
7.48361e-05
0.000572075
4.88138e-05
0.000611632
2.23213e-05
-6.24632e-05
-6.59207e-05
0.00083482
-6.93281e-05
0.000852615
-7.2642e-05
0.000870628
-7.58092e-05
0.000888858
-7.87782e-05
0.000907295
-8.15132e-05
0.000925924
-8.39773e-05
0.000944716
-8.61326e-05
0.00096364
-8.79575e-05
0.000982663
-8.94323e-05
0.00100174
-9.0543e-05
0.00102082
-9.12794e-05
0.00103986
-9.16293e-05
0.00105882
-9.16179e-05
0.00107764
-9.12235e-05
0.00109625
-9.04803e-05
0.00111461
-8.9408e-05
0.0011327
-8.80154e-05
0.00115046
-8.6297e-05
0.00116784
-8.42838e-05
0.00118479
-8.20174e-05
0.00120126
-7.95448e-05
0.00121724
-7.6869e-05
0.00123276
-7.39529e-05
0.00124769
-7.08289e-05
0.00126202
-6.7592e-05
0.00127574
-6.42992e-05
0.00128887
-6.09598e-05
0.00130141
-5.75867e-05
0.00131345
-5.40132e-05
0.00132476
-5.02834e-05
0.00133527
-4.65055e-05
0.001345
-4.28562e-05
0.00135421
-3.93701e-05
0.00136307
-3.64034e-05
0.0013716
-3.45472e-05
0.00137963
-3.5572e-05
0.00138683
-4.4568e-05
0.00139267
-7.72274e-05
0.00139677
-0.000167424
0.00139592
-0.000208276
0.00139043
-0.000212799
0.00139018
-0.000188858
0.00139409
-0.000164769
0.00140535
-0.000215943
0.00142109
-0.000203126
0.00144449
-0.000190664
0.00147075
-0.000185024
0.00149883
-0.000180709
0.00152715
-0.00017785
0.0015547
-0.000174911
0.00158113
-0.000171402
0.00160578
-0.000167661
0.00162927
-0.000163516
0.00165166
-0.000158654
0.00167281
-0.000152962
0.00169292
-0.000147034
0.00171138
-0.000141705
0.00172888
-0.00013541
0.00174502
-0.00012836
0.00175913
-0.000121615
0.00177295
-0.000114848
0.00178498
-0.000108374
0.00179601
-0.000100909
0.00180716
-9.41163e-05
0.00181535
-8.80404e-05
0.00182185
-7.9885e-05
0.00182857
-7.07743e-05
0.00183428
-6.34057e-05
0.00183976
-5.70171e-05
0.00184292
-4.90388e-05
0.00184322
-3.85978e-05
0.00184215
-2.83023e-05
0.00184045
-1.90556e-05
0.00183824
-9.5004e-06
0.00183291
7.27916e-07
0.00182543
1.12479e-05
0.00181643
2.21001e-05
0.00180562
3.38132e-05
0.00179286
4.61036e-05
0.00177881
5.79217e-05
0.00176132
7.04219e-05
0.00173945
8.30193e-05
0.00171397
9.58254e-05
0.00168315
0.000108698
0.00164538
0.000123724
0.00159818
0.000141646
0.00153921
0.000165848
0.00146642
0.000191867
0.00137443
0.000230028
0.00125627
0.000280024
0.00112258
0.000334726
0.000994671
0.000381227
0.000883699
0.000421116
0.00078872
0.000454092
0.00070856
0.000480819
0.000640557
0.000502316
0.000582459
0.000518978
0.000532826
0.000531956
0.000490557
0.000541952
0.000453971
0.000548102
0.000422348
0.000549331