/*--------------------------------*- C++ -*----------------------------------*\
| =========                 |                                                 |
| \\      /  F ield         | OpenFOAM: The Open Source CFD Toolbox           |
|  \\    /   O peration     | Version:  2.2.x                                 |
|   \\  /    A nd           | Web:      www.OpenFOAM.org                      |
|    \\/     M anipulation  |                                                 |
\*---------------------------------------------------------------------------*/
FoamFile
{
    version     2.0;
    format      ascii;
    class       surfaceScalarField;
    location    "1.1";
    object      cfmax;
}
// * * * * * * * * * * * * * * * * * * * * * * * * * * * * * * * * * * * * * //

dimensions      [0 3 -1 0 0 0 0];

internalField   nonuniform List<scalar> 
28084
(
0.00103347
0.00102899
0.00102514
0.0010219
0.00101925
0.00101715
0.00101556
0.00101446
0.0010138
0.00101356
0.00101369
0.00101415
0.00101492
0.00101594
0.00101719
0.00101863
0.00102022
0.00102194
0.00102374
0.0010256
0.00102748
0.00102938
0.00103125
0.00100548
0.000774114
0.000766618
0.000760149
0.000755571
0.00075265
0.000750812
0.000749587
0.000748674
0.000747904
0.000747185
0.000746463
0.000745705
0.000744886
0.000743984
0.000742981
0.000741861
0.000740609
0.000739213
0.000737657
0.00073593
0.000734014
0.000742196
0.000750619
0.000759255
0.000768044
0.000776934
0.000785872
0.000794808
0.000803692
0.000812476
0.000821112
0.000829555
0.000837763
0.000845696
0.000853317
0.000860593
0.000867494
0.00087399
0.000880056
0.000885674
0.00089083
0.000895509
0.000899697
0.000903375
0.000906524
0.00090912
0.000911139
0.000912554
0.000913341
0.000913474
0.000912934
0.000911703
0.000909772
0.000907137
0.000903802
0.000899781
0.000895094
0.000889774
0.000883859
0.000877399
0.000870451
0.000863082
0.000855367
0.000847385
0.000839224
0.000830975
0.000822732
0.000814593
0.000806656
0.000799022
0.000791792
0.000785071
0.000778964
0.00077358
0.000769028
0.000765421
0.000762871
0.000761489
0.000761383
0.000762649
0.000765377
0.000769636
0.000775476
0.000782918
0.000791948
0.000802509
0.000814487
0.000827704
0.000841902
0.000856736
0.000871771
0.000886506
0.000900422
0.000913115
0.00144695
0.00144445
0.00103834
0.00143891
0.00103701
0.00143036
0.00103628
0.00141888
0.00103613
0.00140457
0.00103652
0.00138752
0.00103742
0.00136789
0.00103881
0.00134583
0.00104065
0.00132151
0.0010429
0.00129529
0.00104552
0.00126748
0.00104847
0.00123793
0.00105172
0.00120683
0.00105522
0.0011744
0.00105893
0.00114085
0.00106282
0.00110637
0.00106683
0.00107116
0.00107094
0.00103541
0.0010751
0.000999315
0.00107929
0.000963037
0.00108347
0.000926741
0.00108761
0.000890577
0.00109167
0.00116951
0.00109564
0.00145303
0.00102778
0.0013825
0.000796088
0.00131462
0.000797306
0.00125217
0.000797968
0.00119405
0.000798114
0.00113902
0.000797799
0.00108625
0.000797038
0.00103539
0.000795882
0.000986275
0.000794421
0.000938878
0.000792759
0.000893174
0.000790989
0.000849135
0.000789181
0.000806717
0.000787378
0.000765867
0.000785596
0.000726532
0.000783827
0.000688668
0.000782048
0.00065224
0.000780226
0.000617229
0.000778323
0.000583629
0.000776308
0.00055144
0.000774152
0.000520665
0.000771835
0.000520177
0.00076934
0.000520395
0.000775781
0.000520513
0.000782419
0.000520578
0.000789212
0.000520615
0.000796116
0.000520644
0.000803095
0.000520689
0.000810114
0.000520771
0.000817144
0.000520915
0.000824155
0.000521143
0.00083112
0.000521481
0.000838011
0.000521952
0.000844802
0.000522872
0.000851465
0.000524087
0.000857977
0.000525493
0.000864308
0.000527099
0.000870434
0.000528906
0.000876327
0.000530914
0.000881957
0.000533115
0.000887294
0.0005355
0.000892291
0.000538052
0.000896897
0.000540751
0.000901059
0.000543572
0.000904719
0.000546486
0.000907817
0.000549462
0.000910294
0.000552467
0.000912091
0.000555474
0.000913156
0.00055846
0.000913442
0.000561411
0.00091292
0.000564327
0.000911574
0.000567217
0.00090941
0.000570104
0.000906453
0.000573022
0.000902747
0.000576008
0.000898353
0.000579102
0.000893341
0.000582339
0.000887784
0.000585747
0.000881754
0.000589342
0.000875314
0.000593127
0.000868517
0.000597095
0.000861405
0.000601223
0.00085401
0.000605486
0.000846354
0.000609852
0.000838461
0.000614292
0.000830353
0.000618781
0.000822063
0.000623303
0.000813635
0.000627855
0.000805126
0.00063244
0.000796611
0.000637074
0.000788177
0.000641775
0.000779923
0.000646563
0.000771952
0.000651455
0.000764371
0.000656465
0.000757282
0.000661598
0.000750782
0.000666857
0.000744964
0.000672242
0.000739914
0.000677753
0.000735717
0.000683393
0.000732456
0.000689171
0.000730218
0.000695098
0.000729087
0.000701194
0.000729152
0.000707484
0.000730498
0.000713997
0.000733209
0.000720774
0.000737364
0.000727865
0.000743032
0.000735331
0.00075027
0.000743243
0.000759113
0.000751686
0.000769568
0.000760751
0.0007816
0.000770539
0.000795128
0.00078116
0.000810023
0.000792741
0.000826138
0.000805464
0.000843363
0.000865267
0.000861763
0.00144822
0.00144528
0.00104484
0.00143931
0.00104663
0.00143035
0.00104898
0.00141848
0.00105187
0.00140379
0.00105526
0.0013864
0.00105914
0.00136751
0.00106347
0.00134639
0.00106821
0.00132293
0.00107333
0.00129731
0.00107879
0.00126971
0.00108454
0.00124035
0.00109054
0.00120941
0.00109674
0.00117711
0.00110311
0.00114365
0.0011096
0.00110924
0.00111616
0.00107407
0.00112276
0.00103835
0.00112935
0.00100224
0.0011359
0.00096594
0.00114237
0.000929597
0.00114873
0.000893368
0.00115495
0.00117158
0.00116099
0.00145205
0.00110811
0.00138155
0.000858686
0.00131372
0.000856759
0.00125192
0.000855914
0.00119505
0.000855664
0.00114053
0.000855728
0.00108788
0.000855837
0.00103687
0.000855826
0.000987447
0.000855626
0.000939606
0.000855231
0.000893372
0.000854658
0.000848797
0.000853931
0.00080644
0.00085307
0.000765649
0.000852085
0.000726373
0.000850982
0.000688564
0.000849758
0.000652192
0.000848408
0.000617236
0.000846927
0.000583689
0.000845311
0.000551552
0.000843561
0.00052083
0.000841683
0.000522649
0.000839691
0.000522937
0.000846039
0.00052311
0.000852588
0.000523219
0.000859267
0.000523287
0.000866043
0.000523336
0.000872872
0.000523387
0.00087971
0.000523463
0.000886515
0.000523588
0.000893248
0.000523785
0.000899871
0.00052408
0.000906351
0.000524495
0.000912656
0.000525053
0.000918757
0.000525776
0.000924625
0.000526681
0.000930234
0.000527783
0.000935557
0.000529091
0.00094057
0.000530607
0.000945243
0.000532566
0.00094954
0.000534872
0.000953426
0.000537343
0.000956863
0.000539971
0.00095981
0.000542746
0.000962223
0.000545792
0.000964059
0.000548903
0.000965273
0.000552047
0.000965821
0.000555192
0.00096566
0.000558318
0.000964752
0.000561622
0.000963063
0.000564971
0.000960565
0.000568337
0.000957243
0.000571716
0.000953093
0.000575111
0.000948128
0.000578534
0.000942375
0.000582003
0.00093588
0.000585544
0.000928705
0.000589185
0.000920924
0.000592951
0.000912619
0.000596864
0.000903874
0.000600936
0.00089477
0.000605165
0.000885377
0.000609538
0.000875758
0.000614032
0.00086596
0.000618617
0.000856023
0.000623261
0.000845985
0.000627938
0.000835883
0.000632631
0.000825765
0.000637337
0.000815693
0.000642067
0.000805743
0.00064684
0.000796008
0.000651684
0.000786591
0.000656622
0.0007776
0.000661673
0.000769138
0.000666848
0.000761305
0.000672149
0.000754189
0.000677573
0.00074787
0.000683121
0.000742424
0.000688795
0.000737925
0.000694608
0.000734451
0.000700579
0.000732081
0.000706733
0.000730899
0.000713102
0.000730983
0.000719724
0.000732413
0.000726648
0.000735261
0.000733936
0.000739599
0.000741664
0.000745492
0.000749925
0.000753002
0.000758821
0.000762177
0.000768451
0.000773047
0.000778898
0.00078561
0.00079023
0.000799819
0.000802539
0.000815607
0.000816044
0.000832968
0.000876271
0.000852152
0.00144723
0.00144388
0.00105298
0.0014375
0.00105784
0.00142816
0.00106322
0.00141756
0.00106911
0.00140475
0.00107547
0.00138914
0.00108228
0.00137083
0.00108951
0.00134999
0.00109712
0.00132678
0.00110507
0.00130137
0.00111333
0.00127395
0.00112183
0.00124473
0.00113055
0.00121392
0.00113943
0.0011817
0.00114842
0.0011483
0.00115748
0.00111392
0.00116655
0.00107875
0.00117561
0.001043
0.0011846
0.00100685
0.00119348
0.000970463
0.00120222
0.00093402
0.00121077
0.00089767
0.00121911
0.00110868
0.00122721
0.00143929
0.00118889
0.0013737
0.000920022
0.00131164
0.000916383
0.00125268
0.000914673
0.00119607
0.000914404
0.00114148
0.00091513
0.00108861
0.000916369
0.00103729
0.000917772
0.000987502
0.000919131
0.000939259
0.000920338
0.000892728
0.000921339
0.000848199
0.00092211
0.000805297
0.00092264
0.000764019
0.000922925
0.000724351
0.000922963
0.000686275
0.000922754
0.00064977
0.000922299
0.000614814
0.000921602
0.000581382
0.000920667
0.00054945
0.000919503
0.000518992
0.000918121
0.000520164
0.000916534
0.000520685
0.000922531
0.00052116
0.00092872
0.000521598
0.000935048
0.000522004
0.000941475
0.00052238
0.000947957
0.000522735
0.000954449
0.000523077
0.000960906
0.000523418
0.000967285
0.000523772
0.000973542
0.000524157
0.000979636
0.000524591
0.000985526
0.000525093
0.000991172
0.000525684
0.000996536
0.000526383
0.00100158
0.000527208
0.00100626
0.000528221
0.00101053
0.00053036
0.00101436
0.000532629
0.00101772
0.000535031
0.00102058
0.000537568
0.00102291
0.00054024
0.00102469
0.000543045
0.00102588
0.000545981
0.00102646
0.000549044
0.0010264
0.000552227
0.00102568
0.000555522
0.00102426
0.00055892
0.00102212
0.000562411
0.00101924
0.000565984
0.0010156
0.000569629
0.0010112
0.000573334
0.00100601
0.000577093
0.00100006
0.0005809
0.000993332
0.000584754
0.000985864
0.000588659
0.000977686
0.000592621
0.000968844
0.000596653
0.000959398
0.000600767
0.000949417
0.000604978
0.000938978
0.000609292
0.000928163
0.000613714
0.00091705
0.00061824
0.000905715
0.000622857
0.000894226
0.000627546
0.000882646
0.000632289
0.00087103
0.000637067
0.000859437
0.000641869
0.000847925
0.000646694
0.000836566
0.000651551
0.000825439
0.00065646
0.000814638
0.000661444
0.000804262
0.000666525
0.000794416
0.000671722
0.000785202
0.000677047
0.000776713
0.000682504
0.000769037
0.000688096
0.000762251
0.000693831
0.000756429
0.000699722
0.000751643
0.000705789
0.000747968
0.000712062
0.000745482
0.000718576
0.000744262
0.000725375
0.000744384
0.00073251
0.00074592
0.000740048
0.000748943
0.000748071
0.000753522
0.00075668
0.000759728
0.000765988
0.000767627
0.000776103
0.000777274
0.000787109
0.000788696
0.000799038
0.000801868
0.000811917
0.000816708
0.000825947
0.000833158
0.000883429
0.000851444
0.00144401
0.00144151
0.00106275
0.00143809
0.00107063
0.00143159
0.001079
0.00142207
0.00108783
0.00140959
0.00109711
0.00139428
0.00110681
0.00137625
0.0011169
0.00135566
0.00112734
0.00133266
0.00113808
0.00130744
0.00114909
0.00128018
0.00116032
0.00125108
0.00117171
0.00122034
0.00118322
0.00118818
0.00119479
0.0011548
0.00120639
0.0011204
0.00121795
0.00108519
0.00122942
0.00104936
0.00124078
0.0010131
0.00125196
0.000976592
0.00126292
0.000939996
0.00127364
0.000903473
0.00128408
0.0011156
0.00129419
0.00144618
0.0012378
0.00137957
0.000961313
0.00131526
0.000961874
0.00125494
0.00096318
0.00119791
0.000965107
0.0011433
0.000967368
0.00109057
0.000969646
0.00103945
0.000971744
0.000989889
0.000973577
0.000941886
0.000975123
0.00089547
0.000976392
0.000850668
0.000977399
0.000807497
0.000978158
0.000765966
0.000978677
0.000726073
0.000978961
0.000687807
0.00097901
0.000651151
0.000978817
0.000616082
0.000978375
0.000582574
0.000977673
0.000550594
0.0009767
0.000520111
0.000975442
0.000517557
0.000973882
0.000518196
0.000978942
0.000518802
0.000984182
0.000519374
0.000989551
0.000519911
0.000994991
0.000520408
0.00100045
0.000520867
0.00100589
0.000521291
0.00101126
0.000521793
0.00101652
0.000522368
0.00102164
0.000522945
0.00102658
0.000523531
0.00103132
0.000524136
0.00103583
0.000524772
0.00104008
0.0005261
0.00104407
0.00052798
0.00104776
0.000530023
0.00105114
0.000532234
0.00105418
0.000534617
0.00105686
0.000537171
0.00105913
0.000539895
0.00106097
0.000542783
0.00106233
0.000545829
0.00106317
0.000549022
0.00106345
0.00055235
0.00106314
0.000555801
0.00106218
0.000559359
0.00106055
0.000563011
0.00105821
0.00056674
0.00105512
0.000570533
0.00105126
0.000574377
0.00104662
0.000578261
0.00104118
0.000582177
0.00103494
0.000586122
0.00102791
0.000590094
0.00102011
0.000594099
0.00101158
0.000598143
0.00100236
0.000602238
0.000992508
0.000606396
0.00098209
0.000610629
0.000971182
0.000614949
0.000959862
0.000619361
0.000948211
0.000623866
0.000936305
0.000628459
0.000924219
0.000633126
0.000912021
0.000637853
0.000899772
0.000642623
0.000887532
0.000647422
0.000875361
0.000652245
0.000863326
0.000657095
0.0008515
0.000661984
0.000839967
0.000666935
0.000828822
0.000671973
0.000818166
0.000677123
0.000808105
0.000682405
0.000798737
0.000687834
0.000790157
0.000693421
0.000782448
0.000699176
0.000775689
0.000705115
0.000769951
0.000711261
0.000765307
0.000717645
0.00076183
0.000724305
0.000759596
0.000731289
0.000758679
0.00073865
0.000759152
0.000746458
0.000761088
0.000754797
0.000764557
0.00076377
0.000769633
0.000773497
0.000776389
0.000784102
0.00078489
0.000795678
0.00079518
0.000808246
0.000807249
0.000821772
0.000820998
0.000836388
0.000836289
0.000890488
0.000853239
0.00144709
0.00144715
0.00107416
0.00144408
0.00108501
0.00143792
0.0010963
0.00142871
0.00110804
0.00141655
0.00112019
0.00140151
0.00113272
0.00138374
0.00114562
0.00136337
0.00115883
0.00134057
0.00117232
0.0013155
0.00118604
0.00128837
0.00119994
0.00125935
0.00121397
0.00122867
0.00122807
0.00119652
0.00124218
0.00116312
0.00125627
0.00112866
0.00127027
0.00109336
0.00128413
0.00105741
0.00129781
0.001021
0.00131125
0.000984311
0.00132441
0.000947511
0.00133726
0.00091076
0.00134975
0.00112134
0.00136185
0.00144457
0.00130981
0.0013786
0.00101712
0.00131517
0.00101731
0.00125547
0.00101876
0.00119884
0.00102115
0.00114448
0.00102404
0.00109188
0.00102705
0.00104085
0.00102988
0.000991343
0.00103243
0.000943376
0.00103465
0.000896987
0.00103653
0.000852209
0.00103809
0.000809064
0.00103934
0.000767563
0.0010403
0.000727704
0.00104098
0.000689477
0.00104138
0.000652864
0.0010415
0.000617842
0.00104135
0.000584382
0.00104092
0.000552454
0.00104021
0.000522021
0.00103922
0.000520288
0.00103795
0.000520997
0.00104252
0.000521657
0.00104722
0.000522269
0.00105202
0.00052283
0.00105686
0.000523337
0.0010617
0.00052379
0.00106649
0.000524193
0.00107117
0.000524552
0.00107572
0.000524877
0.0010801
0.000525182
0.00108427
0.000525483
0.0010882
0.000525795
0.00109187
0.000526139
0.00109526
0.000527474
0.00109834
0.000529452
0.00110109
0.000531606
0.00110349
0.000533941
0.00110552
0.000536461
0.00110716
0.000539167
0.00110836
0.000542057
0.00110911
0.000545127
0.00110938
0.000548369
0.00110913
0.000551773
0.00110832
0.000555326
0.00110693
0.000559015
0.00110491
0.000562822
0.00110225
0.00056673
0.00109889
0.000570721
0.00109482
0.000574775
0.00109001
0.000578877
0.00108444
0.000583011
0.00107809
0.000587165
0.00107097
0.000591331
0.00106309
0.000595507
0.00105445
0.000599696
0.0010451
0.000603904
0.00103509
0.000608141
0.00102445
0.00061242
0.00101327
0.000616754
0.00100163
0.000621154
0.000989584
0.000625628
0.00097723
0.000630178
0.00096464
0.0006348
0.000951887
0.000639484
0.000939037
0.000644216
0.000926151
0.00064898
0.000913285
0.000653763
0.000900496
0.000658558
0.000887844
0.000663365
0.000875395
0.000668197
0.000863228
0.000673076
0.000851431
0.000678032
0.000840102
0.000683095
0.000829343
0.000688295
0.000819256
0.000693656
0.000809939
0.000699197
0.000801479
0.000704935
0.000793955
0.000710889
0.000787438
0.000717086
0.000781998
0.000723558
0.000777703
0.000730348
0.000774624
0.000737508
0.000772834
0.000745095
0.000772404
0.00075318
0.000773406
0.000761848
0.000775908
0.000771206
0.000779983
0.000781377
0.000785705
0.000792498
0.000793144
0.00080468
0.000802353
0.000817957
0.000813338
0.000832252
0.000826
0.000847594
0.000840135
0.000898451
0.000855713
0.00145458
0.00145496
0.00108721
0.00145222
0.00110097
0.00144638
0.00111514
0.00143747
0.00112971
0.00142559
0.00114467
0.00141082
0.00115999
0.00139328
0.00117564
0.00137311
0.00119158
0.00135047
0.00120776
0.00132554
0.00122414
0.0012985
0.00124066
0.00126954
0.00125727
0.00123887
0.00127391
0.0012067
0.00129053
0.00117324
0.00130706
0.00113868
0.00132345
0.00110325
0.00133965
0.00106713
0.00135561
0.00103052
0.00137127
0.000993604
0.00138659
0.000956548
0.00140152
0.000919517
0.00141604
0.00110654
0.00143009
0.00144553
0.00137913
0.00137918
0.00107059
0.00131574
0.00107149
0.00125622
0.00107374
0.0011998
0.00107697
0.00114559
0.00108074
0.00109311
0.00108461
0.00104216
0.00108828
0.00099271
0.00109162
0.000944786
0.00109458
0.00089843
0.00109716
0.000853677
0.00109936
0.000810552
0.00110121
0.000769067
0.00110271
0.000729223
0.00110388
0.000691009
0.00110473
0.00065441
0.00110525
0.000619402
0.00110547
0.000585957
0.00110536
0.000554043
0.00110495
0.000523624
0.00110422
0.000520985
0.00110319
0.000521726
0.00110717
0.000522412
0.00111127
0.000523039
0.00111543
0.000523604
0.00111962
0.000524103
0.00112378
0.000524536
0.00112786
0.000524905
0.00113182
0.000525216
0.00113562
0.00052548
0.00113922
0.00052571
0.0011426
0.00052592
0.00114571
0.000526129
0.00114854
0.000527271
0.00115107
0.000529193
0.00115326
0.00053129
0.00115511
0.00053357
0.00115659
0.000536041
0.00115767
0.000538706
0.00115834
0.000541565
0.00115857
0.000544618
0.00115833
0.000547859
0.00115759
0.000551281
0.00115632
0.000554873
0.00115449
0.000558624
0.00115207
0.000562519
0.00114902
0.00056654
0.00114532
0.000570671
0.00114094
0.00057489
0.00113584
0.000579179
0.00113002
0.000583519
0.00112345
0.000587891
0.00111612
0.000592281
0.00110802
0.000596679
0.00109918
0.000601077
0.0010896
0.000605477
0.00107931
0.000609881
0.00106838
0.000614298
0.00105684
0.00061874
0.00104478
0.000623219
0.00103226
0.000627744
0.00101937
0.000632324
0.00100619
0.000636961
0.0009928
0.000641649
0.000979269
0.000646381
0.000965663
0.00065114
0.000952042
0.000655913
0.00093846
0.000660684
0.000924971
0.000665447
0.000911629
0.000670202
0.000898497
0.000674964
0.000885647
0.000679756
0.000873164
0.000684612
0.000861142
0.00068957
0.000849682
0.000694668
0.000838887
0.000699938
0.000828854
0.000705408
0.000819673
0.000711102
0.000811422
0.000717044
0.00080417
0.000723265
0.000797982
0.000729803
0.000792924
0.000736706
0.00078906
0.000744028
0.000786461
0.000751834
0.000785194
0.000760197
0.000785328
0.000769204
0.00078693
0.000778962
0.000790069
0.000789601
0.000794817
0.000801265
0.000801245
0.000814089
0.000809412
0.000828129
0.000819338
0.000843295
0.000830939
0.000859509
0.000843973
0.000907513
0.000858261
0.00146423
0.00146492
0.00110193
0.00146248
0.00111852
0.00145693
0.0011355
0.00144831
0.00115285
0.00143669
0.00117056
0.00142216
0.0011886
0.00140483
0.00120695
0.00138484
0.00122555
0.00136235
0.00124437
0.00133752
0.00126335
0.00131055
0.00128244
0.00128162
0.00130158
0.00125093
0.00132071
0.0012187
0.00133977
0.00118514
0.00135869
0.00115045
0.00137743
0.00111484
0.00139592
0.0010785
0.00141411
0.00104165
0.00143195
0.00100445
0.00144938
0.000967089
0.00146636
0.000929725
0.00148284
0.00110789
0.00149881
0.00144744
0.00144707
0.00138011
0.00112282
0.00131638
0.00112481
0.00125696
0.00112811
0.00120072
0.00113234
0.0011467
0.00113702
0.00109437
0.00114172
0.00104355
0.00114615
0.000994208
0.00115018
0.00094638
0.00115379
0.000900108
0.00115697
0.00085543
0.00115973
0.000812369
0.0011621
0.000770936
0.00116409
0.000731134
0.00116572
0.000692952
0.00116699
0.000656374
0.0011679
0.000621379
0.00116847
0.000587939
0.00116869
0.000556024
0.00116855
0.000525601
0.00116807
0.000521293
0.00116723
0.000522063
0.00117058
0.000522776
0.00117402
0.000523423
0.0011775
0.000523998
0.00118099
0.000524495
0.00118442
0.000524915
0.00118775
0.000525257
0.00119094
0.000525528
0.00119394
0.000525736
0.00119673
0.000525893
0.00119927
0.000526015
0.00120154
0.000527519
0.00120351
0.000529361
0.00120517
0.000531379
0.00120649
0.000533586
0.00120745
0.00053599
0.00120805
0.000538597
0.00120825
0.000541412
0.00120803
0.000544433
0.00120737
0.000547658
0.00120623
0.000551082
0.0012046
0.000554696
0.00120243
0.000558488
0.00119969
0.000562444
0.00119636
0.00056655
0.00119239
0.000570786
0.00118777
0.000575135
0.00118246
0.000579575
0.00117644
0.000584086
0.00116968
0.000588648
0.00116217
0.000593241
0.00115391
0.000597851
0.00114489
0.000602464
0.00113511
0.000607072
0.00112461
0.000611674
0.00111341
0.000616271
0.00110157
0.000620869
0.00108913
0.000625479
0.00107618
0.00063011
0.00106279
0.000634771
0.00104905
0.000639469
0.00103503
0.000644204
0.00102081
0.000648972
0.00100647
0.00065376
0.000992079
0.000658555
0.000977687
0.000663339
0.000963351
0.0006681
0.00094912
0.000672827
0.000935047
0.000677525
0.000921191
0.000682209
0.000907621
0.000686905
0.000894419
0.000691652
0.000881677
0.000696495
0.000869496
0.000701478
0.000857979
0.000706643
0.000847222
0.000712024
0.000837316
0.000717653
0.000828336
0.000723561
0.000820351
0.000729784
0.000813421
0.000736367
0.000807607
0.000743363
0.000802972
0.000750835
0.000799579
0.00075885
0.000797495
0.000767487
0.000796785
0.000776835
0.000797513
0.000787005
0.000799745
0.000798129
0.000803547
0.000810359
0.000808991
0.000823848
0.000816141
0.000838687
0.000825028
0.000854794
0.000835589
0.000871994
0.000847571
0.000917604
0.000860667
0.00147602
0.00147699
0.00111832
0.00147483
0.00113767
0.00146956
0.00115738
0.0014612
0.00117744
0.00144983
0.00119783
0.00143551
0.00121853
0.00141838
0.00123951
0.00139855
0.00126071
0.00137618
0.0012821
0.00135143
0.00130363
0.00132449
0.00132522
0.00129555
0.00134683
0.00126482
0.00136839
0.0012325
0.00138984
0.0011988
0.00141111
0.00116393
0.00143214
0.00112809
0.00145287
0.00109151
0.00147324
0.00105436
0.00149319
0.00101683
0.00151268
0.000979113
0.00153166
0.000941365
0.00155008
0.00111324
0.0015679
0.00144818
0.00151787
0.00138029
0.00117623
0.00131663
0.00117895
0.0012575
0.00118311
0.00120155
0.00118819
0.00114776
0.00119369
0.0010956
0.00119914
0.00104491
0.00120427
0.000995681
0.00120895
0.00094795
0.00121316
0.000901766
0.0012169
0.000857166
0.0012202
0.000814173
0.00122306
0.0007728
0.00122551
0.000733045
0.00122756
0.000694902
0.00122923
0.000658353
0.00123051
0.000623378
0.00123141
0.000589951
0.00123192
0.000558043
0.00123206
0.000527624
0.00123181
0.00052177
0.00123118
0.000522572
0.00123391
0.000523301
0.00123671
0.000523948
0.00123953
0.000524508
0.00124233
0.000524976
0.00124504
0.00052535
0.00124763
0.000525632
0.00125006
0.000525828
0.00125228
0.000525947
0.00125426
0.000526534
0.00125598
0.000528121
0.00125741
0.000529872
0.00125853
0.000531801
0.00125932
0.00053392
0.00125976
0.000536241
0.00125984
0.000538773
0.00125954
0.000541522
0.00125884
0.000544492
0.00125772
0.000547681
0.00125615
0.000551087
0.0012541
0.000554701
0.00125155
0.000558515
0.00124846
0.000562516
0.0012448
0.000566689
0.00124054
0.000571016
0.00123565
0.000575479
0.0012301
0.000580056
0.00122385
0.000584726
0.0012169
0.000589467
0.0012092
0.000594257
0.00120076
0.000599076
0.00119156
0.000603907
0.0011816
0.000608737
0.00117089
0.000613555
0.00115946
0.000618358
0.00114734
0.000623147
0.00113458
0.000627927
0.00112125
0.000632705
0.00110741
0.000637491
0.00109314
0.00064229
0.00107853
0.000647108
0.00106366
0.000651943
0.00104861
0.000656789
0.00103346
0.000661634
0.00101827
0.000666461
0.00100309
0.000671253
0.000987981
0.000675995
0.000972989
0.00068068
0.000958165
0.000685311
0.000943564
0.000689906
0.000929254
0.000694496
0.000915314
0.000699124
0.000901837
0.00070384
0.000888922
0.000708697
0.000876671
0.000713741
0.000865182
0.000719017
0.000854543
0.000724564
0.000844828
0.000730418
0.000836104
0.000736623
0.000828427
0.000743231
0.000821855
0.000750303
0.000816445
0.000757908
0.00081226
0.00076612
0.000809362
0.000775024
0.000807814
0.000784712
0.000807676
0.000795297
0.000809011
0.000806914
0.000811881
0.000819723
0.000816357
0.000833894
0.000822504
0.000849549
0.000830365
0.000866632
0.0008399
0.000884901
0.000850865
0.000928572
0.000862858
0.0014899
0.00149113
0.00113639
0.00148923
0.00115843
0.00148421
0.0011808
0.0014761
0.00120349
0.00146495
0.00122649
0.00145084
0.00124978
0.00143388
0.00127331
0.00141419
0.00129705
0.00139191
0.00132094
0.00136722
0.00134494
0.0013403
0.00136898
0.00131132
0.001393
0.00128051
0.00141692
0.00124806
0.00144069
0.00121418
0.00146424
0.0011791
0.0014875
0.001143
0.00151041
0.00110611
0.0015329
0.00106862
0.00155492
0.00103072
0.00157642
0.000992598
0.00159734
0.000954415
0.00161764
0.00111424
0.00163728
0.00144859
0.00159002
0.00138025
0.0012297
0.00131676
0.00123318
0.001258
0.00123824
0.00120237
0.00124419
0.00114882
0.00125049
0.00109683
0.00125667
0.00104627
0.00126248
0.000997155
0.00126779
0.000949522
0.00127258
0.000903425
0.00127687
0.000858902
0.00128068
0.000815976
0.00128402
0.00077466
0.00128692
0.000734952
0.00128939
0.000696845
0.00129144
0.000660325
0.00129307
0.000625369
0.00129429
0.000591956
0.0012951
0.000560057
0.0012955
0.000529643
0.00129548
0.000522061
0.00129505
0.000522884
0.00129717
0.000523619
0.00129933
0.000524258
0.00130149
0.000524794
0.0013036
0.000525224
0.0013056
0.000525546
0.00130746
0.000525762
0.00130912
0.000526234
0.00131056
0.00052758
0.00131175
0.000529073
0.00131265
0.000530728
0.00131324
0.000532558
0.00131351
0.000534579
0.00131343
0.000536804
0.001313
0.000539245
0.0013122
0.00054191
0.00131101
0.000544807
0.00130941
0.000547937
0.00130738
0.000551299
0.0013049
0.000554889
0.00130193
0.0005587
0.00129846
0.000562721
0.00129445
0.000566937
0.00128986
0.000571333
0.00128467
0.00057589
0.00127884
0.000580588
0.00127235
0.000585404
0.00126517
0.000590315
0.00125727
0.000595297
0.00124863
0.000600326
0.00123924
0.000605382
0.0012291
0.000610445
0.0012182
0.000615501
0.00120655
0.000620538
0.00119418
0.000625551
0.00118113
0.00063054
0.00116745
0.000635507
0.0011532
0.000640459
0.00113846
0.000645403
0.00112331
0.000650343
0.00110783
0.000655282
0.0010921
0.000660217
0.00107621
0.000665139
0.00106023
0.000670035
0.00104423
0.000674887
0.00102826
0.000679677
0.00101236
0.00068439
0.000996597
0.000689019
0.000981007
0.00069357
0.000965647
0.000698062
0.000950583
0.000702531
0.000935895
0.000707025
0.000921672
0.0007116
0.000908015
0.000716314
0.000895024
0.000721222
0.000882796
0.000726375
0.000871418
0.000731818
0.000860963
0.000737598
0.000851493
0.000743764
0.000843063
0.000750377
0.000835727
0.000757506
0.000829539
0.000765227
0.000824558
0.000773622
0.000820846
0.000782781
0.00081846
0.000792801
0.000817459
0.000803798
0.000817901
0.00081591
0.000819847
0.000829302
0.000823363
0.000844159
0.000828518
0.000860633
0.000835364
0.000878704
0.000843882
0.000898087
0.000853855
0.000940237
0.00086481
0.00150583
0.00150729
0.00115617
0.00150564
0.00118081
0.00150086
0.00120576
0.00149298
0.001231
0.00148204
0.00125653
0.00146811
0.00128232
0.0014513
0.00130833
0.00143173
0.00133453
0.00140953
0.00136085
0.00138487
0.00138725
0.00135793
0.00141366
0.0013289
0.00144001
0.00129797
0.00146624
0.00126536
0.00149227
0.00123127
0.00151803
0.00119593
0.00154346
0.00115953
0.00156848
0.0011223
0.00159303
0.00108442
0.00161706
0.0010461
0.00164051
0.00100752
0.00166331
0.000968852
0.00168544
0.00111538
0.00170684
0.00144859
0.00166355
0.00137998
0.00128314
0.00131681
0.00128739
0.00125849
0.00129337
0.00120322
0.0013002
0.0011499
0.00130728
0.00109809
0.00131417
0.00104767
0.00132062
0.000998661
0.00132652
0.000951127
0.00133187
0.000905118
0.00133669
0.000860673
0.00134099
0.000817815
0.00134479
0.000776555
0.00134813
0.000736894
0.001351
0.000698823
0.00135343
0.000662328
0.00135541
0.000627391
0.00135695
0.000593989
0.00135804
0.000562097
0.00135869
0.000531688
0.0013589
0.000522626
0.00135866
0.000522966
0.00136017
0.000523701
0.00136169
0.000524325
0.00136319
0.000524833
0.00136461
0.000525639
0.0013659
0.000526625
0.00136702
0.000527739
0.00136792
0.000528988
0.00136859
0.000530381
0.00136897
0.000531933
0.00136905
0.000533658
0.00136881
0.000535572
0.00136824
0.00053769
0.00136731
0.000540025
0.00136601
0.000542591
0.00136433
0.000545396
0.00136226
0.000548446
0.00135977
0.000551742
0.00135684
0.000555284
0.00135346
0.000559067
0.00134959
0.000563081
0.0013452
0.000567315
0.00134027
0.000571754
0.00133476
0.000576382
0.00132864
0.000581178
0.00132188
0.00058612
0.00131445
0.000591185
0.00130633
0.000596347
0.00129749
0.000601581
0.00128791
0.000606863
0.00127758
0.000612168
0.00126648
0.000617476
0.00125464
0.00062277
0.00124204
0.000628038
0.00122874
0.000633273
0.00121475
0.000638472
0.00120015
0.000643637
0.00118498
0.000648772
0.00116934
0.00065388
0.00115329
0.000658966
0.00113693
0.000664029
0.00112035
0.000669064
0.00110361
0.000674061
0.0010868
0.000679003
0.00106998
0.000683872
0.0010532
0.000688648
0.00103651
0.000693318
0.00101996
0.000697876
0.00100359
0.000702329
0.000987459
0.0007067
0.000971631
0.000711029
0.000956183
0.000715369
0.000941207
0.000719782
0.0009268
0.000724333
0.000913063
0.000729084
0.000900092
0.000734092
0.000887971
0.00073941
0.000876771
0.000745092
0.000866552
0.000751196
0.000857364
0.000757792
0.00084926
0.000764956
0.00084229
0.000772773
0.000836512
0.000781333
0.000831982
0.000790732
0.000828759
0.000801072
0.000826896
0.00081247
0.000826449
0.00082507
0.000827475
0.00083904
0.00083004
0.000854577
0.000834212
0.000871861
0.000840052
0.000890913
0.000847562
0.000911426
0.000856556
0.000952423
0.000866525
0.00152375
0.00152543
0.00117768
0.001524
0.00120483
0.00151945
0.00123226
0.00151178
0.00125996
0.00150104
0.00128793
0.00148728
0.00131614
0.00147061
0.00134456
0.00145113
0.00137313
0.00142899
0.00140181
0.00140435
0.00143053
0.00137736
0.00145923
0.00134824
0.00148785
0.00131717
0.0015163
0.00128436
0.00154451
0.00125003
0.00157241
0.00121439
0.00159993
0.00117765
0.001627
0.00114003
0.00165355
0.00110172
0.00167952
0.00106293
0.00170485
0.00102385
0.00172948
0.000984648
0.00175337
0.00111638
0.00177647
0.00144798
0.00173871
0.00137942