/*--------------------------------*- C++ -*----------------------------------*\
| =========                 |                                                 |
| \\      /  F ield         | OpenFOAM: The Open Source CFD Toolbox           |
|  \\    /   O peration     | Version:  2.2.x                                 |
|   \\  /    A nd           | Web:      www.OpenFOAM.org                      |
|    \\/     M anipulation  |                                                 |
\*---------------------------------------------------------------------------*/
FoamFile
{
    version     2.0;
    format      ascii;
    class       surfaceScalarField;
    location    "1.1";
    object      phi;
}
// * * * * * * * * * * * * * * * * * * * * * * * * * * * * * * * * * * * * * //

dimensions      [1 0 -1 0 0 0 0];

internalField   nonuniform List<scalar> 
28084
(
0.000746224
0.000742988
0.000740213
0.000737877
0.000735962
0.000734443
0.000733299
0.000732503
0.000732031
0.000731856
0.00073195
0.000732288
0.00073284
0.000733581
0.000734484
0.000735523
0.000736673
0.00073791
0.00073921
0.000740553
0.000741918
0.000743286
0.000744639
0.000803722
0.000774875
0.000747121
0.000728135
0.000715789
0.000707613
0.000701932
0.000697743
0.000694466
0.000691774
0.000689477
0.000687458
0.000685633
0.000683931
0.000682289
0.00068065
0.000678956
0.000677156
0.0006752
0.000673042
0.00067063
0.000667907
0.000673505
0.000679181
0.000684848
0.00069044
0.000695889
0.00070113
0.000706096
0.00071072
0.000714943
0.00071871
0.000721978
0.000724716
0.000726903
0.000728534
0.000729615
0.000730159
0.000730181
0.000729702
0.000728756
0.000727386
0.00072563
0.000723517
0.000721071
0.000718307
0.000715233
0.000711849
0.000708148
0.000704113
0.000699724
0.00069495
0.000689759
0.000684111
0.000677969
0.000671294
0.000664055
0.000656227
0.000647798
0.000638766
0.00062915
0.000618982
0.000608313
0.000597211
0.000585757
0.000574048
0.000562189
0.00055029
0.000538467
0.000526831
0.000515492
0.000504551
0.000494099
0.000484217
0.000474974
0.000466427
0.000458623
0.000451593
0.000445356
0.000439913
0.000435237
0.00043127
0.000427904
0.000424965
0.000422186
0.000419178
0.000415397
0.000410098
0.00040229
0.0003907
0.00037374
0.000349517
0.000315897
0.000270693
0.000211948
3.7119e-06
3.23513e-06
0.00074974
2.77572e-06
0.000748785
2.33538e-06
0.000748259
1.91574e-06
0.000748147
1.51833e-06
0.000748429
1.14451e-06
0.000749083
7.95451e-07
0.000750087
4.72133e-07
0.000751415
1.7529e-07
0.000753039
-9.45799e-08
0.000754933
-3.37226e-07
0.000757068
-5.52641e-07
0.000759414
-7.41055e-07
0.000761942
-9.02918e-07
0.000764622
-1.03889e-06
0.000767426
-1.14981e-06
0.000770325
-1.23667e-06
0.000773292
-1.30061e-06
0.0007763
-1.34287e-06
0.000779324
-1.36477e-06
0.000782341
-1.36768e-06
0.000785328
-1.353e-06
0.000788266
-0.000104607
0.000791134
2.04635e-05
0.000639021
2.59724e-05
0.000672238
1.96567e-05
0.000702924
1.35146e-05
0.000720566
9.1314e-06
0.00072748
6.33973e-06
0.000727059
4.62973e-06
0.000722056
3.57187e-06
0.000714272
2.89074e-06
0.000704776
2.43262e-06
0.0006942
2.11871e-06
0.000682963
1.91004e-06
0.000671386
1.78679e-06
0.00065975
1.73677e-06
0.00064831
1.75096e-06
0.00063729
1.82163e-06
0.000626875
1.94207e-06
0.000617202
2.10737e-06
0.000608351
2.31541e-06
0.000600344
2.56838e-06
0.000593154
2.8744e-06
0.00058671
-5.44444e-06
0.00058091
-5.5142e-06
0.000582186
-5.50044e-06
0.000584064
-5.42224e-06
0.000586451
-5.28281e-06
0.000589261
-5.0825e-06
0.000592403
-4.82202e-06
0.000595778
-4.50348e-06
0.000599282
-4.13072e-06
0.000602806
-3.70979e-06
0.000606242
-3.24868e-06
0.000609478
-2.75707e-06
0.000612408
-2.24578e-06
0.000614928
-1.72597e-06
0.00061694
-1.20796e-06
0.000618356
-6.99509e-07
0.000619103
-2.05104e-07
0.000619125
2.71119e-07
0.00061839
7.13174e-07
0.000616879
1.11284e-06
0.000614577
1.47485e-06
0.00061148
1.80706e-06
0.000607615
2.11922e-06
0.00060303
2.42194e-06
0.0005978
2.72581e-06
0.000592014
3.04093e-06
0.000585774
3.37635e-06
0.000579184
3.73969e-06
0.000572342
4.13695e-06
0.000565333
4.57198e-06
0.000558218
5.04649e-06
0.00055103
5.55989e-06
0.000543774
6.10919e-06
0.000536429
6.68896e-06
0.000528949
7.29134e-06
0.000521276
7.90614e-06
0.000513348
8.52111e-06
0.000505111
9.12232e-06
0.000496522
9.69468e-06
0.000487561
1.02227e-05
0.000478229
1.06913e-05
0.000468551
1.10864e-05
0.000458569
1.13962e-05
0.000448336
1.16112e-05
0.000437912
1.17252e-05
0.000427356
1.17351e-05
0.000416718
1.1641e-05
0.000406038
1.14458e-05
0.000395341
1.11546e-05
0.000384641
1.0774e-05
0.000373941
1.03116e-05
0.000363239
9.77503e-06
0.000352531
9.17196e-06
0.000341815
8.51012e-06
0.000331089
7.7978e-06
0.000320356
7.04498e-06
0.000309616
6.2649e-06
0.000298868
5.47615e-06
0.000288104
4.70521e-06
0.000277313
3.98936e-06
0.000266476
3.38021e-06
0.000255569
2.94768e-06
0.000244561
2.78489e-06
0.000233412
3.01371e-06
0.000222072
3.79081e-06
0.000210464
5.31334e-06
0.000198477
7.82238e-06
0.000185943
1.16009e-05
0.000172614
1.69607e-05
0.000158134
2.42094e-05
0.000142009
3.35864e-05
0.000123585
4.51492e-05
0.000102056
5.86729e-05
7.65177e-05
0.000211815
4.61099e-05
5.11203e-06
4.19073e-06
0.000754435
3.30115e-06
0.00075573
2.44751e-06
0.000757426
1.63381e-06
0.00075951
8.63806e-07
0.000761963
1.40861e-07
0.000764765
-5.32086e-07
0.000767892
-1.15259e-06
0.000771318
-1.71876e-06
0.000775016
-2.22922e-06
0.000778956
-2.6832e-06
0.000783108
-3.08049e-06
0.00078744
-3.42139e-06
0.000791922
-3.70676e-06
0.00079652
-3.93789e-06
0.000801204
-4.11651e-06
0.000805943
-4.24472e-06
0.000810708
-4.32493e-06
0.000815468
-4.35978e-06
0.000820197
-4.35211e-06
0.00082487
-4.30488e-06
0.000829463
-4.22114e-06
0.000833953
4.55875e-06
0.00083832
4.4458e-06
0.00077059
1.14664e-05
0.000774427
1.33262e-05
0.000783264
1.32542e-05
0.000789122
1.29166e-05
0.000790653
1.27051e-05
0.000788684
1.25905e-05
0.00078439
1.2478e-05
0.000778638
1.23037e-05
0.000771938
1.20418e-05
0.000764579
1.16927e-05
0.000756746
1.12722e-05
0.000748577
1.08042e-05
0.0007402
1.03148e-05
0.000731732
9.83074e-06
0.000723285
9.37686e-06
0.000714962
8.97563e-06
0.000706855
8.64697e-06
0.000699045
8.40902e-06
0.0006916
8.27949e-06
0.000684584
8.27743e-06
0.000678056
-6.82456e-06
0.000672076
-7.20414e-06
0.000673581
-7.42101e-06
0.000675332
-7.51159e-06
0.000677351
-7.4821e-06
0.000679606
-7.33292e-06
0.000682048
-7.06458e-06
0.00068462
-6.67932e-06
0.000687261
-6.1814e-06
0.000689904
-5.57801e-06
0.000692479
-4.8786e-06
0.000694909
-4.09497e-06
0.000697116
-3.24092e-06
0.00069902
-2.33216e-06
0.000700538
-1.38543e-06
0.000701591
-4.17604e-07
0.000702104
5.55815e-07
0.000702011
1.52683e-06
0.000701241
2.49119e-06
0.000699725
3.44004e-06
0.000697408
4.36612e-06
0.00069425
5.26522e-06
0.000690227
6.13584e-06
0.000685329
6.97889e-06
0.000679565
7.79686e-06
0.000672956
8.59401e-06
0.000665543
9.37582e-06
0.000657374
1.01486e-05
0.00064851
1.09193e-05
0.000639019
1.16943e-05
0.000628969
1.24791e-05
0.000618426
1.32778e-05
0.000607448
1.40923e-05
0.000596081
1.49215e-05
0.000584356
1.57613e-05
0.000572289
1.66043e-05
0.000559882
1.74397e-05
0.000547128
1.82538e-05
0.000534019
1.90313e-05
0.000520553
1.97554e-05
0.000506742
2.04093e-05
0.000492618
2.09776e-05
0.00047823
2.14466e-05
0.00046365
2.18052e-05
0.000448959
2.20457e-05
0.000434242
2.2164e-05
0.00041958
2.2159e-05
0.000405036
2.20333e-05
0.000390656
2.17923e-05
0.000376462
2.1444e-05
0.000362456
2.09984e-05
0.000348627
2.04669e-05
0.000334959
1.98617e-05
0.000321434
1.91958e-05
0.000308039
1.84829e-05
0.000294767
1.7738e-05
0.00028161
1.69791e-05
0.000268561
1.62285e-05
0.000255603
1.55162e-05
0.000242709
1.48831e-05
0.000229843
1.43855e-05
0.000216958
1.41012e-05
0.000204003
1.41366e-05
0.000190922
1.46364e-05
0.000177657
1.57938e-05
0.000164148
1.78616e-05
0.000150336
2.11611e-05
0.000136157
2.60841e-05
0.000121541
3.30797e-05
0.000106403
4.26136e-05
9.06304e-05
5.50787e-05
7.40564e-05
7.06309e-05
5.64369e-05
8.90032e-05
3.74339e-05
0.000257799
1.66651e-05
4.23053e-06
2.89594e-06
0.000760308
1.6045e-06
0.000763821
3.63709e-07
0.000767708
-8.19269e-07
0.000771957
-1.93779e-06
0.000776551
-2.98585e-06
0.000781471
-3.95817e-06
0.000786692
-4.85036e-06
0.000792189
-5.6589e-06
0.000797933
-6.38124e-06
0.000803893
-7.01579e-06
0.000810036
-7.56192e-06
0.00081633
-8.01992e-06
0.000822741
-8.39094e-06
0.000829233
-8.67693e-06
0.000835774
-8.88057e-06
0.00084233
-9.00514e-06
0.000848869
-9.05446e-06
0.00085536
-9.03276e-06
0.000861774
-8.9446e-06
0.000868082
-8.79475e-06
0.00087426
-8.58811e-06
0.000880283
2.414e-05
0.00088613
8.22935e-06
0.000891976
1.26903e-05
0.00087378
1.54691e-05
0.000864439
1.67537e-05
0.000859967
1.75666e-05
0.000856925
1.8202e-05
0.00085412
1.86836e-05
0.000851314
1.89858e-05
0.000848471
1.9096e-05
0.000845554
1.90203e-05
0.000842506
1.87785e-05
0.000839278
1.8399e-05
0.000835841
1.7914e-05
0.000832179
1.73574e-05
0.00082829
1.67616e-05
0.000824181
1.6156e-05
0.000819863
1.55654e-05
0.000815354
1.50096e-05
0.000810679
1.45034e-05
0.000805867
1.40574e-05
0.000800955
1.36789e-05
0.00079599
-8.75845e-06
0.000791027
-9.22249e-06
0.000792744
-9.53652e-06
0.000794434
-9.68674e-06
0.000796085
-9.66825e-06
0.000797683
-9.47993e-06
0.000799214
-9.12331e-06
0.000800667
-8.60228e-06
0.000802027
-7.92306e-06
0.00080328
-7.09411e-06
0.000804405
-6.12623e-06
0.000805376
-5.0325e-06
0.000806156
-3.82785e-06
0.000806699
-2.5299e-06
0.000806946
-1.15795e-06
0.000806825
2.6938e-07
0.000806247
1.74309e-06
0.000805116
3.26695e-06
0.000803356
4.82887e-06
0.000800919
6.41684e-06
0.000797757
8.01925e-06
0.00079383
9.62569e-06
0.000789101
1.12271e-05
0.000783543
1.28156e-05
0.000777135
1.4385e-05
0.000769868
1.59302e-05
0.000761741
1.74476e-05
0.000752764
1.8935e-05
0.000742958
2.03915e-05
0.00073235
2.18172e-05
0.000720979
2.32128e-05
0.000708887
2.45789e-05
0.000696122
2.59151e-05
0.000682735
2.72193e-05
0.000668773
2.84866e-05
0.000654282
2.9709e-05
0.0006393
3.08756e-05
0.000623858
3.19722e-05
0.000607981
3.29828e-05
0.000591692
3.38904e-05
0.000575013
3.46788e-05
0.000557973
3.53337e-05
0.000540613
3.58437e-05
0.000522988
3.62019e-05
0.000505167
3.64051e-05
0.000487232
3.64546e-05
0.00046927
3.63551e-05
0.000451367
3.61144e-05
0.000433596
3.5743e-05
0.000416013
3.52534e-05
0.000398655
3.46599e-05
0.00038154
3.39782e-05
0.000364667
3.32254e-05
0.000348031
3.24196e-05
0.00033162
3.15803e-05
0.000315424
3.07286e-05
0.000299436
2.98886e-05
0.000283644
2.90889e-05
0.000268033
2.83653e-05
0.000252576
2.77643e-05
0.000237235
2.73473e-05
0.000221964
2.7196e-05
0.000206708
2.74199e-05
0.000191413
2.81653e-05
0.000176025
2.96268e-05
0.000160496
3.20596e-05
0.000144788
3.57912e-05
0.000128875
4.12277e-05
0.000112742
4.88472e-05
9.63844e-05
5.91672e-05
7.97979e-05
7.26593e-05
6.29545e-05
8.95733e-05
4.57639e-05
0.000109689
2.80233e-05
0.000274354
9.40652e-06
1.10116e-06
-6.16603e-07
0.000767362
-2.2826e-06
0.000773056
-3.88528e-06
0.000779098
-5.41361e-06
0.000785478
-6.85736e-06
0.00079218
-8.20725e-06
0.000799185
-9.45512e-06
0.000806469
-1.05941e-05
0.000814006
-1.16187e-05
0.000821766
-1.25248e-05
0.000829715
-1.33097e-05
0.000837821
-1.39723e-05
0.000846048
-1.45125e-05
0.000854359
-1.49319e-05
0.000862719
-1.5233e-05
0.00087109
-1.54195e-05
0.000879437
-1.54961e-05
0.000887725
-1.54679e-05
0.000895922
-1.53411e-05
0.000903995
-1.51222e-05
0.000911915
-1.48178e-05
0.000919655
-1.44351e-05
0.000927189
-3.33928e-05
0.000934495
2.46411e-05
0.00085554
2.5733e-05
0.000865791
2.42584e-05
0.000879263
2.2933e-05
0.00088869
2.22086e-05
0.000893183
2.19683e-05
0.000893847
2.19828e-05
0.000892058
2.20736e-05
0.000888799
2.21345e-05
0.000884638
2.21142e-05
0.00087988
2.19964e-05
0.000874695
2.17852e-05
0.000869192
2.14962e-05
0.000863455
2.11501e-05
0.000857552
2.07679e-05
0.000851542
2.03691e-05
0.000845477
1.99689e-05
0.000839399
1.9578e-05
0.000833339
1.92015e-05
0.000827313
1.884e-05
0.00082132
1.84892e-05
0.000815343
-1.06113e-05
0.000809342
-1.10278e-05
0.000808428
-1.12775e-05
0.000807747
-1.13421e-05
0.000807265
-1.12166e-05
0.000806967
-1.09006e-05
0.000806841
-1.0396e-05
0.000806868
-9.70592e-06
0.000807021
-8.83496e-06
0.000807268
-7.78863e-06
0.000807562
-6.57321e-06
0.000807851
-5.19584e-06
0.000808073
-3.66401e-06
0.00080816
-1.98518e-06
0.000808042
-1.66444e-07
0.000807648
1.7838e-06
0.000806913
3.83297e-06
0.000805775
5.96276e-06
0.000804155
8.16096e-06
0.000801979
1.04155e-05
0.000799184
1.27143e-05
0.000795717
1.50454e-05
0.00079154
1.73971e-05
0.000786624
1.97577e-05
0.000780955
2.21158e-05
0.000774527
2.44603e-05
0.000767346
2.67809e-05
0.000759426
2.90677e-05
0.000750786
3.13122e-05
0.000741454
3.35065e-05
0.000731457
3.56441e-05
0.000720828
3.77186e-05
0.000709594
3.9724e-05
0.000697784
4.16533e-05
0.000685418
4.3498e-05
0.000672514
4.52478e-05
0.000659079
4.68894e-05
0.00064512
4.84071e-05
0.000630634
4.97832e-05
0.000615623
5.09988e-05
0.000600087
5.20356e-05
0.000584037
5.28776e-05
0.000567495
5.35128e-05
0.000550497
5.39342e-05
0.0005331
5.41412e-05
0.000515374
5.41392e-05
0.000497403
5.3939e-05
0.000479276
5.35562e-05
0.00046108
5.30094e-05
0.000442893
5.23194e-05
0.000424776
5.15084e-05
0.000406774
5.05995e-05
0.00038891
4.96163e-05
0.000371196
4.85836e-05
0.000353632
4.75276e-05
0.000336218
4.64768e-05
0.00031895
4.54627e-05
0.000301827
4.45217e-05
0.000284839
4.36968e-05
0.000267973
4.30405e-05
0.000251203
4.26182e-05
0.000234493
4.25135e-05
0.000217797
4.28344e-05
0.00020107
4.37223e-05
0.000184265
4.53627e-05
0.000167344
4.79987e-05
0.000150277
5.19447e-05
0.000133053
5.75965e-05
0.000115676
6.54324e-05
9.81681e-05
7.59922e-05
8.05607e-05
8.98096e-05
6.28751e-05
0.000107248
4.50816e-05
0.000128213
2.7036e-05
0.000283655
8.43557e-06
-4.23855e-06
-6.31051e-06
0.0007756
-8.32484e-06
0.000783435
-1.02651e-05
0.000791593
-1.21158e-05
0.000800066
-1.38623e-05
0.000808839
-1.54915e-05
0.000817893
-1.69919e-05
0.000827205
-1.83535e-05
0.000836747
-1.95684e-05
0.000846488
-2.06308e-05
0.000856394
-2.15365e-05
0.00086643
-2.22836e-05
0.000876558
-2.28719e-05
0.000886739
-2.33029e-05
0.000896934
-2.35801e-05
0.000907106
-2.3708e-05
0.000917214
-2.36927e-05
0.000927224
-2.35412e-05
0.000937098
-2.32614e-05
0.000946804
-2.2862e-05
0.00095631
-2.2352e-05
0.000965586
-2.17408e-05
0.000974606
-8.04006e-06
0.000983347
2.33247e-05
0.000928724
2.38872e-05
0.000930319
2.39374e-05
0.000938004
2.41269e-05
0.000944453
2.45838e-05
0.000947622
2.51655e-05
0.000947865
2.57247e-05
0.000946109
2.61731e-05
0.000943077
2.64728e-05
0.000939193
2.66166e-05
0.00093468
2.66147e-05
0.000929667
2.64874e-05
0.000924242
2.626e-05
0.000918481
2.59598e-05
0.000912451
2.56141e-05
0.000906219
2.52482e-05
0.000899847
2.48844e-05
0.000893395
2.45416e-05
0.00088692
2.42348e-05
0.000880469
2.39762e-05
0.000874087
2.37749e-05
0.000867806
-1.03264e-05
0.000861653
-1.08671e-05
0.00086027
-1.11841e-05
0.000859066
-1.12818e-05
0.000858036
-1.11611e-05
0.000857172
-1.08227e-05
0.000856459
-1.02682e-05
0.000855878
-9.50022e-06
0.0008554
-8.5225e-06
0.00085499
-7.33977e-06
0.000854598
-5.95792e-06
0.000854167
-4.38413e-06
0.000853629
-2.62684e-06
0.000852909
-6.95713e-07
0.000851926
1.39849e-06
0.000850598
3.64684e-06
0.000848838
6.03976e-06
0.00084657
8.56235e-06
0.000843722
1.12005e-05
0.000840232
1.39397e-05
0.00083605
1.67647e-05
0.000831139
1.96602e-05
0.000825474
2.26104e-05
0.000819044
2.55992e-05
0.000811851
2.86109e-05
0.000803906
3.16299e-05
0.000795232
3.46412e-05
0.000785863
3.76306e-05
0.000775836
4.0585e-05
0.000765197
4.34922e-05
0.000753991
4.63408e-05
0.000742268
4.912e-05
0.000730069
5.18189e-05
0.000717431
5.44257e-05
0.000704384
5.6927e-05
0.000690943
5.93074e-05
0.000677113
6.15487e-05
0.000662889
6.36302e-05
0.000648256
6.55291e-05
0.000633196
6.7222e-05
0.00061769
6.86857e-05
0.000601727
6.99001e-05
0.000585306
7.08494e-05
0.000568443
7.15241e-05
0.000551171
7.19226e-05
0.000533542
7.2051e-05
0.000515623
7.19232e-05
0.000497491
7.15594e-05
0.000479226
7.09847e-05
0.000460904
7.02273e-05
0.000442587
6.93173e-05
0.000424322
6.8285e-05
0.000406137
6.71616e-05
0.000388046
6.5979e-05
0.00037005
6.47704e-05
0.000352146
6.3572e-05
0.00033433
6.24235e-05
0.000316599
6.13698e-05
0.000298948
6.0462e-05
0.000281367
5.97597e-05
0.00026384
5.93333e-05
0.000246336
5.92686e-05
0.00022882
5.9672e-05
0.000211247
6.06786e-05
0.000193577
6.24635e-05
0.000175773
6.52546e-05
0.00015781
6.93479e-05
0.000139677
7.51214e-05
0.000121383
8.30435e-05
0.000102958
9.36632e-05
8.44446e-05
0.000107564
6.58842e-05
0.000125223
4.72801e-05
0.000146712
2.85317e-05
0.000291986
9.36656e-06
-1.17471e-05
-1.41455e-05
0.000785028
-1.64831e-05
0.00079496
-1.87378e-05
0.000805191
-2.08888e-05
0.000815714
-2.29165e-05
0.000826517
-2.48033e-05
0.000837581
-2.65337e-05
0.000848881
-2.80945e-05
0.000860389
-2.94749e-05
0.000872075
-3.06667e-05
0.000883901
-3.16643e-05
0.000895831
-3.24647e-05
0.000907824
-3.30674e-05
0.00091984
-3.34741e-05
0.000931838
-3.36888e-05
0.000943776
-3.37173e-05
0.000955614
-3.3567e-05
0.000967312
-3.3247e-05
0.000978833
-3.27672e-05
0.000990141
-3.21385e-05
0.0010012
-3.13724e-05
0.00101199
-3.0481e-05
0.00102247
-1.07089e-05
0.00103261
2.80007e-05
0.000981107
2.63641e-05
0.000982836
2.58692e-05
0.000990582
2.62983e-05
0.000997214
2.72228e-05
0.00100069
2.82719e-05
0.00100135
2.92366e-05
0.00100009
3.00275e-05
0.000997585
3.06187e-05
0.000994239
3.1014e-05
0.00099025
3.12306e-05
0.000985733
3.12925e-05
0.000980765
3.12265e-05
0.000975412
3.1061e-05
0.000969736
3.08239e-05
0.000963796
3.05416e-05
0.000957654
3.02381e-05
0.000951368
2.99342e-05
0.000944998
2.96476e-05
0.000938596
2.93924e-05
0.000932212
2.91797e-05
0.000925888
-9.60229e-06
0.00091966
-1.02089e-05
0.000917548
-1.05636e-05
0.000915576
-1.06687e-05
0.000913746
-1.05252e-05
0.000912052
-1.01339e-05
0.000910487
-9.49639e-06
0.000909034
-8.61444e-06
0.000907671
-7.49076e-06
0.000906363
-6.1289e-06
0.000905066
-4.5335e-06
0.000903721
-2.71058e-06
0.000902261
-6.6773e-07
0.000900607
1.58597e-06
0.000898676
4.04192e-06
0.00089638
6.68996e-06
0.000893632
9.51802e-06
0.000890352
1.25107e-05
0.000886469
1.56514e-05
0.000881919
1.89226e-05
0.000876651
2.23055e-05
0.000870627
2.57806e-05
0.000863824
2.93276e-05
0.000856229
3.29262e-05
0.000847846
3.65559e-05
0.00083869
4.01971e-05
0.000828785
4.38306e-05
0.000818168
4.74388e-05
0.000806884
5.10055e-05
0.000794982
5.4516e-05
0.000782518
5.79571e-05
0.000769549
6.13163e-05
0.00075613
6.45815e-05
0.000742309
6.77398e-05
0.000728126
7.07764e-05
0.00071361
7.36742e-05
0.000698775
7.64129e-05
0.000683621
7.8969e-05
0.000668139
8.13166e-05
0.000652311
8.34285e-05
0.000636116
8.52777e-05
0.000619537
8.68401e-05
0.000602567
8.8096e-05
0.000585212
8.90332e-05
0.000567496
8.96476e-05
0.000549463
8.99447e-05
0.000531171
8.99389e-05
0.000512688
8.96529e-05
0.000494088
8.91154e-05
0.000475441
8.83596e-05
0.000456807
8.74209e-05
0.000438228
8.63357e-05
0.000419729
8.51408e-05
0.000401319
8.3874e-05
0.000382993
8.2575e-05
0.000364744
8.12864e-05
0.00034656
8.00557e-05
0.000328433
7.89357e-05
0.000310357
7.79856e-05
0.000292323
7.72723e-05
0.000274315
7.68718e-05
0.000256306
7.68722e-05
0.000238263
7.73789e-05
0.000220143
7.8522e-05
0.000201903
8.04659e-05
0.000183506
8.34236e-05
0.000164924
8.76717e-05
0.000146144
9.35681e-05
0.000127172
0.000101566
0.000108036
0.000112214
8.878e-05
0.000126132
6.94556e-05
0.000143901
5.00877e-05
0.000165769
3.06137e-05
0.000301244
1.08017e-05
-2.13788e-05
-2.40774e-05
0.000795653
-2.67144e-05
0.000807633
-2.92614e-05
0.00081989
-3.16915e-05
0.000832419
-3.39798e-05
0.000845207
-3.61035e-05
0.000858235
-3.80425e-05
0.000871481
-3.97797e-05
0.000884914
-4.13012e-05
0.000898502
-4.25963e-05
0.000912208
-4.36576e-05
0.000925991
-4.44808e-05
0.000939811
-4.5065e-05
0.000953624
-4.54121e-05
0.000967386
-4.55266e-05
0.000981054
-4.54156e-05
0.000994585
-4.50881e-05
0.00100794
-4.45551e-05
0.00102107
-4.38289e-05
0.00103395
-4.29229e-05
0.00104653
-4.18513e-05
0.00105879
-4.06288e-05
0.0010707
-1.94617e-05
0.00108223
3.24521e-05
0.00102246
2.89746e-05
0.00102783
2.77327e-05
0.00103858
2.81906e-05
0.00104709
2.94377e-05
0.00105166
3.08729e-05
0.00105295
3.22095e-05
0.00105205
3.33422e-05
0.00104976
3.42468e-05
0.00104653
3.49311e-05
0.00104259
3.54145e-05
0.00103809
3.57209e-05
0.00103311
3.58761e-05
0.00102773
3.59065e-05
0.00102202
3.58388e-05
0.00101605
3.56982e-05
0.00100987
3.55087e-05
0.00100354
3.52916e-05
0.000997135
3.50655e-05
0.000990688
3.48464e-05
0.000984246
3.4647e-05
0.000977844
-8.17007e-06
0.000971506
-8.8101e-06
0.00096849
-9.17381e-06
0.000965628
-9.26109e-06
0.000962919
-9.07251e-06
0.000960359
-8.60872e-06
0.00095794
-7.87039e-06
0.000955648
-6.85824e-06
0.000953458
-5.5733e-06
0.000951333
-4.01716e-06
0.000949227
-2.19231e-06
0.000947078
-1.02577e-07
0.000944816
2.2466e-06
0.000942361
4.84749e-06
0.000939627
7.69004e-06
0.000936525
1.07625e-05
0.000932967
1.40512e-05
0.000928869
1.75393e-05
0.000924159
2.12079e-05
0.000918772
2.50359e-05
0.000912657
2.90007e-05
0.000905778
3.30782e-05
0.000898111
3.72432e-05
0.000889647
4.14702e-05
0.000880389
4.57335e-05
0.000870353
5.00081e-05
0.000859565
5.42701e-05
0.000848061
5.8497e-05
0.000835885
6.26686e-05
0.00082309
6.67668e-05
0.000809729
7.07757e-05
0.000795861
7.46808e-05
0.000781541
7.84688e-05
0.000766822
8.21259e-05
0.000751746
8.56371e-05
0.000736344
8.89849e-05
0.000720637
9.21486e-05
0.00070463
9.51042e-05
0.000688316
9.78246e-05
0.000671682
0.000100281
0.000654711
0.000102444
0.000637386
0.000104289
0.000619702
0.000105792
0.000601666
0.00010694
0.000583302
0.000107729
0.000564653
0.000108162
0.000545775
0.000108257
0.000526738
0.000108036
0.000507614
0.000107531
0.000488474
0.000106781
0.000469373
0.000105823
0.000450354
0.0001047
0.000431439
0.000103452
0.000412631
0.000102124
0.000393923
0.000100758
0.000375299
9.94045e-05
0.000356743
9.81171e-05
0.000338242
9.69562e-05
0.000319787
9.59886e-05
0.000301366
9.52882e-05
0.000282965
9.49365e-05
0.000264557
9.50246e-05
0.000246107
9.56576e-05
0.000227571
9.69608e-05
0.000208904
9.90896e-05
0.000190065
0.000102242
0.00017102
0.000106677
0.000151752
0.000112729
0.000132262
0.000120834
0.00011257
0.000131533
9.27212e-05
0.000145468
7.27687e-05
0.000163305
5.27538e-05
0.000185469
3.26485e-05
0.000311934
1.22668e-05
-3.30838e-05
-3.60577e-05
0.000807485
-3.89715e-05
0.000821461
-4.17898e-05
0.000835692
-4.44792e-05
0.000850176
-4.70084e-05
0.000864899
-4.9349e-05
0.000879845
-5.14759e-05
0.000894989
-5.33677e-05
0.000910301
-5.50069e-05
0.000925746
-5.63799e-05
0.000941287
-5.74773e-05
0.000956881
-5.82936e-05
0.000972484
-5.88272e-05
0.000988052
-5.90801e-05
0.00100354
-5.90575e-05
0.00101889
-5.87677e-05
0.00103408
-5.82215e-05
0.00104905
-5.7432e-05
0.00106375
-5.6414e-05
0.00107816
-5.51836e-05
0.00109224
-5.37579e-05
0.00110594
-5.21546e-05
0.00111924
-2.29173e-05
0.00113211
3.48134e-05
0.00107178
2.98901e-05
0.00107839
2.84598e-05
0.00109024
2.93248e-05
0.00109934
3.11403e-05
0.0011042
3.31196e-05
0.00110565
3.49295e-05
0.00110485
3.64688e-05
0.00110263
3.7728e-05
0.00109943
3.8727e-05
0.00109548
3.94928e-05
0.00109093
4.00531e-05
0.00108588
4.04352e-05
0.00108041
4.06661e-05
0.0010746
4.07726e-05
0.00106851
4.07808e-05
0.00106221
4.07159e-05
0.00105576
4.06015e-05
0.00104923
4.04591e-05
0.00104267
4.03081e-05
0.00103612
4.01652e-05
0.00102961
-5.88419e-06
0.00102318
-6.55981e-06
0.00101938
-6.93014e-06
0.00101573
-6.99666e-06
0.00101225
-6.7603e-06
0.00100892
-6.22142e-06
0.00100574
-5.37982e-06
0.0010027
-4.23503e-06
0.000999755
-2.78657e-06
0.000996878
-1.03443e-06
0.000994014
1.02048e-06
0.000991099
3.37603e-06
0.000988057
6.02837e-06
0.000984803
8.97105e-06
0.000981247
1.21947e-05
0.0009773
1.56871e-05
0.000972872
1.94331e-05
0.000967881
2.3414e-05
0.000962255
2.76084e-05
0.000955932
3.19919e-05
0.000948866
3.65379e-05
0.000941023
4.12178e-05
0.000932385
4.60017e-05
0.000922947
5.08589e-05
0.000912717
5.57587e-05
0.000901714
6.06708e-05
0.000889968
6.55662e-05
0.000877518
7.04179e-05
0.000864411
7.52009e-05
0.000850698
7.98932e-05
0.000836436
8.44754e-05
0.000821682
8.89301e-05
0.000806491
9.32417e-05
0.000790915
9.73947e-05
0.000774994
0.000101373
0.00075876
0.000105158
0.000742231
0.000108729
0.000725411
0.00011206
0.000708296
0.000115125
0.000690871
0.000117893
0.00067312
0.000120334
0.000655028
0.000122422
0.000636592
0.000124133
0.00061782
0.000125453
0.000598738
0.000126378
0.000579391
0.000126912
0.000559839
0.000127073
0.000540152
0.000126889
0.000520407
0.000126393
0.000500673
0.000125627
0.00048101
0.000124635
0.000461458
0.000123461
0.000442038
0.000122152
0.000422752
0.000120755
0.000403588
0.00011932
0.000384528
0.000117901
0.000365551
0.000116559
0.000346642
0.000115361
0.000327788
0.000114381
0.000308978
0.000113701
0.000290195
0.000113406
0.000271414
0.000113592
0.000252596
0.000114364
0.000233696
0.000115843
0.000214665
0.000118177
0.000195458
0.00012155
0.000176038
0.000126202
0.00015638
0.000132448
0.000136477
0.000140699
0.000116347
0.000151484
9.60267e-05
0.000165456
7.55732e-05
0.000183345
5.50391e-05
0.000205737
3.44264e-05
0.000324084
1.35972e-05
-4.68079e-05
-5.00336e-05
0.000820535
-5.3203e-05
0.000836449
-5.6273e-05
0.000852599
-5.92028e-05
0.000868983
-6.19543e-05
0.000885589
-6.44928e-05
0.0009024
-6.67879e-05
0.000919391
-6.88132e-05
0.000936531
-7.05474e-05
0.000953785
-7.19738e-05
0.000971112
-7.30807e-05
0.000988469
-7.38611e-05
0.00100581
-7.43128e-05
0.00102309
-7.44377e-05
0.00104025
-7.42418e-05
0.00105725
-7.37349e-05
0.00107405
-7.29294e-05
0.00109059
-7.18409e-05
0.00110683
-7.04866e-05
0.00112273
-6.88857e-05
0.00113825
-6.70584e-05
0.00115336
-6.50257e-05
0.00116801
-2.87917e-05
0.00118219
3.67186e-05
0.00112105
3.04018e-05
0.0011295
2.88747e-05
0.00114265
3.02106e-05
0.00115228
3.26336e-05
0.0011573
3.51882e-05
0.0011588
3.75022e-05
0.00115804
3.94793e-05
0.00115584
4.11234e-05
0.00115265
4.24648e-05
0.00114869
4.35371e-05
0.00114412
4.43713e-05
0.00113902
4.49966e-05
0.00113349
4.54406e-05
0.00112759
4.57312e-05
0.00112141
4.58957e-05
0.00111501
4.59616e-05
0.00110846
4.59551e-05
0.00110183
4.59011e-05
0.00109516
4.58226e-05
0.00108851
4.57404e-05
0.00108191
-2.83869e-06
0.00107539
-3.5417e-06
0.00107083
-3.91132e-06
0.00106643
-3.94972e-06
0.00106219
-3.6578e-06
0.00105812
-3.03536e-06
0.0010542
-2.08135e-06
0.00105041
-7.9404e-07
0.00104672
8.28439e-07
0.0010431
2.78792e-06
0.00103948
5.08559e-06
0.00103579
7.72071e-06
0.00103195
1.06902e-05
0.00102789
1.39882e-05
0.00102349
1.76053e-05
0.00101868
2.15283e-05
0.00101336
2.57405e-05
0.00100746
3.02209e-05
0.00100089
3.49453e-05
0.000993602
3.98858e-05
0.000985554
4.50119e-05
0.000976715
5.02908e-05
0.000967072
5.5688e-05
0.000956624
6.11682e-05
0.000945383
6.66958e-05
0.000933372
7.22359e-05
0.000920627
7.77551e-05
0.000907188
8.32218e-05
0.000893106
8.86071e-05
0.000878436
9.38853e-05
0.000863235
9.90334e-05
0.000847561
0.000104031
0.000831469
0.000108861
0.000815011
0.000113504
0.000798225
0.000117943
0.000781141
0.000122158
0.000763774
0.000126127
0.00074613
0.000129824
0.000728198
0.000133219
0.000709965
0.000136282
0.000691414
0.000138982
0.00067253
0.000141291
0.00065331
0.000143186
0.000633764
0.000144652
0.000613922
0.000145685
0.00059383
0.000146293
0.000573551
0.000146494
0.00055316
0.000146319
0.000532733
0.000145806
0.000512344
0.000145
0.000492054
0.000143948
0.000471903
0.000142702
0.000451912
0.000141311
0.000432082
0.000139827
0.000412399
0.000138306
0.000392842
0.000136807
0.000373391
0.000135398
0.000354026
0.000134152
0.000334736
0.000133151
0.000315508
0.000132484
0.000296326
0.000132241
0.000277162
0.000132523
0.000257978
0.000133433
0.000238727
0.000135093
0.000219356
0.00013764
0.000199817
0.000141249
0.000180068
0.00014614
0.000160079
0.000152607
0.000139837
0.000161037
0.000119354
0.000171941
9.86619e-05
0.000185969
7.78179e-05
0.000203898
5.68838e-05
0.000226455
3.58877e-05
0.00033756
1.47385e-05
-6.24921e-05
-6.59478e-05
0.000834816
-6.93531e-05
0.000852607
-7.26565e-05
0.000870615
-7.58091e-05
0.00088884
-7.87653e-05
0.000907271
-8.14839e-05
0.000925891
-8.39282e-05
0.000944674
-8.60669e-05
0.000963588
-8.78744e-05
0.000982597
-8.93305e-05
0.00100166
-9.0421e-05
0.00102073
-9.11374e-05
0.00103975
-9.14766e-05
0.00105869
-9.14407e-05
0.00107748
-9.10365e-05
0.00109608
-9.02749e-05
0.00111444
-8.91707e-05
0.00113251
-8.77415e-05
0.00115024
-8.60076e-05
0.00116758
-8.39913e-05
0.00118451
-8.17161e-05
0.00120098
-7.92063e-05
0.00121695
-3.6605e-05
0.0012324
3.77731e-05
0.00117031
3.03405e-05
0.00118106
2.89377e-05
0.00119564
3.08577e-05
0.00120568
3.39357e-05
0.00121069
3.70885e-05
0.00121211
3.99255e-05
0.00121129
4.23616e-05
0.00120905
4.44138e-05
0.00120582
4.61216e-05
0.00120182
4.75236e-05
0.0011972
4.86531e-05
0.00119204
4.95403e-05
0.00118643
5.02137e-05
0.00118045
5.07021e-05
0.00117419
5.10348e-05
0.0011677
5.12413e-05
0.00116106
5.13511e-05
0.00115434
5.13929e-05
0.00114758
5.13934e-05
0.00114085
5.13774e-05
0.00113417
9.46761e-07
0.00112757
2.27386e-07
0.00112227
-1.3181e-07
0.00111713
-1.32733e-07
0.00111216
2.24209e-07
0.00110735
9.40029e-07
0.00110271
2.0172e-06
0.00109819
3.45909e-06
0.00109378
5.26939e-06
0.00108942
7.4515e-06
0.00108506
1.00077e-05
0.00108061
1.29383e-05
0.00107599
1.62409e-05
0.00107112
1.99096e-05
0.0010659
2.39346e-05
0.00106023
2.83014e-05
0.00105402
3.29913e-05
0.0010472
3.79808e-05
0.0010397
4.32425e-05
0.00103145
4.8745e-05
0.00102242
5.44537e-05
0.00101259
6.03316e-05
0.00100195
6.63397e-05
0.000990491
7.24384e-05
0.00097824
7.85874e-05
0.000965222
8.47477e-05
0.000951476
9.08814e-05
0.000937046
9.6953e-05
0.000921985
0.00010293
0.00090635
0.000108783
0.0008902
0.000114487
0.000873595
0.000120017
0.00085659
0.000125355
0.000839234
0.000130478
0.000821566
0.000135369
0.000803615
0.000140005
0.000785393
0.000144362
0.000766902
0.000148413
0.000748133
0.000152127
0.000729068
0.000155472
0.000709689
0.000158416
0.000689984
0.00016093
0.000669949
0.00016299
0.000649596
0.000164583
0.000628958
0.000165704
0.000608083
0.000166363
0.000587038
0.000166582
0.000565899
0.000166392
0.000544748
0.000165838
0.00052366