/*--------------------------------*- C++ -*----------------------------------*\
| =========                 |                                                 |
| \\      /  F ield         | OpenFOAM: The Open Source CFD Toolbox           |
|  \\    /   O peration     | Version:  2.2.x                                 |
|   \\  /    A nd           | Web:      www.OpenFOAM.org                      |
|    \\/     M anipulation  |                                                 |
\*---------------------------------------------------------------------------*/
FoamFile
{
    version     2.0;
    format      ascii;
    class       volScalarField;
    location    "0.4";
    object      Bx;
}
// * * * * * * * * * * * * * * * * * * * * * * * * * * * * * * * * * * * * * //

dimensions      [1 0 -2 0 0 -1 0];

internalField   nonuniform List<scalar> 
14161
(
1
1
1
1
1
1
1
1
1
1
1
1
1
1
1
1
1
1
1
1
1.00001
1.00001
1.00002
1.00003
1.00005
1.00007
1.00011
1.00016
1.00022
1.00031
1.00043
1.00058
1.00077
1.00099
1.00126
1.00158
1.00195
1.00235
1.00281
1.00331
1.00384
1.00441
1.00503
1.0056
1.0062
1.00687
1.00749
1.00813
1.0088
1.00942
1.00999
1.01046
1.01077
1.01095
1.0109
1.01043
1.00954
1.00787
1.00512
1.00049
0.994444
0.985102
0.978071
0.953608
0.947312
0.959605
0.986821
1.02623
1.06596
1.10103
1.13272
1.15892
1.17985
1.1987
1.21593
1.23175
1.24421
1.25481
1.26737
1.28127
1.29357
1.30466
1.31405
1.32427
1.33617
1.35139
1.36756
1.38378
1.3989
1.40848
1.41124
1.39513
1.33805
1.24075
1.12848
1.02177
0.935086
0.862858
0.801426
0.749016
0.703272
0.661753
0.62304
0.586954
0.553658
0.522431
0.492271
0.462605
0.433266
0.403693
0.373258
0.341518
0.30794
0.271946
0.232552
0.188696
0.135647
0.0812026
0.0257506
1
1
1
1
1
1
1
1
1
1
1
1
1
1
1
1
1
1
1
1
1.00001
1.00001
1.00002
1.00003
1.00005
1.00007
1.00011
1.00016
1.00022
1.00031
1.00043
1.00058
1.00077
1.00099
1.00126
1.00158
1.00194
1.00235
1.00281
1.00331
1.00384
1.00441
1.00501
1.00563
1.00623
1.00685
1.00753
1.00819
1.00886
1.0095
1.0101
1.01062
1.011
1.01124
1.01128
1.01096
1.01019
1.00878
1.00629
1.00215
0.996324
0.987157
0.979702
0.95753
0.95534
0.977087
1.01165
1.05574
1.09714
1.13006
1.15893
1.18317
1.20252
1.21758
1.23088
1.24262
1.25328
1.26366
1.27469
1.28701
1.29915
1.31016
1.32107
1.33241
1.34424
1.35852
1.37177
1.38192
1.38953
1.39052
1.37314
1.33224
1.2568
1.15248
1.05612
0.977363
0.905884
0.842519
0.787407
0.738623
0.694316
0.652945
0.614136
0.578192
0.544764
0.513102
0.482434
0.452169
0.422057
0.391547
0.359964
0.326844
0.291696
0.253965
0.212384
0.166622
0.118015
0.0740901
0.0300504
1
1
1
1
1
1
1
1
1
1
1
1
1
1
1
1
1
1
1
1
1.00001
1.00001
1.00002
1.00003
1.00005
1.00007
1.00011
1.00015
1.00022
1.00031
1.00043
1.00058
1.00076
1.00099
1.00126
1.00158
1.00194
1.00235
1.00281
1.00331
1.00385
1.00442
1.00501
1.00564
1.00628
1.00688
1.00758
1.0083
1.00898
1.00968
1.01036
1.01097
1.01153
1.01193
1.01216
1.01218
1.01179
1.01092
1.00941
1.0067
1.00235
0.995895
0.987744
0.971933
0.970935
0.991675
1.03615
1.08027
1.12258
1.15649
1.18585
1.20793
1.22991
1.24547
1.25924
1.26835
1.27808
1.28776
1.29655
1.30556
1.31688
1.32726
1.33798
1.34755
1.35555
1.36183
1.36513
1.36949
1.36131
1.34151
1.29118
1.20472
1.10312
1.014
0.948615
0.896294
0.844046
0.796779
0.75194
0.708901
0.66805
0.62864
0.591145
0.556414
0.524129
0.492916
0.462163
0.431788
0.4015
0.370809
0.338945
0.305499
0.26952
0.230821
0.189476
0.147892
0.104702
0.0669709
0.0287582
1
1
1
1
1
1
1
1
1
1
1
1
1
1
1
1
1
1
1
1
1.00001
1.00001
1.00002
1.00003
1.00005
1.00007
1.0001
1.00015
1.00022
1.00031
1.00043
1.00058
1.00076
1.00099
1.00126
1.00157
1.00194
1.00235
1.00281
1.00331
1.00386
1.00444
1.00503
1.00566
1.00632
1.00696
1.00766
1.00844
1.00916
1.00995
1.01079
1.01153
1.0123
1.01302
1.01364
1.01409
1.01438
1.01442
1.01428
1.01386
1.01258
1.00956
1.00839
1.00333
1.01058
1.03471
1.07825
1.12351
1.16441
1.19558
1.2235
1.24487
1.26553
1.27713
1.28852
1.2958
1.30368
1.31105
1.31726
1.32247
1.33006
1.33735
1.3449
1.34906
1.35028
1.35171
1.34592
1.32812
1.29318
1.22585
1.13378
1.03099
0.962668
0.906324
0.870629
0.8281
0.785557
0.746729
0.709166
0.672211
0.635107
0.598476
0.563618
0.531265
0.500115
0.469009
0.438023
0.407296
0.376356
0.344878
0.311999
0.277673
0.242244
0.206253
0.168433
0.132212
0.0945691
0.0620786
0.0293192
1
1
1
1
1
1
1
1
1
1
1
1
1
1
1
1
1
1
1
1
1.00001
1.00001
1.00002
1.00003
1.00004
1.00007
1.0001
1.00015
1.00022
1.00031
1.00043
1.00057
1.00076
1.00098
1.00126
1.00157
1.00193
1.00235
1.00281
1.00331
1.00387
1.00446
1.00507
1.0057
1.00637
1.00708
1.0078
1.0086
1.00946
1.01036
1.0113
1.01229
1.01335
1.01443
1.01554
1.01665
1.01783
1.01911
1.02048
1.02218
1.02494
1.02747
1.03539
1.04543
1.06454
1.09649
1.14163
1.18719
1.22532
1.251
1.27157
1.29145
1.30481
1.31373
1.32023
1.32655
1.33095
1.33447
1.33718
1.33871
1.34074
1.34215
1.34199
1.34324
1.33618
1.32143
1.29235
1.23951
1.16194
1.04828
0.947472
0.885105
0.840289
0.812642
0.790336
0.757769
0.725994
0.693841
0.660916
0.627981
0.593468
0.559505
0.528095
0.498243
0.467767
0.436799
0.406186
0.375954
0.345346
0.314462
0.283124
0.251143
0.218212
0.185136
0.151304
0.119814
0.0874175
0.0593311
0.0312653
1
1
1
1
1
1
1
1
1
1
1
1
1
1
1
1
1
1
1
1
1.00001
1.00001
1.00002
1.00003
1.00004
1.00007
1.0001
1.00015
1.00022
1.00031
1.00042
1.00057
1.00075
1.00098
1.00125
1.00157
1.00193
1.00235
1.00281
1.00332
1.00388
1.00447
1.0051
1.00576
1.00644
1.00718
1.00798
1.00882
1.00977
1.01081
1.0119
1.01313
1.01449
1.01598
1.01759
1.01937
1.02136
1.02379
1.0266
1.03027
1.03498
1.04415
1.05453
1.09496
1.11813
1.17635
1.2118
1.24518
1.27985
1.30268
1.32306
1.33891
1.33785
1.34586
1.346
1.34786
1.34947
1.3489
1.34625
1.34423
1.34025
1.33837
1.33099
1.31456
1.28743
1.24375
1.18194
1.08092
0.966506
0.874134
0.816908
0.77826
0.751784
0.737584
0.718806
0.694611
0.671195
0.643642
0.614866
0.584555
0.552609
0.522118
0.494052
0.465695
0.436044
0.406204
0.37681
0.34763
0.318091
0.288319
0.258474
0.228628
0.198059
0.167964
0.137732
0.110382
0.0826849
0.0584688
0.0344823
1
1
1
1
1
1
1
1
1
1
1
1
1
1
1
1
1
1
1
1
1.00001
1.00001
1.00002
1.00003
1.00004
1.00007
1.0001
1.00015
1.00022
1.0003
1.00042
1.00057
1.00075
1.00097
1.00124
1.00156
1.00192
1.00234
1.0028
1.00333
1.00389
1.00449
1.00515
1.00583
1.00653
1.0073
1.00815
1.00907
1.0101
1.01123
1.0125
1.01392
1.01551
1.01731
1.01938
1.02173
1.02434
1.02745
1.03132
1.03658
1.04506
1.06054
1.08895
1.14894
1.1994
1.28251
1.29903
1.3152
1.33346
1.34875
1.36449
1.37498
1.3689
1.37126
1.37011
1.36384
1.36167
1.35718
1.35258
1.34398
1.33185
1.31223
1.28648
1.24483
1.18977
1.10092
0.996681
0.884937
0.809153
0.755806
0.722325
0.697548
0.684431
0.673199
0.657111
0.639889
0.620377
0.596389
0.570979
0.542662
0.513816
0.487189
0.461748
0.43446
0.406068
0.377763
0.349826
0.321838
0.293533
0.265317
0.237348
0.209624
0.181646
0.154422
0.127571
0.103648
0.0799948
0.0591835
0.0387106
1
1
1
1
1
1
1
1
1
1
1
1
1
1
1
1
1
1
1
1
1.00001
1.00001
1.00002
1.00003
1.00004
1.00007
1.0001
1.00015
1.00021
1.0003
1.00041
1.00056
1.00074
1.00096
1.00123
1.00155
1.00191
1.00233
1.0028
1.00332
1.00389
1.00451
1.00517
1.00587
1.00661
1.00741
1.0083
1.00929
1.01039
1.0116
1.01297
1.01452
1.01626
1.01825
1.0206
1.02333
1.02653
1.0303
1.03484
1.04008
1.04651
1.05271
1.06171
1.09974
1.25943
1.32456
1.34133
1.36518
1.37651
1.38469
1.38909
1.39271
1.39148
1.38663
1.38551
1.37259
1.36628
1.35232
1.33771
1.31583
1.28868
1.2456
1.19278
1.111
1.01365
0.897553
0.80944
0.746127
0.702034
0.672412
0.650497
0.637992
0.628816
0.619672
0.606301
0.593315
0.574966
0.553891
0.530402
0.504438
0.479389
0.456313
0.432263
0.406202
0.379372
0.352755
0.326303
0.299591
0.272609
0.245911
0.219701
0.194015
0.16853
0.144028
0.120306
0.0993149
0.0790732
0.0612085
0.0436986
1
1
1
1
1
1
1
1
1
1
1
1
1
1
1
1
1
1
1
1
1.00001
1.00001
1.00002
1.00003
1.00004
1.00006
1.0001
1.00014
1.00021
1.00029
1.00041
1.00055
1.00073
1.00095
1.00122
1.00153
1.0019
1.00231
1.00279
1.00331
1.00388
1.00451
1.00519
1.0059
1.00666
1.00748
1.00841
1.00943
1.01058
1.01184
1.01326
1.01486
1.01667
1.01872
1.02116
1.02399
1.02743
1.03174
1.03708
1.04291
1.05038
1.05735
1.07657
1.12552
1.24334
1.31224
1.35422
1.38811
1.3906
1.39711
1.39645
1.39866
1.39857
1.38836
1.38201
1.36183
1.34493
1.31845
1.28882
1.2443
1.19067
1.10867
1.01499
0.903317
0.813082
0.742705
0.691248
0.654974
0.629715
0.610336
0.598489
0.589749
0.582859
0.574391
0.564037
0.55155
0.534338
0.51533
0.493341
0.470538
0.44938
0.428494
0.405285
0.380356
0.355215
0.330356
0.305439
0.280043
0.254566
0.229545
0.205119
0.181532
0.158342
0.136374
0.115457
0.0969596
0.0795639
0.0641951
0.04914
1
1
1
1
1
1
1
1
1
1
1
1
1
1
1
1
1
1
1
1
1.00001
1.00001
1.00002
1.00003
1.00004
1.00006
1.0001
1.00014
1.0002
1.00029
1.0004
1.00054
1.00072
1.00093
1.0012
1.00151
1.00187
1.00229
1.00276
1.00329
1.00386
1.0045
1.00518
1.00591
1.00668
1.00753
1.00847
1.00952
1.01069
1.01199
1.01342
1.01501
1.0168
1.01879
1.02108
1.0238
1.02708
1.03091
1.03535
1.04025
1.04527
1.04943
1.07905
1.13791
1.1867
1.24127
1.30992
1.37081
1.3848
1.39633
1.39276
1.39007
1.38264
1.36048
1.34732
1.31962
1.28541
1.23379
1.17721
1.09587
1.00195
0.895147
0.809264
0.740002
0.685098
0.645013
0.615362
0.593756
0.577176
0.566031
0.558261
0.551663
0.54569
0.537529
0.528243
0.515051
0.499439
0.481637
0.46161
0.442157
0.423817
0.403639
0.381049
0.357601
0.33416
0.310963
0.287325
0.263293
0.239424
0.216094
0.193357
0.171754
0.150761
0.131064
0.112714
0.0963769
0.0813376
0.0680401
0.0549477
1
1
1
1
1
1
1
1
1
1
1
1
1
1
1
1
1
1
1
1
1.00001
1.00001
1.00001
1.00002
1.00004
1.00006
1.00009
1.00014
1.0002
1.00028
1.00039
1.00053
1.0007
1.00091
1.00117
1.00148
1.00184
1.00226
1.00272
1.00325
1.00383
1.00446
1.00514
1.00587
1.00665
1.0075
1.00844
1.00949
1.01067
1.01196
1.01338
1.01495
1.0167
1.01862
1.0208
1.02329
1.0262
1.0293
1.03243
1.03522
1.03737
1.03887
1.07068
1.10739
1.12166
1.15691
1.22565
1.31362
1.34954
1.37801
1.3689
1.35059
1.34072
1.30129
1.26251
1.21409
1.14958
1.06455
0.971766
0.878419
0.797491
0.733465
0.680922
0.640776
0.609644
0.585168
0.566933
0.552259
0.541551
0.534142
0.527432
0.521721
0.515181
0.507062
0.496882
0.483829
0.469314
0.452505
0.43501
0.418372
0.401161
0.381246
0.359859
0.337938
0.316152
0.294271
0.271811
0.249289
0.227021
0.205281
0.184273
0.16435
0.145425
0.127761
0.111656
0.0971825
0.0840518
0.072491
0.0610049
1
1
1
1
1
1
1
1
1
1
1
1
1
1
1
1
1
1
1
1
1
1.00001
1.00001
1.00002
1.00004
1.00006
1.00009
1.00013
1.00019
1.00027
1.00038
1.00051
1.00068
1.00089
1.00114
1.00145
1.0018
1.00222
1.00268
1.00319
1.00377
1.0044
1.00508
1.00581
1.00659
1.00742
1.00836
1.00942
1.01057
1.01184
1.01325
1.01478
1.01645
1.01827
1.02027
1.02249
1.02497
1.02776
1.03076
1.03434
1.03782
1.05255
1.0857
1.10036
1.10183
1.11707
1.14542
1.20287
1.27545
1.30958
1.3094
1.26783
1.23612
1.17838
1.09881
1.02031
0.937581
0.853988
0.785643
0.726862
0.679384
0.640395
0.608581
0.583726
0.56425
0.548581
0.535749
0.525317
0.517716
0.510889
0.504263
0.497992
0.490473
0.481883
0.470636
0.458148
0.444039
0.428561
0.413319
0.398221
0.3811
0.361891
0.341782
0.3214
0.301036
0.280237
0.259013
0.237971
0.21722
0.19703
0.177621
0.159256
0.142203
0.126405
0.112213
0.0994135
0.0878564
0.0777643
0.0675977
1
1
1
1
1
1
1
1
1
1
1
1
1
1
1
1
1
1
1
1
1
1.00001
1.00001
1.00002
1.00004
1.00006
1.00008
1.00013
1.00018
1.00026
1.00036
1.00049
1.00066
1.00086
1.00111
1.0014
1.00175
1.00216
1.00261
1.00312
1.0037
1.00431
1.00498
1.00571
1.00647
1.00729
1.00822
1.00926
1.01037
1.01161
1.01299
1.01446
1.01604
1.01779
1.01962
1.02162
1.0238
1.02626
1.02883
1.03153
1.03364
1.05587
1.09481
1.09811
1.0967
1.1051
1.11327
1.13698
1.17073
1.19139
1.1912
1.13023
1.05388
0.977327
0.895699
0.827029
0.772051
0.72115
0.680369
0.643854
0.613467
0.590376
0.570959
0.554495
0.540604
0.528782
0.518163
0.509982
0.501947
0.494971
0.487198
0.47984
0.471025
0.461304
0.449561
0.437239
0.423391
0.409428
0.395514
0.380748
0.363887
0.345626
0.326858
0.307804
0.288576
0.268768
0.248813
0.229159
0.209888
0.191118
0.173123
0.156229
0.140859
0.126769
0.114187
0.102878
0.0926473
0.0837765
0.0747485
1
1
1
1
1
1
1
1
1
1
1
1
1
1
1
1
1
1
1
1
1
1.00001
1.00001
1.00002
1.00003
1.00005
1.00008
1.00012
1.00017
1.00025
1.00034
1.00047
1.00063
1.00082
1.00107
1.00135
1.00169
1.00208
1.00253
1.00303
1.00359
1.0042
1.00486
1.00556
1.00631
1.00712
1.00802
1.00902
1.01011
1.01133
1.01263
1.01405
1.01558
1.01723
1.01891
1.0207
1.02258
1.02449
1.02615
1.02734
1.02696
1.04659
1.0863
1.08615
1.0853
1.08106
1.07603
1.06556
1.05654
1.0506
0.997081
0.928486
0.867559
0.813191
0.763518
0.719444
0.683353
0.650544
0.623991
0.602931
0.583177
0.566076
0.552048
0.539295
0.528381
0.518175
0.509263
0.501077
0.492734
0.484595
0.475647
0.466754
0.456643
0.445589
0.433641
0.421203
0.407875
0.394831
0.381274
0.366427
0.349908
0.332686
0.315012
0.297051
0.278768
0.260017
0.24133
0.222969
0.205002
0.187519
0.170817
0.155305
0.141467
0.129003
0.117812
0.107772
0.0986394
0.0907688
0.0827343
1
1
1
1
1
1
1
1
1
1
1
1
1
1
1
1
1
1
1
1
1
1.00001
1.00001
1.00002
1.00003
1.00005
1.00007
1.00011
1.00016
1.00023
1.00032
1.00044
1.00059
1.00078
1.00101
1.00129
1.00162
1.00199
1.00243
1.00292
1.00346
1.00406
1.0047
1.00538
1.00611
1.00692
1.00778
1.00874
1.00983
1.01098
1.01222
1.01361
1.0151
1.01661
1.01824
1.01995
1.02182
1.0239
1.02637
1.02894
1.03703
1.05814
1.07527
1.07096
1.07062
1.06359
1.05646
1.02271
0.975658
0.904896
0.84089
0.799782
0.75678
0.723621
0.690156
0.661896
0.639224
0.619227
0.600796
0.584982
0.571468
0.558478
0.546974
0.53572
0.525166
0.515412
0.506413
0.497412
0.488678
0.47924
0.469097
0.458469
0.447123
0.434628
0.42227
0.409441
0.396478
0.38372
0.369877
0.355009
0.339032
0.322709
0.305934
0.288864
0.271401
0.253703
0.236237
0.219069
0.202252
0.18598
0.170567
0.156348
0.143838
0.132834
0.122777
0.113741
0.105467
0.0984351
0.0913136
1
1
1
1
1
1
1
1
1
1
1
1
1
1
1
1
1
1
1
1
1
1.00001
1.00001
1.00002
1.00003
1.00004
1.00007
1.0001
1.00015
1.00021
1.0003
1.00041
1.00056
1.00073
1.00095
1.00122
1.00153
1.00189
1.00231
1.00278
1.00331
1.00388
1.00451
1.00517
1.00589
1.00666
1.00751
1.00846
1.0095
1.01063
1.01185
1.01318
1.01465
1.01619
1.01787
1.01965
1.02167
1.02394
1.0267
1.02865
1.04341
1.06803
1.07074
1.06187
1.05748
1.04065
1.01683
0.958288
0.880418
0.800825
0.758108
0.72464
0.699158
0.677047
0.657413
0.638514
0.622111
0.607735
0.594499
0.581396
0.569535
0.558228
0.547638
0.537423
0.527274
0.517618
0.50786
0.498296
0.488882
0.478425
0.467556
0.45533
0.4427
0.428959
0.415817
0.402278
0.389172
0.375856
0.36171
0.346833
0.331362
0.315714
0.299705
0.283409
0.266764
0.250055
0.23365
0.217544
0.201792
0.186623
0.172358
0.159264
0.147823
0.138015
0.128874
0.120706
0.113166
0.106908
0.100639
1
1
1
1
1
1
1
1
1
1
1
1
1
1
1
1
1
1
1
1
1
1.00001
1.00001
1.00001
1.00002
1.00004
1.00006
1.00009
1.00013
1.00019
1.00027
1.00038
1.00051
1.00068
1.00088
1.00113
1.00143
1.00178
1.00217
1.00262
1.00313
1.00368
1.00429
1.00494
1.00563
1.00638
1.00723
1.00815
1.00917
1.0103
1.01154
1.01286
1.01432
1.01589
1.01754
1.01921
1.02083
1.02208
1.02268
1.02106
1.0347
1.06891
1.06576
1.06314
1.04899
1.02498
0.969262
0.886053
0.798041
0.746101
0.712691
0.689482
0.671874
0.656828
0.643754
0.631144
0.619644
0.608283
0.597958
0.587062
0.576757
0.566306
0.555554
0.54517
0.534675
0.524216
0.513658
0.503401
0.492606
0.480837
0.46887
0.455227
0.44136
0.426503
0.41256
0.398325
0.384829
0.370949
0.356551
0.341673
0.326478
0.311217
0.295751
0.280074
0.264177
0.248372
0.232919
0.217776
0.203063
0.188964
0.175646
0.163538
0.152983
0.144116
0.135727
0.128332
0.121472
0.115913
0.110442
1
1
1
1
1
1
1
1
1
1
1
1
1
1
1
1
1
1
1
1
1
1
1.00001
1.00001
1.00002
1.00003
1.00005
1.00008
1.00012
1.00017
1.00024
1.00034
1.00046
1.00062
1.00081
1.00104
1.00131
1.00164
1.00201
1.00244
1.00292
1.00345
1.00404
1.00467
1.00534
1.00608
1.00691
1.00784
1.00885
1.00998
1.01124
1.01262
1.01409
1.01565
1.01721
1.01888
1.02063
1.02255
1.0238
1.02771
1.04191
1.06058
1.05191
1.04783
1.02252
0.981757
0.89998
0.811928
0.75232
0.714625
0.689066
0.672358
0.659793
0.649541
0.64023
0.630807
0.621857
0.612658
0.604167
0.594757
0.5855
0.575984
0.56558
0.554991
0.544099
0.533199
0.522283
0.511051
0.499082
0.48608
0.472706
0.457831
0.442691
0.427158
0.412462
0.397905
0.384074
0.369638
0.355095
0.340147
0.325106
0.310059
0.294899
0.27959
0.264302
0.249222
0.234565
0.220169
0.206281
0.19298
0.180417
0.169057
0.15923
0.151037
0.143319
0.136602
0.130476
0.1255
0.120778
1
1
1
1
1
1
1
1
1
1
1
1
1
1
1
1
1
1
1
1
1
1
1.00001
1.00001
1.00002
1.00003
1.00004
1.00007
1.0001
1.00015
1.00021
1.00029
1.0004
1.00054
1.00072
1.00093
1.00118
1.00148
1.00183
1.00223
1.00268
1.00319
1.00375
1.00436
1.00501
1.00573
1.00655
1.00748
1.0085
1.00964
1.01093
1.01238
1.01394
1.01568
1.01756
1.01973
1.02239
1.02624
1.03067
1.04296
1.06178
1.05972
1.04545
1.02576
0.989664
0.91242
0.826405
0.763857
0.722861
0.696777
0.678413
0.665217
0.655176
0.647209
0.640138
0.632929
0.625753
0.61801
0.610719
0.602617
0.594335
0.585696
0.576189
0.56566
0.554472
0.543432
0.532288
0.520303
0.5076
0.493868
0.479323
0.463393
0.447041
0.430781
0.415115
0.399975
0.385319
0.370282
0.355468
0.340409
0.325621
0.310755
0.295846
0.280865
0.266121
0.251667
0.23761
0.22379
0.210519
0.197831
0.185963
0.175245
0.16609
0.158486
0.151459
0.145362
0.139977
0.135511
0.131503
1
1
1
1
1
1
1
1
1
1
1
1
1
1
1
1
1
1
1
1
1
1
1
1.00001
1.00001
1.00002
1.00003
1.00005
1.00008
1.00012
1.00017
1.00025
1.00034
1.00046
1.00061
1.0008
1.00103
1.0013
1.00162
1.00198
1.0024
1.00288
1.0034
1.00398
1.00462
1.00532
1.00612
1.00705
1.00809
1.00925
1.01057
1.01211
1.01382
1.0158
1.01811
1.02042
1.02226
1.02261
1.01961
1.02927
1.06116
1.05052
1.04204
1.0002
0.939216
0.848545
0.779971
0.734292
0.705205
0.684864
0.671926
0.66179
0.65421
0.647588
0.641926
0.636167
0.630488
0.624243
0.618025
0.611336
0.604196
0.596286
0.587815
0.577904
0.567453
0.556122
0.544703
0.53214
0.518791
0.504189
0.488426
0.47124
0.45387
0.436577
0.419862
0.403962
0.388399
0.372903
0.357849
0.342928
0.328435
0.313773
0.299083
0.284366
0.27001
0.255939
0.242258
0.22884
0.215986
0.203807
0.19248
0.182295
0.173674
0.166596
0.160191
0.154684
0.149922
0.145941
0.142635
1
1
1
1
1
1
1
1
1
1
1
1
1
1
1
1
1
1
1
1
1
1
1
1
1.00001
1.00001
1.00002
1.00004
1.00006
1.00009
1.00013
1.00019
1.00027
1.00037
1.00049
1.00065
1.00085
1.00108
1.00136
1.00169
1.00207
1.0025
1.00299
1.00353
1.00413
1.00481
1.00558
1.00649
1.00753
1.00871
1.01006
1.01161
1.01333
1.01529
1.0176
1.02023
1.02318
1.02585
1.03299
1.04826
1.05533
1.02902
0.997621
0.939447
0.85987
0.79328
0.74884
0.718256
0.695095
0.679732
0.66871
0.66133
0.655426
0.650274
0.645479
0.640791
0.636106
0.631012
0.625568
0.619784
0.61351
0.60642
0.598972
0.589884
0.580463
0.56941
0.557549
0.544459
0.530662
0.515326
0.498768
0.480597
0.462403
0.443896
0.42616
0.409351
0.392786
0.37682
0.361497
0.346644
0.332187
0.317622
0.303065
0.288569
0.27453
0.260749
0.24741
0.234382
0.222004
0.210305
0.199477
0.189772
0.181652
0.175145
0.169349
0.164449
0.160239
0.156766
0.154155
1
1
1
1
1
1
1
1
1
1
1
1
1
1
1
1
1
1
1
0.999999
0.999999
0.999999
1
1
1
1.00001
1.00001
1.00002
1.00003
1.00006
1.00009
1.00013
1.00019
1.00026
1.00036
1.00049
1.00064
1.00084
1.00107
1.00134
1.00167
1.00204
1.00247
1.00295
1.0035
1.00412
1.00485
1.0057
1.00669
1.00785
1.0092
1.01079
1.01274
1.01502
1.01808
1.02213
1.02902
1.03587
1.05274
1.06499
1.04151
1.01308
0.952893
0.875221
0.804974
0.757441
0.727652
0.705727
0.68994
0.677673
0.668724
0.662146
0.657196
0.653028
0.649356
0.645737
0.642086
0.63814
0.633505
0.628507
0.622931
0.616512
0.609837
0.601503
0.592807
0.58247
0.570952
0.557887
0.543848
0.528114
0.511117
0.492273
0.473061
0.453424
0.434562
0.416768
0.39935
0.383008
0.367382
0.352471
0.337808
0.323212
0.308763
0.294533
0.280709
0.267071
0.253955
0.241223
0.229249
0.217882
0.20742
0.198063
0.190297
0.18428
0.17905
0.174682
0.170951
0.167948
0.166069
1
1
1
1
1
1
1
1
1
1
1
1
1
1
1
1
1
1
0.999999
0.999999
0.999999
0.999998
0.999998
0.999997
0.999997
0.999997
0.999999
1
1.00001
1.00002
1.00004
1.00006
1.0001
1.00015
1.00021
1.0003
1.00041
1.00055
1.00072
1.00093
1.00119
1.00148
1.00183
1.00224
1.00269
1.00322
1.00386
1.0046
1.00548
1.00656
1.00784
1.00943
1.01119
1.01294
1.01467
1.01622
1.0169
1.01469
1.02243
1.03072
0.997627
0.955854
0.8805
0.816871
0.770075
0.740406
0.717909
0.702456
0.690408
0.681039
0.673553
0.667696
0.663103
0.659126
0.655753
0.652624
0.649347
0.645968
0.641735
0.637276
0.63216
0.626415
0.620655
0.61317
0.605058
0.595452
0.584318
0.571326
0.556976
0.54071
0.523496
0.504409
0.484596
0.46421
0.44434
0.42554
0.407358
0.390386
0.374225
0.358853
0.34385
0.32924
0.314932
0.300981
0.287309
0.273822
0.260889
0.248422
0.23679
0.225786
0.215711
0.206714
0.199346
0.193791
0.189144
0.185231
0.182014
0.179472
0.178308
1
1
1
1
1
1
1
1
1
1
1
1
1
1
1
1
1
0.999999
0.999999
0.999999
0.999998
0.999997
0.999995
0.999993
0.999991
0.999989
0.999986
0.999983
0.999981
0.99998
0.999982
0.999988
0.999999
1.00002
1.00005
1.00009
1.00014
1.00022
1.00032
1.00045
1.00062
1.00082
1.00105
1.00134
1.00168
1.00207
1.00255
1.00313
1.00381
1.00465
1.00565
1.00693
1.00846
1.01055
1.01328
1.01846
1.02471
1.04388
1.04087
1.01248
0.96123
0.900368
0.827814
0.784366
0.752927
0.732253
0.715946
0.704048
0.694829
0.687393
0.681101
0.675663
0.671047
0.666918
0.663321
0.660112
0.656931
0.653675
0.649742
0.645529
0.640885
0.635526
0.630425
0.6234
0.615875
0.606715
0.596233
0.583644
0.569538
0.553675
0.536558
0.517687
0.497524
0.476504
0.455826
0.435871
0.417057
0.399353
0.382744
0.366959
0.351731
0.336983
0.322713
0.308912
0.295273
0.281951
0.269137
0.256871
0.245423
0.234658
0.224884
0.216189
0.209146
0.203889
0.199692
0.196154
0.193469
0.191374
0.19085
1
1
1
1
1
1
1
1
1
1
1
1
1
1
1
1
1
0.999999
0.999999
0.999998
0.999997
0.999995
0.999993
0.99999
0.999985
0.999979
0.999972
0.999963
0.999952
0.999939
0.999925
0.999909
0.999893
0.999877
0.999863
0.999853
0.999849
0.999855
0.999873
0.999906
0.999958
1.00003
1.00013
1.00027
1.00044
1.00066
1.00092
1.00127
1.00166
1.00217
1.00282
1.00368
1.00456
1.0054
1.00579
1.00519
1.00055
1.00425
1.00113
0.953727
0.900856
0.842618
0.798159
0.767594
0.745552
0.730239
0.718335
0.709155
0.702009
0.696123
0.690901
0.685999
0.681375
0.677031
0.673059
0.66964
0.666275
0.662889
0.658957
0.65469
0.650377
0.64538
0.64071
0.633906
0.62768
0.619236
0.609434
0.596913
0.582925
0.567331
0.550153
0.531185
0.510404
0.489129
0.467732
0.446942
0.4276
0.409321
0.392218
0.375809
0.360142
0.345126
0.330874
0.317102
0.303549
0.290412
0.277697
0.265584
0.254271
0.243732
0.234266
0.22593
0.219256
0.214346
0.210559
0.207423
0.205295
0.203639
0.203685
1
1
1
1
1
1
1
1
1
1
1
1
1
1
1
1
0.999999
0.999999
0.999998
0.999997
0.999996
0.999994
0.99999
0.999986
0.999979
0.99997
0.999958
0.999942
0.999922
0.999896
0.999865
0.999827
0.999783
0.999731
0.999672
0.999606
0.999536
0.999461
0.999384
0.999305
0.999227
0.999156
0.999094
0.999042
0.999008
0.999004
0.999004
0.999041
0.999101
0.999193
0.999355
0.999617
1.00009
1.0009
1.00289
1.00534
1.01948
1.00458
0.971975
0.907385
0.864616
0.811835
0.783566
0.761244
0.74618
0.734588
0.725577
0.717782
0.711269
0.705763
0.701051
0.696786
0.69274
0.68879
0.684862
0.681246
0.677655
0.674141
0.669906
0.66546
0.660885
0.655974
0.651306
0.644429
0.638696
0.630465
0.620983
0.608863
0.596025
0.581198
0.564589
0.545802
0.524825
0.50312
0.481142
0.459579
0.439742
0.420784
0.40303
0.38596
0.370053
0.354927
0.340735
0.326808
0.313219
0.300057
0.287354
0.27534
0.26415
0.25379
0.244565
0.236459
0.230031
0.225387
0.221856
0.21913
0.217465
0.216228
0.216747
1
1
1
1
1
1
1
1
1
1
1
1
1
1
1
1
0.999999
0.999999
0.999998
0.999997
0.999995
0.999992
0.999988
0.999982
0.999973
0.999961
0.999944
0.999922
0.999893
0.999855
0.999807
0.999748
0.999675
0.999588
0.999484
0.999363
0.999225
0.999068
0.998892
0.9987
0.998493
0.998269
0.998032
0.997789
0.997544
0.997277
0.997003
0.996713
0.996396
0.99606
0.995713
0.995242
0.994561
0.993281
0.991421
0.987293
0.983155
0.971997
0.9209
0.876861
0.834114
0.799827
0.77733
0.759836
0.747547
0.738169
0.731259
0.72529
0.720105
0.715378
0.711272
0.707353
0.703605
0.699914
0.69603
0.692118
0.688268
0.684576
0.680153
0.675631
0.670831
0.666164
0.661454
0.654792
0.649611
0.642097
0.633345
0.622151
0.6101
0.595571
0.579123
0.560385
0.539539
0.516993
0.494627
0.472276
0.451956
0.432389
0.414135
0.39668
0.380613
0.365375
0.35098
0.33669
0.322896
0.30959
0.296968
0.285171
0.274189
0.264049
0.255056
0.247183
0.240979
0.236581
0.233456
0.231202
0.229983
0.229178
0.230044
1
1
1
1
1
1
1
1
1
1
1
1
1
1
1
1
0.999999
0.999999
0.999998
0.999996
0.999994
0.999991
0.999986
0.999978
0.999967
0.999952
0.999931
0.999903
0.999865
0.999816
0.999752
0.999673
0.999574
0.999453
0.999309
0.999137
0.998937
0.998706
0.998443
0.998146
0.99782
0.997462
0.997071
0.996649
0.996206
0.995711
0.995143
0.994521
0.993827
0.993038
0.992249
0.991537
0.990864
0.990499
0.989543
0.995992
0.981529
0.947921
0.889333
0.850871
0.811738
0.791598
0.773604
0.761918
0.75207
0.744767
0.738779
0.733549
0.728828
0.724423
0.720702
0.717333
0.714104
0.71082
0.707428
0.70382
0.700117
0.696487
0.692281
0.687747
0.682824
0.678234
0.67329
0.66648
0.661088
0.653455
0.645205
0.634834
0.62383
0.610023
0.594173
0.575873
0.55546
0.532706
0.509774
0.486845
0.46584
0.445745
0.426921
0.409087
0.39262
0.37701
0.362178
0.347585
0.333604
0.320209
0.307656
0.296043
0.285211
0.275247
0.266399
0.258702
0.252637
0.248309
0.245524
0.243621
0.242717
0.24229
0.243442
1
1
1
1
1
1
1
1
1
1
1
1
1
1
1
1
0.999999
0.999999
0.999998
0.999996
0.999993
0.999989
0.999983
0.999975
0.999962
0.999944
0.999919
0.999884
0.999839
0.999779
0.999702
0.999604
0.999482
0.999333
0.999152
0.998937
0.998683
0.998389
0.998053
0.997671
0.997245
0.996773
0.996261
0.995697
0.995095
0.994416
0.993621
0.992701
0.99167
0.990455
0.989058
0.987599
0.985929
0.983837
0.979312
0.97711
0.954092
0.899999
0.870319
0.831459
0.80806
0.790744
0.778455
0.768287
0.760393
0.753829
0.748676
0.744075
0.740011
0.73612
0.732338
0.729087
0.72604
0.72294
0.719579
0.715924
0.712001
0.707978
0.703788
0.698693
0.693465
0.688583
0.683833
0.677026
0.671678
0.664321
0.657483
0.64827
0.637918
0.62455
0.609073
0.59101
0.57087
0.548241
0.524722
0.501322
0.479581
0.459205
0.439852
0.421713
0.404693
0.388599
0.373284
0.358506
0.344445
0.330987
0.318459
0.30687
0.296126
0.286385
0.277693
0.270194
0.264369
0.260304
0.257805
0.256325
0.255629
0.255502
0.256953
1
1
1
1
1
1
1
1
1
1
1
1
1
1
1
0.999999
0.999999
0.999998
0.999997
0.999995
0.999993
0.999988
0.999981
0.999971
0.999957
0.999936
0.999907
0.999868
0.999815
0.999746
0.999657
0.999543
0.999402
0.999229
0.999019
0.998769
0.998474
0.998131
0.997739
0.997295
0.996795
0.99624
0.995635
0.994975
0.994259
0.993446
0.992495
0.991381
0.990089
0.988611
0.986912
0.985181
0.983156
0.981094
0.98235
0.963176
0.923456
0.882086
0.851052
0.825306
0.809224
0.796633
0.787552
0.779418
0.772918
0.766688
0.760999
0.755977
0.751289
0.747398
0.742951
0.739125
0.735595
0.732106
0.728841
0.725757
0.722344
0.718785
0.715411
0.710502
0.705407
0.700017
0.695692
0.689123
0.683337
0.675861
0.669533
0.660874
0.650966
0.638662
0.624252
0.607006
0.587347
0.564981
0.541315
0.517476
0.49495
0.474084
0.454217
0.435552
0.41788
0.401276
0.385403
0.370464
0.356245
0.34271
0.33012
0.318423
0.307761
0.298233
0.289713
0.282448
0.276806
0.27291
0.270537
0.269223
0.268595
0.268658
0.270392
1
1
1
1
1
1
1
1
1
1
1
1
1
1
1
0.999999
0.999999
0.999998
0.999997
0.999995
0.999992
0.999987
0.999979
0.999968
0.999952
0.999929
0.999896
0.999852
0.999793
0.999716
0.999617
0.999491
0.999334
0.999141
0.99891
0.998634
0.99831
0.997935
0.997506
0.99702
0.996476
0.995874
0.995213
0.994496
0.993724
0.992849
0.991828
0.990624
0.989179
0.987494
0.985575
0.983518
0.980395
0.976482
0.970027
0.948507
0.902446
0.873383
0.844923
0.828653
0.814848
0.804639
0.796528
0.789758
0.783845
0.778788
0.773523
0.768474
0.763691
0.759341
0.755395
0.75118
0.747579
0.744191
0.740767
0.737775
0.734534
0.730756
0.727051
0.722248
0.717052
0.711005
0.706445
0.700699
0.694962
0.687672
0.6816
0.673828
0.66426
0.652925
0.639067
0.622495
0.603046
0.580932
0.557037
0.533155
0.509863
0.488557
0.468294
0.449345
0.431196
0.414196
0.397848
0.382678
0.368233
0.354662
0.341869
0.330008
0.319308
0.309835
0.301469
0.294555
0.28922
0.285547
0.283435
0.282163
0.281873
0.281957
0.283863
1
1
1
1
1
1
1
1
1
1
1
1
1
1
1
0.999999
0.999999
0.999998
0.999997
0.999995
0.999991
0.999986
0.999977
0.999965
0.999947
0.999922
0.999886
0.999838
0.999774
0.99969
0.999582
0.999445
0.999276
0.999069
0.998821
0.998529
0.998188
0.997793
0.997345
0.996841
0.99628
0.995663
0.994987
0.994255
0.993479
0.992609
0.991609
0.990478
0.989131
0.987571
0.985572
0.982891
0.979455
0.972924
0.95708
0.92043
0.886964
0.863308
0.845457
0.833358
0.823134
0.815326
0.808696
0.802753
0.797028
0.791932
0.786991
0.781786
0.776797
0.771629
0.76723
0.763016
0.758595
0.755033
0.75099
0.747529
0.74433
0.740814
0.737409
0.733457
0.728838
0.722931
0.717985
0.712635
0.706901
0.699418
0.692752
0.685806
0.676948
0.666747
0.653794
0.638258
0.619638
0.598287
0.5744
0.550427
0.526623
0.504658
0.484043
0.464583
0.445879
0.4282
0.411314
0.395631
0.38089
0.367127
0.354105
0.342159
0.331476
0.322105
0.314043
0.307453
0.302287
0.298634
0.296499
0.295239
0.295179
0.295263
0.297307
1
1
1
1
1
1
1
1
1
1
1
1
1
1
1
0.999999
0.999999
0.999998
0.999996
0.999994
0.99999
0.999984
0.999975
0.999962
0.999943
0.999915
0.999877
0.999825
0.999756
0.999666
0.99955
0.999405
0.999227
0.999009
0.998749
0.998446
0.998095
0.997693
0.997238
0.996735
0.99618
0.995573
0.994916
0.994209
0.993461
0.992619
0.991633
0.990499
0.989336
0.98817
0.987017
0.985946
0.986553
0.982834
0.957193
0.911976
0.887999
0.867395
0.853864
0.842172
0.83269
0.824436
0.817667
0.811525
0.806105
0.800939
0.79629
0.791887
0.787809
0.783602
0.778967
0.775391
0.770767
0.766911
0.762838
0.759108
0.755912
0.752693
0.749468
0.745529
0.740933
0.734787
0.728916
0.723532
0.718051
0.711067
0.704329
0.697702
0.689553
0.679925
0.668128
0.653486
0.635785
0.615105
0.591591
0.567492
0.543244
0.520593
0.499563
0.479445
0.460323