/*--------------------------------*- C++ -*----------------------------------*\
| =========                 |                                                 |
| \\      /  F ield         | OpenFOAM: The Open Source CFD Toolbox           |
|  \\    /   O peration     | Version:  2.2.x                                 |
|   \\  /    A nd           | Web:      www.OpenFOAM.org                      |
|    \\/     M anipulation  |                                                 |
\*---------------------------------------------------------------------------*/
FoamFile
{
    version     2.0;
    format      ascii;
    class       volScalarField;
    location    "1.15";
    object      Ma;
}
// * * * * * * * * * * * * * * * * * * * * * * * * * * * * * * * * * * * * * //

dimensions      [0 0 0 0 0 0 0];

internalField   nonuniform List<scalar> 
14161
(
2.59973
2.5996
2.59965
2.59972
2.59981
2.59992
2.59999
2.60003
2.60001
2.59995
2.59983
2.59956
2.59912
2.59845
2.5975
2.59621
2.59453
2.59234
2.58959
2.5863
2.58238
2.57779
2.57246
2.56646
2.5597
2.55214
2.54379
2.53473
2.525
2.51479
2.50448
2.49371
2.48242
2.47078
2.45866
2.44632
2.43416
2.42191
2.40959
2.39764
2.38613
2.37501
2.36533
2.35449
2.34122
2.32362
2.28929
2.18709
1.86407
1.15158
0.746943
0.639924
0.625742
0.63442
0.653578
0.671498
0.686511
0.699454
0.711773
0.723711
0.735506
0.746843
0.75798
0.768853
0.779136
0.789119
0.798041
0.806839
0.815558
0.823647
0.83173
0.839095
0.846592
0.854756
0.862929
0.871494
0.880277
0.889128
0.898952
0.910153
0.920815
0.932173
0.943303
0.954898
0.967364
0.97982
0.992191
1.00284
1.0118
1.0178
1.02258
1.02531
1.02439
1.01951
1.00707
0.984633
0.947325
0.893302
0.820817
0.731513
0.639974
0.556447
0.485452
0.42822
0.381272
0.34217
0.308497
0.27882
0.252375
0.228707
0.206804
0.186059
0.165486
0.144525
0.122464
0.099069
0.0746469
0.0487995
0.0318995
2.59973
2.5996
2.59965
2.59972
2.59981
2.59993
2.59999
2.60004
2.60001
2.59997
2.59983
2.59958
2.59913
2.59846
2.59751
2.59621
2.59453
2.59234
2.58963
2.58636
2.58242
2.57784
2.57252
2.56651
2.55974
2.55219
2.54384
2.53478
2.52509
2.51488
2.50458
2.49376
2.48246
2.4708
2.45877
2.44641
2.43424
2.42199
2.4097
2.39779
2.38632
2.37527
2.36561
2.35492
2.34186
2.32445
2.29191
2.19781
1.89135
1.18092
0.767346
0.658495
0.641892
0.646362
0.6629
0.678972
0.693123
0.705797
0.71805
0.730165
0.741818
0.753141
0.764035
0.774901
0.784929
0.79414
0.80288
0.811283
0.819859
0.827942
0.835641
0.843227
0.850539
0.85849
0.867124
0.875675
0.884905
0.894173
0.904205
0.915628
0.926741
0.93841
0.950455
0.962913
0.975357
0.987478
0.99815
1.00636
1.01251
1.01572
1.0176
1.01747
1.01158
0.998826
0.977311
0.941828
0.889796
0.822503
0.742473
0.655159
0.57233
0.500742
0.442471
0.394627
0.35405
0.319554
0.289241
0.262168
0.237682
0.215511
0.194774
0.175062
0.155599
0.135769
0.115493
0.0948237
0.075539
0.0559514
0.0540292
2.59973
2.5996
2.59966
2.59973
2.59982
2.59993
2.6
2.60004
2.60004
2.59999
2.59985
2.5996
2.59915
2.5985
2.59754
2.59626
2.59457
2.59241
2.58974
2.58644
2.58253
2.57793
2.57265
2.56666
2.5599
2.55238
2.54404
2.53503
2.52537
2.51514
2.50477
2.49401
2.48274
2.47107
2.45912
2.44674
2.43455
2.42234
2.41012
2.39823
2.38681
2.37589
2.3663
2.35595
2.34298
2.32562
2.29489
2.20204
1.90185
1.18977
0.776319
0.667775
0.648918
0.650784
0.666276
0.681233
0.694925
0.707466
0.719702
0.731813
0.743519
0.754771
0.765778
0.776264
0.786186
0.795058
0.80395
0.81244
0.820858
0.829105
0.836594
0.844548
0.852091
0.860075
0.869236
0.87815
0.887685
0.8975
0.907878
0.919616
0.931874
0.944246
0.957279
0.970348
0.982027
0.99194
0.999214
1.00419
1.00683
1.00755
1.00421
0.995864
0.980674
0.95683
0.920403
0.869518
0.801933
0.725449
0.64567
0.571856
0.507577
0.454047
0.409357
0.371069
0.337135
0.307103
0.279713
0.254491
0.231153
0.209668
0.189101
0.169452
0.150683
0.132307
0.115439
0.0988962
0.0865221
0.0743575
0.0807627
2.59974
2.59961
2.59966
2.59974
2.59984
2.59996
2.60003
2.60006
2.60006
2.60001
2.59989
2.59965
2.59921
2.59856
2.59763
2.59636
2.59466
2.59254
2.58988
2.58662
2.58274
2.57815
2.57289
2.5669
2.5602
2.55272
2.54443
2.53548
2.5259
2.51569
2.50513
2.49445
2.4832
2.4716
2.45974
2.44738
2.43514
2.42301
2.41089
2.39904
2.38772
2.37697
2.36753
2.35762
2.34501
2.32844
2.29919
2.20596
1.89302
1.15501
0.761475
0.655877
0.638072
0.640253
0.657297
0.672491
0.686637
0.699747
0.712392
0.724858
0.736896
0.748607
0.759863
0.770805
0.780904
0.790336
0.79988
0.809259
0.818063
0.826775
0.835001
0.843522
0.85179
0.860267
0.869731
0.879499
0.88947
0.900273
0.911267
0.92359
0.936812
0.949343
0.961293
0.972817
0.982187
0.989409
0.993808
0.995851
0.994654
0.988245
0.973721
0.95029
0.91628
0.868181
0.806169
0.731934
0.652211
0.577911
0.513794
0.465957
0.427393
0.392768
0.362199
0.334079
0.307822
0.28348
0.260476
0.238692
0.218003
0.198471
0.180215
0.162921
0.147225
0.132152
0.12009
0.107887
0.10158
0.0943826
0.104159
2.59975
2.59962
2.59967
2.59974
2.59985
2.59997
2.60005
2.6001
2.6001
2.60006
2.59995
2.59971
2.59928
2.59865
2.59775
2.59649
2.59483
2.59275
2.59012
2.58692
2.58308
2.57851
2.57329
2.56737
2.56072
2.55329
2.54514
2.53624
2.52672
2.51653
2.50589
2.49519
2.48407
2.47252
2.4607
2.4485
2.43622
2.42417
2.41215
2.40033
2.38905
2.3784
2.3692
2.35979
2.34789
2.33337
2.30782
2.22433
1.90983
1.11037
0.738629
0.63466
0.617046
0.620377
0.639483
0.65629
0.671702
0.686234
0.70006
0.713555
0.726348
0.738832
0.750783
0.762887
0.774458
0.785585
0.796484
0.806859
0.816854
0.825999
0.835075
0.844406
0.853541
0.862906
0.872755
0.883826
0.894989
0.907366
0.919665
0.93229
0.944643
0.955713
0.965554
0.973061
0.979021
0.98155
0.982141
0.977879
0.966534
0.946053
0.914865
0.869702
0.811266
0.74095
0.660987
0.583829
0.514964
0.463816
0.426876
0.398107
0.373914
0.351119
0.329042
0.306903
0.285212
0.264822
0.245136
0.226057
0.207979
0.190761
0.174354
0.15938
0.146708
0.134798
0.127484
0.119312
0.118028
0.113965
0.125166
2.59977
2.59964
2.59968
2.59976
2.59987
2.59999
2.60009
2.60013
2.60016
2.60012
2.60001
2.59979
2.5994
2.5988
2.5979
2.59668
2.59507
2.59303
2.59045
2.58733
2.58356
2.57905
2.57385
2.568
2.56145
2.55415
2.54607
2.53732
2.52787
2.51774
2.50711
2.49619
2.48527
2.47386
2.46212
2.45004
2.43779
2.42573
2.4138
2.40205
2.39074
2.38019
2.37125
2.36241
2.35144
2.3393
2.31921
2.25864
1.92626
1.07901
0.721182
0.619996
0.600442
0.603075
0.622405
0.640565
0.656876
0.672367
0.68731
0.702074
0.716873
0.73152
0.746108
0.76009
0.773596
0.786166
0.798478
0.810348
0.821608
0.832117
0.842386
0.853316
0.8638
0.874528
0.885692
0.897787
0.910138
0.922465
0.934257
0.944689
0.953238
0.959855
0.96564
0.969946
0.970607
0.967393
0.958011
0.941099
0.913193
0.871138
0.814669
0.744858
0.666687
0.589402
0.518401
0.464796
0.427213
0.39856
0.376216
0.356982
0.338881
0.321528
0.303441
0.284861
0.267065
0.250005
0.233168
0.21646
0.200366
0.185107
0.171273
0.158384
0.148547
0.139963
0.136569
0.131868
0.134177
0.132404
0.144113
2.59979
2.59966
2.59971
2.59979
2.5999
2.60003
2.60014
2.6002
2.60022
2.60019
2.60011
2.59991
2.59955
2.59898
2.59812
2.59695
2.59541
2.59339
2.5909
2.58784
2.58417
2.5798
2.57465
2.56889
2.56243
2.55525
2.54732
2.5387
2.52939
2.51933
2.5087
2.49774
2.48693
2.47568
2.46398
2.45205
2.43999
2.42788
2.41593
2.40409
2.3927
2.38226
2.37347
2.3652
2.35534
2.34517
2.32944
2.29137
1.92169
1.04408
0.703773
0.609729
0.587294
0.589359
0.607217
0.626329
0.644843
0.663728
0.682301
0.70039
0.718157
0.735465
0.752089
0.767966
0.782959
0.797126
0.810491
0.823706
0.83626
0.848331
0.859933
0.87163
0.883128
0.893522
0.90419
0.914298
0.924506
0.934387
0.943437
0.950671
0.9552
0.958314
0.961601
0.960185
0.951781
0.936788
0.911545
0.873014
0.820999
0.753858
0.677467
0.600748
0.529027
0.473911
0.43461
0.405936
0.383675
0.365207
0.349078
0.333466
0.318441
0.303037
0.286646
0.270192
0.25453
0.239293
0.224386
0.21002
0.196209
0.18276
0.170598
0.159746
0.15258
0.146839
0.146449
0.144602
0.149528
0.149525
0.161224
2.5998
2.59967
2.59973
2.5998
2.59992
2.60005
2.60019
2.60027
2.6003
2.6003
2.60023
2.60006
2.59973
2.5992
2.5984
2.59729
2.5958
2.59388
2.59145
2.58849
2.58492
2.5807
2.5757
2.56998
2.5637
2.55667
2.54892
2.54047
2.53132
2.52137
2.5108
2.49987
2.48905
2.47803
2.46649
2.45465
2.44263
2.43055
2.4186
2.40647
2.3949
2.38431
2.37522
2.36705
2.35759
2.34738
2.33263
2.3065
1.90515
1.01866
0.691655
0.601596
0.584451
0.586822
0.604831
0.624993
0.647471
0.669519
0.690988
0.711546
0.731275
0.750397
0.768502
0.785851
0.802336
0.817874
0.832597
0.846918
0.860667
0.873515
0.885827
0.89728
0.908795
0.918726
0.927607
0.934854
0.941776
0.948319
0.952192
0.95345
0.954232
0.952901
0.946193
0.9328
0.909919
0.874463
0.826168
0.762656
0.689179
0.614923
0.54405
0.488686
0.449329
0.420428
0.398068
0.379472
0.362922
0.347352
0.332932
0.318897
0.304809
0.290185
0.275043
0.260639
0.24686
0.233096
0.219534
0.206278
0.193777
0.182193
0.172183
0.163078
0.158156
0.154674
0.156915
0.157124
0.163823
0.165298
0.176687
2.59983
2.5997
2.59974
2.59984
2.59996
2.6001
2.60025
2.60034
2.60041
2.60042
2.60037
2.60024
2.59996
2.59948
2.59874
2.5977
2.59631
2.59447
2.59213
2.58928
2.58585
2.58179
2.57701
2.57142
2.56527
2.55847
2.55091
2.54267
2.53373
2.52396
2.51355
2.50269
2.49171
2.481
2.46966
2.45787
2.44586
2.43391
2.4218
2.40923
2.39746
2.38639
2.37633
2.36803
2.35848
2.34681
2.3307
2.3025
1.88601
1.0087
0.687256
0.601188
0.590574
0.595966
0.616054
0.637441
0.661483
0.68556
0.709156
0.732167
0.754365
0.776017
0.796559
0.815987
0.834395
0.851383
0.867708
0.883013
0.896998
0.909446
0.920534
0.930266
0.939068
0.946774
0.952437
0.9565
0.959881
0.960226
0.959863
0.953054
0.945345
0.9309
0.909633
0.876278
0.830569
0.770064
0.700265
0.628236
0.55974
0.505798
0.467444
0.439388
0.418269
0.400176
0.384195
0.369422
0.355413
0.341361
0.327414
0.313663
0.299554
0.285087
0.270408
0.256386
0.242842
0.229892
0.217633
0.205764
0.194656
0.184297
0.175665
0.167995
0.165042
0.163197
0.16732
0.169246
0.177142
0.179789
0.190646
2.59985
2.59972
2.59978
2.59986
2.59999
2.60015
2.60031
2.60045
2.60053
2.60058
2.60054
2.60045
2.60022
2.59979
2.59914
2.59818
2.59689
2.59517
2.59296
2.59026
2.587
2.58312
2.57857
2.57318
2.56712
2.56059
2.55331
2.54531
2.53664
2.52717
2.51689
2.50615
2.49519
2.48469
2.4736
2.46193
2.44999
2.43807
2.42576
2.41257
2.4002
2.38853
2.37788
2.36866
2.35907
2.34571
2.32722
2.29327
1.88348
1.01385
0.688766
0.605471
0.599152
0.612545
0.636724
0.661907
0.689195
0.716545
0.743247
0.768965
0.794106
0.818417
0.841678
0.864092
0.88402
0.902536
0.918653
0.932785
0.944109
0.953645
0.961305
0.96756
0.973178
0.976312
0.977025
0.975648
0.973363
0.963886
0.954083
0.937551
0.912541
0.878657
0.833932
0.77528
0.709034
0.640201
0.573815
0.521045
0.483909
0.457583
0.438483
0.422364
0.408487
0.395862
0.382046
0.367674
0.353243
0.338648
0.324127
0.309855
0.295631
0.28189
0.2684
0.255431
0.242833
0.230312
0.218643
0.20749
0.197415
0.188217
0.180963
0.174391
0.172833
0.172225
0.177493
0.180917
0.189615
0.193116
0.203259
2.59987
2.59974
2.5998
2.5999
2.60003
2.6002
2.60038
2.60056
2.60068
2.60075
2.60076
2.60069
2.60053
2.60018
2.59961
2.59875
2.59758
2.59599
2.59395
2.59139
2.58832
2.58468
2.58038
2.5753
2.56943
2.56307
2.55614
2.54846
2.5401
2.53104
2.52098
2.51039
2.49948
2.489
2.47832
2.46694
2.45516
2.44336
2.43075
2.41671
2.40367
2.39145
2.37992
2.36949
2.35954
2.34464
2.32104
2.26169
1.87776
1.037
0.699893
0.618356
0.617324
0.64101
0.671529
0.702151
0.734166
0.765886
0.796163
0.826156
0.854107
0.880958
0.905049
0.926733
0.945449
0.960679
0.974016
0.983919
0.991724
0.996847
0.999901
1.00187
1.00084
0.997281
0.990267
0.978318
0.964606
0.945193
0.916895
0.88087
0.834882
0.77657
0.712126
0.646339
0.58268
0.532187
0.496903
0.472577
0.45563
0.441991
0.430178
0.419784
0.408238
0.396504
0.384456
0.371541
0.357777
0.343237
0.32809
0.312863
0.297878
0.283836
0.270419
0.257652
0.245528
0.233462
0.222399
0.21181
0.202475
0.194057
0.187822
0.182099
0.18156
0.181692
0.187686
0.192308
0.201489
0.205478
0.214891
2.59991
2.59978
2.59984
2.59995
2.60009
2.60026
2.60045
2.60067
2.60084
2.60096
2.601
2.60098
2.60087
2.60061
2.60014
2.59942
2.59835
2.59695
2.59511
2.59272
2.58989
2.5865
2.58248
2.57779
2.5722
2.56604
2.5595
2.5522
2.54421
2.53555
2.52596
2.51555
2.5048
2.49422
2.48407
2.4731
2.46163
2.44993
2.437
2.42205
2.40836
2.39552
2.38316
2.37186
2.36112
2.34466
2.31323
2.20909
1.87264
1.0983
0.728558
0.646948
0.65292
0.689219
0.729693
0.767248
0.80418
0.838316
0.871245
0.90173
0.931135
0.955153
0.976031
0.992387
1.00505
1.01476
1.02168
1.02666
1.0298
1.02855
1.02533
1.01909
1.00955
0.993626
0.975326
0.949634
0.917506
0.87858
0.82877
0.769251
0.70607
0.643004
0.582912
0.535481
0.5024
0.481227
0.467306
0.457077
0.448234
0.439722
0.430789
0.421796
0.412293
0.401586
0.389974
0.377057
0.363002
0.348105
0.332658
0.317216
0.302208
0.288298
0.275135
0.262581
0.250858
0.239023
0.228324
0.218112
0.209363
0.201566
0.196199
0.191148
0.191389
0.191866
0.198166
0.203631
0.213014
0.217158
0.225962
2.59995
2.59982
2.59989
2.59998
2.60014
2.60033
2.60055
2.60078
2.60101
2.60119
2.60129
2.60133
2.60128
2.60111
2.60076
2.60017
2.59927
2.59805
2.59643
2.5943
2.59167
2.5886
2.58494
2.5806
2.57546
2.56959
2.5634
2.5566
2.54905
2.54084
2.53188
2.5217
2.51114
2.50069
2.49101
2.48057
2.46958
2.45788
2.44471
2.42903
2.41484
2.40145
2.38838
2.37615
2.36396
2.34613
2.31172
2.21208
1.89633
1.19132
0.781085
0.700917
0.714793
0.760461
0.807792
0.848643
0.886334
0.920277
0.952298
0.980762
1.00425
1.02086
1.03335
1.04216
1.04798
1.05301
1.05188
1.05226
1.04815
1.03955
1.02497
1.0065
0.981377
0.949948
0.911924
0.865811
0.810426
0.751093
0.690134
0.629146
0.572295
0.529743
0.500445
0.482318
0.471305
0.464211
0.45897
0.453973
0.448244
0.441623
0.434316
0.426362
0.417327
0.407291
0.395889
0.383152
0.369357
0.354745
0.33944
0.324019
0.309158
0.295427
0.282561
0.270277
0.259016
0.247445
0.237044
0.226991
0.218554
0.21109
0.206269
0.201576
0.202229
0.202664
0.208946
0.214893
0.224316
0.228455
0.236764
2.59998
2.59985
2.59992
2.60003
2.6002
2.6004
2.60064
2.60091
2.60119
2.60143
2.60161
2.60173
2.60175
2.60168
2.60145
2.60101
2.60033
2.5993
2.59792
2.59611
2.59377
2.59099
2.58768
2.58379
2.57921
2.57375
2.56785
2.5616
2.55464
2.54703
2.53873
2.52901
2.51873
2.50857
2.49911
2.48942
2.47906
2.46767
2.4546
2.43861
2.42426
2.41062
2.39719
2.38386
2.36953
2.35135
2.31419
2.22209
1.91294
1.31416
0.881082
0.804933
0.816161
0.854555
0.899297
0.936877
0.971497
1.00179
1.02747
1.04738
1.05841
1.06364
1.06968
1.06716
1.07025
1.0686
1.0618
1.05216
1.0348
1.01063
0.978072
0.94075
0.894995
0.841076
0.782456
0.721021
0.660405
0.60154
0.551323
0.514724
0.490138
0.475993
0.468421
0.464092
0.461425
0.459519
0.457517
0.454867
0.450496
0.444899
0.438296
0.430855
0.422429
0.41266
0.401442
0.388954
0.37544
0.361049
0.345857
0.3305
0.315806
0.302277
0.289736
0.277826
0.267132
0.256018
0.246041
0.236234
0.228083
0.220938
0.216654
0.212276
0.213264
0.21364
0.219835
0.226127
0.235491
0.239526
0.247293
2.60003
2.59989
2.59997
2.60009
2.60027
2.6005
2.60076
2.60105
2.60137
2.60168
2.60196
2.60217
2.60231
2.60233
2.60224
2.60197
2.6015
2.6007
2.59959
2.59812
2.5962
2.59372
2.59086
2.58742
2.58343
2.5786
2.5731
2.56733
2.56106
2.55418
2.5466
2.53769
2.5278
2.51816
2.50882
2.50017
2.49063
2.47991
2.46741
2.45179
2.43784
2.42448
2.41129
2.39767
2.38159
2.36343
2.32091
2.22562
1.87206
1.39278
1.01422
0.933534
0.931164
0.950152
0.984775
1.01497
1.04111
1.06618
1.07678
1.08398
1.08381
1.07626
1.0834
1.06759
1.06963
1.05072
1.03115
0.99925
0.962531
0.915705
0.861673
0.803052
0.741435
0.680251
0.620584
0.564914
0.523785
0.493727
0.474072
0.463291
0.458655
0.456817
0.456806
0.457604
0.458088
0.458266
0.457263
0.455924
0.452649
0.447859
0.442103
0.435211
0.427117
0.417678
0.406832
0.394741
0.381654
0.367628
0.352782
0.337705
0.323337
0.310052
0.297826
0.286231
0.276034
0.265332
0.255686
0.246032
0.238044
0.231163
0.227374
0.223271
0.224488
0.224858
0.230879
0.237338
0.246488
0.25033
0.257609
2.60008
2.59994
2.60002
2.60015
2.60036
2.60061
2.6009
2.60122
2.60157
2.60196
2.60232
2.60265
2.60292
2.60308
2.60313
2.60305
2.60281
2.6023
2.60148
2.60036
2.59888
2.59687
2.5944
2.59151
2.58812
2.58414
2.57922
2.5739
2.56843
2.56238
2.55562
2.54778
2.53849
2.52959
2.52084
2.51287
2.50417
2.49465
2.48332
2.46921
2.45659
2.44438
2.43276
2.42064
2.40696
2.39014
2.3413
2.22883
1.80836
1.42898
1.12053
1.05052
1.03014
1.03265
1.04455
1.0738
1.0817
1.10133
1.08878
1.08905
1.07716
1.06688
1.06126
1.02909
1.01336
0.974209
0.925986
0.870491
0.812056
0.749011
0.686109
0.626354
0.57002
0.526467
0.49342
0.470379
0.456873
0.449061
0.44582
0.444652
0.447482
0.449871
0.452896
0.455378
0.457056
0.457937
0.45757
0.456381
0.453713
0.450035
0.445104
0.438762
0.431053
0.422023
0.411678
0.400105
0.387504
0.373958
0.359563
0.34489
0.330902
0.317944
0.306109
0.294925
0.285277
0.275075
0.265802
0.256358
0.248454
0.241785
0.238418
0.234532
0.235821
0.236242
0.242023
0.248516
0.257364
0.261003
0.267864
2.60014
2.6
2.60008
2.60024
2.60044
2.60072
2.60104
2.60142
2.60183
2.60226
2.60272
2.60317
2.60358
2.60392
2.60416
2.60427
2.60425
2.60407
2.60361
2.60287
2.60185
2.60039
2.59841
2.59614
2.59344
2.59023
2.58615
2.58146
2.57669
2.57158
2.56586
2.55923
2.55102
2.54303
2.53515
2.52794
2.52014
2.51186
2.50218
2.49108
2.48022
2.47033
2.46059
2.4492
2.43728
2.41454
2.34083
2.14934
1.66098
1.3147
1.14319
1.09826
1.08279
1.07476
1.07049
1.08175
1.06907
1.08478
1.06463
1.06827
1.02985
1.01603
0.968478
0.929706
0.872783
0.812116
0.744683
0.681571
0.62087
0.565481
0.52225
0.489304
0.464921
0.449243
0.439476
0.434687
0.434526
0.434674
0.43864
0.440322
0.444537
0.447672
0.450968
0.45394
0.456056
0.457382
0.457648
0.456733
0.454747
0.451915
0.447826
0.442258
0.435155
0.426637
0.416795
0.405733
0.393576
0.380495
0.366586
0.35237
0.338772
0.326111
0.314629
0.303826
0.294681
0.284938
0.276014
0.266848
0.259001
0.252538
0.249575
0.245914
0.247195
0.247756
0.2533
0.259662
0.268116
0.271522
0.277907
2.6002
2.60006
2.60014
2.60031
2.60054
2.60084
2.6012
2.60162
2.60209
2.6026
2.60314
2.60372
2.60428
2.60483
2.6053
2.60565
2.60592
2.60601
2.60594
2.60567
2.60514
2.60424
2.60293
2.60131
2.59936
2.59696
2.5939
2.59015
2.58609
2.58199
2.57743
2.57208
2.56546
2.55859
2.55185
2.54563
2.53886
2.53169
2.52414
2.5163
2.50891
2.50145
2.49335
2.48675
2.4745
2.44688
2.3393
2.07952
1.5244
1.25298
1.17557
1.16564
1.16537
1.16548
1.16756
1.15617
1.12973
1.09669
1.04312
1.00117
0.934503
0.87371
0.809215
0.739112
0.674421
0.609734
0.554155
0.512464
0.48061
0.457212
0.441773
0.432243
0.426323
0.424439
0.424744
0.424517
0.428154
0.429398
0.43519
0.439322
0.444005
0.447817
0.451183
0.453834
0.455532
0.456778
0.457233
0.456656
0.455186
0.452918
0.449553
0.444838
0.438575
0.430802
0.42165
0.41124
0.399647
0.387053
0.373663
0.359921
0.346714
0.334426
0.323367
0.312984
0.304327
0.29503
0.28644
0.277621
0.269822
0.263545
0.260915
0.257448
0.258629
0.259386
0.264678
0.270771
0.278765
0.281913
0.287933
2.60026
2.60012
2.60023
2.6004
2.60065
2.60097
2.60137
2.60185
2.60238
2.60299
2.60364
2.60433
2.60504
2.60578
2.60652
2.60716
2.60776
2.60825
2.60859
2.60877
2.60873
2.60847
2.60797
2.60715
2.6059
2.60435
2.6024
2.59996
2.59694
2.59369
2.59027
2.58632
2.58176
2.57632
2.57093
2.56582
2.56059
2.55508
2.54979
2.54472
2.5395
2.53441
2.53057
2.52473
2.50964
2.46415
2.29186
1.92807
1.39576
1.22105
1.19086
1.1973
1.20593
1.2078
1.20188
1.17435
1.11516
1.03116
0.937057
0.841928
0.752478
0.672055
0.604433
0.548131
0.506183
0.47432
0.451383
0.436003
0.426166
0.419972
0.417128
0.415806
0.415844
0.415851
0.420535
0.423437
0.429169
0.431906
0.436874
0.440568
0.444698
0.448348
0.451557
0.454008
0.455783
0.457337
0.458126
0.457882
0.456729
0.454719
0.451767
0.447631
0.44207
0.435039
0.42658
0.4168
0.40582
0.393792
0.380986
0.367742
0.354893
0.342961
0.332326
0.322358
0.314126
0.305215
0.296937
0.288533
0.28082
0.274697
0.272328
0.269027
0.270058
0.271095
0.276152
0.28189
0.289348
0.292216
0.297723
2.60033
2.60018
2.6003
2.60048
2.60077
2.60113
2.60156
2.60209
2.60271
2.6034
2.60416
2.60499
2.60587
2.60682
2.60782
2.60878
2.60975
2.61066
2.6115
2.61226
2.61283
2.61326
2.61342
2.61342
2.61316
2.6126
2.6117
2.61057
2.60903
2.6068
2.60444
2.60203
2.59925
2.59614
2.59236
2.58849
2.5845
2.5808
2.57747
2.57437
2.57135
2.56927
2.56669
2.56092
2.54341
2.47255
2.24562
1.72438
1.31623
1.22094
1.20444
1.21237
1.22001
1.21002
1.18393
1.12533
1.02363
0.882454
0.748025
0.630646
0.544658
0.494466
0.464552
0.445354
0.432255
0.423572
0.417855
0.414673
0.412405
0.411676
0.41141
0.414351
0.417628
0.419391
0.423306
0.425518
0.430367
0.433128
0.438039
0.441716
0.44579
0.449264
0.452186
0.454483
0.456421
0.458019
0.458914
0.45883
0.457896
0.456184
0.453739
0.450225
0.445388
0.439096
0.43134
0.42222
0.411869
0.40047
0.388285
0.375529
0.363049
0.35148
0.34129
0.331747
0.323917
0.315369
0.307432
0.299543
0.292012
0.28603
0.283847
0.280658
0.281505
0.282858
0.287683
0.292927
0.299813
0.302357
0.307483
2.60042
2.60027
2.60039
2.60059
2.60089
2.60129
2.60178
2.60237
2.60306
2.60386
2.60475
2.60573
2.60679
2.60798
2.60923
2.6105
2.61187
2.61326
2.61463
2.61598
2.6173
2.61846
2.61951
2.62045
2.6212
2.62174
2.62198
2.62204
2.62188
2.62125
2.62036
2.61952
2.61856
2.61732
2.61554
2.61313
2.61093
2.60906
2.60758
2.60658
2.60623
2.60589
2.60467
2.59819
2.57596
2.47113
2.20989
1.59798
1.3041
1.24076
1.22313
1.21821
1.20767
1.17457
1.11945
1.0066
0.857952
0.691991
0.547717
0.460551
0.426571
0.415952
0.41255
0.411371
0.410562
0.410066
0.409356
0.410218
0.412215
0.414603
0.416687
0.418676
0.421764
0.423859
0.427623
0.429831
0.433871
0.436385
0.440657
0.444147
0.447975
0.451194
0.454058
0.456426
0.458456
0.459995
0.460972
0.461188
0.460307
0.458657
0.456347
0.453106
0.448725
0.443027
0.435953
0.427531
0.417884
0.407176
0.395639
0.383425
0.371335
0.360128
0.350323
0.341174
0.33371
0.325527
0.317975
0.310606
0.303349
0.297509
0.295456
0.292322
0.292979
0.294622
0.299258
0.303915
0.310234
0.312487
0.317083
2.6005
2.60034
2.60047
2.6007
2.60102
2.60146
2.602
2.60266
2.60343
2.60434
2.60537
2.60653
2.60781
2.60922
2.61078
2.6124
2.61419
2.61608
2.61796
2.62
2.62213
2.62403
2.62603
2.62805
2.62993
2.63153
2.63326
2.63478
2.63608
2.63702
2.63791
2.63889
2.63961
2.64007
2.63999
2.63977
2.63997
2.64023
2.64019
2.63993
2.6396
2.6386
2.63505
2.62208
2.57992
2.41334
2.08006
1.51643
1.30784
1.25972
1.2308
1.21047
1.17743
1.11486
1.0009
0.84216
0.664473
0.51156
0.421424
0.398223
0.392954
0.39803
0.401641
0.404885
0.408119
0.411241
0.413925
0.416146
0.418322
0.42031
0.423221
0.425425
0.428682
0.430899
0.434242
0.436095
0.439355
0.441417
0.444857
0.447859
0.4513
0.454285
0.457031
0.459387
0.461374
0.462797
0.46379
0.464242
0.463571
0.462
0.459821
0.456844
0.452841
0.447596
0.441018
0.433139
0.424074
0.413968
0.403018
0.39134
0.379666
0.368806
0.359344
0.350587
0.343469
0.335681
0.328539
0.321681
0.314756
0.309068
0.307148
0.304064
0.304524
0.306377
0.31079
0.314808
0.320516
0.322445
0.326642
2.60059
2.60043
2.60057
2.60081
2.60117
2.60164
2.60224
2.60298
2.60383
2.60486
2.60603
2.60737
2.60887
2.61057
2.61244
2.61444
2.6167
2.61913
2.62158
2.62432
2.62728
2.63005
2.63301
2.63621
2.63936
2.6422
2.64534
2.64852
2.65148
2.65424
2.65669
2.65957
2.6623
2.66462
2.6667
2.66847
2.67094
2.67333
2.67476
2.67535
2.6758
2.67526
2.67147
2.65539
2.59236
2.36909
1.89458
1.46986
1.33472
1.26936
1.23332
1.1902
1.12201
1.00372
0.838675
0.654825
0.499198
0.412392
0.39023
0.390078
0.397832
0.404245
0.40969
0.413645
0.416107
0.418518
0.421259
0.424103
0.42709
0.429721
0.432598
0.434968
0.437873
0.439744
0.442257
0.443264
0.445734
0.447182
0.449862
0.4525
0.455547
0.45824
0.46078
0.463008
0.464855
0.466155
0.467163
0.46782
0.467405
0.465963
0.46384
0.461034
0.45733
0.452527
0.446495
0.439214
0.430747
0.42122
0.410813
0.399648
0.388352
0.377756
0.368547
0.360146
0.353296
0.345902
0.339147
0.33277
0.326209
0.32067
0.318878
0.315963
0.316152
0.318098
0.322212
0.325647
0.330768
0.332465
0.33624
2.60068
2.60052
2.60068
2.60094
2.60131
2.60184
2.60249
2.6033
2.60428
2.60543
2.60676
2.60828
2.61003
2.61201
2.61422
2.61665
2.61939
2.62236
2.62545
2.62898
2.6328
2.63646
2.64045
2.64495
2.64948
2.65368
2.65819
2.66331
2.66814
2.67281
2.677
2.68151
2.68677
2.69129
2.69565
2.69916
2.70325
2.70814
2.71163
2.71336
2.71466
2.71473
2.70957
2.68757
2.59008
2.31981
1.79953
1.4711
1.34907
1.2768
1.21873
1.14324
1.016
0.842691
0.652542
0.495384
0.413388
0.391411
0.395505
0.405054
0.413377
0.420148
0.425151
0.428732
0.431288
0.432571
0.433933
0.43567
0.437763
0.439713
0.442097
0.444132
0.447068
0.449266
0.451926
0.452802
0.455035
0.455666
0.457706
0.459553
0.461858
0.463992
0.466103
0.468017
0.469561
0.470644
0.471504
0.472182
0.471932
0.470584
0.468366
0.465564
0.462
0.457529
0.451976
0.445248
0.437371
0.428413
0.418546
0.407915
0.397029
0.38669
0.377739
0.369708
0.363081
0.356098
0.349713
0.343785
0.337645
0.332284
0.33059
0.328093
0.327872
0.32981
0.333468
0.336437
0.340929
0.342349
0.345741
2.60079
2.60062
2.60079
2.60106
2.60148
2.60205
2.60277
2.60366
2.60474
2.60602
2.60752
2.60924
2.61125
2.61354
2.6161
2.61898
2.62224
2.6258
2.62959
2.63395
2.63866
2.64328
2.64844
2.65428
2.66033
2.66605
2.67202
2.67897
2.68602
2.69278
2.69894
2.70524
2.71278
2.72013
2.7265
2.73187
2.73774
2.74507
2.75051
2.75304
2.75433
2.75317
2.74135
2.69736
2.53567
2.20927
1.72529
1.46486
1.35121
1.26175
1.17193
1.03274
0.850311
0.652093
0.493002
0.416304
0.395127
0.403587
0.413114
0.422689
0.430666
0.436665
0.440956
0.443923
0.445982
0.447085
0.447379
0.447871
0.449287
0.450643
0.452755
0.454599
0.457299
0.459567
0.462348
0.463332
0.465631
0.465711
0.467438
0.468206
0.469795
0.471302
0.472885
0.474338
0.475469
0.476226
0.476846
0.477396
0.477259
0.475975
0.473676
0.470814
0.467316
0.463062
0.457903
0.451666
0.444308
0.435877
0.426513
0.416394
0.405891
0.395768
0.387042
0.379335
0.372884
0.366302
0.360243
0.354723
0.349045
0.343909
0.342269
0.340481
0.339619
0.341425
0.344525
0.347176
0.351082
0.352339
0.355492
2.6009
2.60073
2.60091
2.60121
2.60166
2.60228
2.60306
2.60404
2.60522
2.60665
2.60833
2.61027
2.61254
2.61516
2.61808
2.62145
2.62528
2.62941
2.63397
2.63922
2.64481
2.65053
2.65698
2.66415
2.67175
2.67941
2.68698
2.69533
2.70471
2.71401
2.72292
2.73093
2.73972
2.74988
2.75904
2.76704
2.77513
2.78453
2.79192
2.7958
2.79835
2.79783
2.78676
2.71228
2.52941
2.04836
1.67612
1.46841
1.3283
1.20158
1.05486
0.859895
0.65332
0.491597
0.418963
0.400018
0.410386
0.420745
0.430931
0.439488
0.446193
0.451199
0.454806
0.457369
0.459152
0.460262
0.461062
0.460827
0.461906
0.462501
0.464113
0.465474
0.467347
0.46919
0.471908
0.473227
0.475875
0.476256
0.478369
0.478643
0.480046
0.480623
0.481586
0.482406
0.482984
0.483275
0.483479
0.4837
0.483518
0.482241
0.479854
0.476821
0.473337
0.469188
0.46427
0.458418
0.451514
0.443545
0.434655
0.425026
0.414937
0.405054
0.396493
0.389038
0.382736
0.376546
0.370791
0.365666
0.360451
0.355563
0.353976
0.352928
0.351339
0.352912
0.355517
0.357949
0.361227
0.362307
0.364996
2.60101
2.60084
2.60103
2.60135
2.60186
2.60252
2.60338
2.60444
2.60574
2.60731
2.60917
2.61136
2.6139
2.61686
2.62019
2.62405
2.62843
2.63321
2.63861
2.64472
2.65133
2.65828
2.66606
2.6746
2.68368
2.69334
2.70305
2.71315
2.72419
2.73594
2.74765
2.75897
2.76965
2.78078
2.7932
2.80452
2.81535
2.82713
2.83542
2.83927
2.84119
2.83341
2.79888
2.66885
2.45576
1.76006
1.72499
1.42903
1.24506
1.07838
0.869085
0.655228
0.490197
0.421084
0.403956
0.416594
0.427502
0.438077
0.446958
0.454049
0.459563
0.463758
0.466895
0.469221
0.470938
0.472155
0.473254
0.473067
0.474249
0.474635
0.475795
0.47691
0.477784
0.478811
0.481136
0.482488
0.485053
0.48565
0.488164
0.488673
0.490441
0.490281
0.491125
0.491543
0.49185
0.491709
0.491311
0.491069
0.490682
0.489352
0.486908
0.483655
0.480079
0.47597
0.471148
0.465517
0.458962
0.4514
0.442947
0.433774
0.424119
0.41452
0.406103
0.398834
0.392663
0.386852
0.381351
0.376626
0.371855
0.367222
0.365781
0.365215
0.36302
0.364298
0.366464
0.368614
0.371263
0.37222
0.374744
2.60114
2.60095
2.60115
2.60151
2.60204
2.60276
2.60369
2.60486
2.60629
2.60801
2.61006
2.61248
2.61534
2.61863
2.62241
2.62677
2.63177
2.63721
2.64347
2.65049
2.65817
2.66639
2.6756
2.68572
2.69626
2.70757
2.7197
2.7323
2.7456
2.75897
2.77315
2.7882
2.80218
2.81513
2.82898
2.84312
2.85948
2.8729
2.881
2.8857
2.88665
2.87861
2.80286
2.66185
2.2264
1.88745
1.59566
1.30963
1.09638
0.87806
0.655741
0.487111
0.420575
0.405103
0.419558
0.431223
0.442296
0.451595
0.459126
0.465166
0.470002
0.473816
0.476817
0.479145
0.480952
0.48239
0.483626
0.484145
0.48472
0.485995
0.48657
0.488399
0.488654
0.488551
0.49048
0.491727
0.493902
0.494442
0.497023
0.498055
0.500344
0.499918
0.501107
0.500952
0.50144
0.501281
0.500471
0.499684
0.498853
0.497386
0.494841
0.491382
0.487581
0.483405
0.478619
0.47308
0.46674
0.459512
0.451457
0.442693
0.433432
0.424119
0.415816
0.408689
0.402641
0.39718
0.391904
0.38764
0.383285
0.378887
0.377649
0.377231
0.374681
0.375588
0.377366
0.379182
0.381285
0.382246
0.384278
2.60126
2.60107
2.6013
2.60168
2.60226
2.60303
2.60404
2.60531
2.60685
2.60875
2.61101
2.61367
2.61682
2.62049
2.62472
2.62962
2.63521
2.64143
2.64852
2.65655
2.66535
2.67483
2.6855
2.6973
2.7098
2.72248
2.73665
2.752
2.76822
2.78418
2.80009
2.81797
2.83604
2.85306
2.86752
2.88476
2.90624
2.92139
2.92773
2.9312
2.92433
2.88688
2.74134
2.59561
1.87755
1.83058
1.36305
1.09194
0.8766
0.651373
0.483405
0.419091
0.405165
0.421279
0.433872
0.445494
0.455216
0.463083
0.469456
0.474677
0.478983
0.482533
0.485409
0.487788
0.48961
0.491267
0.492563
0.493812
0.494167
0.495931
0.496197
0.498418
0.499364
0.498628
0.500144
0.50129
0.502734
0.503002
0.505299
0.506753
0.509477
0.50915
0.510755
0.510042
0.510664
0.510627
0.510245
0.509321
0.50811
0.506389
0.503703
0.500032
0.495922
0.491561
0.486705
0.48119
0.474951
0.46793
0.460183
0.451767
0.442873
0.433849
0.425644
0.418631
0.412668
0.407515
0.402424
0.398701
0.394685
0.390453
0.389447
0.389098
0.386447
0.386893
0.388253
0.389638
0.391216
0.39226
0.393775
2.60139
2.6012
2.60144
2.60185
2.60246
2.60331
2.60439
2.60577
2.60746
2.60951