/*--------------------------------*- C++ -*----------------------------------*\
| =========                 |                                                 |
| \\      /  F ield         | OpenFOAM: The Open Source CFD Toolbox           |
|  \\    /   O peration     | Version:  2.2.x                                 |
|   \\  /    A nd           | Web:      www.OpenFOAM.org                      |
|    \\/     M anipulation  |                                                 |
\*---------------------------------------------------------------------------*/
FoamFile
{
    version     2.0;
    format      ascii;
    class       volScalarField;
    location    "1.15";
    object      p;
}
// * * * * * * * * * * * * * * * * * * * * * * * * * * * * * * * * * * * * * //

dimensions      [1 -1 -2 0 0 0 0];

internalField   nonuniform List<scalar> 
14161
(
0.199785
0.199802
0.199796
0.199787
0.199774
0.19976
0.199752
0.199749
0.199751
0.199759
0.199776
0.199812
0.199871
0.199959
0.200086
0.200255
0.200477
0.200766
0.201127
0.201564
0.202085
0.202695
0.203407
0.204216
0.205131
0.206163
0.207309
0.208561
0.209916
0.211346
0.212811
0.214361
0.216005
0.217723
0.219528
0.221381
0.223231
0.225121
0.227033
0.228895
0.230697
0.23242
0.234005
0.235813
0.23811
0.241356
0.24832
0.271125
0.359828
0.757151
1.25541
1.46492
1.51895
1.51269
1.48393
1.45753
1.43592
1.41744
1.40084
1.38571
1.3703
1.35525
1.3407
1.327
1.31461
1.30133
1.28928
1.27846
1.26893
1.2602
1.24992
1.24032
1.23132
1.22271
1.21391
1.20471
1.19408
1.18394
1.17405
1.16275
1.14975
1.13611
1.12293
1.10985
1.0981
1.0871
1.07605
1.06524
1.05539
1.04837
1.04334
1.0445
1.05155
1.05729
1.07013
1.0939
1.1347
1.1967
1.28502
1.40098
1.52234
1.63195
1.72156
1.79243
1.8459
1.88832
1.92147
1.94754
1.96845
1.98644
2.00121
2.01413
2.02467
2.03435
2.04317
2.05148
2.05807
2.06144
2.06944
0.199784
0.199802
0.199796
0.199787
0.199774
0.19976
0.199752
0.199748
0.19975
0.199758
0.199776
0.199811
0.199869
0.199958
0.200083
0.200254
0.200477
0.200765
0.201122
0.201557
0.202077
0.202691
0.2034
0.204209
0.205126
0.206155
0.207302
0.208552
0.209903
0.211334
0.212797
0.214352
0.215997
0.217717
0.21951
0.221367
0.22322
0.225108
0.227015
0.22887
0.230666
0.23238
0.233962
0.235741
0.238004
0.241231
0.247865
0.268953
0.352261
0.739776
1.23657
1.44223
1.49675
1.49644
1.47162
1.44769
1.42721
1.40903
1.3926
1.37694
1.36174
1.34643
1.33211
1.31863
1.3063
1.29398
1.28221
1.27185
1.26276
1.25371
1.2441
1.23433
1.22555
1.21731
1.20804
1.19835
1.18767
1.17719
1.16668
1.1557
1.14232
1.12817
1.11408
1.10013
1.08756
1.07711
1.06719
1.05925
1.0532
1.04982
1.04841
1.05123
1.06299
1.07921
1.10415
1.1454
1.20789
1.2927
1.39712
1.51323
1.62251
1.7131
1.78182
1.83595
1.87743
1.91163
1.9389
1.96107
1.97942
1.99585
2.00944
2.02141
2.03102
2.03969
2.04738
2.05473
2.0593
2.06026
2.06971
0.199784
0.199801
0.199795
0.199786
0.199773
0.199759
0.199751
0.199747
0.199748
0.199756
0.199773
0.199808
0.199866
0.199953
0.200078
0.200248
0.200471
0.200756
0.20111
0.201545
0.202064
0.202676
0.203382
0.20419
0.205104
0.206128
0.207272
0.208518
0.209866
0.211299
0.212771
0.214317
0.215957
0.217675
0.219457
0.221316
0.223173
0.225054
0.226951
0.228804
0.230593
0.232293
0.233864
0.235584
0.237832
0.24105
0.247343
0.268112
0.350272
0.737341
1.22988
1.43183
1.48776
1.49041
1.46726
1.44426
1.42426
1.40638
1.39003
1.37418
1.35871
1.34356
1.32914
1.31605
1.30333
1.29135
1.27958
1.26908
1.2598
1.25011
1.24094
1.23111
1.22216
1.21364
1.20382
1.19353
1.18279
1.17176
1.1606
1.14898
1.13496
1.12032
1.10536
1.09105
1.0794
1.07051
1.06371
1.0597
1.05756
1.05759
1.06204
1.07267
1.09202
1.11987
1.16088
1.21978
1.30172
1.39972
1.50716
1.60858
1.69609
1.76492
1.81789
1.86109
1.89555
1.92508
1.94904
1.96872
1.98534
2.00061
2.01307
2.02423
2.0332
2.04104
2.04756
2.05306
2.05639
2.05538
2.06496
0.199783
0.1998
0.199794
0.199785
0.199772
0.199757
0.199748
0.199744
0.199745
0.199752
0.199769
0.199802
0.199859
0.199946
0.200069
0.200236
0.200458
0.200739
0.20109
0.20152
0.202036
0.202648
0.203351
0.204155
0.205063
0.206081
0.207218
0.208455
0.209791
0.211224
0.21272
0.214253
0.215887
0.217595
0.219364
0.22122
0.22308
0.224946
0.226832
0.228677
0.230452
0.232134
0.233678
0.235323
0.237508
0.240566
0.246536
0.267181
0.353588
0.75941
1.24255
1.4423
1.49718
1.49861
1.47419
1.45152
1.43115
1.41307
1.39619
1.37971
1.36368
1.34804
1.33314
1.31899
1.30575
1.29311
1.28084
1.26936
1.25917
1.24881
1.23873
1.22849
1.21869
1.20918
1.19932
1.18809
1.17691
1.16461
1.152
1.13879
1.12441
1.11024
1.09723
1.08555
1.0766
1.06999
1.06577
1.06447
1.06773
1.07667
1.09334
1.11956
1.1586
1.21519
1.29006
1.38289
1.48541
1.58566
1.67433
1.74034
1.79201
1.83575
1.8718
1.90193
1.92627
1.94829
1.96722
1.9833
1.99715
2.00949
2.02024
2.02911
2.03602
2.0419
2.04646
2.05001
2.05235
2.0492
2.05956
0.199781
0.199799
0.199793
0.199783
0.19977
0.199755
0.199745
0.19974
0.19974
0.199746
0.199761
0.199794
0.199849
0.199933
0.200053
0.200218
0.200436
0.200712
0.201059
0.201482
0.201991
0.2026
0.203298
0.204093
0.204993
0.206003
0.207123
0.208351
0.209677
0.211109
0.212612
0.214147
0.215762
0.217458
0.219216
0.221052
0.222913
0.224767
0.226635
0.228478
0.23025
0.231925
0.23342
0.234975
0.237035
0.239716
0.244957
0.26348
0.351903
0.789603
1.26338
1.45938
1.51507
1.51497
1.48789
1.46437
1.44256
1.42299
1.40462
1.38649
1.36955
1.35307
1.3374
1.32167
1.30679
1.2928
1.27899
1.26638
1.25456
1.24382
1.23314
1.22228
1.21143
1.2006
1.19043
1.17872
1.16649
1.15226
1.13842
1.12481
1.11213
1.10124
1.09158
1.08449
1.07903
1.07524
1.07398
1.07976
1.09502
1.1201
1.15551
1.20708
1.27585
1.36143
1.45966
1.55835
1.65313
1.72583
1.7741
1.8104
1.84383
1.87347
1.90062
1.92427
1.94353
1.96183
1.97796
1.9915
2.00367
2.01477
2.02382
2.03144
2.03715
2.04133
2.04427
2.04573
2.04704
2.04249
2.05351
0.199779
0.199797
0.199791
0.199781
0.199768
0.199752
0.199741
0.199734
0.199733
0.199738
0.199752
0.199782
0.199834
0.199914
0.200032
0.200192
0.200404
0.200676
0.201015
0.201429
0.20193
0.202529
0.203223
0.204008
0.204895
0.205889
0.206994
0.208203
0.209519
0.210939
0.212444
0.214001
0.215586
0.21726
0.219004
0.220821
0.222676
0.224527
0.226378
0.228213
0.229988
0.231655
0.233096
0.234545
0.236445
0.238677
0.242895
0.256553
0.350518
0.817013
1.28807
1.47144
1.52702
1.53034
1.50367
1.47814
1.45554
1.43458
1.4145
1.39454
1.37491
1.35593
1.33743
1.31999
1.30301
1.28756
1.27229
1.25813
1.24485
1.23267
1.22178
1.21033
1.19837
1.18637
1.17476
1.16307
1.15013
1.13714
1.1243
1.11256
1.10283
1.09579
1.09132
1.08784
1.08679
1.08901
1.09838
1.11805
1.15156
1.20148
1.26903
1.3532
1.4487
1.54486
1.63875
1.71336
1.76461
1.80162
1.82901
1.85331
1.87755
1.89937
1.9206
1.93907
1.95594
1.97194
1.98581
1.99765
2.00824
2.01773
2.02596
2.03213
2.03665
2.03942
2.04099
2.04068
2.04095
2.03567
2.04669
0.199777
0.199795
0.199789
0.199778
0.199765
0.199748
0.199734
0.199726
0.199724
0.199728
0.19974
0.199767
0.199815
0.199891
0.200003
0.200158
0.200362
0.200626
0.200957
0.201361
0.20185
0.202432
0.203117
0.20389
0.204761
0.205738
0.206823
0.208012
0.209309
0.210719
0.212221
0.213779
0.215342
0.216991
0.218724
0.220517
0.222346
0.224203
0.226054
0.227902
0.229688
0.231337
0.232747
0.234094
0.235791
0.237649
0.241055
0.250086
0.354037
0.847327
1.31339
1.48205
1.53798
1.54525
1.5196
1.49232
1.46644
1.44101
1.41688
1.3938
1.37187
1.3508
1.3298
1.30996
1.29152
1.27461
1.25865
1.24289
1.22826
1.21434
1.20161
1.18988
1.17712
1.16525
1.15351
1.14299
1.13279
1.12309
1.11344
1.105
1.09975
1.0963
1.09521
1.09881
1.10766
1.12272
1.14954
1.19402
1.25714
1.33956
1.43396
1.52839
1.62097
1.6957
1.74722
1.78543
1.81482
1.83795
1.85799
1.87851
1.8973
1.91532
1.93238
1.94796
1.96353
1.97765
1.98968
2.00065
2.01047
2.019
2.02608
2.03117
2.03488
2.03664
2.03692
2.03503
2.03437
2.0289
2.03927
0.199775
0.199793
0.199786
0.199775
0.199761
0.199743
0.199727
0.199717
0.199713
0.199714
0.199724
0.199747
0.199791
0.199862
0.199968
0.200115
0.20031
0.200564
0.200885
0.201276
0.201749
0.202311
0.202979
0.203742
0.204589
0.205544
0.206604
0.207768
0.20904
0.210436
0.211925
0.213477
0.215034
0.216642
0.21835
0.220124
0.221947
0.223794
0.22565
0.227541
0.22935
0.23102
0.232467
0.233795
0.235407
0.237245
0.24042
0.246986
0.359748
0.869019
1.3301
1.49055
1.54253
1.55004
1.52357
1.49434
1.465
1.43681
1.40921
1.38227
1.35689
1.33323
1.31099
1.28972
1.26989
1.25144
1.23423
1.21801
1.20217
1.18775
1.17469
1.16336
1.15144
1.14048
1.13034
1.1219
1.11532
1.1099
1.10617
1.10444
1.10278
1.10515
1.11429
1.13032
1.15592
1.19501
1.25045
1.32665
1.41813
1.51128
1.60253
1.67708
1.72766
1.76435
1.79297
1.81689
1.83718
1.85528
1.87334
1.89083
1.90763
1.92382
1.93837
1.9529
1.96717
1.97997
1.99131
2.00149
2.01025
2.01806
2.02451
2.02908
2.03227
2.03295
2.03203
2.02911
2.02767
2.02222
2.03148
0.199772
0.19979
0.199783
0.199772
0.199757
0.199738
0.199719
0.199707
0.199699
0.199698
0.199705
0.199724
0.199762
0.199826
0.199923
0.200061
0.200245
0.200486
0.200794
0.201171
0.201625
0.202166
0.202805
0.203552
0.204379
0.2053
0.20633
0.207466
0.208708
0.210074
0.211541
0.213081
0.214646
0.216207
0.21788
0.21964
0.221454
0.223282
0.225167
0.227121
0.228964
0.230703
0.232288
0.233628
0.235241
0.237308
0.240702
0.247612
0.365412
0.877848
1.33605
1.49314
1.54011
1.54087
1.51117
1.48036
1.44862
1.41792
1.38849
1.35984
1.33219
1.30606
1.28218
1.25949
1.23783
1.21764
1.19875
1.18261
1.16687
1.15275
1.14113
1.13149
1.12373
1.11599
1.10977
1.10502
1.10251
1.10364
1.10533
1.11258
1.12114
1.13684
1.16092
1.19902
1.25235
1.32401
1.40889
1.4972
1.58502
1.65837
1.70764
1.74238
1.76901
1.79073
1.81061
1.82911
1.84621
1.86336
1.88015
1.89667
1.9126
1.92742
1.94093
1.9548
1.96754
1.97911
1.99002
1.99971
2.00806
2.01559
2.0218
2.02585
2.02873
2.02843
2.02667
2.02307
2.02103
2.01561
2.02352
0.199768
0.199787
0.199779
0.199768
0.199752
0.199732
0.199711
0.199694
0.199683
0.199679
0.199683
0.199697
0.199728
0.199784
0.199871
0.199997
0.200168
0.200396
0.200686
0.201043
0.201475
0.20199
0.202599
0.203319
0.204128
0.205013
0.206004
0.207103
0.208306
0.209627
0.211071
0.212592
0.214149
0.21567
0.217299
0.219032
0.22083
0.222647
0.22457
0.226619
0.228552
0.23038
0.232048
0.233502
0.2351
0.237469
0.241291
0.249381
0.366033
0.873624
1.33292
1.49363
1.53408
1.52234
1.48825
1.45399
1.41919
1.38587
1.354
1.32311
1.29256
1.26424
1.23754
1.21281
1.19092
1.16964
1.15291
1.13823
1.12651
1.11707
1.10905
1.10325
1.09914
1.09695
1.09617
1.09745
1.10074
1.11198
1.12468
1.14302
1.16946
1.20613
1.25775
1.32781
1.40929
1.49242
1.57433
1.64466
1.69243
1.72536
1.74856
1.76633
1.7827
1.79879
1.81569
1.83175
1.84765
1.86396
1.8805
1.8972
1.91261
1.92649
1.93968
1.95288
1.96502
1.97623
1.98695
1.99641
2.00451
2.01181
2.01779
2.02151
2.02425
2.02328
2.02107
2.01691
2.01442
2.00881
2.0156
0.199765
0.199783
0.199775
0.199763
0.199746
0.199725
0.199702
0.19968
0.199665
0.199655
0.199655
0.199664
0.199688
0.199734
0.199811
0.199923
0.200079
0.200287
0.200556
0.200894
0.2013
0.201785
0.202357
0.203036
0.203821
0.204676
0.205617
0.206669
0.207826
0.209092
0.210501
0.211995
0.213538
0.21504
0.216602
0.218291
0.220056
0.221846
0.223821
0.225997
0.228027
0.229933
0.231741
0.233338
0.234986
0.237644
0.242397
0.255457
0.366117
0.853379
1.31675
1.48335
1.51758
1.49148
1.4526
1.4132
1.37434
1.33756
1.30419
1.27034
1.23967
1.2086
1.18182
1.15798
1.13711
1.1212
1.10752
1.09826
1.09067
1.08574
1.08201
1.08061
1.08358
1.08911
1.09649
1.10941
1.12513
1.14688
1.17731
1.21671
1.26925
1.33786
1.41674
1.49652
1.57488
1.64113
1.68521
1.71456
1.73527
1.75038
1.76197
1.7731
1.78587
1.79921
1.81289
1.82675
1.8417
1.85806
1.87511
1.89223
1.9077
1.92207
1.9357
1.9488
1.96057
1.97147
1.98194
1.99134
1.99946
2.00668
2.01257
2.01605
2.01877
2.0175
2.01504
2.01059
2.00779
2.00185
2.00808
0.19976
0.199779
0.199771
0.199758
0.19974
0.199717
0.199692
0.199666
0.199644
0.199629
0.199623
0.199627
0.199642
0.199678
0.199741
0.199838
0.199976
0.200162
0.200404
0.200719
0.201094
0.201544
0.202077
0.202706
0.203454
0.204276
0.205163
0.206159
0.207261
0.208465
0.209808
0.21127
0.212785
0.21428
0.215761
0.217381
0.219094
0.220866
0.222891
0.22519
0.227311
0.229308
0.231231
0.23294
0.234713
0.237667
0.243878
0.266432
0.36322
0.806991
1.28551
1.46055
1.4896
1.44668
1.39772
1.35222
1.30897
1.27014
1.23343
1.2014
1.16882
1.14253
1.1194
1.10161
1.0877
1.07753
1.07019
1.06505
1.06293
1.0639
1.06606
1.07227
1.0841
1.10335
1.12457
1.15188
1.18533
1.22793
1.28641
1.35763
1.43478
1.51036
1.58524
1.64756
1.6893
1.71462
1.73042
1.74106
1.74979
1.75732
1.76469
1.77309
1.78344
1.79496
1.80695
1.82028
1.83541
1.85211
1.86933
1.88638
1.90173
1.91617
1.92969
1.94256
1.95401
1.9649
1.97526
1.9848
1.99302
2.00017
2.00601
2.00935
2.01221
2.01102
2.00853
2.00409
2.00105
1.99487
2.00089
0.199756
0.199774
0.199766
0.199752
0.199732
0.199708
0.19968
0.199651
0.199622
0.1996
0.199586
0.199583
0.19959
0.199613
0.19966
0.199739
0.199857
0.200019
0.200232
0.200513
0.200858
0.201266
0.201754
0.202331
0.203022
0.203803
0.204637
0.205562
0.206596
0.207732
0.208987
0.210412
0.211892
0.213356
0.214756
0.216286
0.217916
0.21968
0.22174
0.224131
0.226314
0.228385
0.230403
0.232239
0.234248
0.237458
0.244299
0.26624
0.354151
0.745897
1.23336
1.41596
1.43893
1.38456
1.32575
1.27527
1.23034
1.19133
1.15667
1.1275
1.10173
1.08384
1.06998
1.05957
1.05249
1.04676
1.04546
1.04405
1.04961
1.05903
1.074
1.09327
1.11993
1.1543
1.19688
1.2501
1.3156
1.38704
1.46138
1.53384
1.60543
1.66243
1.70028
1.72248
1.735
1.74176
1.74578
1.74928
1.75345
1.75799
1.76353
1.77079
1.77969
1.78962
1.80086
1.81361
1.82828
1.84458
1.86139
1.878
1.89327
1.908
1.92161
1.93434
1.94553
1.95636
1.96673
1.97647
1.98496
1.99224
1.99823
2.00165
2.00487
2.00409
2.00166
1.99737
1.99416
1.98772
1.99346
0.19975
0.199769
0.19976
0.199745
0.199724
0.199698
0.199667
0.199634
0.199599
0.199568
0.199544
0.199531
0.199528
0.199539
0.19957
0.199629
0.199721
0.199857
0.200038
0.200276
0.200584
0.200952
0.20139
0.201908
0.202522
0.20325
0.204039
0.204884
0.205834
0.206882
0.20804
0.209396
0.210828
0.212241
0.213585
0.214994
0.216519
0.218224
0.220261
0.222677
0.224867
0.226959
0.229019
0.231024
0.233378
0.236683
0.24409
0.265235
0.350086
0.67485
1.1375
1.3126
1.33486
1.28964
1.23727
1.19052
1.14892
1.11516
1.08773
1.06691
1.05399
1.04692
1.0393
1.03846
1.03389
1.03467
1.03853
1.0466
1.06523
1.09149
1.12581
1.16507
1.21615
1.28035
1.35118
1.42603
1.49931
1.57058
1.63678
1.68538
1.71676
1.7352
1.7446
1.74868
1.74982
1.75003
1.75047
1.75138
1.75373
1.75718
1.76195
1.76791
1.77539
1.78462
1.79534
1.80759
1.82184
1.83778
1.85424
1.87052
1.88569
1.90041
1.91377
1.92621
1.93712
1.94786
1.95808
1.96781
1.97645
1.98382
1.98992
1.99349
1.997
1.99666
1.99438
1.99022
1.98694
1.98028
1.98585
0.199744
0.199763
0.199754
0.199738
0.199715
0.199686
0.199652
0.199615
0.199575
0.199535
0.199498
0.199473
0.199457
0.199454
0.199468
0.199504
0.199568
0.199672
0.199819
0.200014
0.200269
0.200592
0.200972
0.201427
0.201962
0.202606
0.203339
0.204112
0.204961
0.205902
0.206957
0.208201
0.209565
0.210897
0.212193
0.213445
0.214831
0.216423
0.218358
0.22069
0.222793
0.224822
0.226818
0.228894
0.231523
0.234874
0.243341
0.266457
0.366131
0.63745
1.01288
1.17419
1.20356
1.18811
1.15007
1.11188
1.08105
1.05506
1.04208
1.03381
1.03128
1.03417
1.02768
1.03719
1.03566
1.0523
1.06984
1.09917
1.13923
1.19341
1.25613
1.32368
1.39774
1.47285
1.54474
1.61533
1.67206
1.71328
1.73818
1.75113
1.7571
1.75978
1.75886
1.75665
1.7543
1.75267
1.75217
1.75201
1.75353
1.7564
1.76003
1.76528
1.77212
1.78052
1.79035
1.802
1.81556
1.8309
1.84667
1.86238
1.87737
1.89195
1.90506
1.91734
1.92815
1.93883
1.94889
1.95853
1.96728
1.97472
1.98094
1.98476
1.98851
1.98862
1.98663
1.98264
1.97939
1.97269
1.97811
0.199738
0.199757
0.199747
0.199729
0.199704
0.199673
0.199635
0.199593
0.199547
0.199499
0.199451
0.19941
0.199378
0.199357
0.199352
0.199365
0.199399
0.199465
0.199574
0.199722
0.199917
0.200183
0.200508
0.200889
0.201341
0.201875
0.202529
0.203234
0.20397
0.204792
0.205724
0.206819
0.208087
0.209311
0.21051
0.211645
0.212898
0.214289
0.216015
0.218092
0.219969
0.221793
0.223542
0.225416
0.22766
0.230852
0.240655
0.268888
0.396887
0.632263
0.921891
1.04071
1.07976
1.08586
1.0765
1.04645
1.03727
1.01951
1.0271
1.02628
1.03284
1.03864
1.04568
1.07219
1.08667
1.12771
1.17858
1.23767
1.30531
1.38211
1.45799
1.52922
1.60312
1.66288
1.70782
1.7376
1.75669
1.76754
1.77158
1.7719
1.76921
1.76704
1.7627
1.75891
1.7559
1.7539
1.75299
1.75267
1.75382
1.75558
1.75876
1.76347
1.76959
1.77703
1.78605
1.79708
1.80994
1.8244
1.83935
1.85446
1.86909
1.88333
1.89609
1.90818
1.91881
1.92932
1.93914
1.94867
1.95744
1.96494
1.9713
1.9755
1.97943
1.9801
1.97849
1.97463
1.97144
1.96492
1.96998
0.199731
0.19975
0.199739
0.19972
0.199693
0.199658
0.199616
0.199568
0.199516
0.19946
0.199401
0.199343
0.199291
0.199248
0.199218
0.199206
0.19921
0.199237
0.199297
0.199394
0.19953
0.199724
0.199984
0.200283
0.200642
0.201069
0.201613
0.202231
0.202865
0.203554
0.204335
0.205259
0.206373
0.207462
0.208528
0.209537
0.210645
0.211828
0.213264
0.214888
0.216478
0.217932
0.219404
0.221172
0.223162
0.227409
0.242063
0.28963
0.470824
0.71907
0.901471
0.979163
1.00371
1.01571
1.02266
1.01701
1.02997
1.02005
1.0371
1.03699
1.06895
1.0843
1.12896
1.16874
1.22941
1.30045
1.37906
1.4521
1.52566
1.59698
1.6559
1.70164
1.73544
1.7572
1.77018
1.77799
1.78147
1.7827
1.77913
1.77649
1.77157
1.76769
1.7633
1.75972
1.75681
1.75454
1.75338
1.75314
1.75385
1.75522
1.75806
1.7621
1.76734
1.77381
1.78196
1.79219
1.80427
1.81775
1.83188
1.84651
1.86072
1.87453
1.88691
1.8988
1.90918
1.91944
1.92903
1.93839
1.94707
1.95463
1.96112
1.96576
1.96987
1.9711
1.9699
1.96626
1.96318
1.95686
1.96166
0.199723
0.199743
0.19973
0.19971
0.19968
0.199642
0.199595
0.199541
0.199481
0.199415
0.199345
0.199272
0.1992
0.199131
0.199071
0.199026
0.198995
0.198983
0.198994
0.199032
0.199104
0.199223
0.199395
0.199608
0.199868
0.200187
0.200594
0.201089
0.201622
0.202169
0.202784
0.203524
0.20442
0.205346
0.206251
0.207103
0.208045
0.209057
0.21013
0.211262
0.212336
0.213432
0.214661
0.215709
0.217774
0.222972
0.244253
0.313703
0.551838
0.784031
0.882934
0.914067
0.91991
0.921145
0.921093
0.93534
0.965584
1.00254
1.05422
1.09689
1.16512
1.22889
1.29943
1.37856
1.45319
1.53017
1.59787
1.65436
1.69798
1.72975
1.75105
1.76565
1.77634
1.78283
1.78542
1.78691
1.7847
1.78286
1.77709
1.77338
1.76871
1.76489
1.76169
1.75883
1.75607
1.75414
1.75342
1.75354
1.75413
1.75532
1.7576
1.76086
1.76536
1.77121
1.77863
1.78792
1.79896
1.81142
1.82466
1.83866
1.85226
1.86549
1.87746
1.88911
1.89918
1.90914
1.91844
1.92758
1.93611
1.94381
1.95041
1.95554
1.95983
1.9616
1.96084
1.95753
1.95457
1.94859
1.95283
0.199714
0.199735
0.199721
0.199699
0.199667
0.199624
0.199572
0.199512
0.199442
0.199366
0.199282
0.199194
0.199101
0.199007
0.198913
0.198831
0.198756
0.198694
0.198652
0.19863
0.198637
0.198673
0.198742
0.198854
0.199018
0.199224
0.199485
0.199808
0.200203
0.200633
0.201088
0.201622
0.202242
0.202969
0.20369
0.204376
0.205092
0.205852
0.206589
0.207298
0.208044
0.208799
0.209398
0.210358
0.212899
0.221134
0.255638
0.367234
0.64147
0.82557
0.876696
0.884843
0.880728
0.879904
0.885537
0.911575
0.968627
1.05611
1.15956
1.26606
1.36921
1.46171
1.53826
1.60457
1.65921
1.69887
1.72644
1.74614
1.76012
1.76993
1.77615
1.77989
1.78208
1.78299
1.78059
1.78017
1.77716
1.77552
1.77128
1.76838
1.76485
1.7621
1.75943
1.7566
1.75406
1.75283
1.75255
1.75267
1.7533
1.75458
1.75651
1.75928
1.76321
1.76849
1.77529
1.78376
1.79379
1.80522
1.8175
1.83069
1.84351
1.8562
1.86783
1.87919
1.8889
1.89846
1.90737
1.91627
1.92471
1.93266
1.93935
1.94494
1.94931
1.95156
1.95126
1.94849
1.9457
1.9399
1.94383
0.199705
0.199726
0.199711
0.199687
0.199652
0.199605
0.199548
0.199479
0.1994
0.199312
0.199214
0.199107
0.198993
0.198872
0.198745
0.198622
0.198499
0.198383
0.198278
0.198182
0.19811
0.198059
0.19804
0.198045
0.198082
0.198157
0.198279
0.198433
0.198639
0.198932
0.199238
0.199558
0.199932
0.200357
0.200863
0.201375
0.201901
0.202398
0.202851
0.203266
0.203693
0.204005
0.204427
0.205386
0.208364
0.220692
0.268397
0.447382
0.7144
0.835903
0.869618
0.87537
0.872261
0.881256
0.90349
0.957075
1.05891
1.21189
1.3672
1.50874
1.61075
1.67175
1.70841
1.73077
1.74601
1.75709
1.76501
1.77052
1.77405
1.77561
1.77543
1.77338
1.77236
1.77227
1.77092
1.77108
1.76906
1.76847
1.76518
1.7631
1.76046
1.75831
1.75598
1.75363
1.75204
1.7516
1.75141
1.75146
1.75202
1.75317
1.7548
1.75728
1.76082
1.76563
1.77184
1.7795
1.78862
1.7991
1.81047
1.82269
1.83466
1.84682
1.85812
1.86904
1.87825
1.88737
1.89586
1.90453
1.91302
1.92122
1.92797
1.93394
1.93836
1.94103
1.94119
1.93912
1.93647
1.93101
1.93446
0.199695
0.199716
0.1997
0.199674
0.199635
0.199584
0.199521
0.199444
0.199355
0.199253
0.199138
0.199012
0.198874
0.198724
0.198562
0.198399
0.198225
0.198047
0.197875
0.197705
0.197539
0.197391
0.19726
0.197147
0.197053
0.196988
0.196961
0.196959
0.196992
0.197074
0.197187
0.197299
0.197433
0.197613
0.197857
0.198168
0.198448
0.198688
0.198889
0.199038
0.199109
0.199208
0.199472
0.200574
0.204345
0.222202
0.281706
0.514013
0.743046
0.829474
0.862186
0.878615
0.888926
0.916973
0.968265
1.07871
1.23876
1.4276
1.59989
1.70928
1.74762
1.75905
1.76275
1.76513
1.76677
1.76813
1.76914
1.76844
1.76706
1.76583
1.76472
1.76355
1.76193
1.76135
1.76018
1.76057
1.75922
1.75942
1.75769
1.75679
1.75529
1.75389
1.75199
1.75011
1.74885
1.74827
1.74779
1.74761
1.74856
1.75004
1.75204
1.75464
1.758
1.76239
1.76798
1.77489
1.78312
1.79266
1.80323
1.81454
1.82573
1.83736
1.84816
1.85851
1.86723
1.87594
1.88409
1.89261
1.90114
1.90948
1.91626
1.92256
1.92708
1.93018
1.93071
1.92939
1.9269
1.9217
1.92499
0.199684
0.199705
0.199689
0.19966
0.199618
0.199562
0.199491
0.199406
0.199306
0.19919
0.199057
0.198909
0.198745
0.198562
0.198364
0.198156
0.197928
0.197686
0.197447
0.19719
0.196922
0.19668
0.196431
0.196179
0.195946
0.195743
0.195529
0.195343
0.195192
0.195075
0.194965
0.194848
0.194769
0.194723
0.19475
0.194777
0.194755
0.194726
0.19474
0.194788
0.19486
0.195048
0.195632
0.197655
0.204423
0.233604
0.321706
0.569214
0.757979
0.824732
0.866729
0.89229
0.921436
0.978188
1.08912
1.26001
1.46176
1.64632
1.75603
1.78318
1.78464
1.77657
1.7714
1.76662
1.76251
1.75945
1.75746
1.756
1.75473
1.75365
1.75202
1.751
1.74935
1.7488
1.74813
1.74928
1.74865
1.7494
1.74866
1.74847
1.74796
1.74727
1.74611
1.74504
1.74438
1.7439
1.74337
1.74329
1.74427
1.74591
1.74803
1.75066
1.75399
1.75817
1.76337
1.76969
1.77717
1.78589
1.79571
1.80629
1.81682
1.82792
1.83802
1.8477
1.85598
1.86437
1.87225
1.88064
1.8891
1.89729
1.90412
1.9108
1.91552
1.91901
1.91986
1.91918
1.91691
1.91225
1.91524
0.199672
0.199694
0.199676
0.199645
0.199599
0.199538
0.19946
0.199366
0.199253
0.199122
0.19897
0.198799
0.198606
0.198388
0.198149
0.197894
0.197606
0.197297
0.196986
0.196638
0.196266
0.195917
0.195545
0.195145
0.194761
0.194401
0.19401
0.19362
0.193261
0.192934
0.192626
0.192275
0.191948
0.191674
0.191438
0.191215
0.190917
0.190641
0.190476
0.190424
0.190406
0.190544
0.191186
0.193696
0.20361
0.244427
0.384848
0.614485
0.74916
0.82482
0.876787
0.916057
0.977994
1.09311
1.27138
1.48071
1.67006
1.77561
1.79862
1.79254
1.77917
1.76934
1.76144
1.75566
1.75159
1.74843
1.74565
1.74307
1.74078
1.73892
1.73723
1.7363
1.73499
1.7347
1.73462
1.73664
1.73653
1.73798
1.73813
1.73842
1.73874
1.73883
1.73862
1.73852
1.73845
1.73829
1.73812
1.7382
1.73916
1.74096
1.74322
1.74593
1.74921
1.7532
1.75804
1.76386
1.77074
1.77873
1.78784
1.79774
1.80772
1.81822
1.82763
1.83662
1.84455
1.85264
1.86029
1.86846
1.87668
1.88462
1.89164
1.89869
1.9037
1.90745
1.90868
1.90858
1.90667
1.90251
1.9052
0.19966
0.199682
0.199663
0.199629
0.199579
0.199512
0.199427
0.199322
0.199197
0.19905
0.198878
0.198682
0.198457
0.198202
0.197921
0.197611
0.197261
0.196883
0.196492
0.196046
0.195568
0.195108
0.194606
0.194048
0.193495
0.192976
0.192412
0.191787
0.191204
0.190653
0.190152
0.189595
0.188971
0.188439
0.187936
0.187532
0.187029
0.186467
0.186075
0.185896
0.18579
0.185891
0.186772
0.190219
0.205296
0.25874
0.432039
0.629818
0.751605
0.838618
0.897634
0.965336
1.08789
1.27394
1.49016
1.68202
1.78305
1.8034
1.79217
1.77712
1.76438
1.75412
1.74627
1.74033
1.73577
1.7324
1.72968
1.72726
1.72516
1.72374
1.72237
1.72167
1.7201
1.71933
1.71854
1.72033
1.72017
1.72253
1.72344
1.72481
1.72627
1.72758
1.72861
1.72958
1.73032
1.73084
1.73138
1.73193
1.73306
1.73502
1.7376
1.7405
1.74382
1.74767
1.75227
1.75774
1.76415
1.77155
1.77996
1.78921
1.79866
1.80835
1.81717
1.82554
1.83306
1.84079
1.84822
1.85604
1.8639
1.8717
1.87893
1.88616
1.89149
1.89544
1.89725
1.89765
1.89612
1.89258
1.89495
0.199646
0.199669
0.199648
0.199612
0.199557
0.199484
0.199391
0.199276
0.199137
0.198973
0.198779
0.198556
0.1983
0.198006
0.197678
0.197312
0.196896
0.196447
0.195966
0.195417
0.194831
0.194252
0.193606
0.192885
0.19215
0.191459
0.190716
0.189872
0.189033
0.18824
0.187527
0.186766
0.18588
0.185032
0.184305
0.183709
0.18301
0.182187
0.181586
0.181325
0.18124
0.181522
0.183308
0.189782
0.215389
0.291031
0.473425
0.651069
0.772968
0.865798
0.944279
1.07607
1.26925
1.49366
1.6883
1.7844
1.80145
1.78624
1.77151
1.75771
1.7464
1.73756
1.7308
1.72562
1.72163
1.7186
1.71619
1.71384
1.71106
1.70905
1.70672
1.70526
1.70341
1.70245
1.70123
1.7026
1.70216
1.705
1.70616
1.70899
1.71134
1.71375
1.71609
1.71824
1.72007
1.72156
1.72299
1.72419
1.72557
1.72774
1.73063
1.73378
1.73724
1.7411
1.7456
1.75085
1.75695
1.76392
1.7718
1.78044
1.78941
1.79828
1.80661
1.81444
1.82153
1.82882
1.83603
1.84354
1.85093
1.85863
1.86595
1.87308
1.87882
1.8832
1.88556
1.88645
1.8854
1.88239
1.88411
0.199632
0.199656
0.199633
0.199593
0.199534
0.199455
0.199353
0.199227
0.199074
0.198891
0.198675
0.198425
0.198133
0.197798
0.197424
0.196995
0.196511
0.195987
0.195411
0.194755
0.194058
0.193345
0.192547
0.191669
0.190748
0.18983
0.188915
0.187906
0.1868
0.185722
0.184702
0.183784
0.182751
0.181602
0.180583
0.179709
0.178788
0.17777
0.176989
0.176605
0.176413
0.1767
0.178643
0.189195
0.22121
0.340459
0.50754
0.673215
0.812613
0.922115
1.05768
1.26027
1.49255
1.69225
1.78406
1.79777
1.77954
1.76365
1.74886
1.73673
1.72729
1.7201
1.71473
1.71067
1.70751
1.70502
1.70297
1.70117
1.6977
1.69535
1.69231
1.69029
1.6884
1.68718
1.68528
1.68559
1.68451
1.6869
1.68746
1.69065
1.69312
1.69688
1.70038
1.70394
1.70717
1.70986
1.71238
1.71451
1.71639
1.71889
1.72219
1.72578
1.72953
1.73359
1.73815
1.74335
1.74928
1.75597
1.76343
1.7715
1.77993
1.7881
1.79597
1.80326
1.80995
1.81672
1.82366
1.83087
1.83788
1.84547
1.85269
1.85966
1.86587
1.87075
1.8736
1.87497
1.87443
1.87181
1.87342
0.199617
0.199641
0.199617
0.199574
0.19951
0.199424
0.199313
0.199175
0.199007
0.198805
0.198566
0.198285
0.197958
0.197581
0.197154
0.196664
0.196109
0.195507
0.194828
0.194065
0.193246
0.192387
0.191431
0.190392
0.1893
0.18815
0.187001
0.185808
0.184517
0.183168
0.181844
0.180587
0.179384
0.178135
0.176782
0.175569
0.174393
0.17317
0.172337
0.171987
0.171934
0.173153
0.178025
0.196999
0.240022
0.434192
0.51909
0.728572
0.886837
1.03687
1.25081
1.4903
1.69591
1.78387
1.7946
1.77338
1.75658
1.7412
1.72863
1.71879
1.71117
1.70531
1.70077
1.69722
1.6944
1.69215
1.69021
1.68881
1.68592
1.68336
1.68007
1.67695
1.67474
1.67341
1.67085
1.67012
1.66852
1.67038
1.67026
1.67267
1.67451
1.6792
1.68324
1.68785
1.69193
1.69588
1.69973
1.70301
1.70567
1.70869
1.71243
1.71661
1.7208
1.72518
1.72998
1.73527
1.74118
1.74767
1.75477
1.76232
1.77016
1.77778
1.78517
1.79197
1.79833
1.80452
1.8112
1.81799
1.82471
1.83214
1.83906
1.84583
1.8527
1.85803
1.86138
1.86317
1.86299
1.86131
1.86212
0.199601
0.199626
0.1996
0.199554
0.199485
0.199392
0.199271
0.199121
0.198937
0.198714
0.19845
0.198139
0.197774
0.197353
0.196873
0.196317
0.195689
0.195001
0.19422
0.193346
0.1924
0.191391
0.190269
0.189051
0.187794
0.186456
0.185039
0.183584
0.182063
0.180551
0.178965
0.177321
0.175807
0.17441
0.172953
0.171435
0.169758
0.168418
0.16765
0.167271
0.167432
0.169015
0.178941
0.203386
0.293207
0.418977
0.611542
0.835064
1.02313
1.24312
1.49156
1.70077
1.78546
1.79284
1.76852
1.75061
1.73424
1.7209
1.71045
1.70232
1.69595
1.69092
1.68699
1.68391
1.68146
1.67944
1.67772
1.67646
1.67448
1.67172
1.66913
1.66519
1.66237
1.66105
1.65792
1.65612
1.65414
1.65527
1.65439
1.65567
1.65664
1.66132
1.66473
1.67035
1.67527
1.68018
1.6849
1.68941
1.69324
1.69693
1.70127
1.70611
1.71096
1.71582
1.72095
1.72648
1.73249
1.73891
1.74574
1.75287
1.76021
1.76735
1.77426
1.78062
1.78662
1.79226
1.7986
1.80483
1.81127
1.81851
1.82512
1.83183
1.83925
1.84501
1.84888
1.85096
1.85129
1.85042
1.85119
0.199584
0.19961
0.199582
0.199532
0.199458
0.199357
0.199227
0.199064
0.198863
0.19862
0.19833
0.197986
0.197583
0.197116
0.196578
0.195957
0.195254
0.194473
0.193588
0.192596
0.191516
0.19036
0.189072
0.187666
0.186195
0.184707
0.183067
0.181325
0.179514
0.177758
0.176006
0.174084
0.172185
0.17042
0.168954
0.167143
0.165033
0.163589
0.163032
0.162858
0.163996
0.168974
0.188841
0.22126
0.392212
0.477561
0.779467
1.02176
1.23611
1.49028
1.70169
1.78652
1.79251
1.76704
1.74788
1.7308
1.71658
1.70514
1.69605
1.68875
1.68281
1.67798
1.67403
1.67081
1.66832
1.66634
1.66467
1.66337
1.66214
1.65954
1.65754
1.65417
1.65105
1.6495
1.64614
1.64329
1.64107
1.6415
1.64009
1.64015
1.64005
1.6442
1.64689
1.65268
1.65771
1.66352
1.66902
1.67437
1.67916
1.68376
1.68878
1.69437
1.69996
1.70544
1.71103
1.71687
1.72307
1.72955
1.73624
1.74304
1.75
1.75673
1.76323
1.76915
1.7748
1.77992
1.78592
1.79136
1.79762
1.80456
1.81088
1.81756
1.8255
1.8315
1.83602
1.83861
1.83968
1.83947
1.84017
0.199567
0.199593
0.199563
0.19951
0.19943
0.199322
0.199181
0.199004
0.198786
0.198521
0.198204
0.197827
0.197384
0.196869
0.196272
0.195584
0.194806
0.193927
0.192937
0.191829
0.190606
0.189295
0.187853
0.186261
0.18456
0.182842
0.181052
0.179055
0.176922
0.174817
0.172867
0.170792
0.168533
0.166345
0.164478
0.162397
0.160085
0.158521
0.157802
0.157686
0.159179
0.170535
0.187143
0.317793
0.383191
0.712622
1.00666
1.23165
1.48926
1.70101
1.78439