/*--------------------------------*- C++ -*----------------------------------*\
| =========                 |                                                 |
| \\      /  F ield         | OpenFOAM: The Open Source CFD Toolbox           |
|  \\    /   O peration     | Version:  2.2.x                                 |
|   \\  /    A nd           | Web:      www.OpenFOAM.org                      |
|    \\/     M anipulation  |                                                 |
\*---------------------------------------------------------------------------*/
FoamFile
{
    version     2.0;
    format      ascii;
    class       surfaceScalarField;
    location    "2.05";
    object      cfmax;
}
// * * * * * * * * * * * * * * * * * * * * * * * * * * * * * * * * * * * * * //

dimensions      [0 3 -1 0 0 0 0];

internalField   nonuniform List<scalar> 
28084
(
0.00126313
0.00118201
0.00116374
0.00115846
0.00116819
0.00119858
0.0012033
0.00120462
0.00119025
0.00116264
0.00114175
0.00112346
0.00111993
0.00113316
0.00115323
0.00117597
0.00118798
0.00119526
0.00118163
0.00116661
0.00116433
0.0011653
0.00118996
0.00120312
0.00121807
0.00123283
0.00124968
0.00126935
0.00131832
0.00143047
0.00115555
0.00100704
0.00102637
0.0010277
0.00101394
0.00100269
0.00100016
0.000999645
0.00100073
0.00100259
0.0010044
0.00100511
0.00100466
0.00100211
0.00099869
0.00100855
0.00101842
0.00102838
0.00103783
0.00104529
0.00105237
0.00106016
0.00106936
0.00107789
0.00108686
0.00109575
0.00110415
0.00111268
0.00111779
0.00111845
0.00111615
0.00111269
0.0011105
0.00110654
0.00110797
0.00110895
0.00110908
0.00110948
0.00110975
0.00110856
0.00110803
0.00111152
0.00111895
0.00112651
0.00113717
0.00114983
0.00116025
0.00116963
0.00117301
0.00117025
0.00116383
0.00115427
0.0011418
0.00112753
0.0011133
0.00110131
0.00108918
0.0010771
0.00106633
0.00105568
0.00104202
0.00102437
0.00100199
0.000970258
0.000935026
0.000898661
0.000864781
0.000841026
0.000817114
0.000802394
0.000793548
0.000786045
0.000779992
0.000774543
0.000768347
0.000763247
0.000762694
0.000764131
0.000765011
0.00076399
0.000760519
0.000756219
0.000751803
0.000750729
0.000749102
0.000744326
0.00074442
0.000757408
0.00297394
0.00351834
0.00104043
0.00340887
0.00128229
0.00337815
0.00131732
0.00338729
0.00127982
0.00338415
0.00123153
0.00316137
0.00115522
0.00301604
0.00110088
0.00296366
0.00108873
0.00300142
0.00110332
0.00308255
0.00116177
0.00295798
0.00124475
0.00288607
0.00126154
0.00282893
0.00126096
0.00278864
0.00124536
0.00262875
0.00119453
0.00244543
0.00111833
0.00235678
0.0011088
0.00229444
0.00111991
0.00228774
0.00114649
0.00228136
0.00121264
0.00219442
0.00127718
0.00213467
0.00129281
0.0020632
0.00129256
0.00196582
0.00128147
0.00184342
0.00125568
0.00175683
0.0012426
0.00168394
0.00124788
0.0016318
0.00126202
0.0016015
0.00127394
0.0015651
0.0012976
0.00117193
0.000950371
0.00108716
0.000846594
0.00101513
0.000812204
0.000956417
0.00078993
0.000902628
0.00078143
0.000852696
0.000782093
0.000805281
0.000785213
0.000763566
0.000788256
0.00072345
0.000790487
0.000684102
0.000791816
0.000645578
0.0007922
0.000608402
0.00079216
0.000572506
0.000791742
0.000540477
0.000791498
0.000544794
0.000791512
0.000545465
0.000800921
0.000545168
0.000809609
0.000545058
0.000818657
0.00054481
0.000827951
0.000545087
0.000837545
0.000545034
0.000847553
0.000545631
0.000858051
0.000546069
0.000869042
0.000546863
0.000880676
0.000548259
0.000892777
0.000550253
0.00090547
0.000552662
0.000918634
0.000554606
0.000931428
0.000556298
0.0009438
0.000560504
0.000955864
0.000563829
0.000967509
0.000567064
0.000978788
0.000569991
0.000990226
0.00057191
0.00100135
0.000575985
0.00101232
0.000580376
0.00102343
0.000585835
0.00103354
0.00059029
0.00104113
0.000597086
0.00104726
0.000602881
0.00105089
0.000604051
0.00105279
0.000606002
0.00105334
0.000608716
0.00105261
0.000612894
0.00105145
0.000616775
0.001049
0.000618242
0.0010446
0.000617419
0.00103689
0.000612727
0.00102515
0.000613003
0.00101176
0.000615147
0.000999646
0.000618444
0.000988912
0.000621538
0.000978654
0.000623389
0.000967304
0.000623661
0.000954098
0.00062376
0.00094009
0.000624825
0.000925919
0.000625209
0.000910768
0.000624957
0.000894951
0.000624255
0.000878137
0.00062488
0.000860377
0.000624365
0.000841119
0.000624244
0.000820006
0.000622778
0.000796956
0.000621322
0.000774678
0.000621686
0.000755381
0.000617411
0.00073946
0.000612607
0.000725088
0.000610206
0.00071388
0.000609376
0.000706634
0.000610956
0.000700252
0.000611766
0.000695435
0.000611275
0.000691364
0.000610949
0.000689023
0.000612923
0.000687921
0.000615014
0.000687615
0.000616811
0.000687374
0.000619838
0.000687064
0.000623928
0.000687056
0.000629207
0.000688063
0.000635172
0.000689562
0.000639473
0.000692125
0.000643572
0.000693638
0.000643325
0.000694564
0.000651174
0.000695842
0.000662951
0.000697397
0.00067433
0.000702175
0.000672131
0.000712169
0.000716516
0.000724373
0.00305245
0.00351005
0.00136001
0.00303365
0.00107862
0.00301933
0.00103933
0.00315303
0.00108056
0.00343246
0.00117315
0.00324273
0.00132118
0.00305841
0.00140709
0.00297022
0.00138177
0.00300352
0.00134938
0.00310305
0.00127732
0.0028297
0.00114527
0.00265461
0.001106
0.00263371
0.00111776
0.00269687
0.00116271
0.00266091
0.0012576
0.00249607
0.00139103
0.00237271
0.00142347
0.00229043
0.00140349
0.00230111
0.00136953
0.00225895
0.00129503
0.00208913
0.00121741
0.00198965
0.0012198
0.00195615
0.00124987
0.00194005
0.00130077
0.00185289
0.00137515
0.00175333
0.00141765
0.00167661
0.00143185
0.00160889
0.00143182
0.00156292
0.00140298
0.00146483
0.00136324
0.00107832
0.00088737
0.00101603
0.000798261
0.000927749
0.000757502
0.000858
0.000737176
0.000803518
0.000728817
0.000755048
0.000726699
0.000715494
0.000728682
0.000677263
0.000731353
0.00064081
0.000734378
0.000606963
0.000738001
0.000575564
0.000741578
0.00054652
0.000745943
0.000519324
0.000751225
0.000493072
0.000756286
0.000504329
0.000760348
0.000507044
0.000771845
0.000509454
0.000782812
0.000511451
0.00079381
0.000513326
0.000805155
0.000515204
0.000817082
0.000517221
0.000829682
0.000519441
0.00084302
0.00052191
0.00085722
0.000524748
0.000872352
0.000528285
0.000888563
0.000532019
0.00090575
0.00053492
0.000922638
0.000536907
0.000938566
0.000538488
0.000953301
0.000540588
0.00096706
0.000543213
0.000980038
0.000546539
0.000992044
0.000550368
0.00100285
0.000554774
0.00101162
0.000557991
0.00101908
0.000559351
0.0010243
0.000559843
0.00102726
0.00055936
0.00102769
0.000559421
0.00102663
0.000558898
0.00102348
0.000558466
0.00101915
0.000557764
0.00101352
0.000556792
0.00100719
0.000557103
0.00100043
0.000558754
0.000993522
0.000560631
0.000985562
0.000564285
0.000977098
0.000569418
0.000968011
0.000572698
0.000959476
0.000575179
0.000948391
0.000575262
0.000933701
0.000576679
0.000914668
0.000577294
0.000897208
0.000577664
0.000879836
0.000577814
0.000862555
0.00057913
0.000845873
0.000579556
0.000829073
0.000579954
0.000812079
0.000580493
0.000794512
0.000582403
0.000776345
0.000584833
0.000757586
0.0005878
0.000737986
0.000589875
0.000717609
0.000592081
0.000698152
0.000593787
0.000680765
0.000590894
0.000665806
0.000588378
0.000653295
0.000587818
0.000645856
0.000589803
0.000642932
0.000593278
0.000642311
0.00059646
0.000643477
0.000598013
0.000646674
0.0005994
0.000650602
0.000602146
0.000654609
0.00060479
0.000658527
0.000607326
0.00066216
0.000610953
0.000666191
0.000616396
0.000670134
0.000623635
0.000674032
0.000631866
0.000678295
0.000640677
0.000682616
0.000649557
0.000685233
0.000656747
0.000686744
0.000671381
0.00068654
0.000684006
0.000686533
0.000693545
0.000691086
0.000685668
0.000700336
0.000739958
0.000714082
0.00272481
0.00351047
0.000998814
0.0030479
0.00144346
0.00298762
0.00145052
0.00316811
0.00140072
0.00343712
0.00131151
0.00305605
0.00117057
0.0027832
0.00106282
0.00268456
0.0010686
0.00283857
0.00108279
0.0031221
0.00120682
0.0028194
0.00140425
0.0026119
0.00145495
0.00264302
0.0014484
0.00271441
0.00140713
0.00266695
0.0013186
0.00235791
0.00114751
0.00218356
0.00114281
0.00211862
0.00116077
0.00220028
0.00119211
0.0022618
0.00132854
0.00207767
0.00148091
0.00196923
0.00151027
0.00196059
0.00150657
0.00196084
0.00148147
0.00186129
0.00141953
0.00173866
0.00137155
0.00165481
0.00136404
0.00157955
0.00138277
0.00150284
0.00138514
0.00127234
0.00137729
0.00104336
0.000874718
0.00101324
0.000805285
0.000925628
0.000785351
0.000853965
0.00077187
0.000795511
0.000766615
0.000747489
0.000768413
0.000709454
0.000772939
0.000672493
0.00077782
0.000637078
0.000783233
0.000603822
0.000789017
0.000572748
0.000794282
0.000543896
0.000798786
0.000516255
0.000802766
0.000489412
0.000806605
0.00050199
0.000809786
0.000504826
0.000820008
0.000507399
0.00083157
0.000509551
0.000843148
0.000512119
0.00085516
0.000514803
0.000867855
0.000517731
0.000881331
0.000520709
0.000895391
0.000523923
0.000910129
0.000527411
0.000925573
0.000531743
0.000941736
0.000535538
0.000958165
0.000538285
0.000974738
0.000540372
0.000991168
0.000542272
0.00100707
0.000544607
0.00102198
0.000546559
0.00103562
0.00054943
0.00104787
0.000552325
0.0010584
0.000555598
0.00106733
0.000557746
0.00107505
0.000558795
0.00108168
0.0005584
0.00108682
0.000557281
0.0010898
0.000557349
0.00108964
0.000559598
0.00108739
0.000561159
0.00108298
0.000562322
0.00107595
0.00056334
0.00106756
0.000563859
0.00105791
0.000565901
0.00104775
0.000567169
0.00103595
0.000570511
0.00102368
0.000572713
0.00100891
0.000574821
0.000991038
0.000576065
0.00097084
0.00057623
0.000947992
0.000577719
0.000926065
0.000579542
0.000907184
0.000579245
0.000888112
0.000578422
0.000868682
0.000578648
0.000849029
0.000578103
0.000829196
0.000578237
0.000809208
0.000578681
0.00078897
0.000581259
0.000768726
0.000583984
0.000747986
0.000588979
0.000727177
0.000589231
0.000705842
0.000589875
0.000685537
0.000588961
0.000668066
0.000586936
0.000655363
0.000585823
0.000646848
0.000584313
0.000641896
0.000586143
0.000640548
0.000589035
0.000642398
0.000591294
0.000645097
0.000595037
0.000648754
0.000598972
0.00065261
0.000603413
0.000655723
0.000607364
0.000658475
0.000611156
0.000661084
0.000616511
0.000663028
0.000624213
0.00066414
0.000633861
0.000665046
0.000644367
0.000666381
0.000655732
0.000668282
0.00066852
0.000671444
0.000677346
0.000674656
0.000692011
0.000676923
0.000700985
0.00067996
0.000707656
0.000686852
0.000697056
0.000695878
0.000754618
0.000710756
0.00273399
0.00345876
0.0014202
0.00283317
0.00103538
0.00278541
0.000989443
0.00296667
0.00103911
0.00346147
0.00117831
0.00312778
0.00141413
0.00282826
0.00155758
0.00270504
0.00152855
0.00283869
0.00148493
0.00312642
0.00139062
0.00276117
0.00119517
0.00253371
0.00111938
0.00251404
0.00114832
0.00259655
0.00118726
0.00264069
0.0013465
0.00235997
0.00157151
0.00218618
0.00161884
0.00212067
0.00160268
0.00221066
0.00153832
0.00223973
0.00143575
0.00202692
0.00129677
0.0019011
0.00127667
0.00187061
0.00130884
0.00186378
0.00138351
0.00183333
0.00148933
0.00172474
0.00156964
0.0016431
0.00159082
0.00157303
0.00158391
0.00148774
0.00156505
0.00121635
0.00155225
0.00107539
0.00100277
0.00102589
0.00090212
0.000939113
0.000869498
0.000863574
0.000855279
0.000800654
0.000849641
0.000752678
0.000848714
0.000716349
0.000851552
0.000681128
0.000855776
0.000646754
0.000859962
0.000613933
0.000864281
0.000582926
0.000868956
0.000553351
0.000872993
0.000524096
0.000875842
0.000495788
0.000877801
0.000509662
0.000878743
0.000511927
0.000886236
0.000514545
0.000895126
0.000517002
0.000905486
0.000520084
0.000917367
0.000523277
0.000930574
0.000526699
0.000944834
0.00053012
0.000959636
0.000533736
0.000974859
0.000537599
0.000990725
0.000542036
0.00100731
0.000545768
0.00102419
0.000548358
0.00104097
0.000550347
0.0010578
0.000551972
0.00107534
0.000554092
0.00109313
0.0005559
0.00111038
0.00055753
0.00112615
0.000559177
0.00113991
0.000561443
0.001151
0.000563011
0.00115856
0.000563927
0.00116281
0.000564576
0.00116297
0.000562814
0.00116048
0.000566109
0.00115659
0.000570658
0.00115134
0.000573364
0.00114438
0.000575627
0.00113566
0.000577175
0.00112533
0.000576633
0.00111227
0.000578323
0.00109687
0.000579135
0.00108119
0.000582996
0.00106638
0.000586282
0.00105214
0.000589828
0.00103577
0.000592636
0.00101942
0.000591537
0.00100062
0.000591734
0.000977901
0.000593532
0.000955557
0.000592582
0.000931759
0.000591547
0.000907149
0.000591862
0.000882717
0.000590874
0.00085907
0.000590799
0.000836011
0.00059098
0.000812838
0.00059271
0.000790017
0.000593532
0.000766741
0.00059778
0.000743507
0.00059659
0.000720799
0.000594482
0.000698516
0.000591904
0.000681796
0.000588711
0.00067059
0.000586421
0.000662709
0.00058497
0.000659537
0.00058555
0.000659254
0.000589303
0.000661454
0.000593718
0.000665239
0.000599646
0.000668257
0.00060552
0.000670172
0.000610776
0.000670795
0.000615115
0.000671076
0.000620256
0.0006707
0.000626743
0.000669316
0.000634843
0.00066734
0.000643441
0.00066504
0.000653441
0.000663208
0.000664591
0.00066236
0.000678273
0.000662157
0.000689225
0.00066253
0.00070435
0.000666485
0.000713664
0.000672558
0.000720008
0.000683003
0.000706878
0.000693021
0.000764687
0.000708331
0.00267598
0.0034475
0.00100213
0.00286275
0.0015718
0.00274553
0.00155603
0.00301153
0.00150067
0.00347348
0.00139294
0.00306724
0.0012187
0.00270878
0.00109045
0.00256334
0.00110818
0.00268858
0.00112908
0.0031232
0.00124216
0.00274649
0.00151695
0.00247241
0.00162905
0.00250745
0.00161357
0.00265154
0.00155434
0.00270313
0.00145397
0.00234286
0.00123785
0.00212058
0.00121952
0.00202039
0.00124625
0.00210219
0.00127139
0.00223394
0.0014187
0.00201425
0.00165972
0.00187133
0.00172703
0.00185995
0.0017098
0.00189462
0.0016796
0.00189575
0.00161805
0.0017779
0.00153864
0.00166495
0.00152422
0.00159313
0.00154058
0.00150442
0.00154817
0.00133898
0.00158504
0.00114664
0.00108063
0.00105652
0.000952074
0.00095757
0.000914805
0.000876108
0.000900137
0.000808794
0.000893776
0.000758391
0.000894486
0.000721579
0.000899053
0.000685966
0.00090469
0.000651966
0.000911425
0.000618942
0.00091783
0.000587502
0.000925431
0.000557005
0.00093193
0.000527192
0.000936784
0.000498389
0.000940239
0.000515096
0.000943327
0.000518855
0.00095315
0.000522766
0.000965506
0.000526692
0.000979315
0.000531015
0.00099549
0.000535032
0.0010116
0.000538964
0.00102794
0.000542786
0.0010446
0.000546787
0.00106152
0.000550879
0.0010786
0.000555409
0.00109578
0.000558738
0.00111289
0.000561297
0.00112978
0.000563623
0.00114698
0.000564962
0.00116453
0.000567812
0.00118271
0.000569636
0.0012007
0.000571693
0.00121777
0.000573401
0.00123407
0.00057416
0.00124845
0.000573517
0.00126038
0.000570112
0.00126994
0.000565854
0.00127704
0.000568537
0.0012803
0.000572983
0.00128027
0.000578758
0.00127693
0.000582813
0.00127097
0.000587035
0.00126239
0.00059035
0.00125107
0.000590703
0.00123732
0.000593127
0.00122096
0.000592763
0.00120144
0.000595866
0.00117767
0.000601664
0.00115252
0.000605122
0.0011274
0.000612697
0.00110413
0.000614196
0.00107948
0.000615469
0.00105324
0.000617365
0.00102713
0.000615333
0.000999003
0.000612908
0.000969463
0.0006117
0.000941002
0.000608854
0.000912602
0.000608211
0.000884633
0.000607193
0.000856939
0.000608921
0.000830315
0.000608454
0.000803837
0.000611998
0.000777694
0.000609031
0.000752437
0.000602809
0.000727533
0.000596309
0.000706657
0.000590438
0.000692989
0.000588112
0.000684075
0.000585464
0.00067976
0.000586573
0.000680256
0.000591879
0.000682362
0.000598167
0.00068443
0.00060483
0.000685461
0.000611019
0.000684861
0.000616002
0.000682744
0.000620936
0.000680206
0.000627724
0.0006777
0.000635583
0.000674585
0.00064473
0.000671052
0.000653326
0.000666874
0.000663496
0.000663124
0.000674883
0.000660041
0.000688532
0.000659117
0.000697852
0.000658284
0.000712934
0.000662645
0.000722322
0.000669106
0.000730737
0.000680999
0.000715915
0.000693017
0.000771485
0.000711327
0.00263391
0.00345619
0.00147287
0.00276339
0.00103545
0.00265072
0.000999206
0.00287782
0.00105864
0.00340095
0.00116425
0.00306153
0.00148963
0.00271239
0.00170027
0.00255949
0.00167534
0.00271563
0.00161387
0.00315803
0.00150184
0.00274643
0.00128594
0.0024557
0.00118313
0.00240584
0.00120855
0.00252531
0.00123656
0.00262138
0.0014136
0.00231318
0.00169116
0.00207614
0.00179686
0.00199884
0.00180723
0.0021305
0.00173081
0.00227542
0.00161373
0.00203291
0.00142473
0.00186082
0.00137449
0.00179632
0.00138568
0.00181175
0.00145223
0.00182777
0.00157355
0.00172649
0.00171742
0.00164976
0.00177968
0.00158392
0.00176052
0.00151087
0.00173855
0.00141964
0.00172439
0.00123123
0.0011847
0.00109785
0.00105239
0.000974135
0.00100373
0.000883617
0.000988703
0.000811441
0.000986582
0.000758834
0.000993179
0.000723567
0.00100241
0.000689489
0.0010111
0.00065705
0.00102058
0.000626094
0.00103072
0.000596262
0.00104131
0.000566219
0.00105141
0.000536965
0.00105918
0.000508553
0.00106593
0.000530475
0.00107202
0.000538283
0.00108612
0.000546019
0.00110234
0.000553128
0.00111731
0.000559051
0.00113246
0.00056424
0.00114781
0.000568995
0.00116342
0.000573152
0.00117904
0.000577004
0.00119477
0.000580464
0.00121003
0.000584382
0.00122498
0.000586945
0.00123971
0.000589168
0.00125461
0.000591374
0.00127027
0.00059209
0.00128658
0.000595047
0.00130336
0.000595689
0.00131967
0.00059739
0.00133485
0.000598723
0.00134828
0.000599087
0.00135939
0.000597956
0.00136777
0.000595512
0.00137264
0.000593348
0.00137694
0.00059557
0.00137983
0.00060614
0.00138135
0.000614368
0.00138035
0.000624257
0.00137747
0.000631143
0.00137338
0.000639007
0.00136518
0.000642253
0.00135526
0.000647369
0.00133957
0.000646376
0.00132096
0.000647236
0.00129653
0.000647903
0.00127105
0.000645685
0.00124119
0.000648686
0.00121162
0.00064828
0.00117858
0.000647532
0.00114394
0.00064951
0.00111317
0.000645788
0.00108049
0.000641939
0.00104624
0.000640295
0.00101306
0.000635728
0.000978699
0.000634268
0.00094487
0.000631592
0.000911644
0.000632192
0.000880843
0.000629603
0.000850446
0.000631195
0.000820688
0.000625689
0.000791459
0.000615458
0.000762317
0.000603941
0.000734769
0.000594848
0.000716883
0.000591054
0.000705482
0.000586542
0.000699663
0.000587882
0.000699544
0.00059354
0.00069994
0.000600151
0.000700215
0.000607459
0.000699951
0.000614288
0.000698449
0.000619737
0.000694934
0.000626286
0.000691812
0.0006351
0.000688284
0.000644977
0.000683355
0.000656274
0.000678503
0.000664898
0.000672741
0.000675185
0.000667791
0.000684937
0.000663211
0.000698307
0.000661207
0.000705672
0.000659187
0.000720457
0.000663425
0.000729132
0.000669026
0.000738227
0.000681135
0.000724473
0.000696223
0.000776224
0.000713075
0.00268011
0.00342675
0.00101883
0.0027793
0.00167918
0.00260907
0.00164672
0.00288199
0.00159666
0.00346229
0.0014913
0.00315724
0.00131748
0.00273236
0.00115296
0.00253654
0.00116607
0.00260163
0.00119186
0.00304103
0.00127996
0.00270839
0.0016034
0.00238983
0.00180294
0.00236894
0.00178389
0.00258121
0.00172491
0.00280015
0.00161339
0.00242183
0.00139122
0.00214457
0.00131161
0.00204094
0.00134838
0.00204217
0.00137716
0.00222384
0.00152289
0.00199556
0.00181504
0.00181959
0.00196977
0.00176506
0.00195528
0.00181729
0.00191746
0.00187586
0.00186681
0.00185108
0.00178251
0.00172936
0.00175729
0.00162891
0.00175535
0.00154802
0.00176046
0.00154326
0.00182229
0.00132027
0.00133932
0.00114942
0.00118966
0.00100764
0.00112651
0.000910603
0.00111188
0.000840115
0.00113086
0.000794483
0.00115389
0.000758845
0.0011711
0.00072471
0.00118423
0.000692373
0.00119412
0.000661179
0.00120199
0.000630135
0.00120968
0.000599816
0.00121833
0.000570256
0.001227
0.000542021
0.00123469
0.000571242
0.00124243
0.00058026
0.00125637
0.000586912
0.00127193
0.000592294
0.00128431
0.000596382
0.0012956
0.000600079
0.00130652
0.000603408
0.00131677
0.000606355
0.00132691
0.000609216
0.00133772
0.000611639
0.00134957
0.000614677
0.00136258
0.000616951
0.00137611
0.000619993
0.00139024
0.00062221
0.00140506
0.000623135
0.00142048
0.000625459
0.00143719
0.000625369
0.00145401
0.000626274
0.00146925
0.000624591
0.00148111
0.000621698
0.00149216
0.000615662
0.00149982
0.000610548
0.00150667
0.000606326
0.0015087
0.000605715
0.00150964
0.000618332
0.00151083
0.000628525
0.00150915
0.000641863
0.00150731
0.00065278
0.00150352
0.000665434
0.00149593
0.000673746
0.00148605
0.000681963
0.00147207
0.000687635
0.00145603
0.000691805
0.00143664
0.000697786
0.00141291
0.000695852
0.00138386
0.00070152
0.00135213
0.000698725
0.00131512
0.000694341
0.00127395
0.000694693
0.00123715
0.000688759
0.00119856
0.000682303
0.00115746
0.000678981
0.00111826
0.000671357
0.00107685
0.000667919
0.00103487
0.000661854
0.000991798
0.000660767
0.000951527
0.000655825
0.000912723
0.000655103
0.000875003
0.000646975
0.000838477
0.000633456
0.00080182
0.00061563
0.000767106
0.000603052
0.000743439
0.000596302
0.000732625
0.00058736
0.00072663
0.000588488
0.000723437
0.000594092
0.000721078
0.000601034
0.000718798
0.000608799
0.000716088
0.00061748
0.000712774
0.000624716
0.000709415
0.000633065
0.000704524
0.000645086
0.000698571
0.000656877
0.000692438
0.000670442
0.000687369
0.000677849
0.000681549
0.000687871
0.000675659
0.000694848
0.00066917
0.000707278
0.000665993
0.000713166
0.00066268
0.000727554
0.000666852
0.000735006
0.000671316
0.000745061
0.000684497
0.000732719
0.000699394
0.000780766
0.000714655
0.00259406
0.00349399
0.00152861
0.00279172
0.00106745
0.00261365
0.00102624
0.00286263
0.0010974
0.00329468
0.00117773
0.00308296
0.00155216
0.00267773
0.00183776
0.00247557
0.00183042
0.00264144
0.00175017
0.0031086
0.00162632
0.00279552
0.00141898
0.00243638
0.00125712
0.00236127
0.00126817
0.00254202
0.00131617
0.00269479
0.00149275
0.00231442
0.00178842
0.00205414
0.00205134
0.00197561
0.00204916
0.00208039
0.00198336
0.00232324
0.00187387
0.00212246
0.00165972
0.00188354
0.00150177
0.00179191
0.00151913
0.00180361
0.00156522
0.00186437
0.00171809
0.00181298
0.00193383
0.00170639
0.00205434
0.00161383
0.00211223
0.00155172
0.00210634
0.00160959
0.00212513
0.00140301
0.00152784
0.00120618
0.0013056
0.00104587
0.00123786
0.000926452
0.00124023
0.000877173
0.00127238
0.000845283
0.00130535
0.000807161
0.00133213
0.000769471
0.00135384
0.000733363
0.00137137
0.000699637
0.00138688
0.000665587
0.00140024
0.000634517
0.00141251
0.000602937
0.00142379
0.000574023
0.00143301
0.00061051
0.00143914
0.000619487
0.00144939
0.000626705
0.00146097
0.000634312
0.00146882
0.000640413
0.00147464
0.000645799
0.00148114
0.00065018
0.00148781
0.00065398
0.00149478
0.000658056
0.00150375
0.000662147
0.00151429
0.000666244
0.00152672
0.000669606
0.00154016
0.000673472
0.00155354
0.000675412
0.00156654
0.000677809
0.00158042
0.000679561
0.00159656
0.000679649
0.00161089
0.000679517
0.00162313
0.000675838
0.00163254
0.00067331
0.00164183
0.000665881
0.00164843
0.000662761
0.00165274
0.00065428
0.00165649
0.000653621
0.00165618
0.000662606
0.0016568
0.000675637
0.00165127
0.00068522
0.00164795
0.00069853
0.00164007
0.000706511
0.00163247
0.000719438
0.00162173
0.000726765
0.00161032
0.000739534
0.00159534
0.000746427
0.00157999
0.000757815
0.00155961
0.000756806
0.00153361
0.000766198
0.0014987
0.000763758
0.00145871
0.000757818
0.00140908
0.000758608
0.00136605
0.000748658
0.00132229
0.00073819
0.0012673
0.000732362
0.00121914
0.000720757
0.00116831
0.000714676
0.00111904
0.000703655
0.00106916
0.000699201
0.00102121
0.000690723
0.00097468
0.000686199
0.00093012
0.000674393
0.000886468
0.000656326
0.000841813
0.000631189
0.000797787
0.000610562
0.000765587
0.00060082
0.000747245
0.000589424
0.000739872
0.000589777
0.000735143
0.000595505
0.000731349
0.000602599
0.000728729
0.00061086
0.000726248
0.000620659
0.000723166
0.000630935
0.000719317
0.000641818
0.000714644
0.000656451
0.000708715
0.000669428
0.000702227
0.000684535
0.000697294
0.000691249
0.000691979
0.000700786
0.000686195
0.000704913
0.00067882
0.000716368
0.000674411
0.000720366
0.000670226
0.000734795
0.000673244
0.000740731
0.000677005
0.000751654
0.000687972
0.00074117
0.000701019
0.000784921
0.000715207
0.00270986
0.00343841
0.00104465
0.00276106
0.00179333
0.00255325
0.00176886
0.00283649
0.00170693
0.00343263
0.00159584
0.00329892
0.00145427
0.00282623
0.00121547
0.00260269
0.00123822
0.00264729
0.00127742
0.00297561
0.00134509
0.00270719
0.00172711
0.00235153
0.0020353
0.00228047
0.0020237
0.00254362
0.00197205
0.00286317
0.00183436
0.0026187
0.00165154
0.00227365
0.00144668
0.00211691
0.00145872
0.00215549
0.00151742
0.00228899
0.00170138
0.00202755
0.00204672
0.00182296
0.00234253
0.00171529
0.00237507
0.00177539
0.00232863
0.00189519
0.00226725
0.00194183
0.00219251
0.00190573
0.00212315
0.00178281
0.00209824
0.00166513
0.00213582
0.00177397
0.00221035
0.00148991
0.00189667
0.00125156
0.00143313
0.00106429
0.00138912
0.000956091
0.00142242
0.000955663
0.00148274
0.000920811
0.00152558
0.000883248
0.00156539
0.000843398
0.00159452
0.000806796
0.00161638
0.000771718
0.00163362
0.000737357
0.00164717
0.000703214
0.00165668
0.00067057
0.00166104
0.000635687
0.00166206
0.000678304
0.00166063
0.00068441
0.00165933
0.000688461
0.00166089
0.000693094
0.00166169
0.000695415
0.00166107
0.000698873
0.00166195
0.00070186
0.00166426
0.000704894
0.0016692
0.000708216
0.0016763
0.000711804
0.00168424
0.000715074
0.00169323
0.000717762
0.00170288
0.000720125
0.00171278
0.000720419
0.0017216
0.000722406
0.00173112
0.000721728
0.00174137
0.000721022
0.00174991
0.000717702
0.00175844
0.000713353
0.00176369
0.00070864
0.00177276
0.00069983
0.001774
0.000694756
0.00177639
0.000684445
0.00178018
0.000684437
0.00177858
0.000694611
0.00178071
0.000710207
0.00177758
0.000720805
0.00177718
0.000737528
0.00177257
0.000747706
0.00176895
0.000764508
0.00175983
0.000773606
0.00175021
0.000789215
0.00173443
0.000797682
0.00171792
0.000812941
0.00169764
0.000815639
0.00167248
0.00082768
0.00163594
0.000829711
0.00159495
0.000822711
0.00155023
0.000827786
0.00150963
0.000818546
0.0014619
0.000800989
0.00139606
0.000793046
0.00133878
0.000775035
0.00127757
0.000766421
0.00121935
0.000750833
0.00116244
0.0007434
0.00110848
0.000731393
0.00105548
0.000722949
0.00100252
0.000707502
0.000951118
0.000685143
0.00089814
0.000652995
0.000844049
0.000622575
0.000798265
0.000603899
0.000769476
0.000591164
0.000757398
0.000591481
0.000750561
0.000597503
0.000745163
0.000604152
0.000741669
0.000612901
0.000738103
0.000623816
0.000733998
0.000636737
0.000730543
0.000650533
0.000725634
0.000667607
0.000720192
0.000681347
0.000715057
0.000697596
0.000710903
0.000704149
0.000706667
0.000713344
0.000701205
0.000715035
0.000693677
0.000725146
0.00068813
0.000728036
0.000681615
0.000742018
0.000682553
0.000747086
0.00068386
0.000758846
0.000693206
0.000750289
0.000704034
0.000790599
0.000716167
0.0025772
0.00356961
0.00160715
0.00288909
0.00112855
0.00267128
0.00106303
0.00290481
0.0011473
0.00335263
0.0012324
0.0031157
0.00161507
0.00269472
0.00199821
0.00245431
0.00202244
0.00264574
0.00192843
0.0031156
0.00180303
0.00292811
0.00161671
0.00251786
0.00134669
0.00242765
0.00135097
0.0026256
0.00143004
0.00282502
0.00161704
0.00241218
0.00195892
0.00214951
0.00239694
0.00200576
0.00244051
0.00214664
0.00238717
0.00240206
0.00225332
0.00237515
0.00203242
0.00206635
0.00177256
0.00195143
0.00173622
0.00191636
0.00181136
0.00200103
0.00195288
0.00202809
0.00218934
0.00187879
0.00241596
0.00177032
0.00252846
0.00168226
0.00257758
0.00185866
0.00260797
0.00161826
0.0024144
0.00126695
0.00160682
0.00108414
0.00156197
0.00107584
0.00159998
0.00106119
0.00167326
0.00102708
0.00171837
0.000984337
0.00175907
0.000937985
0.00178654
0.000894886
0.00180398
0.000853046
0.0018166
0.000809811
0.00182341
0.0007657
0.0018284
0.000723325
0.00182565
0.000681983
0.00182503
0.000728633
0.00182731
0.000731678
0.00182525
0.00073333
0.00182585
0.000737206
0.0018298
0.000739101
0.00183364
0.000743449
0.0018357
0.000745692
0.00184142
0.000749846
0.00184617
0.000752629
0.001856
0.000754725
0.00186244
0.000755948
0.00186628
0.000756387
0.00187093
0.000756105
0.00187541
0.000754242
0.00187974
0.000753674
0.00188452
0.000749642
0.0018882
0.000747712
0.0018889
0.000741328
0.00189356
0.000737291
0.00189252
0.000729373
0.00189611
0.000721168
0.00189464
0.000713408
0.00189796
0.000703674
0.00189576
0.000702232
0.00189925
0.000717923
0.00189526
0.000732209
0.00189759
0.000749351
0.00189118
0.000764171
0.0018922
0.000782361
0.00188354
0.000796722
0.00188135
0.000814416
0.00186787
0.000826538
0.00185854
0.000843179
0.00183898
0.000856427
0.00182607
0.00086973
0.00180089
0.000878883
0.00177552
0.000890406
0.0017391
0.000884567
0.00169952
0.000896844
0.00164765
0.000892158
0.00159748
0.000868566
0.00152755
0.000859848
0.00146334
0.000831227
0.00138752
0.000819032
0.00131284
0.000797335
0.00123871
0.000788947
0.00117336
0.000774379
0.0011111
0.000762395
0.00105107
0.000744387
0.000993541
0.000719552
0.000934966
0.000680348
0.000876011
0.000639754
0.000819616
0.000610663
0.000784776
0.000595301
0.000770229
0.000596308
0.000762737
0.000601437
0.00075915
0.000607557
0.000756141
0.000616023
0.000752583
0.000627749
0.000748508
0.000643468
0.000744432
0.000659112
0.000740497
0.000678421
0.000736802
0.000692556
0.000733377
0.000709065
0.000730157
0.000716555
0.000725808
0.000725268
0.000719377
0.000726143
0.000710354
0.000735575
0.000703205
0.000737395
0.000693763
0.000750526
0.000692334
0.000754562
0.000691143
0.000767067
0.000698973
0.000760512
0.000709222
0.000797645
0.000717313
0.00276234
0.00347558
0.00108528
0.00278383
0.00190847
0.00251424
0.00190898
0.00284486
0.00184688
0.00344766
0.00174892
0.00351717
0.00161549
0.00302209
0.00134977
0.00277729
0.00133493
0.00279942
0.00139618
0.00316102
0.00149535
0.00274891
0.00191019
0.00236895
0.00239263
0.00227596
0.00240752
0.00258618
0.00233481
0.00291348
0.00219462
0.00299272
0.00202209
0.00265256
0.0018085
0.00241737
0.00179245
0.0024791
0.00187902
0.00261437
0.00205402
0.00220385
0.00243151
0.00194322
0.00281997
0.00181793
0.00289892
0.00186122
0.00281014
0.00198222
0.00273024
0.00208361
0.00265329
0.00208325
0.00258184
0.00201821
0.00255948
0.00188634
0.00260125
0.00189643