/*--------------------------------*- C++ -*----------------------------------*\
| =========                 |                                                 |
| \\      /  F ield         | OpenFOAM: The Open Source CFD Toolbox           |
|  \\    /   O peration     | Version:  2.2.x                                 |
|   \\  /    A nd           | Web:      www.OpenFOAM.org                      |
|    \\/     M anipulation  |                                                 |
\*---------------------------------------------------------------------------*/
FoamFile
{
    version     2.0;
    format      ascii;
    class       volScalarField;
    location    "1.7";
    object      p;
}
// * * * * * * * * * * * * * * * * * * * * * * * * * * * * * * * * * * * * * //

dimensions      [1 -1 -2 0 0 0 0];

internalField   nonuniform List<scalar> 
14161
(
0.197949
0.198461
0.198335
0.198265
0.198162
0.198037
0.197891
0.197726
0.197537
0.19733
0.197109
0.196879
0.196635
0.19636
0.196099
0.195848
0.195559
0.195266
0.195016
0.19471
0.194461
0.194261
0.194149
0.194026
0.193876
0.193688
0.193596
0.193583
0.193608
0.193681
0.193808
0.193995
0.194193
0.194518
0.19495
0.195429
0.196008
0.19644
0.197054
0.19805
0.199141
0.200217
0.201697
0.202465
0.207864
0.204268
0.749198
1.53214
1.6307
1.57761
1.54411
1.51113
1.48207
1.45288
1.42376
1.39096
1.35941
1.32927
1.29965
1.27111
1.24446
1.22148
1.20295
1.18776
1.17527
1.16471
1.15759
1.1536
1.15225
1.1534
1.15899
1.16179
1.16641
1.1698
1.17298
1.17533
1.17689
1.17214
1.17007
1.16889
1.16282
1.15842
1.15306
1.14849
1.14526
1.14348
1.14345
1.1366
1.13473
1.13467
1.13388
1.13383
1.14208
1.11829
1.11018
1.06674
1.02837
0.993656
0.944655
0.883777
0.851206
0.869281
0.889081
1.0076
1.05261
1.23371
1.43958
1.61304
1.73287
1.80961
1.86724
1.91042
1.9469
1.97755
2.00548
2.03136
2.05503
2.07627
2.11115
0.197949
0.19846
0.198331
0.198262
0.198166
0.198047
0.197885
0.197718
0.197541
0.197339
0.197104
0.196874
0.196637
0.196358
0.196098
0.195845
0.195557
0.195267
0.195012
0.194713
0.194463
0.194263
0.194147
0.194022
0.19387
0.193684
0.193589
0.193577
0.193598
0.193678
0.193793
0.19396
0.194214
0.194495
0.194901
0.195423
0.195924
0.196424
0.197019
0.197889
0.198983
0.199888
0.200673
0.201656
0.202202
0.205647
0.634585
1.50184
1.58735
1.55674
1.54263
1.51856
1.49096
1.46179
1.43265
1.39955
1.36748
1.33748
1.30711
1.27676
1.24936
1.22598
1.20623
1.19061
1.17761
1.16661
1.15914
1.15519
1.15366
1.15566
1.15973
1.16263
1.16732
1.17055
1.17324
1.17485
1.17631
1.17115
1.16914
1.16721
1.16149
1.15657
1.15111
1.14646
1.14334
1.14167
1.14133
1.13447
1.13255
1.13195
1.13151
1.13313
1.13876
1.11511
1.10651
1.06366
1.03125
0.990906
0.94568
0.889143
0.854795
0.866112
0.901298
1.12222
1.30028
1.50329
1.66508
1.77096
1.84298
1.89065
1.92862
1.95785
1.98362
2.00648
2.02768
2.0467
2.06404
2.07507
2.10456
0.197948
0.198459
0.198335
0.198265
0.19816
0.198036
0.197895
0.197735
0.19753
0.197324
0.197113
0.196889
0.196624
0.196354
0.196102
0.195844
0.195549
0.195267
0.195005
0.194712
0.194462
0.194266
0.194139
0.19401
0.193849
0.19367
0.193577
0.193563
0.193586
0.19365
0.193754
0.193926
0.194158
0.194409
0.19481
0.195317
0.195798
0.196291
0.196876
0.197788
0.198773
0.199606
0.199943
0.200689
0.198444
0.201396
0.337065
1.44534
1.59759
1.57195
1.55934
1.5266
1.50104
1.46815
1.43879
1.40284
1.3699
1.33711
1.30588
1.27499
1.24781
1.22405
1.20532
1.19028
1.1777
1.16745
1.15977
1.15386
1.15081
1.15327
1.15573
1.15928
1.16413
1.16722
1.16992
1.1717
1.17362
1.16824
1.16618
1.16263
1.1602
1.1538
1.14912
1.14489
1.14184
1.14026
1.14007
1.13301
1.13153
1.13163
1.13102
1.133
1.13649
1.11597
1.10849
1.06463
1.03307
0.993027
0.939462
0.886627
0.857051
0.882031
1.05858
1.30652
1.51804
1.67949
1.77805
1.84718
1.89594
1.93193
1.95893
1.97807
1.99612
2.00889
2.02328
2.03317
2.04927
2.05486
2.07134
0.197949
0.19846
0.198331
0.198262
0.198166
0.198046
0.197886
0.197719
0.197541
0.197341
0.1971
0.196869
0.196633
0.196375
0.196093
0.195827
0.195549
0.195274
0.19499
0.194712
0.194466
0.194261
0.194119
0.193984
0.193817
0.193649
0.19356
0.193539
0.193554
0.193603
0.193708
0.193844
0.19405
0.194323
0.194628
0.195075
0.195557
0.196029
0.196604
0.197445
0.198305
0.198962
0.199234
0.199837
0.197363
0.19845
0.545354
1.48302
1.59399
1.56607
1.55364
1.52745
1.50021
1.46852
1.43745
1.40059
1.36654
1.33176
1.29813
1.26452
1.23139
1.20929
1.19065
1.17635
1.16421
1.15457
1.14688
1.14254
1.13981
1.14271
1.14525
1.14887
1.15403
1.15669
1.15894
1.16028
1.16294
1.15719
1.15426
1.15041
1.14823
1.14151
1.13669
1.13278
1.13021
1.12902
1.12954
1.12245
1.12077
1.12124
1.12154
1.12471
1.1267
1.10649
1.09869
1.0544
1.02394
0.978487
0.936973
0.875317
0.863007
1.00426
1.31171
1.5436
1.6885
1.76899
1.831
1.87747
1.9178
1.9459
1.96842
1.98261
1.99643
2.00641
2.01932
2.02367
2.03541
2.03956
2.0451
0.19795
0.198459
0.198335
0.198266
0.198159
0.198033
0.197895
0.197734
0.197528
0.197324
0.197111
0.196884
0.196619
0.196359
0.196101
0.195838
0.195543
0.195266
0.194982
0.194716
0.194468
0.194255
0.194092
0.193951
0.193778
0.193618
0.193535
0.193503
0.193501
0.193542
0.193619
0.193743
0.193925
0.19411
0.194383
0.194772
0.195237
0.195744
0.196293
0.197125
0.198304
0.199447
0.20115
0.202693
0.206681
0.208623
0.70316
1.52735
1.62677
1.58504
1.55647
1.52052
1.48803
1.4552
1.42188
1.38452
1.34875
1.31178
1.27721
1.24301
1.21619
1.19058
1.16774
1.15287
1.14101
1.13238
1.12484
1.12144
1.1197
1.12203
1.12664
1.1304
1.13557
1.13862
1.14078
1.14212
1.14536
1.13996
1.13632
1.1325
1.13103
1.12428
1.11917
1.11577
1.11359
1.11254
1.11392
1.10698
1.10526
1.10553
1.10561
1.11041
1.11205
1.0921
1.08537
1.03772
1.00472
0.965971
0.932361
0.867678
0.947718
1.26794
1.52562
1.65301
1.72666
1.78581
1.83552
1.8759
1.91298
1.93943
1.95994
1.97434
1.98843
1.9983
2.012
2.01421
2.02535
2.02704
2.02843
0.197952
0.198461
0.198331
0.198261
0.198165
0.198045
0.197884
0.197716
0.197538
0.197342
0.1971
0.196861
0.196626
0.196379
0.196088
0.195815
0.195551
0.195274
0.194969
0.194713
0.194471
0.194241
0.194061
0.193917
0.193743
0.19358
0.193494
0.193446
0.193436
0.193447
0.1935
0.19359
0.193725
0.193905
0.194075
0.194334
0.194732
0.195148
0.195611
0.196251
0.197169
0.198041
0.199035
0.200061
0.203245
0.204293
0.69792
1.55077
1.65659
1.61469
1.5819
1.53947
1.50043
1.46079
1.42064
1.37764
1.33855
1.29671
1.25959
1.22434
1.19407
1.16733
1.1448
1.12902
1.11639
1.10628
1.09922
1.09618
1.09429
1.09626
1.09716
1.10282
1.10766
1.11135
1.11432
1.1147
1.11773
1.11812
1.11166
1.10843
1.10619
1.10466
1.09805
1.09511
1.09334
1.09246
1.09509
1.0891
1.08785
1.08849
1.09187
1.09295
1.09436
1.07467
1.06568
1.01595
0.980774
0.947243
0.920898
0.915117
1.19091
1.4423
1.5812
1.64812
1.70494
1.77032
1.82163
1.86499
1.90116
1.92719
1.94847
1.96283
1.97599
1.9856
2.00097
2.0026
2.01716
2.0186
2.01904
0.197956
0.198461
0.198336
0.198265
0.19816
0.198031
0.197891
0.197729
0.197531
0.197324
0.19711
0.196872
0.196614
0.196371
0.196094
0.195808
0.195547
0.195275
0.194954
0.194702
0.194477
0.194222
0.194023
0.193878
0.193703
0.193534
0.193439
0.193376
0.19334
0.19333
0.193353
0.193401
0.193483
0.193614
0.193727
0.193897
0.194174
0.194517
0.19492
0.195492
0.19629
0.197493
0.199019
0.200375
0.205019
0.204226
0.670503
1.56017
1.65575
1.61154
1.57509
1.52336
1.47953
1.43802
1.39495
1.35006
1.30691
1.26419
1.22379
1.1901
1.16268
1.13945
1.11292
1.09687
1.08259
1.0736
1.06636
1.06194
1.0626
1.06074
1.06447
1.06849
1.07221
1.07552
1.07906
1.08059
1.08001
1.08156
1.07797
1.07562
1.07325
1.07244
1.06749
1.06546
1.06455
1.06399
1.06736
1.06182
1.06057
1.0632
1.06572
1.06771
1.06747
1.04684
1.04154
0.995174
0.971585
0.950624
0.940802
1.15365
1.38298
1.50752
1.54513
1.59662
1.6631
1.73712
1.79825
1.84389
1.88168
1.91021
1.93367
1.95032
1.96443
1.97328
1.98943
1.99052
2.00885
2.01054
2.01241
0.197959
0.198464
0.198337
0.198265
0.19816
0.198032
0.197891
0.197723
0.197532
0.197332
0.197112
0.196864
0.196616
0.196374
0.19609
0.195799
0.195543
0.195274
0.194943
0.194692
0.19447
0.194205
0.193984
0.193834
0.193666
0.19349
0.193367
0.193287
0.193219
0.193185
0.193172
0.193176
0.193204
0.193254
0.193284
0.19333
0.193407
0.193491
0.193628
0.193759
0.193942
0.194166
0.194909
0.195167
0.197635
0.196023
0.616373
1.53706
1.64834
1.57942
1.53012
1.48059
1.42915
1.38139
1.34058
1.29984
1.25889
1.22731
1.18713
1.15466
1.14329
1.09215
1.07303
1.07354
1.05313
1.04654
1.03542
1.03148
1.03094
1.02892
1.03322
1.03432
1.03929
1.03881
1.04323
1.04564
1.04366
1.04491
1.04412
1.04087
1.03829
1.03855
1.03483
1.03341
1.03291
1.03316
1.03684
1.03357
1.03294
1.03555
1.0376
1.03893
1.03959
1.02737
1.02021
0.995249
0.972936
0.96078
1.15574
1.35237
1.47325
1.48236
1.49743
1.55473
1.62138
1.70453
1.77184
1.82223
1.86189
1.89257
1.91803
1.93598
1.95059
1.96001
1.9744
1.97351
1.99383
1.99706
2.00196
0.197963
0.198467
0.198337
0.198264
0.198166
0.198044
0.197888
0.197719
0.197535
0.197328
0.197115
0.196863
0.196612
0.196374
0.196096
0.195793
0.195536
0.195266
0.194938
0.194674
0.194447
0.194191
0.19395
0.19377
0.193617
0.193445
0.193283
0.193178
0.193085
0.193014
0.192966
0.19293
0.192886
0.192845
0.192805
0.19276
0.192699
0.192599
0.192449
0.192334
0.192144
0.191945
0.191988
0.192325
0.193631
0.197803
0.546321
1.4736
1.59494
1.45346
1.41806
1.39686
1.36485
1.31176
1.28039
1.24374
1.20974
1.19059
1.13907
1.11782
1.11265
1.05186
1.04367
1.03444
1.02944
1.01694
1.0092
1.00556
1.00276
1.00069
1.00584
1.00744
1.0118
1.01325
1.01504
1.01655
1.01563
1.01666
1.0175
1.01367
1.01167
1.01137
1.01027
1.00737
1.00782
1.00955
1.01295
1.01006
1.00996
1.01349
1.01632
1.02071
1.02988
1.0163
1.01951
0.99855
1.00288
1.19968
1.39106
1.46914
1.46681
1.44482
1.46385
1.50902
1.57657
1.66808
1.74231
1.79741
1.83856
1.87159
1.89967
1.92011
1.9369
1.94862
1.96269
1.95951
1.9804
1.98486
1.99369
0.197968
0.19847
0.198341
0.198269
0.198164
0.198035
0.197895
0.197734
0.197535
0.197325
0.197117
0.196865
0.19661
0.196371
0.196099
0.19579
0.195527
0.195255
0.194933
0.194658
0.194419
0.194174
0.193912
0.193705
0.19355
0.193385
0.193213
0.193056
0.192926
0.19282
0.192731
0.192652
0.192556
0.19242
0.19225
0.192056
0.191801
0.191415
0.190813
0.190168
0.18892
0.186947
0.183321
0.178801
0.169158
0.161361
0.198358
0.998237
1.63756
1.37104
1.33558
1.30259
1.28669
1.21733
1.20757
1.17497
1.15476
1.13387
1.08291
1.08942
1.04055
1.04152
1.01506
0.999074
1.00536
0.991916
0.981003
0.979692
0.978515
0.978748
0.983438
0.985361
0.989841
0.991986
0.995026
0.99574
0.996081
0.997053
0.998344
0.995725
0.99323
0.994438
0.991478
0.989586
0.99016
0.994499
0.996793
0.995898
1.00094
1.0064
1.01199
1.01733
1.03007
1.02347
1.05277
1.08002
1.27451
1.44124
1.55451
1.49709
1.45427
1.42483
1.44005
1.47641
1.55001
1.64403
1.72156
1.77771
1.82098
1.85443
1.88392
1.90574
1.92373
1.93722
1.95067
1.94618
1.96728
1.97109
1.9844
0.197974
0.198473
0.198345
0.198273
0.198165
0.198043
0.197894
0.197726
0.197542
0.197333
0.197118
0.196871
0.19661
0.196366
0.196101
0.195789
0.195514
0.19524
0.194934
0.194645
0.194389
0.194151
0.193879
0.193642
0.193458
0.193307
0.193131
0.192899
0.192739
0.192604
0.192473
0.192353
0.192229
0.192055
0.191762
0.191474
0.191109
0.190677
0.190124
0.189649
0.188965
0.187893
0.186619
0.186024
0.186656
0.189864
0.207732
0.388887
1.40053
1.27065
1.27335
1.23442
1.19434
1.15997
1.15041
1.12243
1.10583
1.11185
1.03895
1.05962
1.03135
0.997062
1.0095
0.981463
0.97714
0.975375
0.963739
0.962676
0.963038
0.964692
0.968429
0.971813
0.977238
0.980404
0.983498
0.983707
0.984601
0.986936
0.987689
0.986745
0.98299
0.985538
0.982687
0.982686
0.986342
0.99062
0.994324
0.996067
1.00265
1.01051
1.01971
1.04001
1.08082
1.11376
1.22819
1.38112
1.5394
1.6137
1.57252
1.5104
1.42709
1.39868
1.41156
1.44364
1.51898
1.61547
1.70264
1.76034
1.80352
1.83731
1.86771
1.8912
1.91082
1.9256
1.93872
1.93302
1.9532
1.95681
1.97451
0.19798
0.198477
0.198347
0.198274
0.198173
0.198046
0.197894
0.197734
0.197544
0.197332
0.197121
0.196881
0.196611
0.196361
0.196101
0.195792
0.195502
0.195227
0.194935
0.194627
0.194353
0.194112
0.193855
0.193577
0.193363
0.193214
0.193019
0.192763
0.192536
0.192362
0.1922
0.192037
0.191913
0.191721
0.191362
0.190913
0.190448
0.189867
0.189012
0.188098
0.186878
0.185183
0.181738
0.176967
0.167918
0.160977
0.198335
0.434524
1.05948
1.18891
1.20588
1.2132
1.15464
1.13393
1.11705
1.10933
1.08552
1.07463
1.0525
1.02353
1.02779
0.966018
0.987916
0.979506
0.965665
0.965137
0.954944
0.953072
0.955553
0.957968
0.962513
0.965672
0.972438
0.976087
0.978325
0.978522
0.980417
0.984146
0.984288
0.984044
0.97983
0.982484
0.983239
0.982231
0.990283
0.99709
1.00592
1.01379
1.03528
1.06876
1.1088
1.19132
1.27386
1.41546
1.54395
1.65198
1.72584
1.66879
1.57199
1.48814
1.42361
1.40831
1.40775
1.43996
1.50788
1.603
1.69099
1.74753
1.78865
1.82072
1.85061
1.87502
1.89608
1.91252
1.92572
1.92076
1.93956
1.94482
1.96309
0.197987
0.198481
0.198354
0.198281
0.198175
0.198047
0.197903
0.197735
0.197552
0.197338
0.197119
0.19689
0.196614
0.196356
0.196099
0.195802
0.195493
0.195212
0.194932
0.19461
0.194314
0.194066
0.193819
0.193511
0.193264
0.193093
0.192895
0.192635
0.192325
0.192104
0.191914
0.19171
0.191565
0.191406
0.191142
0.190603
0.190157
0.189716
0.189297
0.18895
0.18876
0.188591
0.188403
0.190134
0.1923
0.208773
0.503003
0.779907
0.868575
1.04814
1.14237
1.16454
1.16254
1.13857
1.12387
1.11374
1.09958
1.06879
1.07666
1.0072
1.02553
0.977369
0.974439
0.979427
0.959686
0.961409
0.95668
0.953233
0.956725
0.959383
0.962776
0.965883
0.973398
0.976202
0.9773
0.978142
0.982203
0.984046
0.985849
0.986651
0.985564
0.991638
0.997692
1.00265
1.02149
1.05331
1.08059
1.13169
1.19792
1.30112
1.40579
1.50128
1.5975
1.69223
1.76356
1.78435
1.75312
1.68094
1.59805
1.51631
1.46085
1.43151
1.43027
1.45367
1.51025
1.59689
1.68119
1.73643
1.77477
1.80481
1.83356
1.85815
1.88059
1.89846
1.91201
1.90888
1.92631
1.93257
1.95071
0.197995
0.198486
0.198359
0.198286
0.198178
0.198058
0.197907
0.197739
0.197561
0.197343
0.197121
0.196897
0.196619
0.196352
0.1961
0.195814
0.195482
0.195197
0.194921
0.194594
0.194277
0.194013
0.193763
0.193457
0.193173
0.192959
0.192764
0.192494
0.192111
0.191842
0.19161
0.191402
0.191199
0.191076
0.19086
0.190531
0.19
0.189582
0.189243
0.188841
0.18845
0.187822
0.186488
0.184289
0.181857
0.183485
0.660354
0.853036
0.861022
0.881824
1.00763
1.09615
1.15068
1.16445
1.1246
1.14334
1.10659
1.08203
1.08845
1.01884
1.03273
0.97266
0.969772
0.974628
0.957882
0.96009
0.959401
0.956231
0.960128
0.962799
0.967293
0.971079
0.978298
0.982099
0.984907
0.988089
0.995441
1.00058
1.00698
1.01411
1.02464
1.05263
1.08076
1.10943
1.18898
1.26059
1.36077
1.4476
1.52692
1.60968
1.69296
1.75621
1.79311
1.8141
1.81494
1.79527
1.75199
1.68686
1.60956
1.53125
1.47843
1.45173
1.45154
1.47225
1.52053
1.59717
1.67417
1.72718
1.76313
1.7902
1.81665
1.84028
1.86384
1.88362
1.89798
1.89708
1.91354
1.92032
1.93813
0.198003
0.198492
0.198363
0.198289
0.198188
0.198063
0.197912
0.197744
0.197571
0.197351
0.197124
0.196902
0.19663
0.196352
0.196097
0.19582
0.195475
0.195181
0.194907
0.194577
0.194241
0.193953
0.193697
0.193406
0.19309
0.192819
0.192612
0.192338
0.191927
0.191588
0.191317
0.191092
0.190881
0.190671
0.19059
0.190364
0.190085
0.189683
0.18947
0.189461
0.189793
0.190042
0.191639
0.191841
0.200019
0.293856
0.805662
0.889341
0.876377
0.875074
0.915103
0.933056
1.08823
1.13494
1.16258
1.16049
1.12047
1.11584
1.0622
1.06098
1.01111
0.98931
0.977669
0.970376
0.96147
0.960577
0.96592
0.965172
0.969276
0.970303
0.980054
0.984866
0.995494
1.00258
1.00904
1.02487
1.04389
1.0649
1.10199
1.13278
1.19422
1.26779
1.35187
1.42898
1.50186
1.57595
1.65256
1.72015
1.76509
1.7953
1.81138
1.82472
1.82829
1.82453
1.80727
1.78465
1.75072
1.70212
1.64176
1.57207
1.5208
1.49217
1.48458
1.4962
1.53637
1.60348
1.67125
1.71872
1.75195
1.77609
1.79974
1.82222
1.84645
1.86818
1.88393
1.88509
1.90088
1.90788
1.9251
0.198012
0.198497
0.198371
0.198298
0.198192
0.198069
0.197918
0.197749
0.197578
0.197363
0.197128
0.196906
0.196645
0.196354
0.196094
0.195821
0.195472
0.195165
0.194886
0.194556
0.194202
0.193893
0.193624
0.193343
0.19302
0.19271
0.192447
0.192154
0.191762
0.191338
0.19103
0.190785
0.19057
0.190363
0.190202
0.19013
0.189948
0.189755
0.189598
0.189869
0.190323
0.190999
0.192849
0.194484
0.203735
0.495207
0.892304
0.912508
0.8901
0.880878
0.878524
0.880623
0.980869
1.01239
1.18466
1.16137
1.14128
1.12654
1.08153
1.09607
0.986114
0.996586
0.987521
0.972683
0.968248
0.970369
0.976443
0.982149
0.991894
0.996683
1.01758
1.02974
1.06018
1.08735
1.12312
1.17973
1.22798
1.30912
1.38119
1.44566
1.51081
1.57245
1.64211
1.70325
1.74857
1.77731
1.79811
1.81268
1.82008
1.82301
1.82236
1.82397
1.81706
1.80911
1.79563
1.77651
1.74837
1.70857
1.65473
1.5935
1.54474
1.5197
1.51148
1.52356
1.55972
1.6153
1.67188
1.71274
1.74253
1.76339
1.78428
1.80493
1.82902
1.85224
1.86951
1.87294
1.88824
1.89532
1.91185
0.198022
0.198504
0.198378
0.198307
0.198198
0.198078
0.197929
0.197756
0.197585
0.19738
0.197137
0.196909
0.19666
0.196359
0.196089
0.195815
0.195478
0.195151
0.194861
0.19454
0.194163
0.193838
0.193528
0.193258
0.192951
0.192618
0.192277
0.191978
0.191615
0.191111
0.190763
0.190487
0.19026
0.190064
0.189873
0.189794
0.189676
0.189527
0.189257
0.189022
0.188842
0.188517
0.18829
0.186377
0.190006
0.632179
0.913001
0.925441
0.906164
0.894453
0.878969
0.873498
0.887516
0.894446
1.05218
1.1194
1.17111
1.1207
1.10134
1.08934
1.02284
1.02323
0.993817
0.99711
0.99201
1.00285
1.01602
1.04325
1.06905
1.09607
1.1559
1.2069
1.28047
1.35153
1.41651
1.47707
1.53284
1.59591
1.65738
1.71063
1.74723
1.77061
1.78769
1.79847
1.80474
1.81004
1.81126
1.81323
1.81223
1.81101
1.81169
1.81041
1.80497
1.79847
1.78571
1.76958
1.74684
1.71522
1.67115
1.61949
1.57657
1.5497
1.53931
1.54986
1.57925
1.62604
1.6733
1.70793
1.73384
1.75095
1.76908
1.78799
1.81159
1.83583
1.85469
1.86071
1.87585
1.88277
1.89851
0.198032
0.198511
0.198386
0.198315
0.198209
0.198086
0.197941
0.197768
0.197594
0.197396
0.197148
0.196914
0.196672
0.196371
0.196085
0.19581
0.195487
0.195141
0.194833
0.194517
0.194139
0.193774
0.193443
0.193156
0.192869
0.192519
0.192126
0.191795
0.191439
0.190937
0.190495
0.190183
0.189948
0.189747
0.189549
0.189386
0.189316
0.189099
0.188704
0.188196
0.187483
0.186848
0.184777
0.184656
0.199491
0.743336
0.916623
0.922684
0.91585
0.911928
0.894706
0.880646
0.866074
0.864542
0.937382
1.00007
1.10842
1.09945
1.17534
1.07795
1.07568
1.03472
1.03808
1.06104
1.08117
1.12926
1.17629
1.24951
1.32056
1.38933
1.45178
1.51102
1.5685
1.62301
1.68084
1.72352
1.75279
1.77208
1.78873
1.79674
1.80236
1.80503
1.80524
1.8035
1.80118
1.8009
1.80114
1.80094
1.8008
1.80281
1.8018
1.79918
1.79315
1.78713
1.77664
1.76302
1.74445
1.71858
1.68178
1.63799
1.60003
1.57511
1.56561
1.57487
1.59991
1.6384
1.6755
1.70379
1.72578
1.7394
1.75505
1.77222
1.79525
1.81944
1.83962
1.84821
1.86336
1.8702
1.88521
0.198043
0.198519
0.198394
0.198324
0.198215
0.198097
0.197955
0.197782
0.197601
0.197411
0.197163
0.196919
0.196679
0.196392
0.196087
0.195804
0.195496
0.195131
0.194802
0.19449
0.194123
0.193711
0.193361
0.193047
0.192774
0.192412
0.19197
0.191588
0.191252
0.190816
0.190252
0.189887
0.189623
0.189403
0.189194
0.189042
0.18905
0.188995
0.188892
0.18884
0.188869
0.190096
0.189945
0.1971
0.367533
0.881058
0.940586
0.935433
0.929693
0.925387
0.917924
0.904311
0.890476
0.877891
0.873363
0.934299
0.991223
1.1208
1.15123
1.1868
1.12739
1.17598
1.20315
1.28973
1.34992
1.40762
1.47357
1.53563
1.59508
1.65328
1.69876
1.72869
1.75115
1.76781
1.77997
1.78988
1.79812
1.80145
1.80291
1.80147
1.7984
1.79611
1.79612
1.79288
1.78967
1.79097
1.79069
1.78991
1.78858
1.79107
1.79122
1.78805
1.78331
1.77793
1.76977
1.75864
1.74267
1.72088
1.69029
1.65366
1.62143
1.59991
1.59091
1.59876
1.61943
1.64977
1.67824
1.70044
1.71832
1.72855
1.74169
1.75712
1.77916
1.8028
1.82401
1.83558
1.85115
1.85789
1.87238
0.198055
0.198528
0.198402
0.198332
0.198227
0.198104
0.197968
0.197799
0.197609
0.197421
0.197186
0.196928
0.196686
0.196414
0.196093
0.195799
0.195498
0.195133
0.194778
0.194462
0.194101
0.193651
0.193281
0.192936
0.192669
0.19229
0.191832
0.191395
0.191065
0.190673
0.190085
0.189609
0.189291
0.189048
0.188834
0.188621
0.188462
0.188393
0.188214
0.188093
0.18767
0.18781
0.186994
0.192524
0.566807
0.928915
0.953132
0.946727
0.94111
0.933353
0.92422
0.909743
0.894026
0.880648
0.880912
0.888369
0.952837
1.12213
1.32032
1.33849
1.38459
1.39152
1.49116
1.54129
1.59844
1.64542
1.68282
1.71218
1.73783
1.75652
1.76803
1.77724
1.78323
1.78703
1.78813
1.79024
1.79031
1.79091
1.79321
1.79263
1.78996
1.78837
1.78771
1.78383
1.78193
1.781
1.78065
1.77973
1.7795
1.78146
1.78107
1.77859
1.77464
1.76991
1.76351
1.75388
1.74073
1.7221
1.69692
1.66679
1.64014
1.6215
1.61416
1.6198
1.63655
1.65975
1.68064
1.69716
1.71121
1.71864
1.72962
1.74342
1.76421
1.78675
1.80817
1.82267
1.8387
1.84561
1.8597
0.198067
0.198537
0.198413
0.198344
0.19824
0.198114
0.19798
0.197816
0.197621
0.197431
0.197209
0.196941
0.196694
0.196434
0.196102
0.195796
0.195497
0.195141
0.194762
0.19443
0.194073
0.193605
0.193205
0.192827
0.192551
0.192168
0.19169
0.191216
0.190843
0.190489
0.190029
0.189379
0.188955
0.188651
0.188404
0.188157
0.187891
0.187654
0.187378
0.186744
0.185933
0.184404
0.18152
0.181114
0.678319
0.941508
0.957497
0.952134
0.94844
0.942952
0.93796
0.9326
0.924748
0.913514
0.925566
0.966278
1.0527
1.36048
1.52699
1.57663
1.60431
1.64319
1.66537
1.68868
1.70775
1.72107
1.73168
1.7436
1.75355
1.7607
1.76411
1.76716
1.77239
1.77449
1.77581
1.77755
1.77726
1.77958
1.78197
1.78362
1.78263
1.78081
1.77939
1.77626
1.7746
1.77216
1.77138
1.77011
1.77005
1.77049
1.77037
1.76877
1.7657
1.76205
1.75709
1.74935
1.73822
1.72229
1.70134
1.67658
1.65476
1.6398
1.63392
1.63812
1.65115
1.66812
1.68266
1.69418
1.7047
1.70939
1.71821
1.73016
1.74959
1.77088
1.7917
1.80985
1.82628
1.83337
1.84685
0.19808
0.198547
0.198423
0.198354
0.198257
0.198131
0.19799
0.197835
0.197638
0.197443
0.197232
0.19696
0.196705
0.196448
0.196122
0.195797
0.195497
0.195152
0.194752
0.194396
0.194034
0.193587
0.193139
0.192739
0.192409
0.192036
0.191557
0.191045
0.190618
0.190298
0.189871
0.189307
0.188665
0.188272
0.187985
0.187729
0.187524
0.187313
0.187239
0.187073
0.187576
0.186705
0.190725
0.252495
0.816062
0.954673
0.958151
0.957501
0.953856
0.950872
0.948401
0.949334
0.950241
0.941749
0.988983
1.11403
1.33344
1.60291
1.70098
1.7001
1.70304
1.70873
1.71727
1.72412
1.73005
1.73145
1.7303
1.73217
1.73429
1.73885
1.74348
1.74844
1.75274
1.75543
1.7583
1.76063
1.76261
1.76587
1.76944
1.77245
1.77317
1.77197
1.77081
1.7692
1.76651
1.76445
1.76343
1.76264
1.76255
1.76209
1.76157
1.76041
1.75766
1.7545
1.75003
1.74342
1.7342
1.72164
1.7046
1.68432
1.66693
1.65515
1.65123
1.65273
1.66307
1.67436
1.68393
1.69094
1.6985
1.70071
1.70763
1.71807
1.73593
1.75561
1.77574
1.79683
1.81324
1.82084
1.83353
0.198094
0.198557
0.198436
0.198368
0.198269
0.198146
0.198005
0.197857
0.197659
0.197457
0.197252
0.196987
0.196718
0.19646
0.19615
0.195808
0.195493
0.195159
0.19475
0.194362
0.193999
0.193578
0.19308
0.192655
0.192271
0.191904
0.191421
0.190872
0.190416
0.190052
0.189686
0.189226
0.188469
0.187922
0.187574
0.187352
0.187226
0.187109
0.187203
0.187545
0.18879
0.189564
0.197695
0.446103
0.919675
0.961038
0.955631
0.954667
0.952379
0.95106
0.950431
0.958137
0.977618
0.987835
1.1176
1.34814
1.59561
1.74513
1.74921
1.72985
1.72285
1.71866
1.71645
1.71665
1.71636
1.71479
1.71161
1.70923
1.70661
1.70812
1.7117
1.71665
1.72191
1.72697
1.73275
1.73818
1.74405
1.7493
1.75296
1.75747
1.76006
1.76085
1.76021
1.75978
1.75719
1.75726
1.7555
1.75523
1.75438
1.75317
1.752
1.75069
1.7484
1.74572
1.74209
1.73733
1.73027
1.72007
1.70632
1.6898
1.67594
1.66776
1.66426
1.6651
1.67181
1.67886
1.68428
1.68793
1.69275
1.69276
1.69763
1.70602
1.72263
1.74087
1.76017
1.78373
1.80034
1.80824
1.82019
0.198109
0.198569
0.198449
0.198384
0.198285
0.198165
0.198021
0.197875
0.197686
0.197474
0.197268
0.197021
0.196739
0.196473
0.196181
0.195824
0.195493
0.195162
0.19477
0.194344
0.19396
0.193559
0.193047
0.192577
0.192147
0.191784
0.191293
0.190689
0.19022
0.189785
0.189472
0.189006
0.18845
0.187637
0.187132
0.1868
0.186435
0.186118
0.185569
0.185032
0.184354
0.182533
0.185299
0.611035
0.94423
0.957708
0.953895
0.953842
0.953307
0.953237
0.952523
0.964579
1.02282
1.08755
1.36187
1.59717
1.7521
1.76093
1.73644
1.72401
1.71325
1.70616
1.70346
1.70222
1.70043
1.69786
1.69483
1.69092
1.68574
1.68542
1.6852
1.68765
1.69083
1.69569
1.70208
1.71028
1.71631
1.72304
1.72868
1.73632
1.74124
1.74483
1.74646
1.7478
1.74775
1.74772
1.74586
1.74636
1.74528
1.74413
1.74251
1.74107
1.73925
1.7372
1.73425
1.73043
1.72461
1.71697
1.70672
1.69367
1.68287
1.67678
1.67503
1.67401
1.67818
1.68178
1.68402
1.68509
1.68713
1.68483
1.68826
1.69554
1.71035
1.72675
1.74513
1.77024
1.78736
1.79538
1.80592
0.198125
0.198581
0.198464
0.198399
0.198301
0.198187
0.198041
0.197893
0.197717
0.197497
0.197286
0.197056
0.196764
0.19649
0.196207
0.19585
0.195499
0.19517
0.194786
0.194333
0.193922
0.193524
0.193045
0.192515
0.192045
0.191657
0.191168
0.190519
0.190016
0.189539
0.189189
0.188792
0.188244
0.18753
0.186688
0.18614
0.185551
0.184859
0.183903
0.182929
0.18031
0.179549
0.195317
0.752357
0.936703
0.951517
0.952849
0.955088
0.956093
0.963727
0.973989
0.995359
1.15278
1.3296
1.61614
1.75375
1.7611
1.73351
1.71824
1.70424
1.69577
1.69033
1.68794
1.68666
1.68529
1.68367
1.68168
1.67797
1.67402
1.67032
1.66636
1.66431
1.66327
1.66488
1.66881
1.67588
1.68569
1.6953
1.70474
1.7143
1.72194
1.72794
1.73192
1.73487
1.73644
1.73723
1.73725
1.73757
1.73659
1.73529
1.73347
1.73143
1.72971
1.7276
1.72531
1.72271
1.71889
1.71345
1.70494
1.69592
1.6878
1.68413
1.68102
1.68122
1.68235
1.68345
1.68275
1.68142
1.68141
1.67811
1.67921
1.68518
1.69865
1.71337
1.73083
1.75636
1.77463
1.78248
1.79284
0.198142
0.198595
0.198479
0.198416
0.198318
0.198208
0.198065
0.197913
0.197747
0.197525
0.197308
0.197086
0.196801
0.196511
0.196227
0.195889
0.19552
0.195179
0.194804
0.19433
0.193895
0.1935
0.193044
0.192473
0.19197
0.191533
0.191044
0.190391
0.189807
0.189318
0.188865
0.188537
0.188053
0.18752
0.186685
0.186064
0.185866
0.185906
0.186075
0.187447
0.18782
0.197975
0.422353
0.90655
0.954314
0.951503
0.951558
0.954193
0.960105
0.972356
1.02922
1.09007
1.38552
1.61277
1.75378
1.76025
1.73124
1.71435
1.69798
1.68609
1.67783
1.67303
1.67097
1.67017
1.66954
1.66915
1.66867
1.66647
1.66428
1.66007
1.6555
1.651
1.6467
1.64349
1.64452
1.64831
1.65499
1.66499
1.67466
1.68489
1.69308
1.70149
1.70869
1.71427
1.71886
1.72158
1.72336
1.72409
1.72439
1.72374
1.72277
1.72115
1.71992
1.71799
1.71588
1.7133
1.70983
1.70637
1.7014
1.69617
1.69102
1.6881
1.68671
1.68448
1.68465
1.68401
1.68169
1.67745
1.67587
1.67084
1.67077
1.67595
1.68753
1.70066
1.717
1.74236
1.76183
1.76987
1.77999
0.19816
0.19861
0.198496
0.198434
0.198337
0.198231
0.198092
0.197935
0.197774
0.197563
0.197333
0.197112
0.19685
0.196542
0.196249
0.195929
0.19555
0.195195
0.194822
0.194349
0.193888
0.193463
0.193027
0.192479
0.191919
0.191428
0.190933
0.190293
0.189597
0.189052
0.188553
0.188187
0.187827
0.187295
0.186772
0.185773
0.185172
0.184419
0.183704
0.182489
0.179975
0.182855
0.608935
0.954562
0.972912
0.969053
0.968446
0.967754
0.988238
1.00957
1.16986
1.3508
1.63425
1.75319
1.75738
1.72786
1.71064
1.69369
1.68063
1.67088
1.66386
1.65933
1.65713
1.65576
1.65499
1.65428
1.65416
1.65373
1.65292
1.6496
1.64635
1.64187
1.63668
1.63119
1.62761
1.627
1.62974
1.63619
1.64499
1.65647
1.66609
1.67763
1.68818
1.69692
1.70372
1.70804
1.71114
1.71257
1.71394
1.71396
1.71344
1.71182
1.71042
1.70796
1.7058
1.70386
1.70179
1.70093
1.69772
1.69343
1.69061
1.68967
1.68822
1.68728
1.68582
1.68394
1.67979
1.67334
1.66963
1.66274
1.66296
1.6671
1.67706
1.68891
1.70388
1.72842
1.74856
1.75807
1.76837
0.19818
0.198625
0.198514
0.198454
0.198358
0.198255
0.198122
0.197961
0.1978
0.197607
0.197368
0.197141
0.196899
0.196589
0.196278
0.195964
0.195594
0.19522
0.194844
0.194389
0.193894
0.193431
0.193012
0.192507
0.19189
0.191339
0.190856
0.190245
0.189421
0.18879
0.188267
0.187767
0.187448
0.187026
0.186459
0.185646
0.184575
0.183705
0.183181
0.180933
0.181367
0.203696
0.777649
0.963718
0.975605
0.980541
0.986982
0.991693
1.04994
1.13056
1.40548
1.62924
1.75274
1.75381
1.72417
1.70569
1.68842
1.67551
1.66617
1.65936
1.6542
1.65048
1.64744
1.64465
1.64269
1.64099
1.64011
1.63999
1.63986
1.63826
1.63592
1.63248
1.62827
1.62298
1.61687
1.61173
1.6112
1.61297
1.6182
1.627
1.63626
1.64923
1.66019
1.67199
1.681
1.68784
1.69298
1.69592
1.69834
1.69996
1.70091
1.70061
1.69935
1.69684
1.69447
1.6925
1.69075
1.69201
1.6908
1.68987
1.68841
1.68847
1.68778
1.68742
1.68479
1.68236
1.67699
1.66923
1.6626
1.65464
1.65564
1.65837
1.66684
1.67729
1.6915
1.7147
1.7354
1.74633
1.75656
0.198201
0.198642
0.198534
0.198477
0.198383
0.198279
0.198155
0.197993
0.19783
0.19765
0.19741
0.197173
0.19694
0.196659
0.196319
0.195993
0.195651
0.195262
0.194886
0.194442
0.193915
0.193435
0.192985
0.192512
0.191913
0.191293
0.190776
0.190161
0.189394
0.188566
0.187928
0.187431
0.187003
0.186791
0.186478
0.186137
0.185817
0.18612
0.187325
0.188629
0.199209
0.450251
0.955633
0.993934
0.984176
0.987275
1.01105
1.04154
1.1896
1.41917
1.644
1.75957
1.7577
1.72628
1.7075
1.68878
1.67382
1.66263
1.65411
1.64751
1.64261
1.63915
1.63606
1.63324
1.63107
1.62893
1.62774
1.6273
1.62699
1.62617
1.62431
1.62198
1.61833
1.61432
1.60868
1.60166
1.59736
1.594
1.59665
1.60211
1.60961
1.62164
1.6331
1.64883
1.66039
1.66997
1.67667
1.68129
1.68505
1.68793
1.68997
1.69045
1.68914
1.68612
1.68331
1.68124
1.68026
1.68366
1.68453
1.68462
1.68451
1.68578
1.68652
1.6855
1.68394
1.68033
1.67365
1.66417
1.65517
1.64713
1.64807
1.64884
1.6563
1.6655
1.67945
1.70157
1.72264
1.73461
1.74544
0.198224
0.198661
0.198555
0.198501
0.19841
0.198306
0.198189
0.198029
0.197863
0.197692
0.197461
0.197216
0.196986
0.196726
0.196381
0.196036
0.195692
0.195329
0.194945
0.194509
0.193963
0.19346
0.192966
0.192513
0.191953
0.191269
0.190688
0.190133
0.189425
0.188433