/*--------------------------------*- C++ -*----------------------------------*\
| =========                 |                                                 |
| \\      /  F ield         | OpenFOAM: The Open Source CFD Toolbox           |
|  \\    /   O peration     | Version:  2.2.x                                 |
|   \\  /    A nd           | Web:      www.OpenFOAM.org                      |
|    \\/     M anipulation  |                                                 |
\*---------------------------------------------------------------------------*/
FoamFile
{
    version     2.0;
    format      ascii;
    class       volVectorField;
    location    "2.1";
    object      U;
}
// * * * * * * * * * * * * * * * * * * * * * * * * * * * * * * * * * * * * * //

dimensions      [0 1 -1 0 0 0 0];

internalField   nonuniform List<vector> 
14161
(
(3.5 -7.7e-16 -1.40662e-24)
(3.5 -1.1202e-15 -6.70074e-24)
(3.5 -2.67036e-16 1.80012e-23)
(3.5 -1.78582e-15 1.37193e-23)
(3.5 -3.74938e-15 4.14665e-23)
(3.5 -2.6267e-15 -2.68897e-23)
(3.5 -2.82639e-15 7.93837e-23)
(3.5 -4.83484e-15 -4.38773e-24)
(3.5 -5.45301e-15 7.5096e-23)
(3.5 -1.27592e-15 -1.84282e-24)
(3.5 -1.69518e-15 2.69364e-24)
(3.5 -3.63833e-15 7.252e-24)
(3.5 -3.85145e-15 -3.04415e-23)
(3.5 -7.04444e-15 3.7697e-23)
(3.5 -5.30176e-15 -5.25915e-23)
(3.5 -5.74871e-15 -5.81856e-23)
(3.5 -5.34863e-15 -6.11983e-23)
(3.5 -6.7735e-15 -9.3795e-23)
(3.5 -5.78091e-15 -6.48671e-23)
(3.5 -5.59636e-15 -1.18496e-22)
(3.5 -3.011e-15 -1.62331e-22)
(3.5 -1.68862e-15 -1.1916e-22)
(3.5 -9.4593e-16 -1.65127e-22)
(3.5 4.0478e-16 -1.66875e-22)
(3.5 2.28054e-15 -2.11718e-22)
(3.5 2.6051e-15 -1.82889e-22)
(3.5 2.82687e-15 -2.08235e-22)
(3.5 2.00479e-15 -2.15381e-22)
(3.5 1.024e-16 -2.32121e-22)
(3.5 -1.98151e-15 -2.51696e-22)
(3.5 -2.00829e-15 -2.44173e-22)
(3.5 -1.68558e-15 -2.56528e-22)
(3.5 -1.41771e-15 -2.59109e-22)
(3.5 2.28931e-15 -2.61534e-22)
(3.5 5.50911e-14 -2.61093e-22)
(3.5 7.69188e-13 -2.6499e-22)
(3.5 1.00264e-11 -2.63629e-22)
(3.5 1.24549e-10 -2.63712e-22)
(3.5 1.44171e-09 -2.62883e-22)
(3.49997 1.44337e-08 -2.5826e-22)
(3.49956 9.07062e-08 -2.5657e-22)
(3.49263 -1.38691e-06 -2.53516e-22)
(3.36814 -6.87452e-06 -2.63107e-22)
(2.4341 0.00112482 -3.58011e-22)
(1.34022 0.00185946 -5.84462e-22)
(1.019 0.00312929 1.28857e-21)
(0.94539 0.00382033 9.37228e-22)
(0.923495 0.00405395 2.10854e-21)
(0.913383 0.00413298 6.33538e-21)
(0.904992 0.00415779 4.12294e-21)
(0.896384 0.00419198 6.29779e-21)
(0.886623 0.00422243 7.39424e-21)
(0.876182 0.00423595 9.6202e-21)
(0.866479 0.00425224 9.2696e-21)
(0.857792 0.00430686 8.11155e-21)
(0.850104 0.00438795 7.98316e-21)
(0.842172 0.00448028 7.55424e-21)
(0.833453 0.00457525 7.73337e-21)
(0.823458 0.0046531 6.72677e-21)
(0.812724 0.00468948 7.03135e-21)
(0.80291 0.0047139 5.51066e-21)
(0.794459 0.00477048 7.33855e-21)
(0.787124 0.00485356 2.36888e-21)
(0.77916 0.00494759 2.90327e-21)
(0.769929 0.00504321 3.66066e-21)
(0.75902 0.00510483 4.11196e-22)
(0.748169 0.00513843 6.21611e-22)
(0.738537 0.00517761 2.63043e-23)
(0.730545 0.00524135 1.68978e-21)
(0.722971 0.00531615 -3.09152e-22)
(0.714414 0.00539034 3.25788e-22)
(0.703871 0.00545519 1.87174e-23)
(0.69221 0.0054834 4.14111e-21)
(0.681603 0.00551233 -1.32423e-21)
(0.672574 0.00555814 2.22799e-21)
(0.664665 0.00562039 4.57987e-22)
(0.656112 0.00568548 2.9297e-22)
(0.645733 0.00574127 7.09389e-22)
(0.633645 0.00576846 -2.06147e-22)
(0.62222 0.00578503 1.45877e-21)
(0.612332 0.0058147 2.38112e-21)
(0.603661 0.00585476 3.26178e-22)
(0.594511 0.00589807 3.24954e-22)
(0.583514 0.00593667 5.70672e-22)
(0.570865 0.00596031 9.48238e-22)
(0.558834 0.00598356 -2.44781e-22)
(0.548281 0.00600698 -5.69052e-21)
(0.538614 0.00603084 1.65944e-22)
(0.528257 0.00606055 -6.8895e-21)
(0.515815 0.00609205 -4.53115e-22)
(0.502465 0.00612745 -2.98545e-21)
(0.489927 0.00616892 1.90602e-21)
(0.478744 0.00619733 -6.30942e-21)
(0.467658 0.00622122 -2.01879e-21)
(0.455218 0.00624552 -4.40885e-22)
(0.441054 0.00628292 -2.46779e-21)
(0.426989 0.00635908 7.95575e-22)
(0.413954 0.00645094 -4.261e-21)
(0.401473 0.00653687 3.13848e-21)
(0.388085 0.00661726 -8.82063e-21)
(0.372856 0.0067047 2.15016e-21)
(0.357305 0.00681294 1.04874e-20)
(0.342323 0.00695688 -3.69697e-21)
(0.327839 0.00712439 3.69337e-21)
(0.312532 0.00730458 -8.14543e-21)
(0.295569 0.00749217 1.13906e-20)
(0.278189 0.00770326 -4.58804e-21)
(0.261127 0.00795147 -3.16646e-20)
(0.244176 0.00823849 3.56662e-21)
(0.226064 0.00856315 -5.14665e-20)
(0.206588 0.00893504 4.36485e-20)
(0.186617 0.00937342 -5.05407e-20)
(0.166531 0.0099065 -1.31421e-20)
(0.145838 0.0105343 -3.95373e-21)
(0.123433 0.0113027 -8.3095e-20)
(0.0996099 0.0121971 -2.4888e-20)
(0.0745443 0.0134613 -4.91902e-20)
(0.0475776 0.0144699 -5.55491e-20)
(0.0210001 0.0210299 -2.46233e-19)
(3.5 1.06147e-15 -1.40238e-23)
(3.5 3.46872e-15 1.03815e-22)
(3.5 3.836e-15 8.51521e-23)
(3.5 7.03672e-16 -6.54866e-25)
(3.5 -6.38339e-16 1.41515e-23)
(3.5 -3.85097e-15 1.87816e-23)
(3.5 -3.74497e-15 1.18187e-23)
(3.5 -1.71912e-15 -2.67534e-24)
(3.5 -5.00608e-15 5.54036e-23)
(3.5 -1.64599e-15 -2.556e-23)
(3.5 -2.81614e-15 3.79574e-23)
(3.5 -2.50207e-15 -3.70832e-23)
(3.5 -5.35366e-15 2.26187e-23)
(3.5 -7.26603e-15 -8.39752e-23)
(3.5 -4.86249e-15 -1.55104e-22)
(3.5 -2.91387e-15 -1.14927e-22)
(3.5 -2.1945e-15 -7.60681e-23)
(3.5 -5.44676e-15 -1.77758e-22)
(3.5 -5.92129e-15 -1.2748e-22)
(3.5 -4.77408e-15 -1.98437e-22)
(3.5 -1.19762e-15 -1.5417e-22)
(3.5 1.6045e-15 -1.75831e-22)
(3.5 1.25518e-15 -2.29816e-22)
(3.5 2.6757e-15 -2.72153e-22)
(3.5 3.01137e-15 -1.92615e-22)
(3.5 3.70508e-15 -1.59147e-22)
(3.5 5.13719e-15 -2.76854e-22)
(3.5 3.75391e-15 -2.73271e-22)
(3.5 1.84294e-15 -3.32433e-22)
(3.5 -3.03747e-16 -2.65911e-22)
(3.5 -1.57058e-15 -3.27057e-22)
(3.5 -2.44311e-15 -2.87059e-22)
(3.5 -1.56129e-15 -2.8662e-22)
(3.5 1.22063e-14 -3.05109e-22)
(3.5 1.97302e-13 -3.06139e-22)
(3.5 2.8732e-12 -2.94158e-22)
(3.5 4.09404e-11 -3.11585e-22)
(3.5 5.80686e-10 -3.00227e-22)
(3.5 8.17383e-09 -2.96452e-22)
(3.49997 1.1125e-07 -2.84877e-22)
(3.49956 1.29989e-06 -2.90585e-22)
(3.49263 -9.92479e-06 -2.78984e-22)
(3.36825 0.000683972 -2.84597e-22)
(2.43452 0.00614782 -3.59448e-22)
(1.33865 0.00813552 -2.50953e-22)
(1.01542 0.00970937 -1.35863e-21)
(0.941155 0.010385 1.75679e-21)
(0.919275 0.0107792 6.64125e-21)
(0.909385 0.0111609 -3.40364e-21)
(0.901202 0.0114111 8.64603e-22)
(0.892719 0.011616 -4.4715e-24)
(0.882987 0.0117938 -1.59219e-21)
(0.872567 0.0119555 -7.88388e-21)
(0.862918 0.0121375 -2.22964e-21)
(0.854298 0.0123777 -5.62047e-21)
(0.846634 0.0126135 3.1829e-21)
(0.838662 0.0128329 3.35362e-21)
(0.829892 0.0130382 3.09297e-21)
(0.819803 0.0132095 1.54698e-21)
(0.809013 0.01337 -5.64795e-21)
(0.799218 0.0135551 -1.08884e-21)
(0.790803 0.0137842 -6.01711e-21)
(0.783471 0.0140049 -6.69512e-21)
(0.775467 0.0142126 4.34281e-21)
(0.766152 0.0144033 -1.01614e-20)
(0.755157 0.0145573 2.54008e-21)
(0.744297 0.0147139 -9.47445e-22)
(0.73468 0.0149013 4.40888e-21)
(0.726726 0.0151022 -1.95277e-21)
(0.719123 0.0152804 -1.79853e-21)
(0.71051 0.0154371 -3.78944e-21)
(0.699864 0.0155721 -1.64105e-21)
(0.688172 0.0156927 -2.15799e-21)
(0.677597 0.0158374 -1.53064e-21)
(0.668601 0.0160018 -1.34409e-21)
(0.660696 0.0161502 4.28773e-22)
(0.652099 0.0162784 -6.20715e-22)
(0.641634 0.0163873 1.08513e-21)
(0.629516 0.0164794 -2.10067e-21)
(0.61811 0.0165882 4.02579e-21)
(0.608262 0.0167044 6.5431e-22)
(0.599606 0.0168059 -5.34163e-22)
(0.590442 0.0168974 2.95626e-21)
(0.579402 0.0169829 1.02875e-20)
(0.566763 0.0170681 -5.91373e-21)
(0.554769 0.0171739 1.24433e-20)
(0.544253 0.0172688 -3.20035e-21)
(0.534614 0.0173448 -6.67418e-21)
(0.524275 0.0174231 1.75168e-20)
(0.511845 0.0175189 6.7328e-21)
(0.498537 0.017646 -6.9718e-22)
(0.486037 0.0177858 7.95006e-21)
(0.474851 0.0178881 -7.01688e-21)
(0.463779 0.0179681 -2.18479e-20)
(0.45136 0.0180637 1.31044e-20)
(0.437262 0.0182234 -1.03463e-20)
(0.423251 0.018466 9.93918e-21)
(0.410224 0.0187146 -2.4136e-20)
(0.397717 0.0189451 1.26696e-20)
(0.384305 0.0191895 -1.65638e-21)
(0.369103 0.0194979 1.4862e-20)
(0.353591 0.0198763 -1.10591e-20)
(0.338667 0.0203352 -4.38815e-20)
(0.324204 0.0208276 7.1671e-21)
(0.308874 0.0213577 -9.94576e-21)
(0.291914 0.0219614 -3.6844e-20)
(0.274584 0.022635 2.06749e-20)
(0.257649 0.0234254 1.46718e-19)
(0.240797 0.0243355 -4.96821e-19)
(0.222708 0.0253744 1.26197e-18)
(0.203279 0.0265564 -1.67505e-18)
(0.183367 0.0279113 7.76775e-19)
(0.163381 0.0295411 1.90564e-18)
(0.142636 0.0314502 -4.3812e-18)
(0.120033 0.0338145 3.13842e-18)
(0.0959614 0.0364811 4.01903e-18)
(0.0708583 0.0402366 -8.25093e-18)
(0.0435048 0.0433275 -1.67728e-17)
(0.0169106 0.052366 3.93806e-18)
(3.5 1.2974e-15 6.33576e-23)
(3.5 7.08185e-15 -8.33946e-23)
(3.5 5.98419e-15 -5.97786e-23)
(3.5 2.98474e-15 -2.49504e-24)
(3.5 1.50306e-15 4.87387e-23)
(3.5 -2.70035e-15 -1.67759e-23)
(3.5 7.71286e-17 -2.24821e-23)
(3.5 3.20449e-15 -3.70328e-23)
(3.5 -9.87111e-17 2.28115e-23)
(3.5 -3.01045e-15 -2.14052e-23)
(3.5 -7.53448e-15 1.05234e-22)
(3.5 -1.04376e-14 -2.41091e-22)
(3.5 -8.17987e-15 -1.62721e-22)
(3.5 -6.22134e-15 -1.23021e-22)
(3.5 -9.02456e-16 1.05964e-23)
(3.5 -1.4266e-16 -5.55795e-23)
(3.5 -1.04568e-15 -5.31978e-23)
(3.5 -8.98234e-16 -1.21086e-22)
(3.5 -2.98606e-15 2.86582e-23)
(3.5 -3.008e-15 -7.18178e-23)
(3.5 -2.60364e-16 -1.62185e-22)
(3.5 2.53787e-15 -4.26382e-22)
(3.5 2.03791e-15 -1.34666e-22)
(3.5 2.51574e-15 -2.5717e-22)
(3.5 2.62192e-15 -6.75688e-22)
(3.5 3.79735e-15 -5.40484e-22)
(3.5 3.87489e-15 -5.45262e-22)
(3.5 4.83368e-15 -5.75688e-22)
(3.5 4.5514e-15 -4.41621e-22)
(3.5 2.13976e-15 -2.86047e-22)
(3.5 1.41215e-15 -3.10949e-22)
(3.5 1.24307e-15 -2.85906e-22)
(3.5 3.50704e-15 -3.09816e-22)
(3.5 2.85251e-14 -2.68633e-22)
(3.5 3.95431e-13 -3.02193e-22)
(3.5 6.0336e-12 -2.76901e-22)
(3.5 9.28425e-11 -2.7336e-22)
(3.5 1.42584e-09 -2.70605e-22)
(3.5 2.17616e-08 -2.6519e-22)
(3.49997 3.25007e-07 -2.59354e-22)
(3.49958 4.27965e-06 -2.52878e-22)
(3.49285 -1.59287e-05 -2.31277e-22)
(3.37036 0.00216528 -2.45525e-22)
(2.44094 0.0149779 -2.97966e-22)
(1.3405 0.0173781 -3.17471e-22)
(1.01522 0.0190679 4.76625e-21)
(0.940324 0.0195593 5.82731e-21)
(0.918337 0.0198772 1.36725e-20)
(0.908445 0.0203054 9.67959e-21)
(0.900242 0.0206263 1.55329e-20)
(0.891729 0.0209197 4.11557e-21)
(0.881936 0.0212153 1.01523e-20)
(0.871508 0.0214876 1.11433e-20)
(0.861895 0.0217724 2.54047e-21)
(0.853339 0.0221384 1.51176e-20)
(0.845677 0.0225034 -6.15707e-21)
(0.837647 0.022838 1.92016e-21)
(0.828809 0.0231613 -1.02964e-20)
(0.818631 0.0234646 -9.01072e-21)
(0.807839 0.0237377 4.07795e-21)
(0.798077 0.0240507 -1.94744e-20)
(0.789724 0.0244248 -3.32853e-21)
(0.782373 0.0247729 4.65693e-21)
(0.774315 0.0250844 -1.35684e-20)
(0.764906 0.0253861 -1.34724e-20)
(0.753845 0.025648 -1.03383e-20)
(0.742999 0.0258947 -1.0275e-20)
(0.733421 0.0261886 -4.89214e-21)
(0.725503 0.0265102 2.33526e-22)
(0.717851 0.0267925 3.82817e-21)
(0.709156 0.0270459 -6.93566e-23)
(0.698405 0.0272742 1.22457e-21)
(0.686691 0.0274618 1.00942e-20)
(0.676156 0.0276726 6.18434e-21)
(0.667196 0.0279184 -1.8595e-21)
(0.659271 0.0281497 1.53502e-20)
(0.650603 0.0283426 9.76134e-22)
(0.640025 0.0285206 5.31502e-21)
(0.627872 0.0286552 -6.77831e-21)
(0.616483 0.0288032 1.31287e-20)
(0.606671 0.0289744 -2.4702e-22)
(0.597993 0.0291303 2.62138e-21)
(0.588766 0.0292637 -4.19312e-21)
(0.577632 0.0293916 1.27572e-20)
(0.564957 0.0294891 8.07263e-21)
(0.552971 0.0296147 -2.08509e-20)
(0.542471 0.0297565 1.40067e-20)
(0.532804 0.0298768 -2.28917e-20)
(0.522394 0.0299814 -1.72567e-20)
(0.509894 0.0301065 5.97252e-21)
(0.496586 0.0302477 -3.70599e-20)
(0.484106 0.0304447 2.0379e-20)
(0.472897 0.0306333 -2.27209e-20)
(0.461766 0.0307925 1.78161e-20)
(0.449273 0.0309586 1.40708e-20)
(0.435171 0.0311811 -2.10155e-20)
(0.421162 0.0315144 2.05753e-20)
(0.408087 0.0319034 -6.00091e-21)
(0.395452 0.0322866 3.96004e-21)
(0.381883 0.0327018 -1.55431e-20)
(0.366591 0.0332093 -1.61247e-20)
(0.351013 0.0338184 1.10906e-19)
(0.336042 0.0345358 -2.04049e-19)
(0.321446 0.035307 3.92655e-19)
(0.305917 0.0361509 -5.69768e-19)
(0.288794 0.0371064 4.83977e-19)
(0.271338 0.0382191 2.77186e-19)
(0.254319 0.0394928 -2.67908e-18)
(0.23735 0.0409167 7.18953e-18)
(0.21911 0.0425574 -1.37028e-17)
(0.1996 0.0445007 1.67283e-17)
(0.179721 0.0467532 -5.06835e-18)
(0.159957 0.0494454 -2.64142e-17)
(0.13938 0.0525695 6.21285e-17)
(0.117006 0.0565096 -3.37183e-17)
(0.0933032 0.0609705 -1.09805e-16)
(0.0690722 0.0671917 1.58464e-16)
(0.0427056 0.0726016 3.86815e-16)
(0.017303 0.0832621 4.37075e-16)
(3.5 -4.58288e-16 -8.7104e-23)
(3.5 2.95468e-16 3.47369e-23)
(3.5 3.57436e-16 9.60285e-23)
(3.5 2.33981e-16 1.05994e-22)
(3.5 -1.88088e-15 -2.12965e-23)
(3.5 -4.40223e-15 -1.1699e-22)
(3.5 -3.49722e-15 -5.77877e-23)
(3.5 -2.63724e-15 -8.48771e-23)
(3.5 9.19551e-16 -5.51725e-23)
(3.5 -3.14709e-16 -5.46992e-23)
(3.5 -6.85015e-15 -2.77527e-22)
(3.5 -1.10304e-14 -3.43021e-22)
(3.5 -9.84681e-15 -3.49602e-22)
(3.5 -5.60395e-15 -4.42183e-22)
(3.5 -1.04319e-15 3.65359e-23)
(3.5 1.10165e-16 -5.71315e-23)
(3.5 7.1887e-16 -1.32658e-22)
(3.5 -3.57371e-16 -6.74561e-23)
(3.5 -2.52674e-15 -8.45289e-22)
(3.5 -6.24534e-16 -3.29197e-23)
(3.5 3.37022e-15 -9.59915e-24)
(3.5 3.30503e-15 9.5455e-23)
(3.5 3.13682e-15 -9.66995e-23)
(3.5 6.32572e-15 -1.99281e-23)
(3.5 8.8819e-15 -2.88535e-23)
(3.5 7.30099e-15 -2.0786e-22)
(3.5 5.20816e-15 -4.19883e-23)
(3.5 5.61833e-15 2.25091e-22)
(3.5 2.87246e-15 9.11409e-23)
(3.5 9.40398e-16 -1.14346e-22)
(3.5 4.04031e-16 -1.01244e-22)
(3.5 2.98826e-15 -1.05249e-22)
(3.5 6.85935e-15 -1.09942e-22)
(3.5 4.10474e-14 -1.15261e-22)
(3.5 5.67628e-13 -8.23586e-23)
(3.5 8.76635e-12 -7.99093e-23)
(3.5 1.3626e-10 -9.27501e-23)
(3.5 2.11798e-09 -5.10343e-23)
(3.5 3.28534e-08 -4.54744e-23)
(3.49998 4.9895e-07 -4.94467e-23)
(3.4996 6.61055e-06 -4.57414e-23)
(3.49329 -2.90788e-05 -4.82469e-23)
(3.37459 0.00359609 1.27355e-23)
(2.454 0.0224893 -2.39593e-22)
(1.34623 0.0256584 -4.40212e-22)
(1.01909 0.0278759 -5.56406e-21)
(0.94374 0.0283939 -1.71319e-21)
(0.921638 0.0287696 -9.51071e-21)
(0.911547 0.0294206 -2.07454e-20)
(0.903081 0.0299373 -3.45528e-21)
(0.894328 0.0303949 -2.03238e-20)
(0.884329 0.0308174 7.33817e-22)
(0.873859 0.0312257 -1.69782e-20)
(0.864243 0.0316738 5.05223e-21)
(0.855755 0.0321944 -1.07527e-20)
(0.848081 0.0326909 1.10036e-20)
(0.839988 0.0331448 1.60552e-20)
(0.83106 0.0335725 1.68584e-20)
(0.820803 0.0339657 1.76618e-20)
(0.810078 0.034361 1.80253e-20)
(0.800417 0.03484 1.91706e-20)
(0.79218 0.0353806 3.36712e-20)
(0.784796 0.0358634 1.39418e-20)
(0.77666 0.0362807 3.38893e-20)
(0.767149 0.0366566 2.62863e-20)
(0.756069 0.0369942 2.74128e-20)
(0.7453 0.0373526 2.88693e-20)
(0.735843 0.0377956 9.13276e-21)
(0.728009 0.0382461 2.55094e-20)
(0.720311 0.0386268 -5.13887e-21)
(0.71151 0.0389624 7.79101e-22)
(0.700653 0.0392466 -4.51592e-21)
(0.688993 0.0395095 8.80936e-21)
(0.678563 0.0398305 2.54701e-21)
(0.669707 0.0401798 -1.86539e-21)
(0.661759 0.0404837 4.01935e-21)
(0.653012 0.04073 -2.46072e-21)
(0.642304 0.0409408 4.67807e-22)
(0.630164 0.0411172 5.80567e-21)
(0.618858 0.0413525 -2.07321e-21)
(0.609122 0.0416087 -2.25146e-21)
(0.600409 0.0418202 -6.37926e-21)
(0.591077 0.0419886 -1.39329e-21)
(0.579805 0.042135 8.23791e-22)
(0.567121 0.0422678 -1.0337e-20)
(0.555174 0.0424639 1.95153e-20)
(0.544691 0.0426693 2.69524e-21)
(0.534929 0.0428434 -2.43827e-20)
(0.524384 0.0429986 3.94003e-20)
(0.511761 0.0431358 2.07665e-20)
(0.498449 0.0432908 2.25464e-20)
(0.485992 0.0435528 6.29452e-20)
(0.474719 0.0438294 -1.95201e-20)
(0.463414 0.0440874 1.81666e-20)
(0.450672 0.0443633 -4.54362e-21)
(0.436423 0.0446862 -3.43134e-20)
(0.42229 0.045108 -3.70602e-20)
(0.409066 0.0456268 -1.98384e-20)
(0.396173 0.0461772 -1.2322e-20)
(0.382278 0.046769 -4.73147e-20)
(0.366729 0.0474828 5.44098e-20)
(0.350927 0.0483413 -1.91309e-19)
(0.335747 0.0493106 2.92274e-19)
(0.320896 0.0503458 -5.2412e-19)
(0.305058 0.0514892 6.13364e-19)
(0.287693 0.0528162 -4.18353e-19)
(0.270034 0.0543656 -1.35903e-18)
(0.252839 0.0561003 6.37265e-18)
(0.235627 0.05802 -1.73999e-17)
(0.217128 0.0602353 3.46976e-17)
(0.197469 0.0628948 -4.50586e-17)
(0.177548 0.0659807 9.75099e-18)
(0.157842 0.069617 1.13749e-16)
(0.137308 0.0737827 -2.64807e-16)
(0.11514 0.0791043 6.10478e-17)
(0.0917842 0.0851415 6.7818e-16)
(0.0684586 0.0934938 -1.12266e-16)
(0.0432921 0.101033 -8.68718e-16)
(0.0189521 0.112085 -1.15109e-15)
(3.5 -3.54362e-16 -7.68029e-23)
(3.5 -1.5035e-15 1.42449e-22)
(3.5 -3.16545e-15 -1.58775e-22)
(3.5 -3.76498e-15 1.84894e-22)
(3.5 -6.01586e-15 1.32672e-22)
(3.5 -2.57052e-15 4.25653e-22)
(3.5 -2.46724e-15 1.38284e-22)
(3.5 -1.5513e-15 -1.52567e-22)
(3.5 3.18109e-15 6.95773e-23)
(3.5 1.07753e-15 -2.45162e-22)
(3.5 -1.04429e-15 -8.87715e-22)
(3.5 -1.54349e-15 1.84675e-22)
(3.5 -4.18629e-15 -7.84247e-23)
(3.5 -5.30646e-16 -5.81253e-23)
(3.5 6.15607e-16 -5.83698e-22)
(3.5 1.49704e-15 -5.28507e-22)
(3.5 2.42592e-15 -1.87514e-22)
(3.5 8.8744e-17 -1.10006e-22)
(3.5 -9.67622e-16 4.907e-22)
(3.5 1.38969e-17 -5.00751e-22)
(3.5 9.1501e-16 -4.63075e-22)
(3.5 8.73911e-16 -3.6378e-22)
(3.5 5.21061e-15 -5.3933e-22)
(3.5 8.94608e-15 -5.31059e-22)
(3.5 9.56213e-15 -1.89533e-22)
(3.5 1.0501e-14 -8.43918e-23)
(3.5 9.6695e-15 -4.01832e-22)
(3.5 8.49108e-15 -5.54378e-22)
(3.5 6.75659e-15 -5.17413e-22)
(3.5 4.61734e-15 5.26746e-23)
(3.5 1.99709e-15 1.85584e-22)
(3.5 7.15578e-16 1.58867e-22)
(3.5 2.05955e-15 2.07318e-22)
(3.5 3.78684e-14 8.55543e-23)
(3.5 6.16724e-13 3.78469e-23)
(3.5 9.54273e-12 1.67943e-22)
(3.5 1.47051e-10 1.31436e-22)
(3.5 2.26528e-09 8.76327e-23)
(3.5 3.47938e-08 1.52007e-22)
(3.49998 5.21714e-07 1.40905e-22)
(3.49964 6.65715e-06 1.39021e-22)
(3.49381 -4.60687e-05 1.84047e-22)
(3.37963 0.00403086 2.74166e-22)
(2.4699 0.0268504 -7.54759e-22)
(1.35261 0.0321255 -1.23289e-21)
(1.02233 0.0360294 4.23998e-21)
(0.946111 0.0373642 4.49429e-22)
(0.924001 0.0381472 1.67484e-20)
(0.913993 0.0390028 -2.64286e-21)
(0.905553 0.0396275 -3.60664e-21)
(0.896774 0.0401993 2.9439e-21)
(0.886721 0.0406998 3.97291e-21)
(0.876347 0.041167 1.89703e-20)
(0.866849 0.0416966 3.37016e-21)
(0.858537 0.0423254 3.34519e-21)
(0.850956 0.0429409 -4.8589e-21)
(0.842915 0.0435205 -7.86647e-21)
(0.833965 0.0440758 -7.10051e-23)
(0.823626 0.0445652 1.52543e-21)
(0.813049 0.04502 -6.33161e-22)
(0.803567 0.045565 -1.15789e-20)
(0.795556 0.0462269 2.76387e-21)
(0.788271 0.0468459 -4.41974e-21)
(0.780122 0.0474046 -1.01658e-20)
(0.770516 0.0478911 -3.30251e-21)
(0.75946 0.0482814 -1.21041e-20)
(0.748898 0.0486792 -2.98667e-21)
(0.739691 0.0491812 -1.0411e-20)
(0.732071 0.0497287 7.4497e-21)
(0.724414 0.0502196 -8.46935e-21)
(0.715564 0.0506507 9.28203e-21)
(0.70463 0.0509896 -1.00445e-21)
(0.693147 0.0512525 -5.79204e-21)
(0.682931 0.0516021 2.59696e-20)
(0.674316 0.0520129 -7.84859e-21)
(0.666403 0.0523986 9.44753e-21)
(0.657662 0.0527184 -2.99902e-20)
(0.646883 0.0529718 2.63637e-20)
(0.634843 0.0531271 1.79425e-21)
(0.62375 0.0533531 4.09838e-21)
(0.614222 0.0536478 -1.69545e-20)
(0.605542 0.0539458 -2.04003e-20)
(0.596166 0.0541876 3.21677e-20)
(0.584804 0.0543647 -2.53454e-20)
(0.572225 0.0544651 -9.2285e-22)
(0.560443 0.0546571 -2.06482e-20)
(0.550077 0.0549221 1.44581e-20)
(0.540233 0.0552025 9.41875e-21)
(0.529552 0.055463 -6.88057e-22)
(0.516831 0.0556448 4.2215e-20)
(0.503581 0.0558132 -2.19823e-20)
(0.49117 0.0561263 7.46542e-20)
(0.479819 0.0565556 4.1829e-20)
(0.468238 0.0570529 6.54184e-20)
(0.455108 0.0575877 4.66992e-20)
(0.440588 0.0581258 6.68674e-20)
(0.426263 0.0587423 8.21477e-20)
(0.412906 0.0594562 4.42381e-20)
(0.399717 0.0602705 5.52251e-20)
(0.385344 0.0611922 1.194e-19)
(0.369393 0.0622144 -1.41688e-19)
(0.3533 0.0633754 2.16125e-19)
(0.337867 0.0646481 4.40949e-20)
(0.322705 0.0659854 -2.68399e-19)
(0.306527 0.0674341 6.37588e-19)
(0.288903 0.0691452 -6.58349e-20)
(0.271008 0.0711265 -2.79893e-19)
(0.25359 0.0732861 -3.21893e-18)
(0.23612 0.0756657 1.81111e-17)
(0.217378 0.0784354 -5.06895e-17)
(0.197548 0.0817994 7.86931e-17)
(0.177502 0.0856591 -1.3973e-17)
(0.157742 0.0901625 -2.78524e-16)
(0.137216 0.0952958 5.86099e-16)
(0.115263 0.101879 1.74765e-16)
(0.0921612 0.109296 -1.67224e-15)
(0.0695134 0.119402 -2.12611e-15)
(0.0451513 0.128862 -1.8164e-15)
(0.0214896 0.139876 -1.68255e-15)
(3.5 -2.35492e-15 1.12478e-22)
(3.5 -4.10488e-15 2.36431e-23)
(3.5 -3.47148e-15 8.53185e-23)
(3.5 -3.22617e-15 -2.01093e-22)
(3.5 -3.9266e-15 -3.98113e-22)
(3.5 6.05838e-16 -9.55601e-22)
(3.5 3.34657e-15 -5.01867e-22)
(3.5 2.58312e-15 1.25167e-22)
(3.5 -6.83279e-17 -8.81372e-22)
(3.5 -3.43638e-15 -6.83258e-22)
(3.5 -1.05993e-15 -2.29855e-23)
(3.5 -2.13951e-16 -9.94102e-22)
(3.5 -2.53866e-15 -1.41906e-21)
(3.5 -2.37059e-15 -4.3885e-22)
(3.5 5.11765e-16 -6.92816e-22)
(3.5 1.6276e-15 -3.26839e-22)
(3.5 2.32871e-15 -1.28577e-21)
(3.5 1.92694e-15 -1.87753e-22)
(3.5 -5.75721e-16 -8.69671e-22)
(3.5 -1.39002e-15 -8.19551e-22)
(3.5 -3.7803e-15 -4.96131e-22)
(3.5 -2.78994e-15 -3.93025e-22)
(3.5 6.54167e-16 -3.13833e-24)
(3.5 4.2622e-15 1.01244e-22)
(3.5 5.69455e-15 2.5262e-22)
(3.5 9.10987e-15 3.76674e-22)
(3.5 1.03759e-14 4.02292e-22)
(3.5 9.17322e-15 3.3694e-22)
(3.5 8.30548e-15 3.01217e-22)
(3.5 7.2628e-15 1.03064e-22)
(3.5 5.52166e-15 1.88341e-22)
(3.5 3.63291e-15 1.31965e-22)
(3.5 3.30733e-15 1.56017e-22)
(3.5 3.90308e-14 9.27124e-23)
(3.5 6.27562e-13 8.89771e-23)
(3.5 9.66827e-12 8.22635e-23)
(3.5 1.48034e-10 7.69819e-23)
(3.5 2.26726e-09 7.68345e-23)
(3.5 3.46609e-08 5.29937e-23)
(3.49998 5.16155e-07 3.90306e-23)
(3.49967 6.34022e-06 4.83698e-23)
(3.49427 -6.5597e-05 6.30245e-23)
(3.38443 0.00447639 3.99948e-22)
(2.48623 0.0323759 1.19958e-21)
(1.35749 0.0401355 3.33936e-21)
(1.02189 0.0456276 -8.56605e-21)
(0.943735 0.0474005 6.66676e-22)
(0.921115 0.0483538 1.97739e-21)
(0.910884 0.0492754 2.85166e-20)
(0.9022 0.049866 1.09871e-20)
(0.893078 0.0504162 3.11211e-20)
(0.882732 0.0509633 -2.19436e-20)
(0.872454 0.0515115 1.70257e-20)
(0.863038 0.0521657 -1.61673e-20)
(0.854886 0.052934 -9.17695e-21)
(0.847237 0.0536406 -1.52357e-20)
(0.83902 0.0542861 -2.12754e-20)
(0.82988 0.0549074 -2.06307e-20)
(0.819369 0.0554701 -1.30086e-20)
(0.808953 0.0560406 -3.52384e-21)
(0.799653 0.0567567 -5.53851e-22)
(0.791919 0.0575598 -3.05492e-20)
(0.784561 0.0582636 -1.75935e-20)
(0.776225 0.0588841 -1.3826e-20)
(0.766367 0.0594505 -1.81916e-20)
(0.755293 0.0599198 -2.01424e-20)
(0.744986 0.0604554 -1.08853e-20)
(0.736094 0.0611352 -2.45392e-20)
(0.728683 0.0618071 8.60505e-21)
(0.720926 0.0623667 -2.66466e-20)
(0.711844 0.0628552 3.84731e-21)
(0.700689 0.0632324 -4.62119e-21)
(0.689474 0.0635805 -3.64442e-20)
(0.679573 0.0640471 -2.65868e-21)
(0.671339 0.0645954 -9.99668e-21)
(0.663508 0.0650739 4.36497e-21)
(0.654651 0.0654728 -1.18652e-20)
(0.643606 0.0657688 2.91549e-21)
(0.631715 0.0659577 -4.47841e-20)
(0.621044 0.0662678 4.94137e-21)
(0.61198 0.0666747 -1.14549e-20)
(0.603528 0.0670892 1.51196e-20)
(0.594192 0.0674409 -3.04021e-20)
(0.582649 0.0676847 1.28557e-20)
(0.570268 0.0677879 2.00955e-20)
(0.55897 0.0680186 2.64797e-20)
(0.54921 0.0683593 3.08629e-20)
(0.539783 0.0687333 1.88702e-20)
(0.529204 0.0690769 6.51419e-21)
(0.516496 0.0693343 -3.35136e-20)
(0.503628 0.0695096 -5.07874e-20)
(0.491782 0.069807 -1.09812e-19)
(0.481111 0.0702365 -1.45131e-19)
(0.470041 0.0707587 -1.02911e-19)
(0.457155 0.0713802 -1.10092e-19)
(0.442932 0.0720097 -1.09489e-19)
(0.429006 0.0727745 -2.67519e-19)
(0.416064 0.0736495 1.03492e-19)
(0.403184 0.0746558 -2.0541e-19)
(0.388959 0.0758215 -5.29678e-19)
(0.373135 0.0771089 1.21754e-18)
(0.357168 0.0785639 -1.78325e-18)
(0.341825 0.0801766 2.62016e-19)
(0.326557 0.0819126 4.04309e-18)
(0.310032 0.0838398 -8.59529e-18)
(0.292047 0.0860236 2.25575e-18)
(0.273827 0.0884867 1.54831e-17)
(0.256099 0.0910938 -2.57984e-17)
(0.238299 0.0939486 -9.15248e-19)
(0.219283 0.0972547 8.55367e-17)
(0.199228 0.101267 -1.73653e-16)
(0.178975 0.105826 3.68435e-17)
(0.159064 0.111132 6.36777e-16)
(0.138534 0.117138 -9.4082e-16)
(0.116888 0.124854 -1.05971e-15)
(0.0941528 0.133555 1.9154e-15)
(0.0720037 0.145108 5.0391e-15)
(0.0483533 0.156429 5.27945e-15)
(0.0248926 0.167254 4.84476e-15)
(3.5 -2.76098e-15 3.47781e-22)
(3.5 -3.75724e-15 1.34042e-22)
(3.5 -1.50784e-15 -7.51162e-23)
(3.5 -2.03864e-15 -2.65568e-22)
(3.5 -1.03852e-15 5.39404e-22)
(3.5 -8.36884e-16 8.55584e-22)
(3.5 1.69393e-15 -2.44695e-22)
(3.5 1.82507e-15 8.47742e-22)
(3.5 -6.478e-16 3.43436e-23)
(3.5 -4.65138e-15 -1.10112e-22)
(3.5 -4.31939e-15 -1.44336e-22)
(3.5 -4.04635e-15 5.50019e-23)
(3.5 2.49671e-16 9.22109e-22)
(3.5 -7.17282e-16 -7.94729e-22)
(3.5 1.04334e-15 -1.09364e-21)
(3.5 1.65914e-15 -4.78759e-22)
(3.5 2.22814e-15 9.9014e-22)
(3.5 4.67602e-15 5.45634e-22)
(3.5 4.87913e-15 1.01209e-22)
(3.5 2.07814e-15 1.43853e-21)
(3.5 -3.31873e-16 1.17223e-21)
(3.5 -1.27483e-15 1.07904e-21)
(3.5 -2.33802e-15 8.76273e-22)
(3.5 -4.08875e-16 1.19368e-21)
(3.5 4.45984e-15 4.24548e-22)
(3.5 7.78594e-15 2.59037e-22)
(3.5 7.58522e-15 3.37601e-22)
(3.5 6.71221e-15 6.52745e-22)
(3.5 5.52553e-15 4.69479e-22)
(3.5 5.33432e-15 1.48676e-22)
(3.5 6.04174e-15 4.35519e-22)
(3.5 5.67578e-15 5.4707e-22)
(3.5 7.9123e-15 6.74041e-22)
(3.5 5.4452e-14 7.48673e-22)
(3.5 7.61807e-13 7.84454e-22)
(3.5 1.17573e-11 8.44365e-22)
(3.5 1.82736e-10 8.8114e-22)
(3.5 2.84827e-09 9.08201e-22)
(3.5 4.44105e-08 9.68449e-22)
(3.49998 6.73911e-07 1.03645e-21)
(3.49971 8.26024e-06 1.02334e-21)
(3.49493 -8.91329e-05 9.57819e-22)
(3.39144 0.00620095 1.01438e-21)
(2.51132 0.0426685 1.28532e-21)
(1.36545 0.0520011 1.16304e-21)
(1.02258 0.057507 7.47136e-22)
(0.942785 0.0590971 -4.27094e-21)
(0.920297 0.0601311 -2.92496e-20)
(0.910188 0.0611138 -2.11891e-20)
(0.9015 0.0617297 -4.24751e-20)
(0.892224 0.0623282 -3.09563e-20)
(0.88183 0.0629338 -3.95359e-20)
(0.871691 0.0635676 -3.52299e-20)
(0.862405 0.064355 -1.62108e-20)
(0.854365 0.0652187 -1.05798e-20)
(0.846593 0.0659946 -3.56165e-20)
(0.838162 0.0667145 7.43265e-22)
(0.828778 0.0673981 -8.82936e-22)
(0.818172 0.0680269 -1.38233e-20)
(0.807889 0.0687051 -8.47156e-21)
(0.798769 0.0695576 -1.57148e-20)
(0.791142 0.0704279 6.05778e-22)
(0.783554 0.0711679 2.05392e-20)
(0.774932 0.0718405 8.66115e-21)
(0.764727 0.0724559 3.08673e-20)
(0.753627 0.0729986 1.86739e-20)
(0.743486 0.0736438 1.67041e-20)
(0.734755 0.0744249 1.62811e-20)
(0.72725 0.0751199 8.94501e-21)
(0.719203 0.0756828 1.2891e-20)
(0.709668 0.0761866 -2.83091e-21)
(0.69828 0.0765806 1.68185e-20)
(0.687153 0.0770034 -2.17444e-20)
(0.677391 0.0775474 4.76681e-21)
(0.669241 0.0780844 -2.53298e-22)
(0.661186 0.0785252 7.39336e-22)
(0.651924 0.0788938 -4.99843e-22)
(0.640465 0.0791665 1.26157e-20)
(0.628649 0.079399 -4.58362e-21)
(0.618109 0.0797599 -3.08137e-21)
(0.609219 0.0801351 -4.2297e-21)
(0.600685 0.0804622 -3.01093e-21)
(0.590998 0.0807408 -1.40369e-21)
(0.579085 0.0809408 -1.27968e-20)
(0.56685 0.0810872 1.37718e-20)
(0.555812 0.0813633 1.42237e-19)
(0.546328 0.0816628 -4.98184e-21)
(0.536941 0.0819612 1.64779e-19)
(0.52616 0.0822489 4.54536e-21)
(0.513424 0.0824737 1.8847e-19)
(0.500829 0.0827749 1.8139e-19)
(0.489466 0.0832543 1.30243e-19)
(0.47919 0.083838 3.03391e-19)
(0.468398 0.0845203 3.93428e-20)
(0.455633 0.0852936 8.98197e-20)
(0.441847 0.0860526 1.08936e-19)
(0.428602 0.0869706 9.50012e-19)
(0.416433 0.088077 -2.28261e-18)
(0.404137 0.0893418 3.46161e-18)
(0.390273 0.0907615 -6.89009e-19)
(0.374885 0.0922873 -6.97683e-18)
(0.359427 0.0940125 1.61638e-17)
(0.344622 0.0959404 -1.4538e-17)
(0.329768 0.0980716 -1.20462e-17)
(0.313525 0.10049 5.29509e-17)
(0.295809 0.10319 -4.15351e-17)
(0.277736 0.106211 -6.07802e-17)
(0.25991 0.109454 1.40503e-16)
(0.241783 0.112965 -5.45165e-17)
(0.22237 0.116849 -1.86785e-16)
(0.202012 0.12145 4.26516e-16)
(0.181535 0.126606 -1.84286e-17)
(0.161437 0.132621 -1.4874e-15)
(0.14084 0.139372 7.39659e-16)
(0.119478 0.148066 2.707e-15)
(0.0971998 0.157935 7.74972e-16)
(0.0753829 0.170783 -1.01467e-15)
(0.0526524 0.18401 -1.33874e-18)
(0.0290213 0.19457 9.47609e-16)
(3.5 3.05574e-17 -6.04417e-22)
(3.5 -1.8815e-15 -5.5792e-22)
(3.5 -2.89067e-15 -5.65059e-22)
(3.5 -5.13839e-15 -9.60095e-22)
(3.5 -3.13683e-15 -1.19188e-21)
(3.5 -1.61868e-15 -8.4083e-22)
(3.5 -1.2953e-16 2.7893e-22)
(3.5 9.4891e-16 -7.99079e-22)
(3.5 2.35434e-16 -2.05806e-22)
(3.5 -5.80281e-16 -3.78151e-22)
(3.5 -1.87953e-15 5.78692e-24)
(3.5 -1.56217e-15 3.34532e-23)
(3.5 1.8835e-15 1.06867e-21)
(3.5 3.08014e-15 3.01563e-21)
(3.5 2.91788e-15 3.24587e-21)
(3.5 2.51417e-15 2.30986e-21)
(3.5 9.89164e-16 3.34939e-21)
(3.5 4.00225e-16 1.81949e-21)
(3.5 2.31629e-15 1.7763e-21)
(3.5 6.79991e-16 3.82964e-21)
(3.5 7.96604e-16 1.85838e-21)
(3.5 9.40884e-16 1.46763e-21)
(3.5 7.441e-16 1.59652e-21)
(3.5 6.81326e-17 1.38881e-21)
(3.5 6.62441e-16 2.46788e-21)
(3.5 1.41094e-15 2.21758e-21)
(3.5 3.33769e-15 1.93787e-21)
(3.5 5.72595e-15 1.99177e-21)
(3.5 5.08782e-15 2.08595e-21)
(3.5 4.41145e-15 2.21385e-21)
(3.5 4.07803e-15 1.94068e-21)
(3.5 4.10427e-15 1.82319e-21)
(3.5 7.09627e-15 1.65889e-21)
(3.5 6.27139e-14 1.77207e-21)
(3.5 9.39164e-13 1.56659e-21)
(3.5 1.44575e-11 1.51723e-21)
(3.5 2.22346e-10 1.54873e-21)
(3.5 3.42735e-09 1.47713e-21)
(3.5 5.28603e-08 1.5229e-21)
(3.49999 7.93613e-07 1.61481e-21)
(3.49976 9.25703e-06 1.63229e-21)
(3.49587 -0.000118127 1.64262e-21)
(3.4014 0.00779296 1.36082e-21)
(2.54851 0.0520124 1.98755e-21)
(1.37936 0.0633925 1.87609e-21)
(1.02801 0.069376 -6.13991e-21)
(0.946049 0.0710885 -1.75856e-20)
(0.923468 0.072177 2.10313e-20)
(0.913323 0.0732311 -4.80125e-20)
(0.904517 0.0739231 7.35254e-21)
(0.894951 0.0745896 -5.2156e-21)
(0.884538 0.0751985 1.2709e-20)
(0.874623 0.0758678 1.08599e-20)
(0.865602 0.0767697 2.33007e-20)
(0.857737 0.0777591 -1.24954e-20)
(0.849882 0.0786669 4.35757e-20)
(0.841259 0.0795079 2.86918e-22)
(0.831579 0.0802819 1.67716e-20)
(0.820893 0.0809651 -1.66826e-20)
(0.81082 0.0817185 1.11434e-20)
(0.801965 0.08271 -4.84534e-21)
(0.79443 0.083725 -1.18691e-20)
(0.786593 0.0845972 -2.82856e-20)
(0.77763 0.0853834 1.33812e-20)
(0.767018 0.0860623 1.97186e-20)