/*--------------------------------*- C++ -*----------------------------------*\
| =========                 |                                                 |
| \\      /  F ield         | OpenFOAM: The Open Source CFD Toolbox           |
|  \\    /   O peration     | Version:  2.3.0                                 |
|   \\  /    A nd           | Web:      www.OpenFOAM.org                      |
|    \\/     M anipulation  |                                                 |
\*---------------------------------------------------------------------------*/
FoamFile
{
    version     2.0;
    format      ascii;
    class       volScalarField;
    location    "3.14";
    object      By;
}
// * * * * * * * * * * * * * * * * * * * * * * * * * * * * * * * * * * * * * //

dimensions      [1 0 -2 0 0 -1 0];

internalField   nonuniform List<scalar> 
40000
(
0.0207976
0.00503197
-0.0156264
-0.0379288
-0.0572769
-0.0638863
-0.0807308
-0.0968402
-0.118851
-0.142614
-0.170716
-0.201963
-0.231168
-0.260846
-0.2859
-0.306167
-0.324101
-0.334448
-0.340219
-0.338404
-0.330222
-0.317928
-0.300596
-0.277641
-0.248403
-0.212665
-0.170331
-0.12248
-0.0678698
-0.0110538
0.0485557
0.108132
0.169632
0.228571
0.288429
0.3432
0.397541
0.449494
0.501255
0.545687
0.590176
0.628262
0.667916
0.70683
0.744984
0.782663
0.816943
0.847628
0.875974
0.900332
0.920141
0.935949
0.946989
0.950582
0.947438
0.936937
0.929205
0.904776
0.872674
0.822689
0.76411
0.689825
0.598079
0.506813
0.428295
0.397694
0.32897
0.261504
0.217322
0.232752
0.335822
0.51895
0.786576
1.05311
1.15698
1.15866
1.11067
1.06738
1.01191
0.963147
0.923066
0.898117
0.877966
0.862757
0.847895
0.833328
0.823046
0.812049
0.805932
0.802136
0.804338
0.804393
0.806849
0.806859
0.808468
0.800809
0.797347
0.716708
0.56271
0.0964972
-0.430733
-0.683961
-0.782727
-0.791467
-0.792535
-0.793303
-0.789644
-0.791657
-0.786381
-0.785197
-0.782791
-0.789386
-0.794181
-0.803133
-0.812423
-0.825891
-0.837837
-0.85065
-0.867046
-0.8903
-0.928949
-0.975061
-1.01043
-1.0602
-1.06492
-0.990769
-0.742961
-0.458287
-0.262959
-0.178533
-0.122237
-0.140665
-0.205242
-0.309269
-0.402776
-0.477282
-0.586841
-0.657191
-0.736281
-0.793356
-0.838073
-0.863903
-0.889064
-0.906532
-0.916898
-0.912836
-0.906395
-0.894305
-0.874762
-0.849113
-0.818459
-0.78729
-0.749558
-0.713682
-0.67357
-0.633642
-0.587923
-0.545884
-0.493953
-0.443657
-0.382531
-0.322838
-0.257908
-0.194029
-0.125564
-0.0596553
0.00825828
0.0735676
0.137288
0.197327
0.25141
0.298166
0.337602
0.370763
0.39796
0.420979
0.439478
0.453348
0.46287
0.467322
0.468606
0.46124
0.450089
0.432071
0.406923
0.378798
0.345868
0.310423
0.276229
0.241411
0.211055
0.186658
0.163407
0.143767
0.121554
0.105753
0.0748001
0.0524042
0.0290693
0.0217838
0.058598
0.0476592
0.0313492
0.0167245
0.00963169
0.00325168
-0.00712867
-0.0191176
-0.0354067
-0.0586159
-0.0835341
-0.109591
-0.133253
-0.154944
-0.17262
-0.183487
-0.191046
-0.192629
-0.188227
-0.178892
-0.164307
-0.142476
-0.1151
-0.0822995
-0.0431782
0.00214376
0.0510807
0.101839
0.156367
0.21177
0.268495
0.320942
0.371826
0.419303
0.464115
0.505593
0.547498
0.584817
0.62364
0.655234
0.690548
0.723893
0.762507
0.798658
0.833026
0.864638
0.891414
0.912075
0.929543
0.945209
0.956831
0.965277
0.969482
0.965192
0.958548
0.939862
0.915743
0.879127
0.836538
0.768001
0.676041
0.574888
0.504406
0.461975
0.436912
0.423723
0.389749
0.359582
0.357437
0.438126
0.626341
0.913426
1.14437
1.23686
1.24852
1.21223
1.14765
1.09059
1.03197
0.986008
0.949711
0.921121
0.900059
0.882747
0.866483
0.850419
0.838683
0.829548
0.821852
0.819597
0.818254
0.819695
0.820637
0.819892
0.817617
0.80935
0.762801
0.612994
0.283481
-0.331722
-0.618302
-0.76208
-0.783059
-0.782138
-0.780134
-0.777925
-0.776241
-0.771582
-0.766684
-0.762304
-0.765055
-0.766393
-0.772585
-0.780395
-0.78963
-0.800679
-0.810551
-0.821928
-0.838466
-0.861716
-0.893675
-0.923289
-0.955343
-0.96401
-0.930805
-0.711638
-0.450572
-0.250666
-0.154508
-0.0965763
-0.051881
-0.091159
-0.142028
-0.242702
-0.357063
-0.452542
-0.568224
-0.643135
-0.709713
-0.75784
-0.793555
-0.823495
-0.839103
-0.844827
-0.843589
-0.839994
-0.82243
-0.797567
-0.767659
-0.732709
-0.696172
-0.657286
-0.61654
-0.575282
-0.53089
-0.480544
-0.428807
-0.370821
-0.304575
-0.236129
-0.162902
-0.0925143
-0.0174585
0.0536432
0.128293
0.198635
0.263901
0.321141
0.373747
0.416573
0.452901
0.481786
0.505643
0.52546
0.540202
0.552368
0.561264
0.567071
0.57021
0.569869
0.567302
0.555743
0.540311
0.51558
0.484537
0.448573
0.410044
0.36884
0.331231
0.294165
0.262879
0.235183
0.209035
0.185679
0.155488
0.129369
0.090865
0.0772866
0.0586948
0.0642186
0.0954707
0.0904534
0.0816103
0.0796611
0.0781777
0.0733008
0.0631376
0.0617809
0.049505
0.0332094
0.0140982
-0.00423105
-0.0200931
-0.0310834
-0.0403571
-0.0441508
-0.0418719
-0.0344534
-0.0186214
-0.000929716
0.0204145
0.0467297
0.0798824
0.118485
0.160325
0.2045
0.252317
0.300456
0.349987
0.397987
0.441947
0.480824
0.517295
0.55145
0.585038
0.616177
0.649967
0.677517
0.709451
0.73823
0.772504
0.807919
0.840398
0.872228
0.89805
0.918972
0.936094
0.94661
0.955414
0.966536
0.975499
0.974933
0.973246
0.964867
0.94504
0.920278
0.887274
0.829073
0.7507
0.641272
0.553497
0.512463
0.493674
0.478295
0.481403
0.486281
0.483578
0.504871
0.590108
0.789601
1.03828
1.24379
1.32196
1.32383
1.2959
1.22828
1.16516
1.10174
1.04488
1.00306
0.967838
0.9413
0.919569
0.897529
0.881814
0.86581
0.850476
0.84461
0.838312
0.831865
0.832281
0.831482
0.828642
0.828844
0.819987
0.792104
0.671732
0.430911
-0.169357
-0.536252
-0.725633
-0.773394
-0.77452
-0.772313
-0.768726
-0.762204
-0.756146
-0.748923
-0.743475
-0.741401
-0.740444
-0.74508
-0.750143
-0.755611
-0.763293
-0.768179
-0.776825
-0.786841
-0.800273
-0.818081
-0.843745
-0.857847
-0.86682
-0.8466
-0.706624
-0.446135
-0.254629
-0.154227
-0.110985
-0.0658998
-0.0119308
-0.0254589
-0.0403402
-0.117691
-0.238785
-0.343922
-0.454049
-0.539573
-0.612701
-0.664702
-0.700667
-0.721952
-0.736869
-0.741792
-0.734378
-0.713129
-0.68776
-0.655048
-0.616311
-0.577794
-0.53634
-0.492077
-0.446607
-0.394663
-0.341213
-0.283324
-0.216637
-0.145503
-0.067875
0.0089807
0.0930448
0.169619
0.24803
0.317688
0.381664
0.438255
0.486212
0.525468
0.55795
0.582557
0.602216
0.616475
0.627057
0.636283
0.642914
0.648442
0.651558
0.652769
0.653605
0.650389
0.644374
0.62874
0.608784
0.577689
0.542372
0.499156
0.45666
0.411155
0.369628
0.329739
0.294735
0.26304
0.233175
0.204818
0.16936
0.140344
0.111671
0.105245
0.0927553
0.101978
0.13256
0.134264
0.13528
0.14263
0.142004
0.140144
0.13482
0.133565
0.125872
0.114043
0.105582
0.0965064
0.0896182
0.0911207
0.0888287
0.0959174
0.105501
0.119988
0.139156
0.164363
0.194344
0.227053
0.263465
0.302553
0.34487
0.387844
0.428424
0.466682
0.504524
0.535027
0.563728
0.590781
0.617926
0.644029
0.6719
0.697828
0.727788
0.753681
0.785828
0.817488
0.85007
0.879208
0.903497
0.924667
0.939957
0.94998
0.955735
0.96485
0.971447
0.978033
0.978655
0.975444
0.961119
0.947426
0.918803
0.872174
0.808817
0.718168
0.618552
0.558016
0.544305
0.529078
0.525976
0.544347
0.57711
0.619001
0.672264
0.791783
0.985541
1.18973
1.32418
1.37941
1.38841
1.36294
1.30096
1.22862
1.15879
1.09787
1.05108
1.01262
0.985148
0.95402
0.931426
0.91238
0.891565
0.879034
0.86611
0.855828
0.850995
0.847996
0.843823
0.838318
0.834331
0.828318
0.800261
0.726861
0.499505
0.0491463
-0.471077
-0.686259
-0.760525
-0.766491
-0.76465
-0.760893
-0.752705
-0.743198
-0.736677
-0.727898
-0.721691
-0.717151
-0.721342
-0.719931
-0.724991
-0.729365
-0.732058
-0.73659
-0.743292
-0.751582
-0.760577
-0.773847
-0.780991
-0.785962
-0.768022
-0.695226
-0.473551
-0.26722
-0.158672
-0.116719
-0.100755
-0.0670952
0.000331906
0.0400768
0.0468638
0.0134813
-0.0734768
-0.186947
-0.297349
-0.388688
-0.464918
-0.519944
-0.559082
-0.585471
-0.593537
-0.585149
-0.565771
-0.540749
-0.510483
-0.473327
-0.432751
-0.387622
-0.339712
-0.289007
-0.233673
-0.172813
-0.109286
-0.0405773
0.0370097
0.11773
0.202211
0.281908
0.35997
0.42746
0.48937
0.541519
0.585579
0.620865
0.64854
0.669026
0.684275
0.692673
0.698812
0.703173
0.706889
0.710008
0.711301
0.713349
0.714004
0.714193
0.714075
0.709932
0.702115
0.6836
0.659271
0.621909
0.581644
0.532288
0.484993
0.434711
0.389786
0.347445
0.310602
0.27734
0.247503
0.218689
0.188052
0.164753
0.144854
0.13806
0.128575
0.133211
0.169303
0.177079
0.187046
0.19624
0.19985
0.1993
0.202265
0.197367
0.195328
0.188886
0.190897
0.190497
0.193306
0.202359
0.213216
0.225055
0.24395
0.267328
0.293454
0.322792
0.356075
0.391775
0.430826
0.46982
0.508219
0.542999
0.573004
0.60046
0.621056
0.640172
0.657414
0.676013
0.696639
0.718379
0.744554
0.768284
0.799035
0.828509
0.860145
0.889944
0.912713
0.933219
0.946932
0.958324
0.966419
0.965529
0.969641
0.976119
0.978199
0.977731
0.973033
0.962182
0.93995
0.911952
0.862465
0.788899
0.688328
0.610272
0.587896
0.569527
0.565169
0.584483
0.622164
0.684624
0.753471
0.857121
0.99526
1.16651
1.31535
1.41284
1.42208
1.43152
1.41024
1.35315
1.28082
1.20663
1.14302
1.09237
1.05356
1.02173
0.993926
0.973797
0.945974
0.926508
0.911705
0.893689
0.883031
0.873267
0.866434
0.860142
0.853104
0.844456
0.835286
0.810173
0.753489
0.579801
0.216644
-0.356879
-0.624191
-0.745311
-0.762072
-0.75534
-0.751916
-0.742823
-0.732369
-0.72415
-0.713677
-0.701932
-0.696111
-0.695607
-0.694594
-0.696133
-0.698824
-0.699306
-0.696303
-0.698211
-0.701922
-0.707243
-0.714919
-0.715846
-0.716939
-0.699026
-0.647571
-0.509096
-0.300521
-0.174503
-0.124099
-0.107493
-0.105484
-0.0902994
-0.0352407
0.0849568
0.1282
0.13533
0.095911
-0.00161332
-0.106743
-0.208032
-0.282942
-0.337893
-0.376143
-0.393359
-0.399134
-0.392004
-0.372323
-0.344283
-0.303903
-0.263847
-0.215505
-0.161661
-0.102448
-0.0401703
0.0242339
0.0917861
0.160755
0.234497
0.311616
0.38723
0.463032
0.526315
0.583478
0.63158
0.671485
0.701249
0.72357
0.739017
0.748046
0.755441
0.759308
0.761381
0.761414
0.761453
0.76129
0.761177
0.75995
0.760888
0.762073
0.763018
0.762761
0.756974
0.746249
0.723808
0.694519
0.65128
0.605534
0.551587
0.50121
0.45044
0.405946
0.366268
0.332751
0.305039
0.279509
0.252297
0.225811
0.205721
0.187913
0.173537
0.164667
0.165579
0.205667
0.217609
0.228591
0.238378
0.244427
0.249092
0.256562
0.260739
0.265496
0.267821
0.276426
0.286573
0.297269
0.3115
0.332192
0.351561
0.3745
0.399271
0.428458
0.460811
0.495656
0.532267
0.566784
0.600356
0.63213
0.658873
0.682741
0.700883
0.71292
0.723819
0.736976
0.750416
0.769572
0.790628
0.817742
0.843417
0.873129
0.89978
0.924591
0.943851
0.959469
0.969293
0.976064
0.979367
0.979697
0.981044
0.979287
0.979169
0.978316
0.970659
0.95929
0.93915
0.901481
0.843633
0.766516
0.677419
0.625189
0.607886
0.599265
0.605579
0.642173
0.702387
0.79069
0.912968
1.04614
1.18811
1.31868
1.40441
1.44116
1.46185
1.45889
1.43009
1.38216
1.31631
1.24619
1.1806
1.12868
1.08694
1.05201
1.02407
0.995751
0.972096
0.953069
0.930884
0.917677
0.903914
0.892207
0.886944
0.87923
0.87059
0.860378
0.84863
0.822851
0.773251
0.63677
0.356636
-0.192217
-0.555227
-0.710439
-0.754937
-0.747775
-0.745522
-0.735917
-0.726361
-0.714407
-0.705219
-0.690408
-0.682542
-0.67381
-0.671364
-0.67085
-0.671023
-0.671421
-0.666975
-0.663503
-0.661117
-0.658732
-0.659512
-0.65892
-0.650358
-0.642433
-0.607938
-0.527091
-0.338123
-0.199147
-0.112053
-0.0879354
-0.0852379
-0.0934521
-0.0963803
-0.078174
0.0543432
0.188749
0.222952
0.229952
0.184236
0.109292
0.0286878
-0.0538354
-0.111842
-0.153304
-0.178475
-0.184338
-0.171681
-0.142262
-0.101536
-0.048088
0.00937713
0.0742774
0.139415
0.202674
0.261904
0.320367
0.378297
0.436701
0.49458
0.555502
0.612672
0.666675
0.709096
0.743659
0.768143
0.786093
0.798008
0.805331
0.809023
0.807318
0.808469
0.807155
0.806307
0.803656
0.802591
0.80138
0.800166
0.799579
0.801166
0.802936
0.804191
0.80301
0.795365
0.781192
0.753082
0.716138
0.666278
0.618836
0.568502
0.522806
0.478112
0.437876
0.401218
0.370775
0.34436
0.319608
0.295584
0.270971
0.252017
0.2287
0.212227
0.201326
0.199317
0.235905
0.248969
0.264705
0.273098
0.281696
0.291852
0.304941
0.318352
0.332727
0.345125
0.361661
0.378925
0.395932
0.4133
0.437291
0.459765
0.485481
0.510038
0.54035
0.572039
0.60655
0.638994
0.671217
0.700876
0.725172
0.747259
0.765385
0.776352
0.785336
0.791755
0.80566
0.820117
0.84194
0.865013
0.89244
0.915388
0.938262
0.958098
0.972379
0.984369
0.990792
0.996222
0.997415
0.994748
0.992372
0.990106
0.985726
0.977281
0.970263
0.955442
0.931567
0.894673
0.831075
0.746842
0.677939
0.642834
0.63069
0.62503
0.645678
0.694821
0.781152
0.903121
1.04465
1.1828
1.29229
1.37278
1.4196
1.44693
1.44488
1.45565
1.43094
1.39434
1.33747
1.27198
1.21102
1.16204
1.11779
1.08735
1.05629
1.02901
1.01047
0.982738
0.963112
0.949915
0.929721
0.918321
0.909
0.898528
0.890632
0.881251
0.866263
0.84374
0.79749
0.702585
0.458761
-0.0183549
-0.481501
-0.666483
-0.736943
-0.737047
-0.736504
-0.726368
-0.716154
-0.704431
-0.692925
-0.68061
-0.666748
-0.657267
-0.650816
-0.649159
-0.646404
-0.647239
-0.641675
-0.636008
-0.631238
-0.624758
-0.618511
-0.61184
-0.600486
-0.582336
-0.551132
-0.491432
-0.360413
-0.207172
-0.114909
-0.0697996
-0.0324682
-0.0237712
-0.0622628
-0.104747
-0.0974878
-0.0204641
0.165417
0.28828
0.317079
0.316619
0.285433
0.238445
0.18226
0.130679
0.0971499
0.082396
0.0909256
0.121188
0.158494
0.207647
0.257075
0.312606
0.368574
0.421731
0.47266
0.520419
0.568684
0.613356
0.655167
0.696026
0.730561
0.77025
0.800772
0.823934
0.838707
0.847628
0.851617
0.853206
0.849723
0.846444
0.842603
0.841639
0.840281
0.839192
0.836797
0.83586
0.835026
0.834221
0.835391
0.838094
0.840668
0.841075
0.837088
0.825843
0.806678
0.771291
0.731164
0.686083
0.6434
0.599269
0.558538
0.518467
0.481942
0.449695
0.421992
0.396279
0.370408
0.345318
0.319238
0.295488
0.273934
0.258763
0.240975
0.232947
0.26587
0.274217
0.296326
0.307227
0.317937
0.331823
0.34767
0.367903
0.388793
0.410246
0.432783
0.457551
0.480563
0.500992
0.523439
0.54498
0.569457
0.592712
0.618413
0.648739
0.678858
0.710579
0.741099
0.768799
0.793166
0.813745
0.826688
0.835663
0.846725
0.856747
0.874786
0.893495
0.915077
0.934752
0.955179
0.972063
0.987601
0.999044
1.00746
1.01177
1.01498
1.01591
1.01312
1.00623
1.001
0.992706
0.982783
0.968942
0.954074
0.927987
0.885566
0.818938
0.745767
0.685113
0.661822
0.652272
0.652078
0.683351
0.743561
0.847463
0.976193
1.10812
1.2244
1.30938
1.36019
1.39615
1.40956
1.43276
1.42098
1.41453
1.37328
1.33059
1.27762
1.22543
1.1809
1.14412
1.10841
1.078
1.05281
1.02755
1.00287
0.985273
0.963689
0.946636
0.933751
0.921757
0.914749
0.905814
0.894961
0.882915
0.861825
0.818764
0.736603
0.545841
0.140881
-0.38672
-0.628471
-0.72431
-0.735234
-0.733259
-0.721386
-0.708395
-0.696707
-0.684249
-0.671285
-0.656432
-0.641125
-0.636615
-0.629433
-0.626512
-0.623699
-0.621445
-0.61317
-0.608531
-0.600716
-0.591401
-0.581011
-0.567248
-0.547057
-0.516387
-0.465693
-0.377058
-0.205816
-0.116362
-0.031385
0.0156626
0.0653269
0.0913319
0.0369218
-0.0720479
-0.113018
-0.0976024
0.0742167
0.296902
0.377374
0.408296
0.417767
0.408161
0.379938
0.34752
0.333553
0.336071
0.352981
0.385032
0.419291
0.462153
0.501646
0.54552
0.58661
0.62719
0.669426
0.707325
0.742778
0.775158
0.806974
0.8327
0.848729
0.867334
0.879469
0.887294
0.889621
0.887356
0.882691
0.880837
0.874414
0.869871
0.867035
0.866593
0.865742
0.865421
0.864692
0.865375
0.865883
0.867133
0.869997
0.872803
0.874301
0.872478
0.865392
0.850973
0.824509
0.786537
0.751073
0.71124
0.675485
0.637175
0.599635
0.561541
0.526098
0.49738
0.471807
0.446997
0.42025
0.394798
0.368097
0.347197
0.33078
0.313294
0.285773
0.269565
0.299707
0.300893
0.319778
0.341087
0.35051
0.369991
0.385498
0.408303
0.433883
0.460405
0.487941
0.514128
0.539781
0.562234
0.584567
0.604465
0.627143
0.65142
0.67634
0.704401
0.734234
0.765951
0.79589
0.824308
0.847796
0.866831
0.880388
0.893354
0.909089
0.925074
0.943329
0.96152
0.977866
0.99226
1.0057
1.01589
1.02436
1.02964
1.0324
1.03523
1.03473
1.02938
1.02397
1.01472
1.00272
0.987704
0.974245
0.952314
0.924094
0.878595
0.815862
0.743322
0.701973
0.68251
0.671727
0.68107
0.716596
0.784225
0.891553
1.00829
1.12209
1.22054
1.28029
1.32313
1.34619
1.37368
1.37727
1.38551
1.36201
1.34561
1.30013
1.26618
1.2242
1.18984
1.15668
1.12971
1.10015
1.07343
1.04786
1.02754
1.00112
0.985009
0.968039
0.948556
0.94142
0.927855
0.917932
0.907565
0.895297
0.874887
0.839917
0.769408
0.600971
0.283457
-0.273357
-0.561752
-0.696976
-0.728481
-0.724918
-0.715591
-0.699545
-0.688142
-0.672623
-0.658453
-0.645828
-0.626651
-0.617326
-0.609102
-0.60331
-0.601772
-0.596904
-0.589948
-0.582844
-0.576829
-0.568531
-0.558224
-0.544577
-0.524868
-0.495781
-0.452612
-0.38105
-0.268132
-0.112765
-0.0373205
0.046086
0.0862773
0.135458
0.147093
0.105454
0.00251025
-0.119839
-0.129873
-0.054122
0.194715
0.393119
0.473246
0.49796
0.518187
0.52282
0.512515
0.517508
0.526751
0.544445
0.574124
0.600843
0.635181
0.663613
0.695229
0.729206
0.758466
0.791142
0.821314
0.852822
0.877632
0.897095
0.913638
0.912849
0.923003
0.923881
0.917785
0.914521
0.90746
0.900732
0.895561
0.890695
0.887023
0.887468
0.889523
0.889734
0.892311
0.893543
0.896422
0.898148
0.900026
0.902867
0.905001
0.904696
0.900868
0.890701
0.873151
0.844567
0.812407
0.779976
0.745166
0.71277
0.678091
0.643569
0.608047
0.574048
0.546245
0.521875
0.497587
0.472204
0.449542
0.430796
0.417
0.404637
0.379827
0.338534
0.315631
0.340614
0.331497
0.338436
0.366155
0.381762
0.401709
0.42172
0.441861
0.46997
0.497598
0.529487
0.557887
0.58488
0.609216
0.628789
0.651109
0.67331
0.696477
0.721726
0.751471
0.7818
0.817388
0.848131
0.876919
0.90184
0.919371
0.933296
0.949535
0.966116
0.982452
0.997149
1.01175
1.02368
1.03326
1.04217
1.04866
1.05242
1.05585
1.0573
1.05512
1.04923
1.04173
1.0291
1.01225
0.995672
0.976979
0.95441
0.923855
0.875837
0.810989
0.754537
0.716042
0.704236
0.696317
0.708627
0.745758
0.816507
0.917272
1.01845
1.11207
1.19729
1.24699
1.27048
1.29843
1.30938
1.32294
1.31595
1.31603
1.28349
1.27263
1.23503
1.21698
1.18501
1.16483
1.13814
1.11747
1.08864
1.06934
1.04354
1.02444
1.00795
0.985786
0.969498
0.958343
0.941941
0.931651
0.920626
0.903123
0.880306
0.847696
0.786358
0.664486
0.388266
-0.0989585
-0.494843
-0.658433
-0.712476
-0.71882
-0.709515
-0.694336
-0.681291
-0.668009
-0.650917
-0.637002
-0.620343
-0.603268
-0.59143
-0.585869
-0.580046
-0.578437
-0.569
-0.559453
-0.550837
-0.542691
-0.532999
-0.519659
-0.502085
-0.476215
-0.439889
-0.384981
-0.30324
-0.171978
-0.055366
0.0154856
0.0896795
0.119928
0.165308
0.171355
0.146404
0.0810031
-0.0821579
-0.158452
-0.146565
0.0335835
0.317503
0.485179
0.552506
0.585896
0.618215
0.622965
0.632698
0.646278
0.663997
0.684425
0.709416
0.732741
0.758276
0.780086
0.807939
0.833525
0.864326
0.891516
0.916326
0.937388
0.951054
0.962309
0.951543
0.953027
0.945284
0.932033
0.925906
0.916187
0.91092
0.906596
0.904869
0.905348
0.908423
0.911926
0.913816
0.919968
0.923354
0.927317
0.92917
0.930459
0.932061
0.932166
0.930341
0.925072
0.913981
0.896426
0.8669
0.839336
0.808542
0.778168
0.747432
0.717986
0.685995
0.65349
0.623067
0.59961
0.578309
0.55774
0.535502
0.520653
0.508292
0.50217
0.485043
0.452502
0.401176
0.368297
0.395968
0.369735
0.363938
0.381853
0.407401
0.426316
0.451044
0.472915
0.500354
0.529514
0.561428
0.592591
0.620638
0.649134
0.671851
0.693073
0.718147
0.742947
0.768079
0.800633
0.833035
0.870664
0.901411
0.930876
0.952945
0.966073
0.979727
0.994859
1.01003
1.02424
1.03609
1.04784
1.05718
1.0645
1.07083
1.07474
1.07785
1.07801
1.07386
1.06702
1.0555
1.0401
1.02453
1.00532
0.983707
0.956763
0.924338
0.876418
0.815034
0.760311
0.735774
0.723381
0.72013
0.737051
0.77497
0.846723
0.935916
1.01823
1.10038
1.16964
1.20932
1.23202
1.23981
1.25003
1.24878
1.25467
1.24177
1.24102
1.21889
1.21572
1.18861
1.18174
1.15633
1.14132
1.11747
1.09928
1.07353
1.05391
1.03001
1.01345
0.993601
0.980317
0.964631
0.952969
0.940876
0.92656
0.909845
0.886391
0.85454
0.79171
0.689092
0.47366
0.0406066
-0.410389
-0.615068
-0.687065
-0.707903
-0.701659
-0.687558
-0.674006
-0.656447
-0.641294
-0.624351
-0.609658
-0.588652
-0.574207
-0.56523
-0.560534
-0.555547
-0.552543
-0.542608
-0.533731
-0.522573
-0.512011
-0.499178
-0.482857
-0.459035
-0.426253
-0.379713
-0.317342
-0.215187
-0.0956235
-0.00964854
0.0653693
0.1211
0.147668
0.174801
0.179
0.169716
0.133455
0.0131641
-0.137222
-0.192176
-0.140299
0.152979
0.432986
0.570465
0.628838
0.666701
0.686632
0.696488
0.710551
0.729615
0.739517
0.7627
0.778669
0.808143
0.827639
0.857602
0.88002
0.907394
0.929452
0.952517
0.971984
0.979175
0.984393
0.97423
0.972648
0.956768
0.938608
0.927977
0.922759
0.919799
0.918443
0.920221
0.925425
0.932091
0.938694
0.942835
0.950155
0.953619
0.956834
0.957488
0.957032
0.956634
0.95574
0.952556
0.946167
0.934046
0.916159
0.890228
0.868027
0.837764
0.813338
0.784863
0.761287
0.735019
0.70758
0.681131
0.66202
0.643453
0.628381
0.613531
0.605182
0.600448
0.588576
0.563441
0.522081
0.47274
0.434761
0.460215
0.417619
0.398945
0.400176
0.424777
0.449435
0.473277
0.499548
0.528173
0.560009
0.591424
0.625728
0.657037
0.685904
0.713862
0.738239
0.764664
0.795912
0.823608
0.859896
0.889579
0.924956
0.955383
0.98406
0.999161
1.0102
1.024
1.03771
1.05046
1.06201
1.07181
1.08111
1.08832
1.09407
1.09692
1.09878
1.09697
1.09115
1.08368
1.07099
1.05574
1.03529
1.01519
0.990859
0.961445
0.924
0.875994
0.818692
0.775372
0.752309
0.743841
0.742107
0.762523
0.804341
0.870229
0.949271
1.02279
1.08902
1.14835
1.18377
1.198
1.19616
1.18699
1.18843
1.18369
1.19115
1.18824
1.19175
1.1798
1.17716
1.15672
1.15066
1.13178
1.11744
1.09691
1.08291
1.06379
1.04943
1.02892
1.01421
0.996279
0.984073
0.971589
0.95849
0.945118
0.930375
0.90958
0.878284
0.829002
0.740589
0.557484
0.173786
-0.325902
-0.562738
-0.663473
-0.690519
-0.688464
-0.680427
-0.667185
-0.650422
-0.633974
-0.618118
-0.597713
-0.581358
-0.559304
-0.549109
-0.539789
-0.535864
-0.533008
-0.525713
-0.517256
-0.508119
-0.496278
-0.481491
-0.463007
-0.440976
-0.411061
-0.369093
-0.314497
-0.240855
-0.137232
-0.0349551
0.0414812
0.104692
0.141932
0.171962
0.190321
0.169597
0.183345
0.155578
0.0976905
-0.0683056
-0.215051
-0.216484
-0.0832216
0.248166
0.512259
0.636965
0.688602
0.717019
0.723956
0.737937
0.752723
0.761792
0.785318
0.800388
0.8315
0.855477
0.883389
0.908146
0.931939
0.953563
0.969555
0.987518
0.993807
0.995168
0.987076
0.9741
0.955377
0.941852
0.932443
0.929504
0.929469
0.934319
0.939514
0.947241
0.954692
0.961819
0.967754
0.9762
0.978729
0.98098
0.980029
0.97893
0.977148
0.974678
0.970001
0.963022
0.950547
0.936474
0.910556
0.896979
0.867802
0.851982
0.825929
0.808802
0.788745
0.767414
0.747712
0.73222
0.717288
0.706155
0.696499
0.69452
0.687775
0.671792
0.64079
0.597657
0.549882
0.516707
0.537864
0.483814
0.446094
0.431511
0.439439
0.467085
0.496369
0.52313
0.553549
0.588144
0.621697
0.658203
0.696387
0.72799
0.759784
0.788148
0.819668
0.857841
0.88678
0.923813
0.952781
0.985207
1.01507
1.03853
1.04693
1.057
1.0679
1.07842
1.08774
1.09682
1.1037
1.11082
1.11545
1.11772
1.11807
1.11456
1.10835
1.09861
1.08464
1.0684
1.04837
1.02485
0.995791
0.965441
0.926412
0.877532
0.82652
0.789745
0.772875
0.763639
0.766883
0.78746
0.828613
0.894482
0.962106
1.02425
1.08238
1.13042
1.1642
1.17698
1.16137
1.14119
1.13478
1.14028
1.14164
1.15206
1.15223
1.1569
1.14976
1.14577
1.13059
1.12196
1.10848
1.09281
1.07671
1.06479
1.0493
1.03536
1.01851
1.00405
0.99037
0.980073
0.967576
0.954746
0.938465
0.916302
0.885453
0.836454
0.750071
0.596638
0.281756
-0.21623
-0.501925
-0.637617
-0.676031
-0.679658
-0.67301
-0.659696
-0.641952
-0.626803
-0.607063
-0.590157
-0.570004
-0.55125
-0.532701
-0.523653
-0.515975
-0.513265
-0.508694
-0.499191
-0.491652
-0.483213
-0.471122
-0.452266
-0.427356
-0.398419
-0.360647
-0.315212
-0.253522
-0.176215
-0.0753512
0.0131297
0.0852887
0.139862
0.167157
0.190032
0.193547
0.183986
0.17698
0.176797
0.140657
0.0294657
-0.158988
-0.279782
-0.24874
-0.0195783
0.325454
0.558032
0.665484
0.71987
0.736678
0.74736
0.757879
0.776531
0.790036
0.822055
0.844771
0.872996
0.89703
0.918984
0.941153
0.961882
0.978412
0.99053
0.9957
0.992185
0.984904
0.974669
0.95921
0.948365
0.940383
0.939618
0.943074
0.949168
0.956056
0.964759
0.974227
0.983494
0.989431
0.997681
0.998312
0.9999
0.997321
0.99575
0.992753
0.989931
0.984789
0.978901
0.968082
0.956552
0.937263
0.927916
0.905377
0.894793
0.87502
0.860907
0.846727
0.830931
0.817079
0.806271
0.79542
0.789881
0.783181
0.780447
0.769731
0.749706
0.718203
0.679057
0.637696
0.606285
0.633524
0.564301
0.516709
0.47759
0.467802
0.481638
0.515038
0.546469
0.581317
0.616821
0.656204
0.695934
0.738054
0.774333
0.813265
0.848402
0.879514
0.919153
0.94662
0.985082
1.01259
1.04809
1.0733
1.08947
1.09119
1.09745
1.10384
1.11081
1.11686
1.12305
1.12803
1.13165
1.13385
1.1334
1.12943
1.12269
1.11182
1.09737
1.07984
1.05823
1.03341
1.00312
0.969303
0.926713
0.882166
0.837673
0.808232
0.793516
0.786361
0.791216
0.811529
0.854554
0.91106
0.971397
1.02778
1.07552
1.12028
1.14811
1.15782
1.14472
1.10818
1.10238
1.10031
1.10899
1.11436
1.12214
1.12395
1.12704
1.12443
1.11915
1.10988
1.09985
1.08589
1.07372
1.06313
1.05055
1.03883
1.02403
1.01287
1.00001
0.990292
0.977758
0.964948
0.951442
0.933095
0.905749
0.865303
0.78848
0.646024
0.370439
-0.0860254
-0.444882
-0.604642
-0.658059
-0.668974
-0.664525
-0.6503
-0.634964
-0.618551
-0.600393
-0.582057
-0.562756
-0.542814
-0.522068
-0.507164
-0.50018
-0.493814
-0.492112
-0.484881
-0.476578
-0.468274
-0.45757
-0.443252
-0.421003
-0.391151
-0.353821
-0.308793
-0.254761
-0.192969
-0.112174
-0.0194561
0.0558965
0.124014
0.166912
0.187589
0.202508
0.192409
0.196378
0.182082
0.190309
0.160426
0.104925
-0.0508969
-0.265594
-0.327338
-0.267917
0.0441042
0.402558
0.594304
0.691071
0.738728
0.750698
0.757755
0.782695
0.79416
0.821733
0.84693
0.872405
0.897498
0.917912
0.937098
0.954247
0.96845
0.982721
0.976312
0.983279
0.984222
0.984105
0.970769
0.958157
0.951115
0.952628
0.957072
0.963336
0.970993
0.979054
0.988498
0.997337
1.00277
1.01081
1.00975
1.01276
1.00994
1.00964
1.00669
1.00463
0.99952
0.995076
0.985567
0.978777
0.964366
0.961784
0.946443
0.940271
0.926941
0.916694
0.907022
0.896797
0.888137
0.881152
0.874386
0.871096
0.866052
0.860616
0.848225
0.828111
0.798959
0.766247
0.732887
0.700185
0.738209
0.666817
0.612188
0.549014
0.517722
0.511991
0.537022
0.570313
0.611083
0.651882
0.692239
0.737867
0.784811
0.824818
0.862529
0.901504
0.932786
0.971789
1.00194
1.03922
1.06919
1.10478
1.11682
1.1284
1.12582
1.12743
1.13178
1.13581
1.13987
1.14401
1.14619
1.14749
1.14582
1.14174
1.13433
1.12332
1.10872
1.09098
1.06869
1.04128
1.00912
0.972109
0.931022
0.89102
0.853478
0.830082
0.817101
0.811316
0.818905
0.838635
0.878826
0.931531
0.98195
1.03187
1.07566
1.11158
1.14176
1.14912
1.13217
1.09368
1.07793
1.07746
1.08288
1.08774
1.09498
1.09819
1.10297
1.10292
1.104
1.0978
1.09254
1.08141
1.06874
1.05788
1.04953
1.0364
1.02625
1.01428
1.00537
0.99344
0.983969
0.971272
0.956068
0.934887
0.903733
0.860157
0.786691
0.675485
0.444399
0.0326979
-0.374755
-0.564688
-0.633929
-0.656415
-0.653922
-0.643115
-0.627632
-0.611044
-0.591656
-0.573891
-0.551439
-0.535185
-0.509766
-0.497337
-0.481151
-0.477893
-0.4733
-0.472774
-0.462853
-0.455311
-0.442933
-0.42621
-0.404433
-0.378341
-0.346083
-0.304615
-0.25927
-0.202678
-0.132931
-0.0473106
0.032856
0.101312
0.153174
0.191067
0.207787
0.213851
0.197948
0.195728
0.184764
0.190822
0.175156
0.137475
0.0529471
-0.170973
-0.343426
-0.376862
-0.259497
0.11371
0.437882
0.599448
0.680411
0.730212
0.734257
0.766971
0.787853
0.809195
0.832575
0.857075
0.880434
0.903227
0.920666
0.938715
0.944555
0.954644
0.956957
0.967449
0.969844
0.977366
0.981431
0.973218
0.964999
0.962337
0.965427
0.971355
0.979385
0.988063
0.997805
1.00782
1.01287
1.02057
1.01854
1.02328
1.02039
1.02092
1.01844
1.01778
1.01363
1.01179
1.00538
1.004
0.995497
0.998876
0.988623
0.987868
0.979343
0.972989
0.967463
0.961978
0.958219
0.955828
0.951812
0.949726
0.942684
0.936208
0.924772
0.906556
0.881662
0.855849
0.830294
0.798597
0.844575
0.784412
0.724998
0.647133
0.591471
0.56114
0.575024
0.601076
0.642074
0.688274
0.733018
0.778958
0.825976
0.867989
0.907145
0.950021
0.980907
1.02111
1.05159
1.08286
1.11615
1.14695
1.14554
1.15559
1.15123
1.15103
1.15328
1.15544
1.15724
1.15838
1.15882
1.15651
1.15193
1.14436
1.13358
1.11925
1.10112
1.07862
1.05157
1.01734
0.977065
0.940523
0.904124
0.87267
0.854322
0.842712
0.839097
0.847929
0.867958
0.906594
0.952857
0.996755
1.03935
1.07771
1.11058
1.13459
1.14819
1.13088
1.08566
1.06265
1.0581
1.06119
1.06606
1.06991
1.07691
1.07947
1.08492
1.08282
1.08617
1.07832
1.07687
1.06402
1.0545
1.04511
1.0376
1.02643
1.01803
1.00597
0.99807
0.986228
0.975159
0.959963
0.940283
0.91273
0.873561
0.808628
0.697821
0.497265
0.128598
-0.311512
-0.511683
-0.609935
-0.638915
-0.640307
-0.635698
-0.620493
-0.603028
-0.584608
-0.566638
-0.543958
-0.525629
-0.503434
-0.484679
-0.468315
-0.461619
-0.45735
-0.458933
-0.454736
-0.447265
-0.434551
-0.416464
-0.393506
-0.364612
-0.333567
-0.296115
-0.251046
-0.200799
-0.140746
-0.0673951
0.00694327
0.0757341
0.138533
0.183081
0.207375
0.224868
0.221983
0.201437
0.202641
0.187706
0.193074
0.186364
0.165489
0.0998654
-0.0184609
-0.283478
-0.413002
-0.388507
-0.231301
0.133124
0.449152
0.605204
0.691993
0.724545
0.738679
0.761934
0.786404
0.806524
0.832371
0.853004
0.875872
0.891634
0.912924
0.915587
0.925891
0.930995
0.943155
0.954116
0.967259
0.977658
0.978549
0.975884
0.969512
0.969868
0.975386
0.983089
0.992829
1.00379
1.01436
1.01838
1.02627
1.0246
1.03118
1.0288
1.03082
1.03021
1.03199
1.03019
1.02999
1.02627
1.02987
1.02632
1.03512
1.0288
1.0334
1.03065
1.02833
1.02685
1.02585
1.02697
1.02607
1.02443
1.02282
1.0151
1.00809
0.997361
0.981801
0.962266
0.944151
0.924714
0.896052
0.945479
0.900781
0.855903
0.771396
0.692842
0.633297
0.627992
0.645589
0.6805
0.723281
0.769914
0.817204
0.862583
0.905604
0.946477
0.989437
1.01884
1.05933
1.09079
1.1146
1.14813
1.1737
1.16688
1.17374
1.1711
1.16993
1.16875
1.1688
1.16876
1.1683
1.16576
1.16125
1.15353
1.14274