/*--------------------------------*- C++ -*----------------------------------*\
| =========                 |                                                 |
| \\      /  F ield         | OpenFOAM: The Open Source CFD Toolbox           |
|  \\    /   O peration     | Version:  2.3.0                                 |
|   \\  /    A nd           | Web:      www.OpenFOAM.org                      |
|    \\/     M anipulation  |                                                 |
\*---------------------------------------------------------------------------*/
FoamFile
{
    version     2.0;
    format      ascii;
    class       surfaceScalarField;
    location    "3.14";
    object      cfmax;
}
// * * * * * * * * * * * * * * * * * * * * * * * * * * * * * * * * * * * * * //

dimensions      [0 3 -1 0 0 0 0];

internalField   nonuniform List<scalar> 
79600
(
0.0300676
0.030756
0.0302279
0.0317553
0.0302166
0.0326917
0.0301667
0.0338365
0.0304233
0.0347062
0.0308159
0.0353012
0.0312109
0.0360016
0.0316872
0.036807
0.0319947
0.0375578
0.0321497
0.0382536
0.0321995
0.0389422
0.0322221
0.0397206
0.0322268
0.0406313
0.0322848
0.041729
0.0323849
0.0427574
0.0325898
0.0438104
0.0328749
0.0448437
0.0331643
0.0457878
0.0335196
0.0466869
0.0339381
0.0474924
0.0343695
0.0483083
0.0348543
0.0489678
0.0353459
0.0495911
0.0358551
0.0502478
0.0363564
0.0510166
0.0365086
0.0517467
0.0363475
0.0522664
0.0358521
0.0527357
0.0351412
0.0531838
0.034249
0.053447
0.0341525
0.0535598
0.0350271
0.0535999
0.0356549
0.0536031
0.0360761
0.0536494
0.0363535
0.0538629
0.0365699
0.054243
0.0367234
0.0546734
0.0369395
0.0552508
0.0371929
0.0557421
0.0374527
0.0562586
0.037693
0.0567253
0.0379115
0.0571916
0.0381941
0.0576615
0.0383383
0.0580405
0.0383242
0.0584222
0.0382351
0.0587422
0.0381235
0.0590356
0.0380244
0.0594092
0.0378037
0.0594142
0.0375894
0.0592838
0.0373988
0.059097
0.037125
0.0587777
0.0370111
0.058343
0.0368547
0.0578806
0.0366844
0.0573706
0.0364162
0.0568165
0.0359485
0.0563839
0.0354499
0.0556735
0.0349368
0.0550301
0.0345894
0.0540651
0.0343152
0.0530658
0.034134
0.0517002
0.0342535
0.0510162
0.0346345
0.0509414
0.0353282
0.0517046
0.0364433
0.0534481
0.0370358
0.0552916
0.0369412
0.0562276
0.036682
0.0561929
0.0362663
0.0554189
0.0362078
0.0533186
0.0371656
0.0522472
0.041448
0.0544517
0.048014
0.0589063
0.0532618
0.0630379
0.0562709
0.0652829
0.0576923
0.0651665
0.0583819
0.0640145
0.0584455
0.0620804
0.0583275
0.0599476
0.0579002
0.0582996
0.056983
0.0569476
0.0559572
0.0556281
0.054684
0.0544404
0.053318
0.0531237
0.0519885
0.0516665
0.0508353
0.0506383
0.0497188
0.0496658
0.049173
0.0488769
0.0485589
0.0482975
0.0478089
0.0476163
0.0471591
0.0468845
0.0465354
0.0460916
0.045762
0.045246
0.0448697
0.0441272
0.0437204
0.0431066
0.041006
0.0408347
0.0358701
0.0363268
0.0300623
0.0313071
0.028894
0.0293692
0.0334596
0.0311242
0.0392303
0.0367663
0.0425353
0.0402708
0.0440303
0.0417432
0.0449059
0.0427609
0.0456147
0.043598
0.0463716
0.0443369
0.0470156
0.0449938
0.0476512
0.0455405
0.0482783
0.0462472
0.0489701
0.0469427
0.0500249
0.0477457
0.0509743
0.0487118
0.0522884
0.0498643
0.053667
0.051178
0.0549098
0.0524673
0.0559441
0.0535783
0.0567959
0.0545286
0.0574307
0.0554888
0.0576749
0.0567037
0.0575208
0.0582104
0.0569582
0.0595318
0.0554667
0.0598937
0.0527759
0.0588204
0.0478317
0.0555936
0.0418306
0.0491062
0.038843
0.0457916
0.0387682
0.047075
0.0389711
0.0498194
0.0390127
0.052956
0.0388082
0.0553953
0.0382398
0.0564966
0.0375194
0.0563147
0.0365936
0.0547932
0.0363588
0.0521841
0.0364523
0.0511129
0.0365976
0.0512454
0.0367538
0.0516088
0.0369724
0.0522304
0.0373204
0.0529399
0.0376407
0.0534937
0.0379615
0.0540222
0.0381883
0.054411
0.0383073
0.0548134
0.0383973
0.0552162
0.0383715
0.0557475
0.0381896
0.0561634
0.0379193
0.0564686
0.0375259
0.056748
0.0370632
0.0570092
0.0365755
0.0570904
0.0366059
0.0570881
0.0366833
0.0568981
0.0367614
0.0565125
0.0367006
0.0560614
0.0364487
0.0555606
0.0362027
0.0549655
0.0358924
0.0544326
0.0356306
0.0539862
0.0353714
0.0535208
0.0351422
0.0531245
0.0348681
0.0526779
0.0345778
0.0523173
0.0342106
0.0519704
0.0336665
0.0516816
0.0340154
0.0514995
0.0349857
0.0513926
0.0362648
0.05145
0.0374805
0.051609
0.0384823
0.0517237
0.0392485
0.0517937
0.0396761
0.0517798
0.0397926
0.0517615
0.0396454
0.051646
0.0391236
0.0513399
0.0385626
0.0509887
0.0379733
0.0505826
0.0373546
0.0500403
0.0367402
0.049406
0.036153
0.0486876
0.0355429
0.047814
0.0349823
0.0468007
0.0345541
0.0456234
0.0342232
0.0443926
0.0340544
0.0430255
0.0339652
0.0417247
0.0339531
0.0404828
0.0339101
0.0393373
0.0339064
0.0384242
0.0338171
0.0376969
0.0335637
0.037107
0.0331351
0.0365538
0.0325477
0.0358996
0.0320656
0.0350542
0.0316101
0.0344499
0.031175
0.0338974
0.0307301
0.0329322
0.0302824
0.0317534
0.029919
0.0305915
0.0294704
0.0310987
0.0314504
0.0311757
0.0324264
0.0311606
0.0333428
0.0311194
0.0344472
0.0311224
0.035339
0.0311693
0.0360038
0.0312725
0.036768
0.0313717
0.0375528
0.0314303
0.0382953
0.0314761
0.0389991
0.0316058
0.0397802
0.0317174
0.0406307
0.0318931
0.0415836
0.0320672
0.0425984
0.0321759
0.0435683
0.0322404
0.0446377
0.0322967
0.0456281
0.0322886
0.0465459
0.032301
0.047447
0.0323647
0.0482598
0.0324285
0.0490403
0.0325094
0.0497594
0.0326817
0.050551
0.0329777
0.0514255
0.0334097
0.0522812
0.0340114
0.0530171
0.0347375
0.0536047
0.0354156
0.0540374
0.036016
0.0543846
0.036582
0.0546867
0.0371483
0.0547251
0.0376641
0.0546893
0.0380369
0.0548097
0.0382848
0.0550621
0.0385117
0.0554261
0.0387011
0.0558674
0.0388997
0.0563248
0.039124
0.0568314
0.0393555
0.0573331
0.0395819
0.0577966
0.0398092
0.058161
0.0399278
0.0585911
0.0399556
0.0589335
0.0398835
0.0592237
0.039765
0.059569
0.0396566
0.0599294
0.0396189
0.0601606
0.0395378
0.0603925
0.0393883
0.0603132
0.0392731
0.0601731
0.039132
0.0599407
0.0389345
0.0595522
0.0386603
0.0591076
0.0384066
0.0586689
0.0381157
0.0580052
0.0378858
0.0573517
0.0377276
0.0568711
0.0376382
0.056112
0.0375716
0.0551873
0.0373968
0.0537019
0.037274
0.0523158
0.0375555
0.0515548
0.0380051
0.0512458
0.0388809
0.0516939
0.0400328
0.0527193
0.0413194
0.054576
0.0418761
0.0560974
0.0417131
0.0566447
0.041256
0.0561168
0.0406244
0.055045
0.0412351
0.055778
0.0436073
0.0575347
0.0492982
0.0616449
0.0544193
0.0651077
0.0575887
0.067431
0.0590669
0.0678036
0.0593792
0.0665387
0.0593006
0.0645405
0.0590577
0.0622932
0.0586928
0.0604235
0.0578836
0.0587085
0.0569336
0.0572523
0.0557385
0.0559632
0.0543738
0.054549
0.052894
0.0532109
0.0517146
0.0520532
0.0506131
0.0509571
0.049996
0.05013
0.0492875
0.0495013
0.0486454
0.0488713
0.0480053
0.048253
0.0473408
0.0475408
0.0465221
0.0466042
0.0454837
0.0455233
0.0443598
0.0441166
0.0423041
0.0425334
0.0382183
0.0386439
0.0320603
0.033772
0.0290231
0.0303187
0.0318117
0.0311006
0.0378756
0.0346417
0.0418754
0.0385447
0.0433734
0.0402975
0.0441664
0.0414565
0.044897
0.0423834
0.0456848
0.0431726
0.0462723
0.0437931
0.0467865
0.0443792
0.047404
0.0449566
0.0480893
0.0455968
0.0489919
0.0461991
0.0498541
0.0471384
0.0511028
0.0481377
0.0525406
0.0495309
0.05378
0.0507415
0.0548138
0.0518852
0.055575
0.0528433
0.0562548
0.0536752
0.0566594
0.0545828
0.0566477
0.0556414
0.0561445
0.0568085
0.0548355
0.0573918
0.0525091
0.0565197
0.0484997
0.0540102
0.043933
0.0483327
0.0407216
0.0429379
0.0410223
0.0426309
0.0418047
0.0456438
0.0421244
0.0495019
0.0424598
0.0530345
0.0425904
0.0557468
0.0424984
0.056821
0.0417407
0.0566188
0.0409174
0.0547963
0.0402258
0.0522591
0.0399474
0.0511361
0.0398285
0.0512108
0.0397286
0.0514506
0.0396653
0.0519585
0.039654
0.0524156
0.0396435
0.0528133
0.0396625
0.0531683
0.0396933
0.0534869
0.0396313
0.0538814
0.0394439
0.0542181
0.0391811
0.0546386
0.0388036
0.0549425
0.0382936
0.0551995
0.0377838
0.0554176
0.0372766
0.0555936
0.0368902
0.0557095
0.0366161
0.0556639
0.0363401
0.0553821
0.0360114
0.0549617
0.0357598
0.0545197
0.0355246
0.0540465
0.0353606
0.0535496
0.0351709
0.0530836
0.035055
0.0526941
0.0350128
0.052204
0.0350436
0.0518591
0.0352862
0.0513851
0.0357357
0.0510826
0.0364927
0.0508256
0.0373717
0.0508716
0.0383422
0.0509762
0.0394498
0.0511242
0.0406238
0.0513895
0.0415911
0.0516271
0.0422942
0.0519112
0.0428199
0.0521868
0.0430503
0.0523915
0.043007
0.0524135
0.0424711
0.0521992
0.0415542
0.0517805
0.0406922
0.0513211
0.0398975
0.0508234
0.0391523
0.0502632
0.0384371
0.049608
0.0377635
0.0488585
0.03715
0.0479221
0.0366394
0.0467964
0.0362274
0.0454917
0.0359035
0.0440843
0.0357534
0.0425546
0.0357418
0.0411694
0.0357933
0.0398457
0.0357775
0.0386851
0.035758
0.0377798
0.0355959
0.0371588
0.0352371
0.036665
0.0347033
0.0361658
0.0341235
0.035525
0.0336944
0.0346981
0.0333244
0.0341159
0.0329406
0.0336039
0.0323138
0.0328138
0.0315997
0.0317505
0.0311971
0.0303981
0.0302052
0.0322424
0.0320914
0.0321891
0.0330871
0.0321191
0.0340418
0.0320703
0.0351444
0.03214
0.0361198
0.0323335
0.0369421
0.0325797
0.0377384
0.0327849
0.038497
0.032951
0.0392586
0.0331728
0.0400879
0.0334517
0.0409708
0.0337143
0.041916
0.0339623
0.0428708
0.0342455
0.0439272
0.0345549
0.0449288
0.0348303
0.0459339
0.0350935
0.0469213
0.0353183
0.0478382
0.0354946
0.0487224
0.0356764
0.0495528
0.0358894
0.0503608
0.0361551
0.0512415
0.036431
0.0521865
0.0366987
0.0531461
0.0370478
0.0540233
0.0374411
0.0546384
0.0377736
0.0550117
0.0381331
0.0553872
0.0385615
0.0557249
0.0390072
0.0559018
0.0395056
0.055879
0.0399336
0.0560161
0.0402583
0.0562199
0.0405118
0.0565604
0.0407178
0.0569611
0.0408943
0.0574174
0.0410574
0.057889
0.0412417
0.0582747
0.041378
0.0586959
0.0414624
0.0590772
0.0415348
0.0595166
0.0414595
0.0598232
0.0413621
0.06011
0.0412927
0.0603941
0.0412619
0.0606829
0.0412249
0.0610073
0.0411639
0.0611256
0.041092
0.0612941
0.0410578
0.0612488
0.0410366
0.0611215
0.040936
0.0608214
0.040697
0.0602906
0.0403868
0.0597437
0.0402113
0.0593522
0.0401831
0.0587192
0.0400743
0.0579516
0.0400209
0.0572913
0.0400828
0.0564064
0.0401227
0.054896
0.0403548
0.0538206
0.0409583
0.0530805
0.0420072
0.0525918
0.043539
0.0526982
0.0448504
0.0533469
0.0459323
0.0541775
0.0466452
0.0554334
0.0465342
0.0562476
0.046278
0.0573471
0.0452067
0.0576443
0.0444778
0.0580124
0.0464308
0.0607467
0.0513832
0.0640941
0.0557176
0.0675569
0.0587575
0.0694108
0.0604842
0.070011
0.0607074
0.068856
0.0603556
0.0667196
0.0599622
0.0642913
0.0595006
0.0622103
0.0585578
0.0604597
0.0577066
0.0589131
0.0566375
0.0573192
0.0552142
0.056021
0.0537923
0.054636
0.052591
0.0533459
0.0514941
0.0524109
0.0507551
0.051483
0.0498886
0.0507797
0.04926
0.0501303
0.0486657
0.0494562
0.0480978
0.0488293
0.0473047
0.0479751
0.0463388
0.046912
0.0451882
0.0457026
0.043582
0.0438967
0.0402927
0.0410732
0.0343818
0.0361244
0.029831
0.0321884
0.0311767
0.0313881
0.0363392
0.0341216
0.0403043
0.0370301
0.0422036
0.0388046
0.0431925
0.0399569
0.0441225
0.0409895
0.0448556
0.0418652
0.0454284
0.0425293
0.0460289
0.0432129
0.0466371
0.0437297
0.0473608
0.0442229
0.0479069
0.0448128
0.0487633
0.0456379
0.0499907
0.0465809
0.0514286
0.0479162
0.0527086
0.0491299
0.0537622
0.050141
0.0545575
0.051087
0.0551579
0.0518788
0.0555275
0.052619
0.0556243
0.0533177
0.0552494
0.0541712
0.0542987
0.0547347
0.0523705
0.054418
0.0489097
0.0524328
0.0462507
0.0478338
0.0423896
0.0416169
0.042157
0.0389792
0.0432553
0.0407101
0.0442129
0.0445668
0.0449392
0.0491192
0.0456342
0.0529487
0.0461535
0.055771
0.0464131
0.057106
0.0459916
0.0570183
0.0452018
0.0554823
0.043861
0.0531083
0.042983
0.0515848
0.0425245
0.0511069
0.0420604
0.0514239
0.0416582
0.0516909
0.0412948
0.0519606
0.0410812
0.0522057
0.0408854
0.0524272
0.0406434
0.0526079
0.0403909
0.0529015
0.0400352
0.0532345
0.0395459
0.0535513
0.0390277
0.0538176
0.0385375
0.054066
0.0381455
0.0542306
0.0378466
0.0543691
0.0375845
0.0543823
0.0372773
0.0542692
0.0370217
0.0539867
0.0368443
0.0537528
0.0366802
0.0533318
0.0366075
0.0528139
0.0366324
0.0522464
0.0368665
0.0516944
0.0372267
0.0513402
0.0378703
0.0508154
0.0386933
0.0507166
0.0394657
0.0505361
0.040207
0.0505559
0.0408649
0.0506664
0.0415874
0.0508018
0.0425033
0.0511013
0.0435666
0.0515331
0.0446124
0.0520883
0.0453165
0.0525059
0.0456825
0.0527472
0.0458221
0.0529163
0.0457506
0.0530076
0.0452989
0.0529257
0.0444661
0.052669
0.0433882
0.0522254
0.0424283
0.0517278
0.0415426
0.0511739
0.0406922
0.0506
0.0398439
0.0499371
0.0390143
0.0491322
0.0382763
0.0480368
0.0377496
0.0466908
0.0374272
0.0451774
0.0373154
0.0435776
0.0373145
0.0419716
0.0374141
0.0404614
0.0374827
0.0390856
0.0375277
0.0379611
0.0375318
0.0371576
0.0373854
0.0365696
0.0370288
0.0361288
0.036585
0.0357402
0.036131
0.035252
0.0357413
0.034542
0.0353289
0.0340582
0.0347806
0.0336562
0.0338631
0.0330627
0.0330267
0.0320209
0.0325643
0.0304229
0.0308592
0.0333921
0.0327067
0.0331616
0.0336675
0.0329659
0.0346662
0.0329429
0.0358634
0.0331205
0.0370409
0.0334766
0.0380489
0.0338317
0.038848
0.0342016
0.0396344
0.0346576
0.0405715
0.0351133
0.0415288
0.0355475
0.0424602
0.0359622
0.0434822
0.0363733
0.0444754
0.0367825
0.0455046
0.0372075
0.0465256
0.0375819
0.0474898
0.0378665
0.0484157
0.0381796
0.0493418
0.0383891
0.0502026
0.0385411
0.0509934
0.038747
0.0518363
0.0389074
0.0527712
0.0390022
0.053761
0.0391074
0.0546275
0.0392795
0.0554242
0.0394742
0.0560599
0.0398205
0.0566507
0.0402291
0.0570831
0.0406867
0.057282
0.0412194
0.0572488
0.0417898
0.0572012
0.0421816
0.0573612
0.0424521
0.0576673
0.0426672
0.058074
0.0428133
0.0583997
0.0428781
0.0587218
0.0429533
0.05916
0.042953
0.0595786
0.0429571
0.0600332
0.042899
0.0604312
0.0428127
0.0607308
0.0427405
0.0609892
0.0426953
0.0612326
0.0426884
0.0615527
0.0426905
0.0617918
0.0426816
0.0619978
0.0426816
0.062133
0.0427074
0.0622642
0.0426847
0.0621414
0.0425222
0.0618343
0.0422981
0.0614627
0.0421791
0.0610246
0.0420114
0.0605976
0.0419172
0.0600429
0.0419634
0.0594723
0.0422493
0.0588437
0.0426327
0.0578173
0.0430135
0.0569493
0.0439614
0.05621
0.0449697
0.0552633
0.0460394
0.0543797
0.0471946
0.053858
0.0482684
0.0537651
0.0492902
0.0543841
0.0497727
0.0557546
0.0499731
0.0572341
0.0493097
0.0578567
0.0485086
0.0589589
0.0481294
0.061297
0.0502283
0.0641971
0.0535827
0.0671547
0.0570741
0.0692727
0.0599479
0.0711672
0.0616027
0.0717586
0.0619467
0.0705619
0.0614003
0.0685061
0.060865
0.0659236
0.0603
0.0636284
0.0593234
0.0618408
0.0584234
0.0601286
0.0572373
0.0587689
0.0559978
0.0574488
0.0546476
0.0557688
0.0532965
0.0546267
0.0522787
0.0536929
0.0515255
0.0526958
0.0507151
0.052034
0.0500077
0.0512437
0.0494496
0.050635
0.0488021
0.0500332
0.0479896
0.0492109
0.0470916
0.048247
0.0461
0.047156
0.0445911
0.0456648
0.0418872
0.042953
0.0368096
0.0385528
0.0313129
0.0339582
0.0304522
0.0321933
0.0349811
0.0339201
0.0390551
0.0370294
0.0413595
0.0378274
0.0424688
0.0384263
0.0432339
0.0395636
0.0439938
0.0404429
0.0446133
0.0411948
0.0452281
0.0418827
0.045813
0.0425417
0.0463681
0.0428925
0.0468478
0.0435706
0.0476806
0.0442332
0.0488486
0.0451073
0.0501973
0.0462689
0.0515204
0.0474895
0.0526056
0.0485063
0.0534551
0.0493202
0.0540532
0.0500676
0.0544288
0.0507675
0.0545357
0.0513502
0.054288
0.0518369
0.0536627
0.052289
0.0521401
0.0522197
0.0494139
0.0509339
0.0473531
0.047553
0.0443886
0.041488
0.0426271
0.0363928
0.0436009
0.0364677
0.0449281
0.0390191
0.0461624
0.0435206
0.0472472
0.0485858
0.0479519
0.0527576
0.0487914
0.0555358
0.0496026
0.0572852
0.0497281
0.0575266
0.049248
0.0563045
0.0476905
0.0545422
0.0460908
0.0527223
0.0451761
0.0517269
0.0443827
0.0516297
0.0436099
0.051719
0.0428674
0.0518758
0.0423405
0.0518218
0.0418895
0.0518946
0.0413953
0.0520195
0.0409623
0.0521835
0.0405496
0.0523612
0.0402027
0.0525541
0.0399093
0.0527356
0.0396658
0.0528623
0.0394683
0.0530101
0.0393284
0.053126
0.0391767
0.0532698
0.0389624
0.0532864
0.0387113
0.0531325
0.0386022
0.0528411
0.0387465
0.0523851
0.0391663
0.0517414
0.0399028
0.0510847
0.0408437
0.0506122
0.0417507
0.0504383
0.0424966
0.050344
0.0431504
0.050418
0.0437221
0.0506104
0.0443439
0.0509205
0.0449458
0.0513286
0.0455399
0.0517574
0.0461891
0.0520907
0.0469909
0.0525345
0.0476556
0.0529882
0.0480143
0.0533287
0.0481271
0.0535551
0.0480669
0.0536594
0.047693
0.053606
0.0469757
0.053408
0.0458905
0.0530585
0.0447419
0.0525523
0.0437258
0.0520338
0.0427763
0.0514763
0.0418559
0.0508844
0.0409746
0.0501802
0.040163
0.0492721
0.039506
0.0480507
0.0390968
0.0464834
0.0389349
0.0447357
0.038985
0.0429279
0.0391421
0.0412156
0.0393911
0.0396282
0.0395383
0.0383418
0.0396356
0.0372972
0.0395938
0.0365424
0.0393578
0.0360182
0.0390037
0.0357275
0.0386223
0.0355653
0.0381308
0.0352214
0.037618
0.0345965
0.0370131
0.0342035
0.0361751
0.0339063
0.0351026
0.0334186
0.0342809
0.0323049
0.0337896
0.0305116
0.0314514
0.0344049
0.0332282
0.0341527
0.0341947
0.0339331
0.0352393
0.0339703
0.036603
0.0342396
0.0380273
0.0346667
0.0392293
0.0351379
0.0401474
0.0357019
0.0410512
0.0362918
0.0420674
0.0368764
0.0430967
0.0374406
0.0440903
0.0379542
0.0451256
0.0384698
0.0461891
0.0389381
0.0471805
0.039367
0.048181
0.0397702
0.0491341
0.040054
0.0500642
0.0403072
0.0509839
0.0404333
0.051816
0.0405105
0.0526068
0.0405786
0.0535074
0.0405638
0.0544519
0.0405835
0.0554086
0.040701
0.0563273
0.0409095
0.0571602
0.0412874
0.0579035
0.0416913
0.0584541
0.042126
0.0587364
0.0426885
0.0587252
0.0433298
0.0586302
0.0438137
0.05864
0.0441316
0.0588106
0.0443421
0.0590015
0.0444352
0.059318
0.0444807
0.0597046
0.0444652
0.0601323
0.0444192
0.0605993
0.0443167
0.0610185
0.0441916
0.0613746
0.0440869
0.0616526
0.044014
0.0619105
0.0439824
0.0621364
0.0439838
0.062378
0.0439503
0.0626487
0.0439884
0.0628879
0.0440279
0.0630414
0.0440361
0.0630607
0.0439772
0.0630809
0.0438553
0.0629243
0.0437628
0.0626963
0.0437493
0.0625067
0.0436418
0.0619383
0.0435728
0.0613804
0.0437443
0.0608682
0.0442178
0.0605059
0.0450588
0.0598576
0.0458238
0.0592169
0.0465267
0.0582892
0.0470518
0.057208
0.0475526
0.0561577
0.0483005
0.055633
0.0492879
0.0556243
0.0503561
0.0560269
0.0512116
0.0568924
0.0518004
0.0581516
0.0519099
0.0600765
0.0515913
0.0623882
0.0519089
0.0649084
0.0540379
0.067258
0.0561927
0.069553
0.0587247
0.071234
0.0610747
0.0723562
0.0622317
0.0726925
0.0625368
0.0715857
0.0622777
0.0696036
0.0616848
0.0671587
0.0608965
0.0648506
0.0600605
0.0628579
0.0590934
0.061242
0.0579081
0.0597891
0.0568122
0.058339
0.0554253
0.0570509
0.0542049
0.0558499
0.0532197
0.0546487
0.0522275
0.0538991
0.0513843
0.0529634
0.0507837
0.0523313
0.0500959
0.0517082
0.0493999
0.0510702
0.0486583
0.0503227
0.0477701
0.0493391
0.0468082
0.0484145
0.0455052
0.0471346
0.0431769
0.0449886
0.0389115
0.0408065
0.0328717
0.0358765
0.0305421
0.0332876
0.0337693
0.0341084
0.0383745
0.0367486
0.0403632
0.0383205
0.0413744
0.0377839
0.0422079
0.0381295
0.0430507
0.0390587
0.043705
0.0398457
0.0443454
0.0405004
0.044918
0.041096
0.0454413
0.0416333
0.0459928
0.042302
0.0468009
0.0428964
0.04777
0.0436385
0.0490133
0.0446605
0.0503123
0.0458233
0.0514754
0.046892
0.0524124
0.0477238
0.0531086
0.0483609
0.0535778
0.0489115
0.0537475
0.0493833
0.0535208
0.0497807
0.0529789
0.0500366
0.0518269
0.0500192
0.049693
0.0493883
0.0474616
0.047166
0.0457928
0.0425557
0.0428974
0.0357431
0.0431281
0.0356716
0.0444127
0.0345551
0.0456242
0.0373575
0.047115
0.0420132
0.048659
0.047466
0.0498077
0.0520374
0.050643
0.0551369
0.0518358
0.0570614
0.052809
0.0576864
0.052842
0.0570954
0.0518999
0.0561323
0.0498575
0.0547447
0.0480981
0.0532002
0.0467983
0.0525075
0.0455065
0.052313
0.0444364
0.0521719
0.0436014
0.0516874
0.0430313
0.0514539
0.0425769
0.0513922
0.0423388
0.0512847
0.0422547
0.0512998
0.0422374
0.0514675
0.0422329
0.0516613
0.0422401
0.0519113
0.0422602
0.0521991
0.0422727
0.0525519
0.0422274
0.0528881
0.0422111
0.0530074
0.0423316
0.0529462
0.0424989
0.052815
0.0429159
0.0522058
0.043616
0.051422
0.0444769
0.0507733
0.0453923
0.0503082
0.0461957
0.0504719
0.046824
0.0507838
0.0472729
0.0512394
0.0475736
0.051576
0.0478342
0.0518521
0.0480815
0.0521625
0.0484873
0.0525477
0.048949
0.0529369
0.0495471
0.0533092
0.0499959
0.0537266
0.0501266
0.0539593
0.0500442
0.0540704
0.0497056
0.0540875
0.0490967
0.0539204
0.0481809
0.053653
0.0469155
0.0532604
0.0457443
0.0527246
0.0447159
0.0522145
0.0437374
0.0516979
0.042787
0.0510995
0.0418592
0.0503233
0.0410118
0.0492662
0.0403978
0.0478236
0.0401531
0.046004
0.0402392
0.0440047
0.0405615
0.0420488
0.0409308
0.0403109
0.0412833
0.0388166
0.0414997
0.0376004
0.0415809
0.0366849
0.0414556
0.0360556
0.041125
0.0356889
0.0406959
0.0355596
0.040241
0.0354921
0.0397041
0.0352769
0.0391052
0.0348106
0.0383614
0.0345427
0.0373601
0.0343295
0.0363387
0.0338513
0.0355213
0.0326605
0.0349135
0.0307423
0.0319768
0.0353689
0.0336853
0.0351589
0.034733
0.0350272
0.0358503
0.0351693
0.0373965
0.0354906
0.0390126
0.035885
0.040344
0.0364129
0.0414886
0.0370404
0.0425265
0.0376632
0.043611
0.0382925
0.044729
0.0389184
0.0457946
0.0395
0.0468656
0.04006
0.0479275
0.0405414
0.0489119
0.0409616
0.0498857
0.041287
0.05081
0.0415173
0.0517365
0.0417053
0.0526769
0.0418182
0.0536295
0.0419452
0.0545462
0.0420059
0.0555122
0.0421102
0.0565013
0.04226
0.0574334
0.0424755
0.0582765
0.042794
0.0590431
0.0431347
0.0596487
0.0435275
0.0601079
0.0440102
0.0602398
0.0446682
0.0601225
0.0452118
0.0600091
0.045503
0.059981
0.0456924
0.0600936
0.0457542
0.0603701
0.0457592
0.0607627
0.0457529
0.0612459
0.0456465
0.0616373
0.0455048
0.0620076
0.0453953
0.062343
0.0452728
0.0626292
0.045185
0.0628893
0.0451574
0.0631439
0.0451489
0.0633593
0.0451449
0.0635482
0.0451255
0.0637491
0.0451378
0.0639349
0.0451384
0.0640525
0.0451219
0.0640227
0.0450689
0.0640267
0.0451186
0.0640043
0.0451255
0.0637424
0.0450033
0.0632613
0.0449747
0.0627866
0.0453094
0.0624327
0.0459981
0.0620594
0.0467205
0.0616186
0.0472711
0.061083
0.0473585
0.060151
0.0475599
0.059293
0.0478165
0.0583169
0.0483958
0.0577919
0.0492942
0.0577728
0.0503969
0.0581589
0.0515778
0.0591228
0.0526811
0.0610927
0.0534745
0.0633149
0.0542878
0.065482
0.0554461
0.0674417
0.0569458
0.069563
0.0587825
0.0708474
0.0606747
0.0722833
0.0618654
0.07329
0.0624465
0.0727857
0.0626487
0.0720416
0.0624307
0.0702351
0.062086
0.0678868
0.0614428
0.0657301
0.0604996
0.0637398
0.0594933
0.0620998
0.0584534
0.0606765
0.0572665
0.0594125
0.0558462
0.0582882
0.0547207
0.0568585
0.053737
0.0558577
0.0527335
0.0549387
0.0519771
0.054049
0.0512754
0.0533798
0.0506155
0.052697
0.0500596
0.0520929
0.0492827
0.0513599
0.0483835
0.0504712
0.0474479
0.0494042
0.0463288
0.048394
0.044432
0.0466604
0.040762
0.0434366
0.0349165
0.0381342
0.0310095
0.034577
0.0327242
0.0343425
0.0375408
0.0369634
0.0400595
0.03845
0.040556
0.038299
0.0414653
0.0375291
0.042227
0.0376914
0.042932
0.0383968
0.0435241
0.0391406
0.0440577
0.0398084
0.0445283
0.0403841
0.0451115
0.0409894
0.0459177
0.0414934
0.0465468
0.042245
0.0476851
0.0430359
0.0490088
0.0441657
0.0501932
0.0452558
0.0511318
0.046153
0.0518454
0.0467945
0.0524589
0.0473142
0.0527867
0.0476943
0.0527815
0.0479321
0.0523817
0.0481042
0.0514439
0.0480025
0.0498482
0.0476021
0.0473093
0.046236
0.0466248
0.0431794
0.0443924
0.0372939
0.0426365
0.0368037
0.0433375
0.0374611
0.0446115
0.0360033
0.0455702
0.0357944
0.0469758
0.0401733
0.0489816
0.0455293
0.050694
0.0505671
0.0518257
0.0544206
0.0530102
0.0563135
0.0546474
0.0574751
0.0552879
0.0572104
0.0550823
0.056896
0.0537778
0.0562967
0.0518502
0.0552171
0.0500091
0.0543371
0.0484281
0.0538787
0.0472764
0.0531707
0.0465233
0.0522214
0.046069
0.0515965
0.0458775
0.0512426
0.0457918
0.0510317
0.0457372
0.0510125
0.0458269
0.0511669
0.0459919
0.0514258
0.0462426
0.0518012
0.0465238
0.052245
0.0468312
0.0526257
0.0470159
0.0530526
0.0470888
0.0533939
0.0471604
0.0534511
0.0471911
0.05335
0.0473758
0.052734
0.0478585
0.0519595
0.0487521
0.0513366
0.0496172
0.0511766
0.0501066
0.0513646
0.0502955
0.0516074
0.0503582
0.0520249
0.0503739
0.0523497
0.0504355
0.0526104
0.0505033
0.0529157
0.0506803
0.0532387
0.0509338
0.0535636
0.0513239
0.0538455
0.0515832
0.0541864
0.0515515
0.0543362
0.0513501
0.0543638
0.050928
0.0543082
0.0502649
0.0541371
0.0492625
0.0538611
0.0479339
0.0533932
0.0467854
0.0528724
0.0457507
0.0523956
0.0447638
0.0519082
0.0438448
0.0512935
0.0429868
0.0504472
0.042245
0.0492293
0.0418035
0.0475414
0.041767
0.0454313
0.0421003
0.0432059
0.0425419
0.0412651
0.0429082
0.0396124
0.0432178
0.0381922
0.0433225
0.0370881
0.0432425
0.036314
0.0429556
0.0358238
0.0424952
0.0355535
0.0420042
0.0355682
0.0415066
0.0355654
0.0409477
0.0354597
0.040298
0.0351343
0.0395239
0.0349503
0.0385364
0.0347514
0.0375861
0.0342743
0.0366777
0.033115
0.035961
0.0311102
0.0324173
0.036315
0.0341523
0.0362153
0.0353346
0.0362312
0.0365494
0.0363924
0.0381622
0.0366781
0.0398935
0.0370614
0.0414079
0.0376129
0.0427889
0.0382553
0.0440161
0.0389209
0.0451794
0.0395748
0.046377
0.040223
0.0475348
0.0408042
0.0486229
0.0413563
0.0496903
0.0418671
0.0506969
0.0423179
0.0516544
0.0426626
0.052566
0.0429349
0.0534801
0.0431533
0.0543925
0.0433154
0.0553842
0.0434514
0.0563661
0.0435847
0.0573604
0.0437263
0.058297
0.0439262
0.0591646
0.0441803
0.059949
0.0445538
0.0606981
0.0449269
0.0612848
0.0453834
0.0615085
0.0459558
0.0614629
0.0464246
0.0613563
0.0467079
0.0612405
0.0468697
0.0613197
0.0469901
0.0615991
0.0470031
0.0619733
0.0469013
0.0622949
0.0467358
0.0626537
0.046578
0.0630034
0.0464752
0.0633505
0.0463997
0.0636706
0.0463128
0.0639052
0.0462594
0.0641284
0.0462508
0.0643271
0.046213
0.0645425
0.0462156
0.0647056
0.046193
0.0648219
0.0461672
0.0649791
0.0461381
0.0650944
0.0462209
0.0651879
0.0462768
0.0651821
0.0462401
0.0649293
0.0461783
0.0645032
0.0462271
0.0641464
0.0465071
0.0639091
0.047247
0.0636695
0.0476739
0.0631624
0.0478777
0.062528
0.0478303
0.0618982
0.0477945
0.0610942
0.0479341
0.0605421
0.0483131
0.0601111
0.049003
0.0599959
0.0499183
0.0603814
0.0511624
0.0618472
0.0527681
0.0638508
0.054602
0.0657373
0.0560231
0.0672643
0.0573747
0.06894
0.0588419
0.0700901
0.0601036
0.0715397
0.0615139
0.0721081
0.0623924
0.0729573
0.0627297
0.0725549
0.062711
0.0714198
0.0623529
0.0700129
0.0620657
0.067824
0.0616265
0.0660557
0.0608375
0.0644124
0.0600426
0.0628219
0.0589932
0.0613376
0.0578103
0.0601828
0.0567176
0.0587905
0.0555588
0.0578237
0.0543998
0.0568419
0.0535256
0.0557725
0.052648
0.0551066
0.0518677
0.0542653
0.0513226
0.0537191
0.0506928
0.0531337
0.0499223
0.0524153
0.0490411
0.0515053
0.0480667
0.0505699
0.0469903
0.0493904
0.0454079
0.0479236
0.0424112
0.0452718
0.037198
0.040997
0.0324771
0.0365694
0.0323257
0.0349216
0.0364829
0.0370162
0.0395239
0.0387152
0.0403772
0.0389065
0.0405677
0.0382443
0.0412827
0.0372401
0.0418572
0.0371549
0.0425145
0.0378384
0.0431728
0.0384379
0.0437598
0.0390098
0.0443286
0.039499
0.0449321
0.0400119
0.045425
0.0407832
0.0465115
0.0415513
0.0477758
0.0425698
0.0489893
0.0436298
0.0499615
0.044577
0.0507036
0.0453048
0.0512569
0.0458546
0.051664
0.04627
0.0518098
0.0464746
0.0516363
0.0465272
0.0510114
0.0464385
0.0497716
0.0460186
0.0477725
0.0450926
0.0457025
0.0430889
0.0450213
0.0392819
0.0430661
0.0361599
0.0425208
0.0388048
0.0427915
0.0386485
0.0433197
0.0367005
0.0438855
0.0345155
0.0449927
0.0385612
0.0473903
0.0431627
0.0501585
0.0481045
0.0522333
0.0525151
0.0535387
0.0552825
0.0554585
0.0564575
0.0567778
0.0569325
0.0572659
0.0569439
0.0569942
0.0568687
0.0556485
0.056603
0.054175
0.055804
0.0528646
0.0552526
0.0515757
0.0545393
0.0507694
0.0533789
0.050213
0.0525214
0.0500086
0.0519334
0.0499212
0.0515863
0.0499872
0.0514136
0.0502867
0.0515027
0.0507204
0.0518593
0.0512161
0.0524322
0.0516816
0.0531184
0.0519151
0.05373
0.0519497
0.0542455
0.0519059
0.0545733
0.0516454
0.0547804
0.0513288
0.0546316
0.051086
0.0538465
0.0512273
0.0529615
0.0520234
0.0521809
0.0527405
0.0518677
0.052961
0.0519877
0.052855
0.052338
0.0525342
0.0527289
0.052298
0.0529566
0.0521819
0.0531989
0.0521371
0.0535189
0.0521592
0.0538058
0.0523372
0.0540509
0.0527263
0.0543281
0.0529046
0.0546026
0.0528063
0.0546884
0.0525781
0.0546196
0.0521142
0.054503
0.0513574
0.0542907
0.0501795
0.0539507
0.0488478
0.0534291
0.0477225
0.0529493
0.0466946
0.0525047
0.045718
0.0520119
0.0448209
0.0513467
0.0440131
0.0504039
0.0433792
0.0490253
0.0431482
0.0470544
0.0434413
0.0446384
0.0438611
0.042478
0.0442373
0.0406261
0.0445061
0.0391073
0.0446618
0.0378075
0.0446321
0.0368088
0.0444623
0.0361133
0.0441285
0.0357237
0.0437016
0.0356532
0.0431547
0.035756
0.0426079
0.035785
0.0420573
0.0357236
0.0414326
0.0354987
0.0407146
0.0353264
0.0397758
0.0351646
0.038785
0.0348082
0.0377637
0.0336873
0.0369618
0.0315816
0.0328017
0.0370602
0.034624
0.0370507
0.0359893
0.0372054
0.0373329
0.0374266
0.0389829
0.0377456
0.0407874
0.0382106
0.0424923
0.0387688
0.0440496
0.0394159
0.0454643
0.0400966
0.0467314
0.0407678
0.0479802
0.0414306
0.0492133
0.0420519
0.050336
0.042637
0.0514349
0.0432204
0.0524708
0.0437373
0.0533796
0.0441382
0.0542854
0.0444828
0.0551919
0.0447662
0.0561094
0.0449952
0.0571205
0.0451887
0.0581305
0.0453551
0.0591081
0.0455476
0.060023
0.045789
0.0608862
0.046044
0.0616751
0.0463502
0.0621438
0.0467459
0.0625394
0.0472165
0.062646
0.0476115
0.0625409
0.0478058
0.0625082
0.0479811
0.0626294
0.0480579
0.062819
0.0480432
0.0630698
0.047939
0.0633165
0.047753
0.0636232
0.0476087
0.0639483
0.0475153
0.0642813
0.0474299
0.0645983
0.0473603
0.0648738
0.0473214
0.0651011
0.0472888
0.0652808
0.0472413
0.0654337
0.047215
0.0656124
0.0471593
0.0657718
0.0471156
0.0659011
0.0471318
0.0660135
0.0472147
0.0662417
0.0472886
0.0662828
0.0472136
0.0660416
0.0470677
0.0656628
0.0471611
0.0654242
0.0476082
0.0653865
0.0480839
0.0649056
0.0482453
0.064519
0.0481703
0.0638965
0.0480381
0.0633546
0.0479905
0.0627838
0.0480167
0.0623674
0.0481279
0.062056
0.0483874
0.0618228
0.0490885
0.0625851
0.0501759
0.0639688
0.0519656
0.065645
0.0541078
0.0670288
0.0559623
0.0682152
0.0576707
0.0690143
0.059046
0.0700107
0.0603387
0.0705469
0.0613159
0.0713611
0.0620717
0.0709733
0.0623904
0.0712235
0.0622936
0.0704322
0.0621123
0.0689316
0.0616944
0.0673981
0.0612945
0.0657532
0.0607676
0.0645752
0.0600543
0.0632764
0.0591321
0.0620194