/*--------------------------------*- C++ -*----------------------------------*\
| =========                 |                                                 |
| \\      /  F ield         | OpenFOAM: The Open Source CFD Toolbox           |
|  \\    /   O peration     | Version:  2.2.x                                 |
|   \\  /    A nd           | Web:      www.OpenFOAM.org                      |
|    \\/     M anipulation  |                                                 |
\*---------------------------------------------------------------------------*/
FoamFile
{
    version     2.0;
    format      ascii;
    class       volVectorField;
    location    "1.1";
    object      U;
}
// * * * * * * * * * * * * * * * * * * * * * * * * * * * * * * * * * * * * * //

dimensions      [0 1 -1 0 0 0 0];

internalField   nonuniform List<vector> 
14161
(
(1.38691 -0.0311845 9.38676e-21)
(1.41284 -0.0161323 4.61483e-21)
(1.43806 0.0226207 3.76198e-21)
(1.43506 0.0475758 3.57261e-20)
(1.42109 0.0482979 4.26743e-20)
(1.4079 0.0430611 4.5197e-20)
(1.39892 0.0138813 4.75019e-20)
(1.37987 -0.0204946 3.74644e-20)
(1.38694 -0.0330835 2.70999e-20)
(1.39045 -0.0283731 3.08096e-20)
(1.38591 -0.019754 2.10403e-20)
(1.39937 -0.00479642 1.21919e-20)
(1.40365 0.0168691 1.7205e-20)
(1.39755 0.0293719 2.83996e-20)
(1.38954 0.0317826 4.14543e-20)
(1.37169 0.0268419 5.39889e-20)
(1.34509 0.0133771 6.3468e-20)
(1.32638 -0.0034493 6.88635e-20)
(1.32677 -0.0111619 7.00098e-20)
(1.32682 -0.0114881 7.16975e-20)
(1.33021 -0.00541136 7.13331e-20)
(1.33903 0.00320261 6.06947e-20)
(1.34567 0.01725 6.04872e-20)
(1.35683 0.024247 5.63213e-20)
(1.35676 0.0279105 6.00246e-20)
(1.35515 0.026723 6.51198e-20)
(1.35679 0.0235207 7.00583e-20)
(1.36133 0.0193374 6.85053e-20)
(1.36108 0.019302 7.17849e-20)
(1.36196 0.0209773 7.79166e-20)
(1.36468 0.024521 8.45926e-20)
(1.36876 0.0280733 8.07219e-20)
(1.38094 0.0335343 8.80831e-20)
(1.39199 0.0392533 8.78784e-20)
(1.39974 0.0436289 9.35575e-20)
(1.41607 0.0452279 8.03741e-20)
(1.42726 0.0497264 1.01797e-19)
(1.44196 0.0421947 1.88519e-19)
(0.867646 0.00441312 2.16231e-19)
(0.666478 0.0187811 1.73118e-19)
(0.649065 0.0307942 2.01417e-19)
(0.628594 0.0348297 1.81178e-19)
(0.600422 0.0296716 1.16238e-19)
(0.579843 0.0197095 -7.68896e-21)
(0.571427 0.00837856 -4.02511e-20)
(0.572095 0.000912085 -7.63293e-20)
(0.578126 -0.00410694 -7.77887e-20)
(0.587111 -0.00855075 -9.25136e-20)
(0.601594 -0.0110447 -3.43634e-20)
(0.617104 -0.0137429 -4.29353e-20)
(0.636597 -0.0161643 -5.2209e-20)
(0.657964 -0.0175779 2.03123e-20)
(0.680573 -0.0181815 -2.25206e-20)
(0.7034 -0.0184142 -6.32793e-20)
(0.727501 -0.0196036 5.36323e-20)
(0.755702 -0.0185194 -1.54209e-19)
(0.783937 -0.0173618 -4.35437e-20)
(0.814385 -0.0139631 -2.79492e-20)
(0.84669 -0.00939263 -1.8984e-19)
(0.877632 -0.0043976 -2.60633e-19)
(0.904202 0.000641612 -1.95606e-19)
(0.932988 0.00491396 -3.72025e-19)
(0.960135 0.00793765 -3.44655e-19)
(0.986275 0.0115143 -3.04173e-19)
(1.00868 0.0154795 -3.19756e-19)
(1.03156 0.0202779 -4.50903e-19)
(1.0468 0.0257483 -2.40856e-19)
(1.05993 0.027927 -2.70167e-19)
(1.05517 0.0289061 3.99034e-19)
(1.04636 0.0330686 7.57454e-19)
(1.01629 0.0458243 1.16797e-18)
(0.99973 0.0593161 1.66524e-18)
(0.972507 0.0788055 2.41806e-18)
(0.884951 0.110215 2.97831e-18)
(0.729235 0.137366 2.31825e-18)
(0.572149 0.100539 1.5489e-18)
(0.446533 0.0589389 9.30109e-19)
(0.349921 0.0535206 6.19124e-19)
(0.279144 0.0540139 4.6003e-19)
(0.226328 0.0454097 3.58964e-19)
(0.190036 0.0328834 3.06524e-19)
(0.169011 0.0221106 2.96808e-19)
(0.154157 0.018965 1.60421e-19)
(0.13989 0.020443 1.74392e-19)
(0.126598 0.0196816 -9.86947e-20)
(0.115786 0.0181125 -1.86068e-19)
(0.108502 0.0115949 -4.90055e-19)
(0.107792 0.00558736 -6.51591e-19)
(0.111989 0.000673361 -8.37632e-19)
(0.118863 -0.0027593 -9.94217e-19)
(0.127495 -0.005318 -1.09548e-18)
(0.137647 -0.00710411 -1.09244e-18)
(0.148121 -0.00633593 -1.02509e-18)
(0.157692 -0.0045262 -8.02336e-19)
(0.165853 -0.00358846 -6.26098e-19)
(0.170354 -0.00326792 -5.00756e-19)
(0.171252 -0.00452752 -5.06063e-19)
(0.170274 -0.00528375 -4.89121e-19)
(0.168369 -0.00503746 -4.11735e-19)
(0.16475 -0.00395525 -4.00977e-19)
(0.159021 -0.00290216 -4.2904e-19)
(0.153481 -0.00178488 -5.32394e-19)
(0.151516 0.000311397 -5.79487e-19)
(0.152875 0.00128956 -5.94078e-19)
(0.155948 0.00185517 -5.54745e-19)
(0.160649 0.00185734 -6.00519e-19)
(0.166755 0.00173449 -7.88184e-19)
(0.173761 0.00176407 -1.10124e-18)
(0.17996 0.00272971 -1.74451e-18)
(0.184403 0.00443825 -2.82944e-18)
(0.186176 0.00680695 -3.6983e-18)
(0.184318 0.00925682 -6.05994e-18)
(0.177027 0.0119545 -8.03656e-18)
(0.162661 0.0152162 -9.74123e-18)
(0.141008 0.0202048 -1.04934e-17)
(0.112686 0.0224176 -9.34194e-18)
(0.0783831 0.0247297 -9.78344e-18)
(0.0456456 0.0160577 -1.15964e-18)
(0.0193731 0.0188021 -4.18488e-19)
(1.45832 0.005446 -1.38696e-19)
(1.39208 0.00487924 -5.34072e-19)
(1.35246 -0.00118115 -5.068e-19)
(1.35881 -0.0156105 -3.42803e-19)
(1.34397 -0.0226418 -2.33841e-19)
(1.38387 -0.0178662 -3.31899e-19)
(1.43192 -0.0142707 -3.4e-19)
(1.46594 -0.00340495 -4.52434e-19)
(1.46384 0.0031987 -6.80567e-19)
(1.47446 0.0119419 -9.44367e-19)
(1.40902 0.0135052 -1.05792e-18)
(1.37362 0.00888516 -1.21779e-18)
(1.34208 -0.000960063 -1.31267e-18)
(1.32825 -0.0129456 -1.42119e-18)
(1.3228 -0.0162952 -1.37937e-18)
(1.3368 -0.0167915 -1.33478e-18)
(1.35206 -0.0125656 -1.28735e-18)
(1.36112 -0.00561006 -1.30514e-18)
(1.35267 0.00141311 -1.26016e-18)
(1.34837 0.00362042 -1.2794e-18)
(1.32449 0.00532121 -1.28703e-18)
(1.30691 0.00352829 -1.3068e-18)
(1.29515 -0.000166974 -1.34866e-18)
(1.28502 -0.00736708 -1.39983e-18)
(1.30063 -0.0118384 -1.32236e-18)
(1.3089 -0.0132008 -1.31156e-18)
(1.31787 -0.0132729 -1.30041e-18)
(1.32229 -0.0128626 -1.27593e-18)
(1.31751 -0.0103725 -1.26733e-18)
(1.30962 -0.00913009 -1.14109e-18)
(1.30115 -0.00779961 -1.28304e-18)
(1.29266 -0.00812646 -1.06651e-18)
(1.28794 -0.00880751 -1.24058e-18)
(1.28511 -0.00980242 -1.03071e-18)
(1.28464 -0.0100353 -1.25178e-18)
(1.2828 -0.0137287 -9.6687e-19)
(1.28027 -0.0129256 -1.15045e-18)
(1.29016 -0.0217084 -5.00212e-19)
(0.578522 -0.0214786 -3.03405e-19)
(0.491665 -0.0118673 9.02643e-19)
(0.482736 0.00405205 1.02299e-18)
(0.485773 0.0120704 6.48806e-19)
(0.492815 0.010297 3.42426e-19)
(0.502384 0.0030314 -2.30123e-19)
(0.516069 -0.00668321 -1.78298e-19)
(0.534291 -0.0141038 -4.64694e-20)
(0.555965 -0.0170613 -2.23631e-20)
(0.576607 -0.0211859 -1.99715e-19)
(0.599103 -0.0232072 -4.21239e-19)
(0.620469 -0.0254732 -5.82803e-19)
(0.641658 -0.0265033 -7.56225e-19)
(0.661732 -0.0272046 -8.34362e-19)
(0.680715 -0.0270378 -9.59953e-19)
(0.697791 -0.0261415 -1.02122e-18)
(0.712981 -0.0259392 -1.0686e-18)
(0.727969 -0.0255795 -1.24204e-18)
(0.742418 -0.0258291 -1.40588e-18)
(0.756231 -0.0240939 -1.61115e-18)
(0.769935 -0.0197268 -1.77768e-18)
(0.784592 -0.0156931 -1.78027e-18)
(0.797362 -0.0116135 -1.86781e-18)
(0.809288 -0.0089678 -2.02296e-18)
(0.820411 -0.00765468 -2.0668e-18)
(0.828811 -0.00629443 -2.02814e-18)
(0.834577 -0.00433358 -2.02108e-18)
(0.837889 -0.00110789 -1.9962e-18)
(0.834787 0.00260233 -1.95688e-18)
(0.823687 0.00513934 -1.79779e-18)
(0.791793 0.00460784 -1.45987e-18)
(0.75928 0.00632488 -7.9913e-19)
(0.733855 0.018452 2.77197e-19)
(0.712867 0.0339992 1.28488e-18)
(0.694445 0.0602528 1.68965e-18)
(0.651536 0.0968179 1.90756e-18)
(0.617651 0.132698 8.05848e-19)
(0.562876 0.142643 6.27103e-19)
(0.502598 0.122033 4.65239e-19)
(0.428651 0.107731 2.22493e-19)
(0.369045 0.0731729 3.23534e-19)
(0.318303 0.0560266 1.2006e-19)
(0.280938 0.0399368 2.07478e-19)
(0.25242 0.0286072 2.6413e-19)
(0.229476 0.0236197 1.91362e-19)
(0.209697 0.0238971 2.35427e-19)
(0.193185 0.0235894 4.09497e-20)
(0.178674 0.0225078 1.76063e-19)
(0.166672 0.0164148 4.19817e-20)
(0.158439 0.00901425 -3.97426e-19)
(0.154745 0.00220606 -4.67249e-19)
(0.152602 -0.00198079 -7.66123e-19)
(0.153106 -0.00549824 -9.35764e-19)
(0.155174 -0.00860222 -1.02194e-18)
(0.158529 -0.0105713 -1.03697e-18)
(0.162566 -0.0108448 -8.94443e-19)
(0.164612 -0.00755232 -5.58364e-19)
(0.163047 -0.00596661 -2.9995e-19)
(0.159068 -0.00635861 1.07439e-20)
(0.15203 -0.00691914 2.87054e-19)
(0.143372 -0.00692644 3.88288e-19)
(0.134592 -0.00658899 -4.37773e-20)
(0.125804 -0.00617587 -5.52491e-19)
(0.118986 -0.00533702 -9.73034e-19)
(0.115807 -0.00306767 -1.00025e-18)
(0.11625 -0.0015633 -9.68906e-19)
(0.118457 -0.000833267 -9.01522e-19)
(0.121596 -0.000754007 -9.12451e-19)
(0.125346 -0.000868417 -6.30217e-19)
(0.129309 -0.00100941 -8.67004e-19)
(0.132997 -0.000127174 -1.58035e-18)
(0.136227 0.00159927 -4.35381e-18)
(0.138305 0.00418874 -6.59322e-18)
(0.13855 0.00731627 -1.05448e-17)
(0.135023 0.0106227 -1.40622e-17)
(0.126668 0.0152226 -1.74535e-17)
(0.115027 0.0225221 -2.01693e-17)
(0.100084 0.0323283 -2.56129e-17)
(0.0800803 0.0509178 -2.59346e-17)
(0.0497954 0.0475887 -4.51555e-18)
(0.0245302 0.0575653 -1.59544e-17)
(1.3147 -0.0300634 -1.65146e-18)
(1.45516 -0.0218584 -6.69321e-19)
(1.53367 0.00788304 -6.31664e-19)
(1.51174 0.019819 -1.3087e-18)
(1.48021 0.0215904 -1.53476e-18)
(1.43442 0.0245834 -2.31095e-18)
(1.37369 0.0109877 -3.176e-18)
(1.34217 -0.00541581 -3.76741e-18)
(1.35427 -0.0259993 -4.14582e-18)
(1.37761 -0.0200667 -4.02682e-18)
(1.39311 -0.01298 -3.70313e-18)
(1.43609 -0.00449896 -3.29836e-18)
(1.45856 0.0050227 -2.73055e-18)
(1.45098 0.00992506 -2.67051e-18)
(1.40679 0.0150688 -2.61987e-18)
(1.36942 0.0143848 -2.63324e-18)
(1.31389 0.00942446 -2.78695e-18)
(1.27788 -0.000758016 -2.92597e-18)
(1.29452 -0.00759061 -2.69048e-18)
(1.3056 -0.00841921 -2.60013e-18)
(1.32977 -0.00577831 -2.46006e-18)
(1.36712 -0.00241259 -2.35276e-18)
(1.39166 0.00275283 -2.11962e-18)
(1.3948 0.00603814 -2.18591e-18)
(1.37889 0.00672557 -2.23348e-18)
(1.36347 0.00659913 -2.27786e-18)
(1.35566 0.006529 -2.29444e-18)
(1.35506 0.00451985 -2.31696e-18)
(1.36343 0.00420263 -2.31824e-18)
(1.37049 0.00477732 -2.383e-18)
(1.38538 0.00633015 -2.0305e-18)
(1.39841 0.00777372 -2.84945e-18)
(1.409 0.00989205 -1.82084e-18)
(1.41533 0.0108992 -1.85696e-18)
(1.42063 0.011827 -3.01994e-18)
(1.4261 0.00934649 -1.29276e-18)
(1.43458 0.00969698 -3.78248e-18)
(1.45462 -0.00201942 2.46821e-18)
(0.998932 -0.0147376 5.4167e-18)
(0.719594 0.000875471 4.29071e-18)
(0.672268 0.0152769 2.47293e-18)
(0.653735 0.0180779 1.74113e-18)
(0.648024 0.0125786 1.18658e-18)
(0.647809 0.00222042 5.81795e-19)
(0.651986 -0.00894736 2.33137e-19)
(0.653386 -0.0165298 -3.05288e-19)
(0.665826 -0.0214789 -5.77451e-19)
(0.675769 -0.0267737 -9.87334e-19)
(0.689091 -0.0294163 -1.20579e-18)
(0.701977 -0.0315698 -1.4032e-18)
(0.71541 -0.0321731 -1.6005e-18)
(0.727312 -0.0328741 -1.71993e-18)
(0.73903 -0.0328443 -1.82347e-18)
(0.75071 -0.0321531 -1.95257e-18)
(0.762192 -0.0323464 -2.08928e-18)
(0.773957 -0.0328197 -2.33058e-18)
(0.785349 -0.0336657 -2.46592e-18)
(0.795756 -0.0316341 -2.67679e-18)
(0.806196 -0.0271108 -2.83262e-18)
(0.819283 -0.0240712 -2.94307e-18)
(0.829182 -0.0205015 -3.15017e-18)
(0.842247 -0.0182317 -3.16674e-18)
(0.852713 -0.0171061 -3.23257e-18)
(0.862163 -0.016235 -3.25811e-18)
(0.870523 -0.0144391 -3.18952e-18)
(0.874574 -0.00998308 -2.95337e-18)
(0.870525 -0.00460543 -2.73593e-18)
(0.860624 0.00180965 -2.04251e-18)
(0.822685 0.00639102 -7.37686e-19)
(0.781825 0.0126312 3.53434e-19)
(0.741872 0.0267488 1.17441e-18)
(0.708009 0.0455835 1.25988e-18)
(0.677743 0.0770715 7.93119e-19)
(0.644203 0.114547 3.33118e-19)
(0.617033 0.153932 -5.24042e-19)
(0.577318 0.174064 -3.53565e-19)
(0.534323 0.172523 -5.54462e-19)
(0.487061 0.165846 -5.39978e-19)
(0.440802 0.135828 -5.16512e-19)
(0.38651 0.121412 -5.76227e-19)
(0.338233 0.0987113 -5.78751e-19)
(0.296836 0.0808421 -5.4624e-19)
(0.266223 0.0673218 -5.55675e-19)
(0.24099 0.062016 -5.30929e-19)
(0.219353 0.0583882 -6.02183e-19)
(0.201714 0.0529569 -5.78489e-19)
(0.190848 0.0405504 -6.09249e-19)
(0.18651 0.0270812 -7.52746e-19)
(0.185546 0.0154252 -1.06927e-18)
(0.183715 0.00752539 -1.09335e-18)
(0.1827 0.000294984 -1.43701e-18)
(0.181587 -0.00514546 -1.64088e-18)
(0.180546 -0.00837232 -1.69632e-18)
(0.179058 -0.0101566 -1.69395e-18)
(0.177251 -0.00931891 -1.75655e-18)
(0.173567 -0.00834866 -1.66544e-18)
(0.167396 -0.00844263 -1.54223e-18)
(0.158832 -0.00924735 -1.09582e-18)
(0.149896 -0.0102159 -5.01468e-19)
(0.141743 -0.0106634 1.00403e-20)
(0.134206 -0.0101316 1.59986e-19)
(0.128458 -0.00877696 -1.95778e-19)
(0.125585 -0.00616212 -7.41899e-19)
(0.126008 -0.00393293 -1.3713e-18)
(0.128443 -0.00275551 -1.55375e-18)
(0.131779 -0.00227032 -1.47601e-18)
(0.135548 -0.00193431 -1.1555e-18)
(0.139591 -0.00159233 -1.56468e-18)
(0.143167 -0.000155073 -2.73702e-18)
(0.146148 0.00206122 -5.78103e-18)
(0.147086 0.00568602 -1.0222e-17)
(0.146129 0.0105717 -1.6812e-17)
(0.141683 0.0152525 -2.18108e-17)
(0.133001 0.0216031 -2.78041e-17)
(0.119027 0.032582 -3.11803e-17)
(0.100538 0.0508656 -3.41947e-17)
(0.0802507 0.0768688 -3.76132e-17)
(0.0480934 0.0801017 -1.81105e-17)
(0.0243938 0.0971194 -4.66797e-17)
(1.58328 -0.00285933 1.04012e-19)
(1.36368 -0.00366362 -2.43876e-18)
(1.27625 0.000337248 -2.97418e-18)
(1.31111 0.00359709 -2.0153e-18)
(1.31037 -0.00250478 -7.06489e-19)
(1.40241 0.00220287 -4.34968e-19)
(1.50105 -0.000979344 -8.07995e-20)
(1.54683 0.00285818 -4.56775e-19)
(1.55116 -0.00319988 -4.49841e-19)
(1.51665 0.0012392 -1.52554e-18)
(1.42627 0.00316926 -2.09305e-18)
(1.35475 0.00381461 -2.85137e-18)
(1.29745 -0.000366742 -3.67095e-18)
(1.26865 -0.00584422 -4.17517e-18)
(1.29716 -0.00425473 -4.41769e-18)
(1.32311 -0.00285546 -4.29207e-18)
(1.37393 -0.000573954 -3.86193e-18)
(1.40149 0.00108465 -3.70102e-18)
(1.38364 0.00285879 -3.5338e-18)
(1.35967 0.00484086 -3.54692e-18)
(1.32851 0.00569596 -3.63177e-18)
(1.2899 0.00644805 -3.82052e-18)
(1.26126 0.00400525 -4.23914e-18)
(1.24735 0.000552196 -4.31093e-18)
(1.27473 -0.00249598 -4.41909e-18)
(1.28915 -0.00172007 -4.24645e-18)
(1.31353 -5.16595e-05 -4.22542e-18)
(1.31611 0.000577742 -4.08595e-18)
(1.31337 0.00150099 -4.01841e-18)
(1.30046 0.00535059 -4.04246e-18)
(1.28973 0.0075648 -3.93955e-18)
(1.27725 0.0101694 -4.11592e-18)
(1.27108 0.0123999 -4.13061e-18)
(1.27149 0.0130688 -3.93416e-18)
(1.28294 0.0133701 -3.81934e-18)
(1.29168 0.0130128 -3.67522e-18)
(1.30139 0.0113725 -4.83415e-18)
(1.31339 0.0043902 -9.19363e-20)
(0.581915 -0.0106611 2.70234e-18)
(0.507957 0.0201055 4.72473e-18)
(0.498271 0.0334051 5.17063e-18)
(0.501056 0.0296316 4.39987e-18)
(0.508552 0.0172226 3.22143e-18)
(0.521632 0.00169484 1.85148e-18)
(0.538802 -0.0119978 7.89795e-19)
(0.555253 -0.0280616 -1.01741e-19)
(0.578068 -0.0343022 -8.9137e-19)
(0.598764 -0.0400423 -1.48325e-18)
(0.619674 -0.0437152 -1.85206e-18)
(0.639936 -0.0461656 -2.07359e-18)
(0.659375 -0.0463659 -2.31152e-18)
(0.676793 -0.0463688 -2.4237e-18)
(0.692998 -0.0452386 -2.54887e-18)
(0.708838 -0.043872 -2.62433e-18)
(0.724349 -0.043497 -2.80352e-18)
(0.738345 -0.0433784 -2.91441e-18)
(0.751458 -0.0431658 -3.03321e-18)
(0.762777 -0.039851 -3.16839e-18)
(0.774774 -0.033776 -3.39804e-18)
(0.787997 -0.0301023 -3.53332e-18)
(0.799168 -0.02597 -3.75786e-18)
(0.812853 -0.023324 -3.90643e-18)
(0.824936 -0.0213416 -3.94317e-18)
(0.837026 -0.0192867 -3.9668e-18)
(0.84839 -0.0165801 -3.8517e-18)
(0.857866 -0.00894684 -3.75364e-18)
(0.863964 0.00259351 -3.23223e-18)
(0.862417 0.0153822 -2.25626e-18)
(0.834393 0.0247853 -1.08461e-18)
(0.81447 0.0436712 1.36522e-19)
(0.763175 0.0655763 1.23636e-18)
(0.715558 0.0886854 1.53869e-18)
(0.671428 0.121347 4.48193e-19)
(0.630099 0.15488 -2.96367e-19)
(0.596075 0.191346 -1.43721e-18)
(0.56624 0.208867 -9.4095e-19)
(0.526879 0.214487 -1.15419e-18)
(0.486261 0.216492 -9.72383e-19)
(0.440591 0.192372 -9.43134e-19)
(0.387634 0.188855 -8.46086e-19)
(0.338106 0.163203 -6.85911e-19)
(0.291865 0.138861 -7.88466e-19)
(0.255441 0.115259 -6.40571e-19)
(0.226333 0.101364 -5.44865e-19)
(0.204148 0.0905142 -6.19693e-19)
(0.183905 0.0783262 -6.55444e-19)
(0.170153 0.0588468 -6.38293e-19)
(0.158803 0.0406083 -7.11805e-19)
(0.151692 0.0257326 -9.41467e-19)
(0.145494 0.0169424 -9.32272e-19)
(0.143684 0.00776963 -1.39441e-18)
(0.143728 0.000181502 -1.72225e-18)
(0.145247 -0.00453109 -1.91696e-18)
(0.146052 -0.00808903 -1.97349e-18)
(0.146991 -0.00870793 -2.10195e-18)
(0.146588 -0.00794171 -1.89744e-18)
(0.144663 -0.00792336 -1.52025e-18)
(0.140435 -0.00911075 -8.40001e-19)
(0.134322 -0.0109953 -3.44241e-19)
(0.127893 -0.0128277 -1.30123e-19)
(0.121802 -0.0131379 -3.22074e-19)
(0.11773 -0.0119856 -6.18161e-19)
(0.116145 -0.00932026 -9.77193e-19)
(0.117535 -0.00639441 -1.08953e-18)
(0.120914 -0.00493834 -1.09653e-18)
(0.125742 -0.00400989 -9.55735e-19)
(0.131712 -0.00282846 -1.35256e-18)
(0.138048 -0.00163488 -2.07939e-18)
(0.143146 0.00130255 -4.94271e-18)
(0.146743 0.00522637 -8.63268e-18)
(0.146831 0.0100707 -1.386e-17)
(0.143094 0.0153392 -2.00507e-17)
(0.138272 0.0219445 -2.52269e-17)
(0.126246 0.030409 -3.08417e-17)
(0.107413 0.0443911 -3.31365e-17)
(0.0825295 0.0653399 -3.2916e-17)
(0.0669662 0.0987828 -3.63825e-17)
(0.0374898 0.110379 -2.88792e-17)
(0.022716 0.131661 -7.42245e-17)
(1.25008 -0.0339219 -4.64126e-18)
(1.47211 -0.0251574 -8.65013e-19)
(1.58168 -0.000109281 -5.58475e-19)
(1.58891 0.0139833 -1.90726e-18)
(1.52688 0.0178699 -1.90047e-18)
(1.45837 0.0198046 -3.46091e-18)
(1.35184 0.0122263 -5.68222e-18)
(1.31259 0.00520265 -7.22886e-18)
(1.34165 -0.0165789 -8.09859e-18)
(1.36812 -0.0183463 -7.92112e-18)
(1.39119 -0.0150726 -6.98461e-18)
(1.4553 -0.00855431 -5.88326e-18)
(1.48921 -0.00142744 -4.43798e-18)
(1.4897 0.00456311 -4.31529e-18)
(1.41894 0.00884787 -4.29816e-18)
(1.372 0.0103612 -4.53649e-18)
(1.29225 0.00990441 -5.0803e-18)
(1.2429 0.0039616 -5.6758e-18)
(1.24734 -0.00401636 -5.32121e-18)
(1.27887 -0.0075156 -5.0593e-18)
(1.31572 -0.00770333 -4.60997e-18)
(1.36734 -0.0106884 -4.23253e-18)
(1.40366 -0.0040678 -3.84799e-18)
(1.42092 -0.00181886 -3.51345e-18)
(1.3873 -0.000961871 -3.70255e-18)
(1.36411 0.000363982 -3.80593e-18)
(1.34742 0.00206644 -3.96326e-18)
(1.33513 0.00175005 -4.10075e-18)
(1.3268 0.00121277 -4.19615e-18)
(1.34066 0.000359677 -4.3188e-18)
(1.34769 0.000497302 -4.33194e-18)
(1.36225 0.00117351 -4.4135e-18)
(1.3698 0.000938082 -4.33688e-18)
(1.37522 -7.0917e-05 -3.83536e-18)
(1.36558 -0.00219639 -4.69989e-18)
(1.35998 -0.00384829 -2.88382e-18)
(1.34794 -0.00730534 -6.87473e-18)
(1.35234 -0.00711289 1.97489e-19)
(0.797059 0.000969377 8.0982e-18)
(0.635246 0.0206085 4.52328e-18)
(0.591417 0.0295741 2.91821e-18)
(0.579485 0.022214 2.63595e-18)
(0.581536 0.00719324 2.05345e-18)
(0.588661 -0.0123733 1.4196e-18)
(0.603499 -0.0269316 1.00387e-18)
(0.610055 -0.0426737 -7.03669e-20)
(0.628243 -0.0500281 -6.08408e-19)
(0.64337 -0.05643 -1.16659e-18)
(0.660214 -0.0605152 -1.56539e-18)
(0.676435 -0.0624562 -1.86529e-18)
(0.691036 -0.0617887 -2.04038e-18)
(0.704857 -0.0612476 -2.19171e-18)
(0.718212 -0.0589539 -2.26253e-18)
(0.73128 -0.0565051 -2.40396e-18)
(0.744204 -0.0553332 -2.51192e-18)
(0.755893 -0.0546579 -2.55961e-18)
(0.766142 -0.0531307 -2.6176e-18)
(0.772724 -0.0474611 -2.77276e-18)
(0.779115 -0.0412313 -3.11353e-18)
(0.793486 -0.0381955 -3.1843e-18)
(0.805358 -0.0347415 -3.39626e-18)
(0.820577 -0.0334849 -3.43727e-18)
(0.835083 -0.0321358 -3.65615e-18)
(0.846859 -0.0299847 -3.6598e-18)
(0.853171 -0.0271406 -3.53715e-18)
(0.855582 -0.0209534 -3.29886e-18)
(0.854948 -0.00843117 -3.16762e-18)
(0.853329 0.0128064 -2.82481e-18)
(0.810446 0.037908 -2.03557e-18)
(0.775639 0.068325 -6.87969e-19)
(0.723535 0.0938716 3.07628e-19)
(0.690512 0.129159 7.3349e-19)
(0.650622 0.158119 1.25769e-19)
(0.624266 0.193377 -6.22125e-19)
(0.599681 0.225872 -1.7e-18)
(0.571858 0.246991 -1.38888e-18)
(0.538227 0.261068 -1.7031e-18)
(0.499379 0.268555 -1.39955e-18)
(0.455777 0.250954 -1.31352e-18)
(0.409211 0.252862 -1.13587e-18)
(0.363475 0.22623 -1.32262e-18)
(0.315989 0.199838 -9.33105e-19)
(0.274787 0.168852 -7.41341e-19)
(0.239045 0.147126 -1.01175e-18)
(0.212183 0.129641 -9.07611e-19)
(0.185719 0.11376 -7.20674e-19)
(0.167844 0.0883038 -5.12514e-19)
(0.150762 0.0663888 -7.52791e-19)
(0.141211 0.0454182 -9.5645e-19)
(0.133561 0.0294617 -8.55361e-19)
(0.132118 0.0135218 -1.08857e-18)
(0.133038 0.00227723 -1.24383e-18)
(0.135196 -0.00482006 -1.50423e-18)
(0.137662 -0.00972445 -1.70311e-18)
(0.139924 -0.0133339 -1.75014e-18)
(0.141111 -0.015094 -1.57346e-18)
(0.140706 -0.0157614 -1.40238e-18)
(0.138334 -0.0162491 -1.20668e-18)
(0.133745 -0.015921 -9.03636e-19)
(0.128502 -0.0152783 -9.09073e-19)
(0.123822 -0.0151157 -7.4795e-19)
(0.120928 -0.0139223 -6.91119e-19)
(0.119827 -0.0115701 -7.96469e-19)
(0.120189 -0.00824721 -7.78558e-19)
(0.122486 -0.00684822 -6.20199e-19)
(0.12607 -0.00634663 -7.64416e-19)
(0.130898 -0.00528384 -1.28293e-18)
(0.136742 -0.00273978 -2.72656e-18)
(0.14167 0.00234707 -5.25811e-18)
(0.14703 0.00800403 -9.32689e-18)
(0.149605 0.0144847 -1.3809e-17)
(0.147751 0.0212541 -1.93623e-17)
(0.140742 0.03138 -2.21379e-17)
(0.125582 0.044187 -2.52443e-17)
(0.103553 0.0630755 -2.68247e-17)
(0.0744915 0.0867477 -2.39014e-17)
(0.0594034 0.120381 -2.86387e-17)
(0.032674 0.136052 -2.87846e-17)
(0.0240889 0.15721 -6.60288e-17)
(1.67434 -0.00721694 1.12705e-18)
(1.36197 -0.00657601 -3.96889e-18)
(1.25698 -0.000856861 -5.8385e-18)
(1.26626 0.00944277 -4.74393e-18)
(1.29671 0.0092703 -2.07542e-18)
(1.3977 0.00864752 -9.7432e-19)
(1.51779 0.00309503 1.27855e-19)
(1.57855 0.00585557 2.70799e-20)
(1.59791 0.000967329 4.24805e-20)
(1.53301 -0.000455924 -1.22427e-18)
(1.43508 -0.00266433 -2.01099e-18)
(1.34893 -0.00103155 -3.13741e-18)
(1.27482 -3.07371e-05 -4.559e-18)
(1.22805 -0.00167859 -5.46668e-18)
(1.26996 -3.7261e-05 -5.87672e-18)
(1.30377 0.0014759 -5.59679e-18)
(1.37205 0.00422868 -4.80765e-18)
(1.41381 0.00355623 -4.17748e-18)
(1.41087 0.00526312 -3.88221e-18)
(1.38405 0.00547267 -3.75377e-18)
(1.34204 0.00481733 -3.84804e-18)
(1.29823 0.00329198 -4.07664e-18)
(1.25849 0.00461778 -4.59257e-18)
(1.23217 0.00180747 -4.83179e-18)
(1.26445 0.000573128 -5.04211e-18)
(1.27505 0.00191057 -4.87383e-18)
(1.31061 0.00406865 -4.79876e-18)
(1.32065 0.0059993 -4.66864e-18)
(1.32101 0.0102184 -4.36112e-18)
(1.30862 0.0126803 -4.44962e-18)
(1.29258 0.0167022 -4.47966e-18)
(1.28063 0.0204046 -4.43337e-18)
(1.27285 0.0215696 -4.52904e-18)
(1.28177 0.0208094 -4.31582e-18)
(1.28958 0.0196276 -4.19788e-18)
(1.29435 0.0183225 -3.98022e-18)
(1.2984 0.0173479 -4.57048e-18)
(1.30576 0.0242185 -1.66441e-18)
(0.622015 0.0384702 3.87479e-18)
(0.538891 0.0511171 4.80881e-18)
(0.517511 0.0429575 5.0056e-18)
(0.519006 0.0245264 4.85706e-18)
(0.528756 0.00142888 4.76635e-18)
(0.544148 -0.0240044 3.48109e-18)
(0.564895 -0.0408641 2.28057e-18)
(0.577572 -0.061332 9.29368e-19)
(0.600993 -0.0695741 2.06712e-19)
(0.621549 -0.0761362 -3.85782e-19)
(0.642682 -0.0799433 -6.35229e-19)
(0.662354 -0.0801196 -8.30508e-19)
(0.679951 -0.0780003 -8.44205e-19)
(0.696414 -0.0764801 -1.00562e-18)
(0.712176 -0.0730005 -9.72737e-19)
(0.72724 -0.069416 -1.08965e-18)
(0.74326 -0.0674716 -1.07387e-18)
(0.758677 -0.0661653 -1.01841e-18)
(0.772553 -0.0637426 -9.40093e-19)
(0.784989 -0.0624797 -7.06342e-19)
(0.797064 -0.0618686 -3.13018e-19)
(0.813131 -0.0602 -1.19941e-19)
(0.828733 -0.0566531 1.90025e-20)
(0.844267 -0.052458 -5.51963e-20)
(0.856752 -0.0449332 -1.31054e-19)
(0.871166 -0.0362315 -1.42435e-19)
(0.881018 -0.025054 -2.30594e-19)
(0.887738 -0.0121225 -2.64946e-19)
(0.885244 0.00532676 -2.65892e-19)
(0.892361 0.0275563 5.07238e-20)
(0.85284 0.0552374 5.93742e-19)
(0.827328 0.0931523 1.2041e-18)
(0.76889 0.121936 1.71526e-18)
(0.735937 0.156883 2.4451e-18)
(0.697893 0.183812 1.72673e-18)
(0.673492 0.216015 1.03426e-18)
(0.645357 0.246324 3.29863e-20)
(0.617917 0.273779 -8.93782e-19)
(0.584775 0.299953 -1.6047e-18)
(0.551584 0.313604 -1.70187e-18)
(0.510935 0.305263 -2.20953e-18)
(0.471777 0.307411 -2.26025e-18)
(0.433432 0.281037 -1.67191e-18)
(0.386272 0.257519 -1.38744e-18)
(0.342391 0.218704 -1.98163e-18)
(0.29472 0.19163 -1.00744e-18)
(0.257176 0.167702 -5.17298e-19)
(0.221099 0.148877 -9.7945e-19)
(0.196781 0.118065 -1.30559e-18)
(0.169737 0.0941218 -1.14417e-18)
(0.15216 0.067028 -8.59767e-19)
(0.137324 0.0448102 -9.64486e-19)
(0.132286 0.0218996 -1.35428e-18)
(0.133146 0.00428662 -1.49978e-18)
(0.135699 -0.00614839 -1.42653e-18)
(0.137115 -0.0135386 -1.59929e-18)
(0.138676 -0.0188292 -1.83103e-18)
(0.138889 -0.0210246 -1.90533e-18)
(0.137083 -0.0216688 -1.69226e-18)
(0.133015 -0.0209785 -1.51824e-18)
(0.127685 -0.019479 -1.16956e-18)
(0.123493 -0.0179623 -1.29781e-18)
(0.120812 -0.0169171 -7.98555e-19)
(0.119365 -0.0152399 -1.03309e-18)
(0.118801 -0.0129584 -8.41228e-19)
(0.119586 -0.0103575 -7.31358e-19)
(0.121528 -0.00853019 -5.42671e-19)
(0.124622 -0.00795534 -6.51201e-19)
(0.128672 -0.00649208 -1.60973e-18)
(0.133869 -0.00353512 -3.05016e-18)
(0.13946 0.00201964 -5.5369e-18)
(0.145566 0.00921681 -9.55888e-18)
(0.14859 0.0183223 -1.24661e-17)
(0.146531 0.0281088 -1.68897e-17)
(0.137454 0.0419695 -1.91369e-17)
(0.120624 0.0601651 -2.19537e-17)
(0.0978287 0.0852243 -2.4853e-17)
(0.0676861 0.108075 -1.82147e-17)
(0.0551529 0.141483 -2.07289e-17)
(0.0313587 0.157042 -1.90159e-17)
(0.0266033 0.177873 -3.31549e-17)
(1.20953 -0.037723 -4.54241e-18)
(1.48491 -0.0259933 -2.72368e-19)
(1.61237 -0.00308718 6.35762e-19)
(1.64677 0.0133156 -7.59189e-19)
(1.55016 0.0160388 -8.81916e-19)
(1.4808 0.0185091 -2.16319e-18)
(1.35219 0.0121952 -4.3368e-18)
(1.301 0.00936151 -5.94652e-18)
(1.32014 -0.0058018 -6.89929e-18)
(1.35563 -0.0176544 -6.91591e-18)
(1.38061 -0.0204328 -5.85481e-18)
(1.45059 -0.0148569 -4.79168e-18)
(1.49843 -0.00543019 -3.43033e-18)
(1.50649 0.00355823 -3.04652e-18)
(1.42564 0.00661557 -3.00102e-18)
(1.37932 0.00596801 -3.2324e-18)
(1.28717 0.00927082 -3.64828e-18)
(1.22844 0.00508921 -4.21941e-18)
(1.2117 -0.00226247 -4.15375e-18)
(1.25791 -0.00947895 -3.66235e-18)
(1.29938 -0.0107973 -3.23506e-18)
(1.34888 -0.0128434 -2.83611e-18)
(1.39372 -0.0157064 -2.47535e-18)
(1.42396 -0.0074425 -2.0744e-18)
(1.38635 -0.00310279 -2.22055e-18)
(1.35991 -0.000766435 -2.31294e-18)
(1.33787 0.000749604 -2.43523e-18)
(1.30943 0.00193615 -2.70947e-18)
(1.28081 -0.00255485 -2.6896e-18)
(1.28429 -0.0090844 -3.05185e-18)
(1.2848 -0.0177761 -3.20739e-18)
(1.30019 -0.0207148 -3.08129e-18)
(1.31067 -0.0222282 -3.04489e-18)
(1.31454 -0.0240087 -2.98147e-18)
(1.31568 -0.0221654 -2.85882e-18)
(1.31512 -0.0188571 -3.02886e-18)
(1.3066 -0.0169347 -2.49762e-18)
(1.30066 -0.000493031 7.17658e-19)
(0.688036 0.083426 3.81842e-18)
(0.5466 0.0680576 3.10078e-18)
(0.501354 0.0390186 3.44952e-18)
(0.499322 0.00948571 3.10963e-18)
(0.510506 -0.0233269 2.77345e-18)
(0.532938 -0.0536469 2.08948e-18)
(0.561343 -0.0715294 1.52206e-18)
(0.585086 -0.0928042 1.07876e-18)
(0.619648 -0.101432 6.50363e-19)
(0.653124 -0.105115 2.18803e-19)
(0.684709 -0.101319 1.78007e-19)
(0.709988 -0.0956338 1.98061e-19)
(0.730697 -0.090369 2.62156e-19)
(0.748877 -0.0869934 3.53522e-19)
(0.765243 -0.0813911 3.38468e-19)
(0.780526 -0.0777299 3.23962e-19)
(0.79716 -0.0745506 3.23016e-19)
(0.812211 -0.0721028 2.21089e-19)
(0.824949 -0.0697216 2.72607e-19)
(0.836808 -0.0657839 3.50589e-19)
(0.849201 -0.0633006 4.27752e-19)
(0.859444 -0.0616636 4.84853e-19)
(0.868228 -0.0587563 5.33658e-19)
(0.875312 -0.055043 6.3477e-19)
(0.883042 -0.0499864 7.13232e-19)
(0.891227 -0.0459044 7.46973e-19)
(0.898282 -0.0390873 7.51557e-19)
(0.909677 -0.025244 7.08877e-19)
(0.917947 -0.00367121 6.58266e-19)
(0.919434 0.0322467 6.99289e-19)
(0.877968 0.0791108 8.58765e-19)
(0.858469 0.128973 1.37941e-18)
(0.792187 0.170283 1.74236e-18)
(0.74647 0.201218 1.97544e-18)
(0.717827 0.23266 2.07401e-18)
(0.69392 0.263823 1.77395e-18)
(0.67222 0.295086 9.80276e-19)
(0.653899 0.324358 6.78155e-19)
(0.635915 0.348473 -2.51172e-19)
(0.612027 0.362102 -9.69307e-19)
(0.582984 0.357993 -1.37046e-18)
(0.548782 0.356154 -2.01918e-18)
(0.51206 0.340296 -2.62053e-18)
(0.466666 0.327253 -2.76178e-18)
(0.417823 0.296945 -2.06177e-18)
(0.361518 0.268452 -1.16399e-18)
(0.314134 0.233349 -2.37536e-18)
(0.27045 0.202222 -1.93814e-18)
(0.236468 0.164642 -9.49672e-19)
(0.198518 0.136029 -3.90106e-19)
(0.173844 0.0973646 -1.04951e-18)
(0.151837 0.0629688 -9.04399e-19)
(0.142307 0.0291454 -1.56259e-18)
(0.139038 0.00622799 -1.23714e-18)
(0.139736 -0.00761508 -1.46442e-18)
(0.14141 -0.0168644 -1.77028e-18)
(0.142483 -0.0236383 -1.95819e-18)
(0.141429 -0.0267802 -1.55012e-18)
(0.138022 -0.0267007 -1.19165e-18)
(0.133535 -0.0251119 -1.12322e-18)
(0.129317 -0.0230861 -1.14945e-18)
(0.125799 -0.0210355 -3.02863e-19)
(0.123196 -0.0190893 -4.57458e-19)
(0.121688 -0.0165877 1.20349e-19)
(0.120701 -0.0144786 -1.82452e-19)
(0.121529 -0.0121335 1.67886e-19)
(0.12365 -0.0101472 1.06924e-19)
(0.126544 -0.00939854 -2.94466e-19)
(0.130203 -0.00771149 -1.06519e-18)
(0.134687 -0.00427837 -2.01006e-18)
(0.139852 0.001971 -4.65034e-18)
(0.144792 0.010895 -7.2304e-18)
(0.147418 0.022002 -1.13641e-17)
(0.145118 0.0350666 -1.51892e-17)
(0.137022 0.0541997 -2.03987e-17)
(0.119665 0.0785874 -2.3034e-17)
(0.0992835 0.109654 -2.59927e-17)
(0.0686202 0.131035 -1.67978e-17)
(0.0565319 0.162619 -1.92438e-17)
(0.0335533 0.17457 -1.46705e-17)
(0.0309352 0.196289 -2.20444e-17)
(1.74189 -0.00668785 1.41301e-18)
(1.37223 -0.00774033 -2.55756e-18)
(1.25694 -0.00362271 -4.18786e-18)
(1.2381 0.00853281 -3.542e-18)
(1.28595 0.00804786 -1.68887e-18)
(1.38842 0.00914029 -5.6691e-19)
(1.51143 0.00401917 5.88775e-19)
(1.59102 0.00873609 6.83632e-19)
(1.62595 0.00849658 7.51171e-19)
(1.55019 0.00338426 -9.98407e-21)
(1.45146 -0.00445557 -5.44238e-19)
(1.36721 -0.00620009 -1.29244e-18)
(1.27618 -0.00270017 -2.21519e-18)
(1.2085 -0.00282351 -2.95054e-18)
(1.25417 -0.00207526 -3.04258e-18)
(1.29397 -0.00334879 -2.78727e-18)
(1.3718 0.00453919 -2.2756e-18)
(1.43273 0.00421886 -1.65147e-18)
(1.44774 0.00881499 -1.52921e-18)
(1.42267 0.00546352 -1.29755e-18)
(1.3752 0.0053794 -1.35404e-18)
(1.32671 -0.000109598 -1.46153e-18)
(1.28497 0.00141475 -1.7084e-18)
(1.24747 -0.000790291 -1.85782e-18)
(1.27691 0.000853606 -1.98271e-18)