/*--------------------------------*- C++ -*----------------------------------*\
| =========                 |                                                 |
| \\      /  F ield         | OpenFOAM: The Open Source CFD Toolbox           |
|  \\    /   O peration     | Version:  2.2.x                                 |
|   \\  /    A nd           | Web:      www.OpenFOAM.org                      |
|    \\/     M anipulation  |                                                 |
\*---------------------------------------------------------------------------*/
FoamFile
{
    version     2.0;
    format      ascii;
    class       volScalarField;
    location    "1.8";
    object      Ma;
}
// * * * * * * * * * * * * * * * * * * * * * * * * * * * * * * * * * * * * * //

dimensions      [0 0 0 0 0 0 0];

internalField   nonuniform List<scalar> 
14161
(
6.06218
6.06218
6.06218
6.06218
6.06218
6.06218
6.06218
6.06218
6.06218
6.06218
6.06218
6.06218
6.06218
6.06218
6.06218
6.06218
6.06218
6.06218
6.06218
6.06218
6.06218
6.06218
6.06218
6.06218
6.06218
6.06218
6.06218
6.06218
6.06218
6.06218
6.06218
6.06218
6.06218
6.06218
6.06218
6.06218
6.06218
6.06218
6.06218
6.06203
6.05989
6.02253
5.3092
1.72554
0.710557
0.507961
0.466349
0.455353
0.449285
0.443842
0.438813
0.434004
0.429581
0.425376
0.421024
0.416332
0.411063
0.405876
0.401131
0.396951
0.392975
0.388653
0.383746
0.37829
0.373135
0.368532
0.364537
0.360527
0.356011
0.350605
0.345044
0.340035
0.335667
0.331629
0.327263
0.322014
0.316176
0.310761
0.306005
0.301687
0.297138
0.291752
0.285698
0.279986
0.274905
0.270185
0.265184
0.259257
0.252924
0.246959
0.241599
0.236325
0.230502
0.223837
0.21721
0.211039
0.205213
0.199071
0.19205
0.184802
0.177818
0.171179
0.164297
0.156608
0.1486
0.140709
0.133033
0.125032
0.116293
0.10727
0.0982398
0.0891784
0.0795504
0.0692702
0.0586197
0.0476211
0.0360931
0.0236661
0.0140976
6.06218
6.06218
6.06218
6.06218
6.06218
6.06218
6.06218
6.06218
6.06218
6.06218
6.06218
6.06218
6.06218
6.06218
6.06218
6.06218
6.06218
6.06218
6.06218
6.06218
6.06218
6.06218
6.06218
6.06218
6.06218
6.06218
6.06218
6.06218
6.06218
6.06218
6.06218
6.06218
6.06218
6.06218
6.06218
6.06218
6.06218
6.06218
6.06218
6.06203
6.05989
6.02249
5.30658
1.7259
0.709656
0.50604
0.464147
0.453168
0.447181
0.44183
0.436888
0.43214
0.427776
0.423594
0.419246
0.414529
0.40922
0.404043
0.399316
0.395168
0.391186
0.386836
0.381881
0.376398
0.371257
0.366675
0.362697
0.358669
0.354113
0.348649
0.343105
0.338114
0.333776
0.32973
0.325335
0.320021
0.314177
0.308789
0.304075
0.29978
0.29522
0.289779
0.283721
0.278034
0.272995
0.268309
0.26332
0.257376
0.251062
0.245123
0.239778
0.234528
0.228725
0.222093
0.215496
0.209328
0.2035
0.197378
0.190402
0.183195
0.176239
0.169619
0.162757
0.155105
0.147161
0.139349
0.13176
0.12383
0.115178
0.106291
0.097463
0.0885992
0.0791552
0.0691495
0.0589503
0.0487087
0.0387526
0.0291199
0.0260822
6.06218
6.06218
6.06218
6.06218
6.06218
6.06218
6.06218
6.06218
6.06218
6.06218
6.06218
6.06218
6.06218
6.06218
6.06218
6.06218
6.06218
6.06218
6.06218
6.06218
6.06218
6.06218
6.06218
6.06218
6.06218
6.06218
6.06218
6.06218
6.06218
6.06218
6.06218
6.06218
6.06218
6.06218
6.06218
6.06218
6.06218
6.06218
6.06218
6.06203
6.05997
6.02413
5.33368
1.73593
0.711051
0.506053
0.463875
0.452812
0.44677
0.441411
0.436485
0.431759
0.42742
0.423236
0.418864
0.414112
0.408778
0.403614
0.39892
0.394804
0.390807
0.386423
0.381416
0.375924
0.37081
0.366258
0.362293
0.35823
0.35362
0.348102
0.342585
0.337617
0.333314
0.329246
0.324805
0.31941
0.313565
0.308209
0.303533
0.299244
0.294653
0.28914
0.283063
0.277394
0.272385
0.267708
0.262695
0.256704
0.25038
0.244453
0.239113
0.23386
0.228039
0.221409
0.214819
0.20864
0.202775
0.196617
0.189633
0.182433
0.175471
0.168815
0.161913
0.154252
0.14634
0.138585
0.131043
0.123152
0.11459
0.105871
0.0973274
0.0888187
0.0798342
0.0705339
0.0614758
0.052944
0.0458105
0.0398808
0.0402937
6.06218
6.06218
6.06218
6.06218
6.06218
6.06218
6.06218
6.06218
6.06218
6.06218
6.06218
6.06218
6.06218
6.06218
6.06218
6.06218
6.06218
6.06218
6.06218
6.06218
6.06218
6.06218
6.06218
6.06218
6.06218
6.06218
6.06218
6.06218
6.06218
6.06218
6.06218
6.06218
6.06218
6.06218
6.06218
6.06218
6.06218
6.06218
6.06218
6.06205
6.06014
6.02769
5.39365
1.75665
0.714994
0.508341
0.465926
0.454742
0.448517
0.443033
0.43803
0.433264
0.428912
0.424689
0.420266
0.415451
0.410107
0.404988
0.400354
0.396282
0.392258
0.387828
0.382764
0.377297
0.372252
0.367774
0.36383
0.359723
0.355032
0.349469
0.344016
0.339119
0.334887
0.330807
0.326302
0.320817
0.315004
0.309728
0.305107
0.300807
0.296178
0.290578
0.284512
0.278885
0.273907
0.269203
0.26414
0.258089
0.251763
0.245857
0.240517
0.235217
0.229324
0.222657
0.216039
0.209825
0.203865
0.197587
0.190505
0.183237
0.176206
0.169459
0.16247
0.154757
0.146851
0.139135
0.131625
0.123777
0.115355
0.106873
0.0986772
0.09059
0.0822249
0.0738542
0.0662055
0.0595462
0.0550504
0.0520248
0.0538862
6.06218
6.06218
6.06218
6.06218
6.06218
6.06218
6.06218
6.06218
6.06218
6.06218
6.06218
6.06218
6.06218
6.06218
6.06218
6.06218
6.06218
6.06218
6.06218
6.06218
6.06218
6.06218
6.06218
6.06218
6.06218
6.06218
6.06218
6.06218
6.06218
6.06218
6.06218
6.06218
6.06218
6.06218
6.06218
6.06218
6.06218
6.06218
6.06218
6.06205
6.06031
6.03164
5.46361
1.78173
0.719392
0.510274
0.467421
0.456146
0.44984
0.444368
0.439418
0.434718
0.430443
0.426268
0.421859
0.416988
0.411648
0.406635
0.402118
0.398146
0.394145
0.389705
0.384554
0.379153
0.374251
0.369928
0.366079
0.361985
0.357219
0.351652
0.346305
0.34155
0.337466
0.333423
0.328884
0.323339
0.317625
0.312465
0.307988
0.303725
0.299077
0.293422
0.287422
0.281902
0.277017
0.272315
0.26721
0.261127
0.254858
0.249004
0.24369
0.238334
0.23234
0.225614
0.218944
0.212679
0.206616
0.200181
0.192946
0.185583
0.178478
0.171646
0.164562
0.156806
0.148929
0.141268
0.133807
0.126042
0.117802
0.109602
0.101784
0.0941814
0.0865443
0.0792022
0.0729816
0.0680031
0.0655744
0.0646684
0.0671347
6.06218
6.06218
6.06218
6.06218
6.06218
6.06218
6.06218
6.06218
6.06218
6.06218
6.06218
6.06218
6.06218
6.06218
6.06218
6.06218
6.06218
6.06218
6.06218
6.06218
6.06218
6.06218
6.06218
6.06218
6.06218
6.06218
6.06218
6.06218
6.06218
6.06218
6.06218
6.06218
6.06218
6.06218
6.06218
6.06218
6.06218
6.06218
6.06218
6.06208
6.06052
6.03497
5.52397
1.8074
0.722766
0.510163
0.466445
0.454784
0.448226
0.442682
0.437743
0.433096
0.428859
0.42464
0.420179
0.415201
0.409858
0.404944
0.40056
0.396652
0.392602
0.388073
0.38283
0.377521
0.372747
0.3686
0.364797
0.36066
0.355779
0.350209
0.344992
0.340423
0.336484
0.332463
0.327854
0.322231
0.31667
0.31169
0.307409
0.303237
0.298562
0.292848
0.287013
0.281715
0.277093
0.272547
0.267452
0.261382
0.255328
0.249763
0.244739
0.239595
0.233683
0.227137
0.220749
0.214819
0.209017
0.20272
0.195634
0.188467
0.181587
0.174903
0.167869
0.16014
0.152293
0.144657
0.137246
0.129585
0.12157
0.113692
0.106286
0.0992115
0.0923631
0.0860724
0.0812079
0.0777002
0.0768719
0.0776201
0.0802602
6.06218
6.06218
6.06218
6.06218
6.06218
6.06218
6.06218
6.06218
6.06218
6.06218
6.06218
6.06218
6.06218
6.06218
6.06218
6.06218
6.06218
6.06218
6.06218
6.06218
6.06218
6.06218
6.06218
6.06218
6.06218
6.06218
6.06218
6.06218
6.06218
6.06218
6.06218
6.06218
6.06218
6.06218
6.06218
6.06218
6.06218
6.06218
6.06218
6.06208
6.06074
6.04
5.6194
1.84966
0.72859
0.510972
0.466516
0.454741
0.448129
0.442666
0.437818
0.433263
0.42904
0.42476
0.420232
0.415146
0.40985
0.40504
0.400747
0.396823
0.392668
0.388013
0.382673
0.37746
0.372745
0.368678
0.3648
0.360522
0.355451
0.34986
0.34472
0.340217
0.336251
0.332124
0.327295
0.32158
0.316076
0.311183
0.306943
0.302683
0.297815
0.291981
0.286243
0.281073
0.276532
0.271957
0.266719
0.260647
0.25475
0.249434
0.244566
0.239495
0.233568
0.227204
0.221153
0.215666
0.21022
0.20417
0.197382
0.190588
0.184124
0.177807
0.171051
0.163628
0.156126
0.148848
0.14171
0.134253
0.126485
0.118949
0.111988
0.105469
0.0993975
0.0940799
0.0904077
0.088169
0.0886266
0.0908039
0.0934076
6.06218
6.06218
6.06218
6.06218
6.06218
6.06218
6.06218
6.06218
6.06218
6.06218
6.06218
6.06218
6.06218
6.06218
6.06218
6.06218
6.06218
6.06218
6.06218
6.06218
6.06218
6.06218
6.06218
6.06218
6.06218
6.06218
6.06218
6.06218
6.06218
6.06218
6.06218
6.06218
6.06218
6.06218
6.06218
6.06218
6.06218
6.06218
6.06218
6.0621
6.06111
6.04704
5.7644
1.91537
0.738528
0.514544
0.469021
0.456938
0.450183
0.444766
0.43999
0.435548
0.43136
0.427057
0.422433
0.417234
0.412041
0.407307
0.403142
0.399209
0.394944
0.390125
0.384727
0.379581
0.374951
0.37094
0.366956
0.362505
0.357197
0.351639
0.346617
0.342187
0.338158
0.333852
0.328766
0.322993
0.317564
0.312766
0.308485
0.304064
0.298929
0.292997
0.287297
0.282199
0.277616
0.272882
0.267382
0.261232
0.25537
0.250129
0.245218
0.240004
0.233889
0.227573
0.221675
0.216342
0.210975
0.204918
0.198303
0.191849
0.185865
0.179957
0.17351
0.166477
0.159465
0.152771
0.1462
0.139276
0.13211
0.125165
0.118757
0.112801
0.107433
0.102954
0.100298
0.0991676
0.100748
0.104136
0.106614
6.06218
6.06218
6.06218
6.06218
6.06218
6.06218
6.06218
6.06218
6.06218
6.06218
6.06218
6.06218
6.06218
6.06218
6.06218
6.06218
6.06218
6.06218
6.06218
6.06218
6.06218
6.06218
6.06218
6.06218
6.06218
6.06218
6.06218
6.06218
6.06218
6.06218
6.06218
6.06218
6.06218
6.06218
6.06218
6.06218
6.06218
6.06218
6.06218
6.06213
6.06144
6.05421
5.92228
1.9979
0.750061
0.518038
0.471268
0.45883
0.451935
0.44666
0.44205
0.437816
0.433721
0.429431
0.424685
0.419384
0.414395
0.409926
0.40602
0.402137
0.397846
0.392867
0.387496
0.382581
0.378242
0.374422
0.370448
0.365905
0.36044
0.355042
0.350195
0.346002
0.341994
0.3376
0.332304
0.326526
0.321223
0.316605
0.312348
0.307802
0.302432
0.296418
0.290764
0.285761
0.281114
0.276203
0.270404
0.26411
0.258184
0.252886
0.247771
0.242236
0.235817
0.229425
0.223521
0.21813
0.212623
0.206366
0.199812
0.193577
0.18787
0.182155
0.175855
0.169173
0.162681
0.156624
0.15063
0.14426
0.137823
0.13171
0.126207
0.121013
0.116343
0.112564
0.110773
0.110654
0.113247
0.11753
0.119866
6.06218
6.06218
6.06218
6.06218
6.06218
6.06218
6.06218
6.06218
6.06218
6.06218
6.06218
6.06218
6.06218
6.06218
6.06218
6.06218
6.06218
6.06218
6.06218
6.06218
6.06218
6.06218
6.06218
6.06218
6.06218
6.06218
6.06218
6.06218
6.06218
6.06218
6.06218
6.06218
6.06218
6.06218
6.06218
6.06218
6.06218
6.06218
6.06218
6.06213
6.06187
6.06093
6.08142
2.10044
0.763022
0.521014
0.472455
0.459476
0.45245
0.447276
0.442765
0.438592
0.434438
0.430047
0.425196
0.420001
0.415197
0.4109
0.407031
0.403024
0.398584
0.393521
0.388326
0.383599
0.379429
0.375585
0.371443
0.366702
0.361304
0.356132
0.351491
0.347442
0.343376
0.338818
0.333403
0.327839
0.322771
0.318301
0.314051
0.309456
0.303953
0.298076
0.292634
0.287784
0.283186
0.278268
0.2724
0.26625
0.260537
0.255406
0.250346
0.244736
0.238308
0.231985
0.226188
0.220776
0.215139
0.208727
0.202242
0.196198
0.190634
0.184966
0.178672
0.172277
0.166277
0.160758
0.155224
0.149352
0.143652
0.138435
0.133899
0.129598
0.125827
0.12283
0.121732
0.122592
0.126051
0.130976
0.133186
6.06218
6.06218
6.06218
6.06218
6.06218
6.06218
6.06218
6.06218
6.06218
6.06218
6.06218
6.06218
6.06218
6.06218
6.06218
6.06218
6.06218
6.06218
6.06218
6.06218
6.06218
6.06218
6.06218
6.06218
6.06218
6.06218
6.06218
6.06218
6.06218
6.06218
6.06218
6.06218
6.06218
6.06218
6.06218
6.06218
6.06218
6.06218
6.06218
6.06218
6.06206
6.06821
6.25893
2.24716
0.781038
0.526085
0.475141
0.461516
0.454424
0.44944
0.445152
0.441089
0.436956
0.432534
0.427507
0.422477
0.417909
0.413853
0.410013
0.405902
0.401263
0.396062
0.391099
0.386619
0.382695
0.37882
0.374542
0.369463
0.364074
0.359161
0.354763
0.350802
0.346648
0.341839
0.336227
0.330793
0.325894
0.321538
0.317205
0.312391
0.306657
0.300848
0.295504
0.290712
0.286004
0.280823
0.274772
0.268719
0.263094
0.257962
0.252809
0.247032
0.240648
0.234467
0.228797
0.223367
0.217611
0.211177
0.204835
0.198993
0.193527
0.187861
0.181661
0.175619
0.170124
0.165041
0.159864
0.154507
0.149584
0.145322
0.141688
0.138246
0.135486
0.133523
0.133146
0.13491
0.139108
0.14451
0.146553
6.06218
6.06218
6.06218
6.06218
6.06218
6.06218
6.06218
6.06218
6.06218
6.06218
6.06218
6.06218
6.06218
6.06218
6.06218
6.06218
6.06218
6.06218
6.06218
6.06218
6.06218
6.06218
6.06218
6.06218
6.06218
6.06218
6.06218
6.06218
6.06218
6.06218
6.06218
6.06218
6.06218
6.06218
6.06218
6.06218
6.06218
6.06218
6.06218
6.06219
6.05868
6.04336
6.40694
2.4403
0.802141
0.531313
0.477162
0.462648
0.455626
0.450837
0.446645
0.442536
0.438248
0.43354
0.428526
0.423845
0.419564
0.415686
0.41173
0.407399
0.402523
0.397505
0.392903
0.388775
0.384997
0.380981
0.376412
0.371225
0.366206
0.361637
0.357584
0.353615
0.349283
0.344164
0.338694
0.333636
0.329081
0.324903
0.320522
0.315452
0.309682
0.304136
0.299126
0.294543
0.289809
0.284434
0.278344
0.272412
0.266945
0.261815
0.256476
0.250418
0.243985
0.237856
0.2322
0.226656
0.220714
0.214293
0.208088
0.202403
0.196962
0.191251
0.185236
0.179545
0.174481
0.1697
0.164788
0.159983
0.155842
0.152443
0.149566
0.146955
0.145214
0.144364
0.144843
0.147508
0.152407
0.158135
0.159981
6.06218
6.06218
6.06218
6.06218
6.06218
6.06218
6.06218
6.06218
6.06218
6.06218
6.06218
6.06218
6.06218
6.06218
6.06218
6.06218
6.06218
6.06218
6.06218
6.06218
6.06218
6.06218
6.06218
6.06218
6.06218
6.06218
6.06218
6.06218
6.06218
6.06218
6.06218
6.06218
6.06218
6.06218
6.06218
6.06218
6.06218
6.06218
6.06207
6.06088
6.0486
6.00248
6.62842
2.71391
0.827732
0.536934
0.478713
0.463201
0.456437
0.452022
0.448049
0.444024
0.439725
0.434975
0.430323
0.426027
0.422152
0.418349
0.414235
0.409658
0.404717
0.400041
0.395756
0.391957
0.388096
0.383762
0.378781
0.373713
0.369051
0.364844
0.360985
0.356826
0.351995
0.346609
0.341463
0.336779
0.332578
0.328346
0.323627
0.318107
0.312522
0.307376
0.302749
0.298255
0.293413
0.28774
0.281779
0.276224
0.271199
0.266238
0.260855
0.254696
0.248433
0.242514
0.23695
0.231293
0.225073
0.218601
0.212476
0.206866
0.201394
0.195612
0.189768
0.184384
0.179608
0.175009
0.170362
0.166086
0.162622
0.159865
0.157608
0.155817
0.155059
0.155275
0.156637
0.160214
0.165886
0.171827
0.173471
6.06218
6.06218
6.06218
6.06218
6.06218
6.06218
6.06218
6.06218
6.06218
6.06218
6.06218
6.06218
6.06218
6.06218
6.06218
6.06218
6.06218
6.06218
6.06218
6.06218
6.06218
6.06218
6.06218
6.06218
6.06218
6.06218
6.06218
6.06218
6.06218
6.06218
6.06218
6.06218
6.06218
6.06218
6.06218
6.06218
6.06218
6.06218
6.06215
6.06173
6.05403
6.05102
6.93032
3.15171
0.862949
0.546265
0.483091
0.467022
0.460912
0.456939
0.453145
0.449055
0.444464
0.439817
0.435503
0.431626
0.427925
0.423938
0.419438
0.414454
0.409644
0.405217
0.40136
0.397599
0.393402
0.388465
0.383163
0.378237
0.373828
0.36998
0.365987
0.361374
0.355913
0.350482
0.345566
0.341248
0.337202
0.332754
0.32737
0.321574
0.316191
0.311408
0.30705
0.302466
0.297124
0.291141
0.28543
0.28032
0.275613
0.270709
0.265078
0.258899
0.252959
0.247554
0.242343
0.236762
0.230455
0.22404
0.217989
0.212366
0.206787
0.200889
0.195147
0.189976
0.185365
0.180904
0.176561
0.17277
0.169873
0.167601
0.165908
0.164935
0.165082
0.166275
0.168471
0.172991
0.179453
0.185545
0.186994
6.06218
6.06218
6.06218
6.06218
6.06218
6.06218
6.06218
6.06218
6.06218
6.06218
6.06218
6.06218
6.06218
6.06218
6.06218
6.06218
6.06218
6.06218
6.06218
6.06218
6.06218
6.06218
6.06218
6.06218
6.06218
6.06218
6.06218
6.06218
6.06218
6.06218
6.06218
6.06218
6.06218
6.06218
6.06218
6.06218
6.06218
6.06218
6.06219
6.06281
6.07234
6.16227
7.12109
3.77833
0.909629
0.561815
0.490514
0.474062
0.46863
0.464818
0.460999
0.456566
0.451723
0.447203
0.443102
0.4394
0.435586
0.431319
0.426369
0.421143
0.416429
0.412415
0.408895
0.405022
0.400519
0.39498
0.38953
0.3847
0.380626
0.376879
0.372654
0.367458
0.361462
0.355879
0.351111
0.347018
0.342926
0.338156
0.332133
0.32616
0.320911
0.31641
0.312095
0.30728
0.301327
0.295219
0.289728
0.284922
0.280301
0.275228
0.269197
0.263123
0.257593
0.252636
0.247647
0.242059
0.235861
0.229784
0.224175
0.218782
0.213127
0.207086
0.201381
0.196322
0.191801
0.187444
0.183393
0.180019
0.177573
0.17573
0.174603
0.174399
0.175284
0.177386
0.18041
0.185878
0.193061
0.199262
0.20053
6.06218
6.06218
6.06218
6.06218
6.06218
6.06218
6.06218
6.06218
6.06218
6.06218
6.06218
6.06218
6.06218
6.06218
6.06218
6.06218
6.06218
6.06218
6.06218
6.06218
6.06218
6.06218
6.06218
6.06218
6.06218
6.06218
6.06218
6.06218
6.06218
6.06218
6.06218
6.06218
6.06218
6.06218
6.06218
6.06218
6.06218
6.06218
6.06199
6.05922
6.04735
6.09819
6.81213
5.1964
0.977518
0.581717
0.498025
0.480179
0.475106
0.471165
0.466895
0.462034
0.457369
0.453162
0.449443
0.445819
0.441803
0.437261
0.432072
0.427232
0.422966
0.419282
0.415843
0.411912
0.407319
0.401894
0.39672
0.392244
0.388371
0.384706
0.380594
0.375246
0.369093
0.363549
0.358869
0.354622
0.35017
0.34492
0.338442
0.332263
0.326945
0.322382
0.31782
0.312595
0.306246
0.300098
0.294748
0.290026
0.285303
0.279826
0.273573
0.267667
0.262497
0.25776
0.252825
0.247054
0.241011
0.23541
0.230357
0.225346
0.219847
0.213947
0.208379
0.203419
0.198968
0.194675
0.190858
0.187815
0.185734
0.184308
0.183734
0.184198
0.18575
0.188589
0.192554
0.198904
0.206666
0.212976
0.214087
6.06218
6.06218
6.06218
6.06218
6.06218
6.06218
6.06218
6.06218
6.06218
6.06218
6.06218
6.06218
6.06218
6.06218
6.06218
6.06218
6.06218
6.06218
6.06218
6.06218
6.06218
6.06218
6.06218
6.06218
6.06218
6.06218
6.06218
6.06218
6.06218
6.06218
6.06218
6.06218
6.06218
6.06218
6.06218
6.06218
6.06218
6.06218
6.06215
6.06192
6.06243
6.10281
6.58102
5.13837
1.06733
0.604386
0.50446
0.482568
0.475965
0.471838
0.467894
0.463603
0.458838
0.454282
0.450128
0.446413
0.442976
0.439392
0.435398
0.430896
0.426488
0.422481
0.418883
0.415549
0.411969
0.407702
0.403063
0.398792
0.394831
0.391115
0.387163
0.382563
0.37718
0.372021
0.367404
0.363142
0.358536
0.353124
0.34671
0.340584
0.33516
0.330095
0.324945
0.319146
0.3125
0.306257
0.30085
0.295932
0.290903
0.28496
0.278658
0.272934
0.267918
0.263165
0.258006
0.252092
0.246355
0.241248
0.236594
0.231815
0.226434
0.220947
0.215861
0.211257
0.206925
0.202623
0.198972
0.196179
0.194407
0.193361
0.193299
0.19432
0.196471
0.199972
0.204899
0.212064
0.220247
0.226697
0.227691
6.06218
6.06218
6.06218
6.06218
6.06218
6.06218
6.06218
6.06218
6.06218
6.06218
6.06218
6.06218
6.06218
6.06218
6.06218
6.06218
6.06218
6.06218
6.06218
6.06218
6.06218
6.06218
6.06218
6.06218
6.06218
6.06218
6.06218
6.06218
6.06218
6.06218
6.06218
6.06218
6.06218
6.06218
6.06218
6.06218
6.06218
6.06218
6.06218
6.06218
6.06225
6.06423
6.12821
4.58293
1.16554
0.628902
0.507364
0.480694
0.4724
0.468003
0.464072
0.459953
0.455345
0.450893
0.446895
0.443426
0.440314
0.43702
0.43331
0.429016
0.42479
0.421095
0.417945
0.415162
0.412139
0.408462
0.404226
0.40025
0.39668
0.393582
0.390522
0.386972
0.382652
0.378116
0.373734
0.369533
0.365308
0.360675
0.355221
0.349663
0.34434
0.33911
0.333543
0.327267
0.320445
0.314052
0.308277
0.302838
0.297269
0.290961
0.284697
0.279007
0.273947
0.268991
0.26348
0.257586
0.252176
0.247434
0.242981
0.23821
0.232961
0.227958
0.223536
0.219475
0.215404
0.21121
0.207704
0.205113
0.203586
0.202854
0.203224
0.20474
0.207455
0.21157
0.217439
0.225317
0.233816
0.24042
0.241363
6.06218
6.06218
6.06218
6.06218
6.06218
6.06218
6.06218
6.06218
6.06218
6.06218
6.06218
6.06218
6.06218
6.06218
6.06218
6.06218
6.06218
6.06218
6.06218
6.06218
6.06218
6.06218
6.06218
6.06218
6.06218
6.06218
6.06218
6.06218
6.06218
6.06218
6.06218
6.06218
6.06218
6.06218
6.06218
6.06218
6.06218
6.06218
6.06218
6.06218
6.06191
6.05775
5.97647
4.59235
1.33584
0.663204
0.514562
0.482703
0.472949
0.468003
0.463755
0.459477
0.454789
0.450253
0.446194
0.442699
0.439477
0.436068
0.432258
0.427902
0.423737
0.420092
0.417085
0.414267
0.411134
0.407376
0.403208
0.399453
0.396219
0.393538
0.390863
0.387759
0.38389
0.379865
0.376237
0.372987
0.369901
0.366336
0.361932
0.35698
0.351965
0.346946
0.341861
0.336292
0.330078
0.323721
0.317441
0.311202
0.304912
0.298245
0.29189
0.286018
0.280658
0.275312
0.269492
0.263754
0.258587
0.253995
0.249507
0.244619
0.239663
0.235243
0.2314
0.22775
0.223941
0.220158
0.217006
0.214656
0.213254
0.21279
0.213491
0.215441
0.218751
0.223357
0.230145
0.238653
0.247398
0.254143
0.255093
6.06218
6.06218
6.06218
6.06218
6.06218
6.06218
6.06218
6.06218
6.06218
6.06218
6.06218
6.06218
6.06218
6.06218
6.06218
6.06218
6.06218
6.06218
6.06218
6.06218
6.06218
6.06218
6.06218
6.06218
6.06218
6.06218
6.06218
6.06218
6.06218
6.06218
6.06218
6.06218
6.06218
6.06218
6.06218
6.06218
6.06218
6.06218
6.06218
6.06218
6.06203
6.06011
6.02717
5.17978
1.58774
0.710598
0.529458
0.491828
0.480437
0.474575
0.46966
0.464818
0.459842
0.455222
0.45101
0.447313
0.443749
0.439951
0.435761
0.431193
0.426955
0.423195
0.419962
0.416755
0.413228
0.409109
0.404817
0.401029
0.397825
0.395079
0.392177
0.388742
0.384657
0.380808
0.377487
0.374733
0.372113
0.369065
0.36515
0.360747
0.356538
0.35261
0.34876
0.344376
0.339097
0.333198
0.327076
0.32071
0.314162
0.307382
0.300684
0.294313
0.288312
0.282365
0.276337
0.270711
0.265616
0.260918
0.256211
0.251285
0.246732
0.242804
0.23935
0.2359
0.232348
0.229135
0.226607
0.224672
0.223371
0.223074
0.224116
0.226402
0.230338
0.235329
0.242998
0.252084
0.261003
0.267869
0.26886
6.06218
6.06218
6.06218
6.06218
6.06218
6.06218
6.06218
6.06218
6.06218
6.06218
6.06218
6.06218
6.06218
6.06218
6.06218
6.06218
6.06218
6.06218
6.06218
6.06218
6.06218
6.06218
6.06218
6.06218
6.06218
6.06218
6.06218
6.06218
6.06218
6.06218
6.06218
6.06218
6.06218
6.06218
6.06218
6.06218
6.06218
6.06218
6.06218
6.06218
6.06205
6.06117
6.06271
5.97331
1.96265
0.768414
0.545802
0.501555
0.489867
0.484301
0.479592
0.474738
0.469892
0.465389
0.461201
0.45732
0.453376
0.449157
0.444527
0.439785
0.435431
0.431459
0.427808
0.424044
0.419956
0.415356
0.410806
0.406731
0.403182
0.399891
0.396427
0.392444
0.38807
0.384114
0.380714
0.377789
0.374799
0.371369
0.367223
0.363213
0.35972
0.356761
0.353779
0.350146
0.345502
0.34016
0.334696
0.329343
0.323855
0.317825
0.311123
0.304149
0.297288
0.290704
0.284435
0.278675
0.273393
0.268338
0.263319
0.258514
0.254314
0.250704
0.247367
0.243994
0.240858
0.238295
0.236398
0.23485
0.233791
0.233652
0.235121
0.237659
0.242151
0.247534
0.255976
0.265618
0.274633
0.281602
0.282673
6.06218
6.06218
6.06218
6.06218
6.06218
6.06218
6.06218
6.06218
6.06218
6.06218
6.06218
6.06218
6.06218
6.06218
6.06218
6.06218
6.06218
6.06218
6.06218
6.06218
6.06218
6.06218
6.06218
6.06218
6.06218
6.06218
6.06218
6.06218
6.06218
6.06218
6.06218
6.06218
6.06218
6.06218
6.06218
6.06218
6.06218
6.06218
6.06218
6.0621
6.06111
6.04977
6.01444
6.58129
2.64847
0.845814
0.565493
0.512957
0.501051
0.496033
0.491818
0.487549
0.483277
0.479064
0.474961
0.470833
0.466552
0.462104
0.457407
0.452821
0.448461
0.444272
0.440048
0.435554
0.430805
0.425814
0.421045
0.416569
0.412339
0.408135
0.403812
0.399181
0.394518
0.390293
0.386585
0.383168
0.379599
0.375517
0.371151
0.367232
0.363839
0.360888
0.357785
0.354035
0.349504
0.345028
0.340894
0.336915
0.332567
0.327304
0.321082
0.314245
0.307228
0.300408
0.293983
0.287909
0.282083
0.276479
0.271224
0.266544
0.262533
0.258937
0.255509
0.252313
0.249685
0.247686
0.246271
0.245002
0.244334
0.244518
0.246409
0.249213
0.254099
0.260009
0.269065
0.27925
0.288288
0.295353
0.29654
6.06218
6.06218
6.06218
6.06218
6.06218
6.06218
6.06218
6.06218
6.06218
6.06218
6.06218
6.06218
6.06218
6.06218
6.06218
6.06218
6.06218
6.06218
6.06218
6.06218
6.06218
6.06218
6.06218
6.06218
6.06218
6.06218
6.06218
6.06218
6.06218
6.06218
6.06218
6.06218
6.06218
6.06218
6.06218
6.06218
6.06218
6.06218
6.06218
6.06219
6.06251
6.06672
6.11168
6.83928
4.67473
0.953876
0.58896
0.52314
0.509213
0.503915
0.500003
0.496342
0.492654
0.488906
0.485013
0.480885
0.476605
0.472392
0.468328
0.46446
0.460636
0.456621
0.452292
0.447676
0.442976
0.438337
0.433789
0.429335
0.424759
0.419922
0.414686
0.409272
0.404151
0.399381
0.394951
0.390657
0.386289
0.381587
0.377105
0.373097
0.369589
0.36621
0.362539
0.358235
0.353875
0.350016
0.346696
0.343441
0.339572
0.334685
0.32889
0.322869
0.316961
0.310994
0.304858
0.298338
0.291701
0.28557
0.280149
0.275518
0.271445
0.267611
0.264092
0.261155
0.258967
0.257374
0.256173
0.255229
0.255095
0.255744
0.257919
0.261066
0.266161
0.272762
0.282251
0.292942
0.30196
0.309112
0.310447
6.06218
6.06218
6.06218
6.06218
6.06218
6.06218
6.06218
6.06218
6.06218
6.06218
6.06218
6.06218
6.06218
6.06218
6.06218
6.06218
6.06218
6.06218
6.06218
6.06218
6.06218
6.06218
6.06218
6.06218
6.06218
6.06218
6.06218
6.06218
6.06218
6.06218
6.06218
6.06218
6.06218
6.06218
6.06218
6.06218
6.06218
6.06218
6.06218
6.06218
6.06212
6.06113
6.05973
6.28345
5.48087
1.12568
0.62945
0.534725
0.513741
0.505718
0.500956
0.497146
0.493489
0.48982
0.485975
0.482151
0.478545
0.475165
0.47194
0.468642
0.465132
0.461275
0.457371
0.453651
0.45008
0.446612
0.442957
0.4389
0.434414
0.429659
0.424878
0.420121
0.415402
0.410629
0.40561
0.400343
0.394935
0.389728
0.384934
0.380616
0.376652
0.372648
0.36831
0.363747
0.359591
0.355993
0.352828
0.349466
0.345387
0.340515
0.335625
0.331023
0.326445
0.321443
0.315608
0.308865
0.301903
0.29553
0.290085
0.2853
0.2809
0.276748
0.273232
0.270561
0.268686
0.267201
0.26619
0.265669
0.266137
0.267277
0.269556
0.273192
0.278353
0.285821
0.295557
0.30664
0.315665
0.322905
0.324422
6.06218
6.06218
6.06218
6.06218
6.06218
6.06218
6.06218
6.06218
6.06218
6.06218
6.06218
6.06218
6.06218
6.06218
6.06218
6.06218
6.06218
6.06218
6.06218
6.06218
6.06218
6.06218
6.06218
6.06218
6.06218
6.06218
6.06218
6.06218
6.06218
6.06218
6.06218
6.06218
6.06218
6.06218
6.06218
6.06218
6.06218
6.06218
6.06218
6.06218
6.06218
6.06205
6.06038
6.03275
5.21853
1.38798
0.684323
0.545015
0.516091
0.506919
0.502559
0.499141
0.495892
0.492523
0.488961
0.485548
0.482357
0.479384
0.476423
0.473257
0.469787
0.466048
0.462466
0.459106
0.455966
0.452789
0.449287
0.445319
0.441049
0.436906
0.432901
0.429027
0.425043
0.420642
0.415748
0.410413
0.404941
0.399643
0.394589
0.389784
0.385049
0.38017
0.375201
0.370578
0.366471
0.362879
0.359326
0.355411
0.350922
0.346544
0.342652
0.339073
0.335319
0.330776
0.325109
0.318614
0.312214
0.306358
0.301003
0.295938
0.290929
0.286506
0.283052
0.280558
0.278791
0.277241
0.276492
0.276471
0.277367
0.279015
0.281308
0.285594
0.290781
0.299102
0.308982
0.320368
0.329416
0.336737
0.338464
6.06218
6.06218
6.06218
6.06218
6.06218
6.06218
6.06218
6.06218
6.06218
6.06218
6.06218
6.06218
6.06218
6.06218
6.06218
6.06218
6.06218
6.06218
6.06218
6.06218
6.06218
6.06218
6.06218
6.06218
6.06218
6.06218
6.06218
6.06218
6.06218
6.06218
6.06218
6.06218
6.06218
6.06218
6.06218
6.06218
6.06218
6.06218
6.06218
6.06218
6.06218
6.0622
6.06283
6.09189
6.12714
1.87926
0.769208
0.567676
0.52871
0.517928
0.513135
0.509375
0.505801
0.502046
0.498228
0.494655
0.491276
0.488056
0.484787
0.48134
0.477628
0.473817
0.470224
0.466855
0.463671
0.460378
0.456784
0.452763
0.44875
0.444909
0.441218
0.437598
0.433724
0.429384
0.424529
0.419635
0.414834
0.41006
0.40525
0.400225
0.394798
0.38911
0.383717
0.378887
0.374634
0.370613
0.366416
0.361821
0.357301
0.353358
0.349982
0.346805
0.343143
0.338559
0.333223
0.327888
0.322808
0.317745
0.312531
0.306935
0.301428
0.296874
0.293549
0.291073
0.289178
0.287574
0.287137
0.287593
0.288699
0.290915
0.29321
0.298222
0.303473
0.312506
0.322545
0.334157
0.34325
0.350667
0.352604
6.06218
6.06218
6.06218
6.06218
6.06218
6.06218
6.06218
6.06218
6.06218
6.06218
6.06218
6.06218
6.06218
6.06218
6.06218
6.06218
6.06218
6.06218
6.06218
6.06218
6.06218
6.06218
6.06218
6.06218
6.06218
6.06218
6.06218
6.06218
6.06218
6.06218
6.06218
6.06218
6.06218
6.06218
6.06218
6.06218
6.06218
6.06218
6.06218
6.06218
6.06218
6.06207
6.05867
6.1435
7.13301
3.14201
0.887431
0.598774
0.546661
0.533997
0.52881
0.524738
0.520672
0.516531
0.512463
0.508556
0.504751
0.500971
0.497115
0.49314
0.489033
0.485062
0.481263
0.477601
0.473943
0.470128
0.466126
0.461983
0.458
0.454157
0.450399
0.446564
0.442477
0.437979
0.433346
0.428808
0.424301
0.419807
0.415139
0.410057
0.404382
0.398603
0.393246
0.388346
0.383787
0.379218
0.374299
0.369326
0.364913
0.361198
0.357899
0.354427
0.35033
0.345793
0.341453
0.337461
0.333407
0.328921
0.323669
0.317734
0.312273
0.307972
0.304741
0.302085
0.299921
0.298331
0.298164
0.299029
0.300161
0.303016
0.305371
0.311012
0.316415
0.325993
0.336273
0.348006
0.357138
0.364649
0.366769
6.06218
6.06218
6.06218
6.06218
6.06218
6.06218
6.06218
6.06218
6.06218
6.06218
6.06218
6.06218
6.06218
6.06218
6.06218
6.06218
6.06218
6.06218
6.06218
6.06218
6.06218
6.06218
6.06218
6.06218
6.06218
6.06218
6.06218
6.06218
6.06218
6.06218
6.06218
6.06218
6.06218
6.06218
6.06218
6.06218
6.06218
6.06218
6.06218
6.06218
6.06218
6.06223
6.0632
6.08801
6.51872
8.57153
1.07605
0.636491
0.559028
0.54378
0.538689
0.534826
0.531255
0.527632
0.524012
0.520425
0.516806
0.513053
0.509197
0.505329
0.501469
0.497684
0.493987
0.490252
0.486349
0.482245
0.477998
0.4738
0.469754
0.465849
0.461898
0.457744
0.453235
0.448518
0.443901
0.439396
0.434907
0.430302
0.425391
0.419999
0.414319
0.408726
0.403373
0.39822
0.393199
0.388051
0.382649
0.377668
0.373365
0.36964
0.365979
0.361931
0.357565
0.35355
0.350164
0.346955
0.343436
0.339055
0.333708
0.32826
0.323555
0.319688
0.316503
0.313357
0.310979
0.309576
0.309524
0.310746
0.311844
0.31532
0.317792
0.32393
0.329572
0.339596
0.350148
0.361927
0.371122
0.378776
0.381109
6.06218
6.06218
6.06218
6.06218
6.06218
6.06218
6.06218
6.06218
6.06218
6.06218
6.06218
6.06218
6.06218
6.06218
6.06218
6.06218
6.06218
6.06218
6.06218
6.06218
6.06218
6.06218
6.06218
6.06218
6.06218
6.06218
6.06218
6.06218
6.06218
6.06218
6.06218
6.06218
6.06218
6.06218
6.06218
6.06218
6.06218
6.06218
6.06218
6.06218
6.06218
6.06218
6.06216
6.06158
6.04901
5.40048
1.37756
0.693708
0.569507
0.545196
0.538142
0.534728
0.532276
0.52987
0.527333
0.524607
0.521662
0.518541
0.515342
0.512132
0.508926
0.5057
0.50237
0.498857
0.495183
0.491371
0.487575
0.483823
0.480095
0.476283
0.472238
0.467955