/*--------------------------------*- C++ -*----------------------------------*\
| =========                 |                                                 |
| \\      /  F ield         | OpenFOAM: The Open Source CFD Toolbox           |
|  \\    /   O peration     | Version:  2.2.x                                 |
|   \\  /    A nd           | Web:      www.OpenFOAM.org                      |
|    \\/     M anipulation  |                                                 |
\*---------------------------------------------------------------------------*/
FoamFile
{
    version     2.0;
    format      ascii;
    class       surfaceScalarField;
    location    "1.75";
    object      phi;
}
// * * * * * * * * * * * * * * * * * * * * * * * * * * * * * * * * * * * * * //

dimensions      [1 0 -1 0 0 0 0];

internalField   nonuniform List<scalar> 
28084
(
0.000746488
0.000742052
0.000740196
0.000738617
0.000737105
0.000735003
0.000732732
0.000731729
0.000731219
0.000731102
0.00073205
0.000732612
0.000732939
0.000734032
0.000735524
0.000736873
0.00073717
0.000738563
0.000740467
0.000741584
0.000742527
0.000743098
0.0007443
0.000746214
0.000748842
0.000750284
0.000751232
0.000751736
0.000752284
0.000753124
0.000753882
0.00075435
0.000754492
0.000754783
0.000755166
0.000756014
0.000757138
0.000758754
0.000762289
0.000768543
0.000808536
0.00108458
0.00111023
0.00109104
0.00108496
0.00109386
0.00110335
0.00111251
0.00112263
0.00113333
0.00114644
0.00115906
0.00117216
0.00118518
0.00119801
0.00121048
0.00122298
0.00123545
0.00124692
0.00125717
0.00126663
0.00127579
0.00128425
0.00129174
0.00129935
0.00130625
0.00131363
0.00132219
0.00133035
0.00133722
0.00134252
0.00134825
0.00135597
0.0013612
0.00136464
0.00136564
0.00137068
0.00137376
0.00137223
0.00136729
0.00136267
0.00136238
0.00135882
0.00135116
0.00134317
0.00133563
0.00132608
0.00131236
0.00129814
0.00128435
0.00126655
0.00124483
0.00122117
0.00118935
0.00114454
0.00108567
0.0010126
0.000945911
0.00089301
0.000852269
0.000819977
0.000792159
0.000767283
0.000743628
0.000721169
0.000701153
0.000681357
0.000661105
0.000637417
0.000610259
0.000577075
0.000539022
0.000494485
0.000444611
0.00038107
0.000311954
0.00022423
0.000125398
3.30587e-06
4.36121e-06
0.000740389
1.85725e-06
0.000742462
1.90261e-06
0.000742465
2.10465e-06
0.000741687
2.1386e-06
0.000739883
1.75953e-06
0.00073904
9.94741e-07
0.000740794
9.36094e-07
0.000744008
1.59581e-07
0.000749168
-9.01091e-07
0.000754581
-8.05564e-07
0.000758764
-9.3742e-07
0.000761333
-1.38048e-06
0.000763018
-1.49942e-06
0.000763295
-8.34983e-07
0.00076163
3.06499e-07
0.00075947
-7.34803e-07
0.000758786
-1.26202e-06
0.000761367
-9.98212e-07
0.00076536
-1.38583e-06
0.000769785
-1.14789e-06
0.000774892
-1.45853e-06
0.000780604
-1.75249e-06
0.000786377
-2.06449e-06
0.000791662
-1.51209e-06
0.000796714
-1.2705e-06
0.000800815
-1.18067e-06
0.000803001
-1.02559e-06
0.000804493
-8.85214e-07
0.000805196
-7.73198e-07
0.000806451
-6.42213e-07
0.000807685
-5.01955e-07
0.000808787
-5.13618e-07
0.000809744
-4.54659e-07
0.00081055
-5.53953e-07
0.000811312
-8.763e-07
0.000811986
-1.34174e-06
0.000812187
-3.45737e-06
0.000811908
-6.36572e-06
0.000810806
-4.02935e-05
0.000806824
-0.00027712
0.000798304
-2.64832e-05
0.000704959
1.89213e-05
0.000694068
5.73223e-06
0.000696339
-9.51924e-06
0.000703806
-9.88159e-06
0.000725495
-9.35362e-06
0.000753588
-1.07666e-05
0.000783737
-1.14575e-05
0.00081675
-1.35641e-05
0.000849551
-1.29897e-05
0.000870637
-1.34949e-05
0.000892197
-1.3273e-05
0.000913555
-1.33143e-05
0.000933755
-1.30509e-05
0.00095332
-1.28048e-05
0.000972397
-1.26803e-05
0.000991093
-1.16235e-05
0.00100947
-1.05412e-05
0.00102681
-9.35381e-06
0.00104298
-7.99711e-06
0.00105883
-6.72642e-06
0.00107482
-5.96909e-06
0.00108982
-5.83143e-06
0.00110406
-5.34179e-06
0.0011178
-5.51564e-06
0.00113156
-6.47535e-06
0.00114198
-7.50877e-06
0.00114909
-7.20074e-06
0.00115462
-4.56217e-06
0.00116083
-4.11807e-06
0.00116915
-7.03568e-06
0.00117086
-8.96939e-06
0.00116071
-2.78716e-06
0.00115689
1.92409e-06
0.00116006
-1.31076e-06
0.00116162
-7.78001e-06
0.00113824
3.67325e-07
0.00111234
9.5684e-06
0.00110708
9.93343e-06
0.00110138
-3.7355e-06
0.00106787
1.36959e-06
0.00102572
1.20753e-05
0.00100869
1.48048e-05
0.000993802
7.99734e-06
0.000968088
9.01128e-06
0.000932945
1.52608e-05
0.000913968
1.73143e-05
0.00089453
1.31557e-05
0.000867059
1.41347e-05
0.000830589
1.8236e-05
0.000795519
2.12841e-05
0.000749693
3.03297e-05
0.000702369
4.42783e-05
0.000659945
6.02763e-05
0.000622509
7.3649e-05
0.000592765
6.77466e-05
0.000573401
5.42734e-05
0.000558981
4.20657e-05
0.000547437
3.25638e-05
0.00053629
2.72648e-05
0.000527027
2.40871e-05
0.000518793
2.1199e-05
0.000509451
2.08014e-05
0.000497609
2.06144e-05
0.000484583
2.1456e-05
0.000470246
2.14792e-05
0.000453587
2.43055e-05
0.000434398
2.62303e-05
0.000412936
3.00815e-05
0.000388458
3.391e-05
0.000360085
4.14456e-05
0.000328429
5.00863e-05
0.000291906
6.75882e-05
0.000251495
7.40147e-05
0.00020698
9.01888e-05
0.000160658
9.83074e-05
0.000108069
0.000125
5.70258e-05
1.43273e-05
2.6577e-06
0.000772511
2.73695e-06
0.000767595
3.96594e-06
0.000767575
5.17872e-06
0.000771073
3.11969e-06
0.000778593
3.12268e-07
0.000784152
-2.61024e-06
0.000786071
-5.32305e-06
0.000786184
-6.90682e-06
0.000784382
-5.81674e-06
0.000781255
-4.08396e-06
0.000781527
-2.81643e-06
0.000784989
-1.15713e-06
0.000791328
9.20424e-07
0.000800775
2.00574e-06
0.000813626
1.05508e-06
0.000827107
-2.33103e-06
0.000838584
-4.80948e-06
0.000846642
-5.95587e-06
0.000851823
-7.47575e-06
0.000853547
-8.28493e-06
0.000853633
-8.44408e-06
0.000852092
-7.55528e-06
0.000850051
-6.33308e-06
0.000850056
-5.036e-06
0.000853047
-3.84328e-06
0.000856372
-3.04619e-06
0.000858939
-1.97428e-06
0.000861131
-1.45692e-06
0.000865222
-1.17789e-06
0.000869753
-1.03012e-06
0.000874271
-9.27341e-07
0.000878468
-1.03564e-06
0.000882328
-8.98709e-07
0.000885878
-9.51055e-07
0.000889208
-9.64282e-07
0.000892459
-1.02055e-06
0.00089463
-2.31596e-06
0.000896171
-2.43276e-06
0.000896178
-3.21614e-05
0.000894868
-0.000184605
0.000870876
-1.66603e-05
0.00070314
1.58459e-05
0.000652906
-2.42165e-06
0.000666336
-3.17378e-05
0.000689971
-3.8173e-05
0.000728538
-3.94962e-05
0.000773681
-4.37521e-05
0.000821599
-4.41832e-05
0.000868864
-3.44769e-05
0.000911031
-3.4071e-05
0.000942948
-3.4619e-05
0.000970439
-3.36302e-05
0.000995633
-3.32205e-05
0.00101966
-3.21143e-05
0.00104283
-3.11592e-05
0.001065
-3.06234e-05
0.0010859
-2.90469e-05
0.00110605
-2.73666e-05
0.00112423
-2.54598e-05
0.00114231
-2.37213e-05
0.00115931
-2.20787e-05
0.00117611
-2.04905e-05
0.00119181
-1.9966e-05
0.00120599
-1.95746e-05
0.00122031
-1.88082e-05
0.00123057
-1.69415e-05
0.00124036
-1.44228e-05
0.00125094
-1.21569e-05
0.00125847
-1.13185e-05
0.00126184
-9.98914e-06
0.00125784
-4.71326e-06
0.00125756
9.08373e-07
0.00126271
1.97864e-06
0.00126123
-1.89628e-06
0.00123447
4.63363e-06
0.00121493
2.07302e-05
0.00121117
2.65096e-05
0.00120275
2.15807e-05
0.00114959
2.48377e-05
0.00109901
3.39932e-05
0.00107823
3.93283e-05
0.00104881
3.34427e-05
0.00099437
3.17419e-05
0.000929623
3.48164e-05
0.000904572
3.98363e-05
0.000879947
3.61652e-05
0.000836446
3.76304e-05
0.000777284
4.66098e-05
0.000731319
5.2825e-05
0.000677009
6.1007e-05
0.000615605
6.68772e-05
0.00055521
7.54524e-05
0.000497353
8.31178e-05
0.000446176
9.09587e-05
0.000407916
9.39031e-05
0.000381262
8.26625e-05
0.000365088
6.68434e-05
0.000353942
5.24977e-05
0.000345734
4.19193e-05
0.000339973
3.48138e-05
0.000334497
3.04623e-05
0.000328046
2.98999e-05
0.000321687
3.17178e-05
0.000313913
3.32534e-05
0.000303008
3.79882e-05
0.000289172
4.15522e-05
0.000274668
4.71714e-05
0.00025686
5.17431e-05
0.00023505
5.85426e-05
0.000210387
6.51929e-05
0.000182692
7.73239e-05
0.000153584
9.04964e-05
0.000123641
0.000113987
9.58962e-05
0.000122135
7.03313e-05
0.000143878
4.91559e-05
0.000148425
3.10796e-05
0.000181644
1.9595e-05
-5.10907e-06
6.5972e-06
0.000735236
9.97218e-07
0.000746377
-1.78925e-06
0.000752381
-4.67884e-06
0.000755052
-3.63495e-06
0.000753265
-2.42972e-06
0.000754247
-1.50925e-06
0.000760925
-2.69583e-07
0.000770086
1.64881e-07
0.00078343
-3.70396e-06
0.000798195
-6.68085e-06
0.000809074
-8.92211e-06
0.000815888
-1.06472e-05
0.000819967
-1.32825e-05
0.000820371
-1.47926e-05
0.000816822
-1.26026e-05
0.000812094
-9.9941e-06
0.000811191
-9.15393e-06
0.000816264
-6.81768e-06
0.000822213
-5.99393e-06
0.000831081
-4.89675e-06
0.00084221
-4.66924e-06
0.000855527
-5.30144e-06
0.000869214
-6.51853e-06
0.000881277
-7.44418e-06
0.000891885
-7.76651e-06
0.000898787
-7.63619e-06
0.000903175
-7.69281e-06
0.000906156
-7.5035e-06
0.00090802
-7.03476e-06
0.000909775
-6.43015e-06
0.000911163
-5.71067e-06
0.000912397
-5.27158e-06
0.000914566
-4.51256e-06
0.000916741
-4.01326e-06
0.000918596
-3.42816e-06
0.000920023
-3.03748e-06
0.000920903
-2.66728e-06
0.000921393
-1.21909e-06
0.000921161
-8.29131e-06
0.000919548
-1.79758e-05
0.00088401
3.35342e-05
0.000719688
3.13553e-06
0.000683381
-2.5358e-05
0.000700293
-6.93893e-05
0.000729578
-8.22293e-05
0.000769323
-8.66919e-05
0.000813029
-9.02399e-05
0.000855189
-8.50532e-05
0.000892121
-6.60617e-05
0.000925367
-6.15064e-05
0.000958083
-5.92478e-05
0.000989723
-5.7236e-05
0.00102019
-5.63864e-05
0.00104826
-5.36196e-05
0.00107518
-5.17149e-05
0.00109995
-5.0385e-05
0.00112356
-4.788e-05
0.00114518
-4.52024e-05
0.00116617
-4.26545e-05
0.00118555
-4.03514e-05
0.00120465
-3.81319e-05
0.00122216
-3.6273e-05
0.00123809
-3.47312e-05
0.00125346
-3.26678e-05
0.00126534
-2.94493e-05
0.00127689
-2.61991e-05
0.00128698
-2.28251e-05
0.001293
-1.83257e-05
0.0012964
-1.24405e-05
0.00129937
-5.07282e-06
0.0013026
-2.53258e-06
0.00130284
-5.52138e-08
0.00128971
1.13458e-05
0.00128176
2.48073e-05
0.00127805
3.26511e-05
0.0012711
3.14925e-05
0.00123382
4.74194e-05
0.00120634
6.40372e-05
0.0011869
7.02184e-05
0.00116183
8.10692e-05
0.00110073
8.11219e-05
0.00103891
8.1679e-05
0.0010047
6.79231e-05
0.000974433
7.42893e-05
0.000919772
7.68559e-05
0.00085756
8.20209e-05
0.000822506
8.3508e-05
0.000785885
0.000101196
0.000723861
0.000114808
0.000654108
0.000125745
0.000591531
0.000123428
0.000519109
0.000125552
0.000465133
0.000121819
0.000420179
0.000117949
0.000377217
0.000108997
0.00034532
9.22704e-05
0.000325541
7.39336e-05
0.000312694
5.843e-05
0.000296099
4.48501e-05
0.000281726
3.79686e-05
0.000272496
3.61388e-05
0.000263466
3.56281e-05
0.000250856
3.97277e-05
0.000238724
4.61478e-05
0.000226999
5.45509e-05
0.000212524
6.13444e-05
0.000194357
7.01329e-05
0.000175541
7.7565e-05
0.000155842
8.66018e-05
0.00013542
9.31301e-05
0.000114089
0.000105891
9.16233e-05
0.000117285
6.8469e-05
0.000139688
4.92802e-05
0.000143998
3.33546e-05
0.000162203
2.18222e-05
0.000159906
1.4276e-05
0.000201636
6.31516e-06
1.74062e-05
-3.39964e-06
0.000800534
-2.72782e-06
0.000796138
-1.54532e-06
0.000799095
1.01093e-07
0.000807658
-3.21443e-06
0.000822868
-7.85329e-06
0.000834664
-1.16669e-05
0.000840819
-1.63764e-05
0.000844761
-1.9069e-05
0.000844111
-1.91593e-05
0.0008419
-1.5885e-05
0.000843438
-1.43969e-05
0.000850376
-1.11574e-05
0.000861232
-7.85005e-06
0.000876872
-5.83204e-06
0.000897714
-7.49696e-06
0.00092018
-1.13909e-05
0.000939943
-1.49145e-05
0.000954006
-1.70962e-05
0.000963057
-1.92286e-05
0.00096712
-2.06707e-05
0.000967636
-2.08802e-05
0.000965001
-1.97662e-05
0.000962635
-1.76693e-05
0.000962756
-1.54377e-05
0.000965141
-1.3609e-05
0.00096983
-1.17518e-05
0.000975087
-9.87299e-06
0.000978725
-8.42303e-06
0.000985068
-7.36466e-06
0.000992537
-6.73956e-06
0.00100068
-6.32861e-06
0.0010086
-6.10045e-06
0.00101667
-5.51171e-06
0.0010231
-5.0493e-06
0.00102795
-4.17614e-06
0.00103188
-3.43612e-06
0.00103523
-2.37139e-06
0.00103804
2.84289e-07
0.00104026
2.79766e-05
0.00104057
0.000147537
0.0010295
6.85728e-05
0.000967637
-1.46753e-05
0.000928183
-5.55386e-05
0.000926942
-0.000110091
0.000937876
-0.000125994
0.00095689
-0.000128727
0.000975714
-0.000127314
0.00100152
-0.000118527
0.00102853
-9.9211e-05
0.00105677
-9.34978e-05
0.00108997
-8.99942e-05
0.00112377
-8.54315e-05
0.0011553
-8.32956e-05
0.00118561
-7.83598e-05
0.00121429
-7.49291e-05
0.00124214
-7.24927e-05
0.00126835
-6.85961e-05
0.00129178
-6.47556e-05
0.00131292
-6.12862e-05
0.00133306
-5.76381e-05
0.00135121
-5.42137e-05
0.00136682
-5.09005e-05
0.00138116
-4.7665e-05
0.0013939
-4.40685e-05
0.00140577
-3.98792e-05
0.00141688
-3.47541e-05
0.00142513
-2.86664e-05
0.00143131
-2.12942e-05
0.00143639
-1.37431e-05
0.00143989
-5.97505e-06
0.00144214
1.54226e-06
0.00144183
1.18409e-05
0.00143503
2.3357e-05
0.00142893
3.45301e-05
0.00142002
4.96651e-05
0.00139324
6.70712e-05
0.00137135
8.29539e-05
0.001354
9.49063e-05
0.00132351
0.000113113
0.00126979
0.000130275
0.0012347
0.000127903
0.00119521
0.000122888
0.00113139
0.000118289
0.0010542
0.000118027
0.00100297
0.000119475
0.000954684
0.000128117
0.000898702
0.000146463
0.000827783
0.000166029
0.000772567
0.000180066
0.000711616
0.000192414
0.000643058
0.000181472
0.000577855
0.000175102
0.000511306
0.000162045
0.000445366
0.000146502
0.00039469
0.000127254
0.000359338
0.000107835
0.000331557
8.73563e-05
0.000307473
7.00779e-05
0.000290967
5.5793e-05
0.000278082
4.69737e-05
0.000261855
4.50275e-05
0.000247598
4.68496e-05
0.00023557
5.28409e-05
0.00022283
6.04878e-05
0.000207002
7.11617e-05
0.00018849
7.97956e-05
0.000167949
9.05941e-05
0.000146179
9.93266e-05
0.000123336
0.000109053
0.000102549
0.00011488
8.28883e-05
0.000126757
6.40678e-05
0.000135055
4.57434e-05
0.000154669
3.16716e-05
0.000155334
2.0394e-05
0.000170439
1.16891e-05
0.000168693
6.06555e-06
0.000208914
-2.94054e-07
-2.17339e-05
-5.53441e-07
0.000736915
-8.25487e-06
0.00075613
-1.34473e-05
0.00076754
-1.88292e-05
0.000773989
-1.81679e-05
0.00077351
-1.57075e-05
0.000777287
-1.37863e-05
0.000786992
-1.18673e-05
0.000800274
-1.0711e-05
0.000819191
-1.4981e-05
0.000839757
-1.99704e-05
0.000856147
-2.38318e-05
0.000867862
-2.67709e-05
0.000876063
-3.08254e-05
0.000878788
-3.35991e-05
0.00087659
-3.13845e-05
0.000872095
-2.73611e-05
0.000872441
-2.42104e-05
0.00087989
-2.09819e-05
0.000887825
-1.89717e-05
0.000899777
-1.66253e-05
0.000915244
-1.54243e-05
0.000933679
-1.57584e-05
0.000952238
-1.67663e-05
0.000969319
-1.77307e-05
0.000984102
-1.82505e-05
0.000993513
-1.81932e-05
0.00100004
-1.79895e-05
0.00100504
-1.73689e-05
0.00100849
-1.64464e-05
0.0010117
-1.54265e-05
0.00101538
-1.41804e-05
0.00101936
-1.29747e-05
0.00102342
-1.14216e-05
0.00102718
-9.98364e-06
0.00103033
-8.26834e-06
0.00103293
-7.02888e-06
0.00103508
-4.66773e-06
0.00103669
-4.34176e-08
0.00103798
3.94171e-05
0.00103818
0.000210254
0.00103942
0.000107648
0.000988996
-1.35351e-05
0.000984174
-6.59247e-05
0.00100452
-0.000128382
0.00102841
-0.000143783
0.00105938
-0.000153759
0.00108999
-0.000154133
0.00112275
-0.000146895
0.00115701
-0.000132164
0.00119195
-0.000126759
0.00123048
-0.000122486
0.00126706
-0.000115886
0.0012998
-0.00011188
0.00133035
-0.000105637
0.00135934
-0.000100621
0.00138759
-9.65022e-05
0.00141446
-8.982e-05
0.0014368
-8.43232e-05
0.00145566
-7.85948e-05
0.00147363
-7.30056e-05
0.00148936
-6.82474e-05
0.00150324
-6.343e-05
0.00151552
-5.88803e-05
0.00152569
-5.45736e-05
0.00153539
-4.93257e-05
0.00154391
-4.25392e-05
0.00155027
-3.47207e-05
0.00155563
-2.58712e-05
0.00155866
-1.57891e-05
0.00155975
-4.68671e-06
0.00156003
7.41527e-06
0.00156161
2.02238e-05
0.00156006
3.38918e-05
0.00155118
5.01966e-05
0.0015391
7.23412e-05
0.00152738
9.21504e-05
0.00151311
0.000112338
0.00149014
0.000135734
0.00146022
0.00016364
0.0014328
0.000177201
0.00140143
0.000183576
0.00135453
0.000187398
0.00131195
0.000183677
0.00125516
0.000175445
0.00118591
0.000173641
0.00110289
0.000183532
0.00103333
0.000206345
0.000967145
0.00023054
0.000903444
0.00024671
0.000835222
0.000260498
0.0007697
0.000249104
0.000698387
0.000238403
0.000622351
0.000214045
0.000550542
0.000186278
0.000480893
0.000156195
0.000424441
0.000127909
0.000380127
0.000103451
0.000345368
8.36546e-05
0.000314497
7.13064e-05
0.000289175
6.10517e-05
0.000271128
5.8121e-05
0.000256436
6.15752e-05
0.000240556
6.94186e-05
0.000224314
7.72683e-05
0.000209122
8.92677e-05
0.000190348
9.97165e-05
0.000166262
0.000112603
0.000141205
0.000120988
0.000116528
0.000129956
9.31662e-05
0.000133317
7.25758e-05
0.000144254
5.38497e-05
0.000148514
3.66913e-05
0.000165198
2.53e-05
0.000163808
1.61384e-05
0.000176423
9.11769e-06
0.000176008
4.38525e-06
0.0002099
-1.57386e-06
1.00589e-05
-1.84126e-05
0.000830549
-1.66285e-05
0.000828213
-1.59821e-05
0.000834727
-1.40264e-05
0.000847555
-1.79987e-05
0.000868966
-2.37065e-05
0.000885755
-2.81109e-05
0.000897173
-3.39008e-05
0.000905212
-3.78978e-05
0.000908471
-3.8004e-05
0.000909165
-3.53548e-05
0.000912519
-3.39455e-05
0.000923274
-3.01427e-05
0.000937785
-2.62962e-05
0.00095605
-2.29967e-05
0.000980415
-2.41643e-05
0.00100831
-2.82563e-05
0.0010333
-3.13454e-05
0.00105168
-3.40373e-05
0.00106395
-3.61541e-05
0.00107052
-3.76566e-05
0.00107366
-3.79609e-05
0.0010732
-3.63519e-05
0.00107242
-3.40129e-05
0.00107337
-3.09064e-05
0.00107715
-2.81258e-05
0.00108291
-2.53922e-05
0.00108864
-2.2781e-05
0.00109265
-2.08024e-05
0.00110075
-1.92655e-05
0.00111026
-1.79962e-05
0.00112011
-1.66243e-05
0.00112927
-1.55236e-05
0.00113839
-1.39413e-05
0.00114645
-1.24492e-05
0.00115281
-1.06355e-05
0.00115786
-8.81969e-06
0.00116235
-6.19261e-06
0.00116661
-8.42743e-07
0.0011705
3.76751e-05
0.00117558
0.000259746
0.00118914
0.000111762
0.00119954
-3.41421e-05
0.00120702
-8.94244e-05
0.00125265
-0.000158635
0.00128638
-0.000173682
0.00133114
-0.000186449
0.00137032
-0.000187867
0.00140091
-0.000181661
0.00142635
-0.00017033
0.00144852
-0.000162518
0.00147123
-0.000155514
0.00149296
-0.000146848
0.00151053
-0.000140564
0.00152697
-0.000132936
0.00154076
-0.000126768
0.0015542
-0.000118266
0.00156593
-0.000109433
0.00157693
-0.000101484
0.00158754
-9.36118e-05
0.00159655
-8.66029e-05
0.00160528
-7.98742e-05
0.00161347
-7.34578e-05
0.00162109
-6.77478e-05
0.0016269
-6.22285e-05
0.0016323
-5.58482e-05
0.00163686
-4.80131e-05
0.00164047
-3.90182e-05
0.00164272
-2.90014e-05
0.0016439
-1.64173e-05
0.00164483
-3.58859e-06
0.00164508
1.0237e-05
0.00164387
2.54387e-05
0.00164083
4.38297e-05
0.00163641
6.32688e-05
0.00163067
8.45892e-05
0.00161812
0.000110251
0.00159753
0.00013933
0.00157889
0.000169571
0.00156276
0.000196365
0.00153983
0.00021791
0.00151337
0.000235962
0.0014863
0.000244287
0.00145689
0.000245254
0.00141912
0.000251078
0.0013682
0.000249896
0.00130653
0.000255871
0.00123661
0.000267416
0.00116072
0.000294582
0.00108489
0.000315763
0.00100172
0.000332311
0.00092279
0.000325703
0.000838111
0.000315509
0.000749109
0.000281708
0.000664404
0.000241668
0.000581634
0.000202149
0.000503712
0.000163084
0.000438973
0.000133734
0.00038814
0.000106192
0.000350386
8.97966e-05
0.000323314
7.88121e-05
0.00029907
7.52543e-05
0.000279328
7.76312e-05
0.000261599
8.64284e-05
0.000245304
9.61478e-05
0.000227907
0.000110083
0.000207892
0.000121593
0.000184673
0.000134994
0.000158005
0.000144053
0.000128791
0.00015177
0.000101781
0.000152892
7.809e-05
0.000161684
5.69941e-05
0.000159863
3.99449e-05
0.000174015
2.86983e-05
0.000170947
1.91069e-05
0.000181682
1.21882e-05
0.000182837
6.23634e-06
0.000209394
-5.21139e-08
-4.57199e-05
-1.77261e-05
0.000746485
-2.61786e-05
0.000772015
-3.23323e-05
0.000788223
-3.95343e-05
0.000798811
-4.00739e-05
0.000801483
-3.75926e-05
0.000808776
-3.52338e-05
0.000820502
-3.35824e-05
0.000836913
-3.21068e-05
0.000858514
-3.50867e-05
0.000883358
-4.08579e-05
0.000906122
-4.52072e-05
0.000923484
-4.86769e-05
0.00093607
-5.30472e-05
0.000943848
-5.6345e-05
0.00094742
-5.46357e-05
0.000947715
-5.06575e-05
0.000951018
-4.57242e-05
0.000959822
-4.2424e-05
0.000969581
-3.96358e-05
0.000984259
-3.62067e-05
0.00100235
-3.39241e-05
0.00102292
-3.28073e-05
0.00104413
-3.28605e-05
0.00106482
-3.28912e-05
0.00108388
-3.29922e-05
0.0010972
-3.21044e-05
0.00110668
-3.15825e-05
0.00111536
-3.05655e-05
0.00112432
-2.92032e-05
0.00113268
-2.74319e-05
0.00113994
-2.52679e-05
0.00114694
-2.31167e-05
0.00115373
-2.05982e-05
0.0011601
-1.82656e-05
0.00116617
-1.60122e-05
0.00117178
-1.38871e-05
0.00117699
-1.09985e-05
0.00118143
-6.42214e-06
0.00118565
2.44117e-05
0.00119224
0.000247473
0.00122448
0.000103454
0.00151351
-7.9715e-05
0.00168841
-0.000122691
0.00170386
-0.000202407
0.00169372
-0.00021204
0.00168348
-0.000216
0.00167631
-0.00021232
0.00167015
-0.000203184
0.00166455
-0.00019265
0.00165922
-0.000183826
0.00165372
-0.000172269
0.00165035
-0.000162418
0.00164947
-0.000153513
0.00164979
-0.00014563
0.00165048
-0.000137755
0.00165274
-0.000128928
0.00165537
-0.000120489
0.00165827
-0.000110217
0.00166032
-0.000101277
0.00166242
-9.45956e-05
0.00166596
-8.64867e-05
0.00166933
-7.87978e-05
0.00167247
-7.24511e-05
0.00167655
-6.61203e-05
0.00168026
-5.88766e-05
0.00168157
-5.00839e-05
0.00168132
-4.04724e-05
0.0016807
-2.95544e-05
0.00167978
-1.64279e-05
0.00167961
-2.84218e-06
0.00167948
1.39375e-05
0.00167648
3.15005e-05
0.00167115
5.03677e-05
0.00166373
7.32554e-05
0.00165393
9.93296e-05
0.00164243
0.0001277
0.00162846
0.00015746
0.00161103
0.000190914
0.0015907
0.000219474
0.00157079
0.000247011
0.00155199
0.000267563
0.00153075
0.000282758
0.00150774
0.000295963
0.00148202
0.000311401
0.00145019
0.000319254
0.00140636
0.000335916
0.00134644
0.000346939
0.00127527
0.000377496
0.00120284
0.000394537
0.00112714
0.000419061
0.00105492
0.000417976
0.000980618
0.000400012
0.000901403
0.000363895
0.000816947
0.000320689
0.000723765
0.000267392
0.000622964
0.000213541
0.000534669
0.000171481
0.000465657
0.000133892
0.000414111
0.000110439
0.000374464
9.78042e-05
0.000341652
9.6183e-05
0.000314148
9.63604e-05
0.000290268
0.000104388
0.000270205
0.000115834
0.000251716
0.000132945
0.000232532
0.000146081
0.00020965
0.000160991
0.000181994
0.000169718
0.000150866
0.000175953
0.000120498
0.000175157
9.27753e-05
0.000179876
6.76382e-05
0.000171488
4.97348e-05
0.00018348
3.79358e-05
0.000178035
2.70723e-05
0.000187729
1.94999e-05
0.000189349
1.15765e-05
0.000209617
3.80272e-06
-7.72375e-06
-4.15774e-05
0.000859251
-3.92931e-05
0.000860112
-3.90786e-05
0.000869949
-3.7566e-05
0.000886402
-4.15337e-05
0.00091114
-4.7279e-05
0.000931351
-5.26152e-05
0.000946606
-5.83058e-05
0.000958719
-6.31013e-05
0.000966955
-6.38887e-05
0.000971478
-6.21318e-05
0.000978439
-6.01454e-05
0.000991636
-5.72407e-05
0.00100618
-5.38792e-05
0.0010258
-4.99069e-05
0.00105113
-4.94882e-05
0.00107984
-5.27361e-05
0.00110595
-5.4243e-05
0.00112667
-5.68877e-05
0.00114188
-5.83029e-05
0.00115261
-5.91757e-05
0.00116064
-5.92917e-05
0.00116493
-5.76093e-05
0.0011679
-5.46029e-05
0.00117156
-5.12247e-05
0.00117704
-4.72937e-05
0.00118365
-4.39912e-05
0.00119018
-4.18824e-05
0.00119655
-3.92468e-05
0.00120608
-3.66036e-05
0.00121607
-3.40507e-05
0.00122526
-3.15523e-05
0.00123388
-2.90366e-05
0.0012419
-2.6429e-05
0.00124899
-2.38215e-05
0.00125565
-2.09739e-05
0.0012621
-1.83043e-05
0.00126972
-1.59386e-05
0.00127557
-1.31133e-05
0.00127924
-8.8355e-06
0.00128607
-4.36362e-05
0.00131712
-7.5095e-05
0.00152786
-9.54014e-05
0.00163391
-0.000111995
0.00166065
-0.000191201
0.00165183
-0.00020383
0.00163954
-0.000208745
0.00162525
-0.000205362
0.00161301
-0.000196791
0.00160389
-0.000186761
0.0015989
-0.000180314
0.00159798
-0.0001709
0.00160335
-0.000161856
0.00160977
-0.000153446
0.00161766
-0.000147176
0.00162672
-0.000139947
0.00163756
-0.00013169
0.00164652
-0.000123038
0.00165568
-0.000114426
0.00166483
-0.00010623
0.00167351
-9.85195e-05
0.00168017
-9.02368e-05
0.0016838
-8.2249e-05
0.0016867
-7.47522e-05
0.00169096
-6.73705e-05
0.00169339
-5.9426e-05
0.00169321
-5.08421e-05
0.00169326
-4.09347e-05
0.00169251
-2.95367e-05
0.00169123
-1.52567e-05
0.00168902
8.82482e-07
0.00168581
1.92279e-05
0.00168092
3.87349e-05
0.00167455
5.9685e-05
0.00166638
8.43151e-05
0.00165649
0.000112656
0.00164509
0.000145113
0.00163182
0.000177076
0.00161655
0.000209811
0.0016009
0.000238598
0.00158485
0.000264972
0.00156871
0.000288332
0.00155133
0.000310522
0.00153335
0.000329312
0.00151141
0.000355027
0.00148332
0.000376131
0.00144705
0.000404507
0.00140206
0.000420691
0.00134232
0.000456863
0.00127334
0.000471164
0.00120052
0.000497133
0.00113241
0.000500616
0.001065
0.000486498
0.000994754
0.000458219
0.000920699
0.000419791
0.000840552
0.000354913
0.000755617
0.000283937
0.000659876
0.000222061
0.000560297
0.000172266
0.000486188
0.000142587
0.000430246
0.00012512
0.000385499
0.000120157
0.00035069
0.000117338
0.000322439
0.000124246
0.000298722
0.000136072
0.000276676
0.000155782
0.000254181
0.000172948
0.000230284
0.00019085
0.000203903
0.000198669
0.000174654
0.000202561
0.000143107
0.000200359
0.000113859
0.00019895
8.55737e-05
0.000183827
6.49746e-05
0.000195063
5.11462e-05
0.000186635
3.78732e-05
0.000196224
2.80605e-05
0.000196676
1.77098e-05
0.000212673
8.55296e-06
-7.3742e-05
-4.3963e-05
0.000766331
-5.17986e-05
0.000795323
-5.81995e-05
0.000815941
-6.61783e-05
0.000831491
-6.78465e-05
0.000842691
-6.60368e-05
0.000854961
-6.52937e-05
0.000869774
-6.38511e-05
0.000888873
-6.2554e-05
0.000912501
-6.43419e-05
0.000940219
-6.88609e-05
0.000967129
-7.28265e-05
0.0009894
-7.65266e-05
0.00100739
-7.98188e-05
0.00102168
-8.30245e-05
0.00103304
-8.17915e-05
0.00103986
-7.81287e-05
0.00104728
-7.29026e-05
0.00105863
-7.00526e-05
0.00107304
-6.62576e-05
0.00109049
-6.26774e-05
0.00110982
-5.94367e-05
0.00113127
-5.68128e-05
0.00115377
-5.51526e-05
0.00117607
-5.39114e-05
0.00119665
-5.19738e-05
0.00121425
-5.10857e-05
0.00122969
-5.00318e-05
0.00124376
-4.77439e-05
0.00125604
-4.49512e-05
0.00126685
-4.19714e-05
0.00127661
-3.9052e-05
0.00128601
-3.60739e-05
0.00129531
-3.27584e-05
0.00130483
-3.00142e-05
0.00131362
-2.77496e-05
0.00132054
-2.51692e-05
0.00132587
-2.24096e-05
0.00133106
-2.07714e-05
0.00133557
-3.97873e-05
0.00134232
-0.000256547
0.0013565
-0.000183966
0.00133599
-0.000120044
0.00134759
-0.000101744
0.00139173
-0.000178088
0.00142565
-0.000188744
0.00145323
-0.000195283
0.00148095
-0.000195299
0.00151047
-0.000192493
0.00153572
-0.000187071
0.00155803
-0.000186133
0.00157944
-0.000177287
0.001601
-0.000170191
0.00161926
-0.000163005
0.0016388
-0.00015861
0.00165715
-0.000150171
0.00167396
-0.00014198
0.00168682
-0.000132307
0.00170199
-0.000124462
0.00171592
-0.000115191
0.00173164
-0.000104684
0.00174694
-9.58908e-05
0.00175776
-8.69348e-05
0.00176208
-7.74904e-05
0.00176347
-6.9215e-05
0.00176335
-6.14203e-05
0.00176364
-5.18245e-05
0.00176324
-4.09542e-05
0.00176141
-2.84028e-05
0.00175863
-1.2996e-05
0.00175481
5.07056e-06
0.00174986
2.53284e-05
0.00174214
4.63997e-05
0.00173278
6.95407e-05
0.00172028
9.63807e-05
0.00170618
0.000126358
0.00168913
0.000160212
0.00166995
0.000192635
0.00164891
0.000225846
0.00162859
0.00025464
0.00160636
0.000281061
0.00158601
0.000305339
0.00156509
0.000332417
0.00154378
0.000358078
0.00151942
0.000391758
0.00148903
0.000421077
0.0014488
0.000463217
0.00140101
0.000487328
0.00134624
0.00053119
0.00128878
0.000543768
0.00123165
0.000567544
0.00117245
0.000574368
0.00110978
0.000563133
0.00104805
0.00053992
0.000984268
0.000506222
0.000916813
0.000451425
0.000844626
0.00038389
0.000761765
0.000295652
0.000670894
0.00022805
0.000574215
0.000186989
0.000494008
0.000158937
0.000435629
0.000148475
0.000393595
0.000142058
0.000358691
0.000147767
0.000327811
0.000159724
0.000298532
0.000180817
0.000272106
0.000199806
0.000248773
0.000219189
0.000226002
0.00022924
0.000201858
0.000230612
0.00017513
0.000228235
0.000147294
0.000220136
0.000119216
0.000198315
9.50956e-05
0.000209587
7.54342e-05
0.000197759
5.63792e-05
0.000206892
4.02967e-05
0.000205326
2.50059e-05
0.000220084
1.28625e-05
-3.50176e-05
-7.19716e-05
0.000885944
-7.08729e-05
0.00089115
-7.0066e-05
0.000903793
-7.14531e-05
0.000922166
-7.42052e-05
0.000945751
-7.90524e-05
0.0009685
-8.48136e-05
0.00098712
-8.96551e-05
0.00100356
-9.4672e-05
0.001017
-9.65961e-05
0.00102654
-9.48928e-05
0.00103678
-9.35689e-05
0.00105151
-9.18732e-05
0.00106981
-8.85876e-05
0.00109008
-8.51165e-05
0.0011131
-8.33701e-05
0.00113982
-8.44511e-05
0.00116589
-8.46482e-05
0.00118823
-8.56138e-05
0.00120578
-8.57771e-05
0.00122055
-8.53997e-05
0.00123331
-8.4512e-05
0.00124349
-8.2352e-05
0.00125214
-7.90476e-05
0.00126022
-7.52579e-05
0.00126843
-6.99785e-05
0.00127671
-6.8849e-05
0.00128477
-6.38139e-05
0.0012946
-5.95087e-05
0.00130535
-5.53886e-05
0.00131523
-5.1782e-05
0.00132388
-4.8272e-05
0.0013328
-4.47202e-05
0.00134092
-4.1109e-05
0.00134896
-3.76135e-05
0.00135652
-3.40636e-05
0.00136321
-3.01096e-05
0.00136935
-2.70445e-05
0.00137503
-2.68276e-05
0.0013797
-5.29473e-05
0.00138276
-0.000238733
0.0013774
-0.000195729
0.00131015
-0.000164549
0.00130782
-0.00013619
0.00135288
-0.000206532
0.00139613
-0.000217374
0.00144253
-0.000225501
0.00148801
-0.000221263
0.00153073
-0.000216629
0.00156781
-0.000209796
0.00160231
-0.000207825
0.00163433
-0.000195525
0.00166543
-0.000188975
0.00169436
-0.000180193
0.00172286
-0.000175183
0.00174581
-0.000163648
0.00176614
-0.000156224
0.00178319
-0.000144637
0.0017984
-0.000134748
0.001811
-0.000125075
0.00181985
-0.000115379
0.00182584
-0.000105008
0.00182944
-9.37007e-05
0.00182739
-8.30441e-05
0.0018267
-7.33396e-05
0.00182675
-6.3756e-05
0.00182707
-5.22652e-05
0.00182669
-4.00704e-05
0.00182628
-2.56943e-05
0.00182383
-8.01306e-06
0.00181899
1.26243e-05
0.00181154
3.5086e-05
0.00180286
5.91579e-05
0.00179182
8.40037e-05
0.00177812
0.000113725
0.00176295
0.000145678
0.00174429
0.000182064
0.00172334
0.000214313
0.00170075
0.000247486
0.00167833
0.000273057
0.00165386
0.000300063
0.00162791
0.000325295
0.00159957
0.00035644
0.00156841
0.000388826
0.00152987
0.000431915
0.00148481
0.000469508
0.00142999
0.000519181
0.00137205
0.000546904
0.00130868
0.000587969
0.00125242
0.00059735
0.00120493
0.000627111
0.00115779
0.000635753
0.00111621
0.000626638
0.00107145
0.00060652
0.00102239
0.000578551
0.000964421
0.000534176
0.000898608
0.000475795
0.000822341
0.000393162