/*--------------------------------*- C++ -*----------------------------------*\
| =========                 |                                                 |
| \\      /  F ield         | OpenFOAM: The Open Source CFD Toolbox           |
|  \\    /   O peration     | Version:  2.2.x                                 |
|   \\  /    A nd           | Web:      www.OpenFOAM.org                      |
|    \\/     M anipulation  |                                                 |
\*---------------------------------------------------------------------------*/
FoamFile
{
    version     2.0;
    format      ascii;
    class       volVectorField;
    location    "1.75";
    object      U;
}
// * * * * * * * * * * * * * * * * * * * * * * * * * * * * * * * * * * * * * //

dimensions      [0 1 -1 0 0 0 0];

internalField   nonuniform List<vector> 
14161
(
(3.5 -1.76256e-15 5.14925e-26)
(3.5 -1.22285e-15 -2.42502e-23)
(3.5 -1.98274e-15 1.60088e-23)
(3.5 -1.70437e-15 1.77223e-23)
(3.5 -2.29287e-15 2.90365e-23)
(3.5 -6.58237e-16 -2.43451e-23)
(3.5 5.35902e-16 8.77223e-23)
(3.5 1.91844e-15 -8.92363e-24)
(3.5 4.54137e-15 1.09173e-22)
(3.5 3.62694e-15 -2.03106e-23)
(3.5 3.22811e-15 -1.63613e-24)
(3.5 1.86504e-15 -2.54329e-26)
(3.5 1.8495e-15 -7.58478e-24)
(3.5 1.00832e-16 3.5336e-23)
(3.5 1.22613e-15 -3.65022e-23)
(3.5 4.21531e-15 -5.8317e-23)
(3.5 3.49426e-15 -7.27342e-23)
(3.5 -1.1146e-15 -9.48663e-23)
(3.5 -3.5063e-15 -8.86503e-23)
(3.5 -3.37178e-15 -1.16155e-22)
(3.5 -2.97482e-15 -1.3596e-22)
(3.5 -2.22732e-15 -1.18805e-22)
(3.5 -3.90185e-16 -1.72098e-22)
(3.5 1.89352e-15 -1.82135e-22)
(3.5 2.66324e-15 -2.03814e-22)
(3.5 2.6965e-15 -1.9337e-22)
(3.5 1.69298e-15 -2.14229e-22)
(3.5 -8.16508e-16 -2.08115e-22)
(3.5 -4.54501e-15 -2.34192e-22)
(3.5 -4.01895e-15 -2.39116e-22)
(3.5 -3.56975e-15 -2.30171e-22)
(3.5 -3.01296e-15 -2.39594e-22)
(3.5 -1.31906e-15 -2.43244e-22)
(3.5 3.70621e-15 -2.46614e-22)
(3.5 5.71132e-14 -2.45117e-22)
(3.5 7.65626e-13 -2.46726e-22)
(3.5 9.94774e-12 -2.43201e-22)
(3.5 1.23454e-10 -2.42347e-22)
(3.5 1.42521e-09 -2.42324e-22)
(3.49997 1.41959e-08 -2.4023e-22)
(3.49957 8.79451e-08 -2.4244e-22)
(3.49274 -1.41581e-06 -2.43957e-22)
(3.36925 -6.1423e-06 -2.61118e-22)
(2.43686 0.00112233 -3.7486e-22)
(1.34105 0.00186841 -5.95486e-22)
(1.01785 0.00309417 1.24063e-21)
(0.946916 0.00382558 9.62158e-22)
(0.925786 0.00411787 2.31765e-21)
(0.912918 0.00414405 6.03207e-21)
(0.902989 0.00412441 3.97756e-21)
(0.894258 0.00413717 6.42113e-21)
(0.886194 0.00418417 7.57769e-21)
(0.878049 0.00424775 9.57408e-21)
(0.869412 0.00432752 9.25012e-21)
(0.859665 0.00439474 8.14313e-21)
(0.849113 0.00441323 8.02627e-21)
(0.839336 0.00443136 7.55962e-21)
(0.830751 0.00449698 7.80139e-21)
(0.823221 0.00458793 6.81251e-21)
(0.815289 0.00468081 7.10566e-21)
(0.806382 0.00477943 5.66629e-21)
(0.796066 0.00484408 7.55855e-21)
(0.785277 0.0048628 2.28359e-21)
(0.775553 0.00490028 2.9661e-21)
(0.767262 0.00497765 3.75461e-21)
(0.759863 0.00507212 5.27867e-22)
(0.751718 0.00516222 7.05144e-22)
(0.742066 0.00523246 9.59521e-23)
(0.730825 0.0052537 1.84726e-21)
(0.720013 0.00526213 -3.96649e-22)
(0.710563 0.00531301 4.39125e-22)
(0.702667 0.00541222 2.67437e-22)
(0.694776 0.0055137 3.77863e-21)
(0.685674 0.00559823 -9.46362e-22)
(0.674437 0.00562647 2.23475e-21)
(0.662798 0.00559499 5.06936e-22)
(0.65241 0.00559637 3.07947e-22)
(0.64358 0.0056603 7.64476e-22)
(0.635208 0.00576376 -3.57268e-23)
(0.625916 0.00586682 1.42263e-21)
(0.614486 0.00591032 2.48595e-21)
(0.602295 0.00587358 3.39663e-22)
(0.591197 0.0058424 3.2614e-22)
(0.581546 0.0058687 6.30384e-22)
(0.57227 0.00594817 8.42981e-22)
(0.562005 0.00604143 -3.76584e-23)
(0.549683 0.0060849 -5.93094e-21)
(0.537031 0.00606045 8.99662e-22)
(0.525361 0.0060373 -7.4637e-21)
(0.514913 0.0060562 -2.88918e-22)
(0.504334 0.00612375 -2.96552e-21)
(0.492269 0.00621049 1.973e-21)
(0.478744 0.00626206 -6.4926e-21)
(0.465496 0.00627564 -2.03934e-21)
(0.453356 0.00627482 -3.24426e-22)
(0.441605 0.00630619 -2.46851e-21)
(0.428896 0.00638009 7.64193e-22)
(0.414449 0.00648507 -4.46707e-21)
(0.399815 0.00658975 3.62343e-21)
(0.385996 0.00665089 -9.12164e-21)
(0.372689 0.00670749 2.29786e-21)
(0.358514 0.00679394 1.00311e-20)
(0.342607 0.0069467 -3.49553e-21)
(0.326364 0.00714534 3.89832e-21)
(0.310709 0.00731593 -8.02454e-21)
(0.295405 0.00747164 1.08294e-20)
(0.279024 0.00766161 -4.10999e-21)
(0.261073 0.00792518 -3.0171e-20)
(0.24277 0.00823543 -5.49995e-21)
(0.224869 0.00856334 -2.71673e-20)
(0.206802 0.00891646 8.54056e-21)
(0.187218 0.0093401 -3.15477e-20)
(0.166321 0.00987903 1.48474e-20)
(0.144844 0.0105112 -7.77285e-20)
(0.123128 0.0112737 -1.93693e-20)
(0.100066 0.0121764 5.98767e-21)
(0.0746043 0.0134301 -1.58368e-19)
(0.0473092 0.0144463 -1.61135e-19)
(0.0208245 0.0210752 -1.60192e-19)
(3.5 -2.02313e-15 -8.84226e-24)
(3.5 -2.84351e-15 1.09418e-22)
(3.5 -4.52817e-15 1.06023e-22)
(3.5 -7.11547e-15 -2.4589e-24)
(3.5 -4.15388e-15 1.21459e-23)
(3.5 -5.2181e-16 2.03112e-23)
(3.5 1.08273e-15 1.15444e-23)
(3.5 3.75259e-15 -2.71029e-23)
(3.5 4.15784e-15 8.00088e-23)
(3.5 4.16457e-15 -3.18263e-23)
(3.5 4.47983e-15 3.88461e-23)
(3.5 3.16597e-16 1.46774e-24)
(3.5 -2.15376e-15 8.56315e-23)
(3.5 -1.931e-15 -1.0015e-22)
(3.5 2.63465e-15 -1.68062e-22)
(3.5 6.3957e-15 -1.42056e-22)
(3.5 6.52059e-15 -7.31192e-23)
(3.5 1.9268e-15 -1.65846e-22)
(3.5 -1.70719e-15 -1.0602e-22)
(3.5 -3.98472e-15 -2.04498e-22)
(3.5 -5.3263e-15 -1.48437e-22)
(3.5 -2.94023e-15 -1.92922e-22)
(3.5 2.64134e-15 -2.83585e-22)
(3.5 4.82176e-15 -2.8893e-22)
(3.5 5.86831e-15 -2.0132e-22)
(3.5 4.27062e-15 -2.12122e-22)
(3.5 5.8937e-16 -3.03235e-22)
(3.5 -2.75405e-15 -2.45606e-22)
(3.5 -5.51727e-15 -3.68586e-22)
(3.5 -5.87827e-15 -2.62978e-22)
(3.5 -5.5077e-15 -3.33426e-22)
(3.5 -5.22455e-15 -2.88968e-22)
(3.5 -3.02549e-15 -2.86685e-22)
(3.5 1.06177e-14 -3.04016e-22)
(3.5 1.9579e-13 -3.03751e-22)
(3.5 2.85503e-12 -2.90124e-22)
(3.5 4.07181e-11 -3.05753e-22)
(3.5 5.77723e-10 -2.92622e-22)
(3.5 8.12309e-09 -2.87508e-22)
(3.49997 1.10337e-07 -2.75565e-22)
(3.49957 1.28457e-06 -2.82223e-22)
(3.49275 -1.01571e-05 -2.72732e-22)
(3.36936 0.000688087 -2.83814e-22)
(2.43727 0.00615372 -3.75682e-22)
(1.33945 0.00815684 -2.84087e-22)
(1.01424 0.00963231 -1.46721e-21)
(0.942755 0.0104853 1.91006e-21)
(0.9216 0.0108866 5.99218e-21)
(0.908894 0.011099 -2.88399e-21)
(0.899175 0.0113371 9.59901e-22)
(0.890628 0.011607 -4.91133e-24)
(0.882677 0.0118626 -1.94861e-21)
(0.874582 0.0120846 -7.34998e-21)
(0.865954 0.0122822 -2.43707e-21)
(0.856118 0.0124448 -5.65402e-21)
(0.845529 0.0125896 3.26089e-21)
(0.835804 0.0127722 3.54318e-21)
(0.82727 0.0130285 3.13407e-21)
(0.819755 0.0132669 1.23022e-21)
(0.811766 0.0134752 -5.13271e-21)
(0.80278 0.0136694 -1.29907e-21)
(0.792342 0.0138207 -5.62979e-21)
(0.781564 0.0139558 -7.51882e-21)
(0.771867 0.014163 5.76334e-21)
(0.763629 0.0144091 -1.05932e-20)
(0.756203 0.0146221 2.32186e-21)
(0.747972 0.0148006 -7.63693e-22)
(0.738184 0.0149338 4.26574e-21)
(0.726877 0.0150345 -1.83287e-21)
(0.716121 0.0151762 -1.73396e-21)
(0.706741 0.0154023 -3.97179e-21)
(0.698896 0.0156354 -1.60339e-21)
(0.690917 0.0158133 -2.11458e-21)
(0.681659 0.0159303 -1.53082e-21)
(0.670256 0.0159946 -1.44768e-21)
(0.658681 0.0160438 5.18419e-22)
(0.648365 0.0161829 -7.6375e-22)
(0.639658 0.0163816 1.04264e-21)
(0.631301 0.016568 -1.7288e-21)
(0.621861 0.0167035 3.67435e-21)
(0.61023 0.0167563 8.32542e-22)
(0.598048 0.0167593 -7.87117e-22)
(0.587022 0.0168242 2.91947e-21)
(0.577524 0.0169628 1.02356e-20)
(0.568326 0.017122 -4.88101e-21)
(0.557979 0.0172521 1.15681e-20)
(0.545512 0.0173179 -2.50556e-21)
(0.532868 0.0173326 -8.15663e-21)
(0.521268 0.0173877 1.92026e-20)
(0.510939 0.0175015 6.44838e-21)
(0.500439 0.0176587 -1.61208e-23)
(0.488317 0.0178173 7.89989e-21)
(0.474722 0.0179342 -6.25917e-21)
(0.461476 0.0180217 -2.33875e-20)
(0.44938 0.0181185 1.37493e-20)
(0.437735 0.0182716 -9.31413e-21)
(0.425104 0.0184906 8.73926e-21)
(0.410667 0.0187654 -2.38679e-20)
(0.396038 0.0190472 1.29792e-20)
(0.382196 0.0192727 -2.03726e-21)
(0.368934 0.0195184 1.63393e-20)
(0.354879 0.0198571 -1.53722e-20)
(0.33905 0.0203343 -3.83995e-20)
(0.322835 0.0208974 5.45509e-21)
(0.307133 0.0214309 -2.19111e-20)
(0.291813 0.021957 -5.87032e-21)
(0.275531 0.0225699 7.87377e-22)
(0.257684 0.0233733 2.29436e-20)
(0.239448 0.0243445 5.30884e-20)
(0.221542 0.0253803 -4.23995e-21)
(0.203472 0.0264944 8.86532e-21)
(0.183942 0.0278088 6.26315e-20)
(0.163079 0.0294632 4.74996e-20)
(0.141547 0.0313981 7.02653e-20)
(0.119633 0.0337001 8.58842e-20)
(0.0963638 0.0363806 -2.73215e-20)
(0.0708247 0.0401179 3.66246e-20)
(0.0431488 0.043258 -2.46642e-20)
(0.0166967 0.0523388 -8.26183e-20)
(3.5 -4.31561e-18 5.63136e-23)
(3.5 -1.36698e-15 -7.61781e-23)
(3.5 -1.55364e-15 -4.67005e-23)
(3.5 -4.04808e-15 -2.35655e-23)
(3.5 -1.41829e-15 4.16936e-23)
(3.5 4.00508e-16 -1.02767e-23)
(3.5 -8.63611e-16 -1.35072e-23)
(3.5 1.52191e-16 -4.16743e-23)
(3.5 1.56966e-15 2.5709e-23)
(3.5 4.63167e-15 3.88694e-23)
(3.5 4.74464e-15 2.39405e-22)
(3.5 3.27067e-15 -8.81263e-23)
(3.5 1.42444e-15 -1.33756e-22)
(3.5 3.26062e-15 -1.10624e-22)
(3.5 6.97529e-15 7.95453e-24)
(3.5 7.47169e-15 -5.75016e-23)
(3.5 6.62157e-15 -4.39582e-23)
(3.5 5.39676e-15 -1.08283e-22)
(3.5 1.61612e-15 4.11355e-23)
(3.5 -2.22232e-15 -7.4664e-23)
(3.5 -4.41836e-15 -1.58398e-22)
(3.5 -1.89195e-15 -4.33833e-22)
(3.5 -1.71131e-15 -2.2985e-22)
(3.5 -1.80193e-15 -3.07555e-22)
(3.5 1.10065e-16 -5.73568e-22)
(3.5 4.19558e-16 -5.14468e-22)
(3.5 -9.31511e-16 -4.93002e-22)
(3.5 -4.41983e-15 -5.08888e-22)
(3.5 -5.32586e-15 -5.91894e-22)
(3.5 -7.47491e-15 -4.02628e-22)
(3.5 -5.27763e-15 -3.74385e-22)
(3.5 -3.23627e-15 -3.26896e-22)
(3.5 -1.32426e-16 -3.44937e-22)
(3.5 2.43297e-14 -2.95422e-22)
(3.5 3.90246e-13 -3.2774e-22)
(3.5 6.00424e-12 -3.02986e-22)
(3.5 9.25695e-11 -2.98528e-22)
(3.5 1.42325e-09 -2.92559e-22)
(3.5 2.17128e-08 -2.82317e-22)
(3.49997 3.23782e-07 -2.71324e-22)
(3.49958 4.25243e-06 -2.60556e-22)
(3.49296 -1.63882e-05 -2.36127e-22)
(3.37148 0.00217359 -2.51286e-22)
(2.44379 0.0149974 -3.19499e-22)
(1.34133 0.0174126 -3.07414e-22)
(1.0141 0.0189731 4.58316e-21)
(0.942064 0.0197234 5.9879e-21)
(0.920677 0.0200004 1.34155e-20)
(0.907922 0.0202058 9.58695e-21)
(0.898252 0.0205273 1.61085e-20)
(0.889758 0.0209168 3.64813e-21)
(0.881817 0.0213014 1.04035e-20)
(0.873683 0.0216377 1.1042e-20)
(0.864996 0.0219462 3.21841e-21)
(0.855063 0.022236 1.55282e-20)
(0.844457 0.0224867 -6.74473e-21)
(0.83479 0.0227753 2.91551e-21)
(0.826336 0.0231737 -1.09314e-20)
(0.818808 0.0235585 -8.58862e-21)
(0.810739 0.0238845 2.69373e-21)
(0.801656 0.0241886 -1.83692e-20)
(0.791116 0.0244567 -4.39831e-21)
(0.780375 0.0246744 6.49211e-21)
(0.770733 0.0249694 -1.47185e-20)
(0.762576 0.0253634 -1.34378e-20)
(0.755105 0.0257246 -1.05802e-20)
(0.746759 0.0260155 -1.03665e-20)
(0.736819 0.0262688 -5.34945e-21)
(0.725464 0.0264432 -3.94491e-23)
(0.714773 0.0266388 4.33292e-21)
(0.705489 0.0269543 -3.39126e-22)
(0.697679 0.0272996 1.77117e-21)
(0.689578 0.027581 9.41153e-21)
(0.680123 0.0278132 6.47332e-21)
(0.668587 0.0279582 -2.43444e-21)
(0.657049 0.02804 1.70721e-20)
(0.646823 0.028215 6.7075e-23)
(0.638224 0.0284797 5.16727e-21)
(0.629813 0.0287231 -5.35463e-21)
(0.620194 0.0289277 1.20479e-20)
(0.608346 0.0290675 2.04084e-22)
(0.596162 0.0290884 3.15139e-21)
(0.585192 0.0291812 -4.91423e-21)
(0.575807 0.0293466 1.32201e-20)
(0.566589 0.0295258 7.10984e-21)
(0.55608 0.0296892 -1.88983e-20)
(0.543439 0.0297995 1.45793e-20)
(0.530728 0.0298443 -2.40633e-20)
(0.519186 0.0299388 -1.68973e-20)
(0.508933 0.0300848 4.21702e-21)
(0.498423 0.030267 -3.36862e-20)
(0.486165 0.0304745 1.8134e-20)
(0.472454 0.0306509 -2.4233e-20)
(0.459175 0.0308202 1.96266e-20)
(0.447096 0.0310045 1.18419e-20)
(0.435487 0.0312259 -1.72975e-20)
(0.42284 0.0315339 1.55644e-20)
(0.408332 0.0319271 -1.04053e-21)
(0.393628 0.03236 6.49939e-23)
(0.37967 0.0327765 -2.10825e-20)
(0.366346 0.0332247 1.84633e-20)
(0.352273 0.033773 6.96901e-21)
(0.336427 0.0344815 2.34771e-20)
(0.320113 0.0353404 -1.22724e-20)
(0.304223 0.0361983 3.23716e-20)
(0.288741 0.037091 -9.09674e-20)
(0.272404 0.0381366 7.42111e-20)
(0.254517 0.03942 -1.72056e-19)
(0.236196 0.0409463 5.98679e-20)
(0.218124 0.0426025 -6.62272e-20)
(0.199918 0.0444382 1.56496e-19)
(0.180372 0.046622 5.28692e-20)
(0.159584 0.049344 4.10799e-20)
(0.138194 0.0525142 1.88502e-19)
(0.116532 0.0563691 4.72265e-20)
(0.0936845 0.0608319 4.63567e-19)
(0.069027 0.0670189 3.34143e-19)
(0.0422233 0.0724471 1.54631e-19)
(0.0169806 0.0831468 3.21307e-19)
(3.5 1.49495e-15 -8.12174e-23)
(3.5 1.05078e-15 -1.16707e-24)
(3.5 -6.66202e-16 1.02507e-22)
(3.5 -1.69807e-15 1.01984e-22)
(3.5 -2.49466e-15 -2.61598e-23)
(3.5 -1.77658e-15 -1.09376e-22)
(3.5 -2.47336e-15 -8.7498e-23)
(3.5 -2.55082e-15 -1.05043e-22)
(3.5 -4.89772e-16 -7.44954e-23)
(3.5 3.27244e-15 -8.57172e-23)
(3.5 5.17456e-15 -2.46997e-22)
(3.5 5.98886e-15 -3.3519e-22)
(3.5 8.47905e-15 -2.44255e-22)
(3.5 1.0647e-14 -2.75966e-22)
(3.5 6.77901e-15 1.08011e-22)
(3.5 3.35149e-15 3.06389e-23)
(3.5 2.62518e-15 -7.08989e-23)
(3.5 2.37011e-15 -9.13917e-23)
(3.5 2.65674e-15 -6.11238e-22)
(3.5 1.19851e-15 -7.58468e-23)
(3.5 -1.25199e-16 -6.50845e-23)
(3.5 -5.762e-16 8.76291e-23)
(3.5 -6.3838e-15 -1.24356e-22)
(3.5 -6.92592e-15 2.28205e-23)
(3.5 -5.02401e-15 -2.19221e-23)
(3.5 -3.01385e-15 -2.79731e-22)
(3.5 -1.14132e-15 -1.7772e-22)
(3.5 -1.76946e-15 1.17059e-22)
(3.5 -2.36857e-15 7.78439e-23)
(3.5 -1.61547e-15 -1.94833e-22)
(3.5 1.74848e-15 -1.99205e-22)
(3.5 4.41826e-15 -1.67585e-22)
(3.5 7.36775e-15 -1.3979e-22)
(3.5 4.15625e-14 -1.24003e-22)
(3.5 5.63173e-13 -8.1166e-23)
(3.5 8.68081e-12 -7.78496e-23)
(3.5 1.35125e-10 -9.53298e-23)
(3.5 2.10236e-09 -5.99306e-23)
(3.5 3.25897e-08 -5.95807e-23)
(3.49998 4.9409e-07 -6.617e-23)
(3.49961 6.53888e-06 -6.22344e-23)
(3.49341 -2.94684e-05 -6.25295e-23)
(3.37572 0.00358459 3.29773e-24)
(2.457 0.0224238 -2.31725e-22)
(1.34709 0.0256187 -4.59781e-22)
(1.01809 0.0276545 -5.57343e-21)
(0.945666 0.0285369 -1.9336e-21)
(0.923934 0.0288799 -9.93579e-21)
(0.910919 0.0292294 -2.0495e-20)
(0.901095 0.0297619 -2.30271e-21)
(0.8925 0.0303545 -2.11528e-20)
(0.884426 0.030922 2.71821e-22)
(0.876133 0.031423 -1.60434e-20)
(0.867283 0.0318559 3.58346e-21)
(0.857212 0.032231 -1.13918e-20)
(0.846645 0.0326038 1.04231e-20)
(0.837073 0.0330598 1.62325e-20)
(0.828768 0.0336267 1.66371e-20)
(0.821213 0.034152 1.75237e-20)
(0.813038 0.0345993 1.83003e-20)
(0.803823 0.0349949 1.92486e-20)
(0.793192 0.0353236 3.47645e-20)
(0.782589 0.0356526 1.21196e-20)
(0.773069 0.0361131 3.56118e-20)
(0.765093 0.0366663 2.64093e-20)
(0.757551 0.0371442 2.80514e-20)
(0.749057 0.037539 2.9366e-20)
(0.738918 0.0378655 1.02957e-20)
(0.727564 0.038105 2.83465e-20)
(0.717029 0.0384159 -6.60231e-21)
(0.707961 0.0388652 1.5437e-21)
(0.70021 0.0393292 -3.53062e-21)
(0.692 0.0396909 8.30172e-21)
(0.682305 0.0399806 2.94719e-21)
(0.670653 0.0401756 -1.67932e-21)
(0.659214 0.0403606 4.66059e-21)
(0.649176 0.0406528 -2.28879e-21)
(0.640724 0.0409815 9.29622e-22)
(0.632231 0.0412676 5.46457e-21)
(0.622419 0.0414986 -1.41664e-21)
(0.610371 0.0416627 -2.03992e-21)
(0.598223 0.0417897 -5.90998e-21)
(0.587355 0.0419891 -1.2187e-21)
(0.57804 0.0421914 9.46946e-22)
(0.568754 0.0423883 -8.38147e-21)
(0.558064 0.0425691 1.87192e-20)
(0.545253 0.0427243 4.38293e-21)
(0.532491 0.0428566 -2.81026e-20)
(0.520997 0.0430155 4.35999e-20)
(0.510736 0.0431879 2.00863e-20)
(0.500136 0.0433853 2.56932e-20)
(0.487692 0.0436232 6.18329e-20)
(0.473834 0.0438665 -1.98391e-20)
(0.460464 0.0441493 2.02286e-20)
(0.44831 0.0444382 -5.0242e-21)
(0.436571 0.0447514 -3.43746e-20)
(0.423733 0.0451478 -3.48987e-20)
(0.409024 0.0456359 -1.92189e-20)
(0.394116 0.0462131 -2.03161e-20)
(0.379934 0.0468426 -1.76091e-20)
(0.366371 0.047497 -2.73897e-20)
(0.352067 0.0482629 -1.66131e-20)
(0.336013 0.0492097 -3.93381e-20)
(0.319479 0.0503097 3.09131e-21)
(0.303338 0.0514881 -9.7885e-20)
(0.287607 0.0527593 3.91131e-20)
(0.271072 0.0542241 -1.43242e-19)
(0.253011 0.0559739 1.79808e-19)
(0.234516 0.0580264 -3.34073e-19)
(0.21621 0.0602898 2.09237e-19)
(0.197838 0.0628426 -3.03977e-19)
(0.178254 0.0658494 6.40899e-20)
(0.157488 0.0695207 -2.8755e-19)
(0.136166 0.0737736 -2.51422e-19)
(0.114702 0.0789812 -3.55685e-19)
(0.0922137 0.0849365 -1.73423e-19)
(0.0684651 0.0931881 5.61098e-19)
(0.0427486 0.100746 2.03486e-19)
(0.0187022 0.111936 -5.32461e-19)
(3.5 1.05288e-15 -8.54744e-23)
(3.5 1.88464e-15 1.07798e-22)
(3.5 1.09167e-15 -1.63269e-22)
(3.5 6.33058e-16 2.29379e-22)
(3.5 -3.04699e-15 2.05994e-22)
(3.5 -1.80499e-15 4.18087e-22)
(3.5 -7.12604e-16 9.87509e-23)
(3.5 -5.32434e-16 -1.80872e-22)
(3.5 1.11925e-15 -2.74761e-23)
(3.5 3.17342e-15 -5.44349e-23)
(3.5 2.03106e-15 -7.53133e-22)
(3.5 4.12003e-15 1.33365e-22)
(3.5 8.82976e-15 -2.14462e-22)
(3.5 6.03423e-15 -2.13978e-23)
(3.5 1.18592e-15 -4.55082e-22)
(3.5 5.8619e-16 -3.32361e-22)
(3.5 2.06197e-15 1.43098e-23)
(3.5 2.57785e-15 7.67879e-23)
(3.5 3.59868e-15 1.70577e-22)
(3.5 5.0474e-15 -5.13213e-22)
(3.5 5.07637e-15 -5.7929e-22)
(3.5 2.27838e-15 -4.86632e-22)
(3.5 1.64073e-15 -5.03751e-22)
(3.5 -8.09009e-16 -4.48231e-22)
(3.5 -1.88202e-15 -3.29937e-22)
(3.5 -1.6032e-15 -1.67032e-22)
(3.5 -3.58788e-16 -2.86213e-22)
(3.5 7.94995e-16 -4.96765e-22)
(3.5 -7.61266e-16 -3.1431e-22)
(3.5 -2.63236e-15 2.13737e-22)
(3.5 -2.92282e-15 1.54626e-22)
(3.5 -1.99363e-15 8.63691e-23)
(3.5 3.56801e-15 1.43266e-22)
(3.5 4.31507e-14 3.92372e-23)
(3.5 6.11345e-13 1.68209e-23)
(3.5 9.36297e-12 1.70982e-22)
(3.5 1.44372e-10 1.52858e-22)
(3.5 2.22448e-09 1.20777e-22)
(3.5 3.41131e-08 1.91422e-22)
(3.49998 5.09755e-07 1.8306e-22)
(3.49964 6.44904e-06 1.82201e-22)
(3.49391 -4.73864e-05 2.27572e-22)
(3.38067 0.00397399 3.21123e-22)
(2.47278 0.0266173 -6.54545e-22)
(1.35336 0.0319872 -1.06897e-21)
(1.02125 0.0357036 4.16445e-21)
(0.948064 0.0376349 9.16427e-22)
(0.925959 0.0384396 1.48082e-20)
(0.912918 0.0389175 -1.55813e-21)
(0.903248 0.0395151 -4.27125e-21)
(0.894837 0.0401759 3.10774e-21)
(0.886862 0.0408291 4.35133e-21)
(0.878613 0.0414477 1.7024e-20)
(0.869686 0.0420218 3.28592e-21)
(0.859461 0.0424792 3.0553e-21)
(0.849091 0.0428803 -5.56525e-21)
(0.83972 0.0433987 -9.33025e-21)
(0.83171 0.0440828 -2.71135e-22)
(0.824263 0.0447461 3.54582e-22)
(0.816064 0.0453531 -1.64264e-21)
(0.806677 0.0458875 -1.19974e-20)
(0.795971 0.0462816 1.69678e-21)
(0.78558 0.0466252 -4.74051e-21)
(0.776378 0.0471303 -1.14828e-20)
(0.768776 0.0477773 -4.07064e-21)
(0.761295 0.0483923 -1.21573e-20)
(0.75273 0.0489615 -4.39994e-21)
(0.742314 0.0494145 -1.15038e-20)
(0.731003 0.0496872 8.06336e-21)
(0.720809 0.0499916 -1.06558e-20)
(0.712144 0.0504482 1.01757e-20)
(0.70464 0.0509503 -1.43262e-21)
(0.696434 0.0514311 -4.1097e-21)
(0.686515 0.0518606 2.40795e-20)
(0.674757 0.0521328 -7.28338e-21)
(0.663508 0.0523387 1.2087e-20)
(0.65382 0.0526246 -3.2745e-20)
(0.645667 0.052949 2.6476e-20)
(0.637227 0.0532644 2.87111e-21)
(0.627249 0.0535771 4.23287e-21)
(0.615078 0.0538055 -1.64774e-20)
(0.603034 0.0539851 -2.25188e-20)
(0.592422 0.0542058 3.59689e-20)
(0.583297 0.0544288 -2.5124e-20)
(0.574013 0.054641 -1.96029e-21)
(0.563177 0.0548598 -1.89773e-20)
(0.550266 0.0550552 1.41078e-20)
(0.537535 0.0552759 9.85827e-21)
(0.526137 0.0555354 1.94837e-22)
(0.515886 0.0557948 3.88811e-20)
(0.505176 0.056066 -1.47881e-20)
(0.492532 0.0563777 7.32571e-20)
(0.478527 0.056739 4.35612e-20)
(0.465042 0.0571967 7.59253e-20)
(0.452762 0.0576939 4.76283e-20)
(0.440761 0.0582068 8.79157e-20)
(0.427577 0.0587836 7.92724e-20)
(0.412564 0.0594567 7.4596e-20)
(0.397389 0.0602588 8.81752e-20)
(0.382943 0.0611882 6.3888e-20)
(0.369001 0.0621631 2.70671e-20)
(0.354293 0.0632267 8.33255e-20)
(0.337908 0.0644342 8.35487e-20)
(0.321125 0.0658106 6.13801e-20)
(0.304736 0.0673374 8.15655e-20)
(0.288707 0.0690121 7.36169e-20)
(0.271873 0.070909 -2.93819e-20)
(0.253564 0.0731018 2.07115e-19)
(0.234845 0.0756469 -9.89884e-20)
(0.216305 0.0784982 -1.30587e-19)
(0.197747 0.0817404 -3.31775e-20)
(0.178072 0.0855235 -1.83209e-19)
(0.157307 0.0900662 3.66155e-19)
(0.136064 0.0953177 -2.95122e-19)
(0.114813 0.101749 3.92028e-19)
(0.0925788 0.108993 -4.95304e-19)
(0.0695011 0.118961 -3.63244e-19)
(0.0447289 0.128498 1.01303e-19)
(0.021322 0.13967 7.65892e-19)
(3.5 -2.15901e-16 1.13306e-22)
(3.5 1.8051e-15 2.68682e-23)
(3.5 2.26684e-15 8.64741e-23)
(3.5 2.38723e-15 -1.68643e-22)
(3.5 -5.14468e-16 -1.81641e-22)
(3.5 1.50043e-16 -1.05649e-21)
(3.5 5.83598e-16 -7.68618e-22)
(3.5 -1.30832e-15 6.04838e-23)
(3.5 2.43026e-15 -7.36112e-22)
(3.5 5.66948e-15 -6.98467e-22)
(3.5 2.23204e-15 -2.98256e-22)
(3.5 3.37393e-15 -1.09194e-21)
(3.5 3.36354e-15 -1.24436e-21)
(3.5 1.80557e-15 -2.69738e-22)
(3.5 2.89119e-15 -4.81593e-22)
(3.5 4.77574e-15 -2.16218e-22)
(3.5 6.99794e-15 -1.45772e-21)
(3.5 3.73412e-15 3.44918e-22)
(3.5 2.16396e-15 -5.31468e-22)
(3.5 2.35013e-15 -7.21324e-22)
(3.5 1.65484e-15 -6.21395e-22)
(3.5 7.68269e-16 -5.96956e-22)
(3.5 1.84505e-15 -2.85057e-23)
(3.5 1.36682e-15 -1.10266e-22)
(3.5 -7.36718e-16 2.48708e-22)
(3.5 -1.78851e-15 5.04505e-22)
(3.5 -2.10986e-15 5.33271e-22)
(3.5 -2.63158e-15 4.64063e-22)
(3.5 -3.02183e-15 4.31874e-22)
(3.5 -4.91304e-15 9.97337e-23)
(3.5 -4.31868e-15 9.77753e-23)
(3.5 -3.53041e-15 1.26365e-23)
(3.5 9.54737e-16 3.69198e-23)
(3.5 4.22798e-14 3.78369e-24)
(3.5 6.26079e-13 3.78181e-23)
(3.5 9.53809e-12 7.1215e-23)
(3.5 1.46144e-10 1.02925e-22)
(3.5 2.24009e-09 1.32295e-22)
(3.5 3.42004e-08 1.28436e-22)
(3.49998 5.07361e-07 1.24898e-22)
(3.49967 6.18412e-06 1.36337e-22)
(3.49435 -6.63798e-05 1.46948e-22)
(3.38533 0.00442214 4.70802e-22)
(2.4889 0.0322384 1.21649e-21)
(1.35786 0.0401237 3.23617e-21)
(1.02047 0.0454325 -8.60341e-21)
(0.945352 0.0478653 1.07538e-21)
(0.922293 0.0485367 3.4789e-21)
(0.909023 0.0489819 2.65012e-20)
(0.899411 0.0496779 9.37142e-21)
(0.891111 0.050457 2.85926e-20)
(0.883093 0.0511683 -2.15155e-20)
(0.874722 0.0518213 1.25043e-20)
(0.865544 0.0524217 -1.61189e-20)
(0.855097 0.0529459 -1.03513e-20)
(0.844866 0.0534599 -1.6384e-20)
(0.835724 0.054169 -2.28857e-20)
(0.827993 0.0549866 -2.10504e-20)
(0.820485 0.0557226 -1.32265e-20)
(0.812092 0.0563972 -4.5362e-21)
(0.802481 0.0569995 -1.24357e-21)
(0.791664 0.0574891 -3.11608e-20)
(0.781449 0.0579982 -1.77692e-20)
(0.772576 0.0586972 -1.36148e-20)
(0.765252 0.0594537 -1.86228e-20)
(0.757719 0.0601186 -1.93662e-20)
(0.748976 0.0607275 -1.15951e-20)
(0.738312 0.0612479 -2.44334e-20)
(0.727095 0.0616595 1.11421e-20)
(0.717163 0.0621595 -3.023e-20)
(0.708859 0.0627592 5.41543e-21)
(0.701487 0.0633287 -7.03221e-21)
(0.693265 0.0638395 -3.29292e-20)
(0.683179 0.0642992 -4.36252e-21)
(0.671419 0.0646501 -1.06342e-20)
(0.660407 0.0650355 5.51276e-21)
(0.651015 0.065469 -1.23559e-20)
(0.643036 0.0658985 -3.61195e-22)
(0.634695 0.0662807 -3.99038e-20)
(0.624682 0.0666104 2.06586e-21)
(0.61258 0.0668531 -1.21632e-20)
(0.600817 0.0671385 1.86989e-20)
(0.590586 0.0675026 -3.28384e-20)
(0.581772 0.0678737 1.39689e-20)
(0.572716 0.0681711 2.22304e-20)
(0.56193 0.0684127 2.50858e-20)
(0.549242 0.0685714 3.22788e-20)
(0.536913 0.0688265 2.03675e-20)
(0.525941 0.0691962 9.49019e-22)
(0.516019 0.0695654 -3.20642e-20)
(0.505519 0.0698905 -5.10631e-20)
(0.493023 0.0701888 -1.22875e-19)
(0.47938 0.0705156 -1.22475e-19)
(0.46633 0.0710464 -1.35197e-19)
(0.454458 0.0716542 -9.51021e-20)
(0.442703 0.0722974 -1.74479e-19)
(0.42965 0.0729678 -1.0513e-19)
(0.414905 0.0737218 -2.28639e-19)
(0.400087 0.0746921 -6.96941e-21)
(0.386023 0.0758521 -2.45805e-19)
(0.372282 0.077098 -1.25974e-20)
(0.35757 0.0784508 -9.38252e-20)
(0.341167 0.0799564 -1.13913e-19)
(0.324331 0.0817016 -2.5219e-20)
(0.307783 0.0837019 -1.89199e-19)
(0.291447 0.0858282 -5.99116e-20)
(0.274261 0.088167 -7.00722e-21)
(0.255666 0.0908011 -2.16107e-19)
(0.236726 0.093855 4.3692e-19)
(0.217996 0.0972809 -3.67785e-19)
(0.199237 0.101166 5.16366e-19)
(0.179403 0.105654 -3.41376e-19)
(0.158619 0.110973 -3.97887e-19)
(0.137504 0.117103 7.04226e-19)
(0.116546 0.12468 -9.10512e-19)
(0.0945824 0.133157 -1.84015e-18)
(0.0720225 0.144615 -2.89407e-18)
(0.048093 0.156017 -3.35289e-18)
(0.0248217 0.166963 -4.12975e-18)
(3.5 -8.89724e-16 3.43286e-22)
(3.5 -2.17759e-15 1.93475e-22)
(3.5 -7.67339e-16 -8.28457e-23)
(3.5 6.02439e-16 -2.98358e-22)
(3.5 1.02253e-15 6.02928e-22)
(3.5 9.77188e-17 5.14994e-22)
(3.5 9.52032e-16 -3.46464e-22)
(3.5 2.51821e-15 7.67521e-22)
(3.5 3.35639e-15 8.9612e-23)
(3.5 2.3402e-15 -6.91553e-23)
(3.5 6.33144e-15 -2.12345e-22)
(3.5 6.55502e-15 1.93268e-23)
(3.5 3.82318e-15 9.63289e-22)
(3.5 6.0855e-15 -2.97028e-22)
(3.5 7.05706e-15 -6.98232e-22)
(3.5 5.04467e-15 -4.8598e-22)
(3.5 1.89915e-15 6.96487e-22)
(3.5 4.17843e-16 2.25208e-22)
(3.5 1.88311e-15 4.35585e-22)
(3.5 1.34322e-15 1.12e-21)
(3.5 -1.30269e-15 1.12824e-21)
(3.5 -2.76999e-15 1.10594e-21)
(3.5 -1.51113e-15 8.69681e-22)
(3.5 8.75382e-16 1.83973e-21)
(3.5 1.41326e-15 6.19793e-22)
(3.5 2.27473e-15 3.37253e-22)
(3.5 1.02481e-15 3.70279e-22)
(3.5 -1.70338e-15 6.92588e-22)
(3.5 -1.99972e-15 6.66373e-22)
(3.5 -6.87716e-16 1.89237e-22)
(3.5 -6.51238e-17 3.00656e-22)
(3.5 4.83162e-16 4.76134e-22)
(3.5 2.23916e-15 6.49031e-22)
(3.5 4.73379e-14 7.47356e-22)
(3.5 7.59912e-13 8.09464e-22)
(3.5 1.18358e-11 9.04577e-22)
(3.5 1.84531e-10 9.82348e-22)
(3.5 2.88381e-09 1.04888e-21)
(3.5 4.5007e-08 1.13952e-21)
(3.49998 6.82299e-07 1.22421e-21)
(3.49971 8.33746e-06 1.21318e-21)
(3.49502 -9.03653e-05 1.13927e-21)
(3.39246 0.00626571 1.17403e-21)
(2.51472 0.0429788 1.38307e-21)
(1.36601 0.0523152 1.21799e-21)
(1.02149 0.0576468 8.93645e-22)
(0.944841 0.0598457 -5.89248e-21)
(0.921378 0.0604012 -2.75485e-20)
(0.908297 0.0609048 -1.98463e-20)
(0.898947 0.0617134 -4.21465e-20)
(0.890774 0.062553 -2.88089e-20)
(0.882704 0.0633071 -3.66151e-20)
(0.874187 0.0640049 -3.16883e-20)
(0.864729 0.0646518 -1.39924e-20)
(0.854166 0.0652418 -7.2754e-21)
(0.844131 0.0658727 -3.57003e-20)
(0.835219 0.0666974 5.67955e-21)
(0.827643 0.0675608 5.34481e-22)
(0.819966 0.0683343 -1.13666e-20)
(0.811347 0.069061 -7.02614e-21)
(0.801449 0.0697301 -1.39781e-20)
(0.790588 0.0703236 9.76157e-22)
(0.780554 0.0709843 2.2997e-20)
(0.771931 0.071785 9.14228e-21)
(0.764643 0.0725441 3.04531e-20)
(0.756872 0.0732051 1.8867e-20)
(0.747818 0.0738278 1.64992e-20)
(0.736859 0.0743904 1.60284e-20)
(0.72574 0.0749349 8.49818e-21)
(0.715906 0.0755861 1.31304e-20)
(0.707714 0.0762371 -2.74252e-21)
(0.700172 0.0767697 1.33567e-20)
(0.691668 0.0772215 -1.88949e-20)
(0.681208 0.0776472 3.09877e-21)
(0.669366 0.0780454 -5.0715e-22)
(0.658453 0.0785477 1.60908e-22)
(0.649161 0.0790828 -6.0659e-22)
(0.641086 0.0795021 1.07617e-20)
(0.632472 0.0797983 -2.79996e-21)
(0.622114 0.0800347 -6.43817e-21)
(0.60999 0.0802453 -6.25971e-21)
(0.598443 0.0805705 -5.0762e-21)
(0.588423 0.0809585 -6.75769e-21)
(0.579619 0.0812944 -1.09985e-20)
(0.570398 0.081542 4.51164e-21)
(0.559376 0.08172 1.48593e-19)
(0.546823 0.0818413 -2.05432e-20)
(0.534893 0.0821394 1.87026e-19)
(0.524374 0.0826008 1.62453e-20)
(0.514605 0.0830753 1.82022e-19)
(0.504082 0.0834947 1.84803e-19)
(0.49153 0.0838645 1.9874e-19)
(0.478279 0.0842009 2.0472e-19)
(0.465812 0.0847858 1.29634e-19)
(0.454505 0.0855485 1.81902e-19)
(0.443044 0.0863863 2.64991e-20)
(0.430047 0.0872642 2.12121e-19)
(0.41561 0.0881556 2.10218e-19)
(0.401258 0.0892871 1.79675e-20)
(0.387713 0.0906867 1.55155e-19)
(0.374288 0.092227 -2.47003e-20)
(0.359686 0.0938971 8.54415e-20)
(0.343538 0.095739 -8.61947e-21)
(0.327088 0.0978638 1.56026e-19)
(0.311042 0.100312 -1.60081e-20)
(0.294971 0.102964 6.45954e-20)
(0.277655 0.105886 -1.67889e-20)
(0.258922 0.109073 2.23149e-20)
(0.239787 0.112709 -7.37939e-20)
(0.220863 0.116723 3.82422e-19)
(0.201852 0.121213 -5.16291e-19)
(0.181784 0.126334 2.81933e-19)
(0.160955 0.132333 -4.47324e-19)
(0.139958 0.139202 -5.17449e-19)
(0.11931 0.147795 2.94672e-18)
(0.0975436 0.157476 6.21457e-18)
(0.0753998 0.170324 7.58735e-18)
(0.0524094 0.183583 8.10035e-18)
(0.0289638 0.194207 8.57568e-18)
(3.5 -1.2104e-15 -6.46272e-22)
(3.5 -3.20993e-15 -5.19784e-22)
(3.5 -4.61194e-15 -6.38904e-22)
(3.5 -2.65242e-15 -8.8227e-22)
(3.5 -3.35122e-16 -8.5652e-22)
(3.5 -2.11893e-15 -4.266e-22)
(3.5 -1.71947e-16 3.31618e-22)
(3.5 6.97765e-15 -8.07217e-22)
(3.5 5.88343e-15 -2.82841e-22)
(3.5 3.92787e-15 -4.35917e-22)
(3.5 5.50555e-15 -1.98892e-22)
(3.5 5.37608e-15 -9.24934e-23)
(3.5 4.34289e-15 1.49712e-21)
(3.5 3.81433e-15 2.96333e-21)
(3.5 2.60957e-15 3.27147e-21)
(3.5 1.15291e-15 1.87744e-21)
(3.5 -3.64701e-15 3.70928e-21)
(3.5 -9.83958e-16 1.77e-21)
(3.5 -5.42015e-16 2.32267e-21)
(3.5 -1.41828e-15 2.99568e-21)
(3.5 -1.63679e-15 2.25648e-21)
(3.5 -2.16968e-15 1.69804e-21)
(3.5 -1.16222e-15 1.56325e-21)
(3.5 1.033e-15 1.91255e-21)
(3.5 8.33464e-16 2.57761e-21)
(3.5 -1.27644e-16 2.34869e-21)
(3.5 -1.95476e-15 2.07068e-21)
(3.5 -2.92948e-15 1.89851e-21)
(3.5 -2.95552e-15 1.768e-21)
(3.5 -1.42647e-15 2.03751e-21)
(3.5 -7.8447e-16 1.84366e-21)
(3.5 1.03869e-16 1.85197e-21)
(3.5 3.50938e-15 1.72315e-21)
(3.5 5.77709e-14 1.79182e-21)
(3.5 9.32636e-13 1.524e-21)
(3.5 1.44544e-11 1.4167e-21)
(3.5 2.22378e-10 1.3966e-21)
(3.5 3.42783e-09 1.27816e-21)
(3.5 5.29172e-08 1.28349e-21)
(3.49999 7.96704e-07 1.34513e-21)
(3.49977 9.23481e-06 1.34545e-21)
(3.49596 -0.00011992 1.3504e-21)
(3.40254 0.00781684 1.07326e-21)
(2.55276 0.0521763 1.74299e-21)
(1.38016 0.0635413 1.72146e-21)
(1.02744 0.0693891 -6.17098e-21)
(0.948749 0.071814 -1.61003e-20)
(0.924647 0.0723563 1.68107e-20)
(0.911692 0.0728843 -4.75754e-20)
(0.902603 0.0737634 8.30861e-21)
(0.894542 0.0746671 -4.83503e-21)
(0.886433 0.0755282 1.04311e-20)
(0.877779 0.0763291 9.81463e-21)
(0.86802 0.0770651 2.07056e-20)
(0.857399 0.0776867 -1.67986e-20)
(0.847547 0.0783841 4.56168e-20)
(0.838947 0.0793179 -4.29521e-21)
(0.831498 0.0802776 1.31815e-20)
(0.823662 0.0811507 -1.66715e-20)
(0.814785 0.0819692 7.12302e-21)
(0.804542 0.0827097 -7.20496e-21)
(0.793694 0.0833597 -1.46897e-20)
(0.78385 0.0841513 -3.52916e-20)
(0.775418 0.0851231 1.11797e-20)
(0.768092 0.0860103 1.51667e-20)