/*--------------------------------*- C++ -*----------------------------------*\
| =========                 |                                                 |
| \\      /  F ield         | OpenFOAM: The Open Source CFD Toolbox           |
|  \\    /   O peration     | Version:  2.2.x                                 |
|   \\  /    A nd           | Web:      www.OpenFOAM.org                      |
|    \\/     M anipulation  |                                                 |
\*---------------------------------------------------------------------------*/
FoamFile
{
    version     2.0;
    format      ascii;
    class       volScalarField;
    location    "0.55";
    object      p;
}
// * * * * * * * * * * * * * * * * * * * * * * * * * * * * * * * * * * * * * //

dimensions      [1 -1 -2 0 0 0 0];

internalField   nonuniform List<scalar> 
14161
(
0.197771
0.199416
0.200182
0.199763
0.199795
0.199882
0.200007
0.200028
0.200003
0.199868
0.199679
0.199499
0.199171
0.198946
0.198799
0.198558
0.198426
0.198328
0.198065
0.197791
0.197361
0.196816
0.195979
0.195081
0.194305
0.193313
0.191578
0.190291
0.189349
0.188567
0.18781
0.186637
0.185539
0.184379
0.183386
0.18243
0.181758
0.180934
0.179748
0.178681
0.177912
0.17734
0.176867
0.176544
0.176315
0.176153
0.176347
0.176542
0.17704
0.177816
0.180579
0.179231
0.299408
1.39021
1.7106
1.83729
1.87745
1.82856
1.75662
1.68985
1.61188
1.54292
1.47469
1.42477
1.36593
1.31
1.2651
1.23216
1.20624
1.17739
1.14691
1.11603
1.09241
1.07313
1.06169
1.05878
1.07496
1.10376
1.1817
1.28378
1.39194
1.48881
1.56032
1.60544
1.64652
1.68308
1.71071
1.72756
1.75145
1.77264
1.79246
1.81663
1.8403
1.86157
1.87919
1.89629
1.91098
1.92121
1.93012
1.9395
1.94738
1.95817
1.96666
1.97659
1.98439
1.99374
2.00041
2.00471
2.0031
1.99991
1.99517
1.99315
1.99344
1.99771
2.00198
2.00431
2.00216
2.00104
1.9999
0.206264
0.198967
0.199394
0.19961
0.199851
0.199887
0.199841
0.19982
0.199786
0.199857
0.199916
0.200258
0.200623
0.200512
0.199942
0.199313
0.19865
0.197668
0.196773
0.195959
0.195525
0.195257
0.19504
0.194696
0.1946
0.194488
0.19391
0.192667
0.19126
0.189902
0.188421
0.186859
0.185332
0.183847
0.182565
0.1815
0.180558
0.179823
0.179166
0.178403
0.177708
0.177274
0.177026
0.176983
0.177049
0.17728
0.177587
0.178069
0.178842
0.180093
0.182924
0.182539
0.304335
1.32481
1.61361
1.74546
1.76198
1.70105
1.63976
1.59609
1.54378
1.49101
1.44043
1.39331
1.34959
1.30604
1.27398
1.24082
1.20932
1.18892
1.17172
1.15759
1.15181
1.15077
1.16314
1.18892
1.23801
1.29252
1.36652
1.41655
1.48183
1.543
1.58586
1.62912
1.68589
1.71428
1.71692
1.7551
1.78173
1.78923
1.81264
1.83958
1.85709
1.8737
1.89823
1.91378
1.92462
1.93639
1.94379
1.95119
1.95831
1.96724
1.97465
1.98388
1.99096
1.99864
2.00408
2.00774
2.00653
2.0036
1.9992
1.9971
1.99734
2.00112
2.00439
2.00658
2.0053
2.00399
2.00223
0.192724
0.203391
0.201879
0.200443
0.200241
0.20031
0.200391
0.200245
0.200004
0.199676
0.199257
0.198675
0.198032
0.197825
0.19837
0.19877
0.199157
0.199582
0.200016
0.199919
0.198835
0.197372
0.196076
0.19468
0.192872
0.191078
0.189423
0.188393
0.187505
0.187149
0.186989
0.186651
0.186252
0.185533
0.184753
0.183916
0.182913
0.181779
0.180707
0.179656
0.178701
0.177824
0.176524
0.175546
0.174902
0.173979
0.172835
0.171724
0.171042
0.170131
0.171791
0.171643
0.210192
1.16604
1.51081
1.67156
1.68863
1.61109
1.55718
1.50368
1.45023
1.40047
1.36417
1.32141
1.28526
1.25042
1.22391
1.19265
1.17006
1.14759
1.13184
1.11854
1.11164
1.10963
1.11864
1.12903
1.18207
1.21063
1.28172
1.34421
1.40556
1.4569
1.55646
1.6258
1.65139
1.67951
1.73247
1.74708
1.75284
1.79518
1.81589
1.8181
1.848
1.87216
1.88444
1.90318
1.91795
1.92727
1.93623
1.94419
1.95128
1.96052
1.96832
1.97778
1.98501
1.99191
1.9961
1.99906
1.99856
1.99649
1.99352
1.99218
1.99309
1.99673
1.99922
2.00257
2.00303
2.00287
2.0027
0.211071
0.195945
0.197454
0.199195
0.199738
0.199672
0.199528
0.199576
0.199818
0.200015
0.200408
0.201053
0.201851
0.20191
0.200775
0.199553
0.198659
0.197071
0.195631
0.194523
0.194354
0.194494
0.195012
0.195367
0.195979
0.196491
0.196503
0.195487
0.193613
0.191737
0.189769
0.187488
0.185631
0.183611
0.182069
0.180852
0.179824
0.178966
0.178272
0.177701
0.177244
0.177016
0.176793
0.176702
0.176582
0.177029
0.177381
0.17763
0.177593
0.176816
0.175168
0.170701
0.167633
0.870004
1.2977
1.488
1.47958
1.40832
1.37831
1.35758
1.33238
1.31015
1.28964
1.25496
1.23685
1.2052
1.1889
1.15832
1.14178
1.12051
1.10562
1.09147
1.08581
1.08105
1.08292
1.07924
1.11637
1.13776
1.19126
1.2249
1.27905
1.3548
1.43106
1.50864
1.58974
1.6421
1.67646
1.70841
1.74479
1.76761
1.7896
1.81766
1.83081
1.84994
1.87237
1.8905
1.90591
1.91857
1.92803
1.93511
1.94192
1.95051
1.95872
1.96909
1.97659
1.98324
1.98728
1.99009
1.99079
1.99049
1.98914
1.98864
1.98972
1.99371
1.99662
2.00048
2.00137
2.0013
2.00277
0.185614
0.206162
0.203716
0.201183
0.200577
0.200563
0.200678
0.20048
0.200153
0.199773
0.199148
0.19829
0.197211
0.196692
0.197316
0.198126
0.198999
0.199813
0.200787
0.201132
0.200053
0.198304
0.196269
0.194385
0.192114
0.1897
0.187359
0.185914
0.185187
0.1851
0.185135
0.185309
0.185289
0.185039
0.184509
0.183768
0.182655
0.181616
0.18057
0.179453
0.178291
0.177271
0.17602
0.174892
0.173858
0.172079
0.169685
0.167212
0.164533
0.160944
0.15425
0.146281
0.151732
0.33394
1.23265
1.35446
1.34278
1.30774
1.29342
1.2783
1.26201
1.24586
1.24246
1.20738
1.20138
1.16917
1.15843
1.13004
1.11817
1.09603
1.08666
1.07504
1.06715
1.05978
1.05863
1.07191
1.07532
1.1358
1.13781
1.17339
1.19052
1.23137
1.30411
1.40467
1.49434
1.55619
1.62192
1.67955
1.72146
1.75419
1.782
1.79448
1.80397
1.82953
1.85798
1.88415
1.90603
1.91846
1.92764
1.9415
1.95443
1.96289
1.96414
1.96576
1.97054
1.97881
1.98609
1.99244
1.99754
2.00086
2.00269
2.00347
2.00363
2.00677
2.00863
2.01211
2.01081
2.0084
2.00792
0.215111
0.194085
0.196672
0.199319
0.199939
0.199907
0.199812
0.199894
0.200252
0.2005
0.201025
0.20188
0.202956
0.20334
0.202129
0.200645
0.19962
0.197619
0.195925
0.194457
0.194098
0.194426
0.195083
0.195825
0.196709
0.197594
0.19818
0.19754
0.195909
0.19355
0.191286
0.189299
0.186604
0.184678
0.182827
0.181294
0.179999
0.179065
0.178254
0.177565
0.176952
0.176501
0.176193
0.176045
0.176048
0.176773
0.177786
0.17877
0.179861
0.181822
0.184131
0.183294
0.188615
0.23285
1.03255
1.40471
1.37887
1.34269
1.29765
1.25326
1.23572
1.22229
1.21757
1.1794
1.1709
1.14032
1.12845
1.10319
1.09598
1.07585
1.06729
1.05496
1.04571
1.03776
1.03473
1.05275
1.04322
1.10594
1.1147
1.13986
1.13127
1.15419
1.2277
1.3319
1.43804
1.53786
1.60604
1.64851
1.68586
1.72964
1.77527
1.81697
1.84857
1.86731
1.87064
1.87757
1.89496
1.91235
1.9259
1.93381
1.93869
1.94456
1.95199
1.96114
1.96733
1.97351
1.97864
1.98274
1.98652
1.98811
1.98894
1.98905
1.98933
1.99278
1.99545
1.99958
1.99797
1.99279
1.99427
0.178963
0.206299
0.203826
0.200965
0.199834
0.19974
0.200012
0.199875
0.199542
0.199049
0.198382
0.197381
0.196044
0.19511
0.195668
0.196406
0.197777
0.198608
0.199727
0.200492
0.199848
0.198198
0.196188
0.194108
0.191614
0.188753
0.186162
0.184199
0.183233
0.182586
0.182633
0.182989
0.182977
0.182881
0.182554
0.181831
0.181041
0.180215
0.179271
0.178164
0.177149
0.176307
0.175619
0.174777
0.174212
0.172422
0.170613
0.168503
0.166507
0.164294
0.162874
0.163566
0.170623
0.271972
1.46518
1.58145
1.46002
1.37319
1.31429
1.25977
1.2248
1.20105
1.18366
1.14632
1.13825
1.10493
1.09732
1.07123
1.06367
1.04511
1.03779
1.02816
1.02147
1.01355
1.00876
1.00069
1.0427
1.06294
1.09924
1.07869
1.12224
1.12768
1.21652
1.32413
1.43425
1.53329
1.60737
1.65675
1.68837
1.72819
1.76344
1.79449
1.82344
1.84828
1.8638
1.87934
1.89433
1.90991
1.92297
1.93172
1.93896
1.94654
1.95355
1.96256
1.96845
1.97423
1.97968
1.98353
1.98782
1.98873
1.9889
1.98782
1.98835
1.9911
1.99342
1.99583
1.99304
1.98675
1.99259
0.218854
0.193985
0.196989
0.19985
0.200532
0.200627
0.200543
0.200568
0.200787
0.201033
0.201473
0.202277
0.203314
0.203992
0.202957
0.201501
0.200705
0.198699
0.196943
0.195218
0.194371
0.194287
0.194759
0.19563
0.196248
0.196966
0.197606
0.197405
0.196152
0.194215
0.192116
0.190171
0.187564
0.185524
0.183371
0.18167
0.180261
0.179096
0.1781
0.177158
0.176412
0.175727
0.175208
0.174812
0.174386
0.175324
0.176591
0.178355
0.179879
0.181526
0.183409
0.18512
0.188254
0.358116
1.54141
1.5644
1.44791
1.36049
1.29928
1.24563
1.21122
1.18209
1.16467
1.13097
1.1243
1.08664
1.07998
1.05053
1.0435
1.02243
1.01043
0.999979
0.992719
0.985114
0.982106
0.963387
1.01621
1.02315
1.07032
1.04864
1.10605
1.1173
1.20269
1.308
1.41834
1.52539
1.60839
1.65984
1.6917
1.73238
1.76315
1.79042
1.8169
1.84063
1.86206
1.87936
1.89366
1.90543
1.91641
1.92798
1.93958
1.9505
1.95715
1.96525
1.97115
1.97824
1.98561
1.9921
1.99993
2.00323
2.00542
2.00417
2.00519
2.00645
2.00545
2.00374
1.994
1.98407
1.98956
0.174255
0.204554
0.202443
0.20009
0.198849
0.198796
0.198953
0.198945
0.198711
0.198282
0.19784
0.196954
0.195771
0.194746
0.195115
0.19569
0.19683
0.197577
0.198619
0.199459
0.199232
0.197961
0.196156
0.194779
0.192131
0.189646
0.186943
0.184767
0.183395
0.182394
0.181915
0.181651
0.181262
0.181149
0.180777
0.180296
0.179589
0.178673
0.177818
0.177168
0.176502
0.175811
0.175159
0.174714
0.174307
0.173162
0.171604
0.170465
0.169289
0.168336
0.167845
0.168104
0.174067
0.366636
1.54818
1.56694
1.48409
1.39031
1.31506
1.2591
1.21526
1.18472
1.16396
1.12259
1.1152
1.07203
1.06494
1.03492
1.02307
1.00716
0.996934
0.985557
0.977641
0.968543
0.967878
0.953199
1.00353
1.00871
1.07096
1.06101
1.14631
1.17493
1.25504
1.3408
1.43522
1.5312
1.61276
1.66413
1.70957
1.74746
1.77424
1.80307
1.8254
1.84286
1.86069
1.87559
1.88965
1.90215
1.91462
1.92568
1.9376
1.95051
1.95866
1.9651
1.9697
1.97548
1.98192
1.98705
1.99304
1.9937
1.9941
1.99095
1.99287
1.99397
1.99545
1.99422
1.98439
1.97705
1.9816
0.221048
0.195165
0.197637
0.199996
0.200772
0.200887
0.200725
0.200592
0.20063
0.200791
0.201053
0.20171
0.202395
0.20303
0.202375
0.201274
0.200584
0.198921
0.197448
0.195786
0.194592
0.19403
0.193977
0.194396
0.194556
0.19499
0.195337
0.195304
0.194362
0.192946
0.190963
0.189289
0.187092
0.185171
0.183111
0.181329
0.179753
0.178286
0.176964
0.175847
0.174868
0.174009
0.173223
0.172613
0.171972
0.172421
0.17349
0.174476
0.175671
0.177395
0.179249
0.18168
0.188448
0.36973
1.46001
1.47759
1.46059
1.38266
1.31924
1.24562
1.19321
1.16159
1.13141
1.12766
1.08006
1.06616
1.03953
1.02291
1.00303
0.992741
0.984198
0.977449
0.971746
0.960531
0.962729
0.957952
1.04614
1.07607
1.17619
1.19972
1.27948
1.32051
1.3762
1.43908
1.50499
1.58064
1.64369
1.6847
1.72786
1.76021
1.78886
1.81764
1.83655
1.85403
1.87016
1.88239
1.89443
1.90393
1.91602
1.92939
1.94162
1.95522
1.96475
1.96976
1.97327
1.97801
1.98394
1.98806
1.99232
1.99035
1.98895
1.98412
1.98626
1.98594
1.98885
1.9881
1.97982
1.97387
1.9771
0.1741
0.2025
0.201255
0.199837
0.198698
0.198682
0.198857
0.198969
0.198885
0.198643
0.198368
0.197828
0.196954
0.196084
0.196163
0.196599
0.197161
0.197604
0.198286
0.198885
0.1989
0.1979
0.196572
0.195397
0.193379
0.191408
0.189124
0.187097
0.185278
0.184014
0.18283
0.181959
0.181413
0.180822
0.180186
0.179447
0.178486
0.177513
0.176618
0.175669
0.17496
0.17442
0.173962
0.173378
0.17262
0.171435
0.170035
0.169057
0.167706
0.166419
0.16288
0.160973
0.163455
0.380618
1.29732
1.32696
1.36853
1.32179
1.29848
1.21956
1.17365
1.12928
1.09892
1.09618
1.03877
1.03596
1.03284
0.99299
0.985963
0.980534
0.978401
0.979159
0.994317
1.01006
1.0853
1.18213
1.28354
1.34027
1.40338
1.43238
1.46271
1.4834
1.51057
1.54569
1.58802
1.63894
1.6819
1.70887
1.74212
1.76626
1.79203
1.81775
1.83691
1.8582
1.8733
1.8857
1.89778
1.90529
1.91673
1.92899
1.93942
1.95169
1.95991
1.96453
1.96937
1.97546
1.9818
1.98573
1.98995
1.98787
1.98795
1.98396
1.98639
1.98431
1.98546
1.98241
1.97408
1.96746
1.9708
0.219971
0.196716
0.19819
0.19959
0.200378
0.200398
0.20024
0.200034
0.199907
0.199964
0.200095
0.200484
0.200792
0.201219
0.20089
0.200286
0.199785
0.198584
0.197478
0.19614
0.194966
0.194045
0.193878
0.193557
0.193237
0.193002
0.192908
0.192675
0.191903
0.190791
0.189323
0.187701
0.186186
0.184184
0.182442
0.18083
0.17865
0.177006
0.175505
0.174254
0.17316
0.17269
0.171656
0.170284
0.168761
0.168684
0.168558
0.168632
0.168355
0.168333
0.167809
0.168785
0.187164
0.640999
1.14271
1.21646
1.25656
1.24619
1.25812
1.20322
1.17408
1.09572
1.0739
1.05621
1.02903
1.0435
1.00723
1.00428
1.00053
1.01864
1.01078
1.07164
1.1759
1.29585
1.42265
1.53257
1.57273
1.58361
1.60037
1.59308
1.59593
1.59833
1.60552
1.61951
1.64756
1.67842
1.70487
1.72481
1.74901
1.76992
1.7974
1.81946
1.83415
1.85531
1.86839
1.88096
1.89493
1.90368
1.91641
1.92815
1.93685
1.94699
1.95618
1.96171
1.96784
1.97507
1.98196
1.98531
1.98827
1.98517
1.98642
1.98275
1.98535
1.98202
1.98211
1.9773
1.96866
1.96022
1.96643
0.178993
0.201502
0.201171
0.20035
0.199287
0.199261
0.199473
0.199694
0.19984
0.199709
0.199393
0.198991
0.198525
0.197983
0.197804
0.197826
0.198015
0.198103
0.198257
0.198387
0.19828
0.197605
0.196591
0.195748
0.194072
0.192505
0.190746
0.189024
0.187363
0.185808
0.184383
0.183087
0.181912
0.180825
0.179996
0.178779
0.177525
0.175963
0.174779
0.173833
0.173102
0.172451
0.171442
0.170433
0.169501
0.168043
0.166518
0.164558
0.163069
0.162108
0.160856
0.161272
0.178743
0.771639
1.04416
1.11017
1.13888
1.16324
1.19169
1.15608
1.1557
1.07553
1.06711
1.03008
1.04724
1.02421
1.04043
1.01909
1.08633
1.19059
1.27403
1.41072
1.54337
1.65172
1.68227
1.696
1.68604
1.6658
1.65799
1.64911
1.64608
1.64838
1.65147
1.66392
1.68442
1.70754
1.72516
1.7435
1.75961
1.77547
1.79703
1.81813
1.8339
1.85126
1.86601
1.87848
1.89212
1.90443
1.91912
1.93095
1.9384
1.9463
1.95701
1.9638
1.97012
1.97735
1.98286
1.98496
1.98738
1.98375
1.98621
1.98279
1.98466
1.98009
1.97879
1.97257
1.96381
1.95483
1.96093
0.215592
0.197708
0.198344
0.199044
0.199475
0.199529
0.199652
0.199538
0.199289
0.199428
0.199674
0.19973
0.199813
0.200074
0.19992
0.199466
0.198938
0.198219
0.197424
0.196435
0.195506
0.194715
0.193983
0.193393
0.192905
0.192389
0.191828
0.191185
0.190224
0.189054
0.187786
0.186399
0.18482
0.183195
0.181573
0.179208
0.177464
0.175754
0.174052
0.172537
0.171139
0.16985
0.168771
0.167887
0.166631
0.165608
0.163869
0.162848
0.162036
0.160832
0.160532
0.161779
0.191016
0.86288
0.975412
1.00568
1.03183
1.08156
1.08763
1.14298
1.11071
1.11635
1.05648
1.08234
1.05727
1.12626
1.15572
1.28288
1.37448
1.52158
1.62544
1.68052
1.70989
1.73495
1.72517
1.71595
1.70265
1.68931
1.6808
1.67167
1.66643
1.67077
1.67321
1.68276
1.69978
1.71998
1.73123
1.74837
1.76551
1.78322
1.80141
1.81851
1.83505
1.85053
1.86818
1.88336
1.89738
1.91177
1.92675
1.9365
1.94161
1.94667
1.95833
1.96542
1.971
1.97779
1.98183
1.98276
1.98538
1.98241
1.98569
1.98206
1.98316
1.97731
1.9745
1.96712
1.95844
1.9495
1.95655
0.185959
0.201223
0.201398
0.200954
0.200218
0.200259
0.200088
0.199996
0.200282
0.200121
0.199948
0.199814
0.199502
0.199119
0.198801
0.198465
0.198284
0.19811
0.197998
0.197815
0.197474
0.196926
0.196195
0.195236
0.19415
0.192772
0.191308
0.189745
0.18817
0.186593
0.185047
0.183551
0.182272
0.181145
0.179425
0.177607
0.175887
0.174215
0.172717
0.171373
0.17015
0.169151
0.168327
0.167101
0.165826
0.16432
0.162452
0.160671
0.158035
0.154144
0.151456
0.157226
0.297755
0.906412
0.950363
0.958221
0.964711
0.986843
1.0063
1.07917
1.08212
1.14028
1.13201
1.22861
1.23333
1.38826
1.48632
1.59238
1.65264
1.68881
1.70899
1.71991
1.72373
1.72273
1.7166
1.70875
1.69857
1.68943
1.6866
1.68515
1.68125
1.68215
1.68639
1.69603
1.71082
1.72646
1.73763
1.75183
1.76628
1.78207
1.79811
1.812
1.82685
1.84226
1.86053
1.87699
1.89067
1.90339
1.92142
1.93195
1.93725
1.94054
1.9533
1.9635
1.96918
1.97529
1.97834
1.97828
1.98203
1.98033
1.98434
1.9804
1.98133
1.97444
1.97109
1.96314
1.95436
1.94476
1.95254
0.209783
0.198397
0.198534
0.198724
0.199262
0.199206
0.199238
0.199165
0.199043
0.19908
0.199201
0.199419
0.199483
0.199475
0.199359
0.199083
0.19874
0.19828
0.197722
0.197079
0.196343
0.195576
0.194783
0.19399
0.193214
0.192342
0.191416
0.190342
0.18919
0.187946
0.186494
0.185122
0.183769
0.18201
0.179843
0.177221
0.175208
0.173342
0.171699
0.170269
0.168777
0.167803
0.166891
0.165011
0.162997
0.159172
0.156228
0.153279
0.150703
0.147541
0.14599
0.162695
0.608977
0.915655
0.935672
0.930126
0.930005
0.939077
0.953785
1.01357
1.05729
1.20061
1.28587
1.4621
1.5509
1.62056
1.66307
1.68724
1.70123
1.7089
1.70679
1.69989
1.70008
1.70214
1.69891
1.69358
1.68703
1.68371
1.68527
1.68854
1.68607
1.68997
1.69599
1.7057
1.71904
1.73207
1.74302
1.75422
1.76579
1.77677
1.78922
1.80184
1.81389
1.83174
1.84982
1.86811
1.88199
1.89356
1.91324
1.92463
1.93058
1.93591
1.94749
1.95842
1.96467
1.97028
1.97355
1.97364
1.97893
1.97876
1.983
1.97829
1.97901
1.97064
1.96674
1.95841
1.94973
1.93931
1.94738
0.192071
0.201048
0.201364
0.200975
0.200349
0.200275
0.200208
0.200041
0.200008
0.199988
0.19993
0.19981
0.199629
0.199349
0.199039
0.198755
0.198471
0.198189
0.197926
0.197519
0.197023
0.196415
0.195621
0.194802
0.193823
0.192497
0.191161
0.189758
0.188292
0.186838
0.185175
0.183897
0.182635
0.180852
0.178099
0.17577
0.17384
0.172093
0.170523
0.169057
0.167632
0.166188
0.165741
0.164138
0.162389
0.160005
0.157398
0.155869
0.154286
0.153034
0.15413
0.179475
0.825495
0.944576
0.946218
0.937991
0.934104
0.941687
0.973904
1.04691
1.18868
1.41764
1.56512
1.65555
1.67154
1.69396
1.69425
1.70013
1.69049
1.68892
1.68996
1.68571
1.68424
1.68235
1.68244
1.68011
1.67791
1.67897
1.68323
1.6868
1.68476
1.68913
1.69636
1.70728
1.72037
1.73214
1.74219
1.75253
1.7643
1.77607
1.78835
1.79974
1.81089
1.82557
1.84186
1.85911
1.87289
1.88399
1.90271
1.91495
1.92207
1.93048
1.94006
1.95103
1.95809
1.96402
1.96859
1.96996
1.97594
1.97674
1.98085
1.97552
1.97579
1.96593
1.96302
1.95521
1.94487
1.93473
1.94233
0.204918
0.198958
0.198995
0.199213
0.199363
0.199395
0.199516
0.199461
0.199443
0.199469
0.199503
0.199529
0.19952
0.19943
0.19926
0.199023
0.198735
0.198355
0.197947
0.197332
0.196627
0.195877
0.195091
0.194376
0.193414
0.192168
0.190993
0.189793
0.188579
0.187336
0.185752
0.184135
0.182657
0.180828
0.178161
0.175328
0.173113
0.171187
0.16947
0.167936
0.166449
0.164793
0.164208
0.162793
0.160731
0.158277
0.154017
0.151108
0.146248
0.142317
0.147468
0.251746
0.907917
0.956434
0.962043
0.959648
0.962789
0.983464
1.04159
1.17142
1.41591
1.62896
1.71369
1.71848
1.71109
1.70944
1.69877
1.69015
1.68217
1.67903
1.68148
1.67866
1.67383
1.66855
1.66784
1.66744
1.66718
1.67083
1.67701
1.68031
1.68046
1.68589
1.69332
1.70417
1.71602
1.72717
1.73842
1.75014
1.76243
1.77457
1.78558
1.79489
1.80398
1.81474
1.83077
1.84859
1.8639
1.87695
1.89475
1.90767
1.91517
1.92491
1.93316
1.94401
1.95245
1.95897
1.96473
1.96705
1.97226
1.97332
1.97737
1.97213
1.97188
1.96064
1.95891
1.95162
1.94015
1.93116
1.93911
0.196175
0.200903
0.200932
0.200552
0.200328
0.200046
0.200014
0.199964
0.199913
0.199869
0.199809
0.199721
0.199575
0.199394
0.199139
0.198839
0.198547
0.198246
0.197903
0.197393
0.196711
0.196051
0.195352
0.194608
0.193487
0.19214
0.190864
0.189546
0.188454
0.187034
0.184949
0.183169
0.181553
0.180089
0.178032
0.17494
0.17255
0.170534
0.16875
0.167069
0.165528
0.163733
0.162625
0.161473
0.158995
0.156453
0.150845
0.147665
0.143814
0.142858
0.160228
0.602936
0.937488
0.95838
0.963398
0.970312
0.991744
1.04223
1.15221
1.37022
1.64034
1.74605
1.75093
1.72756
1.71429
1.70929
1.69419
1.68344
1.67506
1.67218
1.67532
1.6745
1.66702
1.65952
1.65812
1.65638
1.65617
1.66036
1.66575
1.67179
1.67643
1.68398
1.69115
1.70145
1.7124
1.72364
1.73509
1.74691
1.75898
1.77048
1.78018
1.78795
1.79561
1.80359
1.81979
1.83767
1.85546
1.87157
1.88603
1.89732
1.90714
1.9177
1.92581
1.93708
1.94728
1.95417
1.96044
1.96387
1.96741
1.96815
1.97264
1.96779
1.96743
1.95571
1.9548
1.94809
1.9359
1.92752
1.93597
0.201898
0.199554
0.199494
0.199414
0.199719
0.19969
0.199695
0.199677
0.199649
0.199653
0.199646
0.199615
0.199545
0.199429
0.199247
0.198964
0.198675
0.198342
0.197977
0.197361
0.196622
0.195891
0.195198
0.194459
0.193264
0.191948
0.190716
0.189546
0.188646
0.187169
0.184725
0.182771
0.180811
0.179411
0.177616
0.175224
0.172073
0.16968
0.167536
0.165561
0.16371
0.161867
0.160176
0.159715
0.158055
0.15614
0.153633
0.150866
0.149443
0.151179
0.177127
0.849784
0.992281
0.995036
0.996908
1.01055
1.05744
1.1603
1.35744
1.60034
1.75814
1.76945
1.75574
1.72209
1.70451
1.70291
1.68998
1.67648
1.67063
1.66921
1.67051
1.66529
1.65696
1.6511
1.6498
1.64707
1.6456
1.64841
1.65343
1.6613
1.66724
1.67501
1.6823
1.6913
1.70056
1.71198
1.72353
1.73602
1.74831
1.75993
1.76953
1.77801
1.78572
1.79445
1.80931
1.826
1.84502
1.86358
1.8761
1.88425
1.89735
1.90852
1.91787
1.92938
1.94021
1.94815
1.95466
1.95886
1.96106
1.96215
1.9674
1.9625
1.96259
1.95154
1.95015
1.94278
1.93069
1.92451
1.93144
0.198261
0.200507
0.200528
0.200273
0.200151
0.199961
0.19991
0.199851
0.199796
0.199756
0.199718
0.199632
0.199522
0.199381
0.199172
0.198901
0.198577
0.198247
0.197919
0.197382
0.196595
0.195878
0.195154
0.194441
0.193313
0.191844
0.190564
0.18929
0.188434
0.186955
0.18446
0.182378
0.18047
0.178662
0.177348
0.175305
0.172365
0.169464
0.167239
0.16535
0.163718
0.162206
0.160545
0.15955
0.158489
0.156519
0.154373
0.149522
0.145811
0.149474
0.225677
0.942518
1.01278
1.0206
1.03423
1.07692
1.17482
1.35261
1.60063
1.75777
1.77975
1.76331
1.74689
1.7145
1.69886
1.69504
1.68648
1.67558
1.66801
1.66375
1.6591
1.65413
1.64847
1.64443
1.6425
1.63793
1.63542
1.63735
1.64205
1.64963
1.65558
1.6648
1.67287
1.68166
1.69021
1.7006
1.7109
1.72346
1.73564
1.74745
1.75782
1.76673
1.77482
1.78512
1.79834
1.81376
1.83283
1.85189
1.86495
1.87217
1.8869
1.89873
1.90884
1.92101
1.93246
1.94116
1.94723
1.95187
1.95432
1.95645
1.96289
1.95781
1.95822
1.9485
1.94598
1.9369
1.92606
1.91908
1.92534
0.200559
0.199758
0.199799
0.199782
0.199882
0.199863
0.199817
0.199781
0.19974
0.199713
0.19969
0.199614
0.199509
0.19936
0.199207
0.198973
0.198625
0.198262
0.19791
0.19742
0.19661
0.195842
0.195027
0.194349
0.193364
0.191867
0.190523
0.189168
0.188067
0.18667
0.184763
0.182369
0.180294
0.178237
0.176717
0.17483
0.172417
0.169172
0.166615
0.164242
0.161926
0.159706
0.157844
0.15589
0.154433
0.153207
0.150409
0.144412
0.139682
0.153006
0.533626
0.979895
1.01943
1.03461
1.07773
1.16594
1.34545
1.57754
1.74606
1.78373
1.76848
1.7478
1.7427
1.7218
1.69367
1.68578
1.68134
1.67462
1.66754
1.65915
1.65077
1.64546
1.64091
1.63679
1.63361
1.62792
1.62529
1.62737
1.63202
1.63888
1.64385
1.65391
1.66138
1.67015
1.67889
1.68877
1.69749
1.70979
1.72191
1.7346
1.74587
1.75495
1.76376
1.77513
1.78716
1.80164
1.81989
1.83837
1.85286
1.86185
1.87607
1.88813
1.89904
1.91217
1.92381
1.9329
1.9385
1.94382
1.94797
1.95112
1.95863
1.95349
1.95413
1.94557
1.94145
1.93104
1.92105
1.91394
1.91863
0.199331
0.200172
0.200229
0.200109
0.200026
0.199935
0.199875
0.199819
0.199766
0.199716
0.199684
0.199603
0.19949
0.199332
0.199173
0.198951
0.198588
0.198206
0.197826
0.197374
0.196651
0.195796
0.194966
0.194137
0.193302
0.192081
0.190445
0.18896
0.187498
0.186118
0.184503
0.182505
0.18047
0.178534
0.17643
0.174356
0.172063
0.169199
0.166242
0.163969
0.161986
0.16023
0.158687
0.15732
0.156148
0.155504
0.15514
0.154416
0.156902
0.177757
0.825636
1.03642
1.06084
1.09544
1.18972
1.35208
1.5801
1.76646
1.78929
1.77801
1.74577
1.7242
1.73166
1.71628
1.69107
1.67956
1.67515
1.67331
1.66596
1.65403
1.64448
1.63972
1.63521
1.63077
1.62491
1.61827
1.61682
1.61921
1.62288
1.62869
1.63307
1.64243
1.64786
1.65672
1.66592
1.67568
1.68353
1.69503
1.70712
1.72044
1.73255
1.74247
1.75232
1.7633
1.77542
1.78954
1.80733
1.82495
1.84024
1.8524
1.86557
1.87714
1.88889
1.90278
1.91355
1.92351
1.9299
1.93611
1.94236
1.94611
1.95411
1.94922
1.95004
1.94168
1.93658
1.92584
1.91519
1.90749
1.91153
0.200086
0.199876
0.199946
0.199921
0.19996
0.199937
0.199874
0.19982
0.199766
0.199727
0.199685
0.199595
0.199482
0.199326
0.199178
0.198974
0.198602
0.198194
0.197767
0.197358
0.196725
0.19578
0.194921
0.194
0.193321
0.192294
0.19079
0.188966
0.187328
0.185714
0.184079
0.182392
0.181207
0.179302
0.176585
0.173873
0.171604
0.169247
0.166622
0.16401
0.161535
0.159158
0.15663
0.154017
0.151258
0.148395
0.144935
0.141272
0.142569
0.213218
0.932332
1.05401
1.10277
1.19973
1.37401
1.59579
1.76028
1.80068
1.80076
1.77923
1.74019
1.71953
1.72176
1.71105
1.693
1.67827
1.67262
1.67307
1.66488
1.64985
1.6398
1.63489
1.63207
1.6255
1.61609
1.60908
1.60897
1.61184
1.61479
1.6193
1.62309
1.6307
1.63457
1.6428
1.65117
1.66122
1.6694
1.68076
1.69294
1.70641
1.71899
1.72989
1.74027
1.75078
1.76297
1.77719
1.79494
1.8118
1.82744
1.84245
1.85563
1.86626
1.87802
1.89236
1.9028
1.91432
1.92206
1.92912
1.93688
1.94129
1.94963
1.9448
1.9454
1.93618
1.93193
1.92209
1.90864
1.9005
1.90377
0.199731
0.200014
0.20011
0.200055
0.20001
0.199927
0.199886
0.199826
0.199772
0.199724
0.19967
0.199583
0.199455
0.199302
0.199142
0.198951
0.198606
0.198161
0.197712
0.1973
0.19674
0.195775
0.19483
0.193907
0.193049
0.192286
0.191018
0.188844
0.186996
0.185209
0.183534
0.181903
0.180809
0.179376
0.17728
0.173903
0.17123
0.168703
0.166363
0.163944
0.161436
0.159364
0.157307
0.155803
0.15391
0.15186
0.148581
0.148128
0.170704
0.566946
1.02472
1.10442
1.17587
1.38511
1.59297
1.75831
1.79757
1.79584
1.78832
1.77448
1.74166
1.71992
1.71338
1.70786
1.69143
1.67624
1.66825
1.66837
1.65909
1.64348
1.63365
1.62936
1.62671
1.6182
1.60601
1.60021
1.60058
1.60357
1.6057
1.60863
1.6116
1.61797
1.62123
1.62839
1.6352
1.64525
1.65506
1.66708
1.67952
1.69244
1.70522
1.717
1.72801
1.73845
1.75028
1.76405
1.78188
1.79837
1.81416
1.82983
1.8432
1.85399
1.86609
1.88071
1.89158
1.90528
1.91449
1.92239
1.93126
1.93651
1.94506
1.94015
1.9403
1.93073
1.9274
1.9187
1.90118
1.89202
1.8958
0.199937
0.199919
0.199992
0.2
0.2
0.199964
0.199897
0.199827
0.199785
0.199728
0.199667
0.199587
0.199453
0.199299
0.199121
0.198935
0.198627
0.198158
0.197697
0.19723
0.19673
0.195919
0.194821
0.193876
0.1929
0.192295
0.191132
0.189467
0.18734
0.185621
0.184045
0.182568
0.181154
0.180209
0.178302
0.17599
0.172562
0.169981
0.167592
0.165225
0.162501
0.159248
0.156016
0.152476
0.149103
0.14471
0.140244
0.13749
0.167101
0.831472
1.12566
1.24363
1.4231
1.63006
1.7782
1.81024
1.79494
1.76945
1.75959
1.76436
1.74311
1.71646
1.70089
1.69458
1.68176
1.66843
1.6604
1.65816
1.64887
1.63504
1.62468
1.62102
1.61729
1.60907
1.59681
1.59072
1.59091
1.59192
1.59242
1.59447
1.59708
1.60418
1.60728
1.61313
1.6196
1.62917
1.64022
1.65357
1.6662
1.67854
1.69109
1.70317
1.71477
1.72526
1.73684
1.74979
1.76705
1.78312
1.79952
1.81492
1.82875
1.84063
1.85373
1.86792
1.88016
1.89655
1.9071
1.91581
1.92558
1.93166
1.94018
1.9352
1.93499
1.92603
1.92231
1.91299
1.89342
1.88366
1.88802
0.199862
0.199955
0.20001
0.200036
0.200019
0.199971
0.199913
0.199846
0.199802
0.19973
0.199659
0.19958
0.19946
0.199289
0.199089
0.198903
0.198627
0.198148
0.197658
0.197124
0.196702
0.195994
0.194814
0.193766
0.192738
0.191873
0.190979
0.189463
0.187029
0.185122
0.183307
0.181544
0.179806
0.178255
0.176846
0.174424
0.171032
0.16832
0.165798
0.163391
0.161426
0.159467
0.15826
0.157005
0.1561
0.154594
0.154025
0.163827
0.302789
1.13675
1.26276
1.45307
1.64905
1.76693
1.8188
1.83108
1.81642
1.78148
1.75398
1.74449
1.72968
1.70783
1.69195
1.68419
1.6747
1.66109
1.65009
1.64424
1.6353
1.6228
1.61245
1.60988
1.60562
1.59811
1.58732
1.58097
1.58059
1.57868
1.57695
1.5793
1.58197
1.5896
1.59287
1.59756
1.60406
1.61281
1.62477
1.63979
1.65262
1.66501
1.67661
1.68766
1.69955
1.70994
1.72214
1.73457
1.75104
1.76664
1.78311
1.79853
1.81396
1.82719
1.84098
1.85524
1.86885
1.88832
1.89966
1.90928
1.91984
1.92671
1.93497
1.92953
1.92995
1.92249
1.91617
1.9042
1.88559
1.87568
1.88045
0.199897
0.199911
0.19998
0.200023
0.200021
0.199986
0.199932
0.199873
0.199805
0.199749
0.199666
0.199567
0.199462
0.199281
0.199079
0.198864
0.1986
0.198152
0.19763
0.197096
0.196616
0.195993
0.195013
0.193799
0.192756
0.191744
0.191073
0.189788
0.188054
0.186151
0.184723
0.183497
0.182383
0.181539
0.180615
0.179575
0.178027
0.176285
0.174519
0.172877
0.171296
0.169461
0.167485
0.165136
0.162376
0.155042
0.151715
0.168089
0.929292
1.28521
1.50963
1.68035
1.78381
1.80288
1.78559
1.78158
1.78396
1.76136
1.73653
1.72188
1.71063
1.69438
1.67971
1.67118
1.66367
1.65172
1.63864
1.63042
1.62086
1.60948
1.60007
1.59847
1.59438
1.58715
1.57783
1.5722
1.57018
1.56546
1.56217
1.56487
1.56737
1.57545
1.57801
1.58162
1.58848
1.59692
1.60921
1.62633
1.63859
1.64983
1.66079
1.6713
1.6835
1.69387
1.70693
1.71904
1.73477
1.75026
1.76676
1.78241
1.79914
1.81312
1.82753
1.8429
1.85794
1.87962
1.8917
1.90245
1.91382
1.92133
1.92914
1.92337
1.92456
1.91921
1.90966
1.89439
1.87815
1.86824
1.87302
0.199854
0.199932
0.200007
0.200036
0.20003
0.200008
0.199974
0.199896
0.199807
0.199755
0.199661
0.199563
0.199457
0.199276
0.199063
0.198825
0.198568
0.198164
0.197594
0.197041
0.196479
0.195976
0.195122
0.193788
0.192646
0.191522
0.190503
0.189432
0.187696
0.185444
0.183536
0.181647
0.179668
0.177512
0.175101
0.173068
0.169893
0.166241
0.162463
0.158671
0.15517
0.151789
0.148893
0.146707
0.144441
0.143977
0.153325
0.402867
1.47194
1.57299
1.698
1.7734
1.81758
1.81
1.7873
1.76581
1.76007
1.74367
1.7207
1.70427
1.69509
1.68217
1.66459
1.65231
1.64408
1.63551
1.62418
1.61656
1.60767
1.5968
1.58919
1.58675
1.58321
1.57598
1.56765
1.56214
1.55948
1.55164
1.54876
1.55194
1.55307
1.56009
1.56214
1.56593
1.57372
1.58324
1.59344
1.60918
1.62164
1.63124
1.64339
1.6546
1.66686
1.67727
1.6912
1.70277
1.71843
1.73398
1.7506
1.76672
1.78438
1.79855
1.81347
1.83059
1.84722
1.87019
1.88362
1.89569
1.90713
1.91479
1.92222
1.91723
1.91845
1.91389
1.90308
1.88629
1.87079
1.86062
1.86544
0.199871
0.19993
0.199979
0.200022
0.20003
0.200014
0.199973
0.199915
0.199828
0.199757
0.199679
0.199563
0.199442
0.19928
0.199045
0.198782
0.198533
0.198161
0.197577
0.196994
0.196367
0.19593
0.195143
0.193976
0.192712
0.191565
0.190457
0.18968
0.188378
0.186857
0.185562
0.184709
0.184212
0.183942
0.184147
0.184972
0.186114
0.187578
0.190351
0.193547
0.198026
0.20295