/*--------------------------------*- C++ -*----------------------------------*\
| =========                 |                                                 |
| \\      /  F ield         | OpenFOAM: The Open Source CFD Toolbox           |
|  \\    /   O peration     | Version:  2.2.x                                 |
|   \\  /    A nd           | Web:      www.OpenFOAM.org                      |
|    \\/     M anipulation  |                                                 |
\*---------------------------------------------------------------------------*/
FoamFile
{
    version     2.0;
    format      ascii;
    class       surfaceScalarField;
    location    "0.95";
    object      phi;
}
// * * * * * * * * * * * * * * * * * * * * * * * * * * * * * * * * * * * * * //

dimensions      [1 0 -1 0 0 0 0];

internalField   nonuniform List<scalar> 
28084
(
0.000746224
0.00074299
0.000740215
0.000737881
0.000735967
0.000734449
0.000733306
0.000732511
0.00073204
0.000731865
0.00073196
0.000732297
0.00073285
0.000733591
0.000734494
0.000735533
0.000736681
0.000737914
0.000739209
0.000740547
0.000741907
0.00074327
0.000744617
0.000745932
0.0007472
0.000748405
0.00074954
0.000750592
0.000751552
0.00075241
0.000753164
0.000753804
0.000754313
0.000754678
0.000754938
0.000755084
0.000755095
0.000754963
0.000754683
0.000754248
0.000753624
0.00075287
0.000751998
0.00075099
0.000749825
0.000759061
0.000768609
0.000778533
0.000789058
0.000800372
0.000812674
0.000830179
0.000855394
0.000886602
0.000916887
0.000943878
0.00096863
0.000991199
0.00101257
0.00103352
0.00105414
0.00107439
0.00109409
0.00111249
0.00112965
0.00114625
0.00116235
0.00117665
0.00118925
0.00120107
0.00121241
0.00122359
0.00123253
0.00123984
0.00124658
0.00125318
0.0012609
0.00126607
0.00126799
0.00126931
0.00127094
0.00127495
0.00127552
0.00127336
0.00127097
0.00126778
0.00126374
0.00125772
0.00125116
0.00124648
0.00124405
0.00123652
0.00122503
0.00120915
0.00118609
0.0011522
0.00110539
0.00104156
0.000964853
0.000883984
0.000807195
0.000740357
0.00068224
0.000630741
0.000583909
0.000542013
0.000504532
0.000470424
0.000438619
0.000408691
0.000379274
0.000349287
0.000316924
0.000281211
0.00023996
0.00019319
0.000139223
8.19884e-05
3.71208e-06
3.23527e-06
0.000749741
2.77581e-06
0.000748786
2.33511e-06
0.000748262
1.91523e-06
0.000748151
1.51864e-06
0.000748434
1.14444e-06
0.00074909
7.95496e-07
0.000750095
4.72281e-07
0.000751423
1.75273e-07
0.000753048
-9.48084e-08
0.000754943
-3.37502e-07
0.000757078
-5.52809e-07
0.000759424
-7.41341e-07
0.000761952
-9.03435e-07
0.000764632
-1.03898e-06
0.000767436
-1.14941e-06
0.000770335
-1.23737e-06
0.000773301
-1.30208e-06
0.000776305
-1.34511e-06
0.000779323
-1.36611e-06
0.000782334
-1.36898e-06
0.000785317
-1.35418e-06
0.000788249
-1.32318e-06
0.000791111
-1.27903e-06
0.000793884
-1.21952e-06
0.000796555
-1.14965e-06
0.000799106
-1.06754e-06
0.000801528
-9.77558e-07
0.000803811
-8.76628e-07
0.000805944
-7.67867e-07
0.000807918
-6.52695e-07
0.00080973
-5.27609e-07
0.000811369
-3.95914e-07
0.000812819
-2.70854e-07
0.00081408
-1.4411e-07
0.000815183
-1.10174e-08
0.000816121
1.30389e-07
0.000816868
2.73503e-07
0.000817414
4.22037e-07
0.000817764
5.74898e-07
0.000817915
7.27509e-07
0.00081783
8.77959e-07
0.000817572
1.03267e-06
0.000817154
1.19103e-06
0.000816565
-9.25252e-06
0.000815783
-9.61346e-06
0.000824523
-1.00238e-05
0.000833557
-1.07021e-05
0.000843016
-1.17875e-05
0.000853095
-1.36984e-05
0.000864765
-2.04661e-05
0.000880177
-2.74471e-05
0.000905583
-3.16096e-05
0.000936754
-3.01094e-05
0.00096942
-2.67322e-05
0.000996874
-2.45e-05
0.00102092
-2.2362e-05
0.00104349
-2.12279e-05
0.00106492
-2.0767e-05
0.00108555
-2.03492e-05
0.001106
-1.99292e-05
0.00112616
-1.95685e-05
0.0011458
-1.86074e-05
0.00116464
-1.72307e-05
0.001182
-1.64105e-05
0.00119817
-1.59384e-05
0.0012138
-1.47208e-05
0.00122877
-1.29204e-05
0.00124177
-1.16561e-05
0.00125324
-1.12918e-05
0.00126401
-1.08942e-05
0.00127458
-9.69653e-06
0.00128463
-8.12843e-06
0.0012924
-7.06433e-06
0.00129885
-6.67043e-06
0.00130494
-6.62754e-06
0.0013107
-5.83184e-06
0.00131767
-4.02338e-06
0.00132031
-2.22405e-06
0.0013201
-1.22384e-06
0.00132012
-6.15002e-07
0.00132032
-3.736e-08
0.00132245
6.72114e-08
0.00132187
5.82619e-07
0.00131866
1.96396e-06
0.00131412
3.09316e-06
0.00130888
5.28093e-06
0.00130251
6.76647e-06
0.00129528
7.08738e-06
0.00128787
6.93759e-06
0.00128197
7.71873e-06
0.00127503
9.77026e-06
0.00126369
1.43306e-05
0.00124752
2.15406e-05
0.00122374
3.30402e-05
0.00118935
4.90764e-05
0.00114127
6.76326e-05
0.00107611
7.81384e-05
0.000995436
8.05179e-05
0.000913333
7.49296e-05
0.000837353
6.67462e-05
0.00076791
5.93496e-05
0.000706542
5.25691e-05
0.00065251
4.69731e-05
0.000604338
4.19667e-05
0.000560553
3.78374e-05
0.000521188
3.42713e-05
0.000485388
3.17536e-05
0.000452102
2.99035e-05
0.00042062
2.94113e-05
0.000390549
2.99803e-05
0.00036068
3.2346e-05
0.000330156
3.57044e-05
0.000297042
4.12839e-05
0.000260355
4.68647e-05
0.00021839
5.40192e-05
0.000172856
5.71736e-05
0.000121223
8.18616e-05
6.49021e-05
5.11238e-06
4.19102e-06
0.000754436
3.30133e-06
0.000755732
2.44712e-06
0.000757429
1.63289e-06
0.000759514
8.64187e-07
0.000761968
1.40598e-07
0.000764771
-5.32107e-07
0.0007679
-1.1523e-06
0.000771327
-1.71873e-06
0.000775025
-2.22968e-06
0.000778965
-2.6837e-06
0.000783118
-3.0809e-06
0.000787451
-3.42221e-06
0.000791932
-3.70796e-06
0.000796531
-3.93868e-06
0.000801215
-4.11638e-06
0.000805955
-4.24635e-06
0.000810718
-4.32779e-06
0.000815475
-4.36366e-06
0.000820198
-4.35488e-06
0.000824864
-4.30792e-06
0.000829452
-4.22403e-06
0.000833937
-4.10653e-06
0.000838298
-3.96102e-06
0.000842515
-3.78564e-06
0.000846572
-3.58761e-06
0.000850456
-3.36702e-06
0.000854152
-3.12868e-06
0.000857654
-2.86931e-06
0.000860947
-2.59478e-06
0.000864025
-2.30832e-06
0.000866883
-2.00079e-06
0.000869504
-1.68741e-06
0.000871877
-1.38323e-06
0.00087404
-1.07488e-06
0.000875991
-7.57393e-07
0.00087771
-4.22038e-07
0.000879179
-8.66863e-08
0.000880397
2.56855e-07
0.000881369
6.07394e-07
0.000882081
9.55649e-07
0.000882543
1.30058e-06
0.00088279
1.65367e-06
0.000882825
2.01046e-06
0.000882658
-1.80078e-05
0.00088223
-1.87278e-05
0.000890438
-1.96106e-05
0.00089893
-2.0995e-05
0.0009078
-2.39717e-05
0.000917376
-3.05893e-05
0.000929006
-4.90035e-05
0.000947975
-6.09123e-05
0.000979287
-6.46414e-05
0.0010131
-5.74432e-05
0.00104322
-5.05776e-05
0.00106961
-4.6791e-05
0.00109214
-4.35238e-05
0.00111325
-4.17825e-05
0.00113384
-4.1123e-05
0.00115394
-4.02855e-05
0.00117392
-3.9306e-05
0.00119351
-3.82645e-05
0.0012125
-3.61875e-05
0.00123038
-3.34307e-05
0.00124671
-3.17257e-05
0.00126188
-3.07396e-05
0.00127665
-2.84358e-05
0.00129067
-2.48296e-05
0.00130278
-2.23039e-05
0.00131355
-2.16456e-05
0.00132327
-2.08936e-05
0.00133307
-1.85231e-05
0.00134191
-1.53204e-05
0.00134875
-1.30809e-05
0.00135456
-1.23169e-05
0.00135979
-1.19027e-05
0.00136448
-1.0571e-05
0.00137154
-7.12942e-06
0.00137385
-3.34775e-06
0.00137263
-8.12469e-07
0.00137143
6.40399e-07
0.00137053
1.79185e-06
0.00136957
2.13295e-06
0.0013682
3.9755e-06
0.00136412
6.15129e-06
0.00135891
8.58854e-06
0.00135171
1.18681e-05
0.00134194
1.42643e-05
0.00133144
1.52686e-05
0.00132124
1.6817e-05
0.00130997
1.97172e-05
0.00129625
2.56e-05
0.00127719
3.7403e-05
0.00124915
5.452e-05
0.00120736
8.02173e-05
0.00115077
0.000116088
0.00107402
0.000151224
0.000988201
0.000161371
0.000911111
0.00015549
0.000842158
0.00014308
0.000780708
0.000128307
0.000725924
0.000114561
0.000676269
0.000101724
0.000630667
9.09546e-05
0.000588145
8.15038e-05
0.000548037
7.40024e-05
0.000510657
6.76753e-05
0.000475535
6.31741e-05
0.000442146
5.99593e-05
0.000409958
5.92803e-05
0.000378351
6.04924e-05
0.000346245
6.54338e-05
0.000313427
7.23745e-05
0.000278328
8.32801e-05
0.000241438
9.24878e-05
0.000200341
0.000105693
0.000156804
0.000113427
0.00010814
0.000146645
5.61139e-05
4.23105e-06
2.89633e-06
0.000760309
1.60475e-06
0.000763823
3.6338e-07
0.000767711
-8.20417e-07
0.00077196
-1.93773e-06
0.000776556
-2.98653e-06
0.000781477
-3.95818e-06
0.0007867
-4.85004e-06
0.000792199
-5.65874e-06
0.000797943
-6.38176e-06
0.000803903
-7.01643e-06
0.000810047
-7.56278e-06
0.000816342
-8.02163e-06
0.000822752
-8.39324e-06
0.000829244
-8.67931e-06
0.000835785
-8.88162e-06
0.000842342
-9.00731e-06
0.000848881
-9.05823e-06
0.000855368
-9.03789e-06
0.000861777
-8.94941e-06
0.000868077
-8.79992e-06
0.000874248
-8.5934e-06
0.000880266
-8.33451e-06
0.000886107
-8.03112e-06
0.00089175
-7.6842e-06
0.000897178
-7.29944e-06
0.000902377
-6.88553e-06
0.000907333
-6.44091e-06
0.000912039
-5.96619e-06
0.000916478
-5.47153e-06
0.000920643
-4.95422e-06
0.000924529
-4.40888e-06
0.000928101
-3.86876e-06
0.000931417
-3.33217e-06
0.00093448
-2.78658e-06
0.000937265
-2.22673e-06
0.000939744
-1.64996e-06
0.000941922
-1.07449e-06
0.000943802
-4.83246e-07
0.000945379
1.05189e-07
0.00094665
6.90762e-07
0.00094766
1.27588e-06
0.00094841
1.86874e-06
0.000948911
2.4718e-06
0.000949136
-2.6248e-05
0.000949026
-2.73204e-05
0.000956706
-2.86456e-05
0.00096464
-3.08354e-05
0.000972871
-3.61559e-05
0.00098164
-5.11291e-05
0.000991698
-8.36206e-05
0.0010055
-9.70044e-05
0.00103299
-9.50956e-05
0.00106305
-8.37399e-05
0.00109261
-7.29164e-05
0.00111937
-6.76112e-05
0.00114363
-6.3751e-05
0.00116583
-6.17905e-05
0.0011873
-6.10903e-05
0.00120814
-5.97427e-05
0.00122833
-5.8128e-05
0.00124777
-5.60636e-05
0.00126637
-5.26337e-05
0.00128382
-4.86605e-05
0.00130004
-4.6279e-05
0.00131515
-4.47664e-05
0.00132986
-4.11611e-05
0.00134361
-3.58518e-05
0.00135558
-3.21958e-05
0.00136653
-3.11974e-05
0.00137592
-3.01981e-05
0.00138565
-2.66339e-05
0.0013937
-2.17734e-05
0.00139964
-1.81289e-05
0.00140505
-1.65271e-05
0.00140904
-1.60457e-05
0.00141218
-1.4219e-05
0.00141786
-9.73241e-06
0.00142031
-4.2738e-06
0.00141899
-1.78806e-08
0.00141757
2.56587e-06
0.00141581
4.25988e-06
0.00141284
6.84031e-06
0.00140899
9.17032e-06
0.00140491
1.28936e-05
0.00139802
1.75002e-05
0.00138844
2.15584e-05
0.00137711
2.44257e-05
0.00136336
2.79206e-05
0.00134579
3.25419e-05
0.00132369
4.05268e-05
0.00129461
5.48006e-05
0.00125489
7.85791e-05
0.00120153
0.000109671
0.00112532
0.000156737
0.00102617
0.000202868
0.000930789
0.00022894
0.000854288
0.00023079
0.00079372
0.000216071
0.000743212
0.000197247
0.000698333
0.000178511
0.000658061
0.000161307
0.000620793
0.000145143
0.000584572
0.000131366
0.000548889
0.000119118
0.000513969
0.000109437
0.000480522
0.000101139
0.000448379
9.53261e-05
0.000416797
9.15671e-05
0.00038557
9.13935e-05
0.000354887
9.33124e-05
0.000323781
0.00010051
0.000291853
0.000109238
0.000258365
0.000124397
0.00022274
0.000136104
0.00018367
0.000154411
0.000142501
0.00016539
9.6988e-05
0.000202637
4.94812e-05
1.10182e-06
-6.16126e-07
0.000767363
-2.28227e-06
0.000773058
-3.88552e-06
0.000779101
-5.41484e-06
0.000785482
-6.85801e-06
0.000792185
-8.20849e-06
0.000799192
-9.45519e-06
0.000806478
-1.05939e-05
0.000814016
-1.16185e-05
0.000821776
-1.25252e-05
0.000829726
-1.33106e-05
0.000837833
-1.39738e-05
0.00084606
-1.4515e-05
0.000854372
-1.49354e-05
0.000862731
-1.52374e-05
0.000871102
-1.54223e-05
0.000879449
-1.54986e-05
0.000887738
-1.54726e-05
0.000895932
-1.53473e-05
0.000904001
-1.51291e-05
0.000911914
-1.48248e-05
0.000919646
-1.44427e-05
0.000927173
-1.39883e-05
0.000934472
-1.3472e-05
0.000941521
-1.28984e-05
0.0009483
-1.22707e-05
0.000954795
-1.16059e-05
0.000960993
-1.08996e-05
0.00096688
-1.01522e-05
0.000972452
-9.37886e-06
0.000977691
-8.57489e-06
0.000982578
-7.75715e-06
0.000987114
-6.93498e-06
0.000991351
-6.10328e-06
0.000995283
-5.26022e-06
0.00099888
-4.40801e-06
0.00100212
-3.54259e-06
0.001005
-2.67552e-06
0.00100753
-1.79837e-06
0.0010097
-9.28631e-07
0.00101154
-5.95975e-08
0.0010131
8.11435e-07
0.00101434
1.70123e-06
0.00101527
2.59145e-06
0.00101586
-3.39838e-05
0.00101607
-3.53855e-05
0.00102324
-3.7074e-05
0.00103065
-3.98762e-05
0.0010383
-4.67626e-05
0.00104626
-6.65714e-05
0.00105472
-0.000114568
0.00106294
-0.000129397
0.0010775
-0.000125025
0.00109765
-0.000110439
0.00112418
-9.70164e-05
0.00115103
-8.96367e-05
0.00117841
-8.48172e-05
0.0012041
-8.2512e-05
0.00122823
-8.1366e-05
0.00125065
-7.91743e-05
0.00127151
-7.66755e-05
0.00129168
-7.35233e-05
0.00131128
-6.89411e-05
0.00133013
-6.39586e-05
0.00134806
-6.08459e-05
0.00136458
-5.84605e-05
0.00137962
-5.36873e-05
0.00139357
-4.6993e-05
0.00140603
-4.21296e-05
0.00141755
-4.05133e-05
0.00142696
-3.89698e-05
0.00143613
-3.43271e-05
0.00144418
-2.79171e-05
0.00144957
-2.22816e-05
0.00145458
-1.95084e-05
0.00145824
-1.81251e-05
0.00146158
-1.62352e-05
0.00146568
-1.16087e-05
0.00146894
-5.18216e-06
0.00146863
6.86331e-07
0.0014667
5.55007e-06
0.00146284
9.12105e-06
0.00145799
1.25813e-05
0.00145107
1.67169e-05
0.00144248
2.24118e-05
0.00143178
2.81226e-05
0.00141958
3.4147e-05
0.00140373
4.10334e-05
0.00138226
4.98728e-05
0.00135207
6.29237e-05
0.00130982
8.33857e-05
0.0012542
0.000110871
0.00117797
0.000155423
0.00107437
0.000209255
0.000961862
0.000252499
0.000866424
0.000279152
0.000791888
0.000288925
0.000735024
0.000281266
0.000692505
0.000259863
0.00065861
0.00023692
0.000626284
0.000216863
0.000595803
0.000198921
0.000566978
0.000181505
0.000537289
0.000166416
0.000507331
0.000152852
0.000477412
0.000141978
0.000447834
0.00013287
0.000418562
0.000126531
0.000389473
0.000122254
0.000360201
0.000122528
0.000330738
0.000125254
0.000300893
0.000133981
0.000270523
0.000144841
0.000238306
0.000163483
0.000204113
0.000177345
0.000167431
0.000199968
0.00012891
0.000212834
8.73306e-05
0.000252006
4.39073e-05
-4.23772e-06
-6.30992e-06
0.000775601
-8.32447e-06
0.000783437
-1.02653e-05
0.000791596
-1.21172e-05
0.00080007
-1.38635e-05
0.000808844
-1.54937e-05
0.0008179
-1.69923e-05
0.000827214
-1.83531e-05
0.000836757
-1.95681e-05
0.000846499
-2.06311e-05
0.000856406
-2.15379e-05
0.000866442
-2.22859e-05
0.000876571
-2.28746e-05
0.000886753
-2.33076e-05
0.000896948
-2.35861e-05
0.000907118
-2.3713e-05
0.000917226
-2.36965e-05
0.000927237
-2.35481e-05
0.000937111
-2.32702e-05
0.000946814
-2.2872e-05
0.000956313
-2.23615e-05
0.00096558
-2.17509e-05
0.000974591
-2.10474e-05
0.000983323
-2.02637e-05
0.000991755
-1.94075e-05
0.000999863
-1.84841e-05
0.00100763
-1.75087e-05
0.00101505
-1.64873e-05
0.00102211
-1.54149e-05
0.00102879
-1.43051e-05
0.00103509
-1.31721e-05
0.00104096
-1.20226e-05
0.00104644
-1.0855e-05
0.00105157
-9.67473e-06
0.00105635
-8.48653e-06
0.00106075
-7.29282e-06
0.00106474
-6.09128e-06
0.00106831
-4.89e-06
0.00107148
-3.68198e-06
0.00107426
-2.48492e-06
0.00107668
-1.27979e-06
0.00107874
-5.99887e-08
0.00108043
1.1546e-06
0.00108177
2.3544e-06
0.00108273
-4.1237e-05
0.00108328
-4.29422e-05
0.00108991
-4.4904e-05
0.00109674
-4.80351e-05
0.00110378
-5.56272e-05
0.00111093
-7.64486e-05
0.00111792
-0.000132933
0.001124
-0.000152453
0.00113014
-0.000152308
0.00114308
-0.000137409
0.00116151
-0.00012433
0.00118526
-0.000115321
0.00121369
-0.000108588
0.00124207
-0.000104721
0.00126775
-0.000102346
0.0012917
-9.95158e-05
0.00131607
-9.64678e-05
0.00133994
-9.26187e-05
0.001363
-8.70313e-05
0.00138459
-8.072e-05
0.00140425
-7.5878e-05
0.00142175
-7.22707e-05
0.00143744
-6.6671e-05
0.00145229
-5.87502e-05
0.00146615
-5.23697e-05
0.00147934
-4.93822e-05
0.00148961
-4.72504e-05
0.00149842
-4.22091e-05
0.00150617
-3.5029e-05
0.00151227
-2.76496e-05
0.00151744
-2.30502e-05
0.0015213
-2.04176e-05
0.00152336
-1.75739e-05
0.00152379
-1.20211e-05
0.00152236
-4.54434e-06
0.00152005
3.05494e-06
0.0015174
9.17099e-06
0.00151219
1.58245e-05
0.00150333
2.20891e-05
0.00149152
2.88256e-05
0.00147687
3.5904e-05
0.00146035
4.44756e-05
0.00144022
5.49652e-05
0.0014127
6.9656e-05
0.0013732
9.06107e-05
0.00131679
0.000118581
0.00123953
0.000161626
0.00113184
0.000216851
0.00100712
0.000269506
0.00089713
0.000305445
0.000810434
0.000326674
0.000741816
0.000335063
0.000688546
0.000330779
0.000648507
0.000314967
0.00061855
0.000291606
0.000593353
0.000267921
0.000568745
0.000247374
0.000543911
0.00022955
0.000519235
0.000211731
0.000493865
0.00019651
0.000468146
0.000182877
0.00044226
0.000171642
0.00041611
0.00016198
0.000389272
0.000155725
0.000361912
0.000151731
0.00033453
0.000152432
0.000306828
0.000155672
0.000278344
0.00016622
0.00024909
0.000179044
0.000218413
0.000200208
0.000186047
0.000215938
0.000152016
0.00024156
0.000116225
0.00025618
7.84122e-05
0.000295811
3.8884e-05
-1.17461e-05
-1.41448e-05
0.000785029
-1.64827e-05
0.000794962
-1.8738e-05
0.000805194
-2.08902e-05
0.000815718
-2.29182e-05
0.000826522
-2.48063e-05
0.000837588
-2.65349e-05
0.00084889
-2.80935e-05
0.0008604
-2.94742e-05
0.000872086
-3.06671e-05
0.000883913
-3.16662e-05
0.000895844
-3.24676e-05
0.000907838
-3.30703e-05
0.000919855
-3.34798e-05
0.000931853
-3.36956e-05
0.00094379
-3.37248e-05
0.000955627
-3.35732e-05
0.000967325
-3.32564e-05
0.000978848
-3.27788e-05
0.000990154
-3.21517e-05
0.00100121
-3.13856e-05
0.00101198
-3.04941e-05
0.00102245
-2.949e-05
0.00103259
-2.83842e-05
0.00104238
-2.71913e-05
0.00105179
-2.59185e-05
0.00106081
-2.45764e-05
0.00106943
-2.31839e-05
0.00107763
-2.17342e-05
0.0010854
-2.02434e-05
0.00109273
-1.87295e-05
0.00109959
-1.71811e-05
0.00110597
-1.56137e-05
0.00111198
-1.40355e-05
0.00111759
-1.2456e-05
0.00112279
-1.08732e-05
0.00112752
-9.28705e-06
0.00113178
-7.71051e-06
0.00113558
-6.12437e-06
0.00113895
-4.54541e-06
0.00114191
-2.95281e-06
0.00114446
-1.36122e-06
0.00114658
2.1915e-07
0.00114831
1.77413e-06
0.00114965
-4.79471e-05
0.00115058
-4.98982e-05
0.00115674
-5.20571e-05
0.00116309
-5.52687e-05
0.00116968
-6.2806e-05
0.00117656
-8.41958e-05
0.00118427
-0.000143544
0.00118743
-0.000169016
0.00118556
-0.000171626
0.00119113
-0.00016128
0.00120445
-0.000152686
0.00122784
-0.000143676
0.00125642
-0.000134196
0.00128728
-0.000128631
0.00131787
-0.000126862
0.00134983
-0.000123693
0.0013805
-0.000119551
0.00140826
-0.000114251
0.00143359
-0.000107149
0.00145708
-9.89167e-05
0.00147835
-9.20967e-05
0.00149672
-8.69109e-05
0.00151229
-8.04391e-05
0.00152642
-7.18301e-05
0.00153929
-6.34858e-05
0.0015515
-5.83232e-05
0.00156095
-5.49587e-05
0.00156784
-4.93399e-05
0.00157316
-4.15762e-05
0.00157766
-3.34203e-05
0.00158195
-2.73245e-05
0.00158572
-2.2198e-05
0.00158554
-1.60676e-05
0.00158196
-8.53344e-06
0.00157657
-6.66187e-07
0.00157096
7.81039e-06
0.00156623
1.72715e-05
0.00155951
2.64459e-05
0.00154741
3.58268e-05
0.00152881
4.63134e-05
0.00150464
5.85526e-05
0.0014742
7.45063e-05
0.00143534
9.57837e-05
0.00138163
0.000125923
0.00130869
0.000166838
0.00120451
0.000225177
0.00107247
0.000286181
0.00094668
0.000328428
0.000847137
0.000357379
0.000767857
0.000373932
0.000705056
0.000378961
0.000655435
0.00037431
0.000617021
0.000360625
0.000588018
0.000340463
0.000565231
0.000316673
0.000544648
0.000293907
0.000523572
0.000273306
0.000501538
0.000255259
0.000479354
0.000237663
0.00045679
0.00022277
0.000433717
0.000209397
0.000409985
0.000198615
0.000385975
0.000189247
0.000361529
0.000183054
0.000336329
0.000179469
0.000310279
0.000180998
0.000283796
0.000185005
0.00025655
0.000196959
0.00022862
0.000211474
0.000199534
0.00023432
0.000168994
0.000251798
0.00013719
0.000279353
0.000104338
0.000295617
7.02316e-05
0.000334605
3.44143e-05
-2.13777e-05
-2.40766e-05
0.000795654
-2.67139e-05
0.000807635
-2.92615e-05
0.000819893
-3.16931e-05
0.000832423
-3.3982e-05
0.000845212
-3.6107e-05
0.000858242
-3.80445e-05
0.000871489
-3.97785e-05
0.000884925
-4.13003e-05
0.000898515
-4.2597e-05
0.000912221
-4.36602e-05
0.000926005
-4.44844e-05
0.000939826
-4.5069e-05
0.00095364
-4.54187e-05
0.000967403
-4.5535e-05
0.00098107
-4.54251e-05
0.0009946
-4.5098e-05
0.00100795
-4.45655e-05
0.00102109
-4.38421e-05
0.00103396
-4.29388e-05
0.00104654
-4.18683e-05
0.0010588
-4.06461e-05
0.00107069
-3.92879e-05
0.0010822
-3.78084e-05
0.00109332
-3.62247e-05
0.00110401
-3.45491e-05
0.00111426
-3.27891e-05
0.00112405
-3.09674e-05
0.00113336
-2.90883e-05
0.0011422
-2.71632e-05
0.00115054
-2.5207e-05
0.00115837
-2.32175e-05
0.00116565
-2.12023e-05
0.00117249
-1.91759e-05
0.00117891
-1.71576e-05
0.00118488
-1.51417e-05
0.00119035
-1.31249e-05
0.00119529
-1.11171e-05
0.00119971
-9.09647e-06
0.00120365
-7.09826e-06
0.00120714
-5.09131e-06
0.00121016
-3.08926e-06
0.00121268
-1.11255e-06
0.00121479
8.42488e-07
0.0012165
-5.41405e-05
0.00121783
-5.63077e-05
0.00122355
-5.86652e-05
0.00122948
-6.20349e-05
0.00123565
-7.0037e-05
0.00124217
-8.9378e-05
0.00124974
-0.000147267
0.00125224
-0.00017885
0.00124626
-0.00018602
0.00124828
-0.000184908
0.00126253
-0.00018128
0.00128918
-0.000174432
0.00131912
-0.000164755
0.0013519
-0.000160385
0.00138562
-0.000157731
0.0014192
-0.00015195
0.00145214
-0.000145076
0.00148191
-0.000137415
0.00150871
-0.000128566
0.00153393
-0.0001182
0.00155791
-0.000108683
0.00157863
-0.000101112
0.00159474
-9.30768e-05
0.00160828
-8.38997e-05
0.00162132
-7.41368e-05
0.00163393
-6.61756e-05
0.00164353
-6.04942e-05
0.00164842
-5.39226e-05
0.00165105
-4.57811e-05
0.0016534
-3.74671e-05
0.00165615
-2.94122e-05
0.00165747
-2.09609e-05
0.00165339
-1.19871e-05
0.00164543
-2.61178e-06
0.0016352
6.42003e-06
0.00162505
1.69963e-05
0.00161622
2.88565e-05
0.00160387
4.24271e-05
0.00158276
5.72585e-05
0.00155177
7.58359e-05
0.00150974
9.93606e-05
0.00145181
0.000132045
0.0013777
0.000172149
0.00127691
0.00023185
0.0011464
0.000299086
0.00101389
0.000349715
0.000902568
0.00038602
0.000811924
0.000408853
0.000740078
0.000420634
0.000682986
0.000422766
0.000636567
0.000416511
0.000598806
0.000403254
0.000569048
0.000384069
0.000546147
0.000361939
0.00052672
0.000338399
0.000507712
0.000316363
0.000487513
0.000295901
0.000466673
0.000278224
0.000446007
0.000261222
0.000425183
0.000246896
0.000403891
0.000233655
0.000381997
0.000223104
0.000359433
0.000214376
0.000335827
0.000209076
0.000311585
0.000205993
0.000286678
0.000208339
0.000261374
0.000213038
0.00023544
0.000226142
0.000209093
0.000242121
0.000181672
0.000266223
0.000153161
0.000284698
0.000123796
0.000313419
9.36287e-05
0.000331355
6.28603e-05
0.000368941
3.0487e-05
-3.30825e-05
-3.60567e-05
0.000807486
-3.89709e-05
0.000821463
-4.179e-05
0.000835696
-4.44808e-05
0.00085018
-4.70107e-05
0.000864905
-4.93528e-05
0.000879852
-5.14788e-05
0.000894998
-5.3367e-05
0.000910313
-5.50055e-05
0.000925761
-5.63804e-05
0.000941302
-5.74807e-05
0.000956896
-5.82986e-05
0.0009725
-5.88331e-05
0.000988069
-5.90871e-05
0.00100356
-5.90675e-05
0.00101891
-5.87798e-05
0.0010341
-5.82346e-05
0.00104906
-5.74425e-05
0.00106377
-5.64283e-05
0.00107818
-5.52025e-05
0.00109225
-5.37792e-05
0.00110595
-5.21783e-05
0.00111923
-5.0414e-05
0.00113209
-4.85101e-05
0.0011445
-4.64813e-05
0.00115644
-4.43495e-05
0.00116788
-4.2121e-05
0.00117881
-3.98175e-05
0.00118922
-3.74568e-05
0.0011991
-3.50423e-05
0.00120844
-3.25932e-05
0.00121722
-3.01157e-05
0.00122537
-2.76044e-05
0.00123303
-2.50854e-05
0.00124023
-2.25812e-05
0.00124696
-2.00783e-05
0.00125314
-1.75793e-05
0.00125873
-1.50953e-05
0.00126375
-1.2601e-05
0.00126826
-1.0137e-05
0.00127225
-7.67008e-06
0.00127571
-5.22713e-06
0.00127865
-2.81295e-06
0.00128115
-4.32371e-07
0.00128327
-5.98111e-05
0.00128498
-6.21608e-05
0.00129027
-6.47171e-05
0.00129582
-6.83041e-05
0.0013015
-7.69195e-05
0.00130716
-9.39235e-05
0.00131321
-0.000147492
0.00131419
-0.000185664
0.00131033
-0.000201622
0.00131454
-0.000212017
0.00133495
-0.000211375
0.00136492
-0.000207141
0.00139837
-0.000198637
0.00143439
-0.000193793
0.00147188
-0.000190969
0.00150957
-0.000182545
0.00154597
-0.000172545
0.00157836
-0.000162475
0.00160627
-0.000151966
0.00163277
-0.000139786
0.00165719
-0.000126641
0.00167819
-0.000115415
0.00169402
-0.0001057
0.00170602
-9.5733e-05
0.00171746
-8.39526e-05
0.00172739
-7.28163e-05
0.00173602
-6.42115e-05
0.00174091
-5.60824e-05
0.00174139
-4.73304e-05
0.00174017
-3.77457e-05
0.00173811
-2.74691e-05
0.00173629
-1.59845e-05
0.00173033
-4.59693e-06
0.00171736
7.16313e-06
0.00170078
1.88305e-05
0.0016832
3.38362e-05
0.00166121
5.0908e-05
0.00163207
7.15867e-05
0.0015915
9.69876e-05
0.0015349
0.000131971
0.00146048
0.000173255
0.00135754
0.000235457
0.00122201
0.000305973
0.00108414
0.000365768
0.000967009
0.000409614
0.000870004
0.000439576
0.000790197
0.000458264
0.000725124
0.00046707
0.000672695
0.00046714
0.000630341
0.000459493
0.000594272
0.000445911
0.000563534
0.000426867
0.000538882
0.000404603
0.000518806
0.000381865
0.000500201
0.000358783
0.000481104
0.000337317
0.000461362
0.000317121
0.000441361
0.000299706
0.000421041
0.000282938
0.000399977
0.000269087
0.000378702
0.000256395
0.00035724
0.000246715
0.00033548
0.000238513
0.000312782
0.000233974
0.000289403
0.000231371
0.000265356
0.000234388
0.000240969
0.000239518
0.00021601
0.00025369
0.000190964
0.000270747
0.000165169
0.000295671
0.000138575
0.000314897
0.000111689
0.000344142
8.39545e-05
0.000363653
5.60228e-05
0.000399336
2.68385e-05
-4.68065e-05
-5.00325e-05
0.000820536
-5.32024e-05
0.000836451
-5.62732e-05
0.000852603
-5.92044e-05
0.000868987
-6.19569e-05
0.000885595
-6.44969e-05
0.000902407
-6.6792e-05
0.0009194
-6.88138e-05
0.000936543
-7.05459e-05
0.0009538
-7.19735e-05
0.000971128
-7.30844e-05
0.000988485
-7.38673e-05
0.00100583
-7.43202e-05
0.0010231
-7.44453e-05
0.00104027
-7.42535e-05
0.00105727
-7.37489e-05
0.00107407
-7.29452e-05
0.00109061
-7.18537e-05
0.00110685
-7.05046e-05
0.00112275
-6.89089e-05
0.00113827
-6.70842e-05
0.00115337
-6.50539e-05
0.00116802
-6.28361e-05
0.00118218
-6.04557e-05
0.00119585
-5.79341e-05
0.001209
-5.52921e-05
0.00122161
-5.25457e-05
0.00123365
-4.97117e-05
0.00124512
-4.68167e-05
0.00125602
-4.38636e-05
0.00126632
-4.08641e-05
0.00127603
-3.78486e-05
0.00128507
-3.48055e-05
0.00129351
-3.17498e-05
0.00130145
-2.87029e-05
0.00130889
-2.56648e-05
0.00131576
-2.26367e-05
0.00132199
-1.96305e-05
0.00132761
-1.66256e-05
0.00133265
-1.36515e-05
0.00133714
-1.06917e-05
0.00134099
-7.76715e-06
0.00134436
-4.86883e-06
0.00134731
-2.02845e-06
0.00134984
-6.49261e-05
0.00135193
-6.74279e-05
0.00135683
-7.01366e-05
0.001362
-7.37837e-05
0.00136703
-8.24706e-05
0.00137167
-9.77328e-05
0.00137586
-0.00015046
0.00137687
-0.000194457
0.00137496
-0.000223265
0.00138174
-0.000242432
0.00140609
-0.000244903
0.00144099
-0.000243142
0.00148141
-0.000236054
0.00152451
-0.000231233
0.00156792
-0.000227637
0.00160938
-0.000216599
0.0016504
-0.000202093
0.0016876
-0.000188912
0.00171895
-0.000175417
0.0017477
-0.000161271
0.00177294
-0.000144377
0.00179361
-0.000129189
0.0018095
-0.000116957
0.00182142
-0.000105275
0.00182972
-9.1909e-05
0.00183606
-7.84823e-05
0.00184163
-6.63407e-05
0.0018431
-5.52337e-05
0.00183903
-4.43896e-05
0.00183229
-3.31454e-05
0.0018241
-2.06808e-05
0.0018153
-6.21528e-06
0.00180495
7.54952e-06
0.00178833
2.28715e-05
0.00176044
4.2894e-05
0.00172266
6.62719e-05
0.00167579
9.35899e-05
0.00161635
0.000129443
0.00154062
0.00017194
0.0014388
0.000233955
0.00130428
0.000307652
0.00115827
0.000374521
0.00103147
0.000424856
0.000929326
0.000462993
0.000846068
0.000488489
0.000777072
0.000504105
0.000719096
0.00051157
0.000671036
0.000510814
0.00063244
0.000502993
0.000599491
0.000489285
0.000569166
0.000470711
0.00054169
0.000448273
0.00051872
0.000424509
0.000499314
0.000401384
0.000480095
0.000378454
0.000460162
0.000357774
0.000440099
0.000338135
0.000420038
0.00032121
0.000399785
0.000304441
0.00037899
0.000290857
0.000358043
0.000278415
0.000336658
0.000269352
0.000315014
0.000261713
0.000292512
0.00025803
0.000269556
0.0002559
0.000246224
0.000259501
0.000222677
0.000264735
0.00019866
0.00027963
0.000174655
0.000297443
0.000150287
0.000322618
0.000125352
0.000342653
0.000100375
0.000372028
7.47846e-05
0.000392749
4.94963e-05
0.000426042
2.34213e-05
-6.24906e-05
-6.59467e-05
0.000834817
-6.93525e-05
0.000852609
-7.26567e-05
0.000870619
-7.58107e-05
0.000888845
-7.87682e-05
0.000907278
-8.14881e-05
0.000925899
-8.39334e-05
0.000944683
-8.60692e-05
0.0009636
-8.78735e-05
0.000982612
-8.93298e-05
0.00100168
-9.04241e-05
0.00102074
-9.11443e-05
0.00103977
-9.14858e-05
0.00105871
-9.14509e-05
0.0010775
-9.10496e-05
0.00109611
-9.02909e-05
0.00111446
-8.91885e-05
0.00113253
-8.77613e-05
0.00115026
-8.60306e-05
0.00116761
-8.40166e-05
0.00118454
-8.17446e-05
0.001201
-7.92374e-05
0.00121696
-7.65199e-05
0.00123239
-7.36146e-05
0.00124729
-7.0551e-05
0.00126161
-6.73491e-05
0.00127535
-6.40345e-05
0.00128848
-6.06213e-05
0.00130098
-5.71394e-05
0.00131286
-5.35983e-05
0.0013241
-5.00035e-05
0.00133469
-4.63967e-05
0.00134461
-4.27718e-05
0.00135382
-3.91347e-05
0.00136248
-3.55019e-05
0.00137059
-3.1883e-05
0.00137813
-2.8281e-05
0.00138498
-2.47112e-05
0.00139117
-2.11521e-05
0.00139673
-1.76286e-05
0.00140165
-1.4151e-05
0.00140594
-1.06973e-05
0.00140976
-7.28692e-06
0.00141313
-3.91996e-06
0.00141605
-6.94623e-05
0.0014185
-7.21066e-05
0.001423
-7.4918e-05
0.00142769
-7.86049e-05
0.00143199
-8.67132e-05
0.00143572
-0.000102193
0.00143826
-0.000155614
0.00144177
-0.000205525
0.00144557
-0.000248455
0.0014601
-0.000277514
0.00149395
-0.000285296
0.00153671
-0.000286206
0.00158448
-0.000279564
0.00163558
-0.000273495
0.00168714
-0.000267728
0.00173634
-0.000254906
0.00178232
-0.00023639
0.0018248
-0.000218927
0.00186131
-0.000200297
0.00188922
-0.000181694
0.00191086
-0.000160764
0.00192661
-0.000142222
0.00194022
-0.000126164
0.00194767
-0.000111393
0.00194988
-9.60773e-05
0.00194862
-7.98989e-05
0.00194722
-6.39765e-05
0.00194478
-5.03668e-05
0.00193523
-3.65035e-05
0.00192025
-2.18289e-05
0.00190391
-8.22315e-06
0.00188466
9.35657e-06
0.00185765
3.20402e-05
0.00182126
5.76253e-05
0.0017709
8.85091e-05
0.0017052
0.000126113
0.00162049
0.000171518
0.00151108
0.000234243
0.00137374
0.000308505
0.00122767
0.000379611
0.00109667
0.000434187
0.000988041
0.000477675
0.000899294
0.000509148
0.00082818
0.000531663
0.000769207
0.000545385
0.000719212
0.000551968
0.000676133
0.000551641
0.000639889
0.000545011
0.000609301
0.000533338
0.000581454
0.000515994
0.000555103
0.000494008
0.000530029
0.000469275
0.000507599
0.000444751
0.000487628
0.000421404