/*--------------------------------*- C++ -*----------------------------------*\
| =========                 |                                                 |
| \\      /  F ield         | OpenFOAM: The Open Source CFD Toolbox           |
|  \\    /   O peration     | Version:  2.2.x                                 |
|   \\  /    A nd           | Web:      www.OpenFOAM.org                      |
|    \\/     M anipulation  |                                                 |
\*---------------------------------------------------------------------------*/
FoamFile
{
    version     2.0;
    format      ascii;
    class       volScalarField;
    location    "0.2";
    object      Bz;
}
// * * * * * * * * * * * * * * * * * * * * * * * * * * * * * * * * * * * * * //

dimensions      [1 0 -2 0 0 -1 0];

internalField   nonuniform List<scalar> 
14161
(
3.00776e-20
2.99639e-20
3.00503e-20
2.96305e-20
2.87027e-20
2.80708e-20
2.73621e-20
2.6061e-20
2.54115e-20
2.41054e-20
2.33011e-20
2.20256e-20
2.09873e-20
1.99655e-20
1.89786e-20
1.85726e-20
1.80428e-20
1.71977e-20
1.68598e-20
1.59213e-20
1.54955e-20
1.498e-20
1.41748e-20
1.38737e-20
1.31796e-20
1.29162e-20
1.24896e-20
1.22199e-20
1.18612e-20
1.20939e-20
1.19861e-20
1.21236e-20
1.20357e-20
1.21905e-20
1.20125e-20
1.22247e-20
1.21257e-20
1.22439e-20
1.21702e-20
1.23306e-20
1.2198e-20
1.23223e-20
1.21859e-20
1.2442e-20
1.19651e-20
1.26934e-20
1.21203e-20
1.30811e-20
1.31551e-20
1.29571e-20
1.2924e-20
1.30913e-20
1.28211e-20
1.26149e-20
1.21502e-20
1.20503e-20
1.19758e-20
1.21955e-20
1.1129e-20
1.11499e-20
1.05155e-20
1.07012e-20
9.62705e-21
1.09291e-20
1.00692e-20
9.97769e-21
1.00487e-20
1.0108e-20
1.01667e-20
9.79248e-21
9.73919e-21
9.50296e-21
9.7484e-21
9.44955e-21
9.41597e-21
9.63193e-21
9.36124e-21
9.58464e-21
8.89324e-21
9.79805e-21
9.1015e-21
1.59636e-20
9.2965e-20
1.04993e-19
7.72536e-20
5.51066e-20
3.90418e-20
2.98229e-20
1.93756e-20
1.60974e-20
1.06005e-20
1.19862e-20
1.16409e-20
1.78654e-20
1.06002e-20
1.6997e-20
1.22831e-20
1.22559e-20
7.32015e-21
9.0184e-21
1.28422e-20
-4.5937e-21
3.08181e-21
4.37895e-22
-7.36738e-21
-6.15325e-21
-3.00362e-20
1.28809e-20
-1.84999e-20
-8.08664e-21
-3.07812e-20
-3.10312e-20
-3.91249e-20
-3.99139e-20
-2.21837e-20
-8.83386e-20
-8.61531e-20
-3.2857e-20
-3.45432e-20
3.12471e-20
3.13466e-20
3.1055e-20
3.06611e-20
3.02532e-20
2.87933e-20
2.80993e-20
2.68677e-20
2.61794e-20
2.48368e-20
2.39594e-20
2.23196e-20
2.14292e-20
2.01395e-20
1.96332e-20
1.93031e-20
1.8698e-20
1.75724e-20
1.73946e-20
1.63765e-20
1.58891e-20
1.5098e-20
1.46194e-20
1.42669e-20
1.38544e-20
1.34333e-20
1.29945e-20
1.29334e-20
1.27482e-20
1.33594e-20
1.28824e-20
1.33266e-20
1.31162e-20
1.31411e-20
1.29905e-20
1.3191e-20
1.28856e-20
1.30688e-20
1.28772e-20
1.31008e-20
1.285e-20
1.30726e-20
1.28188e-20
1.2945e-20
1.29432e-20
1.24446e-20
1.33592e-20
1.42347e-20
1.26446e-20
1.38963e-20
1.31934e-20
1.33469e-20
1.26985e-20
1.30687e-20
1.2781e-20
1.29783e-20
1.27985e-20
1.26834e-20
1.14312e-20
1.15216e-20
1.08477e-20
1.16611e-20
1.08002e-20
1.22695e-20
9.8344e-21
1.1264e-20
1.09064e-20
1.12127e-20
1.05364e-20
1.04854e-20
9.93368e-21
9.96488e-21
9.76717e-21
1.03066e-20
9.43612e-21
1.05626e-20
9.6971e-21
9.89734e-21
9.35804e-21
1.01685e-20
9.70668e-21
1.67047e-20
1.10888e-19
1.28333e-19
1.00296e-19
6.07471e-20
3.75022e-20
2.65166e-20
1.73113e-20
-1.99039e-20
-6.07535e-21
-9.22974e-21
-1.1578e-20
1.4931e-20
5.554e-21
-9.99673e-21
4.31426e-21
-4.01811e-21
1.46365e-20
-2.28939e-20
-7.07583e-21
-1.82929e-20
3.73278e-20
1.61179e-20
1.36362e-20
4.65973e-20
8.64366e-21
2.33704e-20
-3.77554e-20
-7.39432e-21
-6.83772e-21
-5.1791e-20
-7.54868e-20
-8.28195e-20
-1.35939e-19
-1.26295e-19
-1.21919e-19
-2.26502e-19
-2.32443e-19
3.31041e-20
3.21105e-20
3.26631e-20
3.28156e-20
3.15217e-20
3.03577e-20
2.94834e-20
2.83522e-20
2.78556e-20
2.65091e-20
2.56227e-20
2.28653e-20
2.27368e-20
2.22724e-20
2.21808e-20
2.11127e-20
2.037e-20
1.92127e-20
1.87577e-20
1.77744e-20
1.63177e-20
1.60607e-20
1.63804e-20
1.51646e-20
1.41293e-20
1.44885e-20
1.44651e-20
1.46132e-20
1.48782e-20
1.51644e-20
1.4619e-20
1.47087e-20
1.43832e-20
1.46685e-20
1.41619e-20
1.43798e-20
1.42517e-20
1.41674e-20
1.41804e-20
1.41379e-20
1.40663e-20
1.41245e-20
1.39732e-20
1.40841e-20
1.36738e-20
1.48286e-20
1.47632e-20
1.54392e-20
1.42301e-20
1.57772e-20
1.26991e-20
1.50928e-20
1.35871e-20
1.36535e-20
1.37743e-20
1.19512e-20
1.34665e-20
1.24329e-20
1.32641e-20
1.39593e-20
1.13369e-20
1.41229e-20
1.26895e-20
1.21211e-20
1.13888e-20
1.19595e-20
1.23934e-20
1.22891e-20
1.31773e-20
1.10908e-20
1.08719e-20
1.08872e-20
1.09725e-20
1.18948e-20
1.00764e-20
1.2374e-20
9.62995e-21
1.07755e-20
1.03318e-20
1.11982e-20
1.11202e-20
2.64982e-20
1.33887e-19
1.64707e-19
1.20132e-19
6.87349e-20
4.69249e-20
1.93242e-20
2.70015e-20
-1.04047e-20
-8.02637e-21
-4.69771e-21
-4.27505e-20
-2.69795e-21
-6.61842e-20
-2.17014e-21
-3.40599e-20
-3.46195e-20
-4.85618e-20
-8.55578e-21
-5.80148e-20
-3.70783e-20
-7.71688e-20
-3.21154e-20
-9.15302e-20
1.36307e-21
-9.53623e-20
-2.21776e-20
-4.11349e-20
-1.047e-19
-1.34136e-19
-2.17106e-19
-9.48403e-20
-2.07385e-19
-9.47816e-20
-2.09977e-19
-2.46566e-19
-2.87125e-19
-2.93486e-19
3.74757e-20
3.74667e-20
3.6904e-20
3.58127e-20
3.52342e-20
3.36956e-20
3.26673e-20
3.16685e-20
3.0657e-20
2.89991e-20
2.66903e-20
2.57336e-20
2.5379e-20
2.4929e-20
2.57207e-20
2.40978e-20
2.29187e-20
2.1643e-20
1.86742e-20
2.13171e-20
2.02962e-20
2.02539e-20
1.7597e-20
1.85386e-20
1.76832e-20
1.66057e-20
1.79847e-20
1.90304e-20
1.78861e-20
1.62235e-20
1.68814e-20
1.68082e-20
1.6911e-20
1.66614e-20
1.65035e-20
1.63494e-20
1.62111e-20
1.6149e-20
1.61654e-20
1.57664e-20
1.58591e-20
1.53885e-20
1.57906e-20
1.54321e-20
1.5664e-20
1.4114e-20
1.55523e-20
1.39708e-20
1.32012e-20
1.56514e-20
1.38071e-20
1.61948e-20
1.48112e-20
1.75863e-20
1.62802e-20
1.86896e-20
1.82108e-20
1.73589e-20
1.67396e-20
1.70799e-20
1.59478e-20
1.83629e-20
1.48679e-20
1.56386e-20
1.57598e-20
1.44102e-20
1.58811e-20
1.23425e-20
1.59628e-20
1.12666e-20
1.35005e-20
1.23105e-20
1.33867e-20
1.36616e-20
1.23567e-20
1.45505e-20
1.0861e-20
1.34631e-20
1.27804e-20
1.23429e-20
1.40823e-20
4.10464e-20
1.87443e-19
2.18592e-19
1.56424e-19
8.65703e-20
5.11236e-20
6.0885e-20
6.71555e-20
2.40638e-20
1.79025e-20
-2.0752e-20
-6.08267e-20
-5.24636e-21
-7.26233e-20
-1.2809e-20
-1.58451e-20
-1.90031e-20
-5.52184e-20
-7.47941e-20
-8.31775e-20
-1.38635e-19
-1.38019e-19
-2.27603e-19
-1.72778e-19
-2.99922e-19
-2.19691e-19
-3.97973e-19
-2.19188e-19
-2.90085e-19
-2.79899e-19
-1.16729e-19
-1.71289e-19
5.65945e-20
1.00525e-19
1.72565e-19
2.01131e-19
2.11603e-19
2.21373e-19
4.27841e-20
4.39284e-20
4.29639e-20
4.17994e-20
4.04333e-20
3.90615e-20
3.72263e-20
3.53823e-20
3.51441e-20
3.27659e-20
2.90388e-20
3.30979e-20
2.9837e-20
2.91771e-20
2.64854e-20
2.68132e-20
2.81399e-20
2.78642e-20
2.70431e-20
2.06141e-20
2.16497e-20
2.18848e-20
2.16811e-20
2.08449e-20
2.29836e-20
2.35541e-20
2.264e-20
2.14406e-20
2.21757e-20
2.40007e-20
2.27064e-20
2.0957e-20
2.12547e-20
1.97256e-20
1.85164e-20
2.01669e-20
1.98051e-20
1.83869e-20
1.95985e-20
1.85916e-20
1.89567e-20
1.78849e-20
1.96331e-20
1.79396e-20
1.79398e-20
1.94119e-20
1.76141e-20
2.10727e-20
1.82629e-20
1.81069e-20
1.90935e-20
1.9486e-20
2.2676e-20
1.89782e-20
1.81255e-20
1.66461e-20
1.75541e-20
1.85625e-20
1.8762e-20
1.77567e-20
1.69183e-20
1.9383e-20
1.89239e-20
1.73672e-20
1.91348e-20
1.58435e-20
1.86514e-20
1.54874e-20
2.00437e-20
1.76606e-20
1.74976e-20
2.00048e-20
1.54494e-20
2.08458e-20
1.47179e-20
1.99224e-20
1.06031e-20
1.99687e-20
1.66507e-20
1.6303e-20
1.87165e-20
6.60989e-20
2.54974e-19
2.64925e-19
1.90864e-19
1.10228e-19
8.35294e-20
7.06074e-20
7.28937e-20
8.17396e-20
8.98008e-20
1.06145e-19
6.77065e-20
5.66138e-20
7.27487e-20
5.7912e-20
6.54739e-20
2.82262e-20
7.65143e-20
6.02288e-21
1.38144e-19
-1.18532e-21
8.56769e-20
-2.16536e-20
1.07181e-19
-3.18356e-20
1.82105e-19
1.38664e-20
1.88872e-19
3.93822e-19
4.92482e-19
6.49561e-19
7.15586e-19
9.40086e-19
9.00074e-19
1.49472e-18
1.55768e-18
1.53321e-18
1.56886e-18
4.96525e-20
5.03949e-20
5.07686e-20
4.72213e-20
4.67764e-20
4.38145e-20
4.45814e-20
4.49156e-20
3.72555e-20
3.7704e-20
3.96725e-20
3.15373e-20
3.16308e-20
3.63263e-20
3.30473e-20
3.27207e-20
2.53551e-20
3.55338e-20
2.95646e-20
2.82972e-20
2.9059e-20
2.88775e-20
3.13719e-20
2.94476e-20
2.95494e-20
2.96116e-20
2.86429e-20
2.69569e-20
2.59145e-20
2.42905e-20
2.47564e-20
2.34459e-20
2.40097e-20
2.38104e-20
2.33557e-20
2.39021e-20
2.37864e-20
2.39885e-20
2.36809e-20
2.32507e-20
2.38964e-20
2.26554e-20
2.50482e-20
2.21348e-20
2.50909e-20
2.07366e-20
2.34699e-20
2.42729e-20
2.80792e-20
2.39632e-20
2.78462e-20
1.72593e-20
2.40067e-20
1.81744e-20
2.13602e-20
2.01854e-20
1.91421e-20
2.0761e-20
2.22668e-20
2.41482e-20
2.57094e-20
2.00897e-20
2.48633e-20
2.4489e-20
2.52767e-20
2.33467e-20
2.61184e-20
2.253e-20
2.73948e-20
2.11778e-20
2.30077e-20
2.64215e-20
1.89752e-20
2.24099e-20
2.0159e-20
2.32373e-20
1.90084e-20
2.11262e-20
1.87307e-20
2.195e-20
2.726e-20
1.0327e-19
3.21398e-19
3.23017e-19
2.34986e-19
1.49929e-19
9.33728e-20
7.75289e-20
6.81754e-20
7.25365e-20
9.7803e-20
1.05417e-19
1.79728e-19
1.55245e-19
1.65884e-19
1.60839e-19
2.00159e-19
1.98478e-19
2.27488e-19
2.33701e-19
3.31814e-19
2.06387e-19
3.62633e-19
3.51602e-19
3.93892e-19
6.59155e-19
4.46708e-19
9.65452e-19
6.48707e-19
1.06283e-18
1.0366e-18
1.22384e-18
1.59566e-18
1.69562e-18
1.76904e-18
2.09699e-18
2.09565e-18
2.60104e-18
2.68545e-18
5.68043e-20
5.733e-20
5.59647e-20
5.66897e-20
5.85511e-20
5.44855e-20
4.94376e-20
5.25732e-20
4.48237e-20
4.39057e-20
4.42417e-20
4.67765e-20
4.91397e-20
3.86619e-20
3.53998e-20
3.93949e-20
4.59468e-20
4.0191e-20
3.83247e-20
4.43449e-20
4.08711e-20
3.87584e-20
3.36493e-20
3.78892e-20
2.99539e-20
2.9449e-20
3.02829e-20
3.15839e-20
2.9706e-20
2.67474e-20
2.84984e-20
2.97256e-20
3.01542e-20
3.03841e-20
2.9779e-20
2.97556e-20
2.9909e-20
2.9841e-20
2.97206e-20
3.01894e-20
2.95797e-20
2.83721e-20
2.79313e-20
2.75551e-20
2.70828e-20
2.73021e-20
2.63251e-20
2.18051e-20
2.25494e-20
1.99431e-20
2.25732e-20
2.22868e-20
2.26264e-20
2.83576e-20
2.93816e-20
2.51074e-20
3.12706e-20
3.21018e-20
2.91018e-20
3.06668e-20
2.79201e-20
3.07782e-20
3.37352e-20
3.09988e-20
3.34462e-20
3.2254e-20
2.93541e-20
2.90015e-20
2.66542e-20
3.04481e-20
2.52731e-20
3.25134e-20
2.16514e-20
2.72321e-20
2.65226e-20
2.68088e-20
2.57362e-20
2.60283e-20
2.39079e-20
2.69568e-20
3.71372e-20
1.47162e-19
3.82046e-19
3.45061e-19
3.02386e-19
1.47797e-19
1.24523e-19
1.05888e-19
1.05645e-19
1.62623e-19
1.06995e-19
1.66012e-19
1.2414e-19
2.2778e-19
1.94025e-19
3.35946e-19
3.29799e-19
2.10387e-19
3.5555e-19
4.35892e-19
4.26343e-19
6.28388e-19
6.00196e-19
7.82963e-19
7.99741e-19
9.58229e-19
1.08505e-18
1.21674e-18
1.07672e-18
1.3163e-18
1.42891e-18
1.33123e-18
1.15126e-18
1.6427e-18
1.40555e-18
1.48687e-18
1.60116e-18
1.85124e-18
1.8902e-18
6.58643e-20
6.82202e-20
6.82943e-20
6.66668e-20
6.48899e-20
6.51077e-20
6.50533e-20
5.59409e-20
5.71645e-20
5.49792e-20
5.57567e-20
5.59011e-20
6.3696e-20
7.3592e-20
7.05647e-20
5.99386e-20
6.15503e-20
4.63322e-20
4.79583e-20
5.4756e-20
4.27519e-20
3.6221e-20
4.31328e-20
3.40671e-20
4.48487e-20
4.16122e-20
3.94204e-20
3.89068e-20
3.92951e-20
4.05739e-20
3.72166e-20
3.76007e-20
3.5292e-20
3.76736e-20
3.44148e-20
3.27777e-20
3.29524e-20
3.18054e-20
3.11096e-20
3.28278e-20
3.17696e-20
3.38132e-20
3.06861e-20
3.29733e-20
3.23674e-20
3.25826e-20
2.87944e-20
3.66744e-20
2.57915e-20
3.70453e-20
3.36473e-20
4.00335e-20
3.79955e-20
4.27178e-20
3.34102e-20
4.45826e-20
3.61388e-20
3.98017e-20
3.30032e-20
3.84223e-20
3.79439e-20
3.54001e-20
3.17655e-20
4.12259e-20
4.36055e-20
4.02779e-20
4.01267e-20
3.55591e-20
3.87197e-20
4.05466e-20
3.71041e-20
4.26672e-20
3.09898e-20
3.64354e-20
3.42391e-20
3.5574e-20
3.53927e-20
3.42498e-20
3.7187e-20
3.8444e-20
5.30104e-20
2.38336e-19
4.33483e-19
3.59226e-19
2.14785e-19
1.4088e-19
7.24992e-20
6.44297e-20
6.23154e-20
-1.11686e-20
7.50259e-20
1.71459e-19
7.96715e-20
6.96763e-20
1.3125e-19
1.16577e-19
2.68529e-19
2.16411e-19
3.91605e-19
3.95819e-19
4.84305e-19
4.94976e-19
5.66718e-19
7.43188e-19
7.34907e-19
7.45974e-19
7.67493e-19
9.23503e-19
9.12376e-19
5.82785e-19
7.02018e-19
6.22965e-19
6.20443e-19
5.82459e-19
7.19566e-19
1.91516e-19
1.02679e-19
3.46475e-19
3.37624e-19
7.83698e-20
8.00727e-20
7.91693e-20
8.06036e-20
7.38626e-20
7.40389e-20
7.04777e-20
6.78129e-20
7.32761e-20
6.53795e-20
7.26615e-20
7.15434e-20
6.83361e-20
6.52579e-20
6.53755e-20
6.40646e-20
5.44663e-20
7.12367e-20
6.88086e-20
5.59172e-20
6.13945e-20
6.9443e-20
6.07342e-20
6.36226e-20
4.53527e-20
4.91904e-20
5.20399e-20
5.14267e-20
4.70418e-20
5.36858e-20
4.6453e-20
5.12957e-20
4.83582e-20
4.86488e-20
4.58137e-20
4.57816e-20
4.73396e-20
4.63719e-20
4.70965e-20
4.6081e-20
4.56144e-20
4.71875e-20
4.40252e-20
4.67187e-20
4.48334e-20
5.09918e-20
5.02412e-20
5.18599e-20
5.22403e-20
5.31141e-20
4.86339e-20
5.6107e-20
4.54925e-20
5.57596e-20
4.59693e-20
5.45526e-20
5.40902e-20
5.05954e-20
5.61251e-20
5.52224e-20
5.66678e-20
5.70849e-20
5.62058e-20
5.47444e-20
5.28923e-20
5.58424e-20
4.67665e-20
5.9016e-20
5.27489e-20
5.62225e-20
4.47124e-20
5.67481e-20
4.4923e-20
5.97738e-20
4.50792e-20
4.76803e-20
4.70985e-20
4.76944e-20
4.92904e-20
5.17837e-20
1.00929e-19
3.92148e-19
4.88266e-19
3.75807e-19
2.05146e-19
1.83691e-19
9.41821e-20
8.02636e-20
8.28891e-20
8.40264e-21
7.94205e-21
7.05313e-20
5.64565e-20
1.48722e-19
-8.07876e-21
2.01197e-19
4.69995e-20
2.08929e-19
1.03405e-19
2.48456e-19
1.74349e-19
2.29334e-19
1.81934e-19
3.75622e-19
2.36263e-19
3.07852e-19
3.1615e-19
2.6314e-19
2.35275e-19
2.02136e-19
2.13523e-19
9.40448e-20
-3.13846e-19
-2.86267e-19
-5.93575e-19
-3.83362e-19
-4.13631e-19
-4.39579e-19
-4.57421e-19
9.41531e-20
9.37435e-20
8.97201e-20
8.99967e-20
9.9171e-20
8.54344e-20
7.16192e-20
7.77746e-20
8.10084e-20
1.00274e-19
8.16666e-20
9.37644e-20
7.6072e-20
6.25486e-20
7.64371e-20
6.97784e-20
7.18386e-20
6.70129e-20
6.99451e-20
6.68281e-20
6.28947e-20
5.62593e-20
5.32707e-20
6.36354e-20
5.93219e-20
6.9488e-20
6.62833e-20
7.01845e-20
7.36343e-20
6.51871e-20
6.89314e-20
6.38959e-20
6.71531e-20
6.78453e-20
6.97411e-20
7.17857e-20
7.06344e-20
6.92327e-20
6.9457e-20
6.85728e-20
6.92527e-20
6.57538e-20
6.65475e-20
6.37626e-20
6.3564e-20
6.48614e-20
6.54891e-20
6.18289e-20
6.3711e-20
6.10289e-20
6.27649e-20
5.72175e-20
6.393e-20
6.10958e-20
6.84754e-20
6.41264e-20
7.5675e-20
6.4292e-20
7.88921e-20
6.65694e-20
7.87518e-20
6.57981e-20
7.71005e-20
6.7162e-20
7.54482e-20
6.38769e-20
6.9992e-20
6.64301e-20
6.87369e-20
6.33675e-20
6.57975e-20
6.37318e-20
6.64803e-20
6.26772e-20
6.87988e-20
6.25325e-20
5.56885e-20
6.31074e-20
5.68043e-20
6.28368e-20
1.70973e-19
5.41164e-19
5.55465e-19
4.26487e-19
2.92455e-19
1.44637e-19
1.32806e-19
6.73409e-20
3.54115e-20
-4.66284e-20
-5.82683e-20
-2.24244e-20
-7.35052e-20
-8.97996e-20
-6.13884e-20
-2.10706e-20
-4.45842e-20
-7.84545e-20
8.48013e-20
-1.05288e-19
7.25567e-20
-8.34341e-20
7.85462e-20
-8.18372e-20
7.53033e-21
1.31125e-19
-3.53109e-19
-5.63161e-19
-4.03376e-19
-6.7193e-19
-8.26834e-19
-5.28973e-19
-8.42918e-19
-9.76915e-19
-1.19588e-18
-1.56214e-18
-1.71543e-18
-1.67441e-18
-1.74674e-18
1.09191e-19
1.06692e-19
1.09891e-19
1.0821e-19
9.51673e-20
9.89397e-20
1.10038e-19
1.11897e-19
9.81672e-20
8.03232e-20
8.32246e-20
8.54352e-20
8.46465e-20
7.98142e-20
6.2176e-20
6.37011e-20
5.85794e-20
5.36877e-20
5.18756e-20
6.66255e-20
6.22738e-20
7.20655e-20
9.22563e-20
7.63201e-20
9.29022e-20
7.48859e-20
8.3112e-20
8.53627e-20
8.13155e-20
8.77823e-20
7.94842e-20
8.05865e-20
7.62237e-20
7.95453e-20
7.66885e-20
7.58742e-20
7.86688e-20
7.87903e-20
7.78153e-20
7.90284e-20
8.19212e-20
7.89277e-20
7.79976e-20
7.758e-20
8.30466e-20
7.35569e-20
7.65793e-20
8.09409e-20
6.98528e-20
8.09318e-20
7.83281e-20
8.33531e-20
7.89576e-20
7.93383e-20
7.35867e-20
7.07504e-20
7.40614e-20
7.0025e-20
7.30753e-20
7.40233e-20
7.65537e-20
7.42873e-20
6.77317e-20
7.50181e-20
7.41788e-20
6.85585e-20
7.36846e-20
7.15689e-20
7.48943e-20
7.20039e-20
7.56723e-20
6.80906e-20
7.24626e-20
7.38159e-20
7.61751e-20
7.07053e-20
6.58238e-20
6.83269e-20
6.29179e-20
8.48378e-20
2.6377e-19
6.37326e-19
5.82967e-19
4.2675e-19
2.50721e-19
1.63295e-19
1.67211e-19
8.93073e-20
6.53062e-20
8.65293e-21
-1.02248e-20
-1.20083e-20
7.67063e-20
-1.05085e-19
-9.99933e-20
5.19337e-20
-2.74264e-19
-6.38803e-20
-1.94283e-19
-5.75195e-20
-3.43628e-19
-3.20303e-19
-4.52934e-19
-2.47035e-19
-2.92481e-19
-4.56276e-19
-2.38712e-19
-6.65197e-19
-3.46169e-19
-8.5593e-19
-9.47653e-19
-6.26613e-19
-4.5684e-19
-1.07707e-18
-7.42866e-19
-4.44963e-19
-3.0538e-19
-6.78896e-19
-7.12989e-19
1.22962e-19
1.19732e-19
1.18481e-19
1.1054e-19
1.12209e-19
1.1215e-19
1.1365e-19
8.53102e-20
9.6873e-20
1.18256e-19
1.15649e-19
9.44019e-20
9.2071e-20
7.70659e-20
8.01823e-20
7.88003e-20
8.04656e-20
8.22748e-20
8.65915e-20
7.53568e-20
8.65854e-20
9.33563e-20
8.29515e-20
7.75125e-20
7.85104e-20
7.91925e-20
7.26551e-20
6.66755e-20
7.65693e-20
7.24004e-20
7.93731e-20
7.52436e-20
7.47448e-20
7.65717e-20
7.46311e-20
7.56329e-20
7.21444e-20
7.27161e-20
7.22169e-20
7.33865e-20
7.19621e-20
7.51437e-20
7.28463e-20
7.65107e-20
7.5801e-20
7.34466e-20
7.29205e-20
7.90073e-20
6.60275e-20
7.57972e-20
6.72994e-20
7.42371e-20
7.32331e-20
7.14798e-20
6.45058e-20
7.47272e-20
7.28477e-20
7.5955e-20
6.80972e-20
7.21469e-20
7.02445e-20
7.3308e-20
6.98889e-20
7.34084e-20
7.53277e-20
6.36896e-20
7.99601e-20
6.54605e-20
7.79947e-20
6.20896e-20
7.73547e-20
6.47305e-20
7.74579e-20
6.06305e-20
7.2121e-20
6.04347e-20
7.42051e-20
6.88445e-20
6.95392e-20
1.04396e-19
4.20495e-19
7.15848e-19
6.17731e-19
4.44251e-19
3.41139e-19
2.08528e-19
1.80911e-19
1.08392e-19
8.6184e-20
3.13366e-20
-6.48148e-20
-4.46255e-20
3.24696e-20
-2.03461e-19
-4.36039e-20
-6.30556e-20
-1.35756e-19
-1.99243e-19
-6.13429e-20
-1.5155e-19
-2.37579e-19
7.04382e-20
-1.95304e-19
-3.06686e-19
-1.36356e-19
-5.80195e-19
-4.57039e-19
-2.94666e-19
-1.67778e-19
3.34495e-20
2.01711e-19
-5.66936e-19
1.2877e-19
-2.16716e-20
-3.23743e-20
8.29204e-20
1.01785e-19
2.27e-19
2.68072e-19
1.38849e-19
1.35846e-19
1.34003e-19
1.24546e-19
1.26556e-19
1.27955e-19
1.37438e-19
1.3016e-19
1.27683e-19
1.08703e-19
1.09206e-19
1.11802e-19
1.11092e-19
1.13489e-19
1.17436e-19
1.00035e-19
9.67554e-20
1.12256e-19
1.12992e-19
1.10427e-19
1.0858e-19
8.42047e-20
8.00598e-20
8.34826e-20
5.94381e-20
9.26253e-20
7.30815e-20
8.4899e-20
7.47208e-20
7.47259e-20
7.52638e-20
7.63662e-20
6.94601e-20
7.46113e-20
7.19305e-20
7.75025e-20
7.59875e-20
7.84639e-20
7.79729e-20
7.77261e-20
7.68347e-20
7.53793e-20
7.27372e-20
7.65455e-20
7.56544e-20
7.73653e-20
7.52139e-20
7.82789e-20
7.78917e-20
7.84497e-20
7.2436e-20
8.06501e-20
7.75083e-20
7.30257e-20
8.2312e-20
6.34981e-20
8.04695e-20
6.98986e-20
8.15883e-20
7.663e-20
7.55392e-20
8.19241e-20
6.97923e-20
7.12774e-20
8.04771e-20
6.38054e-20
7.2296e-20
6.82201e-20
7.66417e-20
7.27963e-20
7.66975e-20
6.34973e-20
8.36579e-20
5.53187e-20
8.70801e-20
6.79024e-20
7.17538e-20
7.16998e-20
7.854e-20
1.56992e-19
6.06861e-19
7.13274e-19
5.93089e-19
4.40891e-19
2.26564e-19
2.16473e-19
1.61516e-19
1.37515e-19
2.06797e-19
1.54711e-19
7.25928e-20
6.59685e-20
-4.52007e-21
2.54346e-20
3.64021e-20
-1.62972e-19
-4.5192e-19
-3.49252e-19
-2.87772e-19
-2.80114e-19
-3.35603e-19
-2.85882e-19
-2.37626e-19
-8.58888e-20
-4.5564e-20
-2.55085e-19
-9.56766e-20
-2.40274e-19
-3.46286e-19
-4.99638e-19
2.41796e-19
-2.19917e-19
-1.06635e-19
-2.46407e-19
-3.93066e-19
-3.37645e-19
-2.93388e-19
-1.70548e-19
-1.36102e-19
1.50907e-19
1.55273e-19
1.53408e-19
1.49088e-19
1.46456e-19
1.43673e-19
1.06086e-19
1.44427e-19
1.77291e-19
1.61844e-19
1.49812e-19
1.41332e-19
1.33e-19
1.80626e-19
1.66231e-19
1.60692e-19
1.35689e-19
1.27432e-19
1.40186e-19
1.30637e-19
1.08906e-19
8.77602e-20
9.04212e-20
8.10503e-20
1.007e-19
8.29843e-20
9.3907e-20
8.76698e-20
8.38305e-20
8.44432e-20
8.67201e-20
8.50985e-20
8.19903e-20
7.80852e-20
7.99496e-20
7.69684e-20
8.15298e-20
7.72806e-20
8.11901e-20
7.56943e-20
8.5179e-20
7.8596e-20
7.63465e-20
7.95791e-20
6.68858e-20
8.53106e-20
8.08339e-20
7.72743e-20
7.78426e-20
7.69229e-20
7.8998e-20
7.40906e-20
8.04394e-20
7.04336e-20
7.93716e-20
6.93831e-20
6.63193e-20
6.89398e-20
6.25513e-20
7.18539e-20
5.90658e-20
8.08606e-20
5.77163e-20
7.61158e-20
5.26343e-20
7.60089e-20
6.49175e-20
7.67883e-20
6.10338e-20
8.4813e-20
7.06773e-20
7.10433e-20
6.87771e-20
7.30928e-20
7.73055e-20
7.95338e-20
7.6453e-20
7.44583e-20
9.1629e-20
2.48253e-19
6.82272e-19
6.41662e-19
4.80302e-19
3.11813e-19
2.23336e-19
2.07042e-19
1.53778e-19
1.82629e-19
1.88392e-19
1.79159e-19
1.43233e-19
3.78057e-20
3.04953e-20
9.51301e-20
-2.20818e-20
3.74781e-19
1.68038e-19
-1.53566e-19
7.84788e-21
-1.03399e-19
-1.11533e-19
-2.80372e-19
-3.22775e-19
-2.5558e-19
-5.00109e-19
-2.27287e-19
-5.01258e-19
-3.74197e-19
5.06947e-20
-7.8229e-19
-5.6312e-19
-7.14629e-19
-1.0776e-19
-9.27933e-19
-7.18234e-19
-6.00759e-19
-5.67861e-19
-4.10941e-19
-4.78911e-19
1.67773e-19
1.65254e-19
1.56665e-19
1.64457e-19
1.69415e-19
1.7493e-19
1.99208e-19
1.81799e-19
1.03175e-19
1.109e-19
1.44998e-19
1.44376e-19
1.45993e-19
1.41372e-19
1.35955e-19
1.5215e-19
1.6964e-19
1.58488e-19
1.31933e-19
1.21144e-19
1.29683e-19
1.49873e-19
1.38228e-19
1.45926e-19
1.7221e-19
1.47117e-19
1.64723e-19
1.21704e-19
1.33415e-19
1.26847e-19
1.26279e-19
1.17971e-19
1.1886e-19
1.1686e-19
1.05385e-19
1.13157e-19
9.65963e-20
1.02377e-19
1.04368e-19
9.67946e-20
1.01825e-19
9.61812e-20
9.53327e-20
9.42459e-20
9.14916e-20
1.00057e-19
8.5009e-20
9.13684e-20
7.99241e-20
8.54178e-20
7.00329e-20
8.01419e-20
7.25802e-20
8.21687e-20
6.7404e-20
8.22971e-20
6.62737e-20
8.21833e-20
8.0721e-20
7.1649e-20
8.36033e-20
8.29627e-20
5.93432e-20
8.94959e-20
7.79968e-20
8.13207e-20
7.73116e-20
8.3228e-20
7.32667e-20
6.32845e-20
9.1988e-20
7.26323e-20
7.65959e-20
6.69499e-20
8.44174e-20
7.27076e-20
7.45733e-20
7.17074e-20
1.04829e-19
3.62165e-19
6.97983e-19
5.8361e-19
3.89706e-19
2.62451e-19
2.44778e-19
2.64825e-19
2.94629e-19
2.29445e-19
1.92675e-19
1.59305e-19
1.33793e-19
1.42375e-19
1.50694e-19
6.99793e-20
2.17781e-19
2.16048e-19
1.82392e-19
-1.38622e-19
-5.84824e-21
-5.83083e-21
-1.41345e-19
1.58694e-19
3.03584e-19
1.78654e-20
-1.64981e-19
-3.19354e-19
-1.18615e-19
-2.32807e-19
-1.08085e-19
1.94489e-19
3.15543e-19
-2.69902e-19
2.75469e-19
4.11402e-19
6.40713e-19
6.26795e-19
4.92342e-19
1.38956e-19
1.86727e-19
1.81649e-19
1.81495e-19
1.72365e-19
1.79759e-19
1.89935e-19
1.99146e-19
2.08892e-19
2.14754e-19
2.15642e-19
1.86793e-19
9.85199e-20
1.32667e-19
1.628e-19
1.23224e-19
1.48436e-19
1.38127e-19
1.36317e-19
7.99794e-20
7.91186e-20
1.15482e-19
1.27489e-19
1.19609e-19
1.31917e-19
1.31763e-19
1.02003e-19
1.18634e-19
6.93574e-20
8.56524e-20
8.6597e-20
7.6036e-20
7.43875e-20
7.40175e-20
8.06356e-20
7.2657e-20
7.36277e-20
7.22032e-20
7.92643e-20
7.76689e-20
8.39682e-20
7.23916e-20
8.81864e-20
7.55648e-20
8.61293e-20
6.90637e-20
8.86529e-20
7.86756e-20
7.38726e-20
7.80005e-20
7.11558e-20
8.94614e-20
6.74271e-20
8.31713e-20
7.16303e-20
7.87502e-20
7.81318e-20
8.24447e-20
7.17083e-20
9.30299e-20
5.63443e-20
9.98938e-20
6.74372e-20
7.69556e-20
7.22028e-20
9.17111e-20
7.15323e-20
9.21497e-20
7.67967e-20
7.86924e-20
7.32536e-20
7.99631e-20
7.4088e-20
8.91332e-20
9.1536e-20
6.93293e-20
9.15747e-20
7.99627e-20
7.418e-20
8.31985e-20
1.42427e-19
5.07182e-19
5.96408e-19
5.38604e-19
4.00752e-19
2.72752e-19
2.36041e-19
1.9745e-19
1.38823e-19
1.25916e-19
1.56675e-19
1.93595e-19
1.88188e-19
1.62468e-19
2.97773e-19
4.05828e-19
1.85187e-19
2.65933e-19
2.41063e-19
5.36646e-19
3.03386e-19
1.50743e-19
3.44575e-19
1.24594e-19
3.45735e-19
5.78137e-19
5.41126e-19
5.20751e-19
6.28917e-19
1.08097e-18
5.94507e-19
7.58606e-19
1.11823e-18
1.35962e-18
1.27459e-18
1.68099e-18
1.76618e-18
1.82436e-18
1.70866e-18
2.26393e-18
2.39329e-18
1.97846e-19
1.99182e-19
1.93301e-19
1.83842e-19
1.61911e-19
1.61931e-19
1.55674e-19
1.43103e-19
1.57874e-19
1.6343e-19
1.69517e-19
1.66824e-19
1.53514e-19
1.46142e-19
1.07448e-19
1.05126e-19
1.034e-19
1.44357e-19
1.52703e-19
8.96755e-20
6.01742e-20
7.80496e-20
6.42999e-20
6.48097e-20
4.36428e-20
4.17783e-20
7.31651e-20
7.00269e-20
8.58468e-20
5.88968e-20
8.18892e-20
7.57082e-20
6.72555e-20
6.76879e-20
6.59917e-20
6.93005e-20
7.17586e-20
6.43186e-20
6.90966e-20
5.91456e-20
6.83965e-20
6.06812e-20
6.5717e-20
6.86759e-20
6.69904e-20
6.25449e-20
6.3381e-20
6.04825e-20
6.36176e-20
6.45011e-20
5.27241e-20
6.88683e-20
5.36568e-20
5.71329e-20
6.84092e-20
5.52341e-20
7.7204e-20
4.50867e-20
7.35667e-20
4.50029e-20
6.55882e-20
5.06103e-20
6.61848e-20
6.49405e-20
6.27889e-20
4.34362e-20
6.33913e-20
3.61158e-20
7.35819e-20
4.15242e-20
6.39599e-20
4.22762e-20
5.55346e-20
3.45801e-20
4.74726e-20
3.73905e-20
5.13403e-20
6.57005e-20
1.70189e-19
4.70303e-19
3.74903e-19
2.53214e-19
2.56622e-19
1.07567e-19
1.19371e-19
2.26208e-20
1.15691e-19
1.51187e-19
1.09704e-19
1.11646e-19
9.24259e-20
3.8624e-20
1.28505e-19
-4.63985e-20
1.73344e-19
1.88581e-19
7.50274e-20
3.48092e-19
4.88696e-19
1.60807e-19
3.69827e-19
1.46943e-19
3.34367e-19
8.53499e-20
4.39001e-19
4.35798e-19
-1.45837e-19
3.6394e-19
1.72908e-19
3.24078e-19
2.23043e-19
-1.88722e-20
1.9956e-19
-8.93176e-21
-7.05009e-20
-5.88789e-19
-5.74321e-19
-6.54008e-19
-7.97928e-19
2.12176e-19
2.15815e-19
2.1552e-19
1.98205e-19
2.27223e-19
1.97518e-19
1.9577e-19
1.6551e-19
1.43683e-19
1.3618e-19
1.57207e-19
1.22107e-19
1.00454e-19
1.06274e-19
1.04965e-19
1.05469e-19
9.83484e-20
1.29291e-19
1.09779e-19
1.33127e-19
1.15688e-19
1.46196e-19
1.2873e-19
1.06889e-19
1.08221e-19
1.24107e-19
1.0136e-19
1.0516e-19
7.24928e-20
7.99946e-20
7.29507e-20
7.47075e-20
5.76152e-20
7.76716e-20
7.15672e-20
6.47347e-20
6.83058e-20
6.53255e-20
7.06169e-20
6.5587e-20
6.37351e-20
5.89214e-20
7.14701e-20
6.87134e-20
4.97782e-20
6.13253e-20
5.91702e-20
6.73072e-20
4.99038e-20
5.77329e-20
7.06982e-20
6.76293e-20
4.91936e-20
7.59636e-20
5.1324e-20
6.74717e-20
5.99244e-20
5.26752e-20
5.79878e-20
4.69299e-20
5.13512e-20
4.24346e-20
5.49967e-20
4.37947e-20
5.96658e-20
3.99944e-20
5.88539e-20
3.68192e-20
5.82125e-20
4.21151e-20
4.93939e-20
3.76824e-20
5.58496e-20
3.88952e-20
4.20963e-20
3.79281e-20
4.57931e-20
6.72003e-20
2.52732e-19
3.74244e-19
3.13387e-19
2.9416e-19
1.20355e-19
1.15112e-19
1.18052e-19
1.0709e-19
1.51819e-20
2.41681e-19
2.36848e-19
1.19782e-19
2.01565e-21
1.94768e-19
4.20823e-19
1.91503e-19
2.25101e-19
2.03359e-19
3.77563e-19
2.82436e-19
-1.7964e-19
3.07639e-19
1.65464e-19
3.40525e-19
2.76014e-19
4.3759e-19
2.89717e-21
7.2476e-19
5.9299e-19
-6.55872e-20
3.34792e-19
4.59974e-19
7.08295e-19
7.4058e-19
8.02244e-19
7.16485e-19
5.35685e-19
1.06089e-18
1.17335e-18
1.17118e-18
1.20727e-18
2.27725e-19
2.25322e-19
2.15567e-19
2.01618e-19
2.25111e-19
2.04549e-19
1.5646e-19
1.3993e-19
1.38162e-19
1.52047e-19
1.39069e-19
1.52519e-19
1.68775e-19
1.37628e-19
1.08763e-19
1.07572e-19
1.04203e-19
8.57738e-20
7.84032e-20
4.66438e-20
6.94405e-20
6.44228e-20
2.35068e-20
5.38401e-20
6.05798e-20
5.38777e-20
3.38052e-20
3.5976e-20
3.85603e-20
6.76555e-20
5.35027e-20
3.75601e-20
8.63425e-20
3.32851e-20
5.78949e-20
6.16116e-20
5.72029e-20
6.42311e-20
6.36798e-20
6.18209e-20
7.33901e-20
7.02263e-20
8.12972e-20
5.71804e-20
7.98763e-20
6.59604e-20
7.99246e-20
5.75439e-20
6.88765e-20
6.73624e-20
6.01775e-20
5.37656e-20
5.74498e-20
4.09083e-20
6.96397e-20
3.54035e-20
8.09658e-20
4.42101e-20
6.84547e-20
3.82341e-20
6.56885e-20
4.84385e-20
6.32924e-20
5.73306e-20
5.01683e-20
5.74015e-20
4.80558e-20
4.83063e-20
5.62613e-20
5.64447e-20
7.06389e-20
3.18943e-20
8.52521e-20
4.30904e-20
6.13331e-20
4.32295e-20
5.54974e-20
1.0685e-19
2.96247e-19
3.20605e-19
2.33361e-19
1.8073e-19
1.14739e-19
1.31825e-19
5.396e-20
1.22728e-19
1.54288e-19
7.7805e-21
-3.36132e-20
-2.86702e-20
-3.42253e-20
-2.29173e-20
-1.00595e-19
-7.56372e-20
2.70365e-19
1.54368e-19
1.47138e-19
7.67946e-19
2.15632e-19
3.41597e-19
-8.04881e-20
1.41619e-19
2.40859e-19
-8.48521e-20
4.1251e-19
2.28149e-19
3.63342e-19
3.06102e-19
6.04974e-19
5.51746e-19
6.59617e-19
4.28757e-19
8.3902e-19
5.99108e-19
6.86822e-19
4.93843e-19
3.71688e-19
5.15329e-19
5.77132e-19
2.33166e-19
2.40738e-19
2.37679e-19
2.12356e-19
1.85416e-19
1.95086e-19
1.28861e-19
9.30267e-20
1.16911e-19
1.68592e-19
1.7108e-19
1.73928e-19
1.17583e-19
1.58432e-19
1.41358e-19
1.15121e-19
1.0127e-19
2.69205e-20
5.80796e-20
6.65706e-20
2.01903e-20
-1.72787e-20
7.69481e-20
2.29309e-20
3.12734e-20
2.16006e-20
6.98409e-20
4.60449e-20
9.67542e-20
5.83178e-20
5.71476e-20
8.00711e-20
7.2674e-20
7.93493e-20
7.23725e-20
4.90254e-20
6.87142e-20
3.91987e-20
7.22321e-20
4.57896e-20
5.36163e-20
3.84352e-20
5.21014e-20
3.72058e-20
3.98514e-20
4.89433e-20
2.6884e-20
4.52339e-20
3.60113e-20
4.24016e-20
3.6333e-20
4.21124e-20
3.55208e-20
4.00158e-20
2.56144e-20
4.29145e-20
3.85515e-20
2.06534e-20
2.94988e-20
2.05614e-20
2.76983e-20
1.15622e-20
1.84621e-20
3.04092e-20
-1.58315e-21
1.45914e-20
3.22919e-20
3.77322e-22
5.53105e-20
-5.88351e-22
2.12791e-20
1.18497e-20
2.85541e-20
4.6925e-21
1.25396e-20
1.54588e-20
3.19615e-20
9.18367e-20
2.87405e-19
2.55174e-19
2.07579e-19
1.09417e-19
1.30978e-19
2.31203e-20
8.1145e-20
-1.8566e-19
-1.14662e-19
-6.4357e-20
8.63266e-20
2.10591e-20
-6.34801e-20
-2.63332e-20
8.33012e-20
2.0404e-20
-3.58067e-20
-1.57535e-19
-4.85926e-19
6.00651e-21
-2.12182e-19
3.31938e-19
2.88673e-20
1.16563e-20
1.95344e-19
7.38362e-20
-3.73008e-19
-1.61766e-19
-2.90272e-19
-5.63811e-19
-8.11042e-19
1.60101e-19
-4.23026e-19
-7.94443e-19
-1.00068e-18
-1.27748e-18
-1.13234e-18
-1.3732e-18
-1.41346e-18
-1.27031e-18
-1.29384e-18
2.26822e-19
2.34632e-19
2.36177e-19
2.2308e-19
1.57435e-19
9.81558e-20
1.60108e-19
1.54078e-19
1.47914e-19
1.24108e-19
1.13246e-19
5.25216e-20
9.00291e-20
1.90934e-20
8.19822e-20
7.46939e-20
6.84713e-20
9.21221e-20
5.63277e-20
7.76988e-20
1.15383e-19
9.82043e-20
7.67038e-20
9.26187e-20
7.73323e-20
8.49644e-20
4.37678e-20
5.19168e-20
3.62561e-20
1.99722e-20
4.16984e-20
4.53598e-20
4.84193e-21
3.9078e-20
1.82996e-20
3.44244e-20
3.10089e-20
2.6952e-20
3.98242e-20
7.67032e-21
4.84658e-20
3.06638e-20
3.79256e-20
2.90937e-20
3.94011e-20
2.63626e-20