/*--------------------------------*- C++ -*----------------------------------*\
| =========                 |                                                 |
| \\      /  F ield         | OpenFOAM: The Open Source CFD Toolbox           |
|  \\    /   O peration     | Version:  2.2.x                                 |
|   \\  /    A nd           | Web:      www.OpenFOAM.org                      |
|    \\/     M anipulation  |                                                 |
\*---------------------------------------------------------------------------*/
FoamFile
{
    version     2.0;
    format      ascii;
    class       surfaceScalarField;
    location    "0.2";
    object      cfmax;
}
// * * * * * * * * * * * * * * * * * * * * * * * * * * * * * * * * * * * * * //

dimensions      [0 3 -1 0 0 0 0];

internalField   nonuniform List<scalar> 
28084
(
0.000746224
0.000742988
0.000740213
0.000737877
0.000735962
0.000734443
0.000733299
0.000732503
0.000732031
0.000731856
0.00073195
0.000732288
0.00073284
0.000733581
0.000734484
0.000735523
0.000736673
0.00073791
0.00073921
0.000740553
0.000741918
0.000743285
0.000744638
0.00074596
0.000747237
0.000748454
0.000749601
0.000750665
0.000751639
0.000752512
0.000753279
0.000753932
0.000754465
0.000754874
0.000755155
0.000755304
0.000755316
0.000755191
0.000754924
0.000754513
0.000753956
0.000753251
0.000752393
0.000751383
0.000750216
0.000759491
0.000769124
0.00077907
0.000789289
0.000799734
0.000810362
0.000821126
0.000831981
0.000842882
0.000853776
0.000864627
0.000875377
0.000885985
0.000896412
0.000906593
0.000916504
0.000926094
0.000935286
0.000944154
0.00095253
0.000960386
0.000967757
0.000974616
0.000980881
0.000986481
0.000991654
0.000996208
0.00100001
0.00100329
0.00100547
0.00100706
0.00100794
0.00100843
0.00100997
0.00101113
0.00100984
0.00100477
0.000595438
0.000504676
0.000508593
0.000512917
0.000509268
0.000501423
0.000489886
0.00047337
0.000461908
0.000448832
0.000438711
0.000429876
0.000422011
0.000415415
0.000409844
0.000404748
0.000399527
0.000394447
0.000389472
0.000385692
0.000382988
0.000381474
0.000380958
0.000381453
0.00038275
0.000384827
0.000387613
0.000390631
0.000394183
0.000399412
0.000406611
0.000415916
0.000428023
0.000441658
0.000454133
0.000465392
0.00144509
0.00144283
0.00074974
0.00143752
0.000748785
0.0014292
0.000748259
0.00141793
0.000748147
0.00140381
0.000748429
0.00138695
0.000749083
0.0013675
0.000750087
0.0013456
0.000751415
0.00132142
0.000753039
0.00129524
0.000754933
0.00126731
0.000757068
0.00123765
0.000759414
0.00120646
0.000761942
0.00117395
0.000764622
0.00114033
0.000767426
0.00110579
0.000770325
0.00107054
0.000773292
0.00103476
0.0007763
0.000998644
0.000779324
0.000962354
0.000782341
0.000926057
0.000785328
0.000889901
0.000788265
0.000854024
0.000791133
0.000818551
0.000793915
0.000783594
0.000796595
0.000749254
0.000799159
0.000715618
0.000801594
0.000682762
0.00080389
0.000650749
0.000806038
0.000619634
0.000808028
0.000589458
0.000809855
0.000560255
0.000811512
0.000532051
0.000812994
0.000504862
0.000814297
0.000478697
0.000815418
0.000453558
0.000816354
0.000429582
0.000817104
0.000406626
0.000817664
0.000384675
0.000818034
0.000363712
0.000818212
0.000343717
0.000818197
0.000324668
0.000817988
0.000306538
0.000817583
0.000289303
0.000816981
0.000293419
0.000816181
0.000293655
0.000824962
0.00029392
0.000834077
0.000294213
0.000843481
0.000294534
0.000853133
0.000294883
0.000862989
0.000295259
0.000873003
0.000295663
0.000883134
0.000296095
0.000893331
0.000296555
0.000903554
0.000297042
0.00091375
0.000297558
0.000923879
0.000298105
0.000933891
0.00029868
0.000943743
0.000299286
0.000953399
0.000299924
0.000962792
0.000300591
0.000971894
0.000301298
0.000980675
0.000302046
0.000989039
0.000302826
0.000997047
0.000303634
0.00100455
0.0003045
0.00101159
0.000305412
0.00101801
0.000306365
0.00102401
0.000307358
0.00102943
0.000308431
0.00103418
0.000309591
0.00103843
0.000310844
0.00104182
0.000312124
0.00104479
0.000313424
0.00104735
0.00031472
0.00104888
0.000316245
0.00104972
0.000318714
0.00104986
0.000321426
0.00104963
0.000324468
0.00105023
0.000327066
0.00105039
0.000329444
0.00104934
0.000342421
0.00104331
0.000352791
0.000631144
0.000360573
0.000527907
0.00035825
0.000527199
0.000359137
0.000531501
0.00036078
0.000526967
0.000362072
0.000516247
0.000361522
0.000507887
0.000360734
0.000488849
0.000358339
0.000477268
0.000356965
0.000463871
0.000356643
0.000453019
0.000356564
0.00044355
0.0003565
0.000435207
0.000356947
0.000428049
0.00035807
0.000421724
0.000359553
0.000415846
0.000361045
0.000410038
0.000362383
0.000404486
0.0003638
0.000399063
0.000365661
0.000394803
0.000367824
0.000391575
0.000370219
0.000389533
0.000372831
0.000388477
0.000375647
0.000388438
0.000378571
0.000389199
0.000381654
0.000390736
0.000384924
0.000393
0.000388534
0.000395482
0.000392576
0.00039858
0.000397384
0.000403379
0.000403023
0.00041012
0.000410099
0.000418968
0.000418045
0.000430603
0.000425652
0.00044367
0.00043139
0.000455481
0.000437588
0.000465892
0.00144566
0.00144319
0.000754435
0.00143766
0.00075573
0.00142913
0.000757426
0.00141766
0.00075951
0.00140336
0.000761963
0.00138633
0.000764765
0.00136724
0.000767892
0.00134582
0.000771318
0.00132207
0.000775016
0.0012962
0.000778956
0.00126837
0.000783108
0.0012388
0.00078744
0.0012077
0.000791922
0.00117525
0.00079652
0.00114168
0.000801204
0.00110718
0.000805943
0.00107195
0.000810707
0.00103618
0.000815468
0.00100006
0.000820197
0.000963763
0.00082487
0.000927444
0.000829463
0.000891257
0.000833953
0.000855339
0.000838319
0.000819819
0.000842545
0.000784807
0.000846613
0.000750406
0.000850509
0.000716703
0.000854219
0.000683775
0.000857733
0.000651686
0.000861042
0.000620491
0.000864137
0.000590232
0.000867012
0.000560945
0.000869662
0.000532653
0.000872082
0.000505374
0.000874269
0.000479117
0.000876221
0.000453886
0.000877936
0.000429678
0.000879413
0.000406484
0.000880651
0.000384561
0.00088165
0.000363698
0.00088241
0.000343803
0.000882931
0.000324855
0.000883212
0.000306827
0.000883254
0.000289693
0.000883057
0.000297947
0.000882618
0.000298351
0.000890898
0.000298761
0.000899485
0.000299177
0.00090834
0.000299599
0.000917419
0.000300025
0.000926677
0.000300455
0.000936071
0.000300889
0.000945557
0.000301326
0.000955091
0.000301767
0.000964626
0.000302211
0.000974115
0.000302659
0.000983516
0.000303113
0.00099278
0.00030357
0.00100187
0.000304036
0.00101073
0.000304509
0.00101933
0.000304991
0.00102761
0.000305487
0.00103556
0.000305995
0.00104307
0.00030652
0.00105018
0.000307063
0.00105688
0.000307625
0.00106306
0.000308235
0.00106854
0.000308868
0.00107359
0.000309536
0.0010782
0.000310242
0.00108209
0.000311011
0.00108528
0.000311884
0.00108766
0.000312798
0.00108971
0.000313753
0.00109163
0.000314746
0.00109237
0.000317035
0.00109245
0.000319949
0.00109213
0.00032299
0.00109113
0.000326194
0.00109008
0.000328942
0.00108715
0.000334305
0.00108404
0.000356753
0.00107256
0.000364203
0.000651159
0.000366127
0.000550123
0.000356077
0.000546896
0.000361965
0.000549162
0.000365313
0.000544645
0.000370016
0.000530971
0.000369856
0.000524022
0.000370313
0.000504609
0.000367945
0.000493339
0.000365532
0.000479054
0.000364134
0.000467279
0.000362977
0.000456937
0.000362016
0.000447839
0.000361904
0.000439973
0.000362911
0.000432883
0.000364312
0.000426295
0.000365545
0.000419882
0.000366567
0.000413769
0.000367806
0.000407859
0.000369596
0.000403098
0.000371701
0.000399431
0.000374055
0.000396969
0.000376604
0.000395507
0.000379399
0.000395039
0.000382306
0.000395348
0.000385406
0.000396414
0.00038876
0.000398154
0.000392526
0.000399996
0.000396765
0.000402654
0.000401896
0.000406972
0.000407811
0.000413245
0.000415377
0.000421616
0.000423616
0.0004328
0.00043169
0.000445318
0.000437813
0.000456523
0.000445087
0.000466452
0.00144511
0.00144243
0.000760308
0.0014367
0.000763821
0.00142798
0.000767708
0.00141715
0.000771957
0.00140379
0.000776551
0.00138764
0.000781471
0.00136885
0.000786692
0.00134757
0.000792189
0.00132395
0.000797933
0.00129817
0.000803893
0.00127044
0.000810036
0.00124095
0.00081633
0.00120991
0.000822741
0.00117751
0.000829233
0.00114396
0.000835774
0.00110948
0.00084233
0.00107425
0.000848869
0.00103847
0.00085536
0.00100233
0.000861774
0.000965989
0.000868082
0.000929621
0.000874259
0.000893375
0.000880282
0.00085739
0.000886129
0.000821793
0.000891781
0.000786698
0.000897219
0.000752206
0.00090243
0.000718408
0.000907399
0.000685379
0.000912116
0.000653185
0.000916571
0.000621881
0.000920756
0.000591512
0.000924666
0.00056211
0.000928296
0.000533703
0.000931642
0.000506308
0.000934701
0.000479933
0.000937473
0.000454584
0.000939956
0.000430257
0.000942152
0.000406944
0.000944059
0.000384632
0.00094568
0.000363421
0.000947013
0.000343649
0.000948063
0.000324823
0.000948827
0.000306919
0.00094931
0.000289908
0.00094951
0.000302315
0.000949429
0.000302876
0.0009572
0.000303421
0.000965253
0.00030395
0.000973552
0.000304461
0.000982048
0.000304953
0.000990704
0.000305426
0.00099947
0.000305878
0.00100831
0.000306309
0.00101717
0.000306719
0.001026
0.000307109
0.00103478
0.000307477
0.00104344
0.000307826
0.00105195
0.000308157
0.00106026
0.00030847
0.00106833
0.000308766
0.00107612
0.000309049
0.00108357
0.000309322
0.00109067
0.000309591
0.00109736
0.000309856
0.00110361
0.000310113
0.0011094
0.000310366
0.00111463
0.000310664
0.00111929
0.000310978
0.00112339
0.000311302
0.00112715
0.000311647
0.00113011
0.00031203
0.0011324
0.000312513
0.0011337
0.000313063
0.00113481
0.000313677
0.00113585
0.000315301
0.00113601
0.000318307
0.00113546
0.000321521
0.00113371
0.000324941
0.00113127
0.000327876
0.00112879
0.000329416
0.00112448
0.000338757
0.00111865
0.000383398
0.00111133
0.000379699
0.000653711
0.000367121
0.000570537
0.000353208
0.000564792
0.000365025
0.000564619
0.000371452
0.000559882
0.000376988
0.000545299
0.000378651
0.000536777
0.000379108
0.000518727
0.000377199
0.000507075
0.000374022
0.000492984
0.000371836
0.000480429
0.000369896
0.000469676
0.000368162
0.000460136
0.000367476
0.000451574
0.000368288
0.000443688
0.000369513
0.000436367
0.000370326
0.000429541
0.000371017
0.000423069
0.000372127
0.000416912
0.00037382
0.000411804
0.000375812
0.000407779
0.000378081
0.000404893
0.000380578
0.000403008
0.000383363
0.000402096
0.000386278
0.000401947
0.000389439
0.00040256
0.000392856
0.000403743
0.000396798
0.000405039
0.000401271
0.000407256
0.000406764
0.000411096
0.000412975
0.000416905
0.000421036
0.00042479
0.00042959
0.000435482
0.000438149
0.000447395
0.000444637
0.000457945
0.000452709
0.000467338
0.00144346
0.0014412
0.000767362
0.00143695
0.000773056
0.00142965
0.000779098
0.00141936
0.000785478
0.00140616
0.00079218
0.00139017
0.000799185
0.00137152
0.000806469
0.00135036
0.000814006
0.00132685
0.000821766
0.00130117
0.000829715
0.00127352
0.000837821
0.00124409
0.000846048
0.00121308
0.000854359
0.00118071
0.000862719
0.00114718
0.00087109
0.00111269
0.000879437
0.00107744
0.000887725
0.00104162
0.000895922
0.00100543
0.000903995
0.000969027
0.000911915
0.000932584
0.000919655
0.000896252
0.000927189
0.000860171
0.000934495
0.000824469
0.000941551
0.000789262
0.00094834
0.000754651
0.000954847
0.000720728
0.000961056
0.00068757
0.000966958
0.000655242
0.000972543
0.000623802
0.000977802
0.000593292
0.000982732
0.00056375
0.000987327
0.0005352
0.000991585
0.000507661
0.000995503
0.000481142
0.000999083
0.000455649
0.00100232
0.000431177
0.00100523
0.00040772
0.00100779
0.000385265
0.00101002
0.000363795
0.00101192
0.000343291
0.00101349
0.000324578
0.00101473
0.000306816
0.00101565
0.000289949
0.00101624
0.000306511
0.00101651
0.000307218
0.00102377
0.000307888
0.00103128
0.000308519
0.00103902
0.000309108
0.00104693
0.000309655
0.00105497
0.000310158
0.0010631
0.000310617
0.00107128
0.00031103
0.00107946
0.000311398
0.0010876
0.000311722
0.00109565
0.000311999
0.00110357
0.000312231
0.00111132
0.000312422
0.00111884
0.000312571
0.00112611
0.000312681
0.00113309
0.000312757
0.0011397
0.0003128
0.00114595
0.000312815
0.00115177
0.000312807
0.00115714
0.000312779
0.00116204
0.000312725
0.0011664
0.000312696
0.00117018
0.000312683
0.00117334
0.000312659
0.00117617
0.000312629
0.00117818
0.000312649
0.00117949
0.000312753
0.00117995
0.000312916
0.00118009
0.000313278
0.00118016
0.000316648
0.00117919
0.000320072
0.00117735
0.000323459
0.00117468
0.000326948
0.00117125
0.000330111
0.00116823
0.00033114
0.00116355
0.000346588
0.00115823
0.000408799
0.00115066
0.00039292
0.000657901
0.000367126
0.000586733
0.000355371
0.000578698
0.000370181
0.000576145
0.000378813
0.000571169
0.000385137
0.000558167
0.000387398
0.000548997
0.000387667
0.000531669
0.000386151
0.000519633
0.000382358
0.000505923
0.000379806
0.000492852
0.000377335
0.000481776
0.000374871
0.000472235
0.000373581
0.000463269
0.000374137
0.00045468
0.000375044
0.000446697
0.000375416
0.000439432
0.000375751
0.000432513
0.000376732
0.000425998
0.000378311
0.00042047
0.000380177
0.000416068
0.000382384
0.000412747
0.000384817
0.00041039
0.000387574
0.000408937
0.000390469
0.000408201
0.000393693
0.000408214
0.000397193
0.000408706
0.000401336
0.000409466
0.000406078
0.000411276
0.000411966
0.000414685
0.000418504
0.000420092
0.000427083
0.000427579
0.000435974
0.000437858
0.000445049
0.000449248
0.000451845
0.000459339
0.000460581
0.000468254
0.00144497
0.00144399
0.0007756
0.00143992
0.000783435
0.00143278
0.000791593
0.00142265
0.000800066
0.00140961
0.000808839
0.00139376
0.000817893
0.00137524
0.000827205
0.00135419
0.000836747
0.00133078
0.000846488
0.00130518
0.000856394
0.00127759
0.00086643
0.00124821
0.000876558
0.00121723
0.000886739
0.00118486
0.000896934
0.00115132
0.000907106
0.0011168
0.000917214
0.00108151
0.000927224
0.00104563
0.000937098
0.00100936
0.000946804
0.000972872
0.000956309
0.000936328
0.000965586
0.000899882
0.000974606
0.000863678
0.000983346
0.000827844
0.000991784
0.000792496
0.000999902
0.000757738
0.00100768
0.000723661
0.00101511
0.000690344
0.00102218
0.000657854
0.00102887
0.000626248
0.00103519
0.000595571
0.00104112
0.000565859
0.00104667
0.000537139
0.00105182
0.000509429
0.00105658
0.000482741
0.00106096
0.000457077
0.00106494
0.000432436
0.00106854
0.00040881
0.00107175
0.000386188
0.00107458
0.000364552
0.00107704
0.000343883
0.00107912
0.000324159
0.00108083
0.000306524
0.00108217
0.000289821
0.00108315
0.000310527
0.00108376
0.000311369
0.0010905
0.000312152
0.00109747
0.000312871
0.00110463
0.000313527
0.00111195
0.000314116
0.00111937
0.000314639
0.00112687
0.000315092
0.00113438
0.000315476
0.00114187
0.000315789
0.0011493
0.000316034
0.00115663
0.000316208
0.0011638
0.000316315
0.00117077
0.000316354
0.00117752
0.000316331
0.00118397
0.000316244
0.00119012
0.000316098
0.00119591
0.000315901
0.00120129
0.000315658
0.00120623
0.000315368
0.00121072
0.000315045
0.00121471
0.000314685
0.00121817
0.000314321
0.00122107
0.000313963
0.00122333
0.000313586
0.00122515
0.000313192
0.00122621
0.000312844
0.00122664
0.000312574
0.00122611
0.000312355
0.00122545
0.00031473
0.00122423
0.000318396
0.00122218
0.000322088
0.00121935
0.000325911
0.00121562
0.000329773
0.00121183
0.0003334
0.00120855
0.000334351
0.00120444
0.000363746
0.00120168
0.000428057
0.00110694
0.000400998
0.000659869
0.000364987
0.000599602
0.000358713
0.000590168
0.000375328
0.000584347
0.000386613
0.000579131
0.000392884
0.000568383
0.000396145
0.000558311
0.000396037
0.000543568
0.000394461
0.000530897
0.00039053
0.00051792
0.000387269
0.00050418
0.000384187
0.00049241
0.000381094
0.000482523
0.000379382
0.000473107
0.000379702
0.000463877
0.000380195
0.000455423
0.000380134
0.000447766
0.000380282
0.000440512
0.00038124
0.000433777
0.0003828
0.000427974
0.000384614
0.00042335
0.000386783
0.000419671
0.000389205
0.000416939
0.000391974
0.000415046
0.000394855
0.000413804
0.000398155
0.000413323
0.000401781
0.000413276
0.000406172
0.000413612
0.000411187
0.000415162
0.000417469
0.000418248
0.000424355
0.000423326
0.000433442
0.000430482
0.000442668
0.000440371
0.000452246
0.000451197
0.000459325
0.000460885
0.000468571
0.000469425
0.0014487
0.00144789
0.000785028
0.00144398
0.00079496
0.001437
0.000805191
0.00142703
0.000815714
0.00141413
0.000826517
0.00139841
0.000837581
0.00138
0.000848881
0.00135905
0.000860389
0.00133573
0.000872075
0.0013102
0.000883901
0.00128265
0.000895831
0.0012533
0.000907824
0.00122233
0.00091984
0.00118995
0.000931838
0.00115638
0.000943776
0.00112181
0.000955613
0.00108645
0.000967312
0.00105049
0.000978833
0.00101412
0.000990141
0.00097752
0.0010012
0.000940847
0.00101199
0.000904262
0.00102247
0.000867906
0.00103261
0.000831911
0.00104241
0.000796394
0.00105183
0.00076146
0.00106086
0.000727201
0.00106948
0.000693697
0.00107769
0.000661017
0.00108548
0.000629217
0.00109283
0.000598345
0.00109975
0.000568436
0.00110622
0.000539519
0.00111225
0.000511611
0.00111785
0.000484726
0.001123
0.000458866
0.00112771
0.000434031
0.00113199
0.000410212
0.00113584
0.000387399
0.00113926
0.000365573
0.00114226
0.000344717
0.00114484
0.000324807
0.00114701
0.000306048
0.00114877
0.000289527
0.00115012
0.000314352
0.00115108
0.000315318
0.00115729
0.0003162
0.00116371
0.000316997
0.0011703
0.000317707
0.00117701
0.000318327
0.00118382
0.000318856
0.00119066
0.000319292
0.00119751
0.000319635
0.00120431
0.000319883
0.00121103
0.000320036
0.00121762
0.000320097
0.00122403
0.000320066
0.00123023
0.000319944
0.00123618
0.000319735
0.00124183
0.000319441
0.00124714
0.000319067
0.00125207
0.000318621
0.00125659
0.000318109
0.00126066
0.000317534
0.00126426
0.000316907
0.00126734
0.000316234
0.00126988
0.000315533
0.00127186
0.00031482
0.00127324
0.000314078
0.00127402
0.000313319
0.00127404
0.000312621
0.00127345
0.000311976
0.00127213
0.000312707
0.00127061
0.000316639
0.00126817
0.000320671
0.001265
0.000324781
0.00126121
0.000329039
0.00125687
0.000333375
0.00125263
0.000337402
0.00124845
0.000335703
0.00124336
0.00038597
0.00123683
0.000434825
0.00102292
0.000399192
0.000664448
0.000360201
0.000614191
0.000363286
0.000601549
0.00038104
0.000593332
0.000393146
0.000587307
0.000400025
0.000579432
0.000403715
0.00056759
0.00040395
0.000557389
0.000402391
0.000542538
0.00039863
0.000530157
0.000394975
0.000516341
0.000391481
0.000503903
0.000388029
0.000493687
0.000386006
0.000483659
0.00038593
0.000473787
0.000385899
0.000464745
0.000385433
0.000456529
0.000385379
0.000448887
0.000386216
0.000441958
0.000387639
0.000435985
0.000389345
0.000431074
0.000391447
0.00042707
0.000393829
0.000423938
0.000396607
0.000421567
0.000399535
0.000419813
0.000402887
0.000418786
0.000406604
0.000418069
0.000411227
0.000417945
0.0004165
0.000419186
0.000423183
0.000421951
0.000430438
0.00042669
0.000440002
0.000433522
0.000449572
0.000443024
0.000459606
0.000453222
0.000467011
0.000462512
0.000476721
0.000470773
0.00145354
0.00145288
0.000795653
0.00144912
0.000807633
0.00144229
0.00081989
0.00143246
0.000832419
0.00141969
0.000845207
0.0014041
0.000858235
0.0013858
0.000871481
0.00136494
0.000884914
0.00134168
0.000898502
0.00131621
0.000912208
0.0012887
0.000925991
0.00125935
0.000939811
0.00122838
0.000953624
0.00119597
0.000967386
0.00116235
0.000981054
0.00112771
0.000994585
0.00109226
0.00100794
0.0010562
0.00102107
0.00101971
0.00103395
0.000982963
0.00104653
0.000946137
0.00105879
0.000909385
0.0010707
0.000872851
0.00108222
0.000836668
0.00109335
0.000800953
0.00110404
0.000765815
0.0011143
0.000731345
0.00112409
0.000697626
0.00113342
0.000664726
0.00114227
0.000632705
0.00115064
0.000601609
0.00115851
0.000571476
0.0011659
0.000542334
0.00117279
0.000514203
0.0011792
0.000487095
0.00118511
0.000461013
0.00119054
0.000435959
0.00119548
0.000411923
0.00119995
0.000388894
0.00120395
0.000366856
0.00120748
0.000345791
0.00121055
0.000325672
0.00121317
0.000306478
0.00121534
0.000289072
0.00121706
0.000317978
0.00121834
0.000319054
0.00122402
0.000320025
0.00122989
0.000320888
0.0012359
0.000321639
0.00124202
0.000322278
0.0012482
0.000322801
0.00125439
0.000323207
0.00126057
0.000323496
0.00126667
0.000323665
0.00127267
0.000323718
0.00127852
0.000323652
0.00128418
0.000323472
0.0012896
0.000323177
0.00129475
0.000322773
0.00129957
0.000322263
0.00130405
0.000321653
0.00130813
0.000320948
0.00131178
0.000320161
0.00131497
0.000319291
0.00131767
0.000318352
0.00131984
0.000317361
0.00132148
0.000316321
0.00132244
0.000315248
0.00132292
0.000314149
0.00132273
0.000313023
0.00132187
0.000311953
0.0013201
0.000310938
0.00131797
0.000314833
0.00131543
0.000319133
0.00131199
0.000323545
0.00130795
0.000328098
0.00130295
0.000332791
0.00129796
0.00033752
0.00129191
0.000341431
0.00128459
0.000335982
0.0012747
0.000405117
0.00125757
0.000435586
0.000914503
0.000395281
0.000666019
0.000354882
0.000627675
0.000368766
0.00061236
0.000387235
0.000603373
0.000399283
0.000596794
0.000406612
0.00058912
0.000410824
0.000578691
0.000411826
0.000569135
0.000409931
0.00055449
0.000406291
0.000541764
0.000402237
0.000527171
0.000398175
0.000514129
0.000394361
0.000503122
0.000392134
0.000492406
0.000391529
0.000481971
0.000390933
0.000472518
0.000390196
0.000463933
0.000390237
0.000456074
0.000391086
0.000448932
0.000392458
0.000442799
0.000394123
0.000437686
0.000396205
0.000433454
0.000398565
0.000430009
0.000401344
0.000427234
0.000404299
0.000425064
0.000407751
0.000423559
0.000411574
0.000422342
0.00041646
0.000421957
0.000421994
0.000422988
0.000429088
0.000425552
0.00043672
0.000430034
0.000446728
0.000436613
0.000456651
0.000445775
0.00046708
0.000455339
0.000474833
0.000464239
0.000484975
0.000472265
0.00145947
0.00145895
0.000807485
0.00145533
0.000821461
0.00144865
0.000835692
0.00143894
0.000850176
0.0014263
0.000864899
0.00141082
0.000879845
0.00139261
0.000894989
0.00137183
0.000910301
0.00134864
0.000925746
0.00132321
0.000941287
0.00129572
0.000956881
0.00126637
0.000972484
0.00123537
0.000988052
0.00120292
0.00100354
0.00116922
0.00101889
0.0011345
0.00103408
0.00109894
0.00104905
0.00106275
0.00106375
0.0010261
0.00107816
0.000989196
0.00109224
0.000952191
0.00110594
0.000915245
0.00111924
0.000878506
0.00113211
0.000842106
0.00114453
0.000806167
0.00115647
0.000770796
0.00116792
0.000736087
0.00117886
0.000702124
0.00118927
0.000668977
0.00119917
0.000636706
0.00120852
0.000605359
0.00121734
0.000574975
0.00122561
0.000545581
0.00123334
0.0005172
0.00124053
0.000489843
0.00124719
0.000463515
0.00125331
0.000438216
0.00125891
0.000413939
0.00126399
0.000390672
0.00126855
0.000368399
0.0012726
0.000347101
0.00127615
0.000326754
0.0012792
0.000307334
0.00128177
0.000288812
0.00128385
0.000321397
0.00128546
0.000322571
0.0012906
0.000323617
0.00129591
0.000324532
0.00130134
0.000325313
0.00130685
0.000325957
0.0013124
0.000326462
0.00131794
0.000326826
0.00132344
0.000327049
0.00132885
0.000327129
0.00133413
0.000327067
0.00133924
0.000326865
0.00134413
0.000326524
0.00134876
0.000326047
0.00135311
0.00032544
0.00135712
0.000324703
0.00136076
0.000323849
0.00136398
0.000322878
0.00136676
0.000321807
0.00136906
0.000320639
0.00137085
0.000319381
0.00137211
0.000318059
0.00137281
0.000316689
0.00137281
0.000315257
0.00137237
0.000313787
0.00137119
0.000312309
0.00136937
0.00031088
0.00136661
0.000312915
0.00136362
0.000317521
0.00136004
0.000322205
0.00135551
0.000327017
0.00135032
0.000331986
0.00134419
0.000336869
0.00133789
0.000341415
0.00133032
0.00034443
0.00132176
0.000330673
0.0013107
0.000427173
0.00129203
0.000428767
0.000819489
0.000387388
0.000671862
0.000345939
0.000639317
0.000375898
0.000622875
0.000394132
0.000614816
0.000405716
0.000609075
0.000413006
0.000599857
0.000417616
0.000590306
0.000419045
0.000579994
0.000417342
0.00056634
0.000414178
0.000554055
0.000409893
0.000539325
0.000405346
0.000526105
0.000401358
0.000514107
0.000398954
0.000502417
0.000397635
0.000491362
0.000396344
0.000481348
0.000395341
0.000472137
0.000395471
0.000463671
0.000396249
0.000456117
0.000397495
0.000449643
0.000398966
0.000444192
0.000401031
0.000439592
0.000403399
0.000435755
0.000406203
0.000432605
0.000409181
0.000430083
0.000412716
0.000428102
0.000416658
0.000426473
0.000421849
0.000425925
0.000427633
0.000426723
0.000435117
0.000429113
0.000443145
0.000433379
0.000453575
0.00043972
0.000463868
0.00044854
0.000474617
0.000457474
0.00048274
0.00046598
0.000493265
0.000473858
0.00146648
0.00146609
0.000820535
0.0014626
0.000836449
0.00145605
0.000852599
0.00144647
0.000868983
0.00143394
0.000885589
0.00141856
0.0009024
0.00140044
0.000919391
0.00137973
0.000936531
0.00135659
0.000953785
0.00133118
0.000971112
0.0013037
0.000988469
0.00127433
0.00100581
0.00124329
0.00102309
0.00121077
0.00104025
0.001177
0.00105725
0.00114216
0.00107405
0.00110647
0.00109059
0.00107012
0.00110683
0.00103331
0.00112273
0.000996212
0.00113825
0.000959001
0.00115336
0.000921836
0.00116801
0.000884865
0.00118219
0.000848222
0.00119587
0.000812029
0.00120902
0.000776397
0.00122163
0.000741422
0.00123369
0.000707187
0.00124517
0.000673765
0.00125607
0.000641217
0.00126639
0.000609591
0.00127612
0.000578928
0.00128525
0.000549257
0.0012938
0.000520599
0.00130177
0.000492967
0.00130914
0.000466368
0.00131594
0.000440799
0.00132217
0.000416257
0.00132784
0.000392728
0.00133294
0.000370197
0.0013375
0.000348645
0.00134151
0.000328048
0.00134499
0.000308381
0.00134795
0.000289617
0.00135038
0.000324601
0.0013523
0.000325859
0.00135691
0.000326968
0.00136166
0.000327923
0.00136651
0.00032872
0.00137141
0.000329357
0.00137633
0.000329832
0.00138122
0.000330141
0.00138604
0.000330286
0.00139074
0.000330265
0.0013953
0.000330078
0.00139966
0.000329727
0.00140379
0.000329217
0.00140764
0.000328546
0.00141118
0.000327725
0.00141437
0.000326755
0.00141716
0.000325646
0.00141952
0.000324404
0.00142143
0.000323041
0.00142283
0.000321569
0.00142371
0.000319995
0.00142406
0.000318337
0.00142382
0.00031662
0.00142288
0.000314839
0.00142143
0.000313011
0.00141934
0.000311165
0.00141652
0.000310892
0.00141287
0.000315753
0.00140885
0.000320753
0.00140412
0.00032583
0.00139852
0.000331008
0.00139221
0.000336227
0.0013852
0.000341469
0.00137802
0.00034648
0.00137029
0.00034908
0.00136202
0.000339929
0.00135575
0.000435464
0.00130806
0.000417914
0.000775224
0.000374867
0.000679102
0.000352965
0.000651637
0.000383095
0.000634591
0.000401056
0.000627559
0.000412505
0.000621536
0.000419444
0.000610986
0.000423953
0.000601223
0.000425337
0.000590462
0.000423828
0.000576826
0.000421001
0.000564248
0.000416498
0.000549477
0.000411651
0.000535879
0.000407743
0.000523228
0.000405211
0.000511103
0.000403582
0.000499899
0.000402119
0.000489799
0.000401019
0.000480516
0.000401088
0.000471941
0.000401699
0.000464182
0.000402799
0.000457424
0.00040416
0.000451596
0.000406167
0.000446478
0.000408394
0.000442078
0.000411128
0.000438319
0.000414115
0.000435281
0.00041774
0.000432629
0.00042183
0.000430655
0.000427337
0.000430008
0.000433364
0.000430653
0.000441207
0.00043284
0.000449665
0.00043691
0.000460492
0.000442963
0.000471142
0.000451373
0.000482138
0.000459738
0.0004907
0.000467796
0.000501561
0.000475554
0.00147454
0.00147427
0.000834816
0.00147091
0.000852607
0.00146448
0.000870615
0.00145502
0.00088884
0.00144259
0.000907271
0.00142731
0.000925891
0.00140927
0.000944674
0.00138862
0.000963588
0.00136551
0.000982597
0.00134012
0.00100166
0.00131263
0.00102073
0.00128324
0.00103975
0.00125214
0.00105869
0.00121954
0.00107748
0.00118565
0.00109608
0.00115069
0.00111444
0.00111484
0.00113251
0.00107832
0.00115024
0.00104131
0.00116758
0.001004
0.00118451
0.000966561
0.00120098
0.00092915
0.00121695
0.000891919
0.0012324
0.000855006
0.00124731
0.000818533
0.00126163
0.000782613
0.00127537
0.000747343
0.0012885
0.000712809
0.00130102
0.000679084
0.0013129
0.00064623
0.00132415
0.000614299
0.00133476
0.00058333
0.00134474
0.000553355
0.00135408
0.000524394
0.00136279
0.000496462
0.00137087
0.000469566
0.00137832
0.000443705
0.00138517
0.000418874
0.0013914
0.00039506
0.00139704
0.000372249
0.00140208
0.00035042
0.00140655
0.000329552
0.00141044
0.000309618
0.00141377
0.000290592
0.00141654
0.000327582
0.00141877
0.000328913
0.00142284
0.000330071
0.00142703
0.000331053
0.00143129
0.000331854
0.00143558
0.000332471
0.00143987
0.000332902
0.0014441
0.000333145
0.00144824
0.0003332
0.00145225
0.000333065
0.00145608
0.000332742
0.00145969
0.000332233
0.00146306
0.000331542
0.00146612
0.00033067
0.00146885
0.000329625
0.00147121
0.000328413
0.00147316
0.000327043
0.00147466
0.000325522
0.00147569
0.000323865
0.0014762
0.000322081
0.00147616
0.000320187
0.00147558
0.00031819
0.0014744
0.000316128
0.00147254
0.000313996
0.0014701
0.000311823
0.00146702
0.000309611
0.00146322
0.000313881
0.00145878
0.000319142
0.00145359
0.000324518
0.00144779
0.000329986
0.00144129
0.000335563
0.00143394
0.000341217
0.0014263
0.000346912
0.00141841
0.000352355
0.00141017
0.000353395
0.00140105
0.00037517
0.0013932
0.000435047
0.00117637
0.000406199
0.000756842
0.00036165
0.000686505
0.00036471
0.000661381
0.00039104
0.000646651
0.000408177
0.000639822
0.000419175
0.000633812
0.000426035
0.000623156
0.00043057
0.000613565
0.00043209
0.000602835
0.000430843
0.000589
0.000428485
0.000576267
0.000423778
0.000561133
0.000418544
0.000546685
0.000414258
0.000532809
0.000411469
0.000519915
0.000409359
0.000508251
0.000407614
0.000497695
0.000406524
0.000487962
0.000406613
0.00047903
0.000407118
0.000471067
0.000408117
0.000464192
0.000409417
0.000458146
0.000411392
0.000452792
0.000413522
0.000448079
0.000416177
0.000443916
0.000419116
0.000440356
0.000422796
0.000437148
0.000427103
0.000435022
0.000432873
0.000434053
0.000439136
0.000434553
0.00044732
0.000436487
0.000456212
0.00044034
0.000467414
0.000446048
0.000478391
0.000454076
0.000489612
0.000461962
0.00049865
0.000469644
0.000509829
0.000477277
0.00148365
0.00148349
0.000850343
0.00148025
0.000869944
0.00147393
0.000889746
0.00146457
0.000909749
0.00145225
0.000929943
0.00143705
0.00095031
0.00141908
0.000970825
0.00139848
0.000991455
0.00137541
0.00101216
0.00135002
0.0010329
0.00132251