/*--------------------------------*- C++ -*----------------------------------*\
| =========                 |                                                 |
| \\      /  F ield         | OpenFOAM: The Open Source CFD Toolbox           |
|  \\    /   O peration     | Version:  2.2.x                                 |
|   \\  /    A nd           | Web:      www.OpenFOAM.org                      |
|    \\/     M anipulation  |                                                 |
\*---------------------------------------------------------------------------*/
FoamFile
{
    version     2.0;
    format      ascii;
    class       volScalarField;
    location    "0.2";
    object      Ma;
}
// * * * * * * * * * * * * * * * * * * * * * * * * * * * * * * * * * * * * * //

dimensions      [0 0 0 0 0 0 0];

internalField   nonuniform List<scalar> 
14161
(
2.59808
2.59808
2.59808
2.59808
2.59808
2.59808
2.59808
2.59808
2.59808
2.59808
2.59808
2.59808
2.59808
2.59808
2.59808
2.59808
2.59808
2.59808
2.59808
2.59808
2.59808
2.59808
2.59808
2.59808
2.59808
2.59808
2.59808
2.59808
2.59809
2.59812
2.59814
2.59819
2.59823
2.5983
2.5984
2.59852
2.59866
2.59881
2.599
2.59922
2.59947
2.59977
2.60006
2.60039
2.60077
2.60116
2.60162
2.60213
2.60272
2.60337
2.60412
2.60496
2.60587
2.60693
2.60809
2.60942
2.61089
2.61257
2.61438
2.61657
2.61879
2.62159
2.62449
2.62775
2.632
2.63606
2.64026
2.64523
2.65087
2.6579
2.66555
2.67572
2.68522
2.69346
2.70273
2.71347
2.72647
2.74239
2.77116
2.80705
2.83806
2.80378
0.88347
0.496256
0.495867
0.550608
0.561734
0.552407
0.528027
0.486092
0.448733
0.409397
0.378465
0.352303
0.329968
0.311461
0.296474
0.282407
0.267932
0.252888
0.237443
0.222038
0.207426
0.194139
0.182026
0.170671
0.15966
0.148719
0.137492
0.125221
0.111371
0.0969348
0.0832513
0.0706594
0.0587137
0.0468804
0.0357756
0.0234129
0.0134242
2.59808
2.59808
2.59808
2.59808
2.59808
2.59808
2.59808
2.59808
2.59808
2.59808
2.59808
2.59808
2.59808
2.59808
2.59808
2.59808
2.59808
2.59808
2.59808
2.59808
2.59808
2.59808
2.59808
2.59808
2.59808
2.59808
2.59808
2.59808
2.59809
2.59812
2.59814
2.59819
2.59823
2.5983
2.5984
2.5985
2.59866
2.59881
2.599
2.59922
2.59947
2.59974
2.60005
2.60039
2.60076
2.60116
2.60162
2.60213
2.60271
2.60335
2.60408
2.6049
2.60584
2.60687
2.60808
2.60935
2.61089
2.61246
2.61438
2.6165
2.61886
2.62159
2.62455
2.62768
2.63144
2.63588
2.64073
2.64507
2.65093
2.65765
2.66521
2.6741
2.6825
2.69247
2.70546
2.71541
2.73272
2.75022
2.77425
2.8081
2.85033
2.82251
0.962603
0.524615
0.514825
0.56085
0.568582
0.550123
0.528623
0.483763
0.449715
0.414141
0.383905
0.357999
0.335738
0.316951
0.301042
0.286015
0.27092
0.255533
0.239882
0.224285
0.209381
0.195707
0.183171
0.171436
0.160151
0.149014
0.137703
0.125471
0.111794
0.0977118
0.08456
0.0725203
0.0614697
0.0503569
0.0404809
0.0296895
0.0258769
2.59808
2.59808
2.59808
2.59808
2.59808
2.59808
2.59808
2.59808
2.59808
2.59808
2.59808
2.59808
2.59808
2.59808
2.59808
2.59808
2.59808
2.59808
2.59808
2.59808
2.59808
2.59808
2.59808
2.59808
2.59808
2.59808
2.59808
2.59808
2.59809
2.59812
2.59814
2.59819
2.59823
2.5983
2.5984
2.5985
2.59865
2.59881
2.599
2.59921
2.59946
2.59974
2.60005
2.60038
2.60075
2.60115
2.60159
2.60211
2.60268
2.60331
2.60405
2.60486
2.60577
2.60683
2.60796
2.60932
2.61071
2.61244
2.61421
2.61643
2.61858
2.62128
2.62423
2.62736
2.63128
2.6353
2.64022
2.64464
2.65053
2.65693
2.66454
2.67221
2.67913
2.69172
2.70432
2.72023
2.73774
2.75511
2.77597
2.78676
2.79239
2.70347
0.962953
0.546588
0.531271
0.567768
0.574958
0.549432
0.532582
0.489414
0.457878
0.423043
0.391941
0.364327
0.340271
0.320029
0.302969
0.28705
0.271288
0.255456
0.239392
0.223615
0.208757
0.19528
0.182985
0.171456
0.160318
0.149306
0.138132
0.126016
0.112578
0.0989811
0.0866206
0.075394
0.0657078
0.0558501
0.0479806
0.039769
0.0402892
2.59808
2.59808
2.59808
2.59808
2.59808
2.59808
2.59808
2.59808
2.59808
2.59808
2.59808
2.59808
2.59808
2.59808
2.59808
2.59808
2.59808
2.59808
2.59808
2.59808
2.59808
2.59808
2.59808
2.59808
2.59808
2.59808
2.59808
2.59808
2.59809
2.5981
2.59814
2.59817
2.59823
2.5983
2.5984
2.59849
2.59863
2.5988
2.59899
2.5992
2.59945
2.59972
2.60003
2.60036
2.60071
2.6011
2.60154
2.60206
2.60263
2.60326
2.604
2.60479
2.60571
2.60669
2.60789
2.60912
2.6106
2.61218
2.61404
2.61605
2.61832
2.62083
2.62383
2.62688
2.63051
2.63491
2.63935
2.64386
2.64953
2.65684
2.66296
2.67013
2.67698
2.6886
2.7045
2.7195
2.73609
2.74476
2.76139
2.77403
2.77226
2.71027
0.91187
0.556895
0.539074
0.563902
0.566905
0.538138
0.522861
0.485503
0.456841
0.424772
0.395135
0.368182
0.343743
0.322397
0.304218
0.287612
0.271711
0.256099
0.240375
0.224965
0.210474
0.197251
0.185147
0.173755
0.162774
0.151927
0.140969
0.129024
0.11602
0.103006
0.0916373
0.0812742
0.0729443
0.0641327
0.0578783
0.0514994
0.054254
2.59808
2.59808
2.59808
2.59808
2.59808
2.59808
2.59808
2.59808
2.59808
2.59808
2.59808
2.59808
2.59808
2.59808
2.59808
2.59808
2.59808
2.59808
2.59808
2.59808
2.59808
2.59808
2.59808
2.59808
2.59808
2.59808
2.59808
2.59808
2.59809
2.5981
2.59814
2.59817
2.59822
2.59829
2.59839
2.59849
2.59862
2.59879
2.59896
2.59919
2.59942
2.59968
2.59999
2.60031
2.60066
2.60104
2.60149
2.60199
2.60255
2.60318
2.60387
2.60468
2.60554
2.60656
2.60767
2.60894
2.61031
2.61198
2.61364
2.61571
2.61787
2.62045
2.6232
2.62631
2.62969
2.63378
2.63836
2.64296
2.64845
2.655
2.66169
2.66846
2.67517
2.68604
2.70031
2.71389
2.72496
2.73509
2.75346
2.77766
2.78287
2.706
0.845265
0.559342
0.535633
0.541434
0.546636
0.519278
0.507289
0.476072
0.450744
0.422925
0.395462
0.370208
0.347157
0.326253
0.307753
0.290679
0.27457
0.258864
0.243033
0.227652
0.213285
0.200169
0.188104
0.176617
0.165515
0.15454
0.143507
0.131558
0.11902
0.106835
0.0968135
0.087553
0.0807893
0.073128
0.0684412
0.0634482
0.0676452
2.59808
2.59808
2.59808
2.59808
2.59808
2.59808
2.59808
2.59808
2.59808
2.59808
2.59808
2.59808
2.59808
2.59808
2.59808
2.59808
2.59808
2.59808
2.59808
2.59808
2.59808
2.59808
2.59808
2.59808
2.59808
2.59808
2.59808
2.59808
2.59809
2.5981
2.59814
2.59816
2.59822
2.59829
2.59837
2.59848
2.59861
2.59876
2.59894
2.59915
2.59939
2.59965
2.59994
2.60026
2.60061
2.60098
2.60142
2.60188
2.60244
2.60304
2.60374
2.6045
2.60538
2.60635
2.60745
2.60866
2.61004
2.61155
2.61331
2.61518
2.61738
2.61977
2.62246
2.6254
2.62876
2.63251
2.63691
2.6415
2.64675
2.65287
2.65948
2.66633
2.67277
2.68288
2.69426
2.70552
2.71761
2.73037
2.75315
2.79913
2.81321
2.3821
0.766372
0.55277
0.521311
0.506334
0.512069
0.494695
0.486601
0.465784
0.442704
0.417937
0.391447
0.366149
0.343671
0.32305
0.304474
0.287715
0.272043
0.256752
0.24135
0.226662
0.213062
0.200518
0.188981
0.177824
0.167067
0.156427
0.145815
0.134358
0.122807
0.111732
0.103226
0.0950637
0.0896748
0.0829468
0.0794322
0.0753174
0.0802695
2.59808
2.59808
2.59808
2.59808
2.59808
2.59808
2.59808
2.59808
2.59808
2.59808
2.59808
2.59808
2.59808
2.59808
2.59808
2.59808
2.59808
2.59808
2.59808
2.59808
2.59808
2.59808
2.59808
2.59808
2.59808
2.59808
2.59808
2.59808
2.59809
2.5981
2.59813
2.59816
2.59821
2.59828
2.59836
2.59847
2.59859
2.59874
2.59892
2.59912
2.59934
2.5996
2.59987
2.60019
2.60052
2.60089
2.6013
2.60178
2.60231
2.6029
2.60355
2.60431
2.60514
2.60608
2.60712
2.60833
2.60959
2.61112
2.61272
2.6146
2.6166
2.61897
2.62144
2.62431
2.62749
2.63114
2.63518
2.63965
2.6446
2.65077
2.65659
2.6621
2.66953
2.67849
2.68885
2.69988
2.71164
2.72816
2.75321
2.78874
2.72665
1.89068
0.704734
0.544201
0.494711
0.477565
0.477055
0.481283
0.466229
0.458453
0.438211
0.41691
0.392209
0.36741
0.345485
0.324964
0.30624
0.289392
0.273715
0.258324
0.243265
0.229118
0.216133
0.203931
0.19269
0.181679
0.171103
0.160616
0.150161
0.13892
0.128199
0.118062
0.110849
0.103573
0.0992096
0.0931766
0.0904499
0.0869063
0.0922413
2.59808
2.59808
2.59808
2.59808
2.59808
2.59808
2.59808
2.59808
2.59808
2.59808
2.59808
2.59808
2.59808
2.59808
2.59808
2.59808
2.59808
2.59808
2.59808
2.59808
2.59808
2.59808
2.59808
2.59808
2.59808
2.59808
2.59808
2.59808
2.59808
2.59809
2.59813
2.59815
2.59821
2.59827
2.59834
2.59843
2.59856
2.5987
2.59888
2.59907
2.59928
2.59953
2.5998
2.60011
2.60043
2.60078
2.60117
2.60162
2.60213
2.6027
2.60335
2.60405
2.60485
2.60573
2.60674
2.60786
2.60913
2.61049
2.61209
2.61382
2.61575
2.61794
2.62036
2.62307
2.62608
2.62958
2.63347
2.63737
2.6424
2.64732
2.65276
2.6581
2.66543
2.67467
2.68303
2.69464
2.70513
2.71526
2.72569
2.71467
2.57521
1.41813
0.649113
0.529398
0.467361
0.450894
0.455149
0.461233
0.454762
0.450398
0.433219
0.413886
0.388961
0.363904
0.341125
0.320512
0.30176
0.285177
0.269868
0.25496
0.240901
0.227861
0.215903
0.20465
0.19412
0.183699
0.173708
0.163783
0.153913
0.143389
0.133876
0.12493
0.119067
0.112639
0.109056
0.103576
0.101321
0.0981383
0.103561
2.59808
2.59808
2.59808
2.59808
2.59808
2.59808
2.59808
2.59808
2.59808
2.59808
2.59808
2.59808
2.59808
2.59808
2.59808
2.59808
2.59808
2.59808
2.59808
2.59808
2.59808
2.59808
2.59808
2.59808
2.59808
2.59808
2.59808
2.59808
2.59808
2.59809
2.59812
2.59815
2.5982
2.59826
2.59833
2.59841
2.59854
2.59867
2.59882
2.59901
2.59922
2.59946
2.59972
2.59999
2.60031
2.60064
2.60102
2.60146
2.60193
2.60246
2.60307
2.60375
2.60449
2.60536
2.60629
2.60736
2.60849
2.60984
2.61129
2.61294
2.61477
2.61677
2.61908
2.62158
2.62439
2.62768
2.63129
2.63487
2.63931
2.64405
2.64907
2.65365
2.66156
2.66936
2.67763
2.6854
2.69364
2.70026
2.70579
2.69851
2.6403
1.08753
0.605142
0.506814
0.445928
0.428537
0.44649
0.449291
0.448212
0.445532
0.431971
0.415786
0.392799
0.36929
0.346228
0.324198
0.304621
0.28692
0.270169
0.254437
0.240389
0.227804
0.216384
0.205601
0.195565
0.185785
0.17654
0.167296
0.158058
0.148362
0.140147
0.132367
0.127679
0.122006
0.118975
0.11392
0.111902
0.10901
0.114322
2.59808
2.59808
2.59808
2.59808
2.59808
2.59808
2.59808
2.59808
2.59808
2.59808
2.59808
2.59808
2.59808
2.59808
2.59808
2.59808
2.59808
2.59808
2.59808
2.59808
2.59808
2.59808
2.59808
2.59808
2.59808
2.59808
2.59808
2.59808
2.59808
2.59809
2.5981
2.59814
2.59817
2.59823
2.59829
2.59839
2.59849
2.59862
2.59876
2.59894
2.59914
2.59935
2.5996
2.59987
2.60017
2.60047
2.60083
2.60123
2.60168
2.60219
2.60276
2.60339
2.60409
2.60488
2.60576
2.60673
2.60785
2.60904
2.6104
2.61195
2.61359
2.61549
2.61753
2.61992
2.62246
2.62545
2.62872
2.63201
2.6362
2.64049
2.6451
2.64995
2.6564
2.66331
2.66988
2.67638
2.68468
2.69757
2.71944
2.7288
2.59138
0.85508
0.567514
0.479325
0.432007
0.415776
0.439715
0.441685
0.442154
0.439351
0.426373
0.410517
0.388355
0.365662
0.342904
0.321721
0.303573
0.287358
0.272044
0.257771
0.244706
0.232492
0.221204
0.210306
0.200125
0.190173
0.180982
0.171937
0.16314
0.15426
0.147345
0.140627
0.136813
0.131732
0.12898
0.124184
0.122166
0.119537
0.124617
2.59808
2.59808
2.59808
2.59808
2.59808
2.59808
2.59808
2.59808
2.59808
2.59808
2.59808
2.59808
2.59808
2.59808
2.59808
2.59808
2.59808
2.59808
2.59808
2.59808
2.59808
2.59808
2.59808
2.59808
2.59806
2.59806
2.59806
2.59808
2.59808
2.59808
2.59809
2.59813
2.59816
2.59821
2.59827
2.59835
2.59844
2.59856
2.5987
2.59887
2.59905
2.59926
2.59947
2.59973
2.59999
2.60029
2.60062
2.60098
2.6014
2.60187
2.60238
2.60298
2.6036
2.60435
2.60514
2.60607
2.60705
2.60817
2.6094
2.61076
2.61232
2.61399
2.61589
2.61801
2.6203
2.62291
2.62602
2.62886
2.63253
2.63664
2.64096
2.64565
2.65072
2.65652
2.66337
2.6707
2.68159
2.69879
2.71708
2.65644
1.91464
0.71492
0.531112
0.444607
0.415201
0.411224
0.435122
0.440557
0.443779
0.442702
0.430873
0.415788
0.39397
0.369994
0.344611
0.321524
0.302393
0.285725
0.270584
0.256993
0.245045
0.233886
0.223619
0.213567
0.204216
0.194769
0.185982
0.177041
0.1687
0.160636
0.154873
0.148996
0.14587
0.141328
0.138695
0.134082
0.132033
0.129721
0.134513
2.59808
2.59808
2.59808
2.59808
2.59808
2.59808
2.59808
2.59808
2.59808
2.59808
2.59808
2.59808
2.59808
2.59808
2.59808
2.59808
2.59808
2.59808
2.59808
2.59808
2.59808
2.59808
2.59808
2.59808
2.59806
2.59806
2.59806
2.59806
2.59806
2.59808
2.59809
2.5981
2.59814
2.59819
2.59823
2.5983
2.5984
2.5985
2.59863
2.59877
2.59894
2.59913
2.59933
2.59955
2.5998
2.60007
2.60037
2.60071
2.60109
2.6015
2.60199
2.6025
2.6031
2.60374
2.60447
2.60528
2.60619
2.60717
2.60827
2.60951
2.61088
2.6124
2.61405
2.61597
2.61798
2.62032
2.62291
2.62568
2.62879
2.63254
2.63672
2.64094
2.64514
2.6503
2.65716
2.66493
2.67056
2.67396
2.65484
2.53796
1.30269
0.620031
0.496359
0.416705
0.398107
0.418154
0.42849
0.437377
0.440397
0.441756
0.431649
0.418638
0.399473
0.378071
0.353908
0.329887
0.309293
0.291172
0.274949
0.26079
0.248528
0.237302
0.227112
0.21721
0.20825
0.199185
0.190944
0.18241
0.174898
0.167721
0.163047
0.157782
0.155112
0.150903
0.148203
0.143655
0.141538
0.139552
0.143988
2.59808
2.59808
2.59808
2.59808
2.59808
2.59808
2.59808
2.59808
2.59808
2.59808
2.59808
2.59808
2.59808
2.59808
2.59808
2.59808
2.59808
2.59808
2.59808
2.59808
2.59808
2.59808
2.59808
2.59808
2.59806
2.59806
2.59806
2.59806
2.59806
2.59806
2.59808
2.59809
2.59813
2.59815
2.59821
2.59827
2.59835
2.59843
2.59855
2.59868
2.59882
2.59899
2.59917
2.59937
2.5996
2.59984
2.6001
2.6004
2.60073
2.60111
2.60153
2.602
2.60251
2.60309
2.60372
2.60445
2.60522
2.60611
2.60709
2.60815
2.60935
2.61066
2.61212
2.61374
2.61555
2.61755
2.61977
2.62231
2.62502
2.62826
2.63175
2.63572
2.63943
2.64374
2.64967
2.65561
2.66204
2.67077
2.66943
2.70686
0.926618
0.563093
0.459842
0.403706
0.39008
0.424207
0.431144
0.440866
0.441332
0.441641
0.431338
0.418169
0.399589
0.379039
0.356127
0.333643
0.314318
0.296898
0.281199
0.26747
0.255451
0.244205
0.233966
0.223833
0.214728
0.205464
0.197278
0.188822
0.182027
0.175535
0.171526
0.166646
0.16421
0.160172
0.157302
0.152811
0.150671
0.148986
0.153016
2.59808
2.59808
2.59808
2.59808
2.59808
2.59808
2.59808
2.59808
2.59808
2.59808
2.59808
2.59808
2.59808
2.59808
2.59808
2.59808
2.59808
2.59808
2.59808
2.59808
2.59808
2.59808
2.59808
2.59806
2.59806
2.59806
2.59806
2.59806
2.59806
2.59806
2.59806
2.59808
2.59809
2.59813
2.59816
2.59822
2.59828
2.59836
2.59845
2.59856
2.59869
2.59883
2.599
2.59916
2.59936
2.59956
2.5998
2.60006
2.60034
2.60067
2.60103
2.60143
2.60188
2.60238
2.60292
2.60354
2.60421
2.60497
2.60579
2.60672
2.60769
2.60884
2.61005
2.61144
2.61296
2.6147
2.61653
2.61878
2.62097
2.6237
2.62673
2.63005
2.63331
2.63723
2.6427
2.64971
2.66155
2.68108
2.65466
2.07529
0.708446
0.499308
0.42072
0.392495
0.398197
0.424174
0.438034
0.448121
0.450416
0.451389
0.442127
0.428397
0.408781
0.386894
0.361601
0.337831
0.317792
0.300394
0.28497
0.271501
0.259689
0.248572
0.238671
0.228711
0.219884
0.210861
0.20315
0.195271
0.189428
0.183619
0.180128
0.175562
0.173207
0.169227
0.166076
0.161603
0.159435
0.157968
0.161574
2.59808
2.59808
2.59808
2.59808
2.59808
2.59808
2.59808
2.59808
2.59808
2.59808
2.59808
2.59808
2.59808
2.59808
2.59808
2.59808
2.59808
2.59808
2.59808
2.59808
2.59808
2.59808
2.59808
2.59806
2.59806
2.59806
2.59806
2.59805
2.59805
2.59803
2.59805
2.59806
2.59808
2.59809
2.59813
2.59816
2.59821
2.59828
2.59835
2.59844
2.59855
2.59868
2.59881
2.59895
2.59911
2.59929
2.59948
2.59969
2.59994
2.6002
2.60051
2.60084
2.60121
2.60163
2.60207
2.60259
2.60313
2.60376
2.60442
2.60518
2.60601
2.60691
2.6079
2.60901
2.61029
2.61169
2.61328
2.61507
2.6168
2.61903
2.62159
2.62435
2.6275
2.63114
2.63634
2.6394
2.64115
2.62547
2.53415
1.29153
0.582446
0.455282
0.39503
0.38075
0.414639
0.427433
0.440686
0.449323
0.451543
0.453027
0.446039
0.434202
0.416986
0.396965
0.372644
0.348599
0.327465
0.309493
0.293902
0.28021
0.268108
0.2566
0.246481
0.236199
0.227181
0.21798
0.210315
0.202796
0.197592
0.192138
0.188883
0.184452
0.182001
0.177947
0.174497
0.170094
0.167856
0.166571
0.169771
2.59808
2.59808
2.59808
2.59808
2.59808
2.59808
2.59808
2.59808
2.59808
2.59808
2.59808
2.59808
2.59808
2.59808
2.59808
2.59808
2.59808
2.59808
2.59808
2.59808
2.59808
2.59808
2.59808
2.59806
2.59806
2.59806
2.59805
2.59803
2.59803
2.59803
2.59803
2.59803
2.59803
2.59806
2.59808
2.5981
2.59814
2.59818
2.59824
2.59831
2.59841
2.59849
2.59861
2.59871
2.59884
2.59898
2.59914
2.59931
2.5995
2.59971
2.59995
2.60022
2.60052
2.60084
2.6012
2.60159
2.60204
2.60252
2.60305
2.60363
2.60428
2.60498
2.60577
2.60661
2.60756
2.60871
2.60994
2.61133
2.6126
2.61442
2.6165
2.61877
2.62099
2.6237
2.62692
2.63149
2.63844
2.64381
2.66841
0.866105
0.510483
0.418564
0.386422
0.389185
0.42386
0.439365
0.451963
0.459381
0.460957
0.460636
0.451967
0.43938
0.422382
0.402701
0.378777
0.355025
0.333642
0.315576
0.299972
0.286261
0.274264
0.262839
0.252939
0.242785
0.234051
0.225045
0.217901
0.210896
0.206124
0.200829
0.197658
0.193253
0.19059
0.186405
0.18267
0.178393
0.176018
0.174847
0.177661
2.59808
2.59808
2.59808
2.59808
2.59808
2.59808
2.59808
2.59808
2.59808
2.59808
2.59808
2.59808
2.59808
2.59808
2.59808
2.59808
2.59808
2.59808
2.59808
2.59808
2.59808
2.59808
2.59808
2.59806
2.59806
2.59806
2.59805
2.59803
2.59802
2.59802
2.59802
2.59801
2.59801
2.59802
2.59802
2.59803
2.59808
2.59809
2.59814
2.59818
2.59824
2.59831
2.59838
2.59848
2.59857
2.59868
2.59879
2.59892
2.59906
2.59922
2.59939
2.59958
2.59981
2.60004
2.6003
2.60061
2.60092
2.60127
2.60165
2.60207
2.60254
2.60307
2.60365
2.60427
2.60488
2.60569
2.60659
2.60757
2.60853
2.60986
2.61125
2.613
2.6146
2.61714
2.62063
2.62852
2.63247
2.57676
1.79074
0.626399
0.442773
0.393134
0.379251
0.410269
0.429759
0.447311
0.45993
0.467397
0.469412
0.470059
0.462771
0.451074
0.434548
0.414725
0.390779
0.366646
0.344581
0.325936
0.309795
0.295488
0.283061
0.271273
0.261131
0.250741
0.241955
0.232999
0.226253
0.21949
0.214918
0.209593
0.206358
0.201885
0.198898
0.194603
0.190673
0.186541
0.184037
0.182961
0.18553
2.59808
2.59808
2.59808
2.59808
2.59808
2.59808
2.59808
2.59808
2.59808
2.59808
2.59808
2.59808
2.59808
2.59808
2.59808
2.59808
2.59808
2.59808
2.59808
2.59808
2.59808
2.59808
2.59806
2.59806
2.59806
2.59805
2.59803
2.59802
2.59802
2.59801
2.59801
2.59799
2.59798
2.59796
2.59796
2.59798
2.59798
2.59799
2.59802
2.59805
2.59809
2.59812
2.59818
2.59824
2.5983
2.59837
2.59844
2.59852
2.59861
2.59872
2.59884
2.59895
2.59911
2.59926
2.59942
2.59961
2.59981
2.60004
2.6003
2.60057
2.60084
2.60117
2.60155
2.60194
2.60229
2.6027
2.60325
2.60385
2.60452
2.60535
2.60638
2.6076
2.60849
2.60988
2.60965
2.60896
2.60277
2.52429
1.08106
0.512317
0.408096
0.382593
0.388974
0.4248
0.441944
0.457733
0.468039
0.474482
0.475643
0.47629
0.469057
0.457896
0.44237
0.423153
0.399802
0.37551
0.353038
0.334077
0.317694
0.303206
0.290735
0.278954
0.268932
0.258655
0.250179
0.241521
0.235155
0.228455
0.223877
0.218432
0.214964
0.210335
0.207003
0.202696
0.198638
0.19462
0.191967
0.190914
0.193124
2.59808
2.59808
2.59808
2.59808
2.59808
2.59808
2.59808
2.59808
2.59808
2.59808
2.59808
2.59808
2.59808
2.59808
2.59808
2.59808
2.59808
2.59808
2.59808
2.59808
2.59808
2.59808
2.59806
2.59806
2.59806
2.59805
2.59803
2.59802
2.59801
2.59799
2.59798
2.59796
2.59795
2.59794
2.59791
2.59791
2.59791
2.59791
2.59791
2.59791
2.59792
2.59793
2.59796
2.59799
2.59802
2.59806
2.59808
2.59813
2.59819
2.59822
2.59828
2.59835
2.59842
2.59849
2.59858
2.59866
2.59876
2.59885
2.59897
2.5991
2.5992
2.59936
2.59951
2.59968
2.59982
2.59995
2.6001
2.60037
2.6006
2.60102
2.60144
2.60193
2.60223
2.6029
2.60501
2.61164
2.60732
2.3478
0.699831
0.436191
0.390297
0.379674
0.412295
0.435821
0.455755
0.470805
0.480408
0.486566
0.487637
0.488218
0.480786
0.469729
0.45455
0.43571
0.412712
0.387982
0.364858
0.345188
0.328201
0.313177
0.300323
0.288177
0.277929
0.267508
0.259157
0.250546
0.24426
0.237426
0.232705
0.227118
0.223321
0.21855
0.214897
0.210727
0.20651
0.202546
0.199715
0.198628
0.200518
2.59808
2.59808
2.59808
2.59808
2.59808
2.59808
2.59808
2.59808
2.59808
2.59808
2.59808
2.59808
2.59808
2.59808
2.59808
2.59808
2.59808
2.59808
2.59808
2.59808
2.59808
2.59808
2.59806
2.59806
2.59806
2.59803
2.59802
2.59802
2.59801
2.59798
2.59795
2.59794
2.59791
2.59789
2.59787
2.59784
2.59783
2.59779
2.59778
2.59778
2.59777
2.59775
2.59774
2.59774
2.59775
2.59775
2.59775
2.59775
2.59775
2.59776
2.59776
2.59776
2.59778
2.59778
2.59776
2.59776
2.59776
2.59773
2.59772
2.5977
2.59766
2.59762
2.5976
2.59755
2.5975
2.59732
2.59721
2.59711
2.597
2.59689
2.59686
2.59684
2.59699
2.59676
2.59541
2.58771
2.52498
1.35139
0.521108
0.395668
0.379191
0.401861
0.428399
0.449181
0.468274
0.480833
0.489232
0.4943
0.495307
0.496163
0.489024
0.478464
0.464014
0.445792
0.423357
0.398575
0.375129
0.354898
0.337604
0.322338
0.309357
0.297119
0.286921
0.27657
0.268418
0.259873
0.253594
0.246547
0.241587
0.235802
0.231586
0.226631
0.222788
0.218681
0.214244
0.210236
0.207185
0.206046
0.207341
2.59808
2.59808
2.59808
2.59808
2.59808
2.59808
2.59808
2.59808
2.59808
2.59808
2.59808
2.59808
2.59808
2.59808
2.59808
2.59808
2.59808
2.59808
2.59808
2.59808
2.59808
2.59808
2.59806
2.59806
2.59806
2.59803
2.59802
2.59801
2.59799
2.59796
2.59794
2.59791
2.59788
2.59784
2.59781
2.59778
2.59776
2.59771
2.59767
2.59764
2.5976
2.59759
2.59754
2.59753
2.59749
2.59747
2.59743
2.59739
2.59736
2.59732
2.59726
2.59721
2.59715
2.59708
2.59701
2.59691
2.59684
2.59669
2.59656
2.59642
2.59627
2.59606
2.59584
2.5956
2.59529
2.59493
2.59458
2.59418
2.59371
2.59326
2.59267
2.59203
2.59121
2.59038
2.58909
2.57775
2.53926
0.797789
0.434523
0.381412
0.391435
0.418318
0.447071
0.466298
0.482982
0.494257
0.502409
0.506816
0.507513
0.508378
0.501338
0.490876
0.476685
0.458862
0.436744
0.411967
0.387961
0.366903
0.349071
0.333311
0.319998
0.307462
0.297131
0.286643
0.278454
0.269677
0.263131
0.255718
0.250373
0.244316
0.239714
0.234672
0.230614
0.226486
0.221786
0.217639
0.214363
0.2131
0.213977
2.59808
2.59808
2.59808
2.59808
2.59808
2.59808
2.59808
2.59808
2.59808
2.59808
2.59808
2.59808
2.59808
2.59808
2.59808
2.59808
2.59808
2.59808
2.59808
2.59808
2.59808
2.59808
2.59806
2.59806
2.59805
2.59803
2.59802
2.59801
2.59798
2.59795
2.59792
2.59788
2.59784
2.59781
2.59777
2.59771
2.59766
2.59763
2.59757
2.59752
2.59746
2.59741
2.59735
2.59729
2.59725
2.59719
2.59712
2.59705
2.59699
2.59692
2.59682
2.5967
2.59659
2.59647
2.59633
2.59616
2.59598
2.5958
2.59555
2.59529
2.595
2.59469
2.59426
2.59386
2.59337
2.59282
2.59223
2.59155
2.5907
2.58985
2.58898
2.58767
2.58592
2.58477
2.58487
2.56588
1.64685
0.542434
0.391438
0.383094
0.416825
0.43775
0.463164
0.481568
0.495744
0.505428
0.512246
0.516159
0.516735
0.51762
0.511214
0.501078
0.487299
0.470133
0.448659
0.424226
0.399864
0.378083
0.359826
0.343732
0.330224
0.317519
0.307145
0.29654
0.288272
0.279297
0.272498
0.264835
0.259149
0.252864
0.247918
0.242787
0.238409
0.234161
0.229118
0.22478
0.221286
0.21984
0.220249
2.59808
2.59808
2.59808
2.59808
2.59808
2.59808
2.59808
2.59808
2.59808
2.59808
2.59808
2.59808
2.59808
2.59808
2.59808
2.59808
2.59808
2.59808
2.59808
2.59808
2.59808
2.59808
2.59806
2.59806
2.59805
2.59803
2.59802
2.59799
2.59796
2.59794
2.59789
2.59787
2.59781
2.59777
2.59771
2.59764
2.59759
2.59753
2.59746
2.59739
2.59732
2.59725
2.59717
2.5971
2.59703
2.59696
2.59686
2.59675
2.59665
2.59654
2.59641
2.59626
2.59611
2.59594
2.59573
2.59552
2.59527
2.59501
2.5947
2.59434
2.59396
2.59352
2.593
2.59239
2.59175
2.59097
2.59018
2.58919
2.5879
2.58665
2.58559
2.58445
2.58307
2.58011
2.57144
2.51444
0.921295
0.433971
0.378949
0.409896
0.433582
0.461103
0.480853
0.497484
0.510031
0.51901
0.525301
0.528917
0.529293
0.529695
0.52384
0.513852
0.500416
0.483695
0.46272
0.438596
0.413695
0.390978
0.372122
0.355513
0.341627
0.328577
0.31798
0.307041
0.298401
0.289077
0.281896
0.273946
0.267939
0.261419
0.256227
0.250994
0.246237
0.241714
0.236354
0.231754
0.228048
0.226498
0.226489
2.59808
2.59808
2.59808
2.59808
2.59808
2.59808
2.59808
2.59808
2.59808
2.59808
2.59808
2.59808
2.59808
2.59808
2.59808
2.59808
2.59808
2.59808
2.59808
2.59808
2.59808
2.59808
2.59806
2.59806
2.59805
2.59802
2.59801
2.59799
2.59795
2.59792
2.59788
2.59784
2.59778
2.59773
2.59766
2.59759
2.59752
2.59745
2.59737
2.59728
2.5972
2.5971
2.59702
2.59692
2.59682
2.59672
2.5966
2.59648
2.59635
2.59619
2.59604
2.59587
2.59568
2.59545
2.59523
2.59496
2.59469
2.59434
2.59397
2.59357
2.59311
2.59258
2.59198
2.59131
2.5905
2.58956
2.58852
2.58732
2.58603
2.58436
2.58228
2.57984
2.57807
2.5763
2.57479
1.95988
0.580171
0.403473
0.398824
0.435133
0.45643
0.479553
0.49774
0.511719
0.523339
0.531362
0.537055
0.540193
0.540347
0.540365
0.535062
0.525424
0.512604
0.49635
0.475983
0.452335
0.42709
0.403682
0.384229
0.367065
0.35272
0.339236
0.328309
0.317067
0.308152
0.298576
0.291108
0.282985
0.276722
0.270031
0.264658
0.259294
0.254176
0.249221
0.24347
0.238575
0.234659
0.233035
0.232574
2.59808
2.59808
2.59808
2.59808
2.59808
2.59808
2.59808
2.59808
2.59808
2.59808
2.59808
2.59808
2.59808
2.59808
2.59808
2.59808
2.59808
2.59808
2.59808
2.59808
2.59808
2.59808
2.59806
2.59806
2.59803
2.59802
2.59801
2.59799
2.59795
2.59791
2.59787
2.59781
2.59776
2.59769
2.59762
2.59755
2.59745
2.59737
2.59727
2.59718
2.59707
2.59696
2.59685
2.59675
2.59664
2.59651
2.59639
2.59623
2.59608
2.59591
2.59573
2.59554
2.59531
2.59507
2.59481
2.59452
2.5942
2.59384
2.59345
2.593
2.59247
2.59192
2.59125
2.59052
2.58964
2.58858
2.58735
2.586
2.58477
2.58315
2.58073
2.57697
2.5728
2.56898
2.55933
1.09943
0.450912
0.393007
0.432858
0.456048
0.479423
0.497953
0.514842
0.527735
0.538417
0.545449
0.55074
0.553609
0.553458
0.553194
0.547863
0.538567
0.526276
0.510371
0.490641
0.467485
0.441849
0.417606
0.397424
0.379602
0.364673
0.350603
0.339136
0.327457
0.318136
0.308245
0.300413
0.292064
0.285517
0.278666
0.273043
0.267444
0.26202
0.256631
0.250594
0.245406
0.241313
0.239628
0.239015
2.59808
2.59808
2.59808
2.59808
2.59808
2.59808
2.59808
2.59808
2.59808
2.59808
2.59808
2.59808
2.59808
2.59808
2.59808
2.59808
2.59808
2.59808
2.59808
2.59808
2.59808
2.59808
2.59806
2.59806
2.59803
2.59802
2.59801
2.59796
2.59794
2.59789
2.59786
2.5978
2.59773
2.59764
2.59757
2.59749
2.59739
2.5973
2.59718
2.59707
2.59696
2.59683
2.59671
2.59658
2.59646
2.59633
2.59618
2.59603
2.59584
2.59566
2.59547
2.59524
2.59501
2.59475
2.59446
2.59415
2.59382
2.59346
2.59304
2.5926
2.5921
2.59152
2.59086
2.59009
2.58924
2.58826
2.58703
2.58563
2.58417
2.58195
2.5799
2.57757
2.57305
2.56689
2.24163
0.651899
0.431228
0.423082
0.457771
0.477348
0.499612
0.5169
0.531482
0.543218
0.552488
0.558709
0.563359
0.565841
0.565697
0.565535
0.560344
0.551471
0.539655
0.524107
0.504819
0.482124
0.456427
0.4315
0.41058
0.392184
0.376736
0.362148
0.350183
0.33803
0.328198
0.317923
0.309724
0.301157
0.294289
0.287282
0.281338
0.275492
0.269775
0.263942
0.257539
0.252024
0.247786
0.246039
0.245251
2.59808
2.59808
2.59808
2.59808
2.59808
2.59808
2.59808
2.59808
2.59808
2.59808
2.59808
2.59808
2.59808
2.59808
2.59808
2.59808
2.59808
2.59808
2.59808
2.59808
2.59808
2.59806
2.59806
2.59806
2.59803
2.59802
2.59801
2.59796
2.59794
2.59788
2.59783
2.59777
2.5977
2.59763
2.59753
2.59744
2.59732
2.59721
2.59712
2.59699
2.59685
2.59671
2.59658
2.59644
2.59632
2.59615
2.59598
2.59583
2.59564
2.59542
2.59522
2.59499
2.59474
2.59446
2.59418
2.59388
2.59353
2.59317
2.59278
2.59233
2.59185
2.59132
2.59069
2.59002
2.58926
2.58834
2.58737
2.58622
2.58489
2.58275
2.57989
2.57596
2.57294
2.5811
1.29366
0.491707
0.424693
0.460722
0.481889
0.50139
0.519565
0.535304
0.548206
0.55888
0.567219
0.572689
0.576812
0.578651
0.57863
0.578565
0.573805
0.565391
0.553924
0.538722
0.519688
0.497028
0.471277
0.445705
0.423828
0.404793
0.388853
0.373831
0.361472
0.348921
0.338636
0.327932
0.319278
0.310337
0.303061
0.295818
0.289484
0.283314
0.277266
0.271097
0.264455
0.258806
0.254425
0.25262
0.251851
2.59808
2.59808
2.59808
2.59808
2.59808
2.59808
2.59808
2.59808
2.59808
2.59808
2.59808
2.59808
2.59808
2.59808
2.59808
2.59808
2.59808
2.59808
2.59808
2.59808
2.59808
2.59806
2.59806
2.59806
2.59803
2.59802
2.59799
2.59796
2.59794
2.59788
2.59783
2.59776
2.59769
2.59759
2.5975
2.59739
2.59727
2.59715
2.59702
2.59689
2.59675
2.59661
2.59646
2.59632
2.59615
2.596
2.59583
2.59564
2.59542
2.59522
2.59499
2.59474
2.59449
2.59421
2.59392
2.5936
2.59328
2.59292
2.59252
2.59212
2.59167
2.59119
2.59064
2.59005
2.58937
2.58862
2.58778
2.5869
2.58554
2.58386
2.58273
2.58231
2.58601
2.4754
0.76
0.469091
0.457117
0.487541
0.50448
0.523525
0.539049
0.552393
0.564429
0.573809
0.581652
0.58642
0.590139
0.591636
0.591742
0.591377
0.586964
0.578904
0.567875
0.553259
0.534791
0.512513
0.486901
0.460575
0.437541
0.417614
0.40102
0.385469
0.372648
0.359681
0.348981
0.337938
0.328927
0.319641
0.31195
0.304314
0.297604
0.29109
0.284771
0.278251
0.27132
0.265338
0.26085
0.258987
0.258096
2.59808
2.59808
2.59808
2.59808
2.59808
2.59808
2.59808
2.59808
2.59808
2.59808
2.59808
2.59808
2.59808
2.59808
2.59808
2.59808
2.59808
2.59808
2.59808
2.59808
2.59808
2.59806
2.59806
2.59806
2.59803
2.59802
2.59799
2.59795
2.59792
2.59787
2.59781
2.59774
2.59767
2.59756
2.59746
2.59735
2.59724
2.5971
2.59696
2.59681
2.59667
2.5965
2.59633
2.59618
2.59601
2.59584
2.59565
2.59545
2.59523
2.59501
2.59477
2.5945
2.59424
2.59396
2.59365
2.59335
2.59301
2.59266
2.59229
2.59191
2.59151
2.59109
2.5906
2.59012
2.58957
2.589
2.58838
2.58772
2.58676
2.5855
2.58296
2.57646
2.56724
1.53106
0.559245
0.471685
0.49593
0.514689
0.530137
0.545234
0.55849
0.569561
0.580007
0.588475
0.595952
0.600648
0.604277
0.605856
0.606163
0.60492
0.600706
0.592511
0.581819
0.567769
0.549829
0.528033
0.502736
0.475873
0.451781
0.430736
0.413269
0.397135
0.383854
0.370476
0.359366
0.347986
0.338552
0.328903
0.320721
0.312692
0.305558
0.298737
0.292079
0.285296
0.278195
0.272213
0.267672
0.265695
0.264775
2.59808
2.59808
2.59808
2.59808
2.59808
2.59808
2.59808
2.59808
2.59808
2.59808
2.59808
2.59808
2.59808
2.59808
2.59808
2.59808
2.59808
2.59808
2.59808
2.59808
2.59808
2.59806
2.59806
2.59806
2.59803
2.59802
2.59799
2.59795
2.59792
2.59787
2.5978
2.59773
2.59764
2.59755
2.59744
2.59731
2.59718
2.59705
2.59689
2.59674
2.59657
2.5964
2.59624
2.59607
2.59589
2.59569
2.59548
2.59527
2.59504
2.5948
2.59455
2.59427
2.59399
2.5937
2.59337
2.59305
2.59272
2.59239
2.59202
2.59166
2.5913
2.59092
2.5905
2.59008
2.58968
2.5893
2.58883
2.58822
2.5871
2.58623
2.58631
2.59874
2.5607
0.92007
0.516729
0.500626
0.524918
0.540584