/*--------------------------------*- C++ -*----------------------------------*\
| =========                 |                                                 |
| \\      /  F ield         | OpenFOAM: The Open Source CFD Toolbox           |
|  \\    /   O peration     | Version:  2.2.x                                 |
|   \\  /    A nd           | Web:      www.OpenFOAM.org                      |
|    \\/     M anipulation  |                                                 |
\*---------------------------------------------------------------------------*/
FoamFile
{
    version     2.0;
    format      ascii;
    class       surfaceScalarField;
    location    "0.9";
    object      cfmax;
}
// * * * * * * * * * * * * * * * * * * * * * * * * * * * * * * * * * * * * * //

dimensions      [0 3 -1 0 0 0 0];

internalField   nonuniform List<scalar> 
28084
(
0.00103347
0.00102899
0.00102514
0.0010219
0.00101925
0.00101715
0.00101556
0.00101446
0.0010138
0.00101356
0.00101369
0.00101415
0.00101492
0.00101594
0.00101719
0.00101863
0.00102022
0.00102194
0.00102374
0.0010256
0.00102748
0.00102938
0.00103125
0.00103308
0.00103485
0.00103658
0.000833421
0.000784404
0.000785681
0.000784786
0.000781801
0.000779178
0.000775861
0.000770215
0.000763908
0.00075768
0.000754317
0.000751111
0.000748357
0.000746148
0.000744549
0.000742939
0.000741117
0.000739168
0.000737004
0.000745204
0.00075398
0.000763124
0.000772527
0.000782058
0.00079173
0.000801217
0.000810189
0.000818607
0.000827271
0.00083606
0.00084485
0.000853449
0.00086164
0.000869011
0.000875055
0.000880426
0.000885706
0.000891148
0.000895998
0.000900187
0.000904015
0.00090767
0.000911026
0.000914234
0.000917111
0.000919312
0.000920738
0.000921383
0.000921042
0.000919552
0.000916791
0.000913683
0.000910047
0.000905625
0.000900047
0.000894217
0.000888292
0.0008826
0.000876389
0.000869612
0.000862782
0.000855454
0.000847446
0.000838702
0.000828958
0.000819703
0.000810856
0.000802384
0.000794399
0.000788064
0.000782504
0.000777768
0.000773821
0.00077032
0.000766984
0.000764883
0.000764
0.000764198
0.000765793
0.000769305
0.000774674
0.000781595
0.00079
0.000800048
0.000811528
0.000824278
0.000837992
0.000851827
0.000864281
0.000872899
0.000875854
0.000885244
0.00144695
0.00144445
0.00103834
0.00143891
0.00103701
0.00143036
0.00103628
0.00141888
0.00103613
0.00140457
0.00103652
0.00138752
0.00103742
0.00136789
0.00103881
0.00134583
0.00104065
0.00132151
0.0010429
0.00129529
0.00104552
0.00126748
0.00104847
0.00123793
0.00105172
0.00120683
0.00105522
0.0011744
0.00105893
0.00114085
0.00106282
0.00110637
0.00106683
0.00107116
0.00107094
0.00103541
0.0010751
0.000999315
0.00107929
0.000963037
0.00108347
0.000926741
0.00108761
0.000890577
0.00109167
0.000854685
0.00109564
0.000819189
0.0010995
0.000783738
0.00110325
0.00121537
0.00110667
0.00127631
0.000850102
0.00124089
0.00077081
0.00119415
0.000766169
0.00113732
0.000763584
0.00107732
0.000761942
0.00101631
0.000757839
0.000959039
0.000754878
0.000908865
0.000755392
0.000861264
0.000759136
0.000814949
0.000760282
0.000771789
0.000761248
0.000730811
0.000762085
0.00069242
0.000761801
0.000656664
0.00076067
0.000622697
0.00075898
0.000591023
0.000757678
0.000561055
0.000757102
0.00053122
0.000755758
0.000530726
0.000752775
0.000531492
0.000758935
0.000531692
0.000765376
0.000531212
0.000771545
0.000530091
0.000777207
0.000528381
0.000782057
0.000526034
0.000786032
0.000523886
0.000789433
0.000523078
0.000794399
0.000523682
0.000800679
0.000524874
0.000807668
0.000526458
0.000814823
0.000528323
0.000821984
0.000530547
0.000829283
0.00053419
0.00083692
0.000538005
0.00084456
0.000541453
0.000851818
0.000544535
0.000858518
0.000547111
0.000864609
0.000549155
0.000869656
0.000550598
0.00087398
0.00055104
0.000876774
0.000550811
0.000877992
0.000550457
0.00087683
0.000551915
0.000876885
0.000554278
0.00087753
0.000557032
0.000878174
0.00056034
0.000878694
0.000563714
0.000879283
0.000566848
0.000878254
0.000570021
0.000876737
0.000573379
0.000874513
0.000576184
0.000871365
0.000578979
0.000867109
0.000582676
0.000861965
0.000587509
0.000857561
0.000592249
0.000853514
0.000596503
0.000849273
0.000600337
0.00084436
0.000604175
0.000838524
0.000607789
0.000831846
0.000611004
0.00082437
0.000614158
0.000816169
0.000617555
0.000807534
0.0006217
0.000799407
0.000626413
0.000791634
0.000631236
0.00078404
0.000636663
0.000776529
0.000642231
0.000769298
0.000647103
0.000762494
0.000651391
0.000755859
0.00065569
0.000749447
0.000660168
0.000743447
0.000664851
0.000738018
0.000670052
0.000733322
0.00067554
0.000729491
0.000681218
0.000726627
0.000687203
0.000724746
0.000693049
0.000724123
0.000698673
0.000724964
0.000702955
0.000727428
0.000708545
0.000730491
0.000714455
0.000734175
0.000720655
0.000739633
0.000727199
0.000746729
0.000734024
0.000755507
0.000741205
0.000766049
0.000749036
0.000778291
0.000757812
0.000792078
0.000768495
0.000807303
0.000782959
0.000823024
0.000800986
0.000838958
0.000816057
0.000853537
0.000835008
0.000876497
0.00144822
0.00144528
0.00104484
0.00143931
0.00104663
0.00143035
0.00104898
0.00141848
0.00105187
0.00140379
0.00105526
0.0013864
0.00105914
0.00136751
0.00106347
0.00134639
0.00106821
0.00132293
0.00107333
0.00129731
0.00107879
0.00126971
0.00108454
0.00124035
0.00109054
0.00120941
0.00109674
0.00117711
0.00110311
0.00114365
0.0011096
0.00110924
0.00111616
0.00107407
0.00112276
0.00103835
0.00112935
0.00100224
0.0011359
0.00096594
0.00114237
0.000929597
0.00114873
0.000893368
0.00115495
0.000857392
0.00116099
0.000821798
0.00116685
0.000785666
0.00117253
0.00121404
0.00117783
0.00127553
0.000958482
0.00124024
0.000902939
0.00119357
0.000903951
0.00113726
0.000902447
0.00107684
0.000899001
0.00101587
0.00089591
0.000958647
0.000893168
0.000908517
0.00088929
0.000860962
0.000885832
0.000814696
0.000882534
0.000771765
0.000880664
0.000731342
0.000878435
0.000692978
0.000876089
0.000656716
0.00087378
0.000622697
0.000871686
0.000591069
0.000869904
0.000561147
0.000867945
0.000531356
0.0008661
0.000532913
0.000864227
0.000533733
0.000870738
0.00053398
0.000877329
0.000533537
0.000883916
0.000532443
0.000890516
0.000530746
0.000897004
0.000528399
0.000903406
0.000526241
0.000909616
0.000525412
0.000915503
0.000525981
0.000921271
0.000527131
0.000927461
0.000528653
0.000933999
0.000530453
0.00094074
0.000532594
0.000947466
0.000534977
0.000953857
0.000537233
0.000959778
0.000540818
0.000965692
0.00054385
0.00097163
0.000546368
0.00097816
0.000548412
0.00098418
0.000549856
0.000988788
0.000550442
0.000992297
0.000550214
0.000994912
0.000550032
0.000996762
0.000551566
0.000997834
0.000554038
0.000997838
0.000557001
0.000996612
0.000560582
0.000994001
0.000564317
0.000989852
0.000567674
0.000983909
0.000571145
0.000977659
0.00057445
0.000971782
0.00057739
0.000965871
0.000580298
0.000959385
0.0005841
0.000952912
0.000588986
0.000946382
0.000593805
0.000939458
0.000598157
0.00093137
0.000602172
0.000922578
0.000606009
0.000913448
0.000609643
0.000903518
0.00061298
0.000892843
0.00061612
0.00088114
0.000619436
0.000869236
0.00062353
0.000858201
0.000628178
0.000847643
0.00063339
0.000837534
0.000638936
0.000828297
0.000643829
0.000818008
0.000648336
0.000807867
0.000652708
0.000797531
0.000656747
0.000787134
0.000661302
0.000777139
0.000666675
0.000768365
0.000672562
0.000760812
0.000678372
0.000754424
0.000683964
0.00074914
0.000689741
0.000745069
0.000695363
0.000742349
0.000700593
0.000741108
0.000706128
0.00074097
0.000712458
0.000741437
0.000718667
0.000742713
0.000725058
0.000745674
0.000731792
0.000750163
0.000738821
0.000755951
0.000746421
0.000762992
0.000754543
0.000771307
0.000763815
0.000781211
0.000775722
0.000792801
0.000791883
0.000805571
0.000813469
0.000820362
0.00083497
0.000837475
0.000857885
0.000866507
0.00144723
0.00144388
0.00105298
0.0014375
0.00105784
0.00142816
0.00106322
0.00141756
0.00106911
0.00140475
0.00107547
0.00138914
0.00108228
0.00137083
0.00108951
0.00134999
0.00109712
0.00132678
0.00110507
0.00130137
0.00111333
0.00127395
0.00112183
0.00124473
0.00113055
0.00121392
0.00113943
0.0011817
0.00114842
0.0011483
0.00115748
0.00111392
0.00116655
0.00107875
0.00117561
0.001043
0.0011846
0.00100685
0.00119348
0.000970463
0.00120222
0.00093402
0.00121077
0.00089767
0.00121911
0.000861556
0.00122721
0.000825808
0.00123503
0.000789342
0.00124269
0.00121624
0.00124932
0.00127413
0.000974751
0.00123323
0.000892493
0.00118138
0.000888421
0.00112558
0.000886312
0.00106873
0.000887711
0.00101232
0.000885386
0.000958859
0.000884304
0.000909393
0.000885376
0.00086293
0.000890627
0.000817445
0.000894805
0.000773553
0.000897548
0.000731908
0.000898959
0.000692785
0.000900359
0.00065586
0.000901486
0.000620509
0.000901862
0.000586858
0.000901435
0.000554797
0.000900476
0.000524375
0.000899166
0.00052277
0.000898072
0.000525136
0.000904212
0.000526611
0.000909355
0.000527632
0.000914879
0.000528174
0.000920435
0.000528243
0.000925747
0.000527906
0.000930641
0.000527138
0.00093502
0.000526095
0.000939117
0.000524975
0.000942521
0.000524478
0.000946276
0.000524591
0.000950762
0.000525079
0.000955716
0.000526794
0.000960643
0.00052969
0.000965695
0.000532642
0.0009707
0.000535598
0.000975929
0.000538604
0.000981129
0.000541572
0.000986061
0.000544359
0.000990848
0.000546868
0.000994933
0.000549197
0.000998234
0.000551385
0.0010006
0.000553566
0.00100216
0.000555819
0.00100316
0.000557974
0.0010031
0.000559989
0.00100176
0.000561941
0.000999209
0.000564164
0.000995839
0.000566687
0.000992126
0.000569909
0.000987967
0.000573846
0.000983584
0.000578354
0.000979009
0.000583484
0.000974144
0.000588996
0.000968838
0.000594313
0.000963183
0.000599046
0.000956963
0.000603219
0.00095014
0.00060701
0.000942366
0.000610462
0.000933533
0.000613474
0.000923635
0.000616309
0.000912886
0.000619373
0.000901355
0.000623441
0.000890673
0.000628202
0.000880502
0.000633146
0.000870708
0.00063768
0.000861233
0.00064316
0.00085102
0.000648359
0.00084061
0.000653037
0.000830241
0.000657329
0.000819574
0.000661506
0.000808554
0.000666225
0.000798109
0.000671618
0.00078837
0.000677202
0.0007794
0.000682832
0.000771561
0.000688402
0.000764887
0.000693827
0.000759475
0.000699393
0.000755662
0.000705018
0.00075355
0.000711321
0.000752902
0.000717364
0.000753232
0.000723675
0.000754142
0.00073036
0.000755802
0.000737486
0.000758731
0.000744923
0.000763109
0.000752838
0.000768884
0.000761519
0.000775906
0.000771157
0.000784285
0.000783838
0.000794097
0.000801443
0.000805387
0.000824012
0.000818545
0.000845945
0.000835203
0.000870473
0.000864807
0.00144401
0.00144151
0.00106275
0.00143809
0.00107063
0.00143159
0.001079
0.00142207
0.00108783
0.00140959
0.00109711
0.00139428
0.00110681
0.00137625
0.0011169
0.00135566
0.00112734
0.00133266
0.00113808
0.00130744
0.00114909
0.00128018
0.00116032
0.00125108
0.00117171
0.00122034
0.00118322
0.00118818
0.00119479
0.0011548
0.00120639
0.0011204
0.00121795
0.00108519
0.00122942
0.00104936
0.00124078
0.0010131
0.00125196
0.000976592
0.00126292
0.000939996
0.00127364
0.000903473
0.00128408
0.000867165
0.00129419
0.000831206
0.00130397
0.000794435
0.00131346
0.00121359
0.00132226
0.00127259
0.00108132
0.00123191
0.00101558
0.00118019
0.0010178
0.00112449
0.00101845
0.00106773
0.00101641
0.00101141
0.0010145
0.000958014
0.00101267
0.000908618
0.00100983
0.000862226
0.00100752
0.000816815
0.00100528
0.000773001
0.00100441
0.000731437
0.00100319
0.000692394
0.00100174
0.000655548
0.00100016
0.000620277
0.000998591
0.000586705
0.000996926
0.000554722
0.000995299
0.000524375
0.000993581
0.000525355
0.000991789
0.000527782
0.000996743
0.000529304
0.0010016
0.00053036
0.00100652
0.000530923
0.00101147
0.000531001
0.00101646
0.000530658
0.00102144
0.000529869
0.0010263
0.000528796
0.00103088
0.00052763
0.00103547
0.000527074
0.0010403
0.000527116
0.00104527
0.000527521
0.00105035
0.000527875
0.00105545
0.000528719
0.00106024
0.000531746
0.00106461
0.000534783
0.00106891
0.000537876
0.00107285
0.000540938
0.001077
0.000543824
0.00108014
0.000546439
0.00108224
0.000548879
0.00108343
0.000551185
0.00108379
0.000553488
0.00108325
0.00055587
0.00108197
0.000558157
0.00107961
0.000560309
0.00107605
0.000562401
0.00107122
0.000564767
0.00106501
0.000567434
0.00105796
0.0005708
0.00105098
0.000575394
0.00104393
0.000580553
0.00103655
0.000586179
0.00102892
0.000592117
0.00102091
0.000597862
0.00101319
0.000602692
0.00100462
0.000606968
0.00099523
0.000610963
0.000985521
0.000614569
0.000975237
0.000617511
0.000964146
0.000620376
0.000952162
0.000623498
0.000939236
0.000627613
0.00092683
0.000632398
0.000914711
0.00063732
0.000902674
0.00064281
0.000890907
0.000648471
0.000879018
0.00065372
0.000867472
0.000658515
0.000856176
0.000662869
0.000844787
0.000667209
0.000833345
0.000672086
0.000822809
0.000677309
0.000813017
0.000682526
0.000803919
0.000687624
0.000795558
0.000692607
0.000787985
0.000697322
0.000781275
0.000702419
0.000775707
0.000707848
0.000771558
0.000714934
0.000769014
0.000721893
0.000767891
0.000728669
0.000768082
0.000735632
0.000769471
0.000742948
0.000771957
0.000750851
0.000775568
0.000759519
0.000780325
0.000768996
0.000786201
0.00077938
0.000793118
0.000792792
0.00080097
0.000811732
0.000810234
0.000834053
0.000821782
0.000855262
0.000837311
0.000881093
0.000865543
0.00144709
0.00144715
0.00107416
0.00144408
0.00108501
0.00143792
0.0010963
0.00142871
0.00110804
0.00141655
0.00112019
0.00140151
0.00113272
0.00138374
0.00114562
0.00136337
0.00115883
0.00134057
0.00117232
0.0013155
0.00118604
0.00128837
0.00119994
0.00125935
0.00121397
0.00122867
0.00122807
0.00119652
0.00124218
0.00116312
0.00125627
0.00112866
0.00127027
0.00109336
0.00128413
0.00105741
0.00129781
0.001021
0.00131125
0.000984311
0.00132441
0.000947511
0.00133726
0.00091076
0.00134975
0.000874204
0.00136185
0.000837979
0.00137354
0.00080093
0.00138494
0.00121366
0.00139509
0.00127772
0.00109255
0.00123716
0.00100357
0.00118216
0.00100192
0.0011254
0.00100187
0.00106906
0.00100462
0.00101387
0.00100406
0.000961371
0.00100445
0.000912345
0.00100667
0.000866236
0.00101244
0.000821111
0.00101777
0.000777588
0.00102187
0.000735706
0.00102512
0.00069599
0.00102714
0.000658648
0.00102912
0.000623215
0.0010307
0.000589373
0.00103164
0.000557062
0.0010319
0.000526169
0.00103141
0.000521141
0.00103015
0.000523443
0.00103493
0.000525236
0.00103921
0.000526625
0.00104337
0.000527611
0.00104769
0.000528166
0.00105181
0.000528332
0.00105565
0.000528129
0.00105902
0.000527658
0.00106207
0.000526885
0.00106453
0.00052628
0.00106668
0.000526012
0.00106946
0.000526681
0.0010726
0.000529405
0.00107577
0.000532136
0.00107907
0.00053482
0.00108232
0.000537632
0.00108548
0.000540542
0.00108872
0.000543417
0.00109169
0.000546225
0.00109432
0.000548951
0.00109647
0.000551621
0.00109817
0.000554225
0.00109914
0.000556837
0.00109918
0.000559645
0.00109866
0.000562584
0.0010973
0.000565554
0.00109487
0.000568517
0.00109132
0.00057136
0.00108664
0.000574354
0.00108093
0.000577925
0.00107449
0.000582301
0.00106795
0.000587329
0.00106126
0.000592857
0.00105434
0.000598415
0.00104708
0.000603559
0.00103939
0.000608178
0.00103129
0.000612298
0.00102269
0.000616092
0.00101356
0.000619033
0.00100368
0.000622266
0.000992625
0.000625298
0.000980381
0.000628658
0.000967136
0.000633034
0.000953994
0.000638108
0.000940945
0.000643396
0.000927868
0.000648965
0.00091473
0.000654324
0.000902022
0.000659294
0.00088972
0.000663943
0.000877757
0.000668194
0.000865755
0.000672552
0.000853797
0.000677485
0.000842734
0.00068257
0.000832326
0.000687682
0.000822506
0.000692716
0.000813324
0.0006977
0.000804829
0.000702418
0.000797048
0.000707603
0.000790395
0.000712795
0.000785137
0.00071982
0.000781528
0.000726878
0.00077963
0.00073372
0.000779142
0.000740978
0.000779861
0.000748832
0.000781557
0.000757427
0.000784194
0.000766913
0.000787876
0.000777455
0.000792653
0.00078908
0.000798561
0.000803546
0.000805621
0.000823292
0.000814431
0.000845189
0.000825391
0.000865692
0.000840283
0.000892563
0.000867039
0.00145458
0.00145496
0.00108721
0.00145222
0.00110097
0.00144638
0.00111514
0.00143747
0.00112971
0.00142559
0.00114467
0.00141082
0.00115999
0.00139328
0.00117564
0.00137311
0.00119158
0.00135047
0.00120776
0.00132554
0.00122414
0.0012985
0.00124066
0.00126954
0.00125727
0.00123887
0.00127391
0.0012067
0.00129053
0.00117324
0.00130706
0.00113868
0.00132345
0.00110325
0.00133965
0.00106713
0.00135561
0.00103052
0.00137127
0.000993604
0.00138659
0.000956548
0.00140152
0.000919517
0.00141604
0.000882659
0.00143009
0.000846113
0.00144365
0.000808623
0.00145683
0.00120978
0.00146905
0.00127553
0.00120661
0.00123526
0.00112758
0.00118042
0.00113016
0.00112381
0.0011332
0.00106759
0.00113218
0.00101251
0.00113152
0.000960114
0.00113083
0.000911184
0.00112902
0.000865168
0.00112793
0.00082014
0.0011269
0.000776717
0.00112692
0.000734937
0.00112655
0.000695324
0.00112595
0.000658358
0.00112515
0.000622918
0.00112414
0.000589013
0.00112302
0.000556803
0.00112181
0.000526009
0.00112036
0.000523789
0.00111883
0.000526151
0.00112223
0.000527988
0.00112549
0.000529406
0.0011289
0.000530406
0.00113237
0.00053096
0.00113588
0.00053111
0.00113938
0.000530876
0.00114278
0.000530362
0.00114596
0.00052953
0.00114932
0.000528852
0.00115271
0.000528501
0.00115612
0.000528311
0.00115958
0.000528924
0.00116288
0.000531726
0.00116574
0.000534485
0.00116832
0.000537378
0.00117049
0.000540376
0.00117255
0.000543642
0.00117384
0.000546694
0.00117427
0.000549587
0.00117405
0.000552313
0.00117301
0.000554959
0.00117106
0.000557635
0.0011685
0.00056042
0.00116496
0.000563369
0.00116041
0.000566489
0.00115481
0.000569607
0.00114824
0.000573058
0.00114092
0.000577144
0.00113331
0.000581735
0.0011253
0.000586794
0.00111688
0.000592321
0.00110819
0.000598042
0.00109918
0.000603649
0.00109008
0.000608601
0.00108101
0.000612858
0.00107112
0.000616778
0.00106076
0.000620555
0.00104965
0.000624283
0.0010378
0.000628159
0.00102519
0.000631785
0.0010118
0.000635722
0.000997791
0.000640453
0.000984079
0.000645636
0.000970556
0.000650921
0.000956968
0.000656069
0.000943211
0.000660829
0.00092947
0.000665445
0.000916109
0.000670015
0.000903028
0.000674329
0.000890031
0.000678815
0.000877136
0.00068391
0.000865253
0.000689056
0.000854202
0.000694158
0.000843861
0.000699117
0.000834212
0.000703984
0.00082526
0.000708542
0.000816983
0.000713512
0.000809687
0.000718325
0.000803459
0.000724859
0.000798496
0.000731939
0.000795094
0.000739193
0.00079322
0.000746967
0.000792709
0.000755391
0.000793437
0.000764627
0.000795171
0.000774869
0.000797944
0.000786368
0.000801747
0.000799118
0.000806579
0.000814296
0.000812504
0.000834333
0.000820023
0.000855919
0.000830156
0.000876034
0.000843739
0.000903971
0.000868453
0.00146423
0.00146492
0.00110193
0.00146248
0.00111852
0.00145693
0.0011355
0.00144831
0.00115285
0.00143669
0.00117056
0.00142216
0.0011886
0.00140483
0.00120695
0.00138484
0.00122555
0.00136235
0.00124437
0.00133752
0.00126335
0.00131055
0.00128244
0.00128162
0.00130158
0.00125093
0.00132071
0.0012187
0.00133977
0.00118514
0.00135869
0.00115045
0.00137743
0.00111484
0.00139592
0.0010785
0.00141411
0.00104165
0.00143195
0.00100445
0.00144938
0.000967089
0.00146636
0.000929725
0.00148284
0.000892512
0.00149881
0.00085559
0.00151421
0.000817714
0.00152922
0.00120787
0.00154271
0.00127951
0.0012149
0.00124008
0.00111684
0.00118145
0.00111645
0.00112464
0.00111903
0.00106901
0.00112351
0.001015
0.00112499
0.000963466
0.001127
0.000914965
0.00113042
0.000869195
0.00113658
0.000824422
0.0011426
0.000781016
0.00114744
0.000739276
0.00115166
0.000699404
0.00115444
0.000661639
0.00115692
0.000625962
0.00115898
0.000592022
0.00116048
0.000559754
0.00116134
0.000528809
0.00116143
0.000520762
0.00116066
0.000522657
0.00116354
0.000524368
0.00116647
0.00052582
0.00116947
0.000526922
0.00117239
0.000527647
0.00117514
0.000528036
0.0011777
0.000528145
0.00117986
0.000527937
0.00118178
0.000527392
0.00118318
0.000526923
0.00118429
0.000528392
0.00118584
0.000531079
0.00118751
0.000533822
0.00118926
0.000536546
0.00119094
0.000539265
0.0011925
0.000542038
0.00119385
0.000544913
0.00119499
0.000547841
0.0011959
0.000550775
0.00119646
0.000553698
0.00119657
0.00055657
0.0011961
0.000559462
0.00119498
0.000562439
0.00119315
0.000565563
0.00119058
0.000568924
0.00118716
0.000572488
0.00118281
0.000576085
0.00117746
0.000579842
0.00117116
0.000583932
0.00116393
0.000588392
0.00115605
0.000593324
0.00114781
0.000598681
0.00113942
0.000604207
0.00113082
0.000609395
0.00112199
0.000613895
0.00111263
0.000618247
0.00110256
0.000622302
0.00109159
0.000626363
0.00107956
0.000630462
0.00106655
0.000634621
0.00105297
0.000638512
0.00103881
0.000642597
0.00102425
0.00064747
0.00100998
0.000652823
0.000995846
0.000658276
0.00098163
0.000663398
0.00096728
0.000667884
0.000952902
0.000672192
0.000938614
0.000676618
0.000924586
0.000680895
0.000910653
0.000685352
0.000896944
0.000690397
0.000884289
0.000695446
0.000872527
0.00070043
0.000861506
0.000705284
0.000851183
0.000710079
0.000841533
0.000714648
0.00083252
0.000719778
0.000824414
0.000724742
0.000817351
0.000730843
0.00081132
0.000737843
0.000806853
0.000745262
0.000803974
0.000753294
0.000802515
0.000762154
0.000802343
0.000771999
0.000803222
0.000783041
0.000805142
0.000795572
0.000808135
0.000809563
0.000812268
0.000825598
0.000817681
0.000845721
0.000824786
0.000867148
0.000834346
0.00088736
0.000846744
0.000916478
0.000869568
0.00147602
0.00147699
0.00111832
0.00147483
0.00113767
0.00146956
0.00115738
0.0014612
0.00117744
0.00144983
0.00119783
0.00143551
0.00121853
0.00141838
0.00123951
0.00139855
0.00126071
0.00137618
0.0012821
0.00135143
0.00130363
0.00132449
0.00132522
0.00129555
0.00134683
0.00126482
0.00136839
0.0012325
0.00138984
0.0011988
0.00141111
0.00116393
0.00143214
0.00112809
0.00145287
0.00109151
0.00147324
0.00105436
0.00149319
0.00101683
0.00151268
0.000979113
0.00153166
0.000941365
0.00155008
0.000903743
0.0015679
0.000866393
0.0015851
0.000828044
0.0016018
0.00120282
0.00161731
0.00127674
0.00133612
0.00123765
0.001242
0.00117921
0.00124425
0.00112258
0.00124815
0.0010671
0.00124873
0.00101323
0.00124944
0.000961823
0.00124974
0.000913446
0.00124883
0.000867793
0.00124839
0.000823142
0.00124938
0.000779857
0.00125005
0.00073824
0.00125039
0.000699062
0.00125055
0.000661856
0.00125044
0.000626329
0.0012501
0.000592254
0.00124945
0.000559753
0.00124854
0.000528406
0.00124734
0.000523366
0.00124605
0.000525313
0.00124796
0.000527059
0.0012499
0.000528532
0.00125202
0.000529638
0.00125416
0.000530352
0.00125627
0.000530714
0.0012583
0.000530781
0.00126023
0.000530518
0.00126224
0.000529902
0.00126419
0.000529351
0.00126609
0.000528773
0.00126797
0.00053107
0.00126969
0.000533879
0.00127097
0.000536675
0.00127191
0.000539983
0.00127253
0.000543444
0.0012727
0.000546774
0.00127217
0.000550035
0.00127099
0.000553205
0.00126915
0.000556283
0.00126656
0.000559252
0.00126338
0.000562137
0.00125935
0.000564977
0.00125443
0.000567936
0.00124867
0.000571146
0.00124215
0.000574845
0.00123497
0.000578976
0.00122758
0.000583528
0.00121981
0.000588427
0.0012115
0.000593365
0.0012027
0.000598447
0.00119339
0.000603868
0.0011835
0.000609403
0.00117306
0.000614693
0.0011622
0.000619661
0.00115087
0.000624464
0.00113901
0.000628962
0.00112653
0.00063336
0.00111338
0.000637488
0.00109941
0.000641616
0.00108475
0.000645688
0.00106948
0.000650153
0.00105416
0.000655345
0.00103895
0.000660942
0.00102384
0.000666502
0.00100873
0.000671579
0.000993632
0.00067586
0.000978603
0.000679783
0.000963616
0.000683895
0.000948693
0.000688004
0.00093384
0.000692386
0.000919309
0.000697352
0.000905729
0.000702309
0.000893049
0.000707226
0.00088119
0.000712029
0.000870085
0.000716798
0.000859778
0.000721444
0.000850194
0.000726614
0.000841603
0.000731726
0.00083403
0.000737395
0.000827356
0.000744105
0.000821759
0.000751564
0.000817569
0.000759888
0.000814779
0.000769202
0.000813331
0.000779681
0.000813076
0.000791485
0.000813921
0.000804861
0.000815932
0.000819741
0.000819153
0.000836555
0.000823685
0.000856798
0.000829936
0.000878413
0.00083855
0.000899037
0.000849684
0.000929256
0.000870537
0.0014899
0.00149113
0.00113639
0.00148923
0.00115843
0.00148421
0.0011808
0.0014761
0.00120349
0.00146495
0.00122649
0.00145084
0.00124978
0.00143388
0.00127331
0.00141419
0.00129705
0.00139191
0.00132094
0.00136722
0.00134494
0.0013403
0.00136898
0.00131132
0.001393
0.00128051
0.00141692
0.00124806
0.00144069
0.00121418
0.00146424
0.0011791
0.0014875
0.001143
0.00151041
0.00110611
0.0015329
0.00106862
0.00155492
0.00103072
0.00157642
0.000992598
0.00159734
0.000954415
0.00161764
0.000916333
0.00163728
0.000878501
0.00165622
0.00083966
0.00167467
0.00119773
0.00169135
0.00128272
0.00134023
0.0012417
0.0012279
0.00118159
0.00122946
0.00112486
0.00123626
0.00106981
0.00124224
0.00101663
0.00124551
0.000965922
0.00124949
0.000918164
0.00125438
0.00087244
0.00126129
0.000827736
0.0012679
0.000784468
0.00127339
0.000742707
0.00127834
0.000702726
0.00128164
0.000664843
0.00128465
0.000629024
0.00128705
0.000594951
0.00128882
0.00056264
0.00128992
0.000531716
0.0012903
0.000521521
0.0012897
0.000522114
0.00129119
0.000523671
0.00129283
0.000524995
0.00129448
0.000526013
0.00129608
0.000526688
0.00129754
0.000527137
0.00129888
0.000527257
0.00129992
0.000527299
0.00130082
0.00052902
0.00130135
0.000531138
0.00130169
0.000533765
0.00130213
0.000536633
0.00130261
0.000539513
0.00130309
0.000542384
0.00130342
0.000545276
0.00130353
0.000548224
0.00130323
0.000551214
0.00130253
0.000554208
0.00130136
0.000557243
0.0012996
0.000560355
0.00129733
0.000563519
0.00129445
0.00056667
0.00129089
0.000569913
0.00128667
0.000573281
0.00128183
0.00057694
0.00127632
0.000580845
0.00127007
0.000585068
0.00126317
0.000589649
0.00125582
0.000594395
0.00124799
0.000599012
0.00123961
0.000604306
0.00123019
0.000610075
0.0012194
0.000615871
0.00120791
0.000621365
0.00119586
0.000626557
0.00118333
0.000631564
0.0011703
0.000636248
0.00115669
0.000640814
0.00114246
0.000645098
0.00112757
0.000649389
0.00111209
0.000653826
0.00109643
0.000658674
0.00108064
0.00066406
0.00106477
0.000669714
0.00104887
0.000675127
0.00103295
0.000679972
0.0010171
0.000684086
0.00100135
0.000687823
0.000985648
0.000691735
0.000969878
0.000695686
0.00095423
0.000699989
0.000939026
0.000704818
0.000924657
0.000709571
0.000911164
0.000714311
0.000898543
0.000718945
0.000886711
0.000723578
0.000875671
0.00072821
0.000865378
0.000733354
0.000856103
0.000738732
0.000847851
0.000744376
0.000840626
0.000750986
0.000834284
0.000758548
0.000829096
0.00076707
0.000825225
0.00077676
0.000822665
0.000787776
0.000821371
0.000800227
0.000821324
0.000814319
0.000822573
0.000829966
0.000825086
0.000847571
0.00082896
0.000868051
0.000834546
0.000890017
0.000842306
0.000911449
0.000852238
0.000942782
0.000871141
0.00150583
0.00150729
0.00115617
0.00150564
0.00118081
0.00150086
0.00120576
0.00149298
0.001231
0.00148204
0.00125653
0.00146811
0.00128232
0.0014513
0.00130833
0.00143173
0.00133453
0.00140953
0.00136085
0.00138487
0.00138725
0.00135793
0.00141366
0.0013289
0.00144001
0.00129797
0.00146624
0.00126536
0.00149227
0.00123127
0.00151803
0.00119593
0.00154346
0.00115953
0.00156848
0.0011223
0.00159303
0.00108442
0.00161706
0.0010461
0.00164051
0.00100752
0.00166331
0.000968852
0.00168544
0.000930259
0.00170684
0.000891892
0.00172748
0.000852536
0.00174751
0.00119156
0.00176615
0.00127946
0.00146877
0.00123884
0.00135605
0.00117928
0.00135725
0.0011224
0.00136183
0.00106752
0.00136444
0.0010145
0.00136656
0.000963945
0.00136744
0.000916333
0.00136787
0.000870751
0.00136867
0.00082619
0.00137061
0.000783064
0.001372
0.000741878
0.0013731
0.000702835
0.00137392
0.000665451
0.00137464
0.000629743
0.00137484
0.000595502
0.00137446
0.000562889
0.00137369
0.000531562
0.00137266
0.000522923
0.00137166
0.000524642
0.00137214
0.000526223
0.00137283
0.000527556
0.00137357
0.000528567
0.00137427
0.00052922
0.00137484
0.000529631
0.00137546
0.000529699
0.00137609
0.000529444
0.00137671
0.000529334
0.00137738
0.000531503
0.00137795
0.000534315
0.00137814
0.000537812
0.00137798
0.000541279
0.00137754
0.000544714
0.00137673
0.000548002
0.00137543
0.000551245
0.00137326
0.00055454
0.00137069
0.000557785
0.0013676
0.000560999
0.00136377
0.000564118
0.00135925
0.000567161
0.00135404
0.000569893
0.00134827
0.000572671
0.00134163
0.000575859
0.00133458
0.00057967
0.00132708
0.000583991
0.00131915
0.000588724
0.00131072
0.00059375
0.00130175
0.00059902
0.00129216
0.000604771
0.00128207
0.000611066
0.00127121
0.000617439
0.0012595
0.000623464
0.0012472
0.000628971
0.00123422
0.000634087
0.00122054
0.000638977
0.00120616
0.000643707
0.00119104
0.000648269
0.00117518
0.000652753
0.00115895
0.000657415
0.00114272
0.000662279
0.00112641
0.000667468
0.00110989
0.000673047
0.00109314
0.000678727
0.00107623
0.000684055
0.00105932
0.000688794
0.00104254
0.000692806
0.00102585
0.000696402
0.00100918
0.000700096
0.000992503
0.000704025
0.000976144
0.000708334
0.00096039
0.000712964
0.000945267
0.000717431
0.000930916
0.000721916
0.00091733
0.000726337
0.000904583
0.000730854
0.000892614
0.000735512
0.000881509
0.000740656
0.000871454
0.000746145
0.000862426
0.000751961
0.000854438
0.000758617
0.000847375
0.000766168
0.000841413
0.000774795
0.000836622
0.000784699
0.000833028
0.000796044
0.000830711
0.00080899
0.000829689
0.00082366
0.000829979
0.000839956
0.000831505
0.000858308
0.000834447
0.000879226
0.000839069
0.00090178
0.000845796
0.000924118
0.000854599
0.000956517
0.000871685
0.00152375
0.00152543
0.00117768
0.001524
0.00120483
0.00151945
0.00123226
0.00151178
0.00125996
0.00150104
0.00128793
0.00148728
0.00131614
0.00147061
0.00134456
0.00145113
0.00137313
0.00142899
0.00140181
0.00140435
0.00143053
0.00137736
0.00145923
0.00134824
0.00148785
0.00131717
0.0015163
0.00128436
0.00154451
0.00125003
0.00157241
0.00121439
0.00159993
0.00117765
0.001627
0.00114003
0.00165355
0.00110172
0.00167952
0.00106293
0.00170485
0.00102385
0.00172948
0.000984648
0.00175337
0.000945493
0.00177647
0.000906541
0.00179875