/*--------------------------------*- C++ -*----------------------------------*\
| =========                 |                                                 |
| \\      /  F ield         | OpenFOAM: The Open Source CFD Toolbox           |
|  \\    /   O peration     | Version:  2.2.x                                 |
|   \\  /    A nd           | Web:      www.OpenFOAM.org                      |
|    \\/     M anipulation  |                                                 |
\*---------------------------------------------------------------------------*/
FoamFile
{
    version     2.0;
    format      ascii;
    class       volScalarField;
    location    "0.95";
    object      divBf;
}
// * * * * * * * * * * * * * * * * * * * * * * * * * * * * * * * * * * * * * //

dimensions      [1 -3 -2 0 0 -1 0];

internalField   nonuniform List<scalar> 
14161
(
541.491
334.848
326.509
279.949
246.966
211.852
180.031
149.258
121.794
95.7328
70.6086
46.389
23.8377
3.12495
-18.5646
-36.5341
-56.3161
-75.7332
-99.2063
-114.075
-132.495
-154.959
-173.567
-200.562
-210.551
-237.381
-251.292
-269.971
-276.867
-277.888
-288.997
-280.061
-270.632
-245.09
-196.772
-144.467
-65.8785
79.8795
157.736
317.544
658.668
734.113
1296.15
1483.62
2106.77
-25789.1
-26902.8
-27571
-29027
-26863.9
-38537.3
283.81
-35136.8
-37391.5
-43666.6
-41994.7
-36279.3
-34323.4
-32572.5
-31907.5
-31488.9
-29217.7
-27307
-24908
-22761.7
-20253.9
-18017.3
-15771
-13463
-11434.4
-9504.89
-7751.41
-6176.03
-4889.01
-3139.55
-1191.17
889.889
1672.52
2609.97
4501.19
5666.08
7728.54
9021.15
9155.76
9967.54
11808.2
12844.3
13520.7
14405.4
13470.4
14686.2
16000
14625.2
16432.9
15794.3
15654.1
8419.14
20000.4
6139.88
7287.13
-4788.49
-6429.79
-7703.88
-9201.47
-9816.47
-10871.3
-10997.8
-11664.2
-11126
-11404.7
-10081.5
-10000.4
-7548.93
-7215.54
-2786.62
-3450.86
5821.32
-5635.11
18254.2
293.469
88.5052
80.3514
33.8373
-1.12749
-38.2638
-71.9208
-106.126
-138.62
-170.028
-200.298
-230.493
-259.59
-289.172
-317.977
-345.178
-376.551
-408.008
-438.989
-467.13
-499.955
-536.599
-571.52
-610.534
-638.294
-681.641
-715.421
-756.629
-784.853
-805.576
-836.12
-858.608
-875.083
-876.037
-855.576
-816.734
-775.126
-703.289
-627.652
-436.13
-335.761
9.12264
246.295
672.381
1225.58
-22468.8
-23067.8
-23485.1
-24067.7
-24199.2
-24658.6
-29563.6
-28217.4
-21717.4
-23794
-26213.6
-30434.6
-30516.5
-28959.4
-28139.3
-27958
-25385.7
-23465.2
-21113.3
-19150.7
-16451.6
-14457.4
-12580.5
-10477.5
-8873
-7095.84
-5298.64
-3974.27
-2393.76
-721.837
889.486
2270.49
4100.77
5060.18
6584.89
7564.7
9871.65
10429.3
11330.1
11953.9
14040.6
15068.1
15289.6
16349.3
15339.4
17582.2
17021.4
17683.3
18799.4
17289.7
14873.4
16678.2
9163.06
-5060.32
-9553.4
-10973.6
-11246.6
-11255.1
-11932.5
-12397.7
-13170
-13214.6
-13666.4
-13045.8
-13234.1
-11852.4
-11900.8
-9571.96
-9194.39
-5120.66
-7505.28
1362.3
-6053.84
10563.7
49.7056
-151.436
-158.19
-203.463
-238.262
-276.199
-311.217
-347.054
-381.712
-416.81
-451.685
-485.43
-518.873
-555.073
-591.212
-625.459
-662.195
-702.879
-744.568
-782.668
-823.7
-870.387
-920.413
-970.332
-1012.81
-1067.05
-1118.49
-1174.39
-1217.27
-1262.74
-1306.61
-1349.8
-1382.14
-1400.87
-1411
-1392.31
-1388.43
-1338.09
-1245.32
-1123.01
-1036.67
-680.337
-550.72
-36.8904
372.567
-19495.4
-20074.1
-20613.9
-20865.6
-21478.1
-17798.7
-53299.1
-18896
-25199.9
-20420.5
-32273.4
-29662.4
-28045
-26051.6
-25505.2
-23421.9
-20709.4
-18634.2
-17618.5
-15743
-13750.9
-11945.3
-10511.5
-9100.82
-7380.24
-5531.7
-4149.67
-2092.2
-1078.5
810.377
2444.22
3606.35
5370.21
6478.77
7630.5
8808.92
10514.5
10803.8
12633.3
12183.7
14948.8
14694.2
15772.1
16266
14808.9
17047.7
16835.1
16683.6
17120.5
16601.4
18083.3
18965.5
16233.5
8840.77
3193.48
-1351.95
-2599.1
-3671.14
-4889.55
-5630.02
-6532.04
-6860.96
-7503.65
-7264.16
-7658.94
-6687.15
-6937.76
-4864.16
-5181.5
-1162.87
-3594.78
1831.64
-4011.27
9017.24
-188.07
-384.025
-387.636
-430.739
-464.1
-501.297
-536.419
-572.82
-608.644
-645.438
-682.498
-719.913
-757.094
-797.536
-837.948
-877.818
-919.591
-967.687
-1015.06
-1063.3
-1110.9
-1166.34
-1228.35
-1281.79
-1340.69
-1403.6
-1469.95
-1532.24
-1593.23
-1655.3
-1710.61
-1766.39
-1815.51
-1856.58
-1885.58
-1890.87
-1880.06
-1843.82
-1770.84
-1703.97
-1527.23
-1337.35
-1099.73
-669.417
-239.723
-16690
-17159.8
-17106.7
-17374.6
-17467.4
-14155.1
-27860.6
-28372.3
-10694.1
-18699.8
-22325.7
-30859.7
-32868.9
-33352.2
-33740.8
-31129.4
-26965.9
-24219.3
-20780.6
-15456.3
-12654.1
-10292.1
-8078.88
-6060.91
-4747.06
-3411.9
-2177.5
-354.616
850.348
2226.88
3669.56
5209.52
6367.66
8501.48
9067.32
10223.8
11523.8
11434.8
13592.8
13932.8
15176.3
16081.9
16634.8
17089.3
15655.9
17928.4
17629.7
20816.5
19030.7
22445.4
31418
34353.1
12461.5
6558.08
2146.9
47.631
-940.028
-2486.82
-3825.76
-4810.75
-5772.16
-6160.12
-6759.33
-6492.09
-6747.28
-5798.18
-5843.74
-3645.93
-4121.08
-887.371
-3029.99
1023.53
-2101.01
6623.86
-418.685
-607.627
-607.247
-646.876
-677.947
-713.222
-747.222
-783.217
-819.219
-856.656
-894.562
-933.973
-974.811
-1017.27
-1060.28
-1104.78
-1151.13
-1203.59
-1256.35
-1311.75
-1365.3
-1426.94
-1496.51
-1555.47
-1629.8
-1695.69
-1771.78
-1842.93
-1919.18
-1992.57
-2057.72
-2125.84
-2189.67
-2244.2
-2283.76
-2305.66
-2306.3
-2287.39
-2245.29
-2152.68
-2015.21
-1857.09
-1603.86
-1258.59
-857.251
-14609
-15168.3
-15762.7
-17071.3
-16022
-21369.6
-2676.57
-15266.4
-34858
-42018
-45603.4
-38449.1
-36622.7
-31775
-30784.1
-23195.9
-21054.2
-17885.9
-13821.6
-10689.9
-8922.47
-7326.52
-5120.57
-3542.24
-2793.12
-1919.92
-439.237
1058.48
2913.54
2554.36
4892.89
6238.61
8095.48
9459.27
10523.1
10443.9
12856.1
12543.3
15624.2
13926.9
17143.5
16479.5
17367.9
17798.9
17582
19577.6
20867.3
21895.6
24000.7
38353.9
47097.1
27587.7
17747.7
7603.31
3767.89
3021.97
1529.14
285.918
-1160.9
-2179.81
-3230.55
-3722.83
-4369.74
-4245.59
-4553.94
-3699.12
-3946
-2076.86
-2645.48
-96.9467
-2271.17
1326.07
-1403.07
5908.68
-640.473
-821.241
-816.011
-851.251
-879.089
-911.397
-943.609
-978.233
-1013.67
-1050.79
-1089.11
-1129.63
-1171.25
-1214.85
-1260.77
-1310.19
-1358.19
-1413.41
-1471.12
-1530.95
-1590.45
-1656.41
-1729.51
-1800.42
-1879.74
-1951.68
-2035.35
-2115.53
-2199.91
-2278.93
-2362.58
-2436.14
-2507.36
-2568.73
-2617.54
-2651.28
-2675.72
-2658.02
-2618.87
-2529.28
-2416.64
-2217.98
-1943.4
-1563.07
-1042.12
-12218.2
-12534.3
-12703.4
-12870.9
-11124.9
-15803.7
30942.9
-17575.5
-42836.1
-53651.7
-52345.1
-45682.6
-39763.5
-34497.8
-32030.8
-25683.2
-19927.5
-18344.1
-15553
-11232.9
-8798.18
-7330.27
-5679.56
-2202.43
-882.415
-313.284
1232.01
2636.28
4138.13
3993.05
6166.65
7954.84
8380.73
10390.2
11629.9
11868.7
14455.7
13967.5
16218.8
15964.7
18256.6
18154
20092.3
21515.3
20147.8
21367.6
21095.3
28647.5
46372.3
62546
34544.4
23748.6
13705.1
9608.04
7896.78
4743.02
3082.69
1470.1
84.6184
-927.407
-1952.24
-2479.73
-3174.39
-3116.36
-3492.51
-2714.47
-3083.31
-1560.78
-2425.19
-60.4187
-1770.89
1142.26
-1284.06
5552.87
-852.269
-1023.72
-1013.3
-1043.4
-1066.46
-1095.85
-1125.78
-1158.05
-1191.9
-1228.28
-1266.37
-1307.01
-1348.92
-1393.15
-1441.33
-1492.65
-1543.86
-1600.27
-1660.1
-1724.52
-1789.14
-1859.8
-1934.14
-2012.5
-2096.12
-2178.03
-2261.93
-2350.93
-2442.21
-2524.66
-2621.22
-2701.67
-2780.9
-2851.52
-2909.37
-2953.84
-2974.64
-2982.61
-2937.61
-2870.52
-2758.49
-2592.17
-2324.19
-2028.35
-1607.35
-10672.7
-11141.9
-11486.7
-12338.4
-13216.3
-17210.4
-4794.24
-14857.2
-60407.5
-54282.9
-49131.4
-39495.7
-35304.2
-29505.1
-27596
-20788
-18247.1
-15139.1
-12255.3
-7718.1
-6918.35
-5263.56
-2998.89
-1290
23.2982
1611.82
2701.26
3471.91
5400.97
5844.2
7786.96
8901.25
10560
11534.1
13294.4
13260.2
14599.9
15415.3
17608.5
18192.4
19953.6
19531.6
20326.9
21223.9
21205.9
24121.6
31390.6
48185.8
66447.5
42783.5
27648.4
22044.8
13603.7
13253
8297.14
6159.57
3999.17
2705.33
1245.97
210.697
-842.74
-1405.08
-2122.89
-2151.13
-2595.37
-2028.39
-2669.85
-1448.25
-2115.85
-574.652
-1889.68
1030.09
-1328.01
5661.62
-1052.86
-1214.29
-1198
-1222.35
-1240.35
-1266.39
-1293
-1322.83
-1354.83
-1389.59
-1426.45
-1466.94
-1508.92
-1553.84
-1602.62
-1655.18
-1708.22
-1765.71
-1828.03
-1894.96
-1964.01
-2037.01
-2114.15
-2198.82
-2281.79
-2374.33
-2458.07
-2554.78
-2649.74
-2740.97
-2841.91
-2935.05
-3018.48
-3091.62
-3159.34
-3206.73
-3238.44
-3247.53
-3224.44
-3137.69
-3036.91
-2833.39
-2582.33
-2136.49
-1669.58
-8506.98
-8364.85
-8258.66
-7049.83
-6017.8
-2202.49
-14117
-34840.6
-76389.5
-38343.8
-29277.8
-27148.1
-24723.5
-24564.2
-17035.4
-13484.3
-18364.7
-11360.5
-4641.59
-5425.07
-3015.42
994.135
1528.61
26.2931
1505.29
3613.58
4921.44
5975.91
7546.75
9142.12
9944.46
11058.9
11807.4
13839.2
15939.1
15980.2
17707.9
18172.3
19764.2
19807
20994.3
21278.8
23453.5
26457.1
29072.8
38321.5
53965.7
71844.8
48508.9
34319.2
18360
13565.1
11599.8
11649.6
9204.37
7198.57
5526.75
4086.03
2545.33
1453.35
361.8
-321.47
-1206.71
-1384.04
-2051.92
-1707.22
-2582.63
-1514.75
-2240.75
-704.131
-1749.46
1064.24
-1427.28
5989.01
-1241.23
-1392.05
-1369.39
-1387.8
-1401.41
-1422.61
-1445.42
-1472.84
-1502.17
-1535.38
-1571.04
-1610.47
-1652.59
-1696.66
-1745.92
-1799.19
-1854.3
-1911.39
-1975.76
-2043.78
-2118.16
-2191.13
-2271.15
-2358.1
-2444.61
-2544.07
-2628.66
-2729.3
-2828.94
-2929.29
-3023.62
-3133.38
-3222.87
-3301.29
-3370.3
-3426.75
-3469.7
-3477.16
-3469.86
-3404.68
-3312.56
-3139.76
-2939.24
-2610.28
-2230
-7553.18
-7750.1
-8173.78
-8446.27
-9624.98
-9885.13
-51276.9
-198506
-80847.5
-15260.1
-10086.5
-3681.81
-7660.97
-6632.63
-5871.26
-9029.03
-6409.63
-5771.42
-490.387
533.892
-3673.45
751.588
3161.1
3630.3
4772.64
5538.26
6760.33
8005.59
9222.52
10900.2
12305.3
13100.3
14225.4
16567.3
17956.9
18606.7
18452.1
19340.6
21252.7
21999.9
25415.7
27672
31009.7
38802.6
48686.1
66420.7
72381.3
47841.6
30220.3
15236
14440.8
8125.96
12373.7
9141.54
9511.21
6885.43
5387.94
3996.28
2743.75
1726.74
736.919
31.0375
-844.498
-1119.35
-1818.42
-1582.97
-2558
-1611.54
-1970.2
-641.495
-1804.23
924.462
-1620.55
6324.07
-1416.41
-1556.19
-1526.99
-1539.22
-1548.45
-1564.61
-1583.75
-1607.72
-1635.18
-1666.17
-1700.1
-1738.16
-1780.13
-1823.87
-1871.93
-1924.91
-1982.95
-2038.88
-2104.66
-2173.97
-2251.57
-2325.4
-2406.74
-2495.39
-2585.88
-2685.95
-2781.33
-2875.73
-2983.72
-3088.44
-3184.36
-3295.98
-3401.68
-3485.47
-3552.03
-3619.59
-3662.61
-3701.16
-3678.38
-3658.66
-3507.78
-3375.45
-3114.46
-2737.49
-2164
-5526.71
-5515.47
-4680.46
-4551.54
-3631.97
2133.06
-71245.7
-170272
-39958.5
-24944.8
-7677.93
-6582.16
-5135.1
-6137.09
-6922.55
-6694.01
-4264.61
-1224.15
2568.09
4646.64
2786.08
4546.29
5902.68
6532.94
6147.07
7801.79
9446.73
10210.7
11765.2
13358.2
14448.3
15242.2
15464.3
17339.8
18840.7
20972.1
22513.5
24774.9
29291.3
31055.3
38642.7
48452.9
54291.2
63620.2
76194.2
57175.1
39478
25454.4
15385.7
10299.4
6117.24
5999.65
6500.21
6937.01
6791.65
6082.83
5199.63
4078.05
3104.31
2137.67
1249.44
521.347
-335.229
-652.27
-1346.42
-1236.49
-2283.36
-1428.28
-1913.96
-751.924
-2022.26
871.934
-1861.54
6772.08
-1577.55
-1706.13
-1670.72
-1676.98
-1680.62
-1692.57
-1708.07
-1728.78
-1753.53
-1782.26
-1814.77
-1851.12
-1892.09
-1935.26
-1982.77
-2035.15
-2094.75
-2150.48
-2215.99
-2287.53
-2365.57
-2442.77
-2522.3
-2612.27
-2708.32
-2805.12
-2912.11
-3002.52
-3111.99
-3223.47
-3323.39
-3432.19
-3540.73
-3649.43
-3714.28
-3781.94
-3842.7
-3875.35
-3885.42
-3847.7
-3764.15
-3651.17
-3460.86
-3212.03
-2884.8
-5055.23
-5193.4
-5374.31
-5531.24
-6088.15
-5849.75
-155223
-39362
-58626.1
-65075.8
-34811.1
-17126.5
-15946.4
-8162.51
-7346.83
-6051.48
-5068.31
-1654.75
4888.36
4078.04
7078.73
5521.64
7750.61
7362.08
8465.1
9502.84
11331.1
11528
12663.1
14133.4
15640.1
17279.4
18762
21967.4
26770.4
29777.4
33216.2
41016.1
52739.6
58657.1
66592.1
72479.2
68784.7
53262.5
39679.6
32787.5
19649.8
11872
4277.53
3520.87
2208.55
3271.57
2813.47
5127.78
5214.05
5524.9
4850.2
4078.83
3253.98
2401.2
1583.91
879.67
28.1251
-324.495
-1044.82
-1074.55
-2100.81
-1385.16
-1868.36
-729.829
-2044.62
790.166
-2057.69
7017.07
-1723.84
-1841.39
-1800.15
-1800.2
-1798.64
-1806.36
-1818.38
-1836.02
-1858
-1884.19
-1914.98
-1950.15
-1989.61
-2032.49
-2078.59
-2130.84
-2189.42
-2247.41
-2311.88
-2384.44
-2460.33
-2542.68
-2622.63
-2711.76
-2808.24
-2907.46
-3016.47
-3115.14
-3219.07
-3333.28
-3441.95
-3550.69
-3660.67
-3780.84
-3859.44
-3929.55
-3992.3
-4034.29
-4060.5
-4033.33
-3983.69
-3863.48
-3681.1
-3437.12
-3191.96
-4065.33
-4256.24
-3860.75
-4451.56
-2516.87
-16024.2
-123377
-19265.7
-37178.2
-71839.8
-67537.4
-34428.9
-17654.6
-13519.4
-9404.8
-3778.18
-8164.96
2398.56
2920.45
7142.95
10771.9
7308.57
8863.3
8419.48
9386.16
10634.6
12474.5
14405.4
15961.3
19085.7
21174.7
25286.6
29330.4
35405.3
45315.1
56755.2
63796.8
73131.9
79433
74557.7
60674
43592.1
39519.5
32979.6
24193.8
15702.8
8997.41
2941.05
49.2767
-459.511
-1042.09
712.017
-409.18
2302.59
2695.15
4468.97
3990.87
3775.08
3107.21
2475.15
1759.83
1120.64
351.578
19.0673
-745.871
-831.234
-1841.52
-1191.06
-1687.32
-721.553
-2136.99
660.196
-2298.28
7188.08
-1854.83
-1961.63
-1914.77
-1908.97
-1902.7
-1906.54
-1914.97
-1929.32
-1948.42
-1973.13
-2001.98
-2034.94
-2073.47
-2115.6
-2160.62
-2212.84
-2270.22
-2330.69
-2392.44
-2465.64
-2540.53
-2626.08
-2706.16
-2794.87
-2891.34
-2994.02
-3099.12
-3212.09
-3308.17
-3422.35
-3542.93
-3647.98
-3761.55
-3870.47
-3988.3
-4069.57
-4121.6
-4167.49
-4200.83
-4198.67
-4158.26
-4069
-3923.45
-3713.14
-3374.97
-3212.43
-3371.28
-2963.64
-3710.41
-761.642
-67750.6
-57779.3
-6658.3
-14400.4
-31699.2
-60105.3
-65419.2
-33023.7
-22238.6
-10370.9
-10225.6
223.418
6836.76
2941.73
13306.6
11895.9
9638.41
10917.6
10731.5
13217.2
13971.8
17265.8
21360.9
25206.9
31753.9
39605.4
50702.6
61510.7
70439.1
76956.9
86170.1
78020.2
61893.1
46822.2
40913.6
36126
28242.6
21030.8
17285.8
12644.5
8657.69
3317.05
-145.921
-3314.49
-2680.69
-3376.12
-1509.69
-1697.55
408.38
1592.78
3572.13
3390.91
3521.52
2997.56
2553.56
1879.59
1320.72
574.62
308.203
-428.279
-574.384
-1648.43
-1028.7
-1646.42
-766.343
-2138.45
556.384
-2445.95
7226.15
-1970.07
-2066.52
-2014.42
-2003.32
-1993.09
-1992.84
-1997.73
-2009.41
-2026.16
-2048.83
-2075.71
-2106.78
-2144.18
-2185.76
-2229.89
-2281.5
-2337.1
-2399.11
-2459.04
-2531.92
-2609.43
-2691.87
-2777.22
-2861.86
-2958.98
-3059.52
-3171.05
-3282.41
-3385.78
-3493.95
-3619.8
-3731.26
-3840.13
-3955.39
-4078.28
-4173.58
-4253.72
-4298.29
-4328.28
-4356.86
-4346.2
-4282.73
-4180.34
-3974.05
-3700.49
-2602.37
-2762.29
-2452.61
-3832.48
-6.28627
-111224
-36687.8
-5649.1
-8155.28
-15180.6
-29769.4
-61764.5
-69499.4
-40071.7
-19632.5
-16270.6
1647.11
4548.58
6610.05
12820.3
14009.7
13477.3
14964.8
18078.4
23589
27200.6
35938.1
47903.9
57747.9
66566.2
77666.8
87655.1
84161.5
74048.4
58519
45146.1
41768
36079.3
29083.5
23196.1
19335
15685.4
11836.1
9684.84
6717.09
4313.22
1072.88
-1381.13
-4040.81
-4110.59
-5173.68
-3348.93
-3286.93
-1138.8
739.038
2671.38
2829.84
3168.98
2757.35
2532.19
1938.98
1455.7
729.333
684.46
-166.381
-326.811
-1440.91
-843.911
-1577.91
-691.186
-2099.59
420.723
-2554.6
7133.64
-2069.21
-2155.9
-2099.23
-2083.68
-2069.29
-2065.56
-2067.33
-2076.77
-2091.24
-2111.46
-2136.81
-2166.83
-2202.32
-2243.14
-2286.84
-2336.8
-2391.81
-2452.9
-2514.93
-2584.67
-2662.69
-2745.41
-2832.28
-2915.42
-3012.62
-3115.52
-3222.71
-3334.08
-3451.14
-3555.54
-3673.87
-3794.93
-3908.36
-4025.38
-4128.76
-4249.6
-4348.38
-4408.95
-4450.86
-4468.7
-4456.36
-4407.02
-4253.27
-4079.92
-3744.84
-1932.88
-1866.08
-2128.49
-1714.05
-3643.68
-107234
-17930.2
-8476.81
-8218.76
-10443.3
-16762.1
-30515.9
-51478.8
-72548.4
-40235.7
-22901.5
5113.97
9019.23
21578.7
15849.1
21760
23337
32853.4
44055.6
57103.8
66067.2
77546.8
86058.7
91027
81730.2
68391.4
52990
45756
40220.5
35261.8
28023
19901.5
18489.7
15711.9
13388.5
10924.8
9344.73
7115.93
5732.85
3743.37
2241.28
-10.8155
-1914.67
-4380.53
-4787.5
-5841.4
-4461.98
-3884.55
-1839.94
177.068
1887.32
2351.51
2817.8
2566.29
2472.59
1973.9
1527.86
1054.51
806.919
168.535
-136.176
-1199.8
-666.129
-1529.63
-636.964
-2070.52
319.204
-2630.57
6967.66
-2152.1
-2229.82
-2169.41
-2149.62
-2131.77
-2125.14
-2124.42
-2131.22
-2143.59
-2162.33
-2185.99
-2214.9
-2248.53
-2288.24
-2332.13
-2379.9
-2435.07
-2494.65
-2560.21
-2625.48
-2703.4
-2782.86
-2873.4
-2958.86
-3051.44
-3156.07
-3256.51
-3376.42
-3492.8
-3602.5
-3715.77
-3837.61
-3958.72
-4072.33
-4184.01
-4292.73
-4400.23
-4484.47
-4559.67
-4581.48
-4593.14
-4513.47
-4384.63
-4214.45
-3947.28
-1120.45
-989.507
-1068.47
-140.003
-28407.1
-77381.2
-4171.97
-5485.67
-4723.78
-7025.18
-10338.9
-17492.9
-31961.9
-47447
-67305.1
-41940.8
8407.29
30679.8
39023.5
34505.5
56229.6
61563.3
75568.5
88157.4
93326.2
86010.1
73189.2
57392.8
48897.1
44514.1
40683.8
33428.7
25990.7
21742.5
18195.3
14768.5
11384
10288.4
8511.98
7890.77
6835.66
6257.89
5039.69
3959.26
2230.75
730.056
-558.498
-2356.88
-3972.94
-5230.41
-5893.09
-4820.73
-3934.3
-2096.91
-147.41
1411.36
2005
2481.32
2357.02
2362.46
1948.67
1556.22
1282.01
938.839
485.656
79.1746
-944.282
-490.497
-1419.8
-512.462
-1972.85
254.26
-2640.56
6704.79
-2218.71
-2288.31
-2224.91
-2201.52
-2181.03
-2171.86
-2168.71
-2173.63
-2184.09
-2201.34
-2223.6
-2251.16
-2283.63
-2322.15
-2365.88
-2412.07
-2466.27
-2525.02
-2590.63
-2654.41
-2732.22
-2810.45
-2898.4
-2990.52
-3080.18
-3179.97
-3285.04
-3402.06
-3518.85
-3634.39
-3747.36
-3869.94
-3987.17
-4104.39
-4230.3
-4326.54
-4433.94
-4528.04
-4628.54
-4648.25
-4659.73
-4594.6
-4494.56
-4371.86
-4054.27
-681.591
-59.395
-1243.73
2539.5
-88980.1
-49196
-340.663
-925.256
-2336.44
-4632.09
-5701.86
-8612.79
-13511.7
-25890.6
-23423.9
-1941.25
23512.7
67504.6
71342.1
84511.6
92936.3
90210
78790.1
63649.7
52704.9
50312.5
44758.9
39252.5
30494.7
26102.4
22273.8
19031.8
16912.8
14579.1
12154.1
9678.26
9072.2
7506.43
5887.38
5211.32
4597.03
4158.96
3415.78
2732.54
1737.31
672.965
-677.001
-2254.6
-3707.89
-4556.51
-5050.44
-4671.73
-3623.2
-2186.32
-367.178
953.687
1668.43
2137.28
2163.93
2239.03
1940.32
1613.12
1455.94
1108.27
735.735
171.487
-585.943
-339.623
-1295.43
-439.444
-1893.37
152.442
-2659.64
6438.97
-2269.19
-2331.55
-2265.95
-2239.97
-2217.14
-2205.83
-2200.84
-2204.28
-2213.16
-2228.7
-2250.33
-2276.28
-2307.78
-2345.24
-2388.46
-2434.18
-2486.44
-2544.72
-2608.44
-2676.88
-2747.91
-2827.93
-2911.46
-3006.38
-3097.36
-3193.75
-3299.59
-3407.73
-3533.02
-3650.53
-3765.07
-3884.27
-4004.22
-4122.83
-4244.39
-4358.7
-4450.08
-4553.6
-4630.76
-4663.39
-4677.04
-4628.69
-4539.35
-4318.1
-4018.7
307.391
130.899
198.369
-400.633
-112986
-20654.3
-152.784
181.185
768.296
1332.04
1850.75
3249.18
3685.56
2905.97
10135.1
56949.7
90649.1
86529.5
77948.6
69698.6
55196.1
54821.8
49244
43564.8
37570.5
33527.9
28977.1
26484.9
21887.3
19957.9
13880.5
13335.3
12561.6
10943
9593.55
7622.6
7726.69
6112.59
4966.74
4676.85
4278.78
3862.36
3201.09
2401.5
1518.14
429.98
-832.136
-2231.21
-3356.06
-3903.42
-4053.3
-3897.32
-3105.53
-2140.33
-634.542
584.485
1389.09
1869.39
2003.09
2135.93
1878.25
1630.47
1622.47
1227.25
890.439
384.903
-317.024
-199.601
-1137.06
-348.241
-1726.88
117.703
-2599.32
6115.09
-2303.74
-2359.87
-2293
-2264.92
-2240.46
-2227.57
-2221.35
-2223.38
-2230.98
-2245.82
-2265.57
-2291.33
-2321.34
-2358.24
-2400.13
-2445.87
-2496.23
-2554.47
-2617.36
-2684.39
-2751.47
-2833.96
-2916.3
-3007.59
-3104.16
-3198.1
-3300.67
-3410.88
-3527.42
-3649.73
-3763.63
-3886.89
-4009.67
-4122.3
-4251.53
-4374.96
-4488.61
-4557.13
-4602.59
-4653.45
-4687.34
-4693.06
-4622.41
-4467.04
-4271.9
410.035
227.74
1306.26
-15252.6
-98151.7
-6725.36
304.129
1930.47
2708.58
3023.35
3876.28
5459
12110.4
26154.6
78438.7
142746
94755.9
63192.5
51789.2
44623.3
38286.1
35018.3
31263.5
27686.8
25336.5
23861.4
22617.7
21251.9
18502.2
17919.2
15236.1
13468.2
11604.6
10609.9
9903.03
8573.49
7838.23
6454.5
5350.26
4601.45
4028.16
3249.69
2618.46
2078.35
1609.1
704.845
-295.407
-1619.09
-2264.93
-3108.18
-3152.66
-3290.09
-2455.07
-1976.02
-838.817
237.354
1086.78
1599.58
1832.24
1984.27
1795.69
1703.96
1648.69
1349.89
1042.52
570.309
-18.434
-43.2791
-961.468
-296.999
-1609.99
19.1432
-2541.08
5779.16
-2322.76
-2373.64
-2306.33
-2276.76
-2251.63
-2237.65
-2230.37
-2231.49
-2238.26
-2252.18
-2270.9
-2296.07
-2324.98
-2361.19
-2401.95
-2447.19
-2496.64
-2553.42
-2616.95
-2680.93
-2753.75
-2824.38
-2910.73
-2998.4
-3095
-3193.12
-3293.87
-3401.92
-3510.8
-3633.66
-3750.71
-3870.92
-3999.13
-4113.32
-4240.58
-4374.96
-4486.85
-4560.32
-4595.33
-4648.55
-4629.41
-4614.2
-4482.01
-4325.65
-4073.86
1485.57
1060.87
2698.5
-69922.5
-60262.1
2792.79
2092.05
3476.31
3897.9
4727.82
7056.99
12959.3
40979.5
88838.5
158658
116255
66522
45648.6
35410.3
28880
24135.5
21523
19840.9
17742.7
17014
16810.8
17338.4
17576.7
17238.2
17519.1
15964.2
14039.9
11030.2
10655.4
10217.7
9806.36
8387.84
7716.16
6533.82
5356.14
4545.89
3698.6
3118.59
2546.02
1921.68
1028.58
438.503
-778.248
-1522.14
-2226.36
-2215.55
-2604.11
-2154.06
-1881.83
-989.73
-12.2354
854.477
1403.63
1661.92
1835.82
1713.09
1737.86
1653.97
1444.02
1164.83
735.324
193.284
131.821
-749.632
-169.126
-1375.94
29.1776
-2361.97
5387.13
-2326.76
-2373.31
-2306.38
-2276.46
-2250.7
-2236.29
-2228.53
-2228.9
-2235.38
-2248.36
-2266.58
-2290.7
-2319.59
-2354.32
-2394.83
-2438.94
-2487.85
-2543.18
-2604.27
-2669.54
-2738.39
-2816.07
-2892.64
-2980.34
-3073.58
-3175.62
-3277.17
-3380.9
-3491.42
-3603.97
-3730.38
-3848.98
-3971.11
-4100.47
-4204.62
-4326.15
-4432.17
-4541.53
-4601.31
-4644.75
-4619.7
-4642.07
-4570.02
-4589.07
-4385.93
1188.98
1155.69
-68.3147
-130201
-21264.4
4638.27
4840.08
4850.73
6265.36
8384.94
14331.6
25637.3
79606
170904
140719
79072.9
49558
33885
25682.9
21173.2
18335.4
16038.6
14929.9
13573.3
12784.6
11965.4
12414.5
12799.6
13709.9
14383
15262.1
15313.9
13919.2
12671.5
11644.4
11366.3
9624.44
9225.39
7340.43
6137.16
4964.42
4220.13
3653.33
2858.1
2369.78
1213.48
983.483
41.8875
-201.26
-1420.53
-1437.53
-1915.19
-1751.5
-1752.91
-990.629
-156.455
673.773
1234.21
1494.53
1680.71
1647.06
1685.81
1650.88
1506.7
1268.01
895.03
400.97
294.729
-562.248
-101.862
-1236.02
-27.4374
-2247.18
4958.2
-2316.3
-2359.53
-2293.87
-2264.11
-2238.46
-2223.97
-2216.23
-2216.3
-2222.5
-2234.83
-2252.82
-2276.4
-2305.13
-2338.58
-2378.22
-2421.59
-2470.34
-2523.88
-2583.68
-2648.25
-2716.45
-2791.02
-2868.69
-2955.39
-3043.88
-3143.66
-3245.91
-3353.18
-3454.5
-3568.76
-3693.42
-3817.87
-3941.06
-4071.58
-4182.97
-4274.41
-4377.19
-4490.95
-4584.61
-4642.67
-4628.75
-4590.9
-4489.5
-4348.21
-3958.1
1806.92
3060.61
-23044.2
-104980
-3650.39
2943.42
3878.41
4443.23
5174.6
13622.9
34442.9
73673.4
143728
144751
86131.2
52319
34135.4
24303.7
18839.9
15711.4
14634.7
13767.8
12923.1
12269.8
11535.7
10763.7
10571.7
10452.2
11328.7
11970.2
12484.6
13366.5
13773.6
12864.8
11544.9
10491.5
9980.31
10003.8
8697.39
7535.15
6002.24
5321.62
4335.64
3231.47
2615.89
1556.94
1444.56
656.652
25.8447
-544.884
-964.995
-1325.88
-1349.71
-1332.41
-1020.61
-209.987
490.684
1068.21
1345.47
1579.07
1559.98
1633.47
1650.06
1570.3
1359.33
1058.75
599.576
489.227
-330.258
47.0723
-1006.72
1.83628
-2023.55
4565.78
-2292.13
-2332.93
-2269.38
-2240.3
-2215.38
-2201.31
-2193.9
-2194.02
-2200.21
-2212.35
-2230.1
-2253.44
-2281.5
-2314.55
-2352.89
-2395.92
-2444.22
-2496.1
-2554.32
-2617.24
-2686.74
-2757.43
-2838.81
-2913.63
-3008.25
-3103.95
-3201.07
-3307.2
-3409.57
-3524.46
-3648.66
-3773.62
-3901.92
-4024.49
-4137.99
-4219.23
-4293.42
-4409.47
-4506.99
-4569.51
-4606.96
-4551.77
-4430.1
-4392.47
-3972.72
1836.67
2414.65
-96958.3
-49184.4
4056.25
4341.01
4725.44
7225.54
9925.26
23870.3
70597.7
158417
157086
91363.3
55323
35553.9
24388.9
18343.2
15382.7
13757.3
12708.9
12193.7
11598.6
11241.2
10741.2
10200.8
9608.29
8973.57
9044.88
9316.52
10408.8
11234
11464.9
12194
11615.1
10305
10621.8
9770.48
9125.61
7731.11
6259.28
5419.23
4160.55
3563.59
2762.59
2038.49
1736.04
677.813
569.729
-81.0105
-355.69
-773.198
-999.517
-997.735
-718.039
-353.982
358.848
843.536
1215.87
1376.14
1480.29
1525.81
1637.89
1588.72
1421.51
1179.12
763.265
650.586
-150.231
154.129
-871.263
15.8636
-1860.22
4144.74
-2255.05
-2294.24
-2233.42
-2205.7
-2182.06
-2168.83
-2162.1
-2162.64
-2169.07
-2181.23
-2198.83
-2222.12
-2249.8
-2282.17
-2319.71
-2362.28
-2409.53
-2460.82
-2517.06
-2578.63
-2646.29
-2717.16
-2793.99
-2874.12
-2961.2
-3056.82
-3150.11
-3253.1
-3354.83
-3471.81
-3593.07
-3714.6
-3833.08
-3966.9
-4080.82
-4190.49
-4289.87
-4381.34
-4499.52
-4609.77
-4699.62
-4770.65
-4859.52
-4888.66
-5029.9
1371.66
-4868.3
-138274
-16700.2
4019.21
4675.39
6057.91
12659.8
26674.8
61037.8
130489
157479
94176.7
56498.4
35751.9
23880.2
18397.3
16070.3
14810.7
14076.4
12509.7
11805.3
11030.2
10647.8
10084
9680.41
9092.26
8505.04
7950.95
7841.88
8292.54
8985.89
8995.91
10253.8
9934.28
10518.3
10108.3
8656.19
8721.09
7909.3
7077.06
5882.89
4937.17
3942.85
2832.76
2228.15
1556.41
1056.1
688.971
325.573
-145.791
-427.803
-676.812
-663.68
-665.713
-254.725
406.938
754.614
1085.6
1235.1
1407.74
1460.31
1578.57
1596.33
1482.37
1301.37
943.359
831.593
40.2264
294.629
-644.534
110.88
-1648.06
3771.73
-2205.93
-2244.27
-2186.81
-2161.01
-2139.07
-2127.15
-2121.4
-2122.64
-2129.51
-2141.98
-2159.6
-2182.83
-2210.31
-2241.92
-2279.08
-2321.33
-2366.85
-2417.49
-2472.73
-2533.06
-2597.97
-2668.29
-2742.56
-2823.53
-2908.39
-2992.13
-3093.66
-3188.2
-3296.38
-3409.96
-3520.08
-3642.27
-3758.96
-3879.15
-3995.99
-4117.91
-4231.47
-4323.57
-4380.31
-4406.27
-4361.84
-4237.99
-4001.75
-3654.5
-3357.74
5132.05
-50639
-71191.4
4615.63
6215.23
6733.88
9285.02
21750
63061.4
136783
164449
97720.1
59243.9
38040.6
25789.6
19288.3
15589.7
13642
12319.4
11796.7
11298.4
10963.6
10628.3
10401.7
9971.55
9504.54
8874.85
8216.13
7536.43
7069.89
6839.46
6994.53
7232.76
8081.66
8073.74
9414.64
8832.59
8546.03
7950.03
7593.83
6918.52
5916.07
4801.75
3807.09
3270.48
2648.35
1967.44
1100.92
733.893
310.984
93.0242
-246.05
-325.599
-439.805
-379.535
-20.6426
373.342
688.428
958.892
1139.73
1345.89
1381.85
1476.82
1556.38
1503.14
1385.08
1081.68
950.069
201.396
482.213
-496.212
169.671
-1479.7
3422.13
-2145.72
-2183.86
-2130.31
-2106.91
-2087.12
-2076.84
-2072.35
-2074.61
-2082.08
-2095.09
-2112.81
-2136.12
-2163.43
-2194.47
-2231.31
-2272.85
-2317.38
-2366.58
-2421.13
-2481.18
-2542.55
-2610.91
-2683.95
-2764.86
-2845.66
-2929.66
-3024.55
-3122.19
-3230.95
-3336.63
-3445.38
-3559.02
-3679.4
-3789.94
-3931.48
-4070.43
-4194.15
-4307.46
-4402.72
-4530.68
-4609.43
-4846.05
-4981.7
-5206.95
-5802.04
-1231.13
-148841
-25168.7
5289.04
8103.85
11229.1
21039.2
48188.9
118448
165032
98356.1
59354.4
38610
26724.2
20246.7
16721.7
13530.2
11507.4
10256.4
9903.71
9846.2
9846.14
9918.42
9676.09
9567.42
9221.64
8672.13
8140.84
7447.55
6748.13
6090.55
5643.19
5953.31
6440.21
6460.45
7312.02
7250
7918
7561.18
6911.01
6593.58
5820.27
5002.88
4072.15
3221.77
2469.15
1664.89
1031.7
753.505
544.899
297.835
119.322
-133.516
-157.28
-210.788
91.3911
342.62
614.356
839.968
1061.14
1246.07
1279.05
1325.41
1490.13
1519.62
1464.23
1240.63
1050.35
430.09
596.295
-318.701
354.178
-1262.06
3102.41
-2075.44
-2113.93
-2064.77
-2044.16
-2026.87
-2018.52
-2015.59
-2019.05
-2027.38
-2041.01
-2059.05
-2082.55
-2109.5
-2140.7
-2176.57
-2217.82
-2260.83
-2309.16
-2363.27
-2421.15
-2480.69
-2546.28
-2620.24
-2698.61
-2774.47
-2857.86
-2945.67
-3045.53
-3156.66
-3256.6
-3354.75
-3466.63
-3586.19
-3692.68
-3837.06
-3976.22
-4111.75
-4199.1
-4234.04
-4252.78
-4206.43
-4148.53
-3853.64
-3760.89
-2914.4
-29616.4
-95349.8
-2820.37
4370.81
8301.96
20375.5
52300.2
116211
170482
101906
60986.6
39376.2
27035
19905.2
15573.4
13097.5
12051.4
11502.2
11244.2
10516.8
10324.8
10020
10200.6
9344.94
9331.52
9107.99
8448.2
7835.44
7093.55
6349.06
5640.76
5070.76
4916.78
4811.48
5125.61
5463.99
5538.23
6620.22
6275.07
6447.02
5664.03
5360.33
4787.72
3736.27
3125.49
2576.27
1960.49
1321.35
970.956
532.403
271.026
139.223
23.7128
-30.2206
5.65862
126.533
302.572
530.173
696.805
960.059
1086.89
1143.64
1207.15
1416.34
1493.89
1517.8
1343.34
1206.91
596.017
751.705
-92.2168
457.596
-1128.23
2785.01
-1996.1
-2035.39
-1991
-1973.53
-1959.02
-1952.88
-1951.69
-1956.56
-1965.94
-1980.27
-1998.86
-2022.48
-2049.3
-2080.52
-2115.93
-2155.91
-2198.68
-2245.93
-2298.77
-2354.48
-2413.39
-2476.82
-2548.78
-2623.06
-2698.33
-2779.13
-2861.92
-2961.8
-3068.52
-3169.25
-3261.78
-3364.89
-3473.93
-3595.18
-3724.88
-3851.61
-3992.46
-4085.43
-4202.57
-4257.93
-4365.38
-4464.61
-4536.01
-5049.77
-6453.99
-124067
-41042.2
4540.35
7751.86
16357.8
42416.4
107299
176573
105569
64212.5
41802.7
29014.3
21102.5
16424.6
13506.5
11778.7
10652.6
9940.73
9694.47
9579.02
9502.46
9383.9
9167.17
8861.15
8703.55
8221.09
8176.45
7757.08
7113.3
6487.21
5747.96
5053.64
4389.76
3823.22
3997.32
4265.06
4106.11
4930.77
4691.87
5760.44
5310.77
4810.36
4408.42
3689.45
3167.9
2368.43
1675.48
1101.56
763.6
546.159
400.247
352.932
188.355
90.0665
41.7207
148.396
248.024
429.764
563.581
811.516
916.03
1017.84
1183.29
1315.87
1432.49
1638.95
1512.34
1300.76
739.786
893.585
22.3658
584.349
-1000.61
2557.89
-1908.76
-1949.22
-1909.88
-1895.82
-1884.29
-1880.57
-1881.3
-1887.71
-1898.3
-1913.5
-1932.72
-1956.29
-1983.45
-2014.44
-2049.58
-2088.13
-2130.8
-2177.15
-2227.75
-2281.72
-2340.72
-2402.71
-2469.92
-2540.86
-2616.64
-2693.55
-2778.48
-2868.13
-2963.07
-3067.46
-3165.18
-3251.93
-3367
-3476.46
-3588.84
-3686.31
-3823.83
-3915.46
-4061.85
-4055.72
-4049.73
-3975.83
-4054.76
-3590.49
-33763.8
-128823
-7778.08
6432.09
16418.4
47927.1
107946
180123
107703
64748.7
41783.5
27080.8
18244.8
13637.1
11931.8
11393.2
11117.6
10506.3
9949.17
9510.04
9560.55
9425.3
9279.08
8834.48
8735.89
8422.3
7684.1
7623.76
7171.26
6656.15
6060.22
5368.6
4710.23
4031.06
3384.96
3138
3054.87
3251.06
3515.42
3462.13
4515.55
3976.11
4082.22
3712.48
3326.58
2666.82
1935.08
1619.55
1294.37
968.363
622.058
323.277
213.175
135.771
141.07
161.264
188.833
200.192
332.417
426.508
631.15
733.008
920.178
1079.6
1251.35
1298.79
1727.11
1472.01
1376.02
833.04
1071.77
141.679
732.003
-879.192
2347.29
-1814.5
-1856.37
-1822.29