/*--------------------------------*- C++ -*----------------------------------*\
| =========                 |                                                 |
| \\      /  F ield         | OpenFOAM: The Open Source CFD Toolbox           |
|  \\    /   O peration     | Version:  2.2.x                                 |
|   \\  /    A nd           | Web:      www.OpenFOAM.org                      |
|    \\/     M anipulation  |                                                 |
\*---------------------------------------------------------------------------*/
FoamFile
{
    version     2.0;
    format      ascii;
    class       volScalarField;
    location    "3";
    object      Bz;
}
// * * * * * * * * * * * * * * * * * * * * * * * * * * * * * * * * * * * * * //

dimensions      [1 0 -2 0 0 -1 0];

internalField   nonuniform List<scalar> 
14161
(
-3.34406e-10
-3.3548e-10
-3.33822e-10
-3.28117e-10
-3.40262e-10
-3.13304e-10
-3.73286e-10
-2.41904e-10
-4.50126e-10
-1.37983e-10
-5.90328e-10
1.00811e-10
-9.71808e-10
4.36923e-10
-1.37313e-09
1.31485e-09
-2.19786e-09
2.85988e-09
-4.30874e-09
5.22467e-09
-7.74077e-09
9.67663e-09
-1.31954e-08
1.63891e-08
-2.04575e-08
2.60834e-08
-3.33789e-08
3.82609e-08
-4.76872e-08
4.32645e-08
-8.13819e-08
-1.12348e-08
-5.30755e-07
-1.35348e-06
-1.36533e-06
-5.39709e-06
-4.39582e-06
-1.03081e-05
-1.08631e-05
-1.96238e-05
2.88071e-05
-5.06492e-05
-0.000264751
-0.000283073
0.000200861
0.000303312
-0.000741857
-0.00140286
-0.000221788
0.00124069
0.000617397
-0.00143068
-0.00213426
-0.000383588
0.00184526
0.00169062
-0.000519814
-0.00240629
-0.00182884
0.000914261
0.00262635
0.00180473
-0.000666583
-0.0025559
-0.00184094
0.000941777
0.00265099
0.0021534
-6.27527e-05
-0.00240395
-0.00228949
0.000188422
0.00227849
0.00221865
0.000582431
-0.00176624
-0.00230931
-0.00082614
0.00144811
0.00220735
0.00128094
-0.000954116
-0.00234143
-0.00138058
0.00120222
0.00240051
0.00144395
-0.00103637
-0.00262232
-0.00129378
0.00097064
0.00206558
0.00169576
-0.000147118
-0.00262235
-0.00248644
0.000316413
0.00276928
0.00205047
-0.000305179
-0.00184789
-0.00168238
-2.48141e-06
0.00135819
0.0012844
0.000293632
-0.000538871
-0.000614937
-0.000226542
0.000217323
-0.000192835
0.000181856
-0.000586902
0.000472045
-0.000552786
0.00197718
0.00146565
0.00934812
0.0114262
-3.31526e-10
-3.29394e-10
-3.29852e-10
-3.23382e-10
-3.38164e-10
-3.05031e-10
-3.6463e-10
-2.38667e-10
-4.47448e-10
-1.33883e-10
-5.85351e-10
8.62314e-11
-9.35249e-10
4.21516e-10
-1.35298e-09
1.2451e-09
-2.19302e-09
2.77752e-09
-4.17368e-09
4.96963e-09
-7.27523e-09
8.72135e-09
-1.15385e-08
1.37152e-08
-1.69786e-08
1.93102e-08
-1.89048e-08
2.59105e-08
-2.62532e-08
2.46023e-08
-3.77719e-08
-4.04285e-08
-3.26936e-07
-1.24459e-06
-1.41545e-06
-4.8092e-06
-4.62998e-06
-9.54243e-06
-1.0145e-05
-1.75274e-05
1.82109e-05
-5.40025e-05
-0.000215686
-0.000248636
7.59629e-05
0.000222058
-0.000517224
-0.0011796
-0.000401407
0.000915329
0.000694125
-0.000962952
-0.00186593
-0.000677751
0.00138162
0.00171187
1.47403e-05
-0.00191743
-0.00192218
0.000302447
0.00226749
0.00201006
-7.47305e-06
-0.00201345
-0.00198503
0.000208355
0.00218418
0.00229999
0.000643237
-0.00166665
-0.00229016
-0.000699435
0.00160381
0.00244253
0.00163267
-0.000476362
-0.00225466
-0.00183601
0.000378583
0.00208218
0.00203408
0.000272506
-0.00198542
-0.00225417
-0.000219541
0.00190406
0.0019912
0.000159902
-0.00190435
-0.00173286
0.000250949
0.00172462
0.00173987
0.000276523
-0.0023433
-0.00280293
-0.000412407
0.00249891
0.0023506
0.000184446
-0.00167111
-0.0015801
-0.000175211
0.00111075
0.00115829
0.000311896
-0.00042366
-0.000475714
-0.000152622
0.000238411
-0.000323578
0.000217992
-0.000469374
0.000318407
-0.000479196
0.00149391
0.00133084
0.0053791
0.00607809
-3.18133e-10
-3.17674e-10
-3.22369e-10
-3.1647e-10
-3.30813e-10
-2.94754e-10
-3.53127e-10
-2.35664e-10
-4.29817e-10
-1.38582e-10
-5.51546e-10
5.37708e-11
-8.50881e-10
3.99709e-10
-1.26902e-09
1.01954e-09
-2.1571e-09
2.49336e-09
-3.75594e-09
4.39539e-09
-6.03833e-09
6.65286e-09
-8.54677e-09
9.15902e-09
-9.80603e-09
1.16559e-08
-1.2494e-08
1.49533e-08
-1.27755e-08
2.64059e-09
-1.27329e-08
-4.74063e-08
-1.94722e-07
-8.64751e-07
-9.42228e-07
-3.75521e-06
-4.26242e-06
-8.20172e-06
-6.72386e-06
-1.82842e-05
-8.66581e-06
-2.85668e-05
-9.86433e-05
-0.000252538
-0.000177752
0.000168208
-4.75876e-05
-0.00084626
-0.000798942
0.0003613
0.000934502
-8.48144e-05
-0.00144346
-0.00123591
0.000561402
0.00173548
0.000922117
-0.00109068
-0.00205994
-0.00061967
0.00168575
0.00223149
0.000723546
-0.00132708
-0.00192427
-0.000458176
0.00152229
0.0020886
0.00120044
-0.000604414
-0.00198734
-0.00141136
0.000668882
0.00206444
0.00178265
0.000123358
-0.00168897
-0.00189401
-0.000271788
0.00169418
0.00214489
0.000634232
-0.00172558
-0.00223469
-0.000606259
0.00155828
0.00190954
0.000435304
-0.00148934
-0.00191639
-0.000311014
0.00155902
0.00208856
0.000385448
-0.00232725
-0.0026778
-0.000588563
0.00211078
0.00214488
0.000294531
-0.00118687
-0.00140945
-0.000355688
0.0007887
0.000918964
0.000274621
-0.000344656
-0.00027224
-3.78009e-05
0.000216977
-0.000374012
0.00020737
-0.000378943
0.000264591
-0.000419152
0.0012381
0.0011723
0.00391321
0.00430493
-3.02674e-10
-2.99608e-10
-3.03793e-10
-2.98079e-10
-3.10944e-10
-2.7261e-10
-3.23728e-10
-2.31505e-10
-3.858e-10
-1.52624e-10
-4.60683e-10
-4.6136e-11
-6.24382e-10
3.19755e-10
-1.01062e-09
6.30824e-10
-1.70895e-09
1.71039e-09
-2.53952e-09
2.78151e-09
-3.77363e-09
4.44312e-09
-5.57937e-09
5.3777e-09
-5.66273e-09
4.77297e-09
-4.85469e-09
4.34011e-09
-2.7117e-09
-4.76282e-09
-2.39252e-09
-2.70855e-08
-8.0047e-08
-3.11462e-07
-2.11684e-07
-1.25257e-06
-1.49183e-06
-2.38604e-06
-1.72179e-07
-1.62915e-05
-1.55194e-05
2.04988e-05
-1.69368e-05
-0.000263488
-0.0002734
0.000236391
0.000346639
-0.00059548
-0.00107668
2.62645e-05
0.00119898
0.000562572
-0.00123465
-0.00168435
7.69685e-05
0.00186321
0.00146043
-0.000808483
-0.00226774
-0.00102745
0.00152397
0.00237054
0.000830429
-0.00130032
-0.00180507
-0.000355523
0.00124591
0.00161385
0.000853646
-0.000266963
-0.00113922
-0.00102462
-0.000125592
0.000809269
0.00109811
0.000616944
-0.000449796
-0.00131558
-0.000959862
0.000514341
0.00163846
0.00106134
-0.0007356
-0.00161165
-0.000885757
0.000756901
0.00157081
0.000773102
-0.000778213
-0.00172983
-0.000903578
0.00129771
0.00223501
0.000615158
-0.00190633
-0.00235069
-0.000616288
0.00165115
0.00153004
0.000416599
-0.000804441
-0.00109478
-0.000281571
0.00057695
0.000630714
9.85285e-05
-0.000281688
2.31027e-05
-5.48034e-06
0.000110983
-0.000323515
0.000202562
-0.000335642
0.000269397
-0.000372846
0.00101438
0.000838077
0.00243204
0.00261143
-2.58391e-10
-2.57794e-10
-2.65179e-10
-2.6219e-10
-2.76672e-10
-2.46166e-10
-2.8692e-10
-2.11197e-10
-3.35697e-10
-1.61799e-10
-3.81571e-10
-8.27346e-11
-5.19179e-10
2.40377e-10
-8.78503e-10
5.70887e-10
-1.37971e-09
1.36183e-09
-1.9768e-09
1.93634e-09
-2.573e-09
2.60211e-09
-3.09594e-09
3.19191e-09
-3.76782e-09
2.81231e-09
-2.56138e-09
4.07913e-10
-2.07135e-11
-1.13906e-09
2.27465e-09
-8.23457e-09
4.69751e-09
-1.81579e-08
3.85729e-07
1.16844e-07
1.21171e-06
-8.57638e-07
3.57009e-06
-1.68093e-05
-1.14492e-05
3.42023e-05
-5.19391e-07
-0.000262318
-0.000266013
0.000291379
0.000464642
-0.000498443
-0.00114694
-0.000144975
0.00126359
0.000913892
-0.00100248
-0.00188267
-0.000376674
0.00178445
0.00186931
-0.000393993
-0.00232036
-0.00155442
0.000995379
0.00251328
0.00129967
-0.00125668
-0.00230604
-0.000772095
0.00175964
0.00228133
0.000394626
-0.0013961
-0.00142959
5.29791e-05
0.00114372
0.000796157
-0.00015471
-0.000155201
0.000287217
-2.3292e-05
-0.000787744
-0.000749414
0.000275063
0.0010374
0.000503739
-0.000744044
-0.00116438
-0.000639822
0.000577578
0.00122455
0.000378537
-0.00126875
-0.0014337
0.000395172
0.00174273
0.000885959
-0.00109439
-0.00158143
-0.000411781
0.000837701
0.00109437
0.000325934
-0.000582667
-0.000711632
-8.08538e-05
0.000465933
0.000298689
-8.05052e-05
-0.000133269
0.000140606
-6.2133e-05
0.0001148
-0.00028909
0.000170681
-0.000281344
0.000253206
-0.00026165
0.000769257
0.000593258
0.00133887
0.00145681
-2.1732e-10
-2.15426e-10
-2.19575e-10
-2.17779e-10
-2.28131e-10
-1.98543e-10
-2.41049e-10
-1.83258e-10
-2.60931e-10
-1.46286e-10
-2.85145e-10
-7.70412e-11
-4.10923e-10
1.37197e-10
-6.55588e-10
5.41122e-10
-1.0989e-09
9.31782e-10
-1.5447e-09
1.58018e-09
-2.03648e-09
1.92812e-09
-2.33343e-09
2.39939e-09
-2.80133e-09
2.41282e-09
-2.50376e-09
2.50148e-09
-3.01324e-09
6.39081e-09
1.10933e-08
6.00882e-08
2.7549e-07
7.14275e-07
1.54446e-06
1.74084e-06
3.74773e-06
6.52067e-07
4.92123e-06
-1.45199e-05
-1.55612e-06
4.0755e-05
1.96787e-05
-0.00019717
-0.000297537
0.000147013
0.000684517
7.51639e-05
-0.00108236
-0.00087691
0.000745496
0.00152756
0.000173331
-0.00165617
-0.00149318
0.000508828
0.00203491
0.00114939
-0.00119775
-0.00214621
-0.000804201
0.00146758
0.00209988
0.000445271
-0.00170372
-0.00185515
-2.48137e-05
0.00208462
0.00185636
-0.000235581
-0.00181251
-0.00124571
0.000695932
0.00157254
0.000436161
-0.000711932
-0.000383725
0.000154941
-9.92186e-05
-0.000472136
-9.14046e-05
0.000518651
0.000669164
-9.286e-05
-0.00104995
-0.00108758
1.92629e-05
0.00129611
0.000826363
-0.000753503
-0.0015054
-0.000138732
0.00126156
0.00081887
-0.000404308
-0.000985135
-0.000442698
0.000493697
0.0007094
0.000139204
-0.000429777
-0.00034837
0.0001434
0.000303222
-1.82162e-05
-5.54022e-05
3.53919e-06
8.59484e-05
-6.42008e-05
0.000142158
-0.000249382
8.10239e-05
-0.00021092
0.000210464
-0.000145896
0.000529891
0.000358183
0.000691454
0.00076132
-1.55234e-10
-1.54957e-10
-1.57938e-10
-1.57789e-10
-1.68013e-10
-1.47953e-10
-1.79186e-10
-1.38959e-10
-1.9359e-10
-1.15458e-10
-2.24912e-10
-3.98878e-11
-3.26459e-10
1.02262e-10
-5.71213e-10
5.3206e-10
-1.05654e-09
9.93967e-10
-1.4562e-09
1.63868e-09
-2.01342e-09
1.89012e-09
-2.18051e-09
2.1984e-09
-2.65456e-09
2.99431e-09
-3.76809e-09
4.60527e-09
-6.15348e-09
1.26244e-08
1.64917e-08
1.02556e-07
4.47171e-07
1.27076e-06
2.32115e-06
3.4397e-06
5.04206e-06
3.00616e-06
4.15224e-06
4.60444e-06
-1.34741e-06
-3.01527e-05
5.05911e-06
8.2723e-05
-6.15295e-05
-0.000323495
6.13336e-05
0.000656265
0.000180491
-0.000888445
-0.000810115
0.000626269
0.00141655
0.000257964
-0.00137686
-0.00142208
0.000228982
0.00167691
0.00114275
-0.000726385
-0.00193963
-0.00118856
0.000919511
0.002041
0.000906375
-0.00130884
-0.00196874
-0.000509151
0.00157516
0.00187669
0.000248552
-0.0012871
-0.001104
0.000468884
0.00145959
0.000590781
-0.000715462
-0.000770754
-0.000109806
0.000329266
8.31488e-05
3.53613e-06
0.000192062
1.23136e-05
-0.000648152
-0.000864364
2.65837e-05
0.00104002
0.000794753
-0.00050146
-0.00109193
-0.000209807
0.000706748
0.000652267
-9.9158e-05
-0.00060152
-0.000257092
0.000346138
0.000412347
-2.20161e-05
-0.000265486
-1.70328e-05
0.000193412
5.6843e-05
-5.95587e-05
3.19983e-05
2.88443e-07
5.22097e-05
-4.2843e-05
0.00014561
-0.000213217
1.2254e-05
-0.000153089
0.000179721
-7.22655e-05
0.000337891
0.000192336
0.000344179
0.000381865
-1.0125e-10
-1.00673e-10
-1.01633e-10
-9.92859e-11
-1.09184e-10
-9.17211e-11
-1.17054e-10
-8.61777e-11
-1.23642e-10
-7.27819e-11
-1.55688e-10
-5.61122e-12
-2.21048e-10
1.13979e-10
-5.04375e-10
5.73789e-10
-1.01841e-09
9.67106e-10
-1.40517e-09
1.75221e-09
-1.97463e-09
1.83105e-09
-1.85501e-09
1.72107e-09
-2.14982e-09
3.25942e-09
-4.65852e-09
5.9651e-09
-9.417e-09
2.07621e-08
2.53852e-08
1.69046e-07
6.16989e-07
1.8883e-06
3.16952e-06
5.85165e-06
6.27319e-06
6.19414e-06
4.66744e-06
1.21832e-05
9.38955e-06
-2.86293e-05
-2.82959e-05
9.39307e-06
5.7546e-05
5.0715e-05
-6.35663e-05
-0.000141489
-4.16882e-06
0.00015782
7.61698e-05
-0.000178144
-0.000259683
1.7998e-05
0.000309401
0.000136959
-0.000369734
-0.000434399
0.000153758
0.000609694
0.000243489
-0.000636786
-0.000881419
8.05138e-05
0.00115345
0.000883953
-0.000685533
-0.00156277
-0.00038823
0.00140837
0.00143308
-7.09842e-05
-0.00136603
-0.000846833
0.000776283
0.00151488
0.000436643
-0.000847533
-0.000960268
-0.000153638
0.000403679
0.000400622
0.000275673
-7.2552e-05
-0.000558906
-0.000575676
5.03063e-05
0.000674394
0.000475698
-0.000300952
-0.000669872
-0.000162033
0.000439017
0.000434123
-7.43236e-05
-0.00036303
-7.61077e-05
0.000270013
0.000161538
-0.000100758
-4.81404e-05
0.000122671
4.73385e-05
-2.74987e-06
-3.36853e-06
3.00609e-05
-1.04819e-05
5.46328e-05
-5.35498e-05
0.000139183
-0.000181963
-1.16842e-05
-9.97037e-05
0.000157112
-3.57969e-05
0.000196818
8.88082e-05
0.000156976
0.000174537
-5.7024e-11
-5.70151e-11
-5.89557e-11
-5.65698e-11
-6.08292e-11
-5.12036e-11
-6.81751e-11
-4.92508e-11
-6.72673e-11
-3.47544e-11
-8.88248e-11
4.58128e-12
-1.36691e-10
1.11719e-10
-3.47689e-10
4.96048e-10
-7.94393e-10
8.26254e-10
-1.21506e-09
1.4709e-09
-1.55404e-09
1.34939e-09
-1.01668e-09
8.18033e-10
-1.33664e-09
2.79838e-09
-4.43039e-09
5.66092e-09
-9.56163e-09
2.10977e-08
4.09988e-08
2.30236e-07
8.03287e-07
2.49029e-06
4.23995e-06
7.41407e-06
7.87412e-06
1.00651e-05
9.48815e-06
1.02881e-05
-1.66867e-05
-5.26924e-06
7.8667e-05
7.45619e-05
-0.000202823
-0.000285276
0.000301862
0.00062892
-0.000158142
-0.000956184
-0.000334499
0.000981488
0.00087058
-0.000612311
-0.0013286
-0.00028186
0.00110725
0.000923501
-0.000438429
-0.00121403
-0.000457119
0.000843305
0.000859614
-0.000296076
-0.000834149
-2.157e-05
0.00072525
0.000160588
-0.000669989
-0.000235418
0.000612887
0.000620449
-0.000147636
-0.000589549
-0.000239218
0.000596986
0.000897443
-0.000177467
-0.00093829
-0.000574603
0.000228386
0.000502676
0.000328314
-6.9494e-05
-0.000482934
-0.000393087
7.03014e-05
0.000404979
0.000293273
-0.000211187
-0.00041378
-4.5572e-05
0.000318663
0.00022756
-0.000125994
-0.000185124
7.51099e-05
0.00015975
-2.23201e-06
-2.10605e-05
5.75161e-05
4.95023e-05
5.2782e-06
1.95555e-05
2.44509e-06
1.90178e-05
-3.36124e-07
5.70075e-05
-7.47602e-05
0.000107394
-0.000134727
-2.28279e-06
-4.88581e-05
0.000134982
-1.56703e-05
0.000108704
3.34547e-05
6.27735e-05
6.91287e-05
-2.9848e-11
-2.95295e-11
-3.04506e-11
-2.86173e-11
-2.94996e-11
-2.52847e-11
-3.43312e-11
-2.27133e-11
-3.26159e-11
-2.14483e-11
-3.56002e-11
-1.79863e-11
-7.66167e-11
8.96203e-11
-2.31977e-10
3.31854e-10
-5.11024e-10
6.79672e-10
-9.79195e-10
1.06384e-09
-1.03304e-09
7.15932e-10
-1.23461e-10
-1.55145e-10
-2.77743e-10
1.77921e-09
-3.07013e-09
4.61407e-09
-8.28314e-09
1.99062e-08
5.4063e-08
3.15353e-07
1.00874e-06
3.11362e-06
4.97618e-06
8.89636e-06
9.1775e-06
1.15235e-05
7.39954e-06
1.90131e-05
4.31059e-06
-3.84071e-05
-2.63008e-05
0.000147694
0.000184
-0.000358407
-0.000507534
0.000393061
0.000901253
-0.000129753
-0.00124744
-0.000599396
0.000997104
0.00119821
-0.000294703
-0.0015009
-0.000782868
0.000926713
0.00139078
6.71516e-05
-0.001438
-0.00110224
0.000762034
0.00143465
0.000254617
-0.00121513
-0.000870998
0.000730916
0.00129418
4.22082e-05
-0.00101698
-0.000680433
0.000571711
0.000645886
-0.000379023
-0.000702368
0.000184757
0.000577379
1.64717e-05
-0.000241806
-2.93916e-05
0.000171354
0.000132612
-8.03208e-05
-0.000276104
-0.000212366
4.72377e-05
0.00025176
0.000139071
-0.000163904
-0.000209224
5.57753e-05
0.000199787
2.84013e-05
-0.000122112
-6.12301e-06
0.000110823
4.17616e-05
-3.45222e-06
3.10277e-05
2.84184e-05
2.0415e-05
1.11121e-05
1.60524e-05
-6.05286e-07
2.45922e-05
7.29749e-06
5.60458e-05
-8.96727e-05
8.06658e-05
-0.000104927
1.90012e-05
-3.37409e-06
0.000115518
-3.62317e-06
5.76038e-05
9.90274e-06
2.54688e-05
2.88852e-05
-1.22072e-11
-1.2204e-11
-1.27796e-11
-1.21965e-11
-1.21938e-11
-1.16038e-11
-1.23535e-11
-1.37201e-11
-5.53896e-12
-2.22879e-11
1.04398e-11
-3.40961e-11
-2.16418e-12
1.42878e-11
-6.81984e-11
1.26996e-10
-2.35301e-10
3.61984e-10
-4.6805e-10
5.10797e-10
-3.34595e-10
-1.38382e-10
7.11879e-10
-1.13659e-09
8.85855e-10
8.73981e-11
-6.57789e-10
2.43443e-09
-4.59763e-09
1.42545e-08
6.51304e-08
3.37621e-07
1.04857e-06
3.37526e-06
5.14906e-06
9.58003e-06
9.77565e-06
1.30187e-05
4.85335e-06
1.71074e-05
3.25936e-05
-8.57181e-06
-0.00012674
-1.02582e-05
0.00034406
0.000166532
-0.000636066
-0.000496089
0.000644222
0.000940522
-0.000312294
-0.00132689
-0.000543689
0.000986953
0.00130811
-3.30088e-06
-0.00157769
-0.00131826
0.000616315
0.00204414
0.000981798
-0.00170287
-0.0022389
0.000270721
0.00230837
0.0013136
-0.00130783
-0.0018129
8.98567e-05
0.00163686
0.00040388
-0.00114593
-0.000455349
0.0008298
0.000362743
-0.000290029
-0.000171361
0.000293765
0.000200468
-6.0775e-05
-0.000132864
-5.99344e-05
1.23309e-05
-5.11934e-05
-0.000136386
-9.24403e-05
5.67097e-05
0.00015162
3.64558e-05
-0.000125387
-7.31683e-05
7.26185e-05
4.12152e-05
-6.45067e-05
3.96301e-06
8.63127e-05
4.11496e-05
4.95415e-06
1.2425e-05
2.06668e-05
1.11415e-05
1.38113e-05
4.92354e-06
1.04868e-05
7.04409e-06
3.21152e-05
5.12944e-06
5.46895e-05
-8.90277e-05
5.51405e-05
-7.67676e-05
4.54234e-05
3.21904e-05
0.000103178
1.12305e-05
3.80676e-05
9.50032e-06
2.18822e-05
2.42112e-05
-5.18073e-12
-5.03156e-12
-5.23491e-12
-5.1373e-12
-4.51079e-12
-5.7906e-12
-2.8282e-12
-9.94795e-12
4.73593e-12
-2.39747e-11
2.53242e-11
-4.27798e-11
3.84973e-11
-3.16221e-11
1.94759e-11
7.73774e-13
-4.96486e-11
1.24431e-10
-1.91682e-10
1.67041e-10
9.39509e-11
-4.53819e-10
9.09552e-10
-1.18885e-09
9.62665e-10
-6.25671e-10
4.37071e-10
1.52216e-09
-1.47605e-09
1.04964e-08
7.00051e-08
3.37537e-07
1.0498e-06
3.35727e-06
5.32083e-06
9.67729e-06
1.04973e-05
1.26304e-05
8.42232e-06
7.99652e-06
1.52721e-05
4.35684e-05
-3.587e-05
-0.000162965
-3.81471e-06
0.000472278
0.000147325
-0.00076889
-0.000638106
0.000743595
0.00124954
-0.000258845
-0.00148068
-0.000702651
0.000997133
0.00148184
7.97915e-05
-0.00145767
-0.00139452
0.000232399
0.00191217
0.00147394
-0.00140446
-0.00237035
-0.000102732
0.00219264
0.00112817
-0.00168418
-0.00197193
0.000696468
0.0013318
-0.000152858
-0.000397288
0.000283958
0.000314418
-2.64205e-05
-0.000111479
6.69737e-05
0.00011039
1.08578e-05
-8.14008e-05
-6.89638e-05
8.35714e-06
2.17845e-05
-1.75929e-05
-7.27005e-07
7.25724e-05
7.07137e-05
-4.53398e-05
-8.35192e-05
-1.99307e-05
-1.67636e-05
-1.75886e-05
4.07711e-05
5.90819e-05
2.56467e-05
3.55503e-06
1.09108e-05
1.02173e-05
7.07069e-06
9.08396e-07
4.36076e-06
1.10397e-06
1.54433e-05
1.72195e-05
3.49917e-05
-1.60041e-06
5.28058e-05
-8.20098e-05
4.07829e-05
-4.81768e-05
6.13917e-05
4.88108e-05
9.08287e-05
1.47641e-05
1.84001e-05
1.09839e-06
1.30537e-05
1.46932e-05
-1.73441e-12
-1.6715e-12
-1.75632e-12
-1.95888e-12
-1.33091e-12
-3.01486e-12
6.9088e-13
-7.48748e-12
7.51624e-12
-1.88193e-11
2.672e-11
-4.26562e-11
4.30645e-11
-5.05877e-11
6.51505e-11
-6.28933e-11
4.29181e-11
-2.15165e-11
3.60676e-11
-1.10847e-10
3.59488e-10
-6.97064e-10
1.04945e-09
-1.1868e-09
1.08533e-09
-8.80894e-10
-1.95509e-11
2.821e-09
8.78886e-10
7.33356e-09
7.05321e-08
3.27066e-07
1.02761e-06
3.27022e-06
5.5447e-06
1.00208e-05
1.03556e-05
1.2022e-05
1.2215e-05
7.90113e-06
3.56409e-07
1.91662e-05
2.34407e-05
-3.35993e-05
-0.000111681
2.26675e-05
0.000305931
0.000120287
-0.000532479
-0.000586817
0.000514537
0.00117828
1.79148e-05
-0.00152181
-0.000960512
0.00106804
0.00181315
0.000393401
-0.00151434
-0.00171881
0.000186598
0.00251544
0.00150974
-0.00166862
-0.00247653
0.000261213
0.00183385
0.000121688
-0.00120828
-1.59744e-05
0.000660063
-0.000105809
-0.000407998
2.39137e-05
0.000251594
3.60062e-05
-0.000156539
-7.27145e-05
4.10562e-05
5.46566e-05
-1.01459e-05
-1.92177e-05
4.77192e-05
6.91599e-05
4.17777e-05
4.227e-05
4.12299e-05
-6.6622e-06
-6.78367e-05
-7.74733e-05
-2.67371e-05
2.61222e-05
4.27789e-05
2.67599e-05
6.65023e-06
9.03534e-06
1.31992e-05
8.33799e-06
-3.12482e-06
-4.33921e-06
-6.35331e-06
4.97204e-07
5.97815e-06
2.46516e-05
2.35934e-05
3.42853e-05
-1.2345e-05
4.99986e-05
-7.50022e-05
3.56324e-05
-2.36715e-05
6.13716e-05
5.41714e-05
7.8813e-05
1.66471e-05
8.49044e-06
-1.68321e-06
1.09762e-05
1.22443e-05
-6.27492e-13
-5.92936e-13
-5.52412e-13
-7.64237e-13
-2.24219e-13
-1.52096e-12
1.50698e-12
-4.87555e-12
5.85881e-12
-1.16501e-11
1.9149e-11
-3.09608e-11
4.22992e-11
-6.25105e-11
7.92009e-11
-8.54399e-11
9.11184e-11
-1.10365e-10
1.84889e-10
-3.04659e-10
5.48956e-10
-8.50692e-10
1.08619e-09
-1.11317e-09
9.226e-10
-2.66391e-10
-1.13214e-09
2.5597e-09
4.43221e-09
5.87684e-09
7.0565e-08
3.08275e-07
1.00476e-06
3.12156e-06
5.80825e-06
9.96758e-06
1.05083e-05
1.18591e-05
1.33736e-05
7.70735e-06
-8.00308e-06
9.17854e-06
5.08009e-05
4.00974e-05
-0.000112227
-0.000175695
0.000101876
0.000351968
0.000111777
-0.000534083
-0.000602859
0.000302181
0.00102366
0.000365389
-0.001048
-0.00143811
-0.000117719
0.00164191
0.00162204
-0.000720665
-0.00266284
-0.000854044
0.00234352
0.00148732
-0.00144248
-0.00136209
0.000680042
0.000637706
-3.93818e-05
0.000251256
0.00026081
-0.000515903
-0.000620151
2.32801e-05
0.000361048
0.000177145
-0.000106727
-0.00011033
2.52409e-05
5.46365e-05
-4.27984e-06
-9.49854e-06
4.81965e-05
6.00257e-05
4.05691e-05
4.30196e-05
3.30993e-06
-6.24261e-05
-6.15393e-05
-2.41976e-06
3.07816e-05
1.48991e-05
-8.07121e-06
3.00711e-07
1.92846e-05
2.17145e-05
5.0413e-06
-7.1384e-06
-1.1763e-05
-8.53682e-06
-8.71205e-06
2.26586e-06
1.40978e-05
3.19511e-05
2.61575e-05
3.12969e-05
-2.65889e-05
4.72364e-05
-6.51987e-05
3.29145e-05
-4.09643e-06
6.07794e-05
6.00522e-05
7.17494e-05
1.96652e-05
7.6077e-06
3.14601e-06
1.72716e-05
1.84294e-05
-4.03541e-14
-2.90772e-14
1.16283e-15
-1.1487e-13
2.60813e-13
-6.44203e-13
1.44628e-12
-2.5443e-12
4.54987e-12
-9.19354e-12
1.59292e-11
-2.55177e-11
4.22162e-11
-5.87477e-11
7.96095e-11
-9.74756e-11
1.17091e-10
-1.61978e-10
2.6602e-10
-4.05781e-10
6.3316e-10
-8.77374e-10
9.91964e-10
-8.54332e-10
4.06688e-10
4.89802e-10
-9.0334e-10
2.13326e-10
7.72328e-09
5.63037e-09
6.96081e-08
2.93678e-07
9.52724e-07
2.86875e-06
5.74854e-06
9.04867e-06
1.04563e-05
1.0335e-05
1.19112e-05
1.04213e-05
1.07444e-05
-2.66369e-05
1.34679e-06
0.000124869
7.08057e-05
-0.000221302
-0.000280109
0.000141235
0.000501686
0.000161275
-0.000539148
-0.000679838
8.9461e-05
0.000995083
0.000834053
-0.000537983
-0.00147927
-0.000739874
0.00138443
0.00193973
-0.000340623
-0.00251204
-0.000828267
0.00119278
0.00101304
0.000549429
0.000195057
-0.00072685
-0.000830403
2.37061e-05
0.000472867
-0.000110197
-0.000351061
-2.97281e-05
0.000243528
0.000175563
-2.89862e-05
-6.85966e-05
-2.00142e-06
-5.92151e-06
-3.49e-05
-4.47098e-06
3.74011e-05
5.25578e-05
4.47709e-05
3.41786e-06
-3.74366e-05
-2.2159e-05
1.64301e-05
1.26273e-05
-2.38103e-05
-2.97412e-05
4.66012e-06
3.41713e-05
2.7705e-05
4.18819e-06
-1.17157e-05
-1.15038e-05
-1.14978e-05
-1.14306e-05
-1.01853e-05
7.1183e-06
2.22548e-05
3.79821e-05
2.78249e-05
2.57255e-05
-3.91877e-05
4.32979e-05
-5.15746e-05
2.8384e-05
1.14725e-05
6.07569e-05
6.10334e-05
6.17801e-05
1.55879e-05
2.70257e-06
2.38376e-06
1.66971e-05
1.77581e-05
3.00829e-13
3.12642e-13
3.33645e-13
2.82599e-13
4.4895e-13
-6.28427e-15
1.13857e-12
-1.01452e-12
3.39709e-12
-5.5546e-12
1.09013e-11
-1.84989e-11
3.24174e-11
-4.77103e-11
7.08892e-11
-9.39186e-11
1.24133e-10
-1.80153e-10
2.92766e-10
-4.30133e-10
6.32019e-10
-8.14432e-10
8.11307e-10
-5.83589e-10
2.24282e-10
3.46308e-11
8.95056e-10
-3.10858e-09
9.15199e-09
7.27513e-09
7.17901e-08
2.79469e-07
8.92476e-07
2.68792e-06
5.44139e-06
8.67647e-06
9.30962e-06
1.11191e-05
8.711e-06
1.70901e-06
2.47571e-05
1.95488e-05
-3.80163e-05
-4.74561e-05
7.24769e-05
0.000133965
-9.64084e-05
-0.000321864
-0.000103017
0.000399784
0.000394467
-0.000202601
-0.000731282
-0.000463438
0.000585576
0.00128761
0.00045679
-0.00125282
-0.00156934
0.000268766
0.001642
0.000968083
-0.000332717
-0.000914949
-0.000676223
0.000361803
0.000895884
-0.000114678
-0.00081637
-0.000410174
0.000202281
0.000190532
2.08399e-05
1.23267e-05
6.28564e-05
9.04798e-06
-7.24827e-05
-5.91654e-05
-3.09563e-05
-3.80372e-05
-1.00493e-05
3.23541e-05
4.70471e-05
3.3753e-05
3.00433e-06
-1.3349e-05
8.11279e-06
2.36314e-05
-9.61352e-06
-4.9821e-05
-3.72768e-05
1.56449e-05
4.45328e-05
2.93059e-05
-1.66784e-07
-1.1521e-05
-9.75611e-06
-7.51889e-06
-1.543e-05
-1.71737e-05
-7.15764e-06
1.74184e-05
3.22495e-05
4.11947e-05
1.9565e-05
1.75916e-05
-4.31715e-05
3.3936e-05
-4.15336e-05
2.35997e-05
2.2183e-05
5.71181e-05
5.41893e-05
4.47006e-05
4.57974e-06
-8.69762e-06
-7.80493e-06
4.37631e-06
5.25517e-06
5.64941e-13
5.74759e-13
5.86788e-13
5.75087e-13
6.1718e-13
5.35791e-13
7.13783e-13
1.5681e-13
2.00918e-12
-1.99106e-12
5.36928e-12
-9.10041e-12
1.77943e-11
-2.73899e-11
4.49045e-11
-6.70156e-11
9.93277e-11
-1.50786e-10
2.518e-10
-3.6246e-10
5.08529e-10
-6.07836e-10
5.40701e-10
-3.83579e-10
3.47877e-10
-6.25147e-10
1.80912e-09
-3.26364e-09
7.81285e-09
7.72393e-09
7.24281e-08
2.60489e-07
8.05841e-07
2.38475e-06
4.99881e-06
8.0504e-06
8.36609e-06
1.03674e-05
8.41241e-06
2.17483e-06
1.50051e-05
1.78634e-05
1.15818e-05
-3.23053e-05
-5.65706e-05
3.55663e-05
0.00010833
2.55181e-06
-0.000187053
-0.000184171
3.91737e-05
0.000314389
0.000310656
-0.000125474
-0.000770456
-0.00048824
0.000657179
0.0011938
0.000118973
-0.00122716
-0.00092531
0.000433396
0.00118353
0.000422311
-0.000633462
-0.000655391
7.94921e-05
0.000313194
7.48277e-05
9.27296e-06
6.81405e-05
5.91622e-05
1.3441e-05
2.04116e-06
-1.71638e-05
-5.57302e-05
-5.88376e-05
-3.2774e-05
-1.19239e-05
6.11107e-06
1.70386e-05
1.9653e-05
1.38494e-05
-4.50563e-08
6.93366e-07
2.33846e-05
2.47515e-05
-1.94615e-05
-5.84856e-05
-3.36892e-05
2.37698e-05
4.60345e-05
2.13236e-05
-4.70575e-06
-1.02441e-05
-1.43612e-06
-2.27458e-06
-1.37353e-05
-2.58402e-05
-1.50115e-05
7.42948e-06
3.13475e-05
3.63751e-05
3.12192e-05
2.39975e-06
1.9527e-05
-3.70892e-05
2.70656e-05
-3.25442e-05
2.51995e-05
3.1201e-05
5.19847e-05
4.4065e-05
2.90773e-05
-3.34344e-06
-1.17427e-05
-8.08793e-06
2.82912e-06
3.71741e-06
7.27059e-13
7.31096e-13
7.36463e-13
7.38637e-13
7.4135e-13
7.42342e-13
7.15183e-13
6.0716e-13
1.01407e-12
2.46424e-13
1.99242e-12
-2.26257e-12
5.99611e-12
-8.76454e-12
1.65916e-11
-2.76052e-11
4.85294e-11
-8.03477e-11
1.35968e-10
-1.81227e-10
1.96497e-10
-1.25348e-10
-1.34641e-11
1.65039e-10
-1.08882e-10
-2.52476e-10
1.38168e-09
-2.50318e-09
6.49906e-09
8.05942e-09
7.2022e-08
2.41438e-07
7.34236e-07
2.12498e-06
4.52095e-06
7.19437e-06
7.75501e-06
8.26763e-06
8.13948e-06
6.58548e-06
6.45716e-06
2.23841e-06
1.50623e-05
6.78076e-06
-1.84844e-05
-2.10569e-05
9.27764e-08
1.31956e-05
-4.73174e-06
-1.29661e-07
-2.69663e-05
-0.000117463
-6.34863e-05
0.000166821
0.000305841
-4.30347e-05
-0.000455485
-0.000365847
0.000208241
0.000638461
0.000243691
-0.00044266
-0.000552202
-5.67856e-05
0.00033903
0.000178188
-4.41831e-05
-0.000125358
-8.16627e-05
2.82897e-05
7.12324e-05
1.99451e-05
-2.17814e-05
-1.96288e-05
-1.73384e-05
-1.82465e-05
-2.48248e-06
9.46983e-06
5.38075e-06
-1.17144e-06
-4.01051e-06
-2.86099e-06
-3.4062e-06
5.18053e-06
2.60495e-05
2.58495e-05
-1.6081e-05
-4.98636e-05
-2.42886e-05
2.55245e-05
3.53873e-05
7.57975e-06
-1.20278e-05
-4.53853e-06
8.64066e-06
8.0047e-06
-1.22998e-05
-2.8784e-05
-2.34117e-05
3.58341e-06
2.57416e-05
3.70752e-05
2.2878e-05
1.55366e-05
-7.38265e-06
2.09441e-05
-3.63147e-05
1.71063e-05
-2.58996e-05
3.11639e-05
3.86288e-05
4.87541e-05
3.95036e-05
2.58092e-05
4.61885e-06
3.74176e-06
1.16842e-05
2.10075e-05
2.20194e-05
7.76972e-13
7.72605e-13
7.69484e-13
7.65378e-13
7.72666e-13
7.45735e-13
7.68248e-13
6.36922e-13
8.90223e-13
3.26973e-13
1.25588e-12
-3.07811e-13
2.21672e-12
-1.54349e-12
3.75298e-12
-4.83656e-12
1.04222e-11
-1.63212e-11
2.1189e-11
6.47873e-12
-9.03016e-11
2.74134e-10
-5.02427e-10
6.62777e-10
-5.71871e-10
8.50681e-11
1.03004e-09
-1.41292e-09
4.11004e-09
8.9707e-09
7.0419e-08
2.27894e-07
6.93447e-07
1.91993e-06
4.29915e-06
6.50133e-06
6.98689e-06
7.30438e-06
6.32286e-06
1.07102e-05
-2.46827e-06
3.0584e-06
1.80121e-05
1.50099e-06
-1.12292e-06
-2.68113e-05
-2.47654e-05
2.44504e-05
3.58578e-05
-3.07723e-05
-0.000138738
9.64846e-06
0.000209038
6.63075e-06
-0.000409951
-0.000201343
0.000457129
0.000399025
-0.000293674
-0.000538285
-1.79457e-05
0.000432655
0.000240901
-0.000135564
-0.000199386
-5.83111e-05
5.17461e-05
4.54349e-05
-3.9608e-06
-1.08379e-05
-1.27303e-06
-5.42828e-06
-1.99392e-06
2.80514e-06
2.87968e-06
9.57686e-06
1.55562e-05
4.72453e-06
-9.01597e-06
-1.14156e-05
-8.91277e-06
-4.48719e-06
2.9546e-06
1.98852e-05
2.35148e-05
-4.71182e-06
-3.23472e-05
-1.52371e-05
1.89718e-05
1.73684e-05
-1.11499e-05
-1.80124e-05
3.33796e-06
2.29216e-05
1.80833e-05
-7.39441e-06
-3.16257e-05
-2.65387e-05
-1.31336e-06
2.33215e-05
2.8253e-05
2.39438e-05
5.47766e-06
9.32043e-06
-6.42326e-06
2.07464e-05
-3.80844e-05
1.14799e-05
-1.65028e-05
3.40113e-05
4.07334e-05
4.46841e-05
3.74147e-05
2.65821e-05
1.3588e-05
1.51456e-05
2.18981e-05
2.61979e-05
2.67464e-05
7.16979e-13
7.08308e-13
6.98649e-13
6.81334e-13
6.81867e-13
6.64398e-13
6.825e-13
5.81695e-13
7.44769e-13
2.99332e-13
1.02971e-12
-2.39895e-13
1.82414e-12
-1.41368e-12
3.43941e-12
-3.62041e-12
4.90901e-12
-8.24186e-13
-1.33354e-11
5.68168e-11
-1.22269e-10
2.38764e-10
-3.85637e-10
4.56201e-10
-3.39581e-10
-4.28175e-11
5.05916e-10
-3.10683e-10
2.02657e-09
9.06616e-09
6.17205e-08
2.00878e-07
6.05101e-07
1.66868e-06
3.84645e-06
5.88307e-06
5.91515e-06
6.46915e-06
5.4414e-06
9.97441e-06
-3.66088e-06
1.12279e-05
4.28444e-06
-1.03379e-05
2.56658e-06
1.60958e-05
2.59874e-05
-0.000110514
-0.000106293
0.000211337
0.000216298
-0.000348346
-0.000466416
0.00033358
0.000612913
-0.000143402
-0.000600342
-0.000215965
0.00034288
0.000312047
-0.00014762
-0.000243725
-5.95532e-05
8.80029e-05
6.89103e-05
-5.4648e-06
-3.15878e-05
-1.97554e-05
-9.87948e-06
-6.08898e-06
-3.4851e-06
8.53993e-07
3.49452e-06
3.56292e-06
8.74494e-06
1.22688e-05
5.47621e-06
-5.9714e-06
-9.12472e-06
-6.74214e-06
-3.29164e-06
2.04696e-07
7.29252e-06
1.47117e-05
4.17393e-06
-1.22888e-05
-6.35336e-06
1.02404e-05
-3.28495e-06
-2.79873e-05
-2.28603e-05
1.33488e-05
3.54762e-05
2.81879e-05
-4.5516e-06
-3.06902e-05
-2.90017e-05
-2.63916e-06
1.78355e-05
2.37115e-05
1.54221e-05
7.90671e-06
-8.94473e-07
9.96763e-06
-1.22468e-05
1.26468e-05
-3.22026e-05
1.30007e-05
-6.21454e-06
3.15635e-05
3.40784e-05
2.97898e-05
1.97176e-05
7.52952e-06
-4.5704e-06
-6.09076e-06
-5.66026e-06
-5.77152e-06
-5.89782e-06
5.92327e-13
5.82578e-13
5.71036e-13
5.60452e-13