/*--------------------------------*- C++ -*----------------------------------*\
| =========                 |                                                 |
| \\      /  F ield         | OpenFOAM: The Open Source CFD Toolbox           |
|  \\    /   O peration     | Version:  2.2.x                                 |
|   \\  /    A nd           | Web:      www.OpenFOAM.org                      |
|    \\/     M anipulation  |                                                 |
\*---------------------------------------------------------------------------*/
FoamFile
{
    version     2.0;
    format      ascii;
    class       volScalarField;
    location    "1.4";
    object      Bx;
}
// * * * * * * * * * * * * * * * * * * * * * * * * * * * * * * * * * * * * * //

dimensions      [1 0 -2 0 0 -1 0];

internalField   nonuniform List<scalar> 
14161
(
0.906432
0.952117
0.978488
0.983185
0.971905
0.939421
0.911128
0.897862
0.899099
0.900452
0.912008
0.924552
0.936956
0.930804
0.919844
0.897918
0.880334
0.869254
0.878334
0.886238
0.904486
0.924084
0.933698
0.929033
0.922069
0.911923
0.907193
0.908335
0.91146
0.917384
0.926163
0.936623
0.951018
0.9767
1.05185
1.14435
1.17881
1.18741
1.17356
1.16004
1.14575
1.13153
1.1159
1.09917
1.08335
1.06953
1.05735
1.04743
1.03799
1.02863
1.0174
1.00311
0.986725
0.971707
0.956742
0.942724
0.930173
0.921386
0.918798
0.921068
0.927391
0.937469
0.949894
0.965233
0.984846
1.00748
1.03177
1.05626
1.08234
1.10937
1.13667
1.16246
1.18583
1.20693
1.22537
1.24157
1.25658
1.2659
1.27119
1.27135
1.26272
1.24887
1.22611
1.17958
1.07411
0.907773
0.723264
0.543342
0.408571
0.303909
0.232022
0.167854
0.129852
0.111139
0.110432
0.125049
0.149852
0.182062
0.212005
0.240119
0.264662
0.286115
0.304316
0.320859
0.335582
0.348515
0.358514
0.36647
0.371655
0.370674
0.364945
0.354152
0.336403
0.312063
0.274554
0.2434
0.182928
0.150544
0.0385947
1.03475
0.933358
0.816805
0.745297
0.752179
0.810812
0.913864
0.998636
1.02121
1.00639
0.953105
0.866808
0.780456
0.747903
0.763089
0.811952
0.88584
0.941693
0.949608
0.932803
0.889487
0.827772
0.783578
0.772558
0.785466
0.816327
0.849837
0.869902
0.877194
0.880302
0.881868
0.887036
0.896112
0.921305
0.975587
0.960345
0.920722
0.868813
0.824444
0.789905
0.77201
0.770913
0.783542
0.80189
0.821067
0.838467
0.854226
0.867785
0.879108
0.887529
0.894108
0.902005
0.910176
0.918047
0.927673
0.938336
0.949864
0.962708
0.974532
0.984794
0.993642
1.00291
1.01122
1.01946
1.02627
1.03114
1.03338
1.03427
1.03367
1.03195
1.02895
1.02581
1.01947
1.0139
1.00775
1.0011
0.993489
0.986613
0.977918
0.972415
0.969916
0.944406
0.8949
0.821584
0.746223
0.663344
0.575469
0.500566
0.406969
0.323558
0.247706
0.208083
0.188268
0.178523
0.174781
0.178539
0.18571
0.192991
0.202123
0.21389
0.225249
0.234791
0.244167
0.252928
0.259627
0.265435
0.271073
0.275362
0.277524
0.279699
0.275621
0.264532
0.245301
0.230079
0.20212
0.186788
0.140511
0.121471
0.0204029
0.726607
0.924653
1.1217
1.22227
1.20543
1.11651
0.955663
0.794964
0.731291
0.753082
0.828686
0.956503
1.08002
1.12318
1.10042
1.02586
0.900825
0.796689
0.769342
0.798998
0.868221
0.965603
1.04153
1.06248
1.04503
1.00681
0.959868
0.929238
0.924369
0.930331
0.942081
0.953358
0.957978
0.944861
0.920819
0.738463
0.705
0.680249
0.680701
0.692815
0.715629
0.746246
0.775007
0.802719
0.828386
0.849885
0.86955
0.886184
0.898858
0.908521
0.917927
0.927888
0.937124
0.947374
0.957069
0.969103
0.98221
0.992439
1.00209
1.0116
1.02106
1.03093
1.04062
1.04934
1.05735
1.06471
1.07455
1.08535
1.09547
1.10402
1.11076
1.11464
1.11627
1.11178
1.10526
1.08807
1.06525
1.03849
1.00537
0.975215
0.934351
0.899236
0.830012
0.752139
0.667638
0.591128
0.513805
0.44739
0.372066
0.307886
0.248525
0.215923
0.191662
0.183702
0.185587
0.192162
0.199391
0.208496
0.218484
0.226451
0.23289
0.239088
0.243411
0.247465
0.252418
0.2571
0.262338
0.266986
0.271867
0.274054
0.274879
0.267926
0.250143
0.233963
0.192465
0.161394
0.103928
0.0993528
0.0124899
1.21382
0.977867
0.716751
0.579272
0.571665
0.671588
0.880985
1.07414
1.12947
1.10145
1.01302
0.851795
0.680048
0.607655
0.625611
0.718112
0.876827
1.00415
1.03405
1.00346
0.929443
0.811587
0.709366
0.680878
0.703253
0.752296
0.814665
0.859581
0.875943
0.873109
0.864769
0.853082
0.841272
0.817634
0.725788
0.531839
0.551641
0.569781
0.606012
0.636058
0.667698
0.702058
0.732248
0.756212
0.774624
0.791988
0.807082
0.821339
0.835195
0.84736
0.859685
0.872011
0.884601
0.899333
0.913684
0.927967
0.942176
0.955015
0.966661
0.97771
0.98755
0.996231
1.00189
1.00737
1.01133
1.01406
1.01576
1.01713
1.01733
1.01696
1.01273
1.00975
1.00472
0.993278
0.984407
0.969931
0.951959
0.941315
0.92605
0.897044
0.854124
0.801451
0.732452
0.674787
0.603607
0.552529
0.488714
0.436673
0.369898
0.311386
0.255689
0.21518
0.184322
0.17165
0.1696
0.175517
0.182264
0.191292
0.199712
0.206298
0.210776
0.215587
0.220214
0.223182
0.226098
0.228344
0.230684
0.23232
0.232376
0.233516
0.232748
0.235309
0.224811
0.21529
0.175948
0.143541
0.0858716
0.0845877
0.0195795
0.548373
0.869642
1.16879
1.31801
1.3244
1.21061
0.974526
0.732908
0.628619
0.648909
0.746854
0.931153
1.12396
1.19706
1.17554
1.08247
0.904761
0.734147
0.6697
0.697418
0.779644
0.915175
1.03171
1.07787
1.06226
1.0199
0.958254
0.907812
0.887586
0.891107
0.901904
0.910066
0.912834
0.904313
0.891068
0.719823
0.677889
0.667794
0.682308
0.709305
0.735
0.762608
0.781111
0.795607
0.806342
0.814202
0.820606
0.827464
0.833857
0.845262
0.857981
0.87163
0.885137
0.898513
0.911022
0.922101
0.932913
0.944392
0.957132
0.971387
0.986089
1.00137
1.01831
1.03298
1.0453
1.05654
1.06598
1.0739
1.08065
1.08598
1.08826
1.09178
1.08381
1.07843
1.05401
1.03713
1.00036
0.963084
0.904929
0.848463
0.801799
0.737417
0.698606
0.644859
0.613998
0.578112
0.52452
0.474751
0.410712
0.347764
0.289855
0.234156
0.189886
0.169302
0.165018
0.164654
0.167521
0.174304
0.182158
0.189937
0.198352
0.207263
0.215567
0.221714
0.226565
0.230107
0.233585
0.235938
0.235829
0.235252
0.230941
0.231342
0.216999
0.205078
0.158606
0.133702
0.0751388
0.0755034
0.0243161
1.36137
1.04116
0.689962
0.498922
0.468022
0.579872
0.840482
1.09879
1.19411
1.16435
1.06568
0.879423
0.658556
0.548336
0.552689
0.648553
0.838405
1.0216
1.0912
1.07065
0.997993
0.872831
0.735941
0.674198
0.682842
0.726929
0.79849
0.866337
0.900851
0.90437
0.897414
0.888255
0.885362
0.894036
0.926343
0.807463
0.73526
0.677968
0.675056
0.692187
0.712433
0.741206
0.761938
0.779139
0.795202
0.809236
0.818879
0.828616
0.839687
0.853123
0.867692
0.882082
0.895928
0.908973
0.920713
0.931653
0.943592
0.957968
0.97278
0.98663
0.998584
1.00847
1.01615
1.02266
1.02874
1.03411
1.03805
1.04004
1.04108
1.04105
1.04038
1.04214
1.03123
1.0375
1.01256
1.00645
0.977803
0.954905
0.936981
0.886506
0.853711
0.794763
0.762996
0.71168
0.678512
0.655349
0.60797
0.556761
0.485281
0.413144
0.336557
0.262033
0.203311
0.172136
0.162487
0.163829
0.164793
0.170282
0.177855
0.185966
0.195275
0.203921
0.21135
0.217525
0.222614
0.226944
0.231004
0.233458
0.23241
0.229775
0.221314
0.217126
0.197403
0.185196
0.14837
0.126942
0.0741418
0.0689164
0.027003
0.414007
0.812181
1.17706
1.36359
1.38658
1.27233
1.00639
0.714698
0.565892
0.569687
0.670384
0.86952
1.10588
1.21779
1.20842
1.12383
0.941829
0.72003
0.595802
0.594588
0.666552
0.796318
0.954697
1.03941
1.04945
1.02011
0.966153
0.901498
0.857287
0.845951
0.850707
0.867902
0.88569
0.897235
0.931271
0.84782
0.76879
0.728747
0.705663
0.730603
0.740362
0.764444
0.781212
0.797907
0.812349
0.828546
0.847355
0.8672
0.885188
0.899567
0.912853
0.92604
0.939323
0.95252
0.965238
0.977522
0.98903
0.999325
1.00826
1.01584
1.0231
1.02964
1.03606
1.04275
1.04961
1.05627
1.06361
1.06999
1.07754
1.08416
1.09246
1.0965
1.10771
1.0949
1.10403
1.06974
1.06112
1.01755
0.99556
0.943246
0.917416
0.86321
0.837195
0.797011
0.749926
0.72171
0.679938
0.621791
0.548902
0.474624
0.381491
0.289482
0.220843
0.1854
0.173643
0.17204
0.173755
0.179704
0.187947
0.195243
0.202653
0.208563
0.214317
0.22057
0.225123
0.229586
0.232279
0.234593
0.233666
0.229415
0.217919
0.209616
0.184463
0.176349
0.140303
0.124943
0.074108
0.0677398
0.0326686
1.46513
1.10537
0.704672
0.471122
0.416323
0.519229
0.79693
1.09697
1.23808
1.22331
1.12474
0.940942
0.696859
0.536987
0.520347
0.60148
0.782258
1.0108
1.14273
1.14833
1.08971
0.982959
0.84188
0.733441
0.709042
0.73925
0.799933
0.877763
0.944218
0.975499
0.982698
0.975654
0.963479
0.943392
0.95221
0.902741
0.831919
0.825594
0.799582
0.842756
0.848894
0.87173
0.887121
0.902953
0.914262
0.926375
0.939237
0.94843
0.956345
0.964546
0.973638
0.983222
0.993319
1.0037
1.01418
1.02429
1.03344
1.04378
1.05495
1.06659
1.0782
1.09024
1.10217
1.11407
1.12609
1.13821
1.15086
1.16274
1.17544
1.18781
1.19591
1.19858
1.21032
1.19489
1.21081
1.18541
1.1632
1.11777
1.08888
1.01541
0.957357
0.895611
0.843305
0.821741
0.764673
0.722109
0.687671
0.643175
0.592558
0.524859
0.431487
0.330705
0.267164
0.224843
0.205164
0.19868
0.197587
0.199874
0.203936
0.207727
0.212124
0.216391
0.221373
0.226569
0.230096
0.232921
0.234286
0.236171
0.235775
0.23152
0.216603
0.203095
0.174219
0.163151
0.137889
0.122502
0.0797092
0.0685668
0.0362066
0.329159
0.76464
1.17221
1.38574
1.41919
1.31831
1.05145
0.725372
0.526267
0.50979
0.612039
0.809604
1.0738
1.23502
1.2452
1.17398
1.0094
0.760196
0.560745
0.504099
0.569942
0.69127
0.852977
0.998363
1.0565
1.04324
1.00633
0.943165
0.872179
0.830799
0.826318
0.840035
0.865035
0.899776
0.924922
0.931177
0.890267
0.918719
0.905909
0.959375
0.967478
0.981576
0.990133
0.998777
1.00608
1.01506
1.02882
1.04003
1.05324
1.0664
1.07927
1.09257
1.10553
1.11943
1.13321
1.14692
1.16096
1.17605
1.19146
1.20682
1.2214
1.23509
1.2472
1.2582
1.26765
1.27519
1.28169
1.28427
1.29133
1.29428
1.2949
1.30234
1.28851
1.30208
1.26901
1.27568
1.2249
1.16765
1.12376
1.04654
0.981858
0.928572
0.877158
0.851529
0.815273
0.763232
0.730741
0.685319
0.645267
0.586319
0.507513
0.420419
0.354388
0.298191
0.265051
0.251176
0.245585
0.245423
0.246007
0.246922
0.247982
0.248978
0.249205
0.250584
0.251591
0.250548
0.247947
0.246623
0.244211
0.239752
0.224239
0.209737
0.17851
0.165391
0.137039
0.126743
0.086287
0.0725742
0.0432683
1.54272
1.16834
0.741196
0.464813
0.395811
0.50094
0.77614
1.10407
1.28833
1.29496
1.20137
1.03029
0.770975
0.548998
0.498015
0.57636
0.741525
1.01547
1.22853
1.27584
1.22385
1.12782
0.994685
0.86222
0.795047
0.808338
0.856952
0.943446
1.03558
1.0971
1.12237
1.11773
1.1011
1.07693
1.06119
1.0729
0.979664
1.01388
0.995729
1.02818
1.03163
1.04719
1.05891
1.07256
1.08302
1.08888
1.10427
1.11366
1.12668
1.1391
1.15176
1.16546
1.18006
1.19548
1.21215
1.23124
1.24954
1.26867
1.28531
1.30069
1.31434
1.32663
1.33784
1.34795
1.35681
1.36604
1.37306
1.38218
1.3891
1.39279
1.39695
1.39064
1.3977
1.38301
1.40067
1.35623
1.36158
1.28364
1.2374
1.16069
1.08331
1.03385
0.968477
0.93811
0.911994
0.85767
0.824451
0.774047
0.735685
0.687362
0.621149
0.556484
0.476713
0.419691
0.374461
0.350768
0.335447
0.325935
0.317022
0.310036
0.302323
0.296849
0.289135
0.282187
0.277889
0.272579
0.267533
0.261159
0.252252
0.241074
0.217111
0.203118
0.178388
0.165593
0.139516
0.135209
0.0991063
0.0801758
0.0519096
0.279579
0.732639
1.17126
1.41335
1.4549
1.35148
1.09804
0.749415
0.501261
0.46757
0.573448
0.77948
1.07393
1.30785
1.35297
1.27672
1.13567
0.871438
0.577232
0.458429
0.514772
0.621211
0.79519
0.974351
1.08499
1.10905
1.08053
1.01968
0.936187
0.871013
0.845617
0.847585
0.860622
0.887469
0.907303
0.933979
0.87818
0.951841
0.993877
1.04518
1.07868
1.10402
1.12396
1.14085
1.15078
1.15985
1.17826
1.19207
1.21191
1.23108
1.24967
1.26724
1.28448
1.30034
1.31419
1.32732
1.34066
1.3514
1.36089
1.36859
1.37612
1.38299
1.38994
1.39593
1.40133
1.40567
1.40878
1.41114
1.41218
1.41418
1.4164
1.42032
1.42392
1.4289
1.41844
1.42373
1.35561
1.36235
1.29446
1.2575
1.19642
1.15488
1.08828
1.03829
1.00922
0.954947
0.915955
0.873528
0.834069
0.794918
0.763092
0.72081
0.659055
0.614561
0.56126
0.516654
0.478176
0.446285
0.422433
0.404157
0.38654
0.371323
0.355351
0.339619
0.325291
0.31255
0.30468
0.297491
0.289558
0.279438
0.256563
0.233533
0.200815
0.18817
0.159843
0.155758
0.12109
0.0922747
0.0673008
1.61871
1.23873
0.797819
0.480869
0.416585
0.523508
0.78665
1.14501
1.38264
1.40785
1.3251
1.16306
0.898608
0.600426
0.51204
0.588321
0.760143
1.07242
1.38002
1.49337
1.43482
1.3411
1.20958
1.07171
0.986918
0.966068
0.992704
1.05336
1.15357
1.23904
1.27803
1.285
1.27288
1.23788
1.20165
1.16696
0.995526
0.995112
1.10044
1.13536
1.17415
1.20655
1.22981
1.2453
1.25183
1.26184
1.27957
1.29029
1.30815
1.32473
1.34232
1.35907
1.37253
1.38374
1.39364
1.40005
1.40546
1.4112
1.41752
1.42435
1.43097
1.43738
1.44532
1.45164
1.45578
1.45881
1.46055
1.46157
1.46254
1.46367
1.46343
1.46594
1.45737
1.46498
1.44721
1.47219
1.40956
1.41089
1.36566
1.31582
1.29513
1.24511
1.19833
1.15527
1.11949
1.09048
1.04249
1.0019
0.954058
0.913749
0.881464
0.844154
0.801266
0.779497
0.760615
0.742189
0.718448
0.689012
0.658312
0.629269
0.597142
0.56303
0.525594
0.483815
0.438869
0.391455
0.349318
0.314214
0.289301
0.277291
0.262182
0.250786
0.225775
0.212717
0.179941
0.172247
0.136078
0.0998272
0.0781754
0.260339
0.715037
1.17561
1.46074
1.50232
1.4059
1.17113
0.816962
0.524095
0.474315
0.575463
0.774293
1.07511
1.39079
1.49703
1.42239
1.27575
1.01514
0.659625
0.482384
0.511329
0.618522
0.786451
0.950511
1.06134
1.11045
1.11108
1.0811
1.02653
0.966003
0.906433
0.863009
0.828661
0.802664
0.773157
0.802517
0.820821
1.04161
1.20757
1.28497
1.32004
1.33265
1.33719
1.33802
1.33811
1.34922
1.35578
1.3632
1.37135
1.38117
1.39298
1.40241
1.41106
1.4188
1.42626
1.43413
1.44104
1.4471
1.45258
1.45803
1.46411
1.47083
1.47723
1.48095
1.48253
1.48398
1.48395
1.48629
1.48719
1.48735
1.48524
1.47931
1.47977
1.46994
1.48052
1.46959
1.43225
1.41583
1.37465
1.31503
1.29871
1.25487
1.22318
1.17663
1.13904
1.12077
1.09892
1.0732
1.04797
1.01565
0.98149
0.931568
0.88067
0.836835
0.80662
0.781957
0.755228
0.723769
0.68941
0.652443
0.615059
0.577431
0.537582
0.496711
0.450833
0.403588
0.355545
0.311557
0.269726
0.253219
0.238477
0.233423
0.215012
0.204548
0.166746
0.155423
0.129499
0.0910198
0.0790337
1.70479
1.32172
0.894485
0.560769
0.509378
0.607039
0.842565
1.20701
1.49325
1.53617
1.45321
1.29507
1.0676
0.808835
0.694268
0.73322
0.870773
1.11879
1.4579
1.63714
1.59721
1.49144
1.32945
1.17383
1.06434
1.01581
1.01381
1.03569
1.08399
1.14559
1.20877
1.26695
1.31464
1.36422
1.41613
1.46169
1.57583
1.50079
1.47396
1.47189
1.46268
1.45716
1.45086
1.45032
1.45625
1.45709
1.46061
1.46203
1.46362
1.46394
1.46354
1.46252
1.46334
1.46515
1.46736
1.46967
1.47236
1.47529
1.47832
1.48195
1.48632
1.49021
1.49231
1.49239
1.49361
1.49404
1.49602
1.49862
1.49754
1.49424
1.48594
1.48417
1.47932
1.47609
1.47185
1.41502
1.37582
1.33661
1.28582
1.2378
1.20396
1.17188
1.1392
1.11176
1.08848
1.06797
1.05518
1.04198
1.03487
1.01739
0.991844
0.955832
0.905632
0.865744
0.8296
0.798358
0.757874
0.716762
0.673376
0.628716
0.585864
0.544421
0.500203
0.459757
0.416316
0.373326
0.33056
0.29244
0.254247
0.222672
0.200017
0.206082
0.189839
0.196448
0.164032
0.162429
0.137126
0.098878
0.0897997
0.303432
0.732658
1.1607
1.4627
1.4921
1.40779
1.21076
0.924754
0.660554
0.601296
0.677203
0.822006
1.02184
1.24641
1.34929
1.33725
1.23032
1.07087
0.866277
0.717133
0.694464
0.76386
0.880305
1.00707
1.09644
1.13406
1.14347
1.13854
1.11675
1.09036
1.07501
1.06594
1.06307
1.07152
1.10005
1.1777
1.31224
1.4092
1.45676
1.46316
1.46512
1.45918
1.46095
1.46489
1.46811
1.47292
1.47739
1.48018
1.48163
1.48188
1.48129
1.48164
1.48262
1.48426
1.48692
1.48953
1.49201
1.4938
1.49519
1.49589
1.49621
1.49561
1.49551
1.49493
1.49771
1.49804
1.50296
1.50606
1.50535
1.50413
1.49089
1.46053
1.41485
1.34033
1.25551
1.16393
1.17821
1.10762
1.08357
1.05996
1.03548
1.01246
0.980909
0.969368
0.961928
0.943258
0.929699
0.916795
0.913336
0.911129
0.901673
0.885321
0.851749
0.812328
0.769466
0.719729
0.669796
0.623162
0.578594
0.532597
0.488522
0.448618
0.412697
0.381048
0.348148
0.319502
0.289856
0.258223
0.226492
0.197314
0.174914
0.17198
0.166859
0.180584
0.160759
0.161845
0.146161
0.110791
0.0995584
1.72401
1.34885
1.01262
0.778141
0.736986
0.795665
0.937236
1.17431
1.39109
1.43152
1.36005
1.2293
1.07205
0.933931
0.881173
0.892884
0.945775
1.04005
1.19388
1.30198
1.321
1.27354
1.18004
1.07769
1.00919
0.986185
0.987988
0.998934
1.01725
1.04004
1.06408
1.08707
1.10926
1.11604
1.14544
1.1738
1.25183
1.30627
1.38416
1.43793
1.4709
1.4792
1.47912
1.47094
1.46506
1.466
1.46539
1.46765
1.47141
1.47475
1.47593
1.47609
1.47378
1.46935
1.46419
1.45873
1.45204
1.44432
1.43547
1.4271
1.41846
1.41244
1.40611
1.40046
1.38576
1.36467
1.32562
1.27608
1.20787
1.14772
1.07832
0.99761
0.896487
0.80392
0.738685
0.732146
0.725793
0.74634
0.764977
0.78536
0.795056
0.789814
0.784295
0.789056
0.802242
0.803034
0.79122
0.776871
0.775322
0.767144
0.762062
0.76354
0.723619
0.689646
0.640318
0.586792
0.54355
0.501606
0.466209
0.436951
0.410024
0.384228
0.359088
0.3322
0.304265
0.280199
0.253083
0.227978
0.202655
0.180482
0.162526
0.160238
0.154139
0.173511
0.15662
0.16897
0.153379
0.121253
0.110353
0.517117
0.839135
1.09474
1.26293
1.29388
1.24038
1.13671
0.994446
0.868502
0.842542
0.877462
0.942154
1.03
1.11545
1.14729
1.14165
1.11022
1.05907
0.995863
0.947774
0.952402
0.967747
1.0044
1.05269
1.09245
1.11072
1.11318
1.11906
1.12632
1.1352
1.14899
1.16869
1.2053
1.2491
1.32397
1.38729
1.37292
1.42789
1.47116
1.49641
1.49038
1.48232
1.48213
1.47777
1.46818
1.45665
1.44488
1.43441
1.4247
1.41477
1.40729
1.39871
1.38933
1.37733
1.36452
1.35111
1.33712
1.32155
1.30304
1.27967
1.24675
1.20668
1.15719
1.10964
1.04283
0.962971
0.86186
0.753726
0.65153
0.554827
0.477812
0.418068
0.373821
0.333758
0.314817
0.31714
0.331628
0.369982
0.41673
0.459122
0.490058
0.523367
0.549148
0.563076
0.576094
0.5856
0.603816
0.611333
0.614515
0.61414
0.613942
0.626649
0.587516
0.548586
0.500677
0.470959
0.440791
0.415758
0.395751
0.375646
0.353667
0.329193
0.304125
0.279729
0.259314
0.243062
0.222973
0.20451
0.184982
0.168847
0.155409
0.153069
0.148986
0.164253
0.159766
0.169481
0.162244
0.137005
0.121995
1.51131
1.24338
1.04831
0.938908
0.919418
0.941119
0.998528
1.08523
1.16181
1.17465
1.14761
1.09226
1.02589
0.980867
0.96583
0.971987
0.993623
1.02251
1.06059
1.08782
1.1032
1.09646
1.07996
1.05872
1.04141
1.03523
1.03796
1.04385
1.05417
1.07107
1.09355
1.11715
1.13374
1.15149
1.19662
1.26513
1.27561
1.29798
1.28819
1.34648
1.34137
1.33542
1.31799
1.31208
1.30904
1.30547
1.29791
1.29103
1.27861
1.26607
1.25183
1.23867
1.22187
1.20161
1.17523
1.13917
1.10041
1.05626
1.00725
0.952157
0.886688
0.810404
0.724457
0.6368
0.559222
0.491982
0.44235
0.383893
0.330387
0.267513
0.216826
0.167033
0.13895
0.113001
0.10391
0.102246
0.116692
0.138183
0.171486
0.199666
0.239827
0.278377
0.319795
0.348503
0.371953
0.392129
0.408891
0.438571
0.454055
0.476325
0.485556
0.493305
0.47618
0.456598
0.434498
0.411863
0.389259
0.370244
0.35108
0.330114
0.306252
0.282143
0.261323
0.24445
0.233009
0.219985
0.204448
0.189047
0.1724
0.159966
0.150209
0.148863
0.148457
0.165608
0.161258
0.1813
0.172038
0.149428
0.132447
0.848843
0.97696
1.07179
1.1304
1.13382
1.11444
1.07349
1.01894
0.984115
0.984833
0.995793
1.01783
1.04384
1.05801
1.05746
1.05415
1.04584
1.03352
1.0199
1.0152
1.02248
1.02995
1.04053
1.05294
1.06437
1.07441
1.08088
1.0861
1.09382
1.10448
1.11899
1.1299
1.14485
1.18387
1.22328
1.19786
1.1927
1.18824
1.16886
1.18863
1.17282
1.18784
1.1788
1.1668
1.15274
1.13893
1.11473
1.09586
1.06868
1.03927
1.00613
0.970526
0.932453
0.886634
0.830818
0.764081
0.694583
0.625346
0.561747
0.504879
0.457367
0.420031
0.387256
0.341953
0.300684
0.257558
0.222985
0.185463
0.151605
0.111364
0.0856298
0.0572674
0.0472975
0.0284726
0.0261186
0.0197903
0.0324377
0.0403982
0.0620402
0.080896
0.105662
0.140991
0.169515
0.206328
0.240553
0.279056
0.308316
0.342158
0.370032
0.398981
0.4145
0.417187
0.413753
0.403054
0.387277
0.368248
0.350407
0.331369
0.311514
0.291049
0.270412
0.253757
0.241097
0.232589
0.224006
0.210821
0.196348
0.181033
0.165996
0.154671
0.14698
0.146485
0.148447
0.165772
0.167222
0.184712
0.185152
0.162757
0.142263
1.2355
1.13149
1.04514
1.00497
0.996246
1.00975
1.0308
1.05272
1.06641
1.06616
1.05917
1.04594
1.02932
1.01511
1.01151
1.01435
1.02108
1.02873
1.03621
1.04401
1.05016
1.05399
1.05758
1.06012
1.06433
1.06938
1.07805
1.09179
1.11062
1.1336
1.16092
1.19903
1.23485
1.33579
1.3594
1.21699
1.12462
1.06379
0.972011
0.958776
0.918118
0.908121
0.895314
0.871773
0.843819
0.810188
0.768456
0.730802
0.691099
0.650185
0.607856
0.566077
0.526712
0.491892
0.457538
0.432827
0.396141
0.362184
0.327942
0.294421
0.264825
0.238785
0.218994
0.194963
0.172741
0.138345
0.122533
0.0926818
0.0771388
0.0447748
0.0349316
0.0186251
0.0134517
0.00492038
0.00644205
0.0063826
0.0152258
0.0177645
0.0310256
0.0422746
0.0611232
0.0856847
0.110827
0.142065
0.173289
0.210819
0.245853
0.28185
0.325232
0.359009
0.379686
0.386153
0.383597
0.374577
0.359161
0.344607
0.32892
0.311476
0.292853
0.274508
0.257601
0.24619
0.236861
0.229879
0.219402
0.205342
0.190703
0.176409
0.162563
0.152532
0.145115
0.145431
0.147193
0.166621
0.168867
0.18766
0.190647
0.178831
0.150558
1.02155
1.05172
1.06861
1.07323
1.06866
1.0576
1.0442
1.02947
1.02282
1.0246
1.02736
1.03264
1.03895
1.04
1.03731
1.03471
1.03273
1.03139
1.03079
1.03267
1.03672
1.04191
1.04791
1.05367
1.05998
1.06607
1.07201
1.07732
1.0845
1.09296
1.10487
1.12118
1.16156
1.21057
1.15435
1.08858
0.945005
0.814707
0.708639
0.633539
0.598115
0.579994
0.553466
0.534832
0.520828
0.505753
0.48519
0.468167
0.446756
0.422968
0.393044
0.359512
0.320409
0.285391
0.258418
0.233627
0.214788
0.189719
0.170889
0.151321
0.137296
0.125285
0.115451
0.107111
0.101252
0.0857675
0.0749371
0.0565278
0.0510498
0.0285887
0.0269095
0.0170089
0.0186377
0.0135765
0.0133587
0.0118718
0.019427
0.0227134
0.0354963
0.0444694
0.063916
0.0835435
0.106066
0.135235
0.164771
0.206767
0.244889
0.278207
0.321635
0.3544
0.369184
0.376413
0.370052
0.359636
0.34818
0.336223
0.321718
0.304163
0.286318
0.269039
0.25562
0.244907
0.2355
0.224903
0.210247
0.196211
0.183527
0.171761
0.159934
0.151391
0.144091
0.144348
0.146004
0.164833
0.171475
0.190099
0.199027
0.193779
0.162612
1.11323
1.07691
1.04911
1.03257
1.03113
1.0334
1.0364
1.03932
1.0407
1.03943
1.03764
1.03598
1.03382
1.03134
1.03013
1.02986
1.03081
1.03365
1.03646
1.03887
1.04292
1.04663
1.05052
1.05607
1.06164
1.0675
1.0749
1.08425
1.0957
1.11149
1.13635
1.15957
1.20102
1.14556
0.989426
0.784649
0.609377
0.481845
0.396972
0.349501
0.33208
0.320762
0.310446
0.310841
0.316272
0.321968
0.317239
0.318504
0.31162
0.31275
0.306944
0.303316
0.293129
0.27669
0.251685
0.225619
0.196895
0.176048
0.157229
0.138675
0.123794
0.110795
0.0997031
0.0945281
0.0920453
0.0910804
0.0868757
0.0754119
0.0721316
0.0565894
0.0524388
0.0463527
0.0449062
0.043581
0.0429948
0.0437467
0.0487726
0.0560843
0.0696253
0.0821222
0.104106
0.12229
0.145193
0.173634
0.200366
0.23704
0.278604
0.309894
0.338647
0.362764
0.370671
0.372563
0.367245
0.358113
0.34862
0.336571
0.32012
0.303189
0.286084
0.270288
0.257975
0.245814
0.232002
0.217436
0.202678
0.190056
0.178532
0.168391
0.158581
0.15123
0.144559
0.145279
0.146732
0.165333
0.175536
0.194633
0.207692
0.207467
0.174358
1.06074
1.05793
1.05837
1.05371
1.04784
1.0417
1.03588
1.03273
1.03142
1.0314
1.03184
1.03292
1.03515
1.03573
1.03559
1.03503
1.03449
1.03529
1.03627
1.0381
1.04101
1.04415
1.04706
1.04942
1.051
1.05128
1.04929
1.04514
1.0386
1.0313
1.02864
1.04519
1.0503
0.878722
0.660953
0.475425
0.35994
0.287463
0.238937
0.209753
0.211877
0.198843
0.202547
0.210919
0.225218
0.245568
0.266621
0.284898
0.301102
0.317931
0.327738
0.337524
0.336479
0.340424
0.334675
0.328235
0.300877
0.268967
0.232142
0.197417
0.168309
0.15102
0.135635
0.129541
0.12574
0.127791
0.128726
0.126378
0.123702
0.118706
0.112319
0.114634
0.110783
0.11283
0.111434
0.115091
0.117504
0.123217
0.134878
0.144098
0.161699
0.175135
0.199314
0.223239
0.250494
0.274754
0.310868
0.338835
0.360864
0.376865
0.379971
0.37882
0.372605
0.363747
0.353621
0.340763
0.324559
0.308389
0.291916
0.277115
0.264073
0.249183
0.233344
0.217615
0.202801
0.189795
0.179
0.169251
0.160548
0.153977
0.148053
0.14932
0.151048
0.168786
0.181906
0.199785
0.216617
0.219885
0.186134
1.06935
1.05717
1.0497
1.0431
1.03827
1.03631
1.03525
1.03641
1.03514
1.03317
1.03152
1.03109
1.03175
1.03261
1.03314
1.03445
1.03596
1.0368
1.03947
1.04175
1.04416
1.04669
1.04869
1.05186
1.05496
1.05739
1.0581
1.05692
1.05183
1.04048
1.01484
0.990254
0.788782
0.595698
0.450534
0.350767
0.280586
0.25281
0.235329
0.19981
0.189054
0.159107
0.166044
0.164983
0.177702
0.167536
0.148542
0.144251
0.13045
0.135013
0.151102
0.188526
0.228694
0.277856
0.309811
0.333578
0.338419
0.344004
0.335077
0.312742
0.284471
0.255237
0.231976
0.221981
0.21456
0.216008
0.213787
0.223417
0.221337
0.225254
0.215514
0.218378
0.219651
0.22374
0.225474
0.229199
0.232318
0.240953
0.247499
0.256344
0.266423
0.273216
0.289546
0.301007
0.31979
0.334188
0.355361
0.375351
0.389687
0.398637
0.398856
0.393372
0.386081
0.375906
0.36436
0.349813
0.334548
0.317951
0.301885
0.287161
0.273157
0.257055
0.240268
0.223636
0.207925
0.194653
0.184263
0.174122
0.165599
0.159451
0.153949
0.155383
0.157146
0.174325
0.187945
0.205906
0.22504
0.232636
0.199219
1.05716
1.05108
1.04865
1.04397
1.03966
1.03599
1.03443
1.03268
1.0317
1.03049
1.02946
1.0293
1.03003
1.03184
1.03364
1.03561
1.03773
1.03964
1.04168
1.0436
1.04439
1.04606
1.04638
1.04502
1.04081
1.03102
1.01243
0.979425
0.923506
0.835306
0.705879
0.4957
0.366284
0.26601
0.188885
0.145904
0.0906508
0.0901453
0.0650451
0.0578019
0.0526539
0.029115
0.0425287
0.0277838
0.0233599
-0.00597627
-0.00821264
-0.0184689
-0.0214635
-0.0183817
-0.0156204
-0.00187795
0.0176736
0.0529846
0.108483
0.182684
0.261177
0.327046
0.386551
0.420574
0.433941
0.431314
0.415418
0.397181
0.376162
0.363726
0.356121
0.36462
0.361294
0.374508
0.373401
0.372588
0.37692
0.382888
0.388883
0.39497
0.397658
0.398783
0.394903
0.389342
0.386419
0.384576
0.38703
0.388398
0.394214
0.400654
0.408788
0.420995
0.430505
0.432505
0.429149
0.418393
0.408143
0.395132
0.380749
0.364222
0.34878
0.331443
0.315058
0.300766
0.285573
0.268275
0.250761
0.232988
0.216888
0.203929
0.192871
0.1818
0.172969
0.166547
0.1613
0.161985
0.164412
0.180462
0.19462
0.213846
0.234186
0.246471
0.213063
1.05317
1.04781
1.04416
1.0421
1.03942
1.03637
1.03335
1.03277
1.0313
1.02893
1.02775
1.02773
1.02822
1.0295
1.03151
1.03398
1.03704
1.03983
1.04287
1.04602
1.04797
1.04979
1.05249
1.05492
1.0584
1.06302
1.07165
1.08812
1.11889
1.17221
1.25596
1.38215
1.33954
1.10597
0.888056
0.711109
0.560501
0.41558
0.291322
0.201741
0.159735
0.129552
0.084532
0.0430763
0.00624734
-0.0082601
-0.0142993
-0.0100494
0.00261753
0.0148569
0.0315753
0.0465239
0.064039
0.0875366
0.114453
0.147822
0.200418
0.263339
0.340884
0.41312
0.494801
0.545098
0.571669
0.584142
0.583836
0.584981
0.577093
0.577241
0.572688
0.57965
0.585611
0.591958
0.594343
0.597787
0.597246
0.594013
0.58944
0.588742
0.575622
0.560206
0.542344
0.526005
0.513998
0.5014
0.491535
0.48235
0.475586
0.472131
0.470872
0.468477
0.462447
0.450126
0.43646
0.420508
0.401208
0.383689
0.366422
0.349265
0.331158
0.317348
0.300197
0.282187
0.264236
0.24623
0.230262
0.21677
0.20367
0.191575
0.18173
0.174468
0.169048
0.169199
0.172022
0.187715
0.202813
0.224813
0.244335
0.261243
0.227535
1.04714
1.04304
1.04122
1.042
1.03984
1.03773
1.03522
1.03218
1.03012
1.02898
1.02743
1.02694
1.02758
1.02911
1.03131
1.03421
1.03729
1.04026
1.04372
1.04711
1.05005
1.05229
1.05436
1.05632
1.05771
1.05828
1.05729
1.05506
1.04937
1.03634
1.01332
0.994491
1.04858
1.14948
1.1313
1.108
1.05021
0.969637
0.862961
0.74348
0.642355
0.564268
0.507954
0.467125
0.434827
0.404426
0.379177
0.366025
0.362202
0.364174
0.366504
0.369414
0.371916
0.377237
0.383594
0.39671
0.417142
0.448068
0.485029
0.531875
0.583076
0.634259
0.683215
0.720298
0.744704
0.762789
0.76795
0.773293
0.785133
0.799889
0.809025
0.823967
0.822756
0.828547
0.825011
0.812748
0.787148
0.764439
0.737814
0.719513
0.692538
0.664602
0.636432
0.61068
0.587743
0.566817
0.54885
0.533389
0.52144
0.511913
0.49946
0.484061
0.468355
0.448148
0.426222
0.406943
0.386978
0.369502
0.351087
0.335646
0.317407
0.299367
0.280852
0.262301
0.246602
0.230858
0.215806
0.202233
0.191112
0.183137
0.177509
0.177251
0.180445
0.195967
0.21256
0.236669
0.255254
0.276377
0.24205
1.04391
1.04023
1.03905
1.03952
1.03876
1.03823
1.036
1.03358
1.03053
1.02773
1.02742
1.02713
1.02747
1.02854
1.03025
1.03302
1.03658
1.04033
1.04351
1.047
1.05096
1.05458
1.05846
1.06267
1.06756
1.07412
1.08356
1.09799
1.12029
1.15626
1.21221
1.29571
1.40321
1.48369
1.57596
1.59964
1.58174
1.54195
1.48121
1.41319
1.35585
1.29938
1.26915
1.23312
1.21524
1.19092
1.18541
1.16041
1.16745
1.15558
1.16466
1.1629
1.16396
1.15713
1.14685
1.12898
1.10263
1.0684
1.02625
0.993356
0.959461
0.954755
0.940848
0.969109
0.961211
0.986398
0.980142
0.974507
0.965672
0.96143
0.959637
0.961944
0.966978
0.968132
0.963896
0.961608
0.929231
0.913243
0.872693
0.847145
0.817599
0.789392
0.758663
0.724706
0.687178
0.653309
0.62222
0.599139
0.577303
0.560361
0.54044
0.523826
0.502463
0.479117
0.455284
0.433866
0.41145
0.392152
0.373137
0.355526
0.336816
0.31904
0.299553
0.280347
0.263386
0.245529
0.22905
0.213958
0.201384
0.192797
0.186878
0.186292
0.18948
0.205134
0.223598
0.249019
0.267612
0.291481
0.256804
1.04024
1.03701
1.03688
1.03753
1.03775
1.03789
1.03623
1.03399
1.03094
1.02886
1.02753
1.02734
1.02766
1.02875
1.03021
1.03265
1.03572
1.03935
1.04324
1.0471
1.05142
1.0563
1.0605
1.06474
1.06904
1.07365
1.07829
1.08055
1.08156
1.07973
1.07623
1.06825
1.06833
1.08499
1.21116
1.19946
1.22897
1.22274
1.2155
1.21251
1.19834
1.17032
1.1601
1.14382
1.17754
1.18876
1.21166
1.25896
1.25562
1.2815
1.29925
1.31687
1.32254
1.33792
1.33403
1.34303
1.32298
1.3212
1.29208
1.28237
1.24646
1.2493
1.22582
1.24691
1.23521
1.25645
1.26303
1.24308
1.21374
1.17017
1.12178
1.09003
1.07017
1.0559
1.04824
1.04894
1.02168
1.00428