/*--------------------------------*- C++ -*----------------------------------*\
| =========                 |                                                 |
| \\      /  F ield         | OpenFOAM: The Open Source CFD Toolbox           |
|  \\    /   O peration     | Version:  2.2.x                                 |
|   \\  /    A nd           | Web:      www.OpenFOAM.org                      |
|    \\/     M anipulation  |                                                 |
\*---------------------------------------------------------------------------*/
FoamFile
{
    version     2.0;
    format      ascii;
    class       volScalarField;
    location    "1.4";
    object      By;
}
// * * * * * * * * * * * * * * * * * * * * * * * * * * * * * * * * * * * * * //

dimensions      [1 0 -2 0 0 -1 0];

internalField   nonuniform List<scalar> 
14161
(
0.0115018
-0.0040893
-0.0138196
-0.00865517
-0.00816506
-0.00239113
0.00623317
0.0107038
0.00987648
0.00901757
0.00468611
-0.00663805
-0.0146892
-0.0107326
-0.0076196
-0.00295886
0.00909301
0.0118888
0.00891504
0.00510498
-0.000301547
-0.00714014
-0.0099958
-0.00658942
-0.00302237
0.000616513
0.0036115
0.0040526
0.0031177
0.00196822
0.000484669
0.000355133
-0.00118527
-0.0025229
-0.0564493
-0.0651109
0.00592345
0.0213791
0.0273721
0.0292998
0.0295526
0.0275575
0.0289272
0.0289007
0.0266854
0.0243221
0.0206323
0.0183802
0.0176131
0.0170335
0.0177864
0.0204718
0.0220678
0.0227109
0.0221426
0.0182892
0.0138343
0.00713535
0.000423176
-0.00527484
-0.00935136
-0.0124991
-0.0140801
-0.0182524
-0.021805
-0.0239639
-0.0266711
-0.0269294
-0.0271383
-0.0284007
-0.0263885
-0.0243707
-0.0203099
-0.0174433
-0.0128896
-0.0120427
-0.00718325
-0.00101275
0.0068662
0.0163022
0.0228789
0.0298726
0.0415126
0.0740138
0.13092
0.172245
0.174515
0.124078
0.0565163
0.0355202
0.0309481
0.0300875
0.0210764
0.00585861
-0.00837113
-0.0213452
-0.0314998
-0.0319541
-0.0208954
-0.0164964
-0.0176949
-0.013937
-0.0132044
-0.0108916
-0.00986538
-0.00726957
-0.00574472
-0.00527281
-0.000447393
0.00316939
0.00842051
0.0123649
0.0186142
0.0234528
0.0313018
0.0405318
0.0453236
0.0405809
0.0506017
-0.0202128
0.00357288
0.022247
0.0175098
0.0112727
0.003954
-0.0113422
-0.0206048
-0.0140481
-0.0102023
-0.00117063
0.0113525
0.0217876
0.013518
0.00961445
0.00106269
-0.0125215
-0.0201661
-0.0121561
-0.00740524
-0.00160076
0.00958078
0.0172714
0.0106649
0.00687852
0.00118344
-0.00664537
-0.00695462
-0.0050412
-0.00366575
-0.00181391
-0.00138165
-0.00524623
-0.0172773
-0.122309
-0.0616932
-0.00107363
-0.00188396
-0.0064583
-0.0117795
-0.00949533
-0.00657736
-0.0046978
-0.00262404
-0.0012238
-0.00400413
-0.00407129
-0.00303578
-0.00187678
0.00170123
0.00641592
0.0100474
0.00797657
0.00627924
0.00599613
0.00964526
0.00597864
0.00165718
9.17602e-05
-0.00198848
-0.00678283
-0.00974083
-0.0126029
-0.0155701
-0.0178493
-0.0188109
-0.0180674
-0.0199281
-0.0216574
-0.0217524
-0.020951
-0.0176985
-0.0166563
-0.016432
-0.0152386
-0.0177104
-0.0205704
-0.0149668
-0.0142427
-0.008743
-0.000448161
0.00885098
0.0268966
0.0753894
0.157817
0.216749
0.223699
0.210787
0.178944
0.13556
0.111401
0.0670437
0.0330516
0.00887051
-0.00238161
-0.0155874
-0.0232374
-0.0280933
-0.0290693
-0.028154
-0.0228332
-0.0194499
-0.0165522
-0.0156352
-0.0139979
-0.0112301
-0.00912221
-0.00583873
-0.00184899
0.00303269
0.00733682
0.0136642
0.0215668
0.0370302
0.0432309
0.0500748
0.0727479
0.0999837
0.111116
0.0155713
-0.00795255
-0.00638906
-0.00805753
-0.00790726
-0.00420168
0.00278822
0.0107331
0.00902121
0.00763606
0.00514339
-0.00191447
-0.00937759
-0.0103285
-0.00836501
-0.00319309
0.00428695
0.0102715
0.00833824
0.00641745
0.00242903
-0.0036756
-0.00539525
-0.00373497
-0.0021119
-0.000170658
0.00365931
0.00438958
0.00140877
0.000336347
-0.00154661
-0.00192665
-0.0080067
-0.0252765
-0.151981
-0.0234132
0.0491838
0.0714482
0.0652808
0.045451
0.0220223
0.00916001
-0.00337669
-0.010545
-0.0091204
-0.0119418
-0.00875155
-0.00536437
-0.000844451
0.00360211
0.00453923
0.00595741
0.0103778
0.0101289
0.00462651
0.000199347
-0.00398031
-0.00875376
-0.0128737
-0.0169446
-0.0213112
-0.0240888
-0.0267254
-0.0298279
-0.0310489
-0.0328183
-0.033538
-0.0332596
-0.0325892
-0.0316406
-0.0283581
-0.0226658
-0.0162616
-0.0123443
-0.00415334
0.0025748
0.00700919
0.0203774
0.0247399
0.0403265
0.0605832
0.10677
0.156905
0.230729
0.295365
0.337592
0.328447
0.309046
0.27125
0.215158
0.158573
0.0960639
0.0502842
0.0151392
-0.00755058
-0.0275466
-0.0388531
-0.0438886
-0.04258
-0.0401067
-0.0350469
-0.0302413
-0.0257135
-0.0230472
-0.0203531
-0.0173248
-0.014576
-0.0111854
-0.00554126
0.00383848
0.0197022
0.0392866
0.0537768
0.0709891
0.0833125
0.0892661
0.128516
0.155888
0.179915
-0.0221929
-0.00121806
0.0137677
0.0174043
0.0117096
0.0075168
-0.00448767
-0.00987019
-0.012389
-0.0108392
-0.00413898
0.00525326
0.0126486
0.00994972
0.00827862
0.00415183
-0.0020397
-0.0114695
-0.0111615
-0.0104669
-0.00688149
0.000468228
0.00891999
0.00842163
0.00790828
0.00570187
0.00288728
-0.00246652
-0.00365357
-0.00397874
-0.00417613
-0.00237577
-0.00262647
-0.00182172
-0.013968
0.0204915
0.0410309
0.0381406
0.0280505
0.00134596
-0.0282461
-0.0450628
-0.0523202
-0.0506897
-0.0456353
-0.0475552
-0.0416831
-0.0324396
-0.0238499
-0.0167869
-0.0128116
-0.0106856
-0.0106577
-0.0127283
-0.0171284
-0.0203616
-0.0224365
-0.0247161
-0.0275848
-0.0301196
-0.033622
-0.0358635
-0.0374389
-0.0376269
-0.0378402
-0.0378572
-0.0382874
-0.0373647
-0.0353671
-0.0321096
-0.0273113
-0.0200324
-0.00957803
7.68673e-05
0.0119597
0.0271933
0.034716
0.0516101
0.0542841
0.0643781
0.090591
0.142794
0.22191
0.314227
0.368632
0.413845
0.398882
0.388335
0.352184
0.287063
0.212707
0.131048
0.0683068
0.0189869
-0.0133126
-0.0361265
-0.0469901
-0.0499612
-0.047096
-0.0404234
-0.0330042
-0.0265771
-0.0249229
-0.0223016
-0.0210053
-0.0185324
-0.0163002
-0.0129893
-0.0077063
0.00070485
0.0163594
0.03828
0.0594673
0.0889487
0.121799
0.133889
0.159705
0.190524
0.232434
0.0135093
-0.00464181
-0.000638779
-0.00295978
-0.0022469
-0.00437828
-0.00347517
0.00558614
0.00675153
0.00609955
0.00450717
0.00259939
-0.00105324
-0.00632037
-0.00615954
-0.00620728
-0.00431619
0.00506297
0.00766618
0.00736154
0.00404502
0.00686664
0.00170673
-0.000958318
-0.000487159
0.000532903
0.00172175
0.00238171
0.00187579
0.00100973
-4.7426e-06
-5.91287e-05
0.00209207
0.015195
0.122636
0.033958
0.0212612
0.0120589
-0.00444093
-0.0248258
-0.0504917
-0.0584033
-0.0606641
-0.057866
-0.0514294
-0.0507997
-0.04831
-0.0436324
-0.0347486
-0.0280951
-0.0259449
-0.0248352
-0.0248058
-0.0268233
-0.0299584
-0.0331039
-0.0341222
-0.035498
-0.038924
-0.0425819
-0.0457656
-0.0474034
-0.0471738
-0.0462011
-0.0450898
-0.0442708
-0.0441656
-0.0423653
-0.0396044
-0.0348598
-0.0276959
-0.0189994
-0.00314586
0.0140403
0.0281716
0.0490535
0.0589252
0.0825758
0.103548
0.125293
0.175239
0.232567
0.320617
0.397831
0.449891
0.490275
0.478147
0.464625
0.430556
0.357097
0.270005
0.177294
0.096225
0.0277699
-0.013926
-0.0374074
-0.0491389
-0.053455
-0.0514819
-0.0462331
-0.040609
-0.0354461
-0.0305233
-0.0265843
-0.0238934
-0.0206344
-0.017259
-0.012656
-0.00620197
0.00417703
0.0209046
0.0470356
0.0755204
0.121916
0.161404
0.181196
0.195859
0.218763
0.272431
-0.0188102
-0.00258341
0.00739276
0.0114318
0.00967741
0.00848287
0.000722941
-6.61111e-05
-0.00704386
-0.00657582
-0.00470214
-0.00202456
0.00404012
0.00528331
0.00549858
0.00574756
0.00712124
-0.000955745
-0.00857153
-0.00898137
-0.00975394
-0.00604033
0.0017325
0.00663004
0.00664958
0.00708365
0.00824096
0.00336576
-0.000904649
-0.00206926
-0.00327077
-0.000697422
-0.0010709
0.00944374
0.119994
0.130369
0.0737659
0.0336984
-0.0150373
-0.0535796
-0.0833627
-0.0883522
-0.084454
-0.0782653
-0.0696628
-0.060674
-0.0504821
-0.0429784
-0.0448815
-0.0456835
-0.0448011
-0.0438436
-0.0431628
-0.0439472
-0.0448435
-0.0488721
-0.0553244
-0.0622574
-0.0675299
-0.069398
-0.0704196
-0.0694435
-0.0679442
-0.0650172
-0.0620157
-0.0580688
-0.0533054
-0.0475761
-0.0416487
-0.0350188
-0.0264463
-0.0109403
0.00841349
0.0372193
0.060847
0.0932973
0.119913
0.142318
0.180141
0.198544
0.252506
0.312789
0.397015
0.459756
0.488085
0.524462
0.527971
0.517932
0.499815
0.429743
0.344237
0.242535
0.13538
0.0430547
-0.0104607
-0.0395099
-0.0541421
-0.0600152
-0.0598629
-0.0547966
-0.0490124
-0.0425919
-0.0355745
-0.0299693
-0.0256883
-0.0228503
-0.0191434
-0.0128067
-0.00371082
0.00866718
0.0268851
0.0557969
0.0918634
0.15138
0.196952
0.225203
0.22812
0.241163
0.306428
0.00883338
-0.000883547
0.00223589
0.00183989
0.00447496
0.000741152
-0.00518214
0.000291102
0.00611999
0.00461971
0.00270837
0.00165634
0.00186285
-0.00225596
-0.00336089
-0.00656808
-0.0073404
0.0013609
0.00773871
0.00676062
0.00577436
0.00842448
0.0045264
0.00224851
0.000994254
0.000582548
-0.000576626
0.000791061
0.00341244
0.00292817
0.00131135
-0.00184432
-0.00676247
-0.00148131
0.0879806
0.216582
0.142453
0.0379577
-0.0316544
-0.0788518
-0.109971
-0.116033
-0.108285
-0.101128
-0.0937749
-0.0919424
-0.0881682
-0.0825352
-0.0741551
-0.0667062
-0.0623073
-0.06027
-0.0588703
-0.0577326
-0.0580055
-0.0601467
-0.062103
-0.0653476
-0.0680687
-0.0706394
-0.0714814
-0.0713441
-0.0707464
-0.0687918
-0.0661214
-0.0622386
-0.0579686
-0.0515147
-0.0459572
-0.0401373
-0.0334913
-0.0171866
0.00535919
0.0381837
0.0764079
0.103604
0.141853
0.164189
0.211339
0.236965
0.296843
0.361247
0.44321
0.494758
0.525175
0.565771
0.596694
0.594323
0.593516
0.525584
0.445409
0.328389
0.189443
0.0606141
-0.00968971
-0.0434318
-0.0611342
-0.0694457
-0.0704328
-0.065496
-0.0585766
-0.0503447
-0.0426242
-0.0362757
-0.0309634
-0.0268049
-0.0211702
-0.0124913
0.000345858
0.0168023
0.0381757
0.0714434
0.113497
0.183643
0.225372
0.263473
0.261455
0.264562
0.335848
-0.0123264
-0.0016549
0.00295055
0.00650333
0.0065664
0.00818075
0.00252273
0.00476915
-0.00173467
-0.00069167
-0.00219805
-0.0057512
-0.00155897
0.00330161
0.00349058
0.00476057
0.0112226
0.00703882
-0.00529813
-0.00556309
-0.00810288
-0.00711484
-0.00462428
0.00694241
0.0055655
0.00580439
0.00780738
0.00723041
0.00324478
-0.00107853
-0.00396504
-0.0050162
-0.00410015
0.00386697
0.0790907
0.267649
0.18717
0.0772829
-0.014859
-0.069535
-0.107897
-0.119553
-0.119544
-0.1114
-0.0986472
-0.087065
-0.0769174
-0.0682019
-0.0636547
-0.0622026
-0.0630858
-0.0646714
-0.0651686
-0.0648645
-0.065075
-0.0673444
-0.0728634
-0.0786284
-0.0827298
-0.0848161
-0.0853586
-0.0849029
-0.0832423
-0.0813007
-0.0790137
-0.0762233
-0.0720621
-0.065793
-0.0600333
-0.0544087
-0.0417028
-0.0234994
0.0070594
0.0452063
0.092555
0.144286
0.181971
0.219829
0.27862
0.317645
0.384412
0.457223
0.517251
0.586121
0.611626
0.634818
0.672538
0.673912
0.678661
0.622009
0.555976
0.427268
0.243084
0.0793304
-0.00255703
-0.0408869
-0.0607228
-0.0695865
-0.0703768
-0.0663257
-0.0596244
-0.051434
-0.0445493
-0.0368175
-0.0304703
-0.0259687
-0.0200807
-0.0104879
0.00623935
0.028842
0.0556309
0.0945562
0.141055
0.210914
0.256272
0.295149
0.295568
0.28496
0.364417
0.00438896
0.00103119
0.00261468
0.00673167
0.0106922
0.00904429
-0.00155642
-0.00249216
0.00594088
0.00253762
0.00140374
-0.00511689
0.000857621
0.000371115
-0.00167354
-0.00375353
-0.00143386
0.00182674
0.00870444
0.00552742
0.00354411
0.00516299
-5.62946e-05
-0.000978668
0.000895286
0.0013487
0.000567826
-0.000280849
0.00278164
0.000443291
-0.00133605
-0.00302426
-0.0047943
-0.000537213
0.0593754
0.292108
0.191987
0.0503383
-0.0724131
-0.123089
-0.145205
-0.146979
-0.139791
-0.132177
-0.122499
-0.11035
-0.10161
-0.0916036
-0.0828914
-0.0785222
-0.0776194
-0.0780977
-0.0795245
-0.0809327
-0.0820868
-0.0849794
-0.0894064
-0.0935061
-0.0951163
-0.0955957
-0.0953957
-0.0939123
-0.0931147
-0.0907489
-0.0876057
-0.0831766
-0.0778562
-0.0700515
-0.0653252
-0.0552999
-0.0403142
-0.0202343
0.013751
0.0579126
0.112469
0.182353
0.253335
0.300607
0.37382
0.430339
0.488093
0.540835
0.580498
0.633507
0.680867
0.688039
0.724148
0.724155
0.748678
0.714714
0.660187
0.513455
0.288735
0.102528
0.00276753
-0.0444471
-0.0698818
-0.0794417
-0.0790996
-0.0754636
-0.0687813
-0.0599238
-0.0527412
-0.0443074
-0.0355555
-0.0292097
-0.0219774
-0.010972
0.010185
0.0400749
0.0739375
0.120429
0.172098
0.239277
0.283009
0.324099
0.330234
0.30634
0.39269
-0.00463387
0.000294706
0.00129525
0.00395144
0.00296151
0.00494382
0.00338279
0.00719633
0.00137627
0.00413229
0.00106244
-0.00637854
-0.00344256
0.00401122
0.00197582
0.000455484
0.00937856
0.00691868
0.00257196
-0.00221971
-0.00628125
-0.00257659
-0.00683948
-0.000106667
0.00740611
0.00419741
0.00224199
0.00717529
0.00708655
0.00115905
-0.00479408
-0.00700259
-0.00779501
-0.00463923
0.0470699
0.256154
0.191434
0.0625766
-0.0702132
-0.127594
-0.146503
-0.150176
-0.143498
-0.13596
-0.124099
-0.108417
-0.0999494
-0.0893258
-0.0815169
-0.0784304
-0.0777142
-0.0796664
-0.0819343
-0.0825887
-0.0818931
-0.0834676
-0.0926458
-0.100052
-0.105635
-0.107072
-0.107809
-0.10493
-0.101816
-0.0972132
-0.0914902
-0.0881428
-0.0813235
-0.0772774
-0.0698838
-0.0586173
-0.0420572
-0.0159221
0.0174285
0.0709918
0.136619
0.216171
0.31925
0.383765
0.478372
0.534223
0.563898
0.609085
0.63055
0.685071
0.747665
0.746234
0.775436
0.780034
0.789471
0.779473
0.734194
0.58642
0.350524
0.148303
0.0310406
-0.0291919
-0.0599649
-0.070291
-0.0692162
-0.0631505
-0.0540592
-0.043078
-0.0345407
-0.0278766
-0.0192198
-0.012055
-0.00464044
0.00570185
0.0269258
0.0617355
0.0992004
0.149579
0.207263
0.271923
0.310879
0.352913
0.364331
0.332141
0.42184
0.000597648
-0.000268563
0.0042761
0.0119999
0.0151722
0.0151454
0.00557234
-0.000158628
0.00359156
-0.00236111
-0.00441072
-0.0116448
-0.00234286
0.00230399
0.00547601
0.0026254
0.00433805
0.00376288
0.00971957
0.00200786
-0.00389994
-0.00293394
-0.00950192
-0.0117956
-0.00376982
-0.000516701
-0.00150844
-0.00477268
-0.000963124
-0.00929902
-0.00671696
-0.00517034
-0.00517813
-0.00287803
0.0414077
0.234564
0.150193
0.0050303
-0.130031
-0.176617
-0.182942
-0.181101
-0.172588
-0.161791
-0.145408
-0.130233
-0.125736
-0.114866
-0.109714
-0.108218
-0.10881
-0.112139
-0.113345
-0.116024
-0.121165
-0.127407
-0.129336
-0.128382
-0.126225
-0.124171
-0.121546
-0.117209
-0.113566
-0.108216
-0.102076
-0.0965265
-0.0910867
-0.0853349
-0.0772471
-0.0641745
-0.0416271
-0.0118489
0.0252702
0.0793247
0.162498
0.277381
0.386322
0.501094
0.582736
0.637221
0.664166
0.707234
0.712145
0.761375
0.821882
0.831822
0.854865
0.854391
0.853431
0.843826
0.782438
0.62769
0.376513
0.154688
0.0305484
-0.0307004
-0.0634231
-0.0752992
-0.0706298
-0.0635708
-0.0569055
-0.0477227
-0.0403599
-0.0327084
-0.0254476
-0.0206344
-0.0108544
0.00663748
0.0382392
0.0840961
0.130234
0.181058
0.240884
0.301274
0.33494
0.378834
0.399205
0.361918
0.450913
0.0053066
0.00164109
0.00063753
0.00106548
-0.00130051
0.000727532
0.00577039
0.0089898
0.00694831
0.0077165
0.0018488
-0.00768757
-0.00740933
0.00018907
-0.00397365
-0.00486633
-0.0019561
0.00750022
0.0153126
0.0126312
0.0085237
0.00399157
-0.00670054
-0.00965953
-0.00587584
-0.00272128
-0.000964306
-0.000135191
0.00457373
0.00388287
-0.0019912
-0.00697636
-0.0098557
-0.0137742
0.0282597
0.205377
0.120232
-0.0753822
-0.170943
-0.203042
-0.212925
-0.204345
-0.189921
-0.170805
-0.150677
-0.135747
-0.131571
-0.118936
-0.113674
-0.10619
-0.102714
-0.105377
-0.107161
-0.109137
-0.112356
-0.118737
-0.124728
-0.128677
-0.129152
-0.129156
-0.128226
-0.124726
-0.121367
-0.114808
-0.106117
-0.0992343
-0.0911753
-0.0849134
-0.07802
-0.0668463
-0.0478127
-0.0181512
0.0215407
0.0827772
0.177847
0.311168
0.448205
0.574742
0.660617
0.710883
0.760368
0.781516
0.794165
0.831527
0.863794
0.882272
0.868671
0.882432
0.878307
0.859284
0.798862
0.643835
0.391253
0.182054
0.0658352
0.00350545
-0.031836
-0.0491359
-0.0522375
-0.0451695
-0.0321496
-0.0175518
-0.00250925
0.00719845
0.0163923
0.0187776
0.0241625
0.0355795
0.0667948
0.11187
0.160364
0.217816
0.276332
0.330471
0.362659
0.411613
0.434806
0.394078
0.475571
-0.00444489
-0.00422091
0.00792805
0.0205444
0.0204568
0.0182949
0.0111232
-0.00114677
-0.0041051
-0.0119951
-0.0147253
-0.0139901
-0.00352753
0.0103397
0.0190021
0.0143948
0.000162098
-0.00220523
-0.000995325
-0.00821048
-0.0122187
-0.0165727
-0.0168385
-0.0163492
-0.00780779
-0.004389
-0.00521517
-0.00691867
-0.0110474
-0.0126907
-0.0080023
-0.0073226
0.000801303
-0.0035184
0.0232215
0.205661
0.0911383
-0.214717
-0.292856
-0.276912
-0.260002
-0.23784
-0.214995
-0.188297
-0.171041
-0.163826
-0.151948
-0.144812
-0.148774
-0.149517
-0.146498
-0.138575
-0.130272
-0.129867
-0.127827
-0.128035
-0.130772
-0.13347
-0.134655
-0.133986
-0.132448
-0.131506
-0.127126
-0.11775
-0.105981
-0.0979258
-0.0904382
-0.0857512
-0.0782108
-0.0649
-0.040889
-0.00863388
0.0344447
0.099633
0.199007
0.364288
0.530213
0.655561
0.763831
0.808769
0.863916
0.873081
0.902784
0.926969
0.938693
0.966133
0.950214
0.96051
0.941702
0.904406
0.823284
0.63405
0.359207
0.16033
0.0575089
0.00764634
-0.0147553
-0.0186415
-0.0126872
0.000430868
0.0175412
0.0342807
0.0510219
0.0651137
0.078038
0.0757032
0.0741912
0.0738555
0.0910708
0.1274
0.184081
0.246738
0.310005
0.367712
0.397843
0.445279
0.470384
0.424409
0.495384
0.0215358
0.00240888
-0.00554869
-0.00725914
-0.00506308
-0.00253499
0.0100531
0.0140456
0.0227213
0.0161639
0.00491783
-0.0105523
-0.0173831
-0.0178142
-0.00645375
-4.85906e-05
-0.00644769
0.0189271
0.0281903
0.0372659
0.0352531
0.0145022
-0.00102721
-0.0148429
-0.0227879
-0.0229763
-0.0175757
-0.016313
-0.0163416
-0.00288094
-0.00207288
0.00906389
0.00727465
0.0013992
-0.016341
0.0175463
-0.162431
-0.31355
-0.30035
-0.274729
-0.252992
-0.230269
-0.209586
-0.189958
-0.174709
-0.158608
-0.150572
-0.145519
-0.144252
-0.143646
-0.141212
-0.136619
-0.131611
-0.128938
-0.128579
-0.130343
-0.132875
-0.134476
-0.136744
-0.139283
-0.14002
-0.137046
-0.129849
-0.11731
-0.10523
-0.0960239
-0.0915873
-0.0873437
-0.0780361
-0.0605717
-0.0350009
-4.81341e-05
0.0440244
0.116176
0.248582
0.448747
0.645602
0.78226
0.862685
0.897639
0.945792
0.962989
0.995735
1.00835
1.00912
1.01522
1.01076
1.01942
1.00413
0.961034
0.869515
0.661906
0.380569
0.193311
0.0970203
0.0554493
0.0429916
0.046421
0.05443
0.0670524
0.0794941
0.0951262
0.106774
0.121143
0.13253
0.129791
0.121902
0.123157
0.127915
0.14911
0.192703
0.25937
0.325666
0.391358
0.423943
0.471523
0.495749
0.452948
0.508489
-0.0141546
-0.00690714
0.0141653
0.0285012
0.0282074
0.0184107
0.0104974
-0.00971628
-0.0171092
-0.0148511
-0.0113763
-0.0100723
-0.00309953
0.0123247
0.0180261
0.0175663
0.00302132
-0.00402798
-0.0177221
-0.00653308
0.00170342
-0.00300771
-0.00275534
-0.00054345
-0.00364797
-0.00248946
-0.00633504
-0.00814678
-0.0110511
-0.0142051
-0.0135785
-0.00675576
-0.00664642
-0.0205884
-0.0646295
-0.218287
-0.393389
-0.300642
-0.249428
-0.230436
-0.200398
-0.186829
-0.17989
-0.173475
-0.16091
-0.15092
-0.142536
-0.137838
-0.138702
-0.138369
-0.137211
-0.1337
-0.129928
-0.128158
-0.127951
-0.129477
-0.131634
-0.134052
-0.136913
-0.139337
-0.139399
-0.136898
-0.128729
-0.114915
-0.105134
-0.0946008
-0.0923118
-0.0848737
-0.0717406
-0.0456672
-0.0129248
0.0285238
0.0977734
0.201587
0.372686
0.591781
0.778267
0.859685
0.919396
0.985392
0.99251
0.989946
0.992452
1.01454
1.05398
1.04315
1.0316
1.02929
1.01915
0.985399
0.89487
0.670127
0.394086
0.235125
0.148646
0.112158
0.0983342
0.09997
0.108272
0.113404
0.12202
0.136485
0.146807
0.160868
0.167808
0.16006
0.151914
0.152145
0.159253
0.179332
0.21597
0.267518
0.336263
0.407472
0.44562
0.497969
0.522964
0.481514
0.522652
0.0436605
0.000386427
-0.0164032
-0.0129165
-0.00173529
0.00254432
0.0158338
0.016767
0.0298323
0.0201999
0.00934984
-0.00418185
-0.0171332
-0.0235618
-0.0115299
-0.0023401
0.00464349
0.0109934
0.0180371
0.0359679
0.0273359
0.0140853
0.00544962
-0.0114137
-0.0224728
-0.0243701
-0.0213168
-0.0167248
-0.0129294
-0.0103933
-0.0114577
-0.00439002
-0.0117989
-0.0415993
-0.155912
-0.506255
-0.632535
-0.482409
-0.340284
-0.277784
-0.215473
-0.187086
-0.168098
-0.160543
-0.155896
-0.148297
-0.142609
-0.142903
-0.143416
-0.139662
-0.134445
-0.129042
-0.125634
-0.124648
-0.126809
-0.130056
-0.130103
-0.129825
-0.129947
-0.132992
-0.133752
-0.127192
-0.114721
-0.0992551
-0.0902623
-0.0787802
-0.078521
-0.0620014
-0.0411159
0.0100744
0.0864895
0.188857
0.299071
0.425081
0.572662
0.72226
0.8403
0.943829
1.00971
1.02496
1.03331
1.0488
1.06813
1.08181
1.06593
1.0336
1.00524
0.995071
0.972267
0.926053
0.827925
0.613096
0.401375
0.274257
0.214129
0.192099
0.176115
0.172646
0.176527
0.180279
0.182775
0.185334
0.189206
0.197743
0.197021
0.187283
0.18202
0.182969
0.188574
0.205931
0.2375
0.282591
0.343618
0.417749
0.461536
0.516576
0.543522
0.510419
0.536376
-0.0186826
0.00136614
0.0108138
0.020517
0.0243017
0.0155885
0.00980021
-0.00737402
-0.0168943
-0.00844548
-0.0025712
0.000926943
0.00287536
0.0060002
0.00767943
0.00921973
0.0073578
0.000146789
-0.00904285
-0.00234138
0.0056601
0.00322521
0.00928401
0.0085917
0.00248473
-0.000240533
-0.00820158
-0.0102263
-0.0121876
-0.0113605
-0.0103003
-0.0115727
-0.0151292
-0.0641298
-0.266235
-0.677214
-0.768107
-0.649414
-0.45926
-0.320843
-0.216135
-0.169496
-0.145776
-0.131796
-0.130877
-0.126025
-0.129102
-0.131171
-0.13324
-0.131978
-0.124964
-0.118314
-0.111072
-0.108916
-0.110694
-0.113536
-0.11177
-0.11003
-0.11188
-0.110848
-0.113574
-0.107771
-0.0970226
-0.0623001
-0.0154006
0.0409683
0.090466
0.121123
0.145684
0.184035
0.26046
0.36485
0.476833
0.544718
0.621918
0.709526
0.808899
0.880508
0.923419
0.961735
1.00081
1.01386
1.00225
1.01387
1.03025
1.07338
1.08759
1.07994
1.04555
0.984466
0.861436
0.659166
0.468284
0.359139
0.300714
0.25724
0.232297
0.221671
0.212365
0.207439
0.207701
0.212254
0.219266
0.225853
0.220273
0.209498
0.204675
0.204619
0.210808
0.227625
0.255485
0.295384
0.352928
0.424918
0.472938
0.535005
0.563523
0.536711
0.548419
0.0445695
-0.000334061
-0.0086288
-0.0110715
0.0015493
0.00522688
0.0125573
0.0138098
0.0164574
0.00992544
0.00530736
0.00250457
-0.0095756
-0.015386
-0.00691261
-0.00316686
0.00283131
0.00382408
0.00931113
0.0116054
0.0118063
0.00676284
0.00568908
-0.000888854
-0.00714471
-0.00990234
-0.0118287
-0.0124387
-0.0128329
-0.0119312
-0.0114567
-0.0121705
-0.032977
-0.110356
-0.436038
-0.80648
-0.798917
-0.689604
-0.508852
-0.321186
-0.199024
-0.1541
-0.119464
-0.0979013
-0.0932915
-0.0970229
-0.102913
-0.114167
-0.121398
-0.123505
-0.122019
-0.113924
-0.104225
-0.101826
-0.100826
-0.0996681
-0.0945876
-0.0824642
-0.0603503
-0.0279964
0.0102313
0.041231
0.0485637
0.0693888
0.121761
0.189776
0.262942
0.307671
0.34508
0.371957
0.425439
0.511098
0.582096
0.643776
0.690449
0.753797
0.807588
0.85968
0.894656
0.9458
0.98555
1.0186
1.04482
1.06427
1.07722
1.05732
1.0483
1.03904
1.00738
0.948293
0.813106
0.630401
0.499898
0.403073
0.337097
0.295448
0.268418
0.25033
0.242139
0.243239
0.248126
0.251154
0.252137
0.247256
0.235486
0.224438
0.222241
0.222272
0.229109
0.244806
0.270143
0.307584
0.362866
0.433612
0.482235
0.549033
0.57706
0.565559
0.560071
-0.00677571
0.00439774
0.0105664
0.0125767
0.0141831
0.0115894
0.00948428
0.00062402
-0.00781752
-0.00413954
-0.00144676
0.00560659
0.00438419
0.00343733
0.00252109
0.0028085
0.00250609
0.000295575
-4.8043e-05
-0.0022781
0.00243188
0.00135891
0.00425478
0.0056018
0.00204894
-0.000389575
-0.00316796
-0.00783697
-0.010791
-0.0145302
-0.0136914
-0.0209566
-0.0541669
-0.200179
-0.624139
-0.832602
-0.817518
-0.748121
-0.622871
-0.431053
-0.256449
-0.154867
-0.130098
-0.135274
-0.137465
-0.145339
-0.141172
-0.125623
-0.112071
-0.100297
-0.0896911
-0.0733531
-0.0512685
-0.0258194
0.00337015
0.0099177
0.00571633
0.0130249
0.0204225
0.0381242
0.0716001
0.116705
0.169774
0.215389
0.26906
0.316986
0.369015
0.413853
0.454287
0.496339
0.559072
0.629247
0.677572
0.703274
0.728098
0.76978
0.806389
0.849931
0.878813
0.91656
0.952213
0.965725
1.00574
1.02276
1.04128
1.05762
1.05165
1.03578
0.997679
0.919502
0.783552
0.63289
0.508298
0.419251
0.364335
0.323817
0.293894
0.276717
0.271101
0.276561
0.278295
0.274641
0.268578
0.258423
0.245848
0.240039
0.239011
0.239494
0.24608
0.259523
0.282607
0.318145
0.369625
0.440345
0.486981
0.562311
0.590426
0.60059
0.565154
0.0257091
0.00256232
-0.00129514
-0.000253307
0.00231504
0.00371187
0.011459
0.010242
0.00526327
0.00150843
0.000703851
0.00277331
-0.000265916
-0.00218069
-0.00116559
9.54258e-05
0.00128951
0.00170243
0.00355766
0.00193708
0.00330696
0.000447003
0.000842202
0.000576904
-0.00081252
-0.00264153
-0.00445675
-0.00422968
-0.00481797
-0.00673563
-0.00514302
-0.0163757
-0.0756276
-0.305909
-0.699193
-0.739586
-0.7274
-0.65751
-0.569904
-0.409282
-0.244569
-0.153278
-0.0955574
-0.0630908
-0.0437138
-0.0478572
-0.0442507
-0.0457666
-0.0475536
-0.0448612
-0.038298
-0.0291657
-0.0107181
0.0173131
0.0503699
0.0933983
0.114839
0.125583
0.134195
0.147646
0.171017
0.204277
0.250411
0.304997
0.360184
0.408209
0.466465
0.506197
0.550025
0.580394
0.631804
0.67516
0.710611
0.730267
0.749609
0.782631
0.804878
0.839592
0.859525
0.892696
0.918534
0.933132
0.968482
0.982784
0.993448
1.00618
0.993111
0.969644
0.931275
0.853498
0.732874
0.597004
0.499634
0.430792
0.382219
0.344568
0.318304
0.304141
0.302524
0.30652
0.300245
0.288848
0.277141
0.265061
0.257176
0.255894
0.255244
0.256131
0.261275
0.272999
0.294044
0.327838
0.375491
0.445036
0.494524
0.568479
0.610008
0.623091
0.576494
-1.6957e-05
0.00873507
0.00958681
0.0117702
0.0090617
0.00570567
0.00683722
0.00427822
-0.00175123
-0.00190589
-0.0012908
0.00285822
0.00433553
0.00389999
0.00290093
0.00269995
0.00157253
0.000557449
0.000321956
-0.000342355
-0.000250955
-0.00185601
-0.000341164
-0.000347581
-0.0008705
-0.00165374
-0.00281172
-0.0054742
-0.0065176
-0.00683166
-0.0093933
-0.0353335
-0.145467
-0.434978
-0.706958
-0.647545
-0.590206
-0.523852
-0.429829
-0.325335
-0.215932
-0.133596
-0.0953232
-0.0722825
-0.0554579
-0.0538554
-0.0492811
-0.0350623
-0.0168418
0.00183253
0.0100809
0.0193789
0.0308091
0.0554326
0.0888604
0.119349
0.142576
0.155107
0.167253
0.180215
0.202803
0.236007
0.286675
0.354966
0.4225
0.47241
0.519356
0.559102
0.603541
0.633509
0.672411
0.709753
0.734993
0.7476
0.759181
0.782412
0.800959
0.828753
0.839699
0.861084
0.874823
0.885182
0.910979
0.918129
0.919267
0.933344
0.91946
0.891958
0.853942
0.781659
0.675583
0.570924
0.496902
0.4381
0.393001
0.358803
0.336926
0.326035
0.327171
0.32572
0.313645
0.296854
0.283746
0.274741
0.272249
0.271683
0.269803
0.270586
0.274619
0.285358
0.305345
0.337253
0.380663
0.448977
0.50055
0.575835
0.624148
0.643472
0.589785
0.0101151
0.00458384
0.00668281
0.00747997
0.00566185
0.0046243
0.00694485
0.00577216
0.00191467
-0.000523256
-0.000793304
0.00103514
0.00243157
0.00301206
0.00316301
0.00280504
0.00243531
0.00184082
0.0017585
4.19372e-05
-0.000134677
-0.00201779
-0.00289417
-0.00200347
-0.00261015
-0.00339978
-0.00397027
-0.00507869
-0.00554739
-0.0060253
-0.00706104
-0.0500934
-0.221112
-0.506897
-0.504436
-0.402574
-0.339334
-0.319679
-0.297637
-0.231791
-0.151761
-0.0727668
-0.0353495
-0.0140076
-0.0115568
-0.0148949
-0.00714169
0.00270411
0.0226954
0.0440009
0.0687454
0.0985956
0.130811
0.163605
0.19148
0.212347
0.224867
0.23304
0.236272
0.239391
0.254828
0.285675
0.332027
0.391343
0.452218
0.511138
0.565596
0.601616
0.646569
0.668883
0.697503
0.723017
0.738908
0.748808
0.75796
0.778111
0.78996
0.811318
0.818146
0.833634
0.834106
0.846342
0.858969
0.856235
0.847211
0.85329
0.842859
0.814966
0.77655
0.716693
0.629848
0.552519
0.492895
0.439919
0.400362
0.37245
0.356239
0.349189
0.349289
0.342074
0.324652
0.306586
0.296081
0.290307
0.288398
0.284973
0.281678
0.282532
0.286443
0.297251
0.317009
0.347062
0.38707
0.452733
0.506628
0.580883
0.635983
0.661889
0.603297
0.00335755
0.0063128
0.0107094
0.0108543
0.00900716
0.00534045
0.00487444
0.00334171
-9.66262e-05
-0.00134643
-0.00109476
0.0010542
0.00279598
0.00375804
0.00423819
0.00399006
0.0027135
0.00185087
0.00143465
0.000226888
-0.000718621
-0.00225818
-0.00305275
-0.00354223
-0.00394077
-0.0048934
-0.00564205
-0.00693388
-0.00880703
-0.0116369
-0.020582
-0.0943461
-0.293907
-0.352016
-0.288643
-0.255209
-0.247569
-0.258772
-0.259516
-0.216285
-0.158878
-0.0912272
-0.0786392
-0.0769572
-0.0809507
-0.0772137
-0.0513719
-0.0268683
0.00547413
0.0323907
0.0690967
0.113517
0.157971
0.202931
0.244958
0.282235
0.296875
0.292187
0.297302
0.289088
0.304231
0.335259
0.373931
0.420237
0.471498
0.523386
0.57793
0.613792
0.65872
0.679702
0.70123
0.718886
0.730111
0.736597
0.744469
0.755217
0.759764
0.766564
0.7646
0.770812
0.762986
0.775819
0.783566
0.773457
0.770584
0.760775
0.760958
0.745709
0.715778
0.666386
0.598028
0.536118
0.487111
0.44009
0.406635
0.386734
0.374772
0.369637
0.367262
0.35544
0.335505
0.319678
0.3121
0.307678
0.303852
0.298354
0.293262
0.293166
0.297555
0.308917
0.328365
0.356513
0.393424
0.455989
0.511829
0.586074
0.645652
0.67899
0.616754
0.00425286
0.00434029
0.00960034
0.0109513
0.00894271
0.00625443
0.00458614
0.00285658
0.000678419
-0.000724778
-0.000820696
0.000380792
0.00173482
0.00308336
0.00406158
0.0041469
0.00407946
0.00281558
0.00205947
0.000417877
-0.000666609
-0.00179884
-0.00328569
-0.00378354
-0.00477112
-0.0050896
-0.00629933
-0.00769836
-0.00997884
-0.0156084
-0.0285702
-0.135354
-0.146635
-0.0679197
-0.0182064
-0.0391675
-0.0868089
-0.153395
-0.188975
-0.156572
-0.107851
-0.0732539
-0.074847
-0.0906946
-0.119508
-0.133255
-0.122651
-0.0995193
-0.0807185
-0.0531343
-0.0163011
0.0401111
0.10661
0.172817
0.246911
0.302858
0.348024
0.374486
0.397594
0.388874
0.390393
0.387618
0.402771
0.427741
0.466811
0.516804
0.571826
0.617309
0.65623
0.678589
0.682548
0.697836
0.707488
0.709336
0.710519
0.719143
0.726462
0.728405
0.721233
0.724483
0.720009
0.716049
0.718271
0.704231
0.705696
0.690534
0.693925
0.68659
0.664428
0.626856
0.572863
0.525029
0.481734
0.44057
0.414016
0.401343
0.392313
0.388214
0.382582
0.367572
0.346804
0.334057
0.32907
0.324727
0.318767
0.310311
0.303617
0.302699
0.308584
0.320271
0.339188
0.365405
0.400492
0.459507
0.518742
0.591703
0.654347
0.694478
0.629184
0.00287058
0.00462373
0.00964408
0.0115955
0.00963862
0.00628354