/*--------------------------------*- C++ -*----------------------------------*\
| =========                 |                                                 |
| \\      /  F ield         | OpenFOAM: The Open Source CFD Toolbox           |
|  \\    /   O peration     | Version:  2.2.x                                 |
|   \\  /    A nd           | Web:      www.OpenFOAM.org                      |
|    \\/     M anipulation  |                                                 |
\*---------------------------------------------------------------------------*/
FoamFile
{
    version     2.0;
    format      ascii;
    class       volScalarField;
    location    "2.2";
    object      Bx;
}
// * * * * * * * * * * * * * * * * * * * * * * * * * * * * * * * * * * * * * //

dimensions      [1 0 -2 0 0 -1 0];

internalField   nonuniform List<scalar> 
14161
(
1.00327
1.00238
1.00257
1.00264
1.00276
1.0029
1.00306
1.00324
1.00344
1.00366
1.00388
1.00412
1.00437
1.00461
1.00486
1.00512
1.00534
1.00558
1.0058
1.00599
1.00617
1.00632
1.00644
1.00653
1.0066
1.00664
1.00663
1.00658
1.0065
1.00636
1.00617
1.00593
1.00562
1.00526
1.00478
1.00425
1.00355
1.00277
1.00154
1.00012
0.997911
0.99631
0.991483
0.992559
0.963638
0.914418
0.921779
0.950701
0.999989
1.04495
1.08029
1.10576
1.12611
1.144
1.15768
1.16913
1.17974
1.18789
1.194
1.19825
1.20086
1.20267
1.20406
1.20514
1.20596
1.20671
1.20737
1.20808
1.20884
1.20977
1.21066
1.2114
1.21229
1.21342
1.21469
1.2161
1.21766
1.21955
1.2221
1.22474
1.22722
1.2297
1.23275
1.23701
1.24157
1.24563
1.24972
1.25367
1.25742
1.26168
1.26681
1.27149
1.27593
1.28098
1.28708
1.29305
1.29805
1.30403
1.31168
1.31826
1.32545
1.33116
1.33489
1.33729
1.34134
1.34978
1.36087
1.37288
1.33624
1.21643
1.0509
0.879385
0.724644
0.591281
0.466373
0.355563
0.239932
0.147845
0.040471
1.00327
1.00238
1.00257
1.00264
1.00276
1.0029
1.00306
1.00325
1.00344
1.00366
1.00388
1.00412
1.00437
1.00461
1.00487
1.00512
1.00535
1.00558
1.0058
1.00599
1.00617
1.00633
1.00645
1.00654
1.00661
1.00664
1.00664
1.00659
1.00651
1.00638
1.00618
1.00595
1.00566
1.00528
1.00485
1.00429
1.00367
1.00284
1.00182
1.00069
0.998798
0.997364
0.992976
0.992757
0.968776
0.939597
0.952015
0.984061
1.02095
1.04936
1.076
1.09862
1.11725
1.13304
1.14614
1.15845
1.16934
1.17834
1.18592
1.19167
1.19591
1.19932
1.20181
1.20354
1.2049
1.20601
1.20703
1.20796
1.20877
1.20972
1.21065
1.21161
1.21256
1.21362
1.21483
1.21613
1.21774
1.21929
1.22153
1.22411
1.22669
1.22966
1.23215
1.23571
1.23979
1.24382
1.2481
1.252
1.25603
1.26016
1.26499
1.26971
1.27454
1.27965
1.28551
1.29128
1.29695
1.30296
1.31027
1.31676
1.3228
1.32894
1.33204
1.33406
1.33846
1.34443
1.34659
1.30106
1.18382
1.01128
0.831667
0.691107
0.562677
0.449418
0.340006
0.246475
0.15743
0.106747
0.0430747
1.00327
1.00238
1.00257
1.00264
1.00276
1.0029
1.00306
1.00324
1.00344
1.00366
1.00388
1.00412
1.00437
1.00462
1.00487
1.00512
1.00535
1.00559
1.0058
1.006
1.00618
1.00633
1.00645
1.00655
1.00662
1.00665
1.00666
1.00661
1.00653
1.0064
1.00623
1.006
1.00571
1.00536
1.00496
1.00444
1.00386
1.00312
1.0023
1.00145
1.00038
0.999734
0.999339
0.998831
1.00184
1.00489
1.01062
1.03301
1.0476
1.06051
1.07623
1.09162
1.10908
1.12216
1.13624
1.14935
1.1598
1.16973
1.17865
1.1856
1.19136
1.19554
1.19888
1.20159
1.20371
1.20535
1.20667
1.20792
1.20901
1.21021
1.21129
1.21242
1.21352
1.21466
1.21593
1.21715
1.21882
1.22026
1.22229
1.22494
1.22755
1.23052
1.23328
1.23654
1.24051
1.24434
1.24849
1.2523
1.25643
1.26048
1.26546
1.26993
1.27475
1.27925
1.28527
1.29104
1.29658
1.30243
1.30965
1.31732
1.32337
1.32983
1.33015
1.33056
1.33373
1.32937
1.28169
1.13638
0.924285
0.74801
0.618716
0.521177
0.427553
0.343785
0.25594
0.182645
0.115754
0.079988
0.0238094
1.00327
1.00239
1.00257
1.00264
1.00276
1.0029
1.00306
1.00325
1.00345
1.00366
1.00389
1.00412
1.00437
1.00462
1.00487
1.00512
1.00536
1.00559
1.00581
1.00601
1.00618
1.00634
1.00647
1.00657
1.00663
1.00668
1.00668
1.00665
1.00657
1.00646
1.00631
1.00609
1.00583
1.00551
1.00514
1.00468
1.00416
1.00355
1.00298
1.00243
1.00227
1.00238
1.00533
1.00338
1.03264
1.07421
1.06366
1.06585
1.0626
1.06899
1.07684
1.0895
1.10421
1.11688
1.13199
1.1464
1.15771
1.16891
1.17873
1.18585
1.1922
1.19704
1.20096
1.20418
1.20647
1.20836
1.20975
1.21125
1.21249
1.21391
1.2152
1.21654
1.21783
1.2191
1.22047
1.22175
1.22337
1.22519
1.22714
1.22998
1.2327
1.2361
1.23887
1.24231
1.24635
1.24994
1.25393
1.25793
1.26224
1.26632
1.27112
1.27531
1.28035
1.28453
1.2906
1.29608
1.30149
1.308
1.31531
1.32283
1.32885
1.334
1.33325
1.33183
1.32548
1.26546
1.10336
0.875367
0.707662
0.589418
0.500306
0.428059
0.358398
0.293366
0.222071
0.161613
0.101228
0.0688695
0.0134897
1.00327
1.00239
1.00257
1.00264
1.00276
1.0029
1.00307
1.00325
1.00345
1.00366
1.00389
1.00412
1.00437
1.00462
1.00487
1.00512
1.00536
1.00559
1.00581
1.00602
1.0062
1.00636
1.00649
1.00659
1.00666
1.00671
1.00672
1.0067
1.00664
1.00654
1.0064
1.00622
1.006
1.00572
1.00538
1.00499
1.00452
1.00402
1.00351
1.00297
1.00261
1.00214
1.00358
1.00043
1.02068
1.07347
1.07797
1.0725
1.06965
1.07413
1.08664
1.09938
1.11561
1.12972
1.1472
1.16204
1.17373
1.18575
1.19455
1.20042
1.2061
1.21067
1.21368
1.21594
1.21782
1.21943
1.22082
1.22223
1.22351
1.22493
1.22629
1.22769
1.22901
1.23023
1.23156
1.2328
1.23408
1.236
1.23723
1.23974
1.24275
1.24622
1.24905
1.25201
1.25601
1.25912
1.26292
1.2669
1.2713
1.27517
1.27944
1.28348
1.28907
1.29315
1.29867
1.30376
1.31001
1.31665
1.32429
1.33374
1.34174
1.34222
1.34322
1.33029
1.27624
1.10507
0.870729
0.71016
0.590288
0.500539
0.437583
0.381543
0.321972
0.270011
0.213419
0.166213
0.107653
0.072628
0.0141998
1.00326
1.00239
1.00257
1.00265
1.00276
1.0029
1.00307
1.00325
1.00345
1.00366
1.00389
1.00413
1.00437
1.00463
1.00488
1.00512
1.00537
1.0056
1.00582
1.00603
1.00621
1.00637
1.00651
1.00662
1.00669
1.00675
1.00678
1.00677
1.00673
1.00665
1.00654
1.00639
1.00621
1.00599
1.00572
1.00539
1.00499
1.00459
1.00411
1.00366
1.00327
1.00324
1.00461
1.00523
1.01566
1.0258
1.04704
1.04919
1.05745
1.07534
1.09389
1.11004
1.12922
1.14637
1.16604
1.18085
1.19501
1.2087
1.21661
1.22131
1.22731
1.23175
1.23494
1.23735
1.23912
1.24048
1.24177
1.24279
1.24386
1.24497
1.24605
1.24722
1.24837
1.24931
1.25031
1.25144
1.25221
1.25369
1.25463
1.25617
1.2589
1.26223
1.26473
1.26692
1.27041
1.27312
1.27642
1.28005
1.28428
1.2879
1.2917
1.29567
1.3011
1.30546
1.31067
1.31647
1.32277
1.3297
1.33879
1.35094
1.35792
1.35476
1.35041
1.29859
1.1319
0.908768
0.734709
0.616574
0.526357
0.460717
0.410337
0.356545
0.304651
0.261716
0.215632
0.178293
0.121212
0.0836215
0.0217638
1.00326
1.00238
1.00257
1.00264
1.00276
1.00291
1.00307
1.00325
1.00345
1.00366
1.00389
1.00413
1.00437
1.00463
1.00488
1.00513
1.00538
1.00561
1.00583
1.00604
1.00623
1.00639
1.00654
1.00666
1.00675
1.0068
1.00684
1.00686
1.00684
1.00678
1.0067
1.0066
1.00647
1.00631
1.0061
1.00586
1.00556
1.00518
1.00467
1.00386
1.00262
1.00147
0.999327
0.993855
0.988052
0.967728
0.983613
1.00663
1.03728
1.07645
1.11146
1.13666
1.16368
1.1819
1.20129
1.21412
1.22781
1.24002
1.2455
1.24811
1.25512
1.25843
1.26177
1.26565
1.26754
1.26928
1.27065
1.27191
1.2729
1.27356
1.27445
1.27544
1.27621
1.27684
1.27764
1.27849
1.27909
1.27958
1.28091
1.28164
1.28369
1.28588
1.28797
1.28934
1.29232
1.29465
1.29698
1.30003
1.30362
1.30708
1.31078
1.31467
1.31995
1.32418
1.32947
1.33541
1.34212
1.34862
1.3578
1.36578
1.37005
1.36174
1.32595
1.17822
0.956889
0.790891
0.669188
0.568141
0.491959
0.442635
0.39698
0.34928
0.30171
0.260509
0.216943
0.182077
0.130465
0.0958705
0.0337445
1.00325
1.00238
1.00257
1.00264
1.00276
1.00291
1.00307
1.00325
1.00345
1.00366
1.00389
1.00413
1.00437
1.00463
1.00489
1.00513
1.00539
1.00562
1.00584
1.00606
1.00625
1.00642
1.00658
1.00671
1.00681
1.00687
1.00692
1.00695
1.00696
1.00694
1.0069
1.00684
1.00676
1.00668
1.00658
1.00646
1.00633
1.00614
1.00585
1.00529
1.00417
1.00243
0.99819
0.996103
0.96178
0.930284
0.948586
0.981667
1.02922
1.08053
1.11585
1.1473
1.1767
1.19577
1.21938
1.23429
1.25098
1.26335
1.27045
1.27342
1.27872
1.28195
1.28845
1.29311
1.29551
1.29874
1.30067
1.30231
1.30388
1.30465
1.30547
1.30653
1.30719
1.30788
1.30869
1.30928
1.30994
1.31021
1.31143
1.31209
1.31313
1.31407
1.31571
1.31636
1.31853
1.31972
1.32122
1.32364
1.32644
1.32906
1.33204
1.33538
1.33941
1.34308
1.34733
1.35342
1.35941
1.36336
1.36841
1.36902
1.37373
1.3394
1.21268
1.01252
0.843853
0.723201
0.632205
0.550133
0.485581
0.436956
0.388725
0.342789
0.296907
0.256609
0.214699
0.181532
0.136233
0.105944
0.0500325
1.00325
1.00238
1.00257
1.00264
1.00276
1.0029
1.00307
1.00325
1.00345
1.00366
1.00389
1.00413
1.00438
1.00464
1.00489
1.00514
1.0054
1.00564
1.00586
1.00608
1.00628
1.00646
1.00662
1.00677
1.00688
1.00697
1.00703
1.00707
1.00711
1.00713
1.00713
1.00712
1.00711
1.0071
1.00711
1.00713
1.00719
1.00727
1.00736
1.00743
1.00729
1.00709
1.00467
1.00547
0.995981
0.955116
0.965573
1.02186
1.07533
1.1238
1.15366
1.18909
1.21511
1.23223
1.25573
1.26712
1.28332
1.29326
1.30242
1.30934
1.30918
1.31189
1.31848
1.31929
1.32421
1.32707
1.32806
1.33027
1.3315
1.33258
1.33338
1.33443
1.33542
1.33607
1.33699
1.33742
1.33852
1.33884
1.3398
1.34079
1.34181
1.34337
1.34414
1.34443
1.34548
1.34611
1.34692
1.34895
1.35088
1.35247
1.35444
1.35708
1.35955
1.36113
1.36374
1.36635
1.36813
1.36879
1.3702
1.36498
1.34443
1.24287
1.04431
0.876644
0.758414
0.661274
0.590845
0.529525
0.483023
0.433505
0.385493
0.339098
0.294561
0.253398
0.212774
0.180647
0.140426
0.115281
0.0671138
1.00324
1.00238
1.00256
1.00264
1.00276
1.0029
1.00307
1.00325
1.00345
1.00367
1.0039
1.00413
1.00438
1.00464
1.0049
1.00515
1.0054
1.00565
1.00588
1.0061
1.00631
1.0065
1.00667
1.00683
1.00696
1.00706
1.00714
1.00721
1.00728
1.00734
1.00739
1.00743
1.00749
1.00758
1.0077
1.00788
1.00815
1.00855
1.00917
1.01015
1.0117
1.01426
1.01856
1.02335
1.03663
1.04709
1.06901
1.13795
1.1695
1.19831
1.2149
1.24526
1.26526
1.28576
1.30709
1.31119
1.32579
1.33156
1.33264
1.3438
1.343
1.34188
1.34431
1.345
1.3479
1.34831
1.35031
1.35175
1.35266
1.35383
1.35474
1.35561
1.35649
1.35703
1.35777
1.35835
1.35873
1.36009
1.361
1.36182
1.36322
1.36448
1.36589
1.36594
1.36616
1.36696
1.36662
1.36729
1.36818
1.36865
1.36835
1.36914
1.36947
1.36813
1.36967
1.3698
1.36878
1.36289
1.35371
1.31859
1.21214
1.04504
0.870761
0.769617
0.683569
0.61437
0.553049
0.503514
0.458526
0.41147
0.366654
0.322382
0.281031
0.243089
0.206079
0.176908
0.141875
0.120237
0.0798065
1.00323
1.00237
1.00256
1.00263
1.00276
1.0029
1.00306
1.00325
1.00345
1.00366
1.00389
1.00413
1.00438
1.00464
1.0049
1.00516
1.00541
1.00566
1.0059
1.00613
1.00635
1.00654
1.00672
1.00689
1.00704
1.00717
1.00727
1.00737
1.00747
1.00756
1.00767
1.00776
1.00789
1.00804
1.00826
1.00856
1.00897
1.00951
1.01022
1.01119
1.01258
1.01429
1.01708
1.01905
1.02381
1.12624
1.23271
1.29153
1.2949
1.29933
1.30111
1.31444
1.3214
1.33742
1.34473
1.35305
1.35977
1.36312
1.36144
1.36599
1.36875
1.36647
1.36566
1.36577
1.36602
1.36531
1.36673
1.36702
1.36776
1.36844
1.36913
1.36967
1.37019
1.37049
1.37108
1.37144
1.37207
1.37263
1.37413
1.37463
1.37574
1.37672
1.37801
1.37834
1.37822
1.37842
1.37764
1.37686
1.37639
1.37566
1.37407
1.37287
1.37153
1.36936
1.36425
1.36039
1.34732
1.31396
1.26166
1.13412
0.955378
0.801
0.719637
0.64854
0.611561
0.564959
0.523259
0.486262
0.44348
0.400802
0.359605
0.316823
0.27837
0.24301
0.208816
0.18196
0.149618
0.128503
0.0932297
1.00322
1.00237
1.00255
1.00263
1.00275
1.0029
1.00306
1.00324
1.00344
1.00366
1.00389
1.00413
1.00438
1.00464
1.0049
1.00517
1.00542
1.00568
1.00593
1.00616
1.00638
1.0066
1.00679
1.00696
1.00713
1.00728
1.00742
1.00754
1.00767
1.0078
1.00794
1.0081
1.00827
1.00848
1.00877
1.00917
1.0097
1.01046
1.01138
1.01281
1.01499
1.01833
1.02424
1.03082
1.06175
1.15802
1.30142
1.32105
1.33492
1.34167
1.34251
1.35321
1.359
1.37084
1.36691
1.37599
1.37536
1.3772
1.37937
1.37503
1.37923
1.37817
1.37618
1.37517
1.37436
1.37439
1.37505
1.37518
1.37602
1.37656
1.37688
1.37724
1.37767
1.3779
1.3787
1.3791
1.38042
1.38044
1.38189
1.38223
1.38241
1.38282
1.38337
1.38287
1.38207
1.3817
1.38065
1.37919
1.37812
1.37641
1.37242
1.36568
1.35927
1.34728
1.3237
1.29376
1.24077
1.13925
0.994798
0.821668
0.699869
0.642176
0.587414
0.545308
0.524642
0.500357
0.477244
0.450332
0.414731
0.383613
0.346036
0.309222
0.273765
0.241512
0.209741
0.184442
0.154668
0.134912
0.104406
1.00321
1.00236
1.00255
1.00263
1.00275
1.00289
1.00306
1.00324
1.00344
1.00365
1.00389
1.00413
1.00438
1.00464
1.00491
1.00517
1.00543
1.0057
1.00596
1.00619
1.00643
1.00666
1.00686
1.00705
1.00723
1.00741
1.00757
1.00772
1.00787
1.00803
1.00821
1.0084
1.00861
1.00884
1.00912
1.00947
1.00987
1.01034
1.01094
1.01148
1.01213
1.01156
1.01224
0.995281
1.04856
1.12232
1.16428
1.21161
1.28523
1.32323
1.34622
1.3657
1.36354
1.3764
1.37109
1.37861
1.37824
1.37652
1.38264
1.37656
1.37706
1.37894
1.3772
1.3757
1.37406
1.375
1.37554
1.37605
1.37692
1.37754
1.37813
1.37871
1.37931
1.37971
1.38078
1.38109
1.38279
1.3823
1.38347
1.38331
1.38324
1.38336
1.38367
1.38284
1.38099
1.37917
1.37542
1.36915
1.36325
1.35306
1.33812
1.31485
1.2836
1.23879
1.16712
1.06818
0.95443
0.79603
0.668942
0.589227
0.518866
0.493479
0.491598
0.479198
0.471807
0.457314
0.443045
0.421065
0.396941
0.368246
0.335513
0.303147
0.270954
0.242126
0.212599
0.18944
0.162548
0.144434
0.117944
1.0032
1.00235
1.00254
1.00262
1.00274
1.00289
1.00305
1.00323
1.00344
1.00365
1.00388
1.00413
1.00438
1.00464
1.00491
1.00518
1.00544
1.00572
1.00599
1.00623
1.00647
1.00672
1.00695
1.00715
1.00734
1.00754
1.00773
1.00791
1.00808
1.00826
1.00846
1.00868
1.00891
1.00914
1.0094
1.0097
1.01004
1.01041
1.01085
1.01143
1.01214
1.01284
1.01454
1.01325
1.05785
1.10825
1.11541
1.1627
1.22888
1.29161
1.32916
1.34405
1.3511
1.35842
1.36204
1.36716
1.37146
1.36934
1.37537
1.37194
1.36958
1.37346
1.37146
1.37091
1.37024
1.37101
1.37184
1.37261
1.37368
1.37422
1.37478
1.37548
1.37571
1.37621
1.37731
1.37691
1.37849
1.37835
1.37878
1.37841
1.37643
1.37401
1.37097
1.36668
1.35924
1.34991
1.33574
1.31246
1.28703
1.24976
1.19637
1.12694
1.04274
0.945034
0.82421
0.708475
0.61066
0.538207
0.461016
0.423923
0.406308
0.39714
0.40186
0.406552
0.411142
0.410854
0.407509
0.399021
0.383085
0.357703
0.329419
0.29985
0.270226
0.243435
0.215479
0.193799
0.169197
0.152718
0.129972
1.00318
1.00235
1.00253
1.00261
1.00274
1.00288
1.00304
1.00323
1.00343
1.00364
1.00387
1.00412
1.00438
1.00463
1.00491
1.00519
1.00546
1.00574
1.00601
1.00628
1.00653
1.00679
1.00703
1.00726
1.00746
1.00768
1.0079
1.0081
1.0083
1.0085
1.00871
1.00893
1.00917
1.0094
1.0096
1.00981
1.00998
1.01017
1.0102
1.01046
1.01002
1.01167
1.00674
1.03936
1.09132
1.10157
1.10737
1.12312
1.15668
1.20106
1.27091
1.29385
1.32688
1.32741
1.34396
1.35095
1.35756
1.36085
1.36156
1.36741
1.36401
1.36509
1.36409
1.36442
1.36499
1.3652
1.36566
1.36616
1.36708
1.36739
1.36757
1.36811
1.368
1.36739
1.36726
1.36528
1.36406
1.36156
1.35711
1.35262
1.34483
1.33211
1.31693
1.29587
1.26855
1.23087
1.18216
1.11837
1.04567
0.966033
0.872459
0.773165
0.680153
0.603457
0.537685
0.472256
0.414473
0.374901
0.341272
0.324053
0.325592
0.335639
0.352016
0.365324
0.373282
0.378908
0.38108
0.377063
0.365635
0.346715
0.322382
0.296336
0.269601
0.24499
0.219049
0.199507
0.177255
0.162715
0.14315
1.00317
1.00234
1.00252
1.0026
1.00273
1.00287
1.00304
1.00322
1.00342
1.00364
1.00387
1.00412
1.00438
1.00464
1.00491
1.0052
1.00547
1.00576
1.00604
1.00632
1.00659
1.00686
1.00712
1.00737
1.0076
1.00783
1.00808
1.00832
1.00853
1.00874
1.00895
1.00917
1.0094
1.00962
1.00977
1.00985
1.00987
1.00975
1.00937
1.00887
1.00713
1.00644
0.992014
1.01821
1.07713
1.07716
1.08156
1.09009
1.10453
1.13269
1.17709
1.23273
1.28631
1.29952
1.3276
1.33491
1.34714
1.3564
1.35267
1.36224
1.36175
1.35749
1.35852
1.35715
1.35723
1.35664
1.35589
1.35523
1.35462
1.35378
1.35132
1.3498
1.3467
1.34172
1.33674
1.32867
1.31734
1.30421
1.28455
1.26031
1.23074
1.18788
1.1358
1.07599
1.00973
0.936566
0.854238
0.769901
0.691784
0.624813
0.568013
0.51528
0.459922
0.415026
0.375823
0.343136
0.309432
0.289474
0.274435
0.267825
0.27654
0.290815
0.311521
0.328726
0.341141
0.352113
0.35977
0.359993
0.353881
0.339252
0.318285
0.295476
0.270676
0.247508
0.223614
0.205587
0.185165
0.172289
0.155499
1.00316
1.00233
1.00251
1.00259
1.00272
1.00286
1.00303
1.00321
1.00341
1.00363
1.00386
1.00411
1.00437
1.00463
1.00491
1.0052
1.00549
1.00578
1.00607
1.00637
1.00665
1.00693
1.00722
1.00749
1.00775
1.008
1.00827
1.00853
1.00877
1.00899
1.00921
1.00943
1.00964
1.00985
1.01001
1.01011
1.01018
1.01021
1.0102
1.01026
1.0102
1.01115
1.00608
1.02738
1.07488
1.07383
1.08047
1.08625
1.09532
1.10923
1.13346
1.18032
1.23975
1.29013
1.32482
1.33891
1.35314
1.35536
1.34981
1.35564
1.35567
1.35249
1.35181
1.34908
1.34711
1.3434
1.33884
1.33458
1.3279
1.32118
1.31059
1.29754
1.2831
1.26321
1.23896
1.20999
1.16975
1.12413
1.07278
1.01243
0.949268
0.877243
0.801002
0.729962
0.66545
0.611621
0.567012
0.521803
0.47719
0.437773
0.403621
0.376217
0.344097
0.318266
0.2952
0.277072
0.25764
0.24518
0.239707
0.237287
0.247575
0.263344
0.28565
0.305031
0.319475
0.333541
0.343711
0.346005
0.343894
0.332483
0.315588
0.295604
0.272758
0.25177
0.229525
0.21305
0.194421
0.18332
0.168869
1.00314
1.00232
1.0025
1.00259
1.00271
1.00285
1.00302
1.0032
1.0034
1.00362
1.00385
1.0041
1.00437
1.00463
1.00492
1.00521
1.00551
1.0058
1.0061
1.00641
1.00671
1.00701
1.00732
1.00761
1.0079
1.00818
1.00846
1.00875
1.00903
1.00926
1.00948
1.00969
1.00989
1.01008
1.01027
1.01044
1.01061
1.01088
1.01141
1.01208
1.01452
1.01514
1.03801
1.06651
1.07597
1.07533
1.0791
1.08189
1.08745
1.09784
1.11167
1.13867
1.17836
1.25332
1.29807
1.33824
1.34534
1.35018
1.34741
1.34098
1.34312
1.33744
1.33409
1.32592
1.31566
1.30317
1.28715
1.26883
1.24601
1.21824
1.18335
1.14012
1.09407
1.04253
0.987504
0.929918
0.864356
0.797003
0.73438
0.675985
0.626473
0.586613
0.548114
0.508912
0.473055
0.440342
0.414428
0.390576
0.366561
0.344118
0.32434
0.308752
0.288731
0.272181
0.255518
0.24459
0.233109
0.224747
0.222249
0.222661
0.23184
0.246767
0.268277
0.2888
0.305237
0.32091
0.333224
0.336609
0.336777
0.328292
0.314969
0.297429
0.276673
0.256702
0.236433
0.221087
0.204038
0.194399
0.181976
1.00313
1.00231
1.00249
1.00257
1.0027
1.00284
1.00301
1.00319
1.00339
1.00361
1.00384
1.00409
1.00436
1.00463
1.00492
1.00522
1.00553
1.00583
1.00614
1.00646
1.00678
1.0071
1.00742
1.00774
1.00805
1.00836
1.00866
1.00897
1.00928
1.00954
1.00977
1.00998
1.01016
1.01032
1.01044
1.01047
1.01039
1.01007
1.00991
1.0085
1.00915
0.999896
1.02157
1.06081
1.06163
1.06353
1.06693
1.07166
1.07945
1.09005
1.09843
1.11557
1.13678
1.18759
1.24196
1.30734
1.32306
1.32751
1.33135
1.31253
1.30334
1.29132
1.27095
1.249
1.21462
1.17525
1.12688
1.0762
1.02158
0.963466
0.901369
0.835977
0.774429
0.715807
0.662575
0.618602
0.581996
0.546733
0.512889
0.480644
0.452953
0.428381
0.409459
0.390283
0.372113
0.354728
0.340151
0.327719
0.314343
0.300709
0.287156
0.276888
0.262876
0.251885
0.238987
0.230128
0.222386
0.216243
0.215103
0.217108
0.225141
0.238772
0.258126
0.277996
0.294587
0.310933
0.324407
0.329876
0.332273
0.326188
0.315204
0.300226
0.281025
0.263498
0.244764
0.230565
0.214899
0.206615
0.195721
1.00311
1.0023
1.00248
1.00256
1.00269
1.00283
1.00299
1.00317
1.00337
1.0036
1.00383
1.00408
1.00435
1.00463
1.00491
1.00522
1.00554
1.00585
1.00618
1.00651
1.00685
1.00718
1.00752
1.00787
1.00821
1.00854
1.00886
1.00919
1.00952
1.00985
1.0101
1.01031
1.01049
1.01067
1.0108
1.0109
1.01082
1.01047
1.01009
1.00876
1.00802
0.999755
1.00777
1.0467
1.04673
1.05101
1.05463
1.0591
1.06456
1.07164
1.07923
1.09192
1.10897
1.13664
1.18529
1.22924
1.27184
1.26261
1.25977
1.23217
1.18484
1.14623
1.08995
1.03814
0.975858
0.90681
0.839597
0.776286
0.719437
0.669077
0.627475
0.588874
0.55265
0.518865
0.486798
0.459113
0.434857
0.415222
0.398378
0.382074
0.369219
0.356337
0.345471
0.336591
0.327215
0.317387
0.308034
0.29978
0.291443
0.282369
0.271756
0.263882
0.25237
0.243763
0.233477
0.225661
0.219404
0.215088
0.214535
0.217264
0.224862
0.236799
0.253664
0.272972
0.289832
0.307386
0.321791
0.328902
0.33096
0.325562
0.317143
0.303516
0.287228
0.271496
0.254173
0.240629
0.226279
0.218819
0.209223
1.0031
1.00229
1.00247
1.00255
1.00267
1.00281
1.00298
1.00316
1.00336
1.00358
1.00382
1.00406
1.00433
1.00462
1.00491
1.00522
1.00555
1.00588
1.00621
1.00656
1.00692
1.00728
1.00763
1.008
1.00837
1.00873
1.00907
1.00942
1.00977
1.01013
1.01043
1.01068
1.0109
1.01111
1.01131
1.01156
1.0118
1.01209
1.01243
1.01294
1.01429
1.01263
1.01957
1.05228
1.04975
1.0536
1.05497
1.05797
1.06189
1.06751
1.07457
1.08361
1.09193
1.10778
1.12324
1.13723
1.14915
1.12991
1.07175
1.02336
0.951524
0.887546
0.823518
0.76864
0.721015
0.679862
0.638631
0.599488
0.563767
0.53005
0.500485
0.4738
0.450095
0.428558
0.408113
0.390724
0.373993
0.359371
0.348185
0.338492
0.331186
0.324032
0.317525
0.312446
0.30733
0.30164
0.295279
0.289658
0.282862
0.276413
0.267734
0.261303
0.251756
0.24462
0.235998
0.229323
0.22373
0.220004
0.2189
0.221071
0.227544
0.239462
0.254808
0.272775
0.288912
0.305624
0.319764
0.327789
0.329663
0.325461
0.318454
0.307199
0.294132
0.280125
0.264069
0.25115
0.238464
0.231563
0.223025
1.00308
1.00227
1.00245
1.00253
1.00265
1.00279
1.00296
1.00314
1.00334
1.00356
1.0038
1.00405
1.00432
1.00461
1.00491
1.00522
1.00556
1.0059
1.00625
1.00661
1.00699
1.00737
1.00774
1.00813
1.00854
1.00893
1.0093
1.00966
1.01003
1.01041
1.01079
1.01109
1.01136
1.01165
1.01194
1.01241
1.01293
1.01385
1.01473
1.01725
1.01762
1.03552
1.04891
1.04973
1.04715
1.04781
1.04797
1.04881
1.04948
1.05089
1.05234
1.05644
1.05316
1.05089
1.0378
1.02115
0.971291
0.910175
0.847903
0.797529
0.752577
0.712165
0.67279
0.639269
0.607871
0.578566
0.55029
0.522076
0.496258
0.473121
0.45203
0.432362
0.414516
0.39787
0.382934
0.369422
0.357209
0.345592
0.336468
0.328452
0.322617
0.317397
0.312248
0.30818
0.304094
0.300372
0.295218
0.291
0.285335
0.280436
0.273218
0.267444
0.259387
0.252892
0.245202
0.238744
0.233131
0.229263
0.227449
0.228828
0.234018
0.245264
0.259495
0.276423
0.291825
0.307539
0.320457
0.328151
0.330394
0.327218
0.322259
0.312103
0.302451
0.289359
0.275054
0.26281
0.25126
0.244206
0.237286
1.00306
1.00226
1.00244
1.00251
1.00264
1.00277
1.00294
1.00312
1.00332
1.00354
1.00378
1.00403
1.0043
1.0046
1.0049
1.00522
1.00556
1.00592
1.00628
1.00666
1.00705
1.00745
1.00785
1.00826
1.0087
1.00913
1.00953
1.00991
1.01031
1.0107
1.01112
1.01151
1.01182
1.01209
1.01229
1.01254
1.01268
1.0129
1.0123
1.01345
1.00723
1.02559
1.04619
1.03952
1.03635
1.03619
1.03606
1.03631
1.03685
1.0366
1.03679
1.03663
1.03291
1.0034
0.954874
0.870711
0.794669
0.754366
0.715641
0.6855
0.656211
0.630945
0.606789
0.585994
0.56761
0.550111
0.531067
0.511506
0.491658
0.472299
0.45416
0.4379
0.422243
0.407103
0.393162
0.380368
0.369065
0.357452
0.34734
0.338125
0.330905
0.325001
0.319994
0.315404
0.310842
0.307827
0.303474
0.299734
0.294702
0.29055
0.284579
0.278987
0.27208
0.265753
0.258655
0.252056
0.246131
0.241775
0.238996
0.239619
0.243613
0.253716
0.266516
0.282087
0.296631
0.311395
0.323938
0.331771
0.33304
0.331051
0.326303
0.318202
0.30987
0.298141
0.286176
0.274812
0.263934
0.25679
0.251147
1.00304
1.00224
1.00242
1.0025
1.00262
1.00275
1.00291
1.0031
1.0033
1.00351
1.00376
1.00401
1.00428
1.00458
1.0049
1.00522
1.00556
1.00593
1.00631
1.0067
1.00712
1.00754
1.00796
1.00839
1.00886
1.00934
1.00978
1.01019
1.0106
1.01102
1.01145
1.0119
1.01227
1.01251
1.01266
1.01273
1.01254
1.01222
1.01117
1.01052
1.00363
1.0028
1.02015
1.02072
1.02288
1.0235
1.02484
1.02527
1.02515
1.02346
1.01981
1.01018
0.994814
0.924272
0.834009
0.754699
0.70962
0.678103
0.654419
0.632799
0.614797
0.597476
0.581565
0.567569
0.554535
0.544636
0.5345
0.523972
0.512407
0.499456
0.484311
0.469265
0.453813
0.438547
0.423794
0.409732
0.396711
0.383662
0.37166
0.360169
0.350654
0.342656
0.336272
0.330548
0.32472
0.320972
0.316768
0.312934
0.308158
0.303969
0.298775
0.293099
0.286778
0.280186
0.273527
0.266682
0.260557
0.255984
0.252745
0.252959
0.256036
0.265112
0.276674
0.290726
0.303404
0.315917
0.326941
0.334731
0.337522
0.336228
0.332209
0.325646
0.318469
0.307877
0.298478
0.287126
0.277314
0.269597
0.265274
1.00302
1.00223
1.0024
1.00248
1.0026
1.00273
1.00289
1.00307
1.00327
1.00348
1.00373
1.00399
1.00426
1.00456
1.00488
1.00521
1.00556
1.00594
1.00633
1.00674
1.00717
1.00762
1.00807
1.00852
1.009
1.00952
1.01004
1.0105
1.01092
1.01135
1.0118
1.01228
1.01276
1.01316
1.01347
1.01377
1.014
1.01422
1.0142
1.01472
1.01084
1.00357
1.0291
1.02444
1.0267
1.02579
1.02576
1.02485
1.02434
1.02142
1.00936
0.977941
0.924054
0.824741
0.74532
0.693054
0.66206
0.640675
0.625203
0.612158
0.600953
0.590921
0.58052
0.572281
0.563703
0.557605
0.551601
0.546517
0.540703
0.533925
0.52378
0.511659
0.497892
0.482787
0.466695
0.450421
0.43485
0.419689
0.40528
0.391633
0.379642
0.36915
0.360181
0.35256
0.344902
0.339268
0.334091
0.329269
0.324441
0.319665
0.314757
0.308936
0.303228
0.296388
0.290083
0.283318
0.276928
0.272196
0.268338
0.267979
0.269788
0.277671
0.287815
0.301222
0.312492
0.323989
0.332679
0.339389
0.342053
0.341941
0.338382
0.333051
0.326351
0.317555
0.309913
0.298596
0.29061
0.282077
0.278946
1.003
1.00221
1.00238
1.00246
1.00257
1.00271
1.00286
1.00304
1.00324
1.00346
1.0037
1.00396
1.00424
1.00453
1.00486
1.0052
1.00556
1.00595
1.00635
1.00677
1.00722
1.00769
1.00818
1.00865
1.00915
1.0097
1.01027
1.0108
1.01129
1.01173
1.0122
1.01269
1.01326
1.01384
1.01443
1.0151
1.01605
1.01707
1.01916
1.02111
1.03109
1.03502
1.04566
1.04027
1.03934
1.03721
1.03476
1.02968
1.02381
1.01393
0.988594
0.92258
0.826771
0.747155
0.695676
0.66502
0.643873
0.629608
0.618066
0.608721
0.600471
0.593763
0.586663
0.58117
0.575159
0.570699
0.566505
0.562805
0.559474
0.555965
0.550729
0.542986
0.532763
0.520956
0.507295
0.492268
0.476422
0.460709
0.444974
0.429575
0.414815
0.401204
0.389152
0.378873
0.369212
0.361339
0.354408
0.348087
0.342695
0.337155
0.332031
0.325929
0.32058
0.313793
0.307252
0.300591
0.293601
0.288543
0.284086
0.283173
0.284244
0.291206
0.30016
0.311836
0.321145
0.331375
0.339033
0.34536
0.348161
0.348367
0.345227
0.340932
0.335461
0.328728
0.321979
0.311413
0.304684
0.295449
0.293119
1.00297
1.00219
1.00236
1.00243
1.00255
1.00268
1.00283
1.00301
1.00321
1.00342
1.00366
1.00393
1.00421
1.0045
1.00483
1.00518
1.00555
1.00594
1.00636
1.00679
1.00726
1.00776
1.00827
1.00878
1.0093
1.00985
1.01047
1.0111
1.01166
1.01218
1.01266
1.01317
1.01374
1.01431
1.0149
1.0153
1.01574
1.0155
1.0168
1.01132
1.02855
1.04765
1.04482
1.04356
1.04408
1.04271
1.04131
1.03788
1.02127
0.995481
0.929106
0.834414
0.756715
0.706498
0.675732
0.655406
0.642365
0.6329
0.625344
0.618712
0.612166
0.606379
0.600418
0.595352
0.589935
0.585251
0.580915
0.577096
0.573665
0.571034
0.568032
0.564509
0.558449
0.550327
0.539979
0.527783
0.513226
0.497481
0.481277
0.465004
0.447761
0.432128
0.417891
0.405623
0.394556
0.38488
0.376546
0.368724
0.362267
0.355943
0.350387
0.344034
0.338558
0.332136
0.32522
0.318633
0.311093
0.305501
0.300372
0.298648
0.298827
0.304265
0.312199
0.323205
0.33186
0.340525
0.346377
0.351361
0.354276
0.355064
0.352938
0.349847
0.345302
0.33936
0.333011
0.323331
0.317874
0.30861
0.307017
1.00295
1.00217
1.00234
1.00241
1.00252
1.00265
1.0028
1.00297
1.00317
1.00339
1.00362
1.00389
1.00417
1.00447
1.00479
1.00516
1.00553
1.00593
1.00636
1.00681
1.00729
1.00781
1.00835
1.00891
1.00945
1.01002
1.01064
1.01134
1.01203
1.01265
1.01324
1.01376
1.01433
1.01488
1.01532
1.01557
1.01567
1.01492
1.01489
1.0059
1.01262
1.04021
1.03881
1.04165
1.04176
1.04153
1.0371
1.03052
0.998584
0.938412
0.843824
0.769526
0.721263
0.690718
0.670761
0.657063
0.647501
0.639979
0.633485
0.628205
0.622659
0.617594
0.61212
0.607085
0.601856
0.596782
0.592074
0.587821
0.584113
0.581432
0.579133
0.577222
0.574824
0.570847
0.563882
0.554871
0.543476
0.529906
0.514799
0.498592
0.481748
0.465215
0.449133
0.434842
0.421831
0.410108
0.399792
0.390524
0.382565
0.375075
0.368935
0.36231
0.356291
0.350478
0.343613
0.337286
0.329534
0.322958
0.317083
0.31374
0.3135
0.317489
0.324229
0.333876
0.341764
0.349983
0.355726
0.359753
0.361957
0.362749
0.361597
0.359212
0.355562
0.350288
0.344866
0.336337
0.332035
0.322662
0.321299
1.00292
1.00215
1.00231
1.00238
1.00249
1.00262
1.00277
1.00294
1.00313
1.00335
1.00358
1.00384
1.00413
1.00443
1.00475
1.00512
1.0055
1.00591
1.00635
1.00681
1.0073
1.00784
1.00841
1.00901
1.0096
1.01019
1.01082
1.01152
1.01232
1.0131
1.01379
1.01446
1.01506
1.01574
1.01639
1.01724
1.01799
1.01927
1.02117
1.02225
1.02447
1.05062
1.04653
1.04927
1.0475
1.04767
1.03244
1.00394
0.93881
0.846488
0.775244
0.72945
0.700089
0.68021
0.66695
0.657731
0.651265
0.646423
0.641899
0.638207
0.633759
0.629342
0.624329
0.619174
0.613964
0.608489
0.603426
0.598687
0.594678
0.591649
0.589191
0.58733
0.585488
0.583875
0.580687
0.574988
0.566816
0.556301
0.543512
0.528594
0.512576
0.495329
0.478032
0.461466
0.446885
0.433877
0.422425
0.412138
0.403194
0.394722
0.387874
0.381218
0.374727
0.36917
0.362466
0.356111
0.348369
0.340789
0.334179
0.329055
0.328289
0.330766
0.336379
0.345053
0.352264
0.359603
0.364443
0.368537
0.370453
0.371385
0.370594
0.368908
0.366125
0.361573
0.356961
0.349227
0.345623
0.336071
0.335533
1.00289
1.00213
1.00229
1.00235
1.00245
1.00258
1.00273
1.0029
1.00309
1.0033
1.00353
1.00379
1.00408
1.00439
1.00471
1.00507
1.00546
1.00587
1.00632
1.0068
1.0073
1.00785
1.00845
1.00908
1.00973
1.01038
1.01102
1.01175
1.01255
1.01346
1.01436
1.01521
1.01606
1.01697
1.01791
1.01926
1.02044
1.02334
1.02303
1.04637
1.04528
1.04696
1.04475
1.04886
1.04464
1.03541
1.00581
0.934287
0.842079
0.776034
0.732712
0.706123
0.688013
0.676185
0.667378
0.66101
0.655327
0.650711
0.646049
0.642381
0.638812
0.635573
0.632128
0.628331
0.624655
0.620307
0.616029
0.611549
0.607093
0.603176
0.599922
0.597504
0.595516
0.594044
0.59272
0.590377
0.585514
0.577736
0.567961
0.555448
0.541568
0.525236
0.508719
0.491027
0.47491
0.460203
0.446955
0.434893
0.424415
0.414718
0.406665
0.399463
0.392379