/*--------------------------------*- C++ -*----------------------------------*\
| =========                 |                                                 |
| \\      /  F ield         | OpenFOAM: The Open Source CFD Toolbox           |
|  \\    /   O peration     | Version:  2.2.x                                 |
|   \\  /    A nd           | Web:      www.OpenFOAM.org                      |
|    \\/     M anipulation  |                                                 |
\*---------------------------------------------------------------------------*/
FoamFile
{
    version     2.0;
    format      ascii;
    class       volScalarField;
    location    "2.2";
    object      T;
}
// * * * * * * * * * * * * * * * * * * * * * * * * * * * * * * * * * * * * * //

dimensions      [0 0 0 1 0 0 0];

internalField   nonuniform List<scalar> 
14161
(
0.987391
0.990688
0.989991
0.989705
0.989248
0.988695
0.988076
0.987411
0.986595
0.985756
0.984905
0.983945
0.982999
0.982087
0.981021
0.980044
0.979178
0.978225
0.977348
0.97658
0.975795
0.975132
0.974631
0.974225
0.973952
0.973802
0.973785
0.973917
0.974237
0.974729
0.975453
0.97623
0.977335
0.978822
0.980744
0.982872
0.984584
0.987017
0.992337
0.997919
1.0059
1.01014
1.027
1.02117
2.03724
2.91504
3.06266
3.04422
3.01381
2.97592
2.93654
2.90576
2.88558
2.85944
2.83577
2.81628
2.79227
2.77125
2.75379
2.73856
2.72684
2.71552
2.70509
2.69561
2.68765
2.68188
2.67854
2.67557
2.67332
2.67167
2.66984
2.66818
2.66614
2.66341
2.66093
2.65902
2.65823
2.65653
2.6557
2.65201
2.64958
2.64874
2.65241
2.63842
2.62827
2.62405
2.61425
2.60673
2.6073
2.59034
2.58301
2.57552
2.57411
2.56448
2.55652
2.5485
2.56331
2.53201
2.51443
2.48505
2.43924
2.38664
2.33732
2.27931
2.26891
2.27043
2.26602
2.26366
2.46636
2.59905
2.7553
2.88013
2.97333
3.02279
3.07691
3.10458
3.15264
3.18603
3.25134
0.987368
0.990676
0.989956
0.989661
0.989251
0.988758
0.988064
0.987336
0.98658
0.985804
0.98488
0.983905
0.982995
0.982065
0.980995
0.98001
0.979138
0.978193
0.977325
0.976555
0.975778
0.975114
0.974603
0.974194
0.973923
0.973769
0.973756
0.973884
0.974189
0.974662
0.975386
0.976174
0.977165
0.978767
0.980491
0.98264
0.984282
0.986923
0.991461
0.995733
1.0028
1.00658
1.02313
1.02284
2.01703
2.92223
3.04342
3.00916
2.97748
2.94086
2.90843
2.87555
2.84883
2.82087
2.79551
2.77079
2.74172
2.71735
2.69344
2.67383
2.65792
2.6452
2.63319
2.62112
2.61144
2.60421
2.59966
2.59761
2.59593
2.59378
2.59085
2.58743
2.58397
2.58039
2.57712
2.57444
2.57285
2.571
2.57032
2.56759
2.56629
2.56563
2.57207
2.55976
2.55506
2.55332
2.54646
2.54344
2.54432
2.5299
2.52445
2.51995
2.51784
2.50966
2.50271
2.4978
2.50952
2.47828
2.46043
2.42096
2.37688
2.32631
2.28223
2.22505
2.21597
2.21427
2.20536
2.46676
2.7193
2.8813
3.04824
3.13342
3.19354
3.21953
3.24862
3.25633
3.26205
3.23744
3.25776
0.987383
0.990679
0.989982
0.989703
0.989237
0.988682
0.98809
0.987454
0.986576
0.985718
0.984896
0.984014
0.982997
0.982027
0.981035
0.980031
0.979135
0.978197
0.977346
0.976537
0.975787
0.975114
0.974575
0.974157
0.973882
0.973728
0.9737
0.973838
0.974096
0.974584
0.975148
0.976003
0.977025
0.978453
0.980014
0.982075
0.983543
0.985951
0.989913
0.993699
0.998614
1.00176
1.00258
1.00981
1.67714
2.84152
2.96392
2.91487
2.89661
2.86868
2.84915
2.8239
2.79598
2.77349
2.74723
2.71778
2.69397
2.66756
2.64384
2.62285
2.60617
2.59351
2.5835
2.57563
2.57087
2.56947
2.56936
2.56904
2.56882
2.56691
2.56401
2.56008
2.55591
2.55223
2.54906
2.54733
2.54582
2.54776
2.54675
2.54534
2.54634
2.54777
2.55433
2.54323
2.54076
2.54009
2.53436
2.53215
2.5322
2.51841
2.51148
2.50584
2.50103
2.49091
2.4801
2.47176
2.4866
2.45402
2.44148
2.42296
2.38731
2.34046
2.29615
2.25355
2.24187
2.26146
2.45212
2.71586
2.88163
3.04201
3.13963
3.1965
3.24641
3.25499
3.27657
3.27422
3.2753
3.24166
3.22646
0.987373
0.990676
0.989952
0.989659
0.989253
0.988768
0.988061
0.987336
0.986587
0.985812
0.984864
0.983911
0.983
0.982075
0.981009
0.980008
0.979086
0.978184
0.977311
0.976476
0.975755
0.975071
0.974527
0.974092
0.973814
0.973649
0.973597
0.973697
0.97394
0.974352
0.974927
0.975636
0.97661
0.977884
0.979402
0.981117
0.982571
0.984488
0.987164
0.989303
0.988926
0.987959
0.971944
0.981377
1.21707
2.68278
2.90204
2.85214
2.85546
2.82804
2.80849
2.78193
2.75749
2.74075
2.71342
2.68877
2.67382
2.65026
2.63062
2.61751
2.6016
2.59506
2.59144
2.59066
2.59205
2.59287
2.59443
2.59601
2.59641
2.59588
2.59356
2.59118
2.58857
2.58673
2.58596
2.58656
2.58829
2.59096
2.59379
2.59239
2.59084
2.58809
2.59287
2.58041
2.57382
2.57146
2.56279
2.55622
2.55255
2.53833
2.52835
2.52183
2.51225
2.50745
2.49882
2.49685
2.50692
2.47469
2.46295
2.43339
2.39177
2.34156
2.30094
2.26106
2.25377
2.49635
2.72606
2.92666
3.01738
3.0768
3.13863
3.18713
3.24138
3.26414
3.2872
3.28255
3.28667
3.23916
3.19758
0.98739
0.990676
0.98999
0.989723
0.989233
0.988664
0.988079
0.987442
0.986569
0.985703
0.984878
0.984016
0.982965
0.98197
0.981019
0.980051
0.979053
0.978177
0.977293
0.976426
0.975703
0.974998
0.974438
0.973975
0.973691
0.973533
0.973449
0.973497
0.973685
0.974004
0.974495
0.975219
0.975946
0.976999
0.978381
0.979948
0.9813
0.983036
0.985541
0.988016
0.989242
0.992529
0.989366
1.0064
1.28136
2.62782
2.83725
2.81551
2.8206
2.81534
2.814
2.80418
2.79581
2.78454
2.76517
2.7475
2.73331
2.71389
2.69601
2.68176
2.66786
2.65703
2.64657
2.63862
2.63152
2.62619
2.62274
2.62131
2.62115
2.62107
2.62023
2.61912
2.61775
2.61681
2.61615
2.61512
2.61633
2.6155
2.62026
2.61658
2.61327
2.60901
2.61247
2.6003
2.59236
2.59091
2.58104
2.57564
2.57251
2.56074
2.55432
2.55055
2.53707
2.53395
2.52629
2.52547
2.53433
2.501
2.48878
2.44829
2.39974
2.36678
2.32744
2.29259
2.48075
2.74582
2.97034
3.07733
3.09205
3.11353
3.14184
3.16974
3.21737
3.24284
3.28174
3.27633
3.28709
3.2349
3.19402
0.987394
0.990681
0.989947
0.989651
0.989246
0.988761
0.988051
0.987318
0.98658
0.985794
0.984841
0.983903
0.982959
0.982006
0.98099
0.979982
0.978995
0.978152
0.977261
0.976365
0.975653
0.974928
0.974335
0.973856
0.973539
0.973407
0.973268
0.973205
0.973373
0.97365
0.973977
0.9745
0.975188
0.976025
0.977063
0.978328
0.979617
0.981139
0.982894
0.984337
0.984665
0.983869
0.972934
0.964977
1.37613
2.75383
2.92689
2.9032
2.90619
2.88696
2.87203
2.85505
2.83364
2.81549
2.78607
2.768
2.74428
2.72231
2.69845
2.68465
2.66849
2.65443
2.6437
2.63391
2.62722
2.62215
2.61909
2.61778
2.61692
2.61595
2.6137
2.61092
2.60852
2.60612
2.60422
2.60196
2.60351
2.60225
2.60798
2.60553
2.60202
2.59801
2.60359
2.59379
2.58786
2.58677
2.57752
2.57167
2.5683
2.55639
2.55012
2.54672
2.53268
2.52871
2.52294
2.52078
2.52984
2.49378
2.48005
2.4346
2.38727
2.37606
2.30088
2.46004
2.74327
2.97125
2.98782
3.07613
3.10616
3.13526
3.14309
3.15925
3.19623
3.21999
3.2583
3.26818
3.2844
3.23068
3.17974
0.987413
0.990685
0.98998
0.989689
0.989226
0.98866
0.988067
0.98741
0.986566
0.985683
0.984844
0.98398
0.98295
0.981934
0.980993
0.980003
0.978939
0.978099
0.977224
0.976321
0.975564
0.974869
0.97421
0.973724
0.973322
0.973195
0.973021
0.97292
0.972935
0.973106
0.973392
0.973687
0.974132
0.974774
0.975664
0.976514
0.977653
0.979255
0.98132
0.984541
0.989895
0.995502
1.00737
1.03321
1.74608
2.8313
3.02355
2.97892
2.96339
2.92855
2.90141
2.88304
2.851
2.82839
2.79084
2.76589
2.73096
2.70064
2.67402
2.66021
2.63315
2.62327
2.60204
2.5885
2.57733
2.57162
2.56945
2.56647
2.56321
2.56289
2.55922
2.55583
2.55502
2.55301
2.55107
2.54936
2.55036
2.55357
2.55343
2.55578
2.55661
2.55648
2.55949
2.55474
2.54971
2.54836
2.54306
2.53864
2.53804
2.52689
2.52095
2.5194
2.50662
2.50231
2.49586
2.49424
2.50158
2.46456
2.4472
2.407
2.39082
2.33852
2.40413
2.72786
2.87815
3.03622
3.04621
3.03991
3.09226
3.12653
3.14439
3.14773
3.17708
3.2025
3.23919
3.25162
3.27364
3.22536
3.16699
0.987433
0.990697
0.989985
0.98969
0.989225
0.988674
0.988065
0.987324
0.98657
0.985748
0.984826
0.983914
0.982971
0.981915
0.98097
0.979999
0.978904
0.978058
0.977183
0.976249
0.975463
0.974775
0.974051
0.973544
0.973068
0.972902
0.972742
0.972602
0.972477
0.972468
0.97255
0.972803
0.973107
0.973429
0.973727
0.974221
0.974726
0.975393
0.976196
0.977739
0.980945
0.987745
1.0044
1.00776
1.88917
2.87658
3.07911
3.03855
2.9887
2.93744
2.89817
2.85737
2.81795
2.78786
2.736
2.70717
2.65414
2.62445
2.59263
2.57459
2.54566
2.53982
2.51062
2.49328
2.48436
2.47778
2.47189
2.46877
2.46599
2.46564
2.46268
2.46136
2.46076
2.45865
2.45717
2.45665
2.45753
2.45899
2.46328
2.46394
2.46533
2.46823
2.47261
2.46944
2.46976
2.46935
2.46426
2.46379
2.46358
2.45478
2.4517
2.44984
2.44231
2.44079
2.43711
2.43321
2.43775
2.40628
2.3928
2.38538
2.31256
2.43104
2.64373
2.91422
2.88608
2.97073
2.98486
3.02599
3.07416
3.12469
3.15323
3.14807
3.16448
3.18883
3.22328
3.23648
3.26187
3.21961
3.15555
0.987461
0.990711
0.989985
0.989673
0.989251
0.98875
0.988069
0.987333
0.986591
0.985727
0.984805
0.983922
0.982968
0.98191
0.980956
0.979982
0.978874
0.977988
0.977108
0.976185
0.975349
0.974657
0.973911
0.973335
0.97284
0.972507
0.972341
0.972188
0.97193
0.971747
0.971712
0.971697
0.971703
0.971743
0.971805
0.971796
0.971782
0.971738
0.971915
0.972193
0.974488
0.97759
0.993212
0.998793
1.75109
2.88619
3.07443
2.9744
2.88177
2.83498
2.79293
2.73633
2.69035
2.6594
2.59439
2.58019
2.51816
2.49827
2.46038
2.43686
2.42304
2.41393
2.38735
2.38957
2.37022
2.36099
2.36252
2.35616
2.35367
2.35347
2.35035
2.34934
2.34766
2.347
2.34627
2.34663
2.34781
2.34926
2.35412
2.35652
2.35786
2.35957
2.36304
2.36252
2.36481
2.36836
2.36168
2.3629
2.36473
2.35968
2.36003
2.35937
2.35691
2.35635
2.35818
2.35736
2.37043
2.34975
2.34361
2.328
2.36422
2.63309
2.74806
2.93554
2.94013
2.9095
2.94302
2.99571
3.04429
3.10862
3.14665
3.14934
3.15559
3.17735
3.20786
3.21953
3.25107
3.21501
3.14315
0.987489
0.990714
0.990012
0.989718
0.989245
0.988679
0.988084
0.987418
0.986591
0.985725
0.984798
0.983912
0.982972
0.981896
0.980923
0.979947
0.978861
0.977915
0.977027
0.976109
0.975215
0.974478
0.973758
0.973103
0.972579
0.972128
0.971926
0.971662
0.971368
0.970958
0.970704
0.970513
0.97029
0.96995
0.9694
0.968757
0.967784
0.966332
0.963772
0.95953
0.952211
0.940349
0.916749
0.884267
1.0469
2.40226
3.00493
2.76902
2.67222
2.63206
2.61979
2.5593
2.53307
2.50706
2.45968
2.46805
2.40654
2.3898
2.38299
2.33
2.33451
2.3327
2.31652
2.32445
2.30003
2.30624
2.29966
2.29712
2.29701
2.29531
2.29174
2.28989
2.28686
2.28528
2.28166
2.28091
2.28254
2.28218
2.28688
2.28734
2.28945
2.28948
2.2935
2.29189
2.29386
2.29264
2.28791
2.28963
2.29104
2.29062
2.28622
2.28879
2.28994
2.29464
2.29497
2.30266
2.31424
2.30147
2.30429
2.44409
2.62877
2.7577
2.81064
2.80157
2.85757
2.8942
2.93124
2.98343
3.04117
3.10318
3.14666
3.15422
3.14949
3.16664
3.19378
3.20728
3.23993
3.20554
3.13195
0.987524
0.990743
0.990027
0.989728
0.989244
0.988725
0.98808
0.987342
0.986601
0.985795
0.984823
0.983889
0.982965
0.9819
0.980898
0.979912
0.978873
0.97784
0.976935
0.976031
0.975098
0.974253
0.973552
0.972868
0.972302
0.971773
0.971364
0.971037
0.970718
0.970136
0.969648
0.96924
0.968755
0.968201
0.967391
0.966287
0.964811
0.963584
0.961623
0.958826
0.955093
0.951304
0.948049
0.954935
0.971771
1.41059
2.67718
2.51369
2.49877
2.47594
2.46675
2.44099
2.46337
2.40914
2.43184
2.39941
2.38606
2.35411
2.36991
2.31326
2.30473
2.30997
2.30334
2.29831
2.29188
2.293
2.28727
2.2882
2.28598
2.28433
2.27936
2.27614
2.27207
2.27186
2.26714
2.26562
2.26609
2.26525
2.26531
2.26804
2.2675
2.26663
2.26622
2.26535
2.26366
2.26255
2.25976
2.25987
2.26276
2.26549
2.26641
2.26832
2.27457
2.27668
2.28151
2.28568
2.335
2.37427
2.51432
2.71312
2.76713
2.86436
2.87273
2.76812
2.77594
2.83251
2.87287
2.93363
3.00793
3.08401
3.13625
3.15151
3.14105
3.15477
3.17922
3.19543
3.22966
3.19945
3.12163
0.98756
0.990764
0.990034
0.989722
0.989289
0.988736
0.988086
0.987389
0.986597
0.985785
0.984851
0.983899
0.982968
0.981922
0.980862
0.979876
0.978879
0.977748
0.976815
0.975947
0.974942
0.974019
0.97328
0.97263
0.971969
0.971372
0.970818
0.970366
0.969932
0.969382
0.968591
0.96796
0.967265
0.966449
0.965354
0.963775
0.961604
0.958157
0.954723
0.948287
0.937403
0.919281
0.886838
0.833829
0.808781
1.32346
2.34061
2.47396
2.4922
2.49304
2.50176
2.46975
2.47735
2.43275
2.46359
2.39053
2.39911
2.36397
2.35412
2.32432
2.30766
2.30788
2.30883
2.30353
2.29776
2.29414
2.28948
2.28927
2.28698
2.28596
2.28151
2.27964
2.27749
2.27885
2.27416
2.27483
2.27083
2.27625
2.27558
2.27685
2.27825
2.27719
2.27813
2.27754
2.27567
2.27568
2.27279
2.27069
2.27381
2.27573
2.27559
2.28561
2.29217
2.31123
2.37103
2.41072
2.52731
2.67399
2.78824
2.8879
2.96199
2.83775
2.81581
2.77845
2.78422
2.8315
2.86017
2.91766
2.98986
3.06732
3.1267
3.14615
3.13562
3.14493
3.16616
3.18493
3.2197
3.19311
3.10942
0.9876
0.990786
0.990068
0.989766
0.989295
0.988734
0.988124
0.987398
0.986606
0.985812
0.984858
0.98389
0.982967
0.981963
0.980845
0.979833
0.978855
0.977673
0.976693
0.975811
0.974823
0.973772
0.972942
0.972283
0.971643
0.970927
0.970268
0.969604
0.969113
0.968589
0.96764
0.966739
0.965952
0.965016
0.963962
0.962619
0.961097
0.959371
0.957985
0.957342
0.956074
0.962887
0.967597
1.06188
1.40752
2.03138
2.20154
2.48698
2.46274
2.53114
2.49398
2.46185
2.48296
2.43581
2.4528
2.40336
2.37666
2.39738
2.3147
2.33357
2.30804
2.29643
2.30703
2.30032
2.29996
2.29307
2.29314
2.29201
2.28881
2.28878
2.28713
2.28526
2.28532
2.28797
2.28341
2.28473
2.27908
2.28663
2.2845
2.28987
2.29124
2.29129
2.29351
2.29395
2.294
2.29604
2.29752
2.30001
2.30949
2.32841
2.34081
2.38672
2.43037
2.51462
2.61456
2.7391
2.81844
2.91386
3.01154
2.99955
2.98104
2.89189
2.77907
2.72
2.73149
2.79719
2.83672
2.90017
2.98056
3.06085
3.11908
3.14093
3.12957
3.13515
3.15381
3.17524
3.21013
3.18836
3.09998
0.987642
0.990812
0.990092
0.98979
0.989304
0.988777
0.988144
0.987427
0.986625
0.985829
0.984894
0.9839
0.982967
0.981991
0.980827
0.979794
0.978803
0.977615
0.97656
0.975657
0.974668
0.97352
0.972595
0.971872
0.971247
0.970476
0.969583
0.968847
0.968217
0.967652
0.966922
0.96568
0.964711
0.963778
0.962775
0.961595
0.960175
0.958683
0.956847
0.955064
0.951467
0.947428
0.936326
0.957581
1.88039
2.15206
2.17406
2.26033
2.26715
2.47382
2.45683
2.50143
2.46483
2.46036
2.42408
2.4163
2.38112
2.40427
2.32687
2.32666
2.32633
2.31057
2.32504
2.3188
2.31087
2.30619
2.30505
2.30479
2.30519
2.30858
2.3098
2.31042
2.3115
2.31217
2.3057
2.30912
2.30501
2.30556
2.30678
2.30739
2.31336
2.315
2.32175
2.32679
2.33924
2.34726
2.3749
2.4074
2.44588
2.5133
2.59407
2.67927
2.77288
2.85043
2.93294
2.9905
3.05
3.04787
3.06623
3.01928
2.94968
2.87389
2.82097
2.75605
2.75467
2.80272
2.8362
2.88613
2.96185
3.04551
3.10708
3.13216
3.12389
3.12679
3.14298
3.16603
3.20037
3.18258
3.08866
0.987689
0.990841
0.990113
0.989799
0.989362
0.988803
0.988165
0.987463
0.986652
0.98585
0.984941
0.983917
0.982961
0.982005
0.98082
0.97975
0.978728
0.977575
0.976434
0.975493
0.974487
0.973259
0.972251
0.971406
0.970805
0.970043
0.968881
0.968027
0.967218
0.96665
0.965962
0.964888
0.963667
0.962704
0.961881
0.961045
0.960373
0.959607
0.959487
0.958445
0.959771
0.951004
0.964295
1.00761
1.96948
2.15173
2.16225
2.17678
2.20465
2.38262
2.41161
2.53241
2.50553
2.55641
2.47721
2.4842
2.44409
2.41091
2.40095
2.37048
2.35392
2.34967
2.355
2.34888
2.34095
2.3374
2.33647
2.33502
2.33425
2.33649
2.33545
2.33493
2.33551
2.33698
2.33298
2.34025
2.33961
2.3416
2.35021
2.35106
2.37242
2.38884
2.41663
2.44852
2.49667
2.55034
2.62391
2.70797
2.78482
2.84989
2.90748
2.96537
3.03071
3.04815
3.08571
3.10411
3.1161
3.08738
3.05776
3.01727
2.9643
2.88476
2.80266
2.74736
2.74062
2.79265
2.83323
2.89126
2.95901
3.03914
3.09857
3.12431
3.11787
3.11846
3.13227
3.15674
3.19171
3.17644
3.08032
0.987738
0.99087
0.990157
0.989856
0.989382
0.988808
0.988198
0.987509
0.986689
0.985863
0.984991
0.983936
0.982959
0.981999
0.980832
0.979698
0.978656
0.977528
0.976319
0.975302
0.974276
0.97302
0.971903
0.970919
0.970298
0.969499
0.968205
0.96716
0.966271
0.965552
0.964936
0.964223
0.9628
0.96176
0.961238
0.960876
0.960843
0.961412
0.963512
0.96673
0.974876
0.982295
1.04101
1.6474
2.22912
2.2452
2.22
2.20896
2.21801
2.21357
2.37233
2.52461
2.53575
2.60385
2.5141
2.53186
2.46204
2.41017
2.43322
2.35665
2.36765
2.38302
2.3652
2.36267
2.3544
2.35486
2.3541
2.35384
2.35271
2.35651
2.35912
2.3596
2.36954
2.37656
2.37825
2.40286
2.41718
2.4389
2.47798
2.51095
2.56301
2.63272
2.70135
2.76669
2.82896
2.87628
2.92812
2.97622
3.02893
3.04998
3.07122
3.09253
3.11713
3.12421
3.12294
3.11555
3.1083
3.08184
3.05077
3.01395
2.96026
2.89474
2.83382
2.78454
2.7655
2.80323
2.83999
2.88948
2.95502
3.03222
3.0895
3.11595
3.11241
3.11076
3.12255
3.14835
3.18274
3.1683
3.07132
0.98779
0.990907
0.990189
0.989887
0.989407
0.988872
0.98823
0.987539
0.98673
0.98589
0.985035
0.983974
0.98296
0.981985
0.980861
0.979659
0.978573
0.977473
0.976216
0.975086
0.974012
0.972811
0.971552
0.970454
0.969636
0.968805
0.967655
0.966297
0.965321
0.964349
0.96381
0.96305
0.962313
0.960924
0.960194
0.959834
0.959494
0.959435
0.959674
0.959613
0.960946
0.956191
0.981862
1.89439
2.26229
2.26158
2.23867
2.22832
2.21369
2.20403
2.24423
2.24123
2.47296
2.53078
2.55201
2.52316
2.44564
2.42083
2.39268
2.36453
2.35296
2.36462
2.35835
2.3604
2.35739
2.37028
2.37422
2.37405
2.38957
2.39609
2.41322
2.43752
2.45964
2.4956
2.53442
2.58574
2.6446
2.70312
2.75261
2.81326
2.86394
2.91307
2.95754
3.00582
3.0454
3.07483
3.08567
3.10847
3.1202
3.12679
3.12572
3.12253
3.12435
3.11882
3.11649
3.10691
3.10038
3.07919
3.04798
3.01381
2.96702
2.90645
2.83824
2.78385
2.76667
2.80256
2.84574
2.89696
2.95776
3.02892
3.08134
3.10845
3.10689
3.10307
3.11308
3.13982
3.17338
3.15985
3.06412
0.987845
0.990943
0.990219
0.989904
0.989469
0.988919
0.988264
0.987598
0.986788
0.985923
0.985069
0.984031
0.982971
0.981987
0.980892
0.979631
0.978483
0.977372
0.976142
0.97485
0.973748
0.972582
0.971181
0.969981
0.968927
0.968143
0.967041
0.965368
0.964222
0.963186
0.962495
0.961998
0.961226
0.960407
0.959153
0.958405
0.957548
0.956012
0.952988
0.947984
0.934343
0.922152
0.872321
1.96363
2.22645
2.24488
2.24692
2.25114
2.23981
2.22429
2.21403
2.2172
2.36926
2.35816
2.56549
2.48779
2.46772
2.44866
2.39363
2.43507
2.37084
2.38849
2.37809
2.39908
2.40906
2.43561
2.45165
2.47779
2.51663
2.55051
2.60934
2.67331
2.72943
2.78214
2.83203
2.87131
2.91967
2.95643
2.99839
3.02876
3.05019
3.0652
3.08638
3.10686
3.1175
3.12924
3.12891
3.13059
3.12873
3.12483
3.11924
3.11715
3.1179
3.11556
3.11216
3.1035
3.09525
3.07374
3.04297
3.01035
2.96854
2.91567
2.85821
2.80716
2.78587
2.81261
2.85452
2.90068
2.9575
3.02606
3.07349
3.10091
3.1015
3.09573
3.10401
3.1318
3.16382
3.1511
3.05617
0.987902
0.99098
0.990271
0.989969
0.989504
0.988955
0.988305
0.987644
0.98686
0.98596
0.985091
0.984107
0.983003
0.981975
0.980912
0.979605
0.978394
0.977282
0.976046
0.974637
0.973443
0.972278
0.970835
0.969482
0.968221
0.967423
0.966365
0.96465
0.963173
0.96213
0.961109
0.960694
0.960075
0.959552
0.958884
0.958503
0.958911
0.960365
0.961757
0.968406
0.968527
1.00782
1.37167
2.22345
2.30821
2.30372
2.29604
2.28888
2.27211
2.24449
2.23764
2.21136
2.2532
2.28631
2.39217
2.51722
2.49301
2.5136
2.41603
2.49343
2.45274
2.47853
2.49136
2.53568
2.58546
2.64966
2.71774
2.77294
2.81845
2.86103
2.8991
2.93765
2.9762
3.02167
3.05352
3.0639
3.07539
3.08838
3.10403
3.11097
3.11616
3.1221
3.12097
3.12418
3.12424
3.12581
3.12114
3.12238
3.12103
3.12141
3.11694
3.1151
3.1119
3.10798
3.10435
3.0955
3.08663
3.06897
3.04055
3.00888
2.96982
2.92323
2.86712
2.81702
2.79817
2.81864
2.8613
2.90779
2.96147
3.02471
3.06758
3.09449
3.09685
3.08837
3.0953
3.12333
3.15446
3.14219
3.04906
0.987964
0.991023
0.990312
0.990001
0.989562
0.989031
0.988366
0.987683
0.986933
0.986014
0.985117
0.984184
0.983044
0.981974
0.98091
0.979615
0.978323
0.977182
0.975942
0.974422
0.973111
0.971922
0.970561
0.96897
0.967573
0.966503
0.965518
0.964186
0.962206
0.960837
0.959755
0.959076
0.958715
0.958096
0.957645
0.956822
0.956762
0.95801
0.959451
0.964413
0.968118
0.999101
1.77873
2.32145
2.33368
2.31367
2.29945
2.28803
2.27874
2.27144
2.25437
2.25167
2.2356
2.26173
2.23928
2.51472
2.51143
2.61085
2.48499
2.57251
2.62763
2.66481
2.74275
2.78362
2.83976
2.89498
2.94004
2.98624
3.01573
3.03811
3.05651
3.08184
3.09855
3.10657
3.11317
3.11372
3.1259
3.12866
3.12974
3.12378
3.11687
3.11646
3.11421
3.11598
3.11598
3.11742
3.11585
3.11709
3.11579
3.11747
3.11435
3.11065
3.10764
3.10426
3.09989
3.09211
3.0819
3.06427
3.03764
3.00689
2.97084
2.92848
2.87417
2.83077
2.81346
2.8291
2.87085
2.91594
2.96512
3.0218
3.06267
3.08862
3.09069
3.08176
3.08698
3.11509
3.14544
3.13269
3.04073
0.988027
0.991067
0.990371
0.990074
0.98961
0.989085
0.98843
0.987741
0.987017
0.98608
0.985161
0.984249
0.983103
0.981982
0.980899
0.979647
0.978283
0.977066
0.975824
0.974242
0.972795
0.971571
0.970259
0.968455
0.966943
0.965508
0.964635
0.963448
0.961543
0.959697
0.958503
0.957383
0.956918
0.95634
0.955684
0.955118
0.953778
0.952436
0.950885
0.949625
0.942601
0.951108
1.90927
2.31793
2.32679
2.31476
2.30659
2.29216
2.28285
2.27093
2.26021
2.24251
2.24317
2.26042
2.27981
2.48129
2.71519
2.69291
2.78738
2.81476
2.89541
2.93886
2.97384
2.9983
3.0104
3.02377
3.05244
3.07476
3.08743
3.09786
3.10597
3.11505
3.11898
3.1199
3.11938
3.115
3.12062
3.12318
3.12446
3.1221
3.11681
3.11298
3.11009
3.10979
3.10896
3.11305
3.11323
3.11315
3.11283
3.11328
3.11054
3.10445
3.10136
3.09772
3.09362
3.08614
3.07605
3.0607
3.03656
3.00691
2.97174
2.93186
2.88168
2.84057
2.82581
2.8373
2.87884
2.92067
2.96755
3.01861
3.05832
3.08236
3.08565
3.07526
3.07847
3.10599
3.13712
3.12237
3.03389
0.988096
0.991117
0.990427
0.990137
0.989665
0.989162
0.988512
0.987806
0.987095
0.986174
0.985217
0.984293
0.983197
0.982003
0.980901
0.97968
0.978251
0.976949
0.97566
0.974135
0.972524
0.97116
0.969832
0.9681
0.966257
0.964634
0.963439
0.962407
0.961118
0.958733
0.957041
0.955879
0.954621
0.954131
0.953102
0.951446
0.949056
0.944096
0.93883
0.927417
0.919515
0.888623
2.03652
2.29602
2.32118
2.3261
2.33257
2.32994
2.32549
2.31922
2.31636
2.31634
2.31481
2.38864
2.4523
2.7614
2.87898
2.97267
3.00852
3.04282
3.0601
3.06826
3.07827
3.08442
3.09169
3.09621
3.10001
3.10549
3.10581
3.10645
3.105
3.10681
3.10906
3.10811
3.11269
3.1126
3.11595
3.11794
3.11843
3.11911
3.11502
3.11068
3.10604
3.10473
3.10318
3.10739
3.10829
3.10667
3.10566
3.10626
3.10401
3.09891
3.09576
3.09224
3.08849
3.08213
3.07237
3.05897
3.03686
3.0072
2.9722
2.93318
2.88634
2.84943
2.83604
2.84639
2.88731
2.92782
2.96953
3.01587
3.05426
3.07723
3.08072
3.06938
3.07027
3.09795
3.12929
3.11119
3.02506
0.988167
0.991171
0.990489
0.990205
0.989727
0.989231
0.988608
0.987876
0.987155
0.986298
0.985284
0.984341
0.983299
0.982057
0.980898
0.979704
0.978239
0.976837
0.975524
0.974032
0.972275
0.970702
0.969416
0.967837
0.96559
0.963857
0.962154
0.961292
0.959914
0.958381
0.955781
0.954151
0.952921
0.951879
0.951532
0.950605
0.950166
0.949751
0.952474
0.94896
0.972792
1.27807
2.23433
2.36106
2.36463
2.36462
2.36277
2.35762
2.35256
2.34629
2.34821
2.35926
2.36273
2.55135
2.7209
2.92685
3.04876
3.07042
3.08571
3.09158
3.10019
3.10568
3.11457
3.11944
3.11968
3.11532
3.10974
3.10324
3.09742
3.09553
3.09231
3.08646
3.0874
3.08804
3.09372
3.09713
3.10083
3.10468
3.10564
3.10811
3.10727
3.10399
3.09904
3.09814
3.09465
3.09858
3.1003
3.09946
3.09893
3.10081
3.09919
3.09443
3.09229
3.08856
3.08503
3.07911
3.06925
3.05611
3.03471
3.00577
2.97195
2.93451
2.89126
2.85573
2.84429
2.85104
2.89163
2.93182
2.97181
3.01403
3.04968
3.07162
3.07647
3.06359
3.06131
3.08941
3.12233
3.09964
3.01745
0.988245
0.991229
0.990555
0.990276
0.989803
0.989299
0.988707
0.987969
0.987227
0.986418
0.985381
0.984397
0.983395
0.982133
0.980918
0.979707
0.978281
0.976762
0.975393
0.973921
0.972041
0.97031
0.968946
0.967414
0.965132
0.962993
0.961177
0.959727
0.958722
0.957303
0.955205
0.952597
0.95118
0.950175
0.949671
0.949586
0.950468
0.952004
0.956734
0.961231
0.984258
1.69193
2.36324
2.39606
2.37556
2.36804
2.35982
2.35424
2.35352
2.35179
2.37516
2.4336
2.49258
2.77843
2.93448
3.06632
3.09936
3.10237
3.10492
3.10398
3.10368
3.10541
3.1109
3.11323
3.1139
3.10585
3.09774
3.08936
3.08088
3.07541
3.07147
3.06509
3.06512
3.06629
3.07322
3.08072
3.08676
3.09109
3.09206
3.09555
3.09786
3.09748
3.09351
3.09294
3.08943
3.09237
3.09512
3.09509
3.09488
3.09777
3.09609
3.09227
3.08955
3.08546
3.0815
3.07576
3.06589
3.05249
3.03262
3.00551
2.97235
2.9347
2.89291
2.86286
2.85417
2.86132
2.89734
2.9344
2.96981
3.01076
3.04527
3.06636
3.07153
3.05751
3.05342
3.0814
3.11355
3.08719
3.01027
0.988326
0.991291
0.990627
0.990354
0.989895
0.989375
0.988809
0.988074
0.987314
0.986531
0.985502
0.984475
0.983471
0.982251
0.980953
0.979724
0.978328
0.976728
0.975253
0.973772
0.971899
0.970007
0.968333
0.966837
0.96496
0.962262
0.960164
0.958248
0.957244
0.955819
0.954469
0.951563
0.949158
0.947616
0.946342
0.945184
0.945045
0.944442
0.945802
0.942114
0.957396
1.97735
2.36499
2.38134
2.36523
2.36679
2.35979
2.35755
2.36285
2.36016
2.42831
2.57352
2.76167
2.95355
3.07615
3.1149
3.10835
3.11006
3.10888
3.0991
3.09727
3.0971
3.1034
3.10209
3.09975
3.09212
3.08344
3.07568
3.06737
3.06233
3.05878
3.05389
3.04786
3.0454
3.05013
3.05674
3.0624
3.06989
3.0721
3.0769
3.08114
3.08477
3.08296
3.08339
3.08028
3.08308
3.08475
3.08692
3.08738
3.09127
3.09009
3.08766
3.08511
3.08027
3.07557
3.06971
3.06043
3.04706
3.02814
3.002
2.97029
2.93649
2.89641
2.8645
2.85586
2.86433
2.90191
2.93879
2.97109
3.00923
3.04145
3.06177
3.0673
3.05116
3.04627
3.07156
3.10459
3.07601
3.00257
0.988414
0.991359
0.990704
0.990438
0.989993
0.989462
0.988912
0.988196
0.987412
0.986631
0.985661
0.98457
0.983544
0.982395
0.981029
0.979754
0.978375
0.976701
0.975131
0.973626
0.971843
0.969743
0.967745
0.966272
0.964522
0.961884
0.959267
0.957077
0.955283
0.954198
0.952444
0.951007
0.947252
0.944751
0.942514
0.939822
0.93535
0.931378
0.923318
0.907313
0.878173
1.99449
2.3316
2.35361
2.3574
2.35911
2.36228
2.36479
2.39244
2.42018
2.55093
2.78264
2.95601
3.07368
3.10927
3.09744
3.0984
3.09399
3.09234
3.08529
3.08552
3.08752
3.09291
3.09149
3.08846
3.08296
3.07663
3.07111
3.06606
3.05734
3.04871
3.04305
3.03737
3.02935
3.02392
3.02902
3.03701
3.04696
3.05411
3.06144
3.06682
3.07317
3.07483
3.07593
3.07415
3.07523
3.078
3.08144
3.08339
3.0866
3.08666
3.08515
3.08187
3.07702
3.07078
3.06444
3.05549
3.04233
3.02441
2.99991
2.96981
2.93667
2.90014
2.87188
2.86352
2.87107
2.90212
2.93783
2.96856
3.00453
3.03669
3.05585
3.06163
3.04478
3.04003
3.06286
3.09585
3.06521
2.99748
0.988506
0.991432
0.990787
0.99053
0.990098
0.989561
0.989017
0.988342
0.987525
0.986736
0.985836
0.984706
0.98363
0.982539
0.981156
0.979817
0.978433
0.97672
0.975037
0.973556
0.971822
0.969465
0.96734
0.965442
0.96387
0.961872
0.958693
0.955962
0.953605
0.952002
0.950582
0.948697
0.946381
0.942883
0.94048
0.93914
0.937653
0.93978
0.935908
0.957256
1.13167
2.18167
2.34665
2.35148
2.35032
2.35628
2.36335
2.36955
2.44982
2.55567
2.79796
2.96127
3.07175
3.10565
3.09549
3.08999
3.08675
3.0818
3.0783
3.07394
3.07598
3.07968
3.08188
3.07976
3.07693
3.07296
3.06931
3.06498
3.06269
3.05872
3.04688
3.03599
3.02732
3.02037
3.01377
3.00797
3.01042
3.01788
3.02445
3.03629
3.04314
3.05002
3.05555
3.05875
3.05951
3.06188
3.06569
3.07052
3.07451
3.07798
3.07935
3.07865
3.0751
3.07055
3.06343
3.05641
3.04765
3.03481
3.0177
2.9945
2.96602
2.93732
2.90171
2.8721
2.86326
2.87109
2.9039
2.93926
2.96713
3.00139
3.0324
3.05094
3.05664
3.03917
3.03387
3.05437
3.08596
3.05398
2.98857
0.988608
0.991512
0.990877
0.990629
0.990212
0.989678
0.989129
0.988494
0.987672
0.986857
0.986005
0.984879
0.983748
0.982641
0.981354
0.979927
0.9785
0.976786
0.975041
0.973459
0.971762
0.969417
0.96704
0.964673
0.963005
0.961187
0.95889
0.955301
0.95228
0.949571
0.947954
0.946124
0.944201
0.940746
0.93868
0.937938
0.938104
0.942587
0.944828
0.980103
1.62822
2.3141
2.35498
2.3473
2.3475
2.35482
2.38502
2.42289
2.57491
2.79566
2.9648
3.06238
3.0902
3.07777
3.06804
3.05971
3.05791
3.05522
3.054
3.05608
3.06294
3.06963
3.07226
3.06997
3.06739
3.06516
3.06355
3.06078
3.06093
3.05729
3.05268
3.03864
3.02488
3.01376
3.00523
2.99818
2.99277
2.99317
2.99924
3.00985
3.02148
3.03243
3.04139
3.04861
3.05108
3.05358
3.05799
3.06418
3.06973
3.07343
3.075
3.07455
3.07016
3.06534
3.05756
3.0499
3.0417
3.02989
3.01344
2.99176
2.96449
2.93771
2.90545
2.87895
2.86863
2.8734
2.89874
2.93383
2.96351
2.99643
3.02719
3.04486
3.04991
3.03286
3.0274
3.04599
3.07727
3.04441
2.98366
0.988715
0.991598
0.990976
0.990739
0.990332
0.98982
0.989254
0.98865
0.987839
0.986996
0.98615
0.985116
0.983912
0.982738
0.981547
0.980112
0.978638
0.976887
0.975079
0.973373
0.971697
0.96958
0.966792
0.964337
0.961869
0.960372
0.9582
0.955698
0.951517
0.94805
0.945075
0.943109
0.94097
0.937975
0.934789
0.931288
0.928144
0.924474
0.915035
0.914877
1.89754
2.31224
2.33853
2.33346
2.34152
2.35546
2.42278
2.57254
2.80587
2.98403
3.06846
3.08886
3.07325
3.06133
3.04857
3.0387
3.03408
3.03246
3.03263
3.03627
3.04287
3.04912
3.05347
3.05578
3.05644
3.05613
3.05615
3.05513
3.05588
3.05347
3.0497
3.04293
3.02943
3.01505
3.00161
2.99207
2.98414
2.97831
2.97763
2.98425
2.99494
3.00677
3.01802
3.02823
3.03341
3.03774
3.04331
3.05062
3.05787
3.06313
3.06537
3.06642
3.06275
3.05807
3.05102
3.04212
3.03324
3.02141
3.00488
2.98475
2.95931
2.93647
2.90528
2.87756
2.86672
2.87154
2.8979
2.93281
2.95962
2.99322
3.02286
3.03956
3.04366
3.02718
3.02117
3.03824
3.0691
3.03377
2.97717
0.988834
0.991693
0.991084
0.990854
0.990465
0.989972
0.989396
0.988804
0.988037
0.987157
0.986327
0.985364
0.984114
0.98287
0.981685
0.980352
0.978916
0.977007
0.975172
0.973308
0.971775
0.969799
0.966653
0.964003
0.961347
0.958983
0.957359
0.954777
0.952017
0.94706
0.943077
0.939454
0.935827
0.932367
0.927966
0.921507
0.91543
0.902292
0.898118
0.880631
2.04446
2.3068
2.33514
2.34867
2.36838
2.45053
2.58576
2.83958
3.01232
3.09165
3.10362
3.08737
3.07212
3.05518
3.04132
3.03135
3.02551
3.02178
3.02099
3.02343
3.02711
3.03134
3.034
3.03604
3.03862
3.04178
3.04685
3.04975
3.05212
3.05015
3.0462
3.0402
3.03229
3.01925
3.00425
2.99045
2.98009
2.97245
2.96539
2.96332