/*--------------------------------*- C++ -*----------------------------------*\
| =========                 |                                                 |
| \\      /  F ield         | OpenFOAM: The Open Source CFD Toolbox           |
|  \\    /   O peration     | Version:  2.2.x                                 |
|   \\  /    A nd           | Web:      www.OpenFOAM.org                      |
|    \\/     M anipulation  |                                                 |
\*---------------------------------------------------------------------------*/
FoamFile
{
    version     2.0;
    format      ascii;
    class       surfaceScalarField;
    location    "2.3";
    object      phi;
}
// * * * * * * * * * * * * * * * * * * * * * * * * * * * * * * * * * * * * * //

dimensions      [1 0 -1 0 0 0 0];

internalField   nonuniform List<scalar> 
28084
(
0.000746238
0.000743029
0.000740284
0.000737982
0.000736077
0.000734582
0.000733469
0.000732681
0.000732252
0.000732134
0.000732193
0.000732572
0.000733196
0.000733938
0.000734827
0.0007359
0.000737099
0.000738366
0.000739671
0.000741024
0.000742421
0.000743839
0.000745251
0.000746625
0.000747957
0.000749226
0.000750435
0.000751514
0.000752482
0.000753367
0.000754159
0.000754888
0.000755562
0.00075622
0.000757103
0.000760145
0.000782922
0.001009
0.00110831
0.00110765
0.00109916
0.00109531
0.00109221
0.00108823
0.00108328
0.00109232
0.0011018
0.00111197
0.00112295
0.00113375
0.00114439
0.0011551
0.0011664
0.00117736
0.00118784
0.00119871
0.00121024
0.00122198
0.00123404
0.00124592
0.00125754
0.00126876
0.00127929
0.00128917
0.00129871
0.0013082
0.00131701
0.00132471
0.00133133
0.00133694
0.00134173
0.00134569
0.00134874
0.00135073
0.00135213
0.00135279
0.00135238
0.00135056
0.00134723
0.00134302
0.00133851
0.00133315
0.00132528
0.001318
0.00131043
0.00130181
0.00129183
0.00128153
0.00127164
0.00126059
0.00124977
0.00124011
0.00123078
0.00122067
0.0012115
0.00120373
0.0011978
0.0011923
0.0011862
0.00117649
0.001162
0.00114356
0.00112254
0.00109915
0.00107247
0.00104095
0.00100204
0.000957166
0.000902851
0.000842823
0.000771782
0.000700484
0.000620648
0.000542928
0.000455792
0.000366775
0.000262715
0.000149374
3.71965e-06
3.22996e-06
0.000749753
2.76714e-06
0.000748823
2.32195e-06
0.000748322
1.92565e-06
0.000748236
1.51907e-06
0.000748553
1.13058e-06
0.000749227
7.94282e-07
0.000750257
4.70203e-07
0.0007516
1.66011e-07
0.000753272
-1.10869e-07
0.000755217
-3.38849e-07
0.000757311
-5.60522e-07
0.000759697
-7.43341e-07
0.000762306
-9.16783e-07
0.000764999
-1.05709e-06
0.000767786
-1.16119e-06
0.000770719
-1.24986e-06
0.000773731
-1.31637e-06
0.000776776
-1.36495e-06
0.000779812
-1.38696e-06
0.000782841
-1.38635e-06
0.000785857
-1.37843e-06
0.000788844
-1.35364e-06
0.000791771
-1.30763e-06
0.000794605
-1.24397e-06
0.000797343
-1.1813e-06
0.000799972
-1.0941e-06
0.000802519
-1.00456e-06
0.000804843
-9.1418e-07
0.000806972
-8.19923e-07
0.000808957
-6.72184e-07
0.000810782
-6.48534e-07
0.000812491
-7.9146e-07
0.000813975
-9.58484e-07
0.000815259
-3.08292e-06
0.000816808
-2.27422e-05
0.000817193
-0.000227733
0.000821096
-0.000101951
0.000830329
5.44137e-09
0.000822174
7.59889e-06
0.000826886
3.35014e-06
0.000832757
3.09275e-06
0.000836815
4.262e-06
0.000843862
5.26347e-06
0.000848584
-8.71336e-06
0.000852509
-9.01597e-06
0.000866697
-9.28681e-06
0.000879492
-1.00674e-05
0.000892673
-9.77611e-06
0.000907499
-9.58174e-06
0.00092382
-9.83111e-06
0.000940109
-1.04148e-05
0.000956133
-1.02565e-05
0.000973359
-9.97324e-06
0.000990735
-1.01705e-05
0.00100721
-1.06092e-05
0.0010229
-1.09927e-05
0.00103911
-1.12707e-05
0.00105471
-1.16578e-05
0.00106949
-1.18502e-05
0.00108302
-1.16198e-05
0.00109486
-1.13379e-05
0.00110647
-1.08842e-05
0.00111716
-1.03129e-05
0.00112677
-9.76113e-06
0.0011361
-9.06648e-06
0.00114386
-8.00387e-06
0.00115063
-7.06495e-06
0.0011565
-6.10227e-06
0.00116131
-5.18038e-06
0.00116523
-4.24832e-06
0.00116818
-3.35315e-06
0.00117001
-2.47829e-06
0.00117115
-1.56881e-06
0.00117172
-7.63506e-07
0.00117169
-8.77238e-08
0.00117096
8.26796e-07
0.00116888
1.93699e-06
0.00116655
3.10342e-06
0.00116419
3.86356e-06
0.00116033
4.63172e-06
0.00115343
6.57265e-06
0.00114669
8.27956e-06
0.00114193
7.60997e-06
0.00113478
8.61487e-06
0.00112427
9.52857e-06
0.00111746
9.45961e-06
0.00111188
9.78432e-06
0.00110135
9.52012e-06
0.00108156
9.8684e-06
0.00106557
1.00674e-05
0.00104397
1.00375e-05
0.0010149
1.0683e-05
0.000991944
8.97898e-06
0.000970249
6.73491e-06
0.00095051
5.0056e-06
0.000925958
4.67612e-06
0.000899036
5.70028e-06
0.000870986
1.02937e-05
0.000840858
1.49421e-05
0.000811822
1.8739e-05
0.00078377
2.08678e-05
0.000755795
2.28012e-05
0.000727328
2.56947e-05
0.000698167
2.99392e-05
0.000668045
3.691e-05
0.000637114
4.24798e-05
0.000604612
5.21093e-05
0.00057173
5.84695e-05
0.000536198
7.01733e-05
0.000498642
7.12667e-05
0.000457075
8.0432e-05
0.000415701
7.90981e-05
0.000369222
8.85331e-05
0.000322193
9.01999e-05
0.000268433
0.000104717
0.000212766
0.00011345
0.000148455
0.000148957
8.64675e-05
5.12908e-06
4.18129e-06
0.000754448
3.29023e-06
0.000755767
2.42927e-06
0.000757488
1.62979e-06
0.000759598
8.699e-07
0.000762083
1.20772e-07
0.000764904
-5.39465e-07
0.000768054
-1.1571e-06
0.000771496
-1.73545e-06
0.000775248
-2.26143e-06
0.000779256
-2.69537e-06
0.000783375
-3.09926e-06
0.000787742
-3.4283e-06
0.000792297
-3.73173e-06
0.0007969
-3.96787e-06
0.000801573
-4.14835e-06
0.00080634
-4.268e-06
0.000811148
-4.35626e-06
0.000815973
-4.40446e-06
0.000820723
-4.39883e-06
0.000825408
-4.34645e-06
0.000830038
-4.27567e-06
0.00083459
-4.16421e-06
0.000839029
-4.02818e-06
0.000843324
-3.83719e-06
0.000847474
-3.65105e-06
0.000851425
-3.43337e-06
0.000855171
-3.18647e-06
0.000858702
-2.94299e-06
0.000862013
-2.70293e-06
0.000865099
-2.40262e-06
0.000867933
-2.20899e-06
0.0008706
-2.31305e-06
0.000872949
-2.89533e-06
0.000874923
-3.68027e-06
0.000875927
-2.66038e-05
0.000876412
-0.000239033
0.000861039
-9.43425e-05
0.000741978
-5.36924e-06
0.000679588
1.28271e-06
0.000680716
-1.16727e-06
0.000695339
-4.50811e-06
0.000715572
-9.87242e-07
0.000738455
7.43799e-07
0.000760078
-2.35056e-05
0.000779422
-2.23834e-05
0.000806503
-2.33253e-05
0.000831836
-2.53691e-05
0.000857201
-2.58558e-05
0.000882754
-2.61491e-05
0.000906309
-2.65957e-05
0.000930044
-2.7836e-05
0.000954302
-2.76151e-05
0.000978032
-2.69605e-05
0.000999393
-2.6497e-05
0.00101993
-2.6443e-05
0.00103994
-2.62784e-05
0.0010596
-2.58359e-05
0.00107735
-2.51819e-05
0.0010944
-2.42896e-05
0.00111006
-2.35835e-05
0.00112466
-2.25643e-05
0.00113897
-2.12631e-05
0.0011508
-1.96713e-05
0.00116116
-1.79232e-05
0.00117125
-1.61362e-05
0.00117949
-1.41466e-05
0.00118696
-1.22438e-05
0.00119303
-1.03579e-05
0.00119723
-8.50326e-06
0.00120002
-6.5706e-06
0.00120123
-4.70327e-06
0.00120124
-2.9687e-06
0.00120094
-1.59479e-06
0.00119961
-4.20487e-07
0.00119746
7.34133e-07
0.00119515
2.04254e-06
0.00119196
3.63505e-06
0.00118813
5.80994e-06
0.00118184
7.81116e-06
0.00117413
9.86797e-06
0.00116636
1.30834e-05
0.00115391
1.64883e-05
0.0011311
1.33416e-05
0.00111591
1.65258e-05
0.00110453
1.83071e-05
0.00107618
2.11006e-05
0.00103351
2.49418e-05
0.00100313
2.6975e-05
0.000955541
3.68212e-05
0.000875273
3.78863e-05
0.000800687
3.30655e-05
0.000733998
3.31287e-05
0.000665485
2.94342e-05
0.00060499
3.06087e-05
0.000555821
3.13254e-05
0.000513235
3.13023e-05
0.000475688
3.50168e-05
0.000442428
4.04791e-05
0.000415926
4.34682e-05
0.000393776
4.65705e-05
0.000371568
4.89366e-05
0.000348343
5.12294e-05
0.000322744
5.47536e-05
0.000296097
5.94241e-05
0.000268769
6.78309e-05
0.00024272
7.3897e-05
0.000217787
8.63343e-05
0.000194697
9.51201e-05
0.000172849
0.000111255
0.000154015
0.000112775
0.000135711
0.000127671
0.000120706
0.000127339
0.000105329
0.00014364
9.54172e-05
0.000146969
8.02725e-05
0.000169501
7.00998e-05
0.00017544
5.3855e-05
0.000235096
3.89267e-05
4.25696e-06
2.88375e-06
0.000760322
1.59115e-06
0.000763857
3.41064e-07
0.000767769
-8.34098e-07
0.000772043
-1.93029e-06
0.000776665
-3.01185e-06
0.000781626
-3.97291e-06
0.000786864
-4.86512e-06
0.000792381
-5.68225e-06
0.000798185
-6.42361e-06
0.000804175
-7.03848e-06
0.00081029
-7.59519e-06
0.000816623
-8.03669e-06
0.000823129
-8.4356e-06
0.000829672
-8.71482e-06
0.000836173
-8.92387e-06
0.00084275
-9.04666e-06
0.000849312
-9.1062e-06
0.000855828
-9.10336e-06
0.000862257
-9.0182e-06
0.000868593
-8.86306e-06
0.000874824
-8.66936e-06
0.000880925
-8.41488e-06
0.000886855
-8.12492e-06
0.000892596
-7.76979e-06
0.000898136
-7.40685e-06
0.000903408
-6.98284e-06
0.00090842
-6.53727e-06
0.000913175
-6.07538e-06
0.000917672
-5.59287e-06
0.000921864
-5.09917e-06
0.000925756
-4.56735e-06
0.000929318
-4.26549e-06
0.000932496
-3.81782e-06
0.000935237
-4.15657e-06
0.000937439
-1.13805e-05
0.000937121
-0.000122631
0.000920004
-3.29351e-05
0.000724217
-7.05524e-06
0.000669808
-1.36508e-05
0.000672506
-2.18143e-05
0.000691513
-2.77569e-05
0.00071494
-2.30345e-05
0.000741255
-1.91515e-05
0.00076663
-5.08852e-05
0.000789988
-4.88728e-05
0.000821245
-4.92709e-05
0.000852409
-5.0923e-05
0.000883327
-5.07188e-05
0.000913069
-5.10698e-05
0.000941283
-5.04503e-05
0.000968546
-5.06824e-05
0.000994166
-4.99694e-05
0.00101973
-4.84662e-05
0.00104447
-4.73923e-05
0.0010677
-4.57708e-05
0.00108933
-4.46313e-05
0.00111025
-4.29892e-05
0.00112977
-4.15259e-05
0.00114796
-3.97315e-05
0.00116453
-3.80727e-05
0.00117865
-3.55612e-05
0.00119108
-3.27594e-05
0.00120163
-3.00224e-05
0.00121126
-2.67187e-05
0.00122027
-2.34778e-05
0.00122734
-2.02207e-05
0.00123306
-1.70529e-05
0.00123706
-1.38151e-05
0.00123973
-1.08756e-05
0.00124081
-7.75424e-06
0.00123986
-4.74287e-06
0.001238
-2.1034e-06
0.00123543
1.52934e-07
0.00123208
1.63715e-06
0.00122896
3.24986e-06
0.00122417
5.40897e-06
0.00121905
8.64117e-06
0.00121445
1.241e-05
0.00120804
1.6181e-05
0.0011969
2.25857e-05
0.00118205
2.77278e-05
0.00117116
3.12924e-05
0.00115762
3.27798e-05
0.00112167
4.42593e-05
0.00108307
4.8038e-05
0.00105912
5.70639e-05
0.00101879
8.52123e-05
0.000924685
9.15e-05
0.000856704
0.000112934
0.000805002
0.00011176
0.000716378
0.000101634
0.000627523
9.13889e-05
0.000562528
7.82345e-05
0.000493545
7.33583e-05
0.000434866
6.81662e-05
0.000383564
6.43019e-05
0.000341055
6.20855e-05
0.000304664
6.35676e-05
0.000273584
6.60076e-05
0.000247083
6.95233e-05
0.000222283
7.38199e-05
0.000198577
7.70111e-05
0.000174137
8.1426e-05
0.000149887
8.49273e-05
0.000124957
9.20938e-05
0.000101089
9.6009e-05
7.8868e-05
0.000107072
5.98717e-05
0.000113084
4.36907e-05
0.000129273
3.27591e-05
0.000128012
2.47576e-05
0.000143802
1.98236e-05
0.000138322
1.45586e-05
0.000159862
1.16372e-05
0.000157918
8.29872e-06
0.000185994
8.77873e-06
0.000190312
6.62639e-06
0.000273833
7.07637e-06
1.13681e-06
-6.30124e-07
0.000767376
-2.29817e-06
0.000773092
-3.91186e-06
0.000779158
-5.43438e-06
0.000785564
-6.86726e-06
0.000792295
-8.22759e-06
0.000799342
-9.47625e-06
0.000806644
-1.06178e-05
0.000814203
-1.16477e-05
0.000821989
-1.25766e-05
0.000830001
-1.33511e-05
0.000838108
-1.40125e-05
0.000846348
-1.45382e-05
0.000854737
-1.49872e-05
0.000863153
-1.52993e-05
0.000871507
-1.54802e-05
0.000879879
-1.55587e-05
0.000888214
-1.55388e-05
0.00089647
-1.54376e-05
0.000904564
-1.52241e-05
0.000912501
-1.49197e-05
0.000920284
-1.45455e-05
0.000927881
-1.40973e-05
0.00093526
-1.36051e-05
0.000942376
-1.30269e-05
0.000949198
-1.24102e-05
0.000955749
-1.17491e-05
0.00096201
-1.10603e-05
0.000967979
-1.02934e-05
0.000973617
-9.55534e-06
0.00097901
-8.78242e-06
0.000983974
-7.93832e-06
0.000988462
-7.23344e-06
0.000992597
-6.15453e-06
0.000996396
-4.04851e-06
0.000999299
5.52824e-06
0.00100013
7.10974e-05
0.000984686
2.00595e-05
0.000884449
-1.00246e-05
0.000774247
-3.30202e-05
0.000756447
-4.59606e-05
0.000770662
-5.46152e-05
0.000794971
-4.89518e-05
0.000820887
-4.33649e-05
0.000846999
-8.25054e-05
0.000870482
-8.10078e-05
0.000902605
-8.10957e-05
0.000937536
-8.13499e-05
0.000971481
-7.93945e-05
0.00100457
-7.92222e-05
0.00103603
-7.68623e-05
0.00106566
-7.62242e-05
0.00109317
-7.38693e-05
0.00112175
-7.2373e-05
0.00114895
-6.97222e-05
0.00117392
-6.78647e-05
0.00119618
-6.46852e-05
0.00121926
-6.14621e-05
0.00124003
-5.76449e-05
0.00126113
-5.38228e-05
0.00127962
-5.07289e-05
0.00129745
-4.70469e-05
0.00131308
-4.29607e-05
0.00132739
-3.87828e-05
0.00133945
-3.40142e-05
0.00134987
-2.92243e-05
0.00136006
-2.45093e-05
0.00136812
-2.03014e-05
0.00137442
-1.58049e-05
0.00137924
-1.16144e-05
0.00138127
-7.24001e-06
0.00138112
-3.06797e-06
0.00137871
3.3919e-07
0.00137552
3.17831e-06
0.0013715
5.79572e-06
0.00136519
8.11953e-06
0.00135867
1.1062e-05
0.00135176
1.5511e-05
0.00134248
2.10266e-05
0.00133107
2.91728e-05
0.00131979
3.71871e-05
0.00130555
4.42979e-05
0.0012809
5.5795e-05
0.0012388
7.33055e-05
0.00121438
7.68825e-05
0.0011835
0.000100866
0.00110752
0.000122843
0.00103318
0.0001475
0.000985482
0.000170215
0.000906553
0.000198486
0.00079967
0.000188779
0.000726213
0.000172691
0.000654042
0.000162274
0.000568122
0.000135807
0.000494774
0.000123845
0.000434
0.000110105
0.00037578
0.000100666
0.000331763
9.39756e-05
0.000293811
9.08325e-05
0.000262025
9.08455e-05
0.000234848
9.26962e-05
0.000208836
9.76712e-05
0.000183819
0.000100717
0.000157749
0.00010607
0.000131557
0.000108524
0.000104643
0.000113683
7.91034e-05
0.000114073
5.52806e-05
0.000122301
3.52409e-05
0.000123375
1.86747e-05
0.000137076
9.10813e-06
0.000133087
9.1333e-07
0.000149643
-5.21082e-06
0.000141994
-1.07904e-05
0.000164014
-1.25901e-05
0.000158118
-1.38379e-05
0.000188585
-1.11684e-05
0.000190141
-8.44867e-06
0.000281143
-2.48492e-06
-4.1947e-06
-6.32385e-06
0.000775615
-8.34218e-06
0.000783471
-1.02951e-05
0.000791653
-1.21426e-05
0.000800152
-1.38907e-05
0.000808953
-1.5507e-05
0.000818037
-1.70157e-05
0.000827391
-1.83868e-05
0.000836947
-1.96135e-05
0.000846712
-2.06841e-05
0.000856689
-2.15998e-05
0.000866754
-2.23308e-05
0.000876866
-2.29266e-05
0.000887099
-2.33798e-05
0.000897366
-2.36627e-05
0.000907538
-2.37803e-05
0.000917679
-2.3775e-05
0.000927728
-2.36299e-05
0.000937663
-2.33832e-05
0.000947402
-2.29917e-05
0.000956927
-2.24863e-05
0.000966252
-2.19048e-05
0.00097535
-2.121e-05
0.000984177
-2.04449e-05
0.000992698
-1.95818e-05
0.00100085
-1.86582e-05
0.00100866
-1.76965e-05
0.00101612
-1.66852e-05
0.00102323
-1.56194e-05
0.00102999
-1.44958e-05
0.00103634
-1.33305e-05
0.00104227
-1.21132e-05
0.00104793
-1.09107e-05
0.00105307
-9.05607e-06
0.00105759
-5.13161e-06
0.00106152
2.07425e-05
0.00106391
0.00016925
0.00105331
0.000129067
0.00100532
6.56127e-06
0.000928517
-4.82043e-05
0.000892946
-7.1223e-05
0.00090721
-8.10157e-05
0.000928179
-7.51651e-05
0.000952426
-6.6945e-05
0.000979751
-0.000114294
0.00100417
-0.00011488
0.00103719
-0.000114929
0.00107454
-0.000114609
0.00111041
-0.000110365
0.00114466
-0.000109189
0.00117618
-0.000105324
0.00120605
-0.000103673
0.00123458
-9.95016e-05
0.00126356
-9.70832e-05
0.00129045
-9.35119e-05
0.00131598
-9.06102e-05
0.00133887
-8.61499e-05
0.00136031
-8.17894e-05
0.00137965
-7.67779e-05
0.00139846
-7.15378e-05
0.00141414
-6.61549e-05
0.00142757
-6.14812e-05
0.00144024
-5.50852e-05
0.00145161
-4.98543e-05
0.00146125
-4.38648e-05
0.00147122
-3.74329e-05
0.00147916
-3.09547e-05
0.00148542
-2.52179e-05
0.00149155
-1.89221e-05
0.00149443
-1.28362e-05
0.00149495
-7.30027e-06
0.0014933
-1.5363e-06
0.00148941
3.47961e-06
0.00148456
8.13843e-06
0.00147846
1.20151e-05
0.00147088
1.56828e-05
0.00146373
1.99783e-05
0.00145584
2.62256e-05
0.00144662
3.40629e-05
0.00143677
4.52059e-05
0.00142456
5.92291e-05
0.0014083
7.42836e-05
0.00138737
9.09354e-05
0.00136146
0.000115782
0.00132373
0.000134716
0.00126027
0.000164141
0.00120521
0.00019711
0.00114433
0.000233749
0.00105389
0.000253708
0.000972554
0.000267491
0.000909664
0.000274976
0.000828158
0.000256775
0.000735534
0.000233922
0.000657001
0.000200417
0.000581508
0.000181976
0.000508771
0.000152709
0.000440347
0.000138036
0.000385825
0.000126483
0.000338137
0.00011915
0.000299499
0.000117308
0.000267536
0.000117651
0.00023809
0.000123457
0.000210536
0.000126587
0.000182478
0.000132765
0.00015399
0.000133894
0.000124055
0.000137096
9.35787e-05
0.000133535
6.44724e-05
0.000138166
3.91403e-05
0.000132347
1.91752e-05
0.000144908
6.92063e-06
0.000139243
-3.49784e-06
0.0001555
-1.01762e-05
0.000144241
-1.60569e-05
0.000165858
-1.81215e-05
0.000156084
-1.93125e-05
0.000186514
-1.77003e-05
0.000184682
-1.46263e-05
0.000279184
-7.32146e-06
-1.1696e-05
-1.41574e-05
0.000785045
-1.65013e-05
0.000794996
-1.8771e-05
0.000805251
-2.09209e-05
0.000815801
-2.29502e-05
0.000826632
-2.48394e-05
0.000837725
-2.65512e-05
0.000849056
-2.81351e-05
0.000860595
-2.95343e-05
0.000872301
-3.07384e-05
0.000884189
-3.17424e-05
0.000896197
-3.25252e-05
0.000908159
-3.31477e-05
0.00092021
-3.35633e-05
0.000932281
-3.37885e-05
0.000944239
-3.37966e-05
0.000956106
-3.36739e-05
0.000967849
-3.33642e-05
0.000979426
-3.29169e-05
0.000990759
-3.22948e-05
0.00100184
-3.15412e-05
0.00101267
-3.06918e-05
0.00102323
-2.9709e-05
0.00103346
-2.86111e-05
0.00104335
-2.74063e-05
0.00105283
-2.61362e-05
0.00106191
-2.48168e-05
0.0010706
-2.34486e-05
0.00107888
-2.20204e-05
0.00108672
-2.05029e-05
0.00109414
-1.90077e-05
0.00110109
-1.73661e-05
0.00110755
-1.56539e-05
0.00111362
-1.34225e-05
0.00111921
-7.90758e-06
0.00112439
3.11066e-05
0.00112868
0.000215137
0.00112357
0.000205288
0.00105081
4.30581e-05
0.00100619
-6.11999e-05
0.00100452
-9.0946e-05
0.00103552
-0.000104659
0.00106582
-0.000102126
0.00109587
-9.05806e-05
0.00112826
-0.000147022
0.00116069
-0.000150977
0.00120423
-0.00014953
0.00124816
-0.000148605
0.00128948
-0.000142427
0.00132813
-0.000139577
0.00136232
-0.000133781
0.00139511
-0.000131817
0.00142611
-0.000126482
0.00145346
-0.000122679
0.00147782
-0.000117379
0.00149998
-0.000112193
0.00151998
-0.000106114
0.00153797
-9.98247e-05
0.00155429
-9.32288e-05
0.00156828
-8.7136e-05
0.00158084
-7.9674e-05
0.00159065
-7.31367e-05
0.00160009
-6.55347e-05
0.00160873
-5.85885e-05
0.00161547
-5.09923e-05
0.00162148
-4.38195e-05
0.00162729
-3.57447e-05
0.0016315
-2.7783e-05
0.00163538
-2.01003e-05
0.0016368
-1.22084e-05
0.00163631
-5.35112e-06
0.00163457
1.69651e-06
0.00163073
7.97044e-06
0.00162524
1.41466e-05
0.00161771
1.93118e-05
0.00160855
2.40759e-05
0.00159932
2.95356e-05
0.00158971
3.66258e-05
0.00157928
4.69382e-05
0.00156735
6.00207e-05
0.0015525
7.81806e-05
0.00153467
0.000103358
0.00151554
0.00013116
0.00148777
0.000164189
0.00145125
0.000198115
0.00140417
0.000237771
0.0013444
0.000270474
0.00127023
0.0003083
0.00119571
0.000327273
0.00111393
0.00035434
0.00102914
0.000354773
0.000953352
0.000334615
0.000878416
0.000315826
0.000797868
0.000273796
0.000707629
0.000250141
0.00062175
0.00020658
0.000541708
0.000184202
0.000473671
0.000165017
0.000412528
0.000152237
0.000363726
0.000147748
0.000324114
0.000145744
0.000289782
0.000151624
0.000258936
0.000154863
0.00022862
0.000162392
0.000198304
0.000164147
0.00016752
0.000165985
0.000134935
0.000158718
0.000102273
0.00015778
7.0728e-05
0.000144277
4.46084e-05
0.000155148
2.6182e-05
0.000145792
8.92068e-06
0.000161362
-1.71915e-06
0.000146517
-1.06014e-05
0.000167436
-1.58394e-05
0.000154994
-1.95667e-05
0.000184086
-1.8934e-05
0.000177952
-1.72947e-05
0.000272578
-1.16693e-05
-2.13218e-05
-2.40868e-05
0.000795671
-2.67327e-05
0.000807671
-2.92972e-05
0.000819951
-3.17287e-05
0.000832505
-3.4019e-05
0.000845322
-3.61487e-05
0.000858381
-3.80679e-05
0.000871663
-3.98299e-05
0.000885133
-4.13719e-05
0.000898723
-4.26819e-05
0.000912471
-4.37399e-05
0.000926354
-4.45607e-05
0.000940167
-4.51716e-05
0.000954
-4.55113e-05
0.000967847
-4.56461e-05
0.000981542
-4.55157e-05
0.000995097
-4.52219e-05
0.0010085
-4.46935e-05
0.00102169
-4.40093e-05
0.00103459
-4.31037e-05
0.0010472
-4.20549e-05
0.00105951
-4.08685e-05
0.0010715
-3.95519e-05
0.00108311
-3.80706e-05
0.00109433
-3.64901e-05
0.0011051
-3.48156e-05
0.00111542
-3.3084e-05
0.00112529
-3.12838e-05
0.00113468
-2.94167e-05
0.00114357
-2.74506e-05
0.00115196
-2.54569e-05
0.00115993
-2.33992e-05
0.0011674
-2.10883e-05
0.00117429
-1.83486e-05
0.00118069
-1.20516e-05
0.00118714
3.60542e-05
0.00119261
0.000286493
0.00120488
0.000248382
0.00118599
4.50079e-05
0.0011862
-9.10615e-05
0.0012548
-0.000119225
0.00129934
-0.000133152
0.00133829
-0.000134366
0.00137331
-0.000122995
0.0014075
-0.0001908
0.00144374
-0.000194603
0.00148453
-0.00018839
0.00151712
-0.000186484
0.00154888
-0.000178337
0.00157334
-0.000172382
0.00159585
-0.000164248
0.00161295
-0.0001585
0.00162959
-0.000151387
0.00164354
-0.000145351
0.00165714
-0.000137624
0.00166936
-0.000130324
0.001681
-0.000122272
0.00169104
-0.000114535
0.00170032
-0.000106496
0.00170818
-9.86532e-05
0.0017152
-9.04519e-05
0.00172099
-8.21779e-05
0.00172575
-7.35607e-05
0.00172919
-6.50196e-05
0.00173178
-5.62386e-05
0.00173326
-4.76083e-05
0.00173436
-3.83137e-05
0.00173507
-2.85683e-05
0.00173525
-1.90986e-05
0.00173523
-1.04097e-05
0.00173402
-1.7855e-06
0.00173206
6.39842e-06
0.00172842
1.44008e-05
0.00172304
2.19342e-05
0.00171598
2.84353e-05
0.00170667
3.47277e-05
0.00169699
4.14837e-05
0.00168706
4.96547e-05
0.0016765
6.14313e-05
0.00166515
7.76496e-05
0.00165276
9.86235e-05
0.00163819
0.000129034
0.00161885
0.000166727
0.00159339
0.000211715
0.00156387
0.000258192
0.00152053
0.000308941
0.00146504
0.00035204
0.00140341
0.00039218
0.00133696
0.000405015
0.00126566
0.000429936
0.0011882
0.000434922
0.00110581
0.000415958
0.00102336
0.000402693
0.000940959
0.000362322
0.000857092
0.000330578
0.000767878
0.000274005
0.000676626
0.000243691
0.000586906
0.000212731
0.000504
0.000192268
0.000438758
0.000183372
0.000385324
0.000177707
0.000341148
0.000182596
0.000303639
0.000185404
0.000270697
0.000193144
0.000240616
0.000196627
0.000210844
0.00019852
0.000179971
0.000190412
0.000146596
0.000183882
0.00010965
0.000162647
7.69744e-05
0.000172227
5.01791e-05
0.000156216
2.58474e-05
0.00016999
1.20691e-05
0.000151625
5.36788e-08
0.00017119
-8.86827e-06
0.000154537
-1.5596e-05
0.000182814
-1.7464e-05
0.000172817
-1.71553e-05
0.000261682
-1.42826e-05
-3.30213e-05
-3.6064e-05
0.000807504
-3.8989e-05
0.0008215
-4.18274e-05
0.000835754
-4.45219e-05
0.000850262
-4.70536e-05
0.000865016
-4.94051e-05
0.000879992
-5.15193e-05
0.000895176
-5.34237e-05
0.000910527
-5.50875e-05
0.000925974
-5.64845e-05
0.000941559
-5.7575e-05
0.000957259
-5.83793e-05
0.000972851
-5.89624e-05
0.000988431
-5.91903e-05
0.00100401
-5.91972e-05
0.0010194
-5.88936e-05
0.0010346
-5.83858e-05
0.00104962
-5.76004e-05
0.00106438
-5.66277e-05
0.00107883
-5.53906e-05
0.00109293
-5.40013e-05
0.00110669
-5.24271e-05
0.00112006
-5.07194e-05
0.00113302
-4.88169e-05
0.00114554
-4.68012e-05
0.00115758
-4.46702e-05
0.00116911
-4.24772e-05
0.00118012
-4.0223e-05
0.0011906
-3.78664e-05
0.00120054
-3.545e-05
0.00120998
-3.30037e-05
0.00121891
-3.05098e-05
0.00122735
-2.77715e-05
0.00123518
-2.50701e-05
0.00124259
-1.76838e-05
0.00124987
2.37868e-05
0.00126128
0.000305659
0.00129357
0.000244472
0.00153494
-2.25605e-05
0.00171131
-0.000134991
0.00175677
-0.000156719
0.00174916
-0.000166263
0.00174536
-0.000167185
0.00174274
-0.000158427
0.00174026
-0.000232217
0.00173821
-0.000228241
0.00174475
-0.000218962
0.0017498
-0.000210002
0.00175355
-0.000200307
0.00175845
-0.000189438
0.00176236
-0.000181255
0.00176612
-0.000172704
0.00177009
-0.000164738
0.00177359
-0.000156743
0.00177756
-0.000148656
0.00178159
-0.000140217
0.00178576
-0.000131523
0.00178949
-0.000122662
0.00179321
-0.000113777
0.00179649
-0.000104736
0.00179948
-9.58986e-05
0.00180179
-8.64573e-05
0.00180267
-7.72318e-05
0.00180253
-6.759e-05
0.00180178
-5.7727e-05
0.00180075
-4.80361e-05
0.00180026
-3.79194e-05
0.00180005
-2.74588e-05
0.00179798
-1.66351e-05
0.00179596
-7.32561e-06
0.00179446
2.73764e-06
0.00179178
1.19495e-05
0.00178813
2.1411e-05
0.00178207
3.02793e-05
0.00177459
3.81667e-05
0.00176496
4.54358e-05
0.00175465
5.3104e-05
0.00174406
6.20873e-05
0.00173265
7.45116e-05
0.0017207
9.24756e-05
0.00170749
0.000117519
0.001692
0.000153961
0.00167209
0.000196235
0.0016471
0.000254992
0.00161243
0.000312627
0.00157222
0.000371996
0.0015281
0.000421039
0.00147586
0.000463301
0.00142297
0.000482178
0.00136619
0.000510764
0.00130398
0.000515773
0.00124066
0.000498539
0.00117105
0.000489077
0.0010946
0.000452241
0.00101228
0.000422076
0.000924036
0.000363841
0.000827281
0.000325654
0.000719337
0.000276668
0.000611279
0.000245075
0.000524849
0.00022831
0.000454004
0.000216149
0.000397859
0.000216201
0.000352991
0.000215813
0.000315509
0.00022314
0.000282653
0.000227657
0.000252063
0.000232188
0.000221581
0.000227843
0.000191343
0.000216988
0.000159752
0.000189699
0.000123395
0.000196547
8.82263e-05
0.000169781
5.6652e-05
0.000181688
3.40486e-05
0.000160195
1.47179e-05
0.000177599
1.5291e-06
0.000156276
-8.15249e-06
0.000182646
-1.30694e-05
0.000170341
-1.48249e-05
0.000247746
-1.39753e-05
-4.67411e-05
-5.00362e-05
0.000820555
-5.3219e-05
0.00083649
-5.63115e-05
0.000852662
-5.9251e-05
0.00086907
-6.20069e-05
0.000885707
-6.45596e-05
0.00090255
-6.68445e-05
0.000919579
-6.88809e-05
0.000936771
-7.06357e-05
0.000954023
-7.2092e-05
0.00097138
-7.31929e-05
0.000988846
-7.39618e-05
0.0010062
-7.44645e-05
0.00102347
-7.45753e-05
0.00104073
-7.44038e-05
0.00105781
-7.38958e-05
0.00107459
-7.3116e-05
0.00109117
-7.20414e-05
0.00110746
-7.0733e-05
0.00112341
-6.91273e-05
0.00113898
-6.73376e-05
0.00115415
-6.53427e-05
0.00116888
-6.31949e-05
0.00118317
-6.08074e-05
0.00119696
-5.83048e-05
0.0012102
-5.56746e-05
0.00122287
-5.29711e-05
0.00123496
-5.01784e-05
0.00124648
-4.72915e-05
0.00125743
-4.43286e-05
0.00126781
-4.13816e-05
0.00127773
-3.83504e-05
0.0012869
-3.51652e-05
0.00129534
-3.22119e-05
0.00130346
-2.90506e-05
0.00131121
-8.75418e-06
0.00132025
6.39167e-05
0.00136363
6.59453e-05
0.00157753
-6.96356e-05
0.00184355
-0.000128983
0.00188793
-0.000152841
0.0018878
-0.000163363
0.00188214
-0.000164677
0.00187464
-0.000156221
0.00186452
-0.000238601
0.00185613
-0.000232919
0.00185075
-0.000222231
0.00184559
-0.000214522
0.00184136
-0.000203777
0.00183202
-0.000192974
0.00182493
-0.000185357
0.00181862
-0.000176274
0.00181456
-0.000168437
0.00181104
-0.000160217
0.00180729
-0.000152241
0.00180337
-0.000143433
0.00180136
-0.000134613
0.00179923
-0.000125448
0.00179878
-0.000116373
0.00179838
-0.00010678
0.0017986
-9.74092e-05
0.00179829
-8.75499e-05
0.00179758
-7.77115e-05
0.00179556
-6.76562e-05
0.0017934
-5.70821e-05
0.00179126
-4.70193e-05
0.00179016
-3.60228e-05
0.00178874
-2.50555e-05
0.0017858
-1.43875e-05
0.00178185
-3.05998e-06
0.00177709
7.59759e-06
0.00177206
1.84357e-05
0.00176559
2.87898e-05
0.001759
3.90588e-05
0.00175202
4.80909e-05
0.00174394
5.66404e-05
0.00173469
6.54705e-05
0.0017249
7.54718e-05
0.00171528
8.86033e-05
0.00170605
0.000108085
0.00169582
0.000137116
0.00168392
0.00017818
0.00166787
0.000230268
0.00164218
0.000296521
0.00160769
0.000358897
0.00156459
0.000422658
0.00152406
0.000470419
0.0014824
0.000519975
0.00144262
0.000544152
0.00139861
0.000575109
0.00135095
0.000584769
0.00130595
0.000573649
0.00125003
0.000568729
0.00118553
0.000539119
0.00111261
0.000520521
0.00103065
0.000474047
0.000940422
0.000434778
0.000841704
0.00036229
0.000736102
0.000314691
0.000622326
0.000284613
0.000525899
0.000261786
0.000451968
0.000254289
0.000396544
0.000248849
0.000353107
0.000253944
0.000317072
0.000258598
0.000285569
0.000263239
0.000256878
0.000260608
0.000228647
0.000254308
0.000198857
0.000225526
0.000164911
0.000228293
0.000124059
0.00019224
8.74014e-05
0.000200578
5.49235e-05
0.00017289
2.86095e-05
0.000186816
1.42341e-05
0.000161015
2.81077e-06
0.000184574
-5.33953e-06
0.000169978
-8.61002e-06
0.000234294
-1.03685e-05
-6.24215e-05
-6.59468e-05
0.000834837
-6.93669e-05
0.000852649
-7.26949e-05
0.000870679
-7.58627e-05
0.000888929
-7.88257e-05
0.000907391
-8.15599e-05
0.000926043
-8.39935e-05
0.000944861
-8.61521e-05
0.00096383
-8.79761e-05
0.000982847
-8.94628e-05
0.00100193
-9.05532e-05
0.00102111
-9.12563e-05
0.00104016
-9.16421e-05
0.00105909
-9.16169e-05
0.00107797
-9.12186e-05
0.00109666
-9.04554e-05
0.001115
-8.93767e-05
0.0011331
-8.79821e-05
0.00115087
-8.62819e-05
0.00116828
-8.42746e-05
0.00118526
-8.20348e-05
0.0012018
-7.9578e-05
0.00121786
-7.69261e-05
0.00123343
-7.40205e-05
0.00124845
-7.09813e-05
0.00126288
-6.77989e-05
0.00127664
-6.45213e-05
0.00128983
-6.11719e-05
0.0013024
-5.77141e-05
0.00131435
-5.42131e-05
0.00132568
-5.06696e-05
0.00133655
-4.71318e-05
0.00134671
-4.35614e-05
0.00135591
-3.99674e-05
0.00136472
-3.82025e-05
0.00137401
-5.27564e-05
0.00138633
-0.000151804
0.00142214
-0.000207778
0.00166666
-0.000115368
0.0017841
-0.000128077
0.00183691
-0.000145685
0.00183661
-0.000155262
0.00182579
-0.000155049
0.00180867
-0.000147406
0.00179011
-0.000232092
0.00177129
-0.000225831
0.0017506
-0.000216543
0.00174153
-0.000204274
0.00173312
-0.000195594
0.001729
-0.000186343
0.00172829
-0.000180242
0.00173158
-0.000171142
0.00173626
-0.000164745
0.00174241
-0.000156674
0.00174944
-0.000150108
0.0017571
-0.000140925
0.00176501
-0.000133103
0.00177161
-0.000123627
0.00177836
-0.000115486
0.00178547
-0.000105645
0.0017919
-9.67287e-05
0.00179746
-8.66029e-05
0.00180186
-7.67695e-05
0.00180457
-6.59959e-05
0.00180553
-5.52496e-05
0.0018055
-4.43684e-05
0.00180619
-3.29562e-05
0.00180595
-2.14943e-05
0.00180303
-9.7096e-06
0.00179741
2.04107e-06
0.00179112
1.36929e-05
0.00178439
2.51181e-05
0.00177666
3.66038e-05
0.00176818
4.74264e-05
0.0017592
5.74491e-05
0.00175056
6.67619e-05
0.00174003
7.6142e-05
0.0017282
8.63963e-05
0.00171507
9.97405e-05
0.00170084
0.000120149
0.00168445
0.000153169
0.00166476
0.000203147
0.00164106
0.000263777
0.00160702
0.000339292
0.00156382
0.000400228
0.00152294
0.000464471
0.00148292
0.000511993
0.00145006
0.000563071
0.00141815
0.000591198
0.00138653
0.000620055
0.00134612
0.000640442
0.00131003
0.000637121
0.00127238
0.000640108
0.00122203
0.000620857
0.00116207
0.000612232
0.00109191
0.000575138
0.00101285
0.000541377
0.000923346
0.000475071