/*--------------------------------*- C++ -*----------------------------------*\
| =========                 |                                                 |
| \\      /  F ield         | OpenFOAM: The Open Source CFD Toolbox           |
|  \\    /   O peration     | Version:  2.2.x                                 |
|   \\  /    A nd           | Web:      www.OpenFOAM.org                      |
|    \\/     M anipulation  |                                                 |
\*---------------------------------------------------------------------------*/
FoamFile
{
    version     2.0;
    format      ascii;
    class       volScalarField;
    location    "2.3";
    object      T;
}
// * * * * * * * * * * * * * * * * * * * * * * * * * * * * * * * * * * * * * //

dimensions      [0 0 0 1 0 0 0];

internalField   nonuniform List<scalar> 
14161
(
0.947465
0.952299
0.950543
0.948817
0.946761
0.944307
0.941486
0.938485
0.935053
0.931539
0.92806
0.924049
0.920271
0.916736
0.913006
0.909545
0.90644
0.903574
0.901059
0.898721
0.896705
0.895159
0.893966
0.893019
0.892299
0.89181
0.891711
0.892165
0.892954
0.894164
0.895901
0.898193
0.900407
0.901113
0.892674
0.872204
0.80359
1.42294
2.27991
2.31215
2.32269
2.31874
2.33088
2.33199
2.34636
2.3567
2.3644
2.37384
2.38188
2.38846
2.3953
2.40273
2.40905
2.41292
2.41608
2.41984
2.42405
2.42585
2.42526
2.42381
2.42213
2.41912
2.41623
2.41419
2.41354
2.41245
2.41373
2.41531
2.41815
2.42178
2.42623
2.43124
2.43603
2.44129
2.44651
2.45015
2.45262
2.45536
2.45845
2.46177
2.46321
2.46624
2.47497
2.48258
2.48614
2.49434
2.5006
2.50706
2.51146
2.51887
2.52851
2.53847
2.54314
2.54931
2.55472
2.55657
2.55375
2.55032
2.55114
2.56341
2.58386
2.61139
2.64414
2.68096
2.71924
2.76208
2.80655
2.85399
2.90114
2.94666
2.98765
3.02436
3.05592
3.08055
3.10444
3.11734
3.13573
3.14042
3.14715
0.947383
0.95223
0.950504
0.948844
0.946672
0.944235
0.941445
0.938401
0.934965
0.931461
0.927995
0.923962
0.920188
0.916613
0.912936
0.909444
0.906318
0.903456
0.900932
0.898568
0.896546
0.89497
0.893763
0.892835
0.892182
0.891741
0.891656
0.892089
0.893011
0.894395
0.896382
0.899104
0.902953
0.906272
0.902004
0.884164
0.866356
2.00905
2.85851
2.91644
2.92
2.91181
2.90669
2.89844
2.89108
2.88445
2.87664
2.86831
2.86219
2.85214
2.84081
2.8305
2.82102
2.80852
2.79601
2.78543
2.77367
2.76261
2.75263
2.74334
2.73586
2.72896
2.72294
2.7176
2.71488
2.7124
2.71197
2.71211
2.71319
2.71573
2.71887
2.7233
2.7277
2.73199
2.7355
2.73817
2.74174
2.74429
2.74386
2.74424
2.75112
2.76059
2.75952
2.75708
2.77284
2.7822
2.76794
2.77017
2.79687
2.80813
2.8125
2.84751
2.8662
2.88547
2.89731
2.91701
2.93558
2.95954
2.98089
3.00035
3.02675
3.05059
3.07273
3.09429
3.11428
3.13355
3.14913
3.16526
3.17305
3.18122
3.18017
3.17906
3.17542
3.1695
3.1672
3.15818
3.15872
3.15191
3.14853
0.947362
0.952193
0.950472
0.94881
0.946661
0.944215
0.941427
0.938352
0.934916
0.931385
0.927912
0.923912
0.920153
0.916597
0.912858
0.909346
0.906261
0.903518
0.900908
0.898423
0.896378
0.894781
0.893583
0.892713
0.892134
0.891617
0.891458
0.891725
0.892304
0.893366
0.895191
0.89777
0.901843
0.908244
0.923453
0.965813
0.980324
2.59852
3.06982
3.08751
3.08728
3.07169
3.05781
3.04129
3.02376
3.00904
2.99058
2.973
2.95743
2.93913
2.92052
2.90241
2.88588
2.86701
2.84926
2.83237
2.81505
2.7991
2.78663
2.77195
2.75934
2.74809
2.73537
2.72793
2.72287
2.71669
2.71376
2.71288
2.71195
2.7141
2.71646
2.72097
2.72519
2.72971
2.73527
2.73892
2.74114
2.7435
2.74989
2.75658
2.75727
2.76288
2.79142
2.81506
2.80779
2.82383
2.89079
2.92028
2.90975
2.99367
3.06833
3.10214
3.13732
3.17733
3.20291
3.22291
3.24176
3.25831
3.26722
3.27466
3.28024
3.28701
3.29431
3.30058
3.30596
3.30797
3.30784
3.30753
3.30231
3.29726
3.28404
3.26759
3.2388
3.21134
3.19081
3.17311
3.16603
3.15505
3.14318
0.947301
0.952122
0.950405
0.948739
0.946612
0.944062
0.941324
0.938249
0.934813
0.93129
0.927805
0.923818
0.92009
0.916466
0.912951
0.909229
0.905978
0.903125
0.900543
0.898156
0.896151
0.894525
0.89331
0.892454
0.891837
0.891369
0.891356
0.891846
0.892624
0.894221
0.896791
0.900611
0.906243
0.915209
0.929085
0.955115
0.932727
2.7345
3.10659
3.10043
3.10974
3.09212
3.07976
3.06329
3.04693
3.03169
3.0111
2.98953
2.96853
2.9483
2.92843
2.90781
2.88716
2.8688
2.85011
2.83288
2.81397
2.7968
2.78153
2.76921
2.75781
2.74987
2.74174
2.73746
2.73418
2.73046
2.73124
2.73207
2.7356
2.73769
2.74314
2.748
2.75369
2.75872
2.76387
2.76825
2.7745
2.77735
2.7792
2.78655
2.80852
2.812
2.80121
2.83448
2.90616
2.91195
2.89466
2.98237
3.07528
3.06353
3.07759
3.15984
3.18731
3.19881
3.22382
3.24465
3.26017
3.27023
3.28187
3.29432
3.30701
3.31838
3.32954
3.33634
3.34205
3.34197
3.3383
3.33216
3.3214
3.31059
3.29244
3.27808
3.25093
3.22282
3.20001
3.17682
3.16849
3.15237
3.14096
0.94729
0.952091
0.950373
0.948698
0.946561
0.944013
0.94126
0.93818
0.934815
0.931219
0.927663
0.923782
0.919988
0.916244
0.912617
0.909053
0.905877
0.90305
0.900486
0.898029
0.895973
0.894368
0.893135
0.89214
0.891296
0.890777
0.89058
0.890714
0.891028
0.891619
0.892828
0.89515
0.898967
0.90648
0.92071
0.95182
0.942624
2.58854
3.05024
3.08495
3.0972
3.08111
3.06705
3.04862
3.03043
3.01425
2.99309
2.9727
2.95017
2.93081
2.91093
2.89139
2.87097
2.85337
2.83569
2.81848
2.8
2.78191
2.76513
2.75022
2.73517
2.72058
2.70738
2.69671
2.68593
2.6792
2.67073
2.66727
2.66671
2.66572
2.66976
2.67272
2.678
2.68318
2.68961
2.69593
2.70223
2.70925
2.72039
2.73002
2.72874
2.74123
2.80485
2.82796
2.79479
2.8643
2.97818
2.98277
2.96987
3.07951
3.12972
3.12657
3.16631
3.21133
3.22792
3.24188
3.25781
3.26499
3.27344
3.28262
3.2905
3.2979
3.30582
3.31543
3.32744
3.33596
3.3389
3.33583
3.32514
3.31314
3.29529
3.27786
3.24878
3.22093
3.19708
3.17477
3.16469
3.14865
3.13652
0.947246
0.952031
0.950309
0.948626
0.946484
0.943991
0.941111
0.938067
0.934718
0.931109
0.927417
0.923697
0.919798
0.916019
0.912359
0.908805
0.90558
0.902785
0.900219
0.897672
0.895523
0.893895
0.892602
0.89162
0.890889
0.890556
0.890617
0.89107
0.892022
0.893657
0.896379
0.900233
0.906374
0.915183
0.928539
0.935004
0.940554
2.38017
2.99015
3.0109
3.03461
3.01223
3.00327
2.98342
2.96557
2.95278
2.93018
2.91536
2.89446
2.87292
2.84658
2.82651
2.80021
2.77668
2.75132
2.73249
2.70997
2.69056
2.67137
2.65514
2.64192
2.6347
2.62231
2.61603
2.60689
2.59983
2.59098
2.58852
2.58501
2.59041
2.59197
2.5986
2.60275
2.6091
2.61426
2.62015
2.6256
2.63283
2.63917
2.64446
2.65396
2.66716
2.68782
2.69769
2.7676
2.83347
2.83589
2.90715
2.97971
3.00629
3.01973
3.08353
3.12528
3.15062
3.18881
3.21694
3.23826
3.24954
3.25992
3.27072
3.27922
3.28613
3.29409
3.30312
3.31519
3.32686
3.33394
3.33445
3.32599
3.31315
3.29294
3.27526
3.24528
3.21858
3.1938
3.17238
3.16117
3.14703
3.1364
0.947244
0.952005
0.950277
0.94858
0.946426
0.94393
0.941095
0.93796
0.934625
0.930979
0.927253
0.92361
0.919611
0.915827
0.912165
0.908609
0.905306
0.902427
0.899777
0.897265
0.895122
0.893466
0.892141
0.89119
0.890311
0.889727
0.889392
0.889267
0.88912
0.888901
0.888373
0.887459
0.885569
0.883332
0.880738
0.880921
0.910388
2.25331
3.0062
2.97406
3.03133
2.98578
2.97711
2.9503
2.92993
2.89478
2.8474
2.81728
2.77816
2.74761
2.71278
2.69017
2.66581
2.64423
2.62069
2.60655
2.59009
2.57724
2.56189
2.55379
2.54191
2.53847
2.5297
2.52642
2.5204
2.51585
2.50721
2.50819
2.50338
2.50997
2.51013
2.51731
2.52212
2.5294
2.53624
2.54209
2.55005
2.55804
2.56541
2.57447
2.58633
2.59831
2.6041
2.6436
2.65467
2.70788
2.7448
2.81063
2.83329
2.90411
2.94409
2.9866
3.03356
3.08644
3.13576
3.1705
3.2049
3.22497
3.24084
3.25414
3.26413
3.272
3.27903
3.28742
3.29841
3.31244
3.32516
3.33149
3.32889
3.31598
3.29401
3.27451
3.24313
3.21418
3.18802
3.16903
3.1588
3.14749
3.13757
0.947208
0.951951
0.950213
0.9485
0.946334
0.943823
0.94097
0.937781
0.934527
0.93085
0.927061
0.923413
0.919354
0.915553
0.911849
0.908226
0.904949
0.902061
0.899324
0.896722
0.894475
0.892764
0.891359
0.890432
0.889719
0.889397
0.889422
0.889873
0.890801
0.892419
0.894953
0.898942
0.905069
0.912378
0.923455
0.930258
0.957373
1.79912
2.85818
2.90656
2.87628
2.8187
2.77966
2.74423
2.70716
2.67216
2.63609
2.62152
2.59635
2.58848
2.56723
2.5669
2.54707
2.54817
2.52806
2.52843
2.51031
2.51116
2.49519
2.49589
2.48231
2.4834
2.47407
2.47549
2.46977
2.47171
2.46509
2.46903
2.46293
2.46889
2.46753
2.4732
2.47577
2.48112
2.48644
2.49269
2.49852
2.50659
2.51217
2.51897
2.52258
2.54157
2.54104
2.58224
2.5802
2.64362
2.65153
2.70921
2.72939
2.79303
2.81421
2.85912
2.91858
2.9683
3.03299
3.09364
3.15521
3.1878
3.21364
3.23276
3.24594
3.25739
3.26578
3.27376
3.28175
3.29392
3.31258
3.32391
3.32694
3.31758
3.29477
3.2748
3.24248
3.21291
3.18481
3.16933
3.15797
3.14824
3.14019
0.947208
0.951927
0.950178
0.948448
0.946265
0.94374
0.940866
0.93765
0.934402
0.930685
0.926893
0.92326
0.919108
0.915284
0.911587
0.907936
0.904589
0.901611
0.898795
0.896202
0.893909
0.892151
0.890691
0.889628
0.888847
0.888231
0.887722
0.887351
0.886815
0.885672
0.883277
0.878429
0.869079
0.851727
0.818307
0.746288
0.705279
1.13629
2.34035
2.54953
2.47435
2.4607
2.46133
2.46287
2.47799
2.4848
2.48421
2.50282
2.49523
2.51774
2.50365
2.51763
2.50375
2.51154
2.49708
2.50093
2.48663
2.48884
2.4752
2.47707
2.46509
2.46775
2.45983
2.46174
2.45675
2.45842
2.45343
2.45485
2.45463
2.45088
2.45594
2.45423
2.45841
2.46179
2.46736
2.47234
2.47767
2.48308
2.48834
2.49414
2.49667
2.51856
2.51628
2.5612
2.54276
2.59901
2.58083
2.62507
2.62281
2.68405
2.70772
2.75357
2.80499
2.85198
2.91509
2.97565
3.05025
3.11308
3.16768
3.20204
3.22313
3.23806
3.24731
3.25739
3.26642
3.27421
3.29022
3.30561
3.31885
3.3177
3.29792
3.27794
3.24354
3.21295
3.18416
3.16991
3.15775
3.14859
3.14281
0.947175
0.951877
0.950114
0.948364
0.946165
0.943624
0.940732
0.937485
0.93425
0.930503
0.926679
0.923011
0.918834
0.914915
0.911152
0.907489
0.904092
0.901026
0.898152
0.895434
0.893052
0.891163
0.889675
0.888575
0.887862
0.887577
0.887611
0.888084
0.889041
0.890645
0.89309
0.897592
0.904304
0.913923
0.928066
0.961052
1.0368
1.3483
2.47933
2.56594
2.49064
2.46754
2.46112
2.47156
2.48144
2.49294
2.5009
2.51128
2.50701
2.52186
2.51137
2.52356
2.51365
2.5202
2.5152
2.52108
2.51126
2.51358
2.50362
2.50651
2.49802
2.50075
2.4946
2.49685
2.49206
2.49346
2.48877
2.49308
2.48988
2.49638
2.49455
2.50181
2.50259
2.50856
2.51294
2.51831
2.52313
2.5279
2.53084
2.53627
2.53867
2.55607
2.54855
2.60367
2.5741
2.6261
2.58277
2.61271
2.57946
2.61251
2.62145
2.65838
2.71324
2.75884
2.82191
2.87946
2.95088
3.01613
3.08649
3.14766
3.18869
3.21406
3.22913
3.24066
3.25095
3.25884
3.26865
3.28245
3.30136
3.31096
3.29968
3.28267
3.24676
3.21498
3.18422
3.16899
3.15631
3.14626
3.14347
0.94717
0.95185
0.950073
0.948302
0.94608
0.94352
0.940611
0.937332
0.93408
0.930329
0.926461
0.922732
0.91859
0.914545
0.910781
0.907127
0.903544
0.900366
0.897461
0.894676
0.892243
0.890225
0.888683
0.887447
0.886621
0.886015
0.885524
0.885203
0.884819
0.883883
0.881652
0.877727
0.870626
0.855726
0.828562
0.777421
0.765219
1.35063
2.53218
2.64397
2.57618
2.55539
2.55363
2.56874
2.58039
2.59811
2.62227
2.63213
2.6426
2.64314
2.65127
2.64575
2.64942
2.63962
2.6396
2.62471
2.62257
2.60912
2.60507
2.59106
2.58825
2.57463
2.57239
2.56265
2.55953
2.55566
2.54959
2.54957
2.54698
2.55253
2.54989
2.55709
2.55608
2.56186
2.56333
2.56801
2.57194
2.57752
2.58312
2.59245
2.60159
2.62059
2.61518
2.68197
2.63064
2.68439
2.63442
2.66104
2.6193
2.63247
2.62201
2.61188
2.64413
2.6734
2.73336
2.7832
2.85405
2.92509
3.0041
3.07815
3.14194
3.18229
3.20626
3.22142
3.23333
3.24435
3.25103
3.26207
3.2805
3.29379
3.29765
3.28799
3.2533
3.21992
3.18514
3.16536
3.15265
3.13922
3.14169
0.947139
0.951804
0.950009
0.948215
0.945973
0.943396
0.94047
0.937167
0.933855
0.930131
0.926211
0.922359
0.918334
0.914068
0.910288
0.90667
0.902915
0.899576
0.896578
0.893646
0.891148
0.888945
0.887259
0.885991
0.885266
0.884843
0.884975
0.885446
0.886776
0.888742
0.89174
0.897452
0.905602
0.913522
0.925744
0.936325
0.977099
2.00409
2.87229
2.9157
2.91268
2.86909
2.85218
2.83491
2.81891
2.81041
2.79866
2.7861
2.77412
2.75961
2.7465
2.72794
2.71433
2.69226
2.68436
2.66498
2.65472
2.63563
2.62734
2.60892
2.60512
2.59229
2.59064
2.57972
2.57769
2.56643
2.56685
2.56035
2.56398
2.55892
2.56639
2.56583
2.57217
2.57202
2.57929
2.58331
2.59167
2.5986
2.60968
2.61519
2.64066
2.64865
2.70484
2.68325
2.72734
2.68093
2.70386
2.66723
2.67923
2.63639
2.64045
2.62054
2.63337
2.63392
2.67532
2.71453
2.77848
2.84504
2.92329
2.9989
3.07122
3.13463
3.17454
3.1985
3.2137
3.22825
3.2368
3.24426
3.26109
3.27418
3.28562
3.2867
3.26113
3.22784
3.18709
3.16114
3.14621
3.12869
3.13564
0.947123
0.951769
0.949958
0.948139
0.945871
0.943268
0.940323
0.937002
0.933594
0.929952
0.925932
0.921979
0.918032
0.913597
0.909742
0.906059
0.902188
0.898734
0.895646
0.892619
0.889995
0.887665
0.88585
0.884396
0.883432
0.882551
0.882303
0.882333
0.882686
0.88322
0.883744
0.885501
0.88761
0.888805
0.894144
0.907831
0.951796
2.46768
2.97227
2.96482
2.98464
2.9322
2.91626
2.89102
2.87366
2.85585
2.83918
2.82291
2.79818
2.7847
2.76104
2.7356
2.71957
2.69444
2.67935
2.65665
2.65159
2.62882
2.61818
2.59642
2.59509
2.58395
2.58187
2.56897
2.56761
2.55565
2.55942
2.55694
2.56374
2.56084
2.56916
2.56874
2.57701
2.57702
2.58632
2.58724
2.59851
2.60494
2.62411
2.63814
2.68225
2.69339
2.75604
2.72031
2.76927
2.72668
2.74926
2.70733
2.71445
2.6752
2.67817
2.6492
2.66071
2.63784
2.65425
2.6712
2.72032
2.77656
2.84693
2.92213
3.00145
3.07375
3.1338
3.17163
3.19408
3.21227
3.22578
3.23144
3.24327
3.25543
3.26692
3.27646
3.26567
3.23755
3.19074
3.15988
3.13635
3.12286
3.12506
0.947086
0.951716
0.949886
0.948043
0.945752
0.943124
0.940157
0.936817
0.933291
0.929724
0.925568
0.92159
0.917658
0.913082
0.909123
0.905364
0.90147
0.897784
0.894542
0.891402
0.888509
0.886079
0.884011
0.882507
0.881649
0.880778
0.880925
0.881572
0.883377
0.88628
0.891127
0.89971
0.913283
0.930263
0.954533
0.998588
1.02394
2.63275
2.97634
2.98233
2.99241
2.9505
2.93105
2.89679
2.87455
2.84989
2.83035
2.81047
2.77766
2.76428
2.73833
2.71313
2.68975
2.66664
2.65252
2.62641
2.62082
2.59649
2.58573
2.55904
2.55683
2.542
2.53948
2.52408
2.52098
2.50722
2.51142
2.50735
2.51449
2.51449
2.523
2.52322
2.53302
2.53719
2.54695
2.55134
2.56646
2.57736
2.61137
2.63543
2.70735
2.70827
2.78384
2.74701
2.78493
2.74948
2.76825
2.7362
2.74872
2.71256
2.72231
2.68977
2.705
2.6787
2.65713
2.65926
2.69077
2.73336
2.78984
2.85561
2.93458
3.01112
3.08687
3.14324
3.17437
3.19643
3.21281
3.22077
3.22754
3.2391
3.24942
3.26255
3.26614
3.24646
3.19771
3.15843
3.13127
3.11993
3.11302
0.947057
0.951672
0.949824
0.947953
0.945632
0.942971
0.939984
0.936606
0.93302
0.92948
0.925213
0.921138
0.917187
0.912632
0.908393
0.904562
0.900697
0.896648
0.893256
0.890146
0.886927
0.884342
0.882088
0.880478
0.879203
0.877804
0.877268
0.877455
0.878127
0.879457
0.881601
0.885412
0.89298
0.903763
0.917641
0.95136
0.985571
2.61029
2.98887
2.9883
2.95497
2.9096
2.87425
2.83873
2.81252
2.78061
2.75644
2.73806
2.70437
2.69035
2.6568
2.64426
2.61598
2.60644
2.59254
2.57721
2.56953
2.54441
2.54297
2.51918
2.5185
2.49724
2.49572
2.47853
2.4803
2.46697
2.47121
2.46301
2.46928
2.46963
2.4817
2.48006
2.49418
2.49745
2.51661
2.52179
2.55139
2.56902
2.61684
2.63851
2.70936
2.68631
2.75066
2.70236
2.73271
2.70637
2.72993
2.70283
2.7298
2.71157
2.74146
2.72305
2.75031
2.72892
2.7155
2.66908
2.67361
2.70567
2.7538
2.81311
2.88526
2.96356
3.03938
3.10635
3.14761
3.17256
3.19188
3.20461
3.21164
3.22026
3.23522
3.24599
3.25606
3.24881
3.20765
3.16089
3.12883
3.11862
3.10754
0.947002
0.951605
0.94974
0.947842
0.945491
0.942784
0.939803
0.93637
0.932727
0.929178
0.924844
0.920652
0.916623
0.912202
0.907593
0.90365
0.899788
0.895435
0.891859
0.88858
0.885078
0.882153
0.879694
0.877832
0.876584
0.87515
0.87451
0.874929
0.876269
0.879065
0.883852
0.892093
0.906884
0.929311
0.958338
1.01413
1.0404
2.37205
2.9378
2.89532
2.82721
2.77582
2.73012
2.70589
2.66384
2.63554
2.60194
2.59504
2.56466
2.5568
2.52138
2.52104
2.48397
2.48873
2.46504
2.47645
2.44866
2.44077
2.43667
2.41986
2.42178
2.40208
2.40408
2.38611
2.39392
2.38126
2.3895
2.38185
2.3901
2.38675
2.40012
2.39694
2.41259
2.41004
2.43218
2.43401
2.4682
2.48413
2.54513
2.57662
2.65108
2.62362
2.69
2.64563
2.68864
2.66204
2.69504
2.66962
2.70055
2.68632
2.71392
2.69915
2.73793
2.73294
2.75347
2.73776
2.69115
2.69248
2.71772
2.76433
2.83078
2.90991
2.98734
3.06225
3.11772
3.14942
3.17393
3.19194
3.19884
3.20369
3.22192
3.23074
3.24587
3.2484
3.21835
3.16619
3.12641
3.11744
3.1051
0.946953
0.951545
0.949662
0.947734
0.945338
0.942595
0.93961
0.936145
0.932436
0.928828
0.924514
0.920113
0.915962
0.911687
0.906783
0.90266
0.898661
0.894301
0.890326
0.886777
0.883208
0.879842
0.877134
0.874779
0.873163
0.871407
0.869495
0.868621
0.86818
0.867982
0.867649
0.866453
0.86322
0.858429
0.847635
0.838621
0.83819
1.45346
2.82414
2.63667
2.59734
2.56676
2.5382
2.52825
2.48541
2.47345
2.42916
2.43634
2.40988
2.4304
2.39902
2.42036
2.38297
2.40098
2.3771
2.40179
2.37894
2.3937
2.37771
2.39096
2.38477
2.39119
2.39701
2.39175
2.40017
2.39315
2.40146
2.392
2.3966
2.38663
2.39638
2.39171
2.40019
2.38853
2.40605
2.40196
2.4379
2.44738
2.51407
2.53239
2.6058
2.56472
2.63175
2.59981
2.65485
2.6254
2.66934
2.65973
2.69787
2.68603
2.72296
2.70676
2.72146
2.7013
2.71973
2.72897
2.74102
2.72214
2.72745
2.7513
2.79578
2.86258
2.93939
3.01999
3.08648
3.12546
3.15293
3.17533
3.18513
3.18892
3.20621
3.2154
3.23006
3.23681
3.22191
3.17536
3.12624
3.11871
3.1044
0.946878
0.951463
0.949563
0.947605
0.94515
0.942425
0.939387
0.935894
0.932086
0.928388
0.924196
0.91954
0.915271
0.911019
0.905993
0.901486
0.897304
0.89311
0.888588
0.88475
0.881057
0.877308
0.874129
0.871356
0.869298
0.867402
0.865249
0.86364
0.863131
0.863396
0.864387
0.866471
0.870988
0.880781
0.885712
0.895541
0.977771
1.34057
2.55529
2.51911
2.48384
2.44623
2.40867
2.39834
2.37271
2.36285
2.33212
2.35066
2.32336
2.35481
2.32817
2.35613
2.32114
2.33972
2.31375
2.33924
2.31721
2.33166
2.31151
2.32465
2.31471
2.32507
2.32014
2.32447
2.3269
2.33478
2.33741
2.34539
2.34862
2.35785
2.36144
2.36513
2.37337
2.36793
2.38772
2.38322
2.42805
2.43908
2.51744
2.51558
2.58933
2.54399
2.60631
2.58262
2.64811
2.62661
2.68382
2.68043
2.72086
2.71588
2.74977
2.74041
2.76259
2.75136
2.72202
2.71726
2.7184
2.73062
2.7347
2.75674
2.78926
2.84457
2.91916
2.99331
3.06319
3.10933
3.13884
3.16461
3.17747
3.18209
3.19392
3.20686
3.21971
3.22833
3.22537
3.18597
3.12836
3.12075
3.10354
0.946803
0.951385
0.949463
0.947471
0.944964
0.942243
0.939147
0.935639
0.931739
0.927884
0.92384
0.918971
0.91446
0.910078
0.905276
0.900248
0.895864
0.891638
0.886858
0.882493
0.87853
0.874771
0.870924
0.867553
0.864461
0.8622
0.85968
0.856381
0.853161
0.84929
0.843931
0.835347
0.82238
0.804472
0.758729
0.706271
0.77253
1.22905
2.37549
2.38754
2.47872
2.40608
2.40751
2.36803
2.36558
2.34163
2.35
2.32776
2.34477
2.31846
2.34393
2.31796
2.33757
2.30174
2.31771
2.30114
2.31863
2.29438
2.30456
2.28355
2.29477
2.28298
2.29484
2.28243
2.28862
2.28604
2.29593
2.29991
2.31291
2.31438
2.33076
2.33214
2.34648
2.34657
2.36975
2.37131
2.4309
2.45146
2.53251
2.50467
2.57894
2.51851
2.55864
2.51356
2.57232
2.54374
2.59859
2.59444
2.64099
2.64787
2.68079
2.68445
2.71869
2.72571
2.75538
2.74914
2.75514
2.73197
2.7268
2.73471
2.75999
2.80443
2.8741
2.95482
3.03442
3.09338
3.1255
3.15334
3.16843
3.17232
3.17954
3.19193
3.20453
3.21235
3.21977
3.19331
3.13294
3.12374
3.10353
0.946702
0.951285
0.949341
0.947317
0.944823
0.942003
0.93886
0.935348
0.931424
0.927329
0.923267
0.918457
0.913644
0.909073
0.904428
0.898962
0.894229
0.889812
0.885114
0.880021
0.875685
0.871692
0.867662
0.863352
0.859564
0.855947
0.85341
0.850462
0.846053
0.841499
0.838242
0.835
0.831269
0.831686
0.836316
0.849037
0.921177
1.91927
2.33058
2.38829
2.51718
2.43465
2.45899
2.39663
2.40911
2.37581
2.36787
2.35255
2.34693
2.3435
2.31656
2.33303
2.30013
2.33362
2.29207
2.31873
2.28616
2.30629
2.27896
2.29635
2.27684
2.27544
2.27378
2.26618
2.26197
2.25427
2.25838
2.25141
2.26198
2.25903
2.27401
2.27603
2.29714
2.30211
2.33438
2.355
2.4385
2.47841
2.56501
2.52721
2.61265
2.56903
2.5997
2.5358
2.55554
2.54061
2.59152
2.59893
2.63833
2.6611
2.69133
2.69328
2.70506
2.69921
2.71741
2.72293
2.73324
2.75013
2.74101
2.75082
2.76827
2.80593
2.86138
2.93576
3.01022
3.07804
3.11447
3.14201
3.15873
3.16266
3.16618
3.17585
3.19035
3.19586
3.20947
3.19411
3.13787
3.12494
3.10333
0.946596
0.951185
0.949214
0.947157
0.944652
0.941776
0.938457
0.935036
0.931079
0.926798
0.922544
0.917994
0.912818
0.908027
0.903301
0.897705
0.892577
0.887877
0.883109
0.877447
0.872579
0.868185
0.863983
0.859073
0.854154
0.849479
0.8453
0.842288
0.837888
0.830045
0.821882
0.812797
0.799831
0.784932
0.762239
0.78547
1.00184
2.0398
2.20843
2.28559
2.40159
2.37472
2.44412
2.38372
2.40727
2.35524
2.36687
2.33648
2.37155
2.31966
2.3573
2.33309
2.33988
2.33247
2.33411
2.3137
2.32619
2.31395
2.30793
2.30768
2.30837
2.29479
2.29272
2.27568
2.28262
2.26516
2.27067
2.25801
2.26727
2.24827
2.25635
2.23949
2.25638
2.25825
2.31384
2.33119
2.4752
2.47382
2.5746
2.5064
2.58081
2.53668
2.60918
2.57054
2.54374
2.49854
2.51425
2.51285
2.54693
2.58766
2.64401
2.67593
2.71102
2.72669
2.74172
2.7499
2.73866
2.73091
2.72937
2.73021
2.74387
2.77779
2.83334
2.90797
2.98245
3.05726
3.09988
3.12994
3.14926
3.15491
3.15675
3.16441
3.17935
3.18579
3.20033
3.19352
3.14256
3.1257
3.10284
0.946464
0.951058
0.949062
0.946983
0.94444
0.94152
0.9381
0.934646
0.930702
0.926274
0.921851
0.917357
0.911951
0.906898
0.901974
0.896443
0.890784
0.885718
0.880728
0.874823
0.869291
0.864109
0.85963
0.854766
0.848548
0.842858
0.837189
0.833166
0.829127
0.824161
0.816045
0.810744
0.808806
0.812604
0.825988
0.916266
1.71027
2.14037
2.19791
2.24559
2.34277
2.37934
2.50292
2.45656
2.5032
2.44582
2.46298
2.41419
2.43881
2.3841
2.40208
2.37408
2.36867
2.33611
2.36624
2.33018
2.34731
2.32692
2.32652
2.32427
2.3242
2.30686
2.30829
2.30568
2.31068
2.2894
2.29057
2.26938
2.27147
2.2537
2.26311
2.24382
2.27687
2.28088
2.3987
2.47677
2.62358
2.53948
2.63842
2.56074
2.58788
2.51793
2.55495
2.58033
2.61018
2.57833
2.56008
2.5529
2.53239
2.53661
2.57979
2.61002
2.6542
2.68455
2.70283
2.7176
2.73362
2.74415
2.74339
2.74684
2.7514
2.76824
2.80932
2.87968
2.95549
3.03643
3.08651
3.11812
3.13858
3.14551
3.14641
3.15203
3.16372
3.17562
3.18642
3.18773
3.14555
3.12643
3.10124
0.946322
0.950923
0.9489
0.946788
0.944216
0.941258
0.937759
0.934216
0.93031
0.925712
0.921134
0.916578
0.911048
0.905681
0.900531
0.895039
0.88895
0.883358
0.878004
0.872205
0.865947
0.859992
0.854709
0.849404
0.843383
0.836528
0.829619
0.823151
0.817967
0.812884
0.807251
0.794974
0.784204
0.780582
0.793026
0.858203
2.00979
2.17828
2.18393
2.20088
2.24709
2.27561
2.38782
2.37479
2.45839
2.40637
2.45392
2.39499
2.43445
2.37709
2.4149
2.35947
2.38011
2.34756
2.3788
2.33724
2.35462
2.33701
2.33808
2.32847
2.33637
2.3165
2.32879
2.31668
2.3244
2.29976
2.30969
2.29161
2.31018
2.29281
2.35323
2.38407
2.50504
2.59832
2.74179
2.68006
2.78672
2.70107
2.73109
2.67605
2.64016
2.59854
2.51429
2.50455
2.52305
2.52319
2.48986
2.5108
2.53418
2.54567
2.57949
2.60795
2.65168
2.68664
2.71329
2.71685
2.71775
2.72558
2.7262
2.7309
2.74872
2.77313
2.80931
2.86667
2.93922
3.01532
3.07391
3.10585
3.12718
3.13537
3.13595
3.14156
3.1506
3.16981
3.16987
3.18061
3.1458
3.12617
3.09933
0.946153
0.950765
0.948715
0.946569
0.943976
0.940975
0.937425
0.93377
0.929858
0.925123
0.92038
0.915702
0.910143
0.904479
0.89903
0.893465
0.886999
0.88086
0.87515
0.869157
0.862319
0.855803
0.849319
0.8437
0.837573
0.830163
0.822436
0.814186
0.80629
0.798539
0.791107
0.779569
0.751833
0.72097
0.736782
0.773117
2.11788
2.24312
2.26922
2.27939
2.28933
2.30272
2.33787
2.34542
2.46996
2.43866
2.51254
2.44354
2.48372
2.41141
2.45163
2.38233
2.4258
2.36686
2.40718
2.3553
2.38975
2.35875
2.38085
2.34981
2.37072
2.34951
2.37119
2.36361
2.39783
2.37779
2.45665
2.50272
2.60216
2.6763
2.79839
2.8376
2.9257
2.92964
2.98797
2.93727
2.90997
2.82724
2.76902
2.71367
2.68299
2.64126
2.60781
2.57289
2.56638
2.56153
2.5297
2.48985
2.48832
2.49618
2.52168
2.55416
2.59702
2.6362
2.67605
2.70967
2.73195
2.74123
2.74217
2.73625
2.74376
2.76311
2.79569
2.84818
2.9194
2.99422
3.05755
3.09019
3.11484
3.12484
3.12738
3.13168
3.14004
3.16044
3.15596
3.17249
3.14376
3.12416
3.09728
0.945971
0.950595
0.94852
0.946345
0.943711
0.94067
0.937075
0.933296
0.929351
0.924501
0.919562
0.914721
0.90918
0.903201
0.897397
0.891606
0.884948
0.878377
0.872117
0.865707
0.858585
0.851571
0.844252
0.83729
0.830669
0.823889
0.816574
0.807755
0.798672
0.791281
0.783708
0.780591
0.774499
0.773009
0.837301
1.31197
2.39774
2.40937
2.38778
2.34425
2.29906
2.26668
2.25612
2.24591
2.30307
2.28754
2.40429
2.35211
2.42616
2.35419
2.42252
2.35077
2.40597
2.34192
2.39138
2.33316
2.37815
2.35726
2.39563
2.37169
2.44014
2.4673
2.57075
2.64433
2.74099
2.81021
2.8899
2.95243
3.0257
3.05834
3.07393
3.05958
3.06909
3.04015
3.03178
2.99719
2.96664
2.90732
2.8392
2.76161
2.70059
2.65156
2.6011
2.5547
2.52933
2.51869
2.53134
2.52682
2.51885
2.52258
2.53729
2.56198
2.59777
2.63683
2.67128
2.69304
2.71523
2.73031
2.74091
2.7438
2.75041
2.76422
2.79016
2.83497
2.90302
2.97414
3.04154
3.07549
3.10293
3.11431
3.11999
3.12213
3.12938
3.14474
3.14471
3.16039
3.13881
3.12002
3.09426
0.945763
0.950402
0.948303
0.946104
0.943417
0.940341
0.9367
0.932802
0.928791
0.923844
0.918729
0.913735
0.908088
0.901871
0.895749
0.889626
0.882731
0.875779
0.86917
0.86199
0.854504
0.84715
0.83983
0.831148
0.823543
0.817009
0.81084
0.803055
0.790419
0.782844
0.775367
0.769519
0.761592
0.756745
0.835983
1.91071
2.48613
2.43618
2.39951
2.35994
2.33764
2.32514
2.32749
2.32615
2.36111
2.36736
2.47617
2.45108
2.55358
2.47676
2.54513
2.46766
2.5217
2.46582
2.52834
2.49592
2.58254
2.60615
2.70472
2.7709
2.87516
2.91661
3.00767
3.07869
3.10676
3.11481
3.12562
3.12312
3.1367
3.14079
3.13985
3.1156
3.10227
3.07261
3.05086
3.02605
2.99902
2.96862
2.92186
2.86293
2.79005
2.73086
2.67491
2.62183
2.58302
2.54771
2.508
2.49016
2.48156
2.48857
2.5016
2.52455
2.55964
2.60315
2.65092
2.69313
2.7188
2.7293
2.73595
2.73751
2.74199
2.75522
2.78219
2.82499
2.88953
2.95856
3.02547
3.06221
3.09174
3.10509
3.11231
3.11087
3.11898
3.12949
3.13894
3.14519
3.13261
3.11558
3.0884
0.945536
0.950191
0.948068
0.945847
0.943097
0.939993
0.936298
0.932284
0.928201
0.923146
0.917856
0.912715
0.906865
0.900433
0.894116
0.887585
0.880235
0.873131
0.866237
0.858118
0.850078
0.842827
0.835599
0.825284
0.816662
0.809363
0.804929
0.798417
0.784783
0.778899
0.775978
0.77575
0.778632
0.785391
0.888547
2.22396
2.53671
2.48717
2.4529
2.42658
2.42197
2.41232
2.4047
2.39067
2.38897
2.3815
2.41403
2.42614
2.51404
2.45661
2.54708
2.47983
2.59513
2.59302
2.71189
2.74637
2.86192
2.92751
3.00982
3.06746
3.0973
3.1036
3.09479
3.12923
3.15499
3.16532
3.16051
3.14375
3.13772
3.13748
3.13944
3.12361
3.11463
3.09461
3.07279
3.04872
3.02475
3.00064
2.96598
2.91276
2.83628
2.76626
2.68917
2.62556
2.58363
2.55081
2.53565
2.51417
2.50982
2.51141
2.52023
2.53527
2.55894
2.59154
2.63354
2.67602
2.70665
2.72584
2.73812
2.74252
2.74624
2.75426
2.7753
2.81395
2.87541
2.94168
3.00901
3.04928
3.08118
3.09589
3.10336
3.10162
3.10777
3.11911
3.13276
3.12828
3.12287
3.10646
3.08221
0.945283
0.949958
0.947812
0.945563
0.942749
0.939624
0.935876
0.931745
0.927583
0.922393
0.916968
0.911684
0.905527
0.89888
0.892496
0.885656
0.877633
0.870412
0.86338
0.854688
0.845499
0.838094
0.83073
0.81997
0.809566
0.801306
0.797883
0.79108
0.783135
0.77353
0.769767
0.767786
0.770078
0.782249
0.909215
2.36127
2.55098
2.52453
2.51866
2.49347
2.48662
2.46819
2.45131
2.43402
2.41715
2.40759
2.41085
2.42263
2.4776
2.51243
2.66953
2.70373
2.84761
2.87927
2.99079
3.02225
3.04984
3.08146
3.11536
3.12763
3.14824
3.14043
3.13542
3.12432
3.13557
3.15249
3.15772
3.15246
3.14426
3.13695
3.1334
3.12391
3.1167
3.10649
3.08833
3.06826
3.04672
3.02276
2.99234
2.95099
2.89633
2.83385
2.76146
2.68455
2.62825
2.58702
2.55408
2.52625
2.50107
2.49239
2.50009
2.51509
2.53828
2.5742
2.61939
2.66482
2.69723
2.71744
2.73263
2.74055
2.7472
2.75458
2.77264
2.80658
2.8635
2.92784
2.99373
3.03703
3.07098
3.0856
3.09407
3.09357
3.09619
3.11511
3.11747
3.11448
3.11411
3.09726
3.07464
0.945007
0.949705
0.947536
0.945257
0.942379
0.939234
0.93543
0.931188
0.92694
0.92162
0.916058
0.910643
0.904176
0.897291
0.890768
0.883829
0.874872
0.867247
0.860164
0.851504
0.840785
0.832278
0.825174
0.815783
0.802956
0.793678
0.7884
0.784656
0.778813
0.771681
0.764682
0.761031
0.760235
0.773132
0.939094
2.49194
2.62163
2.60472
2.58919
2.54386
2.52665
2.49652
2.48517
2.46464
2.44702
2.44035
2.44132
2.45889
2.50395
2.62247
2.79595
2.92092
2.98238
3.0085
3.01627
3.03556
3.05707
3.07145
3.0815
3.09082
3.09998
3.11013
3.11934
3.11917
3.11836
3.12634
3.14064
3.15051
3.14508
3.1367
3.13096
3.12368
3.11719
3.10851
3.0951
3.07726
3.05796
3.03763
3.0138
2.98046
2.93615
2.88178
2.81741
2.73863
2.66577
2.60949
2.56978
2.53576
2.513
2.50399
2.50802
2.52066
2.53956
2.56685
2.60551
2.65082
2.68667
2.7081
2.72401
2.73546
2.74286
2.75125
2.76769
2.79834
2.85198
2.91392
2.9794
3.02409
3.05985
3.07472
3.08435
3.08548
3.08498
3.10285
3.1043
3.10347
3.10395
3.08701
3.06554
0.944705
0.949429
0.947238
0.944929
0.941989
0.938815
0.934968
0.930604
0.92625
0.920871
0.915059
0.909494
0.902935
0.895572
0.88889
0.881945
0.872253
0.863679
0.856741
0.848496
0.836466
0.826372
0.819492
0.81113
0.798245
0.786966
0.779081
0.776795
0.772757
0.768446
0.765325
0.764613
0.765732
0.787391
0.999004
2.62152
2.67344
2.62886
2.59715
2.54849
2.52903
2.50181
2.49392
2.47549
2.47312
2.47566
2.48503
2.52036
2.61378
2.78323
2.97875
3.04072
3.04698
3.03454
3.03052
3.0249
3.03404
3.0339
3.03562
3.04093
3.05468
3.07003
3.09939
3.11894
3.12359
3.11942
3.12734
3.13656
3.13801
3.13249
3.12578
3.11715
3.11144
3.10399
3.094
3.07866
3.06166
3.04438
3.02535
3.00136
2.97009
2.92838
2.87246
2.79731
2.71434
2.64838
2.59876
2.55785
2.52765
2.51488
2.51469
2.52411
2.53951
2.56259
2.59576
2.63715
2.6759
2.6988
2.71841
2.72959
2.7372
2.74761
2.76436
2.79256
2.84137