/*--------------------------------*- C++ -*----------------------------------*\
| =========                 |                                                 |
| \\      /  F ield         | OpenFOAM: The Open Source CFD Toolbox           |
|  \\    /   O peration     | Version:  2.2.x                                 |
|   \\  /    A nd           | Web:      www.OpenFOAM.org                      |
|    \\/     M anipulation  |                                                 |
\*---------------------------------------------------------------------------*/
FoamFile
{
    version     2.0;
    format      ascii;
    class       surfaceScalarField;
    location    "0.15";
    object      phi;
}
// * * * * * * * * * * * * * * * * * * * * * * * * * * * * * * * * * * * * * //

dimensions      [1 0 -1 0 0 0 0];

internalField   nonuniform List<scalar> 
28084
(
0.000746224
0.000742988
0.000740213
0.000737877
0.000735962
0.000734443
0.000733299
0.000732503
0.000732031
0.000731856
0.00073195
0.000732288
0.00073284
0.000733581
0.000734484
0.000735523
0.000736673
0.00073791
0.00073921
0.000740553
0.000741918
0.000743286
0.000744639
0.000745961
0.000747237
0.000748455
0.000749601
0.000750665
0.000751637
0.000752509
0.000753273
0.000753923
0.000754452
0.000754855
0.000755128
0.000755267
0.000755269
0.00075513
0.000754848
0.000754419
0.000753842
0.000753114
0.000752233
0.000751195
0.00075
0.00075924
0.000768832
0.000778732
0.000788896
0.000799279
0.000809836
0.00082052
0.000831284
0.000842079
0.000852858
0.000863571
0.000874171
0.000884608
0.000894833
0.000904799
0.000914457
0.000923761
0.000932664
0.000941124
0.000949096
0.00095654
0.000963418
0.000969695
0.000975339
0.00098032
0.000984613
0.000988199
0.000991062
0.00099319
0.000994579
0.000995231
0.000995154
0.000994362
0.00099288
0.000990737
0.00098798
0.000984625
0.00098076
0.000976443
0.000971886
0.000967044
0.000961835
0.000963383
0.00086028
0.000891432
0.000905399
0.000900205
0.000870434
0.000830444
0.000774331
0.000716152
0.000664256
0.000627551
0.00060388
0.000582447
0.000560079
0.000537387
0.000511805
0.000476386
0.000444604
0.000421545
0.000404875
0.000390378
0.000376539
0.000361978
0.000337879
0.00029844
0.00025592
0.000222541
0.000192844
0.00016162
0.000123382
7.58639e-05
3.7119e-06
3.23513e-06
0.00074974
2.77572e-06
0.000748785
2.33538e-06
0.000748259
1.91574e-06
0.000748147
1.51833e-06
0.000748429
1.14451e-06
0.000749083
7.95451e-07
0.000750087
4.72133e-07
0.000751415
1.7529e-07
0.000753039
-9.458e-08
0.000754933
-3.37226e-07
0.000757068
-5.52641e-07
0.000759414
-7.41055e-07
0.000761942
-9.02918e-07
0.000764622
-1.03889e-06
0.000767426
-1.14981e-06
0.000770325
-1.23667e-06
0.000773292
-1.30061e-06
0.0007763
-1.34287e-06
0.000779324
-1.36477e-06
0.000782341
-1.36768e-06
0.000785328
-1.353e-06
0.000788266
-1.32213e-06
0.000791134
-1.27648e-06
0.000793916
-1.21739e-06
0.000796595
-1.14619e-06
0.000799159
-1.06412e-06
0.000801594
-9.72359e-07
0.00080389
-8.71996e-07
0.000806036
-7.64042e-07
0.000808025
-6.49412e-07
0.000809849
-5.28932e-07
0.000811502
-4.03328e-07
0.000812979
-2.73238e-07
0.000814276
-1.39202e-07
0.000815389
-1.68075e-09
0.000816315
1.38959e-07
0.000817052
2.82427e-07
0.000817598
4.28513e-07
0.000817951
5.77075e-07
0.00081811
7.28041e-07
0.000818073
8.81404e-07
0.00081784
1.03721e-06
0.000817409
1.19557e-06
0.000816778
-9.2401e-06
0.000815947
-9.59168e-06
0.00082469
-9.90004e-06
0.00083376
-1.01643e-05
0.000843115
-1.03835e-05
0.00085271
-1.0557e-05
0.0008625
-1.06839e-05
0.00087244
-1.07635e-05
0.000882485
-1.07953e-05
0.000892586
-1.07788e-05
0.000902697
-1.07137e-05
0.00091277
-1.05998e-05
0.000922757
-1.0437e-05
0.00093261
-1.02255e-05
0.00094228
-9.96564e-06
0.000951721
-9.65806e-06
0.000960885
-9.30354e-06
0.000969724
-8.90323e-06
0.000978194
-8.4585e-06
0.000986249
-7.97102e-06
0.000993846
-7.44275e-06
0.00100094
-6.87605e-06
0.0010075
-6.27357e-06
0.00101349
-5.63834e-06
0.00101886
-4.97364e-06
0.0010236
-4.28329e-06
0.00102766
-3.57119e-06
0.00103104
-2.84208e-06
0.00103371
-2.10025e-06
0.00103564
-1.35144e-06
0.00103685
-6e-07
0.00103732
1.46835e-07
0.00103705
8.85217e-07
0.00103606
1.60592e-06
0.00103435
2.30944e-06
0.00103197
2.97179e-06
0.00102893
3.62194e-06
0.00102527
4.20647e-06
0.00102106
4.796e-06
0.00101634
5.28241e-06
0.00101123
5.994e-06
0.00100583
5.87041e-06
0.00100025
-1.30676e-06
0.000995005
-2.46169e-05
0.000999647
-4.40763e-05
0.000928854
-1.42435e-05
0.000947279
4.35316e-06
0.000950278
2.20474e-05
0.000931354
2.81576e-05
0.00089203
4.10524e-05
0.000840307
4.51404e-05
0.000785426
4.62982e-05
0.000734006
4.1131e-05
0.000685255
3.39856e-05
0.00064615
2.96018e-05
0.000618742
2.85866e-05
0.000594741
2.66079e-05
0.000570965
2.3433e-05
0.000546028
2.12536e-05
0.000517472
2.07897e-05
0.000479241
2.10717e-05
0.000445475
2.13042e-05
0.000420482
2.1735e-05
0.000401898
2.22117e-05
0.000385425
2.29808e-05
0.000369559
2.40363e-05
0.000352939
2.56337e-05
0.000325961
2.83157e-05
0.000283265
3.13044e-05
0.000239065
3.52271e-05
0.000205026
4.05104e-05
0.000175448
4.41914e-05
0.00014665
4.46362e-05
0.000111538
6.33086e-05
6.33652e-05
5.11203e-06
4.19073e-06
0.000754435
3.30116e-06
0.00075573
2.44751e-06
0.000757426
1.63381e-06
0.00075951
8.63806e-07
0.000761963
1.40861e-07
0.000764765
-5.32086e-07
0.000767892
-1.15259e-06
0.000771318
-1.71876e-06
0.000775016
-2.22922e-06
0.000778956
-2.6832e-06
0.000783108
-3.08049e-06
0.00078744
-3.42139e-06
0.000791922
-3.70676e-06
0.00079652
-3.93789e-06
0.000801204
-4.11651e-06
0.000805943
-4.24472e-06
0.000810708
-4.32493e-06
0.000815468
-4.35978e-06
0.000820197
-4.35211e-06
0.00082487
-4.30488e-06
0.000829463
-4.22113e-06
0.000833953
-4.10392e-06
0.00083832
-3.95627e-06
0.000842545
-3.78114e-06
0.000846613
-3.58139e-06
0.000850509
-3.35973e-06
0.000854219
-3.11873e-06
0.000857733
-2.86077e-06
0.00086104
-2.58804e-06
0.000864134
-2.30254e-06
0.000867006
-2.00604e-06
0.000869651
-1.70014e-06
0.000872066
-1.38619e-06
0.000874246
-1.06539e-06
0.00087619
-7.38695e-07
0.000877894
-4.06907e-07
0.000879358
-7.0635e-08
0.000880581
2.69676e-07
0.000881562
6.13741e-07
0.000882301
9.61423e-07
0.000882799
1.31272e-06
0.000883054
1.66777e-06
0.000883067
2.02681e-06
0.000882838
-1.7983e-05
0.000882367
-1.8662e-05
0.000890605
-1.92547e-05
0.000899147
-1.97592e-05
0.000907948
-2.0174e-05
0.000916966
-2.04975e-05
0.000926155
-2.07281e-05
0.000935471
-2.08648e-05
0.000944868
-2.09063e-05
0.000954299
-2.08518e-05
0.000963718
-2.07007e-05
0.000973077
-2.04527e-05
0.000982329
-2.01077e-05
0.000991427
-1.96663e-05
0.00100032
-1.91291e-05
0.00100897
-1.84974e-05
0.00101732
-1.77729e-05
0.00102534
-1.69579e-05
0.00103296
-1.60553e-05
0.00104016
-1.50683e-05
0.00104689
-1.4001e-05
0.00105311
-1.28582e-05
0.00105877
-1.1645e-05
0.00106386
-1.03676e-05
0.00106832
-9.03265e-06
0.00107214
-7.64765e-06
0.00107528
-6.22056e-06
0.00107773
-4.76049e-06
0.00107947
-3.27655e-06
0.00108048
-1.77934e-06
0.00108075
-2.78898e-07
0.00108029
1.21254e-06
0.00107909
2.68422e-06
0.00107717
4.12227e-06
0.00107455
5.51923e-06
0.00107125
6.84753e-06
0.0010673
8.12452e-06
0.00106274
9.30396e-06
0.00105765
1.04222e-05
0.00105209
1.13897e-05
0.00104621
1.23886e-05
0.00103984
1.16809e-05
0.00103312
-4.58223e-06
0.00102673
-8.72716e-05
0.00103074
-8.30346e-05
0.000961525
-2.31939e-05
0.000991098
2.37157e-05
0.00099203
5.44242e-05
0.000965612
6.80574e-05
0.000912669
8.27829e-05
0.000852039
8.98815e-05
0.000793159
9.33559e-05
0.000741593
8.41709e-05
0.000694119
7.0106e-05
0.000656348
6.09573e-05
0.000628993
5.75068e-05
0.000604033
5.39518e-05
0.000578405
4.95842e-05
0.000551952
4.56394e-05
0.000520829
4.39141e-05
0.000481122
4.37108e-05
0.000447155
4.39041e-05
0.000421399
4.48468e-05
0.000401463
4.62826e-05
0.000382779
4.80556e-05
0.000364771
5.04886e-05
0.000345965
5.32486e-05
0.000315873
5.81286e-05
0.000270385
6.38446e-05
0.00022559
7.09387e-05
0.000191596
7.94414e-05
0.000161866
8.549e-05
0.000134117
8.86516e-05
0.000100928
0.000114638
5.51066e-05
4.23053e-06
2.89594e-06
0.000760308
1.6045e-06
0.000763821
3.63709e-07
0.000767708
-8.19269e-07
0.000771957
-1.93779e-06
0.000776551
-2.98585e-06
0.000781471
-3.95817e-06
0.000786692
-4.85036e-06
0.000792189
-5.6589e-06
0.000797933
-6.38124e-06
0.000803893
-7.01579e-06
0.000810036
-7.56192e-06
0.00081633
-8.01992e-06
0.000822741
-8.39094e-06
0.000829233
-8.67693e-06
0.000835774
-8.88057e-06
0.00084233
-9.00514e-06
0.000848869
-9.05446e-06
0.00085536
-9.03276e-06
0.000861774
-8.9446e-06
0.000868082
-8.79475e-06
0.00087426
-8.58811e-06
0.000880283
-8.32963e-06
0.00088613
-8.02421e-06
0.000891781
-7.67665e-06
0.00089722
-7.29157e-06
0.00090243
-6.87338e-06
0.000907399
-6.42625e-06
0.000912115
-5.95404e-06
0.000916569
-5.46029e-06
0.000920753
-4.94823e-06
0.00092466
-4.42076e-06
0.000928285
-3.88041e-06
0.000931625
-3.32941e-06
0.000934678
-2.76963e-06
0.00093744
-2.20265e-06
0.000939912
-1.62973e-06
0.000942094
-1.05182e-06
0.000943985
-4.69642e-07
0.000945586
1.16386e-07
0.000946898
7.06063e-07
0.000947922
1.29942e-06
0.000948659
1.89669e-06
0.000949111
2.4983e-06
0.000949278
-2.62213e-05
0.000949162
-2.72034e-05
0.000956889
-2.80562e-05
0.000964894
-2.8777e-05
0.000973136
-2.93635e-05
0.00098157
-2.98135e-05
0.000990151
-3.01249e-05
0.000998836
-3.02959e-05
0.00100758
-3.03249e-05
0.00101633
-3.02109e-05
0.00102505
-2.99529e-05
0.00103369
-2.95507e-05
0.0010422
-2.90043e-05
0.00105054
-2.83144e-05
0.00105865
-2.74824e-05
0.0010665
-2.651e-05
0.00107404
-2.54002e-05
0.00108121
-2.41562e-05
0.00108799
-2.27823e-05
0.00109433
-2.12839e-05
0.00110018
-1.96669e-05
0.00110551
-1.79383e-05
0.00111028
-1.61062e-05
0.00111445
-1.41797e-05
0.001118
-1.21688e-05
0.00112089
-1.00848e-05
0.00112311
-7.93966e-06
0.00112462
-5.74688e-06
0.00112542
-3.52023e-06
0.00112549
-1.27531e-06
0.00112482
9.72444e-07
0.00112342
3.20548e-06
0.00112129
5.40642e-06
0.00111844
7.55758e-06
0.00111488
9.63916e-06
0.00111066
1.16333e-05
0.00110579
1.35214e-05
0.00110033
1.5298e-05
0.00109436
1.68642e-05
0.00108789
1.83825e-05
0.00108107
1.94166e-05
0.00107362
1.76674e-05
0.00106594
-8.98792e-06
0.00105922
-0.000172436
0.00104556
-0.000134062
0.000984806
-2.70031e-05
0.00101084
4.93365e-05
0.00101307
0.000101693
0.000984247
0.000118147
0.00093503
0.000130396
0.000878719
0.000137952
0.000821504
0.000142105
0.000766143
0.000129577
0.000715815
0.000107801
0.000675516
9.31048e-05
0.00064409
8.69729e-05
0.000614606
8.16586e-05
0.000583711
7.66643e-05
0.000553756
7.12401e-05
0.000517666
6.84757e-05
0.000476855
6.80218e-05
0.000443585
6.81268e-05
0.000417776
6.94945e-05
0.00039666
7.17804e-05
0.000376167
7.47781e-05
0.000355748
7.8705e-05
0.000334045
8.27231e-05
0.000300001
8.95397e-05
0.000251656
9.75257e-05
0.000209158
0.000106695
0.000176623
0.000117321
0.00014833
0.000124577
0.000122246
0.000129231
9.09296e-05
0.000158572
4.77686e-05
1.10116e-06
-6.16603e-07
0.000767362
-2.2826e-06
0.000773056
-3.88528e-06
0.000779098
-5.41361e-06
0.000785478
-6.85736e-06
0.00079218
-8.20725e-06
0.000799185
-9.45512e-06
0.000806469
-1.05941e-05
0.000814006
-1.16187e-05
0.000821766
-1.25248e-05
0.000829715
-1.33097e-05
0.000837821
-1.39723e-05
0.000846048
-1.45125e-05
0.000854359
-1.49319e-05
0.000862719
-1.5233e-05
0.00087109
-1.54195e-05
0.000879437
-1.54961e-05
0.000887725
-1.54679e-05
0.000895922
-1.53411e-05
0.000903995
-1.51222e-05
0.000911915
-1.48178e-05
0.000919655
-1.44351e-05
0.000927189
-1.39811e-05
0.000934495
-1.34628e-05
0.000941552
-1.28871e-05
0.000948341
-1.22606e-05
0.000954847
-1.15896e-05
0.000961056
-1.08801e-05
0.000966958
-1.01377e-05
0.000972541
-9.36732e-06
0.000977799
-8.5737e-06
0.000982725
-7.76094e-06
0.000987316
-6.93267e-06
0.000991568
-6.09205e-06
0.000995479
-5.24175e-06
0.000999049
-4.38399e-06
0.00100228
-3.52056e-06
0.00100517
-2.6528e-06
0.00100771
-1.78169e-06
0.00100993
-9.07823e-07
0.0010118
-3.14363e-08
0.00101334
8.47543e-07
0.00101456
1.72948e-06
0.00101544
2.61503e-06
0.001016
-3.39483e-05
0.00101623
-3.52092e-05
0.00102344
-3.62977e-05
0.0010309
-3.72107e-05
0.00103858
-3.7945e-05
0.00104642
-3.8498e-05
0.00105439
-3.88669e-05
0.00106244
-3.90496e-05
0.00107052
-3.90441e-05
0.00107859
-3.8849e-05
0.0010866
-3.84634e-05
0.00109451
-3.78868e-05
0.00110228
-3.71197e-05
0.00110985
-3.6163e-05
0.00111717
-3.50186e-05
0.00112422
-3.36892e-05
0.00113093
-3.21785e-05
0.00113727
-3.04911e-05
0.00114319
-2.8633e-05
0.00114866
-2.66111e-05
0.00115363
-2.44334e-05
0.00115806
-2.21096e-05
0.00116193
-1.96504e-05
0.00116519
-1.70678e-05
0.00116781
-1.43753e-05
0.00116978
-1.15879e-05
0.00117106
-8.72152e-06
0.00117163
-5.79411e-06
0.00117149
-2.82417e-06
0.00117061
1.68025e-07
0.001169
3.16131e-06
0.00116665
6.13339e-06
0.00116358
9.05969e-06
0.00115978
1.19196e-05
0.0011553
1.46796e-05
0.00115014
1.73357e-05
0.00114435
1.98157e-05
0.00113798
2.21848e-05
0.00113109
2.41897e-05
0.0011237
2.62224e-05
0.00111585
2.77597e-05
0.00110764
2.4271e-05
0.00109971
-3.52307e-05
0.00109473
-0.000250778
0.00104085
-0.000174465
0.00099475
-2.40865e-05
0.00101741
7.68909e-05
0.00101827
0.00014605
0.000986616
0.000170439
0.000939527
0.000185112
0.000885243
0.000195227
0.000832164
0.000196431
0.000776231
0.000179541
0.000727602
0.00014994
0.000689198
0.000129669
0.000655413
0.000120506
0.000622271
0.000112563
0.00058747
0.000104832
0.000553801
9.73249e-05
0.000511618
9.39126e-05
0.000468862
9.37955e-05
0.000435899
9.42174e-05
0.000409353
9.61458e-05
0.0003863
9.93557e-05
0.000364137
0.000103338
0.000342132
0.000108253
0.000317826
0.000113359
0.000279682
0.000121313
0.000231297
0.000130841
0.000192105
0.000141951
0.000161294
0.000153798
0.000135223
0.000161035
0.000110572
0.00016584
8.10994e-05
0.000195842
4.09833e-05
-4.23855e-06
-6.31051e-06
0.0007756
-8.32484e-06
0.000783435
-1.02651e-05
0.000791593
-1.21158e-05
0.000800066
-1.38623e-05
0.000808839
-1.54915e-05
0.000817893
-1.69919e-05
0.000827205
-1.83535e-05
0.000836747
-1.95684e-05
0.000846488
-2.06308e-05
0.000856394
-2.15365e-05
0.00086643
-2.22836e-05
0.000876558
-2.28719e-05
0.000886739
-2.33029e-05
0.000896934
-2.35801e-05
0.000907106
-2.3708e-05
0.000917214
-2.36927e-05
0.000927224
-2.35412e-05
0.000937098
-2.32614e-05
0.000946804
-2.2862e-05
0.00095631
-2.2352e-05
0.000965586
-2.17408e-05
0.000974606
-2.10377e-05
0.000983347
-2.02521e-05
0.000991785
-1.93932e-05
0.000999903
-1.847e-05
0.00100768
-1.74907e-05
0.00101511
-1.64634e-05
0.00102218
-1.53955e-05
0.00102887
-1.42938e-05
0.00103519
-1.31644e-05
0.00104111
-1.20128e-05
0.00104665
-1.08439e-05
0.0010518
-9.66187e-06
0.00105656
-8.47023e-06
0.00106092
-7.27194e-06
0.00106489
-6.06934e-06
0.00106848
-4.86422e-06
0.00107167
-3.65782e-06
0.00107448
-2.45089e-06
0.00107691
-1.24374e-06
0.00107897
-3.62123e-08
0.00108065
1.17222e-06
0.00108195
2.38247e-06
0.00108289
-4.11583e-05
0.00108347
-4.26733e-05
0.00109016
-4.39732e-05
0.00109708
-4.50541e-05
0.00110418
-4.59125e-05
0.00111143
-4.65449e-05
0.00111878
-4.69483e-05
0.00112618
-4.712e-05
0.0011336
-4.70579e-05
0.00114098
-4.67603e-05
0.00114828
-4.62261e-05
0.00115546
-4.54553e-05
0.00116247
-4.44482e-05
0.00116927
-4.32063e-05
0.0011758
-4.17322e-05
0.00118204
-4.00293e-05
0.00118792
-3.81024e-05
0.00119342
-3.59573e-05
0.00119848
-3.36018e-05
0.00120308
-3.10444e-05
0.00120716
-2.82954e-05
0.0012107
-2.53669e-05
0.00121365
-2.22722e-05
0.00121599
-1.90265e-05
0.00121769
-1.56467e-05
0.00121872
-1.21513e-05
0.00121906
-8.5606e-06
0.00121869
-4.89653e-06
0.0012176
-1.18256e-06
0.00121578
2.55659e-06
0.00121321
6.29351e-06
0.00120992
1.00026e-05
0.00120589
1.36496e-05
0.00120116
1.72155e-05
0.00119572
2.06471e-05
0.00118963
2.39563e-05
0.00118291
2.70261e-05
0.00117561
2.99685e-05
0.00116777
3.25107e-05
0.00115946
3.50964e-05
0.00115071
3.69473e-05
0.0011419
3.01267e-05
0.00113425
-9.13848e-05
0.00113248
-0.000317376
0.0010817
-0.000192276
0.00101185
-1.34096e-05
0.00101347
0.000109228
0.00100316
0.000190938
0.000972113
0.000223366
0.000927022
0.00023863
0.000874498
0.000253699
0.00082258
0.000249169
0.000770803
0.000227374
0.000726588
0.000193222
0.000690675
0.000168696
0.000654739
0.000156199
0.000619639
0.000145756
0.000582488
0.000135217
0.000544661
0.00012516
0.00049863
0.000121902
0.000457934
0.000121707
0.000426206
0.00012256
0.000398881
0.000125347
0.000373342
0.000129083
0.000350144
0.000133611
0.000327357
0.000137852
0.000299956
0.000143708
0.000257874
0.000153722
0.000210967
0.000163742
0.000175515
0.000176879
0.00014663
0.000188218
0.000122748
0.000194036
9.9442e-05
0.000198317
7.20658e-05
0.000226848
3.49119e-05
-1.17471e-05
-1.41455e-05
0.000785028
-1.64831e-05
0.00079496
-1.87378e-05
0.000805191
-2.08888e-05
0.000815714
-2.29165e-05
0.000826517
-2.48033e-05
0.000837581
-2.65337e-05
0.000848881
-2.80945e-05
0.000860389
-2.94749e-05
0.000872075
-3.06667e-05
0.000883901
-3.16643e-05
0.000895831
-3.24647e-05
0.000907824
-3.30674e-05
0.00091984
-3.34741e-05
0.000931838
-3.36888e-05
0.000943776
-3.37173e-05
0.000955614
-3.3567e-05
0.000967312
-3.3247e-05
0.000978833
-3.27672e-05
0.000990141
-3.21385e-05
0.0010012
-3.13724e-05
0.00101199
-3.0481e-05
0.00102247
-2.9476e-05
0.00103261
-2.83697e-05
0.00104241
-2.71736e-05
0.00105183
-2.5899e-05
0.00106086
-2.45569e-05
0.00106949
-2.31573e-05
0.00107769
-2.17096e-05
0.00108548
-2.02226e-05
0.00109283
-1.8704e-05
0.00109974
-1.7161e-05
0.00110621
-1.55996e-05
0.00111224
-1.40251e-05
0.00111782
-1.24422e-05
0.00112296
-1.08544e-05
0.00112766
-9.26485e-06
0.00113193
-7.67564e-06
0.00113576
-6.08838e-06
0.00113916
-4.50397e-06
0.00114213
-2.92275e-06
0.00114468
-1.34449e-06
0.00114682
2.31544e-07
0.00114855
1.80654e-06
0.00114986
-4.7846e-05
0.00115078
-4.95907e-05
0.00115694
-5.10775e-05
0.0011633
-5.23023e-05
0.00116983
-5.32607e-05
0.00117648
-5.39491e-05
0.00118321
-5.43638e-05
0.00118996
-5.4502e-05
0.00119671
-5.43613e-05
0.0012034
-5.39397e-05
0.00120999
-5.32364e-05
0.00121643
-5.22513e-05
0.00122268
-5.09851e-05
0.0012287
-4.94398e-05
0.00123445
-4.76186e-05
0.00123987
-4.55259e-05
0.00124492
-4.31674e-05
0.00124957
-4.05507e-05
0.00125378
-3.76844e-05
0.00125749
-3.45798e-05
0.00126069
-3.12488e-05
0.00126332
-2.77059e-05
0.00126537
-2.39674e-05
0.00126679
-2.00517e-05
0.00126756
-1.59788e-05
0.00126765
-1.17711e-05
0.00126705
-7.45273e-06
0.00126573
-3.04992e-06
0.00126369
1.40897e-06
0.00126091
5.89462e-06
0.00125739
1.03739e-05
0.00125314
1.48168e-05
0.00124817
1.91826e-05
0.00124248
2.34463e-05
0.0012361
2.75509e-05
0.00122906
3.14937e-05
0.0012214
3.51729e-05
0.00121317
3.86686e-05
0.00120438
4.17641e-05
0.00119518
4.47619e-05
0.00118562
4.6577e-05
0.00117605
3.40265e-05
0.00116715
-0.000163961
0.00116577
-0.000354746
0.00111171
-0.000198347
0.00103873
1.57603e-06
0.00101398
0.000142581
0.00098399
0.000234809
0.00094646
0.000274145
0.000905113
0.000290827
0.000855434
0.000306523
0.000802877
0.000298957
0.000756983
0.000271557
0.000718893
0.000235699
0.000685091
0.000209141
0.000648013
0.000194086
0.000608985
0.000180567
0.000568539
0.000164426
0.000523744
0.00015432
0.000479628
0.000152267
0.00044322
0.000152083
0.000413166
0.000153625
0.000385637
0.000156385
0.000358745
0.000159989
0.000335097
0.000163965
0.000311987
0.000167435
0.000280287
0.000173863
0.000235138
0.000186103
0.000192443
0.000196127
0.000159486
0.000210233
0.000133219
0.000219917
0.000110933
0.000223577
8.88138e-05
0.000227677
6.35784e-05
0.000252884
2.91913e-05
-2.13788e-05
-2.40774e-05
0.000795653
-2.67144e-05
0.000807633
-2.92614e-05
0.00081989
-3.16915e-05
0.000832419
-3.39798e-05
0.000845207
-3.61035e-05
0.000858235
-3.80425e-05
0.000871481
-3.97797e-05
0.000884914
-4.13012e-05
0.000898502
-4.25963e-05
0.000912208
-4.36576e-05
0.000925991
-4.44808e-05
0.000939811
-4.5065e-05
0.000953624
-4.54121e-05
0.000967386
-4.55266e-05
0.000981054
-4.54156e-05
0.000994585
-4.50881e-05
0.00100794
-4.45551e-05
0.00102107
-4.38289e-05
0.00103395
-4.29229e-05
0.00104653
-4.18513e-05
0.00105879
-4.06288e-05
0.0010707
-3.92703e-05
0.00108223
-3.77905e-05
0.00109335
-3.6204e-05
0.00110404
-3.45247e-05
0.0011143
-3.2766e-05
0.00112409
-3.09405e-05
0.00113342
-2.90597e-05
0.00114227
-2.71345e-05
0.00115063
-2.51744e-05
0.00115851
-2.31882e-05
0.00116589
-2.11834e-05
0.00117278
-1.91666e-05
0.00117917
-1.71433e-05
0.00118507
-1.51181e-05
0.00119049
-1.30946e-05
0.00119542
-1.10756e-05
0.00119987
-9.06274e-06
0.00120384
-7.05729e-06
0.00120735
-5.05956e-06
0.00121039
-3.06921e-06
0.00121298
-1.0853e-06
0.00121511
8.93691e-07
0.0012168
-5.40074e-05
0.00121804
-5.5957e-05
0.00122367
-5.76064e-05
0.00122948
-5.89508e-05
0.00123543
-5.99856e-05
0.00124148
-6.07064e-05
0.00124758
-6.11095e-05
0.00125368
-6.11917e-05
0.00125976
-6.09503e-05
0.00126575
-6.03836e-05
0.00127162
-5.94906e-05
0.00127733
-5.82713e-05
0.00128282
-5.6727e-05
0.00128807
-5.48602e-05
0.00129301
-5.26748e-05
0.00129761
-5.01759e-05
0.00130184
-4.73707e-05
0.00130564
-4.4268e-05
0.00130898
-4.08784e-05
0.00131182
-3.72143e-05
0.00131412
-3.32906e-05
0.00131586
-2.91239e-05
0.00131699
-2.47335e-05
0.00131748
-2.01407e-05
0.00131732
-1.5369e-05
0.00131648
-1.04444e-05
0.00131493
-5.39509e-06
0.00131267
-2.51526e-07
0.00130967
4.95326e-06
0.00130594
1.01849e-05
0.00130147
1.54057e-05
0.00129626
2.05791e-05
0.00129033
2.56616e-05
0.00128369
3.06172e-05
0.00127636
3.53923e-05
0.00126838
3.99622e-05
0.00125977
4.42574e-05
0.0012506
4.82748e-05
0.00124089
5.1894e-05
0.00123078
5.50847e-05
0.0012202
5.55052e-05
0.00120929
3.14714e-05
0.00119863
-0.000237475
0.00120042
-0.000359108
0.00112824
-0.00018511
0.00105357
3.09385e-05
0.00100992
0.000183812
0.000962796
0.000277508
0.000918457
0.000323522
0.000877981
0.000343786
0.000832738
0.000353255
0.000784591
0.000343919
0.000741416
0.000313537
0.00070522
0.00027637
0.000670173
0.000249495
0.000630459
0.000230711
0.000587198
0.000212317
0.000542959
0.000194507
0.000499774
0.000186047
0.000460717
0.00018423
0.000427163
0.000184225
0.000397853
0.000185651
0.000369746
0.000188356
0.00034332
0.000191848
0.000318288
0.000194077
0.000293066
0.000196461
0.000257836
0.000203749
0.000213473
0.000217089
0.000174812
0.000227733
0.000144155
0.000241399
0.00012145
0.000248921
0.000100947
0.000250318
7.8486e-05
0.000253835
5.44212e-05
0.000274268
2.35339e-05
-3.30838e-05
-3.60577e-05
0.000807485
-3.89715e-05
0.000821461
-4.17898e-05
0.000835692
-4.44792e-05
0.000850176
-4.70084e-05
0.000864899
-4.9349e-05
0.000879845
-5.14759e-05
0.000894989
-5.33677e-05
0.000910301
-5.50069e-05
0.000925746
-5.63799e-05
0.000941287
-5.74773e-05
0.000956881
-5.82936e-05
0.000972484
-5.88272e-05
0.000988052
-5.90801e-05
0.00100354
-5.90575e-05
0.00101889
-5.87677e-05
0.00103408
-5.82215e-05
0.00104905
-5.7432e-05
0.00106375
-5.6414e-05
0.00107816
-5.51836e-05
0.00109224
-5.37579e-05
0.00110594
-5.21546e-05
0.00111924
-5.03917e-05
0.00113211
-4.8487e-05
0.00114453
-4.64579e-05
0.00115647
-4.43214e-05
0.00116792
-4.20936e-05
0.00117886
-3.97897e-05
0.00118928
-3.74236e-05
0.00119916
-3.50083e-05
0.00120852
-3.25554e-05
0.00121733
-3.00755e-05
0.0012256
-2.75775e-05
0.00123333
-2.50694e-05
0.00124051
-2.25579e-05
0.00124716
-2.00483e-05
0.00125327
-1.75451e-05
0.00125885
-1.50513e-05
0.0012639
-1.25692e-05
0.00126844
-1.01002e-05
0.00127247
-7.64442e-06
0.00127599
-5.20158e-06
0.00127901
-2.77042e-06
0.00128154
-3.49073e-07
0.00128359
-5.96389e-05
0.00128515
-6.17689e-05
0.00129025
-6.35565e-05
0.0012955
-6.49965e-05
0.00130087
-6.60837e-05
0.00130631
-6.68137e-05
0.00131178
-6.71824e-05
0.00131724
-6.71862e-05
0.00132264
-6.68224e-05
0.00132793
-6.60893e-05
0.00133309
-6.49861e-05
0.00133805
-6.35131e-05
0.00134279
-6.16718e-05
0.00134725
-5.94655e-05
0.0013514
-5.68987e-05
0.00135519
-5.39776e-05
0.00135858
-5.07106e-05
0.00136153
-4.71079e-05
0.00136401
-4.31818e-05
0.00136597
-3.89468e-05
0.00136738
-3.44197e-05
0.00136821
-2.96198e-05
0.00136843
-2.45693e-05
0.001368
-1.92923e-05
0.00136691
-1.3816e-05
0.00136513
-8.16995e-06
0.00136264
-2.38636e-06
0.00135942
3.49992e-06
0.00135548
9.45156e-06
0.00135079
1.5429e-05
0.00134536
2.13902e-05
0.0013392
2.72918e-05
0.00133231
3.30878e-05
0.00132472
3.87303e-05
0.00131643
4.41746e-05
0.0013075
4.93603e-05
0.00129795
5.42666e-05
0.00128783
5.87592e-05
0.00127719
6.29398e-05
0.00126605
6.62966e-05
0.00125442
6.54043e-05
0.00124287
2.32699e-05
0.00123302
-0.000308714
0.00125756
-0.000338852
0.0011378
-0.000148926
0.00106803
7.90758e-05
0.00100123
0.000232662
0.000940763
0.000320248
0.00089133
0.000369822
0.000847851
0.000395318
0.000804419
0.000399203
0.000760264
0.00038429
0.000720742
0.000352129
0.000685084
0.000314179
0.000648165
0.000286167
0.000607205
0.000263338
0.000563875
0.00024135
0.000521426
0.000226429
0.00048246
0.000219247
0.000446537
0.000217641
0.000414657
0.00021748
0.000385033
0.000218753
0.000356404
0.000220918
0.000329393
0.000223649
0.000302616
0.000223264
0.000272405
0.000224932
0.000232442
0.000232559
0.000193883
0.000246079
0.000159591
0.000257946
0.00013204
0.000270378
0.000111455
0.000275644
9.16861e-05
0.000274675
6.84611e-05
0.000277259
4.40931e-05
0.000291661
1.89498e-05
-4.68079e-05
-5.00336e-05
0.000820535
-5.3203e-05
0.000836449
-5.6273e-05
0.000852599
-5.92028e-05
0.000868983
-6.19543e-05
0.000885589
-6.44928e-05
0.0009024
-6.67879e-05
0.000919391
-6.88132e-05
0.000936531
-7.05474e-05
0.000953785
-7.19738e-05
0.000971112
-7.30807e-05
0.000988469
-7.38611e-05
0.00100581
-7.43128e-05
0.00102309
-7.44377e-05
0.00104025
-7.42418e-05
0.00105725
-7.37349e-05
0.00107405
-7.29294e-05
0.00109059
-7.18409e-05
0.00110683
-7.04866e-05
0.00112273
-6.88857e-05
0.00113825
-6.70584e-05
0.00115336
-6.50257e-05
0.00116801
-6.28087e-05
0.00118219
-6.04286e-05
0.00119587
-5.7906e-05
0.00120903
-5.52611e-05
0.00122164
-5.25128e-05
0.00123369
-4.96791e-05
0.00124517
-4.67767e-05
0.00125607
-4.38207e-05
0.00126639
-4.0825e-05
0.00127611
-3.7802e-05
0.00128525
-3.47622e-05
0.00129379
-3.17152e-05
0.00130174
-2.86686e-05
0.00130911
-2.56289e-05
0.0013159
-2.26011e-05
0.00132211
-1.9589e-05
0.00132776
-1.65951e-05
0.00133284
-1.36209e-05
0.00133737
-1.06667e-05
0.00134136
-7.73199e-06
0.00134481
-4.81523e-06
0.00134773
-1.91415e-06
0.00135012
-6.47381e-05
0.001352
-6.70239e-05
0.00135657
-6.89254e-05
0.00136126
-7.04369e-05
0.00136605
-7.15531e-05
0.00137088
-7.2269e-05
0.00137572
-7.25804e-05
0.00138052
-7.24836e-05
0.00138525
-7.19759e-05
0.00138985
-7.10554e-05
0.00139428
-6.97217e-05
0.00139851
-6.79754e-05
0.00140248
-6.58185e-05
0.00140616
-6.32547e-05
0.00140951
-6.02896e-05
0.00141249
-5.69305e-05
0.00141504
-5.31867e-05
0.00141715
-4.90702e-05
0.00141876
-4.45947e-05
0.00141985
-3.9777e-05
0.00142037
-3.46362e-05
0.0014203
-2.91937e-05
0.0014196
-2.34746e-05
0.00141826
-1.75069e-05
0.00141624
-1.13201e-05
0.00141352
-4.94813e-06
0.00141008
1.57312e-06
0.00140592
8.20436e-06
0.00140102
1.49038e-05
0.00139538
2.16269e-05
0.001389
2.83274e-05
0.00138189
3.49548e-05
0.00137404
4.14611e-05
0.00136549
4.77869e-05
0.00135626
5.38923e-05
0.00134637
5.96944e-05
0.00133588
6.51865e-05
0.00132481
7.02154e-05
0.00131322
7.49338e-05
0.00130116
7.87024e-05
0.00128887
7.55843e-05
0.00127724
-3.08066e-05
0.00127214
-0.000340209
0.00124212
-0.000296865
0.00112773
-8.41234e-05
0.00105344
0.000142035
0.00097674
0.000285083
0.000913864
0.000364491
0.00086467
0.00041224
0.000819983
0.000440256
0.000776238
0.000439681
0.000734506
0.000418501
0.000695387
0.000385541
0.000657832
0.000347972
0.000618626
0.000318401
0.000577837
0.000294345
0.000536737
0.00027372
0.000497469
0.000260236
0.000461995
0.000253541
0.000429483
0.000252053
0.000399813
0.000252176
0.000370757
0.000252857
0.000341388
0.000253458
0.000312588
0.000254164
0.000284007
0.000251188
0.000248441
0.000252721
0.000208972
0.000260436
0.000176787
0.000273638
0.000147204
0.000286384
0.00012296
0.000297219
0.000102565
0.000299705
8.19579e-05
0.000297121
5.85305e-05
0.000298415
3.42232e-05
0.000306877
1.52055e-05
-6.24921e-05
-6.59478e-05
0.000834816
-6.93531e-05
0.000852607
-7.26565e-05
0.000870615
-7.58091e-05
0.00088884
-7.87653e-05
0.000907271
-8.14839e-05
0.000925891
-8.39282e-05
0.000944674
-8.60669e-05
0.000963588
-8.78744e-05
0.000982597
-8.93305e-05
0.00100166
-9.0421e-05
0.00102073
-9.11374e-05
0.00103975
-9.14766e-05
0.00105869
-9.14407e-05
0.00107748
-9.10365e-05
0.00109608
-9.02749e-05
0.00111444
-8.91707e-05
0.00113251
-8.77415e-05
0.00115024
-8.60076e-05
0.00116758
-8.39913e-05
0.00118451
-8.17161e-05
0.00120098
-7.92063e-05
0.00121695
-7.64868e-05
0.0012324
-7.35821e-05
0.00124731
-7.05164e-05
0.00126164
-6.7313e-05
0.00127537
-6.39942e-05
0.0012885
-6.05808e-05
0.00130102
-5.70923e-05
0.0013129
-5.35464e-05
0.00132415
-4.99592e-05
0.00133476
-4.63449e-05
0.00134473
-4.27162e-05
0.00135407
-3.90837e-05
0.00136277
-3.54566e-05
0.00137084
-3.18422e-05
0.00137828
-2.82464e-05
0.00138511
-2.46735e-05
0.00139133
-2.11264e-05
0.00139694
-1.76068e-05
0.00140196
-1.41149e-05
0.0014064
-1.065e-05
0.00141026
-7.21043e-06
0.00141356
-3.79334e-06
0.00141629
-6.93033e-05
0.00141848
-7.17204e-05
0.00142251
-7.37117e-05
0.00142664
-7.52709e-05
0.00143085
-7.63925e-05
0.00143507
-7.70713e-05
0.00143928
-7.73028e-05
0.00144343
-7.70833e-05
0.00144748
-7.64102e-05
0.00145138
-7.52816e-05
0.0014551
-7.36974e-05
0.00145858
-7.16584e-05
0.0014618
-6.91673e-05
0.00146471
-6.62285e-05
0.00146726
-6.28484e-05
0.00146942
-5.90353e-05
0.00147115
-5.48e-05
0.0014724
-5.01559e-05
0.00147316
-4.51185e-05
0.00147337
-3.97062e-05
0.001473
-3.39412e-05
0.00147203
-2.78473e-05
0.00147043
-2.14518e-05
0.00146816
-1.47858e-05
0.00146522
-7.88291e-06
0.00146156
-7.80577e-07
0.00145719
6.48171e-06
0.00145209
1.38599e-05
0.00144624
2.13082e-05
0.00143965
2.87771e-05
0.00143232
3.62154e-05
0.00142424
4.35669e-05
0.00141544
5.07783e-05
0.00140594
5.77875e-05
0.00139576
6.45414e-05
0.00138493
7.09661e-05
0.00137349
7.70277e-05
0.00136147
8.26282e-05
0.00134898
8.77798e-05
0.00133607
9.14581e-05
0.00132296
8.17502e-05
0.00131007
-0.000121238
0.00130557
-0.000345469
0.00123158
-0.000240529
0.00112502
-1.09348e-05
0.00103792
0.00020726
0.000947802
0.000336501
0.000886196
0.000408082
0.000837261
0.000452551
0.000791499
0.000478764