/*--------------------------------*- C++ -*----------------------------------*\
| =========                 |                                                 |
| \\      /  F ield         | OpenFOAM: The Open Source CFD Toolbox           |
|  \\    /   O peration     | Version:  2.2.x                                 |
|   \\  /    A nd           | Web:      www.OpenFOAM.org                      |
|    \\/     M anipulation  |                                                 |
\*---------------------------------------------------------------------------*/
FoamFile
{
    version     2.0;
    format      ascii;
    class       surfaceScalarField;
    location    "0.45";
    object      cfmax;
}
// * * * * * * * * * * * * * * * * * * * * * * * * * * * * * * * * * * * * * //

dimensions      [0 3 -1 0 0 0 0];

internalField   nonuniform List<scalar> 
28084
(
0.00124852
0.00123861
0.00123375
0.00122998
0.00122702
0.00122446
0.00122241
0.00122111
0.00122047
0.0012201
0.0012202
0.00122071
0.00122156
0.00122283
0.00122438
0.00122631
0.00122857
0.00123102
0.00123353
0.00123611
0.00123871
0.00124137
0.00124415
0.00124713
0.00125011
0.00125298
0.00125587
0.00125876
0.00126174
0.00126434
0.00126668
0.00126863
0.00127104
0.00127378
0.00127568
0.00127711
0.00127824
0.00127919
0.00128037
0.00128183
0.00128229
0.00128217
0.00128161
0.0012807
0.00127953
0.00129666
0.00131524
0.00133367
0.00135196
0.00137025
0.00138863
0.0014074
0.00142649
0.00144575
0.00146375
0.00147983
0.0014891
0.00150001
0.000905275
0.000763833
0.000732677
0.000766218
0.00082382
0.000887547
0.000940223
0.000990413
0.00103721
0.00108024
0.00112179
0.00115601
0.00118939
0.00121486
0.00123631
0.00125056
0.00125735
0.00125442
0.00123107
0.00117893
0.0011403
0.00111302
0.00109868
0.00109687
0.00109629
0.00108896
0.00106623
0.0010302
0.000982896
0.000940486
0.000908716
0.000884916
0.000862382
0.000841814
0.000820672
0.000801171
0.00078434
0.00076806
0.000752841
0.000739414
0.000726321
0.000714465
0.000703505
0.00069382
0.000684544
0.000676468
0.000668977
0.000662208
0.000656219
0.000651774
0.000648455
0.000646733
0.000646287
0.000647951
0.000651136
0.000658826
0.000669023
0.000682056
0.000697521
0.000724115
0.00353309
0.00357414
0.00123094
0.00356843
0.0012458
0.00354834
0.00124564
0.00351921
0.00124512
0.00348348
0.00124457
0.00344242
0.0012456
0.00339651
0.00124782
0.00334326
0.00125067
0.00328449
0.00125391
0.0032206
0.0012577
0.00315184
0.00126184
0.00307774
0.00126596
0.00299951
0.00127014
0.00291788
0.00127431
0.00283401
0.00127872
0.00274795
0.00128347
0.00266048
0.00128838
0.00257184
0.00129345
0.00248256
0.00129877
0.00239341
0.00130426
0.0023047
0.00130998
0.00221611
0.00131583
0.00212872
0.00132156
0.00204149
0.0013276
0.00195535
0.00133339
0.00187085
0.00133867
0.00178806
0.00134372
0.00170738
0.0013486
0.00162853
0.00135328
0.0015516
0.00135793
0.00147694
0.00136242
0.00140503
0.00136674
0.00133595
0.00137111
0.00126886
0.0013753
0.00120401
0.00137911
0.00114174
0.00138261
0.00108215
0.00138579
0.00102521
0.00138861
0.000970989
0.001391
0.000918978
0.00139285
0.000869123
0.00139418
0.000821405
0.00139513
0.00077585
0.00139555
0.000732597
0.00139525
0.000741605
0.0013941
0.000742595
0.00140908
0.000743552
0.00142489
0.000744564
0.00144194
0.000745529
0.00145939
0.000746457
0.0014769
0.000747246
0.00149422
0.000748048
0.00151123
0.000749252
0.00152846
0.000751264
0.00154695
0.000751138
0.00156742
0.000749253
0.00158915
0.000746384
0.00159948
0.000729542
0.00162875
0.000612834
0.00107218
0.000529766
0.00090895
0.000548747
0.000883112
0.00058916
0.000911605
0.000611077
0.00094783
0.000621497
0.000990684
0.000638838
0.00102953
0.000657595
0.00106872
0.000666501
0.0011027
0.000674728
0.00113884
0.000678319
0.00116895
0.000679154
0.00119186
0.000691236
0.00121429
0.000696273
0.00123796
0.000696792
0.00124952
0.000694536
0.00125195
0.000695245
0.00124731
0.000699242
0.00123029
0.000693824
0.0012015
0.000684147
0.00115935
0.000668283
0.00112235
0.000654724
0.00108734
0.00065659
0.00106509
0.000659674
0.00105224
0.000667521
0.00104142
0.000672855
0.00102687
0.000681067
0.001009
0.000685569
0.00098938
0.000684613
0.000969309
0.000676378
0.000951408
0.000666713
0.000930041
0.000662862
0.000903346
0.00065806
0.000875428
0.000654642
0.00085239
0.000651156
0.000830777
0.000649109
0.000810818
0.000647903
0.000792653
0.000646316
0.000775222
0.000644924
0.000759151
0.000644066
0.000743571
0.000644065
0.00072841
0.000645078
0.000714381
0.000645206
0.000701855
0.000645801
0.000691176
0.00064679
0.000681851
0.000649465
0.000674293
0.000651593
0.000669205
0.000653907
0.000665881
0.000654975
0.000663343
0.000656583
0.000661138
0.000657844
0.000659539
0.000659158
0.000658882
0.000660305
0.000658517
0.000662124
0.000660064
0.000663917
0.00066264
0.000666794
0.000669174
0.000669783
0.000678076
0.000673332
0.000689251
0.000674036
0.000702028
0.000690394
0.000722991
0.00353885
0.00357125
0.00128379
0.00356746
0.00126224
0.00354824
0.0012645
0.00351947
0.00126827
0.00348339
0.00127423
0.00344143
0.00127948
0.00339588
0.00128393
0.00334391
0.00128875
0.00328615
0.0012941
0.00322262
0.00129958
0.00315397
0.00130566
0.00307982
0.00131268
0.00300232
0.00132051
0.00292048
0.00132871
0.00283662
0.00133677
0.00275048
0.00134542
0.00266279
0.00135411
0.00257422
0.00136253
0.00248519
0.0013709
0.00239621
0.00137899
0.00230755
0.00138677
0.00221891
0.00139429
0.0021314
0.00140169
0.00204449
0.0014091
0.00195765
0.00141655
0.00187239
0.00142388
0.00178883
0.00143118
0.0017075
0.00143814
0.00162874
0.00144441
0.00155226
0.00145142
0.0014778
0.00145788
0.0014055
0.00146358
0.00133551
0.00146873
0.00126802
0.00147374
0.00120302
0.00147836
0.00114057
0.00148259
0.00108064
0.00148648
0.00102316
0.00148994
0.000968271
0.00149303
0.000916675
0.00149597
0.000867228
0.00149864
0.000820003
0.00150041
0.000774832
0.00150152
0.000732079
0.0015022
0.000749872
0.00150291
0.000751542
0.00151939
0.000753138
0.00153612
0.00075448
0.0015534
0.000755775
0.00157081
0.000756833
0.00158898
0.000757621
0.00160732
0.000758353
0.00162609
0.000759694
0.001645
0.000762118
0.00166219
0.000765266
0.00167813
0.000763983
0.00169476
0.000747051
0.001713
0.00081691
0.00175868
0.000698207
0.00138446
0.000566392
0.00105443
0.000616586
0.00101528
0.000642796
0.00105079
0.000650545
0.00108367
0.000651996
0.00112696
0.000668333
0.00116602
0.000677265
0.00120202
0.000680489
0.00123294
0.000684715
0.00126111
0.000686843
0.0012821
0.000686509
0.00130253
0.000690989
0.00132438
0.000692433
0.00134004
0.000693267
0.00135614
0.000697108
0.00136505
0.000703131
0.00136379
0.000712489
0.00135616
0.000709272
0.00133786
0.000700176
0.00129389
0.000681938
0.00124717
0.000664344
0.00119233
0.000654404
0.00113883
0.000654433
0.00110927
0.000662196
0.00108556
0.000670056
0.00106322
0.000677168
0.00104209
0.000677218
0.00101899
0.000673696
0.000994926
0.000669722
0.000971739
0.000665522
0.000945067
0.000664097
0.000916076
0.000656775
0.000888772
0.000652229
0.000862429
0.000650341
0.000839088
0.000648117
0.000819034
0.000646232
0.000800105
0.000644874
0.000782082
0.000644344
0.000765653
0.000645275
0.000750361
0.000647159
0.000734857
0.000648393
0.000719817
0.000648251
0.000707272
0.000649225
0.00069704
0.000650567
0.000687836
0.00065312
0.000680282
0.000655147
0.000675095
0.000659051
0.000671642
0.000661294
0.000669174
0.000664114
0.000667741
0.000665509
0.000667192
0.000667951
0.00066722
0.000668865
0.000667668
0.00067196
0.000669077
0.000673154
0.000671509
0.000676039
0.000677404
0.000677847
0.000685657
0.00068113
0.000695398
0.000678698
0.000706766
0.00069095
0.00072621
0.0034531
0.00355585
0.00122502
0.00356028
0.00126836
0.00354077
0.0012763
0.00351241
0.00128298
0.0034759
0.00128843
0.0034359
0.001296
0.00339156
0.00130565
0.00333988
0.00131581
0.00328317
0.00132626
0.00322055
0.00133745
0.00315276
0.00134878
0.00307984
0.00135974
0.0030032
0.00137039
0.00292068
0.00138059
0.00283711
0.00139094
0.00275166
0.00140172
0.00266466
0.00141268
0.00257658
0.00142369
0.0024881
0.00143483
0.00239939
0.00144615
0.00231073
0.00145737
0.00222274
0.00146854
0.00213456
0.00148021
0.00204734
0.00149108
0.00196096
0.00150135
0.00187587
0.00151097
0.00179229
0.00152006
0.00171056
0.00152879
0.00163121
0.00153724
0.00155431
0.0015455
0.00147985
0.00155374
0.00140767
0.0015619
0.00133734
0.00156987
0.00126953
0.00157783
0.00120424
0.00158519
0.00114149
0.00159194
0.00108129
0.00159797
0.00102361
0.00160335
0.000968524
0.00160784
0.000916413
0.00161116
0.000867203
0.00161514
0.000820079
0.00161824
0.000775272
0.00162094
0.000732649
0.00162299
0.000759256
0.00162398
0.000761421
0.00163814
0.000763342
0.00165241
0.000765324
0.00166682
0.00076699
0.00168196
0.000768636
0.00169813
0.00077011
0.00171397
0.000771581
0.00172979
0.000773394
0.001746
0.000775915
0.00176407
0.000777612
0.00178582
0.000779201
0.00181016
0.000769763
0.001835
0.000898428
0.00185736
0.000775794
0.00186508
0.000606858
0.00123514
0.000678128
0.0011907
0.000708025
0.00121939
0.000717721
0.0012503
0.000719707
0.00128098
0.00072974
0.00130806
0.000725826
0.0013302
0.000723587
0.00134654
0.000720411
0.00136337
0.000717599
0.00138303
0.000718465
0.00139685
0.000721235
0.00141813
0.000723014
0.00143338
0.000724256
0.00144519
0.000733394
0.00145535
0.000748462
0.00146023
0.000764436
0.0014591
0.000773003
0.00144749
0.000767086
0.00143123
0.000747271
0.00139444
0.000712729
0.00133329
0.000686781
0.00125335
0.000676835
0.00118747
0.000674794
0.00114172
0.000678853
0.00110849
0.000683274
0.00108299
0.000683617
0.00105722
0.000680646
0.0010298
0.000679447
0.00100342
0.000679801
0.000978876
0.000675579
0.000953489
0.000668183
0.000926791
0.000662662
0.000898893
0.000659268
0.000872483
0.000656791
0.000849656
0.000654346
0.00082892
0.000652513
0.00080901
0.00065118
0.000790704
0.000652606
0.000773565
0.000654738
0.000755938
0.000654888
0.000739108
0.000654058
0.000724675
0.000655646
0.000712646
0.000656833
0.000701982
0.000659329
0.00069354
0.000660794
0.000686986
0.000664754
0.000682382
0.000667278
0.000678922
0.000670893
0.000676899
0.000672782
0.000676462
0.000676538
0.00067689
0.000678236
0.000677874
0.000682413
0.000679918
0.000683089
0.000684002
0.000685694
0.000689412
0.000686655
0.000696713
0.000689482
0.000704564
0.000685525
0.000714209
0.00069591
0.000731125
0.00346406
0.00355338
0.00131379
0.00356228
0.00129248
0.00354461
0.00130097
0.00351475
0.00131207
0.00347783
0.00132614
0.00343951
0.00133912
0.00339654
0.0013503
0.00334562
0.00136192
0.00328895
0.00137368
0.00322681
0.00138528
0.0031591
0.0013974
0.00308594
0.00141046
0.00300866
0.0014246
0.00292666
0.00143903
0.0028434
0.00145324
0.00275759
0.00146841
0.00267046
0.00148337
0.00258229
0.00149798
0.00249394
0.00151211
0.00240521
0.00152547
0.0023162
0.00153829
0.00222765
0.00155036
0.0021393
0.00156241
0.00205171
0.00157444
0.00196461
0.00158624
0.00187898
0.00159787
0.00179557
0.00160898
0.00171383
0.00162059
0.00163423
0.00163204
0.00155706
0.00164271
0.00148234
0.00165199
0.00141019
0.0016611
0.00133995
0.00166972
0.00127187
0.00167766
0.00120616
0.00168478
0.00114297
0.00169125
0.00108242
0.00169725
0.00102449
0.00170292
0.000968991
0.0017083
0.000915934
0.00171327
0.000865214
0.00171764
0.000818262
0.00172138
0.000774029
0.001725
0.000731805
0.00172794
0.000767065
0.00173004
0.000769321
0.00174462
0.000771726
0.00175972
0.00077419
0.00177554
0.000776175
0.0017922
0.000777807
0.00180992
0.000779279
0.00182729
0.000780787
0.00184441
0.000782852
0.00186028
0.000785879
0.00187508
0.000789311
0.00189104
0.000791671
0.00190654
0.000789283
0.00192555
0.000794225
0.00193406
0.000842905
0.0019938
0.000667224
0.00162094
0.000727418
0.00129679
0.000750236
0.00133484
0.000756105
0.0013647
0.000758281
0.00139089
0.000758415
0.00141183
0.000750457
0.00142201
0.000741147
0.00142803
0.000736464
0.0014418
0.000731092
0.00145755
0.00073071
0.00147432
0.000731446
0.00149193
0.000728784
0.00150832
0.000728744
0.00152145
0.000741201
0.00152548
0.000764082
0.0015293
0.000777875
0.00152778
0.000803586
0.00152184
0.000807555
0.00151839
0.000793113
0.00147881
0.000768856
0.00141408
0.000733551
0.00134126
0.000706256
0.0012534
0.000696591
0.00119448
0.000696876
0.0011588
0.000700079
0.00112899
0.000699535
0.00110363
0.000695847
0.00107215
0.00069311
0.00104315
0.00069359
0.0010174
0.000689118
0.000991125
0.000682575
0.000964608
0.000676714
0.000936923
0.000671691
0.000908931
0.000667979
0.000884674
0.00066514
0.000861698
0.000662211
0.000840435
0.000659585
0.000820935
0.000661495
0.000803237
0.000663489
0.000785641
0.000662022
0.000768645
0.000659784
0.000752914
0.000660474
0.000739217
0.000660777
0.000726597
0.000662687
0.000715865
0.000663761
0.000707469
0.000667941
0.000700832
0.000670866
0.000695972
0.000675391
0.000692747
0.000678269
0.000691181
0.000684159
0.000691529
0.00068738
0.000693066
0.000692752
0.000695835
0.000694301
0.000700666
0.000697243
0.000706212
0.000697482
0.00071309
0.000700157
0.00071934
0.000694966
0.000727483
0.000705184
0.000741205
0.0034046
0.00353224
0.00122973
0.00355664
0.00129835
0.00354769
0.0013145
0.00352016
0.00132819
0.00348259
0.00133992
0.00344182
0.00135354
0.00339741
0.0013699
0.00334661
0.00138672
0.0032902
0.00140422
0.00322834
0.00142243
0.00316143
0.00144051
0.00308954
0.00145815
0.00301344
0.00147534
0.00293267
0.00149184
0.0028501
0.00150843
0.00276571
0.00152524
0.00267893
0.00154223
0.0025903
0.00155877
0.0025013
0.00157522
0.00241176
0.00159185
0.0023219
0.00160858
0.00223246
0.00162498
0.00214374
0.00164107
0.00205594
0.00165678
0.00196913
0.00167178
0.00188355
0.00168597
0.00179973
0.00169939
0.00171793
0.00171216
0.00163816
0.00172444
0.00156052
0.00173634
0.00148531
0.00174805
0.00141269
0.00175952
0.00134273
0.00177074
0.00127504
0.00178225
0.00120881
0.00179304
0.00114518
0.00180309
0.00108424
0.00181239
0.00102594
0.00182097
0.000970167
0.0018287
0.00091686
0.00183554
0.000865903
0.00184137
0.000817807
0.00184673
0.000773851
0.00185182
0.000731935
0.00185591
0.000775106
0.00185862
0.000777823
0.0018708
0.000780543
0.00188347
0.000783351
0.00189662
0.000786384
0.00190989
0.000789012
0.00192341
0.000791159
0.00193767
0.000792889
0.00195239
0.00079444
0.00196674
0.000796057
0.00198072
0.00079727
0.00199499
0.000798032
0.00200694
0.000794042
0.00201555
0.000777065
0.00200554
0.000694807
0.00201229
0.000641679
0.00127193
0.000718488
0.00125237
0.000742628
0.00130633
0.000760531
0.00137867
0.000767275
0.00142742
0.000767015
0.00145369
0.000756585
0.00146768
0.000749631
0.00148252
0.000744231
0.00149565
0.000741058
0.00151426
0.00073763
0.00153251
0.000735581
0.00154079
0.000735839
0.0015555
0.000732736
0.00157098
0.000749789
0.00157765
0.000768728
0.00157553
0.000790334
0.00157338
0.000814991
0.00157262
0.000828576
0.00155445
0.000819612
0.00152958
0.000805415
0.00145907
0.000771068
0.00139311
0.000736964
0.00130656
0.000721866
0.00123555
0.000719121
0.00118803
0.000719721
0.00114957
0.000716357
0.00112177
0.000710581
0.00108911
0.000706757
0.00105995
0.000706216
0.0010346
0.000701848
0.00100963
0.000695421
0.000983668
0.000689824
0.000956134
0.000684654
0.000927598
0.000680704
0.000901863
0.000677979
0.00087809
0.00067443
0.00085571
0.000671137
0.00083604
0.000672641
0.000817416
0.000673611
0.000798547
0.000671157
0.000781016
0.000668407
0.000764809
0.000669354
0.000750467
0.000669755
0.000737464
0.000671367
0.000726772
0.000671796
0.000717173
0.000674647
0.000708633
0.00067675
0.000701496
0.000681364
0.000697181
0.000684284
0.000695464
0.000690923
0.000695913
0.000694959
0.000697761
0.000701483
0.000700671
0.00070416
0.000705045
0.000708407
0.000710238
0.00070919
0.000717156
0.000712633
0.000723018
0.000707305
0.00073017
0.000720515
0.000743248
0.00339217
0.00355098
0.00134995
0.00357025
0.00133078
0.00355546
0.00134537
0.00352569
0.0013636
0.00348702
0.00138489
0.00344818
0.00140512
0.00340512
0.00142314
0.00335446
0.00144147
0.00329887
0.00145962
0.00323768
0.00147728
0.0031711
0.00149548
0.00309911
0.00151457
0.00302226
0.00153468
0.00294113
0.00155523
0.00285829
0.00157568
0.00277348
0.00159652
0.00268637
0.00161733
0.00259751
0.0016375
0.00250864
0.00165686
0.00241916
0.00167538
0.00232939
0.00169285
0.00223993
0.0017099
0.00215116
0.00172669
0.00206322
0.00174281
0.0019761
0.00175883
0.00189022
0.00177479
0.00180592
0.0017908
0.00172353
0.00180655
0.00164333
0.00182166
0.00156552
0.00183607
0.00149024
0.00184977
0.00141743
0.00186251
0.00134733
0.00187415
0.00127974
0.0018848
0.00121406
0.0018947
0.00115021
0.00190392
0.00108893
0.00191245
0.00103014
0.0019204
0.0009738
0.0019278
0.000919982
0.00193465
0.00086853
0.00194101
0.000819524
0.0019469
0.000772709
0.00195204
0.000731096
0.00195634
0.000783909
0.0019601
0.000786845
0.00197365
0.000789596
0.00198729
0.000792119
0.00200116
0.000794463
0.00201497
0.000796484
0.00202863
0.000798329
0.00204194
0.000800182
0.00205504
0.000801725
0.00206871
0.000802832
0.00208157
0.000802325
0.0020929
0.000800744
0.00209912
0.000796221
0.00210117
0.000794661
0.00208914
0.000704696
0.00208217
0.000669231
0.00130697
0.000721907
0.0013192
0.000753581
0.00136945
0.000772082
0.00145004
0.000774462
0.00149288
0.000770704
0.00152066
0.000758036
0.00153301
0.000754414
0.0015505
0.000741553
0.00155996
0.000741085
0.00157605
0.000734251
0.00159641
0.000735367
0.00161172
0.000732779
0.00162858
0.000734548
0.00163046
0.000754868
0.00163518
0.000771463
0.00163233
0.000800006
0.00162625
0.000815126
0.00161896
0.000843857
0.0016031
0.000842392
0.00158586
0.00083429
0.00151054
0.000803395
0.00142844
0.000767745
0.0013316
0.000744378
0.00125691
0.000734219
0.00120663
0.000729663
0.00117078
0.000725333
0.00113746
0.000719983
0.00110309
0.000716172
0.00107202
0.000714586
0.00104458
0.000710702
0.00101831
0.000704956
0.000991376
0.000699896
0.0009622
0.000694707
0.000933715
0.000690338
0.000907506
0.000687362
0.000884179
0.000682465
0.00086178
0.000678558
0.000842343
0.000680209
0.000823713
0.000680549
0.000804675
0.000678458
0.000787708
0.00067676
0.000772038
0.000679186
0.000758466
0.000680026
0.000746297
0.00068203
0.00073605
0.000681817
0.000726441
0.000684328
0.00071753
0.000685275
0.000710251
0.000689669
0.000705713
0.000691975
0.000703813
0.000698821
0.000703908
0.000702936
0.000705286
0.000710331
0.000707634
0.000713946
0.000711791
0.000719576
0.000717125
0.000720855
0.000723954
0.000724496
0.000729675
0.000719857
0.000735665
0.000736079
0.00074784
0.00339353
0.00354104
0.00124995
0.00357566
0.00133756
0.00356571
0.00136166
0.00353875
0.00138214
0.00350191
0.0013999
0.00346176
0.00141937
0.00341632
0.00144218
0.00336559
0.00146586
0.00330944
0.00149012
0.00324808
0.00151475
0.00318178
0.00153936
0.00311051
0.00156362
0.00303506
0.00158731
0.00295554
0.00161063
0.0028731
0.00163343
0.00278838
0.00165599
0.00270105
0.00167837
0.00261214
0.00170047
0.00252232
0.00172223
0.00243167
0.00174387
0.00234116
0.0017654
0.00225126
0.00178682
0.0021621
0.00180806
0.0020738
0.00182878
0.00198651
0.00184859
0.00190052
0.00186727
0.00181609
0.00188492
0.00173348
0.00190165
0.00165286
0.0019176
0.00157441
0.00193307
0.0014984
0.00194806
0.00142486
0.00196277
0.00135401
0.00197697
0.00128545
0.00199155
0.00121842
0.00200531
0.00115396
0.00201839
0.00109211
0.00203051
0.0010328
0.00204173
0.000976071
0.00205205
0.000921872
0.00206123
0.00087032
0.0020695
0.00082079
0.00207702
0.000773534
0.00208327
0.000730665
0.00208861
0.000791291
0.00209285
0.000794457
0.00210362
0.000797462
0.00211531
0.000800171
0.00212722
0.000802642
0.00213932
0.000804702
0.00215141
0.000806495
0.00216328
0.000808249
0.00217516
0.0008097
0.00218774
0.000810521
0.0021991
0.00080958
0.00221037
0.000807291
0.00222203
0.000802669
0.00223703
0.000807285
0.00224646
0.000728993
0.00230005
0.000727639
0.00157955
0.000760787
0.00145722
0.000773252
0.00149814
0.000790043
0.00156554
0.000793776
0.00161455
0.000790573
0.00163804
0.000773479
0.00164529
0.000765119
0.0016532
0.000747947
0.00165679
0.000744381
0.00166147
0.000733944
0.00167875
0.000734998
0.00168581
0.000730019
0.00169265
0.000732977
0.0016919
0.00074839
0.00168549
0.000771263
0.00167655
0.000791212
0.00166417
0.000823563
0.00164744
0.000840089
0.0016199
0.000865082
0.00158409
0.000860545
0.00154097
0.000832328
0.00146906
0.0007958
0.00139352
0.00076907
0.0013199
0.000753943
0.0012586
0.000745069
0.00121386
0.000738451
0.00116944
0.000734557
0.00113325
0.000731134
0.00110196
0.000727474
0.00107257
0.000721988
0.0010439
0.000715637
0.0010137
0.000710846
0.000981152
0.000705587
0.000951685
0.000700932
0.000924955
0.000697178
0.00090136
0.000691868
0.000879645
0.000688412
0.000859222
0.000690045
0.0008382
0.000688427
0.000817729
0.000685478
0.000800149
0.000684268
0.000784484
0.000687119
0.000771299
0.000688003
0.000760254
0.000690263
0.000750299
0.000689744
0.000740338
0.000692607
0.000730736
0.000693147
0.000722725
0.000697609
0.000717774
0.000699382
0.000715534
0.000706236
0.000714979
0.000710623
0.000715483
0.000718895
0.000717011
0.00072327
0.000720233
0.000729993
0.000724891
0.000732
0.00073063
0.000736482
0.000735333
0.000733366
0.000740829
0.000752569
0.000751939
0.00336639
0.00356668
0.00139112
0.00359367
0.00137699
0.00357514
0.00139699
0.00354585
0.0014218
0.00350766
0.00144932
0.0034689
0.00147539
0.00342604
0.0015002
0.00337654
0.00152532
0.0033216
0.00154986
0.00326128
0.00157408
0.00319544
0.00159858
0.00312415
0.00162353
0.00304817
0.00164905
0.00296815
0.00167511
0.0028851
0.00170106
0.0027995
0.00172695
0.00271179
0.0017526
0.00262278
0.00177798
0.00253297
0.00180259
0.00244257
0.00182633
0.0023523
0.0018491
0.0022626
0.00187089
0.00217342
0.00189194
0.00208493
0.00191271
0.00199721
0.00193329
0.00191066
0.00195344
0.0018256
0.0019735
0.00174233
0.00199283
0.00166114
0.00201159
0.00158219
0.00202968
0.0015058
0.002047
0.00143195
0.00206301
0.00136089
0.00207786
0.0012923
0.00209189
0.00122522
0.00210479
0.00116056
0.00211676
0.00109844
0.00212826
0.00103863
0.00213904
0.000981406
0.00214882
0.000926765
0.00215762
0.000874447
0.00216622
0.000824463
0.00217347
0.000776765
0.0021803
0.000731252
0.0021865
0.000800058
0.00219202
0.00080387
0.00220456
0.000807015
0.00221866
0.000809702
0.00223098
0.000812202
0.00224272
0.000814447
0.0022544
0.000816383
0.00226651
0.000818446
0.00227868
0.000820363
0.00229198
0.000822017
0.00230642
0.000823673
0.00232475
0.000826056
0.00234234
0.000831986
0.00236195
0.000874311
0.00237032
0.000903412
0.00238029
0.000799457
0.00175542
0.0008179
0.00166661
0.000809673
0.00166404
0.000831028
0.00171092
0.00082787
0.00174641
0.000821254
0.00177024
0.000801146
0.00179636
0.000786239
0.00179642
0.000765054
0.00178827
0.000758207
0.00177918
0.000740693
0.00179942
0.000737301
0.00179459
0.00072963
0.00178941
0.000740584
0.00178282
0.000755263
0.00176338
0.000773614
0.0017464
0.000797436
0.00170355
0.000812647
0.00166374
0.000840058
0.00160457
0.0008607
0.00155746
0.000866309
0.00150283
0.000849191
0.00145084
0.000818699
0.00139176
0.00078879
0.00132275
0.000767784
0.00126205
0.000757299
0.00121224
0.000750259
0.00116446
0.00074646
0.0011268
0.000742419
0.00109598
0.00073816
0.00106946
0.000733454
0.00104254
0.000727521
0.00101304
0.000722395
0.000984565
0.000715998
0.000958045
0.000711397
0.000933446
0.000706094
0.000909899
0.000700623
0.000887805
0.000698394
0.000866404
0.000699312
0.000844007
0.000696542
0.000824107
0.000693619
0.000806784
0.000693058
0.000791388
0.000695807
0.000778181
0.000696273
0.000767301
0.000698693
0.000756954
0.000698024
0.000746906
0.000701616
0.000737608
0.000702117
0.000730123
0.000706371
0.000725132
0.000707371
0.000722551
0.00071422
0.000720974
0.000718513
0.000720442
0.000727358
0.000721232
0.0007328
0.000724492
0.000740867
0.000729713
0.000743647
0.000735614
0.000748696
0.000740417
0.000747424
0.000745431
0.000769358
0.000756097
0.00342733
0.00357921
0.00129038
0.0036092
0.00138821
0.00359951
0.00142072
0.00357258
0.00144708
0.00353701
0.00147167
0.00349584
0.00149786
0.00345064
0.00152595
0.00339988
0.00155512
0.00334348
0.00158525
0.00328176
0.00161579
0.00321516
0.00164623
0.0031439
0.00167646
0.00306846
0.00170632
0.00298892
0.00173564
0.00290608
0.00176425
0.00282028
0.0017923
0.00273228
0.00181983
0.00264284
0.00184691
0.00255225
0.00187373
0.00246111
0.00190028
0.00236989
0.00192661
0.00227911
0.00195275
0.0021889
0.00197844
0.00209954
0.00200333
0.00201042
0.00202723
0.00192332
0.00205004
0.00183805
0.00207183
0.00175479
0.0020927
0.00167358
0.00211255
0.00159425
0.00213137
0.00151697
0.00214955
0.0014421
0.00216738
0.00136952
0.00218394
0.00129912
0.00220106
0.00123123
0.00221709
0.0011659
0.00223171
0.00110311
0.00224628
0.0010431
0.0022604
0.000985183
0.002273
0.000930126
0.0022845
0.000877359
0.00229425
0.000826684
0.00230232
0.000778467
0.00231044
0.000732483
0.00231929
0.000806447
0.00232537
0.00081078
0.00233505
0.000814128
0.00234551
0.000816887
0.0023569
0.000819325
0.00236843
0.000821498
0.00238004
0.000823419
0.00239226
0.000825349
0.00240392
0.000827224
0.00241511
0.000830433
0.0024255
0.00083291
0.00243707
0.000836154
0.0024483
0.000846416
0.00245801
0.00092679
0.00246634
0.000997912
0.00247529
0.00091271
0.00187724
0.000887824
0.00180841
0.000861324
0.00179771
0.00086443
0.00181618
0.000863181
0.00184759
0.000852728
0.00185864
0.000835247
0.00187028
0.000815067
0.00188346
0.000789755
0.00188634
0.000779246
0.0018848
0.00076503
0.00187322
0.000753758
0.00189934
0.000755752
0.00187578
0.000759367
0.00186404
0.000770619
0.00180032
0.000773295
0.00173571
0.000790148
0.00164142
0.000800044
0.00156074
0.000823963
0.00149844
0.000845873
0.00145487
0.000851293
0.0014271
0.000841422
0.00139159
0.000820949
0.00135066
0.000794883
0.00129929
0.000778105
0.00124821
0.000768045
0.00120035
0.000759549
0.00115805
0.00075554
0.00112311
0.000751523
0.00109419
0.000747068
0.00106776
0.000743467
0.00104268
0.000738846
0.00101701
0.000734538
0.000993409
0.000728077
0.000970938
0.000723681
0.000948696
0.000717913
0.000926206
0.000712495
0.000904297
0.000710696
0.000881154
0.000710029
0.000857714
0.000705477
0.000837796
0.000702726
0.000819478
0.000702325
0.000803421
0.000704153
0.000789953
0.000703865
0.000778347
0.000706525
0.000767131
0.000706442
0.000756839
0.00071031
0.00074753
0.000711061
0.000739998
0.000715394
0.000734695
0.000716079
0.000731611
0.000722818
0.000729141
0.00072688
0.000727614
0.000735868
0.000727524
0.000742094
0.000730586
0.000751352
0.000736
0.000754729
0.000741235
0.000760943
0.0007455
0.00076179
0.000750323
0.000786425
0.000760521
0.00339792
0.00360642
0.00143537
0.00362771
0.00142747
0.00361044
0.00145024
0.00358185
0.00148186
0.00354544
0.00151496
0.00350722
0.00154815
0.00346351
0.00157991
0.00341411
0.00161155
0.00335918
0.00164235
0.00329856
0.00167286
0.00323257
0.0017033
0.00316145
0.00173379
0.00308583
0.0017646
0.00300588
0.00179573
0.0029225
0.00182701
0.00283624
0.0018581
0.00274767
0.00188885
0.00265782
0.001919
0.0025671
0.00194854
0.00247601
0.00197735
0.00238487
0.00200517
0.00229409
0.0020319
0.00220348
0.0020577
0.0021126
0.00208281
0.00202341
0.00210765
0.00193562
0.00213212
0.00184969
0.0021558
0.00176535
0.00217899
0.00168305
0.00220103
0.00160288
0.00222196
0.00152556
0.00224226
0.0014505
0.00226241
0.00137769
0.00228121
0.00130738
0.00229858
0.00123959
0.00231466
0.00117427
0.00233027
0.00111148
0.00234545
0.00105089
0.00235973
0.000992911
0.00237204
0.000936946
0.00238335
0.00088344
0.00239373
0.000832457
0.00240332
0.000784276
0.00241238
0.000737737
0.0024214
0.000816088
0.00242884
0.000819788
0.00243956
0.000823626
0.00245136
0.000827023
0.00246459
0.000829916
0.00247653
0.000832307
0.00248789
0.000834225
0.00249852
0.00083557
0.00250847
0.00083643
0.002518
0.000837248
0.00252654
0.000838807
0.00253652
0.000842586
0.00255228
0.000858283
0.00256606
0.000995611
0.0025903
0.00103688
0.00240369
0.0009905
0.0020096
0.000955483
0.00195698
0.000907672
0.00193292
0.000898043
0.00193849
0.000876291
0.00194116
0.000863764
0.00193677
0.00084001
0.0019595
0.000819494
0.00195904
0.000798982
0.00196296
0.000774469
0.00194569
0.000771156
0.00193602
0.00074933
0.0019585
0.000755722
0.00186378
0.000749662
0.00178399
0.000746887
0.00166799
0.000739729
0.00155899
0.000757232
0.00147835
0.000776518
0.00143103
0.000792207
0.00139762
0.000808932
0.00137559
0.000817903
0.00135895
0.000817395
0.00134196
0.000808996
0.00131723
0.000791749
0.00128485
0.000780762
0.00124609
0.000772161
0.00120654
0.000765679
0.00117466
0.00076238
0.00114393
0.000757656
0.00111703
0.000753932
0.00108912
0.000750081
0.00106016
0.000746007
0.00103116
0.000742297
0.0010054
0.000736948
0.000981796
0.000733273
0.000958561
0.000727357
0.000935482
0.00072312
0.000912676
0.000722175
0.000888845
0.000719874
0.000866565
0.000714792
0.000847917
0.00071251
0.00083057
0.000711694
0.000815027
0.000712372
0.000801759
0.000711742
0.000789817
0.0007148
0.000778025
0.000715355
0.00076736
0.000719394
0.000757772
0.000720534
0.000750084
0.000724884
0.000744553
0.000725411
0.000741047
0.000732183
0.000737967
0.000736227
0.000735846
0.000745146
0.000735178
0.000751724
0.00073772
0.000762009
0.000742782
0.000765677
0.000747101
0.000773253
0.000750363
0.000776617
0.000755234
0.000803926
0.000764971
0.00350102
0.00363373
0.00135097
0.00365172
0.00144849
0.00364023
0.0014887
0.00361478
0.00152053
0.00357996
0.00155113
0.00353981
0.00158227
0.00349477
0.00161595
0.00344409
0.00165087
0.00338761
0.00168661
0.00332534
0.00172249
0.00325776
0.0017581
0.00318547
0.0017934
0.00310913
0.00182835
0.00302896
0.00186269
0.00294549
0.00189659
0.002859
0.00192987
0.00277015
0.00196238
0.00267975
0.00199437
0.0025883
0.00202586
0.00249626
0.00205694
0.00240395
0.00208753
0.0023116
0.00211758
0.00221882
0.00214712
0.00212718
0.00217582
0.00203746
0.00220378
0.0019494
0.00222995
0.00186315
0.00225501
0.00177858
0.00227989
0.00169592
0.00230358
0.00161549
0.00232664
0.00153722
0.00234882
0.00146159
0.00236991
0.00138778
0.00238987
0.00131635
0.00240862
0.0012475
0.0024263
0.00118139
0.00244454
0.00111795
0.0024622
0.00105657
0.00247801
0.000997558
0.00249268
0.000941046
0.00250616
0.000887068
0.00251843
0.000835512
0.00252904
0.000786096