/*--------------------------------*- C++ -*----------------------------------*\
| =========                 |                                                 |
| \\      /  F ield         | OpenFOAM: The Open Source CFD Toolbox           |
|  \\    /   O peration     | Version:  2.2.x                                 |
|   \\  /    A nd           | Web:      www.OpenFOAM.org                      |
|    \\/     M anipulation  |                                                 |
\*---------------------------------------------------------------------------*/
FoamFile
{
    version     2.0;
    format      ascii;
    class       volScalarField;
    location    "0.45";
    object      p;
}
// * * * * * * * * * * * * * * * * * * * * * * * * * * * * * * * * * * * * * //

dimensions      [1 -1 -2 0 0 0 0];

internalField   nonuniform List<scalar> 
14161
(
0.197776
0.199901
0.199798
0.199841
0.199623
0.199612
0.199572
0.199581
0.199613
0.199676
0.199776
0.199861
0.199882
0.199848
0.199844
0.199707
0.199528
0.199304
0.199083
0.198802
0.198545
0.198331
0.19798
0.197535
0.196874
0.196277
0.195598
0.194917
0.194064
0.193195
0.192422
0.191782
0.190914
0.189517
0.188337
0.187385
0.18651
0.185797
0.184921
0.183385
0.18226
0.181413
0.18075
0.179932
0.179371
0.178627
0.177632
0.176294
0.1758
0.175398
0.175137
0.174847
0.174342
0.17373
0.173962
0.174687
0.180833
0.16991
0.916216
1.59223
1.83808
1.92838
1.88197
1.77216
1.68497
1.59681
1.50236
1.41285
1.34091
1.28386
1.21951
1.16293
1.10839
1.07182
1.05727
1.05643
1.08197
1.16506
1.24675
1.30875
1.33968
1.3514
1.35332
1.35615
1.38241
1.43233
1.50826
1.57625
1.63379
1.67632
1.71194
1.74364
1.77295
1.79714
1.81785
1.83503
1.84733
1.8626
1.87973
1.89834
1.91938
1.9395
1.95597
1.96944
1.9803
1.99425
2.00553
2.0188
2.02657
2.03487
2.03798
2.04237
2.04182
2.04417
2.04448
2.04998
2.04588
2.04784
2.05043
0.206191
0.198693
0.199295
0.200256
0.200833
0.201024
0.200535
0.200262
0.199946
0.19968
0.199466
0.199369
0.199507
0.19958
0.199695
0.199698
0.199624
0.199505
0.199323
0.199036
0.198696
0.198306
0.197777
0.197319
0.196466
0.195902
0.19535
0.194705
0.194081
0.193271
0.192367
0.191424
0.190342
0.189107
0.187857
0.186655
0.185483
0.184348
0.183276
0.182199
0.181287
0.180288
0.179369
0.178618
0.178289
0.17818
0.177992
0.177498
0.176927
0.176251
0.175853
0.175902
0.175836
0.174538
0.172684
0.169105
0.174292
0.16609
0.813782
1.44221
1.73334
1.77098
1.7234
1.64366
1.5879
1.52201
1.45379
1.39132
1.34164
1.30562
1.26304
1.20015
1.16312
1.15058
1.15361
1.18098
1.22435
1.30594
1.37153
1.43108
1.47468
1.50499
1.52673
1.549
1.58078
1.61141
1.64766
1.67605
1.69735
1.72805
1.76846
1.80318
1.83367
1.85585
1.87464
1.8904
1.90412
1.92083
1.93618
1.95332
1.97039
1.9876
2.00113
2.01047
2.01762
2.02692
2.03056
2.03498
2.03847
2.04331
2.04456
2.04761
2.04615
2.0482
2.04794
2.05327
2.04638
2.05044
2.05191
0.193103
0.203773
0.201491
0.199988
0.199123
0.198775
0.199373
0.199823
0.200074
0.200403
0.20069
0.200763
0.20049
0.200087
0.199951
0.199772
0.199278
0.19909
0.198895
0.198768
0.198669
0.198607
0.198281
0.197837
0.197183
0.196458
0.195647
0.194797
0.194148
0.193397
0.192443
0.191722
0.191064
0.190181
0.189268
0.188318
0.187334
0.186325
0.185296
0.184223
0.183063
0.182138
0.181426
0.18072
0.179903
0.178768
0.17785
0.17649
0.175542
0.174561
0.173225
0.171899
0.170577
0.170014
0.170841
0.170233
0.16819
0.152715
0.415449
1.34195
1.57919
1.62663
1.59766
1.52971
1.48589
1.42949
1.37588
1.32626
1.28219
1.24921
1.20074
1.15382
1.11372
1.09631
1.09733
1.11714
1.13771
1.20393
1.26727
1.33935
1.4282
1.50243
1.55625
1.59539
1.62658
1.65227
1.67752
1.69876
1.72411
1.76039
1.79444
1.82211
1.84964
1.87276
1.89258
1.90944
1.92492
1.94217
1.9563
1.96961
1.98309
1.9976
2.0092
2.01757
2.0243
2.03178
2.03638
2.03844
2.03848
2.04092
2.04136
2.04526
2.04389
2.04726
2.0472
2.05218
2.04575
2.04858
2.05151
0.210766
0.195415
0.197977
0.200482
0.201636
0.202025
0.20102
0.200207
0.199875
0.199487
0.199192
0.199131
0.199191
0.199478
0.199853
0.199943
0.199889
0.199766
0.199515
0.199082
0.198781
0.198547
0.197626
0.19706
0.196494
0.196091
0.195779
0.195407
0.194883
0.194183
0.193218
0.19213
0.190909
0.189451
0.188032
0.186705
0.185435
0.184291
0.183263
0.182534
0.181621
0.180669
0.179745
0.178815
0.178223
0.177671
0.177284
0.177026
0.176666
0.175993
0.175276
0.174673
0.173727
0.172187
0.168876
0.16413
0.158067
0.155701
0.188656
1.06167
1.4308
1.4825
1.45771
1.42271
1.38361
1.34556
1.31347
1.27599
1.23407
1.2007
1.15925
1.118
1.09199
1.06636
1.05886
1.05152
1.08697
1.09811
1.14149
1.21326
1.31868
1.42354
1.51242
1.58368
1.62015
1.6543
1.68671
1.7152
1.74262
1.77138
1.8004
1.82623
1.84939
1.87034
1.88942
1.90868
1.92634
1.94372
1.95939
1.97333
1.98649
2.00029
2.01262
2.0227
2.03125
2.03872
2.04244
2.04373
2.04412
2.04554
2.04581
2.04866
2.04628
2.05098
2.05107
2.05487
2.04933
2.05101
2.05552
0.18567
0.207013
0.20336
0.200344
0.198833
0.197957
0.198788
0.19959
0.199934
0.200457
0.200877
0.201045
0.2008
0.200281
0.20006
0.199768
0.199052
0.198728
0.198405
0.198305
0.198322
0.198473
0.198216
0.19775
0.197115
0.196326
0.195705
0.194915
0.193842
0.192796
0.192151
0.191496
0.19077
0.190021
0.189257
0.188503
0.187696
0.186799
0.185788
0.184737
0.183687
0.182679
0.181704
0.180612
0.179669
0.178572
0.17737
0.176193
0.175077
0.173382
0.17158
0.170038
0.169291
0.169277
0.16847
0.167558
0.164728
0.167319
0.167452
0.392829
1.55254
1.52615
1.44989
1.40093
1.34093
1.3115
1.27823
1.25348
1.2018
1.17839
1.13166
1.10865
1.07634
1.06407
1.05061
1.04669
1.06767
1.06793
1.11077
1.19842
1.29447
1.42037
1.53211
1.6147
1.65886
1.69423
1.73592
1.76673
1.79208
1.81734
1.84084
1.86469
1.88776
1.90836
1.92705
1.94433
1.96189
1.9775
1.99291
2.00574
2.01596
2.02491
2.03429
2.0419
2.04954
2.05824
2.06338
2.06379
2.06261
2.06215
2.06242
2.06428
2.06142
2.06454
2.06142
2.0618
2.05311
2.05751
2.05926
0.214825
0.193578
0.197358
0.200807
0.202324
0.203059
0.20198
0.201039
0.200593
0.200007
0.199576
0.199424
0.19951
0.199864
0.200396
0.200527
0.200481
0.200501
0.200402
0.200121
0.19952
0.199037
0.198491
0.197906
0.197379
0.196917
0.196557
0.196166
0.195631
0.194926
0.193987
0.192887
0.191651
0.19013
0.188534
0.186979
0.185573
0.184215
0.182934
0.181819
0.180798
0.179888
0.178752
0.177675
0.176756
0.176446
0.175989
0.175464
0.174965
0.174375
0.17359
0.172573
0.171604
0.170796
0.169713
0.16979
0.171438
0.18316
0.192146
1.0942
1.66861
1.58853
1.47751
1.39794
1.34627
1.30346
1.27224
1.2311
1.20742
1.16117
1.13718
1.10655
1.0753
1.06213
1.05655
1.06388
1.05013
1.09427
1.10261
1.1945
1.27014
1.37625
1.47917
1.56953
1.62791
1.66827
1.71052
1.74064
1.76565
1.79163
1.81443
1.83638
1.85938
1.88098
1.89739
1.91675
1.93445
1.94846
1.96243
1.97485
1.98495
1.99391
2.00444
2.01663
2.02655
2.03524
2.0366
2.0366
2.03759
2.04012
2.04428
2.04801
2.04598
2.04913
2.04553
2.04666
2.03914
2.04309
2.0484
0.178397
0.208149
0.20373
0.199665
0.197829
0.196603
0.19741
0.198217
0.19864
0.199235
0.199753
0.199963
0.199815
0.199367
0.199073
0.198692
0.197996
0.197655
0.197352
0.197461
0.197532
0.197538
0.197327
0.197025
0.196732
0.196105
0.195291
0.194302
0.193186
0.19223
0.191298
0.19053
0.189748
0.189043
0.188366
0.187623
0.186854
0.18602
0.185106
0.1841
0.183018
0.181948
0.180853
0.179766
0.178675
0.177484
0.176365
0.175349
0.174412
0.17362
0.173027
0.172495
0.17161
0.170901
0.170767
0.172529
0.176031
0.186752
0.197512
1.09127
1.6586
1.64714
1.49506
1.38302
1.33884
1.30342
1.27456
1.22548
1.20711
1.14875
1.13645
1.09654
1.08593
1.06952
1.06196
1.07515
1.07517
1.11541
1.11326
1.20044
1.2933
1.4138
1.52977
1.62529
1.67364
1.71404
1.7468
1.76859
1.79255
1.81969
1.84293
1.86411
1.88326
1.90094
1.91454
1.93197
1.94669
1.95772
1.96904
1.98082
1.99136
2.0007
2.0109
2.02191
2.02868
2.03381
2.03355
2.0333
2.03493
2.03796
2.04364
2.0473
2.0452
2.04768
2.043
2.04303
2.03739
2.04184
2.04968
0.218772
0.193435
0.197524
0.201278
0.202856
0.203913
0.203167
0.202083
0.201513
0.200928
0.200423
0.200165
0.200166
0.200319
0.200598
0.200852
0.200862
0.200888
0.200663
0.200386
0.199954
0.199429
0.198755
0.198013
0.197321
0.196734
0.196235
0.195756
0.19521
0.194529
0.193653
0.192557
0.191363
0.189884
0.188328
0.186666
0.185133
0.183692
0.182267
0.181057
0.179883
0.178755
0.177799
0.176866
0.175797
0.175405
0.174662
0.173851
0.172922
0.172101
0.17141
0.170805
0.169799
0.169008
0.168077
0.16677
0.163184
0.162289
0.160768
0.767916
1.61639
1.56172
1.46055
1.34765
1.28702
1.22718
1.20559
1.1551
1.15803
1.09816
1.09083
1.06182
1.05641
1.04885
1.06337
1.07127
1.10886
1.14173
1.2116
1.24879
1.33296
1.42797
1.52361
1.62148
1.67239
1.72165
1.74927
1.77128
1.79866
1.82631
1.8514
1.87604
1.89595
1.91111
1.92559
1.94296
1.95526
1.9646
1.97462
1.9851
1.9961
2.00826
2.02022
2.03121
2.03544
2.03674
2.03494
2.03546
2.03769
2.0411
2.04869
2.0518
2.04906
2.04977
2.04396
2.04261
2.0366
2.03955
2.04886
0.173075
0.206487
0.202491
0.198136
0.19663
0.195424
0.196631
0.197031
0.19749
0.198048
0.19851
0.198782
0.198806
0.198598
0.198365
0.198096
0.19776
0.197406
0.197157
0.197183
0.197101
0.197169
0.197225
0.197067
0.196654
0.196014
0.195217
0.194359
0.193393
0.192401
0.191362
0.190516
0.189799
0.188938
0.188136
0.187363
0.18647
0.185478
0.1845
0.18347
0.18243
0.181451
0.180354
0.179178
0.177909
0.176448
0.17511
0.17348
0.172603
0.171995
0.171237
0.17019
0.168874
0.166653
0.163235
0.15966
0.154567
0.152061
0.176896
0.776548
1.36066
1.38472
1.34888
1.27012
1.22144
1.14394
1.12167
1.08555
1.09867
1.0362
1.01997
1.02541
1.01498
1.03463
1.04552
1.11144
1.16321
1.2644
1.30457
1.37764
1.42116
1.48632
1.55398
1.63494
1.68505
1.72322
1.7478
1.77304
1.80135
1.83356
1.86219
1.88552
1.90416
1.91766
1.93243
1.94613
1.95606
1.96419
1.97089
1.98186
1.9926
2.00576
2.01775
2.02646
2.02825
2.02747
2.02657
2.02986
2.03252
2.03577
2.04408
2.04719
2.04495
2.04626
2.04131
2.04029
2.03521
2.03681
2.0475
0.221556
0.194388
0.197683
0.200891
0.202806
0.203653
0.202984
0.20236
0.201778
0.201119
0.200578
0.200229
0.200052
0.2
0.200086
0.200243
0.200231
0.200187
0.200003
0.199722
0.199295
0.198713
0.198004
0.197264
0.196548
0.195903
0.195275
0.194617
0.193959
0.193244
0.19245
0.191466
0.190449
0.189174
0.187692
0.186397
0.185033
0.183235
0.181591
0.180113
0.17903
0.178138
0.177261
0.17597
0.174277
0.173663
0.172791
0.171547
0.170076
0.168754
0.167299
0.165963
0.164595
0.163432
0.162278
0.16112
0.15972
0.159973
0.17349
0.860231
1.20187
1.25392
1.2759
1.21852
1.17162
1.14219
1.06325
1.05639
1.00847
1.03069
0.948396
0.982103
0.975918
1.04692
1.11298
1.25683
1.35438
1.42409
1.48646
1.51036
1.54124
1.57919
1.61996
1.68037
1.72571
1.76369
1.79042
1.80961
1.82665
1.84288
1.8626
1.87915
1.89481
1.90932
1.92519
1.93865
1.94955
1.95803
1.96356
1.97492
1.98805
2.00262
2.01468
2.02177
2.02331
2.02376
2.02356
2.02888
2.03216
2.03524
2.04354
2.04612
2.04368
2.04483
2.04045
2.0381
2.03365
2.03437
2.04604
0.171942
0.203723
0.20148
0.198795
0.197165
0.196268
0.196765
0.197043
0.197539
0.198082
0.19858
0.198985
0.199207
0.199218
0.199116
0.198897
0.198618
0.198318
0.198068
0.197951
0.197893
0.19783
0.197741
0.197582
0.197203
0.196539
0.195801
0.195071
0.194168
0.193411
0.192404
0.191348
0.189954
0.188917
0.18803
0.187001
0.185865
0.184367
0.183262
0.18204
0.180818
0.179652
0.178505
0.176881
0.175435
0.174341
0.173031
0.171274
0.169326
0.167724
0.166367
0.165241
0.164173
0.16329
0.16233
0.159569
0.156117
0.15827
0.241125
0.904636
1.05073
1.11017
1.17769
1.14992
1.17751
1.09717
1.08238
1.02816
1.01457
1.03801
0.95925
1.0658
1.1512
1.29964
1.41918
1.53464
1.58008
1.59753
1.61494
1.62034
1.62771
1.64755
1.6743
1.71538
1.7499
1.78078
1.80493
1.82249
1.83552
1.85014
1.86917
1.88656
1.90256
1.91698
1.93027
1.9408
1.95234
1.96077
1.9666
1.97527
1.98915
2.00286
2.01321
2.02004
2.02228
2.0237
2.02306
2.02852
2.03187
2.03478
2.04269
2.04496
2.04263
2.04336
2.03939
2.03589
2.03208
2.03227
2.04412
0.221004
0.195699
0.197853
0.199947
0.201543
0.202424
0.202012
0.201511
0.201033
0.200515
0.200081
0.199747
0.199513
0.199388
0.199334
0.199316
0.199322
0.199189
0.199042
0.198779
0.198407
0.197962
0.197403
0.19675
0.195953
0.195476
0.194978
0.19418
0.193279
0.192311
0.19124
0.190139
0.188921
0.18774
0.186724
0.185419
0.183625
0.18201
0.180442
0.178931
0.17746
0.17618
0.175107
0.174163
0.173703
0.172582
0.171184
0.168646
0.166636
0.164931
0.163318
0.161565
0.159646
0.157456
0.156443
0.152587
0.150123
0.158707
0.564009
0.904173
0.96373
0.994588
1.03423
1.12242
1.10712
1.12413
1.05646
1.08608
1.06134
1.162
1.23916
1.35826
1.4933
1.58809
1.63422
1.65878
1.6649
1.66297
1.66786
1.67347
1.68479
1.69817
1.71967
1.74721
1.77075
1.78845
1.81003
1.827
1.84033
1.85877
1.87513
1.89234
1.90573
1.91884
1.93034
1.9386
1.953
1.96402
1.9724
1.97997
1.99195
2.00313
2.0114
2.01668
2.02032
2.023
2.02246
2.02781
2.0311
2.03357
2.04077
2.04314
2.04115
2.04145
2.03817
2.03344
2.03003
2.02975
2.04194
0.17649
0.202321
0.201403
0.199932
0.198574
0.197897
0.198083
0.198294
0.198703
0.199099
0.199467
0.199771
0.200032
0.200176
0.200097
0.199952
0.199562
0.199199
0.198938
0.198739
0.198373
0.198178
0.197951
0.197623
0.197466
0.197043
0.19635
0.19547
0.194629
0.193739
0.192412
0.191045
0.18982
0.188631
0.187789
0.186676
0.185268
0.183266
0.181595
0.180029
0.17857
0.177281
0.176081
0.174813
0.174252
0.17303
0.171428
0.168448
0.166026
0.163906
0.161908
0.160103
0.158694
0.157151
0.156118
0.155557
0.156299
0.173552
0.815442
0.94842
0.965702
0.967427
0.9871
1.01757
1.0875
1.08744
1.14748
1.18205
1.35206
1.40725
1.53217
1.59543
1.65468
1.68856
1.68654
1.68868
1.6889
1.68592
1.69275
1.70064
1.70445
1.71237
1.72862
1.74867
1.76959
1.78771
1.80673
1.82376
1.83916
1.85585
1.87066
1.8867
1.90145
1.91482
1.92655
1.93371
1.94963
1.96186
1.96948
1.97723
1.98839
1.99917
2.00707
2.01244
2.01763
2.02137
2.02119
2.02651
2.02995
2.03179
2.03817
2.04101
2.04004
2.04017
2.03762
2.03156
2.02851
2.02731
2.03886
0.21678
0.196829
0.197847
0.19893
0.200002
0.200621
0.200659
0.200386
0.200047
0.199715
0.199498
0.19936
0.199231
0.199262
0.199143
0.199014
0.199082
0.198966
0.19876
0.198506
0.198168
0.197824
0.19731
0.196702
0.196107
0.195537
0.194968
0.194224
0.193316
0.192409
0.191606
0.190631
0.189219
0.187774
0.186419
0.185489
0.183999
0.182034
0.179907
0.178183
0.176695
0.175391
0.174188
0.172894
0.172345
0.171236
0.16934
0.167097
0.163751
0.161541
0.159609
0.157853
0.156074
0.154093
0.150806
0.150088
0.153886
0.222469
0.891872
0.957329
0.960776
0.955348
0.963991
0.993965
1.04809
1.1527
1.32635
1.46815
1.5688
1.63186
1.65367
1.66212
1.66939
1.68273
1.68649
1.69332
1.69377
1.69682
1.70223
1.70851
1.72012
1.73066
1.74856
1.76581
1.78044
1.79226
1.80364
1.81336
1.82729
1.84246
1.85655
1.87209
1.88922
1.90456
1.91786
1.92729
1.94161
1.95385
1.96187
1.97138
1.98229
1.99282
2.00135
2.00809
2.01464
2.01904
2.02004
2.02559
2.02836
2.02944
2.03531
2.03859
2.03817
2.03784
2.03543
2.02863
2.02565
2.02398
2.03536
0.183955
0.20179
0.201811
0.200909
0.19975
0.199407
0.19923
0.199424
0.199584
0.199854
0.200003
0.200171
0.200471
0.200414
0.200438
0.200269
0.200027
0.1997
0.199381
0.199014
0.198716
0.198407
0.198042
0.197613
0.197083
0.196478
0.195717
0.195038
0.194023
0.192948
0.191945
0.19106
0.189748
0.188025
0.186596
0.185515
0.184266
0.182555
0.180129
0.178267
0.176594
0.175151
0.173845
0.172502
0.171552
0.170724
0.168904
0.166753
0.163687
0.161287
0.158921
0.156076
0.152832
0.149956
0.144898
0.140082
0.150563
0.532688
0.930703
0.961482
0.971568
0.969757
0.978771
1.02264
1.11402
1.30796
1.56439
1.66871
1.6893
1.68967
1.69484
1.68846
1.68519
1.67717
1.68114
1.68439
1.68913
1.69302
1.69845
1.70585
1.71854
1.73349
1.75349
1.77154
1.78585
1.79842
1.80905
1.81861
1.82991
1.84188
1.8536
1.86743
1.88325
1.89684
1.90923
1.91872
1.92985
1.94161
1.95097
1.96091
1.97136
1.98094
1.99122
1.99995
2.00883
2.01538
2.01871
2.0248
2.02624
2.0265
2.03191
2.0359
2.03639
2.03537
2.03333
2.02634
2.02348
2.02046
2.03221
0.210709
0.197722
0.198133
0.198731
0.199569
0.200092
0.199976
0.199677
0.199511
0.199364
0.199407
0.19954
0.199494
0.199419
0.199393
0.199364
0.199287
0.199183
0.199027
0.198813
0.198541
0.198239
0.197815
0.197314
0.19669
0.196015
0.195354
0.194715
0.193735
0.192601
0.191578
0.190651
0.189507
0.187859
0.186318
0.184844
0.183467
0.181698
0.17936
0.177406
0.175586
0.173985
0.172589
0.171187
0.170257
0.169114
0.167244
0.163546
0.161052
0.158993
0.157511
0.155169
0.150379
0.147827
0.14607
0.146105
0.160511
0.819995
0.99064
0.992056
0.991434
0.99168
1.01432
1.09172
1.26349
1.54779
1.72541
1.73332
1.71932
1.70696
1.69852
1.6902
1.68496
1.68656
1.68572
1.68847
1.68782
1.68671
1.68796
1.69493
1.70765
1.72737
1.74357
1.76159
1.77767
1.79237
1.80358
1.81407
1.82412
1.83527
1.84689
1.8625
1.8771
1.8898
1.90123
1.91244
1.9223
1.93275
1.94429
1.95424
1.96481
1.97505
1.98631
1.99607
2.00508
2.01173
2.01608
2.02255
2.02306
2.02292
2.02843
2.03318
2.03474
2.03287
2.03076
2.02387
2.02052
2.01611
2.02867
0.190756
0.201476
0.201703
0.201193
0.200373
0.199867
0.199699
0.199771
0.199816
0.199864
0.200047
0.200105
0.200145
0.200106
0.200031
0.199939
0.199795
0.199537
0.199311
0.19903
0.198709
0.198348
0.197915
0.197425
0.196782
0.196055
0.195306
0.194615
0.193575
0.192186
0.190939
0.189786
0.188718
0.187591
0.186214
0.184664
0.183357
0.181648
0.179569
0.177493
0.175615
0.173843
0.172177
0.170643
0.169806
0.168345
0.165898
0.16242
0.160363
0.158735
0.157965
0.156272
0.154013
0.148483
0.146469
0.149588
0.20771
0.944298
1.01549
1.02052
1.02573
1.03229
1.08691
1.21732
1.4783
1.71339
1.77213
1.75447
1.72474
1.70776
1.70468
1.69407
1.68651
1.68873
1.69202
1.69155
1.6874
1.6841
1.68706
1.69485
1.70822
1.72386
1.73881
1.75458
1.7693
1.78218
1.79355
1.8044
1.8157
1.82753
1.83974
1.85422
1.86834
1.88178
1.89338
1.90482
1.91584
1.92686
1.93953
1.95043
1.96124
1.97144
1.98087
1.99085
1.99979
2.00698
2.01221
2.01857
2.01873
2.01883
2.02509
2.03059
2.03275
2.02983
2.02751
2.02116
2.01729
2.01188
2.02526
0.205372
0.198523
0.198719
0.19907
0.199108
0.19973
0.199679
0.199702
0.199692
0.19974
0.199782
0.199808
0.199799
0.199734
0.199673
0.199585
0.199471
0.199348
0.199161
0.198951
0.198689
0.198365
0.197965
0.197487
0.196874
0.196218
0.195528
0.194908
0.193963
0.192555
0.191302
0.190017
0.188735
0.187446
0.186238
0.184831
0.183197
0.180746
0.178684
0.176672
0.174647
0.172614
0.170827
0.169163
0.168378
0.166874
0.16422
0.16115
0.159
0.157027
0.15477
0.153125
0.150736
0.14439
0.140138
0.146115
0.443009
1.02615
1.03414
1.03683
1.0466
1.08581
1.19656
1.41611
1.67405
1.78118
1.77203
1.75825
1.72725
1.69956
1.69407
1.6943
1.69492
1.69539
1.69144
1.68523
1.68364
1.68497
1.68936
1.6946
1.70559
1.71764
1.73159
1.74554
1.75979
1.77315
1.78546
1.79715
1.80848
1.8196
1.83087
1.84389
1.85819
1.8726
1.88484
1.8943
1.90584
1.91791
1.93052
1.94148
1.95212
1.96222
1.97186
1.98282
1.99248
1.99991
2.00575
2.0122
2.01311
2.01448
2.02212
2.02817
2.03064
2.02701
2.02423
2.01832
2.01381
2.00756
2.02183
0.195477
0.201299
0.201156
0.200541
0.200143
0.199849
0.19981
0.199835
0.199862
0.199916
0.199983
0.200015
0.20002
0.199947
0.199891
0.199803
0.199677
0.199437
0.199219
0.198943
0.198609
0.198212
0.197753
0.197261
0.196556
0.195806
0.195013
0.194357
0.193383
0.191922
0.190573
0.189217
0.187891
0.186597
0.185543
0.184368
0.182719
0.180637
0.178367
0.176535
0.174753
0.172993
0.171346
0.169789
0.168688
0.166655
0.163614
0.160242
0.157467
0.155178
0.153315
0.152394
0.151008
0.147854
0.145281
0.160221
0.784421
1.03343
1.04631
1.05918
1.0948
1.17815
1.36595
1.64568
1.78817
1.78976
1.75856
1.75349
1.72504
1.69405
1.68681
1.69041
1.69429
1.69355
1.68554
1.677
1.67669
1.67894
1.68316
1.68835
1.69704
1.70714
1.72117
1.73537
1.74944
1.76242
1.77529
1.78749
1.79866
1.80968
1.82073
1.83312
1.84649
1.86146
1.87394
1.88299
1.89597
1.90844
1.9204
1.93021
1.94122
1.95118
1.9612
1.97371
1.98493
1.99305
1.99966
2.00692
2.0095
2.01165
2.0197
2.02552
2.02739
2.02334
2.02032
2.01503
2.01011
2.00342
2.01804
0.202063
0.199433
0.199376
0.199259
0.199602
0.19974
0.199762
0.199798
0.19981
0.199869
0.199889
0.199912
0.199898
0.199841
0.199801
0.199717
0.1996
0.199392
0.199196
0.198974
0.19868
0.19833
0.198006
0.197542
0.196824
0.19617
0.195462
0.194889
0.193992
0.192825
0.191402
0.190059
0.188687
0.187295
0.185897
0.18482
0.183116
0.180891
0.178279
0.175991
0.173685
0.171403
0.169329
0.167571
0.16643
0.164394
0.161179
0.158579
0.156598
0.155025
0.153952
0.152782
0.151863
0.150441
0.151543
0.191434
0.942063
1.05266
1.07609
1.1029
1.18546
1.34858
1.59921
1.80221
1.81733
1.78337
1.75203
1.73631
1.71652
1.69312
1.6814
1.68287
1.6899
1.68702
1.6772
1.67021
1.6694
1.67135
1.67484
1.68074
1.68803
1.6979
1.71065
1.72487
1.73866
1.75235
1.765
1.77716
1.78863
1.79991
1.81112
1.82367
1.83605
1.85064
1.8635
1.87407
1.88695
1.89876
1.90938
1.9175
1.92763
1.93774
1.94889
1.96377
1.97642
1.98573
1.9936
2.00213
2.00635
2.00917
2.01737
2.02263
2.02359
2.01922
2.01622
2.01154
2.00664
1.99923
2.0146
0.197876
0.200728
0.200686
0.200338
0.200102
0.199915
0.199847
0.199811
0.199816
0.199863
0.199905
0.199927
0.199925
0.199868
0.199836
0.199753
0.199618
0.199389
0.199166
0.198891
0.19854
0.198148
0.197744
0.197262
0.196467
0.195652
0.194808
0.193951
0.193073
0.191806
0.190233
0.188709
0.187203
0.185724
0.184293
0.183212
0.181777
0.179892
0.177743
0.17591
0.17395
0.172331
0.170992
0.169807
0.168601
0.166671
0.164401
0.161248
0.157962
0.154899
0.150905
0.14711
0.14105
0.138507
0.150889
0.350592
1.02293
1.06776
1.09995
1.1769
1.32875
1.57427
1.76265
1.82014
1.80956
1.78907
1.74764
1.72452
1.71206
1.698
1.68558
1.68543
1.68648
1.6793
1.66861
1.66325
1.66266
1.66281
1.66397
1.66892
1.67624
1.68434
1.69654
1.7097
1.72212
1.73762
1.75082
1.76342
1.77503
1.7868
1.79863
1.81174
1.82419
1.83848
1.85158
1.86354
1.87808
1.88869
1.89811
1.90628
1.91444
1.92543
1.93938
1.95593
1.96904
1.97939
1.9881
1.99781
2.00346
2.00661
2.01458
2.01909
2.01906
2.01459
2.0119
2.00773
2.00293
1.99553
2.01143
0.200588
0.199668
0.199761
0.199781
0.199853
0.199917
0.19989
0.199873
0.199863
0.199898
0.199903
0.199914
0.199911
0.199853
0.19981
0.19972
0.199568
0.19938
0.19919
0.198962
0.19862
0.198266
0.197918
0.197482
0.196848
0.196117
0.195414
0.19472
0.194025
0.193058
0.191997
0.190664
0.189213
0.187813
0.186381
0.184888
0.183344
0.18175
0.180034
0.177989
0.174604
0.171762
0.168972
0.166315
0.163956
0.162013
0.159227
0.156339
0.153272
0.151055
0.148896
0.1484
0.148075
0.147503
0.167988
0.719036
1.02472
1.0937
1.16426
1.3396
1.5559
1.75762
1.8229
1.81348
1.79263
1.79123
1.76184
1.72341
1.71175
1.70468
1.6983
1.69124
1.68092
1.67026
1.66266
1.65886
1.65671
1.65497
1.6542
1.65924
1.6669
1.67403
1.68475
1.69728
1.70862
1.72447
1.73726
1.74897
1.7598
1.77207
1.78436
1.79794
1.81081
1.82501
1.83715
1.84885
1.86613
1.87619
1.88509
1.89446
1.90298
1.91483
1.93086
1.94855
1.96113
1.97294
1.98238
1.99364
2.00079
2.00406
2.01086
2.01444
2.01387
2.00961
2.00755
2.00385
1.99913
1.99192
2.00858
0.199174
0.200244
0.200333
0.200174
0.200048
0.19995
0.199885
0.19988
0.199852
0.199858
0.199868
0.199888
0.199874
0.19982
0.199775
0.199694
0.199547
0.199349
0.199136
0.198906
0.19854
0.198122
0.197658
0.197187
0.196463
0.195581
0.194659
0.193678
0.192638
0.191561
0.190042
0.188301
0.186563
0.184783
0.183016
0.181246
0.179537
0.17792
0.176759
0.174918
0.173023
0.171128
0.169769
0.16867
0.167829
0.16651
0.164676
0.16238
0.159674
0.156535
0.152079
0.145994
0.139416
0.138338
0.227781
0.9002
1.06026
1.15086
1.31163
1.56708
1.77331
1.84334
1.82954
1.79404
1.78111
1.77846
1.75065
1.71783
1.70622
1.70557
1.70062
1.68812
1.67349
1.66444
1.65858
1.65603
1.65057
1.6453
1.64357
1.64833
1.65642
1.66313
1.67216
1.6842
1.69402
1.7092
1.72119
1.73142
1.74197
1.75458
1.76753
1.78202
1.79597
1.8106
1.82202
1.8336
1.85107
1.8618
1.8719
1.88143
1.89193
1.90405
1.9211
1.93948
1.95163
1.96602
1.97666
1.98924
1.99819
2.00141
2.0061
2.00859
2.00834
2.00449
2.00293
1.99955
1.99513
1.98843
2.00579
0.200069
0.199847
0.199953
0.19994
0.199994
0.199997
0.199966
0.199926
0.199875
0.199875
0.199877
0.199887
0.199855
0.199815
0.199759
0.19967
0.199533
0.199351
0.199152
0.198937
0.198597
0.19819
0.197773
0.197384
0.196819
0.196067
0.19539
0.194721
0.19408
0.193349
0.192532
0.191579
0.190545
0.189533
0.18845
0.187334
0.186132
0.184758
0.183392
0.181677
0.179575
0.177426
0.17338
0.170366
0.167437
0.163973
0.160474
0.156959
0.15333
0.148859
0.143644
0.136552
0.134622
0.162036
0.653472
1.02732
1.13613
1.27369
1.5449
1.7586
1.83174
1.84895
1.8245
1.78859
1.77831
1.76841
1.7444
1.71423
1.704
1.7048
1.69717
1.68363
1.66764
1.65969
1.65715
1.65474
1.64646
1.63467
1.63132
1.63497
1.64274
1.64962
1.65825
1.67028
1.67922
1.69356
1.70542
1.71524
1.7254
1.73746
1.7503
1.7654
1.78005
1.79518
1.80724
1.81998
1.83593
1.84758
1.85952
1.86823
1.87957
1.89293
1.9105
1.92926
1.94195
1.95949
1.97217
1.98532
1.99472
1.99766
2.00037
2.00229
2.0027
1.99915
1.99785
1.99492
1.99105
1.98497
2.00261
0.199666
0.200032
0.200164
0.200118
0.200054
0.199986
0.19996
0.199925
0.199861
0.199862
0.199861
0.199866
0.199837
0.199795
0.199733
0.199645
0.199518
0.199321
0.199108
0.198888
0.198529
0.198061
0.197577
0.197062
0.196445
0.195539
0.194584
0.193536
0.192361
0.191231
0.189782
0.187843
0.185826
0.183686
0.181428
0.179125
0.176788
0.174401
0.171968
0.170068
0.168251
0.166143
0.164816
0.164062
0.163607
0.16292
0.162382
0.16136
0.160194
0.15907
0.156483
0.152205
0.153673
0.213365
0.9712
1.21681
1.37783
1.59567
1.78306
1.83875
1.82889
1.81551
1.78728
1.76358
1.75315
1.73625
1.71665
1.7018
1.69691
1.69849
1.69016
1.67513
1.66142
1.65592
1.65734
1.65146
1.64078
1.62303
1.6199
1.62245
1.62898
1.63532
1.64373
1.65421
1.6625
1.67694
1.68869
1.69866
1.70877
1.72044
1.73318
1.74864
1.76332
1.77841
1.7915
1.80612
1.82098
1.83346
1.84725
1.85533
1.86632
1.88129
1.89935
1.91817
1.93168
1.95273
1.96812
1.98115
1.98982
1.99274
1.99429
1.99592
1.99679
1.99329
1.99236
1.99013
1.98667
1.98118
1.99857
0.199925
0.199905
0.200017
0.200057
0.200061
0.200032
0.19999
0.199953
0.199907
0.199881
0.199866
0.199854
0.199826
0.199791
0.199729
0.199629
0.199509
0.199315
0.199101
0.198888
0.198557
0.198102
0.197659
0.197253
0.196726
0.196037
0.19535
0.194761
0.194187
0.193777
0.193338
0.192855
0.192441
0.192197
0.192099
0.192178
0.192339
0.192541
0.192512
0.192577
0.192046
0.191017
0.188992
0.18711
0.18429
0.181044
0.177203
0.17197
0.166626
0.159959
0.14824
0.140238
0.150653
0.680453
1.27446
1.44124
1.5765
1.72366
1.81928
1.8204
1.79747
1.78255
1.76363
1.74741
1.7381
1.72614
1.7087
1.69427
1.68907
1.68797
1.67836
1.66364
1.65389
1.65304
1.65392
1.64526
1.6311
1.61367
1.611
1.61148
1.61586
1.62134
1.62901
1.63776
1.6459
1.66065
1.67152
1.68238
1.69255
1.70354
1.71619
1.7317
1.74644
1.76107
1.77533
1.79059
1.8061
1.81905
1.83436
1.84214
1.85283
1.86876
1.88742
1.90653
1.92209
1.94656
1.96343
1.97549
1.98331
1.98678
1.98806
1.98952
1.9907
1.98733
1.98683
1.98539
1.9823
1.97671
1.99373
0.199836
0.199959
0.200069
0.200108
0.200087
0.200048
0.200011
0.199962
0.19992
0.199876
0.19986
0.199845
0.199812
0.19978
0.199713
0.199618
0.199498
0.199294
0.199061
0.198829
0.198496
0.198008
0.197519
0.196994
0.196419
0.195522
0.194562
0.193496
0.19226
0.191067
0.189525
0.187357
0.185041
0.182416
0.179437
0.176211
0.172547
0.168792
0.164741
0.160613
0.156644
0.153005
0.149904
0.146981
0.145939
0.144274
0.14437
0.144327
0.144882
0.14409
0.144886
0.151346
0.252723
1.2427
1.57424
1.7144
1.81761
1.8742
1.86384
1.83468
1.81546
1.78842
1.7627
1.74615
1.73174
1.71581
1.69819
1.68433
1.67944
1.67736
1.66649
1.65362
1.64689
1.64953
1.64402
1.63504
1.61878
1.60779
1.60364
1.60186
1.60358
1.60795
1.61494
1.62289
1.63067
1.64436
1.65442
1.66464
1.67455
1.685
1.69774
1.71349
1.72882
1.74309
1.75812
1.77333
1.78959
1.80372
1.81957
1.8278
1.83886
1.85478
1.87432
1.89442
1.91264
1.94032
1.95681
1.96779
1.97556
1.98027
1.98199
1.9831
1.9846
1.98172
1.98144
1.98065
1.97774
1.97144
1.98792
0.199887
0.199904
0.20001
0.200092
0.200095
0.200077
0.200035
0.19998
0.199934
0.199896
0.199868
0.199842
0.19981
0.199768
0.199694
0.199616
0.199496
0.199288
0.19905
0.198805
0.198495
0.198022
0.19757
0.197138
0.196644
0.195958
0.195291
0.194721
0.194276
0.193992
0.193848
0.193772
0.194057
0.194816
0.196068
0.197852
0.200116
0.202902
0.206025
0.209523
0.212748
0.216127
0.218944
0.220544
0.221987
0.222111
0.220545
0.217691
0.216462
0.214857
0.214956
0.211437
1.06261
1.52243
1.69849
1.77525
1.81502
1.81128
1.79032
1.77908
1.77104
1.75752
1.739
1.72694
1.71409
1.70054
1.68405
1.67147
1.66557
1.66168
1.65018
1.63745
1.63176
1.63386
1.62799
1.61875
1.60357
1.59854
1.59596
1.59407
1.59225
1.59545
1.60149
1.60981
1.61724
1.6277
1.63573
1.64574
1.656
1.66604
1.67958
1.69525
1.71073
1.72514
1.74055
1.75514
1.77215
1.78817
1.8041
1.81331
1.825
1.84106
1.86135
1.88266
1.90246
1.93213
1.94779
1.95856
1.96705
1.97353
1.97623
1.97682
1.97844
1.97645
1.97613
1.97572
1.97261
1.9653
1.98139
0.199833
0.199933
0.200037
0.200106
0.200107
0.20009
0.200067
0.20002
0.199958
0.199895
0.199865
0.199845
0.199803
0.199755
0.199678
0.199603
0.199486
0.199281
0.19903
0.19876
0.198445
0.197954
0.197457
0.196934
0.196405
0.195537
0.194521
0.193452
0.192248
0.190945
0.18936
0.187085
0.184464
0.181421
0.177693
0.173415
0.168261
0.162556
0.156167
0.149344
0.141977
0.134564
0.127221
0.119844
0.114179
0.111989
0.111205
0.111967
0.114334
0.115963
0.124075
0.215393
0.774589
1.68671
1.77506
1.84751
1.86508
1.87193
1.84936
1.82932
1.8089
1.79278
1.77364
1.75218
1.73453
1.7174
1.69872
1.68088
1.6694
1.6562
1.63966
1.62375
1.61719
1.6189
1.6139
1.60211
1.59129
1.5893
1.58593
1.58422
1.58057
1.5824
1.58809
1.5965
1.60287
1.61087
1.6164
1.62695
1.63787
1.64766
1.66116
1.67606
1.69142
1.70709
1.72327
1.73713
1.75419
1.77122
1.78789
1.79889
1.81166
1.82751
1.84761
1.86967
1.89089
1.92213
1.93745
1.94856
1.95826
1.96661
1.97082
1.97112
1.97292
1.97183
1.97123
1.97041
1.96668
1.95816
1.97432
0.199862
0.199937
0.199998
0.200077
0.20011
0.200107
0.200082
0.200033
0.199979
0.199906
0.199871
0.199841
0.199803
0.199741
0.199672
0.199596
0.199483
0.199284
0.199034
0.198737
0.198412
0.197965
0.197466
0.196974
0.19655
0.195877
0.195049
0.194424
0.193953
0.193654