/*--------------------------------*- C++ -*----------------------------------*\
| =========                 |                                                 |
| \\      /  F ield         | OpenFOAM: The Open Source CFD Toolbox           |
|  \\    /   O peration     | Version:  2.2.x                                 |
|   \\  /    A nd           | Web:      www.OpenFOAM.org                      |
|    \\/     M anipulation  |                                                 |
\*---------------------------------------------------------------------------*/
FoamFile
{
    version     2.0;
    format      ascii;
    class       volScalarField;
    location    "0.45";
    object      pB;
}
// * * * * * * * * * * * * * * * * * * * * * * * * * * * * * * * * * * * * * //

dimensions      [1 1 -3 0 0 -1 0];

internalField   nonuniform List<scalar> 
14161
(
-0.00216851
0.00187615
0.000319301
-8.03625e-05
-0.000194572
-0.000164289
4.1881e-05
4.3909e-06
9.05744e-05
0.000123511
0.000108401
8.28016e-05
1.01994e-05
-2.2597e-05
-5.43302e-05
-8.52576e-05
-8.41352e-05
-0.000139236
-0.000142712
-0.000146058
-0.000162592
-0.000204898
-0.000235483
-0.000337487
-0.000408291
-0.000486126
-0.000614202
-0.000688588
-0.000827431
-0.000901558
-0.000981825
-0.00096278
-0.00104541
-0.00118251
-0.00125317
-0.00127472
-0.00136634
-0.00143656
-0.0014594
-0.00167763
-0.00173963
-0.00164554
-0.00158302
-0.00167231
-0.00181658
-0.00198633
-0.00219632
-0.00210513
-0.00157733
-0.000991352
-0.00075
-0.000780482
-0.0011942
-0.00193508
-0.00153
-0.000870203
0.00667055
0.00245509
0.0378795
0.0529308
0.00508707
0.024008
-0.0110403
0.00290139
0.00117221
0.00368201
0.00560299
-0.00102271
-0.00876942
-0.00497372
-0.00672675
-0.00488678
-0.00590241
-0.00575666
-0.00519754
-0.00244991
4.64785e-05
0.00557218
0.0022923
-0.000457909
0.000444024
-0.00175049
-0.00310214
-0.00304162
0.00451247
0.00432594
0.0053774
0.00540249
0.00257586
0.00377948
0.000258342
0.000364128
-0.000591278
8.49566e-05
-0.00083415
5.84727e-07
2.29483e-05
0.000187783
-6.85881e-05
0.000540617
0.000303715
-0.000238354
-0.000251548
0.00110057
-8.73961e-05
0.0013198
-0.000454585
0.000895213
-0.00144509
0.00141637
-0.00224104
0.00226425
-0.00318664
0.00316514
-0.00406695
0.00405648
-0.00447813
0.00454245
-0.00448445
0.00748488
-0.00621612
-0.000808097
0.000108482
0.000570281
0.000290031
-1.60631e-05
-0.000203499
-0.000262201
-0.000382436
-0.000379302
-0.000270993
-0.000163951
-3.77444e-05
-1.80786e-05
1.91999e-05
2.5954e-05
6.10774e-06
-9.03948e-05
-0.000164451
-0.000279837
-0.000422483
-0.000459424
-0.000539236
-0.000546871
-0.000502875
-0.00050005
-0.000551733
-0.000614433
-0.000754687
-0.000934178
-0.00108702
-0.00135298
-0.00151795
-0.00162547
-0.00186074
-0.00186215
-0.00186654
-0.00178276
-0.00179765
-0.00172695
-0.00183091
-0.00203824
-0.00193195
-0.00155398
-0.00119373
-0.000849739
-0.000735939
-0.000518998
-0.000418531
-0.000418018
1.82641e-05
2.49212e-06
-0.00108212
-0.00391076
-0.00823096
0.00127805
-0.018966
0.075801
0.0177067
0.0268127
-0.0125361
-0.00787024
-0.00888875
-0.00321879
-0.000178364
-0.000618215
0.000183422
0.000321335
0.00746919
0.00587166
0.00250699
0.00443866
0.00341053
0.00394955
0.00258663
0.00325468
0.00614825
-0.00254339
0.0045684
0.00177397
0.000665956
-0.00171371
0.000257198
-0.00131573
-0.00307632
-0.00524785
-0.00426087
-0.00466005
-0.00113261
0.000205169
0.000341702
0.000415184
0.000700256
0.000684482
0.000541528
4.77668e-05
0.000558294
0.000347652
0.000771499
-0.000518716
0.000539353
-0.00057415
0.000309679
-0.00034365
0.00037768
-0.000787467
0.00127818
-0.000811469
0.00165496
-0.00193648
0.00228499
-0.00309536
0.00302439
-0.00407076
0.00402087
-0.00465589
0.00446523
-0.00455888
-0.0113376
0.00969686
0.00104885
-0.000123006
-0.000982383
-0.000550232
4.3192e-05
0.000246989
0.000368758
0.000580658
0.000612374
0.000411262
0.000157393
-2.50034e-06
-9.50207e-05
-0.000140765
-0.000224182
-0.000244036
-0.000207694
-0.00011331
-4.174e-05
-6.78824e-06
-2.51133e-05
-0.000134552
-0.000294936
-0.000476972
-0.000681226
-0.000901614
-0.000980531
-0.00105967
-0.000999384
-0.000888014
-0.000825641
-0.000803022
-0.000767362
-0.000809961
-0.000925949
-0.00107558
-0.00123029
-0.00140435
-0.00153355
-0.00157406
-0.00152138
-0.00157895
-0.00170277
-0.00221617
-0.00252318
-0.00281307
-0.00279896
-0.00274065
-0.00269657
-0.00322889
-0.00403884
-0.00284022
-0.000741247
0.000425077
0.00295317
-0.0244026
0.0924308
0.0445869
0.021063
0.013759
2.60813e-05
-0.00242595
-0.00129846
-0.00253582
-0.000618817
-0.00704909
-0.00481904
-0.00324733
-0.00340984
-0.00178877
-0.00512685
-0.00199503
-6.11836e-07
0.000156496
-0.000173642
0.0061456
-0.000213275
0.00354204
9.4358e-05
0.00101392
-0.00270523
-0.00399588
-0.00129443
0.00148642
0.00196763
0.00207449
0.00259147
0.0019906
0.00219082
0.00102399
-3.12215e-05
-0.000352463
-0.000392105
2.53462e-05
-0.000454715
0.000115497
1.95073e-05
0.000897611
-0.000169428
0.000942011
-0.000281759
0.00136698
-0.000341693
0.00102466
-0.000683433
0.000921118
-0.00141444
0.00131915
-0.00199459
0.00238562
-0.00274337
0.00314124
-0.00367471
0.0039536
-0.00441247
0.0043986
-0.00457916
0.0163892
-0.0138184
-0.00158114
0.000172803
0.0012633
0.000739702
-3.55956e-05
-0.000384237
-0.000517864
-0.000775182
-0.000829102
-0.000616568
-0.000318531
-7.74683e-05
-1.01043e-06
8.0013e-05
0.000118178
9.05181e-05
-1.709e-05
-0.00019668
-0.00040128
-0.000511937
-0.000737823
-0.000710699
-0.0006387
-0.000547126
-0.000447795
-0.000411065
-0.00043275
-0.000570682
-0.000845957
-0.00123553
-0.00150206
-0.00184177
-0.00212394
-0.00220188
-0.00232548
-0.00228176
-0.00215774
-0.00205932
-0.00202311
-0.00203619
-0.00208001
-0.00210389
-0.00179667
-0.00155084
-0.001113
-0.000770378
-0.000330237
-0.000209168
2.64519e-05
-3.04883e-07
-0.000189765
-0.00196887
-0.00445259
-0.00969898
-0.0110047
-0.0126784
0.0160415
0.0561245
0.0447982
-0.00883959
-0.00495216
-0.00553202
0.00828459
-0.00264976
0.00412601
-0.00287482
-0.00126768
0.00224777
-0.00206918
-0.000431773
0.00271097
-0.00136566
-8.45546e-05
-0.00126448
0.00316541
-0.00110116
-0.00229229
0.00491888
0.00357593
0.00684236
0.00512271
0.00567833
0.00181133
0.00113623
-0.00236009
0.000642336
-0.00182255
-0.00288984
-0.000415958
-0.000600813
-0.000619777
-0.000386236
-0.000480323
-0.000592739
-0.00102657
-0.00130764
-0.000645129
-0.00117447
-0.00144731
-0.000474015
-0.00159548
-0.000294512
-0.00166651
-4.85107e-06
-0.00153474
0.000669801
-0.00140541
0.00120194
-0.00211094
0.00181513
-0.00315863
0.00285778
-0.00397521
0.00366591
-0.00475216
0.00441778
-0.00491035
-0.0192702
0.016378
0.00175955
-0.000138655
-0.00150999
-0.001016
7.23519e-05
0.000300922
0.000589509
0.000908763
0.000973647
0.000729093
0.00035693
4.94456e-05
-7.15554e-05
-0.000165695
-0.000307374
-0.000360294
-0.000271505
-6.58131e-05
4.3584e-05
0.000137029
0.000122743
4.5488e-06
-0.000134562
-0.000440294
-0.000679927
-0.000931913
-0.0011665
-0.0012277
-0.00108366
-0.000909636
-0.000696947
-0.000553526
-0.000466297
-0.000451668
-0.000520666
-0.000677916
-0.000936557
-0.00123373
-0.00135777
-0.00145146
-0.00152586
-0.00158924
-0.00167518
-0.00184516
-0.00205161
-0.00250419
-0.00316926
-0.00367172
-0.00415897
-0.00462127
-0.00359613
-0.00156789
-0.000532788
0.000350527
-0.00209183
0.00846717
-0.018665
0.166498
-0.0218093
-0.012888
-0.0157779
-0.000391344
-0.0114879
-0.0037478
-0.00247595
-0.00685275
-8.75709e-05
-0.00386165
-0.000919525
-0.00164472
-0.00338446
0.000953321
-0.00407021
0.0038221
-0.00313436
0.00312469
-0.00745335
0.0036837
-0.00232756
0.00651599
0.00436725
0.00573168
0.00535265
0.00386986
0.00333342
0.00313137
0.00328889
0.00160655
0.00120468
0.00158228
0.00128203
0.00111444
0.000936115
0.000411654
0.00103664
0.00057184
0.00170018
0.00137913
0.00119675
0.00115691
0.000405592
0.00124142
-0.000219332
0.00111253
-0.000681856
0.00105161
-0.000966352
0.00137741
-0.00147895
0.00215878
-0.00228886
0.00285381
-0.00317499
0.00338706
-0.00400078
0.00391975
-0.00493299
0.023924
-0.0199225
-0.0023686
0.000133486
0.00162512
0.0011552
-7.39053e-06
-0.000355758
-0.000675655
-0.00102621
-0.00108976
-0.000878839
-0.000523776
-0.000196708
-3.31077e-05
8.26258e-05
0.000149978
0.000147917
7.15797e-06
-0.000189615
-0.000464018
-0.000663775
-0.000826831
-0.000892165
-0.000818739
-0.000659396
-0.000474717
-0.000360544
-0.000361543
-0.000478611
-0.000771425
-0.00117665
-0.00159492
-0.00200733
-0.00231285
-0.0025634
-0.00267445
-0.00270215
-0.00265458
-0.00246511
-0.00226172
-0.00214572
-0.0021482
-0.00240287
-0.00224962
-0.00190331
-0.00145745
-0.00121612
-0.00101692
-0.000926106
-0.00099583
-0.00139498
-0.00190468
-0.00163526
-0.00219323
-0.00116729
-0.00103556
0.0137007
0.00366014
0.095537
0.0789173
-0.0268132
-0.00505387
-0.00992129
-0.00533268
-0.0066274
-0.00844918
-0.00372583
-0.00550048
-0.00176593
0.00206332
-0.00114982
-0.00116914
-0.00375567
0.00138208
-0.00176527
-0.000247585
-0.00154968
-0.00420101
0.0106978
-0.00131241
0.00144555
0.00105594
-0.00206298
-0.00226762
-0.00222972
-0.00437176
-0.00240544
-0.00312496
-0.0029294
-0.00313415
-0.00173813
-0.00166882
-0.00100261
-0.00181189
-0.00209823
-0.00137723
-0.00259536
-0.00157861
-0.00284303
-0.00228648
-0.00123961
-0.00170921
-0.000305536
-0.0012352
0.000290054
-0.00163894
0.000563646
-0.00161656
0.000801094
-0.00204119
0.00152466
-0.00288847
0.00234661
-0.00351475
0.00307053
-0.00419283
0.00389016
-0.00440768
-0.0252944
0.0210264
0.00257055
-7.0909e-05
-0.00169968
-0.00131559
-6.88468e-05
0.000306277
0.000674192
0.00104505
0.00111794
0.000940103
0.000568493
0.000209781
-1.33105e-05
-0.000115088
-0.000272614
-0.000343336
-0.000259737
-8.51431e-05
6.88218e-05
0.000189909
0.000257153
0.000184845
-4.87388e-05
-0.000241573
-0.000593238
-0.000923133
-0.00115587
-0.00127722
-0.00120819
-0.00103286
-0.000744446
-0.000518199
-0.000412058
-0.000402622
-0.000465527
-0.000578371
-0.000730189
-0.000940523
-0.00122204
-0.00154072
-0.00164555
-0.00166986
-0.00182738
-0.00203424
-0.00207427
-0.00214713
-0.00201929
-0.00171631
-0.00140127
-0.0012162
-0.00148143
-0.00196189
-0.00215673
5.73932e-05
0.00304571
0.0139025
0.012246
0.0702695
0.0567781
-0.0414508
-0.0111631
-0.0053393
-0.0122842
-0.001182
-0.00939316
0.000901794
-0.00455357
-0.000408732
-0.00446182
-0.00255515
0.000585507
-0.00309355
0.000863181
-0.00122435
0.000103652
0.00410231
-0.00594074
0.0076462
0.00374104
0.00397647
0.00707996
0.00864017
0.00858879
0.00652329
0.00564525
0.00570547
0.00371887
0.00268315
0.00203172
0.00278317
0.00198008
0.00197748
0.00125875
0.00188417
0.00204331
0.00184671
0.00272144
0.00219637
0.00130348
0.00196904
0.000705657
0.00136379
-5.71655e-06
0.0012414
-0.000466881
0.00142722
-0.000986272
0.00128984
-0.00133596
0.00177673
-0.00209986
0.00264634
-0.00273318
0.0030486
-0.00374726
0.00382558
-0.00438972
0.0285657
-0.0232089
-0.00315132
1.9738e-05
0.00159745
0.0013121
0.000143229
-0.000284536
-0.000705218
-0.00104002
-0.00115039
-0.00102011
-0.000710437
-0.000400673
-0.000153337
-1.8153e-06
4.69782e-05
8.9581e-05
-9.66326e-06
-0.000213822
-0.000434341
-0.00069494
-0.000914249
-0.00103928
-0.000999644
-0.000810205
-0.000625759
-0.000509592
-0.000441132
-0.000539414
-0.000712275
-0.0010909
-0.00152289
-0.00197173
-0.0022799
-0.00252921
-0.00269371
-0.00278502
-0.00290039
-0.00279721
-0.00255779
-0.00258468
-0.00236291
-0.00229061
-0.00197517
-0.00184937
-0.00186434
-0.00183166
-0.00182299
-0.00179184
-0.00171787
-0.00159476
-0.00150239
-0.00115453
-0.00149033
-0.00175123
-0.00533316
0.00289851
-0.0440623
0.150112
0.109228
-0.0449816
0.0158996
-0.011295
-0.000735125
-4.23456e-05
-0.00449169
0.00219494
-0.00436397
-0.000634761
-0.00157104
-0.00138969
0.000166703
0.000886822
0.000392317
0.00339064
0.00124592
-0.00191037
0.0064351
0.00349488
0.0028523
2.7936e-05
0.00150453
0.00345297
-0.000341011
-0.00286808
-0.00284177
-0.00295888
-0.00254558
-0.00203901
-0.000609406
0.000333777
-0.000621298
0.000617471
-0.000945093
-2.45678e-05
-0.000577255
-0.000775854
-0.00098699
-0.0012275
-0.00197423
-0.000618719
-0.000978152
0.000129029
-0.000917869
0.000365521
-0.000858846
0.000995231
-0.00124768
0.0010092
-0.00155205
0.00139307
-0.00233975
0.00209034
-0.00282951
0.00259868
-0.00384922
0.00366815
-0.00419963
-0.0283635
0.0227945
0.00335462
5.22465e-05
-0.00149398
-0.00129933
-0.000214215
0.000242782
0.000636793
0.000975759
0.00107854
0.00100093
0.000744936
0.000422367
0.000150296
-2.92708e-05
-0.000134576
-0.000222828
-0.00019948
-9.93208e-05
4.93865e-05
0.000218862
0.000308592
0.000245203
2.38594e-05
-0.000124663
-0.000506353
-0.00074202
-0.000990158
-0.00112912
-0.00123457
-0.0011373
-0.000952904
-0.000817891
-0.000701675
-0.00069032
-0.000818011
-0.000935414
-0.00104002
-0.000862692
-0.00153011
-0.0014274
-0.00167146
-0.00196843
-0.00215103
-0.00253087
-0.00271825
-0.00261689
-0.00226594
-0.00196018
-0.00164714
-0.00156107
-0.00186746
-0.00319218
-0.00630304
-0.00863084
-0.010086
-0.00460759
-0.00823124
0.112475
0.0463037
-0.0174082
-0.0139454
-0.01069
-0.00137303
-0.0150078
-0.00298876
-0.00187947
-0.00720303
-0.00601506
-0.00286886
-0.00131625
-0.00180392
6.6669e-05
-0.000720112
0.00247746
0.000301353
0.0119926
0.00132019
0.00778057
-0.000946747
0.00286035
-0.000661644
0.00393051
0.00368886
0.00359009
0.00312425
0.00442025
0.0034195
0.00193165
0.000901009
0.000934387
0.000551041
0.00136131
0.000103216
0.00121243
-0.000295261
0.000459892
-0.000222755
0.00112921
-0.000286382
0.00103675
-0.000135675
0.000462529
-0.000391124
0.000686259
-0.000783861
0.00098548
-0.00130813
0.00102878
-0.00157429
0.00138812
-0.00190813
0.0020113
-0.00249468
0.00243498
-0.00325118
0.00348034
-0.00384262
0.0291869
-0.0230685
-0.00379652
-0.000163224
0.00124193
0.00118655
0.000262344
-0.000195447
-0.000627137
-0.000907973
-0.00103432
-0.000990432
-0.000820579
-0.000582287
-0.000328911
-0.000167906
-5.10627e-05
-8.07836e-06
-8.01752e-05
-0.000218221
-0.000411905
-0.000657489
-0.000886368
-0.0010149
-0.00101067
-0.000906954
-0.000785918
-0.000686985
-0.000651326
-0.000700546
-0.000743639
-0.00103717
-0.00132081
-0.00173244
-0.00205749
-0.00218874
-0.00217091
-0.00250904
-0.00264562
-0.00310906
-0.00288859
-0.00280974
-0.002743
-0.00254325
-0.00236614
-0.00222366
-0.00231431
-0.00234629
-0.00251077
-0.00259487
-0.00287332
-0.00292206
-0.00295852
-0.00296414
-0.00320322
-0.00181854
-0.000848942
0.00172405
0.00582274
0.0674831
0.0541297
0.00798629
0.0147321
-0.00829815
0.00381925
0.00190524
-0.00166935
-0.00202519
0.00553124
-0.00482482
-0.00302413
0.00353635
-0.00300604
0.00171718
-0.00334444
0.0151875
-0.000585714
0.00109423
0.00420982
-0.000952041
0.00690658
0.00124577
0.0036563
0.00614513
0.00249756
0.00209594
0.000380617
0.000768014
-0.000714175
0.00169533
0.00185097
0.00131941
0.000954937
0.000612884
4.54927e-05
0.000860919
-0.000525194
0.00123215
-0.000609104
0.00059277
-0.000419469
0.000340544
-0.000362563
0.000378982
-0.000471705
0.000443541
-0.000916936
0.000823225
-0.00110304
0.00116932
-0.00125136
0.0011891
-0.00180852
0.00174454
-0.00260215
0.00216394
-0.00330946
0.00295806
-0.00362117
-0.0274912
0.0213991
0.00397651
0.000278485
-0.00101219
-0.00110706
-0.000265227
0.000147886
0.000523581
0.000805323
0.000915297
0.000908197
0.000773354
0.000533875
0.000302141
8.57284e-05
-6.09433e-05
-0.000132875
-0.000152166
-0.000104022
-8.70057e-06
0.000110907
0.00017654
0.000161329
1.00939e-05
-0.000195885
-0.00050497
-0.000750357
-0.000818329
-0.000913647
-0.00107992
-0.00115148
-0.00124261
-0.00118924
-0.00116419
-0.00127272
-0.00153455
-0.00146954
-0.00141673
-0.00150339
-0.00170452
-0.00194662
-0.00225463
-0.00241608
-0.0028314
-0.00291314
-0.0029321
-0.00300649
-0.00297268
-0.0029482
-0.00297208
-0.00294007
-0.00283827
-0.00273049
-0.00267682
-0.00359945
-0.00211392
-0.0164996
0.0674394
0.0528341
0.0128704
0.0161386
0.00574961
0.00469935
-0.00748471
-0.00822614
0.000470748
-0.017005
0.00856767
-0.00424015
-0.00470859
0.0117608
0.00144207
0.0144206
0.00324096
0.00790514
0.00750978
0.00798457
0.00251999
0.00372966
0.000457457
0.00220055
-0.000207215
0.00137804
-0.00177327
-0.000908201
0.000584584
0.000689205
0.000951697
0.000253113
0.000526383
-6.79191e-05
0.000253419
1.68698e-05
-0.000135187
0.000153427
0.000569436
0.000490169
-0.000382254
0.000150922
-0.000140178
-0.000445785
-0.000414179
0.000327076
-0.000230864
0.000646967
-0.000623722
0.000866458
-0.00109689
0.000885315
-0.00126348
0.00117936
-0.00181383
0.00142464
-0.00187387
0.00173617
-0.0023413
0.00250504
-0.00286927
0.0256076
-0.0198387
-0.00400688
-0.000408986
0.000727941
0.000957596
0.00025946
-9.10396e-05
-0.000480614
-0.000691561
-0.000787543
-0.000803395
-0.000745014
-0.000595517
-0.000406261
-0.000257945
-0.000115613
-4.43164e-05
-8.26279e-05
-0.000187786
-0.000336053
-0.000485399
-0.00068938
-0.000821663
-0.000949537
-0.000900416
-0.000690147
-0.000756124
-0.000865489
-0.000902598
-0.00114802
-0.00122866
-0.00138828
-0.00161246
-0.00182047
-0.00203386
-0.00219613
-0.00229519
-0.00246774
-0.00252155
-0.00273526
-0.00275527
-0.0027629
-0.00279892
-0.00257675
-0.00264173
-0.00289361
-0.00293818
-0.00315338
-0.00330299
-0.00354573
-0.00389636
-0.004817
-0.00509977
-0.00601422
-0.00657802
-0.00138086
-0.0166207
0.11088
0.0118302
-0.00247289
-0.00897393
0.00963183
0.00461311
0.0162703
-0.00405259
0.002239
-0.000536753
-0.0030208
0.0251223
-0.00518092
0.0161135
0.00995729
0.00517218
0.0035122
-0.000548287
0.000295942
-0.000891077
-0.000324136
-0.00132651
0.000655808
-0.000357175
0.000688449
0.000863951
0.00144831
0.00143996
0.000341868
0.000748283
0.000605593
0.000798047
0.00052196
0.000198884
-0.000117808
7.01704e-05
-0.000415808
-0.00057063
0.000666355
-0.0010828
0.000211018
0.000399188
0.000153241
0.000642533
-0.000312927
0.000356105
-0.000406402
0.000292323
-0.00080947
0.000667014
-0.000957449
0.00082849
-0.00105785
0.00104409
-0.00144789
0.00136008
-0.00185669
0.00152347
-0.00209202
0.00176075
-0.00246253
-0.0227856
0.0174088
0.00397771
0.000463453
-0.000506711
-0.000831365
-0.000240581
9.30563e-05
0.000370171
0.000564936
0.000642607
0.00062968
0.000603458
0.000460201
0.000305023
0.000141614
-9.31025e-05
-0.000162485
-0.00014738
-0.000147972
-0.000136154
-0.000113889
-2.82056e-05
-7.02697e-05
-8.54126e-05
-2.24075e-05
-0.000488022
-0.000693306
-0.000837595
-0.00104508
-0.00121065
-0.00135851
-0.00141908
-0.00146279
-0.00152404
-0.00161284
-0.00177838
-0.00192704
-0.00204079
-0.00217772
-0.00235595
-0.00253412
-0.00274952
-0.00293189
-0.00313528
-0.00324919
-0.00330897
-0.00341289
-0.00363116
-0.00402756
-0.00443452
-0.0043574
-0.0039536
-0.00384255
-0.00297737
-0.0026859
-0.000528854
0.00816664
0.0771684
0.00732177
0.00160661
0.00416902
0.00331545
0.0128802
0.00529363
0.00697715
0.000854749
0.00936841
0.0244017
-0.0162061
0.00452303
0.000791904
0.00161418
-0.000669234
-0.000646334
-0.000879168
0.000962707
-0.000580045
0.000148961
0.000717141
-0.00014059
0.000111312
0.000212738
0.000937106
0.000431743
-0.000172047
-0.000487628
0.000314318
-0.000662005
-0.000766681
-0.00159082
-0.000879704
-0.000555431
0.000127212
-0.000220212
-0.000336279
0.000658049
-0.000668936
-0.00044006
-0.000539394
-0.00116952
-0.000215051
-0.000938831
0.000135211
-0.000305804
0.000706039
-0.000339295
0.000849354
-0.00082363
0.000856917
-0.000979138
0.000837
-0.0013426
0.000888009
-0.00152085
0.00108922
-0.00163105
0.00158151
-0.00183393
0.0191635
-0.014772
-0.00357527
-0.000541152
0.000268217
0.000750779
0.000204715
-7.4165e-06
-0.000292449
-0.000433681
-0.000463831
-0.000474935
-0.000525105
-0.000366662
-0.000375441
-0.00026992
-9.17501e-05
-6.37008e-05
-0.000113293
-0.000186968
-0.000252712
-0.000315444
-0.000515956
-0.000634006
-0.000700451
-0.000700066
-0.00073121
-0.000795844
-0.000894502
-0.00098349
-0.00102467
-0.0011887
-0.00138132
-0.0015751
-0.00181713
-0.00196984
-0.00215128
-0.00234357
-0.00250483
-0.00265881
-0.0027847
-0.00290509
-0.00301814
-0.00313052
-0.00319313
-0.0033153
-0.003763
-0.00407605
-0.00421849
-0.00387002
-0.00358097
-0.00346416
-0.00362288
-0.00418046
-0.00459832
-0.00212141
-0.0131602
0.0541494
0.0374717
-0.00221191
-0.00242299
-0.0102796
-0.00427518
0.00383525
0.00966254
0.00508274
0.0253875
0.0144227
0.003378
0.00529282
-0.00017591
0.001125
-0.00133341
0.00130128
-0.000309159
0.00017708
-0.00236546
-0.00185543
0.000256874
-0.00296701
-0.00105437
-0.00088297
-0.000547373
0.0016671
0.000604566
0.000283406
0.000877536
0.00141063
0.000594004
0.00048273
0.000633226
0.000669663
0.000465828
-0.000112427
-0.000184443
-0.00150159
-0.00021839
-7.12836e-05
-0.000258238
0.000590742
-6.78272e-05
0.000689094
-0.000167332
0.000786096
-6.0414e-05
0.000322382
-0.000744851
0.000380752
-0.000855501
0.000724938
-0.000802551
0.000918285
-0.00122113
0.00102949
-0.00110205
0.000945002
-0.00122636
0.00106588
-0.0015559
-0.0160312
0.012255
0.00327169
0.000500574
-0.000304946
-0.000533229
-0.000237301
6.84588e-05
0.000181497
0.000328234
0.000367762
0.000273508
0.000343195
0.000193678
0.000190941
0.000107394
-4.80964e-05
-0.000121364
-0.000190917
-0.000207422
-0.000218043
-0.000235576
-0.000252918
-0.000289451
-0.000346302
-0.000393831
-0.000607204
-0.000721161
-0.000869638
-0.00107949
-0.00122729
-0.00128409
-0.00149335
-0.00167026
-0.00181398
-0.00189516
-0.00200078
-0.00214808
-0.0023778
-0.00255391
-0.0027441
-0.00290014
-0.00306626
-0.00323315
-0.00338954
-0.00350851
-0.00350817
-0.0036403
-0.00382699
-0.00416577
-0.00470419
-0.00549036
-0.00595505
-0.00670249
-0.00788077
-0.00493892
-0.0263483
0.12502
0.0165304
-0.0139415
-0.00478868
-0.00667941
-0.00402028
0.00645334
0.00922361
0.00582156
0.00705882
0.0120338
-0.00201449
-0.000543754
-0.00186963
-0.00179443
-0.00186395
-0.000893391
-0.00109597
-0.000436123
-0.000814166
-0.000951707
0.000664317
0.000595979
0.00177784
-0.00103877
0.000695421
-0.000724735
-0.00126538
-0.000916598
-0.00019753
-0.000810316
-0.000140409
-0.000290383
9.74525e-05
-2.32859e-05
0.000335736
0.000173622
0.000463827
0.000171691
0.000813951
0.000683099
0.000417419
0.000512657
-3.11724e-05
0.000489913
-0.00063552
-4.59897e-06
-0.0004433
0.000244005
-0.000236784
0.000622016
-0.000652807
0.000631044
-0.000800124
0.000652453
-0.00109285
0.000706798
-0.00105836
0.000732681
-0.00105718
0.000860625
-0.00127094
0.0121646
-0.00948037
-0.00261777
-0.000518515
0.000217994
0.000414719
0.000220028
3.14272e-05
-9.09522e-05
-0.000179697
-0.000274516
-0.000195501
-0.000228556
-0.000218668
-0.00019817
-0.000150619
-0.00010909
-7.88275e-05
-8.78362e-05
-0.000130621
-0.000188577
-0.000251722
-0.000345701
-0.000448201
-0.000513146
-0.000616618
-0.00067335
-0.0007509
-0.000823683
-0.00100994
-0.00110364
-0.00125593
-0.00143354
-0.00165361
-0.00185748
-0.0021245
-0.00234271
-0.00248968
-0.00262816
-0.00282536
-0.0029822
-0.00318394
-0.00332142
-0.00351079
-0.00367026
-0.00389046
-0.00422221
-0.0045739
-0.00485352
-0.00514185
-0.00507034
-0.00520989
-0.00540437
-0.00402645
-0.00443172
-0.000827117
-0.000390745
0.0756991
0.0125318
0.000219934
-0.000992064
-0.00443737
-0.00160061
0.00734391
0.0154956
0.015998
0.00797893
0.00261495
-0.00112617
0.00115499
-0.00183235
0.000371298
-0.000381817
-0.000479359
-4.86267e-05
-0.000431332
-0.00146698
0.00123226
-0.000613447
-0.000813058
-0.000353015
-0.00163574
0.000622029
-0.000134838
0.000297315
-7.35605e-05
0.000124893
-0.000283574
6.98283e-06
0.000408235
-0.000359882
-0.000573594
0.000249219
-8.34692e-05
3.47058e-05
-0.000408742
3.52314e-05
-1.20686e-05
-0.000184343
-8.44833e-05
-0.000455979
-0.000255961
-0.000325883
0.000260314
-0.000240852
0.000236819
-0.000432048
0.000236949
-0.000741141
0.00054459
-0.000650222
0.000539106
-0.000780371
0.000572361
-0.000772397
0.000683317
-0.000824516
0.000666368
-0.00114172
-0.00956229
0.00741482
0.00221886
0.000472439
-3.55339e-05
-0.000457156
-0.000164335
-8.95676e-06
2.72865e-05
4.69285e-05
0.00010013
0.000129433
0.000114394
9.26007e-05
5.2557e-05
2.24776e-05
-5.20804e-05
-0.000107618
-0.000155964
-0.000216697
-0.000255685
-0.000291895
-0.000337362
-0.00041841
-0.000488986
-0.000612268
-0.000701257
-0.000843105
-0.00102982
-0.00113908
-0.00126747
-0.00145734
-0.00151623
-0.00165706
-0.00179253
-0.00191941
-0.00202219
-0.00220326
-0.00244852
-0.00263438
-0.00284377
-0.00301734
-0.00325165
-0.00350206
-0.0036915
-0.00390845
-0.00412517
-0.0044144
-0.00436601
-0.00420975
-0.00366651
-0.00384862
-0.00382473
-0.00382059
-0.00310093
-0.010341
0.0457645
0.0412835
0.00219154
-0.00100392
5.30034e-06
-0.000457631
0.00454525
0.00962298
0.0157242
0.00716627
-0.0047899
-0.00265574
-0.00016042
-0.00156505
-0.00121729
-0.00197663
-0.000196435
-0.000967684
-0.000784262
-0.000192416
-0.000377602
0.000107125
-0.00108095
-0.000732764
0.00100648
-0.0002364
0.000320612
-0.00106282
-0.000166043
-0.000439336
-0.000672191
-0.000597504
-0.000335928
-0.000198192
-0.000316868
-0.000198999
0.000274976
9.14411e-05
-0.000110074
3.7838e-05
-0.000483942
-0.000317671
-1.96169e-05
-0.00056781
-0.000344006
0.000288188
-4.78814e-05
-6.79589e-05
-0.00041907
0.000176703
-0.000143294
0.000613816
-0.000394156
0.000577062
-0.000618478
0.000467273
-0.000713468
0.000464853
-0.000645139
0.000461085
-0.000706989
0.000476022
-0.000932893
0.00651673
-0.00520484
-0.00157143
-0.000388788
9.10034e-05
0.000275502
0.000140521
5.66509e-05
-6.57862e-06
-3.86749e-05
-7.14885e-05
-7.85497e-05
-8.14498e-05
-0.000101376
-0.000101087
-9.61762e-05
-9.05029e-05
-8.66045e-05
-0.000102167
-0.000129111
-0.000168996
-0.000217148
-0.000302966
-0.000365434
-0.000451613
-0.000512785
-0.000632352
-0.00072049
-0.000852649
-0.000994116
-0.00117958
-0.00135342
-0.00153825
-0.00170426
-0.00193799
-0.00216278
-0.00242138
-0.00266385
-0.00281585
-0.00310334
-0.00335039
-0.00361831
-0.0037399
-0.00382012
-0.00388314
-0.00391863
-0.00412545
-0.00427046
-0.00440809
-0.00466824
-0.00533677
-0.00609655
-0.00723081
-0.00775973
-0.00290303
-0.0245118
0.111217
0.029746
-0.0118025
-0.00309534
-0.0035578
0.00329178
0.0068333
0.0166835
0.0200249
0.0045426
-0.00539395
0.000813915
-0.00296914
1.00133e-06
0.000254878
-0.0013219
-0.000450185
-0.00121172
-0.000850243
-0.000738218
-0.00109928
-0.000402823
-0.000370355
-0.00122573
-0.000445397
-0.00033631
-0.000272156
0.000308388
0.000322311
0.000283266
0.000463534
0.000539426
0.000387496
0.000305136
0.000185863
-0.000323124
-9.46929e-05
-0.00014835
-0.000453983
-0.000412717
-5.52443e-05
-0.000792836
-6.75359e-05
-4.10135e-05
-2.37435e-05
-0.000514358
-0.000347692
0.000216869
-0.000148774
7.93514e-05
-0.000112246
0.000335802
-0.000461037
0.000366095
-0.000495165
0.000388283
-0.000479713
0.000366941
-0.000402333
0.000390734
-0.000533475
0.000332734
-0.000744018
-0.00484858
0.00383149
0.0012266
0.00024818
-3.1657e-05
-0.000199385
-0.000131296
-5.16472e-05
-7.57204e-06
5.83955e-06
1.88754e-05
3.04454e-05
2.21635e-05
1.20087e-05
-6.8383e-06
-3.37729e-05
-5.8202e-05
-0.000110739
-0.000148526
-0.000205113
-0.000264428
-0.000332863
-0.000394832
-0.000458758
-0.000549493
-0.000670655
-0.000788545
-0.000928765
-0.00108017
-0.00123349
-0.00137697
-0.00151078
-0.00164968
-0.00177597
-0.00192289
-0.00209122
-0.00224699
-0.00243414
-0.00258817
-0.00269433
-0.00276159
-0.0028735
-0.00311283
-0.00330097
-0.003784
-0.00402715
-0.00460823
-0.00491949
-0.0056203
-0.00569611
-0.00518624
-0.00509019
-0.00397328
-0.00454377
-0.00141795
-0.00758152
0.0802854
0.0201343
-0.00104985
-0.00160072
0.000509201
0.00420471
0.00667382
0.0159468
0.0110758
-0.00284895
-0.00386115
-0.00141924
-0.00237988
-0.00333023
-0.00124754
-0.000494931
-0.00103578
-0.00154714
-0.000324518
-0.000681391
8.6467e-05
-0.000932737
-0.000319239
-0.0013682
9.99405e-05
-0.00176671
6.90915e-05
-0.000724873
-0.000440086
-0.000270853
-0.000503623
-0.000315364
-0.000309181
-3.89938e-05
-0.00041928
8.07824e-05
-0.000255409
0.000228496
0.000153842
-7.8814e-05
-5.42684e-05
5.49978e-05
0.000148277
-0.000132461
0.000410193
0.000195084
0.000279179
0.000197387
3.75035e-05
0.000376835
-1.02569e-05
0.000361394
-0.000387056
0.000325346
-0.000383506
0.000246885
-0.000333841
0.000203656
-0.000290309
0.000197085
-0.000472631
0.000214778
-0.000475502
0.00294639
-0.00242244
-0.000800666
-0.00024648
8.30613e-05
0.000159
9.1106e-05
5.36163e-05
2.31176e-05
3.54699e-06
-8.71185e-06
-2.88293e-05
-3.79067e-05
-4.5179e-05
-5.90738e-05
-6.94283e-05
-7.73153e-05
-0.000100666
-0.000115379
-0.000137001
-0.00018406
-0.000228648
-0.00028321
-0.00034238
-0.0004273
-0.000491954
-0.000581829
-0.000680226
-0.000785353
-0.000921023
-0.00107136
-0.00125426
-0.00145151
-0.00168955
-0.00188775
-0.00217997
-0.00242994
-0.00276138
-0.00305078
-0.00342649
-0.0037899
-0.00425292
-0.00468022
-0.00484855
-0.00495701
-0.0049136
-0.00479672
-0.00469476
-0.00435635
-0.00385305
-0.00291272
-0.0023252
-0.00167037
-0.00178947
-0.00400032
0.0243306
0.0498395
0.0146496
-0.00219702
-4.33862e-05
0.00905762
0.00976188
0.0165002
0.00178787
0.00433806
-0.00254588
0.00433987
-0.000685491
0.000837713
-0.00173184
0.00102362
0.000605767
-0.00136461
-0.00104075
-0.000603654
-0.000482444
-0.000377979
-0.00109407
-0.000958157
0.00127689
-0.000750511
0.000154899
0.000624757
0.000180847
0.00013366
0.000401472
0.000423617
0.000279501
0.000198717
0.000291849
2.21479e-05
0.00021172
-8.49538e-05
4.74159e-05
-5.9805e-05
8.80102e-05
-0.000248776
-0.000189933
0.000515198
-0.000613144
0.000437463
-0.0001026
3.80679e-05
-0.000135711
-0.000128318
-9.52094e-06
-0.000151255
0.000241749
-0.000357916
0.000278681
-0.000247602
0.000171997
-0.000192607
0.000158923
-0.00011126
0.000100023
-0.000232332
0.000127198
-0.000286144
-0.00215985
0.00175507
0.000600912
9.60761e-05
-4.93674e-05
-9.12217e-05
-7.93908e-05
-4.99944e-05
-2.5272e-05
-6.66292e-06
4.55924e-06
-1.06315e-05
-1.12361e-05
-2.59102e-05
-3.12525e-05
-4.72397e-05
-6.94231e-05
-0.000114994
-0.000147244
-0.00020685
-0.000246171
-0.000324608
-0.000383791
-0.000483958
-0.000599717
-0.000729534
-0.000866874
-0.00102072
-0.00119102
-0.00138458
-0.00156847
-0.00173487
-0.00190813
-0.00205602
-0.00220882
-0.00235022
-0.0025516
-0.00270766
-0.00278098
-0.00277429
-0.00270289
-0.0025719
-0.00252178
-0.00250131
-0.00277902
-0.00314706
-0.00381881
-0.00464738
-0.00525584
-0.00611395
-0.00748566