/*--------------------------------*- C++ -*----------------------------------*\
| =========                 |                                                 |
| \\      /  F ield         | OpenFOAM: The Open Source CFD Toolbox           |
|  \\    /   O peration     | Version:  2.2.x                                 |
|   \\  /    A nd           | Web:      www.OpenFOAM.org                      |
|    \\/     M anipulation  |                                                 |
\*---------------------------------------------------------------------------*/
FoamFile
{
    version     2.0;
    format      ascii;
    class       volScalarField;
    location    "3";
    object      By;
}
// * * * * * * * * * * * * * * * * * * * * * * * * * * * * * * * * * * * * * //

dimensions      [1 0 -2 0 0 -1 0];

internalField   nonuniform List<scalar> 
14161
(
-4.09935e-06
7.63348e-08
-8.26434e-07
-4.26597e-07
-1.8868e-06
-1.42453e-06
1.75446e-07
2.84621e-08
-8.07782e-07
-1.36553e-06
-2.87544e-07
1.18644e-07
9.76305e-07
-1.52378e-06
3.38122e-06
1.73163e-06
-4.14419e-07
-1.13299e-06
4.73415e-07
4.07609e-06
5.24873e-06
6.63897e-06
4.99718e-06
3.50623e-06
5.40923e-06
6.95923e-06
7.8774e-06
1.03382e-05
1.2437e-05
1.33534e-05
1.50038e-05
3.66793e-05
2.09039e-05
3.74637e-05
3.62867e-05
5.20635e-05
0.000118697
8.40838e-05
0.000149506
0.000214316
0.000149315
0.000696624
-0.000947475
-0.00925084
0.0185816
0.0108948
-0.00584394
-0.0214409
-0.0250584
-0.0186732
-0.0138367
-0.0113554
-0.00929126
-0.00834709
-0.00671975
-0.00515197
-0.00402435
-0.00343821
-0.00229966
-0.00203571
-0.00191188
-0.00172718
-0.00170247
-0.00176252
-0.00176523
-0.00164082
-0.00148716
-0.00147824
-0.00137004
-0.00133657
-0.00133607
-0.00147213
-0.00160559
-0.00169228
-0.0018606
-0.00195289
-0.00247834
-0.00245011
-0.00185286
-0.00194962
-0.00195246
-0.00194443
-0.00188889
-0.00181342
-0.00195754
-0.00237781
-0.00203533
-0.0018754
-0.00210303
-0.00162343
-0.00155726
-0.0015031
-0.00150954
-0.00141174
-0.00136624
-0.00131967
-0.00154632
-0.00162323
-0.000980122
-0.00103648
-0.00331552
-0.00408009
-0.00340093
-0.00149606
-0.000392
-0.00115416
-0.000570892
-0.00320929
-0.00864646
-0.00949009
0.000773881
0.072023
0.150722
0.170795
0.16549
0.143851
0.138082
0.111546
0.0921767
-1.00774e-05
-6.73984e-07
-1.74143e-06
-4.64392e-07
-1.72111e-06
-1.39091e-06
-1.11717e-06
-9.72541e-07
-1.25833e-07
-1.33509e-06
-2.18737e-06
-2.29541e-07
2.373e-06
-3.82692e-06
6.79832e-06
4.90267e-06
-5.82671e-07
-1.1494e-06
1.11608e-06
1.03954e-05
1.32916e-05
1.73704e-05
1.44433e-05
9.67907e-06
1.3648e-05
2.20197e-05
2.6137e-05
2.84726e-05
3.83969e-05
4.34972e-05
5.31279e-05
6.65795e-05
6.86993e-05
0.000103143
0.00011987
0.000158802
0.000235259
0.000261025
0.000449305
0.00060739
0.000928966
0.0018062
0.000819692
0.0121551
0.0318334
0.0039785
-0.0354221
-0.0595225
-0.0568199
-0.0457823
-0.0389851
-0.0343961
-0.0282872
-0.0254461
-0.0204212
-0.0155518
-0.0123809
-0.0100064
-0.0085308
-0.00776147
-0.00644852
-0.00555304
-0.00539634
-0.00526034
-0.0051217
-0.00469086
-0.00426564
-0.00416144
-0.00377148
-0.00339402
-0.00320114
-0.00319377
-0.00322608
-0.00328688
-0.00333634
-0.00368687
-0.00440691
-0.00448382
-0.00396317
-0.00350577
-0.00325811
-0.00356919
-0.00346323
-0.00336695
-0.00338064
-0.00465577
-0.00466484
-0.00472842
-0.00560083
-0.00495402
-0.00478741
-0.00459909
-0.00450593
-0.00427491
-0.00409913
-0.00394753
-0.00412549
-0.00450249
-0.00324067
-0.00307461
-0.00810523
-0.00761244
-0.00676165
-0.0033191
-0.00144611
-0.00125426
-0.00329807
-0.0103151
-0.00926475
0.0020864
0.045206
0.185314
0.280757
0.288317
0.270494
0.253954
0.242706
0.221201
0.190541
-1.5946e-05
-1.39828e-06
-3.26571e-06
-1.27079e-06
-2.38979e-06
-1.93723e-06
-2.79172e-06
-2.03278e-06
-1.16073e-06
-2.41439e-06
-3.25075e-06
7.26315e-07
3.65384e-06
-5.13944e-06
1.05091e-05
5.53405e-06
-1.11938e-06
-2.48167e-06
2.14095e-06
1.78103e-05
2.43686e-05
3.09949e-05
2.79525e-05
1.47708e-05
2.51985e-05
3.68187e-05
4.6907e-05
5.00848e-05
6.20965e-05
7.39777e-05
8.79814e-05
9.81265e-05
0.000142494
0.00017419
0.000210859
0.000255678
0.000342956
0.0005264
0.000632966
0.000934997
0.00146481
0.00278978
0.00485425
0.0378196
0.0543043
-0.0284191
-0.0758776
-0.0927735
-0.0858539
-0.0714004
-0.0600118
-0.0524675
-0.0442658
-0.0409359
-0.0338685
-0.0267778
-0.0220379
-0.0179182
-0.015588
-0.0137822
-0.0117692
-0.0103667
-0.00996546
-0.00970026
-0.009361
-0.00861229
-0.00794491
-0.00767068
-0.00714938
-0.00654315
-0.00635608
-0.00641444
-0.00629156
-0.00641998
-0.00680201
-0.0071639
-0.00783555
-0.00808734
-0.00822868
-0.00674857
-0.00595391
-0.00652593
-0.00671098
-0.0065876
-0.0064502
-0.00773886
-0.00745873
-0.00752415
-0.0088035
-0.0081857
-0.00807502
-0.00790553
-0.00773662
-0.00754906
-0.00741496
-0.00728457
-0.00756918
-0.00802567
-0.00651747
-0.00628123
-0.013803
-0.0131983
-0.0109387
-0.00545069
-1.9591e-05
-0.00218707
-0.00610181
-0.0123052
0.00324618
0.0653747
0.239709
0.404731
0.453379
0.448632
0.416827
0.395744
0.364084
0.311814
0.289648
-2.01913e-05
-2.74504e-06
-5.04943e-06
-1.84508e-06
-2.10092e-06
-1.91201e-06
-3.86618e-06
-2.96374e-06
-2.30276e-06
-2.47993e-06
-5.07136e-06
1.75803e-07
4.92185e-06
-3.92329e-06
1.24588e-05
7.42916e-06
-5.54318e-07
-6.91963e-07
5.80557e-06
2.55809e-05
3.54615e-05
4.19975e-05
3.94646e-05
2.0092e-05
3.02733e-05
4.92982e-05
6.60188e-05
7.49238e-05
8.46684e-05
0.000100637
0.000120738
0.000158417
0.000182222
0.000216131
0.00029447
0.000370353
0.000487362
0.00054904
0.000660507
0.000935248
0.00145147
0.00236978
0.00293034
0.0265391
0.0411441
-0.0346096
-0.0903975
-0.1066
-0.104533
-0.093755
-0.083749
-0.0719776
-0.0608791
-0.0568943
-0.0475161
-0.0387495
-0.032489
-0.0272079
-0.0239068
-0.0218149
-0.0193192
-0.0171021
-0.0161803
-0.0153769
-0.014662
-0.0133902
-0.0122656
-0.0116773
-0.0108015
-0.00999182
-0.00976678
-0.00967436
-0.00971101
-0.0100135
-0.0103655
-0.0101636
-0.00970224
-0.0109892
-0.0108266
-0.009358
-0.00683947
-0.00853686
-0.00899772
-0.00908923
-0.00860497
-0.00992521
-0.00938029
-0.00945125
-0.0110341
-0.0105142
-0.010532
-0.0103002
-0.010026
-0.00991015
-0.00992793
-0.0097919
-0.0102906
-0.0107257
-0.00906625
-0.00802133
-0.0186221
-0.0176222
-0.0132201
-0.00559772
0.00351658
-0.00143484
-0.00263568
0.0144104
0.100599
0.276898
0.420999
0.523317
0.547477
0.531098
0.492585
0.470012
0.440191
0.385856
0.371459
-2.52258e-05
-3.82837e-06
-6.13966e-06
-2.36654e-06
-3.36111e-06
-2.28959e-06
-4.61049e-06
-3.08725e-06
-3.62848e-06
-3.48101e-06
-5.81712e-06
-1.2242e-07
5.90822e-06
-2.92633e-06
1.09145e-05
9.61264e-06
-1.2699e-06
1.08525e-06
9.92955e-06
2.96857e-05
4.37427e-05
5.02087e-05
5.30188e-05
2.96482e-05
4.08767e-05
6.34801e-05
8.6768e-05
9.79553e-05
0.00011423
0.000136174
0.00015863
0.000191044
0.000228509
0.00030975
0.000383083
0.000449741
0.000539564
0.000677871
0.000719696
0.000851757
0.000968972
0.000938203
0.000131957
0.00547238
-0.0133989
-0.0634324
-0.0986105
-0.114648
-0.113144
-0.105442
-0.100997
-0.0894124
-0.0766472
-0.0729535
-0.0628026
-0.052883
-0.043896
-0.0375402
-0.0323832
-0.0296261
-0.0253871
-0.0223152
-0.020927
-0.0195768
-0.018781
-0.0171277
-0.0156516
-0.0148987
-0.0139474
-0.0129159
-0.0125767
-0.0124613
-0.0124617
-0.0123752
-0.0126946
-0.0128359
-0.0126575
-0.0141467
-0.0135944
-0.0125182
-0.0106377
-0.0116223
-0.0120496
-0.0123799
-0.0117331
-0.0127287
-0.0120291
-0.0122326
-0.0135345
-0.0131912
-0.0134048
-0.0131844
-0.0127213
-0.0127096
-0.0128923
-0.0129816
-0.0136461
-0.0139556
-0.0126186
-0.0116331
-0.0239294
-0.0207955
-0.0133301
-0.00468775
0.00504392
0.00587522
0.0309688
0.144626
0.323496
0.478952
0.562785
0.608603
0.610488
0.587709
0.548597
0.522334
0.500772
0.454466
0.446563
-2.82616e-05
-5.14961e-06
-7.14217e-06
-2.75407e-06
-4.30772e-06
-3.56258e-06
-5.29088e-06
-3.14794e-06
-5.11234e-06
-3.44432e-06
-6.76933e-06
-1.08128e-06
6.45538e-06
1.0533e-06
9.73819e-06
1.24379e-05
2.85069e-06
2.76365e-06
1.58276e-05
3.42523e-05
5.19903e-05
5.9029e-05
6.41586e-05
4.67141e-05
4.77533e-05
7.25421e-05
0.000101826
0.000123504
0.000137511
0.000160363
0.0001939
0.000230588
0.000295598
0.000337819
0.000442726
0.000545069
0.000637402
0.000733043
0.000720148
0.00065208
0.000468637
-0.000297946
-0.00168283
-0.00637857
-0.0775226
-0.09557
-0.113264
-0.133251
-0.132068
-0.12385
-0.118662
-0.106131
-0.0924305
-0.0845474
-0.0713313
-0.0614895
-0.0505427
-0.0421568
-0.0374316
-0.0356022
-0.0310399
-0.0278977
-0.0268279
-0.0247142
-0.0235795
-0.0214399
-0.0196598
-0.0189714
-0.0178598
-0.0165616
-0.0159052
-0.0157565
-0.0156298
-0.015266
-0.0157752
-0.015786
-0.0158524
-0.0171504
-0.0167054
-0.0157647
-0.0139855
-0.0151847
-0.0156611
-0.0160904
-0.0152605
-0.0159776
-0.0148295
-0.0148717
-0.0160716
-0.0157495
-0.0161956
-0.0161779
-0.0154334
-0.0155961
-0.0159463
-0.0155725
-0.0167451
-0.0174399
-0.0159021
-0.0163502
-0.0297788
-0.0258107
-0.0166571
-0.0042346
0.0153817
0.0457987
0.184606
0.395432
0.549729
0.642351
0.672794
0.67299
0.648782
0.61809
0.584432
0.560003
0.544716
0.508474
0.506934
-3.18335e-05
-6.54167e-06
-8.61448e-06
-3.41933e-06
-4.3957e-06
-3.73223e-06
-6.57808e-06
-3.82804e-06
-6.35495e-06
-4.26453e-06
-6.76637e-06
-2.94738e-06
7.48207e-06
4.68294e-06
7.0734e-06
1.30315e-05
8.34464e-06
3.98475e-06
1.93394e-05
3.6854e-05
5.78843e-05
7.06819e-05
7.48176e-05
7.006e-05
5.94136e-05
8.5755e-05
0.00011798
0.000146904
0.000165615
0.000196678
0.00022978
0.000272393
0.000327371
0.000407392
0.000514731
0.000617963
0.000727843
0.000846312
0.000944863
0.00103575
0.000975786
0.000630668
-6.80675e-05
-0.00965442
-0.0977997
-0.12807
-0.147962
-0.170799
-0.170596
-0.157893
-0.149802
-0.136941
-0.122106
-0.109775
-0.0927942
-0.0831219
-0.0665533
-0.0545034
-0.0483687
-0.0452965
-0.0374524
-0.0334264
-0.0316149
-0.0286117
-0.0269544
-0.0242795
-0.0215318
-0.0210736
-0.0199426
-0.0177272
-0.0175459
-0.0173081
-0.0169431
-0.0167004
-0.0179027
-0.0172041
-0.0184817
-0.0192133
-0.0188046
-0.019321
-0.0186525
-0.0187844
-0.0195999
-0.0202724
-0.0187699
-0.0195528
-0.0181349
-0.0180065
-0.0189592
-0.0185141
-0.0189909
-0.01958
-0.0181566
-0.0180813
-0.0190648
-0.0190481
-0.0197373
-0.0210169
-0.0201871
-0.0212071
-0.0336449
-0.0288429
-0.0163101
0.00584115
0.0526737
0.189415
0.44198
0.615066
0.697076
0.754717
0.767642
0.737611
0.694117
0.652669
0.61748
0.594149
0.582462
0.555286
0.558515
-3.46015e-05
-8.17514e-06
-9.39499e-06
-4.40778e-06
-5.54439e-06
-5.32093e-06
-5.83445e-06
-3.97303e-06
-8.57497e-06
-4.92814e-06
-5.60799e-06
-3.99952e-06
5.84217e-06
8.37617e-06
6.9167e-06
1.52702e-05
1.47805e-05
3.87412e-06
2.42303e-05
4.24658e-05
6.18319e-05
7.80249e-05
8.73325e-05
9.27422e-05
7.77382e-05
9.15378e-05
0.000128759
0.000162479
0.000190634
0.000219656
0.000259623
0.000315057
0.000364925
0.000445368
0.000542013
0.000676504
0.000866977
0.00102685
0.00124609
0.00141457
0.00143619
0.0014862
0.00133351
-0.00244857
-0.0911735
-0.17211
-0.213101
-0.234406
-0.22104
-0.196591
-0.181957
-0.162822
-0.141984
-0.125749
-0.103475
-0.0908743
-0.0701394
-0.0510476
-0.0514862
-0.0498603
-0.0358215
-0.0347886
-0.0349087
-0.0319876
-0.0306201
-0.0274883
-0.0253342
-0.0236388
-0.0214194
-0.0204281
-0.02048
-0.0202028
-0.01984
-0.0196635
-0.0212237
-0.0204551
-0.0211472
-0.0223178
-0.0221854
-0.0218547
-0.0224927
-0.0227504
-0.0227462
-0.0230345
-0.0221793
-0.0224628
-0.0213966
-0.0211727
-0.0217043
-0.0216689
-0.0225748
-0.0226872
-0.021224
-0.0215359
-0.0224551
-0.0213117
-0.023414
-0.0255986
-0.0242313
-0.0261505
-0.036967
-0.0298907
-0.00718612
0.0368917
0.185244
0.447771
0.668683
0.788073
0.812808
0.839432
0.835866
0.793808
0.735616
0.685544
0.64874
0.624762
0.616096
0.594921
0.60041
-3.67307e-05
-8.98795e-06
-1.09626e-05
-4.91495e-06
-5.90481e-06
-5.76997e-06
-6.97766e-06
-5.51154e-06
-8.74358e-06
-6.29318e-06
-5.75714e-06
-6.17689e-06
4.78738e-06
1.35409e-05
6.63938e-06
1.32853e-05
1.84765e-05
2.97028e-06
3.10283e-05
4.85321e-05
6.61502e-05
8.81682e-05
9.6793e-05
0.000108508
0.000107875
0.000107156
0.000138925
0.000178782
0.000214716
0.000249286
0.000287985
0.00033619
0.000394973
0.000476898
0.00058093
0.000728127
0.000931388
0.00119003
0.00157432
0.00197653
0.00256738
0.00330167
0.00419105
0.00604327
-0.075706
-0.227021
-0.303199
-0.318656
-0.290288
-0.248797
-0.229343
-0.199336
-0.171666
-0.150771
-0.123728
-0.10981
-0.0830735
-0.0671992
-0.0635029
-0.0542874
-0.0416395
-0.0395772
-0.035206
-0.0343074
-0.0322484
-0.0270549
-0.0273643
-0.024645
-0.0225094
-0.0223519
-0.0218905
-0.021378
-0.0210086
-0.0213077
-0.0227256
-0.022591
-0.0228115
-0.0239366
-0.024527
-0.0245078
-0.0251304
-0.0256618
-0.0256292
-0.0253163
-0.0242746
-0.0253005
-0.0246206
-0.0243448
-0.0247672
-0.0243708
-0.0250025
-0.0246781
-0.0232253
-0.0234926
-0.0251212
-0.0252743
-0.0262662
-0.0273307
-0.0262915
-0.0259329
-0.0349367
-0.0250834
0.0175042
0.152442
0.449957
0.697815
0.82952
0.915375
0.914855
0.915866
0.895201
0.844354
0.776786
0.719669
0.680044
0.655295
0.647389
0.63053
0.636475
-3.90256e-05
-1.07514e-05
-1.16128e-05
-5.97987e-06
-6.68182e-06
-6.4049e-06
-7.94135e-06
-5.89001e-06
-9.61476e-06
-9.0958e-06
-4.55069e-06
-5.58322e-06
2.37707e-06
1.56733e-05
1.11016e-05
1.24508e-05
2.64893e-05
1.28009e-05
2.88655e-05
5.68042e-05
6.83523e-05
8.92055e-05
0.000107032
0.000123823
0.000135293
0.000125203
0.000141171
0.000187199
0.000234876
0.000266071
0.000303167
0.000351795
0.000412713
0.000478529
0.000572352
0.00070604
0.000906901
0.00116874
0.00158513
0.00214048
0.00320423
0.00424859
0.00674085
0.0119378
-0.082897
-0.353866
-0.392382
-0.388756
-0.348069
-0.295696
-0.257824
-0.21914
-0.182793
-0.160474
-0.12648
-0.116677
-0.0789634
-0.0687259
-0.0661632
-0.0544566
-0.0437216
-0.0392449
-0.0348038
-0.0344402
-0.0310078
-0.0289111
-0.0278347
-0.0251526
-0.023653
-0.0239619
-0.023592
-0.0236801
-0.0235018
-0.0244395
-0.0260609
-0.0258921
-0.0257879
-0.0267568
-0.0274721
-0.0273765
-0.0270669
-0.0275648
-0.0272849
-0.0268371
-0.0251982
-0.0263211
-0.0263456
-0.0250539
-0.0257256
-0.0258399
-0.026577
-0.0264008
-0.0243037
-0.0245473
-0.0250497
-0.0247481
-0.0266766
-0.027302
-0.025337
-0.0224851
-0.0245434
0.00847349
0.140991
0.406016
0.671463
0.853672
0.939325
0.994522
0.983883
0.970685
0.937955
0.881184
0.810655
0.75007
0.708599
0.682908
0.67425
0.660411
0.665705
-4.05207e-05
-1.15262e-05
-1.28786e-05
-6.73248e-06
-7.70946e-06
-7.05879e-06
-8.97555e-06
-6.2792e-06
-9.98697e-06
-1.06681e-05
-4.92556e-06
-6.28918e-06
1.04984e-06
1.79092e-05
1.49924e-05
9.91115e-06
2.59865e-05
2.12379e-05
2.99649e-05
6.24412e-05
7.69741e-05
9.12102e-05
0.000116768
0.000134311
0.000153176
0.000158708
0.000158601
0.000188794
0.00024321
0.000289688
0.000320323
0.00035744
0.000401787
0.000473643
0.000556201
0.000678052
0.000856447
0.0011107
0.00152044
0.00208523
0.00333041
0.00422398
0.00622907
0.00742288
-0.23196
-0.497533
-0.452971
-0.419284
-0.378175
-0.325995
-0.277024
-0.231894
-0.193325
-0.163731
-0.129981
-0.120474
-0.0805518
-0.070923
-0.0625061
-0.0521338
-0.0433233
-0.0370129
-0.0348697
-0.0342703
-0.030177
-0.0280083
-0.02792
-0.0256019
-0.0242909
-0.0247602
-0.0245767
-0.025037
-0.0252224
-0.0264651
-0.0275301
-0.0274654
-0.027648
-0.0283911
-0.0290964
-0.0285886
-0.0276136
-0.0281479
-0.0278438
-0.027731
-0.0258663
-0.0270055
-0.0270374
-0.0255042
-0.0261575
-0.0260768
-0.0259449
-0.025368
-0.0232881
-0.0230536
-0.0233178
-0.0216036
-0.0229259
-0.0222677
-0.0153318
-0.00413464
0.0300637
0.157245
0.395156
0.654676
0.849421
0.967363
1.03204
1.0657
1.04916
1.02269
0.980198
0.915967
0.841536
0.778509
0.734851
0.708392
0.697871
0.685653
0.69023
-4.23768e-05
-1.33124e-05
-1.40295e-05
-7.95873e-06
-8.39692e-06
-7.18659e-06
-1.04916e-05
-7.19307e-06
-9.81297e-06
-1.28194e-05
-6.16541e-06
-5.22058e-06
-1.99322e-06
1.75659e-05
1.97263e-05
1.06615e-05
2.68862e-05
3.27684e-05
3.83616e-05
6.37635e-05
8.72209e-05
9.17188e-05
0.000119474
0.000148855
0.000167259
0.000188013
0.000169489
0.000186541
0.000252248
0.000303089
0.00032768
0.00035595
0.000382696
0.000426306
0.000473211
0.00050322
0.000533308
0.000558266
0.000707226
0.000416591
0.00102363
-0.00148775
0.00290914
-0.0290401
-0.543105
-0.673111
-0.553733
-0.460643
-0.397077
-0.323509
-0.274814
-0.227338
-0.195332
-0.164682
-0.136408
-0.117071
-0.0831484
-0.0686775
-0.0593521
-0.0501833
-0.0409136
-0.0357474
-0.0349019
-0.0333428
-0.0287871
-0.0279069
-0.0280546
-0.0260373
-0.0254112
-0.0261701
-0.0258936
-0.0268579
-0.0271294
-0.0283638
-0.0293729
-0.0294053
-0.0293668
-0.0299708
-0.0299072
-0.0281702
-0.0276697
-0.0280203
-0.0273584
-0.0273066
-0.0250913
-0.0260642
-0.0257685
-0.0239244
-0.0250458
-0.024492
-0.0235278
-0.0219194
-0.0193209
-0.0174344
-0.0164259
-0.0117646
-0.00449627
0.00623088
0.0368512
0.099432
0.229149
0.409409
0.632281
0.78812
0.92109
1.01989
1.07235
1.09567
1.08306
1.05425
1.00735
0.939182
0.864082
0.801108
0.757376
0.730938
0.719175
0.707368
0.710422
-4.36427e-05
-1.42325e-05
-1.51251e-05
-8.83509e-06
-9.74469e-06
-7.87602e-06
-1.10002e-05
-8.22095e-06
-9.34367e-06
-1.4348e-05
-7.97713e-06
-3.04144e-06
-3.33696e-06
1.32278e-05
2.53795e-05
1.53319e-05
2.05528e-05
3.82214e-05
4.98044e-05
6.22809e-05
9.3915e-05
0.000104843
0.000119132
0.000150014
0.00018183
0.000209463
0.000206541
0.000192982
0.000227166
0.00030093
0.000349213
0.00035685
0.000359796
0.000355445
0.000345862
0.000311732
0.000235383
-4.54348e-05
-0.000493745
-0.0015038
-0.0029559
-0.0062306
-0.00616589
-0.143547
-0.746165
-0.754034
-0.651136
-0.555615
-0.425419
-0.344554
-0.287753
-0.236197
-0.206066
-0.171695
-0.149864
-0.114405
-0.0920571
-0.0665769
-0.0579256
-0.0516237
-0.0401739
-0.0356273
-0.0353593
-0.03274
-0.0277872
-0.02825
-0.0286564
-0.0271113
-0.0271061
-0.0282131
-0.0273623
-0.0289798
-0.0295373
-0.0304569
-0.0312286
-0.0311012
-0.0310098
-0.0309731
-0.0310476
-0.0273171
-0.0266852
-0.0272346
-0.0259376
-0.025617
-0.0230765
-0.0229544
-0.0221874
-0.0192094
-0.0201555
-0.0187125
-0.0148645
-0.010194
-0.00417398
0.00652972
0.0167622
0.0368334
0.0689414
0.124812
0.215921
0.317314
0.457982
0.610799
0.766679
0.897723
0.991639
1.05958
1.09998
1.11438
1.1052
1.07816
1.02881
0.957974
0.88137
0.819408
0.776511
0.750006
0.737027
0.725452
0.727489
-4.50913e-05
-1.57202e-05
-1.63768e-05
-1.03756e-05
-1.08517e-05
-8.24088e-06
-1.24346e-05
-1.03003e-05
-9.28453e-06
-1.4802e-05
-1.06646e-05
-2.39832e-06
-1.61166e-06
9.05614e-06
2.88222e-05
2.23826e-05
1.80924e-05
4.68281e-05
6.34342e-05
6.41896e-05
9.46306e-05
0.000121955
0.00011993
0.00015405
0.00019284
0.000222747
0.000230265
0.000210512
0.000217362
0.000293119
0.000359613
0.000368426
0.000348331
0.000327099
0.000300596
0.000241898
0.000161615
5.90457e-05
-0.000110913
-0.000140512
-0.000891603
-0.000386685
-0.00269302
-0.314582
-0.78412
-0.788369
-0.749231
-0.684595
-0.541968
-0.41055
-0.317838
-0.269063
-0.229812
-0.184812
-0.162927
-0.118235
-0.100943
-0.06888
-0.0571932
-0.0553028
-0.0387282
-0.0384654
-0.0368796
-0.0326633
-0.0285766
-0.0281377
-0.0289506
-0.0283533
-0.0289087
-0.0296583
-0.0285561
-0.0310159
-0.031908
-0.0316464
-0.0324836
-0.0325647
-0.0320628
-0.0309363
-0.0303794
-0.0254796
-0.0234825
-0.0237477
-0.0213895
-0.0199689
-0.0171218
-0.0126961
-0.0102196
-0.00384796
0.00267505
0.00806384
0.0222391
0.038925
0.0622079
0.0996298
0.137579
0.194655
0.264139
0.320581
0.405885
0.513668
0.617072
0.722822
0.840413
0.944996
1.02068
1.07693
1.10825
1.118
1.11258
1.08836
1.03952
0.969372
0.893847
0.834598
0.793037
0.766654
0.752901
0.741369
0.742339
-4.61408e-05
-1.68269e-05
-1.74401e-05
-1.14365e-05
-1.27669e-05
-9.59916e-06
-1.22806e-05
-1.15757e-05
-9.64016e-06
-1.39768e-05
-1.42138e-05
-1.1087e-06
8.78626e-07
4.77524e-06
2.96068e-05
3.14143e-05
1.9291e-05
4.12001e-05
6.90979e-05
7.56304e-05
9.22672e-05
0.000131962
0.000140911
0.000146426
0.000200185
0.000230132
0.000253254
0.000244175
0.000219443
0.000249088
0.000340104
0.000390826
0.000372736
0.000343871
0.000285884
0.000265334
0.00023236
0.000302802
0.000327993
0.00101778
0.00117809
0.00426798
0.000551972
-0.474214
-0.815454
-0.809195
-0.791644
-0.754765
-0.665789
-0.525821
-0.388429
-0.314371
-0.254818
-0.217735
-0.166861
-0.129741
-0.10333
-0.0739318
-0.0672522
-0.056459
-0.0403993
-0.0407251
-0.037577
-0.0327772
-0.0326194
-0.0299774
-0.0302887
-0.0298972
-0.0308158
-0.0309891
-0.0296102
-0.0325688
-0.0327829
-0.0322139
-0.0319356
-0.030998
-0.0293674
-0.0253479
-0.0226499
-0.0166649
-0.0109337
-0.00701373
-0.00193906
0.00439346
0.013215
0.0250372
0.0401305
0.0596758
0.0857176
0.110819
0.145367
0.188119
0.23933
0.28537
0.320567
0.369919
0.430742
0.488653
0.55061
0.621678
0.703108
0.787548
0.879151
0.973403
1.04488
1.09119
1.11551
1.12017
1.1165
1.09361
1.04462
0.975802
0.90312
0.846897
0.806934
0.781018
0.766668
0.755196
0.755082
-4.72182e-05
-1.80716e-05
-1.89003e-05
-1.34408e-05
-1.39267e-05
-1.0157e-05
-1.31586e-05
-1.4289e-05
-1.11003e-05
-1.20174e-05
-1.754e-05
-1.50683e-06
3.91225e-06
8.19697e-07
2.91333e-05
3.46169e-05
2.56581e-05
4.05603e-05
7.74835e-05
8.98282e-05
9.69872e-05
0.000131799
0.000161776
0.000153961
0.000191712
0.000246812
0.000263803
0.000268509
0.000248003
0.000240194
0.000304813
0.000400145
0.000408425
0.000375673
0.000303394
0.00025548
0.000195561
0.000190055
-3.75417e-05
0.000298741
-0.000927822
0.00308596
-0.0296457
-0.629405
-0.830363
-0.816204
-0.804136
-0.780324
-0.732658
-0.640791
-0.506004
-0.368858
-0.308092
-0.250179
-0.191836
-0.157325
-0.106562
-0.0826368
-0.0776234
-0.0629387
-0.0424381
-0.0437346
-0.0395414
-0.0332641
-0.0344628
-0.0307972
-0.0307127
-0.0310353
-0.0300022
-0.0304688
-0.0290139
-0.0299288
-0.0289151
-0.0232537
-0.0206685
-0.0179136
-0.00964057
-0.00131251
0.00919732
0.0194611
0.0339336
0.0524215
0.0679798
0.0895179
0.119067
0.149345
0.183915
0.224953
0.262271
0.289774
0.320083
0.355863
0.405296
0.448468
0.473864
0.503755
0.541856
0.583785
0.632202
0.685894
0.748365
0.820588
0.901927
0.985612
1.0502
1.09272
1.11371
1.1176
1.11328
1.09053
1.04437
0.978862
0.909666
0.857048
0.818862
0.793688
0.778959
0.767701
0.76666
-4.82011e-05
-1.93429e-05
-2.0175e-05
-1.48396e-05
-1.58388e-05
-1.29648e-05
-1.29183e-05
-1.50868e-05
-1.38015e-05
-1.05335e-05
-1.8213e-05
-4.29847e-06
6.03774e-06
1.9235e-06
2.25295e-05
4.03315e-05
3.69586e-05
3.4979e-05
6.99625e-05
9.82872e-05
0.000111398
0.000132747
0.000174205
0.000178496
0.0001807
0.000247541
0.000280412
0.000295484
0.000281446
0.000250141
0.000270287
0.000381148
0.00045291
0.000435566
0.000382766
0.000296969
0.000182235
1.11449e-05
-0.000371565
-0.000798592
-0.00181062
-0.00113066
-0.146014
-0.723335
-0.829576
-0.817414
-0.806736
-0.788964
-0.761227
-0.716007
-0.621445
-0.477887
-0.385534
-0.297626
-0.228645
-0.177725
-0.114492
-0.0834984
-0.0765035
-0.068179
-0.0412405
-0.043719
-0.0386504
-0.03034
-0.031456
-0.0276343
-0.0237712
-0.0233533
-0.0197231
-0.0165656
-0.0139867
-0.00523527
-0.000901332
0.0108685
0.0263224
0.0391876
0.0592962
0.0823306
0.108
0.132816
0.160971
0.196862
0.228203
0.254091
0.284578
0.314131
0.344949
0.384279
0.420507
0.443841
0.465
0.487669
0.514942
0.541067
0.557084
0.579964
0.60679
0.640996
0.678589
0.722504
0.776
0.839301
0.914174
0.993097
1.05449
1.09243
1.11105
1.11416
1.10715
1.08363
1.03986
0.978166
0.913927
0.864693
0.828441
0.804332
0.789628
0.7791
0.776787
-4.89041e-05
-2.04085e-05
-2.21594e-05
-1.73005e-05
-1.69944e-05
-1.44344e-05
-1.33879e-05
-1.78498e-05
-1.62391e-05
-9.37322e-06
-1.7382e-05
-9.89239e-06
7.61685e-06
6.91356e-06
1.6768e-05
4.13544e-05
4.54716e-05
4.01497e-05
5.89578e-05
0.000107086
0.000125545
0.000147584
0.000178252
0.000202898
0.000181879
0.000225724
0.000301844
0.000312597
0.000321415
0.000293839
0.000280868
0.00034018
0.000482727
0.000533606
0.000539976
0.000519633
0.000518007
0.00042476
0.00048413
0.000121157
0.000605126
-0.000916126
-0.289812
-0.774784
-0.829492
-0.821536
-0.817008
-0.805862
-0.789629
-0.761554
-0.708602
-0.608445
-0.492631
-0.358767
-0.276961
-0.190594
-0.120691
-0.0767668
-0.0658581
-0.0622222
-0.0364249
-0.0362349
-0.0289139
-0.0164002
-0.0134092
-0.0109092
0.00205147
0.00978762
0.0237919
0.0383842
0.0517831
0.0735235
0.0945343
0.11845
0.149613
0.178876
0.206435
0.230971
0.256314
0.278597
0.305154
0.33847
0.374149
0.403028
0.428791
0.452845
0.474151
0.494651
0.513603
0.529745
0.543824
0.558527
0.576564
0.595623
0.609492
0.627537
0.647354
0.674844
0.707551
0.745842
0.793527
0.851695
0.922392
0.99571
1.05224
1.08701
1.10496
1.10742
1.09917
1.07554
1.03355
0.975357
0.915683
0.870088
0.836582
0.814303
0.799823
0.789805
0.786082
-4.95783e-05
-2.1567e-05
-2.34742e-05
-1.87788e-05
-1.94783e-05
-1.84744e-05
-1.42023e-05
-1.69608e-05
-2.05491e-05
-1.03297e-05
-1.27532e-05
-1.40628e-05
6.12533e-06
1.29816e-05
1.11557e-05
3.90174e-05
5.81892e-05
4.85584e-05
4.27174e-05
9.27236e-05
0.000145776
0.000168209
0.000187725
0.000213667
0.000203309
0.00019632
0.000295437
0.000345165
0.000357791
0.000345568
0.000324875
0.000342296
0.000456325
0.00061167
0.000726531
0.000698879
0.000751745
0.000834182
0.0011966
0.00124709
0.00310871
0.00149383
-0.42249
-0.825833
-0.843342
-0.837192
-0.833618
-0.824159
-0.812757
-0.796232
-0.764969
-0.715454
-0.632918
-0.47846
-0.323298
-0.191931
-0.117374
-0.0603034
-0.0404421
-0.0359593
-0.0226412
-0.00522068
0.00612774
0.027689
0.0465095
0.0536419
0.0816299
0.109251
0.141736
0.173801
0.193371
0.212317
0.229666
0.250475
0.276999
0.307526
0.338329
0.36241
0.384333
0.404709
0.42563
0.44745
0.467063
0.487319
0.50666
0.524342
0.54037
0.555165
0.569068
0.580222
0.592709
0.603812
0.614766
0.628368
0.640657
0.65701
0.674808
0.698403
0.72744
0.762482
0.806138
0.860198
0.927125
0.995716
1.04813
1.08042
1.09748
1.09912
1.08972
1.06561
1.02511
0.970882
0.916628
0.87466
0.843479
0.822747
0.808567
0.799083
0.794416
-5.01969e-05
-2.25294e-05
-2.54519e-05
-2.14931e-05
-2.04806e-05
-1.99948e-05
-1.64534e-05
-1.80468e-05
-2.31122e-05
-1.20432e-05
-8.99391e-06
-1.62254e-05
4.12495e-07
1.71886e-05
1.1511e-05
3.36873e-05
6.1742e-05
5.85959e-05
4.78997e-05
6.6001e-05
0.000145941
0.000192297
0.000210476
0.000221512
0.000230589
0.000190741
0.000241911
0.000364191
0.000413642
0.000426703
0.000392348
0.000385187
0.000462065
0.000597228
0.00076534
0.000801186
0.000993864
0.000905924
0.00151928
0.000947856
0.00425549
-0.0122916
-0.586786
-0.846911
-0.846405
-0.843259
-0.838098
-0.833017
-0.830956
-0.821196
-0.801201
-0.774746
-0.727935
-0.617091
-0.382449
-0.202133
-0.0963073
-0.0265306
0.0115974
0.0262148
0.0400282
0.0754658
0.107842
0.141737
0.176673
0.191023
0.210605
0.233157
0.259986
0.291019
0.318979
0.337506
0.353988
0.370502
0.389876
0.4074
0.423376
0.43931
0.455777
0.471136
0.487643
0.504532
0.520909
0.53635
0.55178
0.566214
0.579472
0.591044
0.601147
0.610086
0.620601
0.631673
0.640933
0.652002
0.663349
0.678275
0.694717
0.716195
0.74249
0.775023
0.815412
0.866241
0.930016
0.994777
1.04362
1.07363
1.08984
1.09078
1.08025
1.05597
1.01668
0.965959
0.916815
0.878727
0.850274
0.831372
0.817647
0.808166
0.802243
-5.09686e-05
-2.33855e-05
-2.75311e-05
-2.41352e-05
-2.07785e-05
-2.28952e-05
-2.03502e-05
-1.71135e-05
-2.57072e-05
-1.63684e-05
-5.97955e-06
-1.44945e-05
-7.5561e-06
1.88148e-05
1.84246e-05
2.53557e-05
6.45533e-05
7.30707e-05
5.08372e-05
5.83548e-05
0.000122775
0.000202714
0.000234894
0.00024005
0.000243684
0.000213248
0.000199173
0.00031931
0.000452051
0.000500824
0.000508822
0.000455813
0.000466922
0.000487503
0.000648031
0.000608351
0.000651682
0.000360183
0.00045923
-0.000864961
0.00126146
-0.0972846
-0.714087
-0.86011
-0.855748
-0.854669
-0.849116
-0.844696
-0.844858
-0.839894
-0.827818
-0.805493
-0.771407
-0.686204
-0.443352
-0.189469
-0.0248616
0.0628771
0.130813
0.152751
0.163851
0.196666
0.22434
0.254136
0.28567
0.311519
0.331927
0.35336
0.372402
0.389967
0.402736
0.414638
0.425864
0.438314
0.452095
0.465153
0.478075
0.488574
0.500567
0.512016
0.524525
0.537852
0.550459
0.56325
0.575733
0.587659
0.600208
0.611803
0.622012
0.630721
0.641024
0.650764
0.659877
0.669541
0.680557
0.695157
0.71079
0.730836
0.755269
0.785449
0.823089
0.870793
0.931147
0.992419
1.03838
1.06553
1.08044
1.0803
1.06872
1.04433
1.00828
0.963876
0.919399
0.883829
0.856737
0.838561
0.824683
0.815611
0.809099
-5.17874e-05
-2.44773e-05
-2.90121e-05
-2.6817e-05
-2.37103e-05
-2.46709e-05
-2.42691e-05
-1.6999e-05
-2.42108e-05
-2.20432e-05
-5.61797e-06
-9.73219e-06
-1.33472e-05
1.43022e-05
2.43179e-05
2.1193e-05
5.60425e-05
8.35029e-05
5.85123e-05
6.15581e-05
9.49429e-05
0.000194162
0.000246747
0.000254888
0.000261402
0.000247246
0.000212805
0.000236006
0.00042271
0.000552168
0.00061047
0.000600131
0.000534814
0.000510761
0.000534135
0.000592295
0.00055162
0.000428025
0.00021445
-7.54512e-05
-0.000482345
-0.259242
-0.781861
-0.857417
-0.857405
-0.858297
-0.855881
-0.85406
-0.851755
-0.848964
-0.840262
-0.810538
-0.766222
-0.650076
-0.356357
-0.0437878
0.105982
0.189338
0.239675
0.269712
0.285431
0.311293
0.33548
0.358213
0.378487
0.395435
0.410861
0.426308
0.440133
0.455381
0.465963
0.472734
0.478748
0.485956
0.49508
0.503207
0.512647
0.520637
0.528919
0.537413
0.546554
0.557205
0.568432
0.579862
0.59083
0.601458
0.613029
0.624671
0.635564
0.64547
0.655844
0.665649
0.674462
0.684096
0.694777
0.708751
0.723675
0.742512
0.765367
0.793386
0.828504
0.873231
0.930606
0.987812
1.03071
1.05612
1.07025
1.06926
1.05706
1.03374
1.0002
0.960352
0.921134
0.888841
0.863512
0.846439
0.832813
0.823734
0.815841
-5.28068e-05
-2.56306e-05
-3.06643e-05
-2.9043e-05
-2.54282e-05
-2.65968e-05
-2.95504e-05
-1.86589e-05
-2.26105e-05
-2.71436e-05
-8.47138e-06
-4.94291e-06
-1.35761e-05
4.39941e-06
2.82038e-05
2.58322e-05
4.33909e-05
8.50883e-05
8.34006e-05
6.47015e-05
9.6467e-05
0.000165936
0.000233344
0.000260801
0.000276905
0.000293206
0.000258407
0.000218155
0.000275547
0.000514358
0.000644698
0.000723027
0.000677958
0.000648005
0.000542721
0.000719667
0.000687721
0.00121959
0.00111474
0.00322815
0.00117075
-0.413457
-0.84433
-0.866886
-0.865485
-0.865328
-0.863009
-0.85998
-0.854935
-0.85035
-0.839622
-0.782108
-0.672984
-0.436022
-0.11704
0.1104
0.229898
0.291708
0.330539
0.353079
0.367757
0.386074
0.403882
0.42087
0.436027
0.452231
0.468852
0.483953
0.496984
0.507599
0.516261