/*--------------------------------*- C++ -*----------------------------------*\
| =========                 |                                                 |
| \\      /  F ield         | OpenFOAM: The Open Source CFD Toolbox           |
|  \\    /   O peration     | Version:  2.2.x                                 |
|   \\  /    A nd           | Web:      www.OpenFOAM.org                      |
|    \\/     M anipulation  |                                                 |
\*---------------------------------------------------------------------------*/
FoamFile
{
    version     2.0;
    format      ascii;
    class       volScalarField;
    location    "3";
    object      T;
}
// * * * * * * * * * * * * * * * * * * * * * * * * * * * * * * * * * * * * * //

dimensions      [0 0 0 1 0 0 0];

internalField   nonuniform List<scalar> 
14161
(
0.983172
0.987502
0.986682
0.986436
0.985957
0.985403
0.984794
0.984151
0.983385
0.9826
0.981762
0.98086
0.979997
0.979131
0.978242
0.977501
0.976676
0.975778
0.974889
0.97417
0.973597
0.973122
0.972838
0.972627
0.972397
0.972302
0.972404
0.972612
0.973004
0.973565
0.974409
0.975454
0.977025
0.9785
0.980285
0.982971
0.985675
0.989342
0.993725
0.997939
1.00438
1.00924
1.02528
1.03244
2.59809
2.89715
2.92787
2.8984
2.8777
2.85381
2.83536
2.81991
2.80485
2.78831
2.77207
2.76163
2.75246
2.74107
2.73189
2.72567
2.71916
2.7138
2.70944
2.70564
2.70155
2.69755
2.69355
2.69047
2.68829
2.68643
2.6855
2.68626
2.68686
2.6873
2.68804
2.6893
2.69133
2.68813
2.68546
2.68558
2.68272
2.67566
2.67181
2.6652
2.65985
2.65071
2.64161
2.63418
2.62399
2.61454
2.60565
2.59725
2.58835
2.57992
2.57172
2.56494
2.55816
2.55274
2.54599
2.55147
2.52106
2.49486
2.46123
2.414
2.37125
2.30627
2.29459
2.28913
2.29172
2.29052
2.25539
2.41178
2.65419
2.81424
2.97682
3.02595
3.13338
3.17433
3.26224
0.983126
0.987494
0.98664
0.986369
0.985953
0.985471
0.984781
0.984082
0.983369
0.982632
0.981723
0.980824
0.979975
0.97909
0.978238
0.977474
0.976641
0.975737
0.974863
0.974155
0.973575
0.973095
0.972803
0.972593
0.972367
0.972273
0.972374
0.972582
0.972979
0.973581
0.974411
0.975403
0.976676
0.978344
0.980627
0.982706
0.985419
0.988929
0.992938
0.997365
1.00274
1.01377
1.02083
1.56666
2.83394
3.08853
3.06864
3.02537
2.97821
2.94067
2.90593
2.87513
2.8463
2.82046
2.79851
2.77903
2.75803
2.74231
2.73032
2.71648
2.70349
2.69353
2.68452
2.67583
2.66727
2.65798
2.6488
2.64133
2.63531
2.63043
2.62561
2.62063
2.61647
2.6136
2.61121
2.60865
2.60928
2.6042
2.60043
2.5977
2.59381
2.58606
2.58105
2.57315
2.5665
2.55788
2.54968
2.54291
2.53414
2.52636
2.51879
2.51134
2.50377
2.49601
2.48911
2.48286
2.47754
2.47222
2.46771
2.47021
2.44014
2.41234
2.38738
2.34252
2.29963
2.23501
2.21884
2.21272
2.21628
2.24291
2.55471
2.76203
2.98445
3.14412
3.24829
3.26338
3.2882
3.23668
3.28301
0.983152
0.987491
0.986648
0.986383
0.98593
0.985389
0.984805
0.984192
0.983356
0.982545
0.981723
0.980869
0.979971
0.979116
0.978263
0.977463
0.976635
0.97572
0.974875
0.974163
0.973575
0.973099
0.972756
0.972559
0.972312
0.972213
0.972288
0.97255
0.972867
0.973386
0.974144
0.975205
0.976537
0.977978
0.979796
0.982101
0.985068
0.988069
0.991199
0.994067
0.998112
1.00176
1.01279
1.10267
2.60684
2.96318
2.91898
2.89717
2.867
2.84929
2.82177
2.79761
2.77664
2.75503
2.73324
2.71483
2.69594
2.67988
2.66467
2.65033
2.63827
2.62754
2.61759
2.60913
2.60062
2.59195
2.58535
2.57901
2.57287
2.56884
2.56535
2.56238
2.55968
2.55691
2.55375
2.54992
2.55204
2.54717
2.54269
2.5404
2.53849
2.53212
2.52771
2.52055
2.51439
2.50678
2.49972
2.49345
2.48527
2.47826
2.47042
2.46322
2.45546
2.4475
2.43986
2.43276
2.42644
2.4198
2.41521
2.41662
2.38535
2.36132
2.33086
2.29453
2.25996
2.20607
2.19159
2.20371
2.25281
2.55302
2.73203
2.85687
2.9787
3.10249
3.21701
3.24327
3.29231
3.22387
3.23278
0.983141
0.98749
0.986634
0.986361
0.985945
0.985462
0.984774
0.984082
0.983368
0.982632
0.981711
0.980806
0.979969
0.979116
0.978223
0.977414
0.976583
0.97571
0.974851
0.974139
0.973525
0.973035
0.97268
0.972491
0.972253
0.972119
0.972159
0.972341
0.972685
0.973189
0.973969
0.974834
0.976051
0.977501
0.979338
0.981374
0.983586
0.986328
0.989053
0.991636
0.994442
0.993797
0.980278
1.02966
2.42446
2.88606
2.84981
2.83422
2.80666
2.79312
2.76646
2.74619
2.72881
2.70641
2.69221
2.67518
2.6591
2.6437
2.63198
2.62324
2.61406
2.60571
2.59774
2.59082
2.58427
2.57858
2.5734
2.56861
2.56463
2.5622
2.5603
2.5586
2.55655
2.55476
2.55432
2.5542
2.55467
2.55161
2.54713
2.54821
2.53788
2.53462
2.52831
2.52097
2.51469
2.50787
2.50151
2.49575
2.48927
2.48344
2.47676
2.47007
2.46261
2.45514
2.44788
2.44044
2.4342
2.42685
2.42245
2.42294
2.3939
2.36823
2.34775
2.30388
2.27363
2.21679
2.21148
2.30531
2.6295
2.79951
2.99573
3.0596
3.0706
3.11076
3.18156
3.219
3.29383
3.22609
3.23128
0.983148
0.987486
0.986671
0.986432
0.985922
0.985358
0.984786
0.984174
0.983341
0.982525
0.98171
0.98087
0.97995
0.979056
0.978217
0.97738
0.976566
0.975644
0.974838
0.974101
0.973462
0.972949
0.972534
0.972332
0.972131
0.971987
0.971961
0.97214
0.972403
0.972833
0.973491
0.974311
0.975446
0.976765
0.978201
0.980111
0.982295
0.98481
0.986779
0.988869
0.989716
0.987479
0.983718
0.989568
2.3753
2.85644
2.83018
2.81469
2.80585
2.80501
2.78597
2.77756
2.76748
2.74473
2.73513
2.71474
2.70123
2.68874
2.67931
2.6696
2.66347
2.65673
2.65
2.64463
2.63923
2.63558
2.63247
2.62928
2.62655
2.6234
2.62272
2.62246
2.62243
2.62249
2.6231
2.62355
2.62266
2.61982
2.61537
2.61713
2.60651
2.60149
2.59377
2.58547
2.578
2.5702
2.56312
2.55643
2.54963
2.54307
2.53559
2.5277
2.51993
2.51218
2.50457
2.49666
2.48995
2.48159
2.4766
2.47625
2.43969
2.41381
2.39743
2.35113
2.32342
2.27399
2.3865
2.72803
2.91533
3.06989
3.1166
3.1133
3.09982
3.10308
3.15874
3.19061
3.26272
3.21344
3.21267
0.983163
0.987494
0.986629
0.986352
0.985939
0.985456
0.984759
0.984059
0.983349
0.982604
0.981686
0.980784
0.979925
0.979058
0.978199
0.977319
0.976499
0.975631
0.974795
0.974039
0.973362
0.97284
0.972408
0.972164
0.972019
0.971842
0.97174
0.971885
0.972077
0.972442
0.972972
0.973731
0.974606
0.975759
0.977082
0.978692
0.98041
0.982471
0.985081
0.987454
0.990029
0.990965
0.99128
0.992894
2.42832
2.89989
2.86817
2.85832
2.83501
2.82837
2.80834
2.80047
2.78418
2.76153
2.7542
2.72832
2.71686
2.70185
2.69135
2.68047
2.67423
2.66759
2.65931
2.65256
2.64463
2.63962
2.63351
2.62909
2.62484
2.62038
2.6182
2.61707
2.61701
2.61741
2.61802
2.61861
2.61611
2.61505
2.6128
2.61637
2.60561
2.60386
2.59934
2.59339
2.58824
2.58192
2.57593
2.56912
2.56223
2.55485
2.54792
2.53898
2.53164
2.52635
2.52144
2.51539
2.51029
2.50359
2.49779
2.49518
2.45703
2.43445
2.40084
2.37126
2.32923
2.37657
2.72988
2.91494
3.12965
3.15274
3.14948
3.12605
3.10384
3.09411
3.14087
3.16946
3.24273
3.20911
3.20302
0.983184
0.987492
0.986648
0.986376
0.985917
0.985359
0.984774
0.984142
0.983331
0.9825
0.981683
0.98084
0.9799
0.979007
0.978168
0.977282
0.976434
0.975575
0.97475
0.973979
0.973261
0.9727
0.972239
0.971904
0.971808
0.971641
0.971528
0.971508
0.971644
0.971893
0.972316
0.972911
0.97362
0.974559
0.975614
0.976769
0.978454
0.980637
0.983555
0.987477
0.993131
0.999525
1.01237
1.06216
2.5224
2.95938
2.91591
2.90184
2.86793
2.85259
2.82657
2.80618
2.78733
2.75709
2.74085
2.71218
2.69449
2.67565
2.66486
2.64634
2.6356
2.62383
2.61242
2.60172
2.592
2.58294
2.5748
2.56775
2.56244
2.55885
2.55542
2.55264
2.55175
2.55097
2.55402
2.55278
2.55569
2.554
2.55255
2.55773
2.54835
2.54544
2.5439
2.53932
2.53638
2.53171
2.52792
2.52268
2.51772
2.51281
2.50842
2.50146
2.49584
2.49146
2.48725
2.48255
2.47899
2.4736
2.46827
2.4643
2.429
2.40327
2.38056
2.35178
2.37271
2.7105
2.88119
2.99218
3.08419
3.11356
3.12147
3.12348
3.11136
3.08539
3.12548
3.15132
3.22319
3.201
3.18867
0.98321
0.987511
0.986656
0.986381
0.985917
0.985376
0.984776
0.984058
0.983333
0.982558
0.981673
0.980804
0.979877
0.978985
0.978142
0.977248
0.976357
0.975512
0.974666
0.973917
0.973162
0.97255
0.972059
0.971674
0.971547
0.971392
0.971243
0.971105
0.971139
0.971274
0.971574
0.971946
0.972448
0.973059
0.973821
0.974501
0.975483
0.977144
0.979582
0.983087
0.987229
0.992294
1.00034
1.04531
2.51804
2.97429
2.94361
2.91312
2.86953
2.84355
2.80631
2.77257
2.74674
2.70571
2.68084
2.6327
2.61297
2.58611
2.57104
2.55102
2.53319
2.5167
2.49918
2.48922
2.47602
2.46936
2.46099
2.45094
2.45078
2.44421
2.44086
2.43907
2.43802
2.43629
2.43936
2.43681
2.43771
2.43743
2.43816
2.44344
2.4384
2.43693
2.43609
2.43544
2.43474
2.43479
2.43379
2.43087
2.42827
2.42439
2.42118
2.41803
2.41313
2.41163
2.41248
2.40837
2.40668
2.40324
2.39968
2.397
2.37385
2.35697
2.33599
2.35442
2.64203
2.82695
3.04655
3.05734
3.08296
3.10144
3.11257
3.12323
3.11314
3.0789
3.11212
3.13823
3.20831
3.1943
3.17867
0.98324
0.987521
0.986657
0.986363
0.985941
0.985444
0.984768
0.98407
0.983352
0.982504
0.98167
0.980804
0.97987
0.978953
0.978106
0.977201
0.976283
0.975445
0.974605
0.973822
0.973052
0.972379
0.971854
0.971411
0.971161
0.971027
0.970886
0.970607
0.970519
0.970548
0.970648
0.970758
0.97107
0.971348
0.971725
0.97223
0.972773
0.973761
0.975616
0.978882
0.984377
0.993831
1.00506
1.0494
2.47264
2.98565
2.92028
2.84562
2.79268
2.75501
2.69654
2.65497
2.62464
2.57558
2.5587
2.50681
2.50139
2.47466
2.44038
2.45017
2.41873
2.39688
2.39613
2.38014
2.37076
2.36864
2.35836
2.35629
2.35492
2.35126
2.34958
2.3483
2.34719
2.34625
2.34805
2.34578
2.34573
2.34501
2.3447
2.34854
2.34284
2.34035
2.33783
2.33528
2.33425
2.33109
2.32925
2.32757
2.32557
2.32335
2.32157
2.31981
2.31588
2.31617
2.31932
2.31671
2.32063
2.32282
2.32356
2.32839
2.31604
2.29697
2.31063
2.59955
2.75735
2.81897
2.91788
2.95629
3.00931
3.05299
3.08235
3.10288
3.10828
3.07506
3.10037
3.12841
3.19383
3.18665
3.16878
0.983277
0.98753
0.986697
0.986429
0.985938
0.985373
0.984784
0.984145
0.983342
0.982503
0.981664
0.980802
0.979867
0.978927
0.978051
0.977154
0.976214
0.975354
0.974536
0.973712
0.972919
0.972201
0.971609
0.971131
0.97075
0.970608
0.970406
0.970128
0.96984
0.969718
0.969647
0.96957
0.969557
0.969409
0.969218
0.968916
0.968645
0.968105
0.967506
0.965957
0.965107
0.962873
0.965502
0.965094
2.26752
2.92311
2.7413
2.68538
2.62049
2.60304
2.52128
2.52119
2.47762
2.44398
2.42739
2.40136
2.40577
2.36868
2.35434
2.36215
2.33876
2.32911
2.32498
2.31504
2.31451
2.31076
2.30829
2.3081
2.30684
2.30562
2.30484
2.30365
2.30183
2.30128
2.30183
2.30112
2.30123
2.30048
2.29991
2.3035
2.29797
2.29502
2.29243
2.28862
2.28564
2.28287
2.27831
2.27509
2.27272
2.26901
2.26549
2.26209
2.25689
2.25573
2.25869
2.25919
2.2614
2.26205
2.2673
2.27373
2.2681
2.32941
2.6174
2.70955
2.90304
2.90138
2.92059
2.93624
2.99105
3.03257
3.07006
3.09788
3.10775
3.07352
3.08969
3.11897
3.17956
3.1759
3.15764
0.983315
0.987555
0.986685
0.986388
0.985964
0.985461
0.98478
0.984064
0.983357
0.982591
0.981662
0.980759
0.979867
0.978905
0.978003
0.977116
0.976127
0.975229
0.974422
0.97358
0.97273
0.971995
0.971339
0.970805
0.97032
0.970075
0.969824
0.969535
0.969033
0.96874
0.968502
0.968241
0.967883
0.967371
0.966926
0.966269
0.965232
0.963756
0.962087
0.95941
0.956247
0.950794
0.939802
0.943031
1.5821
2.49294
2.42624
2.52936
2.44662
2.47207
2.39891
2.45431
2.38438
2.41723
2.37925
2.37749
2.37271
2.33586
2.34399
2.34648
2.33315
2.32942
2.32902
2.32607
2.32451
2.32574
2.3239
2.32562
2.32425
2.32318
2.32148
2.32013
2.31762
2.31878
2.32041
2.31859
2.3168
2.31576
2.31281
2.31514
2.30828
2.30307
2.29923
2.29227
2.28717
2.28294
2.27664
2.2705
2.26737
2.26361
2.26131
2.25829
2.25223
2.2521
2.25099
2.24947
2.26116
2.26779
2.28432
2.32405
2.45458
2.66956
2.7566
2.90919
2.82035
2.77888
2.80073
2.84304
2.91613
2.96704
3.02898
3.07528
3.09884
3.06775
3.07885
3.11115
3.16721
3.16844
3.14815
0.983359
0.987567
0.986723
0.986443
0.985965
0.9854
0.984802
0.984146
0.983346
0.982518
0.981672
0.980805
0.979878
0.978884
0.977938
0.977048
0.976084
0.975117
0.974292
0.973435
0.972523
0.971761
0.971061
0.970459
0.969849
0.969476
0.969191
0.968878
0.968272
0.967757
0.967342
0.966899
0.966352
0.965592
0.96448
0.962868
0.96122
0.95764
0.951973
0.942188
0.92597
0.902116
0.860069
0.854301
1.352
2.27958
2.36408
2.35822
2.41082
2.50242
2.43473
2.49139
2.41191
2.46524
2.3938
2.43346
2.40217
2.38546
2.38466
2.38007
2.36971
2.36526
2.36158
2.35854
2.35644
2.34976
2.34666
2.34561
2.34159
2.33884
2.33524
2.33432
2.33248
2.33472
2.33753
2.33565
2.33467
2.33442
2.33136
2.34029
2.33085
2.32638
2.32351
2.31731
2.31195
2.30806
2.30026
2.29229
2.28894
2.28414
2.28045
2.27691
2.27114
2.27878
2.28942
2.29892
2.32195
2.37653
2.47655
2.62069
2.79383
2.89127
2.96049
2.94964
2.87854
2.79579
2.79235
2.83064
2.8943
2.94326
3.00999
3.06557
3.09637
3.0666
3.07038
3.10148
3.15524
3.15812
3.13866
0.983405
0.987602
0.986732
0.986428
0.985993
0.985474
0.984816
0.984093
0.983363
0.982584
0.981669
0.980754
0.979877
0.978863
0.977884
0.976983
0.976018
0.974993
0.974123
0.973249
0.972268
0.971452
0.970753
0.970059
0.969393
0.968802
0.968453
0.96804
0.967525
0.966706
0.966106
0.965518
0.964864
0.96396
0.962881
0.961317
0.959821
0.957981
0.956727
0.953076
0.954756
0.94245
0.968971
0.962658
1.85258
2.28725
2.38761
2.43861
2.53606
2.5843
2.5256
2.5418
2.49023
2.5247
2.4552
2.47555
2.44289
2.40511
2.42386
2.39972
2.39264
2.38353
2.37554
2.37147
2.36654
2.36006
2.3587
2.35589
2.35386
2.35311
2.3504
2.35141
2.35025
2.35238
2.35635
2.35468
2.35371
2.3526
2.34992
2.35724
2.34819
2.34433
2.34184
2.3369
2.3344
2.3309
2.32468
2.31905
2.32337
2.32455
2.32666
2.33245
2.33878
2.37545
2.40996
2.4711
2.57746
2.69964
2.79305
2.91048
2.97596
3.03551
2.95202
2.89438
2.81666
2.73843
2.73297
2.78314
2.85274
2.90649
2.98125
3.05206
3.09132
3.06468
3.06394
3.09393
3.1455
3.15051
3.13023
0.983456
0.987618
0.986777
0.986494
0.986012
0.985439
0.984837
0.984166
0.983367
0.982543
0.981693
0.980757
0.979856
0.978857
0.977828
0.976883
0.975943
0.974877
0.973945
0.973034
0.972008
0.971113
0.970366
0.969647
0.968883
0.968171
0.967579
0.967157
0.966677
0.965741
0.964903
0.964172
0.963447
0.9626
0.961664
0.960702
0.959958
0.959891
0.960288
0.963244
0.97025
0.979541
1.03631
1.5578
2.15414
2.27275
2.27697
2.36509
2.55152
2.5365
2.60922
2.52498
2.53976
2.49349
2.4777
2.46294
2.43529
2.42598
2.42128
2.40602
2.39996
2.38547
2.37874
2.37971
2.37147
2.36745
2.37064
2.3677
2.36765
2.36736
2.36493
2.36656
2.36622
2.36659
2.37134
2.36967
2.36799
2.36887
2.3719
2.37596
2.36892
2.37239
2.37258
2.37191
2.37603
2.3769
2.38469
2.38714
2.41474
2.43933
2.46591
2.51592
2.57932
2.66153
2.75108
2.83853
2.91085
2.98467
3.05442
3.07329
3.07667
3.03172
2.94766
2.8766
2.83879
2.7615
2.74227
2.79001
2.85015
2.90081
2.97339
3.04614
3.08797
3.06526
3.05824
3.08669
3.13592
3.14361
3.1215
0.983509
0.987663
0.986793
0.986485
0.986046
0.985516
0.984861
0.984143
0.983386
0.982589
0.981707
0.980752
0.979832
0.978854
0.977776
0.976782
0.975823
0.974788
0.973741
0.97276
0.97174
0.970754
0.969913
0.969185
0.968306
0.967461
0.966697
0.96615
0.965592
0.964926
0.963733
0.962809
0.96204
0.961249
0.960423
0.95956
0.958599
0.958089
0.958071
0.957475
0.959862
0.955954
0.988911
1.86827
2.20536
2.23866
2.21663
2.27746
2.40171
2.52322
2.62147
2.56234
2.61579
2.5243
2.54287
2.4905
2.46193
2.46864
2.45586
2.44645
2.43083
2.41765
2.40981
2.40924
2.40558
2.40334
2.40793
2.40653
2.4065
2.40608
2.40501
2.40894
2.40734
2.40939
2.414
2.41341
2.41461
2.41454
2.42667
2.43106
2.43042
2.44716
2.45806
2.47213
2.49986
2.52427
2.56095
2.60512
2.66869
2.74225
2.80226
2.86381
2.91127
2.96393
3.03292
3.0624
3.10245
3.1154
3.13965
3.10668
3.05564
3.01465
2.94176
2.86202
2.80148
2.73092
2.71272
2.77315
2.83335
2.88885
2.96475
3.04352
3.08734
3.06466
3.05373
3.08002
3.12744
3.13774
3.11353
0.983567
0.987686
0.986846
0.986551
0.986076
0.9855
0.984891
0.984215
0.983406
0.982571
0.981738
0.980761
0.979807
0.978848
0.977731
0.976669
0.975701
0.974692
0.97353
0.97247
0.971428
0.970368
0.969397
0.968621
0.96776
0.966688
0.965809
0.965
0.964469
0.963788
0.962734
0.961517
0.960631
0.95984
0.959119
0.958356
0.957284
0.955905
0.952956
0.948844
0.941441
0.928923
0.907202
1.95015
2.21535
2.24077
2.22513
2.25352
2.27167
2.47734
2.51066
2.64953
2.59453
2.59637
2.56949
2.50655
2.50128
2.46192
2.46556
2.4494
2.44169
2.43501
2.42923
2.42994
2.42584
2.42022
2.42589
2.42659
2.42766
2.4331
2.43522
2.44542
2.44788
2.45499
2.47271
2.48478
2.49635
2.52467
2.54616
2.57567
2.59883
2.64383
2.69401
2.74747
2.79653
2.84548
2.89148
2.92683
2.96946
3.01059
3.05368
3.08732
3.10651
3.12148
3.14853
3.15288
3.15564
3.1412
3.12542
3.10385
3.05727
3.00226
2.9345
2.85625
2.81469
2.74829
2.72831
2.78479
2.84165
2.89324
2.96647
3.04218
3.08709
3.06536
3.04864
3.0737
3.12025
3.13239
3.10637
0.983628
0.987741
0.986871
0.986561
0.986117
0.985574
0.98492
0.984213
0.983452
0.982595
0.981753
0.980785
0.97979
0.978819
0.977709
0.976579
0.975565
0.974552
0.973371
0.972165
0.97105
0.969941
0.968883
0.967982
0.967116
0.965897
0.96483
0.963845
0.963134
0.962463
0.961729
0.960252
0.959159
0.958398
0.957846
0.957485
0.957009
0.956924
0.956455
0.95932
0.954173
0.976734
1.08932
2.07988
2.25931
2.26599
2.27372
2.27664
2.2804
2.32297
2.4376
2.63755
2.59088
2.6452
2.5349
2.53088
2.49217
2.45135
2.47172
2.45324
2.44641
2.44619
2.44035
2.44085
2.44181
2.43153
2.44698
2.45202
2.4642
2.47993
2.50188
2.52499
2.55285
2.57707
2.61391
2.65713
2.70299
2.75193
2.80022
2.84535
2.89029
2.92407
2.96207
2.99135
3.02427
3.05825
3.09186
3.11794
3.13316
3.15415
3.1665
3.17106
3.17312
3.16667
3.16442
3.15939
3.15089
3.1328
3.11537
3.09414
3.04721
2.99622
2.92809
2.84909
2.80438
2.74049
2.7234
2.77992
2.84163
2.89598
2.96759
3.04226
3.0883
3.06444
3.04494
3.06859
3.11435
3.12673
3.09932
0.983692
0.987786
0.986927
0.986637
0.986158
0.985585
0.984963
0.984285
0.983488
0.98262
0.981767
0.98083
0.979772
0.97877
0.977699
0.976492
0.975394
0.974369
0.973245
0.971859
0.970627
0.96946
0.968325
0.967252
0.966324
0.965171
0.963782
0.962669
0.961615
0.961002
0.960094
0.959232
0.957687
0.956769
0.956219
0.956024
0.956246
0.957685
0.958973
0.963605
0.96696
0.998838
1.51498
2.26482
2.30693
2.29599
2.28308
2.27674
2.26227
2.25737
2.27461
2.44968
2.47891
2.58796
2.48022
2.53796
2.45345
2.44465
2.4654
2.48286
2.44897
2.46818
2.46448
2.47728
2.48995
2.50296
2.53015
2.5557
2.59451
2.63952
2.69323
2.73882
2.78178
2.82411
2.85953
2.89516
2.93221
2.96269
2.99594
3.0232
3.04524
3.07716
3.10146
3.12395
3.14174
3.15274
3.16295
3.17078
3.17697
3.18414
3.1859
3.1813
3.17216
3.16081
3.1569
3.151
3.14378
3.12896
3.10933
3.08977
3.04476
2.98804
2.9257
2.85142
2.80933
2.75124
2.73226
2.7865
2.84865
2.90356
2.97409
3.04719
3.08976
3.0645
3.04152
3.06391
3.10951
3.12142
3.09342
0.983759
0.987833
0.986973
0.986679
0.986197
0.985668
0.985007
0.984301
0.983554
0.982666
0.981778
0.980874
0.979778
0.978727
0.977669
0.976409
0.975212
0.9742
0.97307
0.971614
0.970205
0.968906
0.967688
0.966458
0.965448
0.964354
0.962709
0.961336
0.960107
0.959211
0.958455
0.957427
0.956386
0.954637
0.953629
0.952954
0.952299
0.951717
0.951428
0.952534
0.952197
0.975077
1.91755
2.29764
2.31448
2.29533
2.28034
2.2749
2.25538
2.23652
2.22918
2.24904
2.31042
2.44525
2.47729
2.57088
2.49612
2.4661
2.49585
2.51881
2.49587
2.53288
2.56578
2.58204
2.63889
2.69732
2.73808
2.78332
2.82785
2.86662
2.91528
2.95644
3.00105
3.03458
3.0548
3.0644
3.08299
3.10689
3.12282
3.13119
3.13652
3.14325
3.15095
3.15689
3.16432
3.1732
3.17491
3.17303
3.17335
3.17485
3.17834
3.1743
3.16735
3.1577
3.15341
3.14536
3.13542
3.12005
3.09944
3.0795
3.03671
2.98539
2.92275
2.85009
2.81241
2.75544
2.73739
2.79191
2.8549
2.91126
2.98045
3.04744
3.09066
3.06373
3.03847
3.05973
3.1054
3.11598
3.08795
0.98383
0.987879
0.987019
0.986713
0.986266
0.985723
0.98506
0.984359
0.983617
0.98272
0.981805
0.980902
0.979805
0.97869
0.977609
0.976345
0.975065
0.973936
0.972789
0.971508
0.969816
0.968342
0.966972
0.965616
0.964399
0.963274
0.961827
0.959959
0.958502
0.957205
0.956438
0.955407
0.954432
0.952798
0.951015
0.949624
0.948275
0.946482
0.944554
0.94077
0.932902
0.934013
1.93608
2.26924
2.29096
2.27575
2.27716
2.2694
2.25431
2.2405
2.23502
2.19688
2.25701
2.32077
2.53218
2.48717
2.5707
2.50937
2.58802
2.63288
2.66181
2.71387
2.76468
2.81327
2.85264
2.90067
2.93825
2.97576
3.00769
3.02525
3.03584
3.04747
3.06643
3.08589
3.09979
3.10982
3.12299
3.13617
3.1476
3.1562
3.15644
3.15481
3.15282
3.15272
3.15696
3.16339
3.17033
3.16852
3.16838
3.16765
3.1721
3.16722
3.16098
3.15127
3.14719
3.14074
3.12954
3.11493
3.09507
3.07486
3.03419
2.98043
2.92041
2.85019
2.81827
2.76377
2.74767
2.8001
2.86212
2.917
2.98762
3.05296
3.09226
3.06331
3.03596
3.0558
3.10209
3.11113
3.08182
0.983903
0.987928
0.987084
0.986793
0.986315
0.985781
0.985125
0.984407
0.983678
0.982788
0.981832
0.980908
0.979869
0.978662
0.977522
0.976307
0.974944
0.973636
0.972524
0.97122
0.969585
0.967826
0.966236
0.964728
0.963181
0.962157
0.96084
0.958717
0.956816
0.955211
0.953913
0.95303
0.951732
0.950353
0.947664
0.945051
0.942685
0.939362
0.936206
0.925935
0.928294
0.942833
2.03489
2.25871
2.26853
2.26834
2.2737
2.26477
2.25477
2.2498
2.22772
2.22019
2.23876
2.38512
2.49578
2.64795
2.75591
2.74715
2.81046
2.88097
2.92887
2.9716
2.9947
3.01529
3.03124
3.04234
3.0536
3.06288
3.07103
3.07534
3.08209
3.0923
3.1051
3.11407
3.11789
3.12088
3.12547
3.13318
3.14208
3.14954
3.15303
3.15262
3.15058
3.14893
3.15145
3.15499
3.16422
3.16265
3.1608
3.15828
3.16099
3.16094
3.157
3.14781
3.14348
3.13417
3.12273
3.10701
3.08743
3.06737
3.02922
2.97756
2.92071
2.85205
2.82023
2.76865
2.75599
2.80729
2.87054
2.92619
2.98848
3.0496
3.08936
3.06021
3.03283
3.05223
3.09932
3.10569
3.07748
0.983981
0.987983
0.987146
0.986863
0.986374
0.98585
0.985207
0.98447
0.98373
0.982887
0.981879
0.980916
0.979918
0.978667
0.977445
0.976252
0.974817
0.973364
0.972161
0.970873
0.969422
0.967322
0.965517
0.963782
0.961967
0.960753
0.959504
0.95794
0.955333
0.953206
0.951322
0.950147
0.949015
0.94768
0.945996
0.944208
0.943974
0.944128
0.948519
0.947632
0.978386
1.43942
2.25357
2.30518
2.30088
2.29432
2.29226
2.28681
2.28706
2.28883
2.29372
2.27739
2.35858
2.56249
2.73648
2.85579
2.96226
2.98659
3.0135
3.02137
3.03756
3.05775
3.07859
3.08882
3.08915
3.08148
3.08427
3.08585
3.08589
3.08178
3.08117
3.08795
3.09804
3.10512
3.10836
3.11221
3.11725
3.12341
3.12982
3.13817
3.14606
3.14911
3.1482
3.14579
3.14634
3.14842
3.15854
3.15872
3.15609
3.15138
3.15123
3.15298
3.15113
3.14046
3.13509
3.12555
3.11464
3.09989
3.08168
3.06236
3.02683
2.97692
2.92185
2.85524
2.82758
2.77423
2.76158
2.81112
2.87446
2.9282
2.99547
3.05211
3.08728
3.05822
3.03103
3.04959
3.09718
3.10118
3.07106
0.984062
0.988043
0.987212
0.986934
0.986443
0.98592
0.985308
0.98456
0.983792
0.982984
0.981948
0.980937
0.979934
0.978719
0.977401
0.97616
0.974746
0.973201
0.971738
0.970541
0.969051
0.966942
0.964821
0.962853
0.960968
0.959126
0.957929
0.956326
0.954475
0.951549
0.949056
0.946911
0.945637
0.94396
0.941976
0.939109
0.936767
0.934401
0.934135
0.929807
0.950776
1.81956
2.25951
2.29983
2.29638
2.29648
2.29442
2.29484
2.29192
2.29978
2.3368
2.34642
2.5254
2.76686
2.92764
3.05133
3.07002
3.08346
3.08633
3.08466
3.08694
3.08934
3.09596
3.09861
3.0978
3.092
3.08675
3.08413
3.08096
3.07813
3.07631
3.07875
3.08531
3.08895
3.09334
3.0986
3.10482
3.11166
3.11868
3.12712
3.1359
3.14061
3.14095
3.13925
3.13907
3.13976
3.1474
3.14876
3.14655
3.14292
3.14179
3.14512
3.14469
3.13492
3.12901
3.1194
3.10913
3.09508
3.07739
3.05787
3.02364
2.97596
2.92156
2.85747
2.83151
2.78341
2.77401
2.82259
2.88664
2.93903
2.99502
3.04732
3.08237
3.05437
3.02779
3.04615
3.09459
3.09605
3.06755
0.984149
0.988106
0.987285
0.987011
0.986536
0.985986
0.985399
0.98466
0.983867
0.98306
0.982049
0.980971
0.979945
0.97879
0.977378
0.976053
0.974703
0.97304
0.971367
0.970128
0.96852
0.966649
0.964173
0.961973
0.959852
0.95774
0.956037
0.954482
0.952575
0.950687
0.947238
0.944445
0.942054
0.940131
0.937884
0.935053
0.931379
0.927438
0.92119
0.913566
0.905507
1.94923
2.28617
2.30931
2.30452
2.30606
2.30782
2.31426
2.3226
2.3382
2.4527
2.55866
2.81762
2.97179
3.0893
3.11484
3.1215
3.11522
3.11521
3.10768
3.1054
3.10058
3.09667
3.09413
3.08912
3.08349
3.07674
3.07095
3.06688
3.06363
3.06274
3.06155
3.0629
3.06425
3.07112
3.07833
3.08806
3.09697
3.10525
3.11434
3.12433
3.13103
3.13304
3.13269
3.13224
3.13287
3.13776
3.14035
3.14008
3.13713
3.13571
3.14029
3.14064
3.13093
3.12345
3.11334
3.10271
3.0888
3.07111
3.0519
3.01993
2.97385
2.92316
2.86301
2.83425
2.78539
2.77429
2.82188
2.88733
2.9391
2.99929
3.048
3.07969
3.05188
3.02674
3.04391
3.09283
3.09164
3.0601
0.984239
0.988175
0.987364
0.987097
0.986635
0.986069
0.985488
0.98478
0.983947
0.983126
0.982177
0.981039
0.979962
0.97884
0.977401
0.975977
0.974603
0.972933
0.971155
0.969627
0.968024
0.966187
0.96348
0.961096
0.958781
0.956531
0.954251
0.952228
0.950447
0.948372
0.946417
0.942256
0.938786
0.935969
0.932972
0.930453
0.927108
0.924947
0.915486
0.921395
0.95115
2.06873
2.29903
2.31631
2.3251
2.33243
2.33259
2.3453
2.37
2.40149
2.60677
2.82774
2.99005
3.08913
3.11889
3.1289
3.12901
3.12328
3.11653
3.11246
3.10625
3.10263
3.09581
3.09097
3.08559
3.08006
3.0729
3.06397
3.0578
3.05169
3.04794
3.04621
3.04644
3.04613
3.04992
3.05953
3.06947
3.07984
3.09009
3.10122
3.11171
3.12031
3.12409
3.125
3.12504
3.12562
3.12854
3.13132
3.13331
3.13141
3.12863
3.13271
3.13302
3.12412
3.11632
3.10583
3.09564
3.08277
3.06622
3.04766
3.01699
2.97442
2.92554
2.86769
2.844
2.79728
2.78766
2.8341
2.8991
2.94696
2.99604
3.04242
3.07361
3.04779
3.02326
3.03989
3.09028
3.08699
3.05773
0.984338
0.988253
0.987449
0.987188
0.986739
0.986169
0.985582
0.98491
0.984056
0.98321
0.982301
0.981139
0.980001
0.978854
0.977493
0.975926
0.974441
0.972865
0.970973
0.969205
0.967477
0.965527
0.962804
0.960323
0.957836
0.955324
0.952759
0.95008
0.947906
0.946104
0.9435
0.941408
0.936656
0.934001
0.932758
0.932566
0.93309
0.936939
0.93962
0.973752
1.48558
2.30852
2.35251
2.3432
2.33715
2.34086
2.34469
2.3811
2.45104
2.60848
2.83923
3.01045
3.09045
3.11079
3.10627
3.10944
3.10689
3.10471
3.10039
3.09767
3.09475
3.09399
3.09351
3.09165
3.0888
3.08332
3.0743
3.06149
3.05155
3.04318
3.03724
3.03133
3.03028
3.03286
3.03496
3.03815
3.04365
3.05622
3.07071
3.08516
3.0974
3.10638
3.11224
3.11475
3.11698
3.1178
3.11998
3.1224
3.1265
3.12724
3.12419
3.12668
3.12772
3.11926
3.11067
3.09978
3.08906
3.07662
3.06051
3.04208
3.01264
2.97066
2.92342
2.86848
2.84492
2.79665
2.78609
2.8316
2.89731
2.94606
2.99845
3.04202
3.07144
3.04567
3.02136
3.0372
3.08851
3.08195
3.04959
0.984441
0.988335
0.987543
0.987289
0.986848
0.986295
0.985688
0.985036
0.984192
0.983314
0.98241
0.981274
0.980058
0.978908
0.97759
0.975924
0.974284
0.972698
0.970889
0.968944
0.966933
0.9648
0.962201
0.959528
0.956832
0.953909
0.951069
0.948291
0.945378
0.943712
0.941282
0.938447
0.935134
0.930212
0.927541
0.925498
0.923901
0.923942
0.921266
0.93724
1.88301
2.32737
2.35186
2.34054
2.34016
2.34703
2.35199
2.44282
2.59723
2.84441
3.01269
3.08282
3.10161
3.09742
3.09801
3.09726
3.09172
3.08902
3.08603
3.08506
3.0853
3.08685
3.08859
3.08684
3.08475
3.07974
3.07136
3.05975
3.04978
3.04061
3.03429
3.02574
3.01909
3.01644
3.01702
3.01994
3.02546
3.03139
3.04516
3.0607
3.07591
3.08828
3.09783
3.10188
3.10682
3.10861
3.11106
3.11291
3.11706
3.11958
3.11699
3.11758
3.11827
3.111
3.1022
3.09166
3.08043
3.06856
3.05371
3.03668
3.0098
2.97248
2.92838
2.87684
2.85467
2.80891
2.79869
2.84148
2.90624
2.95073
2.99461
3.03591
3.065
3.04104
3.01617
3.03215
3.08496
3.07739
3.04828
0.984555
0.988425
0.987645
0.987399
0.986966
0.986431
0.985808
0.98516
0.984352
0.983434
0.982524
0.981441
0.98017
0.978975
0.977685
0.97595
0.97423
0.97254
0.970826
0.968809
0.966602
0.963988
0.961437
0.95916
0.956559
0.952697
0.949336
0.946208
0.943076
0.940904
0.938694
0.935407
0.933056
0.927321
0.92352
0.919705
0.91634
0.910451
0.902296
0.891805
1.96675
2.32726
2.34473
2.34004
2.34257
2.37742
2.42741
2.64276
2.84369
3.0304
3.09964
3.10672
3.09312
3.09098
3.08983
3.08796
3.08159
3.0775
3.07489
3.07412
3.07559
3.07768
3.08102
3.0797
3.07838
3.07392
3.06791
3.05914
3.05029
3.0405
3.0329
3.02504
3.01664
3.00875
3.0034
3.00232
3.00633
3.01257
3.0212
3.03586
3.05265
3.06895
3.08208
3.08879
3.09628
3.0987
3.10247
3.10472
3.109
3.11386
3.11279
3.11151
3.11229
3.10531
3.09614
3.0855
3.07369
3.06186
3.0479
3.03192
3.00673
2.96823
2.92437
2.87434
2.85201
2.80658
2.79549
2.83699
2.90209
2.94824
2.99716
3.03535
3.06312
3.0396
3.01368
3.02907
3.08325
3.07249
3.04047
0.984674
0.988523
0.987756
0.987519
0.987095
0.986576
0.985947
0.985301
0.984525
0.98358
0.982668
0.981611
0.980309
0.979079
0.977783
0.976028
0.974256
0.972511
0.970837
0.968855
0.96606
0.96343
0.960873
0.95886
0.956215
0.951641
0.947724
0.944084
0.94065
0.937735
0.935739
0.932308
0.928862
0.924769
0.919318
0.915137
0.912706
0.90495
0.912425
0.968045
2.1022
2.33157
2.33818
2.35273
2.36486
2.47743
2.60999
2.87955
3.03991
3.11232
3.11314
3.10212
3.09496
3.0886
3.08487
3.08041
3.07594
3.07193
3.07039
3.06938
3.07086
3.07164
3.07378
3.07187
3.07042
3.06592
3.0614
3.05465
3.04862
3.04125
3.03472
3.02624
3.01784
3.00728
2.99808
2.99118
2.9891
2.99291
3
3.0111
3.02746
3.04656
3.06412
3.07408
3.08405
3.08782
3.09273
3.0949
3.09863
3.10309
3.10274
3.10025
3.10049
3.09454
3.08606
3.07606
3.06453
3.05315
3.04008
3.02542
3.0029
2.96893
2.92869
2.88265
2.86203
2.81875
2.80695
2.84432
2.90795
2.95033
2.9924
3.02888
3.05602
3.03414
3.00666
3.02329
3.07842
3.06732
3.03885
0.984807
0.98863
0.987876
0.987651
0.987236
0.986732
0.986111
0.985463
0.9847
0.983763
0.982841
0.981791
0.980481
0.979225
0.977904
0.976143
0.974313
0.972538
0.970862
0.968787
0.965753
0.963024
0.960386
0.958534
0.955761
0.951085
0.946585
0.942489
0.938612
0.934633
0.932417
0.929399
0.925709
0.922987
0.92056
0.918447
0.922452
0.924245
0.95371
1.49762
2.31272
2.3705
2.36191
2.40016
2.46865
2.68799
2.87666
3.03449
3.10577
3.09961
3.09351
3.08491
3.08383
3.08187
3.08196
3.07785
3.07587
3.07228
3.07054
3.06809
3.06806
3.06663
3.06691
3.06446
3.06316
3.05913
3.056
3.05025
3.04554
3.03915
3.0336
3.02519
3.01673
3.0056
2.99527
2.98556
2.97875
2.97753
2.9819
2.99139
3.00434
3.02199
3.04161
3.05758
3.07119
3.07762
3.08391
3.08597