/*--------------------------------*- C++ -*----------------------------------*\
| =========                 |                                                 |
| \\      /  F ield         | OpenFOAM: The Open Source CFD Toolbox           |
|  \\    /   O peration     | Version:  2.2.x                                 |
|   \\  /    A nd           | Web:      www.OpenFOAM.org                      |
|    \\/     M anipulation  |                                                 |
\*---------------------------------------------------------------------------*/
FoamFile
{
    version     2.0;
    format      ascii;
    class       volVectorField;
    location    "3";
    object      U;
}
// * * * * * * * * * * * * * * * * * * * * * * * * * * * * * * * * * * * * * //

dimensions      [0 1 -1 0 0 0 0];

internalField   nonuniform List<vector> 
14161
(
(1.50519 -1.79287e-06 1.19564e-22)
(1.5042 8.57526e-07 -6.22501e-22)
(1.50439 2.7576e-06 -3.96422e-22)
(1.50448 3.71273e-06 -1.30864e-21)
(1.50463 -1.80534e-06 -1.62603e-21)
(1.50482 -5.45007e-06 -2.44435e-21)
(1.50501 1.55617e-06 -1.50194e-21)
(1.50521 4.07493e-06 -1.99908e-21)
(1.50546 1.2719e-07 -1.24142e-21)
(1.50572 -3.79804e-06 -1.90018e-21)
(1.50599 2.68695e-06 -1.54425e-21)
(1.50628 2.23582e-06 -1.48428e-21)
(1.50656 -1.70481e-07 -2.3049e-21)
(1.50684 -7.47019e-08 -1.61199e-21)
(1.50712 2.45362e-06 -2.44811e-21)
(1.50738 1.07003e-06 -2.29086e-21)
(1.50766 1.21667e-06 -2.44115e-21)
(1.50798 -5.65075e-07 -2.45853e-21)
(1.50827 1.35723e-07 -2.07679e-21)
(1.5085 2.08792e-06 -2.56614e-21)
(1.50868 3.0933e-06 -2.70344e-21)
(1.50881 4.19991e-06 -1.89898e-21)
(1.50891 1.40065e-06 -2.2725e-21)
(1.50899 6.26755e-07 -1.94833e-21)
(1.50907 1.87162e-06 -2.37879e-21)
(1.50911 2.70617e-06 -2.26441e-21)
(1.50909 3.20471e-06 -2.3313e-21)
(1.50903 2.23333e-06 -2.28316e-21)
(1.50892 4.07326e-06 -2.31672e-21)
(1.50876 4.2883e-06 -2.04802e-21)
(1.50852 4.27331e-06 -1.78086e-21)
(1.50821 1.44621e-05 -1.60994e-21)
(1.50775 1.51856e-05 -1.77051e-21)
(1.50735 3.27248e-06 -1.11137e-21)
(1.50684 1.51121e-06 -1.59545e-21)
(1.50606 1.51266e-05 -2.83767e-22)
(1.50523 3.86284e-05 -2.11734e-21)
(1.50413 3.14186e-05 -5.18898e-21)
(1.50288 4.83752e-05 2.57251e-21)
(1.50175 2.24108e-05 -9.75009e-21)
(1.49995 0.000121697 9.84558e-21)
(1.49803 0.000151288 4.40134e-21)
(1.49469 -0.000579608 -5.59092e-22)
(1.45234 -0.0342623 -1.88902e-18)
(0.703562 -0.00510145 -6.95512e-18)
(0.562746 0.00342593 -7.13025e-18)
(0.555872 -0.00526685 -3.52076e-18)
(0.574456 -0.0133936 -2.11691e-18)
(0.595772 -0.0149805 -2.2092e-19)
(0.617066 -0.0114906 1.8564e-20)
(0.635631 -0.0086068 1.17329e-19)
(0.652486 -0.00788287 1.57207e-19)
(0.667795 -0.00633356 1.97689e-19)
(0.681966 -0.00587425 2.24224e-19)
(0.695245 -0.00480763 2.46179e-19)
(0.706944 -0.00356115 2.69739e-19)
(0.716694 -0.00274122 3.14744e-19)
(0.724879 -0.00201208 3.59356e-19)
(0.732001 -0.00149932 4.36077e-19)
(0.738245 -0.00102096 5.07366e-19)
(0.743559 -0.000944387 5.31081e-19)
(0.747831 -0.00095699 5.1976e-19)
(0.751497 -0.000960394 5.16728e-19)
(0.755022 -0.000994413 5.25841e-19)
(0.758517 -0.00102464 5.26666e-19)
(0.761872 -0.000971207 5.3141e-19)
(0.76479 -0.00093233 5.33774e-19)
(0.767295 -0.000883173 5.50249e-19)
(0.769346 -0.000813807 5.73262e-19)
(0.770776 -0.000744959 6.1635e-19)
(0.771704 -0.000699386 6.57204e-19)
(0.772338 -0.000656213 6.83593e-19)
(0.772657 -0.000716663 7.61727e-19)
(0.772699 -0.000682991 7.88797e-19)
(0.772562 -0.000683099 8.5717e-19)
(0.772438 -0.000904524 9.61316e-19)
(0.773028 -0.00143382 1.03402e-18)
(0.776019 -0.00149386 1.04883e-18)
(0.776966 -0.00140276 1.10978e-18)
(0.777593 -0.00136479 1.14794e-18)
(0.779227 -0.00139373 1.22078e-18)
(0.782609 -0.00151909 1.22874e-18)
(0.784453 -0.00154886 1.33606e-18)
(0.787461 -0.00162173 1.34614e-18)
(0.789973 -0.00163513 1.42003e-18)
(0.794135 -0.00217273 1.45716e-18)
(0.798197 -0.00206037 1.53192e-18)
(0.802033 -0.00197983 1.5636e-18)
(0.807369 -0.00218085 1.60881e-18)
(0.812439 -0.00185807 1.63866e-18)
(0.817425 -0.00176965 1.6434e-18)
(0.822161 -0.00164858 1.63352e-18)
(0.827033 -0.00161578 1.52654e-18)
(0.831625 -0.00144588 1.52052e-18)
(0.835815 -0.0014251 1.34845e-18)
(0.839482 -0.00136794 1.17512e-18)
(0.84224 -0.00159134 1.07986e-18)
(0.845098 -0.00170103 1.27062e-18)
(0.847115 -0.00121122 1.20303e-18)
(0.845807 -0.0015138 1.10336e-18)
(0.860537 -0.00346443 1.0824e-18)
(0.87503 -0.00330109 1.31262e-18)
(0.893526 -0.00354674 1.37687e-18)
(0.917507 -0.00150685 1.35879e-18)
(0.940371 -0.00101907 1.5211e-18)
(0.971283 -0.00118625 2.02557e-18)
(0.981985 -0.00129731 3.99714e-18)
(0.983618 -0.00393916 6.35865e-18)
(0.981679 -0.00755852 2.81773e-17)
(0.980291 -0.00814409 7.21158e-17)
(0.986669 -0.0173213 1.25535e-16)
(0.903543 0.0272784 1.13324e-16)
(0.751135 0.0784679 9.04669e-17)
(0.610514 0.0882274 6.03306e-17)
(0.50229 0.0923162 7.08834e-17)
(0.395604 0.0899921 4.99637e-17)
(0.301164 0.0983311 8.62874e-17)
(0.192258 0.110898 6.21958e-17)
(0.0926781 0.0999055 1.45902e-16)
(1.5052 -3.0804e-06 -3.2175e-23)
(1.5042 1.30265e-06 1.64645e-21)
(1.50441 1.14631e-06 2.29412e-21)
(1.5045 1.8901e-06 1.13442e-22)
(1.50464 -5.66271e-07 -2.01554e-22)
(1.50479 -1.13725e-06 -3.73031e-22)
(1.50501 -6.23936e-07 -8.04422e-22)
(1.50525 -7.94707e-07 -5.41805e-22)
(1.50548 1.59305e-06 1.98473e-22)
(1.50571 -3.54812e-09 -3.04285e-22)
(1.50601 3.34506e-07 1.11114e-22)
(1.5063 -1.29258e-07 -1.82205e-22)
(1.50657 -2.69269e-07 -5.88042e-23)
(1.50685 -2.95027e-08 -2.20873e-21)
(1.50712 3.77115e-06 -2.52295e-21)
(1.50739 1.58473e-06 -1.84055e-21)
(1.50767 1.40342e-06 -1.54392e-21)
(1.50799 -7.11632e-07 -2.76573e-21)
(1.50828 -4.04731e-07 -2.40645e-21)
(1.50851 4.19183e-06 -3.83209e-21)
(1.50869 6.84737e-06 -3.14906e-21)
(1.50882 8.59088e-06 -2.90565e-21)
(1.50892 4.12268e-06 -3.81222e-21)
(1.509 2.7656e-06 -4.16066e-21)
(1.50908 4.59292e-06 -3.385e-21)
(1.50912 4.46077e-06 -2.90076e-21)
(1.5091 5.58999e-06 -3.74342e-21)
(1.50904 4.66693e-06 -3.19194e-21)
(1.50894 1.14148e-05 -3.95956e-21)
(1.50876 1.14341e-05 -2.62987e-21)
(1.50851 9.16067e-06 -3.52758e-21)
(1.50824 1.69461e-05 -2.84848e-21)
(1.50788 2.18364e-05 -2.79182e-21)
(1.50739 1.59059e-05 -2.78832e-21)
(1.50669 2.19549e-05 -2.9811e-21)
(1.50612 3.98087e-05 -2.14345e-21)
(1.50534 5.82465e-05 -2.3202e-21)
(1.50423 7.73089e-05 -3.34445e-21)
(1.50309 0.000160795 8.20028e-22)
(1.50188 0.000196845 -6.29044e-21)
(1.50036 0.000310695 3.31641e-22)
(1.49727 0.000475464 4.37641e-21)
(1.49444 3.31328e-05 -2.04793e-20)
(1.22969 0.00718518 -3.91478e-18)
(0.580487 0.0273681 -8.95968e-18)
(0.47402 0.00197623 -5.39746e-18)
(0.491388 -0.0144309 -2.75982e-18)
(0.521298 -0.0285359 -1.26577e-18)
(0.549636 -0.0281252 1.82682e-20)
(0.576244 -0.0233311 4.11405e-19)
(0.600754 -0.0196637 5.62962e-19)
(0.623132 -0.0180131 6.31253e-19)
(0.643361 -0.015274 6.21853e-19)
(0.662496 -0.0140962 5.48322e-19)
(0.679544 -0.0118047 5.20293e-19)
(0.694811 -0.00924766 4.66635e-19)
(0.708292 -0.00743965 4.72278e-19)
(0.718909 -0.00605143 4.6811e-19)
(0.728745 -0.00491867 4.76019e-19)
(0.737005 -0.00502767 4.21075e-19)
(0.744645 -0.00436506 4.3105e-19)
(0.751213 -0.00357324 3.8053e-19)
(0.757002 -0.00306964 3.4548e-19)
(0.762437 -0.00283817 2.67986e-19)
(0.767717 -0.00259544 2.33716e-19)
(0.772607 -0.00223649 2.3971e-19)
(0.777081 -0.00197477 2.20653e-19)
(0.781075 -0.0017306 2.042e-19)
(0.784612 -0.00151287 2.16702e-19)
(0.787626 -0.00130268 1.9371e-19)
(0.790038 -0.00112836 2.62504e-19)
(0.791985 -0.00100821 2.68932e-19)
(0.793714 -0.000998895 3.42594e-19)
(0.794935 -0.000663029 3.48182e-19)
(0.796098 -0.000567995 4.05683e-19)
(0.797173 -0.000523806 4.192e-19)
(0.798312 -0.00137411 4.37259e-19)
(0.801863 -0.00147375 4.6825e-19)
(0.803607 -0.00129947 5.56654e-19)
(0.804999 -0.00110278 5.96554e-19)
(0.807276 -0.00134238 6.38842e-19)
(0.811124 -0.00169273 6.49158e-19)
(0.813498 -0.0016587 7.14385e-19)
(0.817148 -0.00165851 7.29051e-19)
(0.820121 -0.00162896 7.75864e-19)
(0.824049 -0.00244085 7.85771e-19)
(0.827795 -0.0023622 8.39006e-19)
(0.831436 -0.00234587 9.04291e-19)
(0.836105 -0.00279091 1.017e-18)
(0.840784 -0.00250416 1.03466e-18)
(0.845403 -0.00240248 1.0767e-18)
(0.850003 -0.00227804 1.17798e-18)
(0.854527 -0.00224179 1.11582e-18)
(0.858817 -0.0020814 1.17881e-18)
(0.862937 -0.00203638 1.16427e-18)
(0.866565 -0.00193713 1.20977e-18)
(0.869451 -0.00220493 1.22855e-18)
(0.872111 -0.00228284 1.0822e-18)
(0.873635 -0.00166106 1.10648e-18)
(0.873575 -0.00158915 1.09364e-18)
(0.888489 -0.00442582 8.98183e-19)
(0.903432 -0.00373748 1.00055e-18)
(0.91723 -0.0033564 8.52356e-19)
(0.940151 -0.00213392 7.97821e-19)
(0.962557 -0.00159278 9.19057e-19)
(0.992949 -0.00135043 1.77011e-18)
(1.00392 -0.00203152 1.01015e-18)
(1.00647 -0.00610896 1.32181e-17)
(1.00301 -0.0082068 7.12832e-18)
(0.987385 -0.0115944 5.53956e-17)
(0.838347 -0.00945887 1.0297e-16)
(0.669957 0.0593577 6.84665e-17)
(0.510873 0.108605 5.25433e-17)
(0.378678 0.0994449 3.3288e-17)
(0.289957 0.103624 5.64567e-17)
(0.21758 0.0983221 4.68288e-17)
(0.16737 0.107656 9.31554e-17)
(0.106187 0.122988 7.5331e-17)
(0.084817 0.189541 1.38519e-16)
(1.5052 -5.42283e-06 1.38242e-21)
(1.5042 1.29104e-06 -1.18398e-21)
(1.50441 7.94983e-07 -1.52824e-21)
(1.5045 2.05532e-06 -2.6224e-21)
(1.50464 8.33519e-07 -2.83959e-21)
(1.50482 5.32102e-07 -3.09254e-21)
(1.50501 -4.92774e-07 -3.44753e-21)
(1.5052 2.96386e-08 -2.53035e-21)
(1.50548 2.92924e-07 -1.70185e-21)
(1.50575 -2.11275e-06 -1.27664e-21)
(1.50601 1.65558e-07 9.12284e-22)
(1.50629 1.79793e-06 -3.76417e-21)
(1.50658 -4.25486e-07 -3.08076e-21)
(1.50684 -6.66933e-09 -1.60864e-21)
(1.50712 6.897e-06 -5.20587e-22)
(1.50739 2.4994e-06 -7.62888e-22)
(1.50767 2.12876e-06 -4.47968e-22)
(1.508 -3.46607e-06 -1.38187e-21)
(1.50828 -2.37582e-07 2.44016e-22)
(1.50852 8.69908e-06 -1.69256e-22)
(1.5087 1.44711e-05 -1.29859e-21)
(1.50883 1.52428e-05 -4.45231e-21)
(1.50894 1.01334e-05 -1.8461e-21)
(1.50901 5.90027e-06 -2.93586e-21)
(1.5091 9.13584e-06 -6.73106e-21)
(1.50914 9.65236e-06 -6.54609e-21)
(1.50913 1.3751e-05 -6.68169e-21)
(1.50906 1.3656e-05 -6.79952e-21)
(1.50898 1.83367e-05 -6.267e-21)
(1.50883 2.38078e-05 -4.89346e-21)
(1.50861 2.61785e-05 -4.99168e-21)
(1.5083 2.30881e-05 -4.39382e-21)
(1.50789 2.85704e-05 -4.89934e-21)
(1.5075 4.96965e-05 -3.9928e-21)
(1.50698 5.73821e-05 -4.3972e-21)
(1.50628 6.49343e-05 -3.89268e-21)
(1.50538 7.15745e-05 -3.35657e-21)
(1.50449 0.000168748 -4.14136e-21)
(1.50365 0.000258095 -1.08527e-21)
(1.50271 0.000270992 -8.22329e-21)
(1.50154 0.000355788 2.0593e-21)
(1.50012 0.00087127 -1.04595e-20)
(1.49776 0.00169068 1.60514e-20)
(1.41756 0.0597506 -5.4928e-18)
(0.678754 0.0886507 -1.18729e-17)
(0.545469 0.00822337 -8.8684e-18)
(0.5714 -0.0317023 -4.49934e-18)
(0.590329 -0.0480085 -2.66445e-18)
(0.612156 -0.0460394 -1.46865e-18)
(0.63061 -0.0386017 -5.99892e-19)
(0.65232 -0.0327165 -4.0751e-19)
(0.670763 -0.0290654 -2.03801e-19)
(0.685923 -0.0250957 -1.35693e-19)
(0.701357 -0.0235771 -1.76518e-19)
(0.715825 -0.019919 -2.01616e-19)
(0.728442 -0.0158972 -2.63996e-19)
(0.74015 -0.0129174 -2.68168e-19)
(0.750486 -0.0105488 -2.83882e-19)
(0.759194 -0.00884467 -2.35284e-19)
(0.766839 -0.00764172 -2.5105e-19)
(0.773546 -0.0062651 -2.59436e-19)
(0.779679 -0.0052746 -2.5332e-19)
(0.785108 -0.0047676 -2.87422e-19)
(0.79029 -0.00454314 -3.60498e-19)
(0.795237 -0.00426459 -3.68533e-19)
(0.799929 -0.0038183 -3.82968e-19)
(0.804054 -0.00351381 -3.81847e-19)
(0.807754 -0.00327344 -3.90372e-19)
(0.810992 -0.00303926 -3.71553e-19)
(0.81368 -0.00280904 -4.09581e-19)
(0.815992 -0.0027173 -3.50543e-19)
(0.817985 -0.00266538 -3.33849e-19)
(0.819664 -0.00269484 -2.55078e-19)
(0.820995 -0.00265655 -2.47915e-19)
(0.822104 -0.00287896 -2.16227e-19)
(0.823227 -0.0030847 -1.89021e-19)
(0.82361 -0.00369907 -1.56259e-19)
(0.827239 -0.00411484 -1.12287e-19)
(0.828777 -0.00418529 -4.55635e-20)
(0.830152 -0.00422269 -1.192e-21)
(0.831949 -0.00346559 3.73928e-20)
(0.835517 -0.00418806 5.91525e-20)
(0.837922 -0.00424492 1.05487e-19)
(0.841695 -0.00428794 1.37526e-19)
(0.844737 -0.00414823 1.82124e-19)
(0.848534 -0.00487227 1.81923e-19)
(0.852025 -0.00455823 2.40225e-19)
(0.855473 -0.00452913 2.41366e-19)
(0.859822 -0.0051113 3.52452e-19)
(0.864127 -0.0047374 3.84324e-19)
(0.868841 -0.00457558 4.1517e-19)
(0.873379 -0.00443453 5.6101e-19)
(0.8778 -0.00427449 4.85755e-19)
(0.882075 -0.00407607 5.79035e-19)
(0.886186 -0.00399551 5.36984e-19)
(0.889964 -0.00391756 5.75597e-19)
(0.893022 -0.00428392 5.93759e-19)
(0.895831 -0.00442452 4.92974e-19)
(0.897394 -0.00350871 5.18083e-19)
(0.89744 -0.00356185 4.92426e-19)
(0.912373 -0.00840245 3.05203e-19)
(0.924964 -0.00764414 3.30278e-19)
(0.940818 -0.00642726 2.17467e-19)
(0.959696 -0.00249312 2.35288e-19)
(0.978178 0.000489615 3.62297e-19)
(1.00563 -0.000661207 2.5349e-19)
(1.01523 -0.00378146 3.04521e-18)
(1.00849 -0.0126918 1.32358e-18)
(0.979976 -0.0168957 1.83437e-17)
(0.826421 -0.00723247 4.30481e-17)
(0.665893 0.101334 4.88664e-17)
(0.501084 0.186605 3.1823e-17)
(0.378797 0.225322 3.37869e-17)
(0.278274 0.205247 2.23227e-17)
(0.202758 0.180599 4.63104e-17)
(0.146851 0.156867 4.96145e-17)
(0.104114 0.170604 9.94298e-17)
(0.0582561 0.177459 8.59878e-17)
(0.0534053 0.269434 1.38477e-16)
(1.5052 -6.88788e-06 -7.65413e-22)
(1.5042 1.37805e-06 6.83232e-22)
(1.50441 9.32191e-09 3.12238e-21)
(1.50451 9.25535e-07 1.84842e-21)
(1.50464 2.85151e-06 1.84284e-22)
(1.50479 1.79883e-06 -1.28261e-21)
(1.50502 -1.27388e-06 -1.22671e-21)
(1.50526 -5.19827e-08 -9.30625e-22)
(1.50548 -1.61202e-07 -1.12678e-22)
(1.50572 -2.24901e-06 2.04314e-22)
(1.50602 -1.05836e-06 -1.27888e-21)
(1.50631 9.24017e-07 -3.16719e-21)
(1.50658 6.51931e-07 -3.48317e-21)
(1.50685 2.90195e-06 -1.92029e-21)
(1.50713 6.97909e-06 1.98532e-21)
(1.50741 1.51666e-06 2.14227e-21)
(1.50769 4.68465e-08 2.83167e-21)
(1.508 -1.88563e-06 -4.98238e-22)
(1.50828 1.5975e-06 -5.18467e-21)
(1.50852 1.38834e-05 2.02972e-21)
(1.50871 2.1244e-05 1.33411e-21)
(1.50886 2.35961e-05 4.84374e-21)
(1.50896 1.3647e-05 3.13944e-21)
(1.50904 6.58593e-06 4.95741e-21)
(1.50912 9.17472e-06 5.97397e-21)
(1.50918 1.27064e-05 2.34602e-21)
(1.50917 2.04809e-05 3.59643e-21)
(1.50913 2.53669e-05 9.58491e-21)
(1.50903 2.51112e-05 1.02504e-20)
(1.50889 2.66839e-05 5.3198e-21)
(1.50867 2.88895e-05 5.7325e-21)
(1.50841 4.18553e-05 6.48672e-21)
(1.50806 5.24321e-05 7.04752e-21)
(1.50764 4.75969e-05 6.88859e-21)
(1.50709 5.27583e-05 8.01809e-21)
(1.5065 0.000110466 7.79506e-21)
(1.50585 0.000144876 7.80952e-21)
(1.50504 0.000143961 8.01405e-21)
(1.5042 0.00018811 9.02688e-21)
(1.50339 0.000276441 8.03389e-21)
(1.50233 0.000388659 9.63098e-21)
(1.5022 0.00081253 1.03595e-20)
(1.50438 0.00106321 8.97141e-21)
(1.49286 0.0301534 1.09028e-18)
(0.796507 0.0601882 -1.67875e-17)
(0.602457 -0.00612629 -1.2926e-17)
(0.624578 -0.0429456 -7.14001e-18)
(0.635402 -0.0548565 -5.17855e-18)
(0.651248 -0.0574945 -3.42879e-18)
(0.662094 -0.0520774 -2.01051e-18)
(0.67858 -0.0473607 -1.33336e-18)
(0.692534 -0.041281 -8.1079e-19)
(0.705252 -0.0348175 -6.00231e-19)
(0.718958 -0.032619 -5.23743e-19)
(0.729938 -0.0271847 -4.87423e-19)
(0.742642 -0.0216169 -4.439e-19)
(0.753397 -0.0178628 -4.33267e-19)
(0.762567 -0.0145777 -4.30503e-19)
(0.769918 -0.0123324 -4.27751e-19)
(0.776845 -0.0110614 -4.22129e-19)
(0.78296 -0.009455 -3.97545e-19)
(0.788487 -0.00813766 -3.5436e-19)
(0.793543 -0.00749848 -3.59964e-19)
(0.798179 -0.0070445 -3.14457e-19)
(0.802538 -0.00662993 -3.16682e-19)
(0.806637 -0.00590166 -2.84234e-19)
(0.810319 -0.00535047 -2.64927e-19)
(0.813579 -0.00498986 -2.57059e-19)
(0.816549 -0.00468339 -2.328e-19)
(0.819063 -0.00435852 -2.72917e-19)
(0.821295 -0.00430175 -2.02263e-19)
(0.822959 -0.00440852 -1.86304e-19)
(0.824176 -0.00443118 -1.09867e-19)
(0.825035 -0.00479931 -9.618e-20)
(0.825813 -0.00539968 -9.31078e-20)
(0.826655 -0.00591477 -4.09416e-20)
(0.827802 -0.00601864 -4.35729e-21)
(0.830507 -0.00724586 5.538e-20)
(0.831981 -0.00753885 7.91369e-20)
(0.832445 -0.00713917 1.60462e-19)
(0.836815 -0.00549839 1.79691e-19)
(0.838254 -0.00704081 2.24695e-19)
(0.841143 -0.00727024 2.56814e-19)
(0.844824 -0.00752169 2.83456e-19)
(0.848066 -0.00712724 3.43027e-19)
(0.851731 -0.00777183 3.61427e-19)
(0.855162 -0.00719954 3.70012e-19)
(0.858504 -0.00705593 4.108e-19)
(0.862407 -0.00782398 5.21923e-19)
(0.866304 -0.00740443 5.32995e-19)
(0.870895 -0.00742193 6.00795e-19)
(0.875302 -0.00716669 7.24127e-19)
(0.879745 -0.00687043 6.44587e-19)
(0.883826 -0.00671807 7.47948e-19)
(0.887828 -0.00676865 7.07967e-19)
(0.891381 -0.00686331 7.58026e-19)
(0.894633 -0.00738638 7.64845e-19)
(0.897438 -0.0077097 7.09756e-19)
(0.898859 -0.00661138 7.61294e-19)
(0.899379 -0.00613398 7.4907e-19)
(0.914056 -0.013188 5.7837e-19)
(0.926656 -0.0116469 6.59398e-19)
(0.93796 -0.00902772 5.94854e-19)
(0.959676 -0.00221082 5.74996e-19)
(0.976825 0.00491955 7.96252e-19)
(1.00683 0.00137807 1.90857e-18)
(1.009 -0.00402011 1.59759e-18)
(0.957192 -0.0141705 8.23359e-18)
(0.784154 0.00617386 1.5529e-17)
(0.601267 0.1187 1.74142e-17)
(0.437269 0.192951 2.32208e-17)
(0.331944 0.249941 1.31182e-17)
(0.267375 0.282189 1.94732e-17)
(0.209768 0.261532 1.56173e-17)
(0.158526 0.233052 3.9694e-17)
(0.11568 0.197099 4.84732e-17)
(0.0810623 0.209425 1.03838e-16)
(0.0514856 0.204592 9.4167e-17)
(0.0456728 0.311554 1.45568e-16)
(1.5052 -9.61366e-06 -7.77974e-22)
(1.50421 1.69146e-06 1.85787e-21)
(1.5044 1.50883e-06 -3.04267e-21)
(1.50448 3.12319e-06 1.27641e-21)
(1.50465 2.03494e-06 2.25899e-21)
(1.50485 1.70245e-06 7.9526e-21)
(1.50502 -1.23199e-06 7.39155e-21)
(1.50521 2.89896e-07 3.85763e-21)
(1.50549 -9.56475e-07 8.92925e-21)
(1.50576 -2.16915e-06 5.02349e-21)
(1.50602 -1.86953e-06 -4.05256e-21)
(1.50629 1.41754e-06 9.72997e-21)
(1.50658 2.06179e-06 7.48475e-21)
(1.50687 2.92428e-06 7.12901e-21)
(1.50714 4.7572e-06 3.29012e-21)
(1.50742 5.252e-06 4.48998e-21)
(1.5077 6.94456e-07 1.07961e-20)
(1.50801 -9.68735e-07 1.18647e-20)
(1.50829 2.5224e-06 1.41486e-20)
(1.50854 1.39475e-05 5.01424e-21)
(1.50875 2.34089e-05 3.8777e-21)
(1.50889 2.62492e-05 7.54599e-21)
(1.50901 2.1353e-05 1.56521e-21)
(1.50908 9.98593e-06 4.42212e-22)
(1.50916 1.16692e-05 1.2659e-21)
(1.50921 1.45506e-05 5.59969e-21)
(1.50924 2.65303e-05 6.14981e-21)
(1.50919 2.67565e-05 3.09905e-21)
(1.50912 3.24273e-05 4.944e-21)
(1.509 3.75805e-05 9.46725e-21)
(1.50881 4.40815e-05 8.91213e-21)
(1.50856 4.53172e-05 7.92222e-21)
(1.50823 4.989e-05 9.48969e-21)
(1.50783 7.30927e-05 7.43446e-21)
(1.50745 9.62248e-05 6.95322e-21)
(1.50689 0.000112476 8.87946e-21)
(1.50624 0.000122004 9.49921e-21)
(1.50549 0.000136265 6.7398e-21)
(1.50481 0.000160471 8.68138e-21)
(1.50421 0.00021743 6.21431e-21)
(1.5036 0.000333538 1.16252e-20)
(1.504 0.000425964 1.11464e-20)
(1.50473 2.63578e-05 -1.104e-20)
(1.50392 0.00775666 1.43468e-18)
(0.821763 -0.0134861 -1.97883e-17)
(0.611845 -0.0367399 -1.43715e-17)
(0.627185 -0.0564837 -7.52226e-18)
(0.637045 -0.0680382 -5.51755e-18)
(0.648252 -0.0679455 -3.49682e-18)
(0.656974 -0.0644153 -2.00099e-18)
(0.673123 -0.0620185 -1.32931e-18)
(0.683885 -0.0551506 -7.23642e-19)
(0.697366 -0.0476619 -4.57994e-19)
(0.7103 -0.0439838 -3.68267e-19)
(0.718646 -0.0372472 -2.92466e-19)
(0.73271 -0.0312314 -2.64781e-19)
(0.742146 -0.0256577 -2.23572e-19)
(0.750854 -0.0205773 -2.1568e-19)
(0.758028 -0.0172995 -2.00204e-19)
(0.765177 -0.0155149 -2.18581e-19)
(0.771241 -0.0132449 -1.90098e-19)
(0.776856 -0.011549 -1.77324e-19)
(0.782073 -0.0107416 -1.51071e-19)
(0.786947 -0.00999334 -1.35479e-19)
(0.791736 -0.0093567 -9.47406e-20)
(0.795905 -0.00838182 -7.02872e-20)
(0.799851 -0.00757577 -2.59341e-20)
(0.803114 -0.00707495 9.44616e-21)
(0.806066 -0.0066496 3.72085e-20)
(0.808562 -0.0061393 4.84397e-20)
(0.810539 -0.00600393 1.53636e-19)
(0.81198 -0.00595278 1.6349e-19)
(0.813018 -0.00580854 2.82564e-19)
(0.813654 -0.00571116 3.39674e-19)
(0.813968 -0.00576795 3.29338e-19)
(0.814279 -0.00588369 4.11651e-19)
(0.815353 -0.00598245 4.55423e-19)
(0.81737 -0.00696952 5.45206e-19)
(0.818722 -0.00697141 5.47967e-19)
(0.81857 -0.00635619 6.45835e-19)
(0.823668 -0.0054467 6.53863e-19)
(0.825725 -0.00635395 7.23255e-19)
(0.829089 -0.00666011 8.09816e-19)
(0.832807 -0.00688339 7.63624e-19)
(0.836521 -0.00626315 8.72375e-19)
(0.840474 -0.00683547 8.38664e-19)
(0.844212 -0.00624465 8.74541e-19)
(0.848026 -0.00611729 9.19973e-19)
(0.851965 -0.00700851 9.69526e-19)
(0.855913 -0.00654884 1.06486e-18)
(0.860441 -0.00678263 1.02035e-18)
(0.865045 -0.00646514 1.29004e-18)
(0.869694 -0.00613292 1.13956e-18)
(0.873854 -0.00604749 1.27815e-18)
(0.877749 -0.00624913 1.23294e-18)
(0.881289 -0.00634014 1.32427e-18)
(0.884653 -0.00688496 1.32784e-18)
(0.887348 -0.00717245 1.32218e-18)
(0.888806 -0.00596114 1.45475e-18)
(0.889939 -0.00567628 1.41905e-18)
(0.906854 -0.0132781 1.29864e-18)
(0.919539 -0.0105716 1.45437e-18)
(0.930557 -0.00550449 1.38123e-18)
(0.953684 -1.65132e-05 1.31055e-18)
(0.975498 0.00649179 1.87492e-18)
(0.994428 0.000774198 2.39621e-18)
(0.932676 -0.00745796 5.75354e-18)
(0.743115 0.0284105 7.58895e-18)
(0.544945 0.13237 9.22634e-18)
(0.392151 0.218857 6.66218e-18)
(0.30731 0.282058 1.32061e-17)
(0.245851 0.307747 4.00435e-18)
(0.203608 0.318404 1.38608e-17)
(0.165855 0.299351 1.06775e-17)
(0.132116 0.275703 3.32144e-17)
(0.102737 0.231496 4.11629e-17)
(0.0747972 0.241619 9.34621e-17)
(0.0501815 0.226605 8.65113e-17)
(0.0469123 0.345488 1.39818e-16)
(1.5052 -1.08692e-05 8.17846e-22)
(1.5042 1.75059e-06 -9.13052e-23)
(1.50442 2.74855e-06 9.50384e-22)
(1.50451 4.84704e-06 -3.69187e-21)
(1.50465 1.4986e-06 -8.86979e-21)
(1.5048 1.29538e-06 -1.76501e-20)
(1.50503 -1.60995e-06 -1.3386e-20)
(1.50527 1.49613e-06 -8.30346e-21)
(1.50549 -1.83321e-06 -2.08865e-20)
(1.50573 -2.22694e-06 -1.55429e-20)
(1.50603 -2.96552e-06 -2.90638e-21)
(1.50632 1.53064e-06 -2.12465e-20)
(1.50659 3.12554e-06 -2.31985e-20)
(1.50687 2.88785e-06 -1.36589e-20)
(1.50715 6.61976e-06 -1.33891e-20)
(1.50744 6.35813e-06 -1.21897e-20)
(1.50772 3.14332e-06 -3.0147e-20)
(1.50802 9.7369e-07 -3.03308e-21)
(1.50829 7.53257e-06 -1.83305e-20)
(1.50855 1.69829e-05 -2.03674e-20)
(1.50878 2.92269e-05 -1.54211e-20)
(1.50894 3.31353e-05 -1.41232e-20)
(1.50905 2.74239e-05 -7.93207e-21)
(1.50913 1.36924e-05 -6.00985e-21)
(1.50919 1.26268e-05 -2.42649e-21)
(1.50926 1.72132e-05 -6.32022e-22)
(1.50932 2.77977e-05 7.8724e-22)
(1.50928 3.83861e-05 -5.9888e-22)
(1.50923 3.87712e-05 -1.17913e-21)
(1.50913 4.20317e-05 -2.94194e-21)
(1.50897 4.82388e-05 -2.23448e-21)
(1.50874 5.41516e-05 -4.1301e-21)
(1.50848 7.08632e-05 -3.08422e-21)
(1.50816 8.50365e-05 -3.89363e-21)
(1.50777 8.3871e-05 -3.20422e-21)
(1.5073 0.000128967 -2.99646e-21)
(1.5068 0.00014766 -1.97387e-21)
(1.50618 0.000151564 -2.81028e-21)
(1.50538 0.000134502 -1.81461e-21)
(1.50459 0.000123921 -2.97581e-21)
(1.50403 7.30232e-05 7.81472e-21)
(1.50359 -0.000240026 -1.55913e-20)
(1.50331 -0.001031 1.39526e-20)
(1.50286 -0.00445736 6.17971e-19)
(0.777259 -0.0731101 -2.18662e-17)
(0.587293 -0.0634043 -1.32349e-17)
(0.603383 -0.0687488 -6.43062e-18)
(0.616437 -0.0760783 -4.09961e-18)
(0.634294 -0.0731225 -2.65954e-18)
(0.646158 -0.0660727 -8.66854e-19)
(0.663414 -0.0635236 -6.32937e-19)
(0.676135 -0.0562476 -3.0482e-19)
(0.693797 -0.0494816 -1.21838e-19)
(0.708699 -0.0454041 -1.06044e-19)
(0.71825 -0.0381833 -7.33053e-22)
(0.736288 -0.033688 4.70967e-20)
(0.747056 -0.027717 1.05175e-19)
(0.756783 -0.0227969 1.35839e-19)
(0.764708 -0.0201562 1.96433e-19)
(0.77232 -0.0185991 1.71279e-19)
(0.778096 -0.0158622 1.68761e-19)
(0.784366 -0.0140659 1.23893e-19)
(0.789784 -0.0133149 1.58669e-19)
(0.794932 -0.012339 1.5214e-19)
(0.799908 -0.0117375 1.91413e-19)
(0.803945 -0.0104005 2.03726e-19)
(0.807904 -0.00940015 2.59799e-19)
(0.810993 -0.00872503 2.71608e-19)
(0.813777 -0.00823016 3.06837e-19)
(0.81617 -0.00752064 2.7832e-19)
(0.817987 -0.00718152 4.22177e-19)
(0.819336 -0.00711322 3.86531e-19)
(0.820127 -0.00689963 4.91623e-19)
(0.820624 -0.00687023 5.7526e-19)
(0.820772 -0.00711101 5.4926e-19)
(0.821093 -0.0072803 6.31461e-19)
(0.822515 -0.00761244 6.58372e-19)
(0.823703 -0.00867098 6.97531e-19)
(0.824735 -0.00875573 7.59245e-19)
(0.825037 -0.00818927 8.67875e-19)
(0.830537 -0.00771044 8.79244e-19)
(0.832702 -0.00854713 9.73192e-19)
(0.836297 -0.00919233 9.74704e-19)
(0.840437 -0.00931082 1.09038e-18)
(0.844154 -0.00882789 1.12241e-18)
(0.848213 -0.00924095 1.09991e-18)
(0.851978 -0.00854012 1.09752e-18)
(0.855732 -0.00849407 1.18475e-18)
(0.859487 -0.00923917 1.20428e-18)
(0.863421 -0.00878434 1.28457e-18)
(0.867389 -0.00917092 1.25143e-18)
(0.872247 -0.00894982 1.45578e-18)
(0.876614 -0.00837939 1.38508e-18)
(0.880383 -0.00841814 1.4958e-18)
(0.884066 -0.00868367 1.49352e-18)
(0.887536 -0.0086323 1.57028e-18)
(0.890799 -0.00933316 1.67302e-18)
(0.89393 -0.00950275 1.66812e-18)
(0.895699 -0.00823723 1.91014e-18)
(0.898725 -0.00835525 1.94516e-18)
(0.914877 -0.0173277 1.89895e-18)
(0.926885 -0.0139988 2.0442e-18)
(0.944807 -0.00806967 1.96347e-18)
(0.963855 -0.000580541 1.85173e-18)
(0.978577 0.00967468 2.92449e-18)
(0.94472 0.00826821 4.143e-18)
(0.749829 0.0612584 5.23673e-18)
(0.540069 0.174824 3.7057e-18)
(0.376219 0.250136 5.64738e-18)
(0.274204 0.277276 1.49731e-18)
(0.22107 0.315022 7.67314e-18)
(0.187334 0.338321 8.02301e-20)
(0.160749 0.343809 1.05685e-17)
(0.138656 0.322842 6.31033e-18)
(0.115156 0.302357 2.51899e-17)
(0.0920054 0.256706 2.90095e-17)
(0.0687243 0.265865 7.32025e-17)
(0.0484088 0.246959 6.86357e-17)
(0.0487304 0.374825 1.25857e-16)
(1.50519 -1.35001e-05 5.82207e-21)
(1.50421 1.54897e-06 3.69285e-21)
(1.50441 1.15977e-06 3.52387e-21)
(1.50451 2.9785e-06 3.9864e-21)
(1.50465 3.45575e-06 1.63675e-20)
(1.50484 3.73457e-06 2.06432e-20)
(1.50502 -2.62757e-06 1.58945e-20)
(1.50522 5.07374e-07 2.71165e-20)
(1.50549 -2.21113e-06 1.87288e-20)
(1.50577 -6.87264e-07 1.72953e-20)
(1.50603 -3.69376e-06 1.67864e-20)
(1.5063 -2.79472e-07 2.54168e-20)
(1.5066 5.84542e-06 3.55717e-20)
(1.50689 5.86135e-06 9.0052e-21)
(1.50715 5.97079e-06 -4.72798e-22)
(1.50745 7.87852e-06 5.31048e-21)
(1.50773 4.77091e-06 2.25768e-20)
(1.50803 6.8382e-06 1.17325e-20)
(1.50831 8.13389e-06 1.22719e-20)
(1.50857 1.66337e-05 2.20439e-20)
(1.50882 2.99219e-05 2.23719e-20)
(1.509 3.90317e-05 2.03921e-20)
(1.50912 3.43097e-05 2.1315e-20)
(1.50921 2.40761e-05 2.42886e-20)
(1.50925 1.82649e-05 1.60077e-20)
(1.50931 2.12461e-05 1.46676e-20)
(1.50939 2.93283e-05 1.70045e-20)
(1.50941 4.51426e-05 2.0621e-20)
(1.50937 4.63178e-05 1.86994e-20)
(1.5093 5.11749e-05 1.22871e-20)
(1.50917 5.78452e-05 1.53246e-20)
(1.50899 6.65707e-05 1.65446e-20)
(1.50878 7.05521e-05 1.81727e-20)
(1.5085 8.01645e-05 1.89235e-20)
(1.5082 0.00012254 1.95361e-20)
(1.50789 0.000145822 2.05969e-20)
(1.5074 0.000158503 2.35175e-20)
(1.50676 0.000166964 2.2358e-20)
(1.50595 0.000203416 2.78776e-20)
(1.50489 0.000193878 2.35141e-20)
(1.50343 0.000174007 3.6637e-20)
(1.50171 0.000316741 2.80454e-21)
(1.49853 -0.000202656 3.23998e-20)
(1.462 -0.00732361 -1.32517e-18)
(0.713112 -0.0783167 -2.36525e-17)
(0.554288 -0.0764858 -1.4837e-17)
(0.577125 -0.0825871 -6.95772e-18)
(0.596822 -0.0926875 -4.18837e-18)
(0.622544 -0.093137 -2.94111e-18)
(0.640747 -0.0855677 -8.25131e-19)
(0.663054 -0.0808826 -8.08418e-19)
(0.681377 -0.0737278 -3.49743e-19)
(0.700811 -0.0647889 -1.85708e-19)
(0.718295 -0.0580824 -1.06424e-19)
(0.730793 -0.0477622 -3.68615e-21)
(0.748663 -0.0451007 7.15048e-20)
(0.759805 -0.038299 1.8757e-19)
(0.770526 -0.0306185 2.29499e-19)
(0.780336 -0.027637 3.33554e-19)
(0.78947 -0.0263639 3.65761e-19)
(0.795888 -0.0219818 4.05486e-19)
(0.803125 -0.0204117 3.76574e-19)
(0.809109 -0.0193402 3.75105e-19)
(0.814861 -0.0182469 4.07097e-19)
(0.820451 -0.0170036 4.72212e-19)
(0.825089 -0.015124 5.09126e-19)
(0.829839 -0.0136121 5.61986e-19)
(0.834212 -0.0126065 6.01344e-19)
(0.837704 -0.012286 6.23482e-19)
(0.84005 -0.0105993 6.13995e-19)
(0.842844 -0.0102701 7.15838e-19)
(0.844517 -0.0100882 7.13282e-19)
(0.845716 -0.00968212 7.79503e-19)
(0.846684 -0.00960986 8.92026e-19)
(0.846474 -0.0103768 8.37704e-19)
(0.847374 -0.0101726 8.9061e-19)
(0.847411 -0.0112502 9.08374e-19)
(0.849304 -0.0116856 9.51018e-19)
(0.849903 -0.0117429 1.03065e-18)
(0.848841 -0.0119633 1.10302e-18)
(0.853838 -0.0121409 1.12475e-18)
(0.856288 -0.0126663 1.2546e-18)
(0.858385 -0.0133278 1.28775e-18)
(0.862114 -0.0135018 1.37587e-18)
(0.865025 -0.0129116 1.40671e-18)
(0.86855 -0.0131393 1.35363e-18)
(0.871809 -0.0123462 1.31872e-18)
(0.875163 -0.0122298 1.4185e-18)
(0.878357 -0.0125588 1.46371e-18)
(0.881575 -0.0122794 1.50175e-18)
(0.884766 -0.0125768 1.48838e-18)
(0.889055 -0.0126461 1.64542e-18)
(0.892943 -0.0117217 1.57252e-18)
(0.896367 -0.011692 1.66155e-18)
(0.899547 -0.0121555 1.65359e-18)
(0.903206 -0.0118381 1.78331e-18)
(0.905855 -0.0124112 1.94625e-18)
(0.909498 -0.0126718 1.92248e-18)
(0.911734 -0.0115587 2.15237e-18)
(0.915118 -0.0118448 2.34942e-18)
(0.930477 -0.0212936 2.23365e-18)
(0.942488 -0.0177589 2.56232e-18)
(0.955455 -0.00965404 2.53104e-18)
(0.96615 0.0028074 3.13321e-18)
(0.946357 0.0170737 3.64297e-18)
(0.766472 0.0671723 3.71881e-18)
(0.575825 0.201929 3.60628e-18)
(0.432285 0.308592 5.84838e-19)
(0.340949 0.359096 3.87578e-18)
(0.26175 0.364448 -4.76242e-19)
(0.207469 0.37334 5.12307e-18)
(0.169229 0.370706 -2.37142e-18)
(0.143974 0.359728 8.97728e-18)
(0.124659 0.338978 4.90725e-19)
(0.105104 0.322598 1.87153e-17)
(0.0851939 0.277558 1.61905e-17)
(0.0657801 0.286098 5.15058e-17)
(0.0481456 0.265822 5.24043e-17)
(0.0516172 0.398976 1.10932e-16)
(1.50519 -1.50109e-05 -6.7642e-21)
(1.5042 5.92361e-07 -1.14937e-20)
(1.50441 2.4378e-06 3.26643e-21)
(1.5045 5.03415e-06 -1.04506e-20)
(1.50465 1.63619e-06 -1.4757e-20)
(1.50483 -3.32353e-06 -1.20599e-20)
(1.50502 2.02718e-06 -5.70667e-21)
(1.50525 2.59484e-06 -1.49128e-20)
(1.50549 -4.28933e-06 -1.03217e-20)
(1.50574 -2.15672e-06 -9.16005e-21)
(1.50602 -3.27035e-06 -5.17042e-21)
(1.50631 5.96005e-07 -7.07255e-21)
(1.50662 5.25356e-06 3.58485e-21)
(1.50691 6.38205e-06 4.73559e-20)
(1.50717 5.86367e-06 5.99056e-20)
(1.50746 9.42938e-06 3.99682e-20)
(1.50776 7.13176e-06 6.37349e-20)