/*--------------------------------*- C++ -*----------------------------------*\
| =========                 |                                                 |
| \\      /  F ield         | OpenFOAM: The Open Source CFD Toolbox           |
|  \\    /   O peration     | Version:  2.2.x                                 |
|   \\  /    A nd           | Web:      www.OpenFOAM.org                      |
|    \\/     M anipulation  |                                                 |
\*---------------------------------------------------------------------------*/
FoamFile
{
    version     2.0;
    format      ascii;
    class       volScalarField;
    location    "0.06";
    object      p;
}
// * * * * * * * * * * * * * * * * * * * * * * * * * * * * * * * * * * * * * //

dimensions      [1 -1 -2 0 0 0 0];

internalField   nonuniform List<scalar> 
1024
(
0.1
0.1
0.1
0.1
0.1
0.1
0.1
0.1
0.1
0.1
0.1
0.1
0.1
0.1
0.1
0.1
0.1
0.1
0.1
0.1
0.1
0.1
0.1
0.1
0.1
0.1
0.1
0.1
0.1
0.1
0.1
0.1
0.1
0.1
0.1
0.1
0.1
0.1
0.1
0.1
0.1
0.1
0.1
0.1
0.1
0.1
0.1
0.1
0.1
0.1
0.1
0.1
0.1
0.1
0.1
0.1
0.1
0.1
0.1
0.1
0.1
0.1
0.1
0.1
0.1
0.1
0.1
0.1
0.1
0.1
0.1
0.1
0.1
0.1
0.1
0.1
0.1
0.1
0.1
0.1
0.1
0.1
0.1
0.1
0.1
0.1
0.1
0.1
0.1
0.1
0.1
0.1
0.1
0.1
0.1
0.1
0.1
0.1
0.1
0.1
0.1
0.1
0.1
0.1
0.1
0.1
0.1
0.1
0.1
0.1
0.1
0.1
0.1
0.1
0.1
0.1
0.1
0.1
0.1
0.1
0.1
0.1
0.1
0.1
0.1
0.1
0.1
0.1
0.1
0.1
0.1
0.1
0.1
0.1
0.1
0.1
0.1
0.1
0.1
0.1
0.1
0.1
0.1
0.1
0.1
0.1
0.1
0.1
0.1
0.1
0.1
0.1
0.1
0.1
0.1
0.1
0.1
0.1
0.1
0.1
0.1
0.1
0.1
0.1
0.1
0.1
0.1
0.1
0.1
0.1
0.1
0.1
0.1
0.1
0.1
0.1
0.1
0.1
0.1
0.1
0.1
0.1
0.1
0.1
0.1
0.1
0.1
0.1
0.1
0.1
0.1
0.1
0.1
0.1
0.1
0.1
0.1
0.1
0.1
0.1
0.1
0.1
0.1
0.1
0.1
0.1
0.1
0.1
0.1
0.1
0.1
0.1
0.1
0.1
0.1
0.1
0.1
0.1
0.1
0.1
0.1
0.1
0.1
0.1
0.1
0.1
0.1
0.1
0.1
0.1
0.1
0.1
0.1
0.1
0.1
0.1
0.1
0.1
0.1
0.1
0.1
0.1
0.1
0.1
0.1
0.1
0.1
0.1
0.1
0.1
0.1
0.1
0.1
0.1
0.1
0.1
0.1
0.1
0.1
0.1
0.1
0.1
0.1
0.0999999
0.0999999
0.0999998
0.0999996
0.0999994
0.099999
0.0999983
0.0999973
0.0999958
0.0999935
0.09999
0.0999849
0.0999774
0.0999665
0.0999511
0.0999296
0.0999
0.09986
0.0998069
0.0997377
0.0996492
0.0995381
0.0994015
0.0992365
0.0990413
0.0988147
0.0985563
0.098267
0.0979482
0.097602
0.0972308
0.0968366
0.0964178
0.0959955
0.0955864
0.0951839
0.0947873
0.0943939
0.0940053
0.0936183
0.0932359
0.0928545
0.09248
0.0921064
0.0917434
0.0913816
0.0910357
0.0906944
0.0903694
0.0900596
0.089762
0.0894909
0.089231
0.0890028
0.0887891
0.0886062
0.0884432
0.0883047
0.0881922
0.0880951
0.0880259
0.0879663
0.0879287
0.0879001
0.0878827
0.0878746
0.0878693
0.0878691
0.0878703
0.0878762
0.0878909
0.0879181
0.0879609
0.0880117
0.0880547
0.0880894
0.0881175
0.0881386
0.0881565
0.0881701
0.0881814
0.0881915
0.0882003
0.0882087
0.0882171
0.0882255
0.0882342
0.0882438
0.0882554
0.0882686
0.0882803
0.0882891
0.0882959
0.0882999
0.0883024
0.088303
0.0883033
0.0883025
0.0882995
0.0882927
0.0882806
0.0882624
0.0882456
0.088233
0.0882246
0.0882198
0.0882173
0.0882167
0.0882169
0.0882187
0.088224
0.0882341
0.0882444
0.0882517
0.088256
0.0882581
0.0882587
0.0882585
0.0882565
0.088251
0.0882404
0.0882272
0.0882169
0.0882099
0.0882057
0.0882034
0.0882026
0.0882025
0.0882029
0.0882043
0.0882056
0.0882061
0.0882062
0.0882056
0.0882033
0.088198
0.0881887
0.0881802
0.0881744
0.0881713
0.0881701
0.08817
0.0881708
0.0881742
0.0881816
0.0881893
0.0881944
0.0881971
0.0881982
0.0881983
0.088197
0.0881929
0.0881849
0.0881744
0.0881632
0.0881503
0.0881438
0.0881531
0.0881978
0.0883435
0.0888144
0.0903763
0.0955779
0.112578
0.163904
0.284128
0.409342
0.473632
0.497643
0.506716
0.510111
0.511352
0.51179
0.511937
0.511989
0.512006
0.512004
0.511981
0.511955
0.511923
0.511864
0.511797
0.511741
0.511689
0.511643
0.511616
0.511608
0.511609
0.511614
0.511616
0.511585
0.51154
0.511484
0.511416
0.511348
0.511267
0.511202
0.511157
0.511138
0.511141
0.511157
0.511175
0.511182
0.511175
0.51114
0.511077
0.51099
0.510895
0.51082
0.510778
0.510787
0.51082
0.510835
0.510807
0.51072
0.51058
0.510429
0.510311
0.510254
0.510261
0.510298
0.51031
0.510241
0.510075
0.509864
0.50967
0.509536
0.509457
0.509437
0.509533
0.509638
0.509636
0.509586
0.50953
0.509417
0.509302
0.509316
0.509405
0.50917
0.508676
0.508169
0.507593
0.507232
0.507165
0.507734
0.508926
0.510301
0.51217
0.514236
0.517513
0.522538
0.529253
0.53758
0.547527
0.55874
0.570493
0.58269
0.595857
0.611171
0.628492
0.647266
0.66663
0.686276
0.70596
0.727508
0.748068
0.749897
0.708459
0.641318
0.569237
0.523132
0.499664
0.488543
0.483219
0.480245
0.478
0.476449
0.475308
0.473866
0.472141
0.470292
0.468924
0.468116
0.467762
0.467689
0.467768
0.468071
0.468816
0.470075
0.471918
0.474551
0.477886
0.481804
0.486395
0.49149
0.496909
0.502703
0.508778
0.514976
0.521344
0.527893
0.534476
0.541157
0.547961
0.554825
0.561761
0.568788
0.5759
0.583083
0.590328
0.597666
0.605088
0.612564
0.620125
0.627783
0.6355
0.643289
0.651179
0.65914
0.667163
0.675284
0.683488
0.691749
0.700103
0.708548
0.717049
0.72564
0.734323
0.743066
0.751897
0.76082
0.769804
0.77888
0.788041
0.797269
0.806592
0.815989
0.825465
0.835029
0.844663
0.854384
0.864175
0.874045
0.883986
0.894017
0.904029
0.913822
0.923382
0.932669
0.941612
0.950125
0.958109
0.965464
0.972098
0.977941
0.982955
0.987138
0.990527
0.993192
0.995226
0.996731
0.997814
0.998572
0.999087
0.999429
0.99965
0.999789
0.999876
0.999928
0.999959
0.999977
0.999987
0.999993
0.999996
0.999998
0.999999
0.999999
1
1
1
1
1
1
1
1
1
1
1
1
1
1
1
1
1
1
1
1
1
1
1
1
1
1
1
1
1
1
1
1
1
1
1
1
1
1
1
1
1
1
1
1
1
1
1
1
1
1
1
1
1
1
1
1
1
1
1
1
1
1
1
1
1
1
1
1
1
1
1
1
1
1
1
1
1
1
1
1
1
1
1
1
1
1
1
1
1
1
1
1
1
1
1
1
1
1
1
1
1
1
1
1
1
1
1
1
1
1
1
1
1
1
1
1
1
1
1
1
1
1
1
1
1
1
1
1
1
1
1
1
1
1
1
1
1
1
1
1
1
1
1
1
1
1
1
1
1
1
1
1
1
1
1
1
1
1
1
1
1
1
1
1
1
1
1
1
1
1
1
1
1
1
1
1
1
1
1
1
1
1
1
1
1
1
1
1
1
1
1
1
1
1
1
1
1
1
1
1
1
1
1
1
1
1
1
1
1
1
1
1
1
1
1
1
1
1
1
1
1
1
1
1
1
1
1
1
1
1
1
1
1
1
1
1
1
1
1
1
1
1
1
1
1
1
1
1
1
1
1
1
1
1
1
1
1
1
1
1
1
1
1
1
1
1
1
1
1
1
1
1
1
1
1
1
1
1
1
1
1
1
1
1
1
1
1
1
1
1
1
1
1
1
1
1
1
1
1
1
1
1
1
1
1
1
1
1
1
1
1
1
1
1
1
1
1
1
1
1
1
1
1
1
1
1
1
1
1
1
1
1
1
1
1
1
1
1
1
1
1
1
1
1
1
1
1
1
1
1
1
1
1
1
1
1
1
1
1
1
1
1
1
1
1
1
1
1
1
1
1
1
1
1
1
1
1
1
1
1
1
1
1
1
)
;

boundaryField
{
    front-back
    {
        type            empty;
    }
    inlet-outlet
    {
        type            zeroGradient;
    }
    top-down
    {
        type            empty;
    }
}


// ************************************************************************* //
