/*--------------------------------*- C++ -*----------------------------------*\
| =========                 |                                                 |
| \\      /  F ield         | OpenFOAM: The Open Source CFD Toolbox           |
|  \\    /   O peration     | Version:  2.2.x                                 |
|   \\  /    A nd           | Web:      www.OpenFOAM.org                      |
|    \\/     M anipulation  |                                                 |
\*---------------------------------------------------------------------------*/
FoamFile
{
    version     2.0;
    format      ascii;
    class       volScalarField;
    location    "1.3";
    object      Bx;
}
// * * * * * * * * * * * * * * * * * * * * * * * * * * * * * * * * * * * * * //

dimensions      [1 0 -2 0 0 -1 0];

internalField   nonuniform List<scalar> 
14161
(
0.908053
0.955146
0.977962
0.97361
0.963849
0.929799
0.903686
0.894424
0.905467
0.907868
0.921161
0.934714
0.938516
0.927719
0.911223
0.889601
0.880167
0.87809
0.884155
0.896714
0.909614
0.922342
0.923468
0.917308
0.90936
0.9008
0.898586
0.903039
0.906382
0.91096
0.9182
0.926396
0.933362
0.941547
0.956698
0.973322
1.02224
1.02811
1.05246
1.0466
1.04671
1.0257
1.00182
0.976615
0.949634
0.924449
0.902872
0.886661
0.874918
0.868118
0.863155
0.86024
0.861163
0.86554
0.874085
0.886899
0.903671
0.92336
0.945278
0.969132
0.994129
1.01934
1.04494
1.0717
1.09759
1.12318
1.14857
1.17453
1.19999
1.22411
1.24678
1.2678
1.28634
1.30192
1.31603
1.32798
1.33646
1.33454
1.32169
1.29943
1.25438
1.16214
1.00715
0.809869
0.61639
0.477335
0.368448
0.293668
0.226733
0.167143
0.130739
0.108055
0.105451
0.117863
0.143585
0.18086
0.221113
0.255217
0.282612
0.305286
0.323584
0.338207
0.349565
0.359178
0.367144
0.37336
0.377258
0.380563
0.380499
0.376815
0.36889
0.355894
0.337356
0.315069
0.281743
0.254573
0.190347
0.166349
0.0267759
1.03598
0.922378
0.808354
0.751529
0.767129
0.844385
0.94652
1.00613
1.00863
0.984511
0.916095
0.826387
0.768208
0.757983
0.780898
0.837433
0.891924
0.917505
0.909499
0.88206
0.835784
0.782755
0.75624
0.753227
0.766625
0.792021
0.810747
0.817796
0.816115
0.81134
0.804313
0.799826
0.801556
0.807558
0.822654
0.857615
0.889289
0.861414
0.850411
0.83757
0.821555
0.820203
0.823891
0.824998
0.832786
0.841961
0.852731
0.864319
0.873792
0.880944
0.88905
0.899408
0.91094
0.923977
0.938146
0.95322
0.969166
0.985215
1.00165
1.01767
1.03313
1.04745
1.06038
1.06949
1.07538
1.07964
1.08284
1.08529
1.08593
1.08402
1.07951
1.06989
1.05996
1.0437
1.02799
1.00986
0.987219
0.967451
0.946962
0.936397
0.906054
0.856198
0.789512
0.711478
0.621463
0.511216
0.407031
0.327082
0.279698
0.247682
0.217313
0.192258
0.173425
0.16545
0.166872
0.171405
0.178612
0.188729
0.198092
0.204272
0.210378
0.217139
0.222945
0.227623
0.231934
0.235607
0.239391
0.242655
0.245159
0.247311
0.247942
0.245386
0.236291
0.230727
0.210163
0.202299
0.149848
0.139753
0.0250907
0.722904
0.94084
1.13545
1.21303
1.18613
1.06836
0.899783
0.778763
0.751714
0.794972
0.890255
1.02164
1.10578
1.11318
1.07174
0.979067
0.875455
0.824749
0.831778
0.869195
0.939616
1.02106
1.06264
1.06498
1.0446
1.01016
0.981939
0.968635
0.97346
0.984721
1.00194
1.02002
1.03231
1.03663
1.032
1.02948
0.931398
0.830402
0.778714
0.737216
0.728268
0.737717
0.754524
0.771774
0.78946
0.807583
0.826803
0.846069
0.865108
0.88526
0.905214
0.922526
0.939682
0.956255
0.97288
0.988655
1.0043
1.01892
1.03282
1.04576
1.05772
1.06853
1.07874
1.0902
1.10233
1.11436
1.12654
1.13797
1.1474
1.15398
1.15489
1.15052
1.14551
1.13147
1.11075
1.09019
1.05639
1.02577
0.986931
0.953652
0.900362
0.834038
0.754931
0.680261
0.587367
0.503807
0.425367
0.353291
0.307268
0.271751
0.243024
0.233661
0.22849
0.228055
0.22783
0.228259
0.228041
0.22737
0.228219
0.223337
0.222365
0.223794
0.226129
0.229504
0.232679
0.235781
0.239282
0.242745
0.245056
0.244892
0.242695
0.235996
0.218794
0.206438
0.178934
0.165254
0.113521
0.110795
0.0265974
1.21442
0.954601
0.693266
0.582095
0.599301
0.730206
0.94344
1.09166
1.11112
1.05527
0.94306
0.774654
0.645775
0.618989
0.662803
0.774629
0.905038
0.968006
0.962871
0.918734
0.832093
0.725986
0.66061
0.652708
0.675739
0.719685
0.762887
0.785485
0.788393
0.781479
0.76554
0.746124
0.727048
0.712687
0.691455
0.631408
0.537119
0.558759
0.591469
0.627546
0.666561
0.699636
0.728127
0.756897
0.782693
0.806046
0.827765
0.846524
0.862373
0.87665
0.890017
0.903938
0.917537
0.931216
0.945064
0.958876
0.972567
0.985859
0.998326
1.01021
1.0211
1.03141
1.04121
1.05092
1.05954
1.0676
1.07854
1.08936
1.10049
1.10946
1.11788
1.1207
1.11169
1.10646
1.08256
1.06487
1.02764
0.98401
0.918457
0.855941
0.789455
0.733491
0.663471
0.618038
0.549234
0.489693
0.418517
0.358457
0.298985
0.256538
0.223741
0.207041
0.192411
0.189216
0.188179
0.19244
0.196406
0.200807
0.207067
0.212943
0.218832
0.223885
0.228543
0.233768
0.238823
0.243622
0.248392
0.251521
0.251715
0.25219
0.249119
0.248786
0.236314
0.219345
0.175562
0.14696
0.0885491
0.0829604
0.0250412
0.546636
0.899523
1.1945
1.31117
1.28958
1.15087
0.906691
0.702
0.648754
0.703157
0.829506
1.02147
1.16095
1.18516
1.1386
1.01886
0.85798
0.752925
0.742244
0.785914
0.878324
0.994303
1.0757
1.08906
1.06909
1.02902
0.985474
0.958474
0.953423
0.961926
0.981359
1.00589
1.0265
1.03676
1.04128
1.03792
0.968784
0.858786
0.808515
0.788073
0.780546
0.784559
0.791826
0.804003
0.81562
0.826363
0.837041
0.847308
0.859362
0.871643
0.884582
0.897569
0.910966
0.924256
0.937642
0.951353
0.964433
0.977664
0.990132
1.00231
1.01356
1.02424
1.03325
1.03837
1.0473
1.05468
1.0599
1.06055
1.05985
1.0569
1.05427
1.04193
1.04208
1.0183
1.00361
0.986879
0.958991
0.934895
0.873439
0.797013
0.720029
0.689802
0.633447
0.606015
0.556049
0.512978
0.453905
0.395297
0.323633
0.264344
0.225488
0.191916
0.170501
0.165628
0.159291
0.163211
0.17124
0.18118
0.194835
0.212412
0.224189
0.230251
0.236458
0.241723
0.246328
0.250076
0.253162
0.254774
0.255002
0.253983
0.247837
0.247085
0.234321
0.218763
0.166973
0.133025
0.0760809
0.063842
0.0205551
1.36113
1.01196
0.656972
0.497242
0.498982
0.648411
0.921177
1.1329
1.17731
1.1173
0.994555
0.790617
0.609747
0.55654
0.598067
0.720387
0.895336
1.01292
1.02845
0.987647
0.904966
0.777036
0.672893
0.640622
0.658134
0.699812
0.754275
0.800937
0.82035
0.822858
0.814713
0.798834
0.782837
0.776387
0.774333
0.798148
0.753991
0.701208
0.67151
0.655393
0.664569
0.691339
0.714033
0.742193
0.766518
0.786318
0.807588
0.82661
0.844024
0.860187
0.875855
0.891466
0.906791
0.921885
0.936954
0.952231
0.966866
0.981579
0.995957
1.01017
1.02377
1.03705
1.04894
1.06159
1.07367
1.08437
1.09268
1.09977
1.10774
1.11591
1.11574
1.12481
1.11
1.1118
1.07933
1.06567
1.02375
0.987039
0.922492
0.854775
0.772834
0.738852
0.687824
0.663654
0.625221
0.596599
0.550532
0.481398
0.39386
0.318717
0.255797
0.201244
0.170355
0.158886
0.15924
0.158116
0.16483
0.174888
0.187734
0.201121
0.211406
0.21987
0.226149
0.231761
0.237442
0.242607
0.24803
0.252927
0.254177
0.253551
0.246576
0.242027
0.22127
0.207119
0.159788
0.131078
0.0769731
0.0581379
0.0273477
0.412409
0.847462
1.20789
1.35917
1.35627
1.2152
0.929476
0.668794
0.576487
0.62226
0.751435
0.968558
1.15668
1.20924
1.16851
1.05692
0.872508
0.704621
0.646761
0.678642
0.759099
0.888173
1.01049
1.06565
1.05998
1.02789
0.979332
0.933629
0.905667
0.900639
0.912237
0.928939
0.937051
0.94048
0.932789
0.928939
0.881035
0.763903
0.688816
0.64807
0.645261
0.670185
0.6998
0.732785
0.762462
0.790962
0.817048
0.839616
0.861405
0.882322
0.902613
0.922638
0.942639
0.962008
0.980279
0.998122
1.01326
1.02683
1.03853
1.04917
1.05868
1.06831
1.07616
1.08241
1.08561
1.0878
1.08885
1.09287
1.09466
1.09771
1.09964
1.10757
1.09443
1.10452
1.06843
1.04666
1.01204
0.960314
0.943336
0.910532
0.858933
0.836461
0.79521
0.774629
0.739441
0.713493
0.669862
0.599472
0.506704
0.40858
0.312792
0.238785
0.199069
0.178617
0.170573
0.17006
0.174617
0.182163
0.189993
0.198319
0.206832
0.217381
0.226394
0.232925
0.236023
0.239192
0.241519
0.243879
0.244196
0.241635
0.231382
0.224879
0.200302
0.195344
0.15576
0.129673
0.0855725
0.0603335
0.0316862
1.46604
1.0766
0.668187
0.467294
0.4423
0.584444
0.882161
1.14813
1.23004
1.18359
1.0646
0.857365
0.635776
0.541162
0.567603
0.672491
0.862852
1.04107
1.10279
1.07924
1.0149
0.908871
0.779239
0.695785
0.689002
0.719998
0.775675
0.837843
0.89232
0.919951
0.922499
0.914379
0.906699
0.899181
0.895399
0.89925
0.884227
0.78225
0.730159
0.704157
0.705651
0.750195
0.784835
0.822839
0.855223
0.882819
0.906989
0.924645
0.939953
0.954827
0.969271
0.98419
1.00006
1.01602
1.03049
1.04525
1.05827
1.0706
1.08185
1.09177
1.10134
1.11159
1.12143
1.13574
1.15016
1.16578
1.18013
1.19511
1.2068
1.21561
1.22724
1.22344
1.24118
1.21545
1.22827
1.17279
1.15478
1.09906
1.04628
1.03165
0.98431
0.971632
0.925867
0.901179
0.852203
0.811652
0.7633
0.702691
0.62501
0.529351
0.404742
0.315894
0.253876
0.219785
0.203146
0.194751
0.190595
0.192628
0.197372
0.201954
0.20896
0.217064
0.222894
0.226394
0.230107
0.233284
0.235053
0.23702
0.237582
0.237728
0.225199
0.215076
0.185309
0.18089
0.147105
0.129048
0.0880893
0.0622456
0.0381671
0.325926
0.798698
1.20676
1.38568
1.39627
1.26633
0.973694
0.667495
0.529812
0.561291
0.683778
0.900621
1.13917
1.23476
1.20645
1.11554
0.932741
0.704638
0.573841
0.576626
0.647556
0.771946
0.922712
1.03422
1.06869
1.05515
1.01928
0.967017
0.911121
0.86577
0.84712
0.85114
0.865149
0.886675
0.907188
0.912571
0.917501
0.821791
0.807779
0.786219
0.856121
0.881159
0.910644
0.928954
0.941453
0.957112
0.972644
0.988172
1.00261
1.01698
1.03138
1.04539
1.05964
1.07552
1.09333
1.11241
1.13169
1.15108
1.16921
1.1873
1.20476
1.22053
1.23517
1.25001
1.26208
1.27345
1.28013
1.2884
1.28815
1.29687
1.29014
1.30053
1.28179
1.29409
1.2397
1.24794
1.17362
1.16394
1.09376
1.06962
1.01357
0.997518
0.947213
0.917745
0.865355
0.817264
0.762737
0.709731
0.658645
0.580588
0.490259
0.412527
0.338217
0.291545
0.265185
0.250358
0.244864
0.245989
0.246783
0.247751
0.248924
0.249413
0.249187
0.248407
0.249881
0.249766
0.248325
0.247454
0.244649
0.241575
0.229068
0.219206
0.190563
0.180753
0.148225
0.1333
0.0969776
0.0687606
0.0458155
1.54557
1.14296
0.703677
0.461603
0.42287
0.553756
0.854529
1.1632
1.28736
1.26047
1.15228
0.959418
0.703928
0.556288
0.565749
0.658633
0.838065
1.07451
1.21488
1.21934
1.1642
1.0698
0.942938
0.828342
0.780209
0.793108
0.836684
0.908325
0.984212
1.04514
1.07353
1.08118
1.07475
1.0613
1.04244
1.02951
1.04691
0.937864
0.944037
0.922316
0.977391
0.985088
1.01199
1.02412
1.03167
1.03853
1.05104
1.06419
1.07868
1.09368
1.10944
1.12912
1.14719
1.16722
1.18831
1.20807
1.22582
1.23992
1.25319
1.26648
1.27935
1.29276
1.30525
1.31779
1.32709
1.33634
1.34202
1.34844
1.34951
1.35599
1.35335
1.35883
1.35181
1.36937
1.31826
1.30578
1.22275
1.17715
1.12432
1.09456
1.04591
1.03158
0.986584
0.965161
0.928694
0.89087
0.847646
0.804555
0.76363
0.700646
0.642825
0.554382
0.488502
0.417485
0.378697
0.352295
0.336259
0.322017
0.310241
0.300971
0.292991
0.287625
0.281392
0.274141
0.268302
0.262432
0.257926
0.25489
0.250872
0.245179
0.226819
0.213789
0.188311
0.180392
0.150656
0.142085
0.10771
0.0764918
0.0544306
0.274915
0.763508
1.20963
1.41924
1.43294
1.31024
1.03534
0.688772
0.502082
0.521934
0.632909
0.857067
1.14557
1.30334
1.29988
1.22016
1.06002
0.800955
0.582817
0.526659
0.596268
0.706095
0.862761
1.0198
1.10473
1.1166
1.09246
1.04055
0.968849
0.91237
0.884731
0.886479
0.90296
0.93211
0.972402
1.00645
1.05635
0.930151
0.979588
0.965998
1.05801
1.06477
1.0916
1.10198
1.11307
1.11919
1.13875
1.15741
1.18188
1.20741
1.23042
1.25336
1.27314
1.28857
1.30079
1.31036
1.3175
1.32555
1.33673
1.34812
1.35922
1.36873
1.37683
1.38325
1.38965
1.39455
1.4017
1.40464
1.41207
1.41164
1.41364
1.41125
1.40825
1.4008
1.38577
1.3663
1.32797
1.27323
1.22698
1.19939
1.14578
1.12878
1.0887
1.05983
1.02224
0.986032
0.947426
0.912088
0.882315
0.846188
0.815233
0.754838
0.705553
0.640897
0.588104
0.538794
0.502931
0.472023
0.44758
0.428828
0.411391
0.394862
0.379715
0.36375
0.347386
0.330745
0.314796
0.302822
0.294196
0.285988
0.267451
0.245988
0.217389
0.198067
0.17315
0.164653
0.126254
0.0916985
0.0678649
1.62114
1.2163
0.760875
0.478305
0.446468
0.572911
0.855268
1.2065
1.38743
1.36933
1.28314
1.10941
0.841774
0.627347
0.612978
0.699924
0.862803
1.14584
1.3825
1.44331
1.37706
1.28381
1.16302
1.03108
0.952511
0.936531
0.961934
1.00969
1.08509
1.15944
1.20619
1.21939
1.21224
1.19444
1.1741
1.16043
1.19409
1.01703
1.02423
1.02606
1.12563
1.15212
1.17518
1.19244
1.20523
1.2216
1.2468
1.26974
1.29616
1.3188
1.33777
1.35216
1.36369
1.37271
1.38153
1.39051
1.40134
1.41369
1.42642
1.43879
1.44892
1.4579
1.4632
1.46985
1.47431
1.48067
1.48594
1.48796
1.49086
1.48605
1.47854
1.47471
1.46872
1.45998
1.44784
1.42264
1.39057
1.32759
1.2922
1.26761
1.22441
1.2039
1.17123
1.15196
1.12395
1.09007
1.0583
1.02319
0.99907
0.962744
0.951849
0.897679
0.876798
0.834463
0.807071
0.770889
0.737347
0.699728
0.663369
0.628034
0.594389
0.560178
0.522608
0.482936
0.441881
0.397312
0.357173
0.320125
0.29399
0.28009
0.264594
0.25041
0.229983
0.219661
0.187259
0.183641
0.142983
0.104959
0.0811919
0.251932
0.739529
1.21255
1.46678
1.48296
1.36592
1.11738
0.766645
0.536087
0.541693
0.642393
0.84719
1.13696
1.35786
1.39355
1.31364
1.18325
0.968017
0.725465
0.627604
0.657198
0.74521
0.874948
1.01565
1.10945
1.13748
1.12197
1.09346
1.04457
0.983598
0.925327
0.885027
0.865201
0.862352
0.867412
0.879716
0.93766
0.947803
1.06938
1.16292
1.28093
1.31467
1.33376
1.34286
1.35149
1.35636
1.36776
1.37329
1.38071
1.38795
1.39711
1.40624
1.4179
1.42887
1.4391
1.44856
1.45797
1.46538
1.47129
1.47638
1.48128
1.48768
1.49521
1.50361
1.51362
1.51684
1.51798
1.51495
1.51159
1.50443
1.50408
1.49867
1.49651
1.49741
1.48326
1.44179
1.39853
1.32962
1.30614
1.25709
1.22227
1.1899
1.164
1.14686
1.12861
1.10865
1.09725
1.07811
1.06974
1.03787
1.0312
0.975368
0.949925
0.900222
0.870959
0.834916
0.795996
0.753683
0.711117
0.667208
0.623314
0.581557
0.541538
0.500097
0.457067
0.412221
0.365777
0.321699
0.275752
0.2539
0.236755
0.229389
0.202492
0.208747
0.171568
0.169257
0.139318
0.0995577
0.0840165
1.71225
1.30368
0.868553
0.577766
0.561248
0.672817
0.913133
1.26169
1.47895
1.46969
1.3851
1.22213
1.00284
0.817097
0.776393
0.820021
0.924346
1.11727
1.3322
1.4166
1.3964
1.31191
1.19515
1.0825
1.00838
0.983849
0.996894
1.02067
1.0627
1.11499
1.17733
1.23751
1.27974
1.30316
1.31306
1.32187
1.32486
1.38755
1.43891
1.4103
1.42048
1.42433
1.43011
1.43412
1.43731
1.4403
1.44673
1.4491
1.45171
1.45492
1.45954
1.46531
1.47297
1.4814
1.4881
1.49484
1.50069
1.50662
1.51375
1.52166
1.52901
1.53341
1.53906
1.54182
1.54341
1.54348
1.54428
1.53536
1.52666
1.52758
1.51904
1.51179
1.50227
1.47913
1.40019
1.34763
1.2752
1.23012
1.19004
1.16302
1.12604
1.09615
1.08389
1.06477
1.05716
1.05466
1.06404
1.06209
1.062
1.03775
1.03289
0.980558
0.956934
0.909746
0.876838
0.834097
0.787952
0.740496
0.692286
0.64428
0.597004
0.553344
0.511792
0.470455
0.425691
0.381977
0.337977
0.29708
0.254855
0.218391
0.194387
0.197951
0.170588
0.19407
0.162674
0.169296
0.148246
0.11041
0.0951387
0.29068
0.744439
1.17944
1.43903
1.43649
1.34646
1.1546
0.896733
0.712319
0.698485
0.773265
0.904339
1.07734
1.22771
1.26827
1.23622
1.16669
1.05358
0.926915
0.862446
0.861192
0.903188
0.970084
1.04788
1.10569
1.13389
1.13781
1.13044
1.1163
1.0978
1.07428
1.05519
1.04433
1.03897
1.04173
1.04431
1.08191
1.13064
1.23651
1.35783
1.3963
1.40169
1.41516
1.43197
1.44269
1.45389
1.46173
1.4698
1.47631
1.48366
1.49127
1.4987
1.50531
1.51085
1.5142
1.51896
1.52308
1.52581
1.52983
1.53254
1.53257
1.5325
1.53261
1.53555
1.54014
1.54405
1.54618
1.54256
1.51427
1.47057
1.38135
1.26627
1.17633
1.05693
1.0505
0.994079
0.972589
0.964894
0.965836
0.965987
0.954142
0.946689
0.94105
0.932661
0.931037
0.931205
0.941993
0.948869
0.952536
0.9456
0.942665
0.901938
0.870329
0.821225
0.777385
0.72839
0.680869
0.635867
0.593996
0.552704
0.51101
0.469253
0.428537
0.391921
0.357127
0.325923
0.296038
0.263428
0.230152
0.197362
0.174861
0.167955
0.16341
0.169793
0.156888
0.167489
0.153009
0.118273
0.104072
1.72818
1.33375
0.999775
0.804497
0.788162
0.842737
0.977712
1.17503
1.31045
1.31571
1.24833
1.13926
1.01532
0.931888
0.910248
0.929219
0.970772
1.03961
1.12833
1.17531
1.1793
1.1544
1.10976
1.05789
1.01825
1.00223
0.999212
1.00464
1.01431
1.0279
1.03928
1.04445
1.04651
1.04592
1.04176
1.04596
1.09057
1.19204
1.23373
1.33067
1.39268
1.44808
1.47545
1.47691
1.48178
1.48356
1.48332
1.4851
1.49012
1.49499
1.50037
1.50449
1.50722
1.50636
1.50483
1.49867
1.49026
1.47852
1.46517
1.45197
1.44376
1.43644
1.41824
1.39197
1.34602
1.27721
1.19587
1.10648
1.00951
0.884835
0.789674
0.67902
0.59725
0.548015
0.557892
0.556248
0.59002
0.625087
0.646697
0.670967
0.69676
0.717277
0.734638
0.747446
0.761351
0.769728
0.779785
0.781175
0.786118
0.775827
0.775888
0.748627
0.724931
0.679552
0.634253
0.587843
0.547312
0.508342
0.474051
0.443935
0.415904
0.389548
0.365544
0.342027
0.316807
0.291487
0.262563
0.235738
0.209463
0.183131
0.164691
0.157776
0.15289
0.162613
0.15513
0.167813
0.160155
0.134474
0.115083
0.479324
0.840177
1.09572
1.23485
1.25022
1.20197
1.10355
0.985973
0.911828
0.909925
0.942095
0.992623
1.05523
1.10277
1.11332
1.10705
1.08305
1.04522
1.0092
0.992594
0.997674
1.00932
1.03049
1.05755
1.08247
1.09891
1.1082
1.11636
1.12369
1.13147
1.14217
1.15597
1.17589
1.20385
1.23936
1.28547
1.37619
1.46665
1.4598
1.52918
1.51938
1.53247
1.50992
1.50208
1.49518
1.49317
1.48796
1.48452
1.47687
1.46666
1.45467
1.44309
1.43179
1.42183
1.41417
1.40418
1.38406
1.35713
1.32296
1.2829
1.22631
1.1599
1.07929
0.973134
0.851228
0.735241
0.632336
0.545479
0.481645
0.439516
0.391996
0.336733
0.296356
0.2768
0.280027
0.291512
0.31637
0.341949
0.365629
0.397699
0.430006
0.464925
0.493258
0.514586
0.538016
0.558201
0.578757
0.589053
0.603435
0.606091
0.60641
0.58895
0.562442
0.527731
0.500365
0.474493
0.448781
0.424351
0.405082
0.386579
0.36873
0.347709
0.3251
0.300466
0.275443
0.253632
0.232238
0.212641
0.193011
0.172722
0.158291
0.154964
0.151087
0.164662
0.159563
0.179484
0.170758
0.146751
0.125854
1.54247
1.23599
1.03515
0.947703
0.940536
0.961865
1.01421
1.08079
1.12246
1.12016
1.09852
1.06044
1.01767
0.99404
0.989341
0.99765
1.01319
1.03263
1.0552
1.07199
1.0764
1.07503
1.0691
1.05899
1.05058
1.04725
1.04844
1.05245
1.06025
1.07031
1.08482
1.10163
1.12075
1.13944
1.15714
1.18902
1.22137
1.28173
1.3487
1.36913
1.3966
1.40962
1.41267
1.40321
1.38801
1.37537
1.36128
1.35039
1.33798
1.32728
1.31142
1.29484
1.27107
1.2399
1.19916
1.15197
1.10621
1.05388
1.00108
0.934596
0.856525
0.764561
0.672968
0.597922
0.545089
0.461046
0.397602
0.328477
0.277588
0.244622
0.22042
0.194775
0.173051
0.16637
0.168593
0.1763
0.189068
0.203235
0.221566
0.243829
0.26919
0.299392
0.329655
0.358837
0.385448
0.407568
0.431456
0.4496
0.46514
0.479553
0.489491
0.483305
0.474269
0.457908
0.439293
0.419687
0.398829
0.382016
0.365767
0.348527
0.329635
0.307876
0.284142
0.262005
0.244147
0.229364
0.213601
0.19856
0.182604
0.166557
0.155133
0.153026
0.151148
0.1649
0.166091
0.181011
0.183521
0.165387
0.138129
0.826031
0.979942
1.07613
1.12158
1.11932
1.09991
1.06369
1.02219
1.00146
1.00509
1.01303
1.02757
1.0447
1.05231
1.04964
1.04857
1.04327
1.0356
1.02911
1.02935
1.0332
1.04016
1.04775
1.05579
1.06416
1.0715
1.07778
1.08465
1.09235
1.10146
1.11358
1.12776
1.14363
1.15844
1.18735
1.24342
1.28066
1.24602
1.25607
1.23211
1.26478
1.24098
1.24196
1.23135
1.22532
1.20467
1.18216
1.1613
1.13153
1.09801
1.05618
1.00795
0.950203
0.880462
0.799591
0.718142
0.641416
0.572307
0.507813
0.45212
0.410802
0.384311
0.351038
0.325567
0.296809
0.260924
0.224203
0.195687
0.170085
0.157362
0.147551
0.137937
0.12924
0.122757
0.124343
0.130232
0.141725
0.150792
0.167333
0.181815
0.202282
0.22409
0.252273
0.279524
0.306477
0.331634
0.354005
0.378896
0.398535
0.416841
0.427025
0.423246
0.419056
0.401037
0.38837
0.372512
0.357549
0.343118
0.325521
0.306302
0.2874
0.269247
0.252686
0.240077
0.230767
0.219837
0.206547
0.19299
0.177849
0.164245
0.153684
0.151868
0.150935
0.166338
0.169414
0.182719
0.189758
0.17967
0.146622
1.24774
1.12745
1.03867
1.0062
1.00424
1.01661
1.03479
1.05073
1.05723
1.05535
1.04944
1.04059
1.03118
1.02457
1.02258
1.0254
1.03029
1.03525
1.04098
1.04689
1.05107
1.05497
1.05889
1.0621
1.06642
1.07199
1.07967
1.08907
1.10049
1.11641
1.13676
1.16371
1.19753
1.23341
1.28121
1.37804
1.25965
1.21643
1.15909
1.07217
1.06052
1.01036
1.01299
0.98303
0.959649
0.924701
0.882911
0.840622
0.79288
0.744462
0.693305
0.640391
0.583812
0.535001
0.48803
0.434242
0.385078
0.336711
0.297766
0.26294
0.23635
0.217851
0.201857
0.189009
0.175944
0.162168
0.143413
0.132809
0.119875
0.117357
0.120747
0.120556
0.119112
0.11884
0.121234
0.125382
0.133417
0.142957
0.158291
0.171939
0.187889
0.203769
0.226709
0.249342
0.272576
0.296295
0.317601
0.344184
0.365082
0.385983
0.396364
0.395272
0.388601
0.377415
0.368765
0.357182
0.34392
0.328548
0.309021
0.288974
0.270006
0.253853
0.242425
0.235083
0.227132
0.215881
0.202961
0.189078
0.174771
0.162884
0.152776
0.150276
0.150226
0.165789
0.172749
0.184293
0.196734
0.191124
0.160144
1.01545
1.05841
1.07312
1.07512
1.06822
1.05491
1.04096
1.03019
1.02741
1.02867
1.03077
1.03372
1.03778
1.03875
1.03687
1.03556
1.03542
1.03516
1.03641
1.03911
1.04297
1.04752
1.05194
1.05632
1.06117
1.06622
1.07162
1.0772
1.08293
1.09023
1.09933
1.1115
1.12369
1.14822
1.20272
1.2252
1.1511
1.05841
0.908738
0.787358
0.66793
0.616045
0.586961
0.565384
0.550693
0.531954
0.509533
0.490793
0.471537
0.45124
0.421204
0.384545
0.340953
0.304043
0.277447
0.250815
0.229086
0.203434
0.184446
0.162742
0.148693
0.136274
0.13127
0.127404
0.133101
0.132178
0.126869
0.122287
0.120611
0.122063
0.126973
0.131018
0.131291
0.132179
0.134545
0.140753
0.150011
0.161389
0.176107
0.189315
0.204215
0.219341
0.236636
0.255598
0.275272
0.296908
0.316565
0.342463
0.362015
0.381958
0.390132
0.389414
0.381579
0.372643
0.36284
0.350267
0.336564
0.320514
0.301871
0.283942
0.267085
0.253863
0.243421
0.234382
0.22206
0.207463
0.194551
0.182418
0.170284
0.16015
0.151544
0.14833
0.14957
0.165268
0.176049
0.18928
0.203355
0.204016
0.172436
1.11568
1.07565
1.04842
1.03566
1.0347
1.03604
1.03645
1.03846
1.03949
1.03797
1.03642
1.03507
1.03467
1.03362
1.03338
1.03402
1.03426
1.03641
1.03892
1.04257
1.04667
1.05057
1.05429
1.05859
1.06298
1.06805
1.07405
1.0814
1.09029
1.10107
1.11501
1.13411
1.15778
1.21614
1.22565
1.05481
0.883115
0.674833
0.531861
0.42467
0.36061
0.330802
0.324477
0.321542
0.323659
0.328408
0.33038
0.336944
0.335138
0.341355
0.333315
0.336952
0.329316
0.324535
0.298865
0.267719
0.236017
0.201968
0.178444
0.157842
0.145074
0.134959
0.13269
0.132254
0.139382
0.143634
0.144127
0.14161
0.141702
0.144894
0.151904
0.162217
0.167487
0.169128
0.172979
0.179435
0.186352
0.199173
0.212498
0.226143
0.241724
0.256993
0.272788
0.286967
0.303086
0.322008
0.337652
0.360463
0.376284
0.391301
0.395508
0.393198
0.38488
0.376276
0.362046
0.347164
0.332599
0.315337
0.298475
0.282336
0.268188
0.256306
0.243644
0.22872
0.212044
0.198059
0.187068
0.176675
0.166304
0.157797
0.15064
0.147335
0.149778
0.165194
0.179876
0.19436
0.210114
0.215111
0.184317
1.06326
1.06266
1.06134
1.0555
1.04802
1.04165
1.03595
1.03335
1.0321
1.03163
1.0316
1.03212
1.03386
1.03517
1.03534
1.03633
1.03743
1.03855
1.04031
1.04209
1.04497
1.04812
1.05115
1.05376
1.05571
1.0565
1.05618
1.05486
1.0509
1.04379
1.03334
1.02049
1.02712
1.05597
0.958924
0.78826
0.574609
0.418636
0.313144
0.253528
0.220775
0.202102
0.208588
0.203005
0.219185
0.234739
0.259181
0.277262
0.285469
0.295968
0.301705
0.331012
0.333866
0.351854
0.344912
0.351291
0.334139
0.306483
0.268126
0.229951
0.19566
0.176275
0.168563
0.164177
0.170184
0.178935
0.187527
0.188939
0.190261
0.193227
0.203938
0.221613
0.237502
0.242186
0.244384
0.248219
0.251631
0.261487
0.270348
0.279121
0.289426
0.300601
0.313831
0.326368
0.339197
0.354742
0.365105
0.379966
0.391655
0.401791
0.404496
0.400924
0.391669
0.381914
0.365611
0.350779
0.334467
0.317507
0.301085
0.285809
0.272543
0.259754
0.243607
0.226678
0.209743
0.196388
0.185607
0.17523
0.165619
0.158397
0.152039
0.149882
0.152872
0.167894
0.184445
0.201011
0.218245
0.227481
0.197245
1.07052
1.05907
1.05102
1.04516
1.04082
1.0382
1.03601
1.03448
1.03355
1.03204
1.03082
1.03075
1.03082
1.0316
1.03226
1.03384
1.0359
1.03827
1.04073
1.04328
1.04579
1.04869
1.05146
1.05444
1.05744
1.06061
1.06368
1.06581
1.06672
1.06542
1.05967
1.04328
1.01694
0.868255
0.694949
0.516835
0.398045
0.30509
0.2466
0.226395
0.211294
0.176062
0.17288
0.156941
0.172716
0.148057
0.126335
0.0984708
0.0810056
0.0754778
0.0916126
0.123033
0.167817
0.223869
0.271562
0.313418
0.333399
0.341568
0.338743
0.324401
0.304956
0.274175
0.253355
0.244305
0.245071
0.250439
0.263047
0.272036
0.281315
0.281215
0.283766
0.293247
0.309183
0.333307
0.344198
0.344498
0.343187
0.342504
0.343441
0.348227
0.354263
0.361551
0.369027
0.378866
0.387312
0.398113
0.406215
0.411509
0.417857
0.417653
0.418323
0.413219
0.403135
0.391373
0.374297
0.358887
0.341304
0.324756
0.308281
0.293538
0.279977
0.265535
0.248976
0.231789
0.214498
0.201224
0.189526
0.178329
0.168769
0.161748
0.156348
0.155118
0.158099
0.172891
0.190345
0.209186
0.226906
0.2401
0.21022
1.06005
1.05457
1.05044
1.04565
1.04056
1.03563
1.03386
1.03204
1.03138
1.0314
1.0296
1.02877
1.02887
1.02988
1.03159
1.03361
1.03568
1.03772
1.04064
1.04365
1.04589
1.04773
1.04892
1.04938
1.0484
1.04423
1.03481
1.01611
0.984084
0.929287
0.840818
0.712051
0.508686
0.376266
0.302982
0.233235
0.203176
0.161129
0.144073
0.104618
0.093166
0.0711311
0.0582785
0.0433526
0.0287483
0.0230249
-0.000462171
-0.00778447
-0.00372273
0.000381031
0.0169783
0.0301729
0.0512065
0.0768168
0.119568
0.166541
0.227227
0.285608
0.344666
0.386559
0.405098
0.406437
0.393626
0.382382
0.368649
0.358923
0.362849
0.374267
0.37872
0.393064
0.395019
0.398322
0.401551
0.412949
0.431755
0.44652
0.448661
0.443888
0.444291
0.437004
0.434991
0.430552
0.429461
0.430878
0.432934
0.436316
0.441192
0.444375
0.446972
0.445546
0.440663
0.43154
0.42049
0.404898
0.387277
0.370469
0.35268
0.335935
0.318986
0.304346
0.289921
0.274223
0.257342
0.240081
0.222981
0.209737
0.196686
0.184178
0.174737
0.167337
0.162537
0.161202
0.164392
0.179546
0.19714
0.218945
0.236179
0.253993
0.224043
1.05505
1.04958
1.04567
1.04361
1.04008
1.03652
1.03373
1.03163
1.03027
1.02821
1.02724
1.02685
1.02722
1.02827
1.0306
1.0328
1.03507
1.03747
1.03996
1.0429
1.04554
1.04832
1.05123
1.05443
1.05756
1.06099
1.06568
1.07409
1.08992
1.11919
1.17038
1.25138
1.36384
1.33973
1.1042
0.914362
0.753674
0.631172
0.532813
0.42664
0.325486
0.253854
0.201429
0.146973
0.100842
0.0676167
0.0626914
0.0700274
0.0856042
0.0950903
0.109918
0.127419
0.139056
0.158808
0.180132
0.214222
0.256061
0.306672
0.360726
0.409821
0.45876
0.499236
0.522109
0.532714
0.537106
0.536464
0.53185
0.529646
0.527354
0.531811
0.531941
0.533416
0.537236
0.537948
0.544283
0.548026
0.551403
0.547854
0.542306
0.534838
0.525503
0.514237
0.508008
0.500926
0.494932
0.489515
0.486433
0.480844
0.477822
0.473548
0.466891
0.453657
0.44093
0.422283
0.404837
0.386086
0.368312
0.350367
0.332751
0.317527
0.301658
0.284784
0.267132
0.250277
0.23356
0.220253
0.20581
0.192367
0.182721
0.174427
0.16983
0.168186
0.171731
0.187077
0.205515
0.229277
0.246087
0.267882
0.237527
1.04828
1.04413
1.04251
1.04202
1.03949
1.03733
1.03542
1.03211
1.02898
1.02751
1.02724
1.02657
1.02672
1.02779
1.02957
1.03192
1.03438
1.03695
1.03963
1.0428
1.04591
1.04873
1.05171
1.05414
1.0569
1.05876
1.05992
1.06021
1.05923
1.05629
1.0495
1.03683
1.03095
1.06811
1.18253
1.15045
1.14272
1.1151
1.0571
0.983256
0.893833
0.796038
0.718396
0.653808
0.606731
0.580841
0.559773
0.5643
0.562253
0.565763
0.565895
0.562391
0.558242
0.552062
0.544092
0.541564
0.548758
0.560975
0.571527
0.594011
0.609895
0.636419
0.654094
0.674054
0.687401
0.698354
0.699959
0.696877
0.697806
0.699414
0.697654
0.696831
0.696249
0.694607
0.692998
0.692381
0.690846
0.68245
0.663551
0.644055
0.623906
0.601873
0.584352
0.568188
0.554391
0.542302
0.532685
0.523359
0.516096
0.505657
0.494533
0.476955
0.463682
0.444683
0.424139
0.404655
0.385586
0.366804
0.348391
0.332248
0.315071
0.297515
0.279061
0.262396
0.246425
0.232246
0.216302
0.202349
0.191521
0.182782
0.178105
0.176212
0.179845
0.195005
0.214873
0.2401
0.257161
0.28261
0.251816
1.04447
1.04098
1.0396
1.03911
1.03835
1.03811
1.0359
1.03304
1.03036
1.02764
1.02637
1.02549
1.02586
1.02687
1.02808
1.03047
1.03332
1.0363
1.03959
1.04279
1.04633
1.04958
1.05338
1.05744
1.06189
1.06813
1.07592
1.08755
1.10489
1.13181
1.17442
1.2395
1.33085
1.45218
1.54958
1.65934
1.67961
1.67671
1.65575
1.62412
1.58022
1.53763
1.51643
1.46943
1.47237
1.41185
1.40417
1.36227
1.35981
1.339
1.32652
1.30609
1.28554
1.25892
1.22854
1.18576
1.13923
1.09566
1.04599
1.00678
0.968315
0.954152
0.931316
0.935012
0.91402
0.919298
0.906165
0.890475
0.875285
0.864353
0.862472
0.858683
0.861691
0.848943
0.841114
0.824084
0.806055
0.79485
0.776423
0.753681
0.734995
0.700309
0.672793
0.644404
0.620795
0.600848
0.581855
0.566109
0.551322
0.538187
0.521324
0.505824
0.490106
0.467227
0.447194
0.426282
0.405468
0.385454
0.366741
0.349268
0.330864
0.312862
0.29454
0.276779
0.261099
0.244956
0.228305
0.213891
0.202042
0.192771
0.18748
0.185031
0.188693
0.203504
0.224945
0.250867
0.269238
0.29699
0.266162
1.04045
1.03731
1.03707
1.03682
1.037
1.03687
1.03562
1.03316
1.03078
1.02828
1.02585
1.02566
1.02524
1.02627
1.02737
1.02956
1.03234
1.03556
1.03904
1.04237
1.04612
1.05008
1.05344
1.05794
1.06257
1.06805
1.07255
1.07569
1.07719
1.07617
1.0704
1.05612
1.02775
0.995999
0.975877
1.06645
1.09299
1.12642
1.14099
1.14093
1.12585
1.12448
1.14652
1.16518
1.21487
1.22089
1.27022
1.29212
1.31135
1.32603
1.33355
1.33715
1.33377
1.34686
1.33022
1.34358
1.31748
1.3157
1.28568
1.28467
1.25805
1.26327
1.24076
1.23646
1.2074
1.19011
1.18007
1.14408
1.11627
1.0752
1.04591
1.01397
0.991174
0.972638
0.957406
0.94899
0.920134
0.901015
0.873742
0.845831
0.821787
0.792259
0.754575
0.72213
0.690087
0.663317
0.638397