/*--------------------------------*- C++ -*----------------------------------*\
| =========                 |                                                 |
| \\      /  F ield         | OpenFOAM: The Open Source CFD Toolbox           |
|  \\    /   O peration     | Version:  2.2.x                                 |
|   \\  /    A nd           | Web:      www.OpenFOAM.org                      |
|    \\/     M anipulation  |                                                 |
\*---------------------------------------------------------------------------*/
FoamFile
{
    version     2.0;
    format      ascii;
    class       surfaceScalarField;
    location    "1.3";
    object      cfmax;
}
// * * * * * * * * * * * * * * * * * * * * * * * * * * * * * * * * * * * * * //

dimensions      [0 3 -1 0 0 0 0];

internalField   nonuniform List<scalar> 
28084
(
0.00113418
0.00116735
0.00116975
0.00116698
0.00114878
0.00112469
0.0011125
0.00109824
0.00110362
0.00110576
0.00111363
0.00112374
0.00112545
0.00111647
0.00110248
0.00108591
0.00108143
0.00107941
0.00108502
0.0010973
0.00111192
0.0011218
0.00112484
0.00112157
0.00111949
0.00112383
0.00112638
0.00113082
0.00113418
0.00114134
0.00114982
0.00115766
0.0011657
0.00117456
0.0011886
0.00117936
0.000876454
0.00086396
0.000865321
0.000861831
0.000858803
0.000847209
0.000834087
0.000821725
0.000811594
0.000815106
0.000820266
0.000828104
0.000837505
0.000846931
0.000856459
0.000866213
0.00087628
0.000887691
0.000900415
0.000914817
0.000931205
0.000949355
0.00096892
0.00098981
0.00101196
0.00103466
0.00105804
0.00108274
0.00110794
0.00113364
0.00115984
0.00118671
0.00121296
0.00123797
0.00126128
0.00128298
0.00130172
0.00131458
0.00132396
0.00133017
0.00132448
0.00131455
0.00130914
0.00129729
0.00126592
0.00117347
0.0010492
0.000929319
0.000837905
0.000779482
0.000732137
0.00068955
0.000658012
0.00063538
0.000620204
0.000608608
0.000600954
0.000597592
0.000599229
0.000603793
0.000610117
0.000615972
0.000621019
0.000625612
0.000630037
0.000634161
0.000638108
0.000642305
0.000647232
0.000653702
0.000662215
0.000672624
0.000684335
0.000696898
0.00071003
0.000723535
0.000735768
0.000746648
0.000754402
0.00075856
0.000758206
0.000752888
0.0033483
0.00336552
0.00122046
0.00315271
0.00109365
0.00305777
0.00106006
0.0030315
0.00104795
0.00318717
0.00105221
0.00321877
0.00114368
0.00314968
0.00121402
0.00311658
0.00122281
0.00306204
0.00122054
0.0029922
0.00118552
0.00279105
0.00111429
0.0026376
0.00106142
0.00256058
0.00105174
0.00253845
0.00105917
0.00254259
0.00108605
0.00249994
0.00113933
0.002422
0.00116131
0.00234402
0.00116505
0.00225592
0.0011543
0.0021173
0.0011295
0.00198055
0.00109555
0.00187847
0.0010771
0.00180396
0.00108193
0.00174714
0.00109107
0.0017041
0.00111035
0.00164791
0.00113962
0.00158234
0.00115066
0.00150616
0.00115338
0.00143046
0.00115292
0.0013558
0.0011495
0.00128566
0.00114595
0.00122439
0.00115027
0.00116838
0.00115679
0.00112082
0.00116625
0.00110547
0.0011852
0.00093677
0.00118565
0.000830469
0.000883622
0.000778673
0.000854257
0.000734574
0.000844143
0.000693737
0.000835289
0.000657216
0.000827765
0.000620006
0.000827446
0.000585288
0.00082842
0.000552562
0.000829697
0.000549385
0.000832374
0.000550129
0.000846652
0.000552345
0.000860868
0.000551543
0.000874674
0.000551113
0.000888262
0.000551146
0.000902191
0.000551313
0.000916688
0.000552133
0.000931296
0.000554109
0.000946235
0.000557462
0.000961753
0.000561925
0.000977874
0.000567656
0.00099442
0.000574416
0.00101132
0.000581945
0.0010283
0.000589998
0.00104541
0.000598393
0.00106274
0.000607052
0.00108041
0.000616279
0.00109767
0.000624284
0.00111399
0.000632916
0.00112951
0.000637979
0.00114527
0.000642364
0.0011606
0.000646672
0.00117485
0.000650412
0.00118843
0.000652819
0.0011994
0.000655544
0.00120791
0.000656935
0.00121244
0.000657115
0.00121325
0.000656619
0.00121203
0.000655913
0.00120103
0.000654544
0.00118841
0.000649725
0.00117029
0.000643054
0.0011502
0.000645287
0.00113656
0.000653238
0.00112655
0.000658263
0.00111252
0.000669095
0.00108059
0.000680558
0.00103591
0.000666947
0.000987291
0.000623876
0.000934549
0.000591348
0.0008751
0.000574384
0.000815413
0.000564911
0.000765423
0.000556114
0.000727526
0.000548515
0.000704962
0.000544267
0.000690335
0.000542328
0.000677797
0.000540624
0.000666683
0.000547187
0.000655523
0.000554506
0.000646165
0.000560614
0.000638058
0.000565011
0.000632846
0.000567792
0.000629423
0.000571051
0.000626993
0.000575095
0.000625521
0.000579712
0.000624649
0.000584386
0.000624566
0.000589437
0.000625634
0.000594942
0.00062769
0.000600547
0.000630761
0.000606464
0.000634984
0.000612371
0.000640838
0.000618047
0.000648841
0.00062309
0.000658937
0.000628496
0.000670955
0.000635268
0.000684766
0.000641772
0.000699179
0.000648641
0.000713543
0.000655932
0.000727186
0.000663541
0.00074082
0.000671985
0.000751378
0.000680435
0.000756932
0.000690227
0.000755277
0.000706357
0.00074871
0.00308325
0.00336176
0.00104087
0.00321967
0.00128916
0.00309008
0.00132424
0.00303609
0.00131986
0.00317732
0.00127042
0.00320503
0.00118668
0.00296879
0.0010907
0.00284905
0.0010758
0.00286788
0.00108491
0.00296651
0.00113846
0.002827
0.0012179
0.00266812
0.00129822
0.00256573
0.00130397
0.00253736
0.00129128
0.00256181
0.00125265
0.00249062
0.00117481
0.00234364
0.00113767
0.00227273
0.00114301
0.00223001
0.00116721
0.00212731
0.00121503
0.00200158
0.0012899
0.00189048
0.00133342
0.00180337
0.00133569
0.00175032
0.00133068
0.00171575
0.00131206
0.00165985
0.00129157
0.00158756
0.00128841
0.00150788
0.00129462
0.00142927
0.00131162
0.00135661
0.00132907
0.00128823
0.00135033
0.00122541
0.00136603
0.00116885
0.001373
0.00112447
0.0013703
0.00113358
0.00136863
0.000920649
0.00123797
0.000796531
0.000915217
0.000741915
0.000869632
0.000692739
0.00085497
0.000651656
0.000851835
0.000616953
0.000852432
0.000586474
0.000857467
0.000558212
0.000867966
0.00053002
0.00087727
0.000534912
0.000885738
0.000542098
0.000904299
0.000548944
0.000923305
0.000555583
0.00094181
0.000561067
0.000960413
0.000567732
0.000978585
0.000572924
0.000995817
0.000578358
0.00101234
0.000584047
0.00102849
0.000590054
0.00104443
0.000596135
0.00106045
0.00060221
0.00107636
0.000608147
0.00109239
0.000613972
0.00110831
0.000619585
0.00112404
0.000624928
0.00113971
0.000630073
0.00115574
0.00063416
0.00117207
0.000636715
0.00118891
0.000639888
0.00120665
0.000643323
0.00122445
0.000646913
0.00124164
0.000650303
0.00125775
0.000652768
0.00127219
0.000653982
0.00128378
0.000653945
0.00129117
0.000650791
0.00129261
0.000646564
0.00129153
0.00064263
0.0012856
0.000640042
0.00126649
0.000636899
0.001243
0.000634442
0.0012159
0.000634898
0.00118296
0.00063566
0.00115779
0.000642914
0.00114016
0.000653922
0.00111877
0.000669968
0.00108651
0.000683229
0.0010399
0.000686869
0.00100315
0.000665418
0.000960156
0.000646669
0.000904619
0.000619512
0.000852948
0.000596786
0.000804758
0.000575021
0.000765094
0.000562321
0.000734137
0.000555785
0.000714718
0.000553102
0.000700354
0.000549081
0.000689972
0.000552064
0.000680325
0.000558455
0.000670296
0.000562722
0.000660677
0.000566961
0.000653201
0.000569733
0.000648494
0.00057287
0.00064443
0.000576723
0.0006411
0.000581282
0.000638483
0.00058606
0.000636979
0.000591322
0.000636674
0.000596907
0.000637689
0.000602535
0.000639788
0.000608512
0.000643219
0.000614608
0.000648496
0.000620269
0.000655844
0.000625147
0.000665195
0.000629713
0.000676346
0.00063524
0.000689138
0.000643415
0.000702984
0.000651374
0.000716464
0.000659125
0.000728271
0.000670792
0.000739018
0.000684059
0.000747437
0.000702669
0.000753168
0.000718404
0.000751032
0.00073994
0.000748758
0.00306199
0.0034018
0.00130149
0.00299578
0.00105082
0.00281303
0.00102583
0.00282425
0.00103153
0.00312331
0.00104018
0.0032221
0.00119733
0.00296432
0.00136035
0.00283141
0.00137331
0.00288831
0.00135225
0.0029838
0.00128753
0.00276273
0.00118075
0.002514
0.00108761
0.00240632
0.00109112
0.00240696
0.00110418
0.00250787
0.00113495
0.0024832
0.00125075
0.00232687
0.00132223
0.00227099
0.00132532
0.0022478
0.00131149
0.00213914
0.00126467
0.00196784
0.0011941
0.00182674
0.0011792
0.00174379
0.00118705
0.00169274
0.00120613
0.00166033
0.00122226
0.00162608
0.00126154
0.00156939
0.00129321
0.00149921
0.0013022
0.00141981
0.00130282
0.00133881
0.00129516
0.00126161
0.00128024
0.00118692
0.00126805
0.00111968
0.00126443
0.00105207
0.00126345
0.00097487
0.0012551
0.000798874
0.000940764
0.000755295
0.00084312
0.000718879
0.00083315
0.000681102
0.000840207
0.000643546
0.000852242
0.000608564
0.000866938
0.000580137
0.000880775
0.000552174
0.000895601
0.000524989
0.000910719
0.000543969
0.000924223
0.000551012
0.000945102
0.000557451
0.000965018
0.000563565
0.000984054
0.000570433
0.00100244
0.000577157
0.00102001
0.000583284
0.00103688
0.000588823
0.00105339
0.00059431
0.00106978
0.000600049
0.0010863
0.00060568
0.00110296
0.0006112
0.0011197
0.000616366
0.0011366
0.00062112
0.00115314
0.000625705
0.00116993
0.000629886
0.00118614
0.000634074
0.0012024
0.000638226
0.00121883
0.000642774
0.00123539
0.000646473
0.00125189
0.000650827
0.00126891
0.00065662
0.00128552
0.000661771
0.00130059
0.000665688
0.00131304
0.000669277
0.00132452
0.000669705
0.0013352
0.000667823
0.00134246
0.00066694
0.00134108
0.000670066
0.00133225
0.000667179
0.00131782
0.000667027
0.00129168
0.000663494
0.00126582
0.000658429
0.00123179
0.000646963
0.00119084
0.000649056
0.00114471
0.000667484
0.00110511
0.000691193
0.00106947
0.000703445
0.00103648
0.000712291
0.00100735
0.000693568
0.000971684
0.000682131
0.000925762
0.000652366
0.000881736
0.000624244
0.000832132
0.000597462
0.000791573
0.000577776
0.000755056
0.000565196
0.000731077
0.00055889
0.000711875
0.000553372
0.000696443
0.0005524
0.000682701
0.000559975
0.000671744
0.000565164
0.000662798
0.000569246
0.000656633
0.00057186
0.000651712
0.000574336
0.000647847
0.000577753
0.000645909
0.000583317
0.000644414
0.000588454
0.000643717
0.000593973
0.000643469
0.000599646
0.000643728
0.000605329
0.000644756
0.000611453
0.000646966
0.00061771
0.000650673
0.000623425
0.000655964
0.000628204
0.000662792
0.000632565
0.000671179
0.000636482
0.000680991
0.000646445
0.000692382
0.000656935
0.0007048
0.000666566
0.000716567
0.000681136
0.00072637
0.000696853
0.000732174
0.000726282
0.000735678
0.000742412
0.000737543
0.000770849
0.000745466
0.00286782
0.00336399
0.00101251
0.00302747
0.00137464
0.00286976
0.0014303
0.00284098
0.0014354
0.00308531
0.00137421
0.00322514
0.00127414
0.00286651
0.00110244
0.0027257
0.00109026
0.00274314
0.00111229
0.00287097
0.0011605
0.00275976
0.00128548
0.00251823
0.00143679
0.00240842
0.00145033
0.0024114
0.00143089
0.00252093
0.0013913
0.00246963
0.00127437
0.00226197
0.00117841
0.00217013
0.00119206
0.00213725
0.00121559
0.00211454
0.00128814
0.00195428
0.00139355
0.00181345
0.00149758
0.00173206
0.00151006
0.00169931
0.00149958
0.00167794
0.00147889
0.00164408
0.00144032
0.00158395
0.00142044
0.0015001
0.00142483
0.00142135
0.00144439
0.0013345
0.00146881
0.00125391
0.00150015
0.00117834
0.00153029
0.0011129
0.0015465
0.00104319
0.00155441
0.000984134
0.00156455
0.000800895
0.00143127
0.000755584
0.0010625
0.000715616
0.00101459
0.000673386
0.00100025
0.000646973
0.000996916
0.000622157
0.00100229
0.000595372
0.00101004
0.000568837
0.00101799
0.000540586
0.00102757
0.000560351
0.00103469
0.000564727
0.00104973
0.000568265
0.00106411
0.000572473
0.00107865
0.000576829
0.00109315
0.00058108
0.00110703
0.000585832
0.00112075
0.000591158
0.00113447
0.00059685
0.00114843
0.000602983
0.00116288
0.00060915
0.00117807
0.000615064
0.00119355
0.000620528
0.00120937
0.000625687
0.00122521
0.000630334
0.00124098
0.000634247
0.00125636
0.000638121
0.00127125
0.000641037
0.00128441
0.000643274
0.00129642
0.000645667
0.00130812
0.000649302
0.00132166
0.000651719
0.00133382
0.000652618
0.00134372
0.000653051
0.00135211
0.000651639
0.00135789
0.000647217
0.00135967
0.000639128
0.0013562
0.000644327
0.00135294
0.000645426
0.00134251
0.000648191
0.0013141
0.000653002
0.00128901
0.000657401
0.00126166
0.000666479
0.0012377
0.000661929
0.00120696
0.000663931
0.00116415
0.00068562
0.00112674
0.000714366
0.00109795
0.00072667
0.00107274
0.000738344
0.00104652
0.000722294
0.00101618
0.000711733
0.000973359
0.000680701
0.00092994
0.00064934
0.000878095
0.000619021
0.000827439
0.000594191
0.00078284
0.000578157
0.000751509
0.000569067
0.000726283
0.000559191
0.000708227
0.000550851
0.000693224
0.000559398
0.00068237
0.000566148
0.000673832
0.000570919
0.000668072
0.000573657
0.000662851
0.0005767
0.000659688
0.0005796
0.000659367
0.000584826
0.000659841
0.000590211
0.000659296
0.000595891
0.000659009
0.000601739
0.000659263
0.000607698
0.000660061
0.000614113
0.00066182
0.000620351
0.000665093
0.000625861
0.000670058
0.000630348
0.000676401
0.0006344
0.000683614
0.000639572
0.000692129
0.000650156
0.000702208
0.000662556
0.000713069
0.000676069
0.000722133
0.000694595
0.000726086
0.000712808
0.000726193
0.000745598
0.000728561
0.00075783
0.000731512
0.000795812
0.000740898
0.00281425
0.00347008
0.00137162
0.00295663
0.00106207
0.00270446
0.00102789
0.00266996
0.0010478
0.00301941
0.00106099
0.0032335
0.00123147
0.00286664
0.00146639
0.00267563
0.00149283
0.00275898
0.00145694
0.00291933
0.00140459
0.00279349
0.00128257
0.00249678
0.00115644
0.00233989
0.0011515
0.00231753
0.0011741
0.00242566
0.0012019
0.00244829
0.00132633
0.00223569
0.00147712
0.00215638
0.00149702
0.00215767
0.00148399
0.00219704
0.00143942
0.00201157
0.00135974
0.00184858
0.00130318
0.00173775
0.00131066
0.0016734
0.0013261
0.00163458
0.00134438
0.00160357
0.00137732
0.001568
0.0014412
0.00150976
0.00147329
0.00144129
0.00148019
0.00136659
0.00147991
0.00129191
0.00147256
0.00121885
0.00145966
0.00115521
0.00146071
0.00109132
0.0014683
0.00108329
0.00148543
0.000871808
0.00141654
0.000799005
0.00105428
0.000735261
0.00101262
0.000678376
0.00100367
0.000645079
0.00100665
0.000621309
0.0010182
0.000595443
0.00103343
0.000569205
0.00104772
0.000541685
0.00106207
0.000566132
0.00107391
0.000571822
0.00109156
0.000575506
0.00110858
0.000579557
0.0011244
0.000584011
0.00114006
0.000588685
0.00115542
0.000593698
0.00117073
0.000599355
0.00118625
0.00060529
0.00120245
0.000611687
0.00121926
0.000618118
0.00123657
0.000623965
0.001254
0.000629475
0.0012714
0.00063455
0.0012886
0.000639084
0.00130564
0.000642611
0.00132239
0.000645563
0.00133852
0.000647783
0.00135398
0.000649381
0.0013695
0.000652095
0.00138456
0.000655388
0.00139927
0.000656916
0.0014133
0.000656772
0.00142543
0.000654646
0.00143621
0.000651767
0.00144484
0.000645755
0.00144951
0.000638025
0.0014537
0.000649968
0.00145508
0.000656608
0.00144506
0.000659045
0.00142895
0.000667136
0.00138851
0.000671403
0.00135476
0.000687236
0.00131589
0.000695484
0.00127946
0.000700175
0.00123595
0.000719681
0.00119794
0.000746598
0.00117417
0.000754479
0.00115036
0.000765291
0.00112529
0.00075386
0.0010968
0.000743363
0.00105697
0.000712218
0.00101323
0.000680861
0.000957402
0.000647808
0.00089603
0.000616793
0.000838677
0.00059574
0.000794706
0.000580645
0.000758551
0.000566246
0.000731643
0.000554127
0.000712705
0.000560115
0.000700647
0.000568759
0.000692036
0.000573918
0.000686091
0.000577062
0.000680697
0.00058158
0.000677216
0.000584223
0.000675296
0.000587072
0.000674736
0.000591866
0.000673208
0.000597451
0.000672454
0.000603269
0.00067239
0.000609298
0.000672843
0.000615721
0.000674262
0.000621932
0.000677144
0.000627178
0.000681545
0.000630889
0.000687328
0.000634881
0.000693693
0.000642447
0.000700517
0.000653932
0.000708172
0.000669771
0.000715868
0.000690275
0.000722369
0.000714768
0.000726455
0.000731361
0.00072832
0.000763328
0.000730896
0.000771685
0.000733051
0.000814904
0.000741593
0.00274932
0.00339692
0.00101073
0.00294903
0.00144761
0.00274274
0.0015419
0.00270222
0.00153567
0.00298554
0.00148348
0.00328268
0.00137551
0.00285295
0.00114702
0.0026581
0.00114445
0.0026465
0.00116967
0.00276333
0.00118795
0.00275441
0.00133377
0.0024633
0.00155017
0.00231122
0.00158924
0.00232526
0.00157676
0.00245583
0.00152891
0.00249659
0.00141698
0.00222955
0.00127111
0.00208034
0.00127274
0.00204473
0.00130127
0.00204553
0.00133913
0.00197283
0.0014367
0.00179955
0.00159581
0.0017025
0.00167076
0.00166813
0.00167067
0.00165072
0.00165536
0.00163203
0.00161358
0.00159793
0.0015677
0.00152342
0.00154674
0.00144412
0.00155223
0.00136838
0.00157835
0.00128962
0.00161148
0.00121498
0.00163955
0.00115197
0.00165404
0.00109282
0.00165878
0.00107047
0.00165739
0.000919073
0.00159411
0.000821176
0.00116362
0.000736963
0.00109063
0.000666299
0.00105475
0.000639881
0.00104783
0.000618707
0.00105964
0.000596068
0.0010829
0.00057074
0.00110685
0.000543677
0.00113101
0.000572015
0.00115062
0.000578699
0.0011735
0.000583847
0.00119409
0.000589112
0.00121252
0.000595221
0.00123038
0.000601567
0.00124823
0.000608243
0.00126566
0.000615292
0.00128313
0.000622072
0.00130143
0.000628909
0.00131961
0.00063522
0.00133771
0.000640823
0.00135512
0.000646099
0.00137178
0.000651164
0.00138823
0.00065564
0.00140425
0.000658899
0.00141906
0.000661252
0.00143364
0.000663461
0.00144769
0.000665725
0.00146114
0.000668511
0.00147311
0.000670197
0.00148521
0.000670229
0.00149635
0.000671085
0.00150753
0.000670636
0.0015196
0.000667636
0.00152832
0.000661352
0.00153674
0.000656545
0.00154243
0.000671313
0.00154255
0.000694293
0.00153951
0.000695366
0.00152742
0.000705391
0.00147359
0.000711838
0.00143291
0.000724157
0.0013892
0.000745629
0.00135712
0.000755993
0.00133624
0.000771749
0.00130993
0.000791252
0.00128947
0.000795902
0.00126678
0.000806211
0.00124303
0.000795939
0.00121742
0.000789442
0.00117708
0.000761725
0.00113213
0.000731767
0.00107265
0.000692029
0.000998882
0.000652471
0.000920173
0.000623419
0.000855727
0.000599852
0.000802525
0.000576361
0.000765748
0.00055914
0.000741084
0.000560728
0.000726497
0.000570886
0.000716215
0.000577682
0.000709499
0.0005828
0.000704266
0.000587107
0.000699343
0.000589199
0.000695632
0.000589822
0.00069325
0.000594061
0.000691946
0.000599465
0.00069104
0.000605112
0.000690336
0.000611032
0.00068981
0.000617365
0.00069022
0.000623355
0.00069191
0.000628403
0.000695044
0.000631446
0.000699506
0.000635963
0.000705062
0.000646139
0.000710223
0.000659507
0.000715373
0.00067852
0.000720037
0.00070471
0.000723631
0.00073323
0.000727715
0.000749599
0.00073096
0.000780772
0.000734074
0.000786633
0.000735488
0.000832217
0.00074302
0.00264465
0.00351468
0.00145865
0.002982
0.00111048
0.00268681
0.00104603
0.00261063
0.00107316
0.00288683
0.00109404
0.00325973
0.0012525
0.00283849
0.0015487
0.00257668
0.00162055
0.00264554
0.00158807
0.00283834
0.00154255
0.00288876
0.00141984
0.0025376
0.00125556
0.00233291
0.00121743
0.00229678
0.00125184
0.00233883
0.001283
0.00243701
0.00139047
0.00218278
0.00162482
0.00203453
0.00169864
0.00204356
0.00169194
0.00208596
0.00165498
0.00212918
0.00158333
0.00194537
0.00148433
0.00176747
0.00143964
0.00169418
0.00144948
0.00164729
0.00147937
0.00161764
0.00151928
0.00159301
0.00160461
0.00152094
0.00168771
0.00146588
0.00173802
0.00141241
0.00175234
0.00135427
0.00174725
0.0012906
0.00173924
0.00121654
0.00173742
0.00114301
0.00173981
0.00109913
0.00174893
0.000987132
0.00174462
0.000861373
0.00126297
0.000762181
0.00117101
0.000675281
0.00113846
0.000649148
0.00113838
0.000634773
0.00116398
0.00061534
0.00119412
0.00058917
0.00122032
0.000558634
0.00124417
0.000589131
0.00126319
0.000595029
0.00128473
0.00059979
0.00130429
0.000605759
0.00132218
0.000613031
0.00133931
0.000620456
0.0013562
0.000628289
0.00137267
0.000636572
0.00138914
0.000644334
0.0014071
0.000652198
0.00142499
0.000658594
0.00144343
0.000663695
0.00146286
0.000667998
0.00148118
0.000671736
0.00149917
0.000674762
0.00151644
0.000676161
0.0015323
0.000677678
0.0015487
0.000678456
0.00156412
0.000678363
0.00157977
0.000678668
0.00159975
0.000678956
0.00161796
0.000678617
0.00163528
0.000679182
0.00165219
0.000677072
0.00166698
0.000672892
0.00167907
0.000667866
0.00168815
0.000659614
0.0016918
0.000681835
0.00169661
0.000705761
0.00170101
0.000722911
0.0016734
0.000732435
0.00163668
0.000749818
0.00157215
0.000757583
0.00152977
0.000787074
0.00149757
0.000810375
0.00147944
0.000827486
0.0014569
0.000845633
0.0014359
0.000848679
0.00141076
0.000860751
0.00137755
0.000852031
0.00134363
0.000849978
0.00129583
0.000827893
0.00124668
0.00080507
0.0011868
0.000760732
0.00111547
0.000708262
0.0010283
0.000665527
0.00094557
0.000626145
0.000868546
0.000591553
0.000813686
0.000568099
0.000780529
0.000560666
0.000760517
0.000573041
0.000747549
0.00058151
0.000738953
0.000587548
0.000732361
0.000591999
0.000725739
0.000594037
0.000719503
0.000594487
0.000714644
0.000597684
0.000711251
0.000601988
0.000708659
0.00060673
0.000706586
0.000612576
0.00070483
0.00061879
0.000704132
0.000624574
0.000704608
0.000629589
0.000706529
0.000632412
0.000709862
0.000639998
0.000714382
0.000651919
0.000718252
0.000667299
0.00072162
0.000689523
0.000724532
0.000719546
0.000726744
0.000750334
0.000730813
0.000767169
0.000734439
0.000797163
0.000737901
0.000802471
0.000738122
0.000848673
0.000745366
0.0027084
0.00337447
0.00102676
0.00293459
0.00152411
0.00268433
0.00165534
0.00259032
0.00163601
0.0028937
0.00158703
0.0033658
0.00146793
0.00289928
0.00122132
0.00262498
0.0012069
0.0025913
0.00122545
0.00273465
0.00125793
0.00277195
0.00138609
0.0025055
0.00165264
0.002265
0.00178196
0.00228716
0.00176019
0.00239801
0.00169919
0.00256923
0.00161392
0.00226733
0.0014092
0.00204276
0.00136842
0.00197008
0.0014051
0.00198048
0.00143751
0.00202078
0.00149873
0.00186492
0.00167591
0.00172709
0.00184251
0.00166359
0.0018888
0.00164331
0.00189211
0.00163879
0.00187388
0.00162838
0.00181748
0.00158348
0.00176414
0.00148772
0.00172226
0.0013924
0.00172065
0.00133594
0.0017452
0.00128232
0.00177596
0.00123117
0.00181476
0.00116778
0.00186744
0.00111812
0.00189085
0.00105899
0.00191048
0.000920652
0.00137987
0.000792492
0.00128022
0.000686661
0.0012562
0.000684751
0.0012797
0.000682497
0.00131753
0.000659972
0.00134818
0.000631482
0.00137234
0.000597699
0.00138707
0.000628127
0.00139869
0.000629606
0.00141454
0.000632489
0.00143182
0.000636723
0.00144863
0.00064289
0.00146515
0.000649264
0.0014814
0.000656222
0.00149721
0.000663607
0.00151377
0.000670408
0.00153154
0.000677681
0.00155168
0.000684052
0.00157451
0.00068962
0.00159915
0.00069395
0.00162125
0.000697151
0.00164158
0.000700334
0.00166251
0.000703664
0.00168396
0.000707171
0.00170505
0.000711611
0.00172584
0.000719205
0.00174531
0.000727517
0.00176702
0.00073619
0.00178559
0.00074345
0.00180006
0.000747624
0.00181165
0.00074641
0.00181789
0.00074487
0.00182418
0.000736522
0.00183455
0.000726859
0.0018298
0.000751604
0.00184483
0.00077598
0.00183533
0.000798913
0.00183023
0.00080347
0.00176459
0.000812238
0.00172316
0.000825552
0.00166885
0.000839843
0.00162958
0.000861422
0.00159367
0.000874637
0.00156435
0.000893867
0.00153689
0.000895999
0.00150104
0.000909666
0.00146371
0.000897903
0.00142385
0.000898408
0.001372
0.000882355
0.00131766
0.000868613
0.00125602
0.000829156
0.0011937
0.000776725
0.00111904
0.00072793
0.00102825
0.00066495
0.000944666
0.000614721
0.000872336
0.000583011
0.000831709
0.000565388
0.000805627
0.000574978
0.000789246
0.000584071
0.000777077
0.000590464
0.000767343
0.000594996
0.00075895
0.000597152
0.000750606
0.000598109
0.000743149
0.000600726
0.000737034
0.000604333
0.00073197
0.000608304
0.000728151
0.000614369
0.000725475
0.000620621
0.00072385
0.000626591
0.000723382
0.000631738
0.000723886
0.000634455
0.000725482
0.000645445
0.000727602
0.000659579
0.000729419
0.000677354
0.000730645
0.000702831
0.000731776
0.000734865
0.000732441
0.000767122
0.000736159
0.000784761
0.00073979
0.000813256
0.000743549
0.000818861
0.00074239
0.000864754
0.000749115
0.00253689
0.00351405
0.00155579
0.00305927
0.00118932
0.00271263
0.00107656
0.00263128
0.00110467
0.00282748
0.00114327
0.0032942
0.00130277
0.00284242
0.00164437
0.00252364
0.00178307
0.0025673
0.00174602
0.00278845
0.00169717
0.00304896
0.00159512
0.00267828
0.00141151
0.00239112
0.00129904
0.00235622
0.00134723
0.00242151
0.00139033
0.00247882
0.00152251
0.00217081
0.00178915
0.00193879
0.00200453
0.0019307
0.00199299
0.00198007
0.00194677
0.00207927
0.00189746
0.00209635
0.00179931
0.00191512
0.00168066
0.00177881
0.00162822
0.00169207
0.00167096
0.00168671
0.00173497
0.00168488
0.00184885
0.00157118
0.00198069
0.00145503
0.00208417
0.00138493
0.0021421
0.0013356
0.00217236
0.00128493
0.00216554
0.00124445
0.00216073
0.00119355
0.0021573
0.00112904
0.00215447
0.00112143
0.00217099
0.000957078
0.0015466
0.000820541
0.00140042
0.000724263
0.00138633
0.00075715
0.00141275
0.000739616
0.00144985
0.000707449
0.0014731
0.00066937
0.00150087
0.00062879
0.00151728
0.000661986
0.00152988
0.000660572
0.00154578
0.000661967
0.00156581
0.000664866
0.00158518
0.000669967
0.00160516
0.000675443
0.00162658
0.000681843
0.00164883
0.000689591
0.00167163
0.000698224
0.00169567
0.000709245
0.00172251
0.000719233
0.00174984
0.000728502
0.00177435
0.000737135
0.00179624
0.000744602
0.00181572
0.000752284
0.00183773
0.000759584
0.0018567
0.000766073
0.0018747
0.000771406
0.0018925
0.000776588
0.00190748
0.000781195
0.0019198
0.000783821
0.00193285
0.000784071
0.00194135
0.00078416
0.00194432
0.000780495
0.00194722
0.000779875
0.00195008
0.00076623
0.00195485
0.000763147
0.00195813
0.000786782
0.00197323
0.00083618
0.00198659
0.00084498
0.0020012
0.00088859
0.00192454
0.000886228
0.00186486
0.000912963
0.00179203
0.00092025
0.00174862
0.000938626
0.00171536
0.000951216
0.00168091
0.000968727
0.00165378
0.000965326
0.00161285
0.000978681
0.00157717
0.000962288
0.00154005
0.000958161
0.00149821
0.000941909
0.00144167
0.000921465
0.00138231
0.000892645
0.00131995
0.00084996
0.00124904
0.000787042
0.00116293
0.000712602
0.00105898
0.00064433
0.000967388
0.000604539
0.000913788
0.000580663
0.000881214
0.000577209
0.000857611
0.000587628
0.000838279
0.000595044
0.000821777
0.000599287
0.000807669
0.000601585
0.00079403
0.000602927
0.000782239
0.00060519
0.000772384
0.000608384
0.000764205
0.000611626
0.000757751
0.000617199
0.000752612
0.000623341
0.000748364
0.000629068
0.000745025
0.00063408
0.000742523
0.00063763
0.000741754
0.000652968
0.000741918
0.000669325
0.000741423
0.00068934
0.000740585
0.000718084
0.000740041
0.000750681
0.000739827
0.00078437
0.000743285
0.000802643
0.000747617
0.000829598
0.000751017
0.000836267
0.000748373
0.000880735
0.000754373
0.00271679
0.00340528
0.00105725
0.00295486
0.00162218
0.0026568
0.00179836
0.00254798
0.00176336
0.00288486
0.00171015
0.00348395
0.00159267
0.00298917
0.00135684
0.00264981
0.00127753
0.00260173
0.00128232
0.00280318
0.00135342
0.00295195
0.00147394
0.00254902
0.00181953
0.00228426
0.00207775
0.00230859
0.0020639
0.00242381
0.00200776
0.00264904
0.00189586
0.00247055
0.00173243
0.00210652
0.00151967
0.00200032
0.00151288
0.00202074
0.00157315
0.00208964
0.00164998
0.00204119
0.00185325
0.00181759
0.00212237
0.00172169
0.00226903
0.00171173
0.00228722
0.0017174
0.00226149
0.001735
0.00221426
0.0017243
0.00213282
0.00161391
0.00206509
0.00153969
0.00205351
0.00147943
0.00206946
0.00142956
0.00212878
0.00138244
0.00220694
0.0012932
0.002299
0.00120578
0.00237523
0.00122679
0.00245696
0.000990055
0.00168316
0.00083397
0.00147537
0.000770396
0.00147719
0.000793573
0.00153279
0.000771663
0.00158399
0.000741042
0.00161678
0.00070045
0.00165097
0.000657451
0.00167546
0.000695882
0.00169233
0.000698839
0.00171429
0.000702193
0.00174874
0.000707415
0.00178074
0.000715243
0.00181361
0.000724478
0.00184409
0.000735221
0.00187345
0.000746291
0.00190045
0.000759497
0.00192534
0.00077325
0.0019481
0.000783254
0.00196726
0.000789989
0.00198479
0.000794793
0.00200012
0.000799652
0.00201642
0.00080483
0.00203642
0.000809402
0.00204698
0.000813544
0.00205834
0.000815824
0.00206743
0.000817476
0.00207192
0.000817696
0.00207426
0.000818043
0.00207825
0.000816241
0.00208909
0.000812744
0.00209549
0.000809524
0.00209713
0.00080671
0.00212067
0.000792914
0.00213114
0.000796546
0.00213832
0.000832535
0.00214106
0.000881135
0.00214555
0.000911356
0.00215006
0.000962202
0.00209874
0.000969349
0.00205865
0.000977163
0.00200465
0.000991723
0.00195284
0.0010055
0.00191129
0.0010176
0.00187638
0.00103233
0.0018465
0.00102737
0.00180928
0.00103969
0.00175764
0.00103438
0.00171077
0.00103557
0.00166326
0.00102374
0.00159646
0.00100457
0.00154078
0.000979543
0.00148154
0.000939885
0.00141291
0.000876617
0.00132779
0.000778748
0.00121643
0.00069518
0.00110248
0.000640712
0.00102935
0.000611454
0.000988075
0.00059382
0.000957106
0.000593839
0.000929647
0.00059936
0.000904088
0.000601402
0.000880787
0.00060316
0.000857667
0.000605167
0.000835675
0.000607717
0.000816237
0.000610997
0.000799141
0.000614381
0.000785464
0.000619316
0.000775533
0.000624595
0.000768464
0.000629538
0.000762428
0.000634024
0.000757436
0.000643785
0.000754588
0.000661699
0.000754001
0.000680963
0.000752634
0.000703279
0.000750836
0.000734697
0.000751518
0.000767014
0.000752582
0.000801615
0.000755725
0.000821675
0.000760316
0.000846679
0.000761697
0.000854786
0.000756846
0.000897331
0.000761904
0.00246592
0.00354649
0.00167845
0.00318747
0.00130081
0.00279263
0.00111473
0.0027558
0.00115866
0.0030354
0.00122366
0.00334264
0.00143028
0.00285514
0.00179273
0.00251096
0.00204337
0.00253675
0.00199107
0.0027886
0.00195644
0.00319945
0.00186725
0.00295864
0.00170981
0.00253676
0.00145478
0.00255625
0.00148511
0.00264469
0.00156175
0.00277293
0.00175644
0.00229532
0.00208612
0.0020544
0.00254252
0.00188339
0.0025992
0.00198112
0.00247717
0.0020857
0.00238076
0.00224946
0.00228572
0.00219891
0.00214897
0.00204322
0.00205929
0.00193796
0.00207261
0.00188721
0.00212504
0.00184883
0.00221928
0.00173307
0.00235929
0.00161061
0.00255343
0.00150487
0.00265235
0.00145614
0.00267777
0.00142006
0.002668
0.00139492
0.00264295
0.00135492
0.00261508
0.00126103
0.00260218
0.00124694
0.0025947
0.00100044
0.00193244
0.000826922