/*--------------------------------*- C++ -*----------------------------------*\
| =========                 |                                                 |
| \\      /  F ield         | OpenFOAM: The Open Source CFD Toolbox           |
|  \\    /   O peration     | Version:  2.2.x                                 |
|   \\  /    A nd           | Web:      www.OpenFOAM.org                      |
|    \\/     M anipulation  |                                                 |
\*---------------------------------------------------------------------------*/
FoamFile
{
    version     2.0;
    format      ascii;
    class       surfaceScalarField;
    location    "1";
    object      phi;
}
// * * * * * * * * * * * * * * * * * * * * * * * * * * * * * * * * * * * * * //

dimensions      [1 0 -1 0 0 0 0];

internalField   nonuniform List<scalar> 
28084
(
0.000746224
0.000742988
0.000740213
0.000737877
0.000735962
0.000734443
0.000733299
0.000732503
0.000732031
0.000731856
0.00073195
0.000732288
0.00073284
0.000733581
0.000734484
0.000735523
0.000736673
0.00073791
0.00073921
0.000740553
0.000741918
0.000743285
0.00074464
0.000745932
0.000747825
0.000720498
0.000717282
0.000709952
0.00070279
0.000695515
0.000688189
0.000681139
0.000674371
0.000667971
0.000662004
0.000656318
0.000651087
0.000646101
0.000641021
0.000635733
0.000630412
0.00062498
0.000619646
0.00061431
0.000609199
0.000612579
0.000616175
0.000619947
0.000624003
0.000628317
0.000632761
0.00063712
0.000641009
0.000644314
0.000647203
0.000649872
0.000652267
0.000654386
0.00065621
0.000657613
0.000658803
0.000659728
0.000660395
0.000660935
0.000661616
0.000661848
0.000660901
0.000658688
0.000655372
0.000651087
0.000646002
0.000640246
0.000633912
0.000627059
0.000619625
0.000611723
0.000603509
0.000595046
0.00058616
0.000576801
0.000566956
0.000556688
0.000546216
0.000535698
0.000525298
0.000514515
0.000502959
0.000490828
0.000478326
0.000465589
0.000452696
0.000439701
0.000426651
0.000413637
0.000400774
0.000388176
0.000375778
0.000363357
0.000350961
0.000338713
0.000326605
0.000314576
0.000302555
0.000290459
0.00027814
0.00026544
0.000252384
0.000238957
0.000225076
0.00021058
0.000195207
0.000178658
0.00016064
0.000140873
0.000118936
9.44418e-05
6.68687e-05
3.62699e-05
3.7119e-06
3.23513e-06
0.00074974
2.77572e-06
0.000748785
2.33538e-06
0.000748259
1.91574e-06
0.000748147
1.51833e-06
0.000748429
1.14451e-06
0.000749083
7.95452e-07
0.000750087
4.72133e-07
0.000751415
1.7529e-07
0.000753039
-9.458e-08
0.000754933
-3.37226e-07
0.000757068
-5.52641e-07
0.000759414
-7.41055e-07
0.000761942
-9.02918e-07
0.000764622
-1.03889e-06
0.000767426
-1.14981e-06
0.000770325
-1.23667e-06
0.000773292
-1.30061e-06
0.0007763
-1.34287e-06
0.000779324
-1.36477e-06
0.000782341
-1.36752e-06
0.000785328
-1.3573e-06
0.000788266
-1.24887e-06
0.000791133
-9.69457e-07
0.000793936
3.53229e-06
0.00079759
5.52577e-06
0.000769391
5.62429e-06
0.000767088
5.88555e-06
0.000759779
6.14901e-06
0.000752604
6.19719e-06
0.00074537
6.38685e-06
0.000738148
6.29635e-06
0.000731406
6.263e-06
0.000725015
6.15786e-06
0.000719005
6.08578e-06
0.000713395
5.9322e-06
0.000708008
5.80344e-06
0.000703061
5.56569e-06
0.00069833
5.41248e-06
0.000693454
5.18491e-06
0.000688322
5.14198e-06
0.000683106
5.01515e-06
0.000677791
4.98853e-06
0.000672595
4.81578e-06
0.000667414
-3.61044e-06
0.000662419
-3.83988e-06
0.000665157
-4.02033e-06
0.00066806
-4.14585e-06
0.000671071
-4.20798e-06
0.000674298
-4.20478e-06
0.000677757
-4.1712e-06
0.000681323
-4.10694e-06
0.000684777
-3.99333e-06
0.000687704
-3.81684e-06
0.000689987
-3.57503e-06
0.000691819
-3.26544e-06
0.000693424
-2.91709e-06
0.000694749
-2.50238e-06
0.000695829
-2.04389e-06
0.000696617
-1.55884e-06
0.00069699
-1.02799e-06
0.000697183
-4.70548e-07
0.000697127
9.72393e-08
0.000696849
6.56256e-07
0.000696497
1.18661e-06
0.000696327
1.69326e-06
0.000695695
2.22399e-06
0.000693832
2.79966e-06
0.000690663
3.42718e-06
0.00068637
4.07798e-06
0.000681127
4.72038e-06
0.000675126
5.33226e-06
0.000668479
5.89617e-06
0.000661221
6.47833e-06
0.000653387
7.04462e-06
0.000644986
7.59062e-06
0.000636108
8.12557e-06
0.000626963
8.66857e-06
0.0006176
9.23664e-06
0.000607835
9.86069e-06
0.00059762
1.04586e-05
0.000586944
1.09665e-05
0.000575863
1.13911e-05
0.000564606
1.17565e-05
0.000553335
1.2041e-05
0.000542207
1.2294e-05
0.000530702
1.25042e-05
0.000518421
1.26652e-05
0.000505572
1.27775e-05
0.000492368
1.28475e-05
0.000478937
1.29071e-05
0.000465356
1.29708e-05
0.000451685
1.30252e-05
0.000437973
1.30537e-05
0.000424311
1.30361e-05
0.000410814
1.29319e-05
0.000397598
1.27678e-05
0.000384589
1.26212e-05
0.000371558
1.25252e-05
0.000358563
1.24638e-05
0.000345723
1.24144e-05
0.000333029
1.23775e-05
0.000320415
1.2372e-05
0.000307812
1.24205e-05
0.000295136
1.25621e-05
0.000282236
1.28205e-05
0.00026896
1.32061e-05
0.000255338
1.37362e-05
0.000241367
1.44375e-05
0.000226965
1.53416e-05
0.00021198
1.6485e-05
0.000196153
1.79088e-05
0.000179198
1.9639e-05
0.000160836
2.16997e-05
0.000140797
2.40791e-05
0.000118663
2.69337e-05
9.40434e-05
2.96818e-05
6.64328e-05
3.54593e-05
3.5417e-05
5.11203e-06
4.19073e-06
0.000754435
3.30115e-06
0.00075573
2.44751e-06
0.000757426
1.63381e-06
0.00075951
8.63806e-07
0.000761963
1.40861e-07
0.000764765
-5.32086e-07
0.000767892
-1.15259e-06
0.000771318
-1.71876e-06
0.000775016
-2.22922e-06
0.000778956
-2.6832e-06
0.000783108
-3.08049e-06
0.00078744
-3.42139e-06
0.000791922
-3.70676e-06
0.00079652
-3.93789e-06
0.000801204
-4.11651e-06
0.000805943
-4.24472e-06
0.000810708
-4.32493e-06
0.000815468
-4.35978e-06
0.000820197
-4.35211e-06
0.00082487
-4.30483e-06
0.000829463
-4.22233e-06
0.000833953
-4.02967e-06
0.00083832
-3.5829e-06
0.000842596
6.0674e-06
0.000848031
1.04252e-05
0.000818439
1.11154e-05
0.000816666
1.16601e-05
0.000809525
1.2141e-05
0.00080253
1.21923e-05
0.000795534
1.2404e-05
0.000788603
1.21823e-05
0.000782283
1.21496e-05
0.000776325
1.19789e-05
0.000770716
1.1898e-05
0.000765455
1.16321e-05
0.000760332
1.1414e-05
0.000755621
1.09645e-05
0.000751086
1.06792e-05
0.000746342
1.02497e-05
0.000741285
1.01402e-05
0.000736102
9.86432e-06
0.000730795
9.78794e-06
0.0007256
9.49957e-06
0.000720411
-6.61726e-06
0.0007154
-6.99689e-06
0.000717395
-7.27936e-06
0.000719539
-7.46813e-06
0.000721762
-7.55209e-06
0.000724181
-7.51734e-06
0.000726822
-7.42023e-06
0.00072955
-7.26436e-06
0.000732142
-7.01234e-06
0.000734141
-6.64004e-06
0.000735426
-6.1464e-06
0.000736207
-5.52992e-06
0.000736737
-4.8356e-06
0.000736982
-4.01396e-06
0.000737025
-3.10808e-06
0.000736788
-2.13789e-06
0.000736181
-1.07964e-06
0.000735453
1.8482e-08
0.00073449
1.1323e-06
0.000733318
2.24297e-06
0.000732098
3.3008e-06
0.000731084
4.32568e-06
0.000729577
5.39823e-06
0.00072678
6.54729e-06
0.000722646
7.76842e-06
0.000717367
9.02224e-06
0.000711136
1.02822e-05
0.000704159
1.15353e-05
0.000696554
1.27296e-05
0.00068835
1.39002e-05
0.00067956
1.50143e-05
0.0006702
1.60872e-05
0.000660341
1.7142e-05
0.000650222
1.82132e-05
0.000639882
1.93272e-05
0.000629137
2.05548e-05
0.000617959
2.17395e-05
0.000606376
2.27394e-05
0.000594468
2.35735e-05
0.000582437
2.42911e-05
0.000570432
2.48478e-05
0.000558587
2.53366e-05
0.00054636
2.57357e-05
0.000533345
2.60366e-05
0.000519769
2.6249e-05
0.000505853
2.63818e-05
0.000491715
2.64887e-05
0.000477425
2.66038e-05
0.000463042
2.6702e-05
0.000448621
2.67518e-05
0.000434267
2.67102e-05
0.000420101
2.64948e-05
0.000406241
2.61542e-05
0.000392601
2.5849e-05
0.000378939
2.56493e-05
0.000365324
2.55218e-05
0.000351875
2.54204e-05
0.000338578
2.53438e-05
0.00032537
2.53287e-05
0.000312178
2.54216e-05
0.00029892
2.56972e-05
0.00028544
2.62016e-05
0.000271593
2.69549e-05
0.000257421
2.7993e-05
0.000242926
2.93679e-05
0.000228035
3.11401e-05
0.000212599
3.33764e-05
0.000196369
3.61606e-05
0.000179067
3.95433e-05
0.000160424
4.35825e-05
0.000140176
4.82683e-05
0.000117904
5.3898e-05
9.32385e-05
5.98537e-05
6.57521e-05
7.00549e-05
3.48027e-05
4.23053e-06
2.89594e-06
0.000760308
1.6045e-06
0.000763821
3.63709e-07
0.000767708
-8.19269e-07
0.000771957
-1.93779e-06
0.000776551
-2.98585e-06
0.000781471
-3.95817e-06
0.000786692
-4.85036e-06
0.000792189
-5.6589e-06
0.000797933
-6.38124e-06
0.000803893
-7.01579e-06
0.000810036
-7.56192e-06
0.00081633
-8.01992e-06
0.000822741
-8.39094e-06
0.000829233
-8.67693e-06
0.000835774
-8.88057e-06
0.00084233
-9.00514e-06
0.000848869
-9.05446e-06
0.00085536
-9.03276e-06
0.000861774
-8.94459e-06
0.000868082
-8.79477e-06
0.00087426
-8.58856e-06
0.000880283
-8.28689e-06
0.00088613
-7.88944e-06
0.000891829
8.22505e-06
0.000898809
1.49807e-05
0.000868376
1.62654e-05
0.000867387
1.70926e-05
0.000860634
1.7758e-05
0.000853985
1.78015e-05
0.000847319
1.79394e-05
0.000840739
1.76351e-05
0.000834796
1.76629e-05
0.000829243
1.74826e-05
0.000823992
1.74774e-05
0.000819024
1.71575e-05
0.00081412
1.68916e-05
0.000809602
1.62715e-05
0.000805207
1.58857e-05
0.000800535
1.52711e-05
0.000795477
1.50992e-05
0.000790231
1.46814e-05
0.000784836
1.45644e-05
0.000779532
1.41791e-05
0.00077423
-8.90603e-06
0.000769123
-9.40682e-06
0.000770338
-9.76375e-06
0.000771708
-9.9871e-06
0.000773153
-1.0066e-05
0.000774806
-9.97643e-06
0.000776683
-9.79035e-06
0.000778641
-9.5127e-06
0.000780437
-9.08446e-06
0.000781572
-8.47794e-06
0.00078193
-7.70629e-06
0.000781728
-6.78269e-06
0.000781241
-5.75295e-06
0.000780439
-4.55981e-06
0.000779449
-3.23883e-06
0.000778183
-1.79883e-06
0.000776597
-2.22704e-07
0.000774937
1.42172e-06
0.000773033
3.09169e-06
0.000770933
4.76129e-06
0.000768825
6.35227e-06
0.000766942
7.9024e-06
0.000764516
9.52229e-06
0.000760735
1.1243e-05
0.000755589
1.30486e-05
0.000749289
1.48914e-05
0.000742047
1.67505e-05
0.000734083
1.86323e-05
0.000725518
2.04633e-05
0.000716383
2.22471e-05
0.000706682
2.3922e-05
0.000696424
2.55348e-05
0.000685643
2.7127e-05
0.00067459
2.8733e-05
0.000663287
3.03827e-05
0.000651563
3.21594e-05
0.000639406
3.38593e-05
0.000626861
3.5318e-05
0.000614053
3.65419e-05
0.000601174
3.75954e-05
0.00058838
3.84129e-05
0.000575771
3.91278e-05
0.000562757
3.96977e-05
0.00054895
4.01227e-05
0.000534599
4.04274e-05
0.000519928
4.06233e-05
0.000505041
4.07838e-05
0.000489997
4.09508e-05
0.000474855
4.10821e-05
0.000459682
4.11371e-05
0.000444589
4.10524e-05
0.00042971
4.07058e-05
0.000415165
4.01765e-05
0.00040085
3.97024e-05
0.000386503
3.9391e-05
0.000372222
3.91901e-05
0.000358115
3.9029e-05
0.000344167
3.89049e-05
0.000330318
3.88721e-05
0.000316491
3.89991e-05
0.000302604
3.93957e-05
0.000288499
4.01279e-05
0.000274037
4.12259e-05
0.000259269
4.27427e-05
0.000244203
4.4754e-05
0.000228775
4.73476e-05
0.000212845
5.06193e-05
0.00019617
5.46948e-05
0.000178482
5.96503e-05
0.000159526
6.55804e-05
0.000139039
7.2485e-05
0.000116623
8.07384e-05
9.19116e-05
8.99927e-05
6.45517e-05
0.000104021
3.38368e-05
1.10116e-06
-6.16603e-07
0.000767362
-2.2826e-06
0.000773056
-3.88528e-06
0.000779098
-5.41361e-06
0.000785478
-6.85736e-06
0.00079218
-8.20725e-06
0.000799185
-9.45512e-06
0.000806469
-1.05941e-05
0.000814006
-1.16187e-05
0.000821766
-1.25248e-05
0.000829715
-1.33097e-05
0.000837821
-1.39723e-05
0.000846048
-1.45125e-05
0.000854359
-1.49319e-05
0.000862719
-1.5233e-05
0.00087109
-1.54195e-05
0.000879437
-1.54961e-05
0.000887725
-1.54679e-05
0.000895922
-1.53411e-05
0.000903995
-1.51222e-05
0.000911915
-1.48179e-05
0.000919655
-1.44355e-05
0.000927189
-1.39607e-05
0.000934495
-1.3696e-05
0.0009416
9.55287e-06
0.000950039
1.88549e-05
0.000918836
2.08244e-05
0.000918497
2.20431e-05
0.00091222
2.29302e-05
0.000906017
2.29971e-05
0.00089972
2.30456e-05
0.000893386
2.26988e-05
0.000887652
2.28509e-05
0.000882304
2.27191e-05
0.000877218
2.28661e-05
0.000872353
2.25523e-05
0.000867506
2.22781e-05
0.00086305
2.15412e-05
0.000858684
2.11119e-05
0.000854009
2.03495e-05
0.000848921
2.01252e-05
0.000843641
1.95783e-05
0.000838235
1.94238e-05
0.000832938
1.89301e-05
0.000827691
-1.04199e-05
0.000822633
-1.10531e-05
0.000823185
-1.14926e-05
0.000823868
-1.17437e-05
0.000824582
-1.18016e-05
0.000825506
-1.16432e-05
0.000826654
-1.13539e-05
0.000827872
-1.09261e-05
0.000828888
-1.02846e-05
0.000829174
-9.4048e-06
0.000828637
-8.3205e-06
0.000827511
-7.05436e-06
0.000826086
-5.67819e-06
0.000824338
-4.14436e-06
0.000822374
-2.42596e-06
0.000820108
-5.17764e-07
0.00081755
1.58062e-06
0.000814923
3.77772e-06
0.000812035
6.01252e-06
0.000808969
8.24883e-06
0.000805943
1.03714e-05
0.000803148
1.24574e-05
0.000799746
1.46309e-05
0.000794929
1.69144e-05
0.000788732
1.92844e-05
0.00078137
2.16933e-05
0.000773069
2.41254e-05
0.000764058
2.66067e-05
0.000754467
2.90524e-05
0.000744332
3.14431e-05
0.000733662
3.37143e-05
0.000722463
3.59017e-05
0.000710796
3.80607e-05
0.000698894
4.02287e-05
0.00068674
4.24288e-05
0.000674172
4.47269e-05
0.000661177
4.69031e-05
0.000647787
4.87794e-05
0.00063415
5.0361e-05
0.000620455
5.17255e-05
0.000606883
5.27938e-05
0.000593518
5.37179e-05
0.000579702
5.4434e-05
0.000565093
5.4964e-05
0.000549949
5.53523e-05
0.0005345
5.56173e-05
0.000518847
5.58405e-05
0.000503046
5.60591e-05
0.000487154
5.62171e-05
0.000471236
5.62623e-05
0.000455409
5.61137e-05
0.000439817
5.56118e-05
0.000424587
5.48826e-05
0.000409591
5.42284e-05
0.000394536
5.37979e-05
0.000379553
5.35157e-05
0.000364746
5.32869e-05
0.000350104
5.31063e-05
0.000335565
5.30457e-05
0.000321056
5.31952e-05
0.000306494
5.37005e-05
0.000291715
5.46446e-05
0.000276595
5.60674e-05
0.000261193
5.80345e-05
0.000245523
6.06439e-05
0.000229525
6.40094e-05
0.00021306
6.82568e-05
0.000195899
7.35505e-05
0.000177783
7.9988e-05
0.000158476
8.76979e-05
0.000137715
9.67039e-05
0.000115128
0.000107425
9.03795e-05
0.000119955
6.32014e-05
0.000137026
3.29223e-05
-4.23855e-06
-6.31051e-06
0.0007756
-8.32484e-06
0.000783435
-1.02651e-05
0.000791593
-1.21158e-05
0.000800066
-1.38623e-05
0.000808839
-1.54915e-05
0.000817893
-1.69919e-05
0.000827205
-1.83535e-05
0.000836747
-1.95684e-05
0.000846488
-2.06308e-05
0.000856394
-2.15365e-05
0.00086643
-2.22836e-05
0.000876558
-2.28719e-05
0.000886739
-2.33029e-05
0.000896934
-2.35801e-05
0.000907106
-2.3708e-05
0.000917214
-2.36927e-05
0.000927224
-2.35412e-05
0.000937098
-2.32614e-05
0.000946804
-2.2862e-05
0.00095631
-2.23521e-05
0.000965586
-2.17408e-05
0.000974606
-2.10294e-05
0.000983347
-2.09048e-05
0.000991842
1.01067e-05
0.00100172
2.20249e-05
0.000969818
2.47816e-05
0.00096961
2.65053e-05
0.000963727
2.76977e-05
0.000958031
2.78797e-05
0.000952257
2.79363e-05
0.000946432
2.75898e-05
0.000941159
2.78994e-05
0.000936196
2.7869e-05
0.000931358
2.82083e-05
0.000926633
2.79238e-05
0.000921874
2.76685e-05
0.000917495
2.68263e-05
0.000913162
2.63599e-05
0.000908466
2.54376e-05
0.000903306
2.51309e-05
0.000897928
2.44264e-05
0.000892434
2.41959e-05
0.000887051
2.36216e-05
0.000881732
-1.12728e-05
0.000876627
-1.20187e-05
0.000876425
-1.25118e-05
0.000876328
-1.27681e-05
0.000876258
-1.27829e-05
0.000876422
-1.25376e-05
0.000876816
-1.21257e-05
0.00087727
-1.15237e-05
0.00087748
-1.06473e-05
0.000876893
-9.47832e-06
0.00087545
-8.06711e-06
0.0008734
-6.43644e-06
0.00087105
-4.68832e-06
0.000868399
-2.78891e-06
0.000865501
-6.51446e-07
0.000862263
1.74046e-06
0.000858703
4.37381e-06
0.000855062
7.13467e-06
0.000851156
9.94409e-06
0.000847088
1.27488e-05
0.000843109
1.54057e-05
0.000839361
1.80315e-05
0.000834933
2.07561e-05
0.000829033
2.35939e-05
0.000821743
2.65175e-05
0.000813291
2.94811e-05
0.000803932
3.24689e-05
0.000793901
3.55204e-05
0.000783314
3.85518e-05
0.000772199
4.1517e-05
0.000760557
4.43569e-05
0.000748406
4.71113e-05
0.000735823
4.98317e-05
0.000723037
5.25687e-05
0.000710004
5.53255e-05
0.000696567
5.81478e-05
0.000682713
6.08052e-05
0.000668464
6.30925e-05
0.000653992
6.50237e-05
0.000639472
6.66845e-05
0.000625121
6.79966e-05
0.000610984
6.91159e-05
0.000596347
6.99616e-05
0.000580921
7.05813e-05
0.000564965
7.10411e-05
0.000548721
7.13664e-05
0.000532286
7.16518e-05
0.000515715
7.19231e-05
0.000499067
7.21074e-05
0.000482414
7.21322e-05
0.000465872
7.19015e-05
0.000449587
7.12222e-05
0.000433693
7.02941e-05
0.000418022
6.9463e-05
0.000402272
6.89133e-05
0.000386613
6.85445e-05
0.00037113
6.82401e-05
0.00035581
6.79935e-05
0.000340594
6.78932e-05
0.000325415
6.80524e-05
0.000310192
6.86521e-05
0.000294754
6.97901e-05
0.000278991
7.15147e-05
0.000262973
7.39052e-05
0.00024672
7.70785e-05
0.000230176
8.11712e-05
0.000213204
8.63362e-05
0.000195584
9.27711e-05
0.000177071
0.00010059
0.000157439
0.000109951
0.000136423
0.000120902
0.000113679
0.000133902
8.8952e-05
0.000149517
6.19427e-05
0.00016916
3.20622e-05
-1.17471e-05
-1.41455e-05
0.000785028
-1.64831e-05
0.00079496
-1.87378e-05
0.000805191
-2.08888e-05
0.000815714
-2.29165e-05
0.000826517
-2.48033e-05
0.000837581
-2.65337e-05
0.000848881
-2.80945e-05
0.000860389
-2.94749e-05
0.000872075
-3.06667e-05
0.000883901
-3.16643e-05
0.000895831
-3.24647e-05
0.000907824
-3.30674e-05
0.00091984
-3.34741e-05
0.000931838
-3.36888e-05
0.000943776
-3.37173e-05
0.000955614
-3.3567e-05
0.000967312
-3.3247e-05
0.000978833
-3.27672e-05
0.000990141
-3.21385e-05
0.0010012
-3.13725e-05
0.00101199
-3.04811e-05
0.00102247
-2.94861e-05
0.00103261
-2.94979e-05
0.00104246
9.98373e-06
0.00105363
2.48198e-05
0.00102184
2.82156e-05
0.00102154
3.04368e-05
0.00101626
3.19005e-05
0.00101121
3.21995e-05
0.00100603
3.23444e-05
0.00100073
3.21323e-05
0.000995942
3.27258e-05
0.00099139
3.28879e-05
0.000986857
3.3472e-05
0.000982361
3.32656e-05
0.000977649
3.30767e-05
0.000973179
3.21569e-05
0.000968709
3.16614e-05
0.000963783
3.05873e-05
0.000958366
3.01874e-05
0.000952754
2.93062e-05
0.000947097
2.90131e-05
0.00094156
2.83659e-05
0.000936145
-1.1378e-05
0.000930956
-1.22286e-05
0.000929961
-1.27674e-05
0.000929039
-1.30152e-05
0.00092819
-1.29724e-05
0.000927613
-1.26268e-05
0.000927276
-1.20795e-05
0.000926986
-1.12881e-05
0.000926406
-1.0166e-05
0.000924964
-8.70261e-06
0.00092264
-6.95938e-06
0.000919692
-4.96488e-06
0.000916442
-2.82863e-06
0.000912907
-4.95162e-07
0.000909112
2.11278e-06
0.00090495
5.00946e-06
0.000900458
8.19728e-06
0.000895845
1.15378e-05
0.000890959
1.49287e-05
0.000885935
1.83018e-05
0.000881052
2.14939e-05
0.000876383
2.46626e-05
0.000870963
2.79309e-05
0.000864005
3.13015e-05
0.000855641
3.47395e-05
0.000846105
3.822e-05
0.000835667
4.17389e-05
0.000824572
4.53478e-05
0.000812931
4.89544e-05
0.00080078
5.24849e-05
0.000788114
5.58863e-05
0.000774962
5.91959e-05
0.000761433
6.24762e-05
0.000747736
6.5782e-05
0.000733807
6.90953e-05
0.000719481
7.24435e-05
0.000704748
7.55774e-05
0.000689614
7.82682e-05
0.000674267
8.05448e-05
0.000658879
8.24889e-05
0.000643711
8.40368e-05
0.000628759
8.53368e-05
0.000613267
8.62959e-05
0.000596982
8.69905e-05
0.000580177
8.75098e-05
0.000563106
8.78844e-05
0.000545868
8.82235e-05
0.000528511
8.85356e-05
0.000511095
8.87357e-05
0.000493696
8.87296e-05
0.000476428
8.84046e-05
0.000459436
8.75308e-05
0.000442865
8.63951e-05
0.000426501
8.5381e-05
0.000410034
8.47146e-05
0.000393675
8.426e-05
0.000377495
8.38741e-05
0.000361478
8.35492e-05
0.00034557
8.33953e-05
0.000329709
8.35516e-05
0.000313821
8.42335e-05
0.000297716
8.55457e-05
0.000281309
8.75466e-05
0.000264672
9.03315e-05
0.000247831
9.40314e-05
0.000230739
9.88058e-05
0.000213262
0.000104831
0.000195185
0.00011233
0.000176275
0.000121429
0.000156313
0.000132314
0.000135029
0.000145026
0.000112124
0.000160207
8.74243e-05
0.000178701
6.05959e-05
0.000200479
3.11238e-05
-2.13788e-05
-2.40774e-05
0.000795653
-2.67144e-05
0.000807633
-2.92614e-05
0.00081989
-3.16915e-05
0.000832419
-3.39798e-05
0.000845207
-3.61035e-05
0.000858235
-3.80425e-05
0.000871481
-3.97797e-05
0.000884914
-4.13012e-05
0.000898502
-4.25963e-05
0.000912208
-4.36576e-05
0.000925991
-4.44808e-05
0.000939811
-4.5065e-05
0.000953624
-4.54121e-05
0.000967386
-4.55266e-05
0.000981054
-4.54156e-05
0.000994585
-4.50881e-05
0.00100794
-4.45551e-05
0.00102107
-4.38289e-05
0.00103395
-4.29229e-05
0.00104653
-4.18514e-05
0.00105879
-4.06286e-05
0.0010707
-3.92911e-05
0.00108223
-3.93194e-05
0.00109339
8.82832e-06
0.00110587
2.67823e-05
0.00107444
3.09697e-05
0.00107344
3.37446e-05
0.00106848
3.55035e-05
0.00106371
3.59559e-05
0.00105872
3.62633e-05
0.00105358
3.6294e-05
0.00104898
3.72579e-05
0.00104457
3.76991e-05
0.00104014
3.87298e-05
0.0010357
3.87405e-05
0.0010311
3.86874e-05
0.00102682
3.77246e-05
0.00102254
3.71814e-05
0.0010178
3.59119e-05
0.00101256
3.53539e-05
0.00100707
3.42725e-05
0.00100148
3.39121e-05
0.000995951
3.31959e-05
0.000990536
-1.07044e-05
0.000985324
-1.16705e-05
0.000983592
-1.22551e-05
0.000981886
-1.24868e-05
0.000980278
-1.23792e-05
0.000978966
-1.19246e-05
0.000977886
-1.12342e-05
0.00097683
-1.0243e-05
0.00097542
-8.86596e-06
0.000973077
-7.10147e-06
0.000969825
-5.01797e-06
0.000965931
-2.65429e-06
0.000961725
-1.10958e-07
0.00095724
2.68397e-06
0.000952485
5.8008e-06
0.00094733
9.2472e-06
0.000941877
1.30185e-05
0.000936304
1.69507e-05
0.000930456
2.09284e-05
0.000924489
2.48722e-05
0.000918715
2.86048e-05
0.000913109
3.2322e-05
0.000906676
3.6129e-05
0.00089863
4.00263e-05
0.000889164
4.39702e-05
0.000878543
4.79495e-05
0.000867049
5.19867e-05
0.000854908
5.61367e-05
0.000842229
6.03056e-05
0.000829056
6.43861e-05
0.00081538
6.83354e-05
0.000801255
7.21873e-05
0.000786803
7.60226e-05
0.000772214
7.98901e-05
0.000757408
8.37609e-05
0.000742212
8.76493e-05
0.000726609
9.1265e-05
0.000710611
9.43508e-05
0.000694409
9.69652e-05
0.000678156
9.91797e-05
0.000662157
0.000100956
0.000646373
0.000102419
0.000630011
0.000103472
0.000612853
0.000104223
0.000595198
0.000104779
0.000577305
0.000105185
0.00055926
0.000105568
0.000541104
0.000105909
0.000522901
0.000106116
0.00050474
0.000106072
0.000486736
0.000105639
0.000469032
0.000104555
0.000451775
0.000103206
0.000434708
0.000102009
0.000417531
0.000101226
0.000400481
0.000100679
0.00038362
0.000100198
0.000366923
9.97779e-05
0.000350342
9.9553e-05
0.000333823
9.96944e-05
0.000317295
0.000100446
0.000300553
0.000101915
0.000283536
0.000104168
0.000266315
0.000107317
0.000248917
0.000111504
0.000231302
0.000116911
0.00021334
0.000123737
0.000194821
0.000132226
0.000175525
0.0001425
0.000155246
0.000154775
0.000133706
0.000169093
0.000110675
0.000186396
8.5932e-05
0.000207435
5.92884e-05
0.000230914
3.02821e-05
-3.30838e-05
-3.60577e-05
0.000807485
-3.89715e-05
0.000821461
-4.17898e-05
0.000835692
-4.44792e-05
0.000850176
-4.70084e-05
0.000864899
-4.9349e-05
0.000879845
-5.14759e-05
0.000894989
-5.33677e-05
0.000910301
-5.50069e-05
0.000925746
-5.63799e-05
0.000941287
-5.74773e-05
0.000956881
-5.82936e-05
0.000972484
-5.88272e-05
0.000988052
-5.90801e-05
0.00100354
-5.90575e-05
0.00101889
-5.87677e-05
0.00103408
-5.82215e-05
0.00104905
-5.7432e-05
0.00106375
-5.6414e-05
0.00107816
-5.51836e-05
0.00109224
-5.37579e-05
0.00110594
-5.21546e-05
0.00111924
-5.04241e-05
0.00113211
-5.03304e-05
0.00114457
6.56965e-06
0.00115835
2.82496e-05
0.00112706
3.3453e-05
0.00112544
3.68097e-05
0.00112113
3.88663e-05
0.00111693
3.94739e-05
0.00111243
3.99648e-05
0.00110768
4.03122e-05
0.00110343
4.1677e-05
0.00109927
4.24735e-05
0.00109501
4.39083e-05
0.00109068
4.40982e-05
0.00108616
4.41293e-05
0.00108192
4.30844e-05
0.00107763
4.24807e-05
0.00107283
4.1066e-05
0.00106752
4.04071e-05
0.00106194
3.91976e-05
0.00105627
3.88053e-05
0.00105066
3.80401e-05
0.0010452
-9.31746e-06
0.0010399
-1.03722e-05
0.00103737
-1.09752e-05
0.00103484
-1.11689e-05
0.00103248
-1.09766e-05
0.00103045
-1.03991e-05
0.00102864
-9.55236e-06
0.00102682
-8.3453e-06
0.00102458
-6.69793e-06
0.00102135
-4.61867e-06
0.00101718
-2.18166e-06
0.00101237
5.66168e-07
0.00100723
3.53803e-06
0.00100183
6.80945e-06
0.000996149
1.04459e-05
0.000990042
1.44609e-05
0.000983669
1.88285e-05
0.000977153
2.33665e-05
0.000970356
2.79441e-05
0.000963448
3.24668e-05
0.000956786
3.67508e-05
0.000950249
4.10249e-05
0.000942748
4.53657e-05
0.000933622
4.97603e-05
0.000923115
5.41769e-05
0.000911478
5.86391e-05
0.000898977
6.31828e-05
0.000885816
6.78611e-05
0.000872102
7.25752e-05
0.000857895
7.71961e-05
0.000843185
8.16861e-05
0.000828071
8.60741e-05
0.000812667
9.04589e-05
0.000797161
9.48823e-05
0.000781453
9.93148e-05
0.000765354
0.00010375
0.000748843
0.000107855
0.000731938
0.000111344
0.000714844
0.000114295
0.000697696
0.000116772
0.00068084
0.000118768
0.000664189
0.000120373
0.000646916
0.000121495
0.000628858
0.000122276
0.000610338
0.000122853
0.000591609
0.000123281
0.000572741
0.000123702
0.000553769
0.000124062
0.00053476
0.000124263
0.000515813
0.000124172
0.000497051
0.000123611
0.000478612
0.000122305
0.00046064
0.000120725
0.000442845
0.000119339
0.000424934
0.000118435
0.000407166
0.000117784
0.000389592
0.000117187
0.000372184
0.000116649
0.000354895
0.000116335
0.000337685
0.000116447
0.000320487
0.000117256
0.000303081
0.000118865
0.000285438
0.000121351
0.000267625
0.000124836
0.000249668
0.000129474
0.000231534
0.000135469
0.000213091
0.000143036
0.00019413
0.000152431
0.000174451
0.000163777
0.000153855
0.000177304
0.00013208
0.000193187
0.000108955
0.000212431
8.41825e-05
0.000235709
5.78529e-05
0.000260562
2.93755e-05
-4.68079e-05
-5.00336e-05
0.000820535
-5.3203e-05
0.000836449
-5.6273e-05
0.000852599
-5.92028e-05
0.000868983
-6.19543e-05
0.000885589
-6.44928e-05
0.0009024
-6.67879e-05
0.000919391
-6.88132e-05
0.000936531
-7.05474e-05
0.000953785
-7.19738e-05
0.000971112
-7.30807e-05
0.000988469
-7.38611e-05
0.00100581
-7.43128e-05
0.00102309
-7.44377e-05
0.00104025
-7.42418e-05
0.00105725
-7.37349e-05
0.00107405
-7.29294e-05
0.00109059
-7.18409e-05
0.00110683
-7.04866e-05
0.00112273
-6.88857e-05
0.00113825
-6.70585e-05
0.00115336
-6.50257e-05
0.00116801
-6.28551e-05
0.00118219
-6.25262e-05
0.0011959
3.25893e-06
0.00121097
2.90717e-05
0.00117993
3.54021e-05
0.00117762
3.93021e-05
0.00117379
4.17041e-05
0.00116994
4.25556e-05
0.00116572
4.33906e-05
0.00116129
4.4132e-05
0.00115733
4.59557e-05
0.00115336
4.71909e-05
0.00114917
4.90607e-05
0.00114489
4.94544e-05
0.00114041
4.95461e-05
0.00113618
4.84451e-05
0.00113184
4.77876e-05
0.00112701
4.62381e-05
0.00112169
4.54851e-05
0.00111613
4.4162e-05
0.00111049
4.37449e-05
0.00110493
4.29477e-05
0.00109949
-7.16193e-06
0.00109417
-8.29758e-06
0.00109089
-8.90919e-06
0.00108761
-9.05032e-06
0.00108457
-8.76131e-06
0.00108185
-8.05235e-06
0.00107933
-7.04367e-06
0.00107678
-5.60974e-06
0.00107369
-3.68021e-06
0.00106954
-1.2763e-06
0.00106444
1.52331e-06
0.00105868
4.66467e-06
0.00105256
8.07874e-06
0.00104618
1.18389e-05
0.00103952
1.60207e-05
0.00103242
2.0631e-05
0.00102509
2.56264e-05
0.0010176
3.07959e-05
0.00100986
3.5991e-05
0.00100201
4.11036e-05
0.000994472
4.59386e-05
0.000987008
5.07374e-05
0.000978414
5.55658e-05
0.000968201
6.04252e-05
0.000956633
6.53075e-05
0.000943964
7.02561e-05
0.00093044
7.53117e-05
0.000916248
8.05205e-05
0.000901494
8.57788e-05
0.000886261
9.09395e-05
0.000870546
9.59683e-05
0.000854486
0.00010089
0.000838181
0.000105821
0.000821812
0.000110797
0.000805257
0.000115798
0.000788308
0.000120796
0.000770941
0.000125398
0.000753175
0.000129283
0.00073522
0.000132567
0.000717184
0.000135299
0.000699477
0.000137504
0.000681964
0.000139227
0.000663808
0.000140378
0.000644899
0.000141163
0.000625548
0.000141745
0.000605998
0.000142185
0.00058631
0.000142642
0.000566517
0.000143022
0.000546689
0.000143207
0.000526939
0.000143052
0.000507389
0.000142348
0.000488189
0.000140804
0.000469464
0.000138981
0.000450904
0.000137402
0.000432227
0.000136369
0.000413707
0.000135601
0.00039539
0.000134867
0.000377244
0.00013419
0.000359228
0.000133766
0.000341314
0.000133834
0.00032344
0.000134681
0.000305376
0.000136407
0.000287123
0.000139099
0.000268745
0.000142887
0.000250267
0.000147935
0.000231662
0.000154471
0.000212788
0.000162715
0.000193445
0.000172932
0.000173442
0.000185237
0.00015258
0.000199883
0.000130626
0.000217294
0.000107348
0.000238164
8.26903e-05
0.000263484
5.65938e-05
0.000289351
2.85847e-05
-6.24921e-05
-6.59478e-05
0.000834816
-6.93531e-05
0.000852607
-7.26565e-05
0.000870615
-7.58091e-05
0.00088884
-7.87653e-05
0.000907271
-8.14839e-05
0.000925891
-8.39282e-05
0.000944674
-8.60669e-05
0.000963588
-8.78744e-05
0.000982597
-8.93305e-05
0.00100166
-9.0421e-05
0.00102073
-9.11374e-05
0.00103975
-9.14766e-05
0.00105869
-9.14407e-05
0.00107748
-9.10365e-05
0.00109608
-9.02749e-05
0.00111444
-8.91707e-05
0.00113251
-8.77415e-05
0.00115024
-8.60076e-05
0.00116758
-8.39913e-05
0.00118451
-8.17161e-05
0.00120098
-7.92063e-05
0.00121695
-7.65319e-05
0.0012324
-7.58342e-05
0.00124731
-1.3321e-06
0.00126369
2.93983e-05
0.00123227
3.69807e-05
0.00122973
4.14295e-05
0.00122614
4.42351e-05
0.00122257
4.54035e-05
0.00121875
4.66472e-05
0.00121474
4.7829e-05
0.00121114
5.01819e-05
0.00120742
5.19131e-05
0.00120337
5.42197e-05
0.00119919
5.48149e-05
0.00119478
5.49398e-05
0.0011906
5.37488e-05
0.00118626
5.29935e-05
0.00118142
5.13038e-05
0.00117608
5.04575e-05
0.0011705
4.90496e-05
0.00116485
4.86407e-05
0.00115928
4.78474e-05
0.00115381
-4.298e-06
0.00114842
-5.48805e-06
0.00114435
-6.08004e-06
0.00114035
-6.14572e-06
0.00113664
-5.7386e-06
0.00113322
-4.88602e-06
0.00113001
-3.70335e-06
0.00112671
-2.02181e-06
0.00112272
2.10757e-07
0.00111762
2.95794e-06
0.00111159
6.13702e-06
0.00110485
9.68908e-06
0.00109774
1.35617e-05
0.00109036
1.78302e-05
0.0010827
2.2573e-05
0.00107461
2.77967e-05
0.00106633
3.3436e-05
0.00105787
3.9253e-05
0.00104919
4.50818e-05
0.00104043
5.07831e-05
0.00103204
5.61443e-05
0.00102367
6.14397e-05
0.00101401
6.67268e-05
0.00100273
7.20311e-05
0.00099014
7.7369e-05
0.000976476
8.27989e-05
0.000961954
8.8363e-05
0.000946741
9.40941e-05
0.000930949
9.98815e-05
0.00091468
0.000105578
0.000897947
0.000111139
0.000880922
0.000116591
0.000863695
0.000122063
0.000846444
0.00012759
0.000829013
0.000133166
0.000811184
0.00013875
0.000792924
0.000143875
0.000774268
0.000148168
0.000755436
0.000151779
0.000736533
0.000154748
0.000718002
0.000157128
0.000699623
0.000158928
0.000680573
0.000160091
0.000660795
0.000160872
0.000640597
0.000161453
0.000620216
0.000161904
0.000599705
0.0001624
0.000579092
0.00016281