/*--------------------------------*- C++ -*----------------------------------*\
| =========                 |                                                 |
| \\      /  F ield         | OpenFOAM: The Open Source CFD Toolbox           |
|  \\    /   O peration     | Version:  2.2.x                                 |
|   \\  /    A nd           | Web:      www.OpenFOAM.org                      |
|    \\/     M anipulation  |                                                 |
\*---------------------------------------------------------------------------*/
FoamFile
{
    version     2.0;
    format      ascii;
    class       volScalarField;
    location    "0.95";
    object      pB;
}
// * * * * * * * * * * * * * * * * * * * * * * * * * * * * * * * * * * * * * //

dimensions      [1 1 -3 0 0 -1 0];

internalField   nonuniform List<scalar> 
14161
(
0.00900938
-0.00777467
-0.00300068
0.00347839
0.00628488
0.00499475
0.00341069
-0.00100834
-0.000978988
-0.00374277
-0.0043595
-0.0028136
8.41452e-05
0.00192197
0.00351927
0.00575607
0.00465023
0.00274314
0.000396421
-0.000950209
-0.00252464
-0.00331383
-0.00225436
-0.00112594
0.00136903
0.00217289
0.00222971
0.00179629
0.000349174
-0.00118803
-0.00263169
-0.00395231
-0.00541923
-0.00493191
-0.00455983
-0.00404611
-0.00449155
-0.00404544
-0.00335002
-0.00503238
0.027827
0.0222481
0.00291305
0.00765227
0.00248859
0.00163826
0.00144377
-0.00151344
-0.0031346
-0.00303023
-0.00353195
-0.00352043
-0.00386319
-0.00444003
-0.00524621
-0.00644833
-0.00669488
-0.00730324
-0.00767892
-0.00791128
-0.00747899
-0.00630913
-0.00558583
-0.00423281
-0.0033547
-0.000983672
0.00339832
0.00685588
0.0084532
0.00955979
0.00498438
0.00077701
-1.4529e-05
-0.00112028
-0.00101913
-0.000740255
-0.00124376
-0.000778952
-0.00133897
-0.000949056
-0.0011797
-0.00110172
-0.000907696
-0.00115409
-0.000882488
-0.000959644
-0.000665543
-0.000833109
-0.000649449
-0.000658982
-0.000541549
-0.000576436
-0.000539747
-0.000478084
-0.000498355
-0.0004734
-0.000486973
-0.000525737
-0.000382725
-0.000391281
-0.000347775
-0.000358052
-0.000371801
-0.00041598
-0.000278475
-0.000214208
-0.000296045
-0.000629134
-0.000734966
-0.000299585
-8.23441e-05
-0.000160328
-0.00015034
3.17126e-05
-0.00201114
0.0022699
-0.00547248
0.00565309
-0.00719544
0.0099233
0.0197266
0.00155384
-0.00781729
-0.0165926
-0.0142074
-0.00277457
0.00157413
0.0056093
0.0115982
0.0157601
0.00834826
0.0015332
-0.00120152
-0.00724533
-0.0132568
-0.00815701
-0.00173555
0.00165756
0.00559959
0.00945932
0.0133266
0.00713539
0.00094352
-0.00145657
-0.00622641
-0.00880197
-0.00482116
-0.00133819
0.00130715
0.0040612
0.00700809
0.00845419
0.0059884
0.003266
0.00122408
0.000507421
0.00141399
0.00218115
0.00670354
-0.0103367
-0.0170456
-0.0237415
-0.013629
-0.0120543
-0.00807544
-0.0058442
-0.00401077
-0.00286517
-0.00203619
-0.00182053
-0.00147613
-0.000789169
-0.000311645
2.11997e-05
0.000902606
0.00140899
0.00190091
0.00201247
0.00179344
0.00158782
0.00356287
0.0023628
0.00246724
0.00204844
-0.00413811
-0.00263158
-0.00397645
-0.00488992
-0.00609788
-0.00296794
-0.00237929
0.00269286
0.000225272
-0.000707211
-0.000913742
-0.00190617
-0.00139205
-0.00150655
-0.000773312
-0.000918661
-0.0009856
-0.00118981
-0.00130627
-0.00124605
-0.00104137
-0.000833235
-0.000543704
-0.000576039
-0.000510628
-0.000500999
-0.000500238
-0.000397185
-0.000498736
-0.000472965
-0.000349682
-0.000348529
-0.000402185
-0.000397293
-0.000454393
-0.00037227
-0.000363513
-0.000453475
-0.000270848
-0.00016633
-0.000189618
-0.000145092
-0.000242502
-0.000193027
9.412e-05
-0.000187746
-4.44736e-05
-0.000779039
0.000347208
-0.00192691
0.00118878
-0.00477998
0.00465566
-0.00679394
0.0086686
-0.0322047
-0.0031838
0.00995801
0.0248169
0.0227874
0.00577541
-0.000307549
-0.00766194
-0.017781
-0.02217
-0.0090725
-0.000259809
0.00365517
0.0122395
0.0222985
0.0164967
0.00430542
-0.000610791
-0.0068755
-0.0132909
-0.0182379
-0.00901207
-0.000288975
0.00276388
0.0092864
0.0136417
0.00713031
0.000219336
-0.00350248
-0.00619385
-0.0124863
-0.0154323
-0.0110766
-0.0070252
-0.00384761
-0.00206514
-0.00210988
-0.00137705
-0.00505391
0.0205547
0.0489379
0.0237518
0.0116697
0.00787264
0.00300939
-6.07499e-05
-0.00202494
-0.00449983
-0.00422158
-0.00454955
-0.00445645
-0.00397562
-0.00410273
-0.00431714
-0.00473156
-0.00472949
-0.00465394
-0.00470813
-0.00498703
-0.00244761
-0.00166991
-0.00258057
-0.00170467
-0.000116763
-0.00135878
-0.000976202
-0.0046606
-0.00289205
-0.0050658
0.000606472
-0.00257304
0.00216293
-0.00400012
0.000612929
-0.000691902
-0.00033447
-0.00111222
-0.000756756
-0.00113662
-0.000659682
-0.000489527
-0.0006591
-0.000239893
-0.000260071
-0.000500633
-0.000488343
-0.000606127
-0.000525958
-0.000527964
-0.000532174
-0.000532063
-0.000617504
-0.000582198
-0.000559281
-0.00051725
-0.000417679
-0.000356448
-0.000256937
-0.000354495
-0.000320214
-0.000342305
-0.00037127
-0.000400996
-0.000226701
-0.000246113
-0.00038002
-0.00056899
-0.00065867
-0.000195717
-0.000205176
3.6616e-05
-0.000664775
0.000252614
-0.00233712
0.0020165
-0.0048824
0.00419136
-0.00622902
0.00869929
0.0434468
0.00203695
-0.0121857
-0.0328165
-0.0305563
-0.00682766
0.00186604
0.0108258
0.0214929
0.0309228
0.0174582
0.00307339
-0.00288855
-0.0146799
-0.0277225
-0.0203289
-0.00384622
0.00185727
0.00958895
0.0170934
0.025749
0.0160036
0.00291589
-0.00225315
-0.012114
-0.018788
-0.0137743
-0.00358808
0.000875318
0.00496285
0.0133516
0.0154742
0.010817
0.00521203
8.22389e-05
-0.00170932
-0.00370246
-0.00437164
-0.00327032
-0.0152877
-0.0169799
-0.0181366
-0.0135223
-0.0103014
-0.00771324
-0.00545118
-0.003305
-0.00320705
-0.00328024
-0.00320735
-0.00289806
-0.00229551
-0.00172592
-0.000761042
-0.00053978
-1.81471e-06
-0.000122106
-0.000244643
-0.000529582
-0.000352004
0.00123704
-0.00173678
-0.00111361
-0.00333129
-0.00714323
-0.0027482
-0.00522438
-0.00284515
-0.00257962
0.000408074
-0.00445749
0.00410417
-0.00429624
0.00142331
3.73115e-05
-0.000624535
-0.00052922
-0.000598031
-0.000177707
-0.000224851
-0.000401496
-0.000878255
-0.000870763
-0.000761306
-0.000616692
-0.000753317
-0.0006861
-0.000671459
-0.000486238
-0.000613652
-0.000532896
-0.000512781
-0.000524429
-0.000384748
-0.000325342
-0.000348727
-0.000385332
-0.000259525
-0.000435468
-0.000383859
-0.000413934
-0.000394693
-0.000298467
-0.000110269
-5.29705e-05
-0.000148996
-0.000194999
-0.000147923
-5.16098e-05
-0.000155399
4.93796e-05
-0.000928083
0.000671862
-0.00240712
0.00199702
-0.00457226
0.00358689
-0.00567266
0.0103173
-0.0497365
-0.0035976
0.0109489
0.0358769
0.0384457
0.0113411
-0.00133455
-0.0116231
-0.024939
-0.0333294
-0.0168571
-0.00164647
0.0030966
0.0161163
0.0313638
0.0294236
0.00975689
-0.000579181
-0.00915639
-0.0178677
-0.0290869
-0.017414
-0.00297115
0.0023206
0.0118438
0.0197925
0.0193479
0.00794489
0.00123601
-0.0066312
-0.0149958
-0.0201968
-0.0129093
-0.00653425
-0.000350933
0.00180697
0.00603297
0.00946238
0.00446281
0.0126251
0.0298746
0.00720686
0.00466459
-0.000348623
-0.0011862
-0.00549998
-0.00426911
-0.00525137
-0.00413449
-0.0032094
-0.00271719
-0.00280239
-0.00319448
-0.00395059
-0.00447486
-0.00451983
-0.00449261
-0.00393649
-0.00314935
-0.00228166
-0.00146382
-0.000189048
-0.000323088
0.00142128
0.00207569
-0.000741863
0.00171217
-0.00199768
0.000534719
-7.10845e-05
-0.00613105
0.00274363
-0.0039131
-0.000165643
-0.000789625
0.000301697
-0.000319986
-0.000650237
-0.000853961
-0.000862259
-0.000387279
-0.000540517
-0.000218846
-0.000308261
-0.000416101
-0.000317055
-0.000334117
-0.00043431
-0.000380903
-0.000518474
-0.000300943
-0.000479372
-0.000573352
-0.000586996
-0.000591088
-0.000561716
-0.000449876
-0.000484054
-0.000484741
-0.000351634
-0.000311591
-0.00040583
-0.00027238
-0.00026823
-0.000327371
-0.000482572
-0.00053674
-0.000561064
-0.000199853
-0.000396457
0.000182945
-0.000954014
0.00076448
-0.00264879
0.00210523
-0.00438175
0.00338275
-0.00519744
0.00437117
0.0594998
0.00621052
-0.0124261
-0.0426432
-0.0416646
-0.0118076
0.00101601
0.0124506
0.0243046
0.0384368
0.0255788
0.0074102
-0.0025324
-0.0160323
-0.033533
-0.0316156
-0.0100545
0.000605015
0.00975894
0.0185358
0.0300941
0.0258511
0.00845846
-0.00117693
-0.0113634
-0.0204927
-0.0257765
-0.0153221
-0.00355537
0.00134132
0.00792445
0.0201995
0.0179583
0.00665308
0.0010038
-0.00305591
-0.00731857
-0.00953755
-0.00911831
0.0039199
0.0084507
-0.0123775
-0.00326139
-0.0058812
-0.00535125
-0.00335107
-0.00220054
-0.00159542
-0.00356594
-0.0040526
-0.00362935
-0.00335704
-0.00272862
-0.00197884
-0.00104532
-0.000828876
-0.00148406
-0.00132926
-0.00145033
-0.00280617
-0.00183707
-0.0030089
-0.000569081
-0.00107693
-0.00288726
-0.000762396
-0.00127914
-0.00179645
-0.00216647
-0.00305071
-0.00325425
0.000324039
-0.00289852
-0.00134884
-0.00188663
-0.00196973
-0.00109954
-0.00025569
-1.07197e-05
0.000353458
0.000422812
-9.62194e-05
-0.000339468
-0.000802251
-0.000670171
-0.000719212
-0.00055601
-0.000652272
-0.00056325
-0.00066018
-0.000780843
-0.000542422
-0.000578387
-0.000305643
-0.000340115
-0.000383486
-0.000452269
-0.000393468
-0.000427917
-0.000379035
-0.000347186
-0.000404935
-0.000263959
-0.000189394
-0.000196276
-0.000239308
-0.000241236
-0.000158678
0.000107839
-0.00022888
0.000127118
-0.00101087
0.000816493
-0.00254593
0.00200299
-0.00414194
0.0029817
-0.00468604
0.0136933
-0.0618693
-0.00564548
0.00857117
0.0412755
0.0488914
0.0179794
-0.000496942
-0.0120532
-0.0255679
-0.0398527
-0.0240425
-0.00534928
0.00200477
0.0162372
0.0320221
0.0400891
0.0187954
0.0013492
-0.00731596
-0.018065
-0.0296921
-0.0266653
-0.00957513
4.81163e-05
0.00980269
0.0190646
0.0283762
0.0228148
0.00800699
-0.00065763
-0.00996636
-0.0167765
-0.0207507
-0.0109355
-0.00618402
-0.00161648
-0.00052623
0.000285404
-0.00382344
0.0168064
0.00772404
9.55339e-05
-0.00176459
-0.00439035
-0.00316858
-0.00523732
-0.00426835
-0.00368295
-0.00272671
-0.00270101
-0.00306714
-0.00291176
-0.00269042
-0.00225473
-0.00179847
-0.00154557
-0.00130497
-0.000220625
3.9516e-05
0.00017655
0.00118678
0.000551937
-0.000339055
-0.00338588
-0.00250851
-0.00564572
-0.00496964
-0.00219058
-0.00264812
-0.00227267
-0.000829178
-0.000103163
0.000618149
-0.00337705
0.00124675
-0.000666401
0.000283296
0.000691871
0.000240542
0.000187487
0.000505254
-0.00109654
-3.69125e-06
-0.000335478
-0.000208144
-7.7055e-05
-8.3198e-07
-0.000221703
-0.000348952
-0.000302057
-0.000587845
-0.000449123
-0.000708282
-0.000572008
-0.000533524
-0.0003566
-0.000341247
-0.000336668
-0.00031019
-0.000333465
-0.000256242
-0.000303186
-0.000141484
-0.000257557
-0.000291007
-0.000522531
-0.000428614
-0.00057068
-8.50443e-06
-0.000436241
0.000286136
-0.0011301
0.000734322
-0.00258241
0.00191343
-0.00383361
0.00286449
-0.00418001
-0.00139938
0.0695747
0.0109292
-0.00874626
-0.04812
-0.0496987
-0.0167469
-0.000138385
0.0122514
0.0238283
0.0390835
0.0329248
0.0123939
-0.00140505
-0.0155276
-0.0316791
-0.0414171
-0.017918
-0.00176927
0.00813691
0.0173391
0.0275298
0.0344784
0.0172906
0.00201645
-0.00739851
-0.018882
-0.031543
-0.0304009
-0.0143853
-0.00144017
0.00573858
0.0123346
0.0145079
0.0104739
0.00608173
0.00263475
-0.00184439
-0.00387353
-0.00455803
0.0097135
0.00483033
0.00721904
0.00131153
-0.00237018
-0.00197219
0.000596794
-0.0047341
-0.00185518
-0.00390308
-0.0034067
-0.00327333
-0.00253486
-0.00256665
-0.00265987
-0.00212823
-0.00243123
-0.00315191
-0.00194591
-0.00446618
-0.00442444
-0.00536084
-0.000281177
-0.000237236
0.000692016
-0.000689954
-0.00101592
-0.00244875
-0.00437328
-0.00057899
-0.00306952
-0.00192522
-0.00274177
-0.00377651
-0.00651996
-0.00302434
-0.00345743
-0.00282985
-0.000637949
-0.00213262
-0.000313521
0.000263116
0.000204709
-0.0014844
-0.000297983
-0.00156319
-0.000862785
-0.00076619
-0.000751164
-0.00094779
-0.00047059
-0.000866745
-0.000539267
-0.000728254
-0.000535645
-0.000561312
-0.000449204
-0.000596857
-0.000540979
-0.000401875
-0.000395038
-0.000312781
-0.000282644
-0.000215671
-0.000142962
-0.000429525
-0.000180322
-0.000104314
0.000185438
0.00015063
-0.000189996
0.000250898
-0.0011201
0.000891487
-0.00258642
0.00185167
-0.00346028
0.00249528
-0.0034698
0.016927
-0.0690541
-0.00991666
0.00774264
0.0417999
0.0559637
0.0245553
0.000873299
-0.0116789
-0.0249541
-0.0403566
-0.0311248
-0.00950619
0.00190021
0.0162434
0.0299117
0.0464982
0.0293417
0.00455483
-0.00476199
-0.0188103
-0.0280788
-0.0360035
-0.0181114
-0.00262322
0.00588355
0.0176416
0.0315843
0.039689
0.0228884
0.00402092
-0.004821
-0.0156375
-0.0237004
-0.0219428
-0.0155261
-0.00811685
-0.00292894
0.000181299
-0.000457422
0.00894116
0.0121704
-0.00106052
-0.00294244
-0.00455932
-0.00224464
-0.00496459
-0.004135
-0.00306481
-0.00326753
-0.00289109
-0.00354027
-0.00304349
-0.00354664
-0.00357305
-0.00309959
-0.00228394
-0.00259115
-0.00123999
-0.00206816
-0.000317149
-0.00201637
-0.00198996
-0.00419266
0.00119451
-0.00513762
-0.00295904
-0.00372456
-0.00359363
-0.0029738
-0.00258487
-0.000979272
-0.00146195
-0.00266843
-0.00216249
-0.00140624
-0.00153202
-0.00203999
0.000319443
-0.00131926
-0.000499281
0.000456482
0.000138392
-0.000975426
0.000790024
0.00215023
0.00155983
0.0010158
0.000366107
-0.000733481
-0.000392511
-0.00073136
-0.000475487
-0.000792993
-0.000333469
-0.000439491
-0.00027022
-0.00032362
-0.000350695
-0.000245069
-0.000319416
-0.000369628
-0.000214608
-4.49398e-05
-0.000268122
0.000118359
-0.000445576
-0.000272398
-0.000643899
2.34883e-05
-0.000427839
0.000289357
-0.00113273
0.000654943
-0.00248829
0.00179346
-0.0029008
0.00238415
-0.00289697
-0.00581532
0.0745633
0.0153033
-0.00606923
-0.0498483
-0.0558317
-0.0213406
-0.00102374
0.0124021
0.023228
0.0388674
0.0393838
0.0146365
-0.000172955
-0.0162636
-0.0291803
-0.0490099
-0.0257272
-0.00308089
0.00687788
0.0186387
0.0266372
0.0400495
0.0288255
0.00581175
-0.00322617
-0.0184738
-0.0358857
-0.0465924
-0.0274017
-0.00552889
0.00282615
0.01349
0.02182
0.0227039
0.0157635
0.00758094
0.00159157
-0.00403186
-0.010839
0.00311024
0.0154336
0.0189437
-0.003119
-0.0026416
-0.00174125
-0.00256778
-0.00337389
-0.00262727
-0.0033288
-0.00227289
-0.00227078
-0.00229883
-0.00158124
-0.00142274
-0.00228285
-0.00245915
-0.00265616
-0.000383049
-0.000526353
0.000585057
-0.0013372
-0.000849046
-0.00450834
-0.00419563
-0.00075011
-0.00114047
-0.00648292
-0.0050869
-0.00605011
-0.00785249
-0.00411459
-0.00134541
-0.00280916
-0.00257957
-0.00309312
-0.00418001
-0.00379399
0.000102795
-0.000937851
-0.00118527
-0.00173741
-0.00257508
-0.00304192
-0.0038466
-0.00274696
-0.00135287
-0.00292064
-0.00288619
-0.00246911
-0.000714736
-0.000772944
-0.000450339
-0.000415447
-0.000372669
-9.79603e-05
-0.000150314
-9.42714e-05
-0.000321357
-0.000363003
-0.000347648
-0.000406404
-0.000100162
-0.000138941
-0.000282948
-0.000432429
-0.000347213
-0.000129985
-5.93273e-05
0.000271321
-0.000378531
0.00025819
-0.000936409
0.00128604
-0.00214145
0.00183378
-0.00246997
0.00171463
-0.00216603
0.0168846
-0.072626
-0.0113218
0.00760321
0.0404023
0.0611217
0.0300775
0.00179835
-0.0133165
-0.0238133
-0.042243
-0.0375947
-0.0110567
0.00281325
0.0170924
0.0297162
0.0517186
0.0409632
0.00742531
-0.00565812
-0.0212274
-0.0288678
-0.0431127
-0.0283572
-0.00542677
0.00320501
0.0189941
0.0368192
0.0575971
0.0417784
0.0131083
-0.00121138
-0.0194994
-0.0320899
-0.0317698
-0.0215646
-0.0109685
-0.00323411
0.00175402
0.000353585
0.0299849
0.0257319
-0.0222928
-0.00530414
-0.0088164
0.00145409
-0.00597752
-0.00418647
-0.00306243
-0.00463504
-0.0054791
-0.0063978
-0.00592159
-0.00938025
-0.00635142
-0.00588545
-0.00533219
-0.00332023
-0.00279506
-0.00188752
-0.00326593
-0.00198002
-0.00294045
-0.00235932
-0.00179107
0.00358527
0.00445864
-0.00292528
-0.00240086
0.000435799
-0.00163313
-0.00355191
-0.00552907
-0.00265635
-0.0041241
-0.00225912
-0.00246493
-0.00340712
-0.00549973
-0.00486546
-0.00519025
-0.00290709
-0.00462262
-0.00209429
-0.000360252
-0.000164453
0.000110948
0.00207895
0.000540984
2.07021e-06
0.000348541
-0.00042504
-0.000612101
-0.000682588
-0.000778099
-0.000516388
-0.000494476
-0.000381865
-0.000644375
9.43106e-05
0.000262548
0.00010367
0.00033003
0.000291785
-0.000382006
-3.23651e-05
-0.00115666
-0.000122627
-0.000411374
0.000205331
-0.000291437
0.000248962
-0.000226983
0.000307109
-0.00115737
0.000900236
-0.00187753
0.00137983
-0.00169612
-0.0090348
0.0770746
0.0136833
-0.00532543
-0.046558
-0.0608697
-0.0251749
-0.00036016
0.0133489
0.0232316
0.0393492
0.0453388
0.0140254
-0.000221498
-0.0170837
-0.0305513
-0.0569662
-0.0322365
-0.00307365
0.00849961
0.0229857
0.0306343
0.0458408
0.0414515
0.00967624
-0.00212994
-0.0210244
-0.0437851
-0.0646656
-0.0433154
-0.0113391
0.00160445
0.0195943
0.0304844
0.0279582
0.0196019
0.0120894
0.00594329
0.00506597
-0.000389105
0.020718
0.0191554
0.0325303
0.00144099
0.000883782
0.00385538
-0.0024183
-0.000790435
0.00123161
0.00208548
0.00211682
0.000865099
0.00282787
0.0021138
-0.000293655
-0.000315456
-0.000833204
-0.00152027
-0.00118107
-0.00095264
-0.000108129
-0.00154388
-0.000103251
0.000314472
0.0036273
0.00518361
0.00402657
-0.00268031
-0.00234001
-0.0008313
-0.000376192
-0.00211928
-0.00395284
-0.00268774
-0.00240792
-0.000743551
0.00161
0.000469659
-0.00263867
-0.00392763
-0.00540023
-0.00399622
-0.00228609
-0.000316791
0.00269366
0.00332101
0.00184776
0.000909854
0.000582027
-0.000238661
0.000490729
0.000256732
-0.00124089
-5.78787e-05
-7.63662e-05
-7.64616e-05
-0.000720879
8.66464e-05
0.00101004
0.000916713
-0.000203601
-0.000295785
-0.000741107
0.000577204
0.00114038
0.000746083
5.09097e-05
-0.000483722
0.000537877
0.000409803
-0.000196623
5.93118e-05
-0.000121825
0.000483789
-0.000452477
0.000119036
-0.000346213
0.000131874
-0.00093687
0.0134858
-0.0741077
-0.00968785
0.00768258
0.0386051
0.0626796
0.0343944
0.00191539
-0.0144961
-0.02381
-0.0440758
-0.0439152
-0.0101851
0.003565
0.0177465
0.0303921
0.059015
0.051327
0.00854681
-0.00895487
-0.0281271
-0.0301487
-0.0476915
-0.0407986
-0.00909203
0.00322819
0.0205325
0.0426398
0.0691952
0.0715843
0.0357697
0.00143627
-0.0215323
-0.0464211
-0.0369836
-0.0215706
-0.00696454
0.00229271
0.0109994
0.0123066
0.0283034
0.0216729
-0.029551
-0.0266765
-0.0162237
-0.000225651
-0.00105329
-0.000672767
-0.0021544
5.83435e-05
0.00188841
0.000845339
-0.00146696
-0.000314521
7.12186e-05
0.00085205
0.00237529
0.0017864
0.00182401
0.00166118
0.00221699
0.00403173
0.00382595
0.00784398
0.00611996
0.0093309
0.00578418
0.00163154
0.000717487
0.00361611
0.00483995
0.00411642
0.00571232
0.00205045
0.000923544
0.00224309
0.000695018
-0.00309988
-0.00423
-0.00546738
-0.00420365
-0.000939334
0.000415553
0.00168301
0.00201064
0.0012876
0.00107555
0.00515422
0.00417051
0.00287621
0.00270097
0.00276689
0.00235188
0.00475927
0.00289997
0.00279757
0.00312835
0.00194784
0.000162151
-0.000283845
0.000354367
0.0013202
0.0016409
-0.000367697
-0.00041673
-0.0011755
-0.000606318
-0.000715571
0.000483496
0.000110238
0.000173025
8.0778e-05
0.000281128
-0.000406847
0.000447651
-0.000905086
0.000619462
-0.00136185
-6.77768e-05
-0.0166586
0.0778041
0.0117688
-0.005853
-0.0418844
-0.0622671
-0.0270317
-0.00124937
0.0133235
0.0232862
0.0368571
0.045197
0.0138505
-0.000802697
-0.0134702
-0.0337014
-0.0609831
-0.0409825
-0.00459236
0.00913062
0.0281605
0.0334544
0.0422776
0.0475309
0.0171693
9.2623e-05
-0.0186017
-0.0409601
-0.0708602
-0.0796546
-0.0417311
-0.00387238
0.0129328
0.0408292
0.0455011
0.0305929
0.0152404
0.00399724
-0.00166152
-0.0101151
-0.0100796
0.0199288
0.0708904
0.0334664
0.00555177
-0.00759962
-0.0105963
-0.0114355
-0.0116308
-0.00724994
-0.00467468
-0.00445787
-0.00353927
-0.00148307
-0.000897514
-0.000754787
0.000152604
0.000882346
0.00164007
-0.00118513
-0.00244235
-0.000759805
0.00917233
0.0208014
0.0153241
0.011454
0.00717152
0.00195616
0.00420534
0.00715662
0.00481385
0.00645282
0.00813389
0.0100255
0.00774263
0.00846896
0.00834639
0.00816526
0.00971623
0.012328
0.0147775
0.0142724
0.0130939
0.0103654
0.00784875
0.00695519
0.00410192
0.00530578
0.00475041
0.00324963
0.00364542
0.0026538
0.00136792
0.00292892
0.00153753
0.000653266
0.000892833
0.00103167
0.00110041
0.0014163
0.000483811
-1.68715e-05
-7.42692e-05
0.000443899
0.00112187
-0.000207337
0.000677557
-0.000611177
0.000277242
8.95849e-05
-0.000370248
-4.14606e-06
-0.000115734
-0.000909401
0.000533663
-0.00100474
0.000878493
-0.00191682
0.00114272
0.0111306
-0.0738884
-0.00914685
0.00720692
0.0363405
0.0563068
0.0324913
0.0013621
-0.0134605
-0.0225539
-0.036986
-0.0429608
-0.0109478
0.00106756
0.0115817
0.0267478
0.0494267
0.0536679
0.00948935
-0.00571916
-0.0252265
-0.030539
-0.0401759
-0.0448464
-0.0170077
0.000575489
0.0129728
0.0284803
0.0441659
0.0711498
0.0526238
0.0100952
-0.00618145
-0.0349431
-0.0516653
-0.0426786
-0.0254024
-0.0106299
-0.00445794
-0.00138524
0.00204366
0.0473998
0.0483998
-0.00963049
-0.010495
-0.00531294
-0.00362393
-0.00438704
-0.00581626
-0.00519537
-0.00379465
-0.0025021
-0.00177629
7.51458e-05
-0.00459013
-0.00438503
-0.00496421
-0.00382654
0.000178564
0.00541421
0.0166875
0.0156016
0.01141
-0.00045475
0.00663358
0.007148
0.00422778
0.00609984
0.00611845
0.00379181
0.00439969
0.00462823
0.00666285
0.00672117
0.00623231
0.00570826
0.00554484
0.00618484
0.00875816
0.0104566
0.0115323
0.0114645
0.0112532
0.00923063
0.00834009
0.00703853
0.00614206
0.00568439
0.00607485
0.0034361
0.00408572
0.00350375
0.0029779
0.00295752
0.00267862
0.00226941
0.00204857
0.00167058
0.00079496
0.00106705
0.000379762
-5.60404e-05
0.00024478
9.6186e-05
0.000566403
-0.00149267
0.0010474
-2.54725e-05
0.000461913
-9.30394e-05
8.35699e-05
0.000107462
9.81007e-05
-0.000321774
0.000328142
-0.000619392
0.000501352
-0.00117576
0.00119666
-0.0387065
0.0744964
0.0127217
-0.00694983
-0.0345618
-0.049686
-0.0230701
-0.00113658
0.0116823
0.0202053
0.0270273
0.0300113
0.012583
-0.000624436
-0.0100649
-0.0246087
-0.0434119
-0.0471017
-0.00830874
0.00306009
0.0198772
0.0255895
0.0305305
0.0386811
0.0232405
0.00337985
-0.00385319
-0.0196835
-0.0347998
-0.0521508
-0.041675
-0.00680624
0.00616425
0.026914
0.0446244
0.0444
0.0281025
0.00412007
-0.00663084
-0.00585239
0.0252381
0.0386052
0.0328559
0.0169305
0.0161339
0.00896393
0.00533909
-0.0045471
-0.00139956
0.000605034
0.00152696
0.0005179
-6.29031e-05
0.00395488
-0.00345448
0.0107307
0.0071301
0.0163344
0.0130425
0.0154177
0.00447811
0.000117058
-0.00207022
0.00368402
0.0045955
0.00342589
0.00298952
0.00391132
0.00322351
0.00351723
0.00386706
0.00411466
0.00377856
0.00396682
0.00400167
0.00449179
0.00460881
0.00598418
0.00503893
0.00345071
0.00118384
0.000573201
0.00135469
0.000493323
0.00138326
0.0015117
0.001453
0.00198819
0.00168035
0.00136436
0.00145301
0.000160884
0.000902396
0.000793152
0.000571688
0.000388155
7.3607e-05
-3.73672e-05
0.000639193
0.000611515
0.000537051
0.000226612
0.000280797
0.000736738
-0.000875859
-0.000459726
0.0012969
-0.000424362
0.000500212
-0.000375847
0.000167926
-4.41207e-05
8.21091e-05
-0.000303138
0.000289159
-0.000662293
0.000459479
-0.000893291
0.00114651
0.0150865
-0.0667339
-0.00528937
0.00807174
0.0283347
0.0319741
0.0175664
0.000639534
-0.00766871
-0.0155407
-0.020688
-0.0250132
-0.0104665
0.000403122
0.00705644
0.0148562
0.0214365
0.0303795
0.0161297
-8.21121e-05
-0.0107032
-0.0217642
-0.0262462
-0.0337488
-0.025134
-0.00737329
0.000996438
0.00851601
0.0162096
0.0188256
0.0121292
0.00325808
-0.00184184
-0.00938885
-0.0189352
-0.027675
-0.0301473
-0.0137642
-0.00312209
0.00645939
0.0150275
0.0304037
0.0210614
0.00151303
0.00442592
0.00996388
0.0184107
0.0221458
0.00975609
0.004764
0.00511849
0.00586747
0.00531409
0.0148321
0.00774262
0.0180168
0.0149154
0.00947266
0.00268429
-0.00348187
-0.00123794
-0.00275381
-0.00240913
-0.00127719
-0.00116091
-0.000878487
0.00016311
0.00017413
0.000282889
0.000562203
0.000605288
0.000780098
0.000350987
0.000977175
0.00145662
0.0020907
0.00169811
0.00181639
0.00158913
0.000625938
0.000596071
0.000249301
-1.90649e-06
4.11604e-06
0.000758579
0.00131513
0.00136045
0.00187126
0.00131101
0.000792696
0.000935644
0.00148071
0.00125238
0.00137368
0.000771527
0.000334492
0.000872976
0.000887599
0.000591249
0.000485191
0.000474638
0.00025182
0.000209812
0.000569029
-0.00173033
0.000903376
0.000830229
-0.000280334
0.000232266
-0.000350038
0.000217061
-6.5155e-05
7.7104e-05
-0.000177391
0.000212247
-0.000600571
0.000402956
-0.000599172
0.000915924
-0.0501154
0.0535363
0.0105554
-0.00299927
-0.0173121
-0.0213829
-0.0110212
0.00025898
0.00655698
0.0111688
0.0134799
0.0108211
0.00379066
-0.000945792
-0.00475092
-0.00976858
-0.015409
-0.0230768
-0.0163661
-0.00154832
0.00422552
0.0132825
0.0172237
0.0198567
0.0161963
0.00717621
-0.000584459
-0.00490991
-0.0110007
-0.0164921
-0.0133145
-0.0101509
-0.00727424
-0.00265083
0.00116879
0.00317072
0.00134472
-0.00408794
-0.00754171
-0.0063513
0.0437889
0.00106261
-0.00959445
-0.00801224
0.00675092
0.00708587
0.0200479
0.0172219
0.0273254
0.00930506
0.0146448
0.0100075
0.00956221
0.00642621
0.00357792
0.00054086
-0.00339651
-0.00285353
-0.0049704
-0.00369277
-0.00410714
-0.00360341
-0.00233958
-0.00196965
-0.00121136
-0.00150426
-0.00138832
-0.000650864
-0.000286629
3.13731e-05
-0.000374435
-0.000161098
0.000113024
-0.000767749
-0.000246584
-0.000161845
-0.000229002
-0.000580465
-0.00114909
-0.000253695
-0.000532855
-0.000872998
-0.000483513
-0.000254751
-0.000656872
0.000162393
-0.00032676
-3.37132e-05
-0.000151984
-2.57587e-06
0.000722561
0.000605082
0.000729085
0.000801813
-0.000230291
0.000906712
0.000536665
0.000688699
0.00080605
0.000267764
-0.000202086
-0.000178808
0.000104262
-0.000583911
-0.000181179
0.0007932
0.000353951
-0.000134697
0.000335247
-0.000193561
0.000183582
-2.20706e-05
9.23125e-05
-0.000143719
0.000151527
-0.000567438
0.000433262
-0.000475749
0.00073422
0.0113124
-0.0356824
-0.003107
0.00570015
0.0139741
0.0109934
0.00468251
0.000526437
-0.00304653
-0.00602562
-0.00710622
-0.00772507
-0.00375364
5.16918e-05
0.00255749
0.00449035
0.00611801
0.00761475
0.00673714
0.000616087
-0.00222409
-0.00830802
-0.0121118
-0.0151949
-0.0164911
-0.010441
-0.00263771
0.000252778
0.00306709
0.00632374
0.00542579
0.00259732
0.000166467
-0.0016753
-0.00398676
-0.00832061
-0.00550264
-0.00180962
0.00190156
0.025258
0.0237439
-0.00410685
-0.0045825
0.00325014
0.00455832
-0.00172601
0.00576971
-0.00822119
0.00775818
0.000540449
0.00732953
0.00678753
0.00593232
0.00346711
0.000963805
-0.000895452
-0.00170571
-0.00293383
-0.00337084
-0.00233918
-0.00232988
-0.00108769
-0.00187327
-0.000609317
-0.00172131
1.45766e-06
-0.000955982
-0.00015041
-0.00100774
-0.000796452
-0.000769182
-0.000435451
-0.000757892
-0.000272483
-1.89673e-05
-1.31132e-05
-0.000540672
-0.000864784
-0.000803958
-0.0010937
-0.00130253
-0.00118289
-0.00078828
-0.000566783
-0.000448183
-1.69904e-05
-0.000586299
-9.76262e-05
-0.000367251
-4.17337e-05
0.0003026
0.000168654
0.000738164
-0.000739207
0.000849375
-1.62874e-06
0.000465062
0.000426303
0.000328629
0.000428635
0.000612281
0.000713448
0.000116377
-3.97489e-05
0.00080961
0.000414495
0.000247783
8.92548e-05
0.000363151
-0.000263831
0.000245144
-3.42527e-05
0.000136421
-0.000156505
0.00015811
-0.000507875
0.000434773
-0.00038408
0.000549153
-0.0300616
0.0254793
0.00441089
-0.00101029
-0.00507231
-0.0050961
-0.00275416
0.000937332
0.00150929
0.00346526
0.00456558
0.00276863
0.000208785
-0.00136857
-0.00175881
-0.00260424
-0.00418745
-0.00528647
-0.00712524
-0.00268481
0.00122938
0.00339763
0.00483887
0.00732989
0.00625494
0.00238395
-0.000610232
-0.0030379
-0.00479253
-0.00717664
-0.00853137
-0.00914985
-0.0100469
-0.00891791
-0.00712601
-0.00552124
-0.00385169
-0.00294012
0.00736644
-0.0157234
0.0264755
0.000962236
-0.00421603
0.0182654
0.00702753
-0.00300299
-0.00460212
-0.000859901
0.00477591
0.00186208
0.000515683
-0.00263134
-0.00286249
-0.00409421
-0.00154666
-0.00080115
-0.00118228
-0.000768954
-0.00167348
-0.00106472
-0.000936325
-0.00059587
-0.000823877
-0.000361272
-0.000369387
-0.000724482
-0.000635559
-0.000687318
-0.000698626
-0.000526589
-0.00102307
-0.00102411
-0.000625449
-0.000428357
-0.000308375
-0.000460266
-2.30349e-05
0.000109612
-0.000119697
-0.00025271
-0.00049541
-0.00070115
-0.000907795
-0.000991443
-0.000914026
-0.000652322
-0.000547927
0.000262119
0.00019138
5.6325e-05
-0.000290872
4.24493e-05
-0.00029163
0.000154537
0.000108131
0.000168948
0.000463156
0.000638113
0.000518292
0.00032748
0.00043897
0.000175716
2.12398e-05
1.30877e-05
0.00081204
2.38212e-05
-0.000100508
0.000134287
0.000223092
-0.000110574
0.000136838
5.75578e-05
7.80238e-05
-0.000106986
0.000155016
-0.000471098
0.000436822
-0.000371566
0.000503783
-0.00369003
-0.0106098
-0.00171542
0.00293712
0.00505238
0.00338215
0.00100622
0.000122883
-0.000962138
-0.00158023
-0.00142677
-0.00153092
-0.00128838
-0.000147627
0.000196
0.000836268
0.00113466
0.000777306
-6.23477e-06
-0.000538276
-0.000915465
-0.00270305
-0.00367406
-0.00478814
-0.00541587
-0.00420267
-0.0023767
-0.000963475
-0.000224427
0.000295596
-0.000166212
-0.00123907
-0.00351299
-0.00518722
-0.0114496
-0.0149386
-0.0177944
-0.0209487
-0.0127755
0.0301406
0.00364436
0.00996045
0.00359239
0.00593368
0.00136984
-0.000317615
-0.00313367
-0.00223721
-3.49153e-05
-0.00236326
-0.00444524
-0.0044419
-0.00349312
-0.00253727
-0.00169141
-0.00136112
-0.00136143
-0.0012906
-0.000791232
-0.000570653
-0.000352864
-0.000725052
-0.00114514
-0.00155487
-0.00154196
-0.00136244
-0.000459581
-0.00038319
-0.000370588
-0.000124415
0.000111208
6.50268e-05
-0.000112387
-0.000224553
-0.000323614
-0.000360967
-0.000390886
-0.000363479
-0.000465965
-0.000406418
-0.000522536
-0.000641364
-0.000734809
-0.000829299
-0.000747998
-0.000751558
-0.000768435
-0.000434817
-0.000656865
0.000188741
-6.25433e-05
0.000235673
-0.000192572
0.000195526
-3.1787e-05
-0.0001301
6.49234e-05
-2.46719e-05
-2.66169e-05
-1.84599e-05
-9.92399e-06
-0.000413991
-0.000395323
0.000444049
-3.77831e-05
-0.000331102
0.000167296
0.00037183
7.97665e-06
5.47718e-05
7.79918e-05
7.25405e-05
6.37449e-05
-3.97348e-05
0.000156589
-0.000390127
0.00048208
-0.00029322
0.000462115
-0.0133398
0.00827915
0.000289507
-0.000584266
-0.000609744
-0.000574887