/*--------------------------------*- C++ -*----------------------------------*\
| =========                 |                                                 |
| \\      /  F ield         | OpenFOAM: The Open Source CFD Toolbox           |
|  \\    /   O peration     | Version:  2.2.x                                 |
|   \\  /    A nd           | Web:      www.OpenFOAM.org                      |
|    \\/     M anipulation  |                                                 |
\*---------------------------------------------------------------------------*/
FoamFile
{
    version     2.0;
    format      ascii;
    class       surfaceScalarField;
    location    "0.9";
    object      cfmax;
}
// * * * * * * * * * * * * * * * * * * * * * * * * * * * * * * * * * * * * * //

dimensions      [0 3 -1 0 0 0 0];

internalField   nonuniform List<scalar> 
28084
(
0.00123308
0.00123742
0.00123813
0.00124123
0.00123889
0.00123367
0.00123115
0.00122287
0.00121515
0.0012112
0.00120911
0.0012124
0.00121629
0.00122307
0.00123139
0.00123869
0.001248
0.00125151
0.0012493
0.00125016
0.00125017
0.00124964
0.00125003
0.00125222
0.00125501
0.00125814
0.00126203
0.0012703
0.00127599
0.0012809
0.001284
0.00128587
0.00128662
0.00128685
0.00128724
0.00128809
0.00128768
0.00128662
0.00128559
0.00128438
0.00128294
0.00128168
0.00128164
0.00128394
0.00129367
0.00131872
0.00137884
0.000994673
0.00090965
0.000934514
0.000944423
0.000944585
0.000941004
0.000943072
0.000947401
0.00095645
0.00096644
0.000978666
0.000992659
0.00100736
0.00102105
0.00103493
0.00104889
0.00106307
0.00107779
0.00109192
0.00110466
0.00111623
0.00112714
0.00113788
0.00114783
0.0011565
0.00116484
0.00117265
0.00117967
0.00118427
0.0011831
0.00117515
0.00116577
0.00115239
0.00113829
0.00111303
0.00107071
0.00100349
0.00092561
0.000852924
0.000798117
0.000758739
0.00072597
0.000702125
0.00068449
0.000671571
0.000661886
0.000654554
0.00064818
0.000642838
0.000638355
0.000634743
0.000632269
0.000630597
0.000629651
0.000629761
0.000630887
0.000633127
0.000636337
0.000640591
0.000645627
0.000651803
0.000658772
0.000666816
0.000675814
0.000685824
0.000696283
0.000706684
0.000716556
0.00072644
0.000735342
0.00074679
0.00356782
0.00357865
0.00127142
0.00355776
0.00125392
0.00348004
0.00123374
0.00341426
0.00121126
0.00337697
0.0012046
0.00337424
0.00121234
0.00335591
0.00122453
0.00333975
0.00124326
0.00326354
0.00127025
0.00319789
0.00129733
0.00313694
0.00130356
0.003068
0.00130256
0.00300015
0.00129993
0.00293451
0.00129341
0.00281729
0.00127728
0.00268875
0.00126015
0.0025865
0.00125325
0.00250204
0.00125833
0.00242419
0.00126747
0.00235553
0.00128085
0.00229889
0.00130283
0.00222282
0.00132963
0.00213587
0.00134902
0.00204742
0.00135983
0.00196243
0.00136641
0.00187798
0.00137004
0.00180065
0.00137188
0.00172418
0.00137041
0.00164431
0.00136778
0.00155886
0.00136366
0.00147675
0.0013616
0.00139924
0.00136175
0.00132582
0.00136225
0.00125755
0.00136289
0.00119356
0.00136575
0.00113112
0.00136919
0.00107134
0.00137097
0.00101409
0.00137201
0.000958847
0.00137245
0.000905947
0.00137234
0.000855025
0.00137187
0.000806155
0.00137024
0.000759498
0.00136645
0.000717828
0.00136298
0.0007265
0.00135878
0.000756118
0.00136931
0.000711011
0.00133176
0.000555702
0.000854591
0.000549999
0.000814094
0.000552362
0.000817923
0.00055749
0.000833745
0.000567546
0.000862652
0.00057483
0.000891776
0.000577112
0.000918599
0.000585948
0.000943094
0.000592909
0.000965638
0.000597208
0.000987679
0.000599032
0.0010097
0.000600886
0.00103127
0.00060305
0.00105191
0.000605436
0.00107168
0.000608934
0.0010899
0.000612851
0.00110727
0.000617152
0.00112334
0.00062134
0.00113836
0.000625132
0.00115161
0.000628226
0.00116327
0.000631567
0.00117331
0.000635384
0.00118241
0.000639764
0.00119033
0.000644296
0.00119714
0.000649235
0.00120202
0.000655844
0.00120335
0.000661323
0.00119948
0.000662252
0.00119122
0.000655849
0.00117718
0.000652902
0.00115383
0.000649852
0.00112579
0.000642073
0.00109698
0.000637539
0.00106682
0.000636052
0.0010377
0.000643086
0.00100981
0.000650077
0.000978083
0.000649583
0.000942611
0.000629439
0.000908302
0.000602012
0.000870208
0.000581077
0.000824814
0.000570848
0.000782246
0.00056204
0.000748262
0.000557278
0.000724328
0.000555344
0.000707809
0.000556206
0.000695543
0.000557941
0.000686439
0.000560212
0.000678929
0.000563276
0.000672251
0.000566762
0.000666248
0.000570955
0.000660806
0.000576031
0.000656538
0.000581412
0.000653384
0.000586834
0.000650767
0.000592126
0.000648719
0.000597443
0.000647542
0.000602773
0.000647388
0.000608425
0.000648413
0.000613838
0.000650659
0.000619516
0.000654115
0.000624778
0.000658241
0.000630558
0.000663286
0.000636066
0.000668945
0.000642022
0.000675965
0.000648038
0.000683819
0.000654547
0.000692476
0.000661774
0.000701792
0.000669729
0.000711211
0.000678116
0.000720345
0.00068845
0.000729301
0.000695194
0.000738656
0.00070249
0.000748759
0.00346877
0.00352815
0.00121765
0.00357251
0.00124835
0.00350536
0.00128373
0.00343704
0.00133008
0.00338415
0.00134554
0.00337186
0.00133191
0.00336106
0.00132042
0.00336345
0.00130313
0.00322153
0.00127196
0.00309329
0.00123863
0.00300062
0.00123516
0.00295303
0.0012484
0.00291219
0.00127185
0.0029002
0.00130262
0.00283124
0.00134366
0.0027089
0.00139034
0.00260118
0.00142529
0.00250556
0.00143742
0.00242299
0.00143548
0.00236391
0.00142896
0.00231092
0.00141312
0.00222766
0.00139487
0.00211019
0.00137708
0.00200108
0.00137217
0.00191319
0.00137489
0.0018343
0.00139013
0.00175828
0.00140697
0.00168875
0.00142555
0.00162414
0.00144441
0.00155478
0.00146359
0.00147679
0.00147912
0.00140064
0.00149103
0.00132796
0.00149754
0.00125893
0.00150177
0.00119421
0.0015055
0.00113135
0.00150766
0.00107135
0.00150798
0.00101395
0.00150839
0.000958677
0.00150743
0.000905886
0.00150631
0.000854991
0.00150513
0.000805364
0.00150318
0.0007588
0.00149986
0.000713484
0.0014952
0.000731704
0.00148624
0.000750383
0.00149022
0.000625252
0.00135687
0.000534148
0.000866421
0.000531114
0.000830307
0.000542644
0.000841257
0.000556144
0.000864398
0.000564898
0.000903086
0.000576609
0.000938798
0.000586563
0.000972912
0.000595294
0.00100727
0.000602961
0.00104085
0.000609552
0.00107128
0.000616468
0.00109792
0.000624624
0.00112118
0.000631542
0.00114346
0.000638078
0.00116468
0.000643865
0.00118448
0.00064933
0.0012024
0.000653908
0.00121888
0.000658217
0.00123388
0.000661875
0.00124725
0.000664875
0.00125967
0.000667784
0.00127122
0.000670811
0.00128162
0.000673934
0.00129189
0.000675791
0.00130121
0.000676611
0.00130935
0.000673548
0.00131551
0.00067399
0.00131815
0.000676491
0.00131538
0.000676163
0.00130624
0.000671383
0.00128705
0.000665732
0.00125677
0.000657506
0.00122273
0.000653838
0.00117608
0.000652052
0.00112666
0.000660773
0.00108197
0.000665555
0.00103823
0.000668469
0.000995571
0.000661523
0.000958166
0.000646996
0.000918109
0.000623584
0.000873776
0.000603002
0.000828697
0.000585524
0.000787558
0.000574706
0.000758479
0.000568368
0.000738938
0.000565502
0.000725243
0.000565775
0.000714412
0.000567313
0.000704536
0.000569748
0.000695849
0.000572385
0.000688934
0.000575959
0.00068325
0.000580408
0.000679025
0.000585412
0.000675511
0.00059043
0.000672691
0.000595245
0.000669788
0.000600284
0.000667313
0.000605115
0.000665458
0.000610482
0.000664759
0.000615774
0.000665316
0.00062178
0.000667244
0.000627279
0.000669994
0.000633514
0.000673545
0.000639096
0.000677622
0.000646028
0.000682913
0.000652859
0.000689291
0.000660865
0.000696745
0.000669697
0.000705038
0.000680693
0.000713307
0.000690857
0.000721383
0.000703868
0.000729458
0.000711137
0.000739433
0.000720772
0.000749263
0.00347729
0.00352746
0.00130498
0.00356371
0.00128731
0.00343181
0.00125391
0.00330427
0.00120678
0.00323862
0.00119435
0.00326643
0.00121864
0.00329059
0.00125113
0.00334764
0.0012961
0.00321811
0.00135749
0.00307818
0.00142126
0.00297873
0.00143949
0.00295518
0.00143705
0.0029253
0.00143292
0.00291298
0.00141545
0.0028181
0.00138607
0.00264698
0.00134563
0.00250555
0.00131768
0.00240452
0.00132435
0.00233548
0.00134524
0.00228963
0.00137473
0.00227106
0.00142315
0.00221498
0.0014809
0.00209434
0.00153001
0.00198533
0.00155292
0.00190578
0.00156492
0.00183367
0.00156912
0.00176309
0.0015695
0.00169857
0.00156263
0.00163385
0.0015519
0.00155343
0.00154243
0.00146856
0.00153668
0.00138587
0.00153249
0.00131003
0.00153189
0.00124127
0.0015351
0.00117843
0.00154344
0.00111679
0.00155147
0.00105696
0.00155696
0.000999573
0.00156211
0.000944295
0.00156619
0.000891908
0.0015682
0.00084226
0.00156881
0.000794377
0.00156783
0.000748565
0.00156426
0.000704264
0.0015595
0.000726817
0.00154966
0.000699161
0.00155948
0.000562533
0.00135939
0.000526376
0.000934482
0.000540558
0.000903194
0.000557203
0.000921083
0.000574539
0.00095554
0.000585047
0.000999062
0.000597479
0.00103623
0.000605708
0.0010702
0.000614784
0.0011031
0.000627817
0.00113536
0.000637739
0.00116723
0.000645947
0.00119392
0.000652812
0.00121795
0.000658036
0.00123821
0.000663245
0.00125678
0.000667636
0.00127491
0.000671812
0.00129234
0.000675525
0.00130856
0.000678879
0.00132285
0.000681771
0.00133573
0.000684013
0.00134696
0.000686337
0.00135734
0.000689413
0.00136497
0.000693256
0.00137321
0.000696873
0.00138136
0.000699396
0.00138768
0.000700331
0.00139275
0.000706939
0.00139574
0.000714502
0.00139495
0.000725039
0.00139201
0.000728708
0.00138546
0.0007342
0.00136432
0.000725259
0.00134133
0.000720155
0.00129328
0.000705131
0.00124508
0.000710536
0.00119451
0.000708758
0.0011482
0.000709777
0.00110229
0.000706534
0.00106359
0.00069144
0.00102054
0.000670658
0.000968022
0.000642553
0.000913037
0.000615126
0.00085736
0.000596738
0.000813075
0.000584819
0.000782569
0.000578698
0.000761905
0.000575967
0.000746718
0.000575459
0.000735054
0.000576733
0.000725285
0.00057895
0.000717137
0.000581984
0.00071008
0.000585977
0.000704475
0.000590716
0.000699736
0.000595717
0.000695514
0.000600074
0.000691341
0.000604817
0.000687255
0.000609312
0.000683629
0.000614491
0.000680944
0.000619395
0.00067964
0.000625289
0.000679605
0.000630599
0.000680772
0.000637191
0.000683167
0.000642976
0.000686241
0.000650811
0.00069039
0.000658655
0.000695662
0.00066841
0.000701984
0.000678995
0.000709288
0.000692509
0.000716393
0.000704368
0.000724249
0.000718759
0.000731969
0.00072704
0.000741907
0.000738992
0.000750867
0.00341619
0.00350219
0.00121777
0.00356572
0.00127024
0.00343972
0.00133099
0.00331114
0.00141079
0.00324395
0.00143922
0.00326835
0.00142081
0.00329942
0.0014093
0.00336193
0.00138405
0.00320713
0.0013422
0.00303567
0.00128485
0.00292443
0.00127589
0.00287997
0.0012974
0.00285805
0.00133047
0.002853
0.0013876
0.00280529
0.00145408
0.00264084
0.00153482
0.00249688
0.00160047
0.00239547
0.001621
0.00233476
0.0016185
0.00230834
0.00160656
0.00229022
0.00158218
0.0022404
0.00155434
0.00210255
0.0015186
0.00198321
0.00150528
0.00188652
0.00150611
0.0018132
0.00152953
0.00174246
0.00155615
0.00167589
0.0015845
0.00161395
0.00161564
0.00154115
0.00165142
0.00145838
0.00167978
0.00137647
0.00170044
0.0013033
0.0017136
0.001236
0.00172314
0.00117557
0.00173004
0.0011155
0.00173364
0.00105654
0.00173532
0.000999816
0.00173611
0.000944867
0.00173581
0.000892113
0.00173514
0.000841791
0.00173416
0.000794323
0.00173141
0.000748683
0.00172753
0.000705417
0.0017224
0.000732282
0.00171577
0.000689732
0.00172675
0.000615089
0.00166264
0.000531726
0.00106828
0.000562546
0.00102622
0.00059114
0.00104846
0.000612038
0.00109202
0.000622893
0.00113034
0.000636625
0.00116628
0.000647211
0.00119906
0.000656552
0.00123002
0.00066479
0.00125863
0.000667198
0.00128221
0.000671333
0.00130606
0.000675023
0.00133093
0.00067851
0.00135299
0.000682152
0.00137315
0.000684943
0.00139165
0.000688274
0.00140744
0.000691331
0.00142438
0.000694334
0.0014388
0.000696832
0.0014511
0.000698514
0.00146136
0.000699248
0.00146961
0.000700865
0.00147721
0.000702734
0.00148207
0.000704789
0.00148658
0.00070539
0.00149132
0.000704284
0.00149293
0.000713617
0.00149435
0.000723339
0.00149319
0.000740199
0.00148889
0.000750039
0.00148573
0.000767324
0.00146795
0.000767754
0.00145296
0.00077736
0.0014132
0.000768957
0.00137777
0.000781127
0.00132867
0.000777835
0.00128092
0.000777175
0.00123463
0.000778877
0.00119472
0.000762374
0.00115234
0.000739536
0.00109699
0.000701018
0.00103542
0.000660714
0.000968436
0.000629747
0.000894049
0.000608662
0.000840766
0.000595576
0.000807102
0.00058742
0.000785289
0.000584169
0.000769808
0.000584702
0.00075787
0.000586666
0.000746043
0.000589469
0.000736112
0.000593068
0.000727928
0.000597146
0.000721717
0.000601923
0.000716332
0.000606067
0.000711257
0.000610508
0.000706095
0.000614526
0.000701012
0.000619269
0.00069626
0.000623642
0.000692737
0.000629385
0.000690918
0.000634414
0.000690404
0.000641331
0.000691262
0.000647546
0.00069304
0.000656585
0.000696157
0.000665567
0.00070028
0.000676816
0.000705396
0.000689065
0.000711538
0.000704145
0.000717844
0.000717684
0.000725592
0.000733534
0.000733551
0.000743561
0.000743903
0.000757439
0.000752689
0.00341409
0.00350432
0.00134302
0.00358085
0.00132696
0.00342192
0.00128915
0.00326357
0.00122736
0.00318389
0.00120824
0.00321781
0.00124519
0.00323171
0.0012922
0.00331365
0.00135411
0.00318592
0.00143903
0.00300371
0.00153458
0.00288021
0.0015685
0.00287346
0.00157073
0.00287654
0.00156828
0.00289582
0.00154839
0.00284686
0.00151156
0.00265282
0.00145723
0.00249043
0.00141035
0.00237665
0.00141556
0.00231014
0.00144453
0.00226807
0.00148446
0.00224755
0.00154855
0.00220717
0.00163418
0.00207003
0.00170902
0.00194969
0.00174964
0.00186738
0.0017685
0.00180829
0.00177554
0.00174543
0.00177765
0.00168723
0.00176696
0.00163101
0.00175696
0.00156483
0.00174624
0.00148056
0.00173458
0.00139443
0.00172797
0.00132131
0.00172805
0.00124999
0.00173649
0.00118346
0.00174561
0.00112119
0.00175613
0.00106186
0.00176586
0.00100493
0.00177575
0.000950226
0.00178466
0.000898256
0.00179108
0.000848151
0.00179646
0.000800496
0.00179971
0.000756968
0.00180173
0.000715876
0.00180212
0.00075392
0.00180171
0.000717389
0.00181077
0.000702175
0.00182843
0.000554222
0.00120914
0.00061096
0.00115073
0.000650279
0.00119734
0.000667677
0.00125542
0.000674603
0.00129177
0.000682351
0.00132226
0.000688246
0.00135136
0.000690787
0.00137278
0.000692223
0.00139595
0.000690018
0.00141528
0.000693027
0.00143456
0.000693837
0.00145286
0.000696331
0.00146959
0.000698045
0.00148695
0.000699587
0.00150039
0.000702806
0.00151259
0.000705181
0.00152497
0.000707912
0.00153697
0.000709852
0.00154648
0.000711033
0.0015539
0.00071204
0.00156018
0.000711619
0.00156465
0.000712262
0.00156868
0.000713328
0.001571
0.000713012
0.00157349
0.00071147
0.00157578
0.00072445
0.00157523
0.000735305
0.00157193
0.000754005
0.00156642
0.000766745
0.00156101
0.000791412
0.00154895
0.000798772
0.00153598
0.000819369
0.00150303
0.00082299
0.00147124
0.000836933
0.00142649
0.00083902
0.00138674
0.000840397
0.00134444
0.000847911
0.00130902
0.000838002
0.00127339
0.000816563
0.00122446
0.000783321
0.00116633
0.000736535
0.00109633
0.000685357
0.0010121
0.000645633
0.000924392
0.00062041
0.000867139
0.000604883
0.00083187
0.000596706
0.000808605
0.000595431
0.000792899
0.00059628
0.000779233
0.000597829
0.000766354
0.000600552
0.000755703
0.000604287
0.000746979
0.000608929
0.000739676
0.000612906
0.00073311
0.000617188
0.000726983
0.000620771
0.00072096
0.00062512
0.000714569
0.000628597
0.000707935
0.000634441
0.000703624
0.000639151
0.00070096
0.000646716
0.000700431
0.000653445
0.000700961
0.000663433
0.000703078
0.000673356
0.000706035
0.000685822
0.000709724
0.000699332
0.000714819
0.0007154
0.000720297
0.000730531
0.000727621
0.000748058
0.000736008
0.000760419
0.000746776
0.000775682
0.000755586
0.003415
0.00350514
0.00123892
0.00355365
0.00130072
0.00339735
0.00137394
0.00323477
0.00147625
0.00315508
0.00152117
0.00321976
0.0015064
0.00326136
0.00150031
0.0033521
0.00147639
0.00323605
0.00143538
0.00303905
0.00136344
0.00290519
0.00134176
0.00286115
0.00136848
0.00285343
0.00141251
0.00285028
0.00148332
0.00279789
0.00156343
0.00260482
0.00166987
0.00244324
0.00176951
0.00233695
0.00180299
0.00230139
0.0018091
0.00228297
0.00179595
0.00228407
0.00177133
0.00228026
0.00174324
0.00213838
0.00169833
0.00201223
0.00167572
0.00191143
0.00167558
0.00183457
0.00170617
0.00176248
0.00173617
0.00169337
0.00176949
0.00163311
0.00180813
0.0015576
0.00185393
0.00146927
0.00189366
0.00138749
0.00192168
0.00131215
0.00194195
0.00124313
0.00195686
0.00117884
0.00196605
0.00111867
0.00197316
0.00106059
0.00197788
0.00100471
0.00198192
0.000950839
0.00198377
0.000899295
0.0019842
0.000848954
0.00198353
0.000800162
0.00198358
0.00075564
0.001986
0.000714443
0.001988
0.000761414
0.00199277
0.000732191
0.00201016
0.000786356
0.00205254
0.000604356
0.0018527
0.000677585
0.00137951
0.000713631
0.00139587
0.000727187
0.0014476
0.000730254
0.00147024
0.000732688
0.00149168
0.000731563
0.00150509
0.000727517
0.00151162
0.000727362
0.00152286
0.000723208
0.00153965
0.000722689
0.00155325
0.000719289
0.00156797
0.000721192
0.00158072
0.000720161
0.00159444
0.000720306
0.00160459
0.000720451
0.00161555
0.000721672
0.00162419
0.000722354
0.00163342
0.000722688
0.0016411
0.000723406
0.00164881
0.000724142
0.00165323
0.000724484
0.00165743
0.000723038
0.00165883
0.000722522
0.00165952
0.000721825
0.00165933
0.000723667
0.00165812
0.000734914
0.00165714
0.000750301
0.00165261
0.000766014
0.00165097
0.000787758
0.00163896
0.000807458
0.0016313
0.00082818
0.00160655
0.000848385
0.00158811
0.00086842
0.00155702
0.000881333
0.00152148
0.000895272
0.00148637
0.000893019
0.00144874
0.000906362
0.00141693
0.000901991
0.00138706
0.000885894
0.00134346
0.000862804
0.00129203
0.000821332
0.00122834
0.000768319
0.00114495
0.000701945
0.00104633
0.000656279
0.00094789
0.000628302
0.000888751
0.000612747
0.000852621
0.000609475
0.000830052
0.000608928
0.000813588
0.000608624
0.00079831
0.000609924
0.00078437
0.00061283
0.000772318
0.000617373
0.000761837
0.00062081
0.000752036
0.000624832
0.000743378
0.000627921
0.000735599
0.000632013
0.00072813
0.000634576
0.000720362
0.000640106
0.000714158
0.000644622
0.00071003
0.000652775
0.000707974
0.000659913
0.000707149
0.000670826
0.000707984
0.000681824
0.000709801
0.000695136
0.000712055
0.000709533
0.000715779
0.000726522
0.000720937
0.00074288
0.00072811
0.000762379
0.000737071
0.000777119
0.00074841
0.000794052
0.000758606
0.00338438
0.00350667
0.00138197
0.00361094
0.00137495
0.00346005
0.0013435
0.00329796
0.00128156
0.00321321
0.00125822
0.00322953
0.00130186
0.0032359
0.00135068
0.00328787
0.00141974
0.00317555
0.00151667
0.00297413
0.00163747
0.00284093
0.00170011
0.00284111
0.00171025
0.00286415
0.0017124
0.00289083
0.0016971
0.00291354
0.0016634
0.00272697
0.00161291
0.00255792
0.00155836
0.00243728
0.00155941
0.00236388
0.00159482
0.00230997
0.00163714
0.00228507
0.00170592
0.0022535
0.00179902
0.00209641
0.00188312
0.00197368
0.00194172
0.00188675
0.00197363
0.0018279
0.00199299
0.0017611
0.00199666
0.00170115
0.0019898
0.00164956
0.00198287
0.00159459
0.00197294
0.00151351
0.00196285
0.00142907
0.00195774
0.00134693
0.00195735
0.00127821
0.00196168
0.00121011
0.00197597
0.00114484
0.00198859
0.00108368
0.00200088
0.00102534
0.00201369
0.00096969
0.00202638
0.00091698
0.00203726
0.000866354
0.00204635
0.000817022
0.00205382
0.000769712
0.00205951
0.00072612
0.00206217
0.000786564
0.00206471
0.00077874
0.00206783
0.000735994
0.00207749
0.000684661
0.00191534
0.000744668
0.00147779
0.000754811
0.0014993
0.000761241
0.00155558
0.000765326
0.00158646
0.000763645
0.00160844
0.000758485
0.00161995
0.000750699
0.00162451
0.000750954
0.00163371
0.000745704
0.00164844
0.000745351
0.00165967
0.000741087
0.00167231
0.000741726
0.00168321
0.000739068
0.00169424
0.000740129
0.00170337
0.000738869
0.00171223
0.000739703
0.00171907
0.000738048
0.00172657
0.00073818
0.00173226
0.000737213
0.00173811
0.000737708
0.00173946
0.000737657
0.00174145
0.000736893
0.00174054
0.000736156
0.00173875
0.000733196
0.00173645
0.000739019
0.00173417
0.0007503
0.00173146
0.00076791
0.00172836
0.000783322
0.00172514
0.000807964
0.00171362
0.000826857
0.00171458
0.000859438
0.00168134
0.000879971
0.00165698
0.00090971
0.00162899
0.000919657
0.00159954
0.000939673
0.00157339
0.000938247
0.00154558
0.000954426
0.00151227
0.000954792
0.00148568
0.00094448
0.00144482
0.000929929
0.001396
0.00089851
0.00133874
0.00085415
0.00126792
0.000784689
0.00118163
0.00070801
0.00107413
0.000660321
0.000965986
0.000635233
0.000906747
0.000626796
0.000874027
0.000623548
0.000853318
0.000621999
0.000835477
0.00062232
0.000819374
0.00062383
0.000804323
0.000627592
0.000790415
0.000630298
0.000777425
0.000632983
0.00076561
0.000635054
0.000755229
0.000639063
0.00074573
0.000641393
0.000736583
0.000646791
0.000728335
0.000651133
0.000721948
0.000659676
0.000717583
0.000667292
0.000714877
0.000678994
0.000713882
0.000691093
0.000714224
0.000705179
0.000715212
0.000719963
0.000717951
0.000737851
0.000723249
0.000755057
0.000730449
0.000776316
0.000739908
0.000792119
0.000751645
0.000812255
0.000762737
0.00347009
0.00353981
0.00128174
0.00359116
0.00134328
0.00339147
0.00141786
0.00321972
0.0015275
0.00316374
0.00159199
0.00322089
0.00158805
0.00325277
0.00159094
0.00334506
0.00157619
0.00330874
0.00154558
0.00311497
0.00148177
0.00297552
0.00145198
0.00291606
0.00148203
0.00290657
0.00153484
0.00289168
0.00159948
0.00287816
0.00168652
0.00265517
0.0017925
0.00248261
0.00190877
0.00238826
0.00195475
0.00234485
0.00197405
0.00231575
0.00196737
0.00231425
0.00195382
0.00230567
0.00193178
0.00218696
0.00189448
0.00206411
0.00187129
0.00196005
0.00187343
0.0018795
0.00190259
0.00179655
0.00193401
0.00172113
0.00196373
0.00165614
0.00199961
0.00159172
0.00204605
0.00150555
0.00208721
0.00142074
0.0021204
0.00134467
0.00214782
0.001272
0.00216926
0.00120578
0.00218348
0.00114263
0.00219455
0.00108272
0.00220011
0.00102539
0.00220534
0.000970554
0.00220982
0.0009185
0.00221235
0.000867897
0.00221371
0.000818668
0.00221619
0.000771085
0.00221601
0.000725472
0.00221345
0.000795195
0.00221371
0.000808595
0.00221839
0.000890264
0.00223281
0.000774616
0.00193778
0.000770114
0.00157802
0.000766203
0.00157113
0.000775749
0.00161084
0.000778339
0.00164308
0.000777883
0.00166253
0.000773573
0.00168293
0.000767297
0.0016968
0.000764809
0.00170357
0.000760428
0.00171579
0.000758331
0.00173178
0.000755516
0.00174437
0.000754959
0.00175704
0.000754191
0.0017683
0.000753869
0.00177871
0.000753356
0.00178683
0.0007528
0.00179439
0.000750999
0.0017994
0.000749999
0.00180613
0.000747848
0.00180958
0.000747068
0.00181119
0.000745891
0.00181183
0.000744183
0.00181126
0.000742328
0.00180909
0.000740329
0.00180676
0.000752246
0.00180312
0.000765056
0.00180103
0.000783792
0.00179733
0.000798526
0.00179343
0.000830505
0.00178234
0.000848311
0.00178352
0.00088433
0.00173983
0.000902927
0.00170674
0.000936845
0.00168472
0.000947028
0.00167385
0.000974535
0.00165033
0.000977272
0.00161735
0.000993284
0.00158559
0.000995823
0.00155842
0.00099114
0.00152085
0.000986097
0.00147891
0.000965736
0.00143367
0.000932653
0.00137641
0.000874302
0.00130325
0.000790991
0.00119985
0.000708691
0.00107215
0.000665551
0.000981312
0.000647716
0.000933762
0.000640547
0.00090494
0.000637908
0.000879717
0.000637815
0.000857264
0.000638891
0.000835807
0.000641814
0.000816405
0.000642578
0.000799575
0.000642957
0.000784668
0.000643742
0.000771727
0.000647643
0.00076027
0.000650081
0.000749415
0.000655522
0.000739649
0.000659337
0.000730907
0.000667876
0.000724296
0.000675534
0.000719841
0.000687864
0.000717199
0.000700823
0.000716553
0.000715818
0.000717799
0.000730619
0.000720893
0.00074941
0.000726861
0.000767018
0.000734516
0.00078948
0.000744027
0.000805807
0.000755787
0.000831465
0.000765972
0.00342349
0.00354075
0.00141828
0.00364916
0.00142583
0.00353816
0.00141145
0.00340151
0.00136839
0.00331784
0.00134997
0.0032967
0.00139277
0.00329543
0.00143516
0.00332696
0.00150611
0.00324801
0.00159686
0.00302192
0.00171763
0.00290708
0.00180671
0.00288753
0.00182824
0.00290686
0.00183803
0.00292143
0.00183508
0.00296364
0.00181268
0.00281299
0.00177981
0.00265387
0.00173504
0.00253302
0.00173722
0.00244626
0.00177304
0.00237678
0.0018159
0.00233295
0.00187447
0.00228278
0.00195628
0.00215969
0.00203095
0.00203504
0.00209802
0.00193843
0.00214056
0.00186865
0.00217107
0.0017932
0.00218528
0.00172547
0.00218921
0.00166777
0.00219031
0.00160927
0.00218727
0.00153906
0.00218493
0.00145867
0.00218348
0.00137882
0.00218582
0.00130332
0.00219249
0.00123442
0.00220624
0.0011672
0.0022196
0.0011035
0.00223269
0.00104343
0.00224567
0.000986408
0.00225939
0.000932692
0.00227349
0.000880284
0.00228749
0.000830201
0.00229905
0.000781986
0.00230897
0.000736683
0.00231789
0.000815898
0.00232927
0.000852335
0.0023401
0.000938568
0.00233913
0.000838146
0.00179144
0.000802971
0.00162272
0.000765922
0.00162051
0.000770769
0.00164022
0.000775689
0.00168472
0.00077741
0.00171424
0.000778243
0.00174298
0.000775099
0.00176086
0.000767624
0.00177121
0.00076901
0.00178641
0.000763307
0.00180105
0.000764117
0.00181439
0.000760553
0.00182787
0.000761717
0.00183957
0.000759117
0.0018506
0.000759591
0.00185743
0.000757706
0.00186579
0.000757559
0.00186943
0.000755391
0.00187679
0.000754137
0.0018794
0.000752441
0.00188093
0.000751712
0.00188099
0.000749869
0.00187951
0.000747659
0.00187594
0.000753112
0.00187225
0.000765912
0.00187039
0.000780496
0.00186909
0.000799754
0.0018673
0.000818496
0.00186217
0.000850743
0.00185296
0.000873932
0.00184953
0.000914442
0.00180085
0.000930329
0.00177404
0.000968752
0.0017524
0.000988091
0.00173503
0.00100758
0.00171526
0.00101245
0.00170002
0.00102618
0.00166299
0.00103329
0.00163703
0.00103381
0.00160765
0.00103606
0.0015727
0.00102602
0.00153486
0.00100585
0.0014832
0.000960122
0.00142055
0.000882621
0.00132927
0.00078126
0.00120507
0.000711079
0.00107918
0.000678504
0.00100875
0.000665041
0.000964815
0.000659967
0.000929597
0.000657572
0.000898359
0.000655697
0.000869229
0.000656304
0.00084405
0.000655205
0.000822983
0.000654024
0.00080503
0.000653705
0.000788934
0.000657422
0.000775071
0.000659523
0.000762375
0.000664932
0.000750991
0.000668205
0.000740168
0.000676827
0.000731919
0.000684705
0.000726289
0.000697128
0.000723141
0.000710213
0.000722306
0.000725808
0.000723512
0.000740786
0.000726688
0.000760465
0.0007325
0.000778903
0.000739826
0.000802176
0.00074898
0.000819395
0.000760021
0.000850575
0.000769198
0.00355841
0.00360412
0.00134509
0.00364589
0.00140234
0.00349029
0.00147028
0.00331912
0.00156825
0.00326367
0.00164256
0.00327882
0.00165448
0.00330374
0.00166722
0.00336849
0.00166608
0.00337493
0.00165137
0.00321305
0.00161213
0.0030808
0.00159107
0.00300459
0.0016214
0.00297585
0.00167158
0.00294423
0.00172992
0.00292376
0.00180953
0.00276474
0.00189767
0.00259768
0.0020021
0.00249147
0.0020625
0.0024265
0.00209737
0.00237601
0.00210104
0.00235162
0.00210662
0.00231738
0.00210294
0.00222782
0.00208251
0.00211385
0.00206954
0.00201109
0.00207719
0.00192149
0.00210169
0.00183382
0.0021305
0.00175701
0.00215934
0.00168248
0.00219558
0.00161097
0.00223374
0.00153973
0.00227046
0.00145584
0.00230391
0.00137599
0.00233291
0.00130394
0.0023578
0.00123345
0.00237734
0.00116713
0.00239212
0.00110443
0.00240375
0.00104501
0.0024124
0.000988667
0.00242026
0.000935401
0.00242674
0.000883301
0.00243145
0.000833347
0.0024347
0.000785378
0.00243691
0.000740596
0.00243786
0.000827302
0.00244028
0.000881977
0.0024446
0.000946322
0.00244612
0.000871523
0.00184936
0.000838384
0.00174755
0.000779323
0.00170696
0.000770834
0.00170345
0.000778519
0.00174176
0.000778224
0.00176634
0.000779705
0.00179229
0.000773278
0.0018114
0.000773328
0.00182994
0.000770387
0.00185158
0.000766235
0.00186453
0.000766382
0.0018795
0.000763891
0.00189543
0.000762042
0.00190582
0.00075933
0.001913
0.000760209
0.00191981
0.000757899
0.00192699
0.000758781
0.00193099
0.000756213
0.00193705
0.000755433
0.00193935
0.000753597
0.00194112
0.000752071
0.00193954
0.000749881
0.00193626
0.000749562
0.00193182
0.000760619
0.00192821
0.000775555
0.00192427
0.000790784
0.00192367
0.000812531
0.00191973
0.0008339
0.00191941
0.000867459
0.00189976
0.000896846
0.00188103
0.000939336
0.00184398
0.000965781
0.00181992
0.000997193
0.00182129
0.001018
0.00179476
0.00103605
0.00176465
0.001054
0.00175477
0.00105548
0.00173553
0.00106995
0.00170824
0.00107857
0.00168095
0.00108663
0.0016506
0.0010787
0.00161763
0.00106448
0.00156926
0.00102895
0.00151223
0.000961457
0.00143193
0.00085746
0.00131287
0.00076892
0.00116792
0.000717688
0.00107343
0.000696003
0.00101465
0.000687146
0.000968091
0.000680541
0.000929735
0.000674911
0.00089868
0.000672535
0.000872045
0.000668919
0.000848356
0.000666353
0.000827774
0.000665136
0.000809063
0.000668936
0.000793793
0.000670451
0.000779879
0.000675607
0.00076661
0.000678139
0.000753432
0.000686559
0.00074298
0.000693816
0.000735672
0.000706343
0.000731536
0.000719656
0.000729835
0.00073583
0.00073052
0.000751258
0.000733299
0.000771652
0.00073857
0.000790765
0.000745528
0.000814996
0.000753983
0.000833314
0.000764347
0.000869258
0.000772448
0.00353118
0.00360813
0.00145447
0.00367904
0.0014766
0.00362379
0.00148458
0.00352381
0.00147015
0.00343811
0.0014696
0.0033963
0.00150192
0.00338364
0.00154465
0.00338741
0.00160746
0.00334387
0.00168524
0.00315029
0.00178734
0.00302947
0.00188007
0.00297925
0.00191426
0.00297085
0.00193661
0.00296287
0.00195102
0.00296528
0.00195215
0.00287391
0.00193322
0.00274069
0.00191627
0.00262453
0.0019269
0.00253062
0.00195931
0.00244886
0.00200046
0.00238441
0.00205125
0.00231232
0.00211485
0.00222035
0.0021741
0.00210097
0.00223842
0.00199964
0.00228795
0.00191469
0.00232319
0.00183363
0.00234476
0.00176179
0.00236092
0.00169205
0.00237482
0.00162391
0.00238534
0.00155531
0.00239405
0.00148108
0.00239928
0.00140371
0.00240772
0.00132953
0.00241963
0.00125667
0.00243275
0.00118771
0.00244661
0.00112132
0.0024601
0.00105996
0.00247384
0.00100092
0.00248716
0.000944527
0.00250027