/*--------------------------------*- C++ -*----------------------------------*\
| =========                 |                                                 |
| \\      /  F ield         | OpenFOAM: The Open Source CFD Toolbox           |
|  \\    /   O peration     | Version:  2.2.x                                 |
|   \\  /    A nd           | Web:      www.OpenFOAM.org                      |
|    \\/     M anipulation  |                                                 |
\*---------------------------------------------------------------------------*/
FoamFile
{
    version     2.0;
    format      ascii;
    class       volScalarField;
    location    "0.9";
    object      rho;
}
// * * * * * * * * * * * * * * * * * * * * * * * * * * * * * * * * * * * * * //

dimensions      [1 -3 0 0 0 0 0];

internalField   nonuniform List<scalar> 
14161
(
1.00132
0.999093
0.999371
0.998478
0.999825
0.998586
0.99469
0.997254
0.999729
0.99906
1.00152
1.00488
1.00333
1.00042
0.999737
0.99869
0.994293
0.993435
0.99205
0.988958
0.986938
0.983835
0.98469
0.987527
0.991706
0.994967
0.993142
0.989123
0.987324
0.98514
0.983064
0.983046
0.9841
0.98538
0.984656
0.982073
0.981323
0.981532
0.98171
0.982115
0.982854
0.984247
0.984613
0.984496
0.979224
0.9833
0.9825
1.69057
2.59053
2.49926
2.47609
2.49224
2.51189
2.52472
2.55456
2.56763
2.56423
2.55605
2.54685
2.53732
2.52389
2.50639
2.48782
2.47149
2.45731
2.44453
2.43038
2.41567
2.40228
2.3906
2.37896
2.36648
2.35409
2.34097
2.32857
2.31483
2.31917
2.33769
2.35528
2.38656
2.40373
2.43497
2.48466
2.58667
2.70538
2.83188
2.93061
2.99898
3.02693
3.05339
3.06103
3.05914
3.05504
3.06039
3.07174
3.07649
3.07543
3.06781
3.05592
3.04666
3.04009
3.03576
3.03104
3.02539
3.0174
3.01111
3.005
3.00191
2.99749
2.99514
2.98918
2.98775
2.98143
2.98176
2.97411
2.9758
2.96115
2.96313
2.97182
1.00696
1.01393
1.01698
1.01025
0.995321
0.97513
0.956474
0.956714
0.962402
0.976034
0.996684
1.01636
1.02591
1.02528
1.0231
1.01556
1.00119
0.985981
0.97364
0.970376
0.971784
0.972418
0.97703
0.985014
0.990783
0.991706
0.992458
0.992393
0.991765
0.990578
0.988153
0.985604
0.984883
0.984926
0.983315
0.98035
0.980227
0.980574
0.981137
0.981799
0.982446
0.984146
0.987457
0.988476
0.9892
0.987785
1.01781
2.01851
2.5406
2.66075
2.6783
2.64343
2.60054
2.56559
2.52926
2.50593
2.47903
2.44824
2.42063
2.3957
2.36858
2.34453
2.32455
2.30916
2.29769
2.28654
2.27401
2.26339
2.254
2.24489
2.23439
2.2254
2.21816
2.21527
2.21909
2.22955
2.25857
2.30355
2.35117
2.4052
2.4571
2.50755
2.57136
2.66529
2.74169
2.8136
2.87352
2.94428
2.98718
3.02381
3.03752
3.04036
3.03816
3.04322
3.05482
3.05911
3.05946
3.05624
3.04887
3.04069
3.03467
3.03058
3.02658
3.02284
3.01823
3.0132
3.00741
3.00323
2.99902
2.99818
2.99301
2.99208
2.98593
2.98644
2.98024
2.9815
2.96574
2.96445
2.97037
0.987185
0.968352
0.968492
0.981257
1.0132
1.05335
1.0861
1.08976
1.07763
1.04786
1.0043
0.964577
0.942526
0.93886
0.948536
0.967703
0.993741
1.02274
1.04345
1.04986
1.05106
1.04299
1.02961
1.01319
1.00027
0.983255
0.978009
0.978559
0.98204
0.98638
0.991752
0.99779
1.00554
1.01192
1.01205
1.01167
1.0114
1.01024
1.01088
1.01196
1.01237
1.013
1.01412
1.01524
1.01792
1.01618
1.07343
2.22053
2.63161
2.78234
2.7793
2.72377
2.66489
2.61329
2.56232
2.51585
2.47756
2.43371
2.39975
2.36995
2.34042
2.31359
2.29002
2.27087
2.25479
2.24153
2.22956
2.21843
2.20635
2.19207
2.17638
2.16411
2.1542
2.14992
2.1521
2.16222
2.18473
2.23022
2.27176
2.33899
2.4161
2.49203
2.55697
2.62063
2.68277
2.73473
2.79148
2.85373
2.91488
2.96724
2.99454
3.00606
3.01112
3.01534
3.02505
3.0304
3.03194
3.03243
3.03009
3.02384
3.01828
3.01569
3.01327
3.01181
3.00986
3.00731
3.00247
2.99884
2.9944
2.99254
2.98798
2.98796
2.98316
2.98439
2.98004
2.98019
2.96037
2.95791
2.96373
1.01728
1.03525
1.0366
1.01815
0.97506
0.918079
0.881125
0.885572
0.905272
0.943368
0.995166
1.04156
1.06156
1.06332
1.06028
1.04431
1.01341
0.974364
0.94041
0.929009
0.926827
0.930009
0.942238
0.964199
0.98543
0.998704
1.00273
1.00791
1.01387
1.011
1.00596
1.0016
0.996722
0.99093
0.982168
0.973998
0.972089
0.972205
0.973069
0.975291
0.977512
0.978862
0.981105
0.982383
0.986749
0.980962
1.09064
2.25807
2.59672
2.69693
2.67573
2.61439
2.55927
2.50368
2.45996
2.41977
2.39065
2.36508
2.33589
2.30972
2.28819
2.27025
2.25181
2.23369
2.21815
2.20751
2.2014
2.19791
2.19613
2.1876
2.17473
2.16206
2.15264
2.14248
2.13965
2.13852
2.13877
2.16729
2.18594
2.24759
2.31153
2.38318
2.45068
2.51862
2.57529
2.60981
2.66252
2.72638
2.80962
2.88728
2.93709
2.9622
2.97506
2.98206
2.99123
2.99875
3.00288
3.00555
3.00678
3.00462
3.00066
2.99917
2.99863
2.99987
3.00123
3.00142
2.99936
2.99654
2.99352
2.99224
2.98959
2.99029
2.98642
2.98629
2.98083
2.97987
2.9575
2.95067
2.95821
0.980405
0.949223
0.948062
0.969631
1.02287
1.09455
1.14466
1.14992
1.13189
1.08821
1.02155
0.957083
0.91568
0.90682
0.920312
0.94483
0.979979
1.02545
1.06042
1.07872
1.08848
1.07919
1.06499
1.04573
1.02677
1.00279
0.983164
0.980148
0.984085
0.987542
0.994047
1.00118
1.00918
1.0142
1.01692
1.02076
1.0242
1.02574
1.02632
1.02624
1.02621
1.02675
1.02764
1.02722
1.02669
1.02088
1.06371
2.10158
2.63324
2.72115
2.66453
2.59564
2.54511
2.49557
2.4611
2.42201
2.40283
2.37709
2.34364
2.31196
2.28452
2.26957
2.25565
2.23529
2.21485
2.1976
2.18674
2.18138
2.17975
2.18306
2.17933
2.16994
2.16498
2.15986
2.15491
2.15811
2.15679
2.18328
2.19649
2.25552
2.2985
2.35551
2.41851
2.48473
2.51435
2.52407
2.5536
2.59097
2.64792
2.74102
2.8306
2.88556
2.91821
2.93691
2.9534
2.9645
2.97418
2.97863
2.98083
2.98095
2.98003
2.98089
2.98258
2.98616
2.99104
2.99359
2.99181
2.9893
2.98831
2.9881
2.98866
2.99086
2.98739
2.98603
2.97913
2.9764
2.95277
2.9423
2.95053
1.02202
1.04538
1.04721
1.02291
0.962943
0.880293
0.838631
0.84636
0.874256
0.924048
0.990026
1.0516
1.07603
1.0784
1.07777
1.06099
1.0255
0.975505
0.928744
0.906034
0.903115
0.90256
0.916169
0.942061
0.969277
0.993119
0.999574
1.00919
1.02062
1.01983
1.01685
1.00976
0.998824
0.985756
0.978574
0.973506
0.970611
0.968549
0.967189
0.965705
0.963123
0.962599
0.962822
0.963541
0.9636
0.96576
0.968491
1.74856
2.42013
2.52738
2.46666
2.43147
2.42151
2.40553
2.39484
2.37498
2.35739
2.33876
2.31586
2.29609
2.2695
2.25593
2.24624
2.23199
2.2143
2.2
2.1891
2.18072
2.17482
2.17264
2.17435
2.17038
2.16276
2.15325
2.15074
2.14814
2.14899
2.16038
2.18075
2.23814
2.27816
2.33262
2.37467
2.41874
2.45001
2.45084
2.46842
2.5
2.53792
2.60462
2.7014
2.79587
2.85902
2.89138
2.91801
2.93329
2.94314
2.95402
2.96006
2.96283
2.96562
2.96986
2.97426
2.97867
2.98408
2.9898
2.99067
2.98894
2.9896
2.9901
2.99205
2.99422
2.99064
2.98673
2.97834
2.97319
2.94926
2.93653
2.94538
0.979509
0.941256
0.938005
0.962548
1.02517
1.11398
1.1644
1.169
1.152
1.11071
1.0399
0.965588
0.912603
0.896104
0.9062
0.924904
0.956893
1.00678
1.04353
1.07048
1.08757
1.07946
1.07209
1.05743
1.03786
1.00975
0.98567
0.981181
0.981761
0.978469
0.98011
0.985719
0.992524
0.998704
1.00522
1.00938
1.01287
1.01359
1.0144
1.01472
1.01474
1.01457
1.01364
1.01351
1.01273
1.01166
1.0075
1.21103
2.37493
2.57195
2.49344
2.41386
2.37399
2.33975
2.33945
2.33099
2.30461
2.28689
2.25887
2.24241
2.21674
2.20515
2.18851
2.17867
2.16474
2.15612
2.14524
2.13937
2.1307
2.12668
2.12514
2.12547
2.12429
2.11778
2.1189
2.11509
2.12472
2.13823
2.16799
2.19637
2.23841
2.28835
2.33164
2.35879
2.38865
2.39351
2.40719
2.42592
2.4506
2.50619
2.58113
2.68637
2.78968
2.85212
2.88828
2.90705
2.9186
2.93284
2.94346
2.94964
2.95371
2.95875
2.9626
2.96647
2.9736
2.98402
2.99019
2.99079
2.9933
2.99344
2.99597
2.99777
2.99333
2.98654
2.97704
2.96821
2.94364
2.92819
2.94243
1.01982
1.04368
1.04823
1.02412
0.961725
0.874572
0.837509
0.843872
0.867148
0.908734
0.968644
1.03147
1.0613
1.06429
1.06713
1.05316
1.02433
0.979109
0.93157
0.904641
0.899753
0.89197
0.902849
0.923546
0.948537
0.965952
0.982391
0.998638
1.00751
1.00713
1.00471
1.00005
0.994087
0.986293
0.974444
0.967311
0.964127
0.961769
0.959567
0.957317
0.953298
0.949174
0.947744
0.948117
0.947991
0.953242
0.96399
1.16963
2.53274
2.5851
2.47408
2.37878
2.33161
2.29428
2.29013
2.281
2.25659
2.24105
2.21858
2.20202
2.17959
2.16656
2.15012
2.14175
2.13044
2.12425
2.11515
2.11201
2.10445
2.1002
2.09899
2.09741
2.09496
2.08874
2.087
2.08112
2.10287
2.09584
2.14711
2.18647
2.23909
2.2818
2.32603
2.32954
2.33824
2.33118
2.34214
2.36225
2.38633
2.42743
2.4892
2.57741
2.69619
2.80632
2.85952
2.88755
2.90486
2.91972
2.92564
2.92948
2.9354
2.94465
2.95513
2.96262
2.97069
2.97967
2.99055
2.99574
3.00034
2.99982
3.00244
3.00316
2.99685
2.98635
2.97504
2.96232
2.93698
2.91594
2.93857
0.983474
0.945632
0.940708
0.962712
1.01993
1.10489
1.14642
1.14804
1.13362
1.10126
1.04392
0.976318
0.926759
0.903086
0.904704
0.917028
0.940389
0.981535
1.01139
1.04254
1.0647
1.05964
1.05859
1.0491
1.03135
1.00692
0.985424
0.981752
0.979352
0.972354
0.969337
0.970977
0.974059
0.978266
0.983322
0.986859
0.992338
0.996955
0.998136
0.998367
0.997822
0.996944
0.997541
0.999847
0.99972
0.99934
1.00787
1.30569
2.37566
2.51658
2.45629
2.37431
2.33121
2.2932
2.25467
2.2475
2.23249
2.20808
2.18995
2.16776
2.15034
2.12888
2.11665
2.10216
2.09445
2.0822
2.07545
2.06859
2.06329
2.05764
2.055
2.05238
2.05028
2.04338
2.04261
2.03966
2.05828
2.05426
2.10921
2.16794
2.21112
2.22192
2.24321
2.28131
2.29723
2.29028
2.29565
2.31798
2.33617
2.35707
2.38157
2.43866
2.55625
2.7104
2.80899
2.86118
2.8951
2.91734
2.92304
2.92281
2.92627
2.93782
2.95472
2.96463
2.97331
2.98075
2.99169
3.00034
3.00753
3.0069
3.00998
3.00677
2.99793
2.98468
2.97175
2.95735
2.92972
2.9047
2.93028
1.01351
1.03231
1.03615
1.01506
0.963924
0.895607
0.869543
0.86944
0.88383
0.908958
0.949712
0.999971
1.03814
1.04336
1.04553
1.03812
1.02138
0.989296
0.951883
0.932065
0.921723
0.909881
0.917301
0.929606
0.946304
0.959832
0.973945
0.987982
0.994504
0.996885
0.995456
0.993697
0.990832
0.986102
0.978996
0.974164
0.971625
0.969291
0.966544
0.963142
0.958142
0.956209
0.954916
0.954912
0.953358
0.957444
0.974161
1.54183
2.29458
2.39596
2.38501
2.32943
2.28789
2.2486
2.21006
2.20594
2.19072
2.1746
2.15894
2.13772
2.12331
2.10403
2.09653
2.08299
2.07702
2.06198
2.05449
2.04601
2.04135
2.03685
2.03647
2.03482
2.02962
2.02278
2.01447
2.01598
2.02756
2.03474
2.09947
2.16791
2.18971
2.19467
2.199
2.20919
2.23571
2.26438
2.26336
2.26603
2.26804
2.28477
2.30753
2.35206
2.45393
2.62681
2.76067
2.8386
2.89477
2.92572
2.9348
2.93464
2.93649
2.94638
2.96535
2.97686
2.98467
2.9902
2.99923
3.00755
3.01416
3.01047
3.01241
3.00695
2.99757
2.98352
2.96883
2.95191
2.9238
2.89573
2.92248
0.989254
0.957694
0.95338
0.970201
1.01207
1.07388
1.10492
1.10636
1.09729
1.07593
1.03754
0.988386
0.955468
0.929408
0.923518
0.93194
0.945414
0.968064
0.991703
1.01957
1.03503
1.03265
1.03566
1.03057
1.01861
1.00299
0.990651
0.982995
0.974032
0.969542
0.96671
0.967631
0.969335
0.9713
0.973818
0.976441
0.97897
0.982417
0.98432
0.984849
0.985143
0.985246
0.985367
0.986492
0.986331
0.988087
0.9991
1.67643
2.27239
2.38144
2.46432
2.42935
2.39445
2.34819
2.30473
2.27689
2.23685
2.21186
2.18617
2.15735
2.13715
2.12735
2.11677
2.10145
2.09174
2.07598
2.06731
2.05718
2.05172
2.04821
2.04471
2.04004
2.034
2.01889
2.01585
2.0102
2.02971
2.05085
2.13082
2.16897
2.14855
2.17426
2.21268
2.1798
2.17391
2.19465
2.20771
2.20922
2.20957
2.22721
2.25069
2.2909
2.37939
2.53352
2.70319
2.81576
2.8792
2.92109
2.94105
2.94753
2.95313
2.96267
2.98052
2.99342
2.99975
3.00307
3.00814
3.01416
3.02084
3.01655
3.01977
3.01298
3.00272
2.98679
2.96785
2.94788
2.91825
2.8871
2.91424
1.00701
1.01877
1.01875
1.00269
0.966885
0.93169
0.914845
0.910015
0.917519
0.930563
0.953868
0.98879
1.02193
1.03028
1.03087
1.03161
1.02142
1.00183
0.979496
0.965647
0.95312
0.942664
0.946496
0.951255
0.958578
0.967424
0.976787
0.983742
0.989396
0.991803
0.991399
0.991709
0.990428
0.987871
0.985237
0.982733
0.980917
0.979035
0.977063
0.974767
0.971614
0.969461
0.968503
0.968851
0.969041
0.971629
0.991745
1.79761
2.19611
2.28981
2.3905
2.38677
2.39635
2.37176
2.32869
2.28531
2.25122
2.21637
2.18791
2.16535
2.14087
2.1286
2.11585
2.10948
2.09712
2.08866
2.07637
2.06821
2.06283
2.05581
2.05167
2.04609
2.03631
2.0267
2.01373
2.01714
2.03076
2.09736
2.16656
2.16664
2.15389
2.15627
2.16571
2.16076
2.16108
2.15531
2.15997
2.16473
2.17553
2.19899
2.22796
2.2677
2.36054
2.52269
2.70454
2.84124
2.90767
2.94423
2.96866
2.97772
2.98155
2.99243
3.01634
3.02749
3.02455
3.01752
3.01887
3.02458
3.03479
3.0316
3.03345
3.02342
3.01028
2.99013
2.96762
2.94517
2.91305
2.87891
2.90638
0.991532
0.974001
0.974826
0.984337
1.00616
1.04326
1.06179
1.06221
1.0607
1.0482
1.02603
0.997438
0.977899
0.958696
0.951026
0.955515
0.959932
0.96944
0.983698
1.00079
1.00997
1.00907
1.01277
1.01067
1.00543
0.99885
0.991273
0.983122
0.979297
0.976037
0.972468
0.971499
0.971482
0.971854
0.972567
0.973245
0.9745
0.975293
0.976688
0.978025
0.978176
0.978197
0.978316
0.977677
0.977291
0.979597
1.0266
1.90775
2.14232
2.21911
2.29932
2.34588
2.41338
2.40229
2.36872
2.32588
2.28346
2.25561
2.21838
2.1998
2.17088
2.15895
2.13983
2.13203
2.11534
2.10822
2.09398
2.08676
2.08061
2.07711
2.07616
2.07211
2.05596
2.05613
2.05098
2.07885
2.1196
2.18461
2.22597
2.21834
2.20347
2.2003
2.17665
2.16663
2.17312
2.17355
2.16651
2.15974
2.16409
2.18995
2.23738
2.29196
2.38979
2.5439
2.71199
2.84266
2.91303
2.95308
2.97961
2.98995
2.99378
3.0022
3.02201
3.02974
3.02716
3.02137
3.0213
3.02182
3.03183
3.02992
3.03312
3.02258
3.00913
2.98676
2.96289
2.93841
2.90453
2.86889
2.89724
1.00158
1.00756
1.00732
0.997353
0.982609
0.967402
0.954664
0.94883
0.953563
0.958813
0.969861
0.98998
1.01056
1.01858
1.01952
1.02289
1.01695
1.00629
0.993782
0.984672
0.976298
0.968351
0.969315
0.970181
0.972359
0.976222
0.980101
0.983809
0.986895
0.987697
0.987708
0.988139
0.987725
0.987045
0.986063
0.98468
0.982208
0.980916
0.979758
0.978643
0.977465
0.976126
0.974114
0.971011
0.972639
0.973707
1.09357
2.00331
2.12926
2.17092
2.22137
2.27547
2.36738
2.37399
2.37403
2.34565
2.30172
2.26717
2.22987
2.21075
2.18308
2.17191
2.15523
2.14811
2.13177
2.12318
2.10518
2.09509
2.08944
2.09537
2.09839
2.10188
2.10581
2.14174
2.18741
2.27882
2.37184
2.36437
2.37146
2.34035
2.31173
2.28203
2.25866
2.25026
2.24958
2.2384
2.23058
2.22188
2.23147
2.26071
2.30874
2.37298
2.46542
2.59536
2.72584
2.83598
2.90765
2.95837
2.99982
3.02297
3.02405
3.02587
3.03583
3.03691
3.03318
3.02648
3.02769
3.02664
3.0342
3.0303
3.03346
3.02276
3.01057
2.9881
2.96303
2.93656
2.89873
2.85895
2.88907
0.994981
0.987692
0.989866
0.991531
1.00027
1.02025
1.02697
1.02778
1.03177
1.02535
1.01488
1.00126
0.989873
0.979132
0.973563
0.97544
0.975267
0.978347
0.984319
0.991442
0.995155
0.99528
0.998148
0.997824
0.996105
0.993098
0.98917
0.985975
0.983155
0.979765
0.978016
0.976865
0.975723
0.975139
0.974842
0.974608
0.974258
0.974107
0.97388
0.973583
0.97318
0.972375
0.971949
0.970741
0.973794
0.973626
1.28902
2.08484
2.12998
2.14803
2.1723
2.20819
2.27909
2.33335
2.39291
2.36897
2.33609
2.30117
2.26414
2.24409
2.21687
2.20639
2.19251
2.18836
2.17369
2.17175
2.16103
2.17148
2.18497
2.23738
2.29512
2.3741
2.43537
2.49443
2.56184
2.58616
2.62201
2.5796
2.57279
2.53713
2.49752
2.46875
2.46174
2.43599
2.41107
2.39665
2.40103
2.39072
2.39183
2.40644
2.43631
2.48181
2.54995
2.6499
2.76165
2.85715
2.91338
2.9513
2.98581
3.00713
3.01336
3.02404
3.03737
3.04248
3.03954
3.03371
3.0376
3.03314
3.03662
3.03121
3.03391
3.02196
3.01174
2.9893
2.96224
2.93295
2.89181
2.85011
2.88016
0.997484
1.00185
1.00244
0.998373
0.996346
0.989192
0.97989
0.975075
0.978302
0.979997
0.984945
0.993955
1.00323
1.00793
1.00989
1.01233
1.00893
1.00355
0.997195
0.991623
0.986201
0.981918
0.981114
0.980382
0.980016
0.980905
0.982126
0.983253
0.98388
0.984407
0.984515
0.984276
0.983692
0.983142
0.982635
0.981897
0.980782
0.979506
0.978695
0.977949
0.977467
0.97679
0.976609
0.975205
0.977845
0.982363
1.52233
2.09999
2.14672
2.14392
2.14298
2.14935
2.1852
2.24295
2.34071
2.35892
2.36761
2.34408
2.31026
2.29682
2.27813
2.28349
2.27403
2.2922
2.30563
2.35392
2.39833
2.45516
2.51462
2.59965
2.67549
2.73339
2.78047
2.79259
2.80892
2.78228
2.76514
2.73533
2.72561
2.6934
2.66531
2.64431
2.6177
2.59373
2.57932
2.57021
2.55188
2.53001
2.5201
2.53036
2.5353
2.56341
2.61532
2.69551
2.78915
2.86468
2.91237
2.94486
2.97534
3.00035
3.01082
3.02156
3.03515
3.04146
3.03835
3.03294
3.04061
3.03454
3.03631
3.03123
3.03431
3.02154
3.01388
2.9895
2.96018
2.92832
2.8855
2.84101
2.87271
0.996749
0.995697
0.996691
0.99494
0.997651
1.00444
1.00725
1.0089
1.01311
1.01062
1.00707
1.00165
0.995703
0.990611
0.987133
0.98766
0.986317
0.986824
0.988414
0.989842
0.990741
0.991193
0.991602
0.991095
0.990143
0.988875
0.98708
0.985076
0.983284
0.981329
0.979943
0.979156
0.978542
0.977519
0.976254
0.97507
0.97416
0.973503
0.973079
0.972928
0.972999
0.972997
0.973395
0.973095
0.975046
0.985827
1.69015
2.14591
2.16572
2.1485
2.12761
2.1129
2.1174
2.1404
2.20564
2.27639
2.35584
2.36358
2.35644
2.37158
2.37002
2.40193
2.4325
2.49599
2.56212
2.6317
2.69246
2.73651
2.76019
2.79008
2.82758
2.84625
2.85541
2.84252
2.83554
2.81413
2.79527
2.77587
2.75911
2.7494
2.74186
2.72344
2.70272
2.68814
2.67166
2.64688
2.62233
2.60372
2.59333
2.59042
2.59423
2.61663
2.65707
2.72221
2.79542
2.85592
2.89637
2.93238
2.96681
2.9941
3.00591
3.01706
3.0308
3.03808
3.03571
3.02961
3.0393
3.03276
3.03469
3.03033
3.03399
3.02019
3.01368
2.98869
2.95654
2.92277
2.87827
2.83132
2.86502
0.996645
0.999221
1.00152
1.00088
1.00161
0.997719
0.992008
0.988736
0.990492
0.990898
0.993047
0.996187
0.999776
1.00199
1.00221
1.00316
1.00164
0.999297
0.996211
0.992681
0.989935
0.987594
0.986232
0.985014
0.984374
0.983816
0.983074
0.982329
0.981813
0.98146
0.981201
0.980996
0.98099
0.980398
0.979008
0.977256
0.976255
0.975611
0.975236
0.9751
0.975112
0.975326
0.975593
0.974633
0.97634
0.997841
1.84954
2.15542
2.15912
2.14597
2.12605
2.10713
2.09532
2.09742
2.13599
2.21431
2.32979
2.39669
2.43456
2.50202
2.5512
2.6176
2.68097
2.7197
2.75523
2.77432
2.78588
2.79793
2.80319
2.81185
2.82087
2.82969
2.83662
2.8231
2.82366
2.81533
2.80075
2.78798
2.77218
2.76167
2.7529
2.74111
2.72813
2.71491
2.70041
2.68342
2.66727
2.65314
2.6413
2.63741
2.63987
2.65739
2.69023
2.74285
2.79674
2.84802
2.8899
2.92675
2.9603
2.98593
2.99942
3.00893
3.02377
3.03189
3.03152
3.0255
3.0359
3.03052
3.03301
3.02894
3.03319
3.0176
3.01218
2.98606
2.95199
2.91631
2.87059
2.82146
2.85732
0.997837
0.998612
0.999006
0.99691
0.99729
0.999056
1.00009
1.0007
1.00357
1.00298
1.00218
1.00025
0.997986
0.995647
0.993421
0.993037
0.992127
0.991786
0.991249
0.990821
0.990785
0.990203
0.989553
0.989069
0.988399
0.987257
0.985518
0.98329
0.981497
0.980445
0.979691
0.979177
0.978644
0.977446
0.97508
0.973433
0.972544
0.971936
0.971393
0.971175
0.9714
0.970847
0.968332
0.964476
0.966412
1.03839
1.95462
2.12546
2.14219
2.14114
2.13222
2.11858
2.10847
2.11616
2.14883
2.24771
2.39689
2.54371
2.60493
2.66225
2.70946
2.74683
2.77008
2.7813
2.78849
2.79874
2.80551
2.8145
2.81804
2.80859
2.80353
2.7878
2.7907
2.78278
2.79205
2.79276
2.78825
2.78225
2.77263
2.7662
2.76018
2.75439
2.7471
2.73493
2.71984
2.70417
2.69123
2.68045
2.67417
2.67253
2.67595
2.69621
2.727
2.76757
2.80774
2.84945
2.8853
2.91743
2.94922
2.97451
2.98975
2.99925
3.01372
3.02296
3.02465
3.01944
3.03004
3.02769
3.03016
3.02544
3.02954
3.01307
3.00892
2.98184
2.94658
2.9077
2.86184
2.81203
2.85013
0.997336
0.998683
1.00184
1.00174
1.00177
0.999775
0.996814
0.994605
0.995264
0.995177
0.995954
0.996826
0.9981
0.998816
0.998444
0.99815
0.997443
0.996315
0.994749
0.992828
0.991153
0.989446
0.98826
0.987579
0.986765
0.985391
0.983133
0.981416
0.980356
0.97963
0.979294
0.979346
0.979248
0.978071
0.975217
0.973191
0.972166
0.971513
0.971138
0.970853
0.971006
0.971186
0.966852
0.965874
0.965926
1.22903
2.04098
2.0995
2.1156
2.12347
2.12435
2.12211
2.12259
2.13693
2.20348
2.35213
2.54917
2.66894
2.7142
2.73413
2.75368
2.77538
2.78158
2.78611
2.79131
2.79818
2.80504
2.8081
2.80768
2.79917
2.78562
2.76516
2.7549
2.74881
2.75446
2.76161
2.76217
2.76147
2.75853
2.75584
2.75493
2.75256
2.74808
2.74232
2.73606
2.72524
2.71444
2.70546
2.70126
2.7023
2.70951
2.72803
2.75184
2.78229
2.81434
2.84832
2.87986
2.90769
2.93577
2.96069
2.97737
2.98715
3.00213
3.01277
3.01669
3.01286
3.02353
3.02418
3.02631
3.01945
3.02375
3.00686
3.00438
2.9772
2.93998
2.89887
2.85006
2.80332
2.84301
0.998719
0.999497
0.99984
0.998619
0.998171
0.998557
0.998782
0.998665
0.999663
0.9994
0.999236
0.99879
0.997996
0.997078
0.995667
0.994684
0.994037
0.993509
0.992843
0.991752
0.99086
0.989957
0.989463
0.989127
0.988291
0.986718
0.983819
0.98121
0.97996
0.979032
0.978558
0.978465
0.978597
0.977984
0.976293
0.972851
0.970871
0.970075
0.969529
0.969301
0.969165
0.969887
0.968313
0.969873
0.976126
1.58633
2.05554
2.11293
2.12576
2.13432
2.14363
2.15567
2.17976
2.23992
2.37066
2.57166
2.71405
2.77844
2.78836
2.78664
2.79404
2.79158
2.78858
2.79232
2.78726
2.79046
2.79607
2.79726
2.79171
2.78605
2.77201
2.75643
2.74171
2.7305
2.72244
2.72464
2.72236
2.7262
2.72863
2.73163
2.73473
2.73843
2.73979
2.73837
2.73583
2.72938
2.71932
2.71122
2.70964
2.71469
2.72232
2.73875
2.76033
2.78734
2.81472
2.84423
2.87359
2.89942
2.92284
2.94575
2.96362
2.97521
2.98934
3.00145
3.0071
3.00468
3.01562
3.01863
3.0208
3.01171
3.01736
3.00093
2.99966
2.97353
2.93246
2.88903
2.83663
2.79335
2.83197
0.998453
0.999171
1.00153
1.00148
1.00113
0.999958
0.998583
0.997035
0.99706
0.996792
0.996994
0.997152
0.997354
0.997378
0.996737
0.99597
0.995226
0.994639
0.993944
0.992569
0.990859
0.989801
0.989187
0.98885
0.988059
0.986356
0.982632
0.980233
0.978986
0.978059
0.977597
0.977534
0.977734
0.978106
0.977636
0.97636
0.97387
0.970592
0.969203
0.968631
0.96828
0.968111
0.967168
0.967949
0.986088
1.86672
2.1484
2.16695
2.16796
2.17207
2.18956
2.22098
2.2867
2.40695
2.59539
2.75105
2.80838
2.80773
2.82175
2.80949
2.79402
2.79628
2.78894
2.77867
2.77934
2.78108
2.78107
2.78013
2.7775
2.77016
2.76336
2.75154
2.74139
2.72626
2.71361
2.7031
2.69725
2.6947
2.69598
2.70225
2.70956
2.71605
2.72321
2.72869
2.73101
2.72906
2.72645
2.72381
2.72381
2.7297
2.73458
2.74579
2.76427
2.78869
2.81415
2.84036
2.86817
2.89061
2.9107
2.9324
2.95148
2.96398
2.97647
2.98893
2.99598
2.99548
3.00709
3.01164
3.01369
3.00253
3.01044
2.99533
2.99426
2.96867
2.92669
2.87942
2.82521
2.78204
2.8201
0.999278
0.999828
1.00044
0.999769
0.999278
0.99907
0.999115
0.998575
0.998556
0.998352
0.998221
0.997989
0.997471
0.996813
0.995848
0.994994
0.994139
0.993615
0.993267
0.992261
0.990573
0.98952
0.989084
0.989054
0.988574
0.987004
0.983138
0.980059
0.978628
0.977674
0.977005
0.976698
0.97664
0.976802
0.977415
0.977288
0.976311
0.974434
0.970563
0.968204
0.967408
0.966185
0.966269
0.965508
1.03221
2.07539
2.2349
2.23932
2.23354
2.23685
2.26159
2.32184
2.43595
2.61192
2.767
2.82221
2.82722
2.83063
2.80739
2.80124
2.80093
2.78829
2.77556
2.77254
2.76805
2.76307
2.76303
2.76094
2.75856
2.75401
2.75017
2.74499
2.73964
2.72944
2.71397
2.69654
2.68404
2.67657
2.67382
2.67753
2.68104
2.68939
2.70196
2.71294
2.71904
2.72247
2.72476
2.72603
2.72905
2.73991
2.74183
2.75044
2.76725
2.78857
2.81372
2.83696
2.86202
2.88163
2.90022
2.92144
2.93947
2.95199
2.96306
2.97652
2.98451
2.98653
2.99883
3.00415
3.00617
2.99312
3.00318
2.99056
2.98828
2.96315
2.92071
2.8703
2.81248
2.77007
2.80681
0.999121
0.999524
1.00113
1.00117
1.00083
0.999984
0.999153
0.998206
0.997993
0.997698
0.99761
0.997558
0.997109
0.996403
0.995895
0.995359
0.994519
0.993762
0.993217
0.992365
0.990665
0.989266
0.98859
0.98841
0.988102
0.986735
0.983463
0.980144
0.978588
0.977515
0.976755
0.976228
0.976073
0.97612
0.976459
0.977035
0.976857
0.975916
0.973916
0.970517
0.968202
0.967258
0.968284
0.965633
1.07141
2.22259
2.33626
2.33341
2.32609
2.33176
2.36875
2.45932
2.62531
2.77638
2.85956
2.87399
2.85417
2.82984
2.81768
2.79988
2.78338
2.77422
2.76709
2.75968
2.75382
2.75273
2.74966
2.74233
2.73797
2.73597
2.73569
2.73576
2.73198
2.72574
2.71303
2.69892
2.68
2.6685
2.65986
2.65981
2.66179
2.66746
2.67664
2.68885
2.70112
2.71207
2.7196
2.72414
2.72839
2.73814
2.74327
2.75298
2.76891
2.78868
2.81149
2.83284
2.85576
2.87427
2.89115
2.91069
2.92658
2.93792
2.9497
2.96456
2.97292
2.97758
2.99042
2.99599
2.99861
2.98431
2.99574
2.98592
2.98202
2.95708
2.91433
2.86238
2.80135
2.75821
2.79401
0.99944
0.99977
1.00068
1.00048
1.00013
0.99973
0.999412
0.998828
0.998597
0.998296
0.998048
0.997786
0.997155
0.996182
0.995592
0.995152
0.994428
0.993495
0.992799
0.992038
0.99062
0.989004
0.988063
0.987682
0.987541
0.986493
0.983745
0.98054
0.979045
0.977914
0.977004
0.976262
0.975784
0.975682
0.975843
0.976541
0.976969
0.976591
0.975203
0.972812
0.972101
0.972282
0.975158
0.974798
1.08217
2.27155
2.39942
2.40432
2.40113
2.42239
2.4872
2.61024
2.7775
2.88097
2.88638
2.88204
2.87432
2.85666
2.82972
2.80937
2.79232
2.77598
2.76447
2.75701
2.75236
2.74806
2.74024
2.73398
2.72524
2.71757
2.71727
2.71922
2.71822
2.71625
2.7087
2.6978
2.67927
2.66655
2.65084
2.647
2.64367
2.64669
2.65288
2.66375
2.67734
2.69407
2.707
2.71571
2.72397
2.73347
2.7418
2.75371
2.76962
2.7884
2.80876
2.82986
2.85131
2.86898
2.88398
2.89921
2.91234
2.92374
2.93734
2.95321
2.96145
2.96846
2.98166
2.98765
2.99111
2.97681
2.98882
2.97986
2.97519
2.95041
2.90769
2.85432
2.79036
2.74652
2.78107
0.999392
0.999681
1.00081
1.00094
1.00067
1.00008
0.999485
0.998988
0.998581
0.998159
0.99791
0.997663
0.996974
0.996021
0.995463
0.995117
0.994663
0.99367
0.992584
0.991765
0.990696
0.989061
0.987672
0.986847
0.98636
0.985505
0.983487
0.980641
0.979148
0.97812
0.977412
0.976869
0.976285
0.975625
0.975323
0.97526
0.975398
0.975302
0.974661
0.9746
0.974976
0.976009
0.977985
0.980253
1.04639
2.19576
2.41013
2.42878
2.44289
2.49917
2.60844
2.75434
2.90335
2.93398
2.91552
2.89916
2.89508
2.86972
2.84656
2.82847
2.80561
2.78581
2.7724
2.75959
2.75222
2.74536
2.73819
2.73019
2.71576
2.70634
2.70225
2.70065
2.70076
2.70007
2.69702
2.69044
2.67727
2.66459
2.64653
2.63867
2.62747
2.62757
2.62913
2.63708
2.64996
2.66834
2.688
2.70209
2.71534
2.72485
2.73743
2.75111
2.76715
2.7857
2.80486
2.82584
2.84574
2.86307
2.87721
2.88846
2.89944
2.91195
2.92728
2.94227
2.95006
2.9585
2.97253
2.97942
2.98387
2.97067
2.98197
2.97206
2.96767
2.94335
2.90103
2.84732
2.78088
2.73488
2.76922
0.999397
0.999861
1.00074
1.00072
1.00045
1.00008
0.999629
0.999236
0.998859
0.998394
0.998053
0.997707
0.997031
0.996002
0.995367
0.994937
0.994545
0.993583
0.992312
0.991422
0.990564
0.989157
0.987394
0.986054
0.985147
0.984438
0.983127
0.980843
0.979109
0.977914
0.977208
0.977024
0.976571
0.974992
0.973209
0.972703
0.97257
0.972577
0.972623
0.972802
0.973304
0.973433
0.974751
0.982363
1.03834
2.01505
2.30757
2.36628
2.42576
2.54102
2.71888
2.84474
2.92416
2.95064
2.91994
2.91047
2.90803
2.88665
2.86298
2.84211
2.82572
2.81016
2.78767
2.77025
2.75611
2.7427
2.73245
2.72098
2.70773
2.69708
2.68757
2.68207
2.68063
2.67816
2.67837
2.67557
2.66912
2.65907
2.64425
2.63364
2.61687
2.61263
2.60731
2.61281
2.62257
2.63939
2.6608
2.68158
2.69986
2.71376
2.7299
2.74386
2.76025
2.77857
2.79831
2.8193
2.83862
2.8559
2.86911
2.87818
2.88812
2.90247
2.91836
2.93129
2.93792
2.94771
2.96296
2.97102
2.97652
2.96449
2.97481
2.96447
2.95994
2.93632
2.89422
2.83947
2.77022
2.72193
2.75764
0.999396
0.999801
1.00061
1.00073
1.00053
1.00019
0.99971
0.999296
0.999032
0.99854
0.997973
0.997548
0.996997
0.996079
0.995358
0.994874
0.994437
0.993469
0.99205
0.99109
0.99035
0.989391
0.987468
0.98543
0.984119
0.983093
0.982146
0.980754
0.979341
0.977819
0.97686
0.976486
0.975885
0.974371
0.971139
0.969026
0.968218
0.968065
0.967987
0.967421
0.966467
0.965536
0.968661
0.992894
1.235
1.88862
2.03792
2.15326
2.31549
2.53452
2.75715
2.8287
2.86351
2.8893
2.88721
2.88776
2.88645
2.87904
2.8583
2.84345
2.83799
2.82395
2.80192
2.78237
2.76067
2.74019
2.72345
2.70877
2.6978
2.68676
2.67742
2.67042
2.66406
2.65768
2.65661
2.655
2.65366
2.64764
2.63802
2.62559
2.60887
2.60084
2.5886
2.59044
2.59474
2.608
2.62968
2.65426
2.67998
2.70108
2.71985
2.73418
2.75093
2.76963
2.78958
2.81042
2.82966
2.84734
2.85957
2.86825
2.87858
2.89352
2.90905
2.91882
2.92478
2.93689
2.95312
2.96254
2.9683
2.95688
2.96699
2.95724
2.95222
2.92917
2.88713
2.83209
2.76127
2.70977
2.74624
0.999382
0.999784
1.00034
1.00059
1.0004
1.00016
0.999845
0.99937
0.999086
0.998711
0.998071
0.997564
0.997034
0.996258
0.995459
0.994846
0.994322
0.993301
0.991795
0.990797
0.990122
0.989418
0.987932
0.985198
0.983301
0.981855
0.980705
0.979939
0.979536
0.97855
0.976132
0.97435
0.973498
0.972454
0.970458
0.96657
0.963836
0.961986
0.960441
0.959665
0.959509
0.961963
0.97685
1.13229
1.67263
1.8508
1.91843
2.07824
2.40806
2.68909
2.78348
2.79511
2.79724
2.81638
2.82837
2.8309
2.83391
2.83855
2.83243
2.81904
2.81282
2.80734
2.79778
2.78145
2.76048
2.73843
2.71457
2.69493
2.68209
2.6719
2.66467
2.65656
2.64835
2.64251
2.63948
2.63579
2.63545
2.63329
2.62806
2.61869
2.60496
2.59265
2.57598
2.57402
2.57228
2.5821
2.59974
2.62621
2.65513
2.67771
2.70125
2.7205
2.74003
2.75925
2.77932
2.79996
2.8193
2.83693
2.84866
2.85837
2.86948
2.88421
2.89786
2.90498
2.91091
2.92524
2.94236
2.95362
2.95938
2.94936
2.95913
2.95085
2.9446
2.92184
2.8796
2.82431
2.75257
2.69783
2.73517
0.999412
0.999675
1.00014
1.00047
1.00037
1.00018
0.999874
0.999439
0.999055
0.998714
0.998134
0.997466
0.996968
0.996372
0.995602
0.99488
0.99427
0.993184
0.991558
0.990513
0.989849
0.989328
0.988112
0.985368
0.982744
0.981076
0.979781
0.979032
0.978939
0.978515
0.976494
0.971879
0.969247
0.968206
0.96772
0.966531
0.964264
0.960187
0.954234
0.951441
0.951498
0.957964
1.01309
1.57197
1.87235
1.90506
1.95691
2.20082
2.50133
2.62012
2.66484
2.65653
2.66203
2.67603
2.69978
2.71434
2.73463
2.75894
2.77185
2.77869
2.78391
2.78889
2.78801
2.77819
2.76705
2.75059
2.72577
2.69987
2.67735
2.66219
2.65323
2.64445
2.63699
2.63104
2.6244
2.62055
2.6193
2.61757
2.61503
2.60909
2.59873
2.5864
2.56877
2.56197
2.55339
2.56108
2.57253
2.59445
2.62486
2.65165
2.6797
2.70466
2.72735
2.74738
2.76781
2.78828
2.80772
2.82483
2.83704
2.84826
2.85997
2.87381
2.88461
2.8906
2.89821
2.91411
2.93051