/*--------------------------------*- C++ -*----------------------------------*\
| =========                 |                                                 |
| \\      /  F ield         | OpenFOAM: The Open Source CFD Toolbox           |
|  \\    /   O peration     | Version:  2.2.x                                 |
|   \\  /    A nd           | Web:      www.OpenFOAM.org                      |
|    \\/     M anipulation  |                                                 |
\*---------------------------------------------------------------------------*/
FoamFile
{
    version     2.0;
    format      ascii;
    class       surfaceScalarField;
    location    "2.5";
    object      phi;
}
// * * * * * * * * * * * * * * * * * * * * * * * * * * * * * * * * * * * * * //

dimensions      [1 0 -1 0 0 0 0];

internalField   nonuniform List<scalar> 
28084
(
0.00174119
0.00173364
0.00172716
0.00172171
0.00171724
0.0017137
0.00171103
0.00170917
0.00170807
0.00170766
0.00170788
0.00170867
0.00170996
0.00171169
0.0017138
0.00171622
0.0017189
0.00172179
0.00172482
0.00172796
0.00173114
0.00173433
0.00173749
0.00174057
0.00174355
0.00174639
0.00174907
0.00175155
0.00175382
0.00175585
0.00175764
0.00175915
0.00176039
0.00176133
0.00176197
0.00176229
0.00176229
0.00176197
0.00176131
0.00176031
0.00175896
0.00175724
0.00175479
0.00174823
0.00173796
0.00174801
0.0017596
0.00176869
0.00177434
0.00178032
0.00178859
0.00180017
0.00181149
0.00182137
0.00182811
0.00183107
0.00183178
0.00183701
0.00184619
0.00185347
0.00185735
0.00185665
0.00184951
0.00184247
0.00184138
0.0018425
0.00184074
0.00183309
0.00181924
0.0017995
0.00178435
0.00177543
0.00176463
0.00174909
0.00172787
0.00169715
0.00166908
0.00164884
0.00162837
0.00160444
0.0015752
0.00153681
0.00150047
0.00147174
0.00144343
0.00141212
0.00137656
0.00133385
0.00129505
0.00126261
0.0012301
0.00119482
0.00115501
0.00111338
0.00107834
0.00104586
0.0010124
0.00097656
0.000937019
0.000901998
0.000870707
0.000839068
0.000805739
0.000768594
0.000734682
0.000703153
0.000670874
0.000635701
0.000596766
0.000559352
0.000521594
0.000480566
0.000433658
0.000381967
0.000325961
0.000264462
0.000193188
0.000110491
8.66109e-06
7.54863e-06
0.00174939
6.47668e-06
0.00174716
5.44921e-06
0.00174594
4.47006e-06
0.00174568
3.54277e-06
0.00174633
2.67052e-06
0.00174786
1.85605e-06
0.0017502
1.10164e-06
0.0017533
4.09011e-07
0.00175709
-2.20687e-07
0.00176151
-7.86861e-07
0.00176649
-1.2895e-06
0.00177197
-1.72913e-06
0.00177786
-2.10681e-06
0.00178412
-2.42407e-06
0.00179066
-2.68288e-06
0.00179743
-2.88556e-06
0.00180435
-3.03476e-06
0.00181137
-3.13337e-06
0.00181842
-3.18447e-06
0.00182546
-3.19125e-06
0.00183243
-3.15699e-06
0.00183929
-3.08497e-06
0.00184598
-2.97845e-06
0.00185247
-2.84059e-06
0.00185872
-2.67445e-06
0.0018647
-2.48295e-06
0.00187039
-2.26884e-06
0.00187574
-2.03466e-06
0.00188075
-1.78276e-06
0.00188539
-1.5153e-06
0.00188965
-1.23418e-06
0.0018935
-9.41099e-07
0.00189695
-6.37555e-07
0.00189998
-3.24805e-07
0.00190257
-3.92172e-09
0.00190474
3.24239e-07
0.00190646
6.59003e-07
0.00190773
9.99951e-07
0.00190855
1.34781e-06
0.00190892
1.7136e-06
0.00190884
2.30324e-06
0.00190826
6.33188e-06
0.00190634
1.06001e-05
0.00189689
-1.07607e-05
0.00188311
-8.97979e-06
0.0018892
-8.56046e-06
0.00189859
-8.62878e-06
0.00190557
-8.73614e-06
0.00190876
-8.75804e-06
0.00191227
-8.5985e-06
0.00191832
-8.30259e-06
0.0019277
-7.88716e-06
0.00193663
-7.30426e-06
0.00194387
-6.63797e-06
0.00194768
-5.93554e-06
0.00194708
-5.21471e-06
0.00194463
-4.32099e-06
0.00194747
-3.24576e-06
0.00195432
-2.01915e-06
0.00195896
-6.70853e-07
0.00195988
7.51303e-07
0.001956
2.09411e-06
0.00194505
3.43228e-06
0.00193489
4.89021e-06
0.00193146
6.44633e-06
0.00193011
8.13077e-06
0.00192578
9.89525e-06
0.00191522
1.16036e-05
0.00189794
1.32528e-05
0.0018749
1.49441e-05
0.00185719
1.66521e-05
0.00184591
1.8377e-05
0.00183266
2.00891e-05
0.00181448
2.17051e-05
0.00179039
2.32343e-05
0.00175661
2.47767e-05
0.001726
2.63408e-05
0.00170363
2.78339e-05
0.00168092
2.91934e-05
0.00165451
3.03879e-05
0.00162279
3.13843e-05
0.00158157
3.23999e-05
0.00154311
3.34469e-05
0.00151257
3.43985e-05
0.00148235
3.51767e-05
0.00144896
3.57116e-05
0.00141108
3.60529e-05
0.0013661
3.632e-05
0.00132552
3.65386e-05
0.00129151
3.66968e-05
0.00125736
3.67273e-05
0.00122034
3.66009e-05
0.00117853
3.63883e-05
0.00113508
3.60916e-05
0.00109839
3.57148e-05
0.0010643
3.52847e-05
0.00102921
3.48404e-05
0.000991702
3.4434e-05
0.000950447
3.40785e-05
0.000913833
3.37479e-05
0.000880974
3.34972e-05
0.00084775
3.33867e-05
0.00081279
3.34054e-05
0.000773974
3.35456e-05
0.000738553
3.39467e-05
0.000705641
3.47465e-05
0.000671983
3.5993e-05
0.00063543
3.76506e-05
0.000595088
3.96959e-05
0.000556183
4.22248e-05
0.000516921
4.56597e-05
0.000474463
5.0073e-05
0.000426218
5.58558e-05
0.000373082
6.29463e-05
0.000315368
7.26775e-05
0.000251819
8.16346e-05
0.00017828
0.000109991
9.34772e-05
1.19281e-05
9.77838e-06
0.00176035
7.7027e-06
0.00176337
5.71085e-06
0.00176733
3.81222e-06
0.00177219
2.01555e-06
0.00177791
3.28676e-07
0.00178445
-1.24153e-06
0.00179175
-2.68939e-06
0.00179974
-4.01043e-06
0.00180837
-5.20151e-06
0.00181756
-6.26081e-06
0.00182725
-7.1878e-06
0.00183736
-7.98325e-06
0.00184782
-8.6491e-06
0.00185855
-9.1884e-06
0.00186948
-9.60519e-06
0.00188053
-9.90436e-06
0.00189165
-1.00915e-05
0.00190276
-1.01728e-05
0.00191379
-1.01549e-05
0.0019247
-1.00447e-05
0.00193541
-9.84932e-06
0.00194589
-9.57582e-06
0.00195608
-9.2313e-06
0.00196594
-8.82267e-06
0.00197543
-8.35657e-06
0.00198452
-7.83937e-06
0.00199318
-7.27704e-06
0.00200138
-6.67513e-06
0.00200909
-6.03876e-06
0.00201631
-5.37258e-06
0.00202301
-4.68076e-06
0.00202919
-3.96698e-06
0.00203482
-3.23445e-06
0.00203991
-2.4859e-06
0.00204444
-1.72362e-06
0.00204842
-9.49447e-07
0.00205184
-1.64798e-07
0.00205469
6.2951e-07
0.00205698
1.43598e-06
0.0020587
2.27339e-06
0.00205986
4.06051e-06
0.00206045
1.55236e-05
0.00205926
2.47473e-05
0.0020496
-1.75989e-05
0.00203473
-1.54224e-05
0.00203792
-1.50737e-05
0.00204484
-1.52097e-05
0.00204906
-1.52499e-05
0.00204934
-1.50997e-05
0.00205017
-1.46629e-05
0.00205397
-1.39748e-05
0.0020611
-1.30702e-05
0.00206752
-1.19345e-05
0.00207198
-1.05271e-05
0.00207278
-9.06733e-06
0.00206864
-7.48326e-06
0.00206326
-5.60189e-06
0.00206392
-3.44335e-06
0.00206851
-1.0685e-06
0.00207052
1.53065e-06
0.00206843
4.29775e-06
0.00206139
7.00318e-06
0.00204678
9.77032e-06
0.00203371
1.27625e-05
0.00202814
1.58957e-05
0.00202429
1.91788e-05
0.00201739
2.26099e-05
0.0020038
2.59636e-05
0.00198301
2.92394e-05
0.00195682
3.26234e-05
0.00193672
3.60553e-05
0.00192309
3.94597e-05
0.00190732
4.28318e-05
0.00188634
4.60452e-05
0.00185916
4.90415e-05
0.00182231
5.20703e-05
0.00178933
5.51196e-05
0.0017648
5.80259e-05
0.00173974
6.07084e-05
0.00171065
6.30618e-05
0.00167622
6.50816e-05
0.00163213
6.70666e-05
0.00159146
6.90415e-05
0.00155901
7.08146e-05
0.00152671
7.2281e-05
0.00149101
7.3272e-05
0.0014505
7.39491e-05
0.00140306
7.45311e-05
0.00136063
7.50071e-05
0.00132487
7.52515e-05
0.00128882
7.52231e-05
0.00124979
7.48668e-05
0.0012057
7.43527e-05
0.00116034
7.37731e-05
0.00112194
7.30602e-05
0.00108598
7.22254e-05
0.00104904
7.13432e-05
0.00100947
7.053e-05
0.000966252
6.98103e-05
0.000927866
6.912e-05
0.000893134
6.85849e-05
0.000858045
6.83007e-05
0.000821107
6.83344e-05
0.000780325
6.8653e-05
0.000742957
6.93789e-05
0.000708098
7.08233e-05
0.000672504
7.3217e-05
0.000634054
7.65174e-05
0.000591893
8.074e-05
0.000551169
8.60438e-05
0.000510098
9.30909e-05
0.00046588
0.000101944
0.000416243
0.000113593
0.000362547
0.000127598
0.000304843
0.000146988
0.000241618
0.000165361
0.000168999
0.000203425
8.6108e-05
9.87125e-06
6.75719e-06
0.00177405
3.74382e-06
0.00178225
8.48654e-07
0.00179132
-1.91163e-06
0.00180123
-4.52152e-06
0.00181195
-6.96697e-06
0.00182343
-9.23574e-06
0.00183562
-1.13175e-05
0.00184844
-1.32041e-05
0.00186184
-1.48895e-05
0.00187575
-1.63702e-05
0.00189008
-1.76445e-05
0.00190477
-1.87131e-05
0.00191973
-1.95789e-05
0.00193488
-2.02462e-05
0.00195014
-2.07213e-05
0.00196544
-2.1012e-05
0.00198069
-2.11271e-05
0.00199584
-2.10764e-05
0.00201081
-2.08707e-05
0.00202552
-2.05211e-05
0.00203994
-2.00389e-05
0.00205399
-1.94358e-05
0.00206764
-1.87232e-05
0.00208082
-1.79122e-05
0.00209351
-1.70137e-05
0.00210567
-1.60379e-05
0.00211726
-1.49946e-05
0.00212827
-1.38928e-05
0.00213866
-1.27407e-05
0.00214842
-1.15459e-05
0.00215754
-1.03151e-05
0.002166
-9.05429e-06
0.00217379
-7.76862e-06
0.00218091
-6.46247e-06
0.00218736
-5.13952e-06
0.00219313
-3.80269e-06
0.00219822
-2.45423e-06
0.00220263
-1.09544e-06
0.00220637
2.77348e-07
0.00220943
1.67304e-06
0.00221182
5.06215e-06
0.00221356
2.48945e-05
0.00221386
4.0023e-05
0.00220796
-2.1528e-05
0.00219575
-1.91098e-05
0.00219789
-1.90033e-05
0.00220272
-1.92774e-05
0.0022038
-1.92291e-05
0.00220061
-1.88566e-05
0.00219832
-1.80947e-05
0.00219969
-1.69917e-05
0.00220447
-1.55662e-05
0.00220826
-1.38395e-05
0.00220979
-1.16947e-05
0.00220771
-9.40197e-06
0.00219998
-6.8878e-06
0.00219191
-3.97341e-06
0.0021907
-7.75678e-07
0.00219306
2.73427e-06
0.00219269
6.54393e-06
0.00218748
1.06092e-05
0.00217722
1.46879e-05
0.00215934
1.89456e-05
0.00214367
2.35218e-05
0.00213635
2.82358e-05
0.00212989
3.31096e-05
0.00212034
3.81716e-05
0.00210361
4.30931e-05
0.00207902
4.79524e-05
0.00205002
5.30295e-05
0.0020281
5.81945e-05
0.00201226
6.32952e-05
0.00199394
6.83107e-05
0.00196988
7.3069e-05
0.00193927
7.74721e-05
0.00189935
8.19197e-05
0.00186442
8.64132e-05
0.00183791
9.0707e-05
0.00181046
9.47061e-05
0.00177853
9.82034e-05
0.001741
0.000101184
0.001694
0.000104094
0.00165122
0.000106936
0.00161683
0.000109451
0.00158226
0.00011153
0.00154395
0.000112947
0.0015005
0.000113929
0.00145048
0.000114843
0.00140624
0.00011556
0.00136843
0.000115855
0.00133009
0.000115676
0.0012887
0.000114942
0.00124194
0.000114119
0.00119443
0.000113298
0.00115398
0.000112285
0.00111574
0.000111121
0.00107641
0.00010979
0.00103425
0.000108524
0.000988627
0.00010743
0.000947993
0.00010637
0.000910914
0.000105526
0.000873485
0.000105084
0.000834161
0.000105211
0.000791135
0.000105783
0.000751616
0.000106904
0.000714435
0.000108942
0.000676552
0.000112288
0.000635796
0.000117035
0.000591605
0.000123327
0.000548971
0.000131275
0.000505985
0.000141829
0.000459863
0.00015479
0.000408583
0.000171575
0.000353981
0.000191659
0.000296085
0.000219546
0.000233288
0.000247096
0.000161927
0.000290234
8.15173e-05
2.56937e-06
-1.43874e-06
0.00179051
-5.32607e-06
0.0018038
-9.06565e-06
0.0018179
-1.26318e-05
0.00183278
-1.60005e-05
0.00184842
-1.91502e-05
0.00186477
-2.2062e-05
0.00188176
-2.47196e-05
0.00189935
-2.71103e-05
0.00191745
-2.92245e-05
0.001936
-3.1056e-05
0.00195492
-3.26019e-05
0.00197411
-3.38625e-05
0.00199351
-3.48411e-05
0.00201301
-3.55437e-05
0.00203254
-3.59789e-05
0.00205202
-3.61575e-05
0.00207136
-3.60918e-05
0.00209048
-3.5796e-05
0.00210932
-3.52851e-05
0.0021278
-3.4575e-05
0.00214586
-3.3682e-05
0.00216344
-3.26226e-05
0.00218049
-3.14132e-05
0.00219695
-3.00698e-05
0.0022128
-2.8608e-05
0.00222798
-2.70424e-05
0.00224247
-2.53869e-05
0.00225623
-2.36545e-05
0.00226926
-2.18571e-05
0.00228153
-2.00053e-05
0.00229303
-1.81089e-05
0.00230374
-1.61762e-05
0.00231366
-1.42148e-05
0.00232278
-1.22307e-05
0.00233111
-1.02293e-05
0.00233865
-8.21463e-06
0.00234539
-6.18985e-06
0.00235133
-4.15698e-06
0.00235649
-2.11373e-06
0.00236087
-8.12646e-08
0.00236447
4.56992e-06
0.00236733
3.04452e-05
0.00236895
5.26531e-05
0.00236514
-2.43678e-05
0.00235482
-2.04234e-05
0.00235566
-2.0057e-05
0.00235904
-2.02958e-05
0.00235776
-2.02007e-05
0.00235198
-1.97011e-05
0.00234746
-1.86971e-05
0.00234723
-1.72631e-05
0.00235039
-1.53739e-05
0.00235224
-1.30052e-05
0.00235145
-1.01849e-05
0.00234698
-7.07598e-06
0.00233571
-3.64838e-06
0.00232509
2.92963e-07
0.00232234
4.5574e-06
0.00232272
9.25011e-06
0.00232028
1.43127e-05
0.00231214
1.96662e-05
0.00229848
2.50701e-05
0.00227705
3.08246e-05
0.00225923
3.69976e-05
0.0022506
4.33262e-05
0.00224195
4.98627e-05
0.00222992
5.64987e-05
0.00221012
6.29188e-05
0.00218127
6.93816e-05
0.00214973
7.6113e-05
0.00212657
8.30051e-05
0.002109
8.98421e-05
0.00208838
9.64991e-05
0.00206127
0.000102724
0.00202682
0.000108532
0.00198391
0.00011439
0.00194761
0.000120303
0.00191948
0.000125971
0.00188988
0.000131217
0.00185522
0.000135812
0.00181437
0.000139773
0.00176439
0.000143602
0.00172004
0.000147316
0.00168393
0.000150557
0.00164708
0.000153136
0.00160603
0.000154942
0.00155951
0.000156212
0.00150698
0.000157428
0.0014612
0.00015837
0.00142122
0.000158738
0.00138032
0.000158405
0.00133626
0.000157338
0.00128647
0.000156262
0.00123651
0.00015523
0.0011937
0.000153945
0.00115287
0.000152406
0.00111069
0.000150611
0.00106552
0.000148885
0.00101726
0.000147381
0.000974115
0.000145974
0.000934217
0.000144784
0.000894005
0.000144118
0.000851932
0.000144245
0.000806598
0.000145049
0.000764819
0.00014667
0.000725101
0.000149398
0.000684655
0.000153644
0.000641348
0.000159719
0.000595073
0.000167881
0.000550715
0.000178224
0.000505934
0.000191918
0.000457972
0.000208631
0.000405143
0.000230064
0.000349521
0.000255404
0.000291348
0.000290364
0.000228836
0.000326367
0.000158265
0.000372686
7.94181e-05
-9.88994e-06
-1.47245e-05
0.00180973
-1.94246e-05
0.00182801
-2.3952e-05
0.00184705
-2.82702e-05
0.00186682
-3.23454e-05
0.00188729
-3.61469e-05
0.00190842
-3.96477e-05
0.00193014
-4.28248e-05
0.00195241
-4.56597e-05
0.00197514
-4.81385e-05
0.00199825
-5.02519e-05
0.00202167
-5.19951e-05
0.0020453
-5.33677e-05
0.00206906
-5.43735e-05
0.00209285
-5.50202e-05
0.00211658
-5.53186e-05
0.00214017
-5.52829e-05
0.00216352
-5.49294e-05
0.00218656
-5.42767e-05
0.00220921
-5.33447e-05
0.00223139
-5.21548e-05
0.00225303
-5.07285e-05
0.00227408
-4.90879e-05
0.00229448
-4.72549e-05
0.00231417
-4.52509e-05
0.00233311
-4.30966e-05
0.00235126
-4.08116e-05
0.00236859
-3.84147e-05
0.00238508
-3.59229e-05
0.0024007
-3.33522e-05
0.00241543
-3.0717e-05
0.00242927
-2.80299e-05
0.00244219
-2.53025e-05
0.00245421
-2.25444e-05
0.0024653
-1.97639e-05
0.00247548
-1.69679e-05
0.00248475
-1.41618e-05
0.00249311
-1.13498e-05
0.00250057
-8.53474e-06
0.00250713
-5.71621e-06
0.0025128
-2.94551e-06
0.00251759
2.74978e-06
0.00252154
3.38388e-05
0.00252399
6.3398e-05
0.00252007
-2.57456e-05
0.00250924
-1.99277e-05
0.00250781
-1.91328e-05
0.00250863
-1.92928e-05
0.00250364
-1.9078e-05
0.00249418
-1.84153e-05
0.00248669
-1.71489e-05
0.00248442
-1.53438e-05
0.0024848
-1.29411e-05
0.00248352
-9.9339e-06
0.00247863
-6.28629e-06
0.00247
-2.34834e-06
0.0024539
2.00275e-06
0.00244046
7.00276e-06
0.00243559
1.23782e-05
0.0024324
1.828e-05
0.00242639
2.46292e-05
0.00241388
3.13743e-05
0.00239548
3.81501e-05
0.00237049
4.53337e-05
0.0023509
5.30321e-05
0.00234041
6.09216e-05
0.00232893
6.90751e-05
0.00231319
7.7347e-05
0.00228986
8.53784e-05
0.00225638
9.33984e-05
0.00222251
0.000101775
0.00219829
0.000110348
0.00217874
0.000118836
0.00215563
0.000127099
0.00212543
0.000134813
0.00208682
0.000142095
0.00204117
0.000149378
0.00200391
0.000156679
0.00197467
0.000163649
0.00194333
0.000170047
0.00190619
0.000175721
0.00186211
0.000180745
0.0018097
0.000185538
0.00176459
0.000190099
0.00172771
0.000194089
0.0016897
0.000197141
0.00164706
0.00019927
0.00159805
0.000200914
0.00154403
0.000202343
0.00149804
0.000203504
0.00145768
0.000203974
0.00141599
0.000203592
0.00137092
0.000202503
0.00131943
0.000201341
0.00126905
0.000199983
0.00122606
0.000198363
0.00118466
0.00019635
0.00114143
0.000194066
0.00109451
0.000191972
0.00104508
0.000190106
0.00100123
0.000188307
0.000959823
0.000186746
0.000917841
0.000185699
0.00087338
0.00018568
0.000825955
0.000186624
0.000781877
0.00018866
0.000739502
0.000192144
0.000696188
0.00019737
0.000650006
0.000204684
0.000601464
0.000214436
0.000555215
0.000226807
0.000508591
0.000243263
0.000458869
0.000263354
0.000404578
0.000289085
0.000347973
0.000319251
0.00028938
0.000360322
0.000226895
0.00040413
0.000156747
0.000452683
7.86426e-05
-2.74098e-05
-3.30063e-05
0.00183173
-3.84606e-05
0.00185491
-4.37216e-05
0.00187878
-4.87404e-05
0.00190333
-5.34718e-05
0.00192854
-5.78744e-05
0.00195435
-6.19121e-05
0.00198072
-6.55539e-05
0.00200758
-6.87748e-05
0.00203484
-7.15556e-05
0.00206244
-7.38833e-05
0.00209027
-7.57509e-05
0.00211826
-7.71572e-05
0.00214629
-7.81063e-05
0.00217429
-7.86072e-05
0.00220214
-7.86736e-05
0.00222976
-7.83231e-05
0.00225706
-7.75763e-05
0.00228394
-7.64567e-05
0.00231033
-7.49898e-05
0.00233614
-7.32024e-05
0.0023613
-7.11222e-05
0.00238575
-6.87774e-05
0.00240943
-6.61959e-05
0.00243229
-6.3405e-05
0.00245427
-6.04311e-05
0.00247534
-5.72994e-05
0.00249547
-5.40336e-05
0.00251462
-5.06558e-05
0.00253278
-4.7186e-05
0.00254993
-4.36428e-05
0.00256606
-4.00423e-05
0.00258116
-3.6399e-05
0.00259522
-3.27253e-05
0.00260825
-2.90318e-05
0.00262025
-2.5327e-05
0.00263121
-2.1618e-05
0.00264116
-1.79098e-05
0.0026501
-1.42061e-05
0.00265803
-1.0508e-05
0.00266497
-6.8994e-06
0.00267093
9.53416e-08
0.00267595
3.72357e-05
0.00267912
7.46596e-05
0.00267393
-2.45388e-05
0.00266097
-1.64007e-05
0.00265574
-1.53314e-05
0.00265367
-1.54012e-05
0.00264496
-1.491e-05
0.00263211
-1.39334e-05
0.00262204
-1.22697e-05
0.00261803
-9.99957e-06
0.00261602
-7.00062e-06
0.00261233
-3.27742e-06
0.00260432
1.14731e-06
0.00259229
5.98426e-06
0.00257309
1.13487e-05
0.00255795
1.73156e-05
0.00255185
2.37216e-05
0.00254609
3.07885e-05
0.00253735
3.84006e-05
0.00252136
4.62934e-05
0.00249865
5.44364e-05
0.00247065
6.30765e-05
0.00244949
7.21704e-05
0.00243689
8.154e-05
0.00242235
9.119e-05
0.00240265
0.000100983
0.00237578
0.000110562
0.00233748
0.000120217
0.00230123
0.000130257
0.0022754
0.000140335
0.00225274
0.000150301
0.00222654
0.000159981
0.00219267
0.000169026
0.00214932
0.000177823
0.00210082
0.000186635
0.00206196
0.00019532
0.00203021
0.000203453
0.00199597
0.000210829
0.0019556
0.000217202
0.00190731
0.000223229
0.0018524
0.000229084
0.00180607
0.000234473
0.00176714
0.000239043
0.00172667
0.000242546
0.00168147
0.000244764
0.00162896
0.000246663
0.00157347
0.000248344
0.00152721
0.000249602
0.00148549
0.000249992
0.00144197
0.000249438
0.0013953
0.000248033
0.00134147
0.000246766
0.00129084
0.000245468
0.00124796
0.000243768
0.00120622
0.000241532
0.00116221
0.000238793
0.00111402
0.000236237
0.00106431
0.000234114
0.00102063
0.000232269
0.000979035
0.000230771
0.000936195
0.000229821
0.000890223
0.000229888
0.000841925
0.00023095
0.000797546
0.000233258
0.000754481
0.000237293
0.000709791
0.000243329
0.000661294
0.000251836
0.000610213
0.000262979
0.00056143
0.000276993
0.00051257
0.000295865
0.000460905
0.000318881
0.000404965
0.000348583
0.000347151
0.00038334
0.000287764
0.000430075
0.000224927
0.000481096
0.000154862
0.000531625
7.73008e-05
-4.98839e-05
-5.61806e-05
0.00185652
-6.23335e-05
0.00188448
-6.82765e-05
0.00191308
-7.39469e-05
0.00194231
-7.92862e-05
0.00197215
-8.42414e-05
0.00200255
-8.87658e-05
0.00203345
-9.28193e-05
0.0020648
-9.63695e-05
0.0020965
-9.93914e-05
0.00212848
-0.000101868
0.00216065
-0.000103789
0.00219289
-0.000105152
0.00222512
-0.000105962
0.00225723
-0.000106229
0.00228913
-0.00010597
0.0023207
-0.000105206
0.00235185
-0.000103962
0.0023825
-0.000102267
0.00241254
-0.000100153
0.00244191
-9.76531e-05
0.00247052
-9.48006e-05
0.0024983
-9.16307e-05
0.00252519
-8.81779e-05
0.00255114
-8.4476e-05
0.0025761
-8.05577e-05
0.00260003
-7.64541e-05
0.00262289
-7.21944e-05
0.00264465
-6.7806e-05
0.0026653
-6.33138e-05
0.00268481
-5.87403e-05
0.00270319
-5.41058e-05
0.00272041
-4.94279e-05
0.00273648
-4.47221e-05
0.0027514
-4.00011e-05
0.00276517
-3.52757e-05
0.00277781
-3.05542e-05
0.00278931
-2.5843e-05
0.00279969
-2.11463e-05
0.00280897
-1.64664e-05
0.00281715
-1.19226e-05
0.00282426
-3.28013e-06
0.00283034
4.18021e-05
0.00283457
8.80151e-05
0.00283118
-1.91665e-05
0.00281828
-9.63607e-06
0.00281109
-8.63544e-06
0.00280648
-8.67362e-06
0.00279429
-8.10558e-06
0.00277844
-6.80671e-06
0.0027662
-4.77983e-06
0.00276046
-2.06371e-06
0.00275588
1.48281e-06
0.00274957
5.91295e-06
0.00273836
1.11621e-05
0.00272264
1.67904e-05
0.00270069
2.31528e-05
0.00268431
3.01796e-05
0.00267682
3.77388e-05
0.00266866
4.60355e-05
0.00265693
5.5035e-05
0.00263765
6.42965e-05
0.00261079
7.379e-05
0.00258043
8.3935e-05
0.00255829
9.44394e-05
0.00254371
0.000105269
0.00252638
0.000116446
0.00250297
0.000127766
0.0024725
0.00013889
0.00243023
0.00015027
0.00239189
0.000161938
0.00236448
0.000173521
0.00233848
0.00018493
0.00230894
0.00019603
0.00227133
0.000206296
0.00222323
0.000216464
0.00217258
0.000226778
0.00213228
0.000236774
0.0020974
0.000246057
0.00205952
0.000254496
0.0020155
0.00026159
0.00196262
0.000268236
0.00190536
0.000274876
0.0018577
0.000281047
0.00181588
0.000286216
0.00177197
0.000289896
0.00172327
0.000292147
0.00166644
0.000294172
0.00160886
0.000296018
0.00156116
0.000297191
0.00151659
0.000297361
0.00146997
0.000296307
0.00142
0.000294539
0.00136294
0.000293057
0.00131111
0.00029156
0.00126688
0.000289584
0.00122311
0.000287073
0.00117704
0.000283765
0.00112593
0.000280971
0.00107572
0.000278716
0.00103242
0.000276899
0.000990735
0.000275562
0.000947176
0.000274657
0.00089973
0.000274807
0.000850985
0.000276265
0.000806897
0.000279312
0.000763879
0.000284394
0.00071871
0.000291888
0.000669366
0.000301512
0.000617985
0.000313794
0.000568177
0.00032917
0.00051782
0.00035011
0.000463862
0.000375579
0.000405851
0.000408688
0.000346702
0.000447859
0.000286439
0.000499854
0.000222731
0.000557665
0.000152415
0.000609153
7.60311e-05
-7.71956e-05
-8.41346e-05
0.00188413
-9.09334e-05
0.00191674
-9.75096e-05
0.00194995
-0.000103785
0.00198374
-0.000109686
0.0020181
-0.000115148
0.00205297
-0.00012011
0.00208831
-0.000124525
0.00212404
-0.000128349
0.00216007
-0.000131553
0.00219634
-0.000134114
0.00223272
-0.000136019
0.00226913
-0.000137264
0.00230545
-0.000137854
0.00234159
-0.000137801
0.00237742
-0.000137125
0.00241285
-0.00013585
0.00244777
-0.000134008
0.00248209
-0.000131633
0.00251571
-0.000128762
0.00254855
-0.000125435
0.00258052
-0.000121694
0.00261156
-0.000117581
0.00264159
-0.000113136
0.00267056
-0.000108402
0.00269843
-0.000103417
0.00272514
-9.82185e-05
0.00275066
-9.28425e-05
0.00277498
-8.73216e-05
0.00279805
-8.16859e-05
0.00281987
-7.59627e-05
0.00284044
-7.01761e-05
0.00285973
-6.43475e-05
0.00287776
-5.84954e-05
0.00289453
-5.26351e-05
0.00291003
-4.67794e-05
0.00292429
-4.09385e-05
0.00293731
-3.51197e-05
0.00294911
-2.93282e-05
0.0029597
-2.35683e-05
0.00296909
-1.80101e-05
0.00297731
-7.6948e-06
0.00298442
4.44859e-05
0.00298995
0.000101258
0.00299046
-1.13635e-05
0.00298019
-2.1994e-07
0.0029729
7.30761e-07
0.00296697
7.24281e-07
0.00295191
1.3664e-06
0.00293352
2.92625e-06
0.00291973
5.29688e-06
0.00291259
8.4152e-06
0.00290582
1.25004e-05
0.00289687
1.76302e-05
0.00288254
2.3687e-05
0.00286253
3.01735e-05
0.00283757
3.75471e-05
0.00282027
4.5605e-05
0.00281157
5.42905e-05
0.00280093
6.38448e-05
0.00278595
7.42034e-05
0.00276338
8.48565e-05
0.00273188
9.5901e-05
0.00269928
0.000107543
0.00267643
0.000119528
0.00266022
0.000131868
0.00264039
0.000144555
0.00261354
0.000157538
0.00257918
0.000170219
0.00253341
0.000183299
0.00249381
0.000196682
0.00246545
0.000209886
0.00243674
0.000222721
0.00240406
0.000235243
0.00236335
0.000246779
0.00231076
0.000258291
0.00225816
0.00027
0.00221703
0.000281255
0.00217938
0.00029179
0.00213842
0.000301217
0.00209063
0.000309098
0.00203319
0.000316349
0.00197342
0.000323742
0.0019246
0.000330529
0.00187971
0.000336241
0.00183218
0.000340042
0.00177956
0.000342375
0.00171797
0.000344553
0.00165723
0.000346421
0.00160658
0.00034742
0.00155795
0.000347242
0.00150672
0.000345744
0.00145134
0.000343645
0.00139023
0.000341687
0.00133618
0.000339567
0.00128916
0.000336844
0.00124192
0.000333666
0.0011929
0.000329797
0.00113807
0.000326643
0.00108643
0.0003242
0.00104207
0.000322093
0.00099879
0.000320541
0.000953541
0.000319472
0.000903773
0.000320035
0.000854587
0.000322039
0.000810603
0.000325852
0.00076735
0.000331973
0.000721585
0.000340677
0.000671515
0.000351892
0.00062026
0.00036615
0.000570594
0.000383816
0.000520264
0.000406576
0.000465978
0.000433694
0.000407055
0.000469441
0.000346558
0.000512922
0.000285299
0.000569837
0.000220257
0.000633419
0.000149066
0.000685508
7.41972e-05
-0.000109218
-0.000116745
0.00191458
-0.00012414
0.00195171
-0.000131304
0.0019894
-0.00013814
0.00202763
-0.00014456
0.00206637
-0.000150483
0.0021056
-0.000155838
0.00214525
-0.000160564
0.00218524
-0.000164611
0.0022255
-0.000167939
0.00226593
-0.000170522
0.00230643
-0.000172343
0.00234689
-0.000173396
0.0023872
-0.000173688
0.00242725
-0.000173231
0.00246692
-0.000172048
0.00250611
-0.000170169
0.0025447
-0.000167629
0.0025826
-0.000164469
0.0026197
-0.000160733
0.00265592
-0.00015647
0.00269116
-0.000151727
0.00272536
-0.000146554
0.00275845
-0.000141
0.00279037
-0.000135114
0.00282106
-0.000128943
0.00285048
-0.00012253
0.0028786
-0.000115918
0.00290539
-0.000109146
0.00293083
-0.000102248
0.0029549
-9.52584e-05
0.00297759
-8.82046e-05
0.00299891
-8.11119e-05
0.00301884
-7.40021e-05
0.0030374
-6.68934e-05
0.00305459
-5.98007e-05
0.00307043
-5.27358e-05
0.00308493
-4.57076e-05
0.0030981
-3.8722e-05
0.00310997
-3.17856e-05
0.00312054
-2.51221e-05
0.00312984
-1.33896e-05
0.00313794
4.32102e-05
0.00314429
0.000111813
0.00314428
-2.99635e-06
0.00313416
1.04543e-05
0.00312504
1.19012e-05
0.00311626
1.21982e-05
0.00309788
1.32227e-05
0.0030768
1.51066e-05
0.00306082
1.78193e-05
0.00305103
2.13746e-05
0.003041
2.60627e-05
0.00302858
3.18305e-05
0.00301088
3.8628e-05
0.00298687
4.63021e-05
0.0029598
5.48214e-05
0.00294042
6.38042e-05
0.00292848
7.35169e-05
0.00291434
8.41631e-05
0.0028955
9.57241e-05
0.00286983
0.000107808
0.00283488
0.000120584
0.00280027
0.000133898
0.00277495
0.000147406
0.00275488
0.000161162
0.00273121
0.000175238
0.00270056
0.000189547
0.00266256
0.000204075
0.00261488
0.000218976
0.00257356
0.000234064
0.00254259
0.000248879
0.00251056
0.000263251
0.00247383
0.000276967
0.00242992
0.000289951
0.00237408
0.000302955
0.00232053
0.00031609
0.00227821
0.000328719
0.00223783
0.000340415
0.00219405
0.0003507
0.00214346
0.000359408
0.00208227
0.000367724
0.00202177
0.000376005
0.00197244
0.000383507
0.00192588
0.000389586
0.0018763
0.000393692
0.00182168
0.000396433
0.00175701
0.000398951
0.00169609
0.000400859
0.0016452
0.000401767
0.00159558
0.000401213
0.00154291
0.000399078
0.00148521
0.0003965
0.00142193
0.000393843
0.00136648
0.000390627
0.00131694
0.000386757
0.00126644
0.000382394
0.0012139
0.000378172
0.00115528
0.000374522
0.00110137
0.000371461
0.00105465
0.000368554
0.00100866
0.000366246
0.000960995
0.000365061
0.000908687
0.000365957
0.000858507
0.000368479
0.000813384
0.000372838
0.000768667
0.000379683
0.000721579
0.000389359
0.000670413
0.000402169
0.000619493
0.000418634
0.000569916
0.000438765
0.000519334
0.00046416
0.000464607
0.000493515
0.000405829
0.000531151
0.000345008
0.00057882
0.000283107
0.000640282
0.000216745
0.000707774
0.000145201
0.000760424
7.1892e-05
-0.000145815
-0.000153878
0.0019479
-0.000161824
0.00198942
-0.000169532
0.00203144
-0.000176888
0.00207396
-0.000183786
0.00211697
-0.000190129
0.00216041
-0.000195832
0.00220424
-0.000200823
0.00224837
-0.00020504
0.00229273
-0.000208438
0.0023372
-0.000210982
0.00238169
-0.000212654
0.00242609
-0.000213445
0.00247027
-0.000213362
0.00251412
-0.000212419
0.00255752
-0.000210642
0.00260036
-0.000208065
0.00264251
-0.00020473
0.00268388
-0.000200684
0.00272436
-0.00019598
0.00276386
-0.000190671
0.00280228
-0.000184815
0.00283956
-0.000178469
0.00287561
-0.000171692
0.00291038
-0.000164538
0.00294382
-0.000157064
0.00297587
-0.00014932
0.00300651
-0.000141355
0.0030357
-0.000133215
0.00306343
-0.000124942
0.00308968
-0.000116571
0.00311444
-0.000108138
0.00313771
-9.96711e-05
0.00315949
-9.11953e-05
0.00317979
-8.2732e-05
0.00319862
-7.42985e-05
0.00321599
-6.59083e-05
0.00323192
-5.75715e-05
0.00324643
-4.92948e-05
0.00325953
-4.10862e-05
0.00327125
-3.32191e-05
0.00328163
-1.98698e-05
0.00329089
4.24531e-05
0.00329835
0.000122126
0.0033023
7.50888e-06
0.00329198
2.37651e-05
0.00328052
2.58731e-05
0.00326818
2.66489e-05
0.00324693
2.79516e-05
0.00322437
3.02384e-05
0.00320763
3.34379e-05
0.00319562
3.74589e-05
0.00318276
4.26476e-05
0.00316739
4.91141e-05
0.00314737
5.67145e-05
0.00312029
6.52979e-05
0.0030921
7.49632e-05
0.00307179
8.51606e-05
0.00305675
9.60527e-05
0.00303875
0.000107814
0.00301588
0.000120479
0.00298679
0.000133991
0.00294926
0.000148309
0.00291287
0.000163245
0.0028858
0.000178323
0.00286163
0.000193648
0.0028339
0.00020913
0.00279855
0.000224842
0.00275559
0.000241062
0.00270643
0.000257547
0.00266383
0.000274107
0.00262983
0.00029043
0.00259398
0.000306318
0.00255241
0.000321377
0.00250408
0.000335909
0.00244504
0.000350366
0.00239002
0.000364622
0.00234557
0.000378248
0.00230148
0.000390853
0.00225361
0.000402107
0.00219967
0.000411945
0.00213447
0.000421318
0.00207249
0.000430196
0.00202134
0.000438098
0.00197165
0.000444344
0.00191878
0.000448572
0.00186108
0.000451716
0.0017938
0.000454524
0.00173159
0.000456611
0.00167893
0.000457492
0.0016271
0.000456699
0.00157221
0.000454249
0.00151208
0.000451539
0.00144789
0.000448548
0.00139203
0.000444718
0.00134117
0.000439974
0.0012893
0.000434384
0.00123491
0.000429402
0.00117473
0.000425076
0.00111899
0.000420969
0.00106936
0.000417069
0.00102026
0.000413992
0.000969897
0.000412681
0.000915304
0.000413619
0.000863963
0.00041616
0.000816888
0.000420656
0.000769846
0.000427841
0.000720661
0.000438546
0.000668086
0.000452854
0.000617046
0.000471282
0.000567218
0.000493611
0.000515652
0.000521561
0.000459922
0.000553797
0.000401196
0.000594104
0.000340747
0.000645722
0.000279006
0.00071065
0.000212193
0.000780556
0.000141197
0.000833142
6.96228e-05
-0.000186837
-0.00019539
0.00198413
-0.000203844
0.00202987
-0.000212057
0.00207607
-0.000219894
0.00212275
-0.000227231
0.00216987
-0.000233956
0.00221739
-0.000239966