/*--------------------------------*- C++ -*----------------------------------*\
| =========                 |                                                 |
| \\      /  F ield         | OpenFOAM: The Open Source CFD Toolbox           |
|  \\    /   O peration     | Version:  2.2.x                                 |
|   \\  /    A nd           | Web:      www.OpenFOAM.org                      |
|    \\/     M anipulation  |                                                 |
\*---------------------------------------------------------------------------*/
FoamFile
{
    version     2.0;
    format      ascii;
    class       volScalarField;
    location    "2.3";
    object      Bx;
}
// * * * * * * * * * * * * * * * * * * * * * * * * * * * * * * * * * * * * * //

dimensions      [1 0 -2 0 0 -1 0];

internalField   nonuniform List<scalar> 
14161
(
0.951904
0.954607
0.977907
1.01605
1.03592
1.01295
0.974957
0.9242
0.900752
0.90312
0.926246
0.954266
0.984175
0.99596
0.985757
0.962429
0.922926
0.906514
0.915626
0.929112
0.95166
0.984233
1.00348
1.00107
0.993834
0.983748
0.976068
0.980057
1.00788
1.07401
1.21093
1.40706
1.50478
1.5191
1.52869
1.53469
1.53675
1.54252
1.54794
1.55011
1.54869
1.54071
1.52727
1.50984
1.49186
1.47452
1.45794
1.44226
1.42668
1.41131
1.3964
1.38191
1.3676
1.35283
1.33704
1.32052
1.30336
1.28528
1.26712
1.24929
1.23151
1.21309
1.19315
1.16943
1.14177
1.11094
1.07931
1.05067
1.02736
1.01101
1.00026
0.997567
1.00354
1.01525
1.03412
1.05775
1.08193
1.10416
1.12061
1.1305
1.13684
1.13612
1.12886
1.12195
1.11054
1.09989
1.08631
1.07315
1.05739
1.03908
1.02078
1.00096
0.978572
0.955321
0.925462
0.897326
0.867192
0.839045
0.816475
0.798802
0.784628
0.775198
0.766891
0.75794
0.743349
0.721534
0.694098
0.664622
0.630445
0.590745
0.548275
0.499915
0.446668
0.384205
0.305032
0.224117
0.144151
0.12829
0.0433748
1.02121
1.02051
0.962983
0.849232
0.772161
0.784608
0.846318
0.969148
1.05616
1.06564
1.03357
0.962077
0.845697
0.766842
0.762089
0.816269
0.92195
1.00779
1.0341
1.02219
0.966544
0.872547
0.801284
0.794741
0.82131
0.874495
0.937525
0.975898
0.991899
0.995279
1.03765
0.984472
0.889779
0.778585
0.712007
0.669043
0.64793
0.628393
0.611026
0.598931
0.592718
0.591729
0.595984
0.598922
0.603192
0.607557
0.608455
0.61054
0.613472
0.617173
0.62139
0.625649
0.630243
0.635517
0.642029
0.649706
0.658446
0.668746
0.68051
0.693422
0.707451
0.722406
0.737954
0.756887
0.777364
0.799853
0.823328
0.845446
0.865087
0.879195
0.889607
0.895376
0.896023
0.89247
0.883543
0.870935
0.854369
0.836948
0.819765
0.802723
0.784777
0.766718
0.749044
0.732963
0.717626
0.703327
0.686248
0.669184
0.652411
0.635822
0.619884
0.603363
0.585534
0.568254
0.549348
0.533249
0.516872
0.498241
0.479501
0.461098
0.44452
0.426778
0.407188
0.387447
0.369041
0.355157
0.342364
0.326394
0.308952
0.289271
0.267342
0.2381
0.207764
0.169838
0.142774
0.114586
0.0848401
0.052304
0.0219459
0.854872
0.848433
0.939844
1.14358
1.2831
1.28412
1.17535
0.946912
0.754771
0.704765
0.754885
0.885312
1.08543
1.21547
1.22962
1.15347
0.984614
0.809207
0.733229
0.766151
0.870758
1.03058
1.15368
1.1964
1.17237
1.11265
1.03963
0.99512
0.979029
0.957963
0.919164
0.662919
0.555391
0.474628
0.466207
0.483983
0.507745
0.528146
0.543775
0.554101
0.561182
0.566709
0.570906
0.575171
0.578351
0.582192
0.585936
0.589766
0.59421
0.598796
0.603567
0.609389
0.615849
0.623115
0.630893
0.639799
0.648648
0.656987
0.664173
0.671054
0.677337
0.68317
0.689608
0.694668
0.698812
0.702959
0.70596
0.70769
0.708064
0.707119
0.705286
0.70292
0.70066
0.697708
0.692963
0.690005
0.686012
0.673175
0.655612
0.636316
0.612985
0.588583
0.562729
0.537491
0.511051
0.485164
0.458873
0.432744
0.409967
0.387627
0.367158
0.347313
0.328697
0.312294
0.295272
0.281895
0.268478
0.257397
0.251932
0.245973
0.243561
0.240318
0.234794
0.226484
0.215972
0.203831
0.189431
0.173074
0.15461
0.134507
0.113716
0.088575
0.0724868
0.0538372
0.0492676
0.0326461
0.0268361
0.00792496
0.00476062
1.15068
1.12772
1.00905
0.749028
0.565532
0.55437
0.682847
0.958139
1.1755
1.21631
1.15892
1.01228
0.774431
0.603643
0.57175
0.66727
0.875915
1.08677
1.16154
1.13568
1.03223
0.852357
0.696312
0.649753
0.684504
0.768927
0.869
0.925933
0.916065
0.881539
0.775908
0.541449
0.473734
0.416337
0.401685
0.391393
0.39845
0.412855
0.428446
0.444824
0.460425
0.474594
0.488156
0.500314
0.512571
0.522385
0.532727
0.541704
0.552046
0.562304
0.572454
0.582342
0.592584
0.604053
0.615796
0.627687
0.638855
0.650124
0.662284
0.677358
0.691815
0.705789
0.720272
0.732261
0.744282
0.755723
0.765302
0.771915
0.77388
0.771954
0.766297
0.757151
0.743202
0.726921
0.706415
0.686315
0.65928
0.636545
0.612312
0.595206
0.576765
0.559646
0.539073
0.517051
0.488785
0.461312
0.430626
0.401999
0.375455
0.348747
0.325605
0.302643
0.28083
0.260077
0.238959
0.224544
0.21336
0.206699
0.204531
0.203169
0.203197
0.200657
0.196452
0.189301
0.179153
0.166205
0.149292
0.129075
0.106215
0.0809609
0.058915
0.036737
0.025582
0.0128139
0.00971724
0.00601435
0.0104604
0.000140422
0.00285241
0.728807
0.733542
0.883204
1.19137
1.38232
1.39436
1.25796
0.947867
0.667215
0.580949
0.646447
0.825735
1.10181
1.28667
1.31543
1.22504
1.00697
0.746728
0.620011
0.641194
0.76757
0.986115
1.17649
1.24736
1.22939
1.16489
1.0668
0.989257
0.945424
0.930849
0.930711
0.700544
0.583948
0.505628
0.484872
0.481376
0.484697
0.48914
0.492016
0.496453
0.50172
0.507777
0.513898
0.520512
0.526983
0.532602
0.540943
0.549529
0.557791
0.56731
0.577293
0.587942
0.598452
0.609441
0.619649
0.629448
0.639309
0.649454
0.659083
0.665815
0.671616
0.67657
0.679893
0.683049
0.685756
0.688246
0.690588
0.689988
0.688913
0.684354
0.679547
0.674462
0.665797
0.659303
0.649006
0.64172
0.637324
0.640237
0.636252
0.624282
0.610299
0.591958
0.569246
0.545695
0.515889
0.486536
0.453642
0.421701
0.389666
0.35846
0.330296
0.302773
0.276888
0.252094
0.228494
0.214407
0.201651
0.196456
0.193185
0.19403
0.194703
0.194137
0.193034
0.18697
0.1745
0.157834
0.136925
0.114828
0.0881082
0.0638407
0.0422143
0.0248201
0.0150429
0.00606228
0.0029463
0.00205657
0.00565341
0.000185667
0.00324465
1.27009
1.23256
1.07128
0.727725
0.482148
0.442175
0.591024
0.932551
1.2233
1.2933
1.22782
1.06058
0.777789
0.544606
0.484545
0.574991
0.810005
1.09565
1.23142
1.21938
1.11772
0.92234
0.713356
0.61738
0.626623
0.699013
0.814081
0.899225
0.938878
0.943575
0.907535
0.693506
0.544341
0.468789
0.45282
0.439778
0.438837
0.44674
0.456689
0.467933
0.480581
0.492808
0.504893
0.51559
0.524608
0.532936
0.544935
0.559747
0.576902
0.592629
0.608315
0.62378
0.63871
0.654127
0.669312
0.684263
0.699119
0.713923
0.729288
0.744838
0.760206
0.775825
0.790133
0.804272
0.815781
0.826413
0.832373
0.837128
0.839613
0.839279
0.833143
0.825993
0.811912
0.798384
0.77727
0.75631
0.732514
0.711628
0.693806
0.678751
0.65633
0.639413
0.611245
0.589623
0.559315
0.532463
0.501273
0.470477
0.437367
0.403975
0.369387
0.33476
0.302343
0.271071
0.241983
0.222602
0.203537
0.195947
0.193929
0.19238
0.194311
0.195266
0.195068
0.190072
0.17652
0.158003
0.136455
0.115589
0.0888338
0.067392
0.0436481
0.0291878
0.0160427
0.00830206
0.00371659
0.00343593
0.00529349
0.000866067
0.00447347
0.623369
0.641698
0.819611
1.17766
1.40695
1.43653
1.3056
0.973162
0.63542
0.51255
0.572283
0.749791
1.04964
1.28219
1.3419
1.25943
1.05198
0.750101
0.558967
0.535246
0.645443
0.866379
1.11289
1.23836
1.2494
1.19965
1.1048
1.01102
0.947571
0.907035
0.945992
0.746709
0.612823
0.551126
0.52194
0.518115
0.527595
0.537458
0.547386
0.556695
0.566706
0.577707
0.589975
0.602743
0.614785
0.627748
0.647186
0.661042
0.676946
0.694319
0.712576
0.7317
0.75023
0.767916
0.784726
0.801933
0.818971
0.835443
0.85018
0.86436
0.876815
0.88833
0.898507
0.90764
0.915279
0.921837
0.925025
0.932874
0.933644
0.93976
0.935995
0.937361
0.926616
0.918779
0.904594
0.886227
0.867857
0.840456
0.813188
0.787444
0.756657
0.733172
0.703369
0.680559
0.650919
0.623212
0.588566
0.549894
0.508843
0.466207
0.423596
0.381942
0.344218
0.306466
0.272323
0.245125
0.220556
0.207136
0.198921
0.196513
0.196961
0.197843
0.197735
0.197493
0.187578
0.168798
0.147654
0.128329
0.102447
0.0823524
0.0561535
0.0418208
0.0246289
0.0161936
0.00880015
0.00810073
0.00693662
0.00272127
0.00484059
1.36572
1.31426
1.13804
0.761473
0.46456
0.396962
0.535716
0.899138
1.24348
1.34626
1.28347
1.12329
0.843556
0.562052
0.461166
0.518382
0.740897
1.07965
1.29193
1.31677
1.23467
1.06604
0.844319
0.684308
0.645597
0.69763
0.798726
0.89654
0.968915
1.00546
1.0169
0.919927
0.813194
0.715427
0.661544
0.633614
0.628381
0.626547
0.630745
0.638789
0.649344
0.66248
0.677839
0.695809
0.713828
0.733479
0.763769
0.787881
0.813553
0.837645
0.860724
0.88365
0.906114
0.92888
0.951798
0.975589
0.999295
1.022
1.04302
1.06207
1.07953
1.09518
1.10749
1.11819
1.12393
1.12772
1.13197
1.13007
1.13062
1.12799
1.13068
1.12895
1.133
1.12386
1.11819
1.09623
1.07435
1.04442
1.00641
0.972273
0.927486
0.892236
0.849167
0.817115
0.778001
0.738726
0.698314
0.648903
0.600457
0.545898
0.494995
0.444039
0.398658
0.35269
0.310397
0.272551
0.237069
0.214437
0.200668
0.197175
0.197854
0.199904
0.201709
0.202383
0.198883
0.185904
0.165402
0.149576
0.124963
0.106427
0.0755833
0.0592752
0.0368928
0.0273488
0.0161244
0.0139279
0.0106092
0.00579515
0.00562194
0.549994
0.581709
0.762605
1.1398
1.40586
1.45314
1.33634
1.01653
0.633789
0.47475
0.525468
0.683974
0.979628
1.26135
1.36325
1.30435
1.12403
0.800389
0.531643
0.446791
0.538337
0.74223
1.00066
1.19115
1.26714
1.24554
1.17414
1.10545
1.07178
1.07429
1.15925
1.13758
1.05143
0.972578
0.907463
0.893691
0.874333
0.865206
0.855015
0.858464
0.86387
0.874357
0.887347
0.906421
0.924294
0.94958
0.981583
1.00687
1.03263
1.0564
1.07885
1.09948
1.11856
1.13611
1.15256
1.1671
1.18011
1.19291
1.20523
1.2161
1.22767
1.23476
1.24461
1.25217
1.25907
1.26918
1.26927
1.27883
1.27739
1.28674
1.28383
1.28865
1.28048
1.28245
1.26747
1.26565
1.24192
1.23046
1.19745
1.17396
1.12782
1.08907
1.02941
0.975367
0.906506
0.842271
0.787457
0.729277
0.677413
0.620931
0.568396
0.513875
0.464506
0.411243
0.362641
0.313696
0.267334
0.238136
0.21565
0.209649
0.205285
0.20503
0.205162
0.209562
0.208466
0.209744
0.197164
0.182165
0.156119
0.133404
0.0970628
0.0776888
0.0496978
0.0389712
0.025036
0.0216862
0.0147969
0.0100403
0.0061332
1.4462
1.38063
1.20087
0.821273
0.487235
0.395488
0.524971
0.884729
1.27673
1.41259
1.35392
1.21464
0.948977
0.628536
0.466466
0.49572
0.720249
1.09717
1.39406
1.47209
1.41032
1.26302
1.07215
0.91555
0.850955
0.878754
0.954444
1.03603
1.08149
1.11711
1.10137
1.13831
1.07424
1.06773
1.01625
1.04007
1.04814
1.06858
1.07454
1.08921
1.09725
1.11296
1.12328
1.13801
1.15122
1.16621
1.18615
1.20152
1.21711
1.23147
1.24524
1.25787
1.26968
1.28078
1.29111
1.30052
1.30833
1.31558
1.31993
1.32306
1.32638
1.32521
1.33111
1.3284
1.33587
1.33294
1.34092
1.3389
1.34679
1.34294
1.34405
1.34424
1.33514
1.33941
1.32715
1.32945
1.31221
1.31081
1.28569
1.27662
1.24092
1.22042
1.17109
1.13257
1.06871
0.994675
0.920322
0.845632
0.780746
0.716144
0.65626
0.594304
0.53718
0.47553
0.418963
0.359282
0.299367
0.258353
0.224101
0.207204
0.20041
0.2032
0.204449
0.211182
0.215337
0.217738
0.208804
0.199136
0.176125
0.154036
0.120245
0.099782
0.0647746
0.0537277
0.0357237
0.0314987
0.0203051
0.0163539
0.00657603
0.49769
0.55658
0.730587
1.10053
1.39743
1.46992
1.35907
1.06191
0.646584
0.451111
0.494441
0.644748
0.932029
1.26675
1.42526
1.40159
1.22662
0.891712
0.542087
0.415056
0.489886
0.656893
0.877489
1.07183
1.16178
1.15681
1.11606
1.06391
1.04705
1.03531
1.07909
1.16223
1.11121
1.14545
1.12084
1.17935
1.19424
1.21744
1.23954
1.25637
1.27578
1.28884
1.30379
1.31272
1.32163
1.3295
1.34052
1.34685
1.35149
1.35441
1.35716
1.35891
1.36065
1.36209
1.36289
1.3639
1.36411
1.36513
1.36322
1.36481
1.36143
1.36483
1.36129
1.36575
1.36294
1.36712
1.36491
1.36926
1.36553
1.37052
1.3637
1.36824
1.35877
1.36533
1.35376
1.36121
1.34529
1.35377
1.33645
1.34424
1.32103
1.31478
1.27033
1.23458
1.19299
1.12543
1.06444
0.975809
0.891043
0.801032
0.720302
0.638789
0.562529
0.488525
0.423312
0.353909
0.28955
0.243408
0.212146
0.198803
0.196637
0.200664
0.203427
0.212271
0.216961
0.221908
0.215234
0.213334
0.199676
0.184181
0.15486
0.129885
0.0876219
0.073238
0.0500451
0.0430607
0.0277513
0.0239074
0.00782786
1.52527
1.43462
1.25889
0.90646
0.554703
0.446435
0.575872
0.915731
1.33757
1.51325
1.46978
1.34071
1.09836
0.782433
0.579817
0.598345
0.803707
1.19118
1.54365
1.66734
1.60315
1.46675
1.29124
1.14546
1.09079
1.0955
1.12902
1.18851
1.24859
1.29154
1.31102
1.29909
1.38347
1.39432
1.41367
1.40225
1.40793
1.40752
1.41487
1.417
1.42193
1.42135
1.42094
1.41908
1.41541
1.41123
1.40805
1.40312
1.39839
1.39476
1.39143
1.38841
1.38562
1.38287
1.3798
1.37656
1.3747
1.37268
1.37175
1.36986
1.36915
1.36784
1.36518
1.36777
1.36531
1.3702
1.36791
1.37374
1.36878
1.37506
1.36741
1.37507
1.36658
1.37285
1.36278
1.37192
1.35777
1.36679
1.35319
1.36284
1.35204
1.34721
1.33381
1.29927
1.28168
1.21875
1.17711
1.09213
1.01644
0.929806
0.835615
0.738206
0.64718
0.561734
0.482825
0.403667
0.331495
0.273377
0.22892
0.206655
0.198583
0.202054
0.205886
0.216435
0.224951
0.234635
0.231482
0.233741
0.226387
0.215665
0.191266
0.165019
0.119188
0.0990578
0.0655705
0.0566196
0.0357073
0.0339703
0.00935024
0.456568
0.546779
0.718053
1.065
1.39309
1.4821
1.37138
1.09588
0.676616
0.455002
0.497493
0.635809
0.88956
1.21661
1.41672
1.4175
1.25191
0.953289
0.60804
0.462718
0.518188
0.666689
0.852809
1.00377
1.07815
1.09439
1.07768
1.03998
0.991783
0.947815
0.928251
1.01343
1.17109
1.27278
1.34945
1.39038
1.39932
1.40469
1.41021
1.41656
1.42056
1.42364
1.42255
1.41932
1.41581
1.41382
1.40949
1.40585
1.40159
1.39751
1.39482
1.39178
1.38802
1.384
1.38026
1.37698
1.37394
1.37146
1.37106
1.36948
1.37117
1.36816
1.37097
1.36674
1.37059
1.3653
1.36967
1.36319
1.36915
1.36196
1.3697
1.36176
1.36942
1.36139
1.36952
1.35936
1.36917
1.35606
1.36555
1.35366
1.36101
1.33859
1.34939
1.32119
1.32944
1.28894
1.2796
1.2243
1.15619
1.0548
0.964342
0.866939
0.761147
0.656577
0.565207
0.480114
0.391758
0.314781
0.251578
0.220256
0.205841
0.20899
0.21332
0.224421
0.23684
0.252038
0.254342
0.257526
0.255712
0.250911
0.229521
0.201961
0.154577
0.127308
0.0821468
0.0702132
0.0455079
0.0435698
0.013083
1.59311
1.486
1.32561
1.03475
0.719608
0.636235
0.738353
1.01572
1.41619
1.61307
1.56976
1.44085
1.23042
1.00263
0.855165
0.856928
0.973472
1.21546
1.50727
1.62481
1.57119
1.4234
1.24616
1.11837
1.06788
1.06577
1.08428
1.1251
1.17784
1.23272
1.28461
1.32803
1.44126
1.49719
1.46876
1.44003
1.43774
1.43982
1.43464
1.43353
1.42657
1.42468
1.42064
1.41738
1.41333
1.41154
1.40663
1.40383
1.3991
1.39322
1.38646
1.37924
1.37213
1.36496
1.35815
1.35179
1.34494
1.33855
1.33088
1.32551
1.31735
1.31523
1.30561
1.30484
1.29719
1.30054
1.29647
1.30283
1.3059
1.30877
1.32195
1.31848
1.33328
1.3268
1.3435
1.33245
1.34925
1.33306
1.34987
1.32915
1.34552
1.31601
1.33488
1.30718
1.32001
1.2866
1.2942
1.25369
1.24205
1.16958
1.08408
0.999314
0.899477
0.782093
0.683488
0.589188
0.489702
0.387007
0.302621
0.253049
0.231573
0.228313
0.229516
0.238808
0.249648
0.267006
0.271217
0.274185
0.269236
0.269066
0.256243
0.23385
0.199159
0.165256
0.104372
0.0881508
0.0562847
0.0555606
0.0193516
0.449809
0.554743
0.729708
1.00978
1.29142
1.36229
1.27975
1.08573
0.785692
0.589488
0.600412
0.713738
0.895467
1.09361
1.21926
1.24184
1.16645
1.03452
0.881447
0.811425
0.829476
0.89889
0.995743
1.0688
1.09534
1.09555
1.08895
1.07147
1.05952
1.0539
1.06079
1.08777
1.09246
1.16401
1.30737
1.3207
1.31528
1.30065
1.30373
1.29614
1.30053
1.29397
1.29199
1.28925
1.28781
1.28581
1.27888
1.27488
1.26977
1.26472
1.25938
1.25409
1.24945
1.24495
1.24044
1.2357
1.23113
1.22774
1.22518
1.22447
1.22524
1.2279
1.2301
1.23622
1.23799
1.24385
1.24292
1.25047
1.24652
1.25613
1.25094
1.26455
1.2584
1.27489
1.2676
1.28674
1.27882
1.29733
1.29103
1.28642
1.30158
1.27389
1.29548
1.26551
1.2787
1.24242
1.24644
1.20371
1.20437
1.16965
1.10917
1.04805
0.992705
0.894994
0.784253
0.660639
0.559178
0.459166
0.376583
0.308547
0.276801
0.260386
0.257075
0.259952
0.264472
0.279078
0.284956
0.292487
0.290885
0.288183
0.278681
0.259886
0.229282
0.195338
0.129702
0.106908
0.0649076
0.0617104
0.0251781
1.62123
1.5081
1.34019
1.11579
0.920155
0.868787
0.918747
1.05308
1.28886
1.44044
1.41718
1.3181
1.16223
1.0168
0.947883
0.946983
0.988265
1.06401
1.16275
1.21559
1.20811
1.16799
1.10756
1.05529
1.03236
1.03824
1.04907
1.06304
1.07817
1.09358
1.0971
1.11551
0.985044
1.00046
1.0745
1.11834
1.15115
1.16312
1.16912
1.17264
1.16933
1.17121
1.16746
1.16499
1.16149
1.16056
1.15347
1.1498
1.14542
1.14071
1.13629
1.13193
1.12818
1.12494
1.12306
1.12241
1.12308
1.12519
1.12965
1.13242
1.13899
1.14159
1.15029
1.15178
1.15994
1.15791
1.16615
1.16171
1.17044
1.16405
1.17321
1.16699
1.18032
1.17446
1.19251
1.18539
1.20676
1.19801
1.21969
1.20025
1.22371
1.19446
1.21866
1.18641
1.21095
1.17045
1.17485
1.11703
1.08234
1.07104
1.04849
0.99815
0.965151
0.90512
0.834648
0.735669
0.629803
0.526538
0.439562
0.36586
0.327185
0.29757
0.279451
0.27125
0.268457
0.27572
0.284477
0.291743
0.293949
0.29404
0.291045
0.280772
0.256287
0.220548
0.155974
0.127392
0.0743042
0.0670565
0.0329175
0.58681
0.694292
0.830215
1.00345
1.15084
1.18636
1.15014
1.06656
0.940981
0.854809
0.858685
0.910279
0.998723
1.08612
1.12642
1.12834
1.10989
1.07249
1.03344
1.01541
1.01727
1.03288
1.05658
1.07715
1.08437
1.08036
1.07515
1.07045
1.06218
1.05238
1.05099
1.07184
0.978435
1.00856
1.04374
1.07232
1.08937
1.09925
1.10152
1.0968
1.09403
1.08737
1.08161
1.07482
1.06892
1.06275
1.05303
1.04527
1.03752
1.02981
1.0223
1.01562
1.00994
1.00582
1.0028
1.00071
0.999434
0.998864
0.998949
0.999732
1.00356
1.00494
1.01154
1.01231
1.01976
1.01987
1.02893
1.02764
1.03796
1.0335
1.04528
1.03746
1.05221
1.04296
1.06282
1.0513
1.07564
1.05919
1.08795
1.06657
1.09662
1.07045
1.09531
1.05922
1.08031
1.04116
1.05731
1.0355
1.0008
0.950568
0.933586
0.891671
0.859499
0.820481
0.783018
0.732743
0.651002
0.559092
0.465678
0.386251
0.341051
0.308509
0.284377
0.270705
0.264455
0.265245
0.273365
0.279676
0.284573
0.287259
0.286115
0.280765
0.261387
0.232801
0.1825
0.149003
0.0842117
0.0721885
0.0394383
1.47257
1.33701
1.19467
1.05713
0.967908
0.961355
0.98383
1.02599
1.10179
1.16146
1.16495
1.12756
1.06364
1.00348
0.980788
0.988776
1.00479
1.02472
1.04736
1.07041
1.07573
1.07468
1.06783
1.05968
1.05342
1.05148
1.05168
1.05219
1.05398
1.05484
1.04774
1.06432
0.968852
1.0182
1.02399
1.05047
1.04668
1.04037
1.02749
1.01777
1.0068
0.996414
0.98718
0.97883
0.971652
0.964816
0.952592
0.943901
0.93476
0.925895
0.917099
0.909418
0.902797
0.896609
0.892085
0.888996
0.887726
0.887274
0.887832
0.889406
0.89181
0.894233
0.898707
0.897058
0.900778
0.890459
0.891142
0.873009
0.870381
0.849037
0.845902
0.825206
0.825608
0.809084
0.818492
0.803842
0.822474
0.809128
0.837189
0.826996
0.860715
0.84966
0.886476
0.867393
0.893852
0.866711
0.870231
0.848282
0.860291
0.846891
0.828868
0.806474
0.777976
0.714698
0.678647
0.638062
0.5938
0.51558
0.455242
0.383366
0.334528
0.301261
0.276013
0.259165
0.249719
0.243961
0.246524
0.252397
0.262251
0.271401
0.270912
0.268825
0.254562
0.232441
0.197264
0.161456
0.0926006
0.0788946
0.0478263
0.850095
0.909187
0.984402
1.05982
1.09916
1.102
1.08293
1.05055
1.01405
0.994134
1.0031
1.01916
1.04566
1.07155
1.07575
1.06713
1.05609
1.04479
1.03458
1.03121
1.03682
1.04094
1.04866
1.0575
1.06238
1.06488
1.06687
1.06984
1.07233
1.07822
1.08085
1.10507
0.986626
1.0274
1.00448
1.02222
1.00176
0.982471
0.960595
0.942908
0.925643
0.910501
0.898102
0.88721
0.879121
0.869723
0.85683
0.846403
0.835989
0.825986
0.816769
0.808227
0.79877
0.790133
0.782919
0.776397
0.771315
0.766447
0.761477
0.756781
0.749819
0.742506
0.729942
0.717331
0.69638
0.673809
0.639398
0.613035
0.583379
0.561035
0.540404
0.520613
0.509204
0.493745
0.49352
0.484249
0.495977
0.494229
0.518575
0.526736
0.559697
0.577367
0.612956
0.63157
0.660464
0.66867
0.678935
0.688453
0.693298
0.695406
0.684497
0.669517
0.654891
0.64006
0.603662
0.540135
0.49685
0.435986
0.394367
0.340544
0.303401
0.275734
0.249632
0.229983
0.215564
0.207754
0.211942
0.22045
0.233741
0.251062
0.25317
0.262122
0.2531
0.237323
0.212915
0.17359
0.107109
0.0909768
0.0580764
1.22291
1.15672
1.09188
1.03364
1.0029
1.006
1.01351
1.02309
1.04051
1.05668
1.06476
1.05879
1.04612
1.0334
1.02757
1.02488
1.02931
1.0345
1.03863
1.04306
1.04841
1.05286
1.05567
1.05692
1.05932
1.06154
1.06304
1.06388
1.0638
1.06571
1.06527
1.07407
0.96602
0.97665
0.92077
0.892202
0.851106
0.817655
0.788114
0.763194
0.742022
0.725615
0.7145
0.705461
0.700806
0.695402
0.684794
0.677718
0.669789
0.662688
0.655487
0.648472
0.640731
0.633406
0.624472
0.615427
0.604971
0.593928
0.581918
0.569184
0.55478
0.538753
0.520834
0.498502
0.47542
0.45037
0.42713
0.398192
0.376402
0.349985
0.333238
0.309912
0.297298
0.281632
0.277452
0.271895
0.278088
0.282099
0.299423
0.313621
0.341963
0.369578
0.407696
0.44738
0.484387
0.511715
0.534449
0.549438
0.555941
0.566385
0.575179
0.570433
0.556055
0.543123
0.52902
0.498821
0.440334
0.380709
0.326212
0.288947
0.258399
0.236798
0.212362
0.196085
0.187237
0.185579
0.187881
0.200194
0.210694
0.23467
0.242285
0.257058
0.254202
0.24449
0.224911
0.188103
0.123382
0.102695
0.0685087
1.00927
1.02185
1.04844
1.06885
1.07355
1.0628
1.04966
1.03659
1.02639
1.02278
1.02819
1.03578
1.04533
1.05211
1.05438
1.05122
1.04606
1.04159
1.03695
1.03697
1.03962
1.044
1.0494
1.05451
1.05964
1.06376
1.06596
1.06946
1.07208
1.0729
1.07527
1.05154
0.902373
0.840109
0.731803
0.675383
0.634749
0.605238
0.581328
0.564867
0.552629
0.545055
0.539277
0.535911
0.534355
0.531743
0.524774
0.520993
0.515735
0.511887
0.507262
0.5034
0.498711
0.494138
0.487984
0.480699
0.471755
0.46154
0.449777
0.436696
0.422458
0.406058
0.389178
0.369907
0.350933
0.33062
0.309923
0.288165
0.268248
0.244868
0.228753
0.209209
0.196106
0.18055
0.173669
0.166731
0.169638
0.170657
0.184081
0.195263
0.22072
0.243859
0.280216
0.31671
0.362413
0.402326
0.437059
0.451899
0.462321
0.468623
0.475977
0.478915
0.479204
0.475777
0.463709
0.434367
0.400676
0.344906
0.287051
0.25039
0.219007
0.201618
0.184354
0.172827
0.16718
0.167958
0.171057
0.184013
0.195652
0.222559
0.235869
0.253902
0.255032
0.251788
0.233022
0.197009
0.135415
0.111896
0.0797021
1.10272
1.07752
1.0598
1.04372
1.03507
1.02623
1.02728
1.02919
1.03187
1.0341
1.03861
1.04164
1.04288
1.044
1.0454
1.04326
1.04388
1.04538
1.0457
1.04634
1.04713
1.04855
1.05078
1.05337
1.0547
1.05602
1.05675
1.05483
1.05317
1.04626
1.05801
0.9589
0.782698
0.65603
0.570837
0.521519
0.485211
0.46
0.44009
0.427883
0.415511
0.408294
0.404088
0.403647
0.402256
0.401264
0.398099
0.397604
0.395291
0.393653
0.390239
0.387597
0.383884
0.380165
0.37548
0.369904
0.363285
0.355765
0.347387
0.338333
0.328832
0.318811
0.307091
0.297287
0.286272
0.272751
0.261995
0.244002
0.232696
0.210751
0.196598
0.176282
0.1659
0.149119
0.141978
0.134542
0.132941
0.131526
0.139514
0.143872
0.161612
0.175389
0.208474
0.238722
0.288166
0.333311
0.378168
0.399973
0.421193
0.431574
0.439659
0.446461
0.446167
0.447055
0.440739
0.422119
0.387715
0.33501
0.27071
0.233138
0.198466
0.183415
0.170491
0.163213
0.159323
0.160839
0.164226
0.174976
0.187872
0.212277
0.232158
0.25187
0.258507
0.257817
0.237799
0.207259
0.148501
0.122482
0.0909803
1.0511
1.0499
1.05497
1.057
1.05496
1.04839
1.03944
1.03195
1.02832
1.02826
1.02991
1.03427
1.04074
1.04719
1.05024
1.05062
1.05159
1.05003
1.04925
1.04959
1.04937
1.05093
1.05317
1.05604
1.05783
1.05891
1.06282
1.06862
1.07569
1.08262
1.08612
0.890247
0.726277
0.610805
0.536416
0.484975
0.448028
0.418212
0.394209
0.376353
0.361868
0.355048
0.350888
0.348935
0.345716
0.343667
0.340562
0.336609
0.332288
0.328015
0.323382
0.319226
0.31487
0.309885
0.304715
0.299254
0.293687
0.288137
0.282642
0.277611
0.272297
0.267641
0.262721
0.257907
0.252819
0.247573
0.243882
0.235594
0.229103
0.215996
0.206615
0.189397
0.178593
0.16048
0.14952
0.138775
0.133031
0.132479
0.134919
0.139216
0.147575
0.154494
0.173788
0.196474
0.241987
0.286876
0.338122
0.373791
0.399889
0.416947
0.421754
0.429941
0.43188
0.435386
0.43194
0.423076
0.392617
0.339049
0.270471
0.227517
0.19546
0.178424
0.16841
0.162941
0.160073
0.161065
0.164417
0.173109
0.18241
0.20525
0.226643
0.2514
0.261252
0.262664
0.24579
0.219786
0.162726
0.132301
0.101854
1.0594
1.0524
1.05033
1.04875
1.04458
1.04033
1.03651
1.03234
1.03184
1.03042
1.0319
1.03436
1.03802
1.04236
1.04739
1.051
1.05161
1.05419
1.05714
1.0588
1.05868
1.06032
1.06022
1.06006
1.0619
1.06222
1.05919
1.04843
1.01798
0.958147
0.834519
0.630507
0.528527
0.470421
0.426811
0.39558
0.366654
0.343107
0.329148
0.32268
0.322162
0.321167
0.321349
0.318926
0.31487
0.310989
0.305198
0.298654
0.291751
0.284774
0.278165
0.27172
0.266072
0.260864
0.256446
0.252511
0.249642
0.247408
0.246498
0.246521
0.248689
0.25072
0.255206
0.25763
0.261964
0.260098
0.258246
0.254493
0.252122
0.245579
0.238792
0.229184
0.218941
0.203464
0.187366
0.174313
0.159313
0.152602
0.150054
0.151472
0.156662
0.162688
0.17752
0.193647
0.228525
0.271373
0.327611
0.373414
0.402104
0.425229
0.430057
0.439857
0.441658
0.445957
0.443756
0.438862
0.412669
0.359812
0.288076
0.238816
0.205399
0.184557
0.174386
0.16922
0.165634
0.165722
0.167388
0.174977
0.182938
0.200718
0.220684
0.250317
0.262114
0.268863
0.25964
0.236273
0.176944
0.14353
0.113475
1.04736
1.04439
1.04667
1.04955
1.04794
1.0448
1.04023
1.03499
1.03104
1.02966
1.03043
1.03256
1.03558
1.03975
1.04505
1.05024
1.05312
1.05607
1.05994
1.06266
1.06463
1.0668
1.06777
1.06788
1.06795
1.06547
1.06095
1.05715
1.05564
1.06291
1.10848
0.858137
0.674211
0.566441
0.492564
0.442471
0.395805
0.363444
0.345395
0.334831
0.329334
0.323595
0.310823
0.29815
0.288651
0.279788
0.271504
0.265236
0.260671
0.256572
0.252641
0.250103
0.246727
0.243284
0.240328
0.237543
0.235914
0.235224
0.236141
0.238956
0.24412
0.24982
0.258231
0.265713
0.273089
0.279972
0.282346
0.285954
0.285954
0.289198
0.286343
0.28449
0.278592
0.271894
0.255844
0.243156
0.220707
0.207538
0.196915
0.192572
0.194127
0.198381
0.208414
0.220314
0.242813
0.275302
0.32713
0.385559
0.422504
0.453657
0.46448
0.476596
0.480764
0.486011
0.487428
0.48408
0.46532
0.411579
0.335537
0.271821
0.232983
0.203435
0.191351
0.184971
0.179916
0.177744
0.176774
0.181115
0.187141
0.202236
0.219522
0.249507
0.264551
0.277377
0.271395
0.249129
0.191326
0.154447
0.124754
1.04551
1.04206
1.04299
1.04472
1.04349
1.0423
1.04045
1.03729
1.03445
1.03325
1.03206
1.03417
1.03627
1.03901
1.0431
1.04799
1.05476
1.05978
1.06397
1.0676
1.07008
1.07275
1.07621
1.08075
1.08741
1.09615
1.10864
1.12485
1.14913
1.18005
1.25102
1.20813
1.06823
0.894985
0.756576
0.652387
0.567904
0.499875
0.443697
0.392553
0.346666
0.310154
0.289147
0.273419
0.263428
0.25659
0.250844
0.246582
0.243023
0.240109
0.238049
0.236472
0.234187
0.232737
0.232152
0.231112
0.230388
0.230561
0.232147
0.234683
0.239639
0.248181
0.260764
0.275492
0.290168
0.304747
0.316669
0.326471
0.335841
0.344807
0.352474
0.356756
0.356841
0.352726
0.345464
0.334785
0.315922
0.298628
0.279851
0.267426
0.261337
0.259063
0.264103
0.271487
0.287123
0.308846
0.350577
0.40637
0.459213
0.499793
0.527435
0.545142
0.559822
0.570017
0.579318
0.581774
0.568244
0.509676
0.422264
0.335643
0.284022
0.241273
0.221166
0.211323
0.202805
0.196869
0.191539
0.191616
0.194097
0.205563
0.221563
0.249094
0.268918
0.284465
0.281021
0.266895
0.207667
0.168054
0.135791
1.04097
1.03781
1.03907
1.04105
1.04257
1.04182
1.0403
1.03808
1.03632
1.034
1.03299
1.03385
1.03652
1.04042
1.04328
1.0477
1.05298
1.05877
1.0641
1.06977
1.07398
1.07934
1.08643
1.0936
1.09979
1.10787
1.11879
1.13138
1.14563
1.16477
1.19407
1.29692
1.1767
1.06449
0.950047
0.820026
0.692368
0.589045
0.506088
0.444142
0.40373
0.379033
0.361255
0.350048
0.343711
0.33559
0.326255
0.316613
0.307151
0.298085
0.289343
0.279569
0.270063
0.261132
0.25409
0.248693
0.244375
0.241171
0.240424
0.242198
0.247422
0.256196
0.269797
0.288101
0.311858
0.334727
0.359977
0.379567
0.398433
0.414147
0.427644
0.436679
0.440585
0.441387
0.437553
0.433472
0.421717
0.409062
0.392218
0.374423
0.363677
0.355906
0.351838
0.350073
0.357739
0.369857
0.402947
0.449629
0.516186
0.57267
0.615643
0.645398
0.669425
0.684012
0.689084
0.68943
0.678385
0.625624
0.537756
0.426944
0.358282
0.297861
0.264134
0.246596
0.233588
0.222351
0.210974
0.205973
0.204216
0.211466
0.225648
0.251246
0.27591
0.294815
0.292851
0.284076
0.220108
0.182135
0.144665
1.03854
1.03488
1.03587
1.03759
1.03917
1.03891
1.03836
1.03744
1.03717
1.0371
1.03701
1.0368
1.03898
1.04224
1.046
1.04858
1.05297
1.05859
1.06357
1.07069
1.07964
1.08915
1.09867
1.10632
1.11745
1.13103
1.14645
1.16333
1.18231
1.20206
1.23354
1.29422
1.18367
1.12672
1.0821
1.00992
0.977745
0.889847
0.832877
0.762192
0.706363
0.660669
0.620717
0.590134
0.560945
0.529889
0.496848
0.467718
0.4399
0.415587
0.394555
0.376494
0.359793
0.346616
0.335025
0.326805
0.31994
0.315797
0.312389
0.311601
0.314105
0.318771
0.32808
0.341388
0.360448
0.38078
0.40616
0.430805
0.455935
0.477742
0.498098
0.512903
0.523295
0.526242
0.52456
0.516225
0.512362
0.502637
0.497315
0.483679
0.473017
0.465091
0.463919
0.460385
0.461249
0.458967
0.472753
0.499782
0.555798
0.615596
0.679452
0.725763
0.766571
0.795818
0.808306
0.803484
0.787313
0.733216
0.651048
0.537311
0.444057
0.370875
0.316992
0.287661
0.268614
0.253264
0.235118
0.224168
0.217596
0.220244
0.231168
0.254546
0.282891
0.305002
0.306986
0.299871
0.235404
0.199618
0.155479
1.03575
1.03227
1.03253
1.03336
1.0346
1.03641
1.03727
1.03755
1.03734
1.03768
1.0384
1.03915
1.04044
1.04315
1.0472
1.0508
1.05464
1.06079
1.06801
1.07766
1.08598
1.09479
1.10543
1.11629
1.12973
1.14364
1.15612
1.16662
1.1784
1.18764
1.19833
1.27611
1.1666
1.20933
1.23022
1.22825
1.24371
1.19996
1.18747
1.12869
1.07488
1.00544
0.948438
0.875704
0.818568
0.775605
0.735646
0.710174
0.690773
0.675659
0.666906
0.660889
0.65662
0.651399
0.643378
0.632303
0.618434
0.601494
0.585007
0.569853
0.556548
0.546844
0.54162
0.53838
0.539422
0.543206
0.549875
0.559464
0.57029
0.580104