/*--------------------------------*- C++ -*----------------------------------*\
| =========                 |                                                 |
| \\      /  F ield         | OpenFOAM: The Open Source CFD Toolbox           |
|  \\    /   O peration     | Version:  2.2.x                                 |
|   \\  /    A nd           | Web:      www.OpenFOAM.org                      |
|    \\/     M anipulation  |                                                 |
\*---------------------------------------------------------------------------*/
FoamFile
{
    version     2.0;
    format      ascii;
    class       volScalarField;
    location    "2.3";
    object      T;
}
// * * * * * * * * * * * * * * * * * * * * * * * * * * * * * * * * * * * * * //

dimensions      [0 0 0 1 0 0 0];

internalField   nonuniform List<scalar> 
14161
(
1.14535
1.16495
1.13526
1.05617
1.01266
1.0515
1.13545
1.19104
1.23254
1.25716
1.26424
1.21317
1.14364
1.12502
1.12553
1.18838
1.24556
1.29659
1.28664
1.25626
1.2112
1.12901
1.0525
1.03968
1.04413
1.04095
1.06917
1.02599
0.952268
0.748183
0.996381
1.8142
1.69655
1.64227
1.65692
1.66172
1.65245
1.62584
1.57599
1.5568
1.54945
1.5624
1.59448
1.6367
1.69153
1.72275
1.75194
1.78896
1.82593
1.86299
1.90179
1.95066
2.01326
2.08698
2.16448
2.24096
2.30284
2.35181
2.39186
2.42405
2.45287
2.48269
2.50462
2.51527
2.52605
2.53388
2.54372
2.54673
2.54495
2.54772
2.56095
2.57993
2.59256
2.60427
2.61673
2.62315
2.61663
2.59589
2.588
2.57309
2.55246
2.5433
2.5379
2.53525
2.53046
2.52827
2.52664
2.53245
2.54209
2.55907
2.58518
2.62257
2.64874
2.67751
2.71399
2.73932
2.76095
2.77937
2.77835
2.78247
2.8135
2.85333
2.89043
2.91511
2.91797
2.91126
2.89639
2.87556
2.862
2.87544
2.90765
2.95058
2.992
3.01986
3.03613
3.06003
3.09462
3.10692
3.11748
0.982823
1.04288
1.20957
1.42231
1.50096
1.39067
1.24137
0.992701
0.889037
0.949471
1.11094
1.27157
1.45407
1.47848
1.40228
1.28148
1.10452
0.996562
1.05529
1.12202
1.26447
1.4333
1.47525
1.37041
1.29749
1.15108
1.03252
1.00342
1.01948
0.952513
1.54867
2.67928
2.78176
2.87655
2.95675
3.00473
3.02951
3.03135
3.00446
2.98458
2.96637
2.95153
2.94271
2.9386
2.93503
2.93829
2.94321
2.94619
2.95932
2.97998
3.00839
3.04035
3.06863
3.0908
3.10083
3.09886
3.08827
3.07466
3.06268
3.05393
3.04751
3.04298
3.03852
3.03528
3.03091
3.0236
3.0132
3.00255
2.99079
2.98117
2.97892
2.98325
2.99064
2.99887
3.00866
3.01501
3.02069
3.02562
3.03202
3.04368
3.05348
3.06807
3.08173
3.09338
3.10017
3.10432
3.11218
3.11811
3.12021
3.11771
3.11286
3.10832
3.10304
3.10052
3.10265
3.10823
3.11588
3.12383
3.13351
3.1467
3.1583
3.15899
3.14971
3.14014
3.12981
3.11488
3.09857
3.08386
3.07324
3.07261
3.07744
3.08508
3.09533
3.10685
3.11217
3.11003
3.1188
3.13238
3.12695
1.33357
1.26167
1.06335
0.736096
0.650305
0.803231
1.0317
1.36184
1.42699
1.29667
1.24158
1.06197
0.790139
0.74097
0.899543
1.11705
1.41049
1.55103
1.44276
1.30019
1.11387
0.852438
0.710498
0.771537
0.937903
1.03741
1.13535
1.12308
1.14622
1.14472
2.36108
2.9737
3.04742
3.13166
3.17069
3.14396
3.09631
3.06402
3.04031
3.03561
3.03564
3.03791
3.04296
3.04924
3.05553
3.06546
3.07539
3.08248
3.08676
3.08875
3.0876
3.08688
3.0851
3.08599
3.08834
3.08957
3.0906
3.09271
3.09728
3.10206
3.10639
3.10686
3.11203
3.11731
3.11762
3.11651
3.11495
3.11114
3.10471
3.09656
3.09313
3.09082
3.08715
3.08258
3.0789
3.07729
3.07164
3.0759
3.09067
3.11015
3.13619
3.16675
3.1998
3.22943
3.25578
3.27341
3.28749
3.29573
3.29708
3.29396
3.28748
3.28692
3.29126
3.29681
3.30162
3.30288
3.30117
3.29705
3.29323
3.29441
3.29584
3.29042
3.28232
3.27072
3.25475
3.23797
3.22143
3.20485
3.18817
3.17518
3.16203
3.15096
3.1419
3.12961
3.12018
3.11963
3.12527
3.13668
3.12272
0.676667
0.93437
1.25066
1.68523
1.7687
1.49723
1.26048
0.817802
0.584067
0.724658
0.993734
1.32924
1.65982
1.65967
1.47209
1.31815
1.01615
0.756711
0.862849
1.03609
1.31689
1.63014
1.71175
1.53646
1.38026
1.16451
1.00891
1.02169
1.18401
1.26797
2.80515
3.15129
3.23935
3.29186
3.28497
3.23765
3.19743
3.16641
3.14809
3.14592
3.14991
3.1557
3.16202
3.16802
3.17046
3.17236
3.16852
3.16255
3.15494
3.14747
3.14045
3.1346
3.12918
3.12455
3.12287
3.12137
3.12019
3.12037
3.12221
3.12201
3.12239
3.12052
3.11613
3.116
3.11554
3.11169
3.10954
3.104
3.09979
3.09767
3.09814
3.09954
3.10167
3.10209
3.10341
3.10603
3.11564
3.11877
3.13216
3.14569
3.16194
3.18131
3.20267
3.21709
3.22923
3.23124
3.23298
3.23061
3.23189
3.23619
3.24282
3.25512
3.26568
3.27701
3.28856
3.2973
3.30541
3.31301
3.31972
3.32522
3.3284
3.32654
3.32289
3.31539
3.30496
3.29273
3.27636
3.25852
3.23521
3.21346
3.19236
3.17418
3.15754
3.13867
3.12503
3.11995
3.12601
3.1526
3.12345
1.53223
1.35231
1.04357
0.543773
0.420714
0.60732
0.973802
1.45644
1.56046
1.37121
1.28164
1.04835
0.659285
0.53583
0.72783
1.06495
1.48279
1.74068
1.62922
1.4144
1.18406
0.81268
0.540613
0.632083
0.840225
1.00122
1.18762
1.25225
1.29346
1.19212
2.37732
2.95003
3.03723
3.14221
3.17199
3.15882
3.13467
3.1062
3.08659
3.08212
3.08607
3.09365
3.10375
3.11601
3.12367
3.13371
3.13843
3.14185
3.13928
3.13305
3.12446
3.11424
3.10325
3.09428
3.0908
3.08793
3.08515
3.08262
3.08058
3.0811
3.08289
3.08678
3.09085
3.09622
3.10266
3.11071
3.11618
3.12248
3.12212
3.12275
3.12355
3.12484
3.12891
3.12748
3.12852
3.12373
3.11967
3.10787
3.11197
3.12185
3.13556
3.15587
3.18094
3.20171
3.22018
3.22532
3.22415
3.21875
3.21733
3.22269
3.23484
3.24818
3.25843
3.26204
3.26987
3.27564
3.28979
3.3054
3.31964
3.32756
3.33309
3.33418
3.3322
3.32644
3.3177
3.30816
3.29351
3.27854
3.25724
3.23828
3.2161
3.19493
3.17288
3.15153
3.13331
3.12461
3.13396
3.16769
3.13161
0.395987
0.783478
1.21075
1.75346
1.82714
1.51239
1.27841
0.763267
0.42967
0.592024
0.886476
1.28346
1.70847
1.73658
1.5237
1.37515
1.05173
0.634869
0.675306
0.898099
1.17066
1.57315
1.77242
1.6422
1.40631
1.21978
1.06409
0.974511
1.07906
1.02261
2.34161
2.92409
3.03686
3.12809
3.17044
3.16216
3.14129
3.11863
3.10567
3.10499
3.10619
3.10934
3.1131
3.1194
3.12316
3.12389
3.1197
3.11048
3.09897
3.08774
3.07636
3.06584
3.05698
3.04971
3.04493
3.04068
3.03606
3.02981
3.02153
3.01345
3.00532
2.99705
2.99073
2.9851
2.98242
2.97754
2.97612
2.97599
2.98006
2.98422
2.99246
3.00249
3.01839
3.02843
3.04474
3.05559
3.06739
3.07395
3.07072
3.0725
3.08017
3.09735
3.12244
3.14764
3.17485
3.19182
3.20036
3.2052
3.20007
3.20285
3.21914
3.23561
3.25007
3.25423
3.2635
3.26951
3.28451
3.29748
3.30981
3.31865
3.32582
3.32792
3.32728
3.32271
3.31574
3.30793
3.29652
3.2888
3.27563
3.26164
3.23938
3.21357
3.18981
3.16872
3.14517
3.13644
3.14998
3.17203
3.14444
1.66151
1.38179
1.05416
0.477852
0.303181
0.462119
0.924499
1.47402
1.64735
1.45077
1.37597
1.13699
0.690995
0.43013
0.599909
0.991134
1.41563
1.7958
1.76885
1.49997
1.29346
0.928177
0.52101
0.48425
0.713039
0.814479
1.10686
1.24283
1.30571
1.23154
2.04024
2.86843
3.03792
3.08346
3.15118
3.17075
3.15945
3.14006
3.11825
3.09876
3.0811
3.06765
3.05711
3.04904
3.04286
3.03498
3.02301
3.00968
2.99759
2.98545
2.97294
2.95978
2.94694
2.93722
2.92869
2.91906
2.90957
2.89861
2.8871
2.8761
2.86441
2.85147
2.8412
2.83554
2.83449
2.83198
2.83236
2.83067
2.83541
2.83388
2.83945
2.8398
2.85145
2.86068
2.8775
2.89646
2.91961
2.94989
2.97216
2.99015
3.01277
3.03014
3.05373
3.07687
3.1054
3.12705
3.14832
3.16641
3.17479
3.1797
3.19293
3.21426
3.23536
3.24372
3.25621
3.26227
3.27706
3.29248
3.30356
3.31095
3.31699
3.31764
3.31597
3.31109
3.30557
3.3007
3.29502
3.29831
3.29459
3.2841
3.2569
3.22805
3.20216
3.18258
3.15996
3.15555
3.16675
3.17104
3.15388
0.157572
0.615362
1.09984
1.71412
1.82219
1.50729
1.26581
0.731132
0.30727
0.460735
0.767844
1.1514
1.62273
1.71504
1.53465
1.38296
1.02983
0.515521
0.370062
0.644424
0.877636
1.2533
1.61023
1.62511
1.37683
1.1958
1.04502
0.890205
0.82087
0.703546
1.19592
2.60413
2.88286
3.02107
3.10172
3.12651
3.11569
3.09336
3.07275
3.04194
3.00666
2.97659
2.95396
2.93673
2.91909
2.90762
2.8842
2.86625
2.84691
2.83062
2.8174
2.80526
2.79307
2.78085
2.76866
2.75568
2.74293
2.73107
2.71626
2.70088
2.6862
2.67016
2.65681
2.6476
2.64433
2.64656
2.64539
2.65328
2.65307
2.6617
2.66067
2.6672
2.67114
2.68213
2.68419
2.70529
2.71799
2.74419
2.77383
2.80366
2.85404
2.88704
2.9345
2.96447
3.0013
3.02959
3.06095
3.09696
3.12274
3.14605
3.16066
3.18544
3.21111
3.2266
3.24569
3.25273
3.2681
3.28547
3.29718
3.30576
3.31009
3.3107
3.30642
3.30019
3.29249
3.29051
3.29066
3.29631
3.29986
3.29114
3.2641
3.23262
3.20456
3.18878
3.17121
3.16589
3.17384
3.16694
3.15971
1.72247
1.37382
1.07807
0.471151
0.209382
0.350784
0.843453
1.42152
1.69763
1.50151
1.44268
1.2176
0.719614
0.300829
0.42221
0.822338
1.18206
1.69304
1.79036
1.47774
1.33032
1.00268
0.527587
0.248757
0.264708
0.433557
0.808311
0.901702
0.884951
0.700092
0.528773
2.18156
2.48716
2.69066
2.80998
2.8015
2.79473
2.77754
2.79089
2.79891
2.80612
2.80758
2.79764
2.78033
2.76854
2.75001
2.72276
2.70575
2.68504
2.6671
2.65037
2.63516
2.61875
2.60332
2.58893
2.57565
2.56258
2.54886
2.53644
2.51873
2.50099
2.48827
2.47137
2.45893
2.45768
2.44513
2.45557
2.44018
2.44325
2.43731
2.44568
2.4409
2.4567
2.45558
2.47771
2.47927
2.5053
2.50789
2.53419
2.55226
2.59961
2.63653
2.71054
2.76657
2.83725
2.90179
2.95437
3.01273
3.04905
3.08785
3.11307
3.14633
3.17775
3.20273
3.2296
3.24229
3.25779
3.27744
3.29144
3.30107
3.3062
3.30611
3.30109
3.29336
3.28543
3.28125
3.28061
3.29146
3.30384
3.29787
3.26924
3.23614
3.20597
3.19111
3.17649
3.17192
3.17669
3.16022
3.16476
-0.0506744
0.423686
0.929598
1.61194
1.78267
1.4469
1.24214
0.666346
0.0829091
0.214779
0.592391
0.890983
1.39329
1.63719
1.49178
1.23796
0.881519
0.251773
-0.199476
0.126389
0.323559
0.713001
1.06248
1.25176
1.081
0.971146
0.760406
0.620826
0.511743
0.394677
0.527833
1.80269
2.4505
2.54011
2.68135
2.62627
2.6034
2.56854
2.56184
2.54589
2.54909
2.54025
2.53431
2.51797
2.50604
2.49577
2.47386
2.45751
2.43658
2.41951
2.40495
2.39217
2.3798
2.36922
2.36203
2.35562
2.35069
2.3431
2.34235
2.33834
2.33634
2.33829
2.32085
2.32937
2.30959
2.32539
2.31565
2.32941
2.31434
2.33496
2.34026
2.33885
2.36793
2.34975
2.37404
2.36026
2.38791
2.37879
2.40471
2.41361
2.45368
2.47191
2.53615
2.55679
2.61295
2.69783
2.7732
2.87019
2.935
3.00286
3.03922
3.08392
3.12808
3.16709
3.20337
3.2293
3.25107
3.275
3.28982
3.30028
3.30531
3.3025
3.29629
3.28753
3.27917
3.27363
3.27307
3.28434
3.29955
3.29788
3.27159
3.24014
3.20746
3.19052
3.17589
3.17076
3.17403
3.15662
3.16472
1.72483
1.33886
1.08783
0.429419
0.106511
0.184202
0.720847
1.30985
1.69021
1.46391
1.41589
1.18136
0.646587
0.02272
0.0606953
0.362139
0.855549
1.51801
1.71455
1.34062
1.19319
0.921506
0.434911
0.0932345
0.131019
0.401028
0.601356
0.82515
0.817801
0.723594
0.592479
1.58695
2.46594
2.48525
2.64413
2.56371
2.54897
2.48055
2.40937
2.35509
2.33003
2.30903
2.29035
2.26409
2.24925
2.23883
2.21674
2.20148
2.18761
2.17802
2.1739
2.17581
2.18096
2.18997
2.20097
2.21191
2.224
2.2309
2.24324
2.24689
2.26442
2.25388
2.27729
2.25716
2.27643
2.25979
2.27814
2.26618
2.29644
2.28457
2.31413
2.29386
2.32136
2.29592
2.32563
2.29902
2.33151
2.29586
2.31173
2.28508
2.30186
2.3024
2.3695
2.39943
2.43588
2.50308
2.56544
2.68801
2.77825
2.88904
2.95041
3.01209
3.06817
3.12155
3.17292
3.2144
3.24372
3.27272
3.284
3.29496
3.29958
3.29754
3.29248
3.28513
3.27751
3.27002
3.26694
3.2737
3.29096
3.29237
3.27367
3.24434
3.20863
3.19036
3.17241
3.16515
3.16735
3.15456
3.15935
-0.261092
0.207378
0.730826
1.43064
1.69431
1.30543
1.17073
0.481909
-0.278299
-0.195698
0.167796
0.438147
1.0291
1.4512
1.35134
1.02991
0.735468
-0.225269
-1.02931
-0.80688
-0.391641
-0.0185941
0.410954
0.633438
0.600665
0.465605
0.341381
0.1098
-0.0188901
-0.132995
0.0483952
0.92014
1.85246
2.14694
2.14889
2.10439
2.04919
2.04272
2.04423
2.03656
2.02266
2.03476
2.03919
2.0441
2.02895
2.03873
2.0483
2.06249
2.06845
2.07447
2.08497
2.09999
2.11887
2.14128
2.16111
2.18043
2.1975
2.21087
2.22041
2.23338
2.24269
2.24869
2.26481
2.25047
2.26838
2.25052
2.27018
2.25901
2.29118
2.27864
2.31018
2.28847
2.31709
2.29306
2.31598
2.28947
2.31407
2.28145
2.28553
2.25691
2.24848
2.24029
2.24039
2.26601
2.26995
2.34531
2.37993
2.47337
2.55192
2.69327
2.78962
2.88764
2.96966
3.03997
3.11053
3.1716
3.22189
3.26852
3.28131
3.28847
3.2945
3.29466
3.29112
3.28529
3.27789
3.268
3.26205
3.26354
3.28013
3.28358
3.27149
3.24768
3.2108
3.19293
3.16925
3.15612
3.1562
3.15354
3.14861
1.68408
1.28898
1.04269
0.307088
-0.161283
0.0167966
0.588954
1.1636
1.67008
1.35745
1.38097
1.12783
0.612108
-0.191881
-0.339687
-0.0795748
0.716053
1.38881
1.74457
1.40096
1.15579
0.892897
0.518599
0.280186
0.302641
0.392041
0.592982
0.743862
0.954045
1.04424
1.07333
1.19967
2.12974
2.53764
2.48186
2.36273
2.31956
2.27764
2.25377
2.231
2.21215
2.19137
2.17493
2.1594
2.13673
2.11638
2.10639
2.09845
2.09998
2.10378
2.10935
2.12585
2.14649
2.16811
2.18791
2.20124
2.21295
2.22519
2.229
2.24239
2.23867
2.25893
2.25311
2.27194
2.26209
2.28478
2.27569
2.30044
2.28732
2.31367
2.29416
2.32188
2.29718
2.32053
2.29084
2.31483
2.28197
2.3055
2.25125
2.25858
2.21075
2.23609
2.18393
2.21034
2.17136
2.19609
2.17736
2.22748
2.27047
2.43556
2.56646
2.68424
2.81067
2.90612
3.00695
3.09848
3.17251
3.24449
3.27317
3.28401
3.28777
3.29056
3.29085
3.28747
3.28064
3.2677
3.25922
3.25482
3.26591
3.27158
3.26695
3.2553
3.21475
3.19627
3.16583
3.1502
3.14572
3.15259
3.13572
-0.439696
-0.041863
0.44599
1.0568
1.4086
1.19967
1.02349
0.291795
-0.643945
-0.67493
-0.310372
-0.00371417
0.625849
1.00235
1.02626
0.803163
0.564262
-0.209507
-0.931183
-0.849095
-0.44724
0.10292
0.494986
0.764771
0.716653
0.637022
0.557883
0.433133
0.275532
0.147241
0.081153
0.303699
1.3141
2.11297
2.1003
2.08892
2.00333
2.00259
2.03326
2.05009
2.07647
2.07859
2.07276
2.07402
2.06291
2.05292
2.07217
2.08413
2.10294
2.12644
2.15088
2.17433
2.20529
2.23445
2.25921
2.28184
2.30293
2.31923
2.3343
2.34454
2.36582
2.37133
2.39818
2.40012
2.42394
2.42219
2.43481
2.43359
2.42805
2.43555
2.40787
2.42837
2.39324
2.40911
2.36034
2.38021
2.32823
2.35061
2.28557
2.3029
2.23704
2.26202
2.19138
2.19861
2.14322
2.17565
2.11803
2.11692
2.08157
2.17834
2.29196
2.40769
2.57809
2.72574
2.86537
2.98046
3.08655
3.19476
3.25015
3.27562
3.27801
3.28398
3.28811
3.28842
3.28551
3.27391
3.26168
3.25356
3.25861
3.26157
3.25337
3.24864
3.21556
3.20264
3.16628
3.14869
3.14006
3.15183
3.13044
1.62579
1.22056
0.993227
0.374634
-0.0236448
0.164115
0.648878
1.05
1.53538
1.46018
1.36987
1.09184
0.736235
0.330671
0.18761
0.281592
0.768611
1.03696
1.26727
1.18726
1.02285
0.791544
0.531913
0.440665
0.460994
0.546177
0.573434
0.67499
0.703239
0.696531
0.70667
1.15669
2.69836
2.78307
2.57641
2.54968
2.53209
2.52294
2.49597
2.49527
2.46845
2.46694
2.45952
2.46531
2.47373
2.46833
2.48625
2.49897
2.51082
2.52448
2.54108
2.55661
2.56973
2.5827
2.59171
2.59986
2.60527
2.60759
2.60853
2.60839
2.60554
2.60055
2.6017
2.59252
2.59342
2.58428
2.59108
2.58072
2.59291
2.57503
2.58459
2.55635
2.56911
2.52738
2.53455
2.48442
2.48626
2.43191
2.41449
2.40421
2.32851
2.33864
2.25223
2.22908
2.1666
2.17571
2.1374
2.1738
2.1087
2.09318
2.14439
2.24503
2.37601
2.52071
2.67641
2.82899
2.98479
3.12262
3.21412
3.26395
3.26872
3.27499
3.27939
3.28319
3.28537
3.2782
3.26442
3.25069
3.252
3.25347
3.24706
3.24428
3.2174
3.20963
3.16994
3.15015
3.13742
3.15147
3.12819
-0.46458
-0.297263
0.321393
0.757244
0.991053
0.981925
0.878139
0.491089
-0.0819563
-0.189595
0.146692
0.373206
0.76431
0.960164
0.947381
0.85641
0.791502
0.579694
0.371251
0.385998
0.553284
0.705504
0.83655
0.905709
0.838341
0.776277
0.730643
0.692902
0.653381
0.61671
0.720122
1.46608
2.82887
2.84138
2.74359
2.67626
2.6257
2.5953
2.59473
2.57941
2.58547
2.58215
2.58972
2.59508
2.60376
2.59552
2.60771
2.61939
2.63088
2.64315
2.65455
2.66683
2.67777
2.68641
2.69109
2.69199
2.69072
2.68807
2.68125
2.67592
2.66252
2.66049
2.64399
2.6446
2.62851
2.63445
2.62116
2.63301
2.62233
2.63932
2.63162
2.64962
2.63543
2.64672
2.61819
2.62751
2.58362
2.59877
2.53691
2.54706
2.46578
2.4683
2.36523
2.34865
2.23257
2.23266
2.15542
2.21076
2.23122
2.17296
2.12525
2.16282
2.24238
2.34812
2.49577
2.66465
2.8586
3.03654
3.16167
3.2366
3.25549
3.25489
3.26104
3.27251
3.28108
3.28162
3.27085
3.25265
3.24599
3.24697
3.24067
3.23561
3.21856
3.21742
3.17816
3.15304
3.13597
3.15097
3.12745
1.52449
1.16246
0.931503
0.597607
0.415949
0.507679
0.778407
0.918855
1.14519
1.16985
1.10872
0.907238
0.721686
0.573764
0.566778
0.588307
0.738413
0.798244
0.845108
0.859946
0.828324
0.809203
0.721369
0.686834
0.683089
0.691606
0.7066
0.720369
0.74435
0.787147
0.873002
1.48098
2.826
2.80361
2.77589
2.73727
2.7182
2.69929
2.69375
2.6978
2.70067
2.70933
2.71505
2.72158
2.72792
2.73365
2.74559
2.75744
2.76958
2.78222
2.7926
2.8027
2.81148
2.81574
2.81632
2.81719
2.81645
2.81597
2.81444
2.81511
2.81123
2.81348
2.80627
2.81046
2.80437
2.80963
2.80324
2.81003
2.80087
2.81113
2.79752
2.81058
2.78869
2.79805
2.76706
2.77978
2.73901
2.76037
2.70642
2.71486
2.63453
2.62262
2.5171
2.51036
2.39607
2.38343
2.23002
2.22589
2.24635
2.28049
2.21679
2.25876
2.32344
2.37034
2.44693
2.56745
2.74505
2.94494
3.09834
3.19229
3.22844
3.25178
3.25987
3.2576
3.25429
3.25601
3.26149
3.2587
3.2513
3.24205
3.2327
3.22562
3.21178
3.21355
3.1836
3.16258
3.1376
3.1518
3.127
-0.127887
0.19865
0.623577
0.890125
0.950031
0.907478
0.887407
0.781892
0.616638
0.564296
0.703077
0.775006
0.922656
0.986777
0.970714
0.888754
0.862309
0.809712
0.751798
0.731479
0.756948
0.802007
0.821103
0.837573
0.833384
0.817685
0.802391
0.792364
0.794249
0.787454
0.901254
1.78725
2.80293
2.81696
2.81698
2.77877
2.79049
2.79199
2.80391
2.80925
2.81623
2.82361
2.82984
2.83853
2.84619
2.84886
2.85968
2.86836
2.87441
2.87817
2.88047
2.88369
2.88587
2.88892
2.89162
2.89592
2.89819
2.90355
2.90597
2.90815
2.90965
2.91539
2.91539
2.92254
2.92423
2.93947
2.94299
2.96237
2.96146
2.98212
2.97879
2.99672
2.98917
2.99662
2.97745
2.97835
2.94869
2.94756
2.91138
2.90073
2.83945
2.81301
2.70687
2.67542
2.54912
2.54382
2.46255
2.41327
2.28142
2.24873
2.2147
2.21741
2.28579
2.40344
2.50875
2.58714
2.69681
2.88049
3.05714
3.17557
3.2093
3.22357
3.23524
3.24353
3.25133
3.25886
3.26318
3.25351
3.24154
3.23571
3.2334
3.2257
3.21577
3.21595
3.18666
3.17143
3.1377
3.15161
3.12675
1.21581
0.930128
0.799357
0.667481
0.666507
0.680227
0.805116
0.863366
0.924279
0.917608
0.913015
0.851177
0.793679
0.766955
0.776498
0.767501
0.812343
0.825848
0.830347
0.823848
0.821737
0.830717
0.803625
0.795204
0.79195
0.790302
0.791625
0.780535
0.772736
0.751208
0.822254
1.94118
2.8101
2.7899
2.84041
2.81256
2.82799
2.83638
2.84909
2.85471
2.85998
2.86977
2.87709
2.88294
2.88644
2.88939
2.89579
2.90087
2.90711
2.91392
2.92492
2.93654
2.95127
2.96562
2.97825
2.99195
3.00272
3.01326
3.02365
3.03325
3.04401
3.0559
3.07124
3.08541
3.10349
3.11935
3.14182
3.15731
3.17333
3.18141
3.1848
3.19036
3.1877
3.19064
3.17754
3.16465
3.13765
3.11244
3.07183
3.04233
3.00195
2.9775
2.91476
2.87629
2.77167
2.68703
2.58412
2.50202
2.46433
2.44139
2.40657
2.39096
2.39643
2.39181
2.49481
2.63273
2.74171
2.89437
3.05515
3.16062
3.19626
3.21844
3.23616
3.24459
3.24992
3.25739
3.26245
3.25813
3.24541
3.23787
3.23581
3.22544
3.21494
3.20934
3.18781
3.1781
3.1415
3.15336
3.12817
0.46274
0.623387
0.786778
0.907703
0.926269
0.876522
0.870009
0.85623
0.815727
0.792004
0.837513
0.850156
0.888128
0.90642
0.90145
0.864295
0.84325
0.826507
0.810044
0.797463
0.78911
0.794659
0.796681
0.800366
0.804732
0.809535
0.812603
0.815337
0.810614
0.808693
0.86328
2.37009
2.81052
2.8183
2.88282
2.89827
2.92536
2.94647
2.96518
2.98106
2.99262
2.99727
2.99781
3.00031
2.99999
3.00514
3.01602
3.02545
3.03691
3.04989
3.06426
3.07989
3.09595
3.11011
3.1232
3.13542
3.14503
3.15293
3.15996
3.16684
3.17478
3.18381
3.19304
3.20619
3.21472
3.22657
3.23874
3.25471
3.26801
3.2818
3.28634
3.2929
3.28825
3.28338
3.26964
3.2531
3.22968
3.20298
3.16847
3.1327
3.09507
3.06082
3.00907
2.94668
2.86653
2.7516
2.66738
2.59812
2.50742
2.39936
2.33998
2.32841
2.35188
2.41612
2.44841
2.5478
2.70191
2.89302
3.07902
3.1545
3.19062
3.21878
3.23387
3.24117
3.24707
3.25575
3.26242
3.25917
3.25037
3.23973
3.2372
3.22466
3.21026
3.20323
3.18371
3.18024
3.14423
3.15317
3.12639
0.900658
0.821751
0.777729
0.762804
0.778186
0.801534
0.837825
0.864015
0.87752
0.872082
0.872734
0.854146
0.843748
0.842889
0.843371
0.828252
0.833747
0.835499
0.829383
0.818318
0.806201
0.798957
0.79349
0.794213
0.793989
0.795033
0.800036
0.804365
0.799961
0.811264
0.866416
2.59045
2.86753
2.91206
3.00254
3.03379
3.04478
3.05879
3.07193
3.07902
3.0828
3.08957
3.09478
3.09988
3.10477
3.11135
3.12038
3.12824
3.1379
3.14778
3.15886
3.16627
3.17153
3.17437
3.1756
3.1758
3.1762
3.17808
3.18275
3.18928
3.19653
3.20446
3.21131
3.2148
3.22262
3.22762
3.23407
3.24019
3.25257
3.26922
3.27968
3.29144
3.29489
3.29825
3.29146
3.2808
3.2623
3.23895
3.20927
3.17441
3.14028
3.10939
3.07059
3.02228
2.94065
2.83553
2.72736
2.62173
2.54526
2.50001
2.45099
2.42579
2.42198
2.44324
2.50131
2.57195
2.69175
2.9007
3.08432
3.13538
3.17804
3.20518
3.22073
3.23178
3.24261
3.25339
3.26002
3.25771
3.25058
3.24077
3.2379
3.22389
3.20848
3.19819
3.18393
3.18152
3.14756
3.15405
3.12489
0.709269
0.767026
0.826463
0.8662
0.886608
0.879783
0.873364
0.867397
0.860848
0.85333
0.854399
0.850699
0.861859
0.865426
0.86234
0.853084
0.834186
0.818297
0.80778
0.800495
0.792376
0.787355
0.792737
0.797375
0.798121
0.805809
0.828154
0.855215
0.869971
0.896763
1.13636
2.8659
3.01797
3.07531
3.09492
3.10774
3.10927
3.11463
3.12337
3.12926
3.1365
3.14418
3.14992
3.15474
3.16077
3.16724
3.17626
3.18353
3.18818
3.19071
3.19097
3.18911
3.18691
3.18608
3.18699
3.1906
3.19676
3.20488
3.21327
3.22079
3.22657
3.23015
3.23322
3.23147
3.22874
3.22653
3.2229
3.22343
3.22667
3.23524
3.24539
3.26181
3.26888
3.27818
3.2796
3.27489
3.26397
3.24644
3.22478
3.19604
3.1644
3.13054
3.09588
3.05027
2.98587
2.88963
2.75472
2.63901
2.55659
2.49922
2.43366
2.40297
2.41004
2.44704
2.47275
2.53303
2.67675
2.90507
3.07204
3.11868
3.16771
3.19562
3.21152
3.22427
3.23746
3.24886
3.25607
3.25544
3.25058
3.24202
3.23787
3.2233
3.20644
3.19224
3.17984
3.18072
3.15117
3.15435
3.12192
0.804464
0.811963
0.815338
0.834172
0.84744
0.85451
0.869765
0.879692
0.874438
0.869157
0.866375
0.858204
0.852121
0.845688
0.844483
0.839315
0.823324
0.817299
0.809363
0.800399
0.792124
0.780573
0.783229
0.788315
0.789739
0.805919
0.823599
0.827936
0.832036
0.81584
1.67562
2.93705
3.06666
3.10358
3.11376
3.13254
3.13128
3.1349
3.1484
3.15857
3.16434
3.17264
3.18002
3.1852
3.18834
3.18738
3.18495
3.18078
3.1762
3.172
3.17317
3.17924
3.18705
3.19723
3.20865
3.22169
3.23424
3.24477
3.25277
3.25648
3.25758
3.25547
3.25212
3.24537
3.23713
3.22926
3.22285
3.21781
3.21655
3.21699
3.22142
3.2363
3.2419
3.25075
3.25379
3.25554
3.2531
3.24339
3.22802
3.20708
3.182
3.15331
3.12497
3.08494
3.0318
2.9612
2.82176
2.70843
2.60776
2.53927
2.47453
2.43521
2.44104
2.45046
2.46185
2.51542
2.66798
2.90486
3.04463
3.0988
3.15512
3.18611
3.20151
3.21469
3.23024
3.24418
3.25166
3.25219
3.24949
3.24249
3.23773
3.22393
3.20276
3.18739
3.17868
3.17679
3.15382
3.15357
3.11744
0.799233
0.82231
0.845095
0.861962
0.877913
0.878373
0.878672
0.878914
0.869665
0.86496
0.863116
0.858256
0.854517
0.853343
0.842698
0.833706
0.819779
0.806957
0.79492
0.789473
0.778262
0.763003
0.775417
0.78718
0.782524
0.799138
0.84274
0.917056
1.03204
1.14674
2.77515
3.18141
3.24356
3.23083
3.23761
3.23288
3.22851
3.22553
3.22827
3.22642
3.22034
3.21739
3.21499
3.20888
3.20217
3.19359
3.18442
3.18087
3.18054
3.18611
3.1952
3.21177
3.23553
3.26217
3.28095
3.29536
3.30345
3.30846
3.30862
3.30337
3.29222
3.27905
3.26991
3.25922
3.24623
3.23584
3.22438
3.21517
3.20655
3.20279
3.20141
3.21001
3.21383
3.22551
3.23214
3.23783
3.24363
3.23806
3.22365
3.20565
3.18364
3.16013
3.14074
3.11224
3.07104
3.01333
2.88399
2.76791
2.65173
2.56342
2.49824
2.45856
2.45418
2.44859
2.45905
2.51424
2.6737
2.90159
3.02658
3.08725
3.1444
3.17694
3.19113
3.20579
3.22482
3.23996
3.24753
3.24919
3.24787
3.24203
3.23702
3.22552
3.19855
3.18271
3.17723
3.17023
3.1551
3.15279
3.11293
0.824496
0.842111
0.850411
0.862849
0.871642
0.876574
0.880071
0.882891
0.881384
0.872266
0.870213
0.859606
0.851306
0.843437
0.838015
0.828704
0.817974
0.803427
0.790564
0.782495
0.77056
0.760565
0.756871
0.774025
0.777331
0.785177
0.817522
0.843232
0.84244
0.78777
1.49096
2.76397
3.08643
3.17126
3.23641
3.25378
3.26326
3.27054
3.26887
3.25759
3.24622
3.23897
3.23265
3.22551
3.21513
3.20866
3.20947
3.21324
3.22021
3.23199
3.25168
3.27782
3.30058
3.31679
3.32534
3.3302
3.33217
3.33089
3.32691
3.3187
3.30371
3.2906
3.2816
3.27203
3.26055
3.24652
3.23461
3.2193
3.20622
3.19376
3.18807
3.18883
3.1938
3.19922
3.20924
3.21274
3.22745
3.22708
3.21933
3.20486
3.18552
3.1617
3.14149
3.12818
3.10883
3.06176
2.95563
2.84068
2.72224
2.62111
2.54168
2.49587
2.48037
2.47085
2.48363
2.54483
2.69062
2.89294
3.00824
3.07425
3.12643
3.16208
3.17796
3.19757
3.21819
3.23467
3.24257
3.24518
3.2448
3.24168
3.23844
3.22724
3.19682
3.17833
3.17451
3.15904
3.15734
3.15163
3.10887
0.834938
0.854111
0.859872
0.873645
0.884487
0.885529
0.885446
0.885228
0.88337
0.873477
0.868389
0.855765
0.847682
0.837727
0.829631
0.818066
0.800869
0.786342
0.772763
0.767346
0.760569
0.755818
0.738671
0.741503
0.738433
0.705466
0.662351
0.636544
0.536041
0.382171
0.392003
2.18093
2.52094
2.75966
2.94145
3.05102
3.11731
3.17299
3.21906
3.24735
3.25517
3.25977
3.26124
3.25308
3.24222
3.23093
3.22882
3.22965
3.23508
3.24685
3.26824
3.29434
3.31249
3.32369
3.32979
3.33396
3.33684
3.33812
3.33565
3.32886
3.31476
3.30037
3.29131
3.28022
3.26777
3.2545
3.24231
3.23296
3.21809
3.20503
3.18939
3.18063
3.17722
3.18176
3.1934
3.19606
3.20727
3.21276
3.21329
3.20268
3.18735
3.16873
3.14721
3.12786
3.1105
3.08977
3.02862
2.92069
2.80143
2.69423
2.60588
2.53728
2.49852
2.47974
2.48699
2.54071
2.68292
2.86911
2.98329
3.05423
3.10324
3.14696
3.16449
3.18501
3.20769
3.22659
3.23605
3.24008
3.24137
3.24028
3.23816
3.22734
3.19573
3.17171
3.16609
3.14838
3.15613
3.14831
3.10648
0.849106
0.862564
0.871475
0.881392
0.888707
0.889273
0.889097
0.889663
0.886526
0.880213
0.87117
0.861487
0.846013
0.832678
0.823313
0.806213
0.792999
0.777424
0.765779
0.760443
0.753737
0.743545
0.729349
0.705724
0.695001
0.678954
0.637213
0.597923
0.524444
0.422669
0.506792
1.56329
2.19159
2.42682
2.6136
2.78753
2.92794
3.04043
3.14991
3.23124
3.24769
3.2431
3.24444
3.23415
3.21676
3.20896
3.20877
3.2123
3.21824
3.22994
3.2467
3.26836
3.28751
3.29888
3.30743
3.31388
3.32029
3.32554
3.3301
3.33241
3.33034
3.32034
3.30712
3.29499
3.28048
3.26349
3.24821
3.23522
3.22422
3.21294
3.20032
3.1822
3.16593
3.15741
3.15958
3.16321
3.17865
3.18859
3.19432
3.19417
3.18322
3.16704
3.15166
3.13533
3.11779
3.09471
3.05745
2.98743
2.87233
2.75567
2.65024
2.57983
2.55039
2.53301
2.55375
2.59519
2.6838
2.80397
2.93009
3.01856
3.06945
3.12169
3.14751
3.16689
3.19164
3.21397
3.22679
3.23423
3.23822
3.23914
3.23773
3.22591
3.19438
3.16447
3.15668
3.14002
3.15286
3.14408
3.10381
0.860796
0.870539
0.878368
0.884994
0.888205
0.89195
0.892318
0.891451
0.88611
0.877774
0.869468
0.859763
0.84375
0.828385
0.81642
0.799192
0.784513
0.765763
0.755413
0.745025
0.733403
0.71066
0.699204
0.673915
0.632997
0.606742
0.572481
0.500244
0.409278
0.342814
0.450344
1.67021
2.05719
2.17075
2.2636
2.39356
2.51664
2.71468
2.86139
2.99441
3.07692
3.11274
3.12325
3.11507
3.10884
3.10937
3.13091
3.15001
3.168
3.17667
3.18612
3.20018
3.2212
3.23871
3.25485
3.26675
3.27463
3.27762
3.28027
3.28335
3.28735
3.29333
3.29974
3.30045
3.29417
3.28194
3.26568
3.24795
3.23058
3.21381
3.19702
3.17941
3.16447
3.15233
3.14181
3.1433
3.14986
3.15645
3.1589
3.16717
3.16568
3.15802
3.14102
3.12467
3.10712
3.09846
3.07768
3.03107
2.9536
2.83949
2.72989
2.64912
2.56113
2.51268
2.50125
2.54228
2.62104
2.74839
2.87744
2.97575
3.02703
3.08297
3.12415
3.14471
3.1698
3.19592
3.21479
3.22579
3.23216
3.23541
3.23464
3.22332
3.19182
3.15708
3.14743
3.1307
3.14711
3.13828
3.10091
0.870471
0.877522
0.886523
0.893397
0.894251
0.893821
0.892587
0.889934
0.885848
0.8786
0.870315
0.858286
0.844142
0.829197
0.815425
0.793651
0.778669
0.760153
0.737672
0.722734
0.716945
0.690776
0.669484
0.637053
0.594382
0.561607
0.537795
0.494431
0.434924
0.415695
0.528281
1.74136
1.9361
1.87865
1.86617
1.94785
2.10991
2.3492
2.51288
2.66172
2.72144
2.78582
2.85394
2.91887
2.95481
2.97783
3.00544
3.02526
3.03757
3.04967
3.0626
3.07764
3.10066
3.11735
3.13021
3.12622
3.11857
3.10579
3.09973
3.11141
3.1272
3.14162
3.15501
3.17238
3.18988
3.20192
3.205
3.20291
3.19714
3.18841
3.17657
3.16122
3.13785
3.12968
3.10612
3.10314
3.11053
3.11751
3.12636
3.13014
3.13547
3.132
3.12231
3.10696
3.08649
3.0658
3.05156
3.03953
2.99721
2.9238
2.8312
2.75559
2.66153
2.56967
2.55475
2.57102
2.62593
2.70814
2.8164
2.9108
2.97389
3.03239
3.08783
3.11901
3.14458
3.17277
3.19933
3.21471
3.22452
3.23017
3.23123
3.22111
3.19019
3.15178
3.13746
3.12018
3.13909
3.13153
3.09763
0.876832
0.883096
0.890073
0.898158
0.897593
0.894967
0.893565
0.890641
0.88484
0.876916
0.868341
0.857716
0.843432
0.828665
0.814989
0.78649
0.770504
0.754027
0.731772
0.706598
0.695792
0.67628
0.646087
0.612563
0.570918
0.550679
0.530787
0.467586
0.417452
0.397481
0.487801
1.70024
1.84479
1.67342
1.6582
1.8309
2.14043
2.31826
2.44715
2.48571
2.46271
2.35697
2.22398
2.17536
2.10417
2.22103
2.25297
2.42758
2.53297
2.62069
2.67262
2.70107
2.71972
2.73821
2.75833
2.78296
2.79858
2.81538
2.83392
2.85195
2.87683
2.90198
2.92395
2.95099
2.97736
2.99913
3.01436
3.04245
3.06362
3.08067
3.08461
3.08838
3.08002
3.08444
3.0679
3.06303
3.05621
3.05692
3.07101
3.08301
3.08726
3.08476
3.07833
3.06939
3.05673
3.04925
3.02124
2.98797
2.9667
2.93248
2.87146
2.78336
2.6784
2.59634
2.54762
2.54855
2.59124
2.66575
2.76159
2.85348
2.917
2.97781
3.04242
3.08892
3.11783
3.14593
3.17905
3.2007
3.21513
3.22349
3.22662
3.21764
3.18741
3.14486
3.12606
3.10749
3.12813
3.12257
3.09355
0.883286
0.890518
0.89371
0.900322
0.899074
0.895993
0.893658
0.890782
0.881975
0.87542
0.86538
0.855166
0.841262
0.827391
0.8123
0.783852
0.76678
0.750111
0.727073
0.689927
0.663234
0.659821
0.628625
0.595443
0.550858
0.519305