/*--------------------------------*- C++ -*----------------------------------*\
| =========                 |                                                 |
| \\      /  F ield         | OpenFOAM: The Open Source CFD Toolbox           |
|  \\    /   O peration     | Version:  2.2.x                                 |
|   \\  /    A nd           | Web:      www.OpenFOAM.org                      |
|    \\/     M anipulation  |                                                 |
\*---------------------------------------------------------------------------*/
FoamFile
{
    version     2.0;
    format      ascii;
    class       volScalarField;
    location    "1.9";
    object      Bx;
}
// * * * * * * * * * * * * * * * * * * * * * * * * * * * * * * * * * * * * * //

dimensions      [1 0 -2 0 0 -1 0];

internalField   nonuniform List<scalar> 
14161
(
1.00862
1.01073
0.9919
0.944301
0.928295
0.940171
0.949283
0.966713
0.992105
1.00511
0.993731
0.968711
0.941897
0.927317
0.922657
0.935005
0.96305
0.988758
1.00559
1.00225
0.991148
0.960898
0.942993
0.943343
0.957552
0.973461
0.988636
1.00492
1.01886
1.06589
1.22317
1.4068
1.49351
1.50399
1.48349
1.43282
1.3777
1.33976
1.31534
1.30025
1.2915
1.2855
1.27836
1.27175
1.26558
1.25682
1.24647
1.23462
1.22097
1.20586
1.19006
1.17415
1.15961
1.14693
1.13689
1.1294
1.12487
1.1219
1.12118
1.12176
1.1226
1.12354
1.12653
1.128
1.1294
1.12945
1.12618
1.11936
1.10709
1.09188
1.07617
1.06195
1.05152
1.04552
1.04465
1.04817
1.05543
1.0637
1.07242
1.0841
1.09316
1.09867
1.09941
1.09588
1.08903
1.08396
1.0774
1.07038
1.06177
1.05038
1.03431
1.00384
0.953072
0.883554
0.799046
0.709835
0.635025
0.575189
0.529719
0.497763
0.469123
0.438176
0.404037
0.373613
0.351033
0.33793
0.328964
0.319381
0.305488
0.289477
0.273418
0.259932
0.24636
0.232167
0.214392
0.191338
0.150903
0.115498
0.0266181
0.853777
0.825854
0.882407
1.00059
1.07743
1.09372
1.06472
0.980341
0.858785
0.782349
0.775277
0.822081
0.923765
1.01886
1.05111
1.03551
0.979738
0.884074
0.79406
0.770001
0.800809
0.880127
0.959665
0.999931
1.00745
0.996472
0.975769
0.960737
0.953603
0.96092
1.00703
0.942474
0.858041
0.787747
0.745926
0.733842
0.73095
0.729306
0.728195
0.727274
0.729066
0.730982
0.73489
0.739383
0.74307
0.747962
0.752805
0.761327
0.77158
0.783447
0.79641
0.810467
0.825054
0.839374
0.853144
0.866148
0.876735
0.885555
0.891275
0.894929
0.897904
0.900084
0.901325
0.901938
0.902335
0.902139
0.902224
0.904094
0.907925
0.913885
0.92032
0.925939
0.929514
0.928616
0.923577
0.915851
0.906463
0.895057
0.880801
0.864445
0.84548
0.826613
0.805352
0.786804
0.766501
0.748665
0.729857
0.709101
0.684371
0.655199
0.619982
0.575236
0.526497
0.484999
0.448296
0.420837
0.395427
0.372621
0.35631
0.336849
0.319705
0.310563
0.310078
0.310846
0.304644
0.29215
0.274587
0.25905
0.246188
0.235633
0.222472
0.20501
0.18242
0.156564
0.127293
0.099632
0.0713527
0.0362235
0.0145255
1.16045
1.19125
1.14315
0.958064
0.774632
0.726694
0.772848
0.90405
1.10008
1.22665
1.24127
1.17401
1.012
0.838812
0.753561
0.781715
0.881312
1.04364
1.18454
1.23393
1.19544
1.09734
0.970037
0.885078
0.868875
0.89413
0.94115
0.983839
0.995012
0.981432
0.913541
0.633791
0.541945
0.485422
0.483674
0.500524
0.52519
0.546551
0.568114
0.587755
0.606498
0.622637
0.638086
0.652352
0.665714
0.679516
0.694161
0.708771
0.723611
0.738829
0.754176
0.7689
0.782967
0.796052
0.808525
0.820801
0.833066
0.846043
0.85927
0.871619
0.881154
0.888701
0.893901
0.896941
0.898535
0.897831
0.896932
0.894316
0.892898
0.889774
0.885799
0.878404
0.867295
0.850703
0.828775
0.803569
0.777216
0.753287
0.729689
0.703781
0.675506
0.647934
0.617527
0.588789
0.558158
0.530297
0.502306
0.473991
0.442767
0.407954
0.370113
0.337203
0.297207
0.269156
0.242109
0.220063
0.210617
0.20737
0.205086
0.208609
0.210776
0.211969
0.211697
0.209099
0.208225
0.207944
0.205711
0.203593
0.198497
0.189664
0.177768
0.163607
0.146769
0.12718
0.103832
0.082391
0.0585659
0.0473072
0.00639773
0.734181
0.667884
0.761309
0.998339
1.19314
1.22916
1.17302
1.02273
0.782843
0.608001
0.57065
0.657437
0.87047
1.08197
1.16247
1.13713
1.03269
0.838471
0.656577
0.59307
0.635827
0.768393
0.94192
1.05299
1.07682
1.0521
1.00531
0.950116
0.899908
0.854802
0.72621
0.4837
0.43152
0.420994
0.439633
0.460335
0.488137
0.512249
0.535926
0.556921
0.575775
0.594384
0.612902
0.630105
0.647347
0.662413
0.679642
0.694931
0.709726
0.723342
0.735786
0.747958
0.759442
0.770563
0.781158
0.791306
0.800739
0.809058
0.816435
0.820922
0.825465
0.829644
0.83264
0.834305
0.835473
0.832763
0.831703
0.825497
0.820838
0.813661
0.805795
0.798849
0.791989
0.788035
0.786433
0.782736
0.768587
0.749485
0.71891
0.685845
0.649863
0.617156
0.584493
0.553921
0.523033
0.495532
0.466148
0.434718
0.399078
0.359395
0.317381
0.282949
0.248185
0.217605
0.197435
0.194732
0.194079
0.19523
0.195817
0.201602
0.207816
0.210328
0.214015
0.215692
0.211985
0.207403
0.201612
0.194388
0.184021
0.175263
0.164856
0.149741
0.12955
0.104236
0.082996
0.0608175
0.0437978
0.0439628
0.0110074
1.24129
1.29546
1.22354
0.951958
0.682519
0.600554
0.66282
0.854113
1.14161
1.32742
1.36206
1.27961
1.04832
0.783944
0.653549
0.666966
0.795577
1.02775
1.23951
1.31434
1.2842
1.16205
0.974526
0.830554
0.788707
0.816271
0.876944
0.941681
0.986534
0.996498
0.9364
0.65208
0.517226
0.461314
0.471855
0.495727
0.51355
0.532409
0.548141
0.563161
0.578825
0.594866
0.611473
0.627583
0.644123
0.657751
0.674222
0.688332
0.702867
0.716143
0.729315
0.741838
0.753468
0.764659
0.775171
0.785415
0.7962
0.808268
0.821187
0.83723
0.852537
0.868431
0.881599
0.893596
0.90346
0.911883
0.916827
0.919551
0.91762
0.913703
0.904333
0.890384
0.869098
0.84676
0.817394
0.79259
0.765337
0.744136
0.72051
0.697244
0.667277
0.638671
0.607047
0.576045
0.543304
0.512196
0.478907
0.444171
0.406062
0.36553
0.319622
0.285041
0.24484
0.217781
0.202249
0.196881
0.199734
0.207062
0.212726
0.229271
0.239808
0.243588
0.244106
0.241851
0.240965
0.238359
0.232413
0.224642
0.207236
0.1816
0.154481
0.134358
0.112607
0.0873554
0.0655549
0.0461166
0.0297224
0.0330228
0.00943017
0.684647
0.582948
0.678069
0.979243
1.24922
1.31057
1.24141
1.0614
0.762279
0.52579
0.46441
0.555445
0.810771
1.08976
1.22149
1.20455
1.08364
0.85379
0.616526
0.518303
0.545532
0.693098
0.907514
1.07647
1.13468
1.11379
1.06309
0.995304
0.928826
0.876671
0.903099
0.699662
0.593343
0.539391
0.524724
0.531633
0.537378
0.543154
0.551571
0.563
0.576554
0.591875
0.607957
0.625102
0.642284
0.65828
0.678491
0.697184
0.717393
0.737483
0.756043
0.773005
0.788948
0.804298
0.819254
0.834548
0.851316
0.869004
0.886804
0.902235
0.915884
0.92767
0.934911
0.94542
0.952456
0.961792
0.967514
0.974347
0.9781
0.981755
0.978569
0.978484
0.967226
0.958452
0.936882
0.916445
0.882923
0.851838
0.814868
0.785637
0.750647
0.716551
0.680049
0.644023
0.604304
0.567287
0.528934
0.489357
0.450589
0.410742
0.364392
0.32561
0.281534
0.250741
0.231278
0.226118
0.234156
0.242574
0.246363
0.253926
0.260803
0.268127
0.271807
0.267723
0.258094
0.246913
0.233897
0.223294
0.210929
0.190757
0.16031
0.132845
0.110244
0.0902543
0.0637904
0.0440882
0.0248814
0.0260988
0.00933159
1.26531
1.3525
1.27839
0.971406
0.64509
0.528147
0.588934
0.797612
1.12629
1.35969
1.41106
1.32927
1.09322
0.782771
0.595189
0.575221
0.706453
0.961018
1.22633
1.34053
1.32942
1.21264
1.02003
0.835031
0.753356
0.764908
0.816508
0.894345
0.968785
1.03426
1.06372
0.873111
0.756212
0.706381
0.670605
0.659474
0.660245
0.666587
0.672456
0.681649
0.692103
0.705488
0.718292
0.733183
0.746406
0.762078
0.781976
0.799461
0.818303
0.837064
0.856615
0.876044
0.895182
0.91274
0.928613
0.942233
0.953563
0.962804
0.970317
0.978077
0.985584
0.993925
1.00215
1.01332
1.01999
1.03227
1.03717
1.04899
1.05094
1.05981
1.05558
1.06023
1.04993
1.04943
1.03164
1.02294
0.997175
0.977491
0.942086
0.912391
0.871796
0.830432
0.782023
0.73636
0.687943
0.641071
0.594747
0.548851
0.509229
0.471798
0.427103
0.383672
0.335651
0.297387
0.266946
0.250031
0.249063
0.257785
0.2564
0.263007
0.271142
0.276186
0.277199
0.275628
0.269439
0.257647
0.240012
0.217546
0.202058
0.186324
0.157704
0.129404
0.106235
0.091293
0.0651951
0.0470307
0.0256534
0.0247315
0.0106269
0.696508
0.559091
0.616239
0.93309
1.26268
1.36361
1.29526
1.11109
0.798128
0.518402
0.436458
0.516622
0.751855
1.07074
1.26752
1.28336
1.16822
0.948485
0.676329
0.530308
0.524364
0.651731
0.860938
1.07531
1.18146
1.19242
1.15368
1.08574
1.02516
0.98427
1.05799
1.04693
0.975185
0.909847
0.864043
0.856363
0.828038
0.822113
0.811397
0.818021
0.820438
0.832182
0.838996
0.85102
0.859121
0.872915
0.890829
0.904557
0.92023
0.936152
0.953624
0.972864
0.993698
1.01439
1.03474
1.05544
1.07505
1.09274
1.10889
1.12126
1.13127
1.1368
1.1416
1.14445
1.14184
1.14597
1.14055
1.14571
1.13871
1.14549
1.13845
1.14423
1.13504
1.13882
1.12471
1.12423
1.10265
1.09529
1.06303
1.03557
1.00044
0.959736
0.907558
0.857746
0.800138
0.74372
0.6901
0.637949
0.591527
0.548997
0.500818
0.452072
0.398596
0.353026
0.30972
0.28546
0.27557
0.276842
0.275549
0.27713
0.27668
0.275525
0.273684
0.270549
0.266534
0.261669
0.247806
0.226761
0.202572
0.188029
0.158672
0.131893
0.10526
0.0927369
0.0698577
0.0524424
0.0291958
0.0272876
0.0132654
1.24809
1.37274
1.30162
1.00933
0.644955
0.4928
0.544663
0.751281
1.08706
1.36344
1.43442
1.36248
1.15864
0.838302
0.582121
0.522002
0.645695
0.894116
1.19773
1.36929
1.39365
1.29399
1.12839
0.933253
0.81923
0.807362
0.849006
0.92466
1.01071
1.08555
1.13672
1.12525
1.02124
0.991665
0.931713
0.954935
0.945426
0.967256
0.96844
0.988018
0.996688
1.00914
1.01572
1.02285
1.02681
1.03459
1.04694
1.05741
1.0698
1.0826
1.09708
1.11226
1.12834
1.14379
1.15941
1.1752
1.18915
1.20137
1.21012
1.21774
1.22558
1.22579
1.23381
1.22961
1.23496
1.22992
1.23592
1.23163
1.23592
1.23305
1.22922
1.23413
1.22409
1.23045
1.21831
1.2231
1.20665
1.20441
1.18661
1.15711
1.12144
1.09178
1.0391
0.995037
0.929754
0.861048
0.793702
0.726169
0.665234
0.609277
0.554159
0.49941
0.442161
0.39323
0.336625
0.314898
0.295808
0.282751
0.273382
0.270263
0.271083
0.273059
0.274495
0.275624
0.271301
0.264813
0.255382
0.234802
0.204511
0.184389
0.155297
0.133529
0.105113
0.0936466
0.0727577
0.0569547
0.0332453
0.0297693
0.0153126
0.751247
0.573241
0.601842
0.895139
1.26226
1.40368
1.35032
1.177
0.8791
0.564226
0.457053
0.52816
0.726453
1.0665
1.33107
1.39209
1.29132
1.09741
0.825578
0.628162
0.596334
0.697559
0.874313
1.08231
1.21849
1.25547
1.22713
1.17061
1.10173
1.04439
1.03837
1.08726
1.01426
1.05109
0.999283
1.04662
1.0454
1.06723
1.07418
1.08452
1.09612
1.10512
1.11018
1.11812
1.12127
1.1303
1.14275
1.15401
1.16736
1.18076
1.19485
1.20842
1.22139
1.23255
1.24467
1.25586
1.26564
1.27395
1.27948
1.29084
1.29028
1.2989
1.30268
1.30212
1.30681
1.30372
1.30859
1.30335
1.3099
1.30265
1.31114
1.30274
1.30975
1.29862
1.30497
1.29153
1.29342
1.27423
1.26263
1.24423
1.20459
1.18346
1.13333
1.09466
1.03015
0.948427
0.867515
0.776996
0.699279
0.628379
0.566296
0.505123
0.446032
0.392873
0.332794
0.301159
0.273744
0.267278
0.261368
0.264014
0.267613
0.271179
0.27317
0.275278
0.273321
0.265037
0.253247
0.235153
0.205416
0.189348
0.161608
0.144302
0.112544
0.101194
0.080621
0.0656998
0.0405852
0.0354306
0.0188977
1.20626
1.36274
1.30238
1.05099
0.676257
0.489208
0.538161
0.721447
1.0439
1.36571
1.47312
1.40129
1.23424
0.936382
0.637157
0.542827
0.646899
0.855127
1.14643
1.36391
1.41945
1.35002
1.22288
1.06922
0.960536
0.930343
0.947956
0.992801
1.05123
1.1055
1.12043
1.15254
1.07798
1.14776
1.13745
1.19005
1.18393
1.19347
1.18803
1.18928
1.18428
1.1909
1.19088
1.19731
1.20104
1.21098
1.22431
1.23661
1.2493
1.26058
1.27095
1.27952
1.28628
1.29308
1.2999
1.30512
1.31083
1.31393
1.31935
1.32271
1.32108
1.32859
1.32265
1.32895
1.32365
1.3283
1.32274
1.32689
1.32236
1.33031
1.32443
1.33413
1.32554
1.33583
1.32511
1.33493
1.3169
1.32462
1.29674
1.30171
1.2671
1.25732
1.19855
1.15543
1.10609
1.02823
0.956263
0.861204
0.771753
0.687478
0.616563
0.548838
0.485662
0.425157
0.35943
0.313487
0.282097
0.276526
0.27246
0.276094
0.280393
0.283789
0.287351
0.284147
0.279765
0.271322
0.261442
0.247699
0.221278
0.208301
0.181863
0.165299
0.130492
0.116025
0.0926349
0.0764919
0.0494545
0.0415609
0.0216779
0.839172
0.636516
0.640671
0.892746
1.27124
1.44516
1.41284
1.26183
0.997961
0.68192
0.561894
0.616839
0.781492
1.08395
1.37785
1.47936
1.39631
1.24003
1.02954
0.850995
0.808935
0.852464
0.946929
1.07113
1.1672
1.20201
1.19858
1.17272
1.1343
1.09118
1.0725
1.08984
1.00779
1.09421
1.17189
1.18573
1.21466
1.22486
1.2323
1.24068
1.24021
1.25131
1.25577
1.26423
1.26993
1.27451
1.28253
1.28751
1.2935
1.29885
1.30331
1.30699
1.3101
1.31448
1.31714
1.32049
1.32396
1.32586
1.33233
1.33017
1.33856
1.33615
1.34253
1.3398
1.3459
1.34213
1.34717
1.3438
1.34564
1.3435
1.33689
1.34287
1.33458
1.34719
1.3384
1.35561
1.34128
1.35718
1.33694
1.34878
1.32269
1.31383
1.27301
1.21293
1.17666
1.09801
1.04218
0.955816
0.878279
0.791045
0.709234
0.629915
0.555422
0.479648
0.401598
0.33702
0.29208
0.283265
0.273982
0.277364
0.28336
0.286691
0.29044
0.29024
0.283646
0.276326
0.267941
0.266738
0.245004
0.232695
0.208035
0.189496
0.148478
0.127815
0.100787
0.0853446
0.0583031
0.0490041
0.0260047
1.13909
1.31913
1.28734
1.08313
0.731084
0.544364
0.590789
0.738183
1.00534
1.31264
1.43651
1.3814
1.24557
1.02146
0.787522
0.707567
0.766817
0.888986
1.06152
1.20715
1.24596
1.22037
1.15933
1.07641
1.00879
0.974476
0.971462
0.980426
0.994133
1.00345
1.00615
1.04638
1.01315
1.11354
1.21435
1.2444
1.2649
1.27723
1.28237
1.2805
1.28524
1.28327
1.28921
1.29025
1.29485
1.29747
1.3021
1.30459
1.30814
1.31157
1.31449
1.31726
1.31946
1.32303
1.3234
1.32747
1.32698
1.332
1.33037
1.337
1.33565
1.34498
1.34211
1.35083
1.34683
1.35087
1.34589
1.34974
1.34659
1.3451
1.34818
1.34191
1.35007
1.34517
1.35952
1.35158
1.36971
1.35373
1.37179
1.34576
1.357
1.31015
1.31396
1.26176
1.2496
1.1849
1.14402
1.06434
0.985096
0.891585
0.802153
0.719221
0.635686
0.542844
0.452126
0.372875
0.316576
0.302891
0.291923
0.28955
0.290683
0.291879
0.294162
0.29306
0.288595
0.280972
0.272612
0.271987
0.25977
0.247369
0.222253
0.203747
0.164923
0.141838
0.112786
0.0991571
0.0705381
0.0601984
0.0317258
0.957305
0.778547
0.749792
0.937441
1.2766
1.45675
1.4248
1.29199
1.08335
0.870906
0.775335
0.792176
0.891465
1.06742
1.2551
1.31815
1.26595
1.16748
1.04358
0.950455
0.923395
0.939013
0.973626
1.02301
1.07288
1.10772
1.12795
1.1412
1.15493
1.17921
1.20516
1.25291
1.30789
1.28941
1.32383
1.31666
1.31555
1.31488
1.31666
1.31657
1.31921
1.31464
1.31502
1.31269
1.31376
1.31323
1.31534
1.31663
1.3183
1.3203
1.32194
1.32364
1.32595
1.32642
1.3296
1.32976
1.33426
1.33398
1.34047
1.33903
1.34699
1.34352
1.35249
1.34683
1.35513
1.34829
1.35297
1.34472
1.34796
1.34076
1.3462
1.33797
1.34749
1.33872
1.3531
1.34006
1.36027
1.33757
1.36214
1.32886
1.33997
1.29024
1.29588
1.24679
1.24708
1.19505
1.17464
1.12462
1.0668
0.988187
0.901213
0.818074
0.726998
0.631739
0.528789
0.450471
0.372809
0.348572
0.323726
0.302086
0.297009
0.294538
0.294403
0.29309
0.288306
0.281706
0.273106
0.272416
0.265558
0.257224
0.231531
0.213451
0.180942
0.158694
0.127552
0.113668
0.0835657
0.0725354
0.0388493
1.03523
1.2032
1.21421
1.08799
0.853989
0.719039
0.741653
0.83396
0.981464
1.14582
1.21876
1.20928
1.13524
1.01929
0.913125
0.882318
0.90363
0.954822
1.02408
1.07977
1.0979
1.09469
1.07972
1.05658
1.0376
1.02881
1.03008
1.03714
1.05013
1.06516
1.08542
1.1323
1.21688
1.30197
1.31152
1.31638
1.31787
1.31962
1.32391
1.32227
1.32362
1.31693
1.31831
1.31377
1.31688
1.3151
1.31554
1.31519
1.31584
1.3166
1.31748
1.31888
1.32078
1.32191
1.32439
1.32665
1.327
1.33209
1.32919
1.33598
1.33156
1.33917
1.33352
1.34234
1.33413
1.34043
1.32979
1.33229
1.31977
1.3191
1.31735
1.31047
1.31773
1.30818
1.31975
1.30405
1.32242
1.29201
1.31565
1.26911
1.29671
1.25033
1.24378
1.18691
1.18904
1.13607
1.10464
1.0707
1.03865
0.999116
0.935392
0.862467
0.778587
0.693219
0.589235
0.517868
0.436746
0.396688
0.368604
0.336931
0.31412
0.303144
0.294116
0.285605
0.278575
0.274265
0.266716
0.266472
0.26123
0.260704
0.242201
0.227419
0.198164
0.178033
0.145654
0.130808
0.0993883
0.0878668
0.0496046
1.08356
0.940962
0.904146
0.999317
1.18488
1.28246
1.25781
1.17048
1.04567
0.937617
0.897279
0.907888
0.952184
1.02257
1.09216
1.10907
1.09997
1.06774
1.02226
0.989442
0.980605
0.987515
0.9996
1.01624
1.0342
1.05097
1.06484
1.07348
1.07866
1.07796
1.08604
1.18778
1.22033
1.33483
1.33116
1.33433
1.33072
1.32755
1.32833
1.32069
1.32297
1.31624
1.31906
1.3145
1.31693
1.31355
1.3114
1.30638
1.30193
1.2968
1.29288
1.28951
1.28743
1.28364
1.28186
1.27657
1.27662
1.27083
1.27532
1.27034
1.27742
1.27106
1.27847
1.27076
1.27456
1.28112
1.27244
1.27811
1.26329
1.26374
1.24845
1.24842
1.23388
1.23717
1.22202
1.22542
1.2143
1.19625
1.21426
1.16092
1.19191
1.13748
1.15228
1.09756
1.09065
1.03534
0.992645
0.941186
0.905743
0.892244
0.860658
0.816984
0.753983
0.693728
0.604912
0.545151
0.478464
0.424222
0.396397
0.361929
0.32304
0.297328
0.282674
0.271295
0.262258
0.25847
0.25472
0.253518
0.252615
0.254238
0.248634
0.237316
0.211459
0.190217
0.15849
0.142861
0.111524
0.0990008
0.0604764
0.956654
1.08189
1.11103
1.05152
0.939208
0.887606
0.898922
0.939789
1.00188
1.06034
1.0823
1.08004
1.05552
1.01551
0.981365
0.973807
0.983586
0.999463
1.01999
1.0376
1.04636
1.05076
1.05234
1.05292
1.05595
1.06528
1.07895
1.0986
1.12661
1.16459
1.21399
1.28805
1.29601
1.30648
1.33813
1.33194
1.32823
1.32333
1.31079
1.30212
1.29312
1.28134
1.27681
1.26494
1.26012
1.24945
1.23817
1.22747
1.21747
1.20804
1.19902
1.19056
1.18303
1.17553
1.16893
1.16205
1.15761
1.15697
1.15657
1.1598
1.1568
1.16406
1.15457
1.16051
1.14503
1.1475
1.1254
1.12561
1.10048
1.09698
1.07032
1.06132
1.03362
1.0241
0.996259
0.990704
0.972967
0.964346
0.978978
0.95268
0.983403
0.949108
0.963871
0.937269
0.900734
0.890177
0.872836
0.837488
0.787117
0.75044
0.730423
0.69714
0.652086
0.611897
0.557337
0.515077
0.463132
0.419609
0.390659
0.35708
0.320692
0.288735
0.268346
0.253599
0.239315
0.231683
0.229603
0.232804
0.234138
0.241094
0.241667
0.237042
0.216126
0.197214
0.167124
0.151232
0.120509
0.107139
0.0709948
1.11729
1.01598
0.987662
1.01931
1.08463
1.11529
1.10373
1.06899
1.01883
0.976461
0.961655
0.972583
0.990921
1.01416
1.03455
1.04117
1.04035
1.03458
1.02499
1.01818
1.01752
1.01946
1.02464
1.03232
1.04128
1.05189
1.06368
1.07676
1.09158
1.10657
1.15911
1.16879
1.19768
1.19523
1.20915
1.20809
1.20662
1.19717
1.18493
1.1781
1.16332
1.15687
1.14596
1.13667
1.13359
1.124
1.11205
1.102
1.09238
1.08183
1.07195
1.06134
1.05122
1.04071
1.02879
1.01556
0.999239
0.983469
0.965066
0.948726
0.922631
0.902868
0.865884
0.839233
0.797059
0.761645
0.724182
0.694455
0.668602
0.644593
0.623391
0.606094
0.588587
0.57668
0.568323
0.564373
0.570704
0.58233
0.610405
0.644405
0.679832
0.705733
0.714305
0.728284
0.722243
0.703834
0.683111
0.68025
0.665451
0.646596
0.623798
0.604378
0.575155
0.510024
0.469245
0.444567
0.411934
0.380386
0.354191
0.324779
0.29301
0.262242
0.241377
0.229226
0.217992
0.209202
0.206243
0.211373
0.216105
0.22717
0.233171
0.238317
0.222947
0.204844
0.175775
0.159154
0.128952
0.114668
0.0816059
0.982884
1.04104
1.06269
1.03821
0.995379
0.980394
0.984188
0.998118
1.0168
1.03088
1.03345
1.03235
1.02626
1.01636
1.008
1.00802
1.01263
1.01744
1.02369
1.03115
1.03752
1.04226
1.04697
1.05122
1.05799
1.06717
1.07797
1.09112
1.1078
1.11836
1.17137
1.02798
1.05494
1.02952
1.04786
1.04546
1.03698
1.02524
1.02181
1.01076
1.00645
0.997719
0.991647
0.983418
0.978694
0.970069
0.957809
0.947889
0.934869
0.921935
0.907235
0.890998
0.873088
0.854152
0.831582
0.805064
0.770825
0.732168
0.689657
0.647242
0.602379
0.55404
0.506406
0.458436
0.418551
0.383723
0.352052
0.327302
0.298033
0.279217
0.255724
0.241571
0.230779
0.221623
0.223372
0.224123
0.239512
0.255566
0.290427
0.330821
0.390572
0.447734
0.494829
0.503059
0.52073
0.53
0.529343
0.520009
0.517649
0.505866
0.488949
0.478332
0.467575
0.442282
0.398251
0.383373
0.351828
0.331126
0.309342
0.289411
0.268742
0.244885
0.223899
0.212679
0.201379
0.193914
0.189874
0.193853
0.201763
0.214001
0.225547
0.236863
0.226645
0.212461
0.184924
0.168181
0.138099
0.123403
0.0917705
1.07407
1.02631
1.01872
1.02547
1.03992
1.04756
1.04277
1.03207
1.018
1.00564
0.999875
1.00426
1.01056
1.01693
1.0218
1.0255
1.02783
1.02831
1.02895
1.03053
1.03284
1.03665
1.04135
1.04671
1.05274
1.06006
1.06727
1.07498
1.08538
1.08868
1.12281
0.945978
0.915885
0.884141
0.884868
0.866504
0.847359
0.833944
0.818451
0.806318
0.796233
0.785703
0.777576
0.768401
0.7617
0.753861
0.73875
0.727398
0.712959
0.698533
0.681579
0.663964
0.643278
0.62261
0.599817
0.577907
0.555018
0.532456
0.503211
0.475643
0.443678
0.415914
0.380171
0.343538
0.303443
0.268977
0.234263
0.207656
0.179004
0.154966
0.135441
0.116452
0.107093
0.0989019
0.0955103
0.0952302
0.104782
0.11509
0.142066
0.162943
0.213209
0.262893
0.338327
0.372622
0.400386
0.409001
0.415755
0.418546
0.422073
0.422088
0.409441
0.394053
0.369207
0.34694
0.332753
0.315064
0.289776
0.27896
0.26224
0.249468
0.236649
0.219331
0.20518
0.195915
0.189589
0.183993
0.181212
0.18413
0.190197
0.204103
0.218311
0.233652
0.233308
0.220777
0.19536
0.177049
0.146923
0.130841
0.101352
1.01627
1.04121
1.04985
1.03631
1.019
1.01289
1.01171
1.01477
1.01974
1.02212
1.02174
1.02215
1.02154
1.02021
1.01933
1.02062
1.02326
1.02651
1.03024
1.03412
1.03873
1.04328
1.04774
1.05242
1.05718
1.06079
1.06474
1.06656
1.06692
1.06371
1.06125
0.871203
0.775367
0.726229
0.696306
0.672933
0.648005
0.630149
0.616187
0.606882
0.599426
0.593098
0.587751
0.580408
0.575489
0.566052
0.551114
0.538295
0.522051
0.506497
0.488681
0.472256
0.454161
0.437447
0.419293
0.403206
0.385178
0.372177
0.357483
0.346311
0.334957
0.3262
0.317473
0.30266
0.27525
0.246006
0.210902
0.186195
0.160647
0.140303
0.1143
0.0998829
0.0845471
0.0769648
0.0710886
0.0681958
0.0695372
0.0724854
0.0841051
0.0986715
0.130106
0.169346
0.231004
0.290196
0.328527
0.353044
0.361695
0.366416
0.364785
0.364096
0.360326
0.349448
0.342974
0.299106
0.293992
0.25889
0.255995
0.249442
0.234897
0.225658
0.215705
0.202268
0.193064
0.184819
0.180122
0.176315
0.174406
0.175943
0.183262
0.195537
0.213746
0.230037
0.23915
0.228422
0.20596
0.186158
0.156196
0.140587
0.111949
1.05215
1.02697
1.02891
1.02755
1.02832
1.02769
1.02488
1.02279
1.02024
1.01741
1.01703
1.01784
1.02031
1.02261
1.02534
1.02693
1.02904
1.03169
1.03449
1.03747
1.04125
1.04624
1.05123
1.05542
1.05886
1.06081
1.06413
1.06601
1.06383
1.07455
1.01741
0.813748
0.656263
0.539249
0.496889
0.471703
0.454669
0.4475
0.443837
0.442656
0.439624
0.43493
0.42813
0.420416
0.413604
0.405414
0.395367
0.387138
0.379571
0.373603
0.366132
0.361222
0.35373
0.349439
0.340727
0.335253
0.327718
0.325029
0.321244
0.319872
0.317267
0.316106
0.314889
0.309926
0.303358
0.294693
0.269071
0.24726
0.222497
0.203338
0.175911
0.156225
0.130033
0.110728
0.0946874
0.0825142
0.0764523
0.0748736
0.0814519
0.0884946
0.105698
0.129174
0.190309
0.249795
0.297827
0.324816
0.342169
0.349738
0.351887
0.350605
0.348075
0.343368
0.330284
0.294096
0.278173
0.246776
0.251228
0.241066
0.232778
0.224904
0.215018
0.201024
0.191764
0.182954
0.177164
0.1732
0.170824
0.173547
0.177553
0.19191
0.208588
0.229273
0.244126
0.237806
0.217537
0.19703
0.166759
0.152214
0.121382
1.03846
1.03581
1.03761
1.03302
1.02521
1.02039
1.01939
1.01981
1.02131
1.02202
1.02311
1.02325
1.02407
1.02507
1.02614
1.02793
1.02952
1.0327
1.03625
1.03989
1.04351
1.04646
1.04918
1.05098
1.0517
1.05157
1.04902
1.04673
1.04704
1.05944
0.873144
0.648102
0.535079
0.472974
0.435441
0.407567
0.391421
0.380459
0.37221
0.362176
0.351758
0.341614
0.331524
0.322029
0.313419
0.306321
0.297264
0.291095
0.283851
0.279965
0.275622
0.274553
0.27181
0.274336
0.275512
0.281625
0.286117
0.291992
0.296515
0.302832
0.307325
0.31427
0.319476
0.327018
0.329266
0.333987
0.333087
0.326998
0.314363
0.302693
0.286164
0.265411
0.236708
0.206827
0.178125
0.152655
0.132935
0.119882
0.115526
0.114874
0.126851
0.139652
0.181112
0.235765
0.304006
0.33372
0.352631
0.359415
0.365026
0.364831
0.364058
0.361037
0.34959
0.313984
0.278885
0.254047
0.253729
0.247485
0.239959
0.234428
0.222119
0.209203
0.199059
0.189245
0.181426
0.176126
0.172657
0.174504
0.178174
0.18981
0.204156
0.228224
0.244632
0.247605
0.233989
0.208284
0.1783
0.163579
0.131503
1.04149
1.03265
1.03101
1.02898
1.02526
1.024
1.02261
1.022
1.02238
1.02286
1.02327
1.02495
1.02651
1.02798
1.02969
1.03181
1.03397
1.03639
1.03928
1.04292
1.04709
1.05169
1.05575
1.0606
1.06587
1.07031
1.07292
1.07165
1.05995
1.05308
0.783793
0.611747
0.504208
0.440562
0.399508
0.378701
0.371523
0.35911
0.345695
0.33037
0.317707
0.307131
0.299821
0.293868
0.289256
0.284557
0.2782
0.273469
0.267171
0.261776
0.257313
0.254812
0.252759
0.253794
0.257144
0.263724
0.269937
0.277192
0.283523
0.2927
0.301839
0.314106
0.323776
0.337312
0.347445
0.359696
0.371457
0.379492
0.385216
0.387011
0.382205
0.373434
0.35786
0.336068
0.309881
0.278321
0.245908
0.217948
0.199712
0.186409
0.187992
0.190772
0.214811
0.248883
0.321022
0.369754
0.399666
0.410146
0.414404
0.410562
0.409212
0.408022
0.402234
0.371191
0.311051
0.293011
0.277771
0.271857
0.263988
0.256195
0.241759
0.227615
0.215531
0.203392
0.19279
0.184832
0.179519
0.179269
0.181604
0.191283
0.204113
0.228475
0.245237
0.257601
0.249489
0.218091
0.190388
0.177785
0.143871
1.03571
1.03218
1.03313
1.03184
1.02685
1.02331
1.02193
1.02182
1.0226
1.02371
1.02477
1.02664
1.02831
1.03039
1.03208
1.03397
1.03638
1.03897
1.04198
1.0455
1.04854
1.05128
1.0521
1.05027
1.04357
1.02838
1.00082
0.95189
0.873136
0.714404
0.563196
0.461966
0.410179
0.360928
0.340668
0.325268
0.314298
0.296326
0.271685
0.255207
0.240038
0.232185
0.228138
0.226903
0.226939
0.225339
0.223142
0.220208
0.216292
0.212887
0.210363
0.209248
0.20935
0.21116
0.213891
0.218282
0.224756
0.233447
0.244309
0.257373
0.272102
0.288834
0.304485
0.324451
0.345878
0.36962
0.393969
0.419347
0.438195
0.453209
0.46029
0.461295
0.455311
0.443156
0.426829
0.406853
0.380121
0.346239
0.318483
0.297273
0.283938
0.278031
0.285084
0.306103
0.355461
0.430873
0.486224
0.513606
0.521279
0.523866
0.523271
0.524143
0.52216
0.4881
0.398663
0.365724
0.331893
0.320688
0.309904
0.29357
0.273694
0.254664
0.237997
0.222805
0.208713
0.197531
0.189395
0.186165
0.1867
0.193721
0.204481
0.227938
0.245108
0.264309
0.255979
0.237799
0.20716
0.196916
0.157712
1.03591
1.03132
1.03143
1.03092
1.02763
1.0246
1.02323
1.02314
1.02335
1.02457
1.02634
1.02854
1.03017
1.03219
1.03448
1.03636
1.03922
1.04263
1.04559
1.04929
1.05418
1.0593
1.0658
1.07318
1.08338
1.09919
1.12443
1.16402
1.21801
1.32348
1.09855
0.968929
0.781173
0.618038
0.488011
0.387361
0.298564
0.238282
0.215224
0.199714
0.19342
0.188189
0.185482
0.182865
0.180633
0.179428
0.17835
0.178735
0.180141
0.182543
0.185761
0.189807
0.194754
0.200209
0.206245
0.212775
0.220089
0.228552
0.239399
0.251497
0.267136
0.285557
0.307143
0.331414
0.358301
0.385028
0.413662
0.445582
0.475324
0.501326
0.520161
0.531165
0.532241
0.527565
0.518031
0.503178
0.492347
0.471425
0.44945
0.425105
0.40489
0.395183
0.38932
0.402237
0.426103
0.478261
0.549752
0.609929
0.646053
0.66421
0.67028
0.672475
0.6616
0.615721
0.518018
0.458662
0.406987
0.378757
0.362181
0.335614
0.308491
0.283706
0.262966
0.24528
0.228571
0.214203
0.202794
0.196593
0.194342
0.198818
0.207105
0.229126
0.247254
0.270069
0.26571
0.257913
0.223726
0.213215
0.171967
1.03243
1.03082
1.03137
1.03051
1.0282
1.02547
1.02387
1.02382
1.02362
1.02474
1.02603
1.02784
1.0302
1.03258
1.03563
1.03869
1.04187
1.04525
1.04859
1.05263
1.05813
1.06299
1.06827
1.07438
1.08096
1.08707
1.09172
1.0932
1.09766
1.11694
1.19208
1.057
0.91221
0.757872
0.618263
0.498194
0.414737
0.356995
0.32027
0.307635
0.305344
0.305849
0.305096
0.30146
0.297389
0.291576
0.284989
0.281678
0.278365
0.278999
0.28148
0.284231
0.288326
0.292176
0.296279
0.30197
0.307987
0.316258
0.325587
0.337544
0.351588
0.36904
0.388599
0.409281
0.433087
0.454544
0.475688
0.499258
0.519591
0.545746
0.563201
0.586632
0.596537
0.603333
0.6011
0.598544
0.589592
0.587156
0.574082
0.558982
0.53717
0.517825
0.504555
0.508852
0.52377
0.565505
0.614869
0.690978
0.742755
0.780927
0.803156
0.813468
0.804797
0.751528
0.638548
0.554146
0.484951
0.43792
0.4134
0.379979
0.347872
0.3173
0.292438
0.270914
0.251565
0.23363
0.218302
0.207994
0.203268
0.204607
0.211061
0.231256
0.250704
0.27505
0.277278
0.271095
0.240682
0.228679
0.186423
1.03017
1.02841
1.02959
1.02973
1.02868
1.02678
1.0256
1.02454
1.02448
1.02494
1.02609
1.02799
1.03059
1.0334
1.03673
1.04006
1.04346
1.04719
1.05151
1.05626
1.06218
1.06824
1.07727
1.08705
1.09964
1.11579
1.13605
1.16039
1.18827
1.22013
1.29633
1.1461
1.05265
0.965286
0.892455
0.814408
0.756556
0.704718
0.689033
0.67717
0.674882
0.671492
0.667283
0.661531
0.650739
0.643296
0.633597
0.625892
0.621905
0.618402
0.614733
0.610951
0.607571
0.60683
0.608526
0.613233
0.61735
0.622781
0.624791
0.624968
0.622751
0.622532
0.619795
0.62226
0.622558
0.626172
0.624648
0.632556
0.6314
0.645794
0.646814
0.662868
0.669814
0.676392
0.681427
0.682197
0.68262
0.679172
0.678519
0.676936
0.664883
0.646708
0.629777
0.61639
0.611924
0.626294
0.647372
0.696463
0.754793
0.811726
0.850701
0.862253
0.858449
0.823994
0.730117
0.636607
0.544818
0.479804
0.441854
0.405671
0.369628
0.337473
0.312043
0.287993
0.267103
0.24744
0.230793
0.218156
0.211972
0.211848
0.216827
0.23467
0.255509
0.281654
0.288796
0.282042
0.257649
0.243426
0.200176
1.02842
1.02704
1.02955
1.02957
1.02846
1.02794
1.02674
1.0252
1.02542
1.02558
1.0269
1.02837
1.03063
1.03332
1.03691
1.04119
1.04533
1.04942
1.05433
1.05962
1.06545
1.07357
1.08311
1.09356
1.10545
1.11999
1.1343
1.1487
1.16238
1.18453
1.27304
1.24765
1.26811
1.30291
1.34145
1.40495
1.37788
1.38652
1.30018
1.22695
1.14342
1.07986
1.02667
0.984798
0.956703
0.938924
0.937593
0.952561
0.969461
0.998945
1.0293
1.06175
1.08855
1.10831
1.11861
1.1101
1.10551
1.08291
1.06681
1.03883
1.01125
0.983361
0.954239
0.928501
0.898262
0.875178
0.84674
0.82654
0.806858
0.798471
0.786143
0.788028
0.781967
0.775176
0.775297
0.770708
0.772313
0.772941