/*--------------------------------*- C++ -*----------------------------------*\
| =========                 |                                                 |
| \\      /  F ield         | OpenFOAM: The Open Source CFD Toolbox           |
|  \\    /   O peration     | Version:  2.2.x                                 |
|   \\  /    A nd           | Web:      www.OpenFOAM.org                      |
|    \\/     M anipulation  |                                                 |
\*---------------------------------------------------------------------------*/
FoamFile
{
    version     2.0;
    format      ascii;
    class       volScalarField;
    location    "1.9";
    object      Bz;
}
// * * * * * * * * * * * * * * * * * * * * * * * * * * * * * * * * * * * * * //

dimensions      [1 0 -2 0 0 -1 0];

internalField   nonuniform List<scalar> 
14161
(
1.40613e-14
1.34968e-14
1.28272e-14
1.18927e-14
1.15222e-14
1.14579e-14
1.11055e-14
1.06359e-14
1.02363e-14
9.84769e-15
9.51875e-15
9.08389e-15
8.94908e-15
8.60299e-15
8.64102e-15
8.63105e-15
8.80181e-15
8.36458e-15
8.37605e-15
8.1444e-15
7.95521e-15
7.6524e-15
7.54062e-15
7.56452e-15
7.44736e-15
7.43381e-15
7.1279e-15
6.95859e-15
6.56734e-15
7.45574e-15
2.0434e-14
4.90074e-14
5.28628e-14
5.44154e-14
5.20653e-14
4.97599e-14
4.10621e-14
3.59949e-14
3.37932e-14
2.90384e-14
2.49101e-14
2.39312e-14
2.43955e-14
2.32612e-14
2.36047e-14
2.26256e-14
2.18311e-14
2.04273e-14
1.87563e-14
1.72907e-14
1.56747e-14
1.41691e-14
1.32883e-14
1.22799e-14
1.10944e-14
1.06801e-14
1.08708e-14
1.10724e-14
1.08092e-14
1.06171e-14
9.83908e-15
9.42978e-15
9.06589e-15
8.70116e-15
8.93994e-15
9.23859e-15
9.48272e-15
9.75541e-15
9.83949e-15
9.8015e-15
9.49532e-15
9.26089e-15
9.24221e-15
8.5217e-15
7.77473e-15
7.37502e-15
7.15755e-15
7.30532e-15
7.27747e-15
7.06646e-15
7.19082e-15
7.14953e-15
7.29002e-15
7.62954e-15
7.90076e-15
8.02324e-15
7.91982e-15
7.75508e-15
7.43979e-15
7.16033e-15
6.9569e-15
7.10357e-15
7.51165e-15
8.08004e-15
8.74395e-15
9.25362e-15
9.84869e-15
9.63703e-15
9.48643e-15
9.08301e-15
8.69158e-15
8.61609e-15
8.25728e-15
7.57582e-15
6.99204e-15
6.72986e-15
6.4554e-15
5.94758e-15
5.38443e-15
5.52719e-15
5.61682e-15
5.46398e-15
5.19386e-15
4.8757e-15
4.49717e-15
4.18326e-15
3.86313e-15
3.7737e-15
3.70511e-15
1.60467e-14
1.46362e-14
1.40148e-14
1.40486e-14
1.46961e-14
1.47883e-14
1.45206e-14
1.36255e-14
1.22212e-14
1.13065e-14
9.85147e-15
9.45638e-15
9.46551e-15
1.00322e-14
1.00735e-14
1.00695e-14
1.00276e-14
9.716e-15
9.16462e-15
8.55143e-15
8.36501e-15
8.20569e-15
8.41888e-15
8.58179e-15
8.60176e-15
8.53867e-15
8.51781e-15
8.19713e-15
8.55376e-15
1.15127e-14
2.69831e-14
3.926e-14
4.83194e-14
4.134e-14
3.68753e-14
3.29495e-14
2.95093e-14
2.81615e-14
2.52901e-14
2.12546e-14
1.82718e-14
1.74197e-14
1.76237e-14
1.64179e-14
1.54741e-14
1.45939e-14
1.36087e-14
1.25942e-14
1.15057e-14
1.06217e-14
1.00378e-14
9.62799e-15
9.48182e-15
9.5968e-15
9.68207e-15
9.75922e-15
1.00263e-14
1.00313e-14
9.83848e-15
9.56795e-15
9.24892e-15
8.94216e-15
8.70788e-15
8.62011e-15
8.526e-15
8.46073e-15
8.52737e-15
8.64433e-15
8.71038e-15
8.80711e-15
8.90509e-15
9.08787e-15
9.19175e-15
9.28606e-15
9.67034e-15
9.91476e-15
1.02927e-14
1.05995e-14
1.08154e-14
1.09208e-14
1.0775e-14
1.05996e-14
1.03147e-14
9.74282e-15
9.59167e-15
9.04985e-15
9.05551e-15
9.33416e-15
9.75784e-15
9.87466e-15
1.02052e-14
1.02869e-14
1.01103e-14
9.95552e-15
9.68036e-15
9.47792e-15
8.64274e-15
8.76149e-15
9.37393e-15
9.12702e-15
8.37714e-15
7.30833e-15
6.73926e-15
6.65536e-15
6.61627e-15
6.05332e-15
5.67356e-15
5.68844e-15
5.82436e-15
5.72448e-15
5.44223e-15
5.1731e-15
4.78359e-15
4.38565e-15
4.29219e-15
4.28737e-15
4.03714e-15
3.69742e-15
3.2442e-15
1.40697e-14
1.59342e-14
1.62922e-14
1.43511e-14
1.14101e-14
1.03083e-14
1.03376e-14
1.08686e-14
1.16087e-14
1.39862e-14
1.46045e-14
1.42329e-14
1.36243e-14
1.25431e-14
1.08706e-14
1.02962e-14
1.0275e-14
1.02422e-14
1.0992e-14
1.17471e-14
1.17794e-14
1.13292e-14
1.03247e-14
9.78669e-15
8.57042e-15
8.31507e-15
8.00416e-15
8.04458e-15
8.40433e-15
1.17917e-14
3.05415e-14
3.34188e-14
3.37854e-14
2.24801e-14
2.10112e-14
2.01165e-14
1.9323e-14
1.88426e-14
1.73977e-14
1.50346e-14
1.25734e-14
1.02384e-14
8.84062e-15
7.76255e-15
7.65139e-15
7.63828e-15
7.86473e-15
8.48223e-15
8.88963e-15
9.2577e-15
9.43091e-15
9.47439e-15
9.34935e-15
8.96808e-15
8.59822e-15
7.97222e-15
7.43263e-15
6.97472e-15
6.55455e-15
6.1809e-15
6.10299e-15
6.10892e-15
5.95954e-15
6.11317e-15
6.34253e-15
6.53897e-15
6.87518e-15
7.00879e-15
7.28157e-15
7.56735e-15
7.89867e-15
8.11828e-15
8.28856e-15
8.43704e-15
8.49432e-15
8.57092e-15
8.63087e-15
8.65805e-15
8.69388e-15
8.45012e-15
8.24179e-15
8.16373e-15
8.17377e-15
7.99327e-15
8.44497e-15
8.35825e-15
9.03672e-15
9.08713e-15
8.98005e-15
8.99568e-15
8.1135e-15
8.8619e-15
9.36178e-15
8.80683e-15
8.8949e-15
8.88634e-15
8.79856e-15
8.20076e-15
7.48745e-15
7.19593e-15
6.90846e-15
6.37322e-15
6.06735e-15
5.90678e-15
5.8171e-15
5.69699e-15
5.47362e-15
5.27601e-15
5.06579e-15
4.90036e-15
4.75751e-15
4.5069e-15
4.2379e-15
3.97282e-15
3.93215e-15
3.72551e-15
3.49159e-15
3.54662e-15
3.02074e-15
1.544e-14
1.2131e-14
1.07822e-14
1.15407e-14
1.33628e-14
1.36314e-14
1.33156e-14
1.23187e-14
1.06602e-14
8.79968e-15
6.95174e-15
6.53849e-15
6.93258e-15
7.82835e-15
8.41632e-15
8.46806e-15
8.35414e-15
7.88906e-15
6.99132e-15
5.98229e-15
5.73988e-15
5.63935e-15
5.89545e-15
6.62683e-15
6.95854e-15
6.96201e-15
7.0222e-15
5.83756e-15
7.76576e-15
4.59057e-15
2.68592e-14
2.96861e-14
2.51358e-14
1.8087e-14
1.4271e-14
1.2697e-14
1.13595e-14
1.03732e-14
8.7419e-15
7.55387e-15
6.53898e-15
5.92031e-15
5.74917e-15
5.71882e-15
6.03354e-15
6.26111e-15
6.32041e-15
6.40193e-15
6.45624e-15
6.36959e-15
6.27635e-15
6.03118e-15
5.78177e-15
5.52778e-15
5.22955e-15
4.91181e-15
4.69844e-15
4.46145e-15
4.37934e-15
4.36401e-15
4.28833e-15
4.51149e-15
4.62818e-15
4.81908e-15
4.97491e-15
5.21957e-15
5.50396e-15
5.73228e-15
6.10305e-15
6.30855e-15
6.55406e-15
6.68766e-15
6.80885e-15
6.83479e-15
6.82025e-15
6.83045e-15
6.81737e-15
6.75612e-15
6.62662e-15
6.62207e-15
6.5652e-15
6.5674e-15
6.48282e-15
6.38344e-15
6.45586e-15
6.22151e-15
6.45102e-15
6.20385e-15
6.56064e-15
6.45578e-15
6.53047e-15
8.00346e-15
7.79022e-15
7.82075e-15
7.99709e-15
7.94214e-15
7.52911e-15
6.99869e-15
7.07703e-15
6.78127e-15
6.49018e-15
6.28677e-15
6.09021e-15
5.95658e-15
5.96685e-15
5.7049e-15
5.44273e-15
5.11389e-15
4.88011e-15
4.60078e-15
4.39744e-15
4.145e-15
3.97944e-15
3.75486e-15
3.76077e-15
3.58155e-15
3.28745e-15
3.30377e-15
2.80565e-15
8.0724e-15
9.60631e-15
1.00859e-14
8.54829e-15
6.65224e-15
5.83326e-15
5.76811e-15
6.13194e-15
7.15136e-15
9.33281e-15
9.99427e-15
9.74208e-15
9.09358e-15
8.12478e-15
6.70623e-15
6.04235e-15
5.89919e-15
5.72738e-15
6.61007e-15
7.52834e-15
7.54991e-15
7.34433e-15
6.9591e-15
6.07513e-15
5.2478e-15
5.06398e-15
5.16051e-15
4.37417e-15
4.87644e-15
7.61906e-15
2.46305e-14
2.80023e-14
2.73008e-14
2.13748e-14
1.4819e-14
1.44174e-14
1.24704e-14
1.11766e-14
9.85618e-15
8.50694e-15
7.4686e-15
6.41995e-15
5.71305e-15
5.06961e-15
4.85119e-15
4.67524e-15
4.46303e-15
4.20633e-15
4.23791e-15
4.21533e-15
4.17036e-15
4.22365e-15
4.17121e-15
4.07936e-15
3.91121e-15
3.76269e-15
3.63125e-15
3.47471e-15
3.35018e-15
3.26056e-15
3.2148e-15
3.18805e-15
3.07959e-15
3.04029e-15
3.02235e-15
3.02943e-15
2.99835e-15
2.98899e-15
3.00192e-15
3.15661e-15
3.35764e-15
3.62617e-15
3.87862e-15
4.10825e-15
4.29975e-15
4.43105e-15
4.45977e-15
4.51503e-15
4.46946e-15
4.40726e-15
4.3656e-15
4.4462e-15
4.48977e-15
4.62668e-15
4.73669e-15
4.85491e-15
5.11417e-15
5.10678e-15
5.57253e-15
5.39061e-15
5.72211e-15
6.7073e-15
6.70942e-15
6.96483e-15
7.03246e-15
7.12014e-15
6.73521e-15
6.84812e-15
7.00794e-15
7.24969e-15
6.47353e-15
6.3369e-15
6.25592e-15
6.13219e-15
6.04593e-15
5.7831e-15
5.51181e-15
5.2088e-15
4.95067e-15
4.67399e-15
4.40064e-15
4.00577e-15
3.89867e-15
3.58108e-15
3.31793e-15
3.23769e-15
3.0504e-15
3.1675e-15
2.63614e-15
9.57941e-15
7.17424e-15
6.1629e-15
6.6744e-15
8.07923e-15
8.39971e-15
8.0626e-15
7.31125e-15
6.33274e-15
5.02811e-15
3.79615e-15
3.45849e-15
3.68934e-15
4.17269e-15
4.75236e-15
4.7232e-15
4.59549e-15
4.29549e-15
3.87795e-15
3.19576e-15
2.9107e-15
2.78139e-15
2.86781e-15
3.44567e-15
3.53135e-15
3.46217e-15
3.43225e-15
3.43367e-15
2.86429e-15
4.35043e-15
1.44988e-14
2.23319e-14
2.26885e-14
1.93654e-14
1.52347e-14
1.21283e-14
1.06304e-14
9.64262e-15
8.52373e-15
7.78754e-15
7.14939e-15
6.51451e-15
6.01352e-15
5.56013e-15
5.2638e-15
5.01582e-15
4.87023e-15
4.47848e-15
4.28243e-15
4.08332e-15
3.75088e-15
3.48005e-15
3.14594e-15
2.9094e-15
2.6723e-15
2.51087e-15
2.34179e-15
2.29983e-15
2.20112e-15
2.0893e-15
1.90202e-15
1.7926e-15
1.65658e-15
1.54538e-15
1.45668e-15
1.39708e-15
1.28873e-15
1.27526e-15
1.21269e-15
1.24281e-15
1.22016e-15
1.27602e-15
1.3272e-15
1.48558e-15
1.5998e-15
1.88172e-15
2.09334e-15
2.411e-15
2.60558e-15
2.83468e-15
3e-15
3.29127e-15
3.42388e-15
3.68646e-15
3.67475e-15
3.77606e-15
3.85073e-15
3.9752e-15
4.54257e-15
4.64057e-15
5.29325e-15
6.08228e-15
6.2766e-15
6.76017e-15
6.75724e-15
6.91646e-15
6.60855e-15
6.83923e-15
7.01066e-15
6.94022e-15
6.53721e-15
6.32816e-15
6.22952e-15
6.07697e-15
5.93929e-15
5.83931e-15
5.87917e-15
5.6667e-15
5.44554e-15
5.07077e-15
4.79639e-15
4.22485e-15
3.89133e-15
3.35568e-15
3.10429e-15
2.95684e-15
2.74246e-15
2.89613e-15
2.41167e-15
3.45227e-15
4.13812e-15
4.37217e-15
3.68267e-15
2.86684e-15
2.49008e-15
2.45984e-15
2.55329e-15
2.99028e-15
4.04101e-15
4.26559e-15
4.1706e-15
3.85824e-15
3.41787e-15
2.75569e-15
2.384e-15
2.28307e-15
2.11035e-15
2.54759e-15
2.88188e-15
2.90661e-15
2.82637e-15
2.57474e-15
2.42755e-15
2.03466e-15
1.82687e-15
1.7328e-15
1.81584e-15
1.11109e-15
2.80811e-15
9.11032e-15
1.75245e-14
1.79216e-14
1.51957e-14
1.33038e-14
1.1515e-14
9.8771e-15
8.55992e-15
7.3628e-15
6.31654e-15
5.50364e-15
4.95591e-15
4.38673e-15
4.03975e-15
3.7761e-15
3.39261e-15
3.25902e-15
2.55666e-15
2.16656e-15
1.68779e-15
1.30815e-15
1.08774e-15
9.33197e-16
8.16033e-16
7.25312e-16
6.52595e-16
6.34336e-16
5.70496e-16
5.20648e-16
4.85945e-16
4.63137e-16
4.44233e-16
4.41853e-16
4.42782e-16
4.52127e-16
4.7994e-16
5.26076e-16
5.97485e-16
6.71097e-16
7.43345e-16
8.02777e-16
8.25812e-16
8.50441e-16
8.52477e-16
8.67223e-16
9.5423e-16
9.8674e-16
1.0522e-15
1.08314e-15
1.20767e-15
1.24135e-15
1.53498e-15
1.67526e-15
2.2367e-15
2.43264e-15
2.81024e-15
2.96293e-15
3.14724e-15
3.68499e-15
3.76368e-15
4.52112e-15
5.27967e-15
5.71872e-15
6.17648e-15
6.0936e-15
6.04938e-15
5.84424e-15
6.11862e-15
6.50559e-15
6.72735e-15
6.45287e-15
6.11872e-15
5.9855e-15
5.88253e-15
5.80375e-15
5.72156e-15
5.72115e-15
5.56201e-15
5.43285e-15
4.94478e-15
4.78097e-15
4.49108e-15
4.1946e-15
3.3797e-15
2.9616e-15
2.76744e-15
2.51133e-15
2.59557e-15
2.17731e-15
3.62321e-15
2.71195e-15
2.23447e-15
2.39165e-15
2.99786e-15
3.25956e-15
3.06812e-15
2.67791e-15
2.3285e-15
1.83289e-15
1.3392e-15
1.17857e-15
1.16175e-15
1.32333e-15
1.53423e-15
1.54008e-15
1.49709e-15
1.35159e-15
1.26832e-15
1.01319e-15
8.44921e-16
8.24218e-16
8.13884e-16
8.82429e-16
9.86241e-16
9.66942e-16
9.31032e-16
9.10484e-16
6.98873e-16
9.85988e-16
2.54233e-15
1.38743e-14
1.35071e-14
1.12294e-14
9.18366e-15
7.45942e-15
6.98528e-15
5.43951e-15
4.66819e-15
4.24286e-15
3.73076e-15
3.55154e-15
3.04598e-15
2.89058e-15
2.46106e-15
2.07141e-15
1.89857e-15
1.37476e-15
1.15608e-15
9.45129e-16
8.72384e-16
8.12778e-16
7.68524e-16
7.48238e-16
7.10695e-16
6.66798e-16
6.47178e-16
6.10341e-16
5.59308e-16
5.21514e-16
4.72063e-16
4.35899e-16
3.77755e-16
3.28369e-16
2.49574e-16
2.04612e-16
1.59735e-16
1.28266e-16
1.04519e-16
9.61217e-17
8.98226e-17
1.16089e-16
1.36023e-16
1.88429e-16
2.21016e-16
2.84891e-16
3.19861e-16
3.8255e-16
4.17424e-16
5.54074e-16
5.9521e-16
7.30823e-16
7.67477e-16
1.15776e-15
1.28306e-15
1.78112e-15
2.04634e-15
2.35792e-15
2.85912e-15
2.95881e-15
3.70715e-15
4.47176e-15
5.33687e-15
6.03132e-15
6.35316e-15
6.1523e-15
5.60485e-15
6.1554e-15
6.26441e-15
6.05931e-15
5.83802e-15
5.57741e-15
5.46296e-15
5.34504e-15
5.31353e-15
5.22344e-15
5.26235e-15
5.31596e-15
5.28855e-15
4.98927e-15
4.63282e-15
4.36868e-15
4.0955e-15
3.3892e-15
2.92899e-15
2.66678e-15
2.31169e-15
2.39162e-15
2.05512e-15
8.9249e-16
1.11007e-15
1.13904e-15
9.88465e-16
8.00109e-16
6.78071e-16
6.60969e-16
6.80662e-16
7.36199e-16
9.7167e-16
1.02061e-15
1.00066e-15
9.06394e-16
8.1855e-16
6.4848e-16
5.38716e-16
4.97706e-16
4.61587e-16
5.5231e-16
6.0239e-16
5.95727e-16
5.70719e-16
5.08491e-16
4.86327e-16
3.88577e-16
3.4605e-16
3.27153e-16
3.31701e-16
2.27976e-16
3.9929e-16
1.65798e-15
8.22577e-15
8.77067e-15
7.00649e-15
5.02594e-15
4.09934e-15
3.5277e-15
3.19398e-15
2.74867e-15
2.47444e-15
2.03685e-15
1.85551e-15
1.5562e-15
1.40121e-15
1.1551e-15
9.85894e-16
9.58088e-16
6.02435e-16
5.7689e-16
4.57235e-16
4.19102e-16
3.44356e-16
2.97473e-16
2.30902e-16
1.71631e-16
1.1912e-16
8.3888e-17
5.34449e-17
4.17775e-17
2.6166e-17
3.01052e-17
3.04426e-17
3.34915e-17
3.42708e-17
2.82362e-17
2.35738e-17
1.74196e-17
1.10534e-17
9.10334e-18
9.9416e-18
1.35152e-17
1.90983e-17
2.23745e-17
3.11237e-17
3.57834e-17
5.48872e-17
6.49486e-17
1.24819e-16
1.28811e-16
2.3958e-16
2.80218e-16
3.78801e-16
3.9503e-16
6.7639e-16
7.4037e-16
9.04832e-16
1.07117e-15
1.19927e-15
1.55538e-15
1.66118e-15
2.27236e-15
2.93885e-15
3.9664e-15
4.81836e-15
5.50504e-15
5.47285e-15
5.09945e-15
5.39597e-15
5.53639e-15
5.53946e-15
5.48152e-15
5.31837e-15
5.18422e-15
4.99417e-15
4.87543e-15
4.85099e-15
4.75941e-15
4.98109e-15
5.03311e-15
4.97658e-15
4.81894e-15
4.58807e-15
4.24291e-15
3.507e-15
2.93182e-15
2.61906e-15
2.18e-15
2.2075e-15
1.89033e-15
7.77898e-16
6.1195e-16
4.86865e-16
5.01427e-16
6.27847e-16
7.29783e-16
6.64787e-16
5.58907e-16
4.64821e-16
3.68773e-16
2.59789e-16
2.19889e-16
2.00081e-16
2.26385e-16
2.72148e-16
2.82741e-16
2.67236e-16
2.28393e-16
1.9889e-16
1.57751e-16
1.30453e-16
1.28169e-16
1.26432e-16
1.33423e-16
1.45361e-16
1.42635e-16
1.33461e-16
1.31717e-16
8.17897e-17
1.72027e-16
9.82007e-16
4.8534e-15
4.54811e-15
3.03028e-15
2.12791e-15
1.87221e-15
1.53412e-15
1.38739e-15
1.19955e-15
1.03425e-15
9.07188e-16
7.47949e-16
6.75805e-16
6.3023e-16
4.52729e-16
3.99903e-16
3.94942e-16
2.24397e-16
2.20938e-16
1.45452e-16
9.95856e-17
3.44435e-17
-2.48764e-17
-8.11897e-17
-1.27676e-16
-1.54798e-16
-1.72976e-16
-1.77562e-16
-1.83769e-16
-1.84906e-16
-2.01625e-16
-1.88863e-16
-2.14417e-16
-2.1045e-16
-2.10705e-16
-2.03849e-16
-1.98452e-16
-1.95774e-16
-1.90335e-16
-1.90682e-16
-1.8363e-16
-1.79375e-16
-1.67553e-16
-1.57207e-16
-1.47587e-16
-1.33269e-16
-1.19587e-16
-9.43254e-17
-8.40664e-17
-3.87519e-17
1.06371e-17
6.37669e-17
7.88301e-17
1.90388e-16
2.39674e-16
3.09297e-16
4.78905e-16
5.34292e-16
8.1036e-16
9.45955e-16
1.38965e-15
1.9546e-15
2.93101e-15
3.86027e-15
4.72445e-15
4.92342e-15
4.78393e-15
4.94365e-15
4.91399e-15
4.89823e-15
4.8305e-15
4.69321e-15
4.5598e-15
4.43115e-15
4.3161e-15
4.2406e-15
4.36668e-15
4.34704e-15
4.6639e-15
4.69002e-15
4.44228e-15
4.50123e-15
4.15314e-15
3.47524e-15
2.89437e-15
2.56423e-15
2.07053e-15
2.05091e-15
1.63648e-15
1.3093e-16
1.74983e-16
1.72744e-16
1.4658e-16
1.30566e-16
1.03796e-16
1.01143e-16
1.03725e-16
1.01626e-16
1.31794e-16
1.37648e-16
1.32624e-16
1.18414e-16
1.054e-16
8.47309e-17
6.91059e-17
6.47708e-17
6.5575e-17
7.21206e-17
7.92166e-17
7.4877e-17
7.05807e-17
5.91122e-17
5.91998e-17
4.42027e-17
3.8754e-17
3.7165e-17
4.15743e-17
1.10964e-17
1.17975e-16
8.37122e-16
3.27218e-15
3.0581e-15
2.24075e-15
1.38221e-15
1.16781e-15
9.15506e-16
7.9942e-16
6.83521e-16
6.03229e-16
4.95407e-16
4.3264e-16
3.23569e-16
2.7681e-16
2.16313e-16
1.77957e-16
1.62345e-16
1.15597e-16
9.67815e-17
7.78148e-17
6.84433e-17
6.83545e-17
7.77077e-17
8.99884e-17
1.03837e-16
1.21761e-16
1.30858e-16
1.39942e-16
1.3339e-16
1.42781e-16
1.37029e-16
1.34533e-16
1.33828e-16
1.29032e-16
1.1938e-16
1.11311e-16
1.04355e-16
9.51714e-17
9.06631e-17
8.48297e-17
8.39434e-17
7.68337e-17
7.48144e-17
6.56129e-17
6.17599e-17
4.96194e-17
4.16021e-17
3.01727e-17
2.16568e-17
1.30927e-17
1.16151e-17
1.69848e-17
1.39102e-17
6.06848e-17
7.26392e-17
7.24014e-17
1.55516e-16
1.5264e-16
4.61377e-16
5.52056e-16
8.21818e-16
1.31353e-15
2.10768e-15
3.13128e-15
4.04624e-15
4.46299e-15
4.53001e-15
4.54169e-15
4.46304e-15
4.47799e-15
4.42102e-15
4.30552e-15
4.18459e-15
4.11259e-15
3.95726e-15
4.17919e-15
3.91047e-15
4.12151e-15
4.42686e-15
4.57648e-15
4.44973e-15
4.40941e-15
4.18712e-15
3.68103e-15
3.00912e-15
2.52969e-15
1.98001e-15
1.9231e-15
1.38164e-15
9.48997e-17
8.22817e-17
6.39329e-17
6.30288e-17
7.55007e-17
9.22931e-17
8.11396e-17
6.68937e-17
5.16724e-17
4.19372e-17
2.99421e-17
2.55634e-17
2.45559e-17
2.83713e-17
3.46098e-17
3.4287e-17
3.13203e-17
2.55445e-17
2.05423e-17
1.64022e-17
1.51473e-17
1.53784e-17
1.64192e-17
1.53071e-17
1.57487e-17
2.01652e-17
1.65121e-17
1.52071e-17
1.16922e-17
4.21615e-17
3.65258e-16
1.64314e-15
1.72468e-15
1.45285e-15
8.9553e-16
6.42381e-16
5.77682e-16
4.57782e-16
4.06304e-16
3.52671e-16
2.99555e-16
2.63883e-16
2.09526e-16
2.01117e-16
1.49324e-16
1.48243e-16
1.41986e-16
1.25386e-16
1.16492e-16
9.58226e-17
7.83023e-17
6.54323e-17
5.40514e-17
4.07485e-17
2.79503e-17
1.6683e-17
1.26984e-17
2.52202e-18
1.11586e-18
-9.69551e-18
-9.31032e-18
-2.18871e-17
-1.97532e-17
-2.51525e-17
-2.63375e-17
-3.39016e-17
-3.67981e-17
-4.07572e-17
-4.24094e-17
-4.48101e-17
-4.41693e-17
-4.00403e-17
-3.70923e-17
-2.8234e-17
-2.2693e-17
-1.18461e-17
-5.3876e-18
2.50284e-18
5.67191e-18
1.20806e-17
1.09129e-17
2.60001e-17
2.31146e-17
2.68692e-17
3.86972e-17
1.62701e-17
7.41653e-17
1.99223e-17
3.06222e-16
2.98303e-16
4.37898e-16
8.4267e-16
1.47021e-15
2.39819e-15
3.42097e-15
3.7801e-15
4.20177e-15
4.30995e-15
3.99619e-15
3.87531e-15
3.85414e-15
3.8161e-15
3.81012e-15
3.65134e-15
3.74239e-15
3.50954e-15
3.84822e-15
3.72384e-15
3.90896e-15
4.05688e-15
4.11329e-15
4.2466e-15
3.94332e-15
3.56842e-15
2.9589e-15
2.46983e-15
1.88333e-15
1.82234e-15
1.21587e-15
1.29486e-17
1.67259e-17
1.6224e-17
1.30525e-17
1.10163e-17
9.38552e-18
9.47769e-18
9.85178e-18
1.01729e-17
1.18671e-17
1.218e-17
1.22719e-17
1.12384e-17
1.00872e-17
8.89842e-18
8.03585e-18
8.07022e-18
8.33533e-18
8.94496e-18
8.93156e-18
8.66571e-18
8.30997e-18
7.96964e-18
4.26776e-18
7.3274e-18
8.18007e-18
3.08925e-18
5.90393e-18
-8.82314e-19
1.85358e-17
1.29942e-16
5.8553e-16
7.23777e-16
5.94572e-16
4.41711e-16
2.9721e-16
2.58646e-16
1.9542e-16
1.74143e-16
1.36927e-16
1.15007e-16
8.81743e-17
7.13747e-17
5.89911e-17
5.40639e-17
4.29323e-17
2.91601e-17
2.15735e-17
1.28935e-17
1.43671e-18
-2.89535e-18
-2.55886e-18
-4.27825e-18
-7.91967e-19
-8.02597e-19
4.87062e-19
1.20858e-18
5.32311e-19
1.91116e-18
-1.04048e-19
1.44746e-18
-1.0766e-18
1.31545e-18
7.38785e-19
2.97443e-18
3.63381e-18
4.80139e-18
4.26313e-18
3.8423e-18
3.87392e-19
-2.00508e-18
-7.06646e-18
-9.58192e-18
-1.31337e-17
-1.39951e-17
-1.45145e-17
-1.27651e-17
-1.00744e-17
-6.27612e-18
-2.34929e-18
1.87892e-18
7.40015e-18
1.7667e-17
1.70544e-17
2.88549e-17
1.66361e-17
3.35133e-17
-1.07623e-17
9.22413e-17
1.30468e-16
1.52788e-16
4.99945e-16
9.29154e-16
1.79324e-15
2.7377e-15
3.34072e-15
3.47394e-15
3.57429e-15
3.59714e-15
3.42967e-15
3.30698e-15
3.23803e-15
3.15181e-15
3.32223e-15
3.1765e-15
3.46795e-15
3.3475e-15
3.76494e-15
3.77127e-15
3.94796e-15
4.07441e-15
4.15031e-15
3.94215e-15
3.81157e-15
3.0638e-15
2.48057e-15
1.85495e-15
1.75114e-15
1.17273e-15
7.26713e-18
6.79476e-18
5.62668e-18
5.58729e-18
6.18141e-18
6.91637e-18
6.25174e-18
5.4427e-18
4.37759e-18
3.6407e-18
2.95364e-18
2.78585e-18
2.90329e-18
3.25456e-18
3.68048e-18
3.46131e-18
3.17692e-18
2.72659e-18
2.42034e-18
2.03642e-18
1.96337e-18
1.99776e-18
2.18822e-18
1.40907e-18
3.26753e-18
9.6868e-19
2.94164e-18
2.50122e-18
1.25775e-18
9.41504e-19
8.74635e-17
3.36095e-16
5.63171e-16
3.76706e-16
2.70262e-16
2.33525e-16
1.94188e-16
1.73183e-16
1.59595e-16
1.51268e-16
1.25975e-16
1.10587e-16
8.75643e-17
7.54187e-17
6.5899e-17
5.6786e-17
4.77167e-17
4.13994e-17
3.5004e-17
2.92956e-17
2.49297e-17
2.1732e-17
1.94757e-17
1.75983e-17
1.55658e-17
1.52089e-17
1.52467e-17
1.73446e-17
1.66662e-17
1.71664e-17
1.62666e-17
1.80939e-17
1.72604e-17
1.73149e-17
1.61273e-17
1.55912e-17
1.46819e-17
1.47826e-17
1.48255e-17
1.55935e-17
1.55293e-17
1.56679e-17
1.35269e-17
1.17776e-17
8.57933e-18
6.22862e-18
2.94898e-18
1.8397e-18
-6.01361e-19
2.05229e-19
5.95888e-19
-1.0615e-18
4.97164e-18
1.07021e-18
1.64595e-17
1.47726e-17
1.7096e-17
9.6586e-18
2.17702e-17
7.13866e-17
4.99877e-17
2.13999e-16
5.11041e-16
1.25301e-15
2.32535e-15
2.95368e-15
3.38935e-15
3.47224e-15
3.01559e-15
2.83118e-15
2.88766e-15
2.90885e-15
2.81191e-15
2.80899e-15
2.65838e-15
3.00557e-15
2.88267e-15
3.07603e-15
3.49279e-15
3.76189e-15
3.64604e-15
3.98153e-15
3.93178e-15
3.80607e-15
3.04489e-15
2.46824e-15
1.81807e-15
1.69607e-15
1.18722e-15
9.05854e-19
1.06394e-18
9.9378e-19
8.26374e-19
6.63965e-19
5.81331e-19
6.33038e-19
7.16518e-19
7.4758e-19
8.81987e-19
9.28819e-19
9.95683e-19
1.00662e-18
9.57627e-19
9.06734e-19
9.06133e-19
9.25851e-19
9.11075e-19
8.94645e-19
8.78252e-19
8.60853e-19
8.25666e-19
7.44456e-19
8.20877e-19
5.90361e-19
6.34659e-19
6.0774e-19
4.97526e-19
1.37008e-18
-2.15538e-18
6.65947e-18
2.58967e-18
1.09736e-16
8.65572e-17
9.13864e-17
8.71301e-17
8.07336e-17
7.44581e-17
6.74092e-17
6.98987e-17
6.29229e-17
6.28336e-17
5.31312e-17
5.05452e-17
4.6194e-17
3.96524e-17
3.03375e-17
2.60448e-17
2.2267e-17
1.81739e-17
1.65909e-17
1.67606e-17
1.73429e-17
1.68787e-17
1.32615e-17
1.14999e-17
8.24879e-18
6.58553e-18
3.87014e-18
2.42839e-18
3.63904e-20
-1.00099e-18
-1.73995e-18
-2.04566e-18
-2.25485e-18
-2.26475e-18
-1.93697e-18
-1.53368e-18
-3.59845e-19
1.13458e-18
4.5162e-18
8.54201e-18
1.22822e-17
1.58314e-17
1.8135e-17
1.95886e-17
1.87412e-17
1.79447e-17
1.56915e-17
1.35e-17
1.22424e-17
9.04474e-18
1.10332e-17
2.6366e-18
1.36474e-17
8.11203e-18
1.0644e-17
1.73095e-17
-2.57302e-18
4.60597e-17
5.19314e-17
1.37784e-16
4.14373e-16
8.44937e-16
1.77384e-15
2.26572e-15
2.60114e-15
2.94572e-15
3.32191e-15
3.00176e-15
2.54807e-15
2.56858e-15
2.74096e-15
2.82997e-15
2.66582e-15
2.83061e-15
2.83778e-15
2.77208e-15
3.24447e-15
3.40969e-15
3.83521e-15
3.82759e-15
3.61268e-15
3.69109e-15
3.06821e-15
2.47225e-15
1.81132e-15
1.64408e-15
1.20948e-15
2.44244e-19
2.19521e-19
1.7087e-19
1.96058e-19
2.34369e-19
2.87009e-19
3.0031e-19
2.66755e-19
2.25379e-19
1.59437e-19
9.09435e-20
1.12423e-19
1.47543e-19
1.21457e-19
1.53579e-19
9.54138e-20
6.42682e-20
9.38353e-21
-8.58696e-21
3.75021e-21
-1.16634e-20
-1.21756e-20
-6.02946e-21
-6.44714e-21
-4.35606e-20
-3.75172e-20
-8.99893e-20
-7.0016e-20
-1.70565e-19
-1.2115e-19
-3.04067e-19
-1.60272e-18
1.13759e-17
2.4433e-17
2.96361e-17
3.23426e-17
3.51109e-17
3.83383e-17
4.26485e-17
4.4949e-17
4.42562e-17
4.25193e-17
3.93647e-17
3.51725e-17
3.4738e-17
3.30136e-17
2.71804e-17
2.74397e-17
2.69675e-17
2.44927e-17
2.3014e-17
2.26751e-17
1.98446e-17
1.56642e-17
1.05772e-17
7.93772e-18
5.56069e-18
3.31865e-18
1.6279e-18
2.65828e-19
-1.54473e-19
-4.21774e-19
-7.65154e-20
-6.69328e-19
-5.74073e-19
-1.83421e-18
-2.54769e-18
-5.40008e-18
-6.62758e-18
-1.01404e-17
-1.28331e-17
-1.43807e-17
-1.51304e-17
-1.3845e-17
-1.17235e-17
-8.3071e-18
-4.228e-18
-7.96446e-19
2.75551e-18
3.93729e-18
7.08181e-18
7.45953e-18
1.00522e-17
5.81092e-18
1.03909e-17
3.81995e-18
7.84933e-18
2.26109e-17
3.7104e-18
4.51086e-17
6.89809e-17
1.39232e-16
4.345e-16
7.64171e-16
1.38e-15
1.76853e-15
1.84947e-15
1.83482e-15
2.1341e-15
2.36161e-15
2.12384e-15
1.97934e-15
2.07741e-15
2.26272e-15
2.36246e-15
2.49508e-15
2.60858e-15
2.58904e-15
2.76379e-15
3.09456e-15
3.34564e-15
3.73666e-15
3.74642e-15
3.85486e-15
3.24713e-15
2.56561e-15
1.79902e-15
1.5984e-15
1.21839e-15
-9.24075e-20
-5.02135e-20
-1.2773e-19
-1.70193e-19
-2.22176e-19
-2.10777e-19
-2.0892e-19
-2.15464e-19
-2.00229e-19
-2.1712e-19
-2.26662e-19
-2.42332e-19
-2.50754e-19
-2.52779e-19
-2.80106e-19
-2.80447e-19
-2.89922e-19
-2.67618e-19
-2.65767e-19
-3.39121e-19
-3.75858e-19
-3.25938e-19
-3.58174e-19
-3.57615e-19
-3.73758e-19
-3.67086e-19
-3.49171e-19
-3.48502e-19
-3.42222e-19
-3.96049e-19
-6.36716e-19
2.14322e-20
6.74174e-18
8.03102e-18
1.17231e-17
1.38307e-17
1.62868e-17
1.77998e-17
1.8402e-17
1.69218e-17
1.671e-17
1.50577e-17
1.32737e-17
1.41509e-17
1.40596e-17
9.64351e-18
9.54424e-18
1.15813e-17
7.24689e-18
1.1346e-18
8.17971e-19
3.27987e-18
2.56046e-18
1.32349e-18
3.87042e-18
7.74068e-18
9.2322e-18
9.08028e-18
8.87076e-18
8.83806e-18
9.33382e-18
9.21827e-18
9.46972e-18
9.00495e-18
9.21199e-18
1.00753e-17
1.12171e-17
1.26128e-17
1.41081e-17
1.43935e-17
1.47054e-17
1.12924e-17
9.61543e-18
6.83232e-18
5.65547e-18
4.04032e-18
2.7213e-18
1.41435e-18
-3.0044e-20
-1.65377e-18
5.7705e-19
-6.85631e-21
7.26621e-18
1.84102e-18
9.28987e-18
3.30272e-18
7.42371e-18
2.11892e-17
1.97349e-18
4.54963e-17
1.03777e-16
1.39756e-16
4.3471e-16
7.57443e-16
1.22092e-15
1.42366e-15
1.65353e-15
1.39758e-15
1.51034e-15
1.79725e-15
1.59436e-15
1.52438e-15
1.66016e-15
1.95423e-15
1.96347e-15
2.28957e-15
2.40061e-15
2.47608e-15
2.5681e-15
3.0612e-15
3.06574e-15
3.41191e-15
3.45056e-15
3.62921e-15
3.22503e-15
2.64141e-15
1.82108e-15
1.57016e-15
1.19648e-15
-4.03623e-19
-3.96123e-19
-3.31267e-19
-3.58263e-19
-3.29965e-19
-3.69622e-19
-3.83628e-19
-4.14976e-19
-4.30253e-19
-4.2641e-19
-4.1118e-19
-4.46322e-19
-4.71016e-19
-4.51434e-19
-4.97511e-19
-5.00745e-19
-5.1893e-19
-5.11659e-19
-5.22946e-19
-5.36473e-19
-5.47662e-19
-5.36435e-19
-5.58485e-19
-5.6629e-19
-5.69523e-19
-5.51958e-19
-5.77555e-19
-5.59351e-19
-5.64973e-19
-7.28924e-19
-1.61773e-18
-3.38084e-18
-9.61146e-19
3.22961e-18
4.79697e-18
5.30267e-18
5.80789e-18
6.85956e-18
7.30188e-18
6.83803e-18
6.25809e-18
5.82344e-18
4.5293e-18
3.25066e-18
3.88069e-18
4.08038e-18
2.06912e-18
2.11368e-18
3.76758e-18
3.18212e-18
1.16563e-18
1.39031e-18
2.25014e-18
8.24644e-19
-2.5933e-18
-3.797e-18
-4.33552e-18
-4.40479e-18
-5.13639e-18
-5.61059e-18
-5.40808e-18
-4.96089e-18
-4.8111e-18
-5.07016e-18
-6.07396e-18
-7.95721e-18
-5.64362e-18
-5.33779e-18
-3.80177e-18
-4.1356e-18
-1.44243e-18
1.90332e-18
2.06444e-18
3.77891e-18
7.71595e-18
8.20294e-18
6.22811e-18
2.27279e-18
2.41373e-18
-4.84971e-18
-2.36508e-18
-4.73266e-18
1.50721e-18
1.58286e-18
4.71659e-18
3.83063e-18
6.87374e-18
2.15262e-17
-4.12972e-19
3.97512e-17
9.39067e-17
1.53467e-16
2.84123e-16
6.67324e-16
1.0777e-15
1.21276e-15
1.19496e-15
9.52436e-16
1.09497e-15
1.41151e-15
1.50046e-15
1.39127e-15
1.27355e-15
1.52628e-15
1.62349e-15
2.05725e-15
2.17612e-15
2.41862e-15
2.39621e-15
2.6835e-15
3.00955e-15
3.22923e-15
3.41601e-15
3.63753e-15
3.2912e-15
2.73628e-15
1.86523e-15
1.5468e-15
1.15978e-15
-3.91654e-19
-4.02057e-19
-5.01128e-19
-5.16441e-19
-4.70936e-19
-4.77844e-19
-5.30966e-19
-5.59478e-19
-5.75683e-19
-5.76906e-19
-6.08456e-19
-6.09256e-19
-6.08602e-19
-6.33074e-19
-6.55157e-19
-6.72667e-19
-6.74851e-19
-7.09448e-19
-7.12528e-19
-7.3719e-19
-7.34719e-19
-7.40267e-19
-7.8727e-19
-7.55442e-19
-7.6058e-19
-7.68656e-19
-7.9516e-19
-7.50067e-19
-7.76457e-19
-1.19134e-18
-3.54797e-18
-8.49253e-18
-7.13622e-18
-4.64788e-18
-1.75319e-18
-1.14445e-18
-5.83344e-19
-6.94807e-21
2.88416e-19
8.82444e-19
1.13267e-18
1.08235e-18
1.09233e-18
9.48073e-19
1.16548e-18
7.45197e-19
6.66633e-19
7.08782e-20
4.51526e-19
2.05388e-19
3.25209e-20
1.66608e-19
5.70988e-19
1.89762e-18
1.96069e-18
2.5683e-18
2.46161e-18
2.43668e-18
2.12454e-18
1.20697e-18
1.17438e-18
-9.54303e-20
8.9987e-19
-1.97749e-18
3.54275e-18
-2.05794e-18
2.55339e-18
-5.00922e-19
-2.72868e-18
2.04602e-18
-3.77608e-18
-1.05935e-18
5.26868e-18
8.04369e-19
-5.76192e-20
1.84966e-18
1.73658e-18
7.77853e-19
-4.60614e-18
-4.98879e-18
-4.42278e-18
-9.84121e-18
-1.22954e-18
-3.34719e-18
-5.66918e-19
5.81317e-18
2.41631e-18
1.55213e-17
1.03209e-17
2.87465e-17
9.28778e-17
1.27684e-16
2.78053e-16
4.75547e-16
6.59051e-16
6.3199e-16
1.06705e-15
1.01217e-15
9.17927e-16
1.16138e-15
1.0986e-15
9.07619e-16
9.96816e-16
1.38609e-15
1.48385e-15
1.75793e-15
1.90886e-15
2.11531e-15
2.36208e-15
2.42499e-15
2.65703e-15
3.08187e-15
3.28765e-15
3.47823e-15
3.25876e-15
2.81282e-15
1.89151e-15
1.52319e-15
1.13107e-15
-6.02116e-19
-5.92136e-19
-5.41523e-19
-5.96001e-19
-6.26399e-19
-6.76412e-19
-7.40908e-19
-7.89695e-19
-7.73169e-19
-7.09302e-19
-7.4304e-19
-7.44243e-19
-8.07748e-19
-7.77822e-19
-7.83052e-19
-8.55986e-19
-8.34043e-19
-9.2804e-19
-8.89702e-19
-8.86185e-19
-9.39054e-19
-9.65593e-19
-8.9664e-19
-9.563e-19
-9.47027e-19
-9.59318e-19
-9.3787e-19
-9.08167e-19
-1.06061e-18
-2.05418e-18
-5.95699e-18
-8.45041e-18
-8.04662e-18
-5.78107e-18
-4.79029e-18
-3.17124e-18
-2.06711e-18
-9.03185e-19
-4.21644e-20
-1.64752e-19
5.65466e-20
-1.89601e-20
-2.00034e-19
-3.97556e-19
-9.57653e-20
-3.52016e-19
-2.23267e-19
2.5756e-19
-2.84367e-20
-2.95923e-19
-8.22272e-20
-5.81796e-19
-1.59063e-19
-1.02236e-18
-1.92784e-19
-9.77889e-19
-1.17726e-18
-4.11762e-19
-1.70339e-18
-2.70215e-19
-2.66442e-18
-2.0404e-19
-2.71354e-18
-1.25567e-18
-1.48482e-18
-5.74597e-19
2.88658e-19
-1.79335e-18
2.40357e-18
-1.58239e-18
-1.49041e-18
1.34215e-18
-2.98703e-18
-4.14786e-18
-8.98339e-19
-1.35855e-20
1.2451e-19
-1.83601e-18
-3.29732e-18
-3.49871e-18
-6.7862e-18
-9.23864e-18
-6.31104e-18
-1.03014e-17
-1.57287e-18
-1.29171e-18
-6.51903e-19
1.3712e-17
2.29376e-18
1.90474e-17
6.25336e-17
9.24317e-17
1.88961e-16
3.98569e-16
5.15681e-16
5.23168e-16
9.07196e-16
5.10795e-16
4.91778e-16
8.45888e-16
9.22385e-16
9.82933e-16
1.10507e-15
1.33068e-15
1.29279e-15
1.49965e-15
1.67449e-15
2.05102e-15
2.0894e-15
2.47804e-15
2.41656e-15
3.09564e-15
3.01706e-15
3.2296e-15
3.20088e-15
2.86012e-15
1.91467e-15
1.4998e-15
1.09671e-15
-7.97315e-19
-7.64391e-19
-7.2977e-19
-6.83591e-19
-7.36825e-19
-8.83198e-19
-8.29244e-19
-8.59813e-19
-8.77662e-19
-9.23118e-19
-9.5027e-19
-1.01325e-18
-9.95184e-19
-1.09082e-18
-1.00762e-18
-1.02828e-18
-1.04533e-18
-1.03094e-18
-1.09419e-18
-1.08135e-18
-1.05074e-18
-1.09298e-18
-1.14905e-18
-1.1172e-18
-1.16341e-18
-1.11217e-18
-1.15816e-18
-1.13132e-18
-1.35341e-18
-2.69338e-18
-8.71084e-18
-9.83562e-18
-8.33498e-18
-6.08815e-18
-4.31454e-18
-2.85988e-18
-2.01469e-18
-1.08277e-18
-9.76368e-19
-4.02487e-19
-5.3889e-19