/*--------------------------------*- C++ -*----------------------------------*\
| =========                 |                                                 |
| \\      /  F ield         | OpenFOAM: The Open Source CFD Toolbox           |
|  \\    /   O peration     | Version:  2.2.x                                 |
|   \\  /    A nd           | Web:      www.OpenFOAM.org                      |
|    \\/     M anipulation  |                                                 |
\*---------------------------------------------------------------------------*/
FoamFile
{
    version     2.0;
    format      ascii;
    class       surfaceScalarField;
    location    "1.6";
    object      cfmax;
}
// * * * * * * * * * * * * * * * * * * * * * * * * * * * * * * * * * * * * * //

dimensions      [0 3 -1 0 0 0 0];

internalField   nonuniform List<scalar> 
28084
(
0.0012463
0.00124042
0.00123588
0.0012321
0.00122906
0.0012267
0.001225
0.00122391
0.0012234
0.00122339
0.00122385
0.00122475
0.00122603
0.00122764
0.00122954
0.00123168
0.00123397
0.00123637
0.00123901
0.00124161
0.0012442
0.00124685
0.00124943
0.00125189
0.00125429
0.00125661
0.00125868
0.00126051
0.00126216
0.00126358
0.00126472
0.00126564
0.00126627
0.00126659
0.00126656
0.00126613
0.00126548
0.00126447
0.00126339
0.00126158
0.00125914
0.00125656
0.00125378
0.00125078
0.00124793
0.00126236
0.00127667
0.000834426
0.000807297
0.00082496
0.000845125
0.000866373
0.000886149
0.000905225
0.000925267
0.000945157
0.000963875
0.000982903
0.00100157
0.0010199
0.00103648
0.00105152
0.00106646
0.00107958
0.00109105
0.0011011
0.00111026
0.00111803
0.00112497
0.00113051
0.00113491
0.00113799
0.00114102
0.00114357
0.00114498
0.00114528
0.00114633
0.00114547
0.00114383
0.00114169
0.00113899
0.00113576
0.00113168
0.00112841
0.00112273
0.00111708
0.00111173
0.00110637
0.00110265
0.00109703
0.00109093
0.00108533
0.00108081
0.00108035
0.00108305
0.00108692
0.00110381
0.00113853
0.00115456
0.00115501
0.00114861
0.00116134
0.00114497
0.00105656
0.000997325
0.000946007
0.000912886
0.000894806
0.000886873
0.000885508
0.000888651
0.000894535
0.000902782
0.000912952
0.000923138
0.000929847
0.000930881
0.000913238
0.00289342
0.00288812
0.00125218
0.00287768
0.00125011
0.00286113
0.00124933
0.00283874
0.00124925
0.00281072
0.00124986
0.0027772
0.00125116
0.00273853
0.00125308
0.00269496
0.00125552
0.00264689
0.00125849
0.00259479
0.00126198
0.00253919
0.00126589
0.00248014
0.00127012
0.00241802
0.00127472
0.00235327
0.0012796
0.00228626
0.00128468
0.00221737
0.00128995
0.00214704
0.0012953
0.00207565
0.0013007
0.00200351
0.00130624
0.001931
0.00131167
0.00185843
0.00131701
0.00178613
0.0013223
0.00171433
0.00132744
0.0016433
0.00133238
0.00157329
0.00133716
0.00150446
0.00134174
0.00143697
0.00134599
0.001371
0.00134988
0.00130668
0.00135351
0.00124414
0.00135681
0.00118347
0.00135972
0.00112472
0.00136233
0.00106795
0.00136453
0.00101317
0.00136634
0.000960414
0.00136766
0.000909769
0.00136852
0.000861498
0.00136905
0.000815088
0.00136929
0.000770692
0.00136903
0.000728228
0.0013681
0.000687867
0.00136643
0.000649376
0.0013646
0.00061278
0.00136256
0.00057822
0.00136057
0.000585983
0.0013585
0.000584859
0.00137274
0.000578089
0.00138664
0.000588498
0.000921871
0.000601408
0.000888296
0.000605338
0.000904838
0.000609251
0.000922861
0.000610915
0.000942094
0.000613829
0.000960932
0.000616791
0.00098098
0.000620211
0.00100028
0.000623149
0.00102024
0.000625909
0.00103874
0.000628949
0.00105759
0.000631817
0.00107545
0.000634351
0.00109311
0.000636543
0.00110936
0.000638856
0.00112422
0.000641111
0.00113876
0.000643018
0.00115176
0.00064508
0.00116259
0.000647221
0.00117237
0.000649614
0.00118082
0.000652031
0.00118831
0.000654459
0.00119408
0.00065676
0.0011992
0.000659344
0.00120278
0.000662187
0.00120519
0.000665421
0.00120723
0.000668411
0.00120884
0.000671672
0.00120986
0.000675851
0.00120909
0.000679579
0.00120954
0.00068343
0.00120789
0.000687955
0.0012052
0.000692751
0.00120202
0.000697885
0.00119809
0.000703263
0.00119344
0.000708702
0.00118857
0.000714238
0.00118336
0.000719635
0.00117717
0.000725482
0.00117066
0.00073097
0.00116424
0.000736964
0.0011574
0.000743553
0.00115208
0.000750338
0.00114566
0.000756804
0.00113827
0.000763239
0.00113179
0.000770055
0.0011256
0.000777483
0.00112272
0.000786192
0.00112194
0.000797042
0.00112755
0.000806546
0.00114107
0.000816507
0.00117072
0.000825677
0.00118603
0.000835284
0.0011851
0.000846277
0.00118521
0.000855286
0.00117076
0.000844651
0.00108843
0.000837623
0.00102035
0.000824211
0.000958114
0.000793903
0.000910014
0.000772257
0.000879554
0.000760774
0.000862525
0.000754842
0.000854581
0.000752334
0.000852281
0.000752038
0.000853966
0.000755451
0.000858301
0.000759585
0.000864382
0.000767118
0.000871932
0.000777089
0.000880354
0.000792931
0.000885619
0.000819923
0.000886537
0.000863493
0.000887677
0.00289456
0.00288882
0.00126002
0.00287795
0.0012617
0.00286101
0.00126463
0.00283822
0.00126823
0.00280981
0.0012725
0.00277595
0.00127735
0.00273806
0.00128278
0.00269543
0.00128879
0.0026482
0.00129527
0.0025967
0.00130214
0.00254137
0.00130939
0.00248248
0.00131701
0.0024205
0.00132492
0.00235586
0.00133299
0.00228895
0.00134124
0.00222013
0.00134959
0.00214986
0.00135798
0.00207851
0.00136634
0.00200636
0.00137475
0.00193382
0.00138298
0.00186122
0.00139104
0.00178885
0.00139895
0.00171696
0.00140661
0.00164585
0.001414
0.00157573
0.00142114
0.00150677
0.00142796
0.00143915
0.00143437
0.00137303
0.00144032
0.00130856
0.0014459
0.00124586
0.00145107
0.00118503
0.00145575
0.00112611
0.00146003
0.00106916
0.0014638
0.00101419
0.00146708
0.000961267
0.00146978
0.000910435
0.00147192
0.000861676
0.00147362
0.000814788
0.00147498
0.000770489
0.00147567
0.000728246
0.00147554
0.000688091
0.00147467
0.000649815
0.00147368
0.00061356
0.00147229
0.00057905
0.00147089
0.000595519
0.00146926
0.00059508
0.00148327
0.000595885
0.00149461
0.00060532
0.00102345
0.000609732
0.000971429
0.000611399
0.000985607
0.00061476
0.00100104
0.000615505
0.00101752
0.000617694
0.00103484
0.000619605
0.00105329
0.000622384
0.00107138
0.000624823
0.0010901
0.000626528
0.00110858
0.000629263
0.00112609
0.000631037
0.00114348
0.000632555
0.00116058
0.000634057
0.00117598
0.000636133
0.00118981
0.000637893
0.00120324
0.000639294
0.00121531
0.000640832
0.00122511
0.000642539
0.00123401
0.00064442
0.00124101
0.000646459
0.00124759
0.000648341
0.00125226
0.000650216
0.00125621
0.000652314
0.00125896
0.000654548
0.00126009
0.000657029
0.00126112
0.000659496
0.00126168
0.000662271
0.00126172
0.000665919
0.00125982
0.000669223
0.00125955
0.000673722
0.00125688
0.000678151
0.0012533
0.000682943
0.0012487
0.000688205
0.00124362
0.000693671
0.00123799
0.000699327
0.00123271
0.000704351
0.00122614
0.000710226
0.00121934
0.000716196
0.00121235
0.000721475
0.00120474
0.00072716
0.00119701
0.000733546
0.00119089
0.000740223
0.00118372
0.000746221
0.00117551
0.000752068
0.00116849
0.000757771
0.00116122
0.000763233
0.00115798
0.000771749
0.00115595
0.000782236
0.00116158
0.000791687
0.00117496
0.000799063
0.00119895
0.000806295
0.00121209
0.000820485
0.00120791
0.000818805
0.00118324
0.000810196
0.00111748
0.000811439
0.00103661
0.000829412
0.000964692
0.000819032
0.000914176
0.000796597
0.000872497
0.000782701
0.000840867
0.000770659
0.00082011
0.000760783
0.000806795
0.000758098
0.000797897
0.000759089
0.000794607
0.000764593
0.000796285
0.000770733
0.000802379
0.000781595
0.000811695
0.000797701
0.000824349
0.000822438
0.000837909
0.000852157
0.000848791
0.000921298
0.000857209
0.00289346
0.00288731
0.00126983
0.00287604
0.00127522
0.0028587
0.00128181
0.00283719
0.00128901
0.00281068
0.00129683
0.00277858
0.00130526
0.00274128
0.00131424
0.00269893
0.00132366
0.00265197
0.00133353
0.00260067
0.00134384
0.00254552
0.00135447
0.00248679
0.00136534
0.00242498
0.00137644
0.00236042
0.00138775
0.00229354
0.00139914
0.00222475
0.00141053
0.00215448
0.0014219
0.0020831
0.00143322
0.00201092
0.00144442
0.00193829
0.00145543
0.0018656
0.00146618
0.00179311
0.00147668
0.00172109
0.00148684
0.00164982
0.00149666
0.00157953
0.00150612
0.0015104
0.00151515
0.00144259
0.0015237
0.00137627
0.0015317
0.0013116
0.0015392
0.00124868
0.00154621
0.00118764
0.00155266
0.00112849
0.0015586
0.00107132
0.00156393
0.00101611
0.00156869
0.000962946
0.00157279
0.000911868
0.00157623
0.000862875
0.00157911
0.00081576
0.00158149
0.000770582
0.00158318
0.000727803
0.0015837
0.000687842
0.00158375
0.000649799
0.00158345
0.00061378
0.0015829
0.000579547
0.00158239
0.000604505
0.00158295
0.000604504
0.00159604
0.000627179
0.00160578
0.000618308
0.00107473
0.000618933
0.0010263
0.000620369
0.00103927
0.000623926
0.00105409
0.000625776
0.00107037
0.00062835
0.00108743
0.000630961
0.00110622
0.000633892
0.00112514
0.000636759
0.00114465
0.00063898
0.00116407
0.000642302
0.00118186
0.000643833
0.00119947
0.000644752
0.00121612
0.000645906
0.00123219
0.000647726
0.00124494
0.000649188
0.00125805
0.000649617
0.00126919
0.000650862
0.00127859
0.000652279
0.00128641
0.000653973
0.00129274
0.000655715
0.001298
0.000657448
0.00130154
0.000659255
0.00130414
0.000661014
0.00130546
0.000662979
0.00130562
0.000665386
0.0013056
0.000667908
0.00130512
0.00067055
0.00130376
0.000674196
0.00130081
0.000677457
0.00129945
0.000682117
0.0012956
0.000686833
0.00129084
0.000691887
0.00128521
0.000697668
0.00127899
0.000703566
0.00127243
0.000709718
0.00126693
0.000714118
0.00125934
0.000719953
0.00125138
0.000726358
0.00124404
0.000731194
0.00123513
0.000737011
0.00122658
0.00074336
0.00122016
0.000749451
0.00121171
0.000755131
0.00120325
0.000760172
0.00119531
0.000765165
0.00118785
0.000769161
0.00118436
0.000778054
0.00118372
0.000789257
0.00119271
0.000801875
0.00120804
0.000812104
0.00123858
0.000815861
0.0012361
0.000814547
0.00122922
0.000803013
0.00112809
0.000821112
0.00103808
0.000851739
0.000960359
0.000862633
0.000917807
0.000844959
0.000890476
0.000820842
0.000866817
0.000797771
0.000845468
0.000782629
0.000825215
0.000774456
0.000804707
0.000773213
0.000790745
0.000772109
0.000783532
0.000776019
0.000781299
0.000780045
0.000783411
0.000790707
0.000788836
0.000807017
0.000798896
0.000836362
0.000812889
0.000866857
0.0008291
0.000946347
0.00084353
0.00289014
0.00288485
0.00128161
0.00287654
0.00129063
0.00286206
0.00130082
0.00284162
0.0013116
0.00281544
0.00132297
0.00278365
0.00133485
0.00274662
0.00134724
0.00270453
0.00136013
0.00265779
0.00137342
0.00260668
0.001387
0.00255169
0.00140089
0.00249308
0.00141505
0.00243136
0.00142939
0.00236685
0.00144379
0.00230002
0.00145823
0.00223121
0.00147267
0.00216089
0.00148702
0.00208943
0.00150121
0.00201715
0.00151519
0.00194439
0.00152895
0.00187155
0.00154235
0.00179889
0.00155538
0.00172669
0.00156802
0.00165522
0.00158027
0.0015847
0.00159197
0.00151532
0.00160318
0.00144726
0.00161383
0.00138068
0.00162388
0.00131576
0.0016333
0.00125258
0.00164212
0.00119127
0.00165035
0.00113184
0.00165793
0.0010744
0.00166481
0.00101897
0.00167101
0.000965512
0.00167659
0.000914127
0.00168144
0.000864764
0.00168547
0.000817419
0.00168866
0.000771957
0.00169132
0.000728476
0.00169292
0.00068712
0.00169378
0.00064935
0.00169358
0.000613476
0.00169321
0.000579265
0.00169199
0.00061252
0.00169034
0.000614863
0.00169985
0.000637231
0.00170872
0.000628171
0.00112608
0.00062769
0.00107927
0.000629345
0.00109201
0.000634965
0.00110955
0.00063834
0.00112874
0.000641652
0.00114835
0.000645997
0.00116932
0.000649155
0.00119071
0.000652882
0.00121201
0.000654346
0.00123437
0.000657226
0.00125443
0.000659447
0.00127293
0.00065958
0.00128879
0.000661009
0.00130648
0.000662947
0.00131837
0.000662334
0.0013299
0.000662957
0.00134103
0.000663471
0.00134905
0.000663977
0.00135591
0.000664494
0.00136081
0.000665377
0.00136427
0.00066659
0.00136667
0.000667812
0.00136781
0.000669146
0.00136775
0.000670926
0.0013669
0.000673201
0.0013657
0.000675729
0.00136406
0.000677996
0.00136157
0.000681521
0.00135715
0.000686703
0.00135442
0.00069241
0.00134946
0.000697857
0.00134375
0.0007037
0.00133719
0.000710003
0.00132991
0.000716501
0.00132229
0.000723041
0.00131626
0.000728047
0.00130753
0.00073454
0.00129925
0.000741255
0.00129044
0.000746207
0.00128053
0.000751384
0.00127127
0.000757912
0.00126256
0.000765043
0.00125446
0.000770999
0.0012452
0.000776127
0.00123657
0.000780809
0.00122838
0.000784273
0.00122669
0.000794951
0.00123038
0.000805144
0.00124031
0.000824519
0.00126524
0.000825234
0.00128161
0.000821165
0.00127281
0.000814506
0.0011994
0.000825184
0.00107438
0.000870459
0.000983585
0.00087646
0.000929021
0.000871345
0.000892605
0.000852965
0.000868602
0.00083183
0.000850506
0.000816121
0.000836909
0.000807873
0.000825256
0.000797449
0.00081528
0.000790298
0.000803163
0.000787419
0.00079173
0.000790023
0.000786097
0.000792554
0.000786014
0.000800386
0.000790412
0.000814712
0.000798282
0.000842659
0.000810023
0.000874669
0.000825652
0.000959315
0.000840164
0.00289319
0.00289044
0.00129537
0.00288248
0.00130797
0.00286834
0.0013217
0.00284822
0.00133596
0.00282235
0.00135076
0.00279085
0.00136611
0.00275408
0.00138193
0.00271221
0.00139813
0.00266566
0.00141468
0.00261472
0.00143162
0.00255985
0.00144879
0.00250134
0.00146609
0.00243965
0.00148352
0.00237516
0.00150107
0.00230833
0.00151857
0.00223947
0.00153594
0.00216906
0.00155319
0.00209749
0.00157023
0.00202506
0.00158696
0.00195212
0.0016034
0.00187909
0.00161944
0.0018062
0.00163498
0.00173375
0.00165001
0.00166202
0.00166464
0.00159122
0.00167859
0.00152155
0.00169193
0.00145319
0.00170465
0.00138631
0.00171671
0.00132107
0.00172804
0.00125758
0.0017387
0.00119594
0.00174865
0.00113619
0.00175785
0.00107841
0.00176634
0.00102264
0.001774
0.000968886
0.00178092
0.000917197
0.00178702
0.000867389
0.00179247
0.000819741
0.00179696
0.000773976
0.00180025
0.000730171
0.00180271
0.00068826
0.00180447
0.000648574
0.00180477
0.000612687
0.00180411
0.000578664
0.00180158
0.000619808
0.00179876
0.000624108
0.00180341
0.000642395
0.00180098
0.000625632
0.00118007
0.000631875
0.00113133
0.000636597
0.00114626
0.000645667
0.00116909
0.000651195
0.00119276
0.00065661
0.00121667
0.000662871
0.00124221
0.00066733
0.00126825
0.000671327
0.00129199
0.000674531
0.00131396
0.000679309
0.0013331
0.000677264
0.00134997
0.000676502
0.00136598
0.000676583
0.00138298
0.000676129
0.00139385
0.00067646
0.00140276
0.000675417
0.0014107
0.000674913
0.00141871
0.00067424
0.00142398
0.000674177
0.0014279
0.000674258
0.00142959
0.00067464
0.00143063
0.000675331
0.00143002
0.000676014
0.00142891
0.000676987
0.00142669
0.000678531
0.00142369
0.000680724
0.00142041
0.000684887
0.00141667
0.000689687
0.00141187
0.000694415
0.00140748
0.000700572
0.00140123
0.000706522
0.00139467
0.000712765
0.00138734
0.000719368
0.00137895
0.000726079
0.00137015
0.000732764
0.00136306
0.000738225
0.00135354
0.000745572
0.0013454
0.000753148
0.00133668
0.00075889
0.00132619
0.000763579
0.00131579
0.000770525
0.00130752
0.000776769
0.00129793
0.00078249
0.00128867
0.000788501
0.00128079
0.000793947
0.00127423
0.000796371
0.00127793
0.000806889
0.00128331
0.000819653
0.00128803
0.000835811
0.00131982
0.00083271
0.00131145
0.000842058
0.00125746
0.000865005
0.00113394
0.000895832
0.00104499
0.000908739
0.000987887
0.000901573
0.000942244
0.000885308
0.000904005
0.000863484
0.000875296
0.000843278
0.00085262
0.000829825
0.000837048
0.000823481
0.000827378
0.000818883
0.000821721
0.000813648
0.000816644
0.000806197
0.000810622
0.000805937
0.000803776
0.00080544
0.000801239
0.000810985
0.000803033
0.000822921
0.000806981
0.000849358
0.00081481
0.000881885
0.000826204
0.000969598
0.000840474
0.00290066
0.00289824
0.00131111
0.0028906
0.0013272
0.00287677
0.00134439
0.00285697
0.00136209
0.00283139
0.00138032
0.00280016
0.001399
0.00276358
0.00141811
0.00272193
0.00143763
0.00267557
0.0014575
0.00262477
0.0014776
0.00256996
0.00149791
0.00251152
0.00151839
0.00244988
0.00153893
0.00238537
0.00155949
0.00231845
0.00157996
0.00224952
0.00160025
0.00217897
0.00162039
0.00210724
0.0016402
0.00203461
0.00165963
0.00196149
0.0016787
0.00188818
0.00169732
0.00181501
0.00171533
0.00174227
0.00173273
0.00167021
0.0017497
0.00159907
0.00176589
0.00152904
0.00178132
0.00146034
0.00179603
0.00139311
0.00181005
0.0013275
0.00182332
0.00126365
0.00183575
0.00120163
0.00184741
0.0011415
0.00185827
0.00108334
0.00186827
0.00102718
0.00187748
0.000973066
0.00188586
0.000920982
0.00189325
0.000870888
0.00189987
0.000822749
0.0019057
0.000776553
0.0019105
0.000732558
0.00191416
0.000690166
0.00191632
0.000649732
0.00191757
0.000611782
0.00191794
0.000578097
0.00191601
0.000626333
0.00191402
0.00062818
0.00191704
0.000622091
0.00191428
0.000622908
0.00124399
0.000642578
0.00119361
0.000649989
0.00121673
0.000663348
0.00124732
0.000672144
0.00127791
0.000679953
0.00130497
0.0006878
0.00132993
0.000692191
0.00135386
0.00069351
0.00137499
0.000692641
0.00139953
0.000692858
0.00141501
0.000690641
0.0014283
0.00068834
0.0014482
0.00068733
0.00146121
0.000685495
0.00147136
0.00068301
0.00148173
0.000681645
0.00148823
0.000679672
0.0014958
0.000678076
0.00150218
0.000676911
0.00150524
0.000676372
0.0015065
0.0006764
0.00150721
0.000676577
0.00150599
0.000676736
0.00150285
0.000677345
0.00149943
0.000678594
0.00149519
0.000683008
0.00148959
0.000688422
0.00148438
0.000693803
0.00147833
0.000699101
0.00147087
0.0007052
0.00146409
0.000711736
0.00145662
0.000718326
0.00144757
0.00072537
0.00143785
0.000732435
0.00142726
0.000739468
0.00141802
0.000745408
0.00140743
0.000752194
0.00139801
0.000760213
0.00138801
0.000766217
0.00137679
0.000771603
0.00136553
0.000778857
0.0013571
0.000785282
0.0013478
0.000790828
0.00133772
0.000796696
0.00132931
0.000802448
0.0013244
0.000805444
0.00132583
0.000815389
0.00132725
0.000827596
0.0013393
0.00084282
0.00133046
0.000846466
0.00131715
0.000866515
0.00119112
0.000921844
0.00109856
0.000947797
0.00104243
0.00095299
0.00100445
0.000936892
0.000965308
0.000906421
0.000928938
0.000879276
0.000895749
0.000856579
0.000871361
0.000839967
0.000852568
0.000834652
0.000839869
0.000832028
0.000832811
0.000831413
0.000829334
0.000827026
0.000825858
0.000824551
0.000821406
0.000820727
0.000816771
0.000824859
0.000816234
0.000834546
0.000817669
0.000858311
0.000823353
0.000890203
0.000830692
0.000979516
0.000843235
0.00291034
0.00290822
0.00132886
0.0029009
0.00134837
0.00288736
0.00136894
0.00286785
0.00138999
0.00284249
0.00141154
0.00281153
0.0014335
0.00277519
0.00145588
0.00273372
0.00147862
0.00268747
0.00150165
0.0026368
0.00152492
0.00258208
0.00154838
0.00252368
0.00157191
0.002462
0.00159546
0.00239744
0.001619
0.00233044
0.00164239
0.00226137
0.00166553
0.00219066
0.00168849
0.00211871
0.00171103
0.00204584
0.0017331
0.00197245
0.00175473
0.00189882
0.00177587
0.00182533
0.00179631
0.00175225
0.00181606
0.00167982
0.00183529
0.00160827
0.00185368
0.00153784
0.00187121
0.00146871
0.00188789
0.00140107
0.0019038
0.00133505
0.00191894
0.00127077
0.00193316
0.00120833
0.0019465
0.00114779
0.00195898
0.0010892
0.00197054
0.00103263
0.00198121
0.000978094
0.00199101
0.000925576
0.0019999
0.000875128
0.00200794
0.000826632
0.00201497
0.000780102
0.00202105
0.000735466
0.00202614
0.000692706
0.00202994
0.000651901
0.00203209
0.000612749
0.00203262
0.000578408
0.00203079
0.000634097
0.00202857
0.000634398
0.0020293
0.000597599
0.00203404
0.000623124
0.00132823
0.000662335
0.00127262
0.000679563
0.00131821
0.000697717
0.00135039
0.000705805
0.00137777
0.000708918
0.00140661
0.000711411
0.00143112
0.000711059
0.00145435
0.000709464
0.00147922
0.000705979
0.0014991
0.000705312
0.00151388
0.000701136
0.00152784
0.0006969
0.0015483
0.000694355
0.00155933
0.000691441
0.00156511
0.000688321
0.00157796
0.000686582
0.00158171
0.000683531
0.00158714
0.000681047
0.00159242
0.000679131
0.00159714
0.000678463
0.0015979
0.000677491
0.00159822
0.0006769
0.00159692
0.000676579
0.00159333
0.000676602
0.0015878
0.000680871
0.00158273
0.000685941
0.00157574
0.000691627
0.00156672
0.000698237
0.00155881
0.000703042
0.00155062
0.00070936
0.00154077
0.000716965
0.00153138
0.000724062
0.00152054
0.000731659
0.00150993
0.000738992
0.00149769
0.000746259
0.00148666
0.000752589
0.00147508
0.000759639
0.00146232
0.000767922
0.0014528
0.000774684
0.00144314
0.000780847
0.00143037
0.000788196
0.00142005
0.000794544
0.00141196
0.000799909
0.00140088
0.000804879
0.00138938
0.000809496
0.00138049
0.000811314
0.00137124
0.000819687
0.0013781
0.000835536
0.00136782
0.000838381
0.00135457
0.000867685
0.00124535
0.000932783
0.0011582
0.000971546
0.00110165
0.000985792
0.00106967
0.00098218
0.00103245
0.000961809
0.000995915
0.000928955
0.000959356
0.000896794
0.000923502
0.000871702
0.000895491
0.000853975
0.000873406
0.000847382
0.000857323
0.000844367
0.000846966
0.000845989
0.000841478
0.000845214
0.000838204
0.000845232
0.000834937
0.000838251
0.000832102
0.0008415
0.000829991
0.000847899
0.000829784
0.000869186
0.000833409
0.000899884
0.000836226
0.000990254
0.000845964
0.00292221
0.00292039
0.00134862
0.00291333
0.00137146
0.00290008
0.00139534
0.00288084
0.00141965
0.00285576
0.00144441
0.00282501
0.0014696
0.00278882
0.00149518
0.00274753
0.00152105
0.00270142
0.0015472
0.00265084
0.00157355
0.00259614
0.00160004
0.00253773
0.00162659
0.00247602
0.00165307
0.00241138
0.00167952
0.00234424
0.00170576
0.00227501
0.0017317
0.0022041
0.00175739
0.00213186
0.00178261
0.00205869
0.00180727
0.00198499
0.0018314
0.001911
0.00185499
0.00183713
0.00187781
0.00176365
0.00189988
0.00169081
0.00192127
0.00161881
0.00194182
0.00154791
0.00196143
0.00147831
0.00198009
0.0014102
0.00199785
0.00134371
0.00201476
0.00127895
0.00203082
0.00121603
0.00204581
0.00115498
0.00205985
0.00109593
0.00207294
0.0010389
0.00208509
0.000983916
0.00209634
0.000931002
0.0021067
0.000880106
0.00211628
0.000831215
0.00212501
0.000784409
0.00213275
0.000739379
0.00213969
0.000696229
0.00214577
0.000655019
0.00215094
0.00061555
0.00215529
0.000578984
0.00215869
0.000642759
0.00216011
0.000644283
0.00216559
0.000614108
0.00217295
0.000640773
0.00143966
0.000705341
0.00139426
0.000724251
0.00144752
0.000731895
0.00149726
0.000734656
0.00151633
0.000733883
0.00154744
0.000733619
0.00156658
0.000730667
0.00158604
0.000724424
0.00159911
0.000717691
0.00160956
0.000715817
0.00162505
0.000708689
0.00163345
0.000703446
0.00163911
0.000696191
0.00165087
0.000690694
0.00165401
0.000688902
0.00166863
0.000686179
0.00167906
0.000681557
0.00168372
0.000678604
0.00168514
0.000676704
0.00169362
0.000675032
0.00169368
0.000673681
0.0016925
0.000672624
0.00169033
0.000671598
0.00168697
0.000676374
0.00167947
0.000681058
0.00167325
0.000687676
0.0016646
0.000693134
0.00165641
0.000699121
0.00164417
0.000704379
0.00163389
0.000711118
0.00162303
0.000718304
0.00161125
0.000725745
0.00159986
0.000733735
0.00158768
0.000741617
0.00157525
0.000749087
0.00156323
0.000755125
0.00155042
0.000762811
0.00153816
0.000770604
0.00152612
0.000778085
0.00151653
0.000784334
0.00150096
0.000791691
0.00148528
0.000798887
0.00147496
0.000803034
0.00145941
0.000806035
0.00144336
0.000808795
0.00142752
0.000809696
0.0014178
0.000819176
0.00140415
0.000828349
0.00138304
0.0008417
0.00129127
0.000928298
0.00121374
0.000975692
0.00115214
0.00101
0.00112135
0.001019
0.00108703
0.00101198
0.001053
0.000987317
0.00102102
0.000951561
0.000983379
0.000916875
0.000943896
0.000890862
0.000914488
0.000871372
0.000891876
0.000861389
0.000873867
0.000857085
0.000860381
0.000859491
0.000852246
0.000861037
0.000848191
0.00086329
0.000845822
0.000856823
0.000844456
0.000859367
0.00084237
0.000863142
0.000841956
0.000882715
0.000844715
0.000911439
0.000843246
0.00100212
0.000849824
0.00293624
0.00293468
0.00137041
0.00292789
0.00139648
0.0029149
0.00142356
0.0028959
0.00145106
0.00287106
0.001479
0.00284051
0.00150729
0.00280453
0.00153592
0.00276337
0.00156489
0.00271735
0.00159409
0.00266683
0.00162342
0.00261215
0.00165289
0.00255371
0.00168236
0.00249192
0.00171172
0.00242715
0.00174098
0.00235983
0.00177
0.0022904
0.00179867
0.00221923
0.00182701
0.00214668
0.00185483
0.00207319
0.00188204
0.00199911
0.0019086
0.0019247
0.00193458
0.0018504
0.00195972
0.00177647
0.00198405
0.00170315
0.00200755
0.00163066
0.00203019
0.00155925
0.00205182
0.00148913
0.00207244
0.00142049
0.00209204
0.00135347
0.00211069
0.00128817
0.00212849
0.00122468
0.00214521
0.00116313
0.00216081
0.00110355
0.00217542
0.00104599
0.00218904
0.000990538
0.00220165
0.000937192
0.00221337
0.000885932
0.00222426
0.000836649
0.00223467
0.000789364
0.00224435
0.000744214
0.00225319
0.000701105
0.00226188
0.000659889
0.00227012
0.000621021
0.00227859
0.000583527
0.00228697
0.000656835
0.00230102
0.000657604
0.00232281
0.000625328
0.00236559
0.000678358
0.00193487
0.00074275
0.00159014
0.000762271
0.00163431
0.000767924
0.00165839
0.000767006
0.00167209
0.000760377
0.00168193
0.000756784
0.00169485
0.00074867
0.00170278
0.000738327
0.00170833
0.000733718
0.00172923
0.000729873
0.00173411
0.000717644
0.00173661
0.000710162
0.00173993
0.000704954
0.00175425
0.000695656
0.00177464
0.000694737
0.00178552
0.000690488
0.00179082
0.000684707
0.00179792
0.00068271
0.00179753
0.000680602
0.0018016
0.000678367
0.00179995
0.000676952
0.00179638
0.000676011
0.00179254
0.000675978
0.00178767
0.000683201
0.00178206
0.000690288
0.00177485
0.000696487
0.00176419
0.000702295
0.00175561
0.000709186
0.0017443
0.000714562
0.00172944
0.000721613
0.00171914
0.00072978
0.00170762
0.000736394
0.00169261
0.000744514
0.00167729
0.000752795
0.00166206
0.000760714
0.00164532
0.000766293
0.00162965
0.000773001
0.00161354
0.000780865
0.00159698
0.000787111
0.00158008
0.000791607
0.00156195
0.000797546
0.00153868
0.000802928
0.00152093
0.000804253
0.00150347
0.000803696
0.0014825
0.000803816
0.00145677
0.000802553
0.00142943
0.000801738
0.0013866
0.000811277
0.00130991
0.000902954
0.00123158
0.000975213
0.00118294
0.00102807
0.00115064
0.00105214
0.00113252
0.00105018
0.00111045
0.00103659
0.00107669
0.00100983
0.00104448
0.000972172
0.00100548
0.000934959
0.0009658
0.000907194
0.000935439
0.000887725
0.000911958
0.000877659
0.000893283
0.000870806
0.000877235
0.000872547
0.000866262
0.000875237
0.000860258
0.000879108
0.000857606
0.000874904
0.000856174
0.000877821
0.000854247
0.000880047
0.000852796
0.000898813
0.000854965
0.000925046
0.000849821
0.00101525
0.000853658
0.0029524
0.00295107
0.00139425
0.00294454
0.00142345
0.00293179
0.00145364
0.00291302
0.00148423
0.00288838
0.0015152
0.00285802
0.00154653
0.00282222
0.0015782
0.00278118
0.00161011
0.00273525
0.00164224
0.00268476
0.0016745
0.00263007
0.00170684
0.00257156
0.00173916
0.00250966
0.00177132
0.00244474
0.00180331
0.00237721
0.00183504
0.00230753
0.00186636
0.00223607
0.00189725
0.00216316
0.00192761
0.00208929
0.0019573
0.00201478
0.00198629
0.00193993
0.00201454
0.00186513
0.00204196
0.00179068
0.00206848
0.00171684
0.00209405
0.00164382
0.00211867
0.00157183
0.0021423
0.00150114
0.00216481
0.00143193
0.00218623
0.00136432
0.00220659
0.00129845
0.00222599
0.00123437
0.00224448
0.00117222
0.00226166
0.00111206
0.00227776
0.00105392
0.00229281
0.000997851
0.00230688
0.000943962
0.0023198
0.000892225
0.00233205
0.000842638
0.00234372
0.000795076
0.00235561
0.000749649
0.00236713
0.000706329
0.00237857
0.000664836
0.00239002
0.000625587
0.00240351
0.000588123
0.00241588
0.000664618
0.00243565
0.00066883
0.00244536
0.000684205
0.00245539
0.000828146
0.00227778
0.000807322
0.00184604
0.000795846
0.00177815
0.000791039
0.001774
0.000786762
0.00178733
0.000781532
0.00179728
0.000774079
0.00181177
0.000764819
0.00180807
0.000754223
0.00180248
0.00075353
0.00182749
0.000742772
0.00182698
0.000731986
0.00182665
0.000722868
0.00184845
0.000714304
0.00184451
0.000708146
0.00187362
0.00070406
0.001885
0.000699264
0.00188503
0.000694097
0.00188504
0.000690876
0.00188714
0.000688968
0.00188919
0.000686234
0.00188627
0.000684576
0.00188293
0.000682733
0.0018781
0.000687931
0.0018715
0.000696108
0.00186369
0.00070364
0.00185627
0.000711168
0.00184787
0.000717982
0.00183821
0.00072534
0.00182766
0.000731676
0.00181501
0.000739533
0.00180107
0.000747593
0.00178869
0.000754216
0.00177466
0.000761995
0.00175613
0.000770318
0.00173685
0.000777713
0.00171679
0.000783276
0.00169842
0.00078941
0.00167539
0.000797264
0.00165451
0.000802888
0.00163292
0.000805194
0.00161287
0.000809334
0.00158303
0.000810925
0.00155778
0.000809996
0.00152433
0.000807104
0.00148669
0.000801164
0.00144195
0.000789847
0.00138593
0.000796357
0.00130847
0.000866627
0.00122551
0.00094444
0.00117781
0.000998378
0.00114657
0.00104086
0.00113581
0.0010594
0.00112199
0.00106223
0.00110713
0.0010463
0.0010792
0.00102167
0.00104888
0.000984098
0.00101219
0.00094975
0.00097554
0.000922723
0.000947197
0.00090232
0.000925035
0.000892473
0.00090641
0.000884681
0.000890617
0.000885518
0.000877385
0.000888227
0.000869283
0.000893229
0.0008656
0.0008919
0.000863692
0.000896212
0.000862511
0.000898371
0.000861018
0.000916998
0.00086362
0.000940033
0.000857051
0.00102958
0.000858928
0.00297063
0.00296953
0.00142018
0.00296322
0.0014524
0.00295069
0.00148559
0.00293217
0.00151914
0.00290772
0.00155307
0.00287754
0.00158734
0.00284186
0.00162189
0.00280093
0.00165669
0.00275507
0.00169168
0.0027046
0.00172675
0.00264988
0.00176186
0.00259128
0.00179692
0.00252922
0.00183181
0.00246413
0.00186643
0.00239635
0.00190079
0.00232636
0.00193469
0.00225457
0.00196806
0.00218129
0.00200085
0.00210698
0.00203298
0.002032
0.0020643
0.00195666
0.00209474
0.00188132
0.00212443
0.00180631
0.00215306
0.00173186
0.00218065
0.00165824
0.00220716
0.00158565
0.00223271
0.00151432
0.00225707
0.00144449
0.00228026
0.00137623
0.00230229
0.00130977
0.00232317
0.00124503
0.00234341
0.00118224
0.00236216
0.00112144
0.00237966
0.00106267
0.00239611
0.00100591
0.00241136
0.000951395
0.00242565
0.000899065
0.00243881
0.000848924
0.00245126
0.000800727
0.00246409
0.000754625
0.00247567
0.000710774
0.00248638
0.000668849
0.00249678
0.000629092
0.00250686
0.000591298
0.0025163
0.000670418
0.00252854
0.00068297
0.00253453