/*--------------------------------*- C++ -*----------------------------------*\
| =========                 |                                                 |
| \\      /  F ield         | OpenFOAM: The Open Source CFD Toolbox           |
|  \\    /   O peration     | Version:  2.2.x                                 |
|   \\  /    A nd           | Web:      www.OpenFOAM.org                      |
|    \\/     M anipulation  |                                                 |
\*---------------------------------------------------------------------------*/
FoamFile
{
    version     2.0;
    format      ascii;
    class       volScalarField;
    location    "2.1";
    object      divBf;
}
// * * * * * * * * * * * * * * * * * * * * * * * * * * * * * * * * * * * * * //

dimensions      [1 -3 -2 0 0 -1 0];

internalField   nonuniform List<scalar> 
14161
(
9165.28
-6896.65
-336.223
421.85
1509.67
1475.24
1332.18
870.415
290.606
218.71
235.053
-188.928
-254.177
35.0522
619.087
221.406
152.691
68.1462
-188.561
-264.488
-478.377
-725.774
-825.374
-837.095
-555.471
-550.071
-1340.77
-826.937
-756.714
-750.045
-724.882
-818.532
-889.547
-918.861
-599.739
-280.205
708.119
3400.93
9090.68
17553.3
57228.1
-74178.9
43229.1
27696.1
3533.1
-30679.7
-35780.6
-33874.7
-37810.8
-35491.8
-31652
-33894.1
-36577.9
-31704.2
-30784
-33002.5
-31475.6
-26742.4
-27494.4
-26338.5
-27539.9
-25156.9
-22173.9
-20288.3
-18527.6
-17106.7
-15931.7
-13967.1
-12217.8
-10669.6
-9185.2
-8102.51
-6051.06
-3310.29
-1464.39
-714.464
196.137
1119.05
4337.88
6124.59
8264.45
5399.65
5492.46
8696.21
12839.4
15239.1
10392.9
12244
16633
17024.8
17324.5
18972.1
13450.3
11452.1
14115.8
9141.4
-1313.14
2838.58
-4032.45
-8505.1
-9645.93
-9775.36
-9358.74
-11962.4
-12188.3
-13744.6
-12818.5
-16070.7
-14093.8
-16644.8
-14180.9
-15845
-11964.4
-12750.7
-7608.4
-7639.52
-461.282
-1762.72
4783.39
-25186.9
23100.4
3916.62
699.854
-51.8308
-565.714
-1292.07
-1613.83
-563.117
-79.7647
725.607
1566.84
1713.21
922.949
191.083
-347.174
-503.729
-566.448
-452.208
-174.019
259.447
616.757
916.646
1075.81
717.235
240.825
-281.028
-985.098
-1237.04
-1342.38
-1575.28
-1622.53
-1746.75
-1863.79
-1797.16
-1478.84
-1168.92
-510.17
-364.475
4741.63
-22013.1
-28313.2
-35352.8
-270.697
-12195.7
-20742
-28444.1
-24775.6
-28582.8
-27673.6
-27222.3
-28907.9
-31688.4
-24741.5
-21967
-29686.9
-34780.1
-24515.7
-12695.8
-25011.7
-24776.2
-20715.2
-18207.4
-17281.9
-16205.9
-15679.5
-13906.2
-11029.5
-9703.27
-9404.31
-7918.6
-4715.25
-3023.22
-1776.67
-2999.82
606.661
5591.74
6783.79
5368.07
1669.73
2965.37
9801.76
16689.7
11264.8
7968.22
-8544.57
12118.7
45690.6
17731.2
-7719.89
3971.27
20204.7
18359.1
28.6976
-478.39
5488.19
6430.93
7605.53
306.59
-5302.49
2095.5
4311.56
-4535.27
-8236.28
-1011.02
-3150.25
-8362.39
-6591.26
-6516.25
-8256.98
-4930.99
-7354.05
-3590.57
-5489.39
-1843.65
-3287.17
673.713
-2189.54
1805.79
49701.3
-38083.7
-8300.04
-1104.18
1085.12
2767.37
3216.96
2985.39
1433.3
-350.013
-1120.5
-2024.55
-2649.67
-1990.53
-1112.17
-652.403
-132.487
-64.438
-750.906
-1130.63
-1984.08
-2872.83
-3550.85
-4073.42
-4134.35
-3007.74
-3078.1
-2615.57
-2071.83
-2023.79
-1888.88
-1806.37
-1854.57
-1901.79
-1999.98
-2193.3
-2776.03
-3497.98
-6435.67
-8527.53
-33431.3
-11237.7
-18256.6
3210.35
-10588.6
-19597.2
-28294.4
-27373.9
-28769.4
-29535.9
-32935.4
-14371.5
-21322.5
-28458.4
-37182.1
-24835.4
-8886.3
-23088.4
-30981
-24319.2
-11987.8
-15792.2
-17397.3
-15795
-13652.3
-12456.5
-10957.7
-8933.94
-7586.34
-6001.56
-4050.09
-1238.76
-1164.15
364.785
3382.77
4143.66
4357.21
3969.93
6678.64
11357.9
13448.2
11754.8
4984.76
3983.64
28771.1
36909.6
18681.4
-31181.4
39159.1
55771.4
33882.1
1445.29
-2091.34
23459.5
24120.2
7020.74
-5880.77
-1080.17
11335.2
8773.71
-6568.6
-7018.74
6195.18
4008.69
-11212.7
-2518.59
-1346.32
-6027.62
-2309.1
-4194.87
-1962.49
-4416.07
-773.555
-3112.29
453.228
-2285.24
1429.9
-1951.08
1623.63
-64926.6
50867.2
10549.1
1270.98
-928.486
-2540.06
-3961.81
-4290.16
-2194.84
-554.251
657.334
1602.26
2700.29
1197.05
30.9059
-892.204
-1293.37
-1483.2
-1156.45
-685.664
270.066
1129.89
1867.97
2178.77
1448.96
786.007
580.204
-1002.44
-1132.02
-1912.49
-2359.31
-2601.56
-2784.05
-3109.87
-3262.44
-3357.97
-3661.64
-4590.62
-5515.92
-4549.59
-14023.2
-3504.05
-18958.7
-9579.83
-16336.8
-25788.1
-26579.9
-23783.7
-25328.4
-28126
-25977.9
-33617.4
-27486.3
-22186.6
-20509
-19871.1
-25369.2
-23018.1
-21628.6
-19800.4
-18967.5
-17683.4
-15830.1
-15325.3
-14161.1
-11358.1
-9652.84
-7757.17
-6391.01
-5364.44
-3643.04
-1736.3
834.3
2693.27
1296.71
4281.9
7499.24
8729.22
8588.81
7245.22
7795.77
17169.8
20521.6
12766.4
5213.97
-4970.27
39885.3
85026.7
11788.5
-8614.5
228.07
37607.2
37450.7
-10299.2
-2660.87
14769.3
21535.3
4517.49
-18635.2
1359.16
18554.6
4275.33
-16947.9
2800.01
9739.56
-9058.43
-4263.4
-127.913
-391.599
-4725.12
-576.081
-2165.56
386.591
-2502.63
1176.98
-2065
1294.49
-2081.72
1267.24
78597
-58455.5
-14101
-2299.77
1061.39
2403.85
4363.71
4594.28
1993.3
-707.353
-1727.69
-3204.33
-3973.77
-2957.51
-1676.33
-1147.65
-477.75
-358.784
-1107.21
-1734.84
-2871.6
-4013.52
-5069.39
-5677.37
-5478.83
-5011.92
-4246.1
-3610.05
-3551.43
-3091.12
-2802.34
-2621.43
-2574.19
-2636.53
-2769.32
-3194.94
-3583.89
-3507.33
-4450.47
-2185.51
-12655.2
-356.42
-15199.4
-2963.86
-6925.01
-18855.9
-21731.2
-24521.1
-26790.8
-27013
-25918.7
-24759.2
-28968
-29011.4
-26604.5
-23762
-24566.7
-20146.8
-16638.8
-12058.9
-13402.1
-14141.2
-13960
-11652
-9395.83
-7930.59
-6159.62
-5965.38
-3853.33
-2435.25
-932.468
-13.8547
1499.9
2265.42
4676.12
8209.12
9603.93
7814.24
7972.54
13512
17530.3
17861.5
11471.1
13306.7
39576.8
47951.9
19448.7
-15682.1
17245.5
51890.4
31165
13648.3
9758.35
30197.2
22111.4
9283.36
-5088.99
5966
18474.2
9190.89
-18568.4
1761.51
14000.1
-5283.53
-8536.81
2630.58
3551.58
-6058.56
-2277.99
-1047.51
-337.893
-3420.5
682.474
-2151.18
1198.76
-2078.45
1463.94
-2087.11
1239.42
-94598.4
70659.9
15198.7
1396.88
-1861.4
-3196.41
-5307.7
-6093.74
-3573.54
-1091.65
-145.069
1381.82
2372.75
1287.29
-124.916
-1183.51
-1663.55
-2107.61
-1634.38
-1055.19
74.2439
1010.78
1831.74
2296.39
1824.27
1107.58
196.26
-742.265
-1513.79
-2213.84
-2779.44
-3054.09
-3204.5
-3456.42
-3648.71
-3726.61
-4157.25
-4567.75
-5510.85
-5212.4
-9541.53
-874.825
-29186.5
-4864.21
-11425.7
-19695.3
-24247.1
-25002.4
-26433.9
-23745.6
-25761.5
-24058.9
-20910.6
-19342.3
-20900.6
-17980.4
-17467.7
-18639.3
-18490
-17726.1
-14925.3
-13760.1
-11337.2
-9460.42
-7558.86
-6847.13
-5199.31
-4162.15
-2966.17
-1192.56
479.09
1534.53
2973.31
5154.9
6681.83
6323.53
6839.69
11341.8
13798.5
12534.8
12149.4
8179.95
17965.6
31442.7
18140
15357.1
32962.5
34363.1
37419.1
11787.4
24150.5
27454.2
31493.3
14438.4
8102.58
14233.3
17266.1
16225.4
784.828
-3555.23
10042.6
10999.4
-9760.75
-851.574
7831.27
-4207.89
-3276.94
212.612
-214.152
-3403.62
248.119
-2023.91
871.17
-2057.22
1178.91
-2106.37
1417.66
-2193.48
1258.84
97472.5
-71143.9
-18232.1
-3219.51
858.851
2169.84
4267.05
4514.25
1962.73
-884.785
-2073
-3534.43
-4024.15
-3556.74
-2365.02
-1721.96
-1211.56
-922.529
-1610.87
-2241.79
-3257.34
-4436.75
-5505.7
-6228.57
-6245.35
-5663.85
-5187.61
-4590.41
-4038.58
-3774.48
-3528.1
-3448.95
-3295.32
-3317.87
-3529.32
-3980.88
-3851.05
-3380.62
-3753.54
-4323.88
-4717.38
-17078.3
-30117.8
-10390.3
-17004.7
-27026.5
-27425.3
-27762.4
-28590.9
-25978
-24541.6
-20952.1
-19704.1
-14910
-15662.1
-13842.9
-13215.7
-11650.7
-12182.2
-10942.6
-10474.2
-9493.47
-6913.43
-5827.34
-5259.33
-3793.77
-3563.28
-1608.43
-818.451
-148.383
2234.07
3569.92
5474.4
6339.71
7002.66
8660.98
11121
12049.2
11183.7
12378.6
15267.7
17993.7
17404
10133.1
28084.5
28139
29838.9
24450.9
20941.2
24888.3
25258.5
24246.5
16588.3
25585.5
24786.8
22726.5
10973
7258.18
11165.8
11812.2
2246.93
-2092.57
5099.49
3840.28
-3948.42
-1685.03
1755.1
-2564.91
-1173.15
-2001.55
-399.283
-2834.45
514.414
-2373.08
1038.82
-2289.71
1532.69
-2320.64
1435.7
-111829
80597.5
18277.1
1689.02
-2359.09
-3420.42
-5228.27
-6050.59
-3865.4
-1452.43
-285.613
997.466
1385.3
1081.29
-155.205
-1120.45
-1690.92
-1972.13
-1840.34
-1166.22
-476.06
338.107
1127.63
1658.81
1286.58
551.389
-99.726
-871.671
-1819.66
-2680.1
-3054.28
-3231.98
-3410.28
-3687.44
-3653.86
-3405.88
-3480.38
-3484.24
-2812.08
-5086.9
1731.95
-81234.2
-62925.1
12454.7
4560.47
-1843.2
-8243.39
-7652.98
-9533.42
-11367.3
-13589.6
-13565.2
-14533.1
-14231.5
-13618.1
-12692.6
-12522.9
-11268.3
-11717.5
-10063.8
-8445.58
-7300.91
-6068.22
-4926.89
-4259.71
-3015.71
-2202.92
-322.316
1498.82
2814.64
4357.04
4937.33
6193.2
7623.49
9647.91
10042.9
11145.1
11367.2
13884.4
16118.8
18148.2
15679.6
15304.6
23928.3
23538.7
26225
28405.7
27141
26629.8
21623.9
22243.3
27274.6
19326.8
27438.8
19369
24042.9
18461.5
20170.2
12286
6646.3
6426.32
5860.85
4222.42
-256.941
2014.53
1329.05
-498.075
-2123.17
-235.518
-1886.11
-554.961
-2126.82
581.644
-2241.36
1073.03
-2263.65
1427.33
-2298.63
1483.45
105751
-73771.8
-19273.4
-3931.38
-430.324
621.697
1753.93
3415.77
1176.81
-1236.33
-2223.71
-3598.97
-4311.95
-4154.37
-3122.81
-2386.64
-1996.36
-1702.05
-2061.97
-2658.98
-3433.16
-4372.55
-5208.35
-5903.02
-6052.72
-5617.39
-5567.57
-4789.3
-4546.52
-4220.58
-3646.55
-3777.27
-4131.35
-3806.64
-3510.56
-3491.93
-3454.01
-2675.35
-2335.56
-1490.06
-18506.2
-136147
-32918.1
-14140.3
7130.42
-2792.53
-648.813
-2298.55
-3774.73
-3691.69
-7670.94
-6567.16
-8112.73
-9036.29
-8736.46
-9480.17
-9074.83
-8289.07
-7301.93
-6201.89
-5524.49
-4768.62
-3556.23
-2653.45
-1773.06
-232.163
1269.48
2583.21
4039.07
5025.07
6402.88
7541.63
8678.12
9989.9
11916.8
12575.2
15046
15351.8
16388.5
15561.7
17099
18278.9
25961.9
24070.5
28714.6
30418.8
25726.9
23511.5
22255.7
19990.2
22516
21941.6
15605.4
22676.3
17168.3
23393.2
18169.3
19145
15539.1
13741
10315.3
4935.57
4313.69
2756.26
2235.41
-344.164
576.263
-192.417
-183.641
-1945.83
-839.09
-1982.28
-189.402
-2711.51
785.16
-2578.6
1367.74
-2427.8
1686.54
-115559
79056.1
18108.5
2517.7
-1565.91
-2858.27
-3577.75
-4653.15
-3057.99
-1554.5
-453.326
317.169
869.993
784.883
1.1462
-876.627
-1544.13
-1942.8
-1894.82
-1593.04
-1175.53
-512.429
-56.3415
272.552
-105.456
-801.008
-915.449
-1269.16
-2462.13
-2983.39
-3595.98
-3973.92
-4058
-4405.26
-4392.42
-4201.82
-4408.65
-4379.04
-4267.12
-6019.91
-373.215
-65433.1
-67908.2
-7054.42
1744.47
-3534.46
-5348.11
-7176.41
-7266.5
-11124.9
-8465.57
-11944.1
-11351.9
-11646.1
-9849.18
-9911.63
-8636.11
-7622.88
-6895.08
-5447.35
-4199.74
-3075.11
-2133.66
-488.73
575.914
2032.03
3265
4230.43
5313.72
6358.69
7491.87
8782.82
10285.7
11228.6
12680.1
13661.6
15386.8
15839.1
18491.6
18425.3
21018.9
21880.5
26281.8
29938.4
34592.3
28370.9
24243.1
24608.4
21753.2
23773.9
23744.7
28855.4
22596.7
25759.2
16796.4
21597.2
16211.9
20757.6
17326.4
13627.4
9029.65
6863.54
5096.24
2910.06
2867.76
755.856
627.958
-946.171
-295.812
-1359.27
-806.357
-1663.97
191.625
-2072.69
708.938
-2475.41
1215.19
-2338.98
1703.35
104906
-70354.9
-18972.5
-5127.17
-1747.2
-1222.4
-576.786
489.677
91.5977
-1743.94
-2660.32
-3536.18
-4050.78
-4035.29
-3535.87
-2810.27
-2432.75
-2281.09
-2362.83
-2725.8
-3223.4
-3837.32
-4470.77
-4955.09
-5108.45
-5020.04
-4572.64
-4720.88
-4140.83
-3864.71
-3788.67
-3849.68
-3962.07
-4011.52
-4261.8
-4415.31
-4671.22
-4777.62
-4896.18
-4538.73
-8543.91
-556.7
-35113.3
-32560.6
-37533.8
-36282.7
-32386.7
-29135.1
-24669.5
-19889.6
-14579.7
-15381.5
-11838.9
-13447.7
-10358.5
-8614.52
-9737.75
-5721.09
-5747.36
-2926.22
-3544.76
-1275.78
-1076.48
388.452
1184.83
2679.94
3721.66
4938.78
6051.77
7197.81
8170.62
9333.25
10519.1
11544.4
12755.1
13484.9
14937.5
16022.3
18976
19551.6
23788.7
25443.5
34378.4
34017
31458
28966.3
19798.3
24944.6
17155.1
22572.3
19342.6
22509.9
18874.4
23135.2
17798.6
22447
16789.2
18449.3
15355.7
16494.2
12841
7942.87
6141.82
3696.07
3114.53
1325.46
1386.48
-69.7953
345.616
-1043.33
-910.671
-1681.44
-1147.71
-2537.35
102.626
-2756.22
1035.19
-2481.11
1702.02
-105774
69996.1
16599
3359.05
-971.464
-1671
-2128.72
-3048.06
-2382.28
-1774.06
-938.522
-397.088
24.9948
49.8676
-386.442
-1002.19
-1547.52
-1943.3
-2180.95
-2182.18
-2020.78
-1748.9
-1446.12
-1355.71
-1019.48
-1721.05
-2433.65
-3006.42
-3476.67
-3848.04
-4422.5
-4750.33
-5022.96
-5205.67
-5277.08
-5635.1
-6085.29
-7655.93
-9077.86
-7798.58
456.49
15778.5
-31969.9
-31523.4
-39440.1
-37852.7
-33304.6
-30721.4
-23857
-21850.3
-15662.7
-18203.1
-13894.1
-15971.7
-12080.5
-12143.1
-8696.61
-8886.07
-6381.02
-4568.33
-3415.09
-1668.35
-675.567
1051.65
2425.2
3844.97
4982.2
5784.35
7154.36
8688.87
9540.02
10619.9
11766.5
12604.2
14404.3
15164
17644.5
18472.4
22501.5
21820.1
27288.4
28682.3
35018.1
33473.2
30359.1
24715.7
27776.2
22841.8
24085.9
21541.2
19723.8
20876.4
17951.6
21081
17044.5
19737.9
16578.6
18411
17185
17444
15533.2
11264.5
8405.52
5467.3
4166.08
2127.5
1469.98
319.833
296.219
-585.79
-702.165
-1470.47
-971.931
-1509.89
341.177
-2466.8
1170.12
-2621.67
1800.89
94402.2
-63340.5
-18191.3
-6269.84
-2981.26
-2235.07
-1820.53
-1278.61
-1234.83
-2029.77
-2516.47
-3014.4
-3369.07
-3472.05
-3221.01
-2935.81
-2590.71
-2532.39
-2428.17
-2578
-2754.12
-3134.25
-3755.73
-3885.04
-4391.09
-4088.83
-3955.1
-3800.41
-3639.81
-3608.5
-3611.74
-3832.19
-3717.2
-3702.34
-4245.26
-4881.64
-5055.54
-5468.51
-4517.11
-7480.22
-7512
25821.3
-28981.4
-41892.9
-52420.7
-47006.7
-37980.2
-32760.6
-26601.4
-26615
-21115.1
-22740.8
-17266.5
-16432.3
-11611
-10606.1
-7714.17
-6723.43
-4361.59
-2629.77
-848.895
1444.22
2347.28
4077.41
5875.94
7152.71
8529.11
9605.23
10391.3
11435.5
10964.3
12378.2
13214.7
14152.4
15817.3
16262.4
19176.4
18491
22763.8
21807.9
29062.1
29272
34675.3
24321.1
22320.1
20993.4
20620.7
23186
22003.6
26636.6
24170.7
25037
18522.2
20828.2
16901.3
19787.4
18094.8
18263.2
15440.1
16477.2
13774.7
10997.9
7776.68
4137.63
3539.57
2012.56
1899.68
661.411
46.826
-606.814
-724.961
-1635.84
-1264.76
-1609.96
-438.028
-2760.98
670.766
-2928.76
1560.43
-79640.9
52619.8
12823
2694.62
-862.147
-1430.41
-1588.5
-2069.76
-2174.48
-2018.54
-1444.71
-1279.23
-1195.61
-1089.5
-1259.29
-1532.08
-1644.22
-1962.8
-2400.65
-2547.46
-2648.12
-2665.22
-2333.33
-2392.71
-2493.01
-2861.68
-3273.52
-3663.04
-4075.23
-4525.88
-4988.27
-5336.48
-5631.07
-6972.51
-6955.55
-7579.59
-7666.24
-8218.6
-8207.6
-10550.7
-11000.4
-33240.8
-51678
-25325.2
-28629.9
-29958.4
-28532.5
-26701.6
-23235.2
-21847.2
-17501.2
-16720.3
-12561.4
-10679
-7087.59
-5405.48
-2988.84
-1457.54
-289.52
1650.07
2750.58
4096.71
5692.84
6324.23
7131.83
8195.99
8718.6
10458.3
11142.2
12960.8
13656.8
15824.6
15803.9
18360.9
18151.8
21837.3
21279.4
27070.1
23861.8
35137.9
35965.4
42190.2
38464.9
29484.5
30720.7
24217.3
25457.4
22964.6
23056.4
22298
22707.2
20787.6
20522
19089.2
21865.6
17772.2
16876.8
18136
14298.4
17486.9
14826.6
13742.6
9273.02
6028.67
4627.21
3068.53
2567.88
1012.11
585.366
-281.371
-521.351
-1137.85
-1177.37
-1462.45
-689.758
-2675.51
959.128
-3324.71
1808.37
69442
-48939.5
-15143.6
-5897.12
-3173.06
-2415.52
-2278.3
-2059.56
-1950.57
-2104.77
-2074.51
-2269.61
-2304.72
-2435.48
-2545.95
-2417.95
-2558.67
-2627.91
-2562.14
-2540.36
-2621.69
-2891.21
-3104.39
-3329.61
-3452.56
-3483.78
-3507.92
-3511.88
-3565.88
-3329.79
-3195.18
-3187.92
-3545.28
-3558.79
-3748.47
-3867.39
-4094.88
-3630.79
-4069.22
-7035.23
-7275.7
-110533
-71453.5
-25134
-16850.3
-21981
-15480.4
-23404
-15468.1
-19687.5
-12006.9
-12416.3
-8905.42
-8209.39
-5713
-4525.97
-1994.6
-515.25
1748.88
3034.95
3420.12
4472.47
5923.11
7018.93
8258.2
9494.22
10838
12000.1
12802.1
14416.4
15137.9
16992.2
16526.1
19452.4
19052
23914.1
21354
30394.3
28495.9
42150.8
42846.1
42795.1
40276.2
32422.5
36076.8
28541.6
32145.9
25361.7
28812.5
21170.6
22732.4
18146.3
21103.6
18669.7
19777.9
20467.2
14323.5
19620.5
11896.6
17111.4
12460.4
13609.7
9245.03
6493.87
4940.08
3467.26
2792.3
1548.81
950.22
323.967
-380.96
-808.841
-1359.11
-1489.34
-1309.76
-2580.19
622.916
-3752.95
1623.1
-48528.2
32856.9
7834.48
886.36
-1535.67
-1724.96
-1626.5
-2027.62
-2198.36
-2124.02
-2063.94
-1909.9
-1923.11
-1978.64
-1919.54
-2171.18
-2314.96
-2462.21
-2598.44
-2678.22
-2762.12
-2792.69
-2781.35
-2930.35
-3108.06
-3304.51
-3575.17
-3757.83
-4057.61
-4419.24
-4892.35
-5155.4
-5395.21
-5586.38
-5606.15
-5480.2
-5531.53
-5115.51
-5113.7
-7077.99
-14046.2
-127357
-80793
-14384.4
-11141.2
-2145.94
-1152.59
-3611.69
-1775.68
-5543.41
-2080.53
-3476.82
-1264.17
-1640.25
-125.304
-84.5359
1566.11
1772.87
3717.14
4228.97
5200.91
5677.07
6948.39
7201.83
8732.44
9069.05
10927.7
10946.4
12361.5
12825.4
14771.3
15790.7
17956.6
17653.3
21942.4
21477.1
29498.5
26437.4
41538.1
40224.5
56179.4
37179.2
47485.1
26495.3
36373.7
20680.5
27825.1
16608.4
20897.2
13292.3
14460.7
13211.6
13415.7
14084.2
9145.96
12999.5
11929.2
15844.1
11401
15546.6
12217.5
13501.4
11604.9
8733.63
6019.32
4112.91
3165.37
1841.18
995.62
394.69
-532.223
-568.918
-1513.01
-1229.48
-1499.99
-2002.3
380.289
-4069.22
1927.4
41866.9
-32067.5
-10773.6
-5064.98
-2387.14
-1758.86
-2117.66
-2098.12
-1879.64
-1698.94
-1902.54
-2104.55
-2191.79
-2291.56
-2370.77
-2420.17
-2406.62
-2441.66
-2424.27
-2496.13
-2683.11
-2841.04
-2988.69
-3097.24
-3190.82
-3320.44
-3377.46
-3449.85
-3391.47
-3570.09
-3495.09
-3626.13
-3664.28
-3859.2
-3947.81
-4104.83
-4189.22
-4826.26
-4865.17
-7939.54
-13415.3
-81651.5
-66342.5
-49488.4
-49755.5
-30541.2
-21789
-22712
-17246
-21242.5
-14693.5
-15645.5
-8695.11
-8868.99
-3764.87
-3511.09
528.164
1655.04
4068.84
4642.87
4602.47
7317.75
6442.96
10527.7
9512.71
10172.5
10879.3
12225.5
12269.4
13153.1
13891.5
15098.5
16522.4
17154.6
19286.6
21155.4
28707.9
33861.8
47866.3
45841.5
53970.7
46204
48168.5
42135.5
39184.3
35565.3
30986.9
28387.5
24263.9
24567.1
17249.7
19034.2
13571.4
19986.2
8528.45
15084.1
11089.1
12340.2
9268.32
11336.2
9526.1
12473
9701.85
7167.45
5002.19
3678.74
2880.91
1874.02
1284
738.373
68.1565
-47.3793
-953.128
-679.333
-1355.55
-1352.35
-314.14
-3973.6
1808.91
-23401.1
16148.1
3304.33
-585.125
-2084.37
-2433.07
-2429.81
-2270.98
-2250.03
-2258.47
-2229.13
-2129.93
-2160.81
-2199.37
-2216.28
-2293.28
-2391.24
-2483.85
-2577.29
-2670.85
-2754.21
-2834.36
-2934.35
-3071.83
-3163.87
-3372.6
-3533.99
-3752.71
-3975.85
-4130.42
-4440.85
-4649.37
-4850.32
-5026.36
-5156.59
-5229.79
-5348.97
-5360.61
-5624.75
-8248.67
-15116.7
-68585.1
-49716.5
-39038.7
-48291
-32951.5
-23049.2
-22831.8
-14127.3
-17744.1
-11134.9
-13368.9
-7591.79
-8486.16
-3893.16
-3442.23
152.338
611.867
2885.12
3502.76
4990.01
5946.03
7882.01
8365.34
9350.29
10483.2
10315.1
11954.2
12219.8
13353.9
14080.9
14858.8
15831.3
17105.4
18348.9
22055
27853.4
38324.4
48987.1
47720.2
47984.6
42462
47767
36422.2
39400
28772.4
26984.1
21575.7
18205.7
19064.3
19729.3
13667.1
14151.3
12232.9
11771.8
8090.99
13260.1
10982.1
14454.2
11034.8
12311.2
11655
10571.6
8336.83
6107.14
4580.48
3417.77
2362.74
1420.91
959.261
-49.8761
373.168
-953.274
-336.328
-1509.04
-1088.29
-1421.07
-3575.51
1657.39
20822.6
-18000
-7047.35
-3283.57
-2214.43
-1972.71
-1962.89
-1891.26
-1861.53
-1911.33
-1988.53
-2093.36
-2152.4
-2197.66
-2274.36
-2334.65
-2353.96
-2410.35
-2492.34
-2580.5
-2691.07
-2810.6
-2930.5
-3045.42
-3178.08
-3234.94
-3305.2
-3423.06
-3537.05
-3604.18
-3743.4
-3762.42
-3952.12
-4045.41
-4149.41
-4274.74
-4315.84
-4597.77
-5640.35
-6910.45
-45383.5
-56541.3
-31644.5
-29004.1
-42424
-30185.5
-36510
-16417
-24108.4
-6321.3
-19824
-1980.14
-14086.1
-249.145
-7188.1
1947.78
-856.038
3739.59
3222.25
6247.36
6744.75
8106.9
8580.39
9072.39
10462.8
11125.2
11692
11849.3
12899.4
13509.3
13982.1
15224.9
15697
17680
20799.2
25351.8
33987.9
40450.2
47667.5
46092.3
45850.4
42438.2
46418.3
38785.8
42045.9
34560.2
29932.4
26480.3
23298.4
20657
22309.5
17767.1
13674.4
13909.5
10691.2
9657.71
7957.43
9918.12
8298.16
7767.28
8846.77
9055.54
8910.15
7873.38
5808.14
4577.86
3445.37
2666.72
1666.62
1298.25
706.798
863.804
-802.308
-93.9659
-1561.85
-996.278
-1682.91
-2780.83
964.818
-8614
5847.72
-167.577
-1868.52
-2373.4
-2507.11
-2386.51
-2303.18
-2287.32
-2269.97
-2235.11
-2199.15
-2168.54
-2204
-2262.23
-2322.29
-2347.89
-2438.66
-2545.15
-2650.58
-2737.18
-2823.47
-2877.21
-2968.1
-3100.85
-3273.35
-3439.75
-3581.11
-3744.42
-3941.08
-4057.56
-4236.34
-4412.72
-4617.8
-4759.48
-4843.09
-4933.23
-5002.55
-6608.25
-9883.59
-71365.8
-23196.2
-24999.5
-25048.4
-34284.1
-35289.1
-32591.9
-31677.4
-23370.8
-19572.8
-9380.22
-12071.5
-6293.22
-6199.5
872.745
-222.589
2735.4
3718.95
5121.18
8048.62
8152.23
9460.79
8647.68
10206.1
11037.6
12159.2
12382.3
13030.3
13340.5
14182.3
14965.9
15702.5
16938.6
20173.4
23771.9
37204.8
44681.4
56903.4
41245.1
49656
37999.8
41532.5
38873.8
29099.7
29311.6
25821.3
22833.6
21048.3
18119
13762.5
13684.1
10690.5
11213.8
9490.82
9702.57
9746.41
9659.87
8800.17
7616.07
9603.32
7840.55
8852.64
9207.52
8070.9
6406.95
5301.4
4120.68
3178.9
2225.32
1748.53
673.65
979.727
-906.473
164.656
-1734.13
-808.254
-2342.08
-2324.49
263.791
8848.18
-9085.81
-4232.85
-2624.1
-2283.67
-2081.55
-2029.17
-1996.91
-1997.53
-2001.88
-2054.52
-2104.34
-2111.62
-2182.06
-2242.73
-2303.24
-2383.64
-2377.63
-2491.63
-2582.17
-2682.52
-2739.93
-2850.3
-2962.44
-3066.89
-3211.87
-3291.57
-3402.53
-3564.33
-3749.54
-3742.85
-3852.26
-3996.08
-4203.48
-4235.4
-4311
-4737.58
-4770.05
-7037.23
-12938.3
-71790
-9558.6
-10227.3
-16181.6
-24115.8
-25910.1
-28927.6
-36482.8
-31725.4
-32454.1
-24750.7
-20289.9
-17116
-6315.86
-6608.25
780.056
898.149
4817.64
5736.49
8326.49
8375.99
9385.38
9818.51
9992.1
11678.9
12657.6
12821.2
12762.4
12856.5
14130.6
15539.8
17593.7
20958.6
26300.6
38708.8
51438.5
62771.2
50413.9
46995
40554.4
38777.9
37077.5
32717.6
32584
28463.5
26864.4
25362.3
23605.4
19921.9
16650.2
13046.4
11757.6
10565.1
8765.32
8180.44
5563.57
5032.91
3761.86
5659.28
4659.33
6244.08
6443.09
6952.91
6681.56
6418.58
5593.96
4510.82
3623.71
2581.83
2020.66
838.061
950.02
-750.762
214.172
-1707.71
-641.029
-2225.97
-1441.8
-1194.55
-1977.85
529.813
-1623.04
-2423
-2402.19
-2342.53
-2281.89
-2236.55
-2214.82
-2173.34
-2156.3
-2176.02
-2158.47
-2156.94
-2219.24
-2265.04
-2345.66
-2397.54
-2459.64
-2546.05
-2654.5
-2711.46
-2802.96
-2910.55
-3072.85
-3155.87
-3261.6
-3401.01
-3607.89
-3751.41
-3985.73
-4139.48
-4386.17
-4620.41
-4767.48
-5105.52
-5318.26
-5865.82
-8360.75
-20616.3
-69008.9
-14609
-9246.75
-8949.92
-14652.2
-9848.2
-19368.8
-24145.4
-36159.5
-42896.6
-36720.8
-35718.1
-18637
-22290.4
-4243.89
-5076.08
6400.43
7540.05
9432.34
10148.8
11224.6
12234.4
10580.8
11378.8
12374
14507.8
14660.1
16465.1
17484.7
20782.1
24934.8
34986
46574.4
59589.4
72622.2
68086.3
55165.7
37742.1
32132.5
21585.6
19036.4
9968.71
12048.8
13497.4
11538.8
11471.4
13130.3
14792.1
9286.94
9562.16
8568.72
9234.26
9666.19
5820.64
7190.75
5002.09
5644.56
2462
5314.91
4240.25
5845.17
4906.73
6506.84
6385.36
6606.26
5433.08
4067.37
3603.23
2486.97
1973.7
824.948
1133.38
-547.489
464.496
-1774.09
-213.654
-2198.55
-1304.31
-2200.34
3619.9
-4570.11
-3087.05
-2497.09
-2242.06
-2173.11
-2073.71
-2047.76
-2029.63
-2050.77
-2045.38
-2091.59
-2130.97
-2123.09
-2188.52
-2240.96
-2297.16
-2368.28
-2414.09
-2485.6
-2592.02
-2653.9
-2745.53
-2848.2
-2966.89
-3083.83
-3202.18
-3302.62
-3471.15
-3588.91
-3755.5
-3929.02
-3992.34
-3930.59
-4159.26
-4145.03
-4412.08
-4980.48
-7158.61
-44202.3
-59969.6
-9465.26
-4225.05
-4440.65
-5581.79
-2139.07
-7541.51
-13144.2
-26014.3
-31527.4
-46668.4
-41511.9
-30148.3
-25410.8
-10441.7
-4704.42
8928.6
10951.9
12969.7
13814.5
13507.6
14370.8
15841.8
19610.2
18551.1
24116.7
29011.4
40824.8
48240.4
57667
67966.9
80525.9
88866.1
80545.1
56352.9
36006.8
13810.8
9851.65
-1261.23
1650.93
-3869.01
-105.229
-1680.73
4623.58
4169.03
7015.63
5966.14
9067.75
7959.7
7690.24
5529.96
6298.41
2596.78
2130.69
2423.65
1551.79
2058.52
3468.84
1420.02
3620.22
3334.23
4257.32
5437.23
5669.84
5593.48
4680.56
3669.13
3379.82
2459.45
2031.93
1053.06
1236.44
-172.088
664.226
-1571.66
179.587
-2133.41
-899.195
-2683.33
528.329
-1960.75
-1982.13
-2363.04
-2356.39
-2196.41
-2150.32
-2120.06
-2091.62
-2099.83
-2074.37
-2058.63
-2101.13
-2124.31
-2123.66
-2178.01
-2258.01
-2339.88
-2373.95
-2454.27
-2531.99
-2587.78
-2680.27
-2821.96
-2901.23
-3060.63
-3183.15
-3254.54
-3378.27
-3522.18
-3765.33
-3941.69
-4068.6
-4360.87
-4416.9
-4769.69
-4959.57
-6940.86
-11852.6
-73179
-22573.6
-11848.7
-7250.45
-6872.55
-8979.58
-3683.79
-4808.3
-6969.02
-11307.2
-15371.5
-26833.5
-37864.9
-48603.7
-37289
-21685.6
2077.12
12676.2
18249.2
19081.4
22644.4
23630.4
34974.4
41111.9
54458.3
60620.5
70117
83239
98903
94081.8
82050.3
68337.1
52240.2
35025.8
27541.2
14786.4
8792.42
-1479.7
-6067.17
-11868
-15205.2
-15656
-13585.7
-9656.38
-6767.34
-4719.18
-2719.6
-1837.92
727.644
2712.05
5072.51
3991.71
4061.41
3341.63
2493.66
2657.6
1869.25
1071.31
1736.68
1744.48
1532.37
1872.7
2651.19
3979.71
4766.39
5416.45
4934.01
4237.47
3885.29
2797.45
2283.5
1331.21
1272.33
7.17046
939.953
-1287.76
580.486
-2106.86
-608.562
-3010.74
1954.68
-3353.53
-2412.08
-2294.09
-2175.12
-2122.32
-2038.32
-2025.44
-1992.03
-2016.07
-1984.02
-2017.63
-2052.08
-2097.68
-2070.38
-2128.76
-2200.67
-2290.88
-2319.09
-2371.69
-2442.01
-2515.94
-2626.41
-2738.6
-2890.87
-2949.65
-3046.41
-3173.04
-3265.59
-3429.63
-3587.34
-3702.91
-3856.39
-4019.7
-4013.37
-4437.45
-4672.3
-7101.66
-17706.9
-73018.7
-10803.5
-7487.06
-7954.94
-8398.94
-9134.37
-870.062
-1521.6
-3093.05
-5442.08
-8526.24
-12297.4
-19318.4
-31982.8
-32950.5
-19632.1
5505.65
30212.2
40372.1
47897.7
63297.9
76766.6
91840.2
100085
85888.9
83652.2
74498.7
60506.7
46500.6
44885.5
44765.5
36231.9
28279.9
17625.3
11473.3
5114.22
-180.464
-6280.19
-9865.8
-13664.3
-16829.5
-20857.2
-21647.4
-21235.3
-18216.7
-14207.4
-8915.93
-6752.16
-5059.71
-2930.61
-1089.26
-1336.85
-616.118
-657.899
963.24
463.145
-528.138
-23.9844
-495.824
-150.854
65.6711
571.528
1779.65
3068.68
4052.02
5093.68
4931.99
4248.73
3780.21
2661.37
2540.6
1491.02
1342.28
383.29
1080.29
-887.875
846.323
-2009.73
-430.582
-3093.28
821.908
-2366.29
-2024.82
-2101.03
-2195.89
-2076.74
-2074.1
-1966.54
-1974.29
-1998.84
-1958.14
-1968.92
-2002.51
-2039.18
-2038.35
-2062.42
-2140.64
-2218.88
-2267.41
-2302.33
-2377.37
-2494.5
-2555.64
-2630.99
-2785.21
-2908.25
-2962.9
-3059.1
-3224.58
-3447.8
-3565.26
-3756.47
-4044.72
-4231.61
-4565.57
-4911.27
-5937.59
-9303.21
-30044.6
-68060.5
-11919.7
-4839.7
-4375.39
-4705.8
-4722.29
2616.54
3193.16
3494.51
3673.65
2809.82
714.13
-1428.42
931.04
1860.08
9295.52
48481.9
77676.2
100642
108842
95832.3
90983.1
62472
60495.6
56798.8
48893.2
54969.5
43117
35800.6
28307.2
26819.9
22473.7
17338.3
11839.8
7011.28
3561.83
533.505
-3207.82
-6862.88
-10092.6
-13472
-14714.1
-17415.6
-20015.2
-17455.9
-12969.2
-7008.06
-5259.76
-4897.73
-4405.86
-4647.07
-3029.46
-1021.86
-1099.37
-801.605
-1127.12
-1307.22
-1681.2
-1444.85
-1337.67
-1009.7
-601.186
570.232
2099.8
3644.83
4632.23
4667.03
4160.3
3669.33
2720.7
2652.37
1564.04
1487.9
738.434
1377.84
-681.51
1042.64
-1835.75
-257.584
-2985.38
1095.9
-2577.7
-2100.03
-2080.31
-2055.28
-2011.93
-1990.4
-1880.51
-1926.61
-1896.71
-1904.57
-1901.35
-1934.32
-1980.52
-1992.53
-2012.82
-2060.86
-2123.96
-2206.43
-2243.48
-2301.1
-2404.77
-2469.18
-2548.13
-2627.34
-2758.26
-2945.68
-3073.79
-3161.41
-3286.12
-3333.28
-3430.12
-3484.91
-3384.57
-3359.27
-3491.93
-4680.95
-6772.4
-64506.9
-34590.2
-11499.4
-7529.45
-6130.38
-5448.68
-5120.33
2270.55
2326.67
3407.13
4024.67
4851.57
5331.48
9241.32
18408.2
37935.8
92500.4
124035
92696.7
87341.8
55937.9
63855.3
54297.5
44121.3
43903.9
42329.6
37808.8
32839.3
28007.8
25034.8
19669.8
17565.8
15877.1
13853.2
10266.5
4895.02
2851.69
668.893
-639.172
-2304.75
-5618.15
-8534.22
-11196.9
-13850.7
-16330.5
-18810.1
-20517.9
-19866.5
-15304.6
-10390.6
-8176.36
-6530.04
-4379.9
-3313.7
-3447.7
-2985.6
-2476.66
-2283.88
-1791.45
-1731.38
-2347.45
-1930.86
-1233.29
-334.674
1262.26
2967.05
4133.68
4284.1
4069.82
3620.39
2910.24
2653.66
1782.39
1729.04
884.048
1477.97
-483.325
1068.44
-1784.91
-130.365
-2963.53
736.777
-2269.2
-1857.72
-1966.75
-1950.81
-1937.13
-1894.37
-1902.72
-1853.8
-1821.99
-1873.71
-1839.66
-1862.29
-1907.44
-1949.48
-1945.18
-1986.23
-2056.59
-2143.77
-2152.57
-2227.87
-2300.7
-2425.35
-2463.51
-2547.89
-2643.59
-2739.16
-2962.73
-3016.17
-3025.13
-3127.23
-3334.44
-3458.39
-3580.4
-4040.44
-4311
-6882.54
-15971.7
-73765.6
-11879
-5126.76
-5830.28
-6044.61
-5727.9
-5684.66
3204.15
4067.19
5046.15
6679.06
10098.6
18774.7
39511.5
74365.7
134837
138780
85669.9
61027.2
39326.1
46750.5
36768.8
34612.4
35676.5
26836.5
29372.2
24206.9
23676.2
19427.4
17577.9
18700.7
15853.3
17281.7
13354.4
13005.3
8389.01
5412.86
3078.42
785.084
-1182.38
-2301.9
-3535.37
-6382.72
-8862.58
-11375.7
-13810.4
-16365.4
-17571.4
-12962.5
-8216.95
-6402.83
-5779.27
-7360.72
-6179.41
-4889.97
-4155.3
-3372.58
-3506.22
-3642.25
-3224.26
-2707.95
-2417.18
-1987.96
-1042.71
607.886
2540.3
3818.78
4046.04
3868.13
3605.65
3012.41
2800.73
1991.98
1814.86
1053.91
1588.21
-196.202
938.618
-1595.87
9.03625
-2775.93
768.223
-2246.39
-1822.4
-1868.28
-1862.88
-1872.57
-1802.07
-1841.38
-1740.44
-1766.06
-1803.53
-1765.61
-1795.78
-1813.13
-1886.56
-1885.51
-1905.47
-1976.1
-2007.45
-2065.57
-2154.39
-2192.03
-2288.09
-2366.15
-2416.79
-2501.27
-2592.25
-2745.21
-2943.19
-3036.67
-3316.52
-3542.9
-3441.36
-3621.17
-3915.44
-4775.9
-7317.87
-31436.9
-63691.4
-10196.7
-3084.21
-2979.72
-3294.16
-3333.84
-3289.4
4944.5
5565.4
8544.5
14050.4
22869.5
42634.6
85716.8
150866
151053
83344.6
49195.5
43154.3
34251.1
27845.4
31184.6
23705.4
19514.6
21843.7
17385.5
18578.6
16531.7
15492.1
14763.8
14484.1
13018.2
14785.2
12597
13145.1
11404.9
10032.3
6227.34
4248.41
1889.08
286.846
-1751.35
-3278.9
-4894.17
-7755.86
-10156.5
-12472
-14370
-16933.5
-17446.6
-13429.7
-10733
-7310.96
-7007.77
-5115.44
-4520.24
-4192.77
-3957.28
-3780.02
-3788.77
-3300.13
-3046.66
-2626.87
-1610.75
-126.689
2189.4
3518.78
3854.06
3807.91
3582.53
3197.5
2834.56
2125.01
2054.8
1208.68
1621.79
-149.844
911.653
-1295.35
178.953
-2544.98
656.248
-2115.54
-1689.99
-1715.39
-1748.6
-1734.93
-1782.87