/*--------------------------------*- C++ -*----------------------------------*\
| =========                 |                                                 |
| \\      /  F ield         | OpenFOAM: The Open Source CFD Toolbox           |
|  \\    /   O peration     | Version:  2.2.x                                 |
|   \\  /    A nd           | Web:      www.OpenFOAM.org                      |
|    \\/     M anipulation  |                                                 |
\*---------------------------------------------------------------------------*/
FoamFile
{
    version     2.0;
    format      ascii;
    class       volScalarField;
    location    "2.1";
    object      pB;
}
// * * * * * * * * * * * * * * * * * * * * * * * * * * * * * * * * * * * * * //

dimensions      [1 1 -3 0 0 -1 0];

internalField   nonuniform List<scalar> 
14161
(
-0.0103652
0.00731089
0.0012642
-0.000167677
-0.000743617
-0.000851962
-0.000895152
-0.000843667
-0.00052462
-0.000236757
-0.000168987
2.28329e-05
-1.21559e-05
0.000189417
-0.000280962
-0.000379993
-0.000375847
-0.000382866
-0.000199182
-0.000140932
7.94154e-06
0.000274132
0.000333684
0.000423797
0.000546322
0.000275189
0.000769183
0.000516818
0.000480892
0.000545377
0.000588411
0.000627699
0.000630487
0.000683177
0.000617006
0.00048086
-1.63559e-05
-0.0016556
-0.00488129
-0.0113337
-0.0158142
0.132925
-0.0439615
-0.0281316
0.000717124
-0.000787574
0.00370459
0.00317825
0.00487937
0.00246488
0.00198273
0.00381156
0.00285418
0.00056952
0.00204376
0.00196923
0.000566989
-0.000778244
0.00061599
0.000925747
0.000950759
1.4772e-05
-0.000683268
-0.000646602
-0.000489884
-0.00012974
0.00016611
0.000167839
0.000156516
-6.1472e-06
-0.000387382
-0.000183173
-0.000184852
-0.000753578
-0.00124593
-0.00113076
-0.000553012
0.000404819
-1.23439e-05
-0.000767843
-0.0019618
-0.000812408
0.00132424
0.00151598
-0.00143754
-0.00480785
-0.00225969
-0.00240185
-0.0012515
-0.00790605
-0.00523156
-0.00646697
-0.00389689
-0.001139
0.000344544
-0.0014166
0.00587801
0.00486895
0.00542913
0.00738373
0.00457103
0.0047108
0.00299929
0.00282372
0.00158564
0.0031165
0.000155609
0.00265751
-8.57645e-05
0.00266596
-0.000492491
0.00282549
-0.00120982
0.00265029
-0.00138271
0.00282297
-0.00374744
0.00369746
-0.00600127
0.0253256
-0.0242712
-0.00561482
-0.000807232
0.000316565
0.000802367
0.00124067
0.00139671
0.000355539
-0.000303855
-0.0010217
-0.00150776
-0.00194154
-0.00109678
-0.000705484
-0.000182869
2.45266e-05
9.77695e-05
-1.84989e-05
-0.000324412
-0.000798627
-0.00117454
-0.0014845
-0.00166577
-0.00126181
-0.000984371
-0.000622484
8.12987e-05
0.000542207
0.000620943
0.000783319
0.000931721
0.0010058
0.00115599
0.00113774
0.0010496
0.000841463
0.000275404
0.000214861
-0.00464761
0.0161466
0.0215924
0.0390823
0.000979344
0.0134072
-0.0026367
0.00281213
-0.00201194
0.000402927
-0.00168036
-0.00111592
-0.000348638
-0.00124989
-0.00310784
-0.000772254
0.00442385
0.00372868
-0.00498162
-0.00314956
0.0037781
0.00311971
0.00025493
0.000354404
0.000846388
0.00101274
0.000937802
0.000154712
-0.00111164
-0.000898114
0.000530342
0.000689084
4.4375e-05
-0.000778987
-0.000958501
0.00138229
0.00230695
-0.000274883
-0.00209829
-0.00173105
0.00131506
0.00495395
0.00200942
-0.0034491
-0.00454796
-0.0010791
0.00908919
0.0100782
-0.014404
-0.0118663
0.0199621
0.014932
0.00490001
-0.00101609
0.00118251
0.00726355
0.0049839
0.00141628
-0.0045887
-0.00220532
0.00397499
0.000819389
-0.00320786
-0.00303125
0.00588451
-0.00111881
-0.00398115
0.0010577
0.00158255
-0.00154118
0.00127261
-0.00196158
0.00212255
-0.00221961
0.00181676
-0.00192917
0.00210821
-0.00257337
0.00279967
-0.00279072
-0.0435548
0.0370309
0.00636012
4.27107e-06
-0.00140568
-0.00233405
-0.00292643
-0.00304001
-0.00152249
-1.679e-06
0.000717182
0.00142164
0.0018005
0.00114421
0.000102844
-0.000358189
-0.000797187
-0.000897559
-0.000369579
2.85841e-05
0.000721741
0.0015257
0.00217749
0.00258941
0.00243646
0.00158241
0.00174436
0.00115378
0.000541895
0.000397618
0.000360102
0.000322787
0.000408826
0.000440772
0.000575285
0.000761163
0.00138915
0.00217087
0.00472949
0.00627244
0.0299754
0.0110739
0.0219856
-0.00774826
0.00242378
-0.00668146
0.000855581
-0.0012482
0.000380169
0.000274693
-0.00381425
-0.00849264
-0.00115179
0.00285712
4.2688e-05
-0.00840818
-0.00643334
0.0027284
0.00271239
-0.00401763
-0.00636691
-0.00155678
-0.000755254
-0.000893911
-0.000901838
-0.000264574
-0.000418297
-0.000492887
-0.000434154
-0.00023377
-0.000935959
-0.00104736
-0.000101947
0.000672356
-0.0010537
-0.00134667
-0.000664326
0.000299598
0.00145017
-0.00121094
-0.00436579
-0.00427023
0.000420125
0.010106
-0.00182684
-0.0143138
-0.0124347
0.0376967
0.0172809
-0.0111666
-0.0127544
-0.00269046
0.0161482
-0.000514386
-0.0113026
-0.00675957
0.00254318
0.00590214
-0.00280506
-0.00648334
-0.00149407
0.00803441
-0.00120315
-0.00810157
0.00410088
0.0049925
-0.00249394
0.000567886
-0.000924304
0.00203454
-0.00182707
0.00188425
-0.00206953
0.00219764
-0.00250737
0.00231538
-0.00278443
0.00255269
-0.00263948
0.0594789
-0.0534195
-0.0109982
-0.00101386
0.00108428
0.00222202
0.00308752
0.00344492
0.00142724
-0.000467037
-0.00170857
-0.00259326
-0.00346557
-0.00228046
-0.00106143
-0.000110771
0.000237466
0.000543551
0.000148089
-0.000366182
-0.0013833
-0.00228434
-0.00317164
-0.00354739
-0.00301647
-0.00218634
-0.00186699
-0.000380891
-7.68247e-05
0.000350075
0.000826662
0.00115829
0.00125101
0.00159165
0.00178143
0.00201237
0.00225101
0.00329068
0.0045717
0.00349292
0.0164205
0.0196127
0.0278527
0.00266486
0.00368057
-0.000599027
0.00058982
-0.00227183
-0.000451717
-0.000241399
-0.000115761
0.00191059
-0.000554692
-0.00345805
-0.00198974
0.000226282
0.00236112
0.00145979
0.00208559
0.000720708
0.00159099
0.0020171
0.00190481
0.00147108
0.000888151
0.000619535
0.000923883
0.000855988
0.000472136
0.000474496
0.00102113
0.000857629
-0.000283346
-0.00123235
0.000280915
0.00157873
-0.00019738
-0.00141135
-0.00072467
0.00151362
0.0051188
0.00127365
-0.00345346
-0.00114631
0.00648667
0.0208518
0.0141245
-0.0282447
-0.0181536
0.0184543
0.0241984
-2.20873e-06
-0.0163938
0.00570675
0.0130633
0.00391411
-0.00883765
-0.0101701
0.00931062
0.00949873
-0.00711313
-0.0119581
0.00838802
0.00355719
-0.00749712
-0.000161947
0.0010965
0.000728031
-0.00294262
0.00107371
-0.00191767
0.001527
-0.00266773
0.00217908
-0.00254454
0.00232207
-0.00244448
0.00257144
-0.0023795
-0.0724492
0.0600555
0.0115548
0.000443612
-0.00212695
-0.0031982
-0.00436189
-0.00491898
-0.00267657
6.56394e-05
0.00111702
0.00230408
0.00316157
0.00188095
0.000524343
-0.000264884
-0.000958456
-0.00132646
-0.0005809
0.000130682
0.00118212
0.00239115
0.00353021
0.00416225
0.00411923
0.00327144
0.00237864
0.00164944
0.00125759
0.000994927
0.000547152
0.000322338
0.00025343
0.000339681
0.000476527
0.000922011
0.00146188
0.00162102
0.0031042
0.000334929
0.0143079
0.00894761
0.0300956
0.00273686
0.00329052
-0.000547391
0.00269428
0.000141339
0.00160782
0.000699465
0.000755369
-0.000417718
0.00213766
-5.08125e-05
-0.0013956
-0.0023518
-0.00130803
-0.00348872
-0.0040305
-0.00490681
-0.00256752
-0.00120917
-0.000243791
-0.000518622
-0.00117344
-0.00166704
-0.00154585
-0.000856905
-0.00105831
-0.000566167
-0.000634111
-0.00100271
-0.000740353
0.000297833
0.00128714
-0.00118806
-0.00239986
4.22385e-05
0.00273561
0.00136705
-0.00241797
-0.0043238
0.000698489
0.0120099
-7.40623e-05
-0.0163465
-0.00970047
0.0222427
0.019505
-0.0126502
-0.00749002
-0.00470924
0.0149842
-0.00379229
-0.00954315
-0.00481858
0.0067592
0.00706054
-0.00703184
-0.010935
0.00692119
0.00817738
-0.00669256
-0.00375353
0.00543122
0.00182323
-0.00473491
0.000941287
0.000327686
0.00100549
-0.00220405
0.00235219
-0.00212972
0.002225
-0.00251148
0.00240322
-0.00257606
0.00247672
-0.00239486
0.0879652
-0.075524
-0.0155913
-0.00152459
0.00156811
0.00258572
0.0041299
0.00494523
0.0025602
-0.00053606
-0.00154113
-0.00316534
-0.00402486
-0.00323049
-0.00162641
-0.000334819
0.000251915
0.000744823
0.000261403
-0.000391459
-0.00172323
-0.00291208
-0.00409605
-0.00484729
-0.00451583
-0.00358725
-0.00263073
-0.00157624
-0.000664639
0.000188964
0.000722936
0.000963422
0.00102984
0.0013038
0.00147519
0.00149148
0.00200325
0.00269712
0.0040727
0.00409267
0.0118043
0.0119049
0.0455961
0.0016348
0.00492263
-0.00119713
0.00138018
-0.00233227
-0.00100721
-0.00301845
-0.00149429
-0.00264117
-0.00222238
-0.00319053
0.000219953
-0.000533482
0.000536674
0.000719039
0.00232538
0.00167714
0.000921989
0.00089701
-0.000267424
-0.000515797
-0.000173504
0.000381212
0.000118129
0.000626693
0.000727265
0.000581361
0.000196494
0.000375686
0.000683524
-0.000140872
-0.0007552
-2.78091e-05
0.00171516
0.000832898
-0.00129178
-0.00122357
-0.000221781
0.00535853
0.00632084
-0.00601483
-0.00339259
0.0111771
0.000781926
-0.0021661
-0.00942068
0.00515538
0.00359222
-0.00139121
-0.00482798
-0.00355018
0.0121795
0.00513916
-0.00206138
-0.00777123
-0.00114851
0.00662616
-0.00156175
-0.00894329
0.0015797
0.00521959
-0.00419853
-0.00260819
0.00110504
0.00120222
-0.00245679
0.000876753
-0.00204305
0.00138505
-0.00251044
0.00196916
-0.0025931
0.00244289
-0.00252999
0.0025567
-0.00242741
-0.0944213
0.074867
0.0163152
0.00110346
-0.00229615
-0.00335033
-0.00483801
-0.00565882
-0.00351787
-0.0003415
0.00113872
0.00245743
0.00332424
0.00270185
0.00102779
-1.19587e-05
-0.000717927
-0.00126772
-0.000615701
0.000159491
0.00126191
0.00268425
0.00403069
0.00491414
0.00510186
0.00427528
0.0034635
0.00266279
0.00180963
0.00137696
0.000945648
0.000664524
0.000425362
0.000324833
0.000527549
0.00124841
0.00141453
0.000726462
0.00120265
0.00267376
0.0029174
0.0247385
0.039129
-0.0038854
0.00199051
0.000524069
0.000667258
0.00095744
0.00193797
0.00120842
0.00142771
-0.0010497
0.000614288
-0.00170017
0.000148116
-0.00151637
8.43996e-05
-0.0017517
0.000249495
-0.000174452
-0.000267016
-0.00026025
-0.00104516
-0.000632861
-0.000419714
-0.000452247
-0.00025018
-0.00065232
-0.000662854
-0.000808122
-0.00130442
-0.00108324
-0.00154229
-0.000948267
-0.00041604
7.01294e-05
-0.000289997
-0.00109132
0.000271538
0.00210176
0.000568141
-4.70134e-05
-0.00256807
0.00741495
0.0024581
0.00194111
0.00209157
0.00229064
0.00214861
0.00226867
-0.00187775
-0.000770276
0.00859015
-0.000935936
-0.000961667
-0.00654204
0.00158271
0.004419
0.00126431
-0.00451936
-0.00168504
0.00483289
-0.000724415
-0.00305809
0.00123509
0.00324704
-0.00182519
-0.000331172
-0.000370846
0.00149634
-0.00166169
0.00176737
-0.0021843
0.00233271
-0.00252513
0.00266729
-0.00282018
0.00279898
-0.00270851
0.106822
-0.0880852
-0.0191004
-0.00250694
0.00144559
0.00231827
0.00393178
0.00497286
0.00310317
-1.03388e-05
-0.00139083
-0.00303743
-0.00380782
-0.00374921
-0.00220793
-0.000804431
-3.5954e-05
0.000347951
0.000231429
-0.000600454
-0.00165115
-0.00290761
-0.00414664
-0.00509303
-0.00505005
-0.00408917
-0.00334179
-0.00257242
-0.00132518
-0.000282949
0.000336284
0.00056239
0.000319097
0.000829052
0.000794739
5.03329e-05
-0.000379427
-0.000578353
-0.00179291
0.000743874
-0.0164345
0.0863126
0.0507398
-0.034944
-0.00950896
-0.00897201
-0.00117283
-0.0024993
-0.00018214
-0.00054288
0.00255494
-0.000148413
0.0016951
0.00144447
0.000770801
0.000141051
0.00130689
0.000425098
0.00112565
0.000703196
0.000205694
0.000243745
0.000311584
7.42344e-05
0.000590675
0.000414808
0.000551483
0.000233258
0.000139675
0.000376965
0.00010809
0.000324952
0.000200815
0.000213308
-0.000718055
-0.000312959
-0.000679874
0.00131446
0.000285466
-0.000993543
-0.00291581
-0.0014016
0.00161328
-0.000275362
0.000115118
0.00259674
0.00328414
0.00221768
0.000386661
0.000998763
0.000356139
-0.00695017
0.00348678
-0.00800383
0.00361911
-0.00512024
0.00243543
-0.00215916
-0.00221202
0.00109108
0.000307006
-0.00110326
-0.00222682
0.00136949
-0.00134804
-0.000534469
-0.00102271
0.00146374
-0.00147186
0.000266952
-0.00160356
0.00123513
-0.0026779
0.00191742
-0.00277849
0.00256048
-0.0028668
0.00286021
-0.00278104
-0.107467
0.0809738
0.01946
0.00213576
-0.001399
-0.0026862
-0.00395088
-0.00505356
-0.00369411
-0.000743432
0.000722369
0.00214562
0.00306501
0.00296773
0.00166175
0.00048664
-0.00022708
-0.000730568
-0.000506662
0.000194728
0.00115582
0.00238922
0.00361844
0.00460979
0.00499303
0.00441346
0.0037044
0.00299979
0.00229007
0.00187171
0.000757036
0.000777219
0.00125434
0.000637646
0.000103484
-0.00010715
-0.000296253
-0.00190582
-0.00294154
-0.00685524
-0.005358
0.0507775
0.00930969
0.0272222
0.00269976
0.0107488
0.00371179
0.00368042
0.0033673
-0.00183539
0.00251273
-0.00116677
0.000334736
-0.00101491
-0.0010638
-0.000712715
-0.000846286
-0.0012261
-0.0009927
-0.000892218
-0.000831675
-0.000591995
-0.000605916
-0.000706423
-0.000516215
-0.000774165
-0.000808084
-0.000740701
-0.000666023
-0.000324685
-0.000398351
-0.00028257
-0.000479694
0.000148948
-0.000510679
0.000827719
-0.000855506
0.000151939
-0.000171198
0.0017522
0.000939082
0.00323863
-0.00298861
0.000888639
0.000568892
-0.00190805
0.00216791
0.000883059
-0.000500401
0.00356919
0.00198588
0.00012916
0.00959244
-0.00350428
0.00728429
-0.00468648
0.00232499
-0.0012973
0.000422859
-0.000322388
-0.00189127
0.000532714
-0.000433389
0.000187284
-0.00109128
0.000690462
-0.00127062
-0.000365492
-0.00120074
0.000655313
-0.000966996
0.000961175
-0.00181052
0.00246114
-0.00269376
0.00288291
-0.00305013
0.00316434
-0.00311655
0.113433
-0.0900459
-0.0206889
-0.00372341
0.00034684
0.00149035
0.00254338
0.00370489
0.00275593
0.000442863
-0.00117474
-0.00246272
-0.00347294
-0.00360353
-0.00272538
-0.00149871
-0.000585498
-2.43631e-05
-0.000117493
-0.000647926
-0.00141089
-0.00243572
-0.00343584
-0.0042004
-0.0043038
-0.00312384
-0.00276098
-0.00295258
-0.0011761
-0.000808948
0.000229099
0.000804225
0.000784265
0.00107725
0.000897866
0.000490166
0.0003561
-0.000144864
-0.0013278
0.000696562
-0.0159668
0.069891
0.0537155
-0.0247128
-0.0166373
-0.00921572
-0.00844157
-0.00555759
-0.0062094
-0.000692298
-0.00632804
-0.00126276
-0.00207987
-0.00103782
-0.000454691
-0.000778684
-0.000237769
-0.000197242
0.000758996
-0.000155416
-0.000647811
-0.000675612
-0.000292241
-0.00103728
-0.000804242
-0.00108583
-0.000809773
-0.00056335
-0.000397773
-0.000267236
-0.000336885
-2.1335e-05
-0.000483058
0.000224902
-6.73151e-06
0.000598889
-0.000289846
0.00148643
-0.00104583
0.00181066
0.00147824
0.00314378
0.000394345
0.00244314
0.00269423
0.000176246
-0.00105309
-0.00121797
-0.00136844
-0.0012769
0.000324243
-0.00667719
0.00392936
-0.00557277
0.00498691
-0.00370988
0.00455628
-0.00233568
-0.000777933
0.00055471
3.95133e-05
-7.08432e-05
-0.00105087
-0.000222568
-0.00116038
0.000519854
-0.000597577
0.000909534
-0.000599379
0.000570307
-0.000827795
0.000356536
-0.0022179
0.00151909
-0.00274403
0.00262902
-0.00307259
0.00311718
-0.00319854
-0.111156
0.0795775
0.020987
0.00390294
-0.000700682
-0.00133083
-0.00210726
-0.00336253
-0.00291257
-0.000895272
0.000450702
0.00164222
0.00240944
0.00265455
0.00196003
0.000918111
0.00015048
-0.000200188
-0.000296716
9.97109e-05
0.000760614
0.00159211
0.00254817
0.00336538
0.00358534
0.00349583
0.00262983
0.00273293
0.00172513
0.00104282
0.00065386
0.000495719
0.000542261
0.000557644
0.000759301
0.000927452
0.00144893
0.0017778
0.00278677
0.00274555
0.0148481
0.0196303
0.0430725
-0.00668383
0.00285185
0.00153622
0.00141855
0.00128243
-0.00153008
-0.00114875
-0.00494091
-0.00181288
-0.00461308
-0.00217705
-0.00307674
-0.00555135
-0.000817521
-0.00429037
-0.00140099
-0.00367708
-0.000562629
-0.00202446
-0.000217998
-0.00064594
0.000156324
-0.000290778
0.000176017
-0.000179043
-0.000140543
-0.00018541
-0.000332284
-8.63007e-05
-0.00029334
-5.37154e-05
-0.000111476
0.000402033
6.94903e-05
0.000710072
-0.00153572
0.000466744
-0.0022585
0.00226898
-0.00277266
0.00447596
-0.000770916
0.00336203
0.00273797
-0.00189735
0.00562094
-0.00271224
0.00259306
-0.00442752
0.00434547
-0.00346862
0.00412911
-0.00351477
0.00340798
-0.00181908
0.00228611
0.00120997
-0.000827344
0.000853733
-0.000699012
0.000615177
-0.000641126
0.000257425
-0.00111044
-3.67956e-07
-0.00114066
9.88114e-05
-0.000411848
0.000618613
-0.000701897
0.00189364
-0.00214454
0.00279183
-0.00310017
0.00322505
-0.00327234
0.106427
-0.0825854
-0.0201551
-0.00498361
-0.000418469
0.000226044
0.000709161
0.00192987
0.00158764
0.000496685
-0.000848167
-0.00179994
-0.00270052
-0.00297105
-0.00264414
-0.0017718
-0.00105895
-0.000564618
-0.000269309
-0.000412731
-0.000846806
-0.00141504
-0.00220335
-0.00253275
-0.00330193
-0.00288717
-0.00176046
-0.00087583
-0.00021424
0.000474707
0.00122052
0.00165034
0.00204085
0.00224113
0.00226943
0.00275941
0.00354877
0.00634477
0.00942895
0.0100387
0.00919961
0.0371203
0.0378685
-0.0155464
-0.00571182
-0.00489137
-0.00708214
-0.00431318
-0.00724941
-0.00200989
-0.00590418
0.00104852
-0.00292668
0.00236296
-0.00115801
0.000380351
-0.000190911
-0.000388508
0.000995235
-0.00130045
0.000882879
-0.000441217
0.000244368
-0.000383882
-0.000289543
-0.000722567
-0.00043498
4.396e-05
0.000164189
-0.000472144
-0.000659754
-0.000392659
-0.000656117
-0.000136894
-0.000835185
0.000491819
-0.000614528
0.000901395
-0.002468
0.00224737
-0.0024593
0.0030929
-0.00120291
0.0046343
-0.00228138
0.00348332
-0.00371248
0.00139927
-0.000194641
0.00108698
0.00330325
-0.00231613
0.00180074
-0.00355502
0.0026213
-0.00275778
0.0028117
-0.00130446
0.000599121
-0.000750866
-0.00133821
-0.000362347
-0.00114621
-0.000355389
-0.00131866
-8.09463e-05
-0.000840147
-0.000195294
-0.000866366
-0.000227112
-0.000660238
-0.000206563
-0.000918894
0.00046364
-0.00273067
0.00228104
-0.00355337
0.00337157
-0.00358579
-0.104817
0.0721511
0.0202993
0.00536072
0.000640808
-0.000437071
-0.000708582
-0.00131202
-0.00169344
-0.000466228
0.000224702
0.000936002
0.00145253
0.0016941
0.00145179
0.00090629
0.000352792
0.000154945
-0.000328603
-0.000149376
-1.48922e-05
0.000352878
0.00151269
0.00169989
0.00248693
0.00193867
0.00150581
0.000970166
0.000418141
0.000147706
-0.000100976
4.60194e-05
-0.000328427
-0.000477277
0.000148173
0.00129187
0.00182886
0.00311922
0.00227506
0.00737297
0.0160404
0.0275757
0.0368483
-0.00228097
-0.00118721
0.00425112
-0.00109332
0.00107749
-0.00255533
0.00295485
-0.00335757
0.00297931
-0.00260422
0.00217209
-0.00197116
0.000988164
-0.00124135
-0.000326882
-0.00108618
-0.00239919
0.00157172
-0.00175427
-3.32873e-05
-0.000855317
-0.000674042
-0.000544724
-0.000665524
0.000472471
-0.000410739
-0.000535172
0.000689924
-0.00053243
0.000813157
0.000551257
0.00034469
0.00243857
0.00108874
0.00495484
0.00191114
0.00856041
-0.000453974
0.00709818
0.00115799
0.00975006
-0.000233137
0.00267069
0.00158574
-0.00186014
-0.000819994
-0.00722867
-0.000549538
-0.00507909
0.00121786
-0.00459688
0.00350194
-0.00305025
0.00144641
-0.000939479
0.00165781
6.42407e-05
0.00190358
0.00147487
-1.69994e-05
0.00105415
-0.000578281
0.000258431
-0.000863915
6.98567e-05
-0.000328592
-8.26151e-05
-0.000357852
0.000158624
-0.000363698
0.000364534
-0.0017822
0.00233925
-0.00315918
0.00360119
-0.00359138
0.0851658
-0.0655537
-0.0174386
-0.00527249
-0.00133325
-0.000519703
-0.000193668
0.000188488
0.000463418
0.000264023
-0.000664462
-0.00118543
-0.00152812
-0.00180018
-0.00182085
-0.00153462
-0.00127544
-0.0010796
-0.00045154
-0.00042571
-0.000373677
-0.000376361
-0.00119275
-0.00140154
-0.00138379
-0.00101213
-0.000369493
9.73409e-05
0.000775242
0.00143083
0.00221087
0.00274479
0.00320012
0.00561674
0.00573185
0.00715326
0.00795866
0.00957666
0.0103517
0.0154279
0.0137786
0.0406999
0.0187843
-0.0264603
-0.016814
-0.00461112
-0.00408036
-0.00130736
-0.00487159
0.000798947
-0.00562155
-0.000742481
-0.00459558
-0.00130767
-0.00398925
-0.00152564
-0.00283612
-0.00187982
-0.00217041
-0.00217039
-0.00226881
-0.00157785
-0.00159832
-0.00124501
-0.000963467
-0.000714403
-0.000128185
-0.00101629
0.000652512
-0.000926526
0.0011464
-0.0017011
0.000643794
-0.00158687
0.000237013
-0.00239051
-9.86679e-05
-0.00317721
0.000914254
-0.000905133
-0.00120292
-0.000829403
-0.00322892
0.00496711
-0.00429925
0.00179251
-0.00175571
-0.000631557
-0.00041214
-0.0014824
-0.0014168
-0.00114617
-0.0012103
-0.00048196
0.000174874
0.00249941
0.00154653
-0.000894276
0.00097508
-0.00254387
-0.000453647
-0.000668661
-0.000832028
-0.000506211
-0.00102738
-0.000289323
-0.00086434
2.76917e-06
-0.00054645
-0.000203629
-0.000346615
-0.000134893
-0.000375639
-0.000181976
-0.00169054
0.00196373
-0.00381252
0.00404976
-0.00421006
-0.0839362
0.0560779
0.0168899
0.00544396
0.00136811
0.000267719
0.000103922
5.14784e-05
-0.000525247
-0.000319774
-0.000200154
0.000135321
0.000183951
0.000203369
0.000635096
0.000278643
0.000180441
0.000135235
-0.000263125
-0.000432511
-0.000325662
9.52883e-06
0.000272922
0.000496949
0.000583529
0.000478095
0.000329297
9.11924e-05
-7.2481e-05
-0.00076213
-0.00142733
-0.00174602
-0.00148818
-0.00175844
-0.00166903
-0.00196857
-0.00225622
-0.00357709
-0.00449939
4.02377e-05
-0.0176811
0.0717179
0.0584532
0.00913516
0.00122424
0.00955852
-0.000736483
0.00861792
-0.00398068
0.00759215
-0.00424
0.00303878
-0.00106169
0.00155683
-0.000737967
0.000686708
-0.00108387
1.31813e-05
-0.000919082
-0.000891926
-0.000650103
-1.65931e-05
-0.000684915
-0.000897386
-0.000456905
-0.000206764
-0.000225161
-0.000626138
0.000636943
-0.000477178
0.00100373
-0.000397244
0.000450117
-0.000824927
0.00148624
-0.00184766
0.00368196
-0.00330044
0.00561413
-0.00573709
0.00196907
-0.000511597
-0.00536137
-0.000908802
-0.0077089
-0.00135646
-0.00750912
-0.00146454
-0.00746396
-0.00152181
-0.00511553
-0.00123609
-0.00478438
-0.00122459
-0.00331248
-0.00365321
0.00145505
-0.00531792
0.00357795
-0.00298672
0.00231565
0.000275287
0.000676667
0.000590575
-0.000261066
8.02969e-05
-0.000479937
8.22732e-05
-0.000331697
-0.000416344
-0.000282442
-0.000184019
-7.21947e-05
-0.000288838
-0.000946333
0.00154549
-0.00367249
0.00442969
-0.00448065
0.0571641
-0.0443688
-0.013306
-0.00447724
-0.00115316
-0.000696347
-0.000799435
-0.000570912
-0.000180808
-0.000213543
-0.000298206
-0.000617211
-0.000694554
-0.000654232
-0.00109581
-0.00088756
-0.000693009
-0.000532519
-0.000276842
-0.000243824
-0.000249763
-0.000337716
-0.000535157
-0.000476919
-0.000363099
-0.000205858
0.000133518
0.000352007
0.000676795
0.00116903
0.00198849
0.00240015
0.00256934
0.00288093
0.00263418
0.00196398
0.00143911
-0.000134632
-0.00182162
-0.00111322
-0.0193277
0.0985676
0.0527101
-0.0453254
-0.0152647
-0.0177323
-0.014486
-0.0113857
-0.0126584
-0.00431331
-0.00849954
-0.00286577
-0.00484074
-0.00257196
-0.00370553
-0.00166116
-0.0027643
-0.000723523
-0.00197641
-0.00147703
-0.00136957
-0.000369119
-0.00130236
-0.000799437
-0.00135516
-0.000287199
-0.00125958
-0.000160387
-0.000498045
5.80545e-05
-0.000182372
-0.000113312
-0.00115313
0.000580343
-0.00191316
0.000808348
-0.00266877
0.00229924
-0.00156244
0.00298316
0.000809388
0.00946064
-0.00523739
0.0124258
-0.00207147
0.0120572
0.000648002
0.00983408
0.00182516
0.00576337
0.00164282
0.00407606
0.00244413
0.00242584
0.00434511
0.000409817
0.00189212
-0.00439069
0.00340402
-0.00388642
0.0017936
-0.00143916
-0.000823541
-0.000819167
-0.000806114
-0.000436566
-0.000523698
-0.000117671
-0.000198672
-0.000320303
0.000104445
-0.000441026
7.21608e-05
-0.000728986
-0.00058263
0.000887822
-0.00345933
0.00481914
-0.00502281
-0.056633
0.0367218
0.0117876
0.0042403
0.00102048
-1.31404e-05
3.78605e-05
-0.000188207
-0.0005568
-0.000665763
-0.000443265
-0.000228615
-0.000196371
-0.000123944
-0.000121268
-0.000104277
-0.000268418
-0.000290423
-0.00044645
-0.000498107
-0.000424532
-0.000307535
-0.000168461
-0.000131869
-0.000147404
-8.95698e-05
-0.000216154
-0.000407633
-0.00070168
-0.000658995
-0.0011343
-0.00127914
-0.00146708
-0.00160718
-0.0018517
-0.00186364
-0.00208217
-0.00075346
-0.00127596
0.0032465
-0.00549994
0.0768455
0.0550683
0.0020028
0.00832629
0.00602001
0.00458377
0.00475696
-0.000353145
0.0061861
-0.00173104
0.00362186
-0.00255264
0.00158751
-0.00274187
0.000182657
-0.00291603
-0.000783064
-0.00234812
-0.00274977
0.000651686
-0.00357989
0.00217094
-0.00289999
-0.00112373
-0.00054259
0.000124867
-0.000655047
5.8862e-05
-9.33862e-05
-0.000111299
-7.80903e-05
-0.000552625
4.11423e-07
-0.00118831
0.000380893
-0.00259198
0.00375504
-0.00450811
0.00504986
-0.0080655
0.00293226
-0.00806757
-0.00132881
-0.0040147
-0.00448464
-0.00377504
-0.00448307
-0.00279358
-0.00173809
-0.00048661
-0.00402535
0.00252568
-0.00841041
0.00446039
-0.0062133
0.00466629
-0.00298307
0.00593942
-0.00154422
0.00370429
-0.00120438
0.00126699
0.00080376
0.000440679
0.000174358
-0.000102976
-0.000196658
-0.000435143
-0.000643029
-0.000314934
-0.00071703
-4.52183e-05
-0.00101079
-0.000307257
-0.000325812
-0.00251897
0.00448819
-0.00515022
0.0308835
-0.0250458
-0.00877644
-0.00333806
-0.000791273
-0.00028412
-0.000220736
-0.000187899
-0.00021883
-0.000187317
-0.000178277
-0.000383128
-0.00045229
-0.00047045
-0.000558706
-0.000572712
-0.000519022
-0.000428286
-0.000336403
-0.000332759
-0.000358338
-0.00036886
-0.000355667
-0.00026857
-0.000282146
-0.000112432
3.39703e-05
0.000243413
0.000457137
0.00053736
0.000947513
0.00107979
0.00125754
0.00131225
0.00121138
0.00111329
0.0010632
0.00093735
0.000712064
0.00391834
-0.00159529
0.0538592
0.0390644
-0.00138034
0.00658534
0.00542036
-0.000265986
7.40555e-05
-0.00747034
0.00225205
-0.00484064
0.0022443
-0.00323225
0.00118679
-0.00273886
0.000404316
-0.00231133
0.000339198
-0.0017466
-0.000540011
-0.000959743
-0.000404874
-0.00150166
-0.000444393
-0.000434656
-0.00196297
0.000880393
-0.00108667
0.000321092
-0.000323921
-7.65077e-05
-5.28542e-05
-0.000602034
-0.000118672
-0.000906236
-0.00121779
-0.00120046
0.0024282
-0.00148012
0.00209903
-0.00393636
0.00644135
-0.00878477
0.00648659
-0.00303505
0.00465073
0.00120088
0.00307048
0.00278602
0.00168328
0.00070741
0.00216848
-0.000656746
-0.00057553
-0.000119044
0.00271476
-0.00315831
-0.000112486
-0.00217243
-0.000762759
-0.000267789
-0.00116794
0.000899721
-0.000278851
-0.000355001
-0.00054221
-0.000417383
-0.000417967
-0.000128955
-0.000330804
0.000316582
-0.000914969
0.000528259
-0.0010886
8.94646e-05
-0.000887328
-0.00108086
0.00342615
-0.00532128
-0.0326773
0.0203359
0.00658463
0.00227958
0.000556505
-1.54142e-05
-0.000117451
-0.000324956
-0.000520129
-0.000602669
-0.000510774
-0.0004078
-0.000388288
-0.00040708
-0.000359459
-0.00033493
-0.000449555
-0.000486002
-0.000491965
-0.000493037
-0.000499087
-0.000443104
-0.000381417
-0.000316935
-0.000248687
-0.000389463
-0.000456853
-0.000506471
-0.000598463
-0.000728729
-0.000846011
-0.00106092
-0.00115957
-0.00133441
-0.00154478
-0.00172522
-0.00206298
-0.00211329
-0.00138232
-0.00304621
0.0184005
0.0406239
0.0247696
0.00426063
0.00632381
0.00486967
0.00440063
-0.000734654
0.0068421
-0.00302058
0.00969521
-0.00520786
0.00811803
-0.00449493
0.00481448
-0.00291881
0.00134877
-0.00153619
-0.000195457
-0.00123687
-0.000600528
-0.000514966
-0.00079108
-0.000163021
-0.00086357
-0.000602091
-0.000574481
0.000295244
2.36428e-05
-0.000188204
0.000622417
-0.000724538
0.000893269
-0.000415806
0.00122162
0.00119368
0.00252127
0.00446003
-8.87947e-05
-0.00035078
-0.00679635
0.00223861
-0.0125946
0.00291716
-0.0100447
0.00144197
-0.00186401
-0.00163828
-0.00283522
-0.00264628
-0.00405526
-0.00261171
-0.0012879
-0.00463122
0.000200249
-0.000287219
-0.000357311
-0.00130433
0.000629256
0.000964098
0.000699603
0.000111416
0.00161174
0.000365461
0.000495667
6.24509e-05
-3.00083e-05
-0.000175025
-7.77426e-05
-0.000553871
-0.00042944
-0.00127862
0.000558252
-0.00129828
0.00027389
-0.00123624
-0.000593963
0.00172154
-0.00473873
0.012141
-0.0115075
-0.00488793
-0.00168071
-0.000451535
-8.33093e-05
-0.00014406
-0.000129385
-6.67787e-05
-0.00011347
-0.000193532
-0.000280676
-0.000415839
-0.00044544
-0.000464919
-0.000443299
-0.000498675
-0.00049527
-0.000473242
-0.000411748
-0.000381201
-0.000373776
-0.000457402
-0.00050422
-0.000421052
-0.000271274
-0.000221858
-0.000139405
-4.72478e-05
-4.79472e-05
-2.03861e-05
6.15495e-05
0.000122907
0.000141037
-6.87454e-05
-0.000296199
-0.000335199
-0.00100703
0.00080981
-0.00839788
0.0499648
0.0273126
0.0097931
0.00294232
0.00810487
0.00616919
0.00616493
0.00347094
0.00303804
0.000203398
-0.000406782
0.00181171
-0.00172095
0.000209718
-0.00192008
-0.00058428
-0.0019677
-0.00143827
-0.000250786
-0.00217257
-0.000965814
-0.00205857
0.000111467
-0.00112355
-0.000851209
-0.00043586
-0.000151271
-0.000316032
-1.14418e-05
-2.00704e-05
-0.000293397
-8.37316e-05
0.000332779
-0.000719725
0.00257948
0.00101584
0.00900521
-0.0068887
0.00754461
-0.00704279
-0.000105291
-0.000546087
-0.00516338
0.0065561
-0.00235744
0.00479003
0.00310992
0.00219019
0.00318262
0.00431489
-0.000820873
0.00328771
0.00077511
0.000455325
-0.000108123
0.00042911
-0.00104858
-0.00166102
-0.000957116
-0.00194878
-0.000985839
-0.000486208
-0.000448596
-0.000619141
-0.000312387
-0.000654574
-0.0005333
-0.000462697
-0.000350997
-0.000623556
5.57614e-05
-0.00146568
0.000969324
-0.00172031
0.000633644
-0.00156428
0.000258089
0.000496687
-0.00406106
-0.0171256
0.00946051
0.00314328
0.000619652
0.000268721
-7.66585e-05
-0.000230344
-0.000369166
-0.000393427
-0.000501107
-0.000497221
-0.000419706
-0.000512977
-0.000499838
-0.000460576
-0.000455597
-0.000440255
-0.000576021
-0.000570652
-0.000514297
-0.000479054
-0.000542477
-0.000503768
-0.000483492
-0.000508119
-0.0003669
-0.000518135
-0.000563767
-0.000494671
-0.000558329
-0.000906302
-0.000926654
-0.000899986
-0.00101858
-0.00113123
-0.00120139
-0.000351562
-0.000627313
0.00314331
-0.00603055
0.0771769
0.00788566
-0.00138603
-0.000789204
-1.1218e-05
0.0056949
0.00515125
0.00726367
0.00863266
0.00452331
0.0116539
-0.00471569
0.00785448
-0.00471743
0.00305589
-0.00466847
0.000218339
-0.00253485
0.000751331
-0.00202844
-0.000179728
-0.00111967
-0.00126875
0.000865927
-0.000996332
0.000413161
0.000201173
0.000776257
0.000599968
0.000341619
0.00126844
0.00139597
0.00181106
0.00328234
0.00412335
0.00809426
-0.00121816
0.00930963
-0.00137485
-0.00169712
-0.00039996
-0.00393905
-0.00260232
-0.006989
-0.00556164
-0.00559432
-0.00649554
-0.0063835
-0.00512596