/*--------------------------------*- C++ -*----------------------------------*\
| =========                 |                                                 |
| \\      /  F ield         | OpenFOAM: The Open Source CFD Toolbox           |
|  \\    /   O peration     | Version:  2.2.x                                 |
|   \\  /    A nd           | Web:      www.OpenFOAM.org                      |
|    \\/     M anipulation  |                                                 |
\*---------------------------------------------------------------------------*/
FoamFile
{
    version     2.0;
    format      ascii;
    class       volScalarField;
    location    "1.4";
    object      T;
}
// * * * * * * * * * * * * * * * * * * * * * * * * * * * * * * * * * * * * * //

dimensions      [0 0 0 1 0 0 0];

internalField   nonuniform List<scalar> 
14161
(
1
1
1
1
1
1
1
1
1
1
1
1
1
1
1
1
1
1
1
1
1
2.27873
2.94733
2.95043
2.95072
2.94934
2.94805
2.94942
2.95445
2.96331
2.97551
2.98998
3.00541
3.02055
3.03445
3.04655
3.05673
3.0651
3.07195
3.07759
3.08232
3.08636
3.08989
3.09305
3.09592
3.09838
3.10092
3.10343
3.10594
3.10848
3.11104
3.11365
3.11631
3.11903
3.1218
3.12462
3.1275
3.13041
3.13335
3.13629
3.1392
3.14205
3.1448
3.14741
3.14983
3.15204
3.15398
3.15564
3.15697
3.15797
3.15863
3.15897
3.15913
3.15911
3.15899
3.15883
3.15873
3.15878
3.15908
3.15975
3.16087
3.16255
3.16483
3.16775
3.1713
3.17543
3.18003
3.18498
3.19015
3.19539
3.20057
3.20557
3.21031
3.21473
3.21878
3.22243
3.22567
3.22847
3.23083
3.23274
3.23423
3.23533
3.2361
3.23663
3.23704
3.23744
3.23797
3.23875
3.23988
3.24144
3.24346
3.24597
3.24896
3.25245
3.2565
3.26127
3.26723
3.27545
3.31183
1
1
1
1
1
1
1
1
1
1
1
1
1
1
1
1
1
1
1
1
1
2.42178
3.11784
3.16518
3.19901
3.21694
3.21765
3.20461
3.18426
3.16209
3.14177
3.12502
3.11221
3.10303
3.09691
3.09324
3.09151
3.0913
3.09225
3.0941
3.09665
3.0997
3.10314
3.10686
3.11078
3.11482
3.11921
3.12396
3.12908
3.13461
3.14057
3.14699
3.15389
3.16128
3.16918
3.17755
3.18635
3.1955
3.20487
3.21432
3.22364
3.23264
3.24107
3.24869
3.25527
3.26061
3.26458
3.26709
3.26812
3.26773
3.26601
3.26307
3.25902
3.2541
3.24856
3.24271
3.23686
3.23132
3.22637
3.22229
3.21929
3.21755
3.21718
3.21822
3.22069
3.2245
3.22953
3.23561
3.24248
3.24986
3.25739
3.26468
3.27135
3.27703
3.28144
3.2844
3.28588
3.28604
3.28518
3.28372
3.28217
3.28102
3.2807
3.28149
3.28349
3.28659
3.29046
3.29467
3.29875
3.30237
3.30541
3.30794
3.31008
3.31182
3.313
3.31347
3.3137
3.31559
3.3335
1
1
1
1
1
1
1
1
1
1
1
1
1
1
1
1
1
1
1
1
1
2.34635
3.03416
3.05746
3.07497
3.08951
3.10124
3.10954
3.1141
3.1151
3.11312
3.10918
3.10443
3.09981
3.09599
3.09329
3.09181
3.09149
3.09218
3.09369
3.09584
3.09846
3.10141
3.10458
3.10786
3.11111
3.11452
3.11818
3.12204
3.12609
3.13033
3.13476
3.13939
3.1442
3.1492
3.15438
3.15972
3.16522
3.17085
3.17656
3.18233
3.18806
3.19371
3.19922
3.20456
3.20967
3.21447
3.21891
3.22292
3.22644
3.22941
3.23177
3.23348
3.23449
3.23482
3.23448
3.23354
3.23214
3.23045
3.22871
3.22718
3.22613
3.22582
3.22649
3.22829
3.23133
3.23563
3.2411
3.24757
3.25477
3.26236
3.26992
3.27701
3.2832
3.28814
3.29159
3.2935
3.29404
3.29357
3.29261
3.29175
3.29157
3.29248
3.29463
3.29789
3.30186
3.306
3.30986
3.31317
3.316
3.3186
3.32115
3.3236
3.32551
3.32615
3.32479
3.32144
3.31829
3.31644
1
1
1
1
1
1
1
1
1
1
1
1
1
1
1
1
1
1
1
1
1
2.27069
2.9694
2.97877
2.98907
3.00139
3.01574
3.03127
3.04648
3.05982
3.07025
3.07753
3.08203
3.08452
3.08582
3.08662
3.08739
3.08841
3.0898
3.09157
3.09366
3.09602
3.09855
3.10118
3.10384
3.10637
3.10898
3.11172
3.11455
3.11745
3.12041
3.12342
3.12647
3.12955
3.13266
3.13579
3.13895
3.14213
3.14532
3.14852
3.15174
3.15501
3.15833
3.1617
3.16513
3.16863
3.17221
3.17586
3.17959
3.18339
3.18725
3.19113
3.19499
3.19879
3.20244
3.20589
3.20904
3.21185
3.21427
3.21632
3.21806
3.2196
3.22111
3.2228
3.22488
3.22754
3.23095
3.23521
3.24032
3.2462
3.25267
3.25947
3.26627
3.27271
3.27843
3.28316
3.28673
3.28915
3.2906
3.29146
3.2922
3.29334
3.2953
3.29826
3.30213
3.30654
3.31099
3.31503
3.31851
3.32157
3.32455
3.32763
3.33069
3.33325
3.3344
3.33301
3.32842
3.32257
3.31189
1
1
1
1
1
1
1
1
1
1
1
1
1
1
1
1
1
1
1
1
1
2.29478
3.00193
3.01577
3.03113
3.04666
3.06098
3.07299
3.08201
3.08789
3.09098
3.09192
3.09148
3.09042
3.08929
3.08852
3.0883
3.08872
3.08975
3.0913
3.09326
3.09553
3.09799
3.10058
3.10322
3.10577
3.10842
3.11118
3.11402
3.11695
3.11995
3.12301
3.12614
3.12933
3.1326
3.13594
3.13936
3.14288
3.14649
3.15022
3.15407
3.15803
3.16212
3.16632
3.17062
3.17499
3.1794
3.18381
3.18816
3.1924
3.19647
3.2003
3.20384
3.20703
3.20984
3.21225
3.21425
3.21585
3.2171
3.21806
3.21881
3.21947
3.22017
3.22106
3.22231
3.22407
3.22647
3.22963
3.23357
3.23829
3.2437
3.24963
3.25587
3.26213
3.26812
3.27357
3.27825
3.28206
3.28503
3.28735
3.28936
3.29147
3.29408
3.29744
3.30157
3.30623
3.31099
3.31547
3.31949
3.32317
3.3268
3.33057
3.33441
3.33783
3.33995
3.33936
3.33468
3.32717
3.31107
1
1
1
1
1
1
1
1
1
1
1
1
1
1
1
1
1
1
1
1
1
2.30248
3.0124
3.02592
3.04047
3.05504
3.06839
3.07949
3.08762
3.09261
3.0948
3.09488
3.09368
3.09198
3.09036
3.08923
3.08878
3.08905
3.09
3.09151
3.09348
3.09576
3.09827
3.1009
3.10358
3.10618
3.10892
3.11177
3.11471
3.11774
3.12085
3.12404
3.1273
3.13065
3.13408
3.13761
3.14125
3.145
3.14888
3.15289
3.15703
3.16131
3.16572
3.17025
3.17488
3.17958
3.18431
3.18902
3.19365
3.19813
3.20238
3.20632
3.20987
3.21296
3.21554
3.21759
3.2191
3.22011
3.22068
3.2209
3.22089
3.22078
3.22073
3.2209
3.22144
3.22248
3.22416
3.22655
3.22972
3.23365
3.23831
3.24359
3.24931
3.25528
3.26123
3.26692
3.27211
3.27663
3.28041
3.28354
3.28623
3.28881
3.29166
3.29507
3.29917
3.30383
3.30876
3.3136
3.31814
3.32244
3.32672
3.33117
3.33575
3.34009
3.34336
3.34399
3.33996
3.33153
3.3114
1
1
1
1
1
1
1
1
1
1
1
1
1
1
1
1
1
1
1
1
1
2.291
3.00559
3.0182
3.03201
3.04637
3.06008
3.07201
3.08128
3.08751
3.09087
3.09196
3.09157
3.09047
3.0893
3.08849
3.08826
3.08869
3.08975
3.09134
3.09335
3.09567
3.0982
3.10083
3.10352
3.1061
3.10882
3.11165
3.11458
3.11758
3.12066
3.12381
3.12703
3.13032
3.13368
3.13714
3.14068
3.14433
3.14809
3.15198
3.15599
3.16014
3.16442
3.16884
3.17337
3.17801
3.18271
3.18744
3.19214
3.19674
3.20116
3.20531
3.20912
3.21249
3.21535
3.21765
3.21938
3.22054
3.22119
3.22141
3.22133
3.22109
3.22084
3.22076
3.22101
3.22173
3.22305
3.22505
3.2278
3.23131
3.23554
3.24042
3.24581
3.25153
3.25737
3.26309
3.26845
3.27326
3.27739
3.28085
3.28379
3.28647
3.28925
3.29246
3.29631
3.30079
3.3057
3.31073
3.31565
3.32042
3.32521
3.33022
3.33545
3.34062
3.345
3.34701
3.3441
3.3354
3.31201
1
1
1
1
1
1
1
1
1
1
1
1
1
1
1
1
1
1
1
1
1
2.29291
3.01006
3.02292
3.03645
3.05031
3.06338
3.07456
3.08307
3.0886
3.09139
3.09205
3.09136
3.09009
3.08884
3.08801
3.0878
3.08827
3.08938
3.09103
3.0931
3.09546
3.09803
3.1007
3.10341
3.10601
3.10876
3.11162
3.11456
3.11759
3.12068
3.12385
3.12708
3.13039
3.13377
3.13723
3.14079
3.14445
3.14823
3.15211
3.15613
3.16027
3.16453
3.16892
3.17341
3.178
3.18263
3.18728
3.19189
3.1964
3.20073
3.20481
3.20855
3.21187
3.21471
3.21702
3.21876
3.21996
3.22064
3.2209
3.22084
3.2206
3.22034
3.22022
3.2204
3.22102
3.22222
3.22408
3.22666
3.22998
3.23402
3.23871
3.24393
3.24952
3.25528
3.26098
3.26639
3.27128
3.27552
3.27906
3.28199
3.28457
3.28712
3.29002
3.29352
3.29772
3.30248
3.30755
3.31267
3.31775
3.32289
3.32829
3.33401
3.33987
3.34525
3.34862
3.34708
3.33862
3.31256
1
1
1
1
1
1
1
1
1
1
1
1
1
1
1
1
1
1
1
1
1
2.29033
3.01094
3.02432
3.03792
3.0517
3.06457
3.07546
3.08362
3.08879
3.09124
3.09163
3.09077
3.0894
3.08813
3.08732
3.08717
3.08772
3.08891
3.09064
3.09278
3.09521
3.09782
3.10054
3.10329
3.10593
3.10872
3.11161
3.11459
3.11765
3.12077
3.12397
3.12724
3.13058
3.134
3.13751
3.14112
3.14482
3.14864
3.15257
3.15662
3.1608
3.16509
3.16949
3.17399
3.17856
3.18317
3.18777
3.19232
3.19674
3.20097
3.20492
3.20852
3.21171
3.21441
3.21658
3.21821
3.21931
3.21992
3.22013
3.22003
3.21977
3.2195
3.21937
3.21954
3.22016
3.22134
3.22317
3.22571
3.22898
3.23295
3.23757
3.24273
3.24827
3.254
3.25969
3.2651
3.27001
3.27424
3.27774
3.28058
3.28296
3.28524
3.28779
3.29093
3.29481
3.29936
3.30436
3.30955
3.31478
3.32012
3.32575
3.3318
3.33817
3.34438
3.34899
3.34894
3.34111
3.31291
1
1
1
1
1
1
1
1
1
1
1
1
1
1
1
1
1
1
1
1
1
2.28567
3.01074
3.02456
3.03829
3.05208
3.06485
3.07555
3.08343
3.0883
3.09048
3.09067
3.08969
3.08829
3.08704
3.08632
3.08628
3.08694
3.08824
3.09007
3.09229
3.09479
3.09747
3.10023
3.10302
3.1057
3.10851
3.11142
3.11442
3.1175
3.12064
3.12385
3.12713
3.13049
3.13393
3.13745
3.14107
3.14479
3.14862
3.15257
3.15664
3.16082
3.16513
3.16954
3.17404
3.17861
3.1832
3.18778
3.19229
3.19666
3.20083
3.2047
3.20822
3.2113
3.21389
3.21596
3.21748
3.21848
3.21901
3.21914
3.219
3.21871
3.21842
3.2183
3.21849
3.21912
3.22032
3.22218
3.22473
3.22801
3.23199
3.2366
3.24175
3.24728
3.25301
3.25869
3.26409
3.26898
3.27317
3.27659
3.27928
3.28147
3.28348
3.28571
3.28851
3.29208
3.2964
3.30128
3.30643
3.3117
3.3171
3.32283
3.32905
3.33578
3.34263
3.34834
3.34974
3.34283
3.31297
1
1
1
1
1
1
1
1
1
1
1
1
1
1
1
1
1
1
1
1
1
2.27941
3.01014
3.02436
3.03825
3.05207
3.06476
3.07523
3.08281
3.08735
3.08924
3.08923
3.08815
3.08676
3.08559
3.085
3.0851
3.08592
3.08737
3.08932
3.09165
3.09423
3.09697
3.09978
3.10261
3.10532
3.10815
3.11108
3.11409
3.11717
3.12032
3.12354
3.12683
3.13019
3.13363
3.13715
3.14077
3.1445
3.14833
3.15228
3.15634
3.16053
3.16483
3.16923
3.17372
3.17827
3.18284
3.18739
3.19185
3.19617
3.20028
3.20408
3.20752
3.21051
3.21302
3.21499
3.21643
3.21735
3.21781
3.21789
3.21771
3.2174
3.21712
3.21701
3.21723
3.2179
3.21914
3.22104
3.22364
3.22696
3.23097
3.23561
3.24078
3.24632
3.25204
3.25772
3.2631
3.26795
3.27208
3.2754
3.27796
3.27995
3.28173
3.28368
3.28619
3.28949
3.29359
3.29832
3.30338
3.30859
3.31395
3.31966
3.32593
3.33286
3.34019
3.3468
3.34958
3.34376
3.31268
1
1
1
1
1
1
1
1
1
1
1
1
1
1
1
1
1
1
1
1
1
2.27281
3.01028
3.02497
3.03909
3.05295
3.06544
3.07553
3.08258
3.08658
3.08801
3.08767
3.08641
3.08498
3.08389
3.08343
3.08371
3.0847
3.08631
3.0884
3.09084
3.09352
3.09633
3.09919
3.10206
3.1048
3.10765
3.1106
3.11362
3.11671
3.11986
3.12308
3.12637
3.12972
3.13316
3.13668
3.1403
3.14402
3.14785
3.15179
3.15585
3.16002
3.16431
3.1687
3.17317
3.17769
3.18222
3.18673
3.19114
3.1954
3.19943
3.20315
3.2065
3.20941
3.21182
3.21371
3.21506
3.21591
3.21631
3.21635
3.21614
3.21583
3.21556
3.21548
3.21574
3.21647
3.21777
3.21973
3.22239
3.22576
3.22983
3.23451
3.2397
3.24526
3.25099
3.25665
3.26201
3.26681
3.27087
3.27408
3.27651
3.27833
3.2799
3.28163
3.2839
3.28698
3.29088
3.29544
3.30038
3.30547
3.31072
3.31631
3.32253
3.32954
3.33719
3.34452
3.34854
3.34391
3.31199
1
1
1
1
1
1
1
1
1
1
1
1
1
1
1
1
1
1
1
1
1
2.26453
3.01028
3.0255
3.03994
3.05385
3.06612
3.07573
3.08216
3.08553
3.08643
3.08573
3.0843
3.08286
3.08187
3.08159
3.08208
3.08328
3.08508
3.08733
3.08991
3.09269
3.09558
3.0985
3.1014
3.10417
3.10705
3.11001
3.11304
3.11613
3.11929
3.1225
3.12579
3.12914
3.13257
3.13609
3.1397
3.14342
3.14724
3.15117
3.15523
3.15939
3.16366
3.16803
3.17247
3.17696
3.18145
3.1859
3.19025
3.19443
3.19837
3.202
3.20525
3.20805
3.21036
3.21215
3.21341
3.21418
3.21452
3.21452
3.21429
3.21398
3.21373
3.21369
3.214
3.2148
3.21617
3.21821
3.22095
3.22439
3.22851
3.23325
3.23848
3.24406
3.24979
3.25544
3.26075
3.2655
3.26947
3.27258
3.27488
3.27655
3.27795
3.2795
3.28159
3.28448
3.28821
3.29261
3.2974
3.30233
3.3074
3.31282
3.3189
3.32589
3.33372
3.34161
3.34673
3.34331
3.31085
1
1
1
1
1
1
1
1
1
1
1
1
1
1
1
1
1
1
1
1
1
2.25401
3.00987
3.0256
3.04032
3.05425
3.06622
3.07527
3.08103
3.08374
3.08413
3.08313
3.08161
3.08025
3.07946
3.07944
3.0802
3.08166
3.08368
3.08613
3.08885
3.09174
3.09471
3.09769
3.10063
3.10343
3.10633
3.1093
3.11234
3.11543
3.11858
3.12179
3.12506
3.12841
3.13183
3.13534
3.13895
3.14265
3.14647
3.15039
3.15443
3.15859
3.16284
3.16718
3.1716
3.17604
3.18048
3.18487
3.18915
3.19325
3.1971
3.20062
3.20376
3.20644
3.20864
3.21031
3.21148
3.21217
3.21244
3.2124
3.21215
3.21184
3.21162
3.21163
3.212
3.21288
3.21434
3.21646
3.21929
3.22281
3.22701
3.2318
3.23707
3.24268
3.24841
3.25403
3.25931
3.26398
3.26786
3.27087
3.27304
3.27458
3.27584
3.27725
3.27919
3.28193
3.28552
3.28977
3.29439
3.29914
3.304
3.30919
3.31508
3.32195
3.32985
3.33815
3.3442
3.34198
3.30924
1
1
1
1
1
1
1
1
1
1
1
1
1
1
1
1
1
1
1
1
1
2.24227
3.01007
3.02639
3.0414
3.05524
3.06671
3.07497
3.07982
3.0817
3.08149
3.08015
3.07856
3.07731
3.07677
3.07705
3.07813
3.07988
3.08215
3.0848
3.08768
3.09068
3.09373
3.09676
3.09974
3.10257
3.10549
3.10847
3.11151
3.1146
3.11774
3.12094
3.12421
3.12754
3.13095
3.13445
3.13805
3.14174
3.14554
3.14946
3.15348
3.15762
3.16185
3.16617
3.17054
3.17494
3.17932
3.18364
3.18784
3.19184
3.19558
3.19899
3.202
3.20456
3.20663
3.20819
3.20925
3.20985
3.21006
3.20997
3.20971
3.20941
3.20922
3.20928
3.20974
3.21069
3.21225
3.21447
3.21739
3.22101
3.22528
3.23013
3.23546
3.24108
3.24682
3.25242
3.25764
3.26224
3.26603
3.26893
3.27098
3.2724
3.27355
3.27483
3.27667
3.27929
3.28276
3.28687
3.29132
3.29586
3.30048
3.30542
3.31106
3.31776
3.32563
3.3342
3.34103
3.33995
3.30712
1
1
1
1
1
1
1
1
1
1
1
1
1
1
1
1
1
1
1
1
1
2.22792
3.01001
3.02692
3.04216
3.05578
3.06659
3.07391
3.07777
3.07882
3.07805
3.07649
3.07494
3.07394
3.07376
3.07443
3.07588
3.07797
3.08051
3.08337
3.08641
3.08953
3.09266
3.09574
3.09875
3.10159
3.10453
3.10751
3.11055
3.11363
3.11676
3.11995
3.1232
3.12653
3.12993
3.13341
3.13699
3.14067
3.14446
3.14836
3.15237
3.15648
3.16069
3.16496
3.16929
3.17364
3.17795
3.18219
3.18629
3.19018
3.1938
3.19708
3.19996
3.20238
3.20431
3.20575
3.2067
3.20721
3.20736
3.20723
3.20696
3.20668
3.20653
3.20665
3.20719
3.20824
3.2099
3.21222
3.21525
3.21896
3.22331
3.22824
3.23361
3.23927
3.245
3.25058
3.25575
3.26027
3.26396
3.26674
3.26868
3.27
3.27104
3.27224
3.27398
3.27652
3.27988
3.28386
3.28814
3.29247
3.29683
3.30149
3.30685
3.31332
3.32109
3.32981
3.33728
3.33725
3.30449
1
1
1
1
1
1
1
1
1
1
1
1
1
1
1
1
1
1
1
1
1
2.21168
3.01056
3.0281
3.04347
3.05663
3.06649
3.07259
3.07526
3.07539
3.07408
3.07235
3.07095
3.07029
3.07054
3.07167
3.07353
3.07597
3.0788
3.08187
3.08507
3.08829
3.09149
3.09461
3.09764
3.1005
3.10344
3.10642
3.10945
3.11252
3.11564
3.11882
3.12205
3.12536
3.12874
3.13221
3.13578
3.13944
3.14322
3.14709
3.15108
3.15516
3.15933
3.16357
3.16784
3.17212
3.17636
3.1805
3.18449
3.18826
3.19174
3.19487
3.1976
3.19987
3.20166
3.20297
3.20381
3.20423
3.20431
3.20415
3.20388
3.20362
3.20352
3.20372
3.20435
3.2055
3.20727
3.20971
3.21285
3.21666
3.22111
3.2261
3.23153
3.23721
3.24295
3.2485
3.25361
3.25805
3.26164
3.26431
3.26614
3.26735
3.26831
3.26943
3.27112
3.27359
3.27686
3.28071
3.28482
3.28893
3.29302
3.29738
3.30245
3.30864
3.31624
3.32501
3.33298
3.33393
3.30131
1
1
1
1
1
1
1
1
1
1
1
1
1
1
1
1
1
1
1
1
1
2.19239
3.01121
3.02934
3.04464
3.05706
3.06567
3.07035
3.07177
3.07104
3.06934
3.06764
3.06656
3.06639
3.06718
3.06883
3.07115
3.07395
3.07706
3.08034
3.08367
3.08699
3.09024
3.09339
3.09643
3.09929
3.10223
3.10521
3.10823
3.11128
3.11438
3.11754
3.12076
3.12405
3.12741
3.13086
3.13441
3.13806
3.14181
3.14567
3.14962
3.15367
3.15779
3.16198
3.16618
3.17038
3.17452
3.17855
3.18241
3.18604
3.18937
3.19235
3.19491
3.19702
3.19866
3.19983
3.20055
3.20089
3.20091
3.20072
3.20045
3.20023
3.2002
3.20048
3.20121
3.20248
3.20437
3.20694
3.21018
3.2141
3.21864
3.22372
3.22919
3.2349
3.24064
3.24616
3.25121
3.25557
3.25906
3.26162
3.26334
3.26446
3.26534
3.26641
3.26804
3.27046
3.27365
3.27739
3.28132
3.28521
3.28903
3.29308
3.29783
3.30373
3.31109
3.31983
3.32818
3.33
3.29759
1
1
1
1
1
1
1
1
1
1
1
1
1
1
1
1
1
1
1
1
1
2.16987
3.01231
3.03088
3.04578
3.05704
3.06405
3.06711
3.06726
3.0658
3.06392
3.06247
3.0619
3.06237
3.06379
3.06601
3.0688
3.07196
3.07533
3.07879
3.08224
3.08563
3.08891
3.09208
3.09511
3.09796
3.10089
3.10386
3.10685
3.10989
3.11297
3.11611
3.1193
3.12257
3.12592
3.12935
3.13288
3.1365
3.14023
3.14406
3.14798
3.15198
3.15606
3.16017
3.1643
3.1684
3.17243
3.17633
3.18005
3.18351
3.18667
3.18947
3.19185
3.19379
3.19527
3.1963
3.19691
3.19716
3.19713
3.19693
3.19667
3.1965
3.19654
3.19693
3.19777
3.19917
3.20119
3.20388
3.20725
3.21128
3.21592
3.22107
3.2266
3.23234
3.23807
3.24356
3.24855
3.25282
3.2562
3.25865
3.26027
3.2613
3.26212
3.26314
3.26474
3.26712
3.27024
3.27386
3.27762
3.28128
3.28483
3.28857
3.29299
3.29856
3.30566
3.31429
3.32291
3.32549
3.29333
1
1
1
1
1
1
1
1
1
1
1
1
1
1
1
1
1
1
1
1
1
2.14354
3.01408
3.03281
3.04683
3.05641
3.06145
3.06277
3.06175
3.05979
3.05801
3.05705
3.05719
3.05841
3.06053
3.06332
3.06656
3.07004
3.07364
3.07724
3.08077
3.0842
3.08749
3.09065
3.09367
3.0965
3.09941
3.10236
3.10533
3.10834
3.1114
3.11451
3.11769
3.12093
3.12426
3.12767
3.13118
3.13478
3.13847
3.14226
3.14614
3.1501
3.1541
3.15814
3.16217
3.16616
3.17006
3.17381
3.17736
3.18065
3.18362
3.18622
3.18841
3.19017
3.19148
3.19237
3.19286
3.19303
3.19296
3.19275
3.19253
3.19242
3.19256
3.19306
3.19403
3.19557
3.19773
3.20056
3.20406
3.2082
3.21294
3.21816
3.22375
3.22951
3.23524
3.2407
3.24562
3.2498
3.25307
3.25542
3.25693
3.25788
3.25864
3.25963
3.26121
3.26355
3.26661
3.27011
3.2737
3.27713
3.2804
3.28383
3.28791
3.29315
3.29994
3.30839
3.31718
3.32043
3.28852
1
1
1
1
1
1
1
1
1
1
1
1
1
1
1
1
1
1
1
1
1
2.11204
3.01638
3.03469
3.04716
3.05452
3.05734
3.05699
3.0551
3.05305
3.05174
3.05158
3.05261
3.05467
3.0575
3.06084
3.06448
3.06823
3.07199
3.07568
3.07926
3.08269
3.08598
3.08912
3.0921
3.09489
3.09779
3.1007
3.10365
3.10664
3.10967
3.11276
3.11591
3.11913
3.12243
3.12582
3.1293
3.13287
3.13653
3.14028
3.1441
3.14799
3.15192
3.15586
3.15978
3.16363
3.16737
3.17095
3.17431
3.1774
3.18016
3.18256
3.18455
3.18612
3.18726
3.18801
3.18839
3.18849
3.18839
3.18819
3.18802
3.18799
3.18824
3.18887
3.18998
3.19167
3.19398
3.19695
3.20059
3.20485
3.20968
3.21499
3.22063
3.22641
3.23214
3.23755
3.24241
3.24649
3.24966
3.25189
3.25331
3.25418
3.25489
3.25585
3.25741
3.25973
3.26273
3.26612
3.26953
3.27272
3.27572
3.27883
3.28258
3.28746
3.29392
3.30215
3.31102
3.31484
3.28316
1
1
1
1
1
1
1
1
1
1
1
1
1
1
1
1
1
1
1
1
1
2.0742
3.01944
3.03644
3.04651
3.05113
3.05164
3.04991
3.04762
3.04596
3.04552
3.04639
3.04843
3.05134
3.05483
3.05863
3.06257
3.06651
3.07037
3.0741
3.07768
3.08109
3.08434
3.08744
3.09038
3.09312
3.09599
3.09887
3.10179
3.10475
3.10775
3.11082
3.11394
3.11714
3.12042
3.12378
3.12723
3.13076
3.13438
3.13808
3.14184
3.14565
3.14948
3.1533
3.15708
3.16078
3.16434
3.16773
3.17088
3.17374
3.17628
3.17845
3.18023
3.1816
3.18258
3.18319
3.18348
3.18353
3.18341
3.18324
3.18313
3.18321
3.18358
3.18435
3.18563
3.18748
3.18995
3.19307
3.19684
3.20123
3.20616
3.21155
3.21723
3.22304
3.22876
3.23413
3.23891
3.2429
3.24596
3.24808
3.2494
3.25019
3.25086
3.25181
3.25336
3.25565
3.25859
3.26186
3.2651
3.26806
3.27077
3.27358
3.27698
3.2815
3.28761
3.29557
3.30444
3.30874
3.27727
1
1
1
1
1
1
1
1
1
1
1
1
1
1
1
1
1
1
1
1
1
2.02771
3.023
3.0374
3.04419
3.04575
3.04424
3.04171
3.0397
3.03898
3.03974
3.0418
3.04485
3.04852
3.05254
3.05669
3.06082
3.06486
3.06874
3.07245
3.07599
3.07935
3.08255
3.08559
3.08848
3.09118
3.09401
3.09686
3.09975
3.10268
3.10566
3.1087
3.1118
3.11497
3.11822
3.12156
3.12497
3.12846
3.13203
3.13565
3.13933
3.14304
3.14675
3.15044
3.15405
3.15757
3.16093
3.16409
3.16701
3.16963
3.17193
3.17387
3.17543
3.17661
3.17742
3.17791
3.17812
3.17812
3.17801
3.17789
3.17787
3.17807
3.17859
3.17952
3.18097
3.18299
3.18563
3.18892
3.19283
3.19734
3.20237
3.20783
3.21357
3.21939
3.22509
3.23042
3.23512
3.23901
3.24196
3.24397
3.24519
3.24592
3.24655
3.24748
3.24903
3.2513
3.25418
3.25734
3.26039
3.26312
3.26555
3.26804
3.27111
3.27526
3.28099
3.28864
3.29745
3.30215
3.27086
1
1
1
1
1
1
1
1
1
1
1
1
1
1
1
1
1
1
1
1
1
1.96948
3.02664
3.03681
3.03959
3.03825
3.03541
3.03298
3.03197
3.03264
3.03479
3.03803
3.04195
3.04622
3.0506
3.05493
3.05914
3.06317
3.06702
3.07068
3.07415
3.07744
3.08057
3.08355
3.08639
3.08903
3.09183
3.09465
3.09752
3.10042
3.10338
3.10639
3.10947
3.11262
3.11584
3.11914
3.1225
3.12594
3.12944
3.13298
3.13656
3.14014
3.14371
3.14722
3.15065
3.15395
3.15708
3.15999
3.16265
3.16502
3.16706
3.16876
3.1701
3.1711
3.17176
3.17214
3.17228
3.17228
3.1722
3.17215
3.17225
3.17258
3.17327
3.17439
3.17602
3.17822
3.18104
3.18449
3.18854
3.19318
3.19831
3.20384
3.20962
3.21546
3.22114
3.22641
3.23104
3.23482
3.23766
3.23956
3.24069
3.24135
3.24195
3.24287
3.24442
3.24667
3.24949
3.25252
3.2554
3.25788
3.26004
3.26222
3.26494
3.26872
3.27406
3.28137
3.29006
3.29507
3.26392
1
1
1
1
1
1
1
1
1
1
1
1
1
1
1
1
1
1
1
1
1
1.89516
3.02942
3.03376
3.03239
3.02898
3.02597
3.0246
3.02518
3.02746
3.03095
3.03515
3.03969
3.04431
3.04884
3.05322
3.0574
3.06137
3.06514
3.06871
3.0721
3.07533
3.07839
3.08131
3.08409
3.08669
3.08946
3.09226
3.0951
3.09798
3.10092
3.10391
3.10696
3.11008
3.11327
3.11652
3.11983
3.12319
3.1266
3.13004
3.13348
3.13692
3.1403
3.14361
3.14682
3.14987
3.15274
3.15538
3.15777
3.15986
3.16165
3.1631
3.16423
3.16505
3.16558
3.16588
3.16599
3.16599
3.16597
3.16603
3.16626
3.16676
3.16763
3.16895
3.17078
3.17318
3.17618
3.17979
3.18399
3.18875
3.19398
3.19958
3.2054
3.21125
3.2169
3.22212
3.22666
3.23033
3.23305
3.23484
3.23588
3.23648
3.23705
3.23797
3.23952
3.24175
3.2445
3.24741
3.2501
3.25234
3.25422
3.25609
3.25847
3.26187
3.26681
3.27376
3.28228
3.28753
3.25648
1
1
1
1
1
1
1
1
1
1
1
1
1
1
1
1
1
1
1
1
1
1.79893
3.02969
3.02743
3.02283
3.01883
3.01692
3.01739
3.01983
3.02362
3.02815
3.03297
3.03783
3.04255
3.04709
3.0514
3.05549
3.05937
3.06304
3.06653
3.06984
3.073
3.076
3.07886
3.08159
3.08415
3.0869
3.08969
3.09251
3.09537
3.09829
3.10126
3.10428
3.10736
3.1105
3.11369
3.11692
3.12019
3.12348
3.12678
3.13006
3.1333
3.13647
3.13954
3.14249
3.14527
3.14785
3.1502
3.15229
3.15411
3.15563
3.15686
3.15779
3.15846
3.15888
3.15912
3.15922
3.15927
3.15934
3.15953
3.15993
3.16062
3.16169
3.16322
3.16526
3.16786
3.17105
3.17483
3.17918
3.18406
3.18939
3.19505
3.2009
3.20675
3.21237
3.21752
3.22197
3.22553
3.22813
3.22981
3.23076
3.23131
3.23185
3.23277
3.23432
3.23653
3.23921
3.24199
3.24449
3.24649
3.24808
3.24965
3.25169
3.25471
3.25925
3.26581
3.27411
3.27953
3.24854
1
1
1
1
1
1
1
1
1
1
1
1
1
1
1
1
1
1
1
1
1
1.67575
3.02589
3.01806
3.0121
3.00919
3.00937
3.01197
3.01607
3.02093
3.02604
3.03112
3.03603
3.04071
3.04515
3.04936
3.05335
3.05713
3.06073
3.06414
3.06739
3.07048
3.07343
3.07625
3.07894
3.08147
3.0842
3.08697
3.08978
3.09262
3.09551
3.09845
3.10143
3.10446
3.10752
3.11062
3.11375
3.11689
3.12002
3.12314
3.12621
3.12922
3.13214
3.13493
3.13758
3.14006
3.14233
3.14437
3.14617
3.14771
3.14899
3.15
3.15076
3.1513
3.15166
3.15187
3.15201
3.15214
3.15234
3.15269
3.15327
3.15418
3.15547
3.15722
3.15948
3.16229
3.16567
3.16961
3.17411
3.1791
3.18452
3.19025
3.19613
3.20197
3.20755
3.21262
3.21697
3.22042
3.2229
3.22447
3.22533
3.22582
3.22635
3.22727
3.22882
3.23101
3.23362
3.23626
3.23856
3.24031
3.24163
3.24289
3.24459
3.24723
3.25135
3.25751
3.26555
3.27109
3.24011
1
1
1
1
1
1
1
1
1
1
1
1
1
1
1
1
1
1
1
1
1
1.52408
3.01675
3.00658
3.00168
3.00123
3.00387
3.00828
3.01346
3.01884
3.02412
3.0292
3.03403
3.03862
3.04296
3.04709
3.051
3.05471
3.05824
3.0616
3.06479
3.06784
3.07075
3.07352
3.07618
3.07867
3.08139
3.08414
3.08693
3.08974
3.09259
3.09547
3.09839
3.10133
3.10429
3.10727
3.11024
3.1132
3.11614
3.11903
3.12185
3.12458
3.1272
3.12968
3.13201
3.13416
3.13611
3.13785
3.13936
3.14064
3.14168
3.14251
3.14314
3.1436
3.14392
3.14415
3.14436
3.14461
3.14497
3.14552
3.14632
3.14745
3.14898
3.15097
3.15346
3.15647
3.16004
3.16415
3.16879
3.17389
3.17939
3.18517
3.19107
3.1969
3.20243
3.20742
3.21167
3.215
3.21735
3.21881
3.21959
3.22003
3.22053
3.22146
3.22301
3.22517
3.22771
3.23021
3.2323
3.2338
3.23484
3.23579
3.23716
3.23942
3.24311
3.24885
3.25661
3.26221
3.2312
1
1
1
1
1
1
1
1
1
1
1
1
1
1
1
1
1
1
1
1
1
1.35225
3.002
2.99456
2.99282
2.99537
3.00007
3.00558
3.01123
3.01674
3.02201
3.02703
3.0318
3.03632
3.04061
3.04467
3.04853
3.05219
3.05567
3.05898
3.06213
3.06513
3.068
3.07073
3.07334
3.07579
3.07849
3.08121
3.08395
3.08671
3.08949
3.09228
3.09509
3.09791
3.10072
3.10351
3.10628
3.10902
3.11169
3.1143
3.11682
3.11923
3.12152
3.12367
3.12566
3.12748
3.12911
3.13055
3.1318
3.13285
3.13371
3.1344
3.13494
3.13536
3.1357
3.136
3.13633
3.13674
3.13729
3.13806
3.1391
3.14048
3.14226
3.14449
3.1472
3.15043
3.15418
3.15845
3.16322
3.16843
3.17401
3.17982
3.18573
3.19154
3.19701
3.20192
3.20605
3.20925
3.21148
3.21283
3.21352
3.21392
3.21441
3.21533
3.21689
3.21902
3.22147
3.22382
3.22571
3.22695
3.22771
3.22836
3.22939
3.23127
3.23453
3.23984
3.24729
3.25289
3.22182
1
1
1
1
1
1
1
1
1
1
1
1
1
1
1
1
1
1
1
1
1
1.18224
2.98203
2.98327
2.9859
2.99112
2.99708
3.00307
3.00887
3.01443
3.01972
3.02473
3.02948
3.03397
3.03821
3.04223
3.04604
3.04965
3.05309
3.05635
3.05945
3.06241
3.06522
3.06789
3.07044
3.07283
3.07547
3.07813
3.08078
3.08345
3.08611
3.08877
3.09141
3.09403
3.09663
3.09919
3.10169
3.10413
3.1065
3.10878
3.11096
3.11303
3.11496
3.11677
3.11842
3.11992
3.12126
3.12244
3.12346
3.12433
3.12506
3.12567
3.12618
3.12663
3.12704
3.12747
3.12796
3.12856
3.12934
3.13035
3.13165
3.13329
3.13533
3.1378
3.14074
3.14417
3.1481
3.15253
3.15742
3.16272
3.16836
3.17421
3.18012
3.18589
3.19129
3.19611
3.20012
3.20319
3.20529
3.20652
3.20714
3.20749
3.20796
3.2089
3.21045
3.21255
3.21491
3.21711
3.21877
3.21977
3.22024
3.22059
3.22128
3.22278
3.22561
3.23048
3.23759
3.24316
3.21199
1
1
1
1
1
1
1
1
1
1
1
1
1
1
1
1
1
1
1
1
1
1.04412
2.95583
2.97436
2.98109
2.98775
2.99424
3.00049
3.00646
3.01211
3.01744
3.02246
3.02719
3.03164
3.03585
3.03983
3.04359
3.04716
3.05053
3.05374
3.05678
3.05965
3.06238
3.06497
3.06742
3.06969
3.07223
3.07476
3.07728
3.07978
3.08226
3.0847
3.08711
3.08947
3.09178
3.09403
3.09621
3.09831
3.10033
3.10225
3.10407
3.10578
3.10738
3.10885
3.1102
3.11143
3.11253
3.11351
3.11437
3.11513
3.1158
3.11639
3.11694
3.11747
3.11801
3.11861
3.1193
3.12014
3.12117
3.12245
3.12401
3.12592
3.12821
3.13093
3.13409
3.13771
3.14181
3.14638
3.15139
3.15677
3.16246
3.16834
3.17423
3.17995
3.18528
3.18999
3.19387
3.19681
3.19877
3.19989
3.20043
3.20074
3.2012
3.20214
3.20369
3.20576
3.20802
3.21005
3.2115
3.21223
3.21243
3.21247
3.21283
3.21394
3.21634
3.22076
3.22751
3.23301
3.20171
1
1
1
1
1
1
1
1
1
1
1
1
1
1
1
1
1
1
1
1
1
1.00231
2.92632
2.96943
2.97724
2.98454
2.99148
2.99803
3.00417
3.00991
3.01527
3.02029
3.02499
3.02942
3.03358
3.03751
3.04121
3.0447
3.048
3.0511
3.05402
3.05676
3.05934
3.06177
3.06406
3.06613
3.06849
3.07082
3.07311
3.07537
3.07757
3.07972
3.08182
3.08385
3.08581
3.08771
3.08953
3.09127
3.09292
3.09449
3.09597
3.09736
3.09866
3.09986
3.10097
3.102
3.10294
3.10379
3.10458
3.10531
3.106
3.10665
3.10731
3.10798
3.10871
3.10952
3.11045
3.11154
3.11285
3.1144
3.11624
3.11841
3.12095
3.1239
3.12726
3.13108
3.13533
3.14003
3.14513
3.15059
3.15632
3.1622
3.16807
3.17373
3.17897
3.18356
3.18731
3.1901
3.19193
3.19294
3.1934
3.19367
3.19413
3.19507
3.19662
3.19863
3.20079
3.20265
3.20388
3.20435
3.20426
3.204
3.20402
3.20475
3.20671
3.21068
3.21706
3.22245
3.19099
1
1
1
1
1
1
1
1
1
1
1
1
1
1
1
1
1
1
1
1
1
1.00019
2.88678
2.96491
2.97361
2.98158
2.98897
2.99579
3.00208
3.00789
3.01327
3.01828
3.02295
3.02733
3.03142
3.03525
3.03883
3.04217
3.04529
3.04819
3.05088
3.05338
3.05571
3.05787
3.05988
3.06165
3.06374
3.06577
3.06775
3.06967
3.07153
3.07333
3.07506
3.07672
3.07833
3.07986
3.08133
3.08273
3.08407
3.08534
3.08655
3.08769
3.08878
3.08981
3.09078
3.0917
3.09258
3.09342
3.09422
3.09501
3.09579
3.09658
3.0974
3.09827
3.09922
3.10028
3.10148
3.10284
3.10442
3.10625
3.10836
3.11079
3.11357
3.11673
3.12029
3.12427
3.12867
3.13348
3.13867
3.14418
3.14993
3.1558
3.16163
3.16722
3.17236
3.17682
3.18043
3.18307
3.18477
3.18567
3.18605
3.18628
3.18673
3.18768
3.18922
3.19118
3.19323
3.19491
3.1959
3.19611
3.19574
3.19518
3.19486
3.1952
3.19673
3.20024
3.20623
3.21148
3.17984
1
1
1
1
1
1
1
1
1
1
1
1
1
1
1
1
1
1
1
1
1
1.00001
2.84001
2.96094
2.97045
2.97904
2.98685
2.99391
3.00031
3.00616
3.01152
3.01648
3.02105
3.02528
3.02919
3.03279
3.03609
3.03912
3.04189
3.04441
3.04671
3.04881
3.05073
3.05249
3.05411
3.05548
3.05722
3.05889
3.06051
3.06206
3.06356
3.06499
3.06638
3.06771
3.069
3.07024
3.07144
3.0726
3.07372
3.07481
3.07586
3.07689
3.07789
3.07886
3.07981
3.08074
3.08167
3.08258
3.08349
3.08442
3.08536
3.08635
3.08738
3.08849
3.08969
3.09101
3.09247
3.09412
3.09597
3.09806
3.10042
3.10309
3.10609
3.10945
3.11319
3.11731
3.12183
3.12674
3.13199
3.13754
3.1433
3.14915
3.15492
3.16043
3.16545
3.16977
3.17323
3.17572
3.17728
3.17807
3.17838
3.17857
3.17902
3.17998
3.1815
3.18341
3.18533
3.18683
3.18758
3.18752
3.18686
3.186
3.18535
3.1853
3.18639
3.18944
3.19503
3.20012
3.16828
1
1
1
1
1
1
1
1
1
1
1
1
1
1
1
1
1
1
1
1
1
1
2.78607
2.95751
2.96795
2.97717
2.98534
2.99256
2.99898
3.00475
3.00996
3.01469
3.01897
3.02283
3.0263
3.0294
3.03217
3.03462
3.0368
3.03873
3.04044
3.04198
3.04337
3.04464
3.04581
3.04677
3.04816
3.04951
3.0508
3.05206
3.05327
3.05445
3.0556
3.05673
3.05784
3.05894
3.06002
3.06109
3.06214
3.0632
3.06424
3.06528
3.06632
3.06736
3.0684
3.06945
3.0705
3.07157
3.07265
3.07377
3.07492
3.07613
3.0774
3.07875
3.08021
3.08179
3.08352
3.08542
3.08753
3.08987
3.09246
3.09534
3.09854
3.10207
3.10596
3.11021
3.11483
3.11981
3.12511
3.13068
3.13643
3.14224
3.14795
3.15335
3.15825
3.16242
3.16571
3.16805
3.16947
3.17015
3.17039
3.17055
3.171
3.17195
3.17346
3.1753
3.17709
3.1784
3.1789
3.17857
3.17762
3.17646
3.17547
3.17504
3.17569
3.17828
3.18346
3.18837
3.15631
1
1
1
1
1
1
1
1
1
1
1
1
1
1
1
1
1
1
1
1
1
1
2.72361
2.9548
2.96642
2.97625
2.98461
2.99176
2.99794
3.00333
3.00805
3.01218
3.01576
3.01885
3.02149
3.02374
3.02565
3.02728
3.02867
3.02988
3.03095
3.03191
3.03279
3.03363
3.03444
3.03513
3.03635
3.03753
3.03869
3.03983
3.04096
3.04208
3.0432
3.04431
3.04543
3.04656
3.04769
3.04882
3.04996
3.05111
3.05227
3.05344
3.05461
3.0558
3.05699
3.05821
3.05944
3.06069
3.06198
3.0633
3.06468
3.06611
3.06761
3.0692
3.0709
3.07272
3.07468
3.07682
3.07915
3.0817
3.0845
3.08756
3.09093
3.0946
3.09862
3.10297
3.10767
3.1127
3.11803
3.1236
3.12933