/*--------------------------------*- C++ -*----------------------------------*\
| =========                 |                                                 |
| \\      /  F ield         | OpenFOAM: The Open Source CFD Toolbox           |
|  \\    /   O peration     | Version:  2.2.x                                 |
|   \\  /    A nd           | Web:      www.OpenFOAM.org                      |
|    \\/     M anipulation  |                                                 |
\*---------------------------------------------------------------------------*/
FoamFile
{
    version     2.0;
    format      ascii;
    class       volScalarField;
    location    "0.8";
    object      T;
}
// * * * * * * * * * * * * * * * * * * * * * * * * * * * * * * * * * * * * * //

dimensions      [0 0 0 1 0 0 0];

internalField   nonuniform List<scalar> 
14161
(
1
1
1
1
1
1
1
1
1
1
1
1
1
1
1
1
1
1
1
1
1
1
1
1
1
1
1
1
1
1
1
1
1
1
1
1
1
1
1
1
1.00015
1.00178
0.993218
0.724929
2.16494
9.66188
11.8087
12.3048
12.4255
12.4661
12.4892
12.5113
12.5381
12.5648
12.5841
12.5945
12.599
12.5999
12.6019
12.6099
12.6192
12.6257
12.6317
12.6368
12.6361
12.6471
12.6763
12.7094
12.7354
12.7559
12.7673
12.7668
12.7774
12.7942
12.8188
12.8387
12.8561
12.8591
12.8469
12.8509
12.8693
12.9092
12.9455
12.9714
12.9849
12.9812
12.9852
12.9912
13.0019
13.0162
13.0261
13.0221
13.0233
13.0393
13.0766
13.1152
13.144
13.1562
13.1489
13.1512
13.1592
13.1691
13.186
13.207
13.2257
13.2412
13.2467
13.2436
13.2435
13.2506
13.2652
13.2792
13.289
13.2975
13.3086
13.3219
13.3338
13.3388
13.3427
1
1
1
1
1
1
1
1
1
1
1
1
1
1
1
1
1
1
1
1
1
1
1
1
1
1
1
1
1
1
1
1
1
1
1
1
1
1
1
0.999996
0.999981
0.999985
0.988917
0.724236
2.15701
9.66368
11.8123
12.316
12.439
12.4823
12.5054
12.5233
12.5453
12.5684
12.583
12.5918
12.5943
12.5931
12.5933
12.6023
12.615
12.6244
12.632
12.6378
12.6384
12.6461
12.6702
12.7033
12.731
12.7547
12.7713
12.7752
12.7865
12.8014
12.822
12.8398
12.8548
12.8624
12.8564
12.8609
12.8771
12.9128
12.9471
12.971
12.9854
12.9869
12.9905
12.9969
13.007
13.0201
13.0296
13.0262
13.0274
13.0433
13.0801
13.1182
13.1466
13.1582
13.1505
13.152
13.1586
13.1672
13.1839
13.2045
13.223
13.2379
13.2436
13.2411
13.2414
13.2488
13.2633
13.2772
13.2872
13.296
13.3072
13.3203
13.3326
13.3385
13.3421
1
1
1
1
1
1
1
1
1
1
1
1
1
1
1
1
1
1
1
1
1
1
1
1
1
1
1
1
1
1
1
1
1
1
1
1
1
1
0.999999
0.999987
0.999744
0.996736
0.972583
0.726547
2.06761
9.63743
11.7984
12.3155
12.4429
12.489
12.5115
12.5268
12.5453
12.5673
12.5804
12.5872
12.5898
12.5876
12.586
12.5949
12.6117
12.6264
12.6377
12.6463
12.6509
12.6583
12.6738
12.6979
12.7253
12.7499
12.7678
12.7807
12.7916
12.8043
12.8206
12.8359
12.8496
12.8598
12.8615
12.8688
12.8803
12.9101
12.9416
12.9642
12.9798
12.9876
12.9916
12.9989
13.0079
13.0197
13.029
13.0272
13.0288
13.0443
13.0806
13.1181
13.1459
13.1577
13.1503
13.1516
13.1575
13.1653
13.1824
13.2034
13.2218
13.2357
13.2401
13.2375
13.2384
13.2462
13.2607
13.2741
13.2837
13.2924
13.3035
13.3163
13.3281
13.3343
13.3364
1
1
1
1
1
1
1
1
1
1
1
1
1
1
1
1
1
1
1
1
1
1
1
1
1
1
1
1
1
1
1
1
1
1
1
1
1
1
0.999999
0.999985
0.999675
0.995829
0.968679
0.738659
1.96955
9.6142
11.7845
12.3144
12.4436
12.4867
12.5058
12.5178
12.5348
12.5551
12.5675
12.5738
12.5779
12.5773
12.5777
12.5882
12.6071
12.6238
12.6373
12.6483
12.6582
12.6675
12.6804
12.6949
12.7115
12.7358
12.7594
12.7781
12.7932
12.8042
12.8152
12.8268
12.8397
12.8514
12.863
12.8744
12.8852
12.9043
12.9302
12.9531
12.9703
12.983
12.9911
12.9975
13.0059
13.0159
13.0248
13.025
13.0279
13.0428
13.0781
13.1144
13.1412
13.1531
13.1466
13.1478
13.1534
13.161
13.1788
13.2003
13.2187
13.2314
13.2341
13.2319
13.2334
13.242
13.2567
13.27
13.2796
13.2884
13.2999
13.3131
13.3256
13.3323
13.3339
1
1
1
1
1
1
1
1
1
1
1
1
1
1
1
1
1
1
1
1
1
1
1
1
1
1
1
1
1
1
1
1
1
1
1
1
1
1
0.999999
0.999985
0.999678
0.995799
0.969344
0.750511
1.90636
9.6083
11.7831
12.3244
12.4504
12.4864
12.4992
12.5069
12.5179
12.5301
12.5414
12.5516
12.5602
12.5662
12.5747
12.5899
12.6069
12.621
12.634
12.6469
12.6605
12.6753
12.6891
12.6948
12.7019
12.721
12.7514
12.7756
12.7944
12.8066
12.8111
12.819
12.829
12.8475
12.8667
12.8814
12.8904
12.8977
12.9136
12.9377
12.9593
12.9766
12.9881
12.9937
13.0007
13.0088
13.0169
13.0197
13.0245
13.0397
13.0738
13.1077
13.1333
13.1453
13.1399
13.1417
13.1476
13.1557
13.1751
13.1972
13.2157
13.2274
13.2276
13.2259
13.2283
13.2377
13.2529
13.2662
13.2752
13.2831
13.2944
13.3076
13.3203
13.3263
13.3261
1
1
1
1
1
1
1
1
1
1
1
1
1
1
1
1
1
1
1
1
1
1
1
1
1
1
1
1
1
1
1
1
1
1
1
1
1
1
1
0.999992
0.999837
0.998023
0.983122
0.7746
1.7969
9.59137
11.7681
12.3186
12.4375
12.4654
12.4762
12.4854
12.4938
12.5033
12.5147
12.5274
12.5419
12.5577
12.5761
12.5951
12.6116
12.6248
12.6375
12.6525
12.6685
12.684
12.6967
12.698
12.7023
12.7177
12.7486
12.7747
12.795
12.8088
12.8106
12.8173
12.8313
12.8537
12.8719
12.8857
12.8905
12.8951
12.9059
12.9305
12.9551
12.9737
12.9863
12.9906
12.9963
13.0031
13.011
13.0156
13.0222
13.0408
13.0738
13.1039
13.127
13.1384
13.134
13.1359
13.1419
13.1519
13.1728
13.1958
13.2145
13.2242
13.2216
13.221
13.2235
13.2335
13.2488
13.2615
13.2699
13.2772
13.2878
13.3005
13.3131
13.3192
13.3186
1
1
1
1
1
1
1
1
1
1
1
1
1
1
1
1
1
1
1
1
1
1
1
1
1
1
1
1
1
1
1
1
1
1
1
1
1
1
1
0.999996
0.999899
0.998655
0.985224
0.78563
1.58602
9.54234
11.727
12.2922
12.4066
12.4335
12.4479
12.4606
12.4732
12.4863
12.5008
12.5126
12.5282
12.551
12.5756
12.5974
12.6158
12.6284
12.6425
12.6595
12.6748
12.6878
12.6966
12.6979
12.7031
12.7167
12.7451
12.7719
12.7923
12.807
12.811
12.8207
12.8372
12.8558
12.872
12.8853
12.8883
12.8918
12.9033
12.9288
12.9539
12.9731
12.986
12.99
12.9955
13.0019
13.0101
13.0164
13.0248
13.0464
13.0775
13.104
13.1243
13.1337
13.1288
13.1317
13.1382
13.1514
13.1748
13.1978
13.2156
13.2213
13.2176
13.2183
13.2209
13.231
13.2453
13.2568
13.2642
13.271
13.2809
13.2925
13.3044
13.3105
13.3094
1
1
1
1
1
1
1
1
1
1
1
1
1
1
1
1
1
1
1
1
1
1
1
1
1
1
1
1
1
1
1
1
1
1
1
1
1
1
1
1.00002
1.00043
1.00285
0.993122
0.797691
1.27273
9.44834
11.6586
12.2582
12.382
12.4158
12.4346
12.4493
12.4647
12.481
12.4951
12.5107
12.5265
12.5492
12.5764
12.5981
12.6156
12.6293
12.6439
12.6607
12.674
12.6846
12.6927
12.6974
12.7035
12.7148
12.7397
12.7669
12.7873
12.8035
12.8137
12.8237
12.837
12.8519
12.8652
12.876
12.8804
12.8862
12.9015
12.9277
12.9514
12.97
12.9828
12.987
12.9932
13.0005
13.0095
13.0173
13.0281
13.0518
13.0803
13.1033
13.1209
13.1268
13.1216
13.1257
13.1328
13.1513
13.1774
13.1989
13.2139
13.2156
13.2127
13.2144
13.2176
13.228
13.2414
13.2518
13.2583
13.2642
13.2734
13.2837
13.2943
13.3007
13.3001
1
1
1
1
1
1
1
1
1
1
1
1
1
1
1
1
1
1
1
1
1
1
1
1
1
1
1
1
1
1
1
1
1
1
1
1
1
1
1
0.999996
0.999893
0.998537
0.991246
0.818703
0.882419
9.28958
11.5582
12.2319
12.3733
12.4098
12.4281
12.445
12.4649
12.486
12.5039
12.5165
12.5296
12.5499
12.5772
12.5999
12.6176
12.6323
12.6434
12.6551
12.6682
12.6792
12.6895
12.6986
12.7017
12.7095
12.7304
12.7588
12.7822
12.8011
12.8151
12.8231
12.833
12.8426
12.853
12.8636
12.8724
12.8803
12.8978
12.9235
12.9455
12.9629
12.9756
12.9803
12.9869
12.9952
13.0056
13.0157
13.0312
13.0555
13.0792
13.0987
13.1135
13.1157
13.111
13.116
13.1259
13.1503
13.1768
13.196
13.2067
13.2051
13.2053
13.2081
13.213
13.2237
13.2361
13.2449
13.2502
13.2557
13.2642
13.2739
13.283
13.289
13.2873
1
1
1
1
1
1
1
1
1
1
1
1
1
1
1
1
1
1
1
1
1
1
1
1
1
1
1
1
1
1
1
1
1
1
1
1
1
1
1
1.00004
1.00058
1.00333
0.99635
0.893157
1.66906
9.05161
11.4759
12.2224
12.3825
12.4217
12.4416
12.4602
12.4786
12.4967
12.5087
12.5181
12.5287
12.5519
12.5806
12.602
12.6184
12.6304
12.6377
12.6461
12.6592
12.6736
12.6859
12.6958
12.6978
12.7048
12.7264
12.7571
12.7809
12.7994
12.8132
12.8175
12.8238
12.8307
12.8412
12.8548
12.8679
12.8777
12.8927
12.9161
12.9374
12.9544
12.9668
12.9722
12.9787
12.9864
12.9972
13.0121
13.033
13.0539
13.0727
13.0884
13.1002
13.1005
13.0972
13.1028
13.1181
13.1467
13.1714
13.1887
13.1948
13.1926
13.1962
13.2002
13.2067
13.2176
13.2288
13.2363
13.2407
13.2462
13.2537
13.2625
13.2703
13.2752
13.2731
1
1
1
1
1
1
1
1
1
1
1
1
1
1
1
1
1
1
1
1
1
1
1
1
1
1
1
1
1
1
1
1
1
1
1
1
1
1
0.999997
0.999984
1.00008
1.00031
0.999951
0.982369
1.95655
8.83786
11.4303
12.2151
12.3803
12.4288
12.4559
12.4735
12.488
12.5005
12.5058
12.5126
12.5263
12.5536
12.5789
12.5965
12.6105
12.6207
12.6255
12.6342
12.6497
12.6659
12.6796
12.6893
12.6923
12.7037
12.7307
12.7587
12.7788
12.7957
12.8043
12.8047
12.811
12.8187
12.8337
12.8502
12.8628
12.8714
12.8872
12.9103
12.9317
12.9493
12.962
12.9649
12.9705
12.9771
12.9909
13.0128
13.0328
13.0495
13.0641
13.0767
13.0869
13.0862
13.0849
13.0918
13.1142
13.1434
13.1649
13.1788
13.1795
13.1807
13.1867
13.1916
13.1996
13.2103
13.22
13.226
13.2295
13.2355
13.2418
13.249
13.2556
13.2594
13.2577
1
1
1
1
1
1
1
1
1
1
1
1
1
1
1
1
1
1
1
1
1
1
1
1
1
1
1
1
1
1
1
1
1
1
1
1
1
1
1
1
1.00001
1.00006
1.00093
1.01281
1.90811
8.54243
11.3605
12.2122
12.3784
12.426
12.4527
12.4693
12.4815
12.4904
12.4931
12.5012
12.5234
12.5513
12.5704
12.5859
12.5988
12.6045
12.6124
12.6252
12.6442
12.6601
12.6738
12.6786
12.6854
12.7064
12.7358
12.757
12.7752
12.7869
12.7854
12.7916
12.7991
12.8148
12.8332
12.8476
12.858
12.8657
12.8829
12.9082
12.9297
12.947
12.9563
12.9566
12.9619
12.9712
12.9923
13.0133
13.0294
13.0429
13.0548
13.0665
13.0755
13.0743
13.0753
13.0872
13.1148
13.1401
13.1591
13.1662
13.1646
13.1703
13.1769
13.1836
13.1925
13.2019
13.2095
13.2142
13.2174
13.2228
13.2287
13.2339
13.2388
13.2418
13.2397
1
1
1
1
1
1
1
1
1
1
1
1
1
1
1
1
1
1
1
1
1
1
1
1
1
1
1
1
1
1
1
1
1
1
1
1
1
1
1
1
1
1.00009
1.00161
1.03495
1.81516
8.06692
11.2354
12.1693
12.3473
12.4023
12.4326
12.4509
12.4641
12.4713
12.4772
12.4938
12.5213
12.5429
12.5611
12.5768
12.5843
12.5909
12.6013
12.6215
12.6401
12.6543
12.6633
12.6668
12.682
12.7102
12.7326
12.7514
12.765
12.7658
12.7696
12.776
12.7917
12.8136
12.831
12.8434
12.8474
12.8575
12.8808
12.9066
12.9258
12.9402
12.9423
12.946
12.9527
12.9711
12.9933
13.0098
13.0222
13.0329
13.0442
13.0563
13.0648
13.0636
13.068
13.0885
13.1164
13.1371
13.1506
13.1505
13.1531
13.1606
13.1674
13.1756
13.1838
13.1917
13.1972
13.2006
13.2042
13.2085
13.2139
13.2177
13.2198
13.2231
13.2193
1
1
1
1
1
1
1
1
1
1
1
1
1
1
1
1
1
1
1
1
1
1
1
1
1
1
1
1
1
1
1
1
1
1
1
1
1
1
1
1
1
1.00007
1.00122
1.02504
1.60675
7.4844
11.0847
12.1231
12.3282
12.3917
12.4192
12.4345
12.4447
12.4524
12.4684
12.4935
12.5154
12.5336
12.5491
12.5587
12.5643
12.5738
12.5933
12.6147
12.6316
12.6445
12.6477
12.6583
12.6805
12.7028
12.7209
12.7361
12.741
12.7421
12.7484
12.7634
12.7865
12.8054
12.8193
12.8248
12.8308
12.8497
12.8767
12.8977
12.9141
12.9187
12.9201
12.9276
12.9445
12.967
12.9846
12.9983
13.007
13.0181
13.0307
13.0432
13.0514
13.0527
13.0647
13.0905
13.1134
13.1315
13.1361
13.1352
13.1418
13.1497
13.1581
13.1663
13.1731
13.1796
13.1838
13.1861
13.1897
13.1934
13.1974
13.2002
13.1996
13.2028
13.1966
1
1
1
1
1
1
1
1
1
1
1
1
1
1
1
1
1
1
1
1
1
1
1
1
1
1
1
1
1
1
1
1
1
1
1
1
1
1
1
1
1
1.00004
1.00072
1.01343
1.36471
6.83949
10.919
12.0817
12.3166
12.3817
12.403
12.4142
12.4224
12.4386
12.4622
12.482
12.4988
12.5139
12.5255
12.5316
12.5415
12.5624
12.5862
12.6032
12.6159
12.622
12.6318
12.6512
12.6723
12.6888
12.7037
12.7129
12.7132
12.7193
12.7331
12.7595
12.7816
12.7964
12.8041
12.8087
12.8237
12.8491
12.8695
12.8866
12.8946
12.892
12.9001
12.9155
12.939
12.9582
12.9727
12.9806
12.9893
13.0019
13.0174
13.0309
13.0364
13.0429
13.0638
13.0887
13.109
13.1202
13.1185
13.1223
13.1306
13.1401
13.1491
13.1559
13.161
13.1663
13.1696
13.1712
13.174
13.1768
13.1797
13.1808
13.1781
13.1807
13.1731
1
1
1
1
1
1
1
1
1
1
1
1
1
1
1
1
1
1
1
1
1
1
1
1
1
1
1
1
1
1
1
1
1
1
1
1
1
1
1
1
1
1.00002
1.00025
1.00366
1.13945
6.08375
10.7247
12.0389
12.3001
12.3653
12.3847
12.3964
12.413
12.4352
12.4544
12.4713
12.4865
12.4992
12.507
12.5187
12.5401
12.5635
12.5807
12.5947
12.6036
12.6109
12.6264
12.6485
12.6657
12.6809
12.6919
12.6929
12.699
12.7119
12.7373
12.7584
12.7751
12.7867
12.791
12.8027
12.8243
12.8441
12.8615
12.8731
12.8716
12.8774
12.8899
12.913
12.9332
12.9493
12.9582
12.9628
12.9739
12.99
13.0066
13.0185
13.0225
13.0378
13.0625
13.0844
13.1013
13.104
13.1029
13.1101
13.1203
13.1316
13.1395
13.1442
13.148
13.1519
13.1541
13.1552
13.1569
13.158
13.1601
13.1594
13.1555
13.1573
13.1478
1
1
1
1
1
1
1
1
1
1
1
1
1
1
1
1
1
1
1
1
1
1
1
1
1
1
1
1
1
1
1
1
1
1
1
1
1
1
1
1
0.999995
0.999982
1.00011
0.998693
0.968047
5.2016
10.4935
11.9914
12.2904
12.357
12.3774
12.3936
12.4134
12.4313
12.447
12.4616
12.4741
12.4813
12.4922
12.5136
12.5376
12.555
12.5694
12.5791
12.5856
12.5972
12.6191
12.6395
12.6556
12.6685
12.6713
12.6761
12.6868
12.7126
12.737
12.7547
12.7667
12.7716
12.7805
12.7991
12.8198
12.8375
12.8506
12.8536
12.8584
12.8686
12.8901
12.9123
12.9302
12.94
12.9417
12.9501
12.9652
12.9827
12.9972
13.0035
13.0137
13.0351
13.0588
13.0791
13.0876
13.0843
13.0887
13.0978
13.1109
13.1222
13.1278
13.1307
13.1334
13.1362
13.1371
13.1376
13.1386
13.1382
13.1389
13.1361
13.1316
13.132
13.1207
1
1
1
1
1
1
1
1
1
1
1
1
1
1
1
1
1
1
1
1
1
1
1
1
1
1
1
1
1
1
1
1
1
1
1
1
1
1
1
0.999994
0.999906
0.999594
1.00325
1.02149
0.868983
4.14087
10.2048
11.9313
12.2763
12.3468
12.3679
12.3858
12.402
12.4165
12.43
12.443
12.4527
12.4611
12.4777
12.501
12.5187
12.5336
12.547
12.553
12.5612
12.5765
12.5995
12.618
12.6346
12.6465
12.6482
12.6571
12.6787
12.7055
12.7253
12.741
12.7483
12.7552
12.7686
12.7899
12.8085
12.8242
12.8328
12.8364
12.8457
12.8647
12.8897
12.9097
12.9227
12.9251
12.9307
12.9428
12.96
12.9756
12.986
12.9929
13.0084
13.0319
13.0534
13.067
13.0672
13.0672
13.0743
13.0871
13.1014
13.1108
13.1146
13.1162
13.1181
13.1197
13.1191
13.1186
13.1189
13.1173
13.1162
13.1109
13.1063
13.105
13.0916
1
1
1
1
1
1
1
1
1
1
1
1
1
1
1
1
1
1
1
1
1
1
1
1
1
1
1
1
1
1
1
1
1
1
1
1
1
1
1
0.999997
1.00001
1.00013
1.00246
0.991676
0.720844
2.83333
9.84042
11.8495
12.2457
12.3264
12.3485
12.3636
12.3776
12.3913
12.4043
12.4167
12.426
12.4381
12.4566
12.4751
12.4906
12.5046
12.5173
12.5248
12.5362
12.5543
12.5752
12.5926
12.6084
12.6176
12.626
12.643
12.6681
12.6877
12.7039
12.7162
12.721
12.7319
12.7491
12.7699
12.7884
12.8035
12.8086
12.8172
12.8322
12.8589
12.8818
12.8988
12.9068
12.9112
12.9203
12.9371
12.9543
12.9674
12.9739
12.9843
13.004
13.0253
13.0423
13.0484
13.0458
13.0512
13.0621
13.0777
13.0904
13.0966
13.0995
13.1003
13.1018
13.1016
13.1
13.0984
13.098
13.0946
13.092
13.0844
13.0797
13.0765
13.0601
1
1
1
1
1
1
1
1
1
1
1
1
1
1
1
1
1
1
1
1
1
1
1
1
1
1
1
1
1
1
1
1
1
1
1
1
1
1
1
1
1.00005
1.00079
1.00425
0.990253
0.786665
1.26859
9.44454
11.7372
12.2147
12.3081
12.3337
12.3515
12.3665
12.3792
12.3908
12.4013
12.414
12.4318
12.4495
12.4635
12.4764
12.4878
12.4957
12.5065
12.5239
12.5435
12.5597
12.5746
12.5876
12.595
12.6084
12.6289
12.6481
12.6631
12.6757
12.6806
12.6867
12.6979
12.717
12.7368
12.756
12.7705
12.7761
12.7903
12.815
12.8425
12.865
12.8801
12.8837
12.8931
12.9091
12.9298
12.9459
12.9562
12.9628
12.9763
12.9963
13.0144
13.0248
13.0253
13.0281
13.0367
13.0518
13.0672
13.0763
13.08
13.0825
13.0836
13.0842
13.0819
13.0801
13.0773
13.0763
13.0706
13.0662
13.056
13.0513
13.0463
13.0278
1
1
1
1
1
1
1
1
1
1
1
1
1
1
1
1
1
1
1
1
1
1
1
1
1
1
1
1
1
1
1
1
1
1
1
1
1
1
1
1
1
1
0.999894
0.991611
0.837297
0.729603
9.04594
11.4899
12.1273
12.2605
12.3016
12.3271
12.3481
12.365
12.3786
12.39
12.4014
12.4166
12.4342
12.4494
12.4625
12.4735
12.4811
12.4903
12.506
12.5238
12.5394
12.5534
12.5655
12.5745
12.5852
12.6026
12.62
12.633
12.643
12.6484
12.652
12.6628
12.6824
12.702
12.7194
12.7328
12.7422
12.7617
12.7899
12.815
12.8361
12.8474
12.856
12.8711
12.8942
12.9159
12.932
12.9394
12.9493
12.9656
12.9842
12.9979
13.0038
13.004
13.0107
13.0245
13.0412
13.0532
13.0585
13.0626
13.0648
13.0662
13.0651
13.061
13.059
13.0548
13.0532
13.0448
13.0383
13.0262
13.0211
13.015
12.9943
1
1
1
1
1
1
1
1
1
1
1
1
1
1
1
1
1
1
1
1
1
1
1
1
1
1
1
1
1
1
1
1
1
1
1
1
1
1
1
1
1
1
0.999983
1
0.996929
1.31993
8.28235
11.2423
12.0923
12.2699
12.3173
12.3405
12.3594
12.3748
12.3878
12.3989
12.4094
12.4219
12.4371
12.4519
12.4652
12.4772
12.4874
12.4965
12.5086
12.5246
12.5406
12.5548
12.5674
12.5775
12.5856
12.5972
12.6111
12.6215
12.6289
12.633
12.6345
12.6429
12.6606
12.6782
12.693
12.7045
12.7162
12.7346
12.7578
12.7797
12.7986
12.8083
12.8223
12.8439
12.869
12.8912
12.9078
12.9164
12.9307
12.9487
12.9662
12.9776
12.9789
12.9839
12.9951
13.012
13.0272
13.0352
13.0391
13.0436
13.0464
13.0468
13.0437
13.0391
13.0363
13.0306
13.0279
13.0178
13.009
12.9952
12.989
12.9814
12.9587
1
1
1
1
1
1
1
1
1
1
1
1
1
1
1
1
1
1
1
1
1
1
1
1
1
1
1
1
1
1
1
1
1
1
1
1
1
1
1
1
1
1
1.00002
1.00037
1.00532
1.21473
6.95488
10.8973
12.0254
12.2456
12.298
12.3205
12.3387
12.3539
12.367
12.3785
12.389
12.4005
12.415
12.4305
12.4449
12.4582
12.4703
12.4804
12.4917
12.508
12.5258
12.5418
12.5568
12.5697
12.5794
12.5915
12.6068
12.6189
12.6274
12.632
12.6339
12.6401
12.654
12.6687
12.6802
12.6891
12.6971
12.7123
12.7316
12.7486
12.7636
12.7759
12.7918
12.8136
12.8367
12.8576
12.8736
12.8857
12.9032
12.9231
12.9408
12.9512
12.9549
12.9634
12.9788
12.9965
13.0085
13.0131
13.0185
13.0228
13.0265
13.0253
13.0202
13.015
13.0116
13.0043
12.9997
12.9896
12.9781
12.9632
12.9548
12.9459
12.9209
1
1
1
1
1
1
1
1
1
1
1
1
1
1
1
1
1
1
1
1
1
1
1
1
1
1
1
1
1
1
1
1
1
1
1
1
1
1
1
1
1
1
1
0.999901
0.992144
0.928013
5.1553
10.4011
11.8983
12.1891
12.2555
12.2808
12.2995
12.3159
12.3302
12.3425
12.3526
12.3632
12.3777
12.3936
12.4083
12.4221
12.4352
12.4466
12.4586
12.4749
12.4936
12.5111
12.5285
12.5443
12.5574
12.5725
12.5901
12.6047
12.6158
12.6232
12.6283
12.6368
12.6503
12.6629
12.6736
12.6814
12.6869
12.6971
12.7126
12.7275
12.7408
12.7526
12.7663
12.7854
12.8047
12.8216
12.8364
12.851
12.8687
12.8888
12.9076
12.9194
12.9282
12.9411
12.9594
12.976
12.9853
12.9888
12.9953
13.0001
13.0034
13.0004
12.9951
12.9888
12.9839
12.9765
12.968
12.9602
12.9448
12.9299
12.9189
12.9091
12.8805
1
1
1
1
1
1
1
1
1
1
1
1
1
1
1
1
1
1
1
1
1
1
1
1
1
1
1
1
1
1
1
1
1
1
1
1
1
1
1
1
1
1
1.00007
1.00192
0.989908
0.738366
2.83675
9.76015
11.7503
12.1316
12.2117
12.2363
12.2514
12.2655
12.2804
12.2935
12.3062
12.3187
12.3341
12.3518
12.3666
12.3804
12.3937
12.4048
12.4177
12.4341
12.4516
12.4686
12.486
12.5021
12.5183
12.5353
12.5553
12.5748
12.591
12.6025
12.6121
12.6243
12.6392
12.6516
12.662
12.669
12.6751
12.686
12.7008
12.7143
12.7256
12.7335
12.7427
12.7575
12.7737
12.7885
12.8031
12.8182
12.8346
12.8524
12.8698
12.8837
12.8971
12.9147
12.9341
12.9495
12.9567
12.9627
12.9693
12.9748
12.9771
12.9726
12.9675
12.9612
12.9533
12.9476
12.9344
12.9275
12.9108
12.895
12.8807
12.87
12.8374
1
1
1
1
1
1
1
1
1
1
1
1
1
1
1
1
1
1
1
1
1
1
1
1
1
1
1
1
1
1
1
1
1
1
1
1
1
1
1
1
1
0.999999
0.99999
0.99977
0.992794
0.853118
0.596856
9.01574
11.4889
12.041
12.1503
12.1806
12.1974
12.2129
12.2294
12.246
12.2636
12.2812
12.2985
12.3149
12.3301
12.3445
12.3583
12.3715
12.3855
12.4004
12.4147
12.4294
12.4448
12.4607
12.4784
12.498
12.5174
12.537
12.5555
12.5699
12.5845
12.6006
12.6168
12.6306
12.642
12.6497
12.6595
12.674
12.6893
12.7016
12.7107
12.7156
12.7229
12.7363
12.7507
12.7633
12.7747
12.7866
12.8009
12.8176
12.8349
12.851
12.8678
12.8856
12.9036
12.9168
12.924
12.9333
12.9408
12.9463
12.9475
12.9428
12.9372
12.9321
12.9207
12.9161
12.9007
12.8933
12.8753
12.8576
12.8403
12.8283
12.7926
1
1
1
1
1
1
1
1
1
1
1
1
1
1
1
1
1
1
1
1
1
1
1
1
1
1
1
1
1
1
1
1
1
1
1
1
1
1
1
1
1
1
1
0.999995
1.00014
1.00269
1.23262
7.98542
11.1179
11.9461
12.1237
12.1751
12.1983
12.2157
12.2323
12.2478
12.2626
12.2775
12.292
12.3051
12.3179
12.331
12.3437
12.3559
12.3675
12.3787
12.3896
12.4008
12.4137
12.4287
12.4455
12.4619
12.4784
12.495
12.5111
12.5272
12.5451
12.5646
12.5822
12.5982
12.6111
12.622
12.6359
12.6538
12.67
12.6838
12.6934
12.7006
12.7109
12.7237
12.7343
12.7429
12.7486
12.7577
12.7727
12.7899
12.8067
12.8232
12.8391
12.8545
12.8686
12.8803
12.8908
12.9013
12.9099
12.9143
12.9148
12.9119
12.9052
12.9008
12.8863
12.8826
12.8673
12.8584
12.8379
12.8183
12.7988
12.7847
12.7452
1
1
1
1
1
1
1
1
1
1
1
1
1
1
1
1
1
1
1
1
1
1
1
1
1
1
1
1
1
1
1
1
1
1
1
1
1
1
1
1
1
1
1
1.00001
1.00008
0.994801
1.00862
6.03113
10.5936
11.8458
12.097
12.1606
12.1846
12.2012
12.2172
12.2324
12.2459
12.2577
12.269
12.2797
12.2903
12.3012
12.3117
12.3224
12.3328
12.3431
12.3538
12.3651
12.3786
12.3946
12.4113
12.4279
12.4439
12.4587
12.4732
12.4898
12.5093
12.5289
12.547
12.5637
12.5766
12.5904
12.6069
12.6259
12.6434
12.6591
12.6706
12.6832
12.6988
12.7119
12.7212
12.7261
12.73
12.7396
12.7541
12.7695
12.7839
12.7963
12.8083
12.8209
12.834
12.8471
12.859
12.8683
12.8758
12.8799
12.881
12.8801
12.8712
12.8669
12.8517
12.8489
12.8332
12.8219
12.7987
12.7776
12.7562
12.7398
12.6963
1
1
1
1
1
1
1
1
1
1
1
1
1
1
1
1
1
1
1
1
1
1
1
1
1
1
1
1
1
1
1
1
1
1
1
1
1
1
1
1
1
1
1.00001
1.00013
1.00276
0.999856
0.765656
2.99946
9.75001
11.6708
12.0293
12.1066
12.1318
12.1491
12.1661
12.1823
12.1964
12.2097
12.2225
12.2346
12.2469
12.2588
12.269
12.2785
12.2874
12.2966
12.3071
12.3192
12.3333
12.3485
12.3645
12.3809
12.3967
12.4115
12.428
12.4461
12.4675
12.4888
12.5081
12.5243
12.5391
12.5547
12.5727
12.5921
12.6109
12.6279
12.6429
12.6608
12.6806
12.6959
12.7059
12.7105
12.7152
12.7256
12.7386
12.7502
12.7591
12.7675
12.7785
12.7921
12.8054
12.8171
12.826
12.8335
12.8417
12.8476
12.8479
12.8467
12.8351
12.8316
12.8178
12.8154
12.7976
12.7833
12.7577
12.7354
12.7122
12.6937
12.6465
1
1
1
1
1
1
1
1
1
1
1
1
1
1
1
1
1
1
1
1
1
1
1
1
1
1
1
1
1
1
1
1
1
1
1
1
1
1
1
1
1
1
0.999996
0.999881
0.99877
0.992596
0.857097
0.66791
8.63557
11.2854
11.8811
12.005
12.0483
12.0771
12.1027
12.1259
12.1457
12.165
12.1812
12.195
12.2088
12.221
12.2304
12.2382
12.2453
12.2528
12.2622
12.2727
12.2849
12.2986
12.3138
12.3302
12.3476
12.3657
12.3842
12.4038
12.4251
12.4467
12.4665
12.483
12.4994
12.516
12.5338
12.5523
12.5717
12.5907
12.6104
12.6328
12.6557
12.6736
12.6854
12.6927
12.7006
12.7112
12.7211
12.7284
12.7337
12.7432
12.7556
12.768
12.7781
12.7858
12.7929
12.8015
12.8115
12.8187
12.8139
12.8089
12.7983
12.7983
12.784
12.78
12.7607
12.7436
12.7152
12.6914
12.6665
12.6465
12.5961
1
1
1
1
1
1
1
1
1
1
1
1
1
1
1
1
1
1
1
1
1
1
1
1
1
1
1
1
1
1
1
1
1
1
1
1
1
1
1
1
1
1
1
0.999998
0.999979
0.999976
0.996686
1.07098
6.83248
10.7776
11.766
11.9682
12.0249
12.0504
12.0693
12.0871
12.1064
12.1257
12.1439
12.1611
12.1785
12.1932
12.2039
12.213
12.2219
12.2316
12.2407
12.249
12.2574
12.2661
12.2772
12.292
12.3097
12.3282
12.3464
12.3653
12.3856
12.4065
12.4272
12.4463
12.4639
12.4806
12.4963
12.5117
12.5288
12.5491
12.572
12.598
12.6244
12.6452
12.6595
12.6715
12.6832
12.6934
12.7008
12.7055
12.7116
12.7221
12.7338
12.7432
12.7498
12.7558
12.7646
12.7743
12.7835
12.7851
12.7764
12.773
12.7634
12.7664
12.7493
12.7411
12.7225
12.7033
12.6711
12.6452
12.6193
12.5984
12.5449
1
1
1
1
1
1
1
1
1
1
1
1
1
1
1
1
1
1
1
1
1
1
1
1
1
1
1
1
1
1
1
1
1
1
1
1
1
1
1
1
1
1
1
1.00001
1.00019
1.0019
1.00156
0.839153
3.59005
9.86051
11.5976
11.9225
11.988
12.0095
12.0229
12.0372
12.055
12.0737
12.0925
12.1117
12.1307
12.1471
12.1608
12.1738
12.1877
12.2031
12.217
12.2285
12.2377
12.2453
12.2536
12.2655
12.2802
12.2967
12.3135
12.3307
12.35
12.371
12.3931
12.4141
12.4328
12.4484
12.4606
12.473
12.488
12.508
12.5313
12.5578
12.5854
12.6079
12.6267
12.6436
12.6587
12.6697
12.6768
12.682
12.6902
12.7011
12.7106
12.7175
12.7228
12.7295
12.74
12.7487
12.7509
12.7478
12.7407
12.741
12.7304
12.7313
12.7119
12.702
12.6826
12.6611
12.6251
12.5975
12.571
12.5492
12.492
1
1
1
1
1
1
1
1
1
1
1
1
1
1
1
1
1
1
1
1
1
1
1
1
1
1
1
1
1
1
1
1
1
1
1
1
1
1
1
1
1
1
1
1
0.999993
0.999805
0.992966
0.860464
0.639057
8.55152
11.234
11.8091
11.9233
11.9555
11.9716
11.9864
12.0034
12.0203
12.0375
12.0563
12.0747
12.0915
12.1091
12.1289
12.1487
12.1671
12.1837
12.197
12.2074
12.2172
12.2257
12.2352
12.2472
12.2617
12.2767
12.2929
12.312
12.3343
12.3577
12.3804
12.4005
12.4153
12.428
12.4386
12.4523
12.4712
12.4931
12.5177
12.5432
12.5654
12.5887
12.6096
12.6271
12.6402
12.6485
12.6569
12.6673
12.6783
12.6862
12.6913
12.6973
12.705
12.7155
12.7181
12.7158
12.7148
12.7081
12.7096
12.6948
12.6898
12.6735
12.664
12.6401
12.6154
12.5776
12.5492
12.5218
12.4985
12.438
1
1
1
1
1
1
1
1
1
1
1
1
1
1
1
1
1
1
1
1
1
1
1
1
1
1
1
1
1
1
1
1
1
1
1
1
1
1
1
1
1
1
1
1
1
1
0.999841
0.993171
0.980619
6.36159
10.6225
11.6648
11.8753
11.9264
11.9439
11.9545
11.9661
11.9777
11.9887
12.002
12.0185
12.0376
12.0589
12.0807
12.1023
12.122
12.1389
12.1536
12.1677
12.1813
12.1931
12.2039
12.2157
12.2282
12.2408
12.2551
12.2727
12.2942
12.3171
12.3407
12.3618
12.3785
12.3941
12.406
12.4189
12.435
12.4534
12.4742
12.4962
12.5208
12.5469
12.5707
12.5908
12.6056
12.617
12.6285
12.6411
12.6522
12.6601
12.665
12.6723
12.6798
12.6869
12.6857
12.6826
12.6835
12.6767
12.6757
12.6552
12.6482
12.6341
12.624
12.596
12.5679
12.529
12.5
12.4712
12.4458
12.3811
1
1
1
1
1
1
1
1
1
1
1
1
1
1
1
1
1
1
1
1
1
1
1
1
1
1
1
1
1
1
1
1
1
1
1
1
1
1
1
1
1
1
1
1
1.00001
1.00012
1.00249
1.00178
0.791504
2.57781
9.4765
11.4423
11.8058
11.884
11.9055
11.9155
11.9255
11.9362
11.946
11.9581
11.9734
11.9896
12.005
12.0223
12.041
12.0598
12.0772
12.0943
12.1129
12.1307
12.1463
12.1607
12.1741
12.1869
12.2007
12.2144
12.2307
12.2506
12.2732
12.2966
12.3184
12.3392
12.3587
12.374
12.3868
12.3992
12.4128
12.4292
12.4508
12.4762
12.5025
12.5279
12.5498
12.5657
12.5807
12.595
12.6097
12.6225
12.6308
12.6375
12.6459
12.6517
12.6561
12.6541
12.65
12.6514
12.6413
12.6357
12.6153
12.6093
12.5921
12.5793
12.5496
12.5195
12.4789
12.4491
12.419
12.3927
12.3259
1
1
1
1
1
1
1
1
1
1
1
1
1
1
1
1
1
1
1
1
1
1
1
1
1
1
1
1
1
1
1
1
1
1
1
1
1
1
1
1
1
1
1
1
0.999999
1.00001
1.00003
0.999755
0.98722
0.945353
7.56778
10.8603
11.613
11.777
11.8267
11.8514
11.8709
11.8874
11.9017
11.9149
11.9279
11.9403
11.951
11.9623
11.9761
11.992
12.0094
12.0283
12.0485
12.0693
12.0892
12.1073
12.1234
12.1391
12.1538
12.1677
12.1827
12.2018
12.2237
12.2467
12.2697
12.2939
12.3171
12.3367
12.352
12.3631
12.3736
12.3884
12.4089
12.4332
12.4589
12.4829
12.5031
12.5214
12.5392
12.5567
12.5735
12.5875
12.5989
12.6074
12.6169
12.6209
12.6236
12.6222
12.6156
12.6163
12.602
12.5939
12.5759
12.5709
12.5468
12.5304
12.5009
12.4696
12.4281
12.3964
12.3642
12.3373
12.2666
1
1
1
1
1
1
1
1
1
1
1
1
1
1
1
1
1
1
1
1
1
1
1
1
1
1
1
1
1
1
1
1
1
1
1
1
1
1
1
1
1
1
1
1
1
1
0.999987
0.999671
0.98879
0.845999
4.23886
9.92762
11.376
11.6737
11.7504
11.7847
11.8099
11.8303
11.8483
11.8645
11.8802
11.8957
11.9085
11.9206
11.9327
11.9453
11.9597
11.9758
11.9946
12.0155
12.037
12.0562
12.0749
12.092
12.1074
12.1205
12.1343
12.1518
12.1721
12.1939
12.218
12.2447
12.2715
12.295
12.3128
12.3265
12.3362
12.3495
12.3685
12.3909
12.4144
12.4353
12.4547
12.4746
12.4935
12.5132
12.5322
12.5477
12.5623
12.5731
12.584
12.5873
12.5887
12.5878
12.5795
12.5781
12.5616
12.5528
12.5346
12.5296
12.5008
12.4811
12.4503
12.4176
12.3752
12.3424
12.3097
12.2828
12.21
1
1
1
1
1
1
1
1
1
1
1
1
1
1
1
1
1
1
1
1
1
1
1
1
1
1
1
1
1
1
1
1
1
1
1
1
1
1
1
1
1
1
1
1
1
1.00001
1.00019
1.00097
0.997092
0.933552
0.751922
8.16974
10.9437
11.5433
11.6802
11.7185
11.7435
11.7681
11.7877
11.8053
11.8225
11.8393
11.8554
11.8709
11.8857
11.8987
11.9116
11.9261
11.9437
11.9631
11.9842
12.0035
12.023
12.0405
12.0575
12.0719
12.0856
12.1017
12.121
12.1429
12.1671
12.1938
12.2216
12.247
12.2698
12.287
12.2996
12.3122
12.3283
12.3475
12.3675
12.3877
12.4083
12.4282
12.448
12.4686
12.4867
12.5031
12.521
12.5339
12.546
12.5497
12.5514
12.5515
12.5409
12.5376
12.5206
12.5113
12.4904
12.4828
12.4538
12.4315
12.398
12.3634
12.3185
12.2839
12.2514
12.2249
12.1475
1
1
1
1
1
1
1
1
1
1
1
1
1
1
1
1
1
1
1
1
1
1
1
1
1
1
1
1
1
1
1
1
1
1
1
1
1
1
1
1
1
1
1
1
1
1
1.00001
1.00002
0.999767
0.991089
0.875776
5.27643
10.2204
11.3962
11.62
11.6678
11.685
11.7024
11.723
11.7421
11.7622
11.7813
11.7996
11.818
11.8355
11.8513
11.8664
11.8812
11.8981
11.9165
11.936
11.9546
11.9736
11.9915
12.0092
12.0255
12.0396
12.0549
12.0731
12.094
12.1167
12.1414
12.1686
12.1954
12.2225
12.2439
12.2611
12.2746
12.2867
12.3026
12.3222
12.343
12.3632
12.3836
12.4034
12.4212
12.4372
12.4557
12.4757
12.4898
12.5035
12.5086
12.5106
12.5122
12.4998
12.4956
12.4785
12.4682
12.4423
12.4313
12.4046
12.3811
12.3442
12.3081
12.2624
12.2273
12.1945
12.1678
12.0873
1
1
1
1
1
1
1
1
1
1
1
1
1
1
1
1
1
1
1
1
1
1
1
1
1
1
1
1
1
1
1
1
1
1
1
1
1
1
1
1
1
1
1
1
1
1
1.00004
1.00053
1.00323
0.995242
0.858154
0.949425
8.44838
11.0356
11.5198
11.6199
11.6388
11.6497
11.663
11.6797
11.6978
11.7161
11.7348
11.7554
11.775
11.7935
11.812
11.8299
11.8482
11.8667
11.8856
11.9039
11.9226
11.9407
11.9603
11.9783
11.9939
12.0092
12.0257
12.0442
12.0653
12.0896
12.1167
12.1447
12.1734
12.1984
12.2183
12.233
12.2446
12.2593
12.2782
12.299
12.3198
12.3394
12.3553
12.3706
12.3888
12.4081
12.429
12.4442
12.4569
12.4636
12.4655
12.4694
12.4565
12.4521
12.4345
12.4225
12.393
12.3796
12.3527
12.3294
12.2885
12.2504
12.2038
12.1673
12.1333
12.1073
12.0222
1
1
1
1
1
1
1
1
1
1
1
1
1
1
1
1
1
1
1
1
1
1
1
1
1
1
1
1
1
1
1
1
1
1
1
1
1
1
1
1
1
1
1
1
1
1
0.999989
1.00003
1.0001
0.999547
0.986535
0.809633
5.60567
10.2552
11.3333
11.5459
11.5918
11.6049
11.6127
11.6256
11.641
11.6564
11.6732
11.6923
11.7118
11.7315
11.7519
11.7728
11.7937
11.8139
11.8333
11.8529
11.8724
11.891
11.9117
11.9305
11.9479
11.9632
11.9787
11.9955
12.0155
12.0396
12.0663
12.0943
12.123
12.1491
12.1705
12.1883
12.2019
12.2166
12.2355
12.2566
12.276
12.2917
12.3069
12.3234
12.3423
12.362
12.3826
12.3955
12.4055
12.4156
12.4178
12.4234
12.4106
12.4063
12.3874
12.3741
12.3437
12.3282
12.2976
12.2747
12.233
12.193
12.1457
12.1088
12.0748
12.0483
11.9597
1
1
1
1
1
1
1
1
1
1
1
1
1
1
1
1
1
1
1
1
1
1
1
1
1
1
1
1
1
1
1
1
1
1
1
1
1
1
1
1
1
1
1
1
1
1
0.999998
0.999989
1.00009
1.00141
1.00412
0.876035
1.24792
8.4806
10.9462
11.4203
11.5306
11.5586
11.5676
11.5779
11.5894
11.6012
11.6147
11.631
11.6486
11.6672
11.6875
11.7094
11.7318
11.7536
11.7754
11.7982
11.8198
11.8401
11.8613
11.8807
11.8991
11.9166
11.9335
11.9496
11.9686
11.9917
12.0174
12.0441
12.0713
12.0968
12.1223
12.143
12.1594
12.1753
12.194
12.2124
12.228
12.2446
12.2614
12.278
12.2974
12.3159
12.332
12.3416
12.3526
12.3662
12.3686
12.3754