/*--------------------------------*- C++ -*----------------------------------*\
| =========                 |                                                 |
| \\      /  F ield         | OpenFOAM: The Open Source CFD Toolbox           |
|  \\    /   O peration     | Version:  2.2.x                                 |
|   \\  /    A nd           | Web:      www.OpenFOAM.org                      |
|    \\/     M anipulation  |                                                 |
\*---------------------------------------------------------------------------*/
FoamFile
{
    version     2.0;
    format      ascii;
    class       volScalarField;
    location    "0.1";
    object      By;
}
// * * * * * * * * * * * * * * * * * * * * * * * * * * * * * * * * * * * * * //

dimensions      [1 0 -2 0 0 -1 0];

internalField   nonuniform List<scalar> 
1024
(
-1
-1
-1
-1
-1
-1
-1
-1
-1
-1
-1
-1
-1
-1
-1
-1
-1
-1
-1
-1
-1
-1
-1
-1
-1
-1
-1
-1
-1
-1
-1
-1
-1
-1
-1
-1
-1
-1
-1
-1
-1
-1
-1
-1
-1
-1
-1
-1
-1
-1
-1
-1
-1
-1
-1
-1
-1
-1
-1
-1
-1
-1
-1
-1
-1
-1
-1
-1
-1
-1
-1
-1
-1
-1
-1
-1
-1
-1
-1
-1
-1
-1
-1
-1
-1
-1
-1
-1
-1
-1
-1
-1
-1
-1
-1
-1
-1
-1
-1
-1
-1
-1
-1
-1
-1
-1
-1
-1
-1
-1
-1
-1
-1
-1
-0.999999
-0.999999
-0.999998
-0.999997
-0.999995
-0.999993
-0.999989
-0.999983
-0.999975
-0.999962
-0.999943
-0.999916
-0.999877
-0.999822
-0.999745
-0.999639
-0.999493
-0.999298
-0.999039
-0.9987
-0.998263
-0.99771
-0.997021
-0.996175
-0.995155
-0.993946
-0.992536
-0.990917
-0.989087
-0.987048
-0.984801
-0.982348
-0.979686
-0.976807
-0.973908
-0.971115
-0.968409
-0.965761
-0.963176
-0.96061
-0.958097
-0.955582
-0.953102
-0.950624
-0.948154
-0.945694
-0.943232
-0.940773
-0.938315
-0.935857
-0.933398
-0.930939
-0.928479
-0.926019
-0.92356
-0.9211
-0.918651
-0.9162
-0.913773
-0.911351
-0.908958
-0.906608
-0.904264
-0.902025
-0.899802
-0.897684
-0.895705
-0.893749
-0.892047
-0.890399
-0.888928
-0.887725
-0.886537
-0.885661
-0.884919
-0.884267
-0.8839
-0.883555
-0.883318
-0.88324
-0.883157
-0.883108
-0.883119
-0.88315
-0.883233
-0.883426
-0.883805
-0.884467
-0.885511
-0.886672
-0.887536
-0.888318
-0.888779
-0.889191
-0.889518
-0.889683
-0.889832
-0.889962
-0.890025
-0.89005
-0.890091
-0.890119
-0.890125
-0.890123
-0.890124
-0.890121
-0.890102
-0.890057
-0.889976
-0.889842
-0.88963
-0.889306
-0.888976
-0.888707
-0.888545
-0.888388
-0.888311
-0.888276
-0.888239
-0.888226
-0.888233
-0.888248
-0.888288
-0.888374
-0.888508
-0.888627
-0.888696
-0.888743
-0.888777
-0.888784
-0.888788
-0.888789
-0.888783
-0.888758
-0.888713
-0.888674
-0.888654
-0.888633
-0.888622
-0.888619
-0.888615
-0.888611
-0.888608
-0.888606
-0.888602
-0.888593
-0.888577
-0.88855
-0.888505
-0.888438
-0.888377
-0.888332
-0.888298
-0.88828
-0.888263
-0.888254
-0.88825
-0.888244
-0.888239
-0.888232
-0.888225
-0.888213
-0.888191
-0.888153
-0.888091
-0.887996
-0.887908
-0.887836
-0.8878
-0.887766
-0.887754
-0.88775
-0.887747
-0.88775
-0.887764
-0.887794
-0.887823
-0.887837
-0.887851
-0.887853
-0.887854
-0.887852
-0.887844
-0.887825
-0.887807
-0.887795
-0.887793
-0.88779
-0.887791
-0.887798
-0.887815
-0.887849
-0.88788
-0.887902
-0.887912
-0.887917
-0.887918
-0.887916
-0.887907
-0.887885
-0.887847
-0.887815
-0.887796
-0.88778
-0.887775
-0.88777
-0.887768
-0.887767
-0.887767
-0.887766
-0.887764
-0.88776
-0.887752
-0.887734
-0.887701
-0.887643
-0.887578
-0.887529
-0.8875
-0.887476
-0.887469
-0.887464
-0.887461
-0.887462
-0.887466
-0.887469
-0.88747
-0.88747
-0.887467
-0.887457
-0.887436
-0.887407
-0.887386
-0.887372
-0.887364
-0.88736
-0.887359
-0.88736
-0.887364
-0.887376
-0.887404
-0.887455
-0.887505
-0.887539
-0.887557
-0.887565
-0.887566
-0.887563
-0.887552
-0.887545
-0.887545
-0.887561
-0.887598
-0.88762
-0.887544
-0.88711
-0.885585
-0.880314
-0.862443
-0.807904
-0.689666
-0.598259
-0.558341
-0.543687
-0.538757
-0.537108
-0.536574
-0.536412
-0.536369
-0.536389
-0.536456
-0.536549
-0.536609
-0.536655
-0.536691
-0.536704
-0.536703
-0.536705
-0.536718
-0.536748
-0.536806
-0.536873
-0.536933
-0.536989
-0.537035
-0.537068
-0.537087
-0.537096
-0.537085
-0.537041
-0.536973
-0.536918
-0.53688
-0.536847
-0.536817
-0.536793
-0.536776
-0.536763
-0.536756
-0.536752
-0.536743
-0.536723
-0.536709
-0.536714
-0.53674
-0.536787
-0.53684
-0.536891
-0.536941
-0.536988
-0.537031
-0.537063
-0.537082
-0.537094
-0.537104
-0.53711
-0.537119
-0.537127
-0.537141
-0.537165
-0.537191
-0.537216
-0.537234
-0.53724
-0.537239
-0.53723
-0.537217
-0.537209
-0.537207
-0.537215
-0.537239
-0.537275
-0.537306
-0.537327
-0.537337
-0.537337
-0.537326
-0.537314
-0.53731
-0.53732
-0.537349
-0.537391
-0.537424
-0.537437
-0.537432
-0.537409
-0.537387
-0.53738
-0.537391
-0.537424
-0.53747
-0.537502
-0.537514
-0.537508
-0.537483
-0.537462
-0.537458
-0.537479
-0.537537
-0.537591
-0.53761
-0.537597
-0.537555
-0.537531
-0.537551
-0.537648
-0.537789
-0.537863
-0.537871
-0.537849
-0.537804
-0.537773
-0.537775
-0.537841
-0.537985
-0.538095
-0.538142
-0.538141
-0.53803
-0.537971
-0.537991
-0.538071
-0.538289
-0.538591
-0.538768
-0.538841
-0.538764
-0.538618
-0.538612
-0.538679
-0.538836
-0.539181
-0.539407
-0.539419
-0.539163
-0.53863
-0.537921
-0.537229
-0.536445
-0.535618
-0.534696
-0.533007
-0.530114
-0.525624
-0.520115
-0.51416
-0.507968
-0.501876
-0.495385
-0.487603
-0.477655
-0.466167
-0.454325
-0.44284
-0.431799
-0.421134
-0.409788
-0.39588
-0.379799
-0.361664
-0.340899
-0.317952
-0.293148
-0.266608
-0.225954
-0.161815
-0.0757405
0.0458223
0.241406
0.417883
0.491438
0.518472
0.527903
0.531248
0.532277
0.532405
0.532282
0.532172
0.532137
0.532131
0.532129
0.532111
0.532039
0.531923
0.53177
0.531592
0.531471
0.531382
0.5313
0.531222
0.531126
0.530932
0.530621
0.530242
0.529716
0.529005
0.528223
0.527307
0.526229
0.524952
0.523255
0.521098
0.51884
0.517568
0.5171
0.517052
0.517248
0.517903
0.518916
0.520737
0.523383
0.526356
0.530136
0.534283
0.538634
0.543303
0.547992
0.552757
0.557527
0.562263
0.566976
0.57164
0.57626
0.58084
0.585385
0.589902
0.594398
0.598883
0.60336
0.607831
0.612297
0.616763
0.621232
0.625702
0.63017
0.634645
0.639129
0.643611
0.648096
0.652594
0.657095
0.661594
0.666105
0.670624
0.675142
0.679664
0.684199
0.688735
0.693271
0.697818
0.702371
0.706922
0.711481
0.71605
0.720616
0.725188
0.729772
0.734355
0.738941
0.74354
0.748141
0.752743
0.757358
0.761977
0.766596
0.771229
0.775866
0.780503
0.785154
0.789809
0.794465
0.799135
0.803808
0.808484
0.813175
0.817865
0.822563
0.827274
0.831982
0.836704
0.841433
0.846162
0.850907
0.855655
0.860407
0.865175
0.869943
0.874719
0.879509
0.884298
0.8891
0.893911
0.898723
0.903551
0.90838
0.913218
0.918068
0.922918
0.927781
0.932646
0.937516
0.942386
0.947204
0.951938
0.95658
0.961112
0.965511
0.969744
0.973778
0.977573
0.981092
0.984303
0.98718
0.989707
0.991881
0.993711
0.995218
0.996429
0.997383
0.998116
0.998668
0.999074
0.999367
0.999575
0.999719
0.999817
0.999882
0.999926
0.999954
0.999971
0.999983
0.99999
0.999994
0.999996
0.999998
0.999999
0.999999
1
1
1
1
1
1
1
1
1
1
1
1
1
1
1
1
1
1
1
1
1
1
1
1
1
1
1
1
1
1
1
1
1
1
1
1
1
1
1
1
1
1
1
1
1
1
1
1
1
1
1
1
1
1
1
1
1
1
1
1
1
1
1
1
1
1
1
1
1
1
1
1
1
1
1
1
1
1
1
1
1
1
1
1
1
1
1
1
1
1
1
1
1
1
1
1
1
1
1
1
1
1
1
1
1
1
1
1
1
1
1
1
1
1
1
1
1
1
1
1
1
1
1
1
1
1
1
1
1
1
1
1
1
1
1
1
1
1
1
1
1
1
1
1
1
1
1
1
1
1
1
1
1
1
1
1
1
1
1
1
1
1
1
1
1
1
1
1
1
1
1
1
1
1
1
1
1
1
1
1
1
1
1
1
1
1
1
1
1
1
1
1
1
1
1
1
1
1
1
1
1
1
1
1
1
1
1
1
1
1
1
1
1
1
1
1
1
1
1
1
1
1
1
1
1
1
1
1
1
1
1
1
1
1
1
1
1
1
1
1
1
1
1
1
1
1
1
1
1
1
1
1
1
1
1
1
1
1
1
1
1
1
1
1
1
1
1
1
1
1
1
1
1
1
1
1
1
1
1
1
1
1
1
1
1
1
1
1
1
1
1
1
1
1
1
1
1
1
1
1
1
1
1
1
1
1
1
1
1
1
1
1
1
)
;

boundaryField
{
    front-back
    {
        type            empty;
    }
    inlet-outlet
    {
        type            zeroGradient;
    }
    top-down
    {
        type            empty;
    }
}


// ************************************************************************* //
