/*--------------------------------*- C++ -*----------------------------------*\
| =========                 |                                                 |
| \\      /  F ield         | OpenFOAM: The Open Source CFD Toolbox           |
|  \\    /   O peration     | Version:  2.2.x                                 |
|   \\  /    A nd           | Web:      www.OpenFOAM.org                      |
|    \\/     M anipulation  |                                                 |
\*---------------------------------------------------------------------------*/
FoamFile
{
    version     2.0;
    format      ascii;
    class       volScalarField;
    location    "1";
    object      By;
}
// * * * * * * * * * * * * * * * * * * * * * * * * * * * * * * * * * * * * * //

dimensions      [1 0 -2 0 0 -1 0];

internalField   nonuniform List<scalar> 
14161
(
-6.00201e-07
-1.20063e-07
-2.88351e-08
1.50797e-07
-7.42019e-07
-6.98553e-07
4.97707e-07
5.9083e-07
-7.94785e-07
-9.406e-07
-4.20939e-07
5.73576e-07
4.50939e-08
-1.79571e-06
1.43027e-06
2.48162e-06
-7.38642e-07
-2.04915e-06
2.76781e-06
1.65905e-06
-2.40341e-06
-1.49305e-06
6.82837e-06
-1.52718e-06
-7.13635e-06
8.9816e-06
6.82978e-06
6.20762e-06
1.52761e-05
-6.25377e-06
-6.12345e-06
1.44026e-05
2.00159e-05
2.26691e-05
2.1904e-05
2.54587e-05
3.03571e-05
4.54319e-05
5.47263e-05
6.19596e-05
7.27157e-05
9.57328e-05
8.95806e-05
0.000128504
0.000161013
0.000247835
0.000303862
0.000342659
0.00116132
0.00110339
0.00482996
0.0188746
-0.00488583
-0.0239314
-0.0288634
-0.0262942
-0.0186152
-0.0150663
-0.0132801
-0.0140653
-0.0115392
-0.00957692
-0.00720606
-0.00572532
-0.00460255
-0.00309588
-0.00144585
-0.000568864
7.13988e-06
0.000488936
0.000563996
0.000645966
0.000208003
-0.000739822
-0.00160695
-0.00145888
-0.00215566
-0.00253348
-0.00306051
-0.00159143
-0.000856347
-0.00135191
-0.00197655
-0.00274384
-0.00343152
-0.00217347
-0.00271581
-0.00325461
-0.00377821
-0.0044727
-0.00727238
-0.00669933
-0.0035299
-0.00234085
-0.00212881
-0.00734206
-0.00649006
0.0049094
0.0261238
0.0749919
0.102128
0.0899493
0.0691087
0.0558833
0.0473941
0.0424424
0.038772
0.0367389
0.0352033
0.0349062
0.0350561
0.0351098
0.0362625
0.0363033
0.0399043
0.0397441
0.0404558
0.037784
0.0270799
-1.39318e-06
-3.36992e-07
-2.26227e-07
-1.11196e-07
-5.49944e-07
-5.01483e-07
-2.71098e-07
-1.49278e-07
-3.29742e-07
-7.63139e-07
-1.26012e-06
-9.31134e-09
5.27532e-07
-1.46586e-06
5.68609e-07
3.20038e-06
-2.39219e-07
-2.01376e-06
3.62801e-06
4.20735e-06
-3.73541e-06
-1.00698e-06
1.91972e-05
5.0145e-06
-1.51098e-05
1.65965e-05
1.55526e-05
2.75093e-05
4.23781e-05
-1.56371e-05
-1.94766e-05
3.31218e-05
5.56892e-05
6.77832e-05
7.22044e-05
8.32741e-05
9.77764e-05
0.000127169
0.000146596
0.0001709
0.000220507
0.000285005
0.000287378
0.000364358
0.000429201
0.00050822
0.000711885
0.000651019
0.00216623
0.00140115
0.00900911
0.0275845
-0.0186874
-0.0480853
-0.0562479
-0.0589933
-0.0476645
-0.0377078
-0.0332383
-0.034307
-0.0286084
-0.0242376
-0.0189895
-0.0152692
-0.0125926
-0.00925549
-0.00524313
-0.00330429
-0.00116434
-0.000298493
-4.13271e-05
0.000158935
-0.000189516
-0.00132219
-0.00267961
-0.0026748
-0.00383896
-0.00479287
-0.00618886
-0.00409449
-0.00324103
-0.00351375
-0.00386122
-0.0051559
-0.0076534
-0.00630774
-0.0070716
-0.00951482
-0.00958362
-0.0105436
-0.0176639
-0.0165538
-0.0111365
-0.00739778
-0.0095426
-0.0111381
-0.00469061
0.025783
0.0935027
0.174743
0.195063
0.168408
0.139994
0.116556
0.0981983
0.0853717
0.0755297
0.0696567
0.0655786
0.0632939
0.0619126
0.0604834
0.0605778
0.0599985
0.0617299
0.0628657
0.064459
0.0604383
0.0473127
-2.33405e-06
-6.17791e-07
-3.12761e-07
-2.8155e-07
-7.50498e-07
-6.25376e-07
-5.57107e-07
-3.17513e-07
-9.55275e-07
-1.08211e-06
-1.29005e-06
2.10407e-07
-2.73898e-08
-2.30154e-06
1.3924e-06
5.50638e-06
-2.2943e-06
-3.29414e-06
7.1868e-06
7.60717e-06
-8.14092e-06
9.45524e-07
3.33435e-05
4.7464e-06
-2.22998e-05
2.21911e-05
3.26453e-05
5.9033e-05
6.61949e-05
-2.7956e-05
-3.01041e-05
6.01748e-05
0.000105321
0.000124653
0.000133761
0.00014726
0.000156008
0.000197805
0.000246003
0.000301985
0.00038142
0.0004337
0.000528687
0.000576405
0.000698771
0.000875173
0.000974423
0.00123899
0.00168839
0.00192507
0.00313085
0.0112199
-0.0254635
-0.0552073
-0.0757635
-0.0851843
-0.0803359
-0.0696882
-0.0636971
-0.0633341
-0.0543851
-0.0470284
-0.0382355
-0.0307124
-0.0248725
-0.0190038
-0.0116635
-0.00787222
-0.00386614
-0.00126843
-0.00110045
-0.00109709
-0.00147421
-0.00286657
-0.00508473
-0.00520464
-0.00684037
-0.0082395
-0.00979215
-0.00779243
-0.00596448
-0.00666593
-0.00765152
-0.00944444
-0.0123907
-0.0105471
-0.0115819
-0.0164524
-0.0170645
-0.0176854
-0.0298524
-0.0284499
-0.0205322
-0.0137789
-0.0156376
-0.00982047
0.0221342
0.148736
0.260667
0.302967
0.293607
0.248001
0.205055
0.171288
0.146424
0.129582
0.117939
0.110559
0.10529
0.102461
0.100515
0.098441
0.0986146
0.0977846
0.0988368
0.0984729
0.0925324
0.0802033
0.0679895
-2.94509e-06
-9.00072e-07
-4.91648e-07
-5.82262e-07
-7.16893e-07
-4.60088e-07
-1.0103e-06
-7.3189e-07
-1.23969e-06
-1.07925e-06
-1.5656e-06
1.21704e-07
-2.67423e-07
-2.5154e-06
1.01436e-06
7.11486e-06
-2.17788e-06
-4.33381e-06
9.71111e-06
9.02252e-06
-8.98811e-06
7.51867e-07
3.84221e-05
1.46211e-05
-2.99872e-05
2.14045e-05
4.57953e-05
8.58896e-05
7.91831e-05
-1.95009e-05
-4.8809e-05
7.48666e-05
0.000137997
0.000172563
0.000184609
0.000213543
0.000227445
0.000270113
0.000348991
0.0004277
0.000506241
0.000595475
0.000652092
0.000842558
0.000921007
0.0010878
0.00093846
0.00118092
2.28728e-05
0.000744156
-0.00439117
-0.0286134
-0.0384008
-0.0651302
-0.0960559
-0.110936
-0.10917
-0.098206
-0.0920343
-0.088107
-0.0761698
-0.0629458
-0.0531342
-0.0407497
-0.0309127
-0.0224327
-0.0136049
-0.0093255
-0.00444331
-0.00141985
-0.00120888
-0.00189741
-0.00185689
-0.00384217
-0.00670648
-0.00698529
-0.00819292
-0.0107
-0.012707
-0.0108208
-0.00894892
-0.00947858
-0.0102868
-0.0129901
-0.0164187
-0.0139502
-0.0152677
-0.021533
-0.023805
-0.0241636
-0.037658
-0.0349699
-0.0247876
-0.014113
-0.0060308
0.0374968
0.180822
0.317318
0.384937
0.3896
0.35299
0.29961
0.254488
0.21743
0.189177
0.168708
0.154735
0.145895
0.139234
0.134939
0.131544
0.127893
0.126619
0.123222
0.119964
0.114305
0.105656
0.0923567
0.083501
-3.74353e-06
-1.06965e-06
-7.90311e-07
-7.48216e-07
-8.19061e-07
-4.37065e-07
-1.32414e-06
-1.10179e-06
-1.85352e-06
-1.14142e-06
-2.03399e-06
1.19503e-07
-6.77757e-07
-2.74972e-06
2.88841e-07
8.49375e-06
-1.01573e-06
-5.44108e-06
1.04553e-05
9.98769e-06
-1.26619e-05
1.78217e-06
4.67739e-05
2.52876e-05
-3.02937e-05
1.45218e-05
6.94799e-05
0.000123523
8.49136e-05
6.30859e-06
-5.49182e-05
6.12613e-05
0.000182252
0.000237174
0.000252021
0.000264569
0.00029288
0.000332996
0.000421136
0.000538266
0.000671095
0.000753162
0.000879706
0.00110886
0.00128192
0.0014703
0.00156511
0.00164271
6.81054e-05
0.000737483
-0.00544957
-0.0230165
-0.061082
-0.0946169
-0.129799
-0.153926
-0.154457
-0.142092
-0.134321
-0.126619
-0.107047
-0.087469
-0.0729848
-0.0531097
-0.0398596
-0.027877
-0.0153738
-0.0111795
-0.00440524
-0.000931068
-0.000547275
-0.0015566
-0.00225635
-0.0048614
-0.00852687
-0.00966079
-0.0101198
-0.0139015
-0.017018
-0.0160036
-0.0132057
-0.0146808
-0.0154962
-0.0182417
-0.0226778
-0.0212545
-0.0217959
-0.0300366
-0.0359518
-0.0366279
-0.0495615
-0.0445012
-0.0263008
-0.000781495
0.055356
0.219411
0.39703
0.487862
0.495294
0.459428
0.406087
0.347188
0.299735
0.260507
0.231272
0.209184
0.19355
0.182599
0.174844
0.169634
0.164673
0.158736
0.154733
0.147207
0.139837
0.127872
0.11534
0.101556
0.0962565
-4.04806e-06
-1.31052e-06
-1.22867e-06
-1.13265e-06
-7.52491e-07
-5.95225e-07
-1.51347e-06
-1.25697e-06
-2.28015e-06
-1.16364e-06
-2.41164e-06
-2.39616e-07
-7.67125e-07
-2.68814e-06
-9.94296e-07
9.19743e-06
5.38811e-07
-6.86244e-06
1.18083e-05
1.32665e-05
-1.17967e-05
4.01207e-06
4.93498e-05
3.69094e-05
-1.89137e-05
9.50892e-07
8.86137e-05
0.000135105
0.000100283
1.40869e-05
-3.27613e-05
4.17238e-05
0.000208285
0.000281304
0.000308913
0.000327391
0.000369882
0.000407104
0.000493104
0.000594633
0.00075121
0.000942474
0.00119814
0.0014549
0.00183706
0.00210858
0.00277843
0.00284929
0.00295321
0.00304681
0.000304755
0.0134264
-0.0744922
-0.152808
-0.185913
-0.211171
-0.208374
-0.185105
-0.173834
-0.155897
-0.128254
-0.105118
-0.0850412
-0.0590749
-0.0415018
-0.0295952
-0.015923
-0.0102287
-0.00306874
0.00307175
0.0031094
0.000868949
-0.000426223
-0.00368229
-0.00969829
-0.0111039
-0.0101078
-0.0166609
-0.0215009
-0.0213983
-0.0177171
-0.0185159
-0.0188583
-0.0227297
-0.0286776
-0.0302649
-0.0271035
-0.0353433
-0.0436212
-0.0440007
-0.0545179
-0.0496413
-0.0174886
0.0430569
0.23412
0.459613
0.585965
0.61317
0.579292
0.517005
0.449817
0.389078
0.340312
0.300128
0.269992
0.246164
0.228828
0.215676
0.206699
0.20051
0.194546
0.18721
0.181152
0.169661
0.15825
0.140832
0.125542
0.111242
0.108003
-4.68446e-06
-1.53089e-06
-1.79053e-06
-1.5433e-06
-7.84272e-07
-4.98019e-07
-2.0453e-06
-1.57712e-06
-2.56026e-06
-1.08639e-06
-2.89779e-06
-9.59472e-07
-4.9173e-07
-2.4284e-06
-2.82198e-06
8.28971e-06
3.90623e-06
-5.83807e-06
1.07914e-05
1.29109e-05
-8.0495e-06
6.91399e-06
4.4985e-05
4.08675e-05
1.07822e-06
-6.90933e-06
0.00010314
0.000148377
9.51668e-05
5.27817e-05
8.56927e-06
4.64897e-05
0.000191691
0.000329256
0.00035727
0.000373541
0.000390336
0.000458501
0.000552534
0.00068228
0.000832803
0.00104601
0.00136233
0.00176063
0.00222103
0.00270002
0.00345512
0.00384349
0.00569463
0.0051455
0.0085543
0.0631364
-0.105467
-0.248676
-0.270877
-0.288325
-0.273027
-0.239579
-0.220956
-0.19162
-0.152618
-0.128064
-0.10128
-0.0670105
-0.0490629
-0.0351577
-0.0202663
-0.00810263
-0.00382357
0.00164007
0.00248563
0.000431843
-0.00261998
-0.00532209
-0.0115845
-0.0159974
-0.0131232
-0.018136
-0.0255883
-0.02683
-0.0226291
-0.0244463
-0.0253303
-0.0261729
-0.0328554
-0.0365772
-0.0345155
-0.0434367
-0.0476313
-0.0471136
-0.0562161
-0.0477778
0.0211251
0.202836
0.471424
0.64717
0.725015
0.716776
0.658864
0.575981
0.495512
0.430514
0.380218
0.339512
0.308174
0.282723
0.26374
0.248748
0.238769
0.231123
0.2238
0.215177
0.207111
0.192054
0.176492
0.154218
0.136812
0.121715
0.119754
-4.86396e-06
-1.85938e-06
-2.07417e-06
-1.53618e-06
-1.3202e-06
-1.34059e-06
-1.54785e-06
-1.79251e-06
-3.20234e-06
-1.46717e-06
-2.44424e-06
-1.87634e-06
-8.27009e-07
-2.21179e-06
-4.26238e-06
7.22269e-06
5.54446e-06
-2.91268e-06
8.28081e-06
1.36848e-05
-1.45843e-06
9.81409e-06
3.94456e-05
4.86101e-05
1.59164e-05
6.83449e-06
9.61326e-05
0.000137739
0.00011552
8.60425e-05
5.40951e-05
6.34589e-05
0.000173848
0.000309851
0.000386344
0.000391407
0.0004373
0.000482261
0.000575082
0.000690478
0.000847821
0.00102416
0.00127539
0.00166871
0.0022498
0.00304322
0.00449431
0.00581253
0.0108179
0.0101295
0.0240762
0.110558
-0.182281
-0.381554
-0.372159
-0.349506
-0.309185
-0.271275
-0.249547
-0.213682
-0.168337
-0.138528
-0.107015
-0.0619428
-0.0501429
-0.0334169
-0.0185225
-0.0117459
0.00218473
0.00391565
0.00360883
0.00145268
-0.00263401
-0.0066835
-0.0142241
-0.0173339
-0.0168331
-0.0197113
-0.0279109
-0.0315985
-0.0269094
-0.027271
-0.0300869
-0.0310448
-0.0366428
-0.0370978
-0.0328085
-0.0397961
-0.0461273
-0.0393248
-0.0407747
0.00302066
0.170697
0.447917
0.666279
0.769653
0.815789
0.795082
0.728495
0.633934
0.540111
0.471227
0.419191
0.37768
0.344459
0.317071
0.29607
0.27917
0.267924
0.258701
0.250556
0.241377
0.232506
0.215773
0.196971
0.17035
0.15023
0.13345
0.132374
-5.50291e-06
-2.06629e-06
-2.12816e-06
-2.0119e-06
-2.14702e-06
-2.04001e-06
-1.78383e-06
-1.92483e-06
-3.44181e-06
-1.18899e-06
-3.2765e-06
-3.08013e-06
1.115e-07
-1.05088e-06
-6.19744e-06
4.37616e-06
8.56916e-06
2.23613e-06
2.89276e-06
1.37416e-05
9.69227e-06
9.95304e-06
3.1979e-05
4.67363e-05
4.0806e-05
2.53387e-05
7.27561e-05
0.000126092
0.000132969
0.000124595
0.000107569
9.72623e-05
0.000155802
0.000271099
0.00038306
0.000436058
0.000445521
0.00051513
0.000580888
0.000711585
0.000876864
0.00107079
0.00127725
0.00154829
0.00213172
0.00286749
0.00376765
0.00384972
0.00653984
0.00631332
0.0133368
0.0496165
-0.310867
-0.433485
-0.414012
-0.38371
-0.341627
-0.29109
-0.266778
-0.225271
-0.18229
-0.150487
-0.105226
-0.0579613
-0.0436969
-0.0295891
-0.0180738
-0.00934181
0.000207712
0.00385893
0.00168754
-0.000747178
-0.00550979
-0.00922115
-0.0186125
-0.0236246
-0.024266
-0.023721
-0.0321152
-0.0342716
-0.031264
-0.0306946
-0.0293124
-0.026282
-0.0322972
-0.0304414
-0.0227744
-0.0237305
-0.0250843
0.000839385
0.05153
0.198719
0.413202
0.632969
0.780101
0.847749
0.862634
0.841522
0.780473
0.686277
0.584165
0.510764
0.455673
0.413329
0.378737
0.350176
0.327804
0.309754
0.297415
0.286744
0.27843
0.268781
0.25933
0.240904
0.220316
0.18935
0.165687
0.146719
0.145975
-5.69127e-06
-2.32692e-06
-2.69432e-06
-2.46734e-06
-2.72806e-06
-1.74776e-06
-2.12519e-06
-1.90917e-06
-4.43298e-06
-1.841e-06
-3.001e-06
-3.75469e-06
-2.45041e-07
5.47903e-07
-5.57274e-06
-4.70178e-07
1.02272e-05
6.90517e-06
-2.01046e-06
1.2509e-05
2.08723e-05
1.36251e-05
2.458e-05
4.76109e-05
5.74592e-05
5.46028e-05
4.03269e-05
0.000109913
0.000153313
0.000147386
0.000145557
0.000145976
0.000148322
0.000216048
0.000350868
0.000402225
0.000452801
0.000467586
0.000533541
0.000554336
0.000637166
0.000704126
0.00078314
0.000821544
0.000932569
0.000950831
0.000713456
0.000996695
-0.00133654
-0.00112376
-0.00901285
-0.186982
-0.589169
-0.492264
-0.408656
-0.363732
-0.333177
-0.293212
-0.263595
-0.22451
-0.182931
-0.15373
-0.0968267
-0.0700621
-0.0314404
-0.0217536
-0.0177292
-0.00441423
0.00231883
0.00430919
0.00159111
-0.000507499
-0.00521294
-0.0103062
-0.0200102
-0.026006
-0.0269668
-0.0238334
-0.0325433
-0.0335255
-0.02909
-0.0277383
-0.0221491
-0.0136846
-0.0161068
-0.0103999
0.0117451
0.037037
0.0828132
0.165951
0.274331
0.43226
0.601332
0.742945
0.828775
0.871895
0.880359
0.864115
0.812854
0.722098
0.620246
0.543726
0.487313
0.445249
0.410464
0.381734
0.358712
0.339726
0.326066
0.313617
0.304718
0.294199
0.283965
0.265305
0.244948
0.21076
0.183881
0.162263
0.161889
-6.21323e-06
-2.56553e-06
-3.23672e-06
-3.08923e-06
-2.46154e-06
-2.55366e-06
-2.33912e-06
-3.02092e-06
-4.63659e-06
-3.09114e-06
-2.41213e-06
-4.34484e-06
-9.17684e-07
2.42103e-06
-5.26512e-06
-5.41285e-06
1.05671e-05
1.13002e-05
-3.88035e-06
1.1513e-05
2.96865e-05
2.15955e-05
1.69419e-05
4.84759e-05
7.17526e-05
8.27569e-05
2.72569e-05
8.46901e-05
0.000162441
0.000180113
0.000198436
0.000177911
0.000152365
0.000168964
0.00027739
0.000421737
0.00045514
0.000449965
0.000474213
0.000491698
0.000487029
0.000477221
0.000383204
0.000312082
-0.000100609
-7.53482e-06
-0.000690229
-4.22025e-05
-0.00234487
0.00177184
-0.0175352
-0.499674
-0.722844
-0.586602
-0.456343
-0.380209
-0.347355
-0.313186
-0.274999
-0.238274
-0.189856
-0.151953
-0.0949288
-0.0724164
-0.0206597
-0.00838561
-0.0105879
-0.000649707
0.00251566
0.00394452
-0.000122194
-0.00425473
-0.00923502
-0.0149426
-0.0226142
-0.02668
-0.0265453
-0.0229569
-0.0265063
-0.0264938
-0.0192054
-0.0144635
-0.000570993
0.0211621
0.0512036
0.0829975
0.149885
0.233131
0.289237
0.371262
0.477869
0.588409
0.692775
0.794678
0.857747
0.884179
0.885008
0.868948
0.824333
0.742759
0.646588
0.570113
0.514483
0.473335
0.439175
0.411057
0.387806
0.368252
0.353414
0.339486
0.330072
0.31849
0.308567
0.29067
0.271076
0.235057
0.204755
0.180459
0.180029
-6.33358e-06
-2.87927e-06
-3.56209e-06
-2.92894e-06
-3.09583e-06
-2.4588e-06
-3.39927e-06
-3.42131e-06
-4.44762e-06
-3.5656e-06
-3.45921e-06
-3.62412e-06
-2.58757e-06
3.0532e-06
-2.984e-06
-9.20446e-06
8.10443e-06
1.35136e-05
-4.69163e-06
9.15288e-06
3.5507e-05
2.95166e-05
1.23254e-05
4.70652e-05
8.4864e-05
9.15186e-05
3.5657e-05
4.21064e-05
0.000152567
0.00020632
0.000235582
0.000227026
0.000168354
0.000123859
0.000163473
0.000340782
0.000427611
0.000445596
0.000405396
0.000375546
0.000307782
0.000277341
0.000161952
-2.35597e-05
-0.000374854
-0.000670922
-0.0017058
-0.00194649
-0.00460302
-0.00217192
-0.082223
-0.680258
-0.791055
-0.721464
-0.609282
-0.454761
-0.391036
-0.331161
-0.285643
-0.245841
-0.199922
-0.152384
-0.0998635
-0.0729085
-0.0113236
0.00123534
-0.00626965
0.000689895
0.00264659
0.00372328
-0.0016604
-0.00696701
-0.0109189
-0.0172742
-0.0233085
-0.023951
-0.0222176
-0.014034
-0.00997431
-0.00118534
0.0216245
0.0592806
0.100409
0.16693
0.243841
0.295104
0.345846
0.41531
0.478266
0.530715
0.592947
0.663098
0.739504
0.809213
0.856766
0.878504
0.879913
0.86339
0.823353
0.750247
0.661968
0.589139
0.536421
0.497133
0.464712
0.437841
0.415125
0.395813
0.380286
0.365339
0.355131
0.342493
0.33268
0.3149
0.296166
0.259858
0.227835
0.201285
0.201059
-6.80747e-06
-3.14134e-06
-3.80254e-06
-3.54016e-06
-3.50693e-06
-3.44841e-06
-4.1118e-06
-3.5861e-06
-4.76551e-06
-5.05368e-06
-2.6646e-06
-4.33565e-06
-5.87545e-06
3.68863e-06
6.54408e-07
-1.04385e-05
2.90232e-06
1.52736e-05
-2.05639e-07
5.92643e-06
3.76593e-05
3.64482e-05
1.74474e-05
4.3342e-05
9.34479e-05
9.34524e-05
5.7385e-05
2.38868e-05
0.000133168
0.000243541
0.000272907
0.000267872
0.000185863
0.000122276
9.7814e-05
0.000190378
0.000395201
0.000453791
0.00042455
0.00035913
0.00026963
0.000197399
0.000110808
-5.86789e-05
-0.000320521
-0.000612139
-0.00114642
-0.00179259
-0.00241807
-0.00413601
-0.262825
-0.753076
-0.803941
-0.773403
-0.713141
-0.59037
-0.476955
-0.370371
-0.320114
-0.26724
-0.219541
-0.162393
-0.106145
-0.0727226
-0.00961034
0.00744903
0.00043137
0.00354947
0.00400017
0.00410416
-0.00335655
-0.00849541
-0.00797279
-0.0134314
-0.0106956
-0.00581141
0.0098705
0.0370689
0.0737131
0.118945
0.185718
0.261846
0.3073
0.357415
0.422506
0.474837
0.508256
0.544124
0.577532
0.615491
0.656265
0.702592
0.755232
0.808258
0.848989
0.868567
0.870433
0.852669
0.814396
0.748788
0.669648
0.602
0.553169
0.51668
0.486897
0.461824
0.440563
0.422103
0.406077
0.390305
0.379217
0.365559
0.355681
0.338053
0.320633
0.285624
0.253089
0.22488
0.22459
-6.98185e-06
-3.28824e-06
-4.06907e-06
-3.57583e-06
-4.03299e-06
-4.47111e-06
-4.00364e-06
-4.20364e-06
-4.67157e-06
-5.61599e-06
-4.33213e-06
-3.72235e-06
-7.21831e-06
1.90118e-06
3.64647e-06
-8.98754e-06
-4.077e-06
1.47404e-05
5.33779e-06
3.60656e-06
3.33572e-05
3.98768e-05
2.18958e-05
3.92368e-05
9.18757e-05
9.49852e-05
7.01757e-05
3.18919e-05
8.34575e-05
0.000244962
0.000305092
0.000275805
0.000238391
0.000151557
8.01844e-05
8.19981e-05
0.000197383
0.000403768
0.000488737
0.000456961
0.000418117
0.000324026
0.000345162
0.000243107
0.000240435
0.000177401
0.000674194
0.000473397
0.00368058
-0.000854494
-0.434929
-0.810026
-0.820506
-0.804135
-0.771656
-0.712045
-0.604256
-0.474598
-0.379935
-0.298127
-0.242295
-0.172464
-0.107341
-0.0708629
-0.0111623
0.013478
0.00716897
0.00853524
0.00877681
0.0105267
0.00318309
0.00304666
0.015388
0.0279116
0.056852
0.0935602
0.154146
0.225795
0.282287
0.324788
0.373472
0.436871
0.483194
0.51557
0.54532
0.572802
0.591907
0.612925
0.634429
0.659261
0.688662
0.721795
0.760913
0.800656
0.833895
0.850811
0.851418
0.834425
0.800725
0.742825
0.672773
0.610285
0.565702
0.532479
0.505851
0.48319
0.464143
0.446901
0.43082
0.414587
0.402703
0.388273
0.378249
0.360508
0.344149
0.310489
0.279058
0.250204
0.250074
-7.42289e-06
-3.55866e-06
-4.26797e-06
-4.09247e-06
-4.87765e-06
-4.51017e-06
-5.07793e-06
-4.44038e-06
-5.42655e-06
-7.58697e-06
-4.62063e-06
-3.33185e-06
-6.41918e-06
-2.53701e-06
4.64811e-06
-4.87206e-06
-8.67768e-06
1.01791e-05
1.11318e-05
6.01761e-06
2.67991e-05
4.52994e-05
3.39083e-05
3.89569e-05
7.83595e-05
9.84024e-05
8.19337e-05
4.94292e-05
7.9575e-05
0.000206948
0.000322892
0.000310723
0.000247725
0.000212338
0.000140921
6.00355e-05
8.50216e-05
0.00018667
0.000410748
0.000506389
0.000503846
0.000393816
0.000361996
0.000201814
0.000248825
1.16344e-05
0.000316891
-0.000790235
0.00291201
-0.0294048
-0.621054
-0.837923
-0.833132
-0.825024
-0.808048
-0.777817
-0.721991
-0.611602
-0.483558
-0.367718
-0.26276
-0.178353
-0.0895523
-0.0521683
-0.0062389
0.0220862
0.0160779
0.0220306
0.0299775
0.0412344
0.0600627
0.0766033
0.13255
0.201177
0.257249
0.29879
0.34486
0.405575
0.458725
0.491046
0.518042
0.547027
0.571288
0.591343
0.6122
0.628084
0.637997
0.651165
0.665707
0.683579
0.70549
0.730699
0.760947
0.791457
0.818185
0.832096
0.831891
0.816062
0.785165
0.734426
0.67281
0.615525
0.575011
0.545251
0.521876
0.501922
0.485583
0.469938
0.454695
0.438266
0.425574
0.41048
0.399979
0.381957
0.366511
0.334705
0.305491
0.276867
0.27694
-7.62056e-06
-3.79969e-06
-4.50989e-06
-4.35222e-06
-5.76708e-06
-4.93063e-06
-4.71299e-06
-5.9571e-06
-5.93648e-06
-7.46769e-06
-5.328e-06
-3.08088e-06
-6.14938e-06
-6.33494e-06
2.73023e-06
-7.80547e-07
-9.81472e-06
4.01109e-06
1.42665e-05
7.93785e-06
1.83834e-05
4.47325e-05
4.55878e-05
3.67898e-05
6.21298e-05
8.83351e-05
0.000103338
7.71101e-05
7.79462e-05
0.000135988
0.000266615
0.000319749
0.000294924
0.000250705
0.000210668
0.000163829
7.66724e-05
7.16332e-05
0.000211142
0.000369516
0.000615514
0.000642507
0.000531662
0.000397362
0.000276288
5.38113e-05
-0.000153162
-0.000928286
-0.000607328
-0.161112
-0.734618
-0.846778
-0.842319
-0.841205
-0.831806
-0.816172
-0.785671
-0.726427
-0.633874
-0.484305
-0.316601
-0.154024
-0.0702338
-0.0116746
0.00612467
0.046212
0.0677729
0.0868973
0.128898
0.183967
0.246352
0.273766
0.315452
0.368457
0.427988
0.468748
0.497794
0.526651
0.551932
0.574005
0.592363
0.609972
0.620664
0.635454
0.647008
0.657187
0.663833
0.67364
0.684351
0.697811
0.714722
0.734461
0.758054
0.78156
0.8016
0.811779
0.809737
0.795045
0.767578
0.724346
0.670517
0.618594
0.582049
0.555726
0.535547
0.518478
0.504975
0.491088
0.47728
0.461306
0.447775
0.432157
0.420978
0.402671
0.388113
0.358054
0.331615
0.303995
0.304469
-8.01785e-06
-4.26164e-06
-4.88122e-06
-4.55315e-06
-5.87771e-06
-5.56981e-06
-5.89603e-06
-7.25105e-06
-5.63677e-06
-6.82761e-06
-7.95124e-06
-3.39665e-06
-5.18993e-06
-8.76171e-06
-2.22071e-06
1.64839e-06
-8.33346e-06
-2.1094e-06
1.64305e-05
1.109e-05
1.05518e-05
4.19996e-05
5.7653e-05
3.88726e-05
4.73165e-05
8.51312e-05
0.000107762
0.000106946
9.51137e-05
0.00010838
0.000189701
0.000293385
0.000302427
0.000302997
0.000273494
0.000239025
0.000195828
0.000159597
9.90053e-05
0.000266012
0.000374071
0.000668127
0.000691014
0.000834734
0.00083073
0.00112444
0.00108785
0.00248049
-9.67812e-05
-0.350412
-0.815129
-0.850855
-0.848403
-0.850654
-0.847664
-0.840879
-0.82173
-0.792974
-0.75017
-0.629394
-0.355647
-0.142281
-0.0508473
0.0522324
0.100643
0.170432
0.244805
0.269066
0.303383
0.345912
0.402665
0.443077
0.470699
0.502056
0.528885
0.554676
0.573114
0.591957
0.605573
0.615284
0.628456
0.639363
0.646658
0.657665
0.665568
0.674763
0.680364
0.688693
0.697335
0.707669
0.720452
0.735582
0.754163
0.771492
0.785125
0.791604
0.788241
0.775054
0.751352
0.715058
0.667633
0.620733
0.587533
0.564507
0.547297
0.533111
0.522382
0.510508
0.498319
0.483315
0.46934
0.453338
0.441369
0.42279
0.408992
0.3807
0.357418
0.33116
0.332077
-8.26812e-06
-4.46273e-06
-5.11077e-06
-4.78301e-06
-6.463e-06
-6.63681e-06
-6.42058e-06
-6.95292e-06
-7.46131e-06
-6.58964e-06
-7.82511e-06
-5.45654e-06
-4.75221e-06
-1.02194e-05
-7.39887e-06
1.7786e-06
-5.09556e-06
-5.46838e-06
1.23353e-05
1.0528e-05
8.58746e-06
3.68322e-05
5.80599e-05
4.04722e-05
3.73837e-05
7.47666e-05
0.000117486
0.000144395
9.45859e-05
8.00434e-05
0.00010519
0.000224666
0.000297832
0.000327657
0.000320985
0.000320514
0.000274425
0.000245866
0.000222687
0.000238457
0.000281573
0.0005823
0.000695042
0.00111397
0.000985956
0.00166887
0.0011294
0.00483212
-0.0149463
-0.563548
-0.848563
-0.856393
-0.85514
-0.85766
-0.859613
-0.858397
-0.845741
-0.82936
-0.806675
-0.691862
-0.411006
-0.0787524
0.10732
0.204854
0.273785
0.323407
0.384739
0.429938
0.457499
0.482177
0.507734
0.528946
0.550774
0.571133
0.588466
0.600134
0.613719
0.62705
0.636337
0.64271
0.651211
0.658861
0.665737
0.673913
0.679648
0.687238
0.692081
0.698857
0.705968
0.7134
0.722829
0.734615
0.748688
0.760941
0.770094
0.774045
0.769724
0.757763
0.737292
0.7063
0.664388
0.62253
0.591996
0.571975
0.557404
0.545976
0.537994
0.528376
0.517867
0.503817
0.490136
0.474074
0.461277
0.442453
0.429045
0.402471
0.382669
0.357935
0.359224
-8.63622e-06
-4.74093e-06
-5.63716e-06
-5.46557e-06
-6.22046e-06
-6.82617e-06
-8.04331e-06
-8.06033e-06
-7.63704e-06
-6.18471e-06
-9.98733e-06
-7.28189e-06
-6.33849e-06
-9.86646e-06
-1.12036e-05
-1.16491e-06
-2.2797e-06
-3.66663e-06
6.28622e-06
6.98691e-06
7.68507e-06
3.2634e-05
5.08328e-05
4.05525e-05
3.07138e-05
7.5275e-05
0.000118503
0.000154835
0.000116412
7.87267e-05
8.41697e-05
0.000159471
0.000234987
0.000305375
0.000319538
0.000341804
0.000347346
0.000349503
0.000291532
0.000298254
0.000265282
0.000325219
0.000256181
0.000351383
0.000182393
0.000102446
-0.00110542
-0.000763467
-0.124013
-0.723319
-0.861804
-0.860653
-0.861538
-0.861528
-0.862593
-0.86334
-0.852842
-0.831604
-0.798003
-0.623358
-0.25496
0.0953131
0.264634
0.366394
0.42474
0.467461
0.500709
0.523447
0.546633
0.566347
0.583654
0.595191
0.605618
0.619669
0.629673
0.636943
0.645229
0.652978
0.657846
0.662222
0.666484
0.671838
0.678138
0.682174
0.686687
0.693606
0.698432
0.704257
0.71082
0.716928
0.724528
0.733261
0.742473
0.750431
0.756695
0.759388
0.754833
0.743501
0.725331
0.698476
0.661336
0.62426
0.596043
0.578268
0.566091
0.557378
0.552036
0.544644
0.535791
0.523046
0.509998
0.494118
0.480761
0.461661
0.448378
0.423621
0.407393
0.384309
0.385648
-8.93926e-06
-4.96364e-06
-6.00004e-06
-6.24239e-06
-6.32902e-06
-7.7185e-06
-8.09907e-06
-7.67308e-06
-1.04345e-05
-6.63054e-06
-7.84207e-06
-1.02645e-05
-9.88155e-06
-8.56116e-06
-1.06161e-05
-9.03228e-06
-3.681e-06
7.2296e-07
3.5522e-06
9.91326e-07
6.90506e-06
3.029e-05
4.2467e-05
2.98899e-05
3.06866e-05
6.60637e-05
0.000114608
0.000146686
0.000122223
7.28144e-05
7.76603e-05
0.000134512
0.00019114
0.00023282
0.000258544
0.000315903
0.000326794
0.000366211
0.000394489
0.000377202
0.000360972
0.000241907
0.000238012
0.000240816
0.000466647
0.000308316
0.00114163
-0.00164484
-0.334806
-0.813791
-0.860281
-0.860016
-0.861748
-0.860937
-0.861777
-0.863421
-0.851498
-0.79793
-0.69193
-0.369923
0.0168003
0.263658
0.391728
0.463299
0.508405
0.539316
0.565689
0.586211
0.601582
0.61667
0.628128
0.640306
0.644254
0.651375
0.657028
0.661854
0.665725
0.667933
0.668978
0.673274
0.674535
0.678992
0.68483
0.688603
0.693161
0.700035
0.705428
0.709982
0.715555
0.71927
0.724259
0.730434
0.736898
0.742187
0.745737
0.747518
0.743405
0.732649
0.715832
0.691477
0.658625
0.625584
0.599838
0.583985
0.573822
0.567598
0.564654
0.559366
0.552254
0.541046
0.528751
0.513408
0.499791
0.480497
0.467309
0.444225
0.431102
0.409733
0.410989
-9.30698e-06
-5.35977e-06
-6.46388e-06
-6.57018e-06
-7.05182e-06
-7.9923e-06
-9.74987e-06
-8.02891e-06
-9.87689e-06
-9.4595e-06
-7.24211e-06
-1.35473e-05
-1.34692e-05
-7.68058e-06
-7.53481e-06
-1.50739e-05
-1.07963e-05
3.29585e-06
2.18951e-06
-4.64574e-06
2.69788e-06
2.54425e-05
3.53382e-05
2.7513e-05
2.82729e-05
6.40515e-05
0.00010957
0.000124093
0.00011004
8.95786e-05
9.94403e-05
0.000134805
0.000160744
0.000211824
0.000189011
0.00021624
0.000248356
0.000354245
0.000506745
0.000508824
0.000520922
0.000352072
0.000447745
0.000216266
0.000773075
0.000198039
0.00386368
-0.0197922
-0.56453
-0.849094
-0.859726
-0.860886
-0.862888
-0.862139
-0.857727
-0.856143
-0.829615
-0.702667
-0.424745
-0.0381636
0.239999
0.393457
0.481215
0.533846
0.566334
0.58824
0.605586
0.620394
0.632224
0.644071
0.653625
0.663733
0.669224
0.675851
0.677196
0.681014
0.682715
0.682699
0.685665
0.688613
0.689557
0.691651
0.695086
0.696513
0.698863
0.704106
0.709044
0.712871
0.718178
0.722661
0.72669
0.730896
0.734548
0.736652
0.738495
0.738971
0.734541
0.724274
0.708093
0.685496
0.656184
0.626665
0.603572
0.589359
0.580898
0.576841
0.575992
0.572724
0.567468
0.55786
0.546535
0.53201
0.518386
0.499095
0.48597
0.464206
0.453684
0.434031
0.435184
-9.62909e-06
-5.65042e-06
-6.64074e-06
-7.25637e-06
-7.96739e-06
-8.55552e-06
-9.26838e-06
-8.33935e-06
-1.20183e-05
-1.08362e-05
-6.99155e-06
-1.40904e-05
-1.95742e-05
-7.30773e-06
-5.14618e-06
-1.78644e-05
-2.02456e-05
6.35749e-07
2.47513e-06
-5.1415e-06
-2.25364e-06
1.35869e-05
2.71742e-05
2.18916e-05
3.01176e-05
5.86513e-05
8.88064e-05
0.000102001
8.91483e-05
7.58152e-05
0.000113278
0.000153872
0.000152461
0.000173583
0.000162034
0.000147065
0.000198808
0.00032755
0.000407644
0.00040363
0.00021363
6.17066e-05
-0.000103667
-0.000439008
-0.000647629
-0.00176776
-0.00225079
-0.150454
-0.736572
-0.860706
-0.860718
-0.86168
-0.863587
-0.861404
-0.846205
-0.821782
-0.72725
-0.46123
-0.0767268
0.217039
0.384551
0.484288
0.542699
0.577999
0.600982
0.617824
0.631102
0.642339
0.652111
0.661471
0.670417
0.679953
0.687433
0.694969
0.697423
0.701952
0.701662
0.703887
0.702434
0.703183
0.701982
0.701437
0.702374
0.705215
0.708487
0.713715
0.71809
0.720702
0.724439
0.72608
0.727413
0.729978
0.733132
0.734929
0.735321
0.733829
0.728654
0.718172
0.701938
0.680564
0.654251
0.627905
0.607368
0.594636
0.587527
0.585341
0.586293
0.584846
0.581537
0.573566
0.563342
0.549846
0.536521
0.517489
0.504251
0.483544
0.475102
0.457001
0.45791
-1.00133e-05
-5.90018e-06
-7.32433e-06
-7.93091e-06
-8.0253e-06
-8.73007e-06
-1.10684e-05
-8.31723e-06
-1.21384e-05
-1.38783e-05
-9.97217e-06
-1.3614e-05
-2.18001e-05
-1.17065e-05
-7.17001e-06
-2.00088e-05
-2.10084e-05
-9.23681e-06
-1.5099e-06
-1.57478e-06
-6.38234e-06
-1.00083e-06
1.64043e-05
2.34859e-05
2.6557e-05
4.85203e-05
6.89759e-05
8.60985e-05
7.18358e-05
7.44993e-05
0.000107032
0.000159576
0.00015879
0.000148052
0.000113341
0.000135482
0.000153785
0.000225712
0.000245507
0.000327918
0.000217086
0.000311311
0.000246912
0.000603637
0.000350209
0.00181754
-0.00418502
-0.388412
-0.823085
-0.858364
-0.85829
-0.858916
-0.858559
-0.854642
-0.82018
-0.741478
-0.487583
-0.105754
0.200079
0.377283
0.48255
0.546365
0.586375
0.611081
0.627872
0.640714
0.650376
0.658704
0.665927
0.673599
0.681671
0.690386
0.699347
0.707994
0.712635
0.718436
0.71967
0.721774
0.723707
0.722596
0.720423
0.719165
0.719187
0.721045
0.721792
0.722208
0.723407
0.725593
0.728653