/*--------------------------------*- C++ -*----------------------------------*\
| =========                 |                                                 |
| \\      /  F ield         | OpenFOAM: The Open Source CFD Toolbox           |
|  \\    /   O peration     | Version:  2.2.x                                 |
|   \\  /    A nd           | Web:      www.OpenFOAM.org                      |
|    \\/     M anipulation  |                                                 |
\*---------------------------------------------------------------------------*/
FoamFile
{
    version     2.0;
    format      ascii;
    class       volScalarField;
    location    "1";
    object      divBf;
}
// * * * * * * * * * * * * * * * * * * * * * * * * * * * * * * * * * * * * * //

dimensions      [1 -3 -2 0 0 -1 0];

internalField   nonuniform List<scalar> 
14161
(
574.221
330.753
329.488
282.306
250.279
215.352
183.837
153.912
126.817
101.205
76.0588
52.0981
28.8736
8.78442
-11.6337
-32.5962
-54.497
-68.0213
-89.7095
-112.136
-127.051
-136.498
-165.331
-200.68
-183.239
-219.294
-237.624
-243.123
-261.511
-280.653
-265.956
-281.973
-283.046
-267.327
-237.625
-218.539
-157.055
-124.451
5.06855
70.9251
187.957
508.009
565.145
1184.33
1477.46
-26471.8
-27390.1
-28039.5
-29001.2
-27508.3
-35162.5
-11491.3
-35662.5
-36069.8
-38682.2
-39143.5
-35057.4
-34301.3
-31850.7
-32830.9
-30652.4
-28870.9
-26422.8
-24359.2
-22324.2
-19965.7
-17238.5
-14931.1
-12828.8
-10604.3
-8883.89
-7040.96
-5489.21
-4114.24
-2788.93
-829.364
55.7002
1880.48
2807.52
5208.51
7004.63
8179.11
9205.23
10184.4
10516
12640.6
12861.8
13729.9
14079.3
14637.3
13037
14691
14218.8
16099.3
14210.5
13774.6
10906.9
14943.1
9313.71
13162
-3792.6
-7448.73
-8929.57
-10516.8
-10884.3
-11520.4
-11521.9
-11812.7
-11302
-11323.9
-9913.16
-9763.65
-7321.45
-7362.84
-3073.63
-3902.2
5005.42
-5177.4
19132.8
326.242
84.2095
83.6537
35.9262
1.98732
-34.8188
-68.0092
-101.502
-133.906
-164.842
-195.171
-224.732
-255.162
-283.578
-311.848
-342.069
-374.061
-399.753
-430.68
-465.443
-495.729
-523.075
-558.891
-603.259
-622.551
-665.201
-700.48
-736.627
-771.943
-799.716
-820.881
-856.688
-882.755
-895.209
-894.543
-905.714
-860.04
-830.18
-798.104
-719.038
-584.542
-466.014
-163.434
94.0508
616.933
-22908.8
-23819.7
-24051.6
-24867.3
-24235.9
-25906.5
-27250.6
-28020.1
-22848.3
-26363
-30321.5
-31966.1
-32329.3
-30198.6
-31027.6
-28952.4
-26988.4
-24463.7
-21610.8
-19464.1
-17500.8
-14386.5
-12370.2
-10420.6
-8670.06
-6924.41
-5322.99
-3578.62
-1937.61
-457.77
1234.1
2591.19
4327.66
4920.29
6955.64
7992.42
9849.98
10851.9
12238.2
12181.2
14004.2
14617.2
14853.3
15488.3
15835.7
14887.1
15504.5
16764.4
16637.3
16441
15457.7
14012
13979.7
1563.85
-11079.9
-13465.9
-13252.2
-12322.9
-12154.2
-12430.5
-13031.7
-13270.9
-13642.5
-13211.8
-13141.6
-11674.6
-11427.1
-9096.67
-8946.78
-5200.44
-7465.11
897.309
-6269.26
11072.1
82.1966
-155.78
-154.849
-201.431
-235.234
-272.824
-307.388
-342.664
-377.209
-411.841
-446.697
-480.197
-515.122
-549.963
-584.98
-621.658
-660.049
-696.254
-735.418
-779.561
-820.006
-860.737
-909.296
-958.693
-1005.48
-1048.61
-1101.93
-1156.18
-1213.89
-1246.34
-1296.35
-1349.31
-1393.52
-1427.76
-1440.99
-1467.3
-1452.1
-1469.75
-1438.33
-1347.57
-1276.1
-1155.38
-866.954
-622.427
-188.206
-19975.6
-20719.3
-21186.3
-21628.6
-21736.7
-20380.3
-42086.2
-20394.3
-30835
-29661
-32677.6
-29448.3
-28177
-25866.2
-24494.3
-22376.4
-20088.4
-19169
-17172.8
-15095.8
-13502.8
-12103.1
-10254.1
-8332.55
-6195.39
-4541.47
-3259.61
-1639
-354.632
747.73
2482.62
3847.92
5245.87
6080.95
8266.9
9226.4
11068.2
11642.6
12990
13156.4
15295.9
15535.5
15657
16558.1
16915.3
15073.3
18055.7
16975.2
17691.4
15910.3
16201.6
18104
16423.4
13031.5
3346.75
-1562.45
-3423.04
-4255.1
-5592.47
-6264.43
-7022.18
-7280.48
-7654.69
-7397.94
-7601.29
-6540.19
-6701.17
-4695.72
-5092.65
-1510.4
-3799.84
2215.22
-4156.4
9519.06
-155.89
-388.206
-384.45
-428.697
-461.069
-497.992
-532.765
-568.613
-604.316
-640.726
-677.934
-714.812
-753.375
-792.103
-832.049
-874.259
-918.527
-961.635
-1007.51
-1056.77
-1107.81
-1156.57
-1216.32
-1271.04
-1339.88
-1379.51
-1448.01
-1522.3
-1597.76
-1623.14
-1715.04
-1762.65
-1826.73
-1881.39
-1905.37
-1948.52
-1957.47
-1974.46
-1937.53
-1875.77
-1837.92
-1656.6
-1507.79
-1137.81
-818.282
-17345.7
-18008.3
-17959.3
-18324.4
-17860.3
-16808
-21752.9
-23524.6
-14754.6
-25163.4
-28076.4
-32190.9
-33580
-33270.1
-32881.5
-29888
-26248.9
-22454.2
-18030.1
-15273.6
-12454.5
-9067.69
-7523.73
-5714.8
-3859.37
-2276.47
-933.343
432.964
1840.4
2729.53
4314.09
5839.85
7079.96
7512.11
9449.69
10272.6
12044.2
12768.6
14204.9
13982.4
15816.8
16112.3
16752.4
16860.4
16870.2
15686.9
16759.3
17886.7
17977.9
19029.6
23900.6
30199.5
13464.3
7445.1
3783.21
-1064.81
-1521.4
-2695.63
-3912.52
-4753.02
-5744.94
-6156.83
-6761.83
-6562.46
-6806.9
-5732.3
-5885.61
-3903.43
-4365.44
-1269.48
-3376.21
988.246
-2895.39
6900.68
-386.694
-611.838
-604.075
-644.909
-674.996
-710.014
-743.593
-779.242
-815.061
-852.135
-890.626
-929.292
-970.203
-1011.93
-1055.58
-1101.38
-1149.19
-1198.97
-1249.08
-1304.35
-1363.51
-1418.35
-1487.42
-1545.99
-1624.97
-1677.2
-1754.71
-1847.29
-1913.96
-1949.28
-2070.15
-2123.13
-2202.75
-2255.88
-2303.27
-2349.81
-2377.33
-2385.47
-2381.29
-2337.29
-2263.13
-2122.33
-1957.51
-1708.82
-1346.89
-15298.5
-15726.1
-16285.4
-17664
-15617.1
-22436.5
-10014.9
-27685.4
-37233.3
-35414
-37825.2
-36503.7
-31498.5
-30658.5
-26284.3
-24716.3
-19523.3
-17909.3
-14241
-10660.4
-8626.89
-6590.09
-5055.09
-2983.72
-1024.94
554.72
1506.32
2582.68
3676.28
4319.04
5748.91
7310.34
8008.09
8408.89
10262.7
11060.3
13230.5
13768.5
15128.9
14567.2
16273.6
16662.8
17920.7
16121.1
17529.2
17269.6
19338.6
21558.2
22732.6
34970.6
44174.2
30636.2
17389.1
9981.69
3766.08
1648.21
1615.07
-99.689
-1295.47
-2308.6
-3363.23
-3730.56
-4376.96
-4194.33
-4484.13
-3485.05
-3775.14
-1925.9
-2678.29
-204.975
-2261.02
1197.69
-1643.33
5864.43
-608.872
-825.421
-812.836
-849.257
-876.339
-908.303
-939.898
-974.396
-1009.66
-1046.38
-1085.21
-1124.8
-1166.89
-1210.63
-1257
-1304.62
-1355.4
-1410.85
-1464.92
-1524.57
-1587.43
-1650.6
-1722.5
-1788.54
-1866.63
-1947.17
-2017.52
-2114.25
-2186.26
-2258.53
-2356.8
-2439.71
-2514.32
-2581.28
-2640.68
-2686.77
-2719.52
-2738.27
-2720.5
-2683.36
-2594.59
-2452.07
-2259.26
-1976.18
-1602.45
-12902.7
-13393.8
-13915.8
-14338.1
-13488.6
-19282.1
20950.3
-26502.8
-44830.9
-44334.5
-45974.6
-44409.5
-39116.2
-35219.4
-29044.7
-22999.9
-20618.2
-16841.8
-12464.1
-9813.13
-7798.64
-6467.7
-1845.85
-2008.7
76.0941
1578.95
3041.32
3867.53
5429.87
6184.18
6836.08
8613.47
10509.5
10009.5
11510.7
12284.3
14549.1
14886.1
17118.3
16574.8
17399.7
16138
19438.5
19753.2
20795
20918.5
21762.2
22052.6
36781.9
54651.3
42002.5
29817.4
19295.1
12618.3
7757.53
4848.15
3006.09
1326.42
3.98919
-1030.79
-2085.81
-2525.98
-3255.89
-3148.92
-3685.48
-2894.19
-3311.38
-1699.29
-2491.77
-416.349
-2008.26
967.216
-1419.21
5289.4
-821.114
-1027.79
-1010.13
-1041.45
-1063.89
-1092.65
-1122.23
-1154.34
-1187.9
-1224.06
-1262.69
-1302.23
-1344.56
-1389.86
-1438.19
-1486.23
-1540.46
-1599.18
-1655.94
-1718.2
-1783.66
-1856.54
-1928.36
-2000.02
-2081.03
-2177.48
-2248.5
-2339.57
-2432.47
-2517.84
-2609.23
-2707.07
-2780.78
-2864.64
-2924.75
-2977.21
-3025.05
-3037.01
-3027.26
-2974.45
-2897.63
-2761.16
-2613.04
-2320.22
-1966.36
-10954.8
-11535.1
-11657.5
-12091
-11069.9
-16003.5
25140.8
-36695.2
-70861.7
-58684.7
-50052.4
-35712
-31087.3
-27702.3
-23831.8
-19548.1
-15661.5
-14104.5
-7538.25
-7956.02
-4850.13
-3110.44
-2023.31
1335.76
1272.04
2514.61
4133.02
4803.11
6177.06
7356.17
8174.31
9096.47
12364.8
12108.8
13059.1
13434.8
16097.1
15641.4
16881.2
18256.1
19015.8
20168.2
21959.2
20206.2
21304.1
20841.6
24938.5
37512
60469.3
54778.5
34733.2
24621.3
14354.4
11619.1
9210.92
6514.06
4917.95
3108.2
1739.19
560.965
-502.824
-1028.83
-1884.11
-1908.72
-2576.65
-2004.06
-2832.13
-1406.95
-2634.08
-522.61
-2053.51
897.089
-1431.71
5174.17
-1022.2
-1218.31
-1194.96
-1220.38
-1237.76
-1262.89
-1289.8
-1319.47
-1350.97
-1385.51
-1423.07
-1462.67
-1504.75
-1550.64
-1599.73
-1648.47
-1704.6
-1764.81
-1825.35
-1888.57
-1957.18
-2036.83
-2107.13
-2186.19
-2270.72
-2367.34
-2458.14
-2538.45
-2637.31
-2741.13
-2830.54
-2937
-3019.03
-3096.53
-3163.76
-3218.43
-3256.66
-3273.95
-3261.96
-3191.15
-3064.14
-2905.29
-2689.84
-2397.45
-1854.17
-8951.5
-9174.68
-10058.6
-10285.9
-11657.7
-13741
-12729.7
-62558.5
-74013.9
-57416.8
-41095.6
-33531
-26231.7
-22111.2
-19182.8
-14142.8
-12973.3
-6325.8
-1675.39
-2757.54
-385.25
-276.788
289.167
2561.55
3711.02
4326.72
5296.79
6300.75
7344.95
8094.8
9367.53
9567.58
12783.7
13663.8
14176.2
15250.2
16674.9
18098.9
20568.2
20620
21455
21719.5
20887.2
23556.7
25481.7
31285.6
43759
62033
63781.6
38014.9
21560.6
19620.6
10629.3
14787.2
9188.51
8114.83
5671.31
4036.62
2560.92
1388.63
309.41
-354.003
-1266.96
-1464.81
-2385.27
-2056.8
-2764.89
-1771.51
-2591.47
-625.017
-2038.23
995.818
-1549.71
5500.67
-1211.05
-1396.03
-1366.4
-1385.73
-1398.62
-1419.76
-1442.24
-1469.44
-1498.54
-1531.47
-1567.07
-1606.31
-1648.5
-1693.66
-1742.64
-1793.55
-1850.13
-1909.94
-1974.41
-2038.49
-2108.67
-2193.67
-2264.57
-2348.24
-2435.61
-2534.08
-2636.47
-2709.99
-2821.28
-2924.2
-3016.57
-3120.63
-3230.9
-3304.98
-3376.06
-3431.17
-3476.58
-3493.5
-3473.38
-3445.68
-3310.66
-3170.99
-2962.34
-2694.08
-2313.62
-7735.82
-7707.55
-7350.02
-6323.68
-7625.04
6586.06
-80366.1
-145509
-55058.1
-9115.43
-7261.18
-8538.61
-12505.6
-6310.97
-9379.32
-6384.9
-8179.12
681.917
-7736.68
5969.29
1347.91
138.828
4148.82
3316.81
4641.75
5445.31
6927.29
8257.64
9037.1
10035.3
10238.5
11581.9
13966.1
15336.8
16877.5
17917.5
19121.7
20393.8
21876.2
21246.3
22668.5
26919.7
28897.5
32389.6
38326.8
52955.3
73832.8
60477.6
35147.3
24352.3
15143.4
10331.1
8885.11
11381.2
8149.92
8653.25
5453.69
4514.95
2960.7
1977.89
876.955
167.308
-778.998
-1040.33
-1990.19
-1655.15
-2559.1
-1489.87
-2291.46
-503.138
-2078.19
1010.91
-1723.07
5803.27
-1386.77
-1560.05
-1523.97
-1537.33
-1545.71
-1561.99
-1580.85
-1604.38
-1631.32
-1662.03
-1696.74
-1734.9
-1775.51
-1820.38
-1869.89
-1921.59
-1975.6
-2037.32
-2105.29
-2169.15
-2242.71
-2326.58
-2402.97
-2487.57
-2577.55
-2671
-2790.33
-2862.74
-2973.17
-3079.47
-3181.59
-3286.64
-3393.85
-3486.72
-3561.04
-3606.42
-3653.96
-3681.21
-3662.99
-3588.71
-3510.9
-3262.29
-3081.26
-2613.39
-2321.7
-5239.89
-5383.3
-5076.89
-4747.37
-6308.87
-5047.9
-183216
-114000
-13968
-10823.3
-1934.52
-5586.92
-6978.81
-4258.79
-5746.59
-6387.91
-1368.01
1645.16
-3185.59
5303.54
7188.02
4671
5698.66
5725.97
6075.78
7043.48
7632.02
8789.69
9724.1
11201.6
13285.9
14124.4
15736.8
16603.9
18070.5
18642.7
19985.5
22836
26942.9
30517.7
32503.4
38365.2
47546.5
56975.4
67300.4
74050
51130.7
34919.3
20495.1
11542.1
6404.72
6022.63
5774.64
6340.08
6409.56
6767.64
5207.77
4501.91
3153.11
2297.68
1284.9
608.524
-325.979
-631.175
-1596.16
-1395.21
-2446.45
-1443.68
-2330.67
-663.538
-2364.37
1041.04
-2023.39
6499.26
-1548.53
-1709.85
-1667.79
-1675.07
-1678.13
-1690
-1704.95
-1725.58
-1749.92
-1778.74
-1810.88
-1847.94
-1887.71
-1931.89
-1981.1
-2033.02
-2086.13
-2148.88
-2217.19
-2283.05
-2357.8
-2438.34
-2524.21
-2605.86
-2698.51
-2798.72
-2905.59
-3002.71
-3102.65
-3214.13
-3320.79
-3428.61
-3531.17
-3638.84
-3724.37
-3772.25
-3825.22
-3842.56
-3858.1
-3797.22
-3732.91
-3569.89
-3334.43
-3082.24
-2547.47
-5000.58
-5024.76
-5399.66
-5127.21
-4786.38
-11449.6
-150477
-57719.7
-71696.9
-47075
-19848.5
-15575.1
-12630.8
-7252.88
-6075.02
-2333.3
21.7811
719.126
1122.7
7742.27
9689.66
6850.03
6322.62
6411.26
7101.4
7622.02
8008.25
9859.28
10817.1
12872.8
14523.6
15774.8
17298.4
20784.6
22479.4
25513.1
29835
33825.3
40209.7
52127.9
58082
65380.5
73956
66900
52549
39113.9
28735.7
16714.5
8919.44
5136.35
3501.42
2241.63
2647.08
3420.33
4740.91
5182.86
4639.06
4277.13
3172.55
2558.65
1572.75
934.176
21.8889
-300.077
-1279.62
-1162.09
-2290.14
-1386.85
-2245.38
-614.567
-2292.72
1074.14
-2239.26
6980.98
-1695.48
-1845.04
-1797.26
-1798.41
-1796.41
-1803.9
-1815.16
-1832.75
-1854.71
-1881.04
-1911.22
-1946.45
-1985.67
-2028.49
-2076.84
-2129.29
-2182.46
-2244.5
-2312.58
-2381.04
-2454.88
-2535.61
-2623.89
-2708.21
-2801.99
-2905.98
-2998.68
-3125.4
-3212.54
-3323.55
-3438.67
-3545.58
-3656.64
-3754.05
-3870.78
-3936.75
-3961.34
-3998.01
-4003.96
-3988.86
-3874.83
-3757.66
-3513.4
-3230.51
-2738.53
-3594.41
-3545.97
-2941.5
-3557.71
664.838
-65157.3
-56402.9
-16631.9
-36268.3
-75532.6
-50884.5
-29573
-9983.98
-10574
-5249.19
-8147.95
336.22
-2689.3
3109.66
4987.96
8393.06
7628.14
6749.67
7821.41
8669.61
9859.77
10308.7
12341.8
12996.3
14822.7
17899.8
20625.8
24498.4
30416.4
35949.9
44268
55456.8
62004
70942.8
77037.4
74365.9
58318.4
44222.2
38141.5
31173.4
21888.6
13221.6
7368.91
2207.18
-324.243
266.723
313.271
851.777
905.217
2677.66
3344.31
3815.02
3619.12
3004.82
2578.85
1750.14
1225.63
384.951
37.9177
-912.403
-871.354
-2049.2
-1194.45
-2116.87
-688.678
-2391.71
931.97
-2529.04
7633.12
-1827.13
-1965.22
-1911.92
-1907.33
-1900.49
-1903.72
-1911.98
-1926.49
-1945.4
-1969.87
-1997.78
-2031.69
-2069.71
-2111.38
-2159.04
-2211.06
-2265.79
-2325.48
-2391.98
-2464.38
-2537.2
-2617.74
-2704.99
-2795.24
-2888.39
-2989.46
-3085.93
-3209.72
-3311.43
-3418.64
-3532.26
-3649.5
-3754.64
-3854.35
-3963.49
-4067.54
-4123.8
-4145.06
-4150.09
-4153.14
-4109.45
-4046.14
-3878.72
-3659.28
-3357.46
-3212.66
-3296.45
-3268.18
-4483.56
-1443.91
-120133
-34507.4
-10122.8
-18443.1
-35456.3
-67418.1
-53375
-28035.3
-23163.7
-11247.3
-9625.56
-2234.26
2721.29
5196.96
5113.58
8955.01
10044
9226.43
9351.12
10684.1
10385.2
12581.5
16512.5
19357.5
25938.5
30596.9
40213.4
49337
61490.7
71697.3
79519.1
83777
74599.2
59988.6
45066.7
39895.6
34013.9
26776.2
19752.3
15951.3
11275.9
6700.69
1581.71
-784.58
-2932.39
-1738.12
-2235.77
-997.63
-717.325
1244.48
2212.02
3006.64
3154
2834.69
2569.59
1873.1
1446.82
669.811
367.994
-576.403
-635.945
-1797.09
-1062.12
-2051.81
-816.496
-2138.05
794.297
-2622.69
7974.75
-1943.01
-2070.02
-2011.75
-2001.84
-1990.65
-1990.23
-1995.11
-2006.72
-2022.92
-2045.52
-2071.6
-2104.09
-2140.71
-2181.58
-2227.9
-2279.98
-2334.59
-2392.2
-2458.57
-2532.81
-2604.95
-2684.68
-2772.11
-2865.44
-2958.63
-3056.8
-3163.41
-3270.87
-3396.95
-3494.14
-3607.06
-3730.41
-3838.69
-3941.67
-4047.43
-4171.05
-4252.42
-4296.47
-4300.7
-4277.32
-4232.16
-4177.96
-4024.54
-3872.77
-3527.54
-2469.12
-2413.61
-2571.19
-2264.2
-4064.08
-111035
-19088.2
-10523
-11817.2
-22755.6
-40757
-63146.5
-61891.2
-33540.6
-19327.8
-7635.59
-2344.07
5314.21
7486.01
5999.11
10451.6
10986.8
11803.7
13588.7
16318.5
20166.8
24477.9
34141.8
46502.6
56995.7
69316.1
80042.4
89014.7
84900.1
73446.6
57623.2
44027.7
40085
34112.1
27653.8
21567.4
17506.4
14220.1
11200.3
8290.16
5587.59
2961.6
-287.78
-2326.35
-4108.58
-3581.67
-3963.07
-2368.38
-1911.24
139.822
1497.33
2341.8
2694.66
2595.63
2444.83
1863.37
1552.67
959.673
662.114
-247.211
-383.846
-1506.13
-835.055
-1931.37
-663.608
-2077.5
488.553
-2744.67
8133.56
-2042.86
-2159.29
-2096.7
-2082.06
-2066.82
-2063.43
-2064.93
-2073.85
-2087.83
-2108.41
-2133.09
-2164.09
-2199.48
-2239.66
-2283.18
-2334.5
-2390.45
-2447.55
-2512.52
-2586.57
-2659.55
-2738.85
-2824.27
-2920.75
-3013.79
-3111.87
-3216.37
-3327.15
-3448.81
-3566.62
-3673.46
-3783.92
-3905.71
-4014.44
-4116.21
-4219.24
-4340.14
-4432.63
-4439.09
-4446.07
-4364.74
-4285.12
-4195.23
-4012.57
-3635.47
-1660.77
-1437.36
-1642.38
-586.408
-30970.5
-78475
-5662.1
-7462.52
-8144.22
-13984.1
-20738.5
-36548.6
-61860.9
-59146.2
-36584.7
-10700.4
9598.26
11665.6
20200.7
9509.16
15401
18325.7
21832.4
29106.6
38220.8
53699.9
62233.5
75960.2
88920.4
93039.7
84620
68727.1
53077.7
44632.3
40228.8
35135.8
27636.4
20406.1
17901.2
14845.6
11943.8
9812.91
8117.32
6278.04
4696.53
2665.43
985.803
-1321.24
-2986.03
-4705.97
-4436.21
-4970.69
-3308.66
-2653.62
-606.218
965.163
1773.78
2311.61
2324.91
2299.03
1886.91
1700.79
1202.9
918.877
63.7858
-139.734
-1199.07
-671.069
-1776.18
-657.423
-1991.21
316.068
-2670.92
8110.43
-2126.46
-2233.02
-2166.86
-2148.14
-2129.64
-2122.97
-2121.85
-2128.22
-2140.67
-2159.18
-2183.06
-2211.46
-2246.05
-2285.14
-2327.51
-2378.11
-2433.91
-2491.25
-2554.04
-2626.99
-2701.64
-2779.77
-2864.09
-2962.26
-3054.58
-3154.2
-3258.59
-3368.55
-3488.6
-3614.99
-3720.63
-3833.51
-3951.44
-4065.89
-4177.72
-4271.24
-4372.93
-4463.66
-4591.4
-4544.41
-4550.43
-4459.64
-4344.48
-4161.21
-3893.2
-1216.95
-736.495
-1912.6
2305.82
-93066
-50286.2
-1878.15
-2885.14
-4386.66
-7565.23
-10945.4
-18128.5
-32839.1
-63933.7
-61524.1
-17631.4
17550
13045.7
28721
22464.4
34887.7
49969.8
61047.8
72360.5
86190.4
96004.3
91596.4
76516.3
59964
49606.8
45190.6
39278
31896.1
24554.7
19625.1
17374.4
14470.7
11356.8
10173.8
7815.97
6926.33
6104.39
5179.1
4160.43
2953.48
1451.69
-215.323
-1068.41
-3183.35
-4306.91
-5036.83
-5237.02
-3914.25
-2961.83
-1061.36
631.429
1386.21
1995.94
2112.3
2141.44
1882.55
1767.6
1396.02
1119.41
351.028
84.0594
-928.979
-480.229
-1604.56
-564.236
-1856.13
83.279
-2633.9
7856.53
-2193.83
-2291.44
-2222.41
-2200.23
-2179.05
-2169.47
-2166.12
-2170.81
-2181.55
-2198.15
-2220.65
-2247.81
-2280.93
-2319.32
-2361.6
-2409.78
-2465.32
-2522.93
-2584.68
-2655.85
-2730.41
-2808.35
-2893.96
-2987.24
-3082.88
-3181.96
-3286.98
-3394.21
-3518.18
-3637.53
-3759.88
-3867.92
-3987.87
-4101.64
-4213.35
-4315.79
-4403.52
-4484.93
-4586.98
-4633.94
-4701.48
-4553.34
-4399.26
-4101.36
-3818.94
-156.246
-199.623
-144.467
-1177.3
-117741
-20729.5
-1004.81
-812.855
-1775.3
-3947.7
-6466.65
-9177.43
-17120.8
-29362
-40223.3
-15536.6
20361.3
37537.4
56606
71367.5
84385.7
98048.4
93049.8
82209.7
66930.1
52969.6
49474.3
44740.9
37985.7
30013.5
23568.2
20768.5
17966.4
15340.4
12166
10749.6
8406.66
8000.6
6705.9
5373.96
4620.51
3911.93
3346.02
2621.65
1816.38
775.733
-290.128
-1834.58
-3215.7
-4449.03
-4676.86
-4802.22
-3891.61
-2798.95
-1320.82
352.786
1120.16
1771.65
1913.81
1986.94
1819.01
1830.7
1571.67
1251.58
630.601
254.667
-606.655
-299.467
-1384.14
-509.125
-1744.62
-39.4734
-2511.46
7482.21
-2245.03
-2334.69
-2263.54
-2238.5
-2215.26
-2203.69
-2198.35
-2201.5
-2210.61
-2225.8
-2247.29
-2273.17
-2305.1
-2342.14
-2384.71
-2431.39
-2484.92
-2542.56
-2605.05
-2673.54
-2747.55
-2826.53
-2911.19
-3000.4
-3099.28
-3196.58
-3302.86
-3410.21
-3532.01
-3646.84
-3780
-3888.46
-4005.9
-4126.88
-4242.14
-4344.02
-4434.48
-4507.23
-4566.26
-4645.97
-4682.1
-4690.06
-4597.61
-4472.78
-4232.27
37.6775
-347.401
946.209
-18429.1
-99666.8
-6373.39
-2085.42
-583.578
1449.66
1700.27
601.687
-144.302
1694.67
1172.47
6058.21
20277
63884.5
99495.5
90770.7
86501.5
72186.7
56378.4
53644.3
50158.8
45660.8
37999.3
31048.6
27101.5
23422.9
20025.4
16022.3
14131.3
11664.4
9632.19
8403.51
6861.79
5569.68
5930.37
4284.83
4018.18
3630.51
3539.49
2915.32
2544.04
1481.64
632.869
-582.421
-1745.65
-3065.84
-3742.62
-4163.21
-3901.42
-3591.76
-2522.41
-1347.28
158.663
891.627
1542.72
1640.36
1822.66
1725.15
1846.42
1651.02
1356.19
836.69
450.253
-342.86
-156.422
-1188.26
-453.988
-1600.93
-139.154
-2342.62
6981.61
-2280.37
-2362.9
-2290.57
-2263.4
-2238.73
-2225.68
-2218.84
-2220.77
-2228.51
-2242.45
-2263.01
-2288.06
-2318.63
-2355.16
-2397.13
-2442.8
-2494.56
-2552.67
-2614.12
-2680.05
-2754.08
-2833.06
-2916.4
-3005.57
-3100.93
-3200.66
-3306.76
-3415.26
-3529.47
-3649.92
-3769.26
-3898.9
-4017.62
-4135.89
-4253.78
-4357.65
-4452.31
-4524.13
-4576.14
-4616.49
-4613.61
-4626.38
-4504.88
-4359.64
-4099.36
924.491
490.602
2472.48
-76622.4
-57924.5
2417.36
1725.28
2155.81
2535.08
3280.74
2960.07
3109.47
7415.3
22865.3
69262.5
115026
96055.9
67645.6
58838.5
50625.4
46149.7
39163.2
34977.3
31514.1
29484.9
25729.5
25490.9
20347.6
17609.7
15634.3
14815
12940.3
11085.9
9350.25
9329.04
7639.73
6434.99
6377.55
4551.21
4411.6
3594.12
3338.98
2598.99
2110.55
1290.63
545.882
-472.058
-1607.16
-2553.93
-3113.25
-3567.8
-3058.49
-3069.86
-2037.97
-1392.25
15.8451
683.398
1336.59
1460.39
1692.18
1622.7
1849.41
1689.22
1451.92
1042.3
627.302
-61.2681
-8.6261
-938.395
-402.444
-1456.89
-147.542
-2225.45
6428.88
-2300.17
-2376.55
-2303.97
-2275.59
-2249.62
-2235.72
-2228.09
-2228.89
-2235.78
-2248.76
-2268.17
-2293.63
-2321.83
-2358.29
-2399.34
-2444.96
-2493.98
-2551.11
-2613.52
-2679.6
-2750.71
-2828.41
-2910.94
-2999.12
-3093.06
-3193.78
-3296.48
-3408.45
-3518.59
-3636.04
-3755.52
-3883.59
-4007.45
-4131.63
-4255.24
-4358.54
-4460.64
-4534.22
-4576.33
-4632.98
-4651.82
-4689.03
-4640.47
-4624.78
-4396.91
742.472
837.89
-268.673
-126906
-20376.8
3727.31
3565.62
3408.06
3749.99
5915.16
6446.27
9192.91
30774.6
82963.7
157841
126615
68288.6
49930.5
38632.7
32740.6
27701.1
24074.3
22142.9
20067.5
19182
18171
18595.8
18932.6
18119.6
15621.1
14609.1
12842
10579.3
9743.2
9060.53
7993.76
6942.87
6118.81
5178.69
4718.24
3908.66
3640.97
2899.61
2474.47
1781.16
994.343
69.4192
-767.082
-1888.65
-2295.59
-2965.12
-2574.74
-2625.64
-1777.84
-1363.87
-235.639
527.591
1160.24
1360.68
1576.2
1526.06
1803.83
1685.9
1532.5
1179.29
794.266
164.57
148.729
-699.093
-357.428
-1219.81
-85.0503
-2085.61
5838.33
-2304.93
-2376.13
-2304.26
-2275.21
-2248.66
-2234.41
-2226.39
-2226.47
-2232.74
-2245.49
-2263.52
-2288.46
-2316.5
-2351.32
-2392.07
-2436.51
-2485.12
-2541.02
-2601.97
-2665.98
-2737.28
-2814.35
-2895.03
-2982.29
-3074.94
-3174.65
-3277.03
-3386.91
-3497.62
-3613.15
-3730.39
-3855.68
-3984.25
-4102.25
-4227.54
-4350.76
-4448.25
-4528.52
-4597.34
-4657.22
-4727.48
-4654.2
-4533.93
-4456.88
-4061.73
1391.34
2501.1
-20083.9
-100448
-4855.01
2446.4
3151.31
3103.47
4043.33
7107.66
12317.2
27148.9
72032.9
160750
142694
81756.5
51251.5
35709.6
27320.4
22277
19420.9
17133.7
15478.7
14719.4
13743.1
13649.5
13620.8
14349.6
15134.3
14440.5
14732
13753.9
13791.6
12662.5
11139.2
10397.5
8865.58
7368.61
6537.18
5789.79
4729.48
4108.83
3308.34
2606.38
2036.57
1342.15
529.14
-111.536
-900.655
-1599.09
-2048.86
-1954.88
-2131.93
-1559.55
-1287.7
-316.393
398.154
996.956
1276.98
1457.22
1432.05
1764.97
1637.25
1621.91
1303.54
956.541
372.918
357.437
-500.955
-257.721
-982.8
-25.7644
-1972.29
5268
-2295.24
-2362.28
-2291.78
-2262.74
-2236.69
-2222.17
-2214.18
-2213.81
-2220.1
-2232.24
-2249.74
-2273.65
-2302.68
-2335.66
-2375.23
-2419.34
-2467.84
-2522
-2580.63
-2645.67
-2716.59
-2791.05
-2869.07
-2955.03
-3047.95
-3144.83
-3247.85
-3352.17
-3465.26
-3579.19
-3698.11
-3817.06
-3945.54
-4073.85
-4189.35
-4302.54
-4405.52
-4494.58
-4582.69
-4631.5
-4653.75
-4591.53
-4511.59
-4414.59
-3976.05
1597.66
2867.86
-85483.3
-53728.2
3395.36
3682.84
4707.37
4933.94
5882.92
12090
29143.5
74797.7
149509
151663
90209.7
54644.7
35628.7
25791
20043.4
16945.2
15116.6
13563.7
12250.5
11313.2
10513.4
10324.5
10181.2
11053.3
12001.4
12324.1
13349.6
12780.2
13389.1
13124.9
11769.1
10606.5
9570.2
8077.27
7671.44
6965.86
5729.22
4583.48
3946.42
3177.77
2392.17
1739.52
936.419
477.837
-194.787
-761.313
-1716.39
-1619
-1718.47
-1289.19
-1116.09
-362.913
267.846
889.992
1205.57
1382.32
1365.33
1646.53
1571.82
1717.34
1394.47
1100.31
598.456
556.64
-294.76
-110.332
-743.732
17.1964
-1877.45
4672.39
-2271.86
-2335.57
-2267.26
-2239.04
-2213.72
-2199.56
-2191.99
-2191.56
-2197.84
-2209.94
-2227.11
-2250.24
-2279.38
-2311.77
-2350.07
-2393.19
-2441.71
-2494.85
-2551.79
-2614.76
-2685.72
-2757.66
-2835.86
-2919.23
-3012.29
-3107.98
-3205.48
-3310.78
-3419.58
-3535.74
-3656.77
-3772.42
-3892.37
-4021.17
-4140.17
-4245.82
-4379.14
-4485.25
-4600.43
-4673.4
-4737.23
-4761.74
-4820.65
-4704.49
-4728.17
1441.97
-1954.83
-134209
-18298.4
3903.73
4462.6
5183.02
7595.14
10589.2
25379.5
61493.2
143211
158875
93987.9
56733.6
36719.6
25567.3
19626.2
16467.6
14788.7
13655.8
12629.4
11644.1
10654.8
10004.2
9419.61
8828.42
8728.45
9106.01
9837.38
10811.6
11445.8
11540.7
12657.3
11834.8
11290
10227.1
9603.51
8169.44
7036.69
5836.04
4802.74
4203.48
3266.74
2706.84
2074.5
1365.22
835.809
-55.8955
-461.276
-1006.74
-1198.38
-1269.41
-1150.93
-875.366
-468.547
105.558
723.709
1047.46
1277.36
1243.49
1503.76
1485.61
1814.5
1413
1252.29
790.168
738.334
-137.081
102.332
-537.163
83.2453
-1715.92
4173.93
-2235.55
-2296.72
-2231.47
-2204.6
-2180.42
-2167.11
-2160.1
-2160.26
-2166.69
-2179.15
-2196.02
-2218.69
-2247.55
-2279.96
-2316.34
-2358.88
-2408.04
-2458.83
-2514.77
-2576.73
-2645.91
-2716.42
-2792.82
-2874.95
-2963.88
-3057.95
-3156.41
-3257.97
-3362.96
-3484.37
-3601.86
-3723.48
-3830.96
-3949.66
-4071.71
-4195.56
-4314.9
-4429.02
-4501.4
-4539.61
-4469.36
-4420.36
-4243.08
-3847.42
-3762.85
3986.82
-36645.9
-87727.7
2375.76
4444.65
5350.46
6765.97
12080.7
22324.2
61260
138793
165100
98830.4
59831.7
38546.8
26510.6
19704.7
15586.5
13411.8
12235.7
11547.7
11072.6
10996.1
10703.4
10096.5
9267.64
8607.91
8040.74
7548.78
8091.79
8469.29
9557.41
9458.4
10331.4
10378.7
10612.5
10275.4
9065.89
8163.88
6958.64
6443.17
5564.07
4633.25
3607.68
2907.03
2088.77
1422.57
662.193
345.192
142.876
-583.883
-885.354
-1038.45
-950.964
-778.102
-341.612
264.795
732.031
1027.81
1205.76
1252.06
1374.5
1404.15
1894.94
1392.84
1389.32
977.36
910.269
71.3275
294.467
-384.534
129.677
-1587.12
3680.56
-2187.2
-2246.66
-2184.97
-2159.94
-2137.57
-2125.39
-2119.5
-2120.34
-2126.97
-2140.29
-2157.02
-2179.37
-2207.82
-2240.43
-2275.5
-2317.53
-2365.6
-2415.27
-2470.41
-2531.27
-2597.28
-2667.68
-2742.56
-2822.66
-2912.09
-3006.16
-3096.14
-3198.68
-3299.39
-3418.6
-3537.41
-3656.56
-3763.66
-3879.94
-3993.61
-4123.73
-4232.05
-4365.15
-4448.7
-4552.9
-4612.58
-4675.45
-4691.6
-4715.48
-4739.25
703.428
-134090
-31480.6
5590.93
8788.53
8599.84
10974.3
24103.9
54363.9
123328
168717
100386
60540.3
39196.2
26861.6
20021.5
15897
13259.8
11624.7
10856.1
10565
10348.1
10277.5
10134.7
10006.8
9563.64
8871.61
8080.9
7219.39
6939.12
6748.77
7374.31
7636.78
8023.74
8350.33
9738.15
9487.71
9045.15
8025.89
7572.14
6437.86
5382.24
4386.69
3531.75
2837.73
2536.36
1885.66
1145.81
518.763
-140.509
-381.378
-647.58
-761.476
-708.185
-590.658
-204.73
269.25
700.434
935.479
1166.42
1140.85
1261.75
1253.83
2011.58
1267.6
1530.95
1143.16
1038.38
263.606
490.106
-251.546
202.806
-1430.06
3298.65
-2127.75
-2186.17
-2128.57
-2105.89
-2085.71
-2075.04
-2070.62
-2072.39
-2079.49
-2093.31
-2110.53
-2132.64
-2160.85
-2192.93
-2228.07
-2269.16
-2315.5
-2364.87
-2418.92
-2478.28
-2541.79
-2611.32
-2684.65
-2762.98
-2848
-2933.91
-3030.58
-3126.94
-3232.01
-3339.92
-3459.89
-3584.39
-3689.93
-3802.26
-3915.64
-4043.76
-4141.53
-4261.17
-4354.61
-4454.85
-4416.97
-4422.24
-4290.44
-4323.68
-3247.26
-21335.8
-118383
-5685.25
5098.5
5842.63
11229.1
19799.5
55720
129637
173656
102710
61369.6
39224.6
26443.1
18533
13962.8
12392.8
11930
11881.6
11406.3
10876.2
10352.4
10009.3
9774.97
9655.37
9196.87
8543.1
7883.22
7059.32
6479.73
6076.83
5665.6
6212.27
6608.51
6623.59
7654.55
7620.12
8201.08
7694.76
6933.76
6203.4
5496.45
4549.67
3909.63
2975.62
2374.04
1511.07
1017.65
397.165
213.731
-38.5569
-205.435
-543.174
-578.868
-447.028
-136.208
267.907
663.003
846.046
1106.75
1049.31
1241.53
1185.97
2096.38
1149.29
1616.32
1275.4
1177.41
482.024
649.137
-98.6903
279.996
-1275.99
2947.43
-2058.21
-2116.15
-2063.12
-2043.16
-2025.5
-2016.72
-2013.97
-2017
-2024.82
-2039.15
-2056.89
-2079.21
-2107.06
-2138.69
-2173.81
-2213.99
-2258.83
-2307.82
-2360.73
-2418
-2480.06
-2547.54
-2619.9
-2696
-2777.92
-2863.41
-2957.8
-3050.22
-3153.15
-3254
-3368.43
-3480.5
-3602.75
-3703.37
-3821.2
-3931.78
-4043.98
-4134.71
-4238.04
-4323.64
-4387.95
-4483.12
-4226.94
-4923.2
-4622.37
-102624
-43663.2
4717.73
5658.38
8175.7
18840.6
47217.1
112968
173964
103582
62105.4
39872.4
26828
19063.7
15304.6
12678.4
11570.7
10715.3
10419.9
10013.7
9817.41
9712.24
9596.13
9328.94
8996.31
8774.06
8753.41
8224.53
7457.07
6514.37
5770.48
5061.58
4920.79
4975.59
5245.65
5657.45
5656.43
6888.15
6781.97
6390.35
5801.82
5174.57
4458.19
3553.22
2840.51
2247.27
1936.94
1485.91
757.757
438.058
-69.2182
-207.717
-419.545
-359.301
-403.517
-37.9993
238.596
581.424
732.425
1031.11
922.493
1227.62
972.564
2138.49
944.354
1766.67
1403.43
1290.95
671.853
772.376
24.6965
347.694
-1106.48
2649.22
-1979.62
-2037.54
-1989.44
-1972.56
-1957.72
-1951.12
-1950.08
-1954.77
-1963.52
-1978.14
-1997
-2019.29
-2046.59
-2078.42
-2113.41
-2152.26
-2196.25
-2244.65
-2295.94
-2351.4
-2412.24
-2477.64
-2548.77
-2621.49
-2700.29
-2784.7
-2875.18
-2965.3
-3066.05
-3162.43
-3271.42
-3388.3
-3518.62
-3619.16
-3734.75
-3848.43
-3964.88
-4073.39
-4192.47
-4315.24
-4490.06
-4532.51
-4696.97
-4781.38
-17864.5
-127645
-15282.1
5216.66
9433.68
17085
47634.1
116737
169701
100619
60074.2
38378.5
25561.1
18969.3
15849.7
14449.4
13375.9
11882.2
10546.7
9935.88
9429.87
9323.74
9166.84
9041.03
8725.03
8471.64
8214.84
8208.55
7873.75
7282.14
6637.66
5652.35
5063.63
4407.49
3964.77
4137.91
4510.38
4327.9
5295.38
5131.19
5750.32
5128.63
4600.09
4403.33
3531.71
3101.84
2174.19
1767.42
997.189
537.3
285.019
-30.032
-48.7624
-105.698
-198.461
-255.994
-86.8552
131.145
445.689
572.347
893.267
768.006
1166.24
933.756
2153.66
910.969
1856.02
1430.56
1404.06
812.322
890.829
154.891
457.362
-962.084
2370.71
-1893.03
-1951.27
-1908.42
-1894.88
-1883.02
-1878.95
-1879.62
-1886.06
-1896.14
-1911.06
-1930.89
-1953.71
-1980.39
-2012.2
-2047.27
-2084.88
-2127.79
-2175.77
-2225.5
-2279.33
-2338.74
-2403.06
-2470.14
-2540.89
-2615.93
-2699.18
-2787.76
-2874.84
-2969.99
-3064.88
-3158.91
-3277.9
-3394.32
-3511.44
-3601.99
-3708.72
-3787.03
-3860.19
-3877.3
-3880.12
-3853.96
-3561.15
-3822.79
-2315.94
-72434.5
-63706.5
2363.08
4597.95
15209.8
44030.5
103854
169159
101419
60657.6
39329.9
26566.6
19412.1
15329.8
12888.1
11437.6
10731.3
10163.9
9910.71
9459.27
9212.55
8816.4
8608.76
8356.98
8102.47
8011.66
7694.23
7370.5
7059.6
6503.78
6391.11
5421.16
4982.53
4165.36
3490.61
3198.9
3176.41
3310.05
3691.38
3488.16
4574.97
4269.1
3978.87
3627.18
3140.83
2603.77
1901.27
1552.79
1151.54
944.271
553.658
189.996
-46.7942
-190.033
-242.733
-276.379
-51.9235
97.1553
368.12
458.286
780.205
656.977
1112.35
823.066
2136.05
797.287
1858.58
1426.04
1483.66
891.625
1048.11
260.869
578.146