/*--------------------------------*- C++ -*----------------------------------*\
| =========                 |                                                 |
| \\      /  F ield         | OpenFOAM: The Open Source CFD Toolbox           |
|  \\    /   O peration     | Version:  2.2.x                                 |
|   \\  /    A nd           | Web:      www.OpenFOAM.org                      |
|    \\/     M anipulation  |                                                 |
\*---------------------------------------------------------------------------*/
FoamFile
{
    version     2.0;
    format      ascii;
    class       volScalarField;
    location    "1.5";
    object      Ma;
}
// * * * * * * * * * * * * * * * * * * * * * * * * * * * * * * * * * * * * * //

dimensions      [0 0 0 0 0 0 0];

internalField   nonuniform List<scalar> 
14161
(
2.59983
2.5998
2.59996
2.60025
2.60067
2.60125
2.602
2.60297
2.60414
2.60554
2.60725
2.60928
2.61146
2.61409
2.6172
2.62061
2.624
2.62811
2.63277
2.63713
2.6425
2.64745
2.65146
2.65697
2.66175
2.66521
2.66811
2.67021
2.67122
2.67127
2.66986
2.66683
2.66159
2.65377
2.64291
2.62866
2.61075
2.58873
2.56216
2.53553
2.50254
2.46507
2.4287
2.39347
2.3884
0.93434
0.556093
0.510405
0.500263
0.501688
0.514125
0.526376
0.548198
0.568443
0.590066
0.610682
0.630498
0.649736
0.667527
0.684535
0.699841
0.714073
0.728344
0.740244
0.751568
0.761584
0.769418
0.777176
0.785729
0.793005
0.799867
0.806189
0.811552
0.817229
0.824209
0.832042
0.838708
0.844513
0.850219
0.856187
0.863645
0.873369
0.883953
0.891533
0.901052
0.911273
0.921487
0.933218
0.955806
0.972593
0.987854
1.00033
1.02402
1.04277
1.06528
1.08723
1.1077
1.13279
1.15518
1.18034
1.20241
1.2203
1.23512
1.23213
1.20778
1.14724
1.01209
0.823988
0.656737
0.530646
0.4369
0.364925
0.309386
0.263522
0.220514
0.177666
0.133839
0.0873548
0.0626109
2.59983
2.5998
2.59996
2.60025
2.60067
2.60125
2.602
2.60297
2.60414
2.60554
2.60725
2.60928
2.61146
2.6141
2.61719
2.62061
2.62401
2.62808
2.63274
2.63724
2.64244
2.64716
2.65162
2.65715
2.6615
2.66532
2.66835
2.67038
2.67142
2.67156
2.67026
2.66736
2.66227
2.65461
2.64397
2.6299
2.61234
2.59057
2.56412
2.53771
2.5054
2.4671
2.42985
2.38842
2.37036
0.917112
0.549024
0.502612
0.495009
0.498706
0.513274
0.52748
0.549592
0.569708
0.59022
0.610123
0.629567
0.648346
0.665778
0.683145
0.699121
0.713527
0.727583
0.739598
0.750896
0.761904
0.77082
0.778505
0.787045
0.794915
0.801678
0.808154
0.814284
0.819712
0.826101
0.834084
0.841052
0.84732
0.854142
0.860585
0.867764
0.876287
0.888223
0.897342
0.908309
0.918962
0.93019
0.942034
0.963327
0.977753
0.992228
1.00496
1.02951
1.04801
1.06891
1.09202
1.11397
1.13925
1.16115
1.18519
1.20363
1.21295
1.21743
1.18268
1.11984
0.999572
0.823447
0.660315
0.535785
0.44876
0.38058
0.323268
0.27629
0.235663
0.197484
0.160495
0.128044
0.0934717
0.0956375
2.59983
2.5998
2.59996
2.60025
2.60067
2.60125
2.602
2.60297
2.60414
2.60554
2.60725
2.60928
2.61149
2.6141
2.61717
2.62061
2.62406
2.62803
2.63271
2.6374
2.64226
2.647
2.65191
2.65708
2.66137
2.66576
2.66888
2.6708
2.67184
2.67228
2.67126
2.66871
2.6641
2.65683
2.64675
2.63336
2.61656
2.59547
2.56975
2.54417
2.51333
2.47478
2.436
2.39313
2.35686
0.918143
0.547615
0.497937
0.489079
0.49474
0.511641
0.528988
0.551754
0.573982
0.595202
0.615919
0.635732
0.654995
0.67322
0.690628
0.70694
0.721907
0.735813
0.748267
0.759011
0.76975
0.779357
0.787557
0.795439
0.803298
0.809742
0.816062
0.822738
0.828885
0.835645
0.843344
0.849889
0.855995
0.86266
0.869859
0.877642
0.886454
0.89705
0.90575
0.916508
0.926951
0.939774
0.95084
0.971756
0.984827
0.999211
1.01309
1.03759
1.056
1.0771
1.10013
1.12252
1.14679
1.16442
1.18355
1.19056
1.18626
1.15687
1.07485
0.95387
0.786742
0.63537
0.517906
0.441467
0.383794
0.333404
0.288588
0.250283
0.215695
0.186179
0.158841
0.140999
0.122223
0.138557
2.59983
2.5998
2.59996
2.60025
2.60067
2.60125
2.602
2.60297
2.60414
2.60554
2.60724
2.60925
2.61149
2.61409
2.61716
2.62062
2.62408
2.62798
2.63271
2.63754
2.64216
2.647
2.65252
2.65705
2.6613
2.66646
2.66971
2.67157
2.67264
2.6735
2.67294
2.67105
2.6672
2.66076
2.65159
2.63945
2.62393
2.60438
2.58002
2.5563
2.52739
2.48935
2.44925
2.40716
2.3493
0.92937
0.547715
0.498998
0.484976
0.496357
0.51283
0.535727
0.55762
0.581814
0.604839
0.627414
0.648863
0.669045
0.688487
0.706318
0.723311
0.739403
0.75316
0.76546
0.776762
0.787065
0.796792
0.805629
0.813327
0.82008
0.826459
0.833126
0.840075
0.847043
0.853856
0.860247
0.866484
0.873454
0.88096
0.88883
0.89723
0.905213
0.914123
0.9229
0.9338
0.944676
0.958498
0.970029
0.989218
1.00134
1.01566
1.03113
1.05416
1.07097
1.08984
1.11205
1.1315
1.14981
1.16194
1.16913
1.15838
1.11396
1.02652
0.87004
0.698746
0.551091
0.457542
0.4058
0.364316
0.326012
0.289156
0.256785
0.227446
0.202156
0.182858
0.166061
0.160651
0.15168
0.171127
2.59983
2.5998
2.59996
2.60025
2.60067
2.60125
2.602
2.60297
2.60413
2.60554
2.60722
2.60924
2.6115
2.61409
2.61714
2.62062
2.62409
2.62794
2.63273
2.63761
2.64214
2.64694
2.65298
2.65726
2.66136
2.66699
2.67061
2.67274
2.67404
2.67525
2.67567
2.67457
2.67189
2.66668
2.65885
2.64892
2.63542
2.61837
2.59675
2.57622
2.54975
2.51115
2.46999
2.43206
2.34454
0.95189
0.553674
0.503402
0.483506
0.505936
0.520799
0.549978
0.573125
0.599304
0.62338
0.647482
0.670225
0.691531
0.711802
0.730952
0.748501
0.764048
0.778561
0.791325
0.80316
0.813739
0.823148
0.831553
0.839335
0.846529
0.853127
0.859072
0.866174
0.873035
0.879153
0.885297
0.891432
0.89831
0.906973
0.915144
0.923488
0.931435
0.939451
0.947937
0.957949
0.970492
0.984601
0.997551
1.0133
1.0252
1.03772
1.0526
1.07399
1.08957
1.10819
1.12317
1.13517
1.14892
1.1455
1.12747
1.07666
0.960339
0.803794
0.639336
0.503131
0.422847
0.381165
0.34932
0.319087
0.290206
0.262923
0.238318
0.216092
0.197186
0.186838
0.179033
0.182228
0.178779
0.19773
2.59983
2.59979
2.59996
2.60024
2.60066
2.60124
2.602
2.60297
2.60412
2.60553
2.60722
2.60922
2.6115
2.61409
2.61714
2.62062
2.62411
2.62793
2.63277
2.63764
2.64211
2.647
2.65315
2.65746
2.66176
2.66719
2.67165
2.67437
2.67643
2.67766
2.67903
2.67899
2.67782
2.67459
2.66906
2.66198
2.65149
2.63734
2.62055
2.60447
2.58113
2.54433
2.50731
2.47015
2.36721
1.02992
0.567467
0.510815
0.487277
0.522248
0.538981
0.572928
0.598849
0.627159
0.652881
0.678405
0.703074
0.726477
0.747261
0.766735
0.784386
0.801184
0.816164
0.82931
0.841825
0.853282
0.862726
0.869944
0.876988
0.884998
0.892442
0.898243
0.904192
0.910189
0.916618
0.922645
0.928708
0.935922
0.945629
0.952494
0.960262
0.967482
0.975212
0.984034
0.994376
1.00637
1.01989
1.03062
1.04381
1.05431
1.06744
1.08103
1.0981
1.1101
1.12038
1.12959
1.13003
1.13418
1.09092
1.0223
0.905643
0.735759
0.584253
0.471742
0.414949
0.379642
0.348622
0.320107
0.294398
0.271131
0.249243
0.228742
0.21109
0.198881
0.194891
0.19385
0.201783
0.202142
0.219577
2.59983
2.59979
2.59996
2.60024
2.60066
2.60124
2.602
2.60295
2.6041
2.60553
2.60722
2.60918
2.61148
2.6141
2.61713
2.6206
2.62411
2.62796
2.63283
2.63764
2.64209
2.64719
2.65322
2.65792
2.66224
2.66719
2.67298
2.67673
2.67959
2.68095
2.68295
2.68424
2.68526
2.68457
2.68223
2.67853
2.67276
2.66317
2.65285
2.64246
2.62402
2.59434
2.56442
2.52975
2.4006
1.18485
0.599957
0.52832
0.498398
0.55109
0.572225
0.612852
0.641286
0.671025
0.697857
0.724553
0.749257
0.774014
0.795883
0.816099
0.835183
0.852123
0.86831
0.882122
0.895983
0.909868
0.919607
0.926472
0.932471
0.938373
0.946411
0.953361
0.958466
0.962572
0.968577
0.974298
0.980251
0.987056
0.995153
1.00253
1.00959
1.01656
1.02336
1.03062
1.03911
1.04814
1.05951
1.06737
1.07766
1.08603
1.09717
1.10648
1.11966
1.1208
1.12016
1.124
1.09627
1.06527
0.965504
0.828824
0.682221
0.547081
0.457772
0.417155
0.391961
0.366197
0.337196
0.3094
0.284792
0.262545
0.242673
0.226208
0.213632
0.205484
0.205242
0.208566
0.218989
0.221894
0.237494
2.59982
2.59979
2.59995
2.60024
2.60066
2.60123
2.602
2.60295
2.60409
2.60552
2.60723
2.60916
2.61144
2.6141
2.61713
2.62052
2.62409
2.62802
2.63289
2.63761
2.64213
2.6475
2.65332
2.65857
2.66281
2.66747
2.67447
2.67949
2.6832
2.68489
2.68748
2.68962
2.69428
2.69695
2.69827
2.69906
2.69934
2.69663
2.69339
2.68971
2.68158
2.66858
2.65179
2.63357
2.50931
1.48794
0.657904
0.554795
0.518671
0.595778
0.623507
0.672617
0.707715
0.737551
0.768233
0.793504
0.818275
0.843342
0.865234
0.886657
0.905045
0.922748
0.937424
0.952059
0.9651
0.979782
0.989035
0.995413
0.999638
1.00507
1.01112
1.0176
1.02213
1.02578
1.02911
1.03473
1.03925
1.04397
1.05053
1.05712
1.06292
1.06787
1.0724
1.07646
1.08197
1.08672
1.09373
1.10066
1.10605
1.10968
1.11952
1.11842
1.12603
1.10835
1.08859
1.07198
0.995396
0.901095
0.761594
0.624611
0.515844
0.458093
0.430894
0.409574
0.387858
0.361295
0.332892
0.305015
0.281805
0.261284
0.243589
0.229449
0.219728
0.214959
0.21699
0.222722
0.234319
0.238679
0.252415
2.59982
2.59978
2.59995
2.60022
2.60065
2.60121
2.60199
2.60294
2.60408
2.60551
2.60723
2.60912
2.61143
2.61413
2.61715
2.62036
2.62405
2.62818
2.63296
2.63754
2.64217
2.64789
2.65363
2.65919
2.66348
2.66837
2.67588
2.68197
2.68688
2.6893
2.69251
2.69572
2.70423
2.71077
2.71693
2.72296
2.72879
2.73595
2.74069
2.7448
2.75256
2.75826
2.77917
2.78088
2.69918
2.18266
0.773766
0.591971
0.556619
0.667909
0.702939
0.761253
0.803664
0.83025
0.861034
0.876962
0.903359
0.922515
0.944084
0.965795
0.978554
0.996245
1.00728
1.0218
1.03347
1.04403
1.05198
1.05972
1.06322
1.06604
1.07019
1.07424
1.07817
1.08136
1.08372
1.08669
1.0902
1.09288
1.09532
1.10005
1.10298
1.10584
1.10772
1.10888
1.11135
1.11218
1.11173
1.12135
1.11722
1.11205
1.12477
1.09996
1.09121
1.05531
0.998551
0.934494
0.809259
0.684192
0.571187
0.490488
0.45824
0.442529
0.429904
0.414081
0.391629
0.365742
0.335637
0.308314
0.284762
0.264573
0.248528
0.236362
0.228764
0.226341
0.229755
0.23635
0.248232
0.253193
0.265188
2.59981
2.59978
2.59992
2.60021
2.60063
2.6012
2.60196
2.60292
2.60407
2.60551
2.60721
2.60907
2.6114
2.61414
2.61708
2.62021
2.62399
2.62836
2.63301
2.63746
2.6422
2.64837
2.65409
2.65971
2.66431
2.66963
2.67763
2.68414
2.69021
2.69404
2.6984
2.70333
2.71469
2.72479
2.7354
2.74653
2.75851
2.77331
2.78659
2.79828
2.82153
2.8482
2.9211
3.01127
3.04454
3.07906
1.15847
0.633273
0.621307
0.773455
0.810142
0.863826
0.901712
0.923434
0.948816
0.95347
0.984392
0.993868
1.01484
1.03192
1.04044
1.05731
1.06431
1.07625
1.08841
1.09636
1.10232
1.10907
1.11427
1.11615
1.117
1.12006
1.12228
1.12319
1.12421
1.12607
1.12653
1.12679
1.1265
1.12838
1.12755
1.12741
1.12897
1.12532
1.1249
1.12067
1.11296
1.12243
1.10125
1.08629
1.09285
1.03768
0.997571
0.922632
0.823235
0.720251
0.608549
0.517469
0.474903
0.459123
0.449819
0.446639
0.437071
0.418425
0.396788
0.368982
0.339559
0.313229
0.290645
0.271652
0.257054
0.246082
0.239918
0.238829
0.243127
0.24965
0.261181
0.26617
0.276705
2.5998
2.59977
2.59992
2.6002
2.60062
2.60119
2.60196
2.60288
2.60404
2.60548
2.60716
2.60901
2.61136
2.61414
2.617
2.62007
2.62404
2.62849
2.633
2.63736
2.64242
2.64875
2.65459
2.6601
2.66528
2.67128
2.6797
2.68637
2.69327
2.69804
2.70461
2.71159
2.72573
2.7381
2.75178
2.76706
2.78432
2.80538
2.82359
2.843
2.87988
2.93092
3.04229
3.20686
3.35964
3.39528
1.97389
0.7322
0.708622
0.863646
0.90509
0.94333
0.967834
0.987915
1.00971
1.01902
1.04201
1.04836
1.06691
1.08308
1.08933
1.10471
1.10963
1.11964
1.12984
1.13689
1.14285
1.14537
1.14953
1.15186
1.1518
1.15209
1.15211
1.15099
1.14934
1.14941
1.14721
1.14493
1.14276
1.14271
1.13635
1.1332
1.13539
1.12455
1.11517
1.10782
1.08814
1.08767
1.04742
1.00995
0.986609
0.893776
0.809324
0.71946
0.620788
0.534115
0.480362
0.463894
0.455473
0.456646
0.456348
0.452292
0.440214
0.424322
0.401812
0.374064
0.34555
0.31981
0.298048
0.280433
0.267036
0.257163
0.252263
0.251781
0.256564
0.2626
0.27342
0.278143
0.287492
2.59978
2.59976
2.59991
2.60019
2.60061
2.60118
2.60195
2.60286
2.60402
2.60547
2.60711
2.60894
2.61134
2.61413
2.61689
2.61995
2.62411
2.62857
2.63287
2.63728
2.64285
2.64908
2.65512
2.66037
2.66617
2.6734
2.68163
2.68879
2.69596
2.70159
2.71012
2.72035
2.73559
2.74964
2.76509
2.78296
2.80282
2.82711
2.84574
2.87077
2.91254
2.96534
3.06536
3.19682
3.23284
3.0501
1.98945
0.854877
0.813464
0.887929
0.936226
0.975412
0.99885
1.02201
1.04586
1.06367
1.0815
1.08719
1.10364
1.11857
1.12138
1.13717
1.14107
1.14989
1.15939
1.16462
1.16887
1.16934
1.17194
1.17279
1.1717
1.16975
1.16713
1.16367
1.1599
1.15842
1.15258
1.14746
1.14361
1.14396
1.12996
1.11951
1.11857
1.09172
1.06872
1.05498
1.01091
0.981133
0.918327
0.85246
0.788669
0.692135
0.601667
0.529114
0.478879
0.463156
0.44933
0.455806
0.461093
0.462256
0.460781
0.454401
0.443283
0.427125
0.405129
0.378334
0.350684
0.326091
0.305819
0.289738
0.277308
0.268511
0.264936
0.264708
0.269662
0.275041
0.285056
0.289447
0.29773
2.59977
2.59974
2.5999
2.60018
2.60059
2.60117
2.60193
2.60282
2.60398
2.60546
2.60704
2.60888
2.61132
2.61408
2.61677
2.61991
2.6242
2.62858
2.63274
2.63716
2.64339
2.64947
2.65545
2.66064
2.6669
2.67593
2.68357
2.69155
2.69763
2.705
2.71421
2.72986
2.74384
2.75876
2.77492
2.79301
2.81365
2.83764
2.8567
2.88515
2.92583
2.98746
3.093
3.25804
3.40904
3.30034
2.14719
1.13641
0.937187
0.91431
0.920285
0.976919
0.999431
1.02614
1.05584
1.08382
1.10187
1.10936
1.12248
1.13346
1.13494
1.15045
1.15469
1.16452
1.17128
1.17534
1.17767
1.17792
1.17869
1.17777
1.1752
1.17333
1.16735
1.16213
1.15756
1.15399
1.14222
1.13085
1.12214
1.11738
1.08846
1.06328
1.05243
1.00206
0.955327
0.920164
0.853433
0.790028
0.719836
0.644192
0.569402
0.503955
0.46158
0.454648
0.439643
0.449504
0.455494
0.461753
0.464999
0.465045
0.462993
0.455817
0.44561
0.4297
0.408408
0.382412
0.356066
0.332951
0.314184
0.299288
0.287689
0.279969
0.277715
0.277406
0.282261
0.286965
0.296145
0.300196
0.307409
2.59976
2.59973
2.59989
2.60015
2.60056
2.60114
2.60189
2.60277
2.60395
2.60542
2.60695
2.60881
2.6113
2.61397
2.61667
2.61993
2.62428
2.62853
2.63257
2.63733
2.64376
2.64983
2.65543
2.6611
2.66834
2.67765
2.68555
2.69365
2.69903
2.70778
2.71961
2.73648
2.75054
2.76511
2.78105
2.79849
2.81785
2.83475
2.85301
2.87983
2.90648
2.96551
3.03112
3.06765
2.99993
3.17014
1.64872
1.25969
1.0544
0.938681
0.905018
0.953404
0.980632
1.01095
1.04127
1.07475
1.0944
1.10781
1.12231
1.13215
1.13707
1.14854
1.15343
1.16349
1.16739
1.1704
1.17162
1.17098
1.17241
1.16831
1.16301
1.16074
1.15038
1.1398
1.13048
1.11977
1.09884
1.0763
1.05282
1.03463
0.982615
0.935344
0.895537
0.833737
0.766975
0.705603
0.637447
0.574595
0.523495
0.4731
0.441073
0.436551
0.424244
0.438303
0.446031
0.455806
0.461057
0.465712
0.466738
0.466699
0.462742
0.456679
0.446122
0.430589
0.410527
0.386138
0.361538
0.340122
0.322714
0.308818
0.298328
0.291693
0.29032
0.289738
0.294149
0.298552
0.306753
0.310438
0.316669
2.59974
2.59971
2.59986
2.60014
2.60054
2.60112
2.60185
2.60274
2.6039
2.60536
2.60687
2.60875
2.61125
2.61384
2.61651
2.62005
2.62424
2.62825
2.63244
2.63774
2.64398
2.64998
2.65518
2.6613
2.67029
2.67902
2.68732
2.69458
2.70071
2.70907
2.72556
2.74123
2.75508
2.76922
2.78419
2.79955
2.81557
2.82683
2.84522
2.8683
2.88984
2.93789
2.96333
2.96234
2.7425
2.03244
1.27919
1.26308
1.19639
1.04985
0.952996
0.9371
0.954648
0.992466
1.01682
1.05503
1.07782
1.09519
1.11248
1.12445
1.13118
1.14018
1.14446
1.15286
1.15358
1.15624
1.15426
1.15004
1.15061
1.13791
1.12804
1.12322
1.0988
1.0786
1.05976
1.02906
0.995107
0.945151
0.901848
0.855563
0.79311
0.729513
0.670122
0.613885
0.550564
0.504669
0.462374
0.433311
0.422483
0.421215
0.409844
0.423957
0.433153
0.44619
0.452163
0.460085
0.465306
0.46762
0.468402
0.466636
0.463341
0.457044
0.44665
0.432085
0.412984
0.390096
0.367158
0.347224
0.331013
0.318386
0.309225
0.303414
0.302535
0.301704
0.305502
0.309754
0.31689
0.320327
0.325846
2.59971
2.59968
2.59985
2.6001
2.60051
2.60108
2.60183
2.60269
2.60385
2.6053
2.60678
2.60868
2.61119
2.61368
2.61629
2.62018
2.62415
2.62791
2.63218
2.63829
2.6441
2.64969
2.65517
2.66202
2.67174
2.68023
2.68869
2.69472
2.70218
2.71126
2.7299
2.7439
2.75768
2.7713
2.78425
2.7984
2.80719
2.81905
2.83552
2.8493
2.8825
2.91149
2.9336
2.93703
2.8672
1.48319
1.25904
1.25972
1.25718
1.18887
1.06286
1.0065
0.946704
0.986337
0.980485
1.03274
1.05892
1.07224
1.09743
1.10981
1.11661
1.12497
1.12996
1.1317
1.12759
1.13217
1.11665
1.10725
1.10586
1.07244
1.05238
1.03546
0.986461
0.947945
0.906302
0.855211
0.801104
0.735043
0.676862
0.624469
0.57325
0.520778
0.476493
0.444945
0.416505
0.405355
0.403551
0.401469
0.39874
0.411537
0.420093
0.432849
0.440603
0.451072
0.457535
0.463994
0.467788
0.469223
0.468671
0.466975
0.463523
0.457066
0.447158
0.433348
0.415168
0.393866
0.372605
0.35407
0.339437
0.328252
0.320246
0.314937
0.314342
0.313324
0.316333
0.3204
0.326691
0.329931
0.335088
2.5997
2.59967
2.59983
2.60009
2.60049
2.60106
2.60178
2.60264
2.60379
2.60523
2.6067
2.60858
2.61107
2.61355
2.61617
2.62017
2.62402
2.6276
2.63207
2.6385
2.64421
2.64918
2.65513
2.66353
2.67258
2.68111
2.68903
2.69465
2.7034
2.71493
2.73182
2.74549
2.75885
2.77115
2.78269
2.79361
2.79966
2.81172
2.82345
2.84287
2.86105
2.86112
2.84756
2.70126
2.31462
1.3066
1.21886
1.22127
1.22509
1.21022
1.16106
1.09581
0.965572
0.970088
0.944828
1.00693
1.02576
1.04578
1.07475
1.08596
1.09106
1.09005
1.10745
1.0883
1.07563
1.08104
1.04148
1.01601
1.00025
0.94577
0.900464
0.860279
0.79866
0.741735
0.686036
0.628039
0.573313
0.523505
0.481851
0.449463
0.425812
0.40515
0.395408
0.392653
0.388389
0.385091
0.388996
0.400876
0.407983
0.418713
0.427488
0.439546
0.447461
0.455558
0.461769
0.466663
0.46893
0.469604
0.469007
0.467619
0.464009
0.457586
0.447846
0.434399
0.417412
0.397558
0.377871
0.361103
0.348065
0.338068
0.331098
0.32607
0.32578
0.324541
0.326708
0.330596
0.336309
0.3393
0.344205
2.59968
2.59965
2.59979
2.60007
2.60045
2.60101
2.60173
2.60258
2.60372
2.60513
2.60661
2.60847
2.61092
2.61343
2.61606
2.62002
2.62382
2.62743
2.63209
2.63852
2.64413
2.6488
2.65493
2.66485
2.67331
2.6815
2.68796
2.69506
2.70428
2.71976
2.73301
2.7459
2.75816
2.76902
2.78011
2.78589
2.79401
2.80495
2.81714
2.83729
2.84693
2.84749
2.83621
2.63211
1.81028
1.16051
1.17459
1.18813
1.20043
1.20561
1.194
1.16978
1.06739
1.01764
0.948021
0.992431
0.988154
1.01873
1.04362
1.05366
1.04667
1.02532
1.05667
1.00421
0.97583
0.963735
0.899847
0.851608
0.810996
0.746359
0.687896
0.633963
0.581142
0.531021
0.487424
0.451283
0.425345
0.408674
0.397114
0.390346
0.387143
0.382969
0.378073
0.381087
0.388973
0.39295
0.398983
0.403842
0.414043
0.424921
0.435276
0.445029
0.452093
0.459098
0.464618
0.46816
0.469624
0.469993
0.469405
0.467926
0.464135
0.457623
0.448015
0.435354
0.419622
0.401448
0.3835
0.368302
0.356575
0.347603
0.341567
0.336871
0.336817
0.335205
0.336822
0.340689
0.345861
0.348372
0.352618
2.59965
2.59962
2.59978
2.60003
2.60042
2.60096
2.6017
2.60252
2.60362
2.60505
2.60652
2.60833
2.61074
2.61327
2.61595
2.61971
2.62361
2.62734
2.63208
2.63832
2.64385
2.6487
2.65519
2.66539
2.67347
2.68123
2.68686
2.69565
2.70774
2.72185
2.73338
2.74463
2.75521
2.76566
2.77362
2.78081
2.79069
2.80161
2.8187
2.82937
2.84653
2.86532
2.85942
2.75196
1.38519
1.16176
1.15532
1.1682
1.17662
1.18697
1.19008
1.18974
1.14533
1.09531
1.00039
0.974729
0.934095
0.991149
0.9705
0.994007
0.957381
0.928679
0.920816
0.856593
0.806454
0.761424
0.69877
0.642254
0.58602
0.538086
0.494199
0.458202
0.433077
0.413911
0.398735
0.390425
0.387689
0.38409
0.3806
0.377268
0.379318
0.384598
0.388379
0.388973
0.39451
0.397491
0.404861
0.410511
0.420694
0.43088
0.44052
0.448634
0.455418
0.461599
0.466083
0.468627
0.469857
0.470107
0.469596
0.467963
0.464187
0.457948
0.448817
0.436961
0.422506
0.405928
0.389603
0.375646
0.364914
0.356832
0.351979
0.347537
0.347422
0.345548
0.346842
0.350686
0.355209
0.357024
0.360498
2.59962
2.5996
2.59974
2.59999
2.60037
2.6009
2.60164
2.60243
2.60351
2.60493
2.60642
2.60815
2.61052
2.61313
2.61582
2.61926
2.62328
2.62731
2.6319
2.63783
2.64345
2.64866
2.65568
2.66543
2.6732
2.68019
2.68655
2.69606
2.7113
2.72252
2.73297
2.74228
2.74982
2.75971
2.76939
2.77939
2.79246
2.80188
2.80804
2.81127
2.811
2.8059
2.68093
2.26753
1.23662
1.13635
1.13293
1.1371
1.14022
1.15568
1.16658
1.16981
1.17177
1.13688
1.06641
0.987356
0.903141
0.940464
0.858678
0.870669
0.803431
0.758727
0.712655
0.655311
0.600505
0.543571
0.503848
0.467781
0.438047
0.419152
0.405085
0.396033
0.390998
0.385704
0.382441
0.37849
0.38094
0.383514
0.385008
0.386318
0.385586
0.389708
0.394006
0.397037
0.401939
0.404922
0.411543
0.417248
0.426658
0.435202
0.443769
0.451001
0.457727
0.463283
0.467202
0.469251
0.470269
0.470359
0.469762
0.467943
0.464284
0.458444
0.450009
0.439094
0.425894
0.410926
0.395945
0.382876
0.373113
0.366082
0.362181
0.357939
0.357684
0.355635
0.356951
0.360429
0.364042
0.365243
0.36798
2.59958
2.59956
2.59969
2.59997
2.60032
2.60084
2.60156
2.60236
2.6034
2.60478
2.60629
2.60797
2.61032
2.61292
2.61557
2.61882
2.62292
2.6272
2.63168
2.63699
2.64299
2.64878
2.65602
2.6649
2.67261
2.67888
2.68634
2.6979
2.71223
2.72261
2.73211
2.73785
2.74528
2.75329
2.77048
2.78271
2.79135
2.79564
2.79797
2.79964
2.797
2.78331
2.59534
1.73577
1.12172
1.11643
1.12369
1.12444
1.1303
1.13537
1.13846
1.15107
1.15554
1.13108
1.10902
0.963151
0.866857
0.775444
0.702857
0.668993
0.60933
0.563185
0.514878
0.47973
0.450114
0.424128
0.411151
0.401927
0.395731
0.391059
0.386677
0.383096
0.382608
0.383245
0.386523
0.388244
0.388209
0.389564
0.389689
0.393414
0.395011
0.399357
0.403
0.404641
0.408956
0.41183
0.417957
0.423315
0.431908
0.439398
0.447268
0.454053
0.460151
0.464964
0.468078
0.469954
0.470749
0.470728
0.470042
0.468207
0.464708
0.459223
0.451525
0.441688
0.429771
0.41631
0.402541
0.39033
0.38155
0.375264
0.37195
0.367989
0.367666
0.365939
0.367498
0.369959
0.372647
0.3734
0.375355
2.59954
2.59952
2.59967
2.59992
2.60027
2.60078
2.60149
2.60226
2.60328
2.60464
2.60613
2.60775
2.6101
2.61268
2.61521
2.61841
2.62264
2.62692
2.63112
2.63615
2.64245
2.64886
2.65576
2.66383
2.67154
2.67805
2.68598
2.69947
2.71219
2.72183
2.7306
2.73438
2.74193
2.75114
2.77174
2.7819
2.78899
2.7944
2.79978
2.80681
2.81562
2.8136
2.66341
1.39243
1.09486
1.09885
1.10131
1.10501
1.11179
1.11307
1.11375
1.11692
1.11053
1.0657
1.01855
0.823247
0.703635
0.568564
0.510329
0.480145
0.452291
0.433199
0.418037
0.408908
0.402462
0.395768
0.390774
0.389351
0.386079
0.389867
0.392725
0.393022
0.393722
0.392519
0.39207
0.394459
0.395242
0.397602
0.39828
0.401746
0.403544
0.407783
0.411126
0.413229
0.417215
0.41996
0.425453
0.429922
0.437318
0.443344
0.450222
0.456454
0.46211
0.466526
0.469246
0.471043
0.471715
0.471541
0.470648
0.46873
0.465336
0.460326
0.453364
0.444478
0.433854
0.421784
0.409208
0.39803
0.390208
0.384364
0.381266
0.377596
0.377502
0.376463
0.377966
0.379198
0.381029
0.381315
0.382536
2.59952
2.59949
2.59962
2.59987
2.60021
2.60071
2.60141
2.60218
2.60315
2.60447
2.60595
2.60753
2.60985
2.61238
2.61484
2.61804
2.62227
2.62637
2.6304
2.63551
2.64209
2.64862
2.65501
2.66238
2.67039
2.67792
2.68618
2.69915
2.7109
2.72027
2.72881
2.7321
2.74012
2.75149
2.77128
2.78122
2.78791
2.79418
2.80201
2.81109
2.82533
2.75118
2.49295
1.25591
1.1012
1.09073
1.0845
1.0824
1.08456
1.0813
1.07624
1.07732
1.0362
0.954288
0.865267
0.639804
0.501289
0.417968
0.401735
0.397668
0.398777
0.39741
0.396051
0.393995
0.393089
0.394787
0.397433
0.397906
0.399065
0.397077
0.399911
0.40102
0.403322
0.404182
0.403981
0.405612
0.406759
0.409065
0.409435
0.412326
0.41372
0.417041
0.419849
0.421847
0.425308
0.427291
0.43206
0.435471
0.441862
0.447229
0.453927
0.460163
0.465438
0.469153
0.471754
0.473459
0.473974
0.473525
0.472273
0.470261
0.467093
0.462416
0.456016
0.447982
0.438504
0.427652
0.416309
0.40623
0.39916
0.393545
0.390462
0.387041
0.387167
0.386704
0.387826
0.388125
0.389223
0.389225
0.389885
2.59947
2.59944
2.59957
2.59981
2.60015
2.60062
2.6013
2.60207
2.60299
2.60429
2.60575
2.60729
2.60953
2.612
2.61443
2.61762
2.62176
2.62563
2.62958
2.63505
2.6416
2.64777
2.65353
2.6608
2.66967
2.67825
2.68629
2.69672
2.70878
2.7184
2.7271
2.73253
2.74075
2.75145
2.76901
2.77861
2.78576
2.79178
2.79701
2.79552
2.7888
2.61649
1.99414
1.13974
1.08706
1.0784
1.07284
1.06932
1.06836
1.05707
1.043
1.02435
0.924479
0.795651
0.646093
0.463245
0.383754
0.3656
0.376625
0.383503
0.39047
0.396553
0.401301
0.404176
0.406172
0.40536
0.407675
0.408993
0.412727
0.413117
0.415668
0.416313
0.417068
0.418149
0.41729
0.417107
0.417633
0.419181
0.419185
0.421311
0.422397
0.424876
0.427556
0.429585
0.433257
0.435439
0.439941
0.442839
0.448475
0.453127
0.458973
0.464023
0.468467
0.471797
0.474355
0.475804
0.476041
0.475361
0.473869
0.471772
0.468718
0.46437
0.458721
0.451586
0.443124
0.433529
0.423554
0.414672
0.4083
0.402815
0.399566
0.396394
0.396633
0.396377
0.397155
0.396933
0.397262
0.396714
0.39669
2.59942
2.5994
2.59952
2.59975
2.60009
2.60054
2.60118
2.60195
2.60283
2.60408
2.60552
2.60704
2.60913
2.6116
2.614
2.6171
2.62111
2.62486
2.62875
2.63451
2.6408
2.64638
2.65184
2.6594
2.66923
2.67809
2.68521
2.69346
2.70446
2.71634
2.72606
2.73556
2.74212
2.75123
2.76036
2.77451
2.78579
2.79416
2.80131
2.79997
2.79523
2.58386
1.61984
1.05078
1.06318
1.06669
1.06616
1.06186
1.05624
1.03008
0.988013
0.940038
0.765544
0.614823
0.455599
0.378229
0.358662
0.374608
0.385252
0.396506
0.405146
0.411085
0.414973
0.418136
0.421469
0.423271
0.425053
0.425388
0.428085
0.428547
0.42948
0.43012
0.429056
0.430412
0.431177
0.431381
0.431612
0.433011
0.432808
0.434081
0.434814
0.436242
0.43862
0.439914
0.443053
0.444507
0.448101
0.449969
0.454336
0.458367
0.464316
0.469603
0.473703
0.47701
0.479446
0.480605
0.480567
0.479527
0.477625
0.475373
0.47238
0.46821
0.462886
0.456289
0.448641
0.440081
0.431257
0.423453
0.417827
0.412413
0.408747
0.40559
0.405636
0.405595
0.406061
0.405353
0.405156
0.404371
0.404155
2.59937
2.59935
2.59946
2.59969
2.60003
2.60044
2.60106
2.60182
2.60265
2.60384
2.60528
2.60675
2.60868
2.61111
2.61356
2.61643
2.62027
2.62407
2.62795
2.63352
2.63952
2.64484
2.65022
2.65816
2.66851
2.6769
2.68336
2.68997
2.69918
2.71487
2.72658
2.73673
2.7455
2.75088
2.75808
2.76499
2.786
2.79906
2.81692
2.83848
2.82061
2.67136
1.29102
1.06574
1.06096
1.06015
1.05926
1.05116
1.04183
0.98735
0.882332
0.78823
0.581379
0.44289
0.379516
0.361756
0.381386
0.392472
0.406626
0.416957
0.424956
0.430832
0.434487
0.436259
0.437564
0.439078
0.440329
0.440414
0.44227
0.44375
0.445284
0.447533
0.446753
0.448239
0.449068
0.448638
0.446655
0.446259
0.444906
0.444977
0.44524
0.445603
0.447544
0.447975
0.450885
0.452612
0.4565
0.458723
0.462891
0.466246
0.470995
0.474498
0.477929
0.48096
0.483145
0.484116
0.484015
0.482807
0.480951
0.478889
0.475994
0.47207
0.467206
0.46126
0.454253
0.446506
0.438783
0.431922
0.427121
0.421969
0.418006
0.414787
0.414575
0.414798
0.415113
0.414064
0.413166
0.411967
0.411131
2.59931
2.59929
2.5994
2.59962
2.59993
2.60033
2.60091
2.60166
2.60247
2.60356
2.60499
2.60641
2.60819
2.61057
2.61303
2.61569
2.6193
2.62321
2.62709
2.63203
2.63789
2.64345
2.64884
2.6566
2.66678
2.6749
2.68137
2.68721
2.69555
2.71386
2.72661
2.73729
2.74604
2.75312
2.75779
2.76514
2.77961
2.79624
2.79925
2.79488
2.65043
2.18549
1.15771
1.06989
1.06476
1.06137
1.0507
1.02817
0.986124
0.907547
0.728029
0.58184
0.432744
0.383059
0.368643
0.389566
0.400386
0.415281
0.426388
0.435352
0.442136
0.447093
0.450467
0.452814
0.453591
0.454843
0.45617
0.456825
0.458285
0.45953
0.459971
0.462177
0.461903
0.463827
0.464455
0.465203
0.463734
0.463721
0.462339
0.461307
0.460892
0.460594
0.461303
0.460575
0.462202
0.462591
0.465389
0.466898
0.47041
0.473002
0.477811
0.481955
0.486031
0.48904
0.490856
0.491587
0.49129
0.489603
0.487384
0.48503
0.481738
0.477644
0.47291
0.467155
0.460557
0.453411
0.446548
0.440448
0.436354
0.431115
0.427035
0.423895
0.423398
0.42366
0.423647
0.422161
0.420597
0.41928
0.418452
2.59925
2.59923
2.59934
2.59953
2.59986
2.60022
2.60077
2.60149
2.60226
2.60328
2.60464
2.60605
2.60767
2.60998
2.61238
2.6149
2.61816
2.6221
2.62605
2.63026
2.63593
2.6418
2.64751
2.6544
2.6636
2.67162
2.67964
2.68552
2.69462
2.71148
2.72477
2.73586
2.74541
2.75484
2.75967
2.76852
2.77863
2.79586
2.79892
2.78546
2.58338
1.66031
1.05718
1.05861
1.06071
1.05259
1.02466
0.985432
0.862086
0.752545
0.548695
0.42656
0.386704
0.375849
0.396586
0.406753
0.421766
0.433281
0.442931
0.450608
0.456428
0.460769
0.46385
0.466268
0.467894
0.469159
0.470751
0.471343
0.472796
0.473796
0.473925
0.475642
0.475693
0.477936
0.478285
0.480135
0.478835
0.479251
0.478103
0.474856
0.473049
0.472151
0.471864
0.471009
0.472269
0.472271
0.47518
0.477417
0.481387
0.483492
0.485745
0.488326
0.491536
0.494067
0.495669
0.49634
0.495884
0.493837
0.491492
0.489362
0.486243
0.482399
0.478023
0.473056
0.467205
0.460638
0.454314
0.448685
0.444997
0.43992
0.435954
0.433054
0.432449
0.432795
0.432496
0.430734
0.428434
0.426704
0.425509
2.59919
2.59917
2.59928
2.59945
2.59975
2.60011
2.60061
2.6013
2.60206
2.60298
2.60425
2.60564
2.60715
2.6093
2.61164
2.61396
2.61699
2.62091
2.62463
2.62851
2.63363
2.63984
2.64586
2.65181
2.65896
2.66812
2.67683
2.68546
2.69417
2.70506
2.7193
2.73276
2.7451
2.75755
2.7691
2.77773
2.7893
2.80862
2.83666
2.83196
2.6894
1.3258
1.05778
1.05466
1.05077
1.03687
0.96868
0.897845
0.699261
0.548012
0.422797
0.389114
0.385433
0.403575
0.414176
0.4275
0.438774
0.448664
0.456795
0.463316
0.468384
0.472282
0.475282
0.477549
0.479701
0.481312
0.48329
0.484469
0.485486
0.486963
0.487264
0.488744
0.488897
0.490954
0.490954
0.493421
0.492919
0.494083
0.494249
0.492325
0.490486
0.489045
0.487352
0.485724
0.485396
0.4839
0.484714
0.485751
0.489221
0.491448
0.493788
0.496766
0.500479
0.503304
0.505003
0.505478
0.504656
0.502251
0.499652
0.497395
0.494163
0.490281
0.485991
0.481105
0.475394
0.469021
0.46281
0.457336
0.453666
0.448748
0.44507
0.442383
0.441597
0.441706
0.440667
0.438311
0.435414
0.433797
0.432686
2.59913
2.59911
2.59921
2.59936
2.59964
2.59999
2.60044
2.60107
2.60182
2.60265
2.60384
2.60517
2.60659
2.60849
2.61074
2.61299
2.6157
2.61945
2.62303
2.62653
2.63125
2.63763
2.64343
2.64833
2.6545
2.66445
2.67432
2.68403
2.69223
2.70052
2.71017
2.7291
2.74577
2.76268
2.77771
2.79098
2.80166
2.8078
2.80847