/*--------------------------------*- C++ -*----------------------------------*\
| =========                 |                                                 |
| \\      /  F ield         | OpenFOAM: The Open Source CFD Toolbox           |
|  \\    /   O peration     | Version:  2.2.x                                 |
|   \\  /    A nd           | Web:      www.OpenFOAM.org                      |
|    \\/     M anipulation  |                                                 |
\*---------------------------------------------------------------------------*/
FoamFile
{
    version     2.0;
    format      ascii;
    class       volScalarField;
    location    "0.9";
    object      Ma;
}
// * * * * * * * * * * * * * * * * * * * * * * * * * * * * * * * * * * * * * //

dimensions      [0 0 0 0 0 0 0];

internalField   nonuniform List<scalar> 
14161
(
2.60051
2.60029
2.60056
2.60087
2.6013
2.60184
2.6025
2.60328
2.6042
2.60529
2.6065
2.6079
2.60945
2.61117
2.61312
2.61512
2.61736
2.61981
2.62221
2.62482
2.62773
2.63048
2.63316
2.63627
2.63933
2.64217
2.64496
2.64796
2.65085
2.6531
2.65551
2.65861
2.6609
2.6625
2.6635
2.66413
2.66481
2.6652
2.66499
2.66378
2.66143
2.65957
2.65561
2.64985
2.64336
2.63668
2.62933
2.62065
2.60851
2.59064
2.56932
2.53805
2.52946
1.5051
0.595936
0.489575
0.482115
0.504155
0.528465
0.566186
0.601587
0.64088
0.677216
0.711854
0.746563
0.777661
0.810199
0.838764
0.862915
0.886355
0.908029
0.92753
0.943179
0.955096
0.962647
0.968461
0.972655
0.978695
0.983253
0.987042
0.975891
0.995263
1.00114
1.00489
1.00316
1.01874
1.02382
1.02893
1.03386
1.03246
1.05134
1.05859
1.07192
1.08205
1.0942
1.09874
1.07849
1.01176
0.860547
0.720991
0.59218
0.496726
0.427502
0.375178
0.333454
0.299429
0.270458
0.245321
0.222353
0.20086
0.180129
0.159855
0.139521
0.11915
0.0983949
0.0773609
0.05662
0.0360296
0.0214668
2.60052
2.60029
2.60056
2.60087
2.6013
2.60184
2.6025
2.60328
2.6042
2.60529
2.6065
2.6079
2.60945
2.61118
2.61311
2.61512
2.61736
2.61982
2.6222
2.62484
2.62772
2.63044
2.63317
2.63632
2.6393
2.64207
2.645
2.6481
2.65075
2.653
2.65566
2.65875
2.66089
2.66247
2.66359
2.66428
2.66497
2.66533
2.66526
2.66373
2.66127
2.65891
2.65514
2.65068
2.64595
2.64016
2.6327
2.62113
2.60767
2.58973
2.56975
2.53007
2.50406
1.44576
0.586062
0.485531
0.47922
0.504563
0.532316
0.572218
0.60803
0.645634
0.680749
0.714682
0.74937
0.781408
0.813338
0.843883
0.869691
0.895469
0.917848
0.936478
0.951371
0.96232
0.969528
0.975312
0.979328
0.985265
0.989358
0.992196
0.981715
1.00154
1.00757
1.01042
1.00871
1.02452
1.03015
1.03516
1.04015
1.03864
1.05704
1.06314
1.0725
1.08002
1.08668
1.0813
1.03661
0.932657
0.78318
0.645978
0.532151
0.452287
0.394527
0.349497
0.312675
0.282125
0.255631
0.232347
0.210853
0.190607
0.170947
0.151689
0.132753
0.113876
0.095757
0.0772971
0.0605907
0.0440863
0.0397078
2.60051
2.60029
2.60056
2.60087
2.6013
2.60184
2.6025
2.60328
2.6042
2.60527
2.6065
2.6079
2.60945
2.61117
2.61307
2.61513
2.6174
2.61981
2.62218
2.62487
2.62769
2.63043
2.63321
2.63635
2.6392
2.64202
2.64513
2.64813
2.6506
2.65305
2.65586
2.65883
2.66096
2.66263
2.66384
2.66454
2.6653
2.66575
2.66603
2.66472
2.66277
2.66095
2.65821
2.65417
2.64941
2.64346
2.63592
2.62769
2.61596
2.60204
2.58429
2.55129
2.52449
1.48375
0.589268
0.49412
0.486988
0.524377
0.554984
0.597048
0.634853
0.671402
0.707038
0.739063
0.772878
0.804401
0.834267
0.864103
0.887226
0.913706
0.93407
0.9526
0.9673
0.977849
0.984318
0.989386
0.993097
0.998558
1.00238
1.00458
0.995285
1.01393
1.01995
1.0224
1.02156
1.03594
1.0417
1.04626
1.05105
1.04875
1.06455
1.06813
1.0732
1.06933
1.07165
1.02857
0.95263
0.819283
0.69091
0.576264
0.489052
0.425208
0.374713
0.334271
0.300328
0.271619
0.246334
0.22392
0.203227
0.183653
0.165137
0.147408
0.130528
0.113598
0.0986869
0.0833454
0.0716879
0.0595581
0.0609998
2.60051
2.60029
2.60056
2.60087
2.6013
2.60184
2.60249
2.60328
2.60419
2.60526
2.6065
2.60789
2.60945
2.61117
2.61306
2.61512
2.61741
2.61975
2.62217
2.6249
2.62767
2.63038
2.63334
2.63631
2.63907
2.642
2.64533
2.6482
2.65052
2.65309
2.65602
2.65888
2.66115
2.66292
2.66421
2.66498
2.66589
2.66662
2.66725
2.66669
2.66539
2.66429
2.66225
2.65901
2.65447
2.64934
2.6439
2.63934
2.6305
2.61916
2.60608
2.58078
2.53497
1.64127
0.618577
0.509897
0.50838
0.55987
0.59721
0.640762
0.67958
0.714494
0.752701
0.781865
0.814909
0.843574
0.873671
0.902307
0.921853
0.948251
0.965577
0.98347
0.996467
1.00663
1.01207
1.01582
1.01895
1.02391
1.02747
1.02971
1.02124
1.03758
1.04322
1.04581
1.0457
1.05746
1.06272
1.0655
1.06688
1.0637
1.07493
1.0704
1.0722
1.03709
1.02006
0.920571
0.799149
0.67537
0.576412
0.510668
0.451194
0.399433
0.355047
0.319061
0.288394
0.262052
0.238611
0.217524
0.198023
0.179942
0.162957
0.146503
0.131704
0.116606
0.104968
0.0927062
0.0854972
0.0764575
0.0808757
2.60051
2.60029
2.60056
2.60087
2.6013
2.60183
2.60249
2.60327
2.60419
2.60526
2.60649
2.60787
2.60944
2.61118
2.61304
2.61512
2.61741
2.61968
2.62216
2.6249
2.62761
2.63035
2.63341
2.63629
2.63896
2.64201
2.64542
2.64824
2.6505
2.65315
2.65613
2.65907
2.66149
2.66337
2.66474
2.66564
2.66667
2.66779
2.66868
2.66924
2.66851
2.66806
2.66683
2.66487
2.66147
2.65878
2.65652
2.65477
2.64936
2.64571
2.64164
2.64174
2.604
1.99862
0.681829
0.525701
0.549139
0.61645
0.663653
0.707129
0.747646
0.777551
0.816117
0.843043
0.877406
0.89842
0.932763
0.953634
0.977181
0.999017
1.01101
1.02887
1.03946
1.05023
1.05412
1.05615
1.05752
1.06184
1.06422
1.06646
1.05768
1.06942
1.07343
1.07643
1.07564
1.08275
1.08467
1.08429
1.08204
1.07573
1.079
1.05209
1.04178
0.971277
0.902277
0.768489
0.650958
0.562386
0.51109
0.466993
0.424806
0.380945
0.340514
0.307607
0.279638
0.255284
0.233511
0.214102
0.196106
0.179119
0.163586
0.148658
0.135903
0.122531
0.113847
0.104138
0.100232
0.0933173
0.0995621
2.6005
2.60029
2.60055
2.60086
2.60129
2.60181
2.60247
2.60327
2.60418
2.60525
2.60648
2.60786
2.60943
2.61117
2.61301
2.61511
2.61737
2.61961
2.62215
2.62489
2.62753
2.63034
2.63345
2.63621
2.63889
2.64208
2.64539
2.64823
2.65062
2.65328
2.65621
2.65928
2.66178
2.66375
2.66531
2.66665
2.66776
2.66915
2.67035
2.6714
2.67261
2.67315
2.67319
2.67305
2.67187
2.67167
2.67245
2.67326
2.67454
2.67718
2.68546
2.71661
2.71984
2.69176
0.810781
0.551678
0.618756
0.695738
0.755775
0.79748
0.834312
0.853688
0.893763
0.910984
0.948015
0.955727
0.996493
1.00573
1.03409
1.05057
1.0586
1.07593
1.08424
1.09562
1.0974
1.09787
1.09799
1.09987
1.10029
1.10117
1.09115
1.09724
1.0984
1.10199
1.09701
1.09785
1.09448
1.08973
1.08687
1.06083
1.05379
0.998523
0.953685
0.842329
0.729534
0.620251
0.540701
0.50077
0.473411
0.439476
0.405357
0.365689
0.329685
0.299439
0.273355
0.250836
0.230838
0.212658
0.196065
0.180561
0.16665
0.153166
0.142416
0.130626
0.124407
0.116674
0.115164
0.10977
0.117098
2.6005
2.60028
2.60055
2.60086
2.60129
2.60181
2.60246
2.60324
2.60418
2.60524
2.60647
2.60785
2.6094
2.61115
2.61299
2.6151
2.61734
2.61956
2.62217
2.62483
2.62743
2.63041
2.63345
2.63612
2.63884
2.64215
2.64535
2.64827
2.65082
2.65345
2.65635
2.65952
2.66191
2.66408
2.66615
2.66814
2.66956
2.67089
2.67224
2.67354
2.67644
2.67827
2.68028
2.68155
2.68288
2.68469
2.68823
2.69287
2.6953
2.7027
2.71406
2.73752
2.74718
2.71975
1.11734
0.592249
0.694084
0.787448
0.849967
0.88457
0.915897
0.924258
0.967209
0.96475
1.00434
1.00439
1.04059
1.0516
1.06631
1.08682
1.09632
1.1081
1.11573
1.1254
1.12654
1.1254
1.12501
1.12386
1.12282
1.12018
1.11229
1.1126
1.11017
1.11606
1.10334
1.09674
1.09029
1.07123
1.06429
1.01215
0.976076
0.884752
0.787353
0.681773
0.582911
0.52134
0.490894
0.470665
0.447997
0.422334
0.390033
0.355068
0.321917
0.294052
0.269813
0.248533
0.229617
0.212602
0.197293
0.183066
0.170813
0.158819
0.149964
0.139686
0.135548
0.129469
0.129805
0.125673
0.133629
2.60049
2.60026
2.60053
2.60084
2.60127
2.6018
2.60246
2.60324
2.60416
2.60523
2.60644
2.60783
2.60938
2.6111
2.61297
2.61507
2.61724
2.61954
2.62216
2.62476
2.62736
2.63046
2.63338
2.63607
2.63884
2.64221
2.64534
2.64832
2.651
2.65369
2.65665
2.65963
2.66204
2.66463
2.66718
2.66953
2.67139
2.67266
2.67434
2.67624
2.67994
2.68294
2.68637
2.68997
2.6938
2.69806
2.70365
2.71092
2.71511
2.72634
2.7443
2.77726
2.80478
2.79733
1.86525
0.731187
0.774024
0.868223
0.923917
0.945947
0.977415
0.977921
1.01117
1.00861
1.03453
1.04606
1.06167
1.08317
1.08478
1.11412
1.12339
1.13031
1.13746
1.14513
1.14416
1.14156
1.13891
1.13583
1.13193
1.12671
1.12275
1.11582
1.10952
1.1163
1.09242
1.07683
1.06507
1.01958
0.987659
0.902985
0.821145
0.71926
0.620586
0.544952
0.50181
0.482131
0.467706
0.453251
0.432517
0.409344
0.378541
0.346931
0.316249
0.290623
0.268205
0.248632
0.2312
0.215324
0.201165
0.188042
0.177172
0.166338
0.158903
0.149842
0.147276
0.142436
0.144059
0.14097
0.149285
2.60047
2.60026
2.60052
2.60083
2.60126
2.60179
2.60245
2.60322
2.60413
2.6052
2.60642
2.60779
2.60935
2.61103
2.61296
2.61502
2.61713
2.61955
2.62213
2.62461
2.62738
2.63042
2.6333
2.636
2.63888
2.64222
2.64532
2.64835
2.65115
2.65399
2.65693
2.65963
2.66222
2.66542
2.66822
2.67069
2.67244
2.67423
2.6767
2.6796
2.6838
2.68743
2.69105
2.69569
2.70113
2.70769
2.71526
2.72292
2.72798
2.73931
2.75463
2.78148
2.77837
2.68165
1.91586
1.00876
0.885644
0.890003
0.951027
0.964755
1.00741
1.00133
1.03272
1.03614
1.05003
1.07056
1.06477
1.10509
1.10524
1.12798
1.13945
1.14509
1.15175
1.15854
1.15328
1.1501
1.14389
1.1397
1.13192
1.12499
1.12284
1.10728
1.09367
1.09611
1.05418
1.01802
0.988708
0.905393
0.835012
0.73546
0.642333
0.562223
0.507452
0.48305
0.472343
0.464754
0.455765
0.440662
0.423344
0.399471
0.370718
0.340911
0.312741
0.288596
0.267376
0.248814
0.232452
0.217718
0.204892
0.193084
0.183826
0.174323
0.168296
0.160415
0.159162
0.155336
0.157922
0.155713
0.164189
2.60046
2.60025
2.60052
2.60083
2.60125
2.60178
2.60244
2.60321
2.60412
2.60518
2.60638
2.60777
2.60932
2.61098
2.61292
2.61494
2.61706
2.61956
2.62203
2.62448
2.62739
2.63033
2.63315
2.63593
2.63892
2.64223
2.64526
2.64828
2.6513
2.65442
2.65701
2.6596
2.66267
2.66615
2.66903
2.67151
2.67318
2.67588
2.679
2.68363
2.68716
2.69108
2.69566
2.70027
2.70758
2.71468
2.72531
2.73454
2.74309
2.75485
2.78061
2.83409
2.88499
2.7943
2.10238
1.23053
1.05314
0.939655
0.94395
0.933187
1.00605
1.00302
1.02696
1.045
1.03989
1.07912
1.08012
1.10473
1.1198
1.12791
1.14408
1.15065
1.1573
1.15939
1.15253
1.14758
1.13902
1.13514
1.12052
1.10915
1.10103
1.07533
1.04593
1.02661
0.959653
0.893627
0.83285
0.730669
0.644241
0.56711
0.510191
0.481552
0.468611
0.462961
0.459582
0.455384
0.445582
0.433174
0.415519
0.39248
0.364745
0.336382
0.311043
0.289257
0.269843
0.252635
0.237249
0.223291
0.21126
0.200235
0.192026
0.183441
0.178366
0.171369
0.171027
0.167995
0.171359
0.169939
0.178415
2.60045
2.60025
2.60051
2.60082
2.60124
2.60177
2.60241
2.60318
2.6041
2.60514
2.60636
2.60772
2.60925
2.61093
2.61286
2.61483
2.61701
2.61948
2.62192
2.6244
2.62736
2.63022
2.63299
2.63582
2.63907
2.64219
2.64513
2.64823
2.6516
2.65457
2.65694
2.65969
2.66354
2.66675
2.6695
2.67188
2.67431
2.6776
2.68235
2.68621
2.68967
2.6932
2.69719
2.7008
2.706
2.71342
2.72048
2.72968
2.73506
2.74351
2.7534
2.75807
2.67265
2.74591
1.50463
1.23263
1.13042
1.0043
0.928073
0.907434
0.970363
0.990028
1.00731
1.03145
1.03217
1.06686
1.08575
1.09174
1.11776
1.12516
1.1363
1.14399
1.14652
1.14547
1.13777
1.12744
1.11474
1.10641
1.08206
1.05732
1.0305
0.991694
0.933249
0.874573
0.794954
0.71026
0.63342
0.557254
0.503158
0.474398
0.462118
0.459519
0.459497
0.457022
0.453993
0.448218
0.439371
0.42696
0.409515
0.387298
0.360968
0.334097
0.309887
0.289109
0.270803
0.254699
0.240416
0.227602
0.216773
0.206895
0.200009
0.192501
0.188396
0.182268
0.182697
0.180363
0.184354
0.183618
0.191935
2.60045
2.60024
2.6005
2.60081
2.60123
2.60174
2.60239
2.60316
2.60406
2.60511
2.60631
2.60767
2.60919
2.61088
2.61275
2.61476
2.61695
2.61936
2.62181
2.62431
2.62721
2.63009
2.63283
2.63577
2.63915
2.64208
2.64498
2.64831
2.6517
2.65451
2.6571
2.66019
2.66409
2.6671
2.66989
2.67219
2.67529
2.6799
2.68408
2.68792
2.69122
2.69429
2.69784
2.70111
2.70482
2.70973
2.71512
2.72183
2.72684
2.7309
2.73333
2.72957
2.6
1.99844
1.27381
1.22719
1.18078
1.1411
0.949872
0.931331
0.920064
0.963084
0.991719
1.00537
1.03008
1.04322
1.07377
1.07208
1.10813
1.10692
1.11789
1.12423
1.11875
1.11007
1.10253
1.0796
1.05849
1.03245
0.996368
0.945493
0.881019
0.831717
0.745907
0.667897
0.599659
0.536784
0.490885
0.466008
0.457666
0.453889
0.452749
0.452927
0.454382
0.453406
0.449714
0.443275
0.434652
0.42179
0.404635
0.382905
0.358164
0.333846
0.31225
0.293159
0.275923
0.260575
0.246943
0.234685
0.224394
0.215113
0.208981
0.202171
0.198688
0.193221
0.194199
0.192414
0.196885
0.196772
0.20486
2.60043
2.60023
2.60049
2.60078
2.6012
2.60173
2.60237
2.60312
2.60402
2.60506
2.60626
2.60761
2.60913
2.61081
2.61264
2.61468
2.61687
2.61923
2.62168
2.62422
2.62707
2.62988
2.63266
2.63586
2.63904
2.64194
2.64488
2.64846
2.6516
2.65435
2.6573
2.66098
2.66439
2.66744
2.66983
2.67267
2.67619
2.68095
2.68485
2.68862
2.69173
2.69464
2.69735
2.69905
2.70144
2.70546
2.70892
2.7175
2.72295
2.72947
2.73453
2.7266
2.6702
1.51827
1.21979
1.21837
1.22059
1.1838
1.07369
0.994774
0.930328
0.946657
0.978646
0.97932
1.01774
1.01702
1.05512
1.04437
1.09575
1.08198
1.08795
1.08466
1.07185
1.04926
1.02794
0.987533
0.944714
0.885719
0.836975
0.756279
0.682617
0.622929
0.556672
0.506469
0.473112
0.456952
0.450614
0.445658
0.44659
0.4517
0.454315
0.454289
0.453827
0.451715
0.447051
0.440774
0.431096
0.418001
0.400967
0.380066
0.356522
0.333244
0.312765
0.294904
0.278808
0.264477
0.251842
0.240545
0.231188
0.22282
0.217664
0.21166
0.208826
0.204016
0.205466
0.204141
0.208959
0.209406
0.217202
2.60041
2.6002
2.60046
2.60077
2.60119
2.60169
2.60233
2.60309
2.60399
2.60501
2.6062
2.60754
2.60904
2.61073
2.61253
2.61454
2.61677
2.61905
2.62146
2.62414
2.62693
2.62963
2.63255
2.63585
2.63882
2.64178
2.64502
2.64836
2.65131
2.65435
2.65777
2.66143
2.66463
2.66748
2.66993
2.67294
2.67691
2.68132
2.68526
2.68887
2.69206
2.69423
2.69618
2.69701
2.69908
2.70098
2.70554
2.71236
2.71446
2.71629
2.71819
2.65691
2.54232
1.36187
1.21055
1.20567
1.21166
1.19628
1.14714
1.09394
1.00155
0.931486
0.955777
0.948768
0.993644
0.981908
1.0283
1.01536
1.0491
1.03675
1.02916
1.00005
0.97401
0.930167
0.879958
0.83079
0.759092
0.690549
0.628601
0.565521
0.511972
0.479242
0.457016
0.449271
0.445437
0.439734
0.444867
0.449278
0.451928
0.453285
0.454853
0.454269
0.452935
0.449587
0.445168
0.438279
0.428273
0.414911
0.398087
0.378316
0.357054
0.336366
0.317337
0.300397
0.285001
0.271243
0.259164
0.248298
0.239383
0.231532
0.226944
0.221474
0.219086
0.2148
0.21656
0.21558
0.2206
0.221519
0.228989
2.60039
2.60019
2.60045
2.60075
2.60117
2.60167
2.60229
2.60305
2.60394
2.60495
2.60613
2.60745
2.60896
2.61063
2.61241
2.61441
2.61664
2.61886
2.62128
2.62403
2.62671
2.62939
2.63259
2.6356
2.6385
2.64168
2.64518
2.64811
2.65099
2.65431
2.65822
2.66167
2.66468
2.66728
2.67029
2.67366
2.67793
2.68167
2.6851
2.68842
2.69142
2.69345
2.69511
2.69589
2.69795
2.70024
2.70169
2.70399
2.70314
2.69953
2.69572
2.55611
2.11834
1.239
1.17711
1.17406
1.17962
1.1821
1.17072
1.15308
1.08069
0.955125
0.94268
0.894738
0.948154
0.933807
0.96862
0.962713
0.969821
0.940876
0.91171
0.863487
0.810227
0.751975
0.686177
0.62933
0.567592
0.518193
0.482249
0.459214
0.445986
0.443005
0.43827
0.436534
0.444494
0.447083
0.449713
0.452013
0.454701
0.455858
0.456471
0.455793
0.453386
0.449927
0.44455
0.436884
0.42648
0.413198
0.396698
0.37728
0.356685
0.337331
0.319635
0.303853
0.289507
0.276595
0.265361
0.255238
0.247056
0.239928
0.236014
0.231093
0.22919
0.225419
0.227429
0.226716
0.231834
0.233161
0.240276
2.60038
2.60018
2.60044
2.60072
2.60113
2.60163
2.60227
2.603
2.60388
2.60489
2.60606
2.60737
2.60885
2.61051
2.61228
2.61427
2.61646
2.61866
2.62116
2.62383
2.62643
2.62927
2.63242
2.63526
2.63821
2.64182
2.64506
2.64782
2.6508
2.65465
2.65839
2.6616
2.6643
2.6672
2.6707
2.67499
2.6785
2.68157
2.68437
2.68688
2.68975
2.6923
2.69432
2.69588
2.69748
2.69962
2.70189
2.70388
2.70711
2.70663
2.70738
2.54383
1.73694
1.13341
1.14533
1.16012
1.16996
1.17951
1.17148
1.16529
1.11827
1.02898
0.900283
0.860084
0.848599
0.871384
0.862972
0.863832
0.828087
0.783928
0.731514
0.680212
0.620738
0.566232
0.519258
0.483953
0.46082
0.447025
0.441471
0.440602
0.432392
0.438913
0.444521
0.44637
0.448878
0.45165
0.454388
0.456852
0.458314
0.458798
0.458325
0.456671
0.453879
0.450012
0.444064
0.435996
0.425187
0.411887
0.396179
0.378683
0.359892
0.341729
0.324962
0.309914
0.296264
0.283844
0.273059
0.26329
0.255531
0.248863
0.245337
0.240803
0.239316
0.235995
0.238146
0.237609
0.2427
0.244311
0.251009
2.60037
2.60017
2.60041
2.6007
2.60111
2.60161
2.60222
2.60295
2.60382
2.60482
2.60597
2.60727
2.60873
2.61035
2.61212
2.61411
2.6162
2.61849
2.62097
2.62351
2.62614
2.62917
2.63209
2.63491
2.63812
2.64165
2.64472
2.64773
2.65095
2.65487
2.65817
2.66111
2.66396
2.6673
2.67188
2.6756
2.67868
2.68132
2.68288
2.68539
2.68799
2.69175
2.69436
2.69658
2.69903
2.70095
2.70428
2.70781
2.717
2.72948
2.72983
2.66001
1.37633
1.14254
1.13973
1.14768
1.15608
1.16877
1.16517
1.16032
1.14246
1.04999
0.874839
0.800685
0.732348
0.761635
0.71676
0.700806
0.647418
0.602491
0.55503
0.517978
0.485796
0.463732
0.448977
0.4414
0.438798
0.434038
0.434735
0.442454
0.444787
0.445055
0.449784
0.452713
0.455663
0.457837
0.4594
0.46071
0.461313
0.46097
0.459957
0.457797
0.454794
0.450545
0.444488
0.436236
0.425548
0.412309
0.396872
0.37957
0.361693
0.344793
0.32912
0.314967
0.302142
0.290383
0.280281
0.271042
0.263829
0.257662
0.254471
0.250311
0.249307
0.246439
0.248703
0.248298
0.25328
0.255084
0.261325
2.60033
2.60014
2.60039
2.60068
2.60108
2.60157
2.60217
2.60291
2.60376
2.60475
2.60588
2.60715
2.60861
2.6102
2.61199
2.61389
2.61598
2.61831
2.62068
2.62316
2.62597
2.62886
2.63162
2.63468
2.63808
2.64111
2.6442
2.64772
2.65136
2.6547
2.65744
2.66037
2.66378
2.66832
2.67235
2.67571
2.67862
2.68053
2.68215
2.68457
2.68744
2.69137
2.69404
2.69617
2.69767
2.69927
2.70077
2.70172
2.70255
2.70671
2.61869
2.40006
1.2797
1.15024
1.14179
1.13941
1.14053
1.14524
1.13395
1.12137
1.1114
0.970196
0.800876
0.687078
0.607331
0.599406
0.55369
0.538092
0.502985
0.479655
0.461578
0.450938
0.445807
0.440181
0.438195
0.434252
0.441102
0.444138
0.447267
0.448383
0.452914
0.455004
0.457109
0.459795
0.461696
0.463607
0.464503
0.465396
0.465272
0.464412
0.462543
0.459716
0.456128
0.4513
0.445121
0.437045
0.427123
0.41469
0.400132
0.383686
0.366523
0.350154
0.335133
0.321541
0.309285
0.297934
0.288275
0.279367
0.272567
0.266731
0.263683
0.259799
0.259217
0.256778
0.259118
0.258807
0.263594
0.265469
0.271238
2.60032
2.60012
2.60036
2.60065
2.60103
2.60153
2.60213
2.60283
2.60369
2.60465
2.60577
2.60703
2.60845
2.61003
2.61181
2.61364
2.61576
2.61805
2.62029
2.62288
2.62572
2.62836
2.63118
2.63465
2.6377
2.64044
2.64369
2.6479
2.65136
2.65432
2.65658
2.65965
2.66413
2.66871
2.67241
2.67548
2.67831
2.67991
2.68192
2.68423
2.68765
2.69115
2.69338
2.695
2.6962
2.69697
2.69749
2.69584
2.68912
2.67664
2.54191
1.84426
1.16178
1.14109
1.13918
1.13424
1.13102
1.127
1.10279
1.06389
1.02829
0.834898
0.671849
0.538304
0.474816
0.461276
0.449857
0.446284
0.442446
0.439815
0.438155
0.436061
0.437703
0.44175
0.447465
0.447901
0.449896
0.451516
0.455851
0.457427
0.461006
0.463649
0.465955
0.467929
0.469482
0.470492
0.470184
0.470255
0.4691
0.467775
0.465463
0.462287
0.458332
0.453388
0.447089
0.438859
0.428677
0.416557
0.402729
0.387331
0.371247
0.355681
0.341333
0.328264
0.316584
0.305634
0.296411
0.287817
0.281439
0.275884
0.272898
0.269228
0.269011
0.266947
0.269351
0.269138
0.273727
0.275603
0.2809
2.60028
2.60009
2.60034
2.60061
2.60101
2.60148
2.60208
2.60277
2.6036
2.60455
2.60565
2.6069
2.60828
2.60986
2.61157
2.61341
2.61551
2.61771
2.61994
2.6226
2.62529
2.62787
2.63094
2.63427
2.63715
2.63995
2.64354
2.64765
2.65095
2.65378
2.65623
2.65938
2.66438
2.66853
2.67203
2.67516
2.67806
2.67986
2.68216
2.68467
2.68874
2.69171
2.69388
2.69577
2.69738
2.69931
2.70145
2.70444
2.70827
2.70561
2.60374
1.45009
1.13187
1.13147
1.13082
1.12377
1.1169
1.11108
1.06481
0.973073
0.893427
0.668424
0.514963
0.424646
0.404688
0.413462
0.419415
0.424985
0.430096
0.433254
0.439435
0.444467
0.449572
0.450329
0.455972
0.458233
0.463606
0.464712
0.467758
0.469082
0.471712
0.473567
0.474994
0.475439
0.476045
0.476722
0.475437
0.475076
0.474192
0.47272
0.470001
0.466205
0.461594
0.456123
0.449581
0.441488
0.431647
0.419917
0.406436
0.391696
0.37642
0.361568
0.347864
0.335273
0.324109
0.313516
0.304687
0.296399
0.290432
0.285092
0.282153
0.278678
0.278761
0.276965
0.279372
0.279282
0.283655
0.285485
0.290368
2.60026
2.60007
2.6003
2.60058
2.60096
2.60143
2.60202
2.6027
2.60351
2.60444
2.60553
2.60674
2.6081
2.60964
2.61129
2.61316
2.61517
2.61732
2.61967
2.62217
2.62475
2.62747
2.63052
2.63355
2.63662
2.63964
2.64319
2.64685
2.65021
2.6535
2.65629
2.6597
2.66355
2.6679
2.67153
2.67481
2.67795
2.68043
2.68279
2.68569
2.68973
2.69274
2.69541
2.69789
2.70035
2.70336
2.70681
2.71025
2.71517
2.64795
2.48651
1.30074
1.14222
1.13165
1.12889
1.11778
1.09811
1.08335
1.01279
0.846319
0.710812
0.505382
0.409697
0.383709
0.396427
0.405325
0.417766
0.427038
0.436099
0.442903
0.447583
0.451948
0.458212
0.462629
0.468273
0.472154
0.476419
0.478305
0.479686
0.479693
0.480958
0.48221
0.483606
0.484422
0.484869
0.485593
0.483784
0.482708
0.480565
0.478089
0.474741
0.470626
0.465772
0.460045
0.453178
0.444859
0.435005
0.423593
0.410688
0.396766
0.382405
0.368272
0.355185
0.342958
0.332196
0.321852
0.313333
0.305273
0.299623
0.294425
0.291511
0.288197
0.288478
0.286864
0.289228
0.289244
0.29343
0.295243
0.299813
2.60022
2.60003
2.60027
2.60054
2.60091
2.60138
2.60193
2.60262
2.60341
2.60432
2.60538
2.60656
2.60791
2.6094
2.61104
2.61286
2.61479
2.61694
2.6193
2.6217
2.62416
2.627
2.62994
2.6328
2.636
2.63931
2.64247
2.64572
2.64941
2.65297
2.65648
2.65942
2.6629
2.66682
2.67097
2.67453
2.67787
2.68098
2.68345
2.68673
2.68999
2.69355
2.69651
2.69904
2.7014
2.70295
2.70357
2.69985
2.69091
2.55524
1.96164
1.18519
1.14281
1.13581
1.12804
1.10626
1.06025
1.01523
0.898531
0.683307
0.517288
0.41116
0.382047
0.398428
0.408722
0.424119
0.434822
0.443405
0.450768
0.457301
0.462732
0.466735
0.471621
0.475749
0.480448
0.484346
0.488147
0.490827
0.492654
0.492972
0.493893
0.494587
0.495452
0.495439
0.493699
0.493439
0.491884
0.489427
0.487798
0.485249
0.481757
0.477057
0.471399
0.464938
0.457604
0.449174
0.439403
0.428193
0.415637
0.402224
0.388516
0.374982
0.362458
0.350594
0.340253
0.33022
0.322065
0.314279
0.308903
0.303815
0.300917
0.29775
0.298165
0.296672
0.298969
0.299081
0.303083
0.304875
0.309026
2.6002
2.60001
2.60023
2.60049
2.60086
2.60131
2.60186
2.60252
2.6033
2.60419
2.60523
2.60638
2.60769
2.60915
2.61076
2.61251
2.61441
2.6165
2.61878
2.62118
2.62358
2.6263
2.62917
2.63214
2.63541
2.6386
2.64144
2.64466
2.64869
2.65245
2.65615
2.65898
2.66233
2.66604
2.6704
2.67417
2.67776
2.68086
2.68351
2.68679
2.69141
2.69536
2.6988
2.70189
2.70519
2.70899
2.71657
2.72384
2.7207
2.60356
1.47341
1.14773
1.1366
1.12552
1.11496
1.08727
0.991276
0.894859
0.716959
0.515423
0.414874
0.386761
0.404496
0.413642
0.429643
0.441331
0.451521
0.459994
0.467088
0.472699
0.477548
0.480775
0.484238
0.487659
0.491731
0.495617
0.499522
0.502608
0.505216
0.505381
0.50615
0.505398
0.505675
0.50564
0.504232
0.504341
0.50293
0.500059
0.497527
0.493724
0.488792
0.483773
0.478285
0.471824
0.464312
0.455625
0.445675
0.434439
0.422043
0.408933
0.395622
0.38249
0.37039
0.358805
0.348785
0.338989
0.331138
0.323549
0.318344
0.313268
0.310335
0.307291
0.307792
0.306403
0.308629
0.308825
0.312619
0.314373
0.318297
2.60016
2.59997
2.6002
2.60046
2.6008
2.60125
2.60179
2.60242
2.60318
2.60406
2.60506
2.60618
2.60745
2.60886
2.61044
2.61214
2.61397
2.616
2.61822
2.62059
2.6229
2.62547
2.62836
2.63143
2.63462
2.63763
2.64047
2.64369
2.6478
2.65161
2.65538
2.65844
2.66198
2.66593
2.66993
2.6737
2.67733
2.68005
2.68341
2.68698
2.69304
2.69718
2.70172
2.70503
2.70858
2.71133
2.71176
2.71346
2.61754
2.44518
1.27793
1.14853
1.1378
1.11671
1.09085
1.04906
0.877338
0.72616
0.529971
0.424452
0.395714
0.414889
0.424794
0.440276
0.451742
0.461347
0.469398
0.476198
0.48225
0.48715
0.491433
0.494906
0.49769
0.500417
0.503665
0.506707
0.510101
0.512814
0.516034
0.516534
0.518473
0.518469
0.518701
0.518168
0.51551
0.514657
0.512545
0.509616
0.506037
0.502007
0.497869
0.493017
0.486901
0.479812
0.471629
0.462456
0.452223
0.440917
0.428627
0.415786
0.402832
0.390064
0.37836
0.367078
0.357385
0.347814
0.340258
0.332837
0.32776
0.322717
0.319769
0.316885
0.317431
0.316119
0.318232
0.318433
0.322034
0.323807
0.327466
2.60013
2.59995
2.60016
2.60041
2.60074
2.60116
2.60169
2.60233
2.60305
2.60389
2.60486
2.60596
2.60719
2.60856
2.61009
2.61173
2.61348
2.61546
2.61764
2.61992
2.62214
2.62464
2.62748
2.63051
2.63357
2.63647
2.63949
2.64292
2.64684
2.65056
2.6538
2.65739
2.66155
2.66599
2.66998
2.67373
2.67605
2.67884
2.68246
2.6863
2.69196
2.69556
2.69788
2.69953
2.70044
2.70006
2.69603
2.68518
2.5249
1.83487
1.13094
1.13263
1.12824
1.09211
1.02333
0.943937
0.709304
0.540735
0.43313
0.402842
0.423469
0.43414
0.450294
0.461812
0.471319
0.479065
0.485658
0.491317
0.496313
0.50068
0.50441
0.507832
0.510884
0.513132
0.515536
0.517647
0.520389
0.522377
0.525595
0.526188
0.52869
0.529056
0.52951
0.529401
0.527167
0.52594
0.52426
0.52131
0.517352
0.512917
0.507742
0.501608
0.494914
0.487545
0.479293
0.470083
0.459761
0.448337
0.43593
0.423135
0.410308
0.397885
0.386473
0.375459
0.366068
0.356791
0.349522
0.342267
0.337245
0.332216
0.329182
0.326431
0.326975
0.325749
0.327799
0.328071
0.331514
0.333264
0.336658
2.60009
2.5999
2.60011
2.60035
2.60068
2.60109
2.60161
2.60221
2.60292
2.60372
2.60466
2.60572
2.6069
2.60821
2.6097
2.61128
2.61294
2.61487
2.61697
2.6191
2.62124
2.62379
2.62652
2.6294
2.63223
2.63509
2.63846
2.64217
2.64582
2.64875
2.65196
2.65593
2.66123
2.66571
2.66964
2.67317
2.67483
2.67784
2.68175
2.68601
2.6927
2.69702
2.70144
2.706
2.71237
2.72395
2.73873
2.72619
2.64725
1.37364
1.14588
1.1301
1.11753
1.06367
0.90546
0.77184
0.53706
0.439423
0.409883
0.431788
0.442714
0.459279
0.472143
0.482123
0.489685
0.495539
0.50057
0.505246
0.50943
0.513263
0.516804
0.519979
0.523207
0.525834
0.527779
0.529076
0.531027
0.532122
0.534847
0.535828
0.538812
0.53937
0.541026
0.540923
0.539493
0.53688
0.534704
0.531585
0.527442
0.522861
0.517658
0.51206
0.505544
0.497965
0.489413
0.479849
0.469204
0.457506
0.444884
0.431966
0.419055
0.406796
0.395337
0.384483
0.375077
0.365997
0.358909
0.351746
0.346756
0.341731
0.338655
0.336072
0.336636
0.335487
0.337433
0.337717
0.340888
0.342497
0.345604
2.60004
2.59986
2.60006
2.6003
2.60061
2.60101
2.6015
2.60207
2.60276
2.60354
2.60444
2.60545
2.60657
2.60784
2.60928
2.61076
2.61232
2.61426
2.61625
2.61816
2.62025
2.62287
2.62551
2.62805
2.63056
2.63367
2.63749
2.64096
2.64416
2.64643
2.64981
2.65516
2.66033
2.66475
2.66854
2.67217
2.67433
2.6772
2.6808
2.68583
2.69131
2.69517
2.69745
2.69898
2.69775
2.69219
2.67753
2.53887
2.00479
1.21156
1.14572
1.11976
1.05737
0.969291
0.732579
0.559418
0.445432
0.415765
0.440065
0.45028
0.466848
0.479828
0.490929
0.499717
0.506243
0.511243
0.515169
0.518928
0.522375
0.525542
0.528631
0.531874
0.534455
0.537585
0.539864
0.540783
0.541904
0.541842
0.543939
0.545036
0.54817
0.548509
0.55066
0.551
0.550644
0.54862
0.54646
0.543595
0.53954
0.53477
0.529166
0.522774
0.515446
0.507251
0.498296
0.488484
0.477785
0.466084
0.453509
0.440614
0.427737
0.41594
0.404485
0.394104
0.38453
0.375675
0.368632
0.361506
0.35645
0.351424
0.348245
0.345764
0.346237
0.345133
0.346941
0.347331
0.350339
0.351879
0.354734
2.6
2.59983
2.60001
2.60023
2.60054
2.60092
2.60139
2.60194
2.60259
2.60335
2.6042
2.60519
2.60623
2.60743
2.6088
2.61021
2.61168
2.61355
2.61541
2.61716
2.61919
2.62185
2.62427
2.62642
2.62881
2.63232
2.63598
2.63918
2.64194
2.64434
2.64767
2.65377
2.65842
2.66273
2.66675
2.67064
2.67434
2.67692
2.68141
2.68553
2.6922
2.69894
2.70464
2.71151
2.72129
2.72925
2.72085
2.61527
1.44348
1.15434
1.12487
1.06
0.94657
0.776351
0.556191
0.449499
0.418684
0.445726
0.457073
0.474082
0.486067
0.496679
0.505803
0.513439
0.51944
0.52425
0.527943
0.531045
0.534215
0.537333
0.539796
0.54339
0.545198
0.54836
0.550501
0.552385
0.553089
0.552223
0.55379
0.554479
0.557419
0.558098
0.560569
0.560556
0.561197
0.559611
0.557102
0.554328
0.550218
0.545352
0.539701
0.533424
0.526443
0.518359
0.50928
0.499254
0.488341
0.47647
0.463792
0.450732
0.437735
0.425901
0.414378
0.404317
0.394464
0.385962
0.378605
0.371519
0.366281
0.361215
0.357827
0.355458
0.355865
0.354941
0.356688
0.357241
0.359904
0.361086
0.363346
2.59995
2.59978
2.59995
2.60017
2.60045
2.60081
2.60127
2.6018
2.60241
2.60312
2.60394
2.60489
2.60586
2.60698
2.60829
2.60961
2.61098
2.61276
2.61448
2.61612
2.61808
2.62056
2.62277
2.62485
2.62712
2.63059
2.63382
2.63683
2.63975
2.64229
2.64575
2.65132
2.65565
2.65996
2.66434
2.66883
2.67344
2.67733
2.68118
2.68575
2.69034
2.69529
2.6983
2.70322
2.70024
2.69175
2.55999
2.10537
1.2236
1.12446
1.08178
0.944617
0.766501
0.568283
0.455371
0.424468
0.451677
0.465767
0.484049
0.496784
0.506989
0.515319
0.522277
0.528138
0.533187
0.537238
0.540746
0.543371
0.545462
0.548694
0.550257
0.553723
0.554992
0.558164
0.559994
0.562495
0.563794
0.562993
0.564145
0.563978
0.566258
0.567245
0.569877
0.569298
0.570634
0.569852
0.568625
0.566106
0.562187
0.557388
0.5517
0.545163
0.53762
0.529031
0.519528
0.509129
0.497935
0.485932
0.473215
0.460123
0.447091
0.435412
0.423998
0.414305
0.404481
0.396406
0.388523
0.381707
0.376125
0.371066
0.36769
0.365408
0.365691
0.36487
0.366375
0.36695
0.369255
0.370353
0.372516
2.5999
2.59973
2.59989
2.6001
2.60037
2.60072
2.60114
2.60164
2.60223
2.60289
2.60366
2.60455
2.60546
2.6065
2.60772
2.60897
2.61023
2.61183
2.61342
2.61506
2.61683
2.61897
2.62103
2.62319
2.62548
2.62838
2.6311
2.63396
2.63702
2.64
2.64361
2.64793
2.6519
2.65584
2.66058
2.66578
2.67111
2.67632
2.68158
2.68681
2.69099
2.69821
2.70776
2.72787
2.73789
2.72835
2.59756
1.45506