/*--------------------------------*- C++ -*----------------------------------*\
| =========                 |                                                 |
| \\      /  F ield         | OpenFOAM: The Open Source CFD Toolbox           |
|  \\    /   O peration     | Version:  2.2.x                                 |
|   \\  /    A nd           | Web:      www.OpenFOAM.org                      |
|    \\/     M anipulation  |                                                 |
\*---------------------------------------------------------------------------*/
FoamFile
{
    version     2.0;
    format      ascii;
    class       volScalarField;
    location    "1.75";
    object      Bx;
}
// * * * * * * * * * * * * * * * * * * * * * * * * * * * * * * * * * * * * * //

dimensions      [1 0 -2 0 0 -1 0];

internalField   nonuniform List<scalar> 
14161
(
0.972156
1.00536
0.997307
0.966777
0.93456
0.925918
0.932502
0.940093
0.951487
0.967521
0.972377
0.973216
0.962888
0.945742
0.931185
0.926756
0.932774
0.939848
0.946074
0.954442
0.964798
0.969121
0.966487
0.96336
0.959311
0.95526
0.953492
0.95456
0.958105
0.968696
0.994816
1.04557
1.17813
1.2417
1.25589
1.25969
1.26749
1.27771
1.29409
1.30835
1.31799
1.32226
1.32024
1.31274
1.30161
1.28533
1.26739
1.2493
1.23155
1.21434
1.19835
1.18407
1.1718
1.16147
1.15295
1.14548
1.13864
1.13177
1.12413
1.11549
1.10578
1.09586
1.0866
1.07917
1.07449
1.07263
1.07389
1.07826
1.0863
1.09605
1.10749
1.11823
1.12707
1.13309
1.13499
1.12716
1.11604
1.09662
1.07326
1.04646
1.02018
0.996862
0.97712
0.964897
0.957316
0.957438
0.96552
0.976492
0.987233
0.989876
0.968498
0.917285
0.828791
0.713439
0.583729
0.468474
0.384806
0.325811
0.288171
0.270391
0.25964
0.250802
0.241687
0.235386
0.232324
0.232768
0.236165
0.240635
0.246725
0.253087
0.258696
0.265588
0.268885
0.266351
0.253179
0.230082
0.180445
0.129095
0.0246481
0.96748
0.880711
0.874538
0.915035
0.996158
1.05176
1.05403
1.03727
0.992569
0.921495
0.862147
0.848154
0.855829
0.885189
0.931877
0.969943
0.979456
0.97527
0.960097
0.933785
0.900816
0.880917
0.877799
0.883856
0.895596
0.911817
0.922649
0.927558
0.927413
0.924318
0.919644
0.914145
0.925637
0.871475
0.823344
0.799093
0.806877
0.817913
0.824151
0.821105
0.815908
0.808781
0.800864
0.790806
0.78585
0.78212
0.784589
0.789464
0.796814
0.806854
0.819179
0.832833
0.846943
0.860592
0.872942
0.884035
0.894608
0.904157
0.912987
0.921482
0.929991
0.93823
0.946589
0.954009
0.960744
0.96736
0.971162
0.973399
0.971586
0.96688
0.959123
0.950609
0.940475
0.930276
0.920036
0.911748
0.904668
0.899133
0.894576
0.887841
0.881801
0.87299
0.865015
0.857676
0.849668
0.839813
0.823108
0.796874
0.760219
0.705304
0.639406
0.562307
0.487426
0.428296
0.376717
0.337049
0.301875
0.283892
0.274074
0.263674
0.255875
0.25056
0.247019
0.24489
0.242376
0.24211
0.241581
0.239637
0.235724
0.228484
0.216811
0.201266
0.182247
0.163501
0.138101
0.114929
0.0790195
0.04199
0.0152914
0.952314
1.11703
1.16149
1.0717
0.903602
0.778747
0.753425
0.788631
0.87098
0.990999
1.08876
1.11632
1.09552
1.04138
0.95845
0.886209
0.862244
0.874599
0.90536
0.953031
1.00944
1.04901
1.06184
1.05297
1.03611
1.01182
0.990701
0.978383
0.973373
0.970941
0.964848
0.953469
0.870678
0.707943
0.595102
0.525625
0.512909
0.522939
0.535394
0.553579
0.576267
0.602902
0.63256
0.661615
0.688493
0.711441
0.731655
0.751756
0.770415
0.788645
0.806027
0.822949
0.838944
0.854215
0.867805
0.87988
0.890558
0.899939
0.909419
0.917505
0.925033
0.931508
0.936197
0.938511
0.937371
0.935254
0.930939
0.926558
0.92043
0.915825
0.910083
0.904046
0.896715
0.888357
0.878726
0.865323
0.853199
0.837067
0.820784
0.800547
0.779061
0.753643
0.725259
0.695262
0.664466
0.633241
0.597853
0.557375
0.507355
0.456462
0.39727
0.346378
0.283517
0.246325
0.209633
0.194636
0.188701
0.189879
0.186511
0.182458
0.181147
0.183634
0.188687
0.196283
0.204899
0.214362
0.220607
0.224331
0.226224
0.224811
0.217924
0.206048
0.187057
0.165009
0.12785
0.105807
0.0638971
0.0501674
0.00387554
0.969836
0.774757
0.742425
0.833586
1.0198
1.15911
1.18016
1.14441
1.05534
0.906481
0.773604
0.730856
0.748324
0.812876
0.914877
1.00405
1.03479
1.02422
0.996072
0.945442
0.877234
0.825646
0.808669
0.818116
0.838072
0.868189
0.89497
0.908189
0.908681
0.902442
0.886597
0.859422
0.706583
0.570878
0.497865
0.468521
0.457287
0.446956
0.456223
0.472259
0.494278
0.518536
0.544553
0.571947
0.601934
0.630317
0.660354
0.690475
0.720478
0.749635
0.775974
0.79876
0.817944
0.835177
0.851547
0.86634
0.879014
0.888753
0.896195
0.902221
0.907122
0.910565
0.912565
0.912358
0.909105
0.90488
0.898789
0.893146
0.885107
0.876887
0.866513
0.854791
0.842979
0.828311
0.814806
0.797618
0.782346
0.76394
0.746575
0.726945
0.706272
0.686898
0.667297
0.646586
0.619732
0.5904
0.54995
0.50375
0.450291
0.396841
0.345292
0.302387
0.252525
0.216133
0.188126
0.186651
0.178599
0.182545
0.179498
0.181673
0.192453
0.20239
0.210977
0.219008
0.225867
0.231938
0.233618
0.231337
0.225273
0.216586
0.204246
0.191534
0.171389
0.152011
0.111288
0.0857806
0.0517238
0.0502509
0.0109539
0.93807
1.19122
1.2483
1.1227
0.88596
0.696536
0.646486
0.693903
0.810863
0.98783
1.13683
1.18012
1.15563
1.0843
0.966765
0.853603
0.806705
0.820355
0.857573
0.919179
0.999489
1.06353
1.09036
1.08255
1.06296
1.03038
0.99792
0.97548
0.963725
0.959869
0.95932
0.961596
0.875788
0.687405
0.57702
0.493898
0.446536
0.442586
0.456732
0.478222
0.5059
0.536469
0.56868
0.60238
0.633634
0.665281
0.69913
0.728753
0.755841
0.779434
0.800296
0.818559
0.835694
0.851209
0.864805
0.877178
0.88871
0.899757
0.911063
0.921344
0.930121
0.937168
0.941801
0.944708
0.946693
0.945906
0.941106
0.937182
0.93049
0.92253
0.916676
0.906418
0.900141
0.886798
0.878704
0.861562
0.848954
0.829714
0.809869
0.787002
0.758744
0.730572
0.696692
0.664496
0.631488
0.601023
0.567772
0.525008
0.476594
0.421533
0.372591
0.325624
0.272084
0.230631
0.199727
0.193813
0.183481
0.188778
0.190015
0.202523
0.214188
0.221637
0.227447
0.232933
0.236534
0.23764
0.23735
0.234531
0.225525
0.212652
0.193965
0.176115
0.150593
0.135229
0.0983797
0.0799897
0.0477102
0.0492782
0.0108451
0.996586
0.721347
0.646168
0.758545
1.01619
1.22252
1.2617
1.21414
1.10115
0.918244
0.74403
0.676425
0.694741
0.771684
0.89914
1.02393
1.0776
1.07039
1.04091
0.986277
0.908132
0.834165
0.799001
0.801645
0.822228
0.857215
0.892628
0.917111
0.925807
0.922585
0.912033
0.900681
0.839206
0.671169
0.577573
0.540508
0.525505
0.540522
0.577442
0.611673
0.646671
0.67582
0.701617
0.722866
0.740034
0.757181
0.775799
0.790817
0.805807
0.819551
0.832859
0.846338
0.860471
0.873884
0.886815
0.900282
0.91309
0.925919
0.939507
0.95205
0.963886
0.975606
0.984749
0.995619
1.00573
1.01538
1.02321
1.025
1.02618
1.01832
1.01002
0.996309
0.985586
0.968933
0.957395
0.937173
0.920368
0.897198
0.870845
0.845602
0.811668
0.782257
0.744961
0.709921
0.671269
0.636395
0.606559
0.574478
0.537991
0.487477
0.436028
0.386826
0.327989
0.279535
0.240145
0.226605
0.214764
0.227347
0.228355
0.23027
0.23478
0.24075
0.246608
0.249333
0.249571
0.248987
0.246518
0.240691
0.229998
0.215366
0.187632
0.16602
0.135131
0.124534
0.0924141
0.0792015
0.0487011
0.0489132
0.0130157
0.895777
1.2171
1.29009
1.18591
0.913259
0.662671
0.587612
0.638327
0.761843
0.953966
1.13212
1.19762
1.18016
1.10991
0.988329
0.851965
0.781962
0.785256
0.817585
0.875307
0.957233
1.03735
1.08004
1.08739
1.07347
1.04575
1.01175
0.980721
0.965728
0.957803
0.953684
0.947314
0.903577
0.727122
0.650341
0.651356
0.679049
0.735006
0.755364
0.770961
0.778986
0.787686
0.794915
0.8014
0.808297
0.817504
0.829712
0.840226
0.852084
0.864299
0.878708
0.893397
0.90815
0.921958
0.936137
0.950357
0.964383
0.978844
0.994754
1.01018
1.0265
1.04349
1.0574
1.07339
1.08407
1.09497
1.10017
1.10648
1.11044
1.11086
1.11691
1.11342
1.11457
1.10477
1.0993
1.08374
1.06475
1.04442
1.01153
0.984318
0.939938
0.900946
0.849307
0.801204
0.748974
0.698085
0.652435
0.611857
0.579995
0.544641
0.507071
0.462683
0.40521
0.352818
0.296947
0.272298
0.25099
0.257172
0.251127
0.250736
0.254341
0.2614
0.267526
0.268346
0.265386
0.26121
0.254372
0.245391
0.227151
0.212147
0.181393
0.159652
0.125028
0.115651
0.0910414
0.0818987
0.052787
0.0505505
0.0160853
1.04839
0.714126
0.574604
0.693315
1.00114
1.2556
1.31793
1.26368
1.14698
0.972477
0.782344
0.693918
0.707574
0.778092
0.900584
1.04194
1.11978
1.12515
1.09983
1.05604
0.9903
0.917263
0.868758
0.855139
0.866794
0.892292
0.92471
0.956171
0.976943
0.986976
0.984078
0.969475
0.970609
0.839352
0.811721
0.819208
0.857509
0.87683
0.894151
0.90164
0.903074
0.903276
0.905024
0.90797
0.910571
0.916573
0.926578
0.934924
0.945419
0.95645
0.96979
0.983942
0.999705
1.01616
1.03435
1.05235
1.07064
1.08838
1.10536
1.1177
1.12921
1.13793
1.14505
1.15465
1.15911
1.16986
1.17341
1.18431
1.18445
1.19405
1.19243
1.19938
1.19271
1.19702
1.18292
1.1842
1.16172
1.15772
1.12746
1.11136
1.06876
1.03349
0.975848
0.920782
0.849329
0.780402
0.71573
0.657813
0.617497
0.578362
0.543349
0.504962
0.454225
0.405059
0.341763
0.312773
0.280561
0.27652
0.272689
0.276943
0.279551
0.283544
0.284754
0.283673
0.278322
0.269793
0.256897
0.244076
0.219473
0.20496
0.17748
0.157657
0.123598
0.11285
0.0901085
0.0845728
0.0571571
0.0529748
0.0204103
0.83752
1.21841
1.3225
1.23697
0.953558
0.671286
0.571687
0.616838
0.732534
0.90681
1.0953
1.18713
1.18124
1.12488
1.02263
0.89349
0.810874
0.796408
0.818669
0.860044
0.923801
0.993174
1.04661
1.06945
1.06886
1.05522
1.03486
1.01225
0.995734
0.99145
0.996454
1.0062
1.05306
0.978707
0.971571
0.986596
1.01128
1.02224
1.01521
1.00379
0.993881
0.988691
0.986526
0.988134
0.989508
0.995295
1.00627
1.01589
1.02901
1.04301
1.05828
1.07344
1.08968
1.10806
1.12885
1.15111
1.1733
1.19632
1.2146
1.22732
1.24466
1.25224
1.26577
1.27289
1.28153
1.28988
1.29112
1.3017
1.29909
1.30918
1.30181
1.30769
1.29661
1.29941
1.28559
1.28737
1.26606
1.26454
1.23216
1.22043
1.17381
1.14686
1.08608
1.03928
0.959783
0.872711
0.787145
0.700338
0.635971
0.581061
0.537804
0.497078
0.447397
0.39972
0.340723
0.311736
0.280476
0.280172
0.281425
0.284688
0.288346
0.292805
0.294708
0.296746
0.29369
0.285523
0.268405
0.252759
0.22534
0.205841
0.176965
0.157818
0.120962
0.11104
0.0891246
0.0856075
0.0601352
0.0549823
0.0243101
1.11109
0.739421
0.568402
0.669231
0.978286
1.26395
1.35695
1.3093
1.20397
1.05478
0.890483
0.803689
0.806668
0.855338
0.948119
1.06666
1.15055
1.16725
1.15105
1.12171
1.07056
1.01361
0.971712
0.956652
0.961131
0.974973
0.995929
1.01897
1.04249
1.05747
1.0772
1.0893
1.15975
1.03296
1.0774
1.03686
1.0842
1.08417
1.08203
1.07526
1.06839
1.0666
1.06798
1.07392
1.07792
1.08803
1.10424
1.12056
1.14037
1.16168
1.1838
1.20478
1.22547
1.24462
1.26285
1.27938
1.29419
1.30699
1.31323
1.32517
1.33398
1.33873
1.34997
1.35091
1.3605
1.35889
1.36691
1.36279
1.37049
1.36393
1.3703
1.36179
1.36572
1.35633
1.35448
1.3501
1.33243
1.33356
1.29969
1.29394
1.24462
1.22359
1.16152
1.12089
1.04671
0.953166
0.866823
0.770779
0.692938
0.627024
0.574732
0.529351
0.477618
0.434384
0.375775
0.335774
0.301307
0.297512
0.300425
0.299249
0.302464
0.305162
0.305048
0.305434
0.299685
0.291938
0.2739
0.261567
0.237761
0.216701
0.184496
0.167134
0.129119
0.118444
0.0946595
0.0920358
0.0675211
0.0620983
0.0312695
0.78323
1.20514
1.31638
1.24968
1.00338
0.723837
0.605278
0.6438
0.745545
0.883977
1.03755
1.12983
1.14068
1.10525
1.03949
0.954343
0.884552
0.862022
0.86969
0.89198
0.93101
0.979008
1.01699
1.03708
1.03676
1.02939
1.01901
1.00723
0.998138
0.994909
1.00494
1.0184
1.11717
1.066
1.07906
1.09535
1.13817
1.13847
1.14201
1.14531
1.15088
1.1515
1.16022
1.17516
1.18675
1.20415
1.22561
1.24604
1.26562
1.2831
1.29859
1.31269
1.32609
1.33836
1.34901
1.35816
1.36552
1.37165
1.37412
1.38269
1.38134
1.38884
1.38615
1.39155
1.38806
1.39308
1.38948
1.39438
1.39011
1.39688
1.39292
1.40216
1.39715
1.40403
1.39325
1.3998
1.37927
1.38673
1.35217
1.35675
1.30976
1.30043
1.23023
1.18727
1.13116
1.04571
0.97312
0.888684
0.795103
0.701294
0.633553
0.576782
0.52313
0.483376
0.41464
0.360465
0.311895
0.300421
0.304577
0.302771
0.305455
0.308649
0.309427
0.312283
0.308088
0.30271
0.287395
0.270514
0.252441
0.230929
0.198979
0.180556
0.142511
0.130901
0.104347
0.101241
0.0766396
0.0688675
0.0372925
1.18784
0.81218
0.642062
0.722013
0.983748
1.25785
1.36889
1.33096
1.23482
1.11259
0.993756
0.92535
0.919656
0.940178
0.98864
1.05537
1.11474
1.13657
1.13396
1.11654
1.09097
1.05965
1.03702
1.02895
1.03207
1.04214
1.05889
1.082
1.10578
1.12059
1.12782
1.12157
1.14169
1.07862
1.05871
1.07428
1.15953
1.17592
1.19858
1.22106
1.24581
1.26834
1.27816
1.29304
1.30677
1.31797
1.33138
1.34211
1.35278
1.36201
1.36971
1.37632
1.38371
1.39
1.39408
1.39782
1.40086
1.40246
1.40685
1.40489
1.40974
1.40745
1.41174
1.40975
1.41464
1.41245
1.41684
1.41321
1.41591
1.41296
1.41155
1.41746
1.41117
1.42318
1.4121
1.42615
1.40999
1.42486
1.39769
1.41016
1.37042
1.35945
1.30822
1.23998
1.20422
1.12337
1.0548
0.980151
0.903159
0.808527
0.725935
0.650625
0.598062
0.544566
0.482467
0.410706
0.358352
0.331858
0.330874
0.323068
0.319428
0.315495
0.31264
0.30979
0.306275
0.300984
0.293297
0.281361
0.265177
0.251887
0.224477
0.207532
0.168574
0.154548
0.121304
0.116625
0.0876896
0.0765907
0.0453384
0.72798
1.14421
1.27496
1.22335
1.0346
0.81971
0.730294
0.750214
0.816649
0.906318
1.00355
1.06354
1.08024
1.06805
1.03874
0.998984
0.959807
0.942577
0.942788
0.951839
0.969106
0.993668
1.0155
1.02658
1.02905
1.02524
1.0153
0.999874
0.981356
0.963044
0.947467
0.938515
0.958311
1.01612
1.08081
1.15993
1.25969
1.28104
1.30759
1.32461
1.33795
1.349
1.36085
1.36252
1.37269
1.37976
1.38727
1.39214
1.39666
1.40015
1.40247
1.40611
1.40874
1.41171
1.41137
1.41285
1.41012
1.41181
1.40805
1.41219
1.40937
1.41464
1.41249
1.41775
1.41443
1.41809
1.41381
1.41731
1.41483
1.41863
1.42088
1.41826
1.42626
1.4207
1.43311
1.42295
1.43923
1.42363
1.44275
1.4051
1.41566
1.35289
1.35465
1.28929
1.26608
1.20639
1.14508
1.0714
1.00557
0.921869
0.833993
0.746891
0.678948
0.612069
0.553894
0.479991
0.423501
0.367768
0.35376
0.336941
0.320158
0.309095
0.302108
0.298139
0.294676
0.291638
0.287497
0.284063
0.274379
0.267158
0.24411
0.229895
0.196246
0.176382
0.136378
0.12571
0.0970881
0.0824812
0.0526101
1.27513
0.953887
0.814206
0.851795
1.00821
1.18387
1.25369
1.23339
1.16831
1.08641
1.01227
0.969307
0.963851
0.971992
0.992668
1.02151
1.05113
1.06907
1.07396
1.06929
1.06061
1.0488
1.04071
1.03849
1.04267
1.05265
1.06931
1.09199
1.11909
1.15026
1.18288
1.22246
1.25648
1.34369
1.35605
1.37817
1.37008
1.37139
1.37466
1.37798
1.38444
1.38892
1.39947
1.403
1.40585
1.40872
1.41052
1.41166
1.41214
1.41191
1.41293
1.41214
1.41329
1.41149
1.41409
1.41277
1.41723
1.41571
1.42146
1.41932
1.42501
1.42183
1.42583
1.42132
1.42503
1.41965
1.4232
1.41769
1.42114
1.41619
1.42026
1.41404
1.42023
1.41223
1.42501
1.41184
1.43433
1.40954
1.43653
1.3875
1.39689
1.33369
1.33772
1.28925
1.25657
1.21122
1.17951
1.11563
1.06242
0.992041
0.913245
0.823756
0.732194
0.637438
0.559326
0.489879
0.435123
0.383771
0.364631
0.354087
0.340824
0.325614
0.314387
0.304358
0.295995
0.28932
0.276643
0.277447
0.268659
0.267214
0.253152
0.237259
0.205177
0.185942
0.145345
0.133219
0.10681
0.0916314
0.0619144
0.716494
1.03722
1.14888
1.12884
1.02379
0.909313
0.8673
0.876888
0.908966
0.954761
1.00334
1.03135
1.04048
1.03977
1.03033
1.01657
1.00268
0.995602
0.996181
1.00065
1.00822
1.01901
1.03013
1.03732
1.04219
1.04519
1.04387
1.03952
1.03558
1.03636
1.03957
1.05463
1.07906
1.15845
1.25587
1.3599
1.35855
1.36872
1.37392
1.38191
1.39
1.39289
1.39356
1.39629
1.39746
1.39889
1.39987
1.40125
1.40207
1.40321
1.40412
1.40514
1.40493
1.40448
1.40326
1.40632
1.40333
1.40958
1.40574
1.4126
1.40811
1.41347
1.40741
1.41135
1.40295
1.40663
1.39737
1.4005
1.39131
1.39469
1.38531
1.39044
1.37989
1.38253
1.37782
1.36372
1.38063
1.3435
1.36506
1.31176
1.31111
1.2424
1.2526
1.20361
1.18639
1.13274
1.11776
1.07052
1.02884
0.969333
0.908112
0.834636
0.737718
0.639155
0.554808
0.502459
0.468681
0.420065
0.390463
0.378153
0.362635
0.342358
0.325167
0.307023
0.290451
0.280933
0.267232
0.265251
0.2628
0.261394
0.254755
0.246457
0.217683
0.204561
0.162915
0.145436
0.118372
0.101078
0.0718636
1.29252
1.05132
0.94148
0.946366
1.011
1.08491
1.11631
1.11027
1.08335
1.04641
1.00906
0.987858
0.98424
0.989561
0.996534
1.00777
1.02233
1.03196
1.03676
1.03926
1.03923
1.0384
1.0375
1.03715
1.03992
1.04453
1.0531
1.06537
1.07886
1.08884
1.09499
1.08522
1.08131
1.19254
1.19545
1.30263
1.30051
1.32425
1.33122
1.33473
1.34784
1.35549
1.36323
1.36784
1.36859
1.3656
1.36124
1.35616
1.35084
1.34498
1.34017
1.3342
1.32869
1.32577
1.32003
1.31848
1.31195
1.31492
1.30806
1.31272
1.30667
1.31235
1.31076
1.32127
1.32655
1.33264
1.33863
1.33186
1.33445
1.32158
1.32177
1.30359
1.30405
1.27819
1.27981
1.24386
1.2547
1.20236
1.23067
1.17611
1.18786
1.12639
1.11786
1.05101
1.04226
1.01157
0.971727
0.931145
0.89704
0.850474
0.808781
0.765145
0.706784
0.625691
0.562871
0.512153
0.483602
0.447731
0.412008
0.388857
0.366268
0.336143
0.307122
0.285601
0.267902
0.259937
0.247929
0.246253
0.242624
0.248759
0.239539
0.241208
0.211985
0.200521
0.167125
0.14876
0.121841
0.107198
0.0778846
0.808664
1.00504
1.0799
1.07131
1.024
0.978696
0.961711
0.965175
0.977676
0.995473
1.01374
1.02438
1.02522
1.02506
1.02331
1.0206
1.01798
1.01818
1.01959
1.02301
1.02835
1.03483
1.04188
1.04992
1.05737
1.06537
1.07511
1.08953
1.10868
1.13446
1.17118
1.21555
1.26603
1.33682
1.28738
1.34422
1.30765
1.32442
1.31362
1.31097
1.29779
1.29576
1.28873
1.28433
1.28089
1.27584
1.26669
1.25883
1.25012
1.24169
1.23295
1.2244
1.21504
1.20606
1.19779
1.19151
1.18449
1.17812
1.17263
1.16491
1.15686
1.14618
1.12816
1.11406
1.09013
1.07847
1.04928
1.03955
1.00798
0.997637
0.964562
0.951303
0.921514
0.907561
0.89132
0.873098
0.879989
0.855743
0.89254
0.874793
0.914805
0.913951
0.914711
0.881647
0.841085
0.824268
0.809486
0.774971
0.748008
0.724059
0.690121
0.651736
0.619556
0.582212
0.537573
0.496427
0.481017
0.451517
0.420176
0.390617
0.367877
0.343735
0.313256
0.287344
0.263325
0.243672
0.227517
0.223467
0.219355
0.232315
0.225896
0.235749
0.211829
0.199957
0.174006
0.157541
0.13212
0.119324
0.0885475
1.19932
1.0453
0.987866
0.986445
1.01106
1.03757
1.04794
1.04623
1.03977
1.02797
1.01427
1.00625
1.00284
1.00477
1.00823
1.01296
1.01849
1.02457
1.02877
1.03223
1.0347
1.03679
1.03931
1.04233
1.04607
1.05051
1.05579
1.06248
1.0694
1.07749
1.08089
1.09195
1.16507
1.12303
1.1946
1.20604
1.21577
1.21714
1.20973
1.19809
1.17956
1.16937
1.15486
1.14509
1.13941
1.13409
1.12427
1.1173
1.11033
1.10427
1.09703
1.08818
1.07746
1.0627
1.04513
1.02676
1.00335
0.980443
0.948903
0.921968
0.881167
0.845264
0.791533
0.733372
0.672611
0.617597
0.5701
0.524913
0.490276
0.456458
0.430125
0.40134
0.379274
0.36534
0.354749
0.357493
0.362729
0.387352
0.424042
0.470717
0.544985
0.609519
0.620299
0.645776
0.644811
0.615428
0.588129
0.571935
0.571876
0.559522
0.557574
0.543934
0.504626
0.488826
0.488343
0.458334
0.458279
0.43251
0.405589
0.373721
0.351443
0.328663
0.298638
0.271691
0.247497
0.230177
0.216587
0.208251
0.205352
0.210285
0.216246
0.223975
0.21559
0.204313
0.182158
0.166894
0.145354
0.131941
0.097945
0.938665
1.0209
1.05349
1.0477
1.02756
1.00979
1.0024
1.00199
1.00794
1.01458
1.01986
1.02303
1.02337
1.02276
1.02229
1.02227
1.02283
1.02343
1.02547
1.02975
1.03445
1.03944
1.04472
1.05086
1.05742
1.06494
1.07424
1.08495
1.09701
1.10948
1.11994
1.12132
1.16734
0.986917
1.00066
1.0153
1.05069
1.06134
1.05113
1.03758
1.02404
1.01245
0.99679
0.985319
0.973697
0.962678
0.946115
0.932071
0.91582
0.899126
0.880072
0.859456
0.834088
0.804705
0.769468
0.7305
0.689003
0.645059
0.596838
0.545432
0.492514
0.440103
0.396337
0.35595
0.318639
0.279748
0.242859
0.203855
0.167365
0.13516
0.107375
0.0860533
0.0646318
0.0554812
0.0468818
0.0513173
0.0536478
0.0764921
0.101132
0.155514
0.215423
0.310583
0.369504
0.393261
0.394819
0.420206
0.421191
0.421656
0.412076
0.409559
0.407387
0.384968
0.388908
0.394193
0.407304
0.401907
0.409599
0.390646
0.368877
0.337496
0.314592
0.294493
0.270609
0.247528
0.227104
0.212054
0.199947
0.19098
0.188733
0.191797
0.202188
0.211227
0.216748
0.20909
0.190344
0.176868
0.157169
0.147296
0.110939
1.09384
1.03224
1.01379
1.01008
1.01718
1.02486
1.02798
1.02662
1.02533
1.02321
1.01987
1.01788
1.01739
1.01845
1.01995
1.02163
1.02359
1.02583
1.02931
1.03305
1.03712
1.0416
1.04564
1.04942
1.05367
1.05851
1.06307
1.06826
1.07415
1.08031
1.08852
1.0911
1.12604
0.962502
0.928498
0.939292
0.922086
0.912015
0.884927
0.858672
0.835117
0.811632
0.788835
0.770029
0.752164
0.735397
0.710446
0.690226
0.666146
0.642292
0.615746
0.590598
0.562855
0.536155
0.507284
0.478354
0.445919
0.417798
0.386379
0.360735
0.33131
0.299827
0.262512
0.227743
0.191498
0.159856
0.124685
0.0919907
0.0558856
0.0235328
-0.0027672
-0.028518
-0.0460225
-0.0620159
-0.0690772
-0.0746612
-0.0668287
-0.0600459
-0.0386522
-0.0152856
0.0288211
0.0792605
0.174824
0.216887
0.232585
0.246647
0.266623
0.271618
0.282542
0.293791
0.298913
0.299929
0.275454
0.339246
0.351041
0.368519
0.354174
0.342073
0.323938
0.300417
0.28292
0.26875
0.250895
0.233167
0.216026
0.201629
0.189639
0.181256
0.178428
0.178862
0.190706
0.198819
0.213182
0.213419
0.198566
0.186056
0.168063
0.161141
0.122396
1.00847
1.03509
1.0461
1.03717
1.02704
1.01989
1.01662
1.01598
1.01788
1.02065
1.02279
1.02476
1.02564
1.02598
1.02564
1.02623
1.02718
1.02852
1.03052
1.03367
1.03741
1.04139
1.04541
1.04933
1.05352
1.05862
1.06543
1.07382
1.08293
1.09501
1.10344
1.12782
1.13092
0.986296
0.849114
0.752705
0.691396
0.65884
0.63509
0.613657
0.597229
0.579565
0.566625
0.554675
0.544609
0.530806
0.511131
0.49415
0.473669
0.454863
0.432922
0.414145
0.393611
0.377238
0.358722
0.343516
0.327977
0.316337
0.304729
0.294957
0.283634
0.271727
0.249113
0.223919
0.187342
0.155874
0.120908
0.0872321
0.052809
0.0160024
-0.00822013
-0.037213
-0.0555867
-0.0747219
-0.0861036
-0.0944028
-0.0934423
-0.0956305
-0.0865054
-0.0821914
-0.0609989
-0.0312664
0.0371208
0.118901
0.153862
0.183315
0.194647
0.20398
0.214627
0.216669
0.240991
0.242108
0.257962
0.300775
0.320458
0.332308
0.317008
0.307826
0.291936
0.271919
0.257868
0.244318
0.230202
0.215561
0.201799
0.189686
0.180363
0.174339
0.172874
0.174343
0.184003
0.19353
0.210094
0.215893
0.205032
0.196272
0.17645
0.172984
0.135704
1.05369
1.0309
1.0274
1.02399
1.02347
1.0237
1.02385
1.02286
1.02278
1.02355
1.02438
1.02534
1.02574
1.02704
1.02821
1.02848
1.02932
1.03091
1.03312
1.03588
1.03948
1.04344
1.04757
1.05181
1.05668
1.06176
1.06694
1.07116
1.07656
1.08164
1.08349
1.13204
0.960955
0.823755
0.631725
0.512569
0.463246
0.433767
0.411648
0.393666
0.379627
0.36785
0.361792
0.355781
0.352378
0.348304
0.340196
0.335314
0.32673
0.321634
0.311751
0.306474
0.29668
0.293129
0.287751
0.287342
0.285604
0.287207
0.287027
0.290361
0.291535
0.2955
0.293913
0.286896
0.265853
0.237743
0.205901
0.178167
0.152388
0.112944
0.0872536
0.0514299
0.0244081
-0.00755125
-0.0304637
-0.051281
-0.0653662
-0.0749182
-0.0759149
-0.0775845
-0.0626904
-0.0514751
-0.00739818
0.0800196
0.136288
0.166828
0.175773
0.184697
0.193793
0.194193
0.213947
0.220115
0.271114
0.30134
0.32159
0.320078
0.306787
0.299769
0.281293
0.259421
0.244309
0.227822
0.214488
0.201297
0.189806
0.179923
0.172698
0.168999
0.167811
0.171174
0.179922
0.191957
0.209398
0.218485
0.2126
0.205919
0.186883
0.185821
0.1481
1.0363
1.03534
1.03827
1.03345
1.02729
1.02366
1.0219
1.02124
1.0219
1.02355
1.02533
1.02701
1.02829
1.02914
1.03006
1.03098
1.03212
1.03382
1.03623
1.03827
1.04094
1.04365
1.0463
1.04856
1.05037
1.05121
1.05106
1.04908
1.0448
1.03661
1.02198
1.00981
0.741612
0.580723
0.463393
0.398436
0.36093
0.335102
0.313071
0.295452
0.283254
0.275008
0.269077
0.260084
0.255312
0.250615
0.243315
0.23974
0.233108
0.231827
0.227048
0.230448
0.230368
0.2383
0.242773
0.252973
0.259082
0.270295
0.275542
0.289364
0.295493
0.31256
0.315081
0.330407
0.328117
0.329505
0.318757
0.301571
0.289851
0.270051
0.249263
0.220636
0.19042
0.15287
0.117337
0.0824775
0.0529268
0.0300697
0.0146014
-0.000106978
-0.000649888
0.000424123
0.0250552
0.076711
0.157544
0.201896
0.215383
0.222498
0.230774
0.231936
0.2463
0.261913
0.315851
0.33614
0.337434
0.330506
0.320699
0.308198
0.287049
0.263617
0.246315
0.228142
0.213314
0.19922
0.188064
0.178278
0.171033
0.167745
0.166294
0.169737
0.178249
0.19179
0.209695
0.223069
0.220696
0.215621
0.19683
0.198143
0.161229
1.04228
1.03357
1.03264
1.03049
1.027
1.02511
1.02403
1.02361
1.02399
1.02509
1.02662
1.02796
1.02902
1.03006
1.03147
1.03302
1.03472
1.03665
1.03867
1.04097
1.04353
1.04623
1.04988
1.05349
1.05727
1.061
1.06427
1.06666
1.06804
1.06797
1.06731
1.01563
0.740937
0.58957
0.466803
0.398009
0.340163
0.301917
0.276798
0.266044
0.26218
0.262509
0.259024
0.251867
0.24638
0.237887
0.229123
0.220889
0.211248
0.204265
0.196877
0.19346
0.194201
0.199529
0.205107
0.214925
0.223115
0.235634
0.246886
0.26429
0.280184
0.30543
0.324687
0.345978
0.366345
0.378292
0.391689
0.396169
0.39844
0.400638
0.397465
0.389184
0.376586
0.359499
0.33473
0.303917
0.26594
0.227871
0.192353
0.161766
0.135625
0.127923
0.130287
0.146277
0.196596
0.25423
0.282439
0.300196
0.316684
0.323206
0.347733
0.388434
0.396658
0.388359
0.378435
0.358632
0.341597
0.327875
0.302035
0.277853
0.257868
0.23793
0.221129
0.205849
0.193993
0.183326
0.175348
0.17133
0.169206
0.171496
0.178967
0.1929
0.211363
0.228014
0.227761
0.225573
0.208725
0.212292
0.174693
1.03748
1.03472
1.03546
1.03368
1.02936
1.02609
1.02437
1.02357
1.02372
1.02442
1.02558
1.02698
1.02883
1.03065
1.03231
1.03389
1.03611
1.03882
1.04106
1.04341
1.04581
1.04779
1.04958
1.05031
1.04904
1.04507
1.03625
1.01965
0.990545
0.940588
0.866799
0.67633
0.531522
0.419669
0.351965
0.304496
0.264028
0.24294
0.234371
0.22528
0.227552
0.222088
0.211305
0.202741
0.190728
0.179136
0.168202
0.160433
0.15302
0.148361
0.144173
0.142272
0.142437
0.144079
0.147355
0.152641
0.160491
0.170775
0.183277
0.198936
0.218414
0.244429
0.274177
0.317465
0.364806
0.413769
0.453753
0.486196
0.507081
0.518158
0.521889
0.524253
0.518725
0.510519
0.499827
0.484223
0.460948
0.436899
0.408789
0.38495
0.344651
0.313196
0.293421
0.294428
0.327468
0.388136
0.420561
0.446942
0.484466
0.505596
0.539133
0.525729
0.485697
0.463126
0.430865
0.400058
0.3751
0.353464
0.326255
0.300031
0.277045
0.256078
0.237255
0.220547
0.206884
0.19457
0.185188
0.179394
0.17585
0.176657
0.182396
0.195536
0.214454
0.233539
0.236654
0.236207
0.222846
0.224211
0.186954
1.03645
1.03317
1.03354
1.03296
1.02992
1.02704
1.02555
1.02481
1.02488
1.0254
1.02634
1.02767
1.02927
1.03128
1.03305
1.03479
1.0372
1.0403
1.04346
1.04622
1.04922
1.05251
1.05579
1.05936
1.06292
1.06812
1.07476
1.0848
1.10069
1.12839
1.16308
1.18994
0.977133
0.803171
0.66974
0.530411
0.434514
0.357699
0.303189
0.260231
0.227208
0.198891
0.183999
0.172099
0.163317
0.156366
0.150417
0.145412
0.142657
0.141035
0.140512
0.14105
0.142716
0.145503
0.15034
0.15616
0.164727
0.1754
0.189867
0.207319
0.227731
0.251342
0.276637
0.31164
0.349875
0.400711
0.459448
0.520981
0.570727
0.600819
0.617795
0.630563
0.63782
0.638495
0.631915
0.624296
0.609372
0.593065
0.565238
0.545243
0.52365
0.506027
0.485629
0.460574
0.462438
0.491247
0.54558
0.590916
0.630984
0.652745
0.662393
0.624249
0.569502
0.528269
0.487901
0.445368
0.412573
0.384595
0.355819
0.326243
0.299823
0.276947
0.255072
0.236367
0.220219
0.206143
0.195101
0.187255
0.18214
0.182027
0.186129
0.1981
0.216041
0.238891
0.244823
0.244451
0.232828
0.236836
0.199956
1.03453
1.03282
1.03376
1.03284
1.03056
1.02821
1.02598
1.02514
1.0252
1.02563
1.02661
1.02774
1.02913
1.03092
1.03322
1.03565
1.03822
1.04137
1.04458
1.04768
1.05071
1.05433
1.05762
1.06069
1.06371
1.06704
1.07058
1.07344
1.07603
1.07843
1.08217
1.18692
1.08141
1.03433
0.906848
0.780673
0.633039
0.527884
0.451087
0.391145
0.354072
0.335107
0.329334
0.331661
0.333051
0.333913
0.331364
0.331079
0.331817
0.333994
0.337072
0.341359
0.345396
0.348008
0.351153
0.352373
0.357124
0.361605
0.370115
0.37722
0.386928
0.396149
0.411169
0.43276
0.455865
0.487688
0.520544
0.553512
0.589133
0.624202
0.657932
0.677833
0.694948
0.706043
0.714924
0.719095
0.718874
0.712127
0.69887
0.683548
0.656357
0.634412
0.622422
0.619796
0.614535
0.625516
0.653336
0.690371
0.72463
0.7322
0.731703
0.691564
0.634826
0.578011
0.529081
0.478364
0.43751
0.406424
0.377789
0.348537
0.323203
0.299951
0.276595
0.256589
0.237924
0.22229
0.209083
0.198828
0.191241
0.18962
0.191861
0.202469
0.218557
0.245026
0.2516
0.2526
0.243544
0.251768
0.21363
1.03318
1.03041
1.03172
1.03173
1.03043
1.02889
1.02714
1.02626
1.02594
1.02634
1.02693
1.0278
1.02922
1.03093
1.03332
1.03574
1.03814
1.04138
1.04517
1.04921
1.05293
1.05719
1.06189
1.06673
1.07199
1.07816
1.08708
1.09913
1.11693
1.1457
1.18722
1.28825
1.25301
1.18812
1.12251
1.0942
1.04658
1.00681
0.954163
0.898084
0.869049
0.822952
0.788644
0.754729
0.729664
0.710287
0.696512
0.690091
0.69251
0.700694
0.710447
0.722866
0.732903
0.743291
0.752302
0.760121
0.76365
0.763362
0.758309
0.75403
0.742514
0.736088
0.721903
0.712633
0.703322
0.702683
0.699561
0.709225
0.717856
0.738669
0.751926
0.761592
0.767016
0.769819
0.776161
0.782598
0.791295
0.798076
0.798463
0.790208
0.776555
0.758857
0.737617
0.723148
0.714314
0.714507
0.724229
0.742141
0.764287
0.774403
0.765258
0.733422
0.683542
0.617979
0.566019
0.513766
0.468658
0.437191
0.405866
0.376989
0.352512
0.32842
0.302835
0.280772
0.257929
0.239706
0.223315
0.210505
0.200427
0.19616
0.197506
0.206481
0.221625
0.250124
0.259147
0.261758
0.254138
0.266632
0.227424
1.03217
1.02937
1.03111
1.03122
1.03029
1.02907
1.02793
1.02707
1.02657
1.02672
1.02745
1.02859
1.0301
1.03146
1.03353
1.03621
1.03916
1.04238
1.04655
1.0509
1.05502
1.05956
1.06446
1.07012
1.07611
1.08228
1.09012
1.10117
1.11494
1.12959
1.14053
1.16604
1.27057
1.30409
1.33516
1.35465
1.32413
1.27931
1.20615
1.16818
1.11164
1.09113
1.08681
1.08367
1.10038
1.11599
1.14306
1.17049
1.19803
1.22139
1.24125
1.25519
1.2648
1.2729
1.26804
1.26271
1.24568
1.22233
1.19587
1.17316
1.15142
1.1317
1.10657
1.0782
1.04183
1.00056
0.957494
0.930533
0.904893
0.903177