/*--------------------------------*- C++ -*----------------------------------*\
| =========                 |                                                 |
| \\      /  F ield         | OpenFOAM: The Open Source CFD Toolbox           |
|  \\    /   O peration     | Version:  2.2.x                                 |
|   \\  /    A nd           | Web:      www.OpenFOAM.org                      |
|    \\/     M anipulation  |                                                 |
\*---------------------------------------------------------------------------*/
FoamFile
{
    version     2.0;
    format      ascii;
    class       volScalarField;
    location    "1.75";
    object      rho;
}
// * * * * * * * * * * * * * * * * * * * * * * * * * * * * * * * * * * * * * //

dimensions      [1 -3 0 0 0 0 0];

internalField   nonuniform List<scalar> 
14161
(
1.04361
1.06024
1.05305
1.02519
1.01658
1.02768
1.03959
1.04123
1.04117
1.04283
1.03483
1.03373
1.0469
1.04979
1.05338
1.05863
1.06397
1.06326
1.05632
1.04766
1.0443
1.04224
1.03789
1.03802
1.03946
1.04623
1.05669
1.06436
1.0671
1.0662
1.05966
1.04859
1.70317
2.3504
2.22343
2.2377
2.27331
2.27942
2.25685
2.23356
2.21895
2.21075
2.21029
2.22587
2.26279
2.28834
2.31817
2.34805
2.37265
2.3948
2.41292
2.42866
2.44168
2.45317
2.46323
2.4737
2.48427
2.49595
2.50976
2.52246
2.53292
2.54213
2.55033
2.55624
2.55992
2.56311
2.56658
2.56573
2.55274
2.53575
2.51693
2.49759
2.48236
2.47291
2.47565
2.49855
2.52444
2.55676
2.58767
2.61506
2.6331
2.64063
2.65056
2.66072
2.66674
2.66803
2.66086
2.64442
2.63229
2.62075
2.62305
2.65718
2.73428
2.82215
2.9171
2.96472
3.01476
3.05349
3.06432
3.06685
3.06855
3.07032
3.07205
3.07322
3.07364
3.06999
3.06432
3.05543
3.04525
3.03284
3.0205
3.01204
3.00419
3.00455
3.00528
3.0157
3.01883
3.05147
3.10818
1.00333
1.00644
1.01838
1.03393
1.0488
1.07092
1.08798
1.09039
1.08347
1.06123
1.01884
1.00117
1.00478
1.01344
1.03214
1.06209
1.07707
1.08434
1.0791
1.07106
1.05914
1.0476
1.04098
1.03848
1.0383
1.04345
1.05234
1.05759
1.05827
1.05976
1.05916
1.05489
1.74025
2.25824
2.33976
2.40182
2.43228
2.42151
2.39644
2.37328
2.35988
2.35669
2.3606
2.37529
2.401
2.42613
2.4505
2.46685
2.47524
2.476
2.47288
2.46811
2.46323
2.45958
2.45662
2.45464
2.45139
2.44739
2.44414
2.43948
2.43347
2.42737
2.42051
2.4133
2.40839
2.4081
2.41055
2.41444
2.41654
2.41873
2.42095
2.42469
2.43204
2.44415
2.45969
2.48259
2.50445
2.52493
2.54025
2.55212
2.56158
2.56776
2.58134
2.59415
2.61114
2.62149
2.62754
2.63387
2.653
2.68555
2.72591
2.78145
2.84153
2.89829
2.96024
3.01385
3.04541
3.06695
3.06647
3.06078
3.05537
3.05105
3.04807
3.04791
3.04897
3.0475
3.04265
3.03544
3.02524
3.01124
3.00005
3.00175
3.0087
3.0229
3.04493
3.05765
3.07263
3.08362
3.13175
1.02767
1.1172
1.11469
1.08453
1.0385
0.969675
0.932376
0.921205
0.944407
0.992347
1.06246
1.1229
1.156
1.15124
1.13059
1.08656
1.05265
1.02968
1.01825
1.02434
1.04077
1.06686
1.09313
1.10191
1.11268
1.12279
1.11941
1.11445
1.11035
1.11369
1.12079
1.14785
2.06067
2.56553
2.72581
2.77391
2.78192
2.78667
2.7676
2.73974
2.71323
2.69046
2.67343
2.65833
2.64932
2.63347
2.61538
2.59679
2.5777
2.55861
2.53987
2.52153
2.50504
2.49077
2.47681
2.46539
2.45513
2.44688
2.44249
2.43399
2.42663
2.42138
2.41983
2.4245
2.43396
2.44717
2.46229
2.47499
2.48522
2.49179
2.49615
2.5038
2.51734
2.5366
2.56005
2.58696
2.60768
2.62411
2.63408
2.64127
2.64588
2.64661
2.65785
2.66998
2.68979
2.70893
2.72766
2.74257
2.7548
2.76788
2.77917
2.80168
2.83846
2.87791
2.93777
2.98179
3.01324
3.02276
3.02343
3.02453
3.02429
3.02313
3.02001
3.01615
3.00791
2.99642
2.9825
2.96843
2.96098
2.96005
2.96455
2.97848
2.99431
3.01042
3.02415
3.02958
3.02762
3.0383
3.08028
1.0024
0.933502
0.938994
0.982955
1.03479
1.105
1.13886
1.13981
1.12439
1.07583
0.988321
0.942635
0.950104
0.967166
0.998283
1.04695
1.08477
1.10828
1.10333
1.09472
1.07516
1.04331
1.02041
1.0123
1.00827
1.01495
1.02694
1.03726
1.04363
1.05248
1.06229
1.1179
2.31659
2.55071
2.64234
2.72305
2.73309
2.72657
2.69966
2.67221
2.64982
2.63231
2.61802
2.6017
2.58929
2.57282
2.55298
2.53859
2.5235
2.50814
2.49347
2.47891
2.46252
2.44856
2.43827
2.43223
2.42894
2.42676
2.42742
2.43219
2.43704
2.44128
2.44447
2.45017
2.46017
2.47202
2.48597
2.5004
2.51524
2.53018
2.54447
2.55723
2.57103
2.58868
2.61066
2.6369
2.65909
2.6788
2.69319
2.70453
2.71372
2.71555
2.7271
2.73677
2.75036
2.76919
2.77924
2.79532
2.81594
2.83704
2.83646
2.84119
2.85659
2.87375
2.92246
2.9627
2.98413
2.99078
2.99647
2.99629
2.99731
2.99274
2.98333
2.97075
2.95431
2.93965
2.93254
2.93235
2.93707
2.94837
2.9636
2.97692
2.98698
3.00222
3.01531
3.01399
3.0033
3.01442
3.07267
1.01795
1.09402
1.11725
1.12034
1.0747
0.973233
0.895274
0.859759
0.885761
0.947366
1.0465
1.14852
1.20403
1.20118
1.17309
1.10925
1.04188
1.00084
0.986907
0.996448
1.02113
1.05975
1.10515
1.12455
1.14793
1.16094
1.15522
1.14589
1.13629
1.13221
1.1353
1.16428
2.33149
2.65933
2.7731
2.78502
2.80408
2.80328
2.7787
2.75099
2.7212
2.70115
2.68256
2.66268
2.64726
2.62816
2.60628
2.58644
2.57
2.55571
2.54466
2.5364
2.53063
2.52792
2.52449
2.52209
2.52165
2.51802
2.51337
2.50844
2.50384
2.50183
2.49928
2.50288
2.50977
2.51828
2.52684
2.53568
2.54556
2.55327
2.56367
2.57531
2.58502
2.60278
2.61812
2.63716
2.647
2.65628
2.6612
2.66705
2.67639
2.68077
2.69327
2.70058
2.71479
2.73208
2.74541
2.76443
2.78505
2.8089
2.81446
2.82338
2.84145
2.86507
2.90116
2.93689
2.94952
2.96025
2.97071
2.97724
2.97335
2.95981
2.94632
2.93746
2.92478
2.91252
2.90956
2.91163
2.9191
2.93449
2.95144
2.96523
2.97572
2.98672
2.99256
3.00164
2.98658
3.00266
3.0626
0.991868
0.903548
0.905664
0.949132
1.01087
1.11662
1.16847
1.16801
1.15337
1.10378
1.00798
0.941525
0.936447
0.952669
0.985848
1.0412
1.09263
1.12697
1.1213
1.11498
1.10863
1.08403
1.05631
1.03137
1.02333
1.02824
1.03401
1.04009
1.05078
1.06413
1.07281
1.09828
2.21186
2.48479
2.6754
2.73643
2.74726
2.72572
2.6979
2.67253
2.64687
2.63167
2.61852
2.60928
2.6013
2.59373
2.58314
2.57648
2.57359
2.5714
2.56959
2.56833
2.56829
2.56802
2.56789
2.56612
2.56112
2.55303
2.54491
2.53418
2.51981
2.50727
2.49222
2.47983
2.47219
2.46765
2.47287
2.48076
2.48464
2.495
2.50626
2.51544
2.5275
2.54501
2.56453
2.58801
2.60787
2.62644
2.64086
2.65118
2.66709
2.67334
2.6922
2.70412
2.72277
2.73723
2.75083
2.75434
2.75856
2.76943
2.77846
2.79277
2.81533
2.84029
2.87661
2.91405
2.93225
2.95214
2.95768
2.95943
2.95415
2.94048
2.92934
2.92119
2.91033
2.89579
2.89092
2.8923
2.90179
2.91502
2.9338
2.94725
2.96257
2.96934
2.97865
2.98679
2.97452
2.99299
3.04894
0.99725
1.05043
1.09679
1.11506
1.10728
1.00678
0.899691
0.831564
0.85098
0.906837
1.01047
1.1263
1.19366
1.19774
1.17237
1.10967
1.0266
0.972769
0.95667
0.965256
0.987349
1.02615
1.06954
1.10339
1.13503
1.15429
1.15154
1.14157
1.12725
1.11794
1.11428
1.112
2.07824
2.34135
2.54158
2.64935
2.63556
2.59418
2.55416
2.52957
2.5296
2.5375
2.54869
2.56248
2.56975
2.58021
2.58196
2.58492
2.58879
2.59067
2.58855
2.58421
2.57859
2.57179
2.56577
2.55858
2.54793
2.53391
2.51874
2.50014
2.47733
2.45551
2.43283
2.4132
2.39398
2.38214
2.37302
2.36425
2.36444
2.36049
2.36352
2.36893
2.37799
2.3943
2.41691
2.45312
2.4882
2.52016
2.55282
2.57593
2.60322
2.62185
2.64803
2.6664
2.69686
2.7194
2.73845
2.74168
2.74184
2.74905
2.74848
2.75151
2.75921
2.78595
2.82875
2.87269
2.90135
2.92409
2.93416
2.93646
2.93108
2.92057
2.91128
2.90317
2.89299
2.87961
2.87327
2.87641
2.88326
2.90461
2.92403
2.93704
2.9532
2.96267
2.96902
2.97713
2.96952
2.98693
3.04355
0.983363
0.918806
0.890709
0.922414
0.998643
1.11514
1.18682
1.19039
1.1759
1.13514
1.05324
0.969085
0.948529
0.956242
0.975583
1.01758
1.0743
1.10847
1.11347
1.12293
1.13612
1.12429
1.09348
1.06785
1.05845
1.05733
1.05665
1.05162
1.04986
1.05207
1.0526
1.04864
1.9138
2.23627
2.44243
2.49548
2.46542
2.4195
2.3993
2.40376
2.42373
2.45665
2.49013
2.52202
2.54074
2.56106
2.56666
2.57173
2.5744
2.57324
2.56745
2.55762
2.54352
2.52434
2.50197
2.47752
2.44826
2.41346
2.3836
2.35338
2.3284
2.30671
2.28456
2.26724
2.24926
2.23445
2.22156
2.21272
2.20739
2.20071
2.19903
2.195
2.19627
2.19616
2.21058
2.23241
2.27101
2.30889
2.35598
2.39377
2.44167
2.47072
2.52223
2.56529
2.61947
2.6679
2.70137
2.72116
2.72761
2.74236
2.74765
2.75097
2.75039
2.76976
2.80919
2.85805
2.88014
2.9023
2.91775
2.91952
2.91482
2.90618
2.89427
2.88517
2.87879
2.86761
2.86206
2.86502
2.87326
2.89342
2.90835
2.92654
2.94397
2.95612
2.9634
2.97129
2.9653
2.98111
3.03828
0.96202
0.992152
1.07069
1.12194
1.14873
1.04148
0.912352
0.81814
0.8204
0.860085
0.943936
1.04711
1.11702
1.12572
1.10598
1.05976
0.986308
0.929712
0.912161
0.914726
0.932264
0.961712
1.00024
1.03264
1.07612
1.08947
1.08751
1.07788
1.05925
1.03494
1.01661
0.988008
1.63627
2.08687
2.29599
2.39885
2.37688
2.34411
2.33731
2.35346
2.38893
2.42973
2.46045
2.48531
2.49902
2.50924
2.50297
2.4949
2.48111
2.46263
2.43935
2.41361
2.38645
2.35735
2.3254
2.29384
2.26285
2.23486
2.21287
2.18572
2.17178
2.161
2.14684
2.13907
2.12304
2.11962
2.11416
2.10694
2.10133
2.09258
2.0943
2.09057
2.09311
2.08997
2.09456
2.10037
2.12231
2.14301
2.17733
2.20918
2.26084
2.2977
2.36241
2.41805
2.49143
2.5728
2.64006
2.68517
2.7061
2.7182
2.72119
2.71264
2.70155
2.71449
2.76162
2.81229
2.85594
2.88327
2.90159
2.90079
2.8937
2.88424
2.87461
2.86981
2.86632
2.8581
2.85439
2.8531
2.85967
2.8765
2.89958
2.91509
2.93218
2.94679
2.9557
2.96301
2.95951
2.97519
3.03195
0.981964
0.949774
0.908378
0.90903
0.967039
1.07941
1.17454
1.18418
1.16942
1.13428
1.07378
0.993193
0.958708
0.956801
0.9526
0.973378
1.01546
1.04155
1.06107
1.07949
1.10488
1.09664
1.08242
1.06895
1.06506
1.05694
1.04898
1.03429
1.03006
1.02332
1.01525
1.00047
1.40045
2.12989
2.27842
2.36086
2.34183
2.32686
2.31769
2.32536
2.34109
2.35038
2.35556
2.35394
2.35317
2.34605
2.32723
2.30652
2.28117
2.25589
2.23119
2.20859
2.18638
2.16518
2.14353
2.12376
2.10632
2.09973
2.09368
2.07305
2.06823
2.06525
2.05994
2.05781
2.05035
2.04716
2.03959
2.04068
2.03579
2.03852
2.03851
2.04103
2.03621
2.03773
2.03291
2.03436
2.04469
2.05093
2.07714
2.09482
2.13217
2.15188
2.20688
2.26318
2.34009
2.4259
2.49724
2.57605
2.63163
2.6662
2.68433
2.68157
2.67241
2.68373
2.73169
2.78973
2.84757
2.87853
2.89504
2.89349
2.88719
2.88008
2.87219
2.8666
2.86413
2.85766
2.84915
2.84698
2.85101
2.8687
2.88992
2.90828
2.92647
2.94471
2.95627
2.96253
2.95851
2.97101
3.03055
0.922075
0.953561
1.00949
1.08681
1.1417
1.04397
0.905602
0.802881
0.793083
0.820282
0.871929
0.94052
1.00337
1.02317
1.01099
0.983984
0.936469
0.893194
0.877031
0.87697
0.888999
0.91034
0.935836
0.958953
0.989054
0.995846
0.994353
0.988152
0.976634
0.958459
0.935607
0.917526
1.16093
2.11799
2.35582
2.37328
2.31774
2.27044
2.24145
2.21723
2.20383
2.19824
2.18681
2.17068
2.15635
2.14483
2.12597
2.10568
2.08711
2.07293
2.06303
2.05673
2.04795
2.04009
2.03381
2.02695
2.02284
2.02062
2.01985
2.01585
2.01704
2.01273
2.02494
2.01685
2.02534
2.013
2.01829
2.00591
2.01004
1.99859
2.01103
2.00028
2.01335
2.00468
2.01371
1.99654
2.00974
2.00312
2.02235
2.0193
2.04159
2.04706
2.10824
2.17409
2.22411
2.29931
2.35706
2.41807
2.49583
2.56804
2.62055
2.63519
2.64446
2.65095
2.69647
2.76291
2.83728
2.86854
2.88664
2.88765
2.88078
2.87488
2.86825
2.86323
2.86154
2.85701
2.85098
2.84289
2.84239
2.85636
2.87604
2.89758
2.91834
2.94109
2.95528
2.96071
2.95569
2.96483
3.0266
0.988397
0.992539
0.957265
0.920201
0.943754
1.02599
1.10717
1.11953
1.12709
1.10325
1.05496
0.9923
0.960702
0.955654
0.941726
0.949708
0.971322
0.988726
1.0119
1.01872
1.0306
1.0427
1.03654
1.02719
1.0227
1.0167
1.00747
1.00226
1.00326
1.00227
1.00646
1.01832
1.15819
2.19354
2.50809
2.45008
2.28165
2.17902
2.11087
2.06773
2.04628
2.04906
2.04524
2.03433
2.01711
2.01209
2.00484
1.99856
1.99373
1.99255
1.99135
1.99167
1.99009
1.99122
1.99372
1.9926
1.99874
1.99526
1.99244
2.00935
1.9975
2.00295
2.00647
1.99987
2.00578
2.00259
1.99695
2.00291
1.99135
1.99261
1.9883
1.98343
1.99217
1.98452
1.98844
1.98331
1.9717
1.97623
1.96741
1.98027
1.98573
2.01049
2.07128
2.06908
2.07994
2.1615
2.23295
2.26429
2.32255
2.41589
2.50432
2.53469
2.58135
2.61217
2.6533
2.74603
2.83133
2.85975
2.88453
2.89094
2.88699
2.87999
2.87278
2.86525
2.86524
2.86312
2.85973
2.84901
2.84331
2.85091
2.86428
2.88504
2.90463
2.93353
2.95138
2.95326
2.95507
2.95642
3.01871
0.881283
0.887692
0.945423
1.00664
1.05614
0.994477
0.897163
0.822728
0.823657
0.838478
0.868016
0.908504
0.948734
0.968154
0.96524
0.956955
0.940232
0.918918
0.907121
0.906722
0.910491
0.917409
0.927226
0.936199
0.946195
0.951952
0.951958
0.94885
0.941076
0.928364
0.911978
0.894648
0.936269
1.86147
2.20375
2.19075
2.06113
1.96336
1.91198
1.90198
1.90973
1.92409
1.94211
1.96761
1.95643
1.95847
1.9626
1.96382
1.96484
1.96707
1.97003
1.97449
1.9741
1.98118
1.986
1.98547
1.99581
1.9911
1.9859
1.99528
1.98464
1.98088
1.9869
1.97674
1.98287
1.97588
1.96976
1.97034
1.96029
1.9569
1.96139
1.96973
1.96325
1.97045
1.96372
1.96666
1.95565
1.94862
1.94628
1.94438
1.94212
1.9656
1.97301
1.96313
1.98721
2.04062
2.06992
2.09163
2.13436
2.21957
2.31518
2.41391
2.49619
2.55882
2.61537
2.73344
2.82272
2.84384
2.87254
2.8956
2.89734
2.89205
2.88534
2.8739
2.8712
2.86492
2.86594
2.85207
2.84602
2.84647
2.85461
2.8748
2.89337
2.92118
2.94324
2.94533
2.94861
2.94896
3.01431
0.990198
1.04003
1.00703
0.954856
0.956566
1.00406
1.04717
1.06929
1.09112
1.07291
1.03898
0.996941
0.973202
0.964135
0.953013
0.95595
0.962055
0.973537
0.979242
0.982951
0.990468
0.993196
0.98936
0.982591
0.978133
0.974611
0.9714
0.967524
0.962235
0.956422
0.947081
0.95373
0.982983
1.45626
2.62284
2.42625
2.23097
2.08704
2.01828
1.99237
1.98768
1.98771
1.97453
1.97929
1.98576
1.98284
1.98146
1.98072
1.98054
1.97989
1.97756
1.98124
1.98308
1.98738
1.98321
1.97975
1.96984
1.96632
1.95552
1.95842
1.95172
1.95568
1.94983
1.9541
1.94525
1.94782
1.93428
1.94294
1.93118
1.94097
1.93422
1.94806
1.93995
1.9527
1.94061
1.94781
1.9253
1.93435
1.92207
1.9295
1.93419
1.95224
1.91751
1.92534
1.94601
1.95412
1.96083
1.99647
2.02646
2.07478
2.1386
2.2532
2.38827
2.49301
2.57675
2.70824
2.8073
2.8379
2.85705
2.88567
2.89045
2.88482
2.87902
2.87515
2.87366
2.8703
2.87066
2.85457
2.84349
2.83492
2.83794
2.8532
2.86937
2.89721
2.92814
2.93215
2.93867
2.93957
3.00789
0.867514
0.857719
0.918876
0.98531
1.01665
0.979549
0.919991
0.893014
0.902543
0.908219
0.922847
0.943656
0.962652
0.97319
0.974106
0.970732
0.964863
0.95646
0.947013
0.944032
0.942282
0.942714
0.944407
0.946523
0.948802
0.953378
0.953932
0.951463
0.943688
0.932108
0.917856
0.908531
0.993048
1.54533
2.75552
2.48463
2.28885
2.14573
2.06065
2.01769
1.99817
1.99732
1.98996
1.96751
1.95547
1.93602
1.93194
1.93296
1.93573
1.93931
1.94379
1.95149
1.96173
1.97227
1.97213
1.9675
1.96308
1.94755
1.94582
1.93259
1.93897
1.92994
1.94043
1.9359
1.94209
1.92951
1.931
1.92652
1.93018
1.92878
1.9341
1.93308
1.94295
1.94431
1.95511
1.95634
1.93987
1.96111
1.95014
1.94342
1.9659
1.96134
1.88399
1.88502
1.91681
1.89574
1.90176
1.95355
1.9959
2.03995
2.06919
2.14166
2.26926
2.40544
2.54407
2.71511
2.82723
2.85448
2.8615
2.88972
2.90791
2.90698
2.90539
2.90856
2.90149
2.9056
2.89958
2.8827
2.8636
2.84744
2.84947
2.85409
2.86634
2.88689
2.9179
2.92598
2.93127
2.92909
3.00053
0.989776
1.03026
1.01457
0.985585
0.982071
0.995213
1.00804
1.02009
1.03804
1.03009
1.01463
0.994062
0.98139
0.977718
0.970316
0.965468
0.965897
0.966771
0.966541
0.966161
0.966868
0.965963
0.9643
0.960563
0.959642
0.958571
0.953075
0.945288
0.93757
0.929212
0.918103
0.925187
0.957081
1.50838
2.41258
2.33452
2.22531
2.09566
2.03883
2.01322
1.99432
1.99166
1.99045
1.98262
1.98244
1.98333
1.98892
1.99769
2.00831
2.01654
2.02406
2.03546
2.04314
2.04931
2.04915
2.04732
2.04
2.0226
2.01523
2.0021
2.00523
1.99823
2.00368
1.99146
1.99312
1.98094
1.98555
1.99667
2.00593
2.02211
2.03438
2.05135
2.06515
2.08533
2.10152
2.11251
2.10699
2.11275
2.08476
2.07126
2.05619
1.96179
1.92225
1.94616
1.93563
1.88531
1.89895
1.94094
1.96468
1.96232
1.99202
2.08741
2.20224
2.33306
2.52477
2.72465
2.83471
2.86141
2.86697
2.88666
2.90885
2.90909
2.9067
2.91133
2.9109
2.90558
2.89976
2.88716
2.87224
2.84905
2.8436
2.84952
2.85223
2.87076
2.90291
2.91351
2.92034
2.91689
2.98974
0.908192
0.891474
0.935364
0.973559
0.997548
0.983516
0.961468
0.952701
0.958526
0.961967
0.967339
0.975777
0.981792
0.983592
0.982366
0.979514
0.974176
0.968697
0.96283
0.959074
0.957316
0.956275
0.955839
0.954916
0.955593
0.95725
0.951617
0.940025
0.928578
0.915797
0.892629
0.897869
0.98898
1.56884
2.21586
2.3673
2.29804
2.1646
2.13057
2.13177
2.13616
2.13244
2.12949
2.12462
2.12476
2.1199
2.12481
2.1319
2.13894
2.14469
2.14995
2.1548
2.1583
2.15726
2.15624
2.15253
2.15209
2.14826
2.15024
2.15386
2.1588
2.16581
2.17721
2.18665
2.19477
2.20867
2.21718
2.23316
2.25657
2.28221
2.30945
2.3275
2.34587
2.35321
2.36613
2.36424
2.36603
2.34657
2.29413
2.25343
2.1565
2.03951
2.00808
1.98865
1.94314
1.91103
1.95372
1.98385
1.98602
1.99226
2.03499
2.06111
2.15564
2.29891
2.52271
2.7462
2.84768
2.86424
2.87272
2.88824
2.90901
2.91206
2.9163
2.9188
2.92079
2.91031
2.90993
2.89914
2.87832
2.86174
2.84866
2.8473
2.84537
2.86093
2.89015
2.90399
2.91108
2.90885
2.98404
1.00091
1.03405
1.01868
0.978661
0.974959
0.979083
0.985874
0.991456
0.998826
0.999732
0.995572
0.989477
0.983131
0.977698
0.973163
0.970603
0.967069
0.964915
0.963739
0.962524
0.961846
0.960881
0.958322
0.955575
0.954558
0.951845
0.945683
0.936437
0.927472
0.920041
0.910123
0.904007
1.1813
1.85353
2.15049
2.27958
2.24992
2.18479
2.15809
2.16088
2.1733
2.18185
2.19407
2.20107
2.21007
2.2117
2.21955
2.23039
2.23888
2.24539
2.25437
2.26899
2.28592
2.30554
2.32249
2.33943
2.35673
2.37627
2.39555
2.41407
2.43404
2.4545
2.48607
2.50993
2.53379
2.56004
2.58683
2.60551
2.61878
2.62938
2.63751
2.64482
2.64813
2.64475
2.64132
2.62518
2.60512
2.57404
2.51819
2.43667
2.31852
2.22031
2.12118
2.05544
2.0113
2.02002
2.03313
2.06939
2.12516
2.0981
2.08939
2.08814
2.1587
2.35804
2.59331
2.80059
2.87342
2.88114
2.88974
2.9004
2.91398
2.91519
2.91966
2.92012
2.9192
2.9114
2.91354
2.90456
2.88501
2.87015
2.8531
2.85081
2.84095
2.85228
2.87668
2.89275
2.89954
2.89745
2.97549
0.953143
0.94671
0.967217
0.978963
0.989985
0.984611
0.978016
0.975308
0.978228
0.980692
0.982238
0.983727
0.983354
0.982201
0.978872
0.975155
0.972471
0.968154
0.963249
0.960833
0.960113
0.959088
0.958193
0.956689
0.956412
0.953891
0.947363
0.941162
0.936649
0.935882
0.935797
0.944764
1.4603
2.0011
2.20193
2.35783
2.34934
2.31737
2.29827
2.30749
2.32425
2.34329
2.36403
2.37877
2.39639
2.40204
2.41518
2.42547
2.43195
2.43743
2.4433
2.45132
2.46473
2.4869
2.51641
2.55251
2.59139
2.63138
2.66706
2.69631
2.71696
2.72895
2.73339
2.73672
2.74281
2.74615
2.74945
2.7473
2.74513
2.75239
2.75788
2.76921
2.76619
2.75529
2.74121
2.7195
2.69755
2.66911
2.63738
2.58394
2.48354
2.33278
2.19171
2.11927
2.09938
2.02689
2.02385
2.03943
2.03869
2.08433
2.10869
2.1185
2.21146
2.42135
2.69427
2.84954
2.89934
2.89563
2.90316
2.91215
2.92112
2.92306
2.92713
2.92693
2.92589
2.91871
2.92093
2.91084
2.89306
2.88024
2.86623
2.85596
2.83878
2.84608
2.86353
2.88093
2.88559
2.88549
2.96472
0.995709
1.00565
0.99632
0.97507
0.972714
0.974023
0.978194
0.982689
0.987264
0.987425
0.986149
0.983753
0.980423
0.977552
0.97406
0.971088
0.969069
0.966389
0.962776
0.960257
0.95885
0.957544
0.956623
0.956635
0.954732
0.950358
0.94552
0.940769
0.936493
0.932798
0.929522
0.951844
1.62957
2.11117
2.2996
2.44197
2.4821
2.49319
2.49227
2.49892
2.50833
2.52027
2.5317
2.53923
2.54891
2.54977
2.56244
2.57637
2.59294
2.61314
2.63469
2.66045
2.68799
2.71649
2.74306
2.76598
2.77975
2.79246
2.79591
2.79482
2.79043
2.78528
2.78086
2.77462
2.77113
2.76393
2.75755
2.74563
2.74216
2.74828
2.7488
2.75402
2.74862
2.73571
2.72307
2.71265
2.69634
2.67821
2.65641
2.62388
2.55765
2.42386
2.27979
2.11595
2.06213
2.06712
2.08441
2.07478
2.06825
2.08748
2.08175
2.09865
2.2874
2.5523
2.76704
2.89075
2.91411
2.90133
2.91663
2.92587
2.93249
2.93154
2.93064
2.92765
2.92792
2.92272
2.92031
2.91212
2.89871
2.89208
2.88002
2.86305
2.83802
2.83996
2.85076
2.8689
2.87283
2.87317
2.95096
0.971478
0.975782
0.984804
0.981678
0.981627
0.979445
0.979112
0.979365
0.980965
0.981684
0.98172
0.981388
0.9804
0.97914
0.975989
0.971776
0.969028
0.966836
0.96355
0.960243
0.958476
0.956824
0.95552
0.95393
0.95114
0.947662
0.945288
0.94256
0.938451
0.938467
0.939422
1.02059
1.77889
2.28884
2.44455
2.55406
2.61667
2.63883
2.65066
2.66306
2.67438
2.68674
2.70121
2.71187
2.72432
2.72833
2.7418
2.75103
2.76507
2.77884
2.79257
2.80724
2.82128
2.83248
2.83728
2.84159
2.84019
2.83593
2.82684
2.81533
2.80035
2.78662
2.77188
2.76534
2.75658
2.74608
2.73623
2.71976
2.72377
2.73704
2.74419
2.75229
2.7509
2.74335
2.73517
2.72526
2.71461
2.70483
2.68551
2.66089
2.60956
2.52736
2.38245
2.20176
2.08778
2.06892
2.04363
2.07176
2.11839
2.08184
2.08822
2.14946
2.39111
2.6822
2.81353
2.89223
2.90203
2.89631
2.92266
2.92836
2.93195
2.93427
2.93223
2.92964
2.9309
2.925
2.92057
2.91373
2.90574
2.90148
2.89085
2.87162
2.83717
2.83354
2.8376
2.8567
2.86064
2.86059
2.93666
0.983789
0.989246
0.985147
0.975172
0.974561
0.975479
0.977774
0.979482
0.981265
0.981148
0.980811
0.979804
0.978453
0.977212
0.975124
0.971384
0.967398
0.964973
0.963079
0.960614
0.958271
0.95594
0.953648
0.951897
0.950675
0.949701
0.949397
0.949367
0.949242
0.952101
0.949677
1.19185
2.00973
2.27927
2.54844
2.66551
2.7357
2.7681
2.77899
2.78719
2.79517
2.80441
2.81594
2.82254
2.82773
2.82296
2.83036
2.83199
2.83605
2.84131
2.84591
2.8511
2.85196
2.85196
2.84885
2.84243
2.83395
2.82273
2.81356
2.80166
2.78721
2.76688
2.74802
2.73175
2.71595
2.69892
2.68402
2.6677
2.679
2.70022
2.7191
2.73623
2.74087
2.73786
2.73382
2.7277
2.72417
2.71683
2.70663
2.68349
2.64695
2.58434
2.47633
2.30439
2.15872
2.10226
2.05081
2.06655
2.10583
2.07807
2.09445
2.22769
2.52986
2.75012
2.84993
2.89444
2.90304
2.90147
2.92535
2.92837
2.92899
2.93559
2.93482
2.9343
2.93685
2.92818
2.92328
2.91724
2.91129
2.90819
2.89991
2.8782
2.83586
2.82555
2.82458
2.84508
2.84758
2.84815
2.92258
0.975563
0.983128
0.984991
0.980684
0.978336
0.977304
0.977944
0.978096
0.978375
0.978473
0.978452
0.978126
0.977394
0.976774
0.975255
0.971584
0.966884
0.965009
0.963445
0.961356
0.958437
0.955559
0.952815
0.951559
0.951274
0.951373
0.952649
0.954837
0.957635
0.964434
0.962677
1.52855
2.32089
2.59524
2.70831
2.79062
2.84782
2.86082
2.85876
2.8575
2.85623
2.85572
2.85597
2.85518
2.85223
2.83686
2.83736
2.83381
2.83124
2.83017
2.82768
2.82408
2.81822
2.80996
2.7997
2.79197
2.78407
2.77739
2.76926
2.7634
2.75412
2.73922
2.71979
2.69489
2.67561
2.65612
2.63624
2.61835
2.62111
2.62214
2.64051
2.6613
2.68651
2.69965
2.71337
2.71824
2.72138
2.71904
2.71701
2.70317
2.66849
2.62098
2.55442
2.42538
2.26912
2.16832
2.07333
2.06828
2.08059
2.06589
2.12776
2.35908
2.67126
2.80685
2.86949
2.90295
2.90372
2.90045
2.92478
2.93155
2.93385
2.93937
2.94015
2.93882
2.93919
2.92794
2.92431
2.92076
2.91726
2.91565
2.90522
2.88268
2.8362
2.81941
2.81383
2.83377
2.83466
2.83535
2.90857
0.975752
0.984572
0.98427
0.978909
0.976633
0.976395
0.977455
0.977688
0.977065
0.976502
0.976383
0.976456
0.976352
0.976253
0.975396
0.972008
0.967607
0.965299
0.96343
0.961165
0.958057
0.954922
0.953121
0.95275
0.953294
0.95521
0.95865
0.964558
0.974181
0.988236
1.01599
1.80748
2.58807
2.79576
2.85519
2.89862
2.92773
2.92373
2.9101
2.89258
2.87323
2.862
2.85599
2.8524
2.84676
2.83036
2.82717
2.82044
2.81403
2.80886
2.80233
2.79496
2.78863
2.78101
2.77057
2.76257
2.75431
2.74562
2.73613
2.72456
2.71191
2.69578
2.67707
2.65019
2.63105
2.61575
2.59838
2.59351
2.59219
2.59266
2.6008
2.60922
2.62563
2.64147
2.6518
2.66176
2.66791
2.67493
2.68892
2.69231
2.6848
2.65881
2.64551
2.54776
2.41502
2.30001
2.17169
2.13489
2.13261
2.14784
2.27216
2.50216
2.73023
2.809
2.87318
2.89459
2.89704
2.89396
2.91791
2.92886
2.93194
2.93512
2.93897
2.93856
2.9381
2.92724
2.92563
2.92522
2.92486
2.92384
2.91208
2.88636
2.83651
2.8162
2.80501
2.8243
2.82223
2.82158
2.89401
0.975738
0.98149
0.98263
0.980695
0.9783
0.977914
0.977847
0.977017
0.975377
0.97446
0.974313
0.974335
0.974847
0.97515
0.974538
0.972149
0.967232
0.96499
0.963217
0.960962
0.957294
0.954123
0.95315
0.95295
0.953775
0.956152
0.958978
0.962961
0.970715
0.979455
1.07573
2.31766
2.49113
2.5885
2.68612
2.72657
2.731
2.72608
2.72127
2.71832
2.72208
2.72606
2.73628
2.74167
2.74521
2.75504
2.75265
2.755
2.75707
2.75738
2.75669
2.7554
2.75382
2.75074
2.74514
2.73813
2.72881
2.71685
2.70269
2.68745
2.66732
2.6496
2.63068
2.60974
2.59184
2.57685
2.55196
2.54341
2.53141
2.52971
2.53193
2.54243
2.55778
2.57578
2.59658
2.60871
2.61581
2.62337
2.6334
2.63983
2.62867
2.62076
2.63928
2.60919
2.52673
2.42663
2.30116
2.26041
2.25585
2.30842
2.45042
2.64196
2.75775
2.8064
2.86654
2.87526
2.88183
2.88652
2.90783
2.92187
2.92622
2.93167
2.9384
2.94022
2.93978
2.92937
2.9298
2.93276
2.9352
2.93273
2.91932
2.89076
2.83676
2.81328
2.79782
2.81525
2.81033
2.80742
2.87926
0.975755
0.980418
0.981785
0.980423
0.979042
0.978193
0.977794
0.976555
0.974822
0.974104
0.974309
0.974533
0.974415
0.974074
0.973074
0.971188
0.966956
0.963921
0.96239
0.960605
0.95684
0.95369
0.95254
0.951999
0.951971
0.952961
0.952883
0.950886
0.949541
0.946858
0.960649
1.67582
2.23819
2.422
2.50109
2.59141
2.65341
2.68452
2.72802
2.74962
2.7734
2.78001
2.78668
2.78932
2.78935
2.78709
2.78812
2.79067
2.79381
2.79626
2.79802
2.79917
2.79846
2.79592
2.79394
2.79482
2.79516
2.79068
2.78152
2.76628
2.74272
2.71618
2.68597
2.64907
2.62144
2.59331
2.56229
2.54224
2.52129
2.50768
2.49704
2.49755
2.50126
2.50756
2.52169
2.54143
2.55635
2.56533
2.56912
2.57993
2.57598
2.55701
2.56285
2.56821
2.54587
2.50829
2.42534
2.37451
2.36998
2.41266
2.4989
2.65962
2.75456
2.80143
2.85722
2.85193
2.86195
2.87952
2.8925
2.90644
2.91785
2.92613
2.93412
2.93765
2.93777
2.93009
2.9334
2.93911
2.94161
2.93737
2.92281
2.89303
2.8363
2.8094
2.7907
2.80508
2.79705
2.79401
2.86637
0.975732
0.979023
0.980989
0.9807
0.980571
0.979529
0.978233
0.97662
0.974641
0.973897
0.973889
0.974209
0.973788
0.972518
0.971391
0.970155
0.966844
0.962887
0.960987
0.959371
0.956211
0.952986
0.95121
0.949829
0.9492
0.949315
0.947805
0.94118
0.930414
0.919115
0.91985
1.25193
1.87846
2.01667
2.186
2.34976
2.51932
2.6115
2.67754
2.70527
2.70754
2.70388
2.69366
2.68683
2.68119
2.67765
2.68061
2.68719
2.69194
2.69528
2.69618
2.69262
2.68777
2.68093
2.67314
2.66395
2.66084
2.66084
2.66373
2.66523
2.66108
2.65575
2.64407
2.62274
2.60447
2.59025
2.56801
2.5338
2.50012
2.47213
2.45242
2.44082
2.44082
2.44622
2.45746
2.47144
2.48098
2.49402
2.49438
2.50276
2.51718
2.51588
2.51024
2.50836
2.49877
2.48849
2.46588
2.46693
2.44267
2.45042
2.5015
2.62497
2.72916
2.7819
2.83537
2.82714
2.84038
2.86763
2.87753
2.88828
2.90996
2.92313
2.93203
2.93551
2.93486
2.93027
2.93574
2.94326
2.94545
2.93908
2.9237
2.89371
2.83702
2.80623
2.78411
2.79674
2.78439
2.77985
2.8541
0.975698
0.977666
0.979726
0.980309
0.98058
0.979934
0.978593
0.976843
0.974985
0.974253
0.974019
0.974169
0.973804
0.97205
0.970253
0.968937
0.966241
0.961805
0.95945
0.957814
0.955381
0.95282
0.950253
0.9483
0.947018
0.94669
0.946707
0.94053
0.924923
0.903138
0.903787
1.04163
1.71215
1.89023
1.94982
2.0093
2.11841
2.24251
2.38982
2.49915
2.53626
2.55872
2.56061
2.56112
2.55963
2.5491
2.54407
2.55246
2.55787
2.55344
2.54734
2.54282
2.54046
2.54184
2.55224
2.56871
2.58236
2.5851
2.58072
2.56976
2.55712
2.5454
2.53567
2.53589
2.52846
2.51982
2.50757
2.49042
2.46741
2.43551
2.41209
2.38838
2.38608
2.39085
2.39759
2.40979
2.42054
2.42558
2.42822
2.42699
2.43715
2.44477
2.44723
2.44439
2.43679
2.43622
2.44463
2.44655
2.4457
2.45211
2.49071
2.57706
2.67006
2.741
2.80249
2.79945
2.81919
2.85395
2.87002
2.87943
2.90312
2.91998
2.93018
2.93275
2.93116
2.93053
2.94014
2.94815
2.9475
2.93965
2.92229
2.89263
2.83751
2.80327
2.77682
2.78813
2.77347
2.76665
2.84071
0.975846
0.977158
0.979338
0.980307
0.980823
0.980502
0.979454
0.977906
0.976254
0.975366
0.974974
0.974229
0.973594
0.9722
0.969068
0.967163
0.965596
0.96211
0.958397
0.956198
0.954598
0.953528
0.950281
0.945788
0.943254
0.941453
0.940665
0.936954
0.926535
0.904631
0.904864
0.957615
1.48623
1.70361
1.75935
1.80287
1.92356
2.08518
2.20711
2.28087
2.29118
2.26149
2.22447
2.20305
2.18118
2.15867
2.13834
2.13964
2.1628
2.19131
2.2069
2.23359
2.24647
2.27014
2.32657
2.36104
2.38955
2.41884
2.4327
2.44352
2.44486
2.44457
2.44452
2.4367
2.42853
2.4233
2.42104
2.42306
2.4104
2.3916
2.36904
2.33314
2.32845
2.32973
2.33466
2.3403
2.35974
2.36378
2.36074
2.36386
2.36573
2.37618
2.38073
2.37852
2.38459
2.38034
2.38198
2.405
2.42453
2.44781
2.47866
2.53713
2.61145
2.69263
2.76178
2.77449
2.79778
2.83667
2.85466
2.86575
2.88698
2.90667
2.91867
2.92398
2.9227
2.9234
2.93512
2.94509
2.94477
2.93738
2.91868
2.88946
2.83694
2.79963
2.76931
2.77852
2.76185
2.75336
2.82741
0.976203
0.977261
0.978632
0.979638
0.980505
0.98039
0.979886
0.978833
0.97774
0.976986
0.976555
0.975616
0.974072
0.972043
0.968425
0.965778
0.96438
0.962126
0.95733
0.954496
0.953127
0.952265
0.950082
0.943186
0.937921
0.935183
0.933433
0.932822
0.930418
0.921754
0.91832
0.937449
1.3355
1.69584
1.73063
1.74598
1.77297
1.82193
1.89637
1.87701
1.90474
2.05971
2.13469
2.14085
2.17617
2.23379
2.27514
2.28692
2.31065
2.31756
2.30077
2.27669
2.25
2.21064
2.19019
2.17401
2.16068
2.14155
2.1381
2.14451
2.15661
2.16659
2.17746
2.17927
2.18576
2.18902
2.19506
2.22423
2.24226
2.27266
2.2831
2.28259
2.27366
2.29321
2.3095
2.31877
2.32023
2.32184
2.30515
2.29428
2.28398
2.29236
2.29749
2.30903
2.3292
2.34635
2.34741
2.35905
2.38754
2.41883
2.45096
2.50167
2.5637
2.64049
2.71608
2.75118
2.78255
2.82387
2.84657
2.86093
2.88016
2.89946
2.9132
2.92115
2.92222
2.92463
2.93776
2.94658
2.94294
2.93307
2.91275
2.88449
2.83517
2.79578
2.76067
2.76804
2.75012
2.74071
2.81488
0.97661
0.977245
0.978276
0.979873
0.980787
0.980712
0.980204
0.97972
0.979154
0.978687
0.978203
0.97711
0.975286
0.972856
0.968589
0.965125
0.963351
0.962146
0.958604
0.95429
0.951791
0.95027
0.948708
0.942094
0.93419
0.930326
0.928291
0.925811
0.923118
0.920127
0.91563
0.922648
1.10988
1.60802
1.84068
1.90546
1.97051
2.10325