/*--------------------------------*- C++ -*----------------------------------*\
| =========                 |                                                 |
| \\      /  F ield         | OpenFOAM: The Open Source CFD Toolbox           |
|  \\    /   O peration     | Version:  2.2.x                                 |
|   \\  /    A nd           | Web:      www.OpenFOAM.org                      |
|    \\/     M anipulation  |                                                 |
\*---------------------------------------------------------------------------*/
FoamFile
{
    version     2.0;
    format      ascii;
    class       surfaceScalarField;
    location    "0.55";
    object      phi;
}
// * * * * * * * * * * * * * * * * * * * * * * * * * * * * * * * * * * * * * //

dimensions      [1 0 -1 0 0 0 0];

internalField   nonuniform List<scalar> 
28084
(
0.000746224
0.000742988
0.000740213
0.000737877
0.000735962
0.000734443
0.000733299
0.000732503
0.000732031
0.000731856
0.00073195
0.000732288
0.00073284
0.000733581
0.000734484
0.000735523
0.000736673
0.00073791
0.00073921
0.000740553
0.000741918
0.000743286
0.000744639
0.000745961
0.000747237
0.000748455
0.000749601
0.000750665
0.000751637
0.000752509
0.000753273
0.000753923
0.000754452
0.000754855
0.000722912
0.000720101
0.000716705
0.000712564
0.000707982
0.000703204
0.000698289
0.000693161
0.000687719
0.000681923
0.000675804
0.000678339
0.000680867
0.000683491
0.000686348
0.000689542
0.000693117
0.000697039
0.000701208
0.000705479
0.000709692
0.000713702
0.000717405
0.000720743
0.000723702
0.000726293
0.000728529
0.000730408
0.000731898
0.000732939
0.000733447
0.000733319
0.000732485
0.0007309
0.00072854
0.000725401
0.000721491
0.00071682
0.000711405
0.000705258
0.000698396
0.000690839
0.000682611
0.000673745
0.000664279
0.000654256
0.000643724
0.000632737
0.000621349
0.000609619
0.000597606
0.000585371
0.000572973
0.000560472
0.000547924
0.000535388
0.000522918
0.000510572
0.000498406
0.000486479
0.000474854
0.000463597
0.000452775
0.000442462
0.00043273
0.000423651
0.000415291
0.000407707
0.000400936
0.000394989
0.000389838
0.000385403
0.000381535
0.000377993
0.000374427
0.000370341
0.000365069
0.00035774
0.000347246
0.000332224
0.000311049
0.000281876
0.000242746
0.000191775
3.7119e-06
3.23513e-06
0.00074974
2.77572e-06
0.000748785
2.33538e-06
0.000748259
1.91574e-06
0.000748147
1.51833e-06
0.000748429
1.14451e-06
0.000749083
7.95452e-07
0.000750087
4.72133e-07
0.000751415
1.7529e-07
0.000753039
-9.458e-08
0.000754933
-3.37226e-07
0.000757068
-5.52641e-07
0.000759414
-7.41055e-07
0.000761942
-9.02918e-07
0.000764622
-1.03889e-06
0.000767426
-1.14981e-06
0.000770325
-1.23667e-06
0.000773292
-1.30061e-06
0.0007763
-1.34287e-06
0.000779324
-1.36477e-06
0.000782341
-1.36768e-06
0.000785328
-1.353e-06
0.000788266
-1.32213e-06
0.000791134
-1.27648e-06
0.000793916
-1.21739e-06
0.000796595
-1.14619e-06
0.000799159
-1.06412e-06
0.000801594
-9.72358e-07
0.00080389
-8.71996e-07
0.000806036
-7.64042e-07
0.000808025
-6.49412e-07
0.000809849
-5.28932e-07
0.000811502
-4.03328e-07
0.000812979
-1.42633e-05
0.000814276
-1.03618e-06
0.000721132
-3.61606e-07
0.000693766
1.13471e-06
0.000668379
2.8418e-06
0.00064852
4.38111e-06
0.000635785
5.52643e-06
0.000629309
6.20736e-06
0.000626796
6.47574e-06
0.000625835
6.45034e-06
0.000624683
6.26766e-06
0.000622448
-2.91303e-06
0.000618929
-3.36416e-06
0.000621414
-3.74735e-06
0.000623129
-4.05042e-06
0.000624476
-4.25697e-06
0.000625831
-4.3601e-06
0.00062745
-4.36241e-06
0.000629406
-4.27355e-06
0.000631608
-4.10762e-06
0.000633855
-3.88072e-06
0.000635921
-3.60882e-06
0.000637622
-3.30576e-06
0.000638857
-2.98172e-06
0.000639612
-2.64222e-06
0.000639929
-2.28808e-06
0.000639866
-1.91604e-06
0.000639461
-1.51969e-06
0.000638715
-1.0922e-06
0.000637599
-6.26972e-07
0.000636064
-1.1279e-07
0.000634037
4.63011e-07
0.000631473
1.07859e-06
0.000628365
1.72171e-06
0.000624708
2.38568e-06
0.000620506
3.06433e-06
0.000615767
3.75217e-06
0.000610501
4.44429e-06
0.000604712
5.13617e-06
0.000598409
5.82348e-06
0.000591597
6.50185e-06
0.000584288
7.16679e-06
0.000576495
7.81372e-06
0.000568235
8.43802e-06
0.000559529
9.0351e-06
0.000550396
9.60047e-06
0.000540861
1.01298e-05
0.00053095
1.0619e-05
0.000520691
1.10642e-05
0.000510116
1.14615e-05
0.000499256
1.18074e-05
0.000488145
1.20987e-05
0.000476813
1.23322e-05
0.000465292
1.2505e-05
0.00045361
1.26142e-05
0.000441793
1.26573e-05
0.000429862
1.26314e-05
0.000417835
1.2534e-05
0.000405729
1.23627e-05
0.000393554
1.21151e-05
0.000381322
1.17893e-05
0.000369041
1.13838e-05
0.000356719
1.08981e-05
0.000344364
1.03333e-05
0.000331987
9.69235e-06
0.000319596
8.98128e-06
0.000307204
8.20981e-06
0.000294823
7.39265e-06
0.000282469
6.55078e-06
0.000270155
5.71313e-06
0.000257896
4.91852e-06
0.000245706
4.21817e-06
0.000233592
3.67871e-06
0.000221559
3.38576e-06
0.000209598
3.44809e-06
0.000197682
4.00186e-06
0.000185759
5.21457e-06
0.000173739
7.2872e-06
0.000161477
1.04527e-05
0.000148758
1.49677e-05
0.000135277
2.1092e-05
0.000120618
2.90505e-05
0.000104234
3.89611e-05
8.54347e-05
5.07502e-05
6.33901e-05
0.000191544
3.71936e-05
5.11203e-06
4.19073e-06
0.000754435
3.30116e-06
0.00075573
2.44751e-06
0.000757426
1.63381e-06
0.00075951
8.63806e-07
0.000761963
1.40861e-07
0.000764765
-5.32086e-07
0.000767892
-1.15259e-06
0.000771318
-1.71876e-06
0.000775016
-2.22922e-06
0.000778956
-2.6832e-06
0.000783108
-3.08049e-06
0.00078744
-3.42139e-06
0.000791922
-3.70676e-06
0.00079652
-3.93789e-06
0.000801204
-4.11651e-06
0.000805943
-4.24472e-06
0.000810708
-4.32493e-06
0.000815468
-4.35978e-06
0.000820197
-4.35211e-06
0.00082487
-4.30488e-06
0.000829463
-4.22114e-06
0.000833953
-4.10392e-06
0.00083832
-3.95627e-06
0.000842545
-3.78114e-06
0.000846613
-3.58139e-06
0.000850509
-3.35973e-06
0.000854219
-3.11873e-06
0.000857733
-2.86077e-06
0.00086104
-2.58804e-06
0.000864134
-2.30254e-06
0.000867006
-2.00604e-06
0.000869651
-1.70014e-06
0.000872066
2.86667e-05
0.000874246
1.55719e-05
0.000831492
1.40081e-05
0.000823926
1.26634e-05
0.000815739
1.1682e-05
0.000807738
1.1024e-05
0.000800828
1.05924e-05
0.000795255
1.02892e-05
0.000790641
1.00512e-05
0.000786328
9.85708e-06
0.00078173
9.71713e-06
0.00077654
-6.48214e-06
0.000770759
-6.79279e-06
0.000772161
-6.96097e-06
0.000773047
-7.00287e-06
0.000773711
-6.92905e-06
0.000774442
-6.74905e-06
0.000775472
-6.47098e-06
0.000776933
-6.10148e-06
0.000778838
-5.64655e-06
0.000781096
-5.1126e-06
0.000783543
-4.50704e-06
0.000785993
-3.83821e-06
0.00078827
-3.11474e-06
0.000790244
-2.3449e-06
0.000791833
-1.53646e-06
0.000792995
-6.97499e-07
0.000793705
1.62847e-07
0.000793925
1.04086e-06
0.000793581
1.96421e-06
0.000792582
2.93212e-06
0.00079085
3.9435e-06
0.000788305
4.99508e-06
0.000784874
6.07954e-06
0.000780508
7.18886e-06
0.00077518
8.31549e-06
0.000768886
9.4525e-06
0.00076164
1.05935e-05
0.000753462
1.17323e-05
0.000744375
1.28629e-05
0.000734407
1.39791e-05
0.000723585
1.50744e-05
0.000711941
1.61426e-05
0.000699514
1.71768e-05
0.000686349
1.81707e-05
0.0006725
1.91177e-05
0.000658024
2.00117e-05
0.000642984
2.08466e-05
0.000627446
2.16168e-05
0.000611478
2.23168e-05
0.00059515
2.29413e-05
0.00057853
2.34856e-05
0.000561684
2.39453e-05
0.000544676
2.43166e-05
0.000527565
2.45958e-05
0.000510402
2.47798e-05
0.000493235
2.48661e-05
0.000476101
2.48525e-05
0.000459036
2.47374e-05
0.000442064
2.452e-05
0.000425207
2.42002e-05
0.000408482
2.3779e-05
0.000391901
2.32586e-05
0.000375472
2.26432e-05
0.000359201
2.1939e-05
0.00034309
2.11553e-05
0.000327139
2.03049e-05
0.000311343
1.94056e-05
0.000295693
1.84811e-05
0.000280176
1.75631e-05
0.00026477
1.66936e-05
0.000249448
1.59288e-05
0.000234177
1.5343e-05
0.000218914
1.50349e-05
0.000203614
1.51343e-05
0.000188224
1.58095e-05
0.000172691
1.72754e-05
0.00015696
1.97993e-05
0.000140979
2.37023e-05
0.000124693
2.93537e-05
0.000108048
3.71512e-05
9.09809e-05
4.74774e-05
7.34045e-05
6.06052e-05
5.5165e-05
7.65465e-05
3.59558e-05
0.000228434
1.5244e-05
4.23053e-06
2.89594e-06
0.000760308
1.6045e-06
0.000763821
3.63709e-07
0.000767708
-8.19269e-07
0.000771957
-1.93779e-06
0.000776551
-2.98585e-06
0.000781471
-3.95817e-06
0.000786692
-4.85036e-06
0.000792189
-5.6589e-06
0.000797933
-6.38124e-06
0.000803893
-7.01579e-06
0.000810036
-7.56192e-06
0.00081633
-8.01992e-06
0.000822741
-8.39094e-06
0.000829233
-8.67693e-06
0.000835774
-8.88057e-06
0.00084233
-9.00514e-06
0.000848869
-9.05446e-06
0.00085536
-9.03276e-06
0.000861774
-8.9446e-06
0.000868082
-8.79475e-06
0.00087426
-8.58811e-06
0.000880283
-8.32963e-06
0.00088613
-8.02421e-06
0.000891781
-7.67665e-06
0.00089722
-7.29157e-06
0.00090243
-6.87338e-06
0.000907399
-6.42625e-06
0.000912115
-5.95404e-06
0.000916569
-5.46029e-06
0.000920753
-4.94823e-06
0.00092466
-4.42076e-06
0.000928285
-3.88041e-06
0.000931625
1.65874e-05
0.000934678
1.76738e-05
0.00087608
1.72095e-05
0.000864319
1.69886e-05
0.000851759
1.68593e-05
0.000840233
1.67582e-05
0.000831213
1.66421e-05
0.000825012
1.64817e-05
0.000820914
1.62651e-05
0.000817746
1.59929e-05
0.000814438
1.56712e-05
0.000810316
-8.43584e-06
0.000805126
-8.796e-06
0.000805226
-9.03843e-06
0.000804674
-9.15194e-06
0.000803733
-9.13686e-06
0.000802741
-8.99384e-06
0.000801987
-8.72103e-06
0.000801645
-8.3149e-06
0.000801739
-7.77245e-06
0.000802163
-7.09346e-06
0.000802726
-6.28156e-06
0.000803211
-5.34369e-06
0.000803435
-4.28826e-06
0.000803277
-3.12252e-06
0.000802694
-1.85093e-06
0.000801695
-4.74608e-07
0.000800316
1.0113e-06
0.000798586
2.59424e-06
0.000796514
4.26033e-06
0.00079406
6.00346e-06
0.00079115
7.81613e-06
0.000787704
9.68869e-06
0.000783653
1.16087e-05
0.000778948
1.35628e-05
0.000773564
1.55379e-05
0.000767494
1.75215e-05
0.000760737
1.95015e-05
0.000753296
2.14658e-05
0.00074517
2.34025e-05
0.000736358
2.52994e-05
0.000726858
2.71441e-05
0.00071667
2.89248e-05
0.000705803
3.06296e-05
0.000694269
3.22478e-05
0.000682088
3.3769e-05
0.000669284
3.51839e-05
0.000655891
3.64839e-05
0.000641943
3.76617e-05
0.000627482
3.87108e-05
0.000612553
3.96258e-05
0.000597204
4.04023e-05
0.000581486
4.1037e-05
0.000565449
4.15275e-05
0.000549142
4.18723e-05
0.000532611
4.2071e-05
0.000515901
4.21242e-05
0.000499052
4.20335e-05
0.000482099
4.18017e-05
0.000465076
4.14327e-05
0.000448011
4.09321e-05
0.000430929
4.03071e-05
0.000413851
3.95668e-05
0.000396797
3.87228e-05
0.000379781
3.77895e-05
0.000362817
3.67847e-05
0.000345912
3.57302e-05
0.000329071
3.46527e-05
0.000312292
3.35846e-05
0.000295568
3.25655e-05
0.000278884
3.16443e-05
0.000262217
3.08816e-05
0.000245537
3.03543e-05
0.000228808
3.01605e-05
0.000211987
3.04262e-05
0.000195028
3.13137e-05
0.000177887
3.303e-05
0.000160523
3.58354e-05
0.000142906
4.00483e-05
0.000125015
4.60464e-05
0.000106846
5.42633e-05
8.84096e-05
6.51779e-05
6.973e-05
7.92566e-05
5.08192e-05
9.67465e-05
3.15617e-05
0.000243324
1.15173e-05
1.10116e-06
-6.16603e-07
0.000767362
-2.2826e-06
0.000773056
-3.88528e-06
0.000779098
-5.41361e-06
0.000785478
-6.85736e-06
0.00079218
-8.20725e-06
0.000799185
-9.45512e-06
0.000806469
-1.05941e-05
0.000814006
-1.16187e-05
0.000821766
-1.25248e-05
0.000829715
-1.33097e-05
0.000837821
-1.39723e-05
0.000846048
-1.45125e-05
0.000854359
-1.49319e-05
0.000862719
-1.5233e-05
0.00087109
-1.54195e-05
0.000879437
-1.54961e-05
0.000887725
-1.54679e-05
0.000895922
-1.53411e-05
0.000903995
-1.51222e-05
0.000911915
-1.48178e-05
0.000919655
-1.44351e-05
0.000927189
-1.39811e-05
0.000934495
-1.34628e-05
0.000941552
-1.28871e-05
0.000948341
-1.22606e-05
0.000954847
-1.15896e-05
0.000961056
-1.08801e-05
0.000966958
-1.01377e-05
0.000972541
-9.36732e-06
0.000977799
-8.5737e-06
0.000982725
-7.76094e-06
0.000987316
-6.93267e-06
0.000991568
1.66622e-05
0.000995479
2.22665e-05
0.000924014
2.25167e-05
0.000909154
2.2647e-05
0.000893925
2.25955e-05
0.000880579
2.24054e-05
0.000870762
2.21442e-05
0.000864654
2.18651e-05
0.000861214
2.15988e-05
0.000858935
2.13583e-05
0.000856514
2.11477e-05
0.000853174
-9.17171e-06
0.000848665
-9.6101e-06
0.000848677
-9.85703e-06
0.000847869
-9.93524e-06
0.000846597
-9.8582e-06
0.000845255
-9.63022e-06
0.000844168
-9.24725e-06
0.000843514
-8.70041e-06
0.000843308
-7.98074e-06
0.000843419
-7.08355e-06
0.000843631
-6.01075e-06
0.000843708
-4.77066e-06
0.000843458
-3.37559e-06
0.000842765
-1.83843e-06
0.000841594
-1.70328e-07
0.000839967
1.62008e-06
0.000837931
3.5263e-06
0.000835509
5.54549e-06
0.000832684
7.67193e-06
0.000829405
9.89873e-06
0.000825593
1.22172e-05
0.000821167
1.46164e-05
0.00081606
1.70833e-05
0.000810232
1.96042e-05
0.00080367
2.21649e-05
0.000796381
2.47516e-05
0.000788383
2.73501e-05
0.000779693
2.99458e-05
0.000770329
3.25236e-05
0.000760305
3.50676e-05
0.000749635
3.75612e-05
0.000738336
3.99879e-05
0.000726426
4.23312e-05
0.000713931
4.45749e-05
0.000700879
4.67036e-05
0.000687301
4.87027e-05
0.00067323
5.05586e-05
0.000658705
5.2259e-05
0.000643761
5.37929e-05
0.000628441
5.5151e-05
0.000612782
5.63253e-05
0.000596827
5.73096e-05
0.000580613
5.80994e-05
0.000564178
5.86918e-05
0.000547556
5.9086e-05
0.000530777
5.92829e-05
0.000513869
5.92855e-05
0.000496856
5.90991e-05
0.000479758
5.87312e-05
0.000462596
5.81919e-05
0.000445383
5.7494e-05
0.000428136
5.66535e-05
0.000410866
5.56899e-05
0.000393585
5.46263e-05
0.000376303
5.34901e-05
0.000359025
5.23132e-05
0.000341756
5.11323e-05
0.000324496
4.99898e-05
0.000307239
4.8934e-05
0.000289973
4.80209e-05
0.000272679
4.73163e-05
0.000255331
4.68985e-05
0.000237897
4.68633e-05
0.000220337
4.73302e-05
0.00020261
4.84497e-05
0.000184674
5.04129e-05
0.000166492
5.34603e-05
0.000148036
5.78893e-05
0.00012929
6.40592e-05
0.000110257
7.23992e-05
9.09586e-05
8.34406e-05
7.14416e-05
9.78431e-05
5.17821e-05
0.000116199
3.19864e-05
0.000254454
1.17124e-05
-4.23855e-06
-6.31051e-06
0.0007756
-8.32484e-06
0.000783435
-1.02651e-05
0.000791593
-1.21158e-05
0.000800066
-1.38623e-05
0.000808839
-1.54915e-05
0.000817893
-1.69919e-05
0.000827205
-1.83535e-05
0.000836747
-1.95684e-05
0.000846488
-2.06308e-05
0.000856394
-2.15365e-05
0.00086643
-2.22836e-05
0.000876558
-2.28719e-05
0.000886739
-2.33029e-05
0.000896934
-2.35801e-05
0.000907106
-2.3708e-05
0.000917214
-2.36927e-05
0.000927224
-2.35412e-05
0.000937098
-2.32614e-05
0.000946804
-2.2862e-05
0.00095631
-2.2352e-05
0.000965586
-2.17408e-05
0.000974606
-2.10377e-05
0.000983347
-2.02521e-05
0.000991785
-1.93932e-05
0.000999903
-1.847e-05
0.00100768
-1.74907e-05
0.00101511
-1.64634e-05
0.00102218
-1.53955e-05
0.00102887
-1.42938e-05
0.00103519
-1.31644e-05
0.00104111
-1.20128e-05
0.00104665
-1.08439e-05
0.0010518
2.57543e-05
0.00105656
2.85829e-05
0.000993206
2.91164e-05
0.000981548
2.9121e-05
0.000968964
2.87199e-05
0.000957367
2.80978e-05
0.00094837
2.74427e-05
0.000942302
2.688e-05
0.000938363
2.64598e-05
0.00093528
2.6178e-05
0.000931936
2.60059e-05
0.000927683
-9.89028e-06
0.00092236
-1.03146e-05
0.000921092
-1.05005e-05
0.000919049
-1.04833e-05
0.000916605
-1.02866e-05
0.000914163
-9.91833e-06
0.00091205
-9.37227e-06
0.000910446
-8.63422e-06
0.000909363
-7.68931e-06
0.00090867
-6.52842e-06
0.000908146
-5.15183e-06
0.000907547
-3.56931e-06
0.000906662
-1.79745e-06
0.00090535
1.4507e-07
0.000903544
2.2406e-06
0.00090123
4.48691e-06
0.000898422
6.87709e-06
0.000895137
9.40559e-06
0.000891362
1.2065e-05
0.000887051
1.48456e-05
0.000882128
1.77353e-05
0.000876515
2.07192e-05
0.000870145
2.3781e-05
0.000862981
2.69037e-05
0.000855008
3.00702e-05
0.000846238
3.32638e-05
0.000836694
3.64679e-05
0.000826403
3.96654e-05
0.000815389
4.28384e-05
0.000803677
4.59687e-05
0.000791289
4.90374e-05
0.000778252
5.20256e-05
0.000764597
5.49145e-05
0.000750358
5.76857e-05
0.000735576
6.03215e-05
0.000720294
6.28051e-05
0.000704558
6.51206e-05
0.000688414
6.72535e-05
0.000671911
6.91905e-05
0.000655097
7.09199e-05
0.000638018
7.24317e-05
0.00062072
7.37178e-05
0.000603244
7.4772e-05
0.000585627
7.55902e-05
0.000567903
7.61705e-05
0.0005501
7.65138e-05
0.000532241
7.66236e-05
0.000514344
7.65062e-05
0.000496425
7.61715e-05
0.000478495
7.56328e-05
0.000460563
7.49071e-05
0.000442636
7.40159e-05
0.00042472
7.2985e-05
0.000406819
7.1845e-05
0.000388937
7.06316e-05
0.000371076
6.93855e-05
0.000353235
6.81526e-05
0.000335411
6.69841e-05
0.000317595
6.59367e-05
0.000299775
6.5073e-05
0.00028193
6.44634e-05
0.000264033
6.41879e-05
0.00024605
6.43403e-05
0.000227943
6.50333e-05
0.000209666
6.6406e-05
0.000191175
6.86329e-05
0.000172429
7.19336e-05
0.000153395
7.65815e-05
0.000134053
8.29102e-05
0.000114397
9.13285e-05
9.4445e-05
0.000102383
7.42421e-05
0.000116887
5.38881e-05
0.000135819
3.34766e-05
0.000265749
1.27819e-05
-1.17471e-05
-1.41455e-05
0.000785028
-1.64831e-05
0.00079496
-1.87378e-05
0.000805191
-2.08888e-05
0.000815714
-2.29165e-05
0.000826517
-2.48033e-05
0.000837581
-2.65337e-05
0.000848881
-2.80945e-05
0.000860389
-2.94749e-05
0.000872075
-3.06667e-05
0.000883901
-3.16643e-05
0.000895831
-3.24647e-05
0.000907824
-3.30674e-05
0.00091984
-3.34741e-05
0.000931838
-3.36888e-05
0.000943776
-3.37173e-05
0.000955614
-3.3567e-05
0.000967312
-3.3247e-05
0.000978833
-3.27672e-05
0.000990141
-3.21385e-05
0.0010012
-3.13724e-05
0.00101199
-3.0481e-05
0.00102247
-2.9476e-05
0.00103261
-2.83697e-05
0.00104241
-2.71736e-05
0.00105183
-2.5899e-05
0.00106086
-2.45569e-05
0.00106949
-2.31573e-05
0.00107769
-2.17096e-05
0.00108548
-2.02226e-05
0.00109283
-1.8704e-05
0.00109974
-1.7161e-05
0.00110621
-1.55996e-05
0.00111224
2.22173e-05
0.00111782
3.23441e-05
0.00104113
3.39297e-05
0.00102617
3.4631e-05
0.00101094
3.45577e-05
0.00099778
3.40068e-05
0.000988374
3.32983e-05
0.000982795
3.26529e-05
0.000979823
3.21647e-05
0.000977798
3.18339e-05
0.000975344
3.1615e-05
0.000971688
-9.38117e-06
0.000966627
-9.82471e-06
0.000964397
-1.00023e-05
0.000961304
-9.95684e-06
0.000957767
-9.71449e-06
0.000954235
-9.27994e-06
0.00095106
-8.63983e-06
0.00094842
-7.77094e-06
0.000946307
-6.65004e-06
0.000944555
-5.26188e-06
0.000942917
-3.60325e-06
0.000941136
-1.68265e-06
0.00093901
4.83934e-07
0.000936431
2.87755e-06
0.000933378
5.47194e-06
0.000929889
8.25004e-06
0.000926012
1.12007e-05
0.00092177
1.43149e-05
0.00091715
1.75825e-05
0.000912094
2.0991e-05
0.000906519
2.45243e-05
0.00090034
2.81638e-05
0.000893488
3.18888e-05
0.00088592
3.56783e-05
0.00087762
3.95112e-05
0.000868594
4.33671e-05
0.000858852
4.72254e-05
0.00084841
5.10653e-05
0.000837278
5.48657e-05
0.000825466
5.86044e-05
0.000812984
6.22596e-05
0.000799845
6.58092e-05
0.000786071
6.92319e-05
0.000771687
7.2507e-05
0.000756727
7.56149e-05
0.000741228
7.85372e-05
0.000725231
8.12568e-05
0.000708782
8.37581e-05
0.000691929
8.60272e-05
0.000674721
8.8052e-05
0.000657206
8.98221e-05
0.000639434
9.13293e-05
0.000621451
9.25675e-05
0.000603298
9.35329e-05
0.000585015
9.42246e-05
0.000566633
9.46442e-05
0.000548181
9.47967e-05
0.000529682
9.46907e-05
0.000511156
9.43386e-05
0.000492617
9.37571e-05
0.000474077
9.29675e-05
0.000455547
9.19963e-05
0.000437035
9.08753e-05
0.000418546
8.96419e-05
0.000400085
8.83391e-05
0.000381657
8.70157e-05
0.000363261
8.57258e-05
0.000344895
8.45287e-05
0.000326552
8.34885e-05
0.000308219
8.26741e-05
0.000289876
8.21601e-05
0.000271497
8.20286e-05
0.000253048
8.23714e-05
0.000234486
8.32956e-05
0.000215766
8.49297e-05
0.000196838
8.74328e-05
0.000177656
9.10039e-05
0.000158178
9.58923e-05
0.000138377
0.000102405
0.000118238
0.000110921
9.77684e-05
0.000121978
7.70072e-05
0.000136489
5.60595e-05
0.000155808
3.50805e-05
0.000278088
1.39648e-05
-2.13788e-05
-2.40774e-05
0.000795653
-2.67144e-05
0.000807633
-2.92614e-05
0.00081989
-3.16915e-05
0.000832419
-3.39798e-05
0.000845207
-3.61035e-05
0.000858235
-3.80425e-05
0.000871481
-3.97797e-05
0.000884914
-4.13012e-05
0.000898502
-4.25963e-05
0.000912208
-4.36576e-05
0.000925991
-4.44808e-05
0.000939811
-4.5065e-05
0.000953624
-4.54121e-05
0.000967386
-4.55266e-05
0.000981054
-4.54156e-05
0.000994585
-4.50881e-05
0.00100794
-4.45551e-05
0.00102107
-4.38289e-05
0.00103395
-4.29229e-05
0.00104653
-4.18513e-05
0.00105879
-4.06288e-05
0.0010707
-3.92703e-05
0.00108223
-3.77905e-05
0.00109335
-3.6204e-05
0.00110404
-3.45247e-05
0.0011143
-3.2766e-05
0.00112409
-3.09405e-05
0.00113342
-2.90597e-05
0.00114227
-2.71345e-05
0.00115063
-2.51744e-05
0.00115851
-2.31882e-05
0.00116589
-2.11834e-05
0.00117278
2.81712e-05
0.00117917
3.77999e-05
0.00110132
3.97617e-05
0.00108631
4.05096e-05
0.00107101
4.02634e-05
0.00105785
3.94544e-05
0.00104854
3.85178e-05
0.00104308
3.77385e-05
0.00104015
3.72252e-05
0.00103801
3.69625e-05
0.00103529
3.68804e-05
0.00103127
-8.1096e-06
0.00102584
-8.53827e-06
0.00102265
-8.65292e-06
0.00101857
-8.51595e-06
0.00101408
-8.16121e-06
0.00100968
-7.59333e-06
0.00100572
-6.79436e-06
0.00100236
-5.73514e-06
0.000999566
-4.38788e-06
0.000997147
-2.73586e-06
0.000994829
-7.78048e-07
0.000992334
1.47167e-06
0.000989449
3.99272e-06
0.000986052
6.76224e-06
0.000982115
9.75883e-06
0.00097767
1.2965e-05
0.000972767
1.63686e-05
0.000967433
1.99601e-05
0.000961654
2.37291e-05
0.000955376
2.7662e-05
0.000948521
3.17415e-05
0.00094101
3.59469e-05
0.000932785
4.02554e-05
0.000923817
4.46433e-05
0.000914105
4.9087e-05
0.000903665
5.35627e-05
0.000892525
5.80465e-05
0.000880709
6.25138e-05
0.000868236
6.69392e-05
0.000855125
7.12964e-05
0.00084139
7.55591e-05
0.000827052
7.97008e-05
0.000812132
8.36958e-05
0.00079666
8.75194e-05
0.000780669
9.11481e-05
0.000764194
9.456e-05
0.000747275
9.77349e-05
0.000729953
0.000100654
0.000712273
0.000103302
0.000694276
0.000105665
0.000676009
0.00010773
0.000657514
0.00010949
0.000638832
0.000110937
0.000620001
0.000112068
0.000601054
0.000112884
0.000582021
0.000113387
0.000562928
0.000113585
0.000543796
0.000113488
0.000524643
0.000113114
0.000505483
0.000112481
0.000486329
0.000111618
0.000467192
0.000110555
0.00044808
0.000109332
0.000429002
0.000107993
0.000409965
0.000106588
0.000390972
0.000105174
0.000372028
0.000103814
0.000353131
0.000102576
0.000334275
0.00010153
0.000315451
0.000100752
0.000296639
0.000100322
0.000277814
0.000100324
0.00025894
0.000100849
0.000239975
0.000102
0.00022087
0.000103895
0.000201573
0.000106681
0.000182028
0.000110537
0.00016219
0.000115689
0.00014202
0.000122415
0.000121496
0.000131065
0.000100617
0.000142144
7.94105e-05
0.00015662
5.7982e-05
0.000176176
3.65266e-05
0.000291587
1.50514e-05
-3.30838e-05
-3.60577e-05
0.000807485
-3.89715e-05
0.000821461
-4.17898e-05
0.000835692
-4.44792e-05
0.000850176
-4.70084e-05
0.000864899
-4.9349e-05
0.000879845
-5.14759e-05
0.000894989
-5.33677e-05
0.000910301
-5.50069e-05
0.000925746
-5.63799e-05
0.000941287
-5.74773e-05
0.000956881
-5.82936e-05
0.000972484
-5.88272e-05
0.000988052
-5.90801e-05
0.00100354
-5.90575e-05
0.00101889
-5.87677e-05
0.00103408
-5.82215e-05
0.00104905
-5.7432e-05
0.00106375
-5.6414e-05
0.00107816
-5.51836e-05
0.00109224
-5.37579e-05
0.00110594
-5.21546e-05
0.00111924
-5.03917e-05
0.00113211
-4.8487e-05
0.00114453
-4.64579e-05
0.00115647
-4.43214e-05
0.00116792
-4.20936e-05
0.00117886
-3.97897e-05
0.00118928
-3.74236e-05
0.00119916
-3.50083e-05
0.00120852
-3.25554e-05
0.00121733
-3.00755e-05
0.0012256
-2.75775e-05
0.00123333
3.07607e-05
0.00124051
4.29656e-05
0.0011584
4.54899e-05
0.00114267
4.64533e-05
0.00112688
4.61516e-05
0.00111366
4.51644e-05
0.00110471
4.40547e-05
0.00109981
4.31732e-05
0.00109738
4.26381e-05
0.00109556
4.24124e-05
0.00109291
4.23947e-05
0.00108876
-6.04771e-06
0.00108305
-6.43299e-06
0.00107877
-6.48199e-06
0.00107362
-6.2623e-06
0.00106812
-5.80782e-06
0.00106278
-5.11807e-06
0.00105795
-4.16698e-06
0.00105379
-2.9173e-06
0.00105022
-1.33542e-06
0.00104703
5.97835e-07
0.0010439
2.88328e-06
0.00104055
5.50535e-06
0.00103677
8.4368e-06
0.00103245
1.1648e-05
0.00102757
1.51129e-05
0.00102217
1.8811e-05
0.00101631
2.2728e-05
0.00101002
2.68522e-05
0.00100327
3.1171e-05
0.000996018
3.56685e-05
0.000988172
4.03249e-05
0.000979654
4.51164e-05
0.000970409
5.00174e-05
0.000960408
5.50017e-05
0.000949654
6.00431e-05
0.000938167
6.51154e-05
0.000925975
7.01923e-05
0.000913101
7.52468e-05
0.000899568
8.02507e-05
0.000885393
8.51753e-05
0.000870594
8.99914e-05
0.000855193
9.46699e-05
0.000839216
9.91824e-05
0.000822696
0.000103501
0.000805671
0.000107601
0.000788179
0.000111456
0.000770265
0.000115045
0.000751971
0.000118346
0.000733344
0.000121341
0.00071443
0.000124014
0.000695272
0.000126352
0.000675914
0.000128345
0.000656396
0.000129985
0.000636754
0.00013127
0.000617019
0.000132198
0.000597221
0.000132774
0.000577381
0.000133006
0.00055752
0.000132909
0.000537655
0.0001325
0.000517799
0.000131806
0.000497964
0.000130856
0.000478161
0.00012969
0.0004584
0.000128351
0.000438689
0.00012689
0.000419036
0.000125368
0.000399448
0.000123847
0.00037993
0.0001224
0.000360481
0.000121102
0.000341099
0.000120032
0.000321775
0.000119271
0.000302491
0.000118906
0.000283222
0.000119023
0.000263933
0.000119715
0.000244581
0.000121079
0.000225114
0.00012323
0.000205477
0.000126298
0.00018561
0.000130445
0.00016546
0.000135876
0.000144981
0.000142841
0.000124142
0.000151655
0.000102933
0.000162784
8.13776e-05
0.000177204
5.95736e-05
0.000196867
3.77415e-05
0.00030615
1.59863e-05
-4.68079e-05
-5.00336e-05
0.000820535
-5.3203e-05
0.000836449
-5.6273e-05
0.000852599
-5.92028e-05
0.000868983
-6.19543e-05
0.000885589
-6.44928e-05
0.0009024
-6.67879e-05
0.000919391
-6.88132e-05
0.000936531
-7.05474e-05
0.000953785
-7.19738e-05
0.000971112
-7.30807e-05
0.000988469
-7.38611e-05
0.00100581
-7.43128e-05
0.00102309
-7.44377e-05
0.00104025
-7.42418e-05
0.00105725
-7.37349e-05
0.00107405
-7.29294e-05
0.00109059
-7.18409e-05
0.00110683
-7.04866e-05
0.00112273
-6.88857e-05
0.00113825
-6.70584e-05
0.00115336
-6.50257e-05
0.00116801
-6.28087e-05
0.00118219
-6.04286e-05
0.00119587
-5.7906e-05
0.00120903
-5.52611e-05
0.00122164
-5.25128e-05
0.00123369
-4.96791e-05
0.00124517
-4.67767e-05
0.00125607
-4.38207e-05
0.00126639
-4.0825e-05
0.00127611
-3.7802e-05
0.00128525
-3.47622e-05
0.00129379
3.29819e-05
0.00130174
4.81256e-05
0.00121469
5.11588e-05
0.00119793
5.22698e-05
0.00118147
5.18726e-05
0.00116818
5.07107e-05
0.00115969
4.94671e-05
0.00115548
4.85409e-05
0.00115366
4.80445e-05
0.00115216
4.79111e-05
0.00114955
4.80074e-05
0.00114521
-3.12083e-06
0.00113918
-3.45465e-06
0.00113379
-3.43166e-06
0.00112755
-3.12468e-06
0.00112106
-2.56546e-06
0.00111484
-1.74644e-06
0.00110923
-6.32886e-07
0.00110436
8.20008e-07
0.0011001
2.65071e-06
0.00109619
4.87983e-06
0.0010923
7.50541e-06
0.00108813
1.05063e-05
0.00108347
1.38501e-05
0.00107823
1.75025e-05
0.0010724
2.14338e-05
0.00106604
2.56217e-05
0.00105922
3.00503e-05
0.00105196
3.47066e-05
0.00104424
3.95765e-05
0.001036
4.4642e-05
0.00102715
4.98804e-05
0.00101762
5.52651e-05
0.00100736
6.07675e-05
0.000996344
6.63581e-05
0.000984577
7.20077e-05
0.000972083
7.7687e-05
0.000958891
8.33664e-05
0.000945024
8.90156e-05
0.000930503
9.46032e-05
0.000915343
0.000100097
0.000899561
0.000105465
0.000883181
0.000110675
0.000866227
0.000115696
0.000848735
0.000120497
0.000830743
0.000125051
0.000812291
0.000129331
0.000793425
0.000133311
0.00077419
0.00013697
0.000754634
0.000140288
0.000734802
0.000143246
0.000714743
0.000145832
0.000694498
0.000148033
0.000674108
0.000149842
0.000653611
0.000151255
0.000633037
0.000152272
0.000612416
0.000152899
0.00059177
0.000153144
0.000571119
0.000153026
0.000550481
0.000152564
0.000529868
0.000151787
0.000509295
0.000150732
0.000488772
0.000149442
0.000468309
0.000147967
0.000447918
0.000146365
0.000427607
0.000144704
0.000407384
0.000143055
0.000387256
0.000141498
0.000367225
0.000140116
0.00034729
0.000138997
0.000327443
0.000138229
0.000307668
0.000137904
0.00028794
0.000138112
0.000268227
0.000138946
0.000248483
0.000140505
0.000228656
0.000142894
0.000208687
0.000146234
0.000188515
0.000150672
0.000168078
0.000156387
0.000147325
0.000163604
0.00012622
0.000172603
0.000104744
0.000183802
8.2916e-05
0.000198154
6.08281e-05
0.00021781
3.87145e-05
0.000321628
1.67608e-05
-6.24921e-05
-6.59478e-05
0.000834816
-6.93531e-05
0.000852607
-7.26565e-05
0.000870615
-7.58091e-05
0.00088884
-7.87653e-05
0.000907271
-8.14839e-05
0.000925891
-8.39282e-05
0.000944674
-8.60669e-05
0.000963588
-8.78744e-05
0.000982597
-8.93305e-05
0.00100166
-9.0421e-05
0.00102073
-9.11374e-05
0.00103975
-9.14766e-05
0.00105869
-9.14407e-05
0.00107748
-9.10365e-05
0.00109608
-9.02749e-05
0.00111444
-8.91707e-05
0.00113251
-8.77415e-05
0.00115024
-8.60076e-05
0.00116758
-8.39913e-05
0.00118451
-8.17161e-05
0.00120098
-7.92063e-05
0.00121695
-7.64868e-05
0.0012324
-7.35821e-05
0.00124731
-7.05164e-05
0.00126164
-6.7313e-05
0.00127537
-6.39942e-05
0.0012885
-6.05808e-05
0.00130102
-5.70923e-05
0.0013129
-5.35464e-05
0.00132415
-4.99592e-05
0.00133476
-4.63449e-05
0.00134473
-4.27162e-05
0.00135407
3.52364e-05
0.00136277
5.34991e-05
0.00127057
5.69467e-05
0.00125269
5.80819e-05
0.0012356
5.7501e-05
0.00122245
5.61351e-05
0.00121467
5.47777e-05
0.00121133
5.38531e-05
0.00121017
5.34476e-05
0.00120898
5.34525e-05
0.00120631
5.36994e-05
0.00120167
6.46919e-07
0.00119525
3.75604e-07
0.00118872
4.76367e-07
0.00118142
8.74202e-07
0.00117398
1.54266e-06
0.00116696
2.49854e-06
0.00116066
3.78637e-06
0.00115514
5.4582e-06
0.00115024
7.55523e-06
0.00114565
1.00964e-05
0.001141
1.30752e-05
0.00113599
1.64649e-05
0.00113041
2.02275e-05
0.0011242
2.43245e-05
0.00111738
2.87234e-05
0.00111002
3.34007e-05
0.00110218
3.83396e-05
0.00109391
4.35261e-05
0.00108517
4.89449e-05
0.0010759
5.45758e-05
0.00106601
6.03938e-05
0.00105543
6.63694e-05
0.00104412
7.24712e-05
0.00103206
7.86668e-05
0.00101925
8.4924e-05
0.00100574
9.12105e-05
0.000991537
9.74933e-05
0.000976676
0.000103739
0.000961171
0.000109912
0.000945037
0.000115977
0.000928289
0.000121898
0.000910949
0.000127641
0.000893044
0.00013317
0.000874607
0.000138453
0.000855677
0.000143458
0.000836295
0.000148158
0.000816507
0.000152523
0.000796359
0.000156532
0.000775897
0.00016016
0.000755168
0.000163391
0.00073422
0.000166209
0.000713094
0.000168601
0.000691833
0.00017056
0.000670473
0.000172082
0.000649046
0.000173168
0.00062758
0.000173824
0.000606101
0.000174061