/*--------------------------------*- C++ -*----------------------------------*\
| =========                 |                                                 |
| \\      /  F ield         | OpenFOAM: The Open Source CFD Toolbox           |
|  \\    /   O peration     | Version:  2.2.x                                 |
|   \\  /    A nd           | Web:      www.OpenFOAM.org                      |
|    \\/     M anipulation  |                                                 |
\*---------------------------------------------------------------------------*/
FoamFile
{
    version     2.0;
    format      ascii;
    class       volVectorField;
    location    "1.3";
    object      U;
}
// * * * * * * * * * * * * * * * * * * * * * * * * * * * * * * * * * * * * * //

dimensions      [0 1 -1 0 0 0 0];

internalField   nonuniform List<vector> 
14161
(
(1.50135 6.22784e-07 2.60753e-22)
(1.50131 -9.45396e-07 1.14551e-22)
(1.50138 -7.34569e-07 3.83163e-22)
(1.50146 -2.47138e-07 -1.41763e-23)
(1.50158 -1.75564e-08 6.17119e-23)
(1.50172 2.4973e-07 -2.14407e-22)
(1.50188 -5.39884e-07 5.37259e-22)
(1.5021 1.94511e-07 2.74197e-23)
(1.50233 9.76512e-07 7.46451e-22)
(1.50256 -1.15561e-06 2.04652e-22)
(1.50289 9.99282e-07 3.93873e-22)
(1.50319 9.7728e-07 1.04632e-22)
(1.5035 2.38757e-07 2.97538e-22)
(1.5039 1.32633e-06 5.21074e-22)
(1.50426 -2.17933e-06 8.65047e-22)
(1.50471 -1.79266e-06 2.09718e-21)
(1.50515 9.64772e-06 2.41427e-21)
(1.50549 3.6132e-06 2.47982e-21)
(1.50588 -1.34845e-05 2.68519e-21)
(1.5066 5.19132e-06 2.62145e-21)
(1.50695 2.30199e-05 2.78042e-21)
(1.5072 -9.42581e-07 3.02993e-21)
(1.5077 -1.39517e-05 3.52083e-21)
(1.50857 -1.45008e-05 3.66507e-21)
(1.50892 1.58162e-05 3.33814e-21)
(1.50914 2.04992e-05 3.86883e-21)
(1.50921 5.14628e-06 3.69053e-21)
(1.50937 -1.56423e-05 3.68027e-21)
(1.51044 -7.22709e-06 5.22277e-21)
(1.51086 5.43433e-06 5.7083e-21)
(1.51098 1.68593e-05 6.15507e-21)
(1.51104 1.86893e-05 6.23332e-21)
(1.51104 1.31632e-05 6.39808e-21)
(1.51069 1.31758e-05 6.42377e-21)
(1.51058 1.0181e-05 6.38146e-21)
(1.51046 5.69011e-06 6.19947e-21)
(1.5103 6.36494e-06 6.40918e-21)
(1.50981 1.99926e-05 5.53393e-21)
(1.50915 9.9774e-06 6.6388e-21)
(1.5084 6.33691e-05 5.23606e-21)
(1.5078 5.86239e-05 7.64524e-21)
(1.50659 5.20285e-05 4.55566e-21)
(1.50448 8.8648e-05 9.94001e-21)
(1.50188 9.98595e-05 -8.75992e-21)
(1.49975 8.29883e-05 2.66025e-20)
(1.49721 0.00010872 -3.59788e-20)
(1.49457 -1.20396e-05 4.87844e-20)
(1.49055 7.88455e-05 -6.68093e-20)
(1.48908 0.00205711 1.63145e-18)
(1.0682 0.00801323 7.84686e-18)
(0.57265 0.0119815 7.94223e-18)
(0.503079 0.00700758 5.98469e-18)
(0.496605 -0.00202577 3.85529e-18)
(0.507664 -0.00587866 2.83337e-18)
(0.523329 -0.0100655 1.02849e-18)
(0.550795 -0.0118631 -2.64968e-19)
(0.576656 -0.0127857 -2.53679e-19)
(0.606456 -0.0117655 -2.34545e-19)
(0.633407 -0.0109216 -1.91702e-19)
(0.658831 -0.00982877 -2.01209e-19)
(0.683377 -0.00873591 -2.13281e-19)
(0.706931 -0.00803597 -2.12162e-19)
(0.728806 -0.00729992 -2.05374e-19)
(0.750574 -0.00672757 -2.30545e-19)
(0.770146 -0.00568197 -2.86737e-19)
(0.789436 -0.00502849 -2.34041e-19)
(0.807287 -0.00428044 -1.65028e-19)
(0.823685 -0.00335349 -2.1974e-19)
(0.837852 -0.00256134 -3.72009e-19)
(0.850523 -0.00222856 -3.15554e-19)
(0.860615 -0.00176076 -1.47418e-19)
(0.867892 -0.00112063 -2.038e-19)
(0.872381 -0.000795672 -2.73728e-19)
(0.876188 -0.000940456 -2.53763e-19)
(0.878545 -0.00149874 -1.50995e-19)
(0.879917 -0.00157642 -7.47484e-20)
(0.87415 -0.00181611 4.80726e-20)
(0.884886 -0.00199876 2.80596e-20)
(0.887118 -0.00221873 7.82147e-20)
(0.889138 -0.00195459 1.43398e-19)
(0.882733 -0.00172003 2.38646e-19)
(0.89594 -0.00193587 2.17342e-19)
(0.899666 -0.00211947 2.98159e-19)
(0.901533 -0.00161623 3.38158e-19)
(0.902372 -0.00159554 4.85732e-19)
(0.912874 -0.00184173 5.02409e-19)
(0.915732 -0.00191392 7.05203e-19)
(0.918381 -0.00188886 9.30722e-19)
(0.920459 -0.00170554 1.24414e-18)
(0.918016 -0.00168856 1.43365e-18)
(0.928465 -0.00187447 1.37356e-18)
(0.932088 -0.00203143 1.55355e-18)
(0.935004 -0.00185159 1.81175e-18)
(0.937129 -0.00175179 2.02517e-18)
(0.948677 -0.0019422 2.07731e-18)
(0.953644 -0.00153274 2.31834e-18)
(0.962504 -0.00175304 2.62983e-18)
(0.968741 -0.00126076 2.73072e-18)
(0.971996 6.10507e-05 2.9285e-18)
(0.970578 0.00178913 3.07061e-18)
(0.96349 0.0061773 2.98711e-18)
(0.91779 0.0169909 2.85545e-18)
(0.810091 0.0307079 2.23906e-18)
(0.691465 0.0427151 8.74547e-19)
(0.570015 0.0465866 1.70638e-19)
(0.477167 0.0418812 -1.00364e-19)
(0.406608 0.0336286 -1.09558e-19)
(0.351869 0.0270285 -1.8507e-19)
(0.307112 0.0225379 -1.05686e-19)
(0.269864 0.0192725 -2.75119e-19)
(0.237011 0.0171687 -1.40494e-19)
(0.207573 0.0158384 -3.05434e-19)
(0.179378 0.0152458 -3.0221e-20)
(0.152014 0.0145228 -2.52523e-19)
(0.124685 0.0148193 2.31446e-19)
(0.0975717 0.0145063 -1.20023e-19)
(0.0709525 0.0151721 1.1527e-18)
(0.0442429 0.0135214 1.18205e-18)
(0.0196074 0.0202365 3.30372e-18)
(1.50135 3.10555e-08 2.64877e-22)
(1.50131 -1.05627e-06 3.13991e-22)
(1.50138 -1.05702e-06 7.07099e-22)
(1.50146 -4.73003e-07 -2.37994e-22)
(1.50158 -2.27624e-07 1.74911e-22)
(1.50172 5.01132e-07 -7.01821e-24)
(1.50188 -5.10225e-07 1.91431e-23)
(1.5021 3.41171e-07 -2.11415e-23)
(1.50233 1.2629e-06 7.15058e-22)
(1.50256 -2.26574e-07 2.04381e-22)
(1.50289 1.07671e-06 4.09373e-22)
(1.50319 8.80197e-07 -1.31391e-22)
(1.5035 1.74755e-06 4.20421e-22)
(1.5039 2.68396e-06 7.19482e-23)
(1.50426 -3.9068e-06 9.10744e-22)
(1.50472 5.27653e-07 2.43927e-21)
(1.50514 1.78137e-05 3.11324e-21)
(1.50548 -5.41221e-08 2.53654e-21)
(1.5059 -2.01021e-05 3.05889e-21)
(1.50656 -1.31756e-06 2.73027e-21)
(1.50693 3.80014e-05 2.81651e-21)
(1.50723 -2.00895e-07 2.97637e-21)
(1.50773 -2.54595e-05 3.40081e-21)
(1.50857 -2.93984e-05 3.40231e-21)
(1.50892 3.35634e-05 3.96674e-21)
(1.50913 3.81769e-05 3.818e-21)
(1.5092 1.23088e-05 3.46901e-21)
(1.50939 -2.54982e-05 3.75817e-21)
(1.51047 -1.4813e-05 5.26296e-21)
(1.51087 1.77176e-06 5.93898e-21)
(1.51099 3.07853e-05 5.58937e-21)
(1.51105 3.83021e-05 6.23396e-21)
(1.51105 4.88298e-05 6.18672e-21)
(1.51072 4.99631e-05 5.93015e-21)
(1.51063 3.83802e-05 5.713e-21)
(1.51052 2.86506e-05 5.79467e-21)
(1.51037 3.14891e-05 5.50586e-21)
(1.50989 8.93105e-05 5.43564e-21)
(1.50915 5.67758e-05 5.30164e-21)
(1.50843 0.000151384 5.41502e-21)
(1.50793 0.000184733 6.06238e-21)
(1.50675 0.000186283 4.2402e-21)
(1.50483 0.00034109 6.31795e-21)
(1.50265 0.000369908 3.51358e-21)
(1.50046 0.000341429 7.47951e-21)
(1.4981 0.000511712 3.8388e-21)
(1.49519 0.000223937 -2.85304e-21)
(1.49076 0.000415458 -9.80479e-21)
(1.48843 0.0086478 1.74355e-18)
(1.04828 0.026944 7.98719e-18)
(0.563401 0.034002 7.669e-18)
(0.496868 0.0158172 6.40863e-18)
(0.491352 -0.00614213 3.5104e-18)
(0.506453 -0.0182095 1.78159e-18)
(0.524055 -0.0284706 4.04026e-19)
(0.551784 -0.0314682 -5.15939e-19)
(0.576397 -0.0335653 -2.32097e-19)
(0.60435 -0.0315214 -2.34083e-19)
(0.630732 -0.0286235 -2.05844e-19)
(0.655784 -0.0261935 -2.1911e-19)
(0.680475 -0.0231361 -2.23936e-19)
(0.70465 -0.0210101 -2.32085e-19)
(0.727084 -0.0187233 -2.22913e-19)
(0.749779 -0.0163985 -2.41227e-19)
(0.770169 -0.0137285 -3.0258e-19)
(0.790073 -0.0116386 -2.57844e-19)
(0.807955 -0.0105803 -2.05267e-19)
(0.824351 -0.00891836 -2.38916e-19)
(0.839133 -0.00705014 -3.55123e-19)
(0.851829 -0.00592483 -3.46734e-19)
(0.861885 -0.00497448 -1.87275e-19)
(0.86937 -0.00391623 -2.10437e-19)
(0.874651 -0.00287556 -2.90311e-19)
(0.879181 -0.00226555 -2.75747e-19)
(0.881766 -0.00221133 -1.44074e-19)
(0.883141 -0.00182079 -6.70185e-20)
(0.876865 -0.00207325 3.17123e-20)
(0.887745 -0.00262994 1.60737e-20)
(0.889746 -0.0026975 5.84389e-20)
(0.891424 -0.00216517 1.34573e-19)
(0.885053 -0.00170366 2.10401e-19)
(0.898296 -0.00266808 2.13384e-19)
(0.902017 -0.00263929 2.79716e-19)
(0.903485 -0.00175208 3.39014e-19)
(0.904472 -0.00183708 4.63715e-19)
(0.915166 -0.00258766 5.00438e-19)
(0.918168 -0.00270233 6.90122e-19)
(0.920594 -0.00230394 8.88069e-19)
(0.922474 -0.00200855 1.25718e-18)
(0.920074 -0.00203385 1.41149e-18)
(0.930892 -0.00272996 1.38747e-18)
(0.934422 -0.00286044 1.55193e-18)
(0.937129 -0.00228706 1.81016e-18)
(0.939254 -0.0020931 2.0234e-18)
(0.950728 -0.00302899 2.11576e-18)
(0.955312 -0.00285071 2.38602e-18)
(0.962976 -0.00316402 2.63155e-18)
(0.967865 -0.00182533 2.80086e-18)
(0.968405 0.000163732 2.9466e-18)
(0.958407 0.00346388 3.10066e-18)
(0.937293 0.00961166 3.02027e-18)
(0.867415 0.0297677 2.82159e-18)
(0.746729 0.0664907 2.0032e-18)
(0.621086 0.0920918 7.2779e-19)
(0.509914 0.0932854 1.8359e-19)
(0.429144 0.0777016 -8.79346e-20)
(0.369345 0.064273 -8.0733e-20)
(0.32172 0.0541128 -1.61919e-19)
(0.281929 0.0470498 -1.04239e-19)
(0.248311 0.0418424 -2.88697e-19)
(0.218059 0.0390493 -1.40436e-19)
(0.190508 0.0369077 -3.17874e-19)
(0.164178 0.0370714 -5.83123e-20)
(0.138893 0.0367412 -2.88759e-19)
(0.113816 0.038763 2.30757e-19)
(0.0888286 0.0383137 -9.52572e-21)
(0.0643373 0.0408296 1.23375e-18)
(0.0389018 0.0396323 1.29842e-18)
(0.0156323 0.0484944 2.59541e-18)
(1.50135 1.83191e-07 3.0005e-22)
(1.50131 -1.58664e-06 -3.95975e-22)
(1.50138 -1.36625e-06 1.45906e-22)
(1.50146 -7.41714e-07 1.55274e-23)
(1.50158 -3.02501e-07 4.87107e-22)
(1.50172 -2.12427e-07 -3.73091e-23)
(1.50188 -2.71073e-07 -3.71631e-22)
(1.5021 6.79002e-07 -3.58889e-22)
(1.50233 7.4709e-07 6.04068e-22)
(1.50257 1.86255e-07 2.49835e-23)
(1.50288 2.67882e-06 3.82794e-22)
(1.50318 -3.8344e-07 -1.35408e-21)
(1.50351 2.2782e-06 2.25831e-22)
(1.5039 5.30956e-06 1.7713e-21)
(1.50425 -6.4697e-06 3.51449e-21)
(1.50471 -7.25371e-07 3.18165e-21)
(1.50513 2.61309e-05 3.77648e-21)
(1.50549 7.72906e-07 4.04582e-21)
(1.50592 -3.16021e-05 4.42042e-21)
(1.50651 1.95396e-07 3.90233e-21)
(1.50691 5.51912e-05 2.53117e-21)
(1.50729 7.57004e-06 3.01857e-21)
(1.50779 -5.33382e-05 4.36803e-21)
(1.50853 -3.81917e-05 3.17772e-21)
(1.50887 4.6431e-05 3.0812e-21)
(1.50909 7.08992e-05 3.68153e-21)
(1.50921 1.95396e-05 3.68089e-21)
(1.50948 -3.53876e-05 4.579e-21)
(1.51047 -4.44653e-05 6.32998e-21)
(1.51086 -2.24766e-06 6.9719e-21)
(1.51099 4.74893e-05 5.7532e-21)
(1.51105 7.51636e-05 5.59089e-21)
(1.51107 7.83357e-05 4.99208e-21)
(1.5108 8.4754e-05 5.13159e-21)
(1.51074 6.28246e-05 4.48204e-21)
(1.51065 5.49994e-05 4.65823e-21)
(1.51051 5.50408e-05 4.37506e-21)
(1.5101 0.000123298 4.37912e-21)
(1.50943 0.000153821 4.18821e-21)
(1.50878 0.000208288 4.45387e-21)
(1.50831 0.000291451 4.72684e-21)
(1.50722 0.000379238 4.0743e-21)
(1.50563 0.000496892 4.38892e-21)
(1.50353 0.000561344 4.07346e-21)
(1.50158 0.000650025 3.08859e-21)
(1.49904 0.000852167 3.33425e-21)
(1.49647 0.000826961 -1.18514e-20)
(1.49084 0.002117 1.15788e-19)
(1.48729 0.0185999 2.26872e-18)
(1.0368 0.0604309 8.10024e-18)
(0.557558 0.0617235 7.62938e-18)
(0.496369 0.0260764 6.2993e-18)
(0.488296 -0.0120141 3.47461e-18)
(0.507953 -0.0350847 1.63433e-18)
(0.527311 -0.0511902 4.36821e-19)
(0.55885 -0.0554931 -3.34112e-19)
(0.585812 -0.05642 -1.66223e-19)
(0.614062 -0.0532449 -2.1844e-19)
(0.641167 -0.0485015 -1.94681e-19)
(0.666306 -0.0451136 -2.17616e-19)
(0.691373 -0.0404522 -2.35891e-19)
(0.716083 -0.0370014 -2.55232e-19)
(0.738253 -0.0330848 -2.59529e-19)
(0.76102 -0.0292346 -2.79477e-19)
(0.78098 -0.0252458 -3.19252e-19)
(0.800253 -0.021474 -3.17672e-19)
(0.816993 -0.0194319 -2.66808e-19)
(0.832126 -0.0165164 -2.71023e-19)
(0.846875 -0.0132802 -3.44085e-19)
(0.858845 -0.011057 -3.72337e-19)
(0.868358 -0.00895118 -2.3332e-19)
(0.875445 -0.00703774 -2.42791e-19)
(0.880474 -0.00560608 -2.81334e-19)
(0.885131 -0.00534647 -2.76762e-19)
(0.887666 -0.00549074 -1.69292e-19)
(0.889205 -0.00501856 -8.66834e-20)
(0.883153 -0.00525232 -1.75075e-21)
(0.893746 -0.00672077 4.27012e-21)
(0.895686 -0.00667469 3.49967e-20)
(0.896685 -0.00584214 1.21384e-19)
(0.891516 -0.00496022 1.774e-19)
(0.903306 -0.00674011 1.99994e-19)
(0.90702 -0.00658846 2.69964e-19)
(0.908431 -0.00524358 3.43417e-19)
(0.909473 -0.00522368 4.32772e-19)
(0.919432 -0.00663886 4.94657e-19)
(0.922746 -0.00674463 6.83139e-19)
(0.924855 -0.00605679 8.38762e-19)
(0.926699 -0.00545529 1.26533e-18)
(0.924407 -0.00546794 1.37864e-18)
(0.935215 -0.00675709 1.41364e-18)
(0.938421 -0.00676624 1.54656e-18)
(0.940554 -0.0061492 1.81968e-18)
(0.943066 -0.00505064 2.00026e-18)
(0.953032 -0.00607872 2.20547e-18)
(0.956835 -0.00505194 2.45989e-18)
(0.961395 -0.0056482 2.64932e-18)
(0.962803 -0.002355 2.81445e-18)
(0.954596 0.00242437 2.97674e-18)
(0.932094 0.0144221 3.0793e-18)
(0.876784 0.0319815 2.89644e-18)
(0.775401 0.0787184 2.46859e-18)
(0.650461 0.142128 1.64549e-18)
(0.536918 0.16592 6.78085e-19)
(0.451139 0.15884 2.09512e-19)
(0.388781 0.131248 -5.83636e-20)
(0.338808 0.107923 -2.8829e-20)
(0.297262 0.0907877 -1.43116e-19)
(0.26147 0.0788178 -8.27373e-20)
(0.230344 0.0698119 -2.61417e-19)
(0.201958 0.064632 -1.23159e-19)
(0.176694 0.0611873 -3.32866e-19)
(0.152391 0.0610476 -9.47043e-20)
(0.128985 0.0602025 -3.07254e-19)
(0.105916 0.0631555 1.49258e-19)
(0.0826222 0.062539 6.09006e-20)
(0.0599595 0.0663616 1.10773e-18)
(0.0362232 0.0650735 1.23158e-18)
(0.015395 0.0759745 2.07223e-18)
(1.50135 5.15133e-07 -1.81839e-22)
(1.50131 -2.2519e-06 8.48455e-22)
(1.50138 -1.92728e-06 5.91489e-22)
(1.50146 -8.67622e-07 2.57687e-22)
(1.50157 -2.93345e-07 -1.05732e-22)
(1.50172 -1.05571e-06 -6.79575e-23)
(1.50189 -4.26316e-07 -1.04387e-21)
(1.50209 1.01907e-06 -6.5995e-22)
(1.50232 1.1437e-06 1.32547e-23)
(1.50258 4.41753e-07 -1.16078e-21)
(1.50287 3.46515e-06 -1.41567e-21)
(1.50317 7.19411e-07 -9.66354e-22)
(1.50352 2.4511e-06 -1.21817e-22)
(1.50389 6.51711e-06 2.66194e-21)
(1.50425 -5.13509e-06 5.10681e-21)
(1.50469 3.21295e-07 4.26455e-21)
(1.50512 2.726e-05 4.66124e-21)
(1.50552 1.4262e-06 5.41271e-21)
(1.50594 -2.73075e-05 3.39662e-21)
(1.50644 7.64154e-06 6.00113e-21)
(1.5069 6.1188e-05 7.0013e-21)
(1.50736 1.50143e-05 6.81824e-21)
(1.50785 -5.89108e-05 5.58336e-21)
(1.50841 -5.11043e-05 7.8116e-21)
(1.50877 6.00493e-05 6.54853e-21)
(1.50904 8.69287e-05 4.40801e-21)
(1.50933 3.19913e-05 6.67237e-21)
(1.50966 -3.05081e-05 8.67628e-21)
(1.51045 -7.39152e-05 8.17967e-21)
(1.51082 -1.20696e-06 6.44468e-21)
(1.51099 8.55328e-05 5.36795e-21)
(1.51106 0.000107988 4.33723e-21)
(1.5111 0.000118392 3.64591e-21)
(1.51097 0.000111099 3.10993e-21)
(1.51095 7.91587e-05 2.99612e-21)
(1.51095 6.85514e-05 3.40511e-21)
(1.51079 8.66041e-05 2.62617e-21)
(1.51051 0.000172399 2.99812e-21)
(1.50999 0.000245734 3.0214e-21)
(1.50935 0.00023474 2.61964e-21)
(1.50883 0.000409171 2.88542e-21)
(1.50797 0.000492564 2.21586e-21)
(1.50669 0.000681666 2.55416e-21)
(1.50462 0.000821909 1.44769e-21)
(1.50273 0.00101108 2.88215e-21)
(1.50061 0.00114523 2.15096e-21)
(1.49751 0.00155045 -1.32377e-20)
(1.49265 0.00364695 1.23458e-19)
(1.48665 0.0301936 2.16481e-18)
(1.05431 0.102788 8.23715e-18)
(0.557102 0.0868091 7.6514e-18)
(0.50268 0.0364173 6.27021e-18)
(0.492517 -0.0211412 3.94892e-18)
(0.522071 -0.0550741 1.92547e-18)
(0.543367 -0.0758992 7.28154e-19)
(0.578206 -0.0825408 -5.78219e-20)
(0.606609 -0.0821812 -4.80901e-20)
(0.635474 -0.0776573 -1.43773e-19)
(0.663551 -0.0699047 -1.62065e-19)
(0.68991 -0.0647278 -1.91169e-19)
(0.714395 -0.0567161 -1.99728e-19)
(0.7391 -0.0507286 -2.59951e-19)
(0.760031 -0.0445419 -2.90598e-19)
(0.781936 -0.0388303 -2.9098e-19)
(0.800266 -0.0338076 -3.17532e-19)
(0.818015 -0.0283485 -3.49975e-19)
(0.833125 -0.0250227 -3.19437e-19)
(0.846365 -0.0206175 -3.11219e-19)
(0.860886 -0.0165819 -3.21738e-19)
(0.871816 -0.0131684 -3.84995e-19)
(0.880618 -0.0104657 -2.88221e-19)
(0.887106 -0.00878608 -2.96093e-19)
(0.891824 -0.00750117 -2.89031e-19)
(0.89655 -0.00704948 -2.70924e-19)
(0.899083 -0.00668515 -1.9752e-19)
(0.900638 -0.00589339 -1.14577e-19)
(0.89521 -0.00554491 -4.26989e-20)
(0.905103 -0.0073787 -1.46237e-20)
(0.907179 -0.00722156 1.29858e-20)
(0.906805 -0.00568504 9.11224e-20)
(0.903832 -0.00450229 1.32107e-19)
(0.913142 -0.00657998 1.81231e-19)
(0.916844 -0.00618331 2.70773e-19)
(0.918498 -0.0047744 3.41075e-19)
(0.919287 -0.00506746 4.08424e-19)
(0.928051 -0.00683253 4.93338e-19)
(0.93175 -0.00709756 6.43968e-19)
(0.93359 -0.00639976 8.21775e-19)
(0.935256 -0.00584053 1.25311e-18)
(0.93314 -0.00578121 1.34095e-18)
(0.943524 -0.00713414 1.45697e-18)
(0.946107 -0.00733952 1.60101e-18)
(0.946697 -0.00597359 1.78784e-18)
(0.947912 -0.00550761 2.05495e-18)
(0.95584 -0.00627148 2.22309e-18)
(0.95728 -0.0052098 2.50647e-18)
(0.955105 -0.00446649 2.6975e-18)
(0.949672 0.00271086 2.8575e-18)
(0.919532 0.0118812 2.99634e-18)
(0.867344 0.0351798 2.96838e-18)
(0.759993 0.0708376 2.58017e-18)
(0.640796 0.144409 1.88218e-18)
(0.526777 0.194587 1.18867e-18)
(0.449651 0.21365 5.87332e-19)
(0.393323 0.199508 1.99695e-19)
(0.349817 0.167876 1.96423e-20)
(0.309608 0.140748 5.29286e-20)
(0.274725 0.120223 -4.89789e-20)
(0.243384 0.10553 -1.01238e-19)
(0.215621 0.0948747 -1.83661e-19)
(0.189695 0.0883205 -1.46755e-19)
(0.165913 0.0831607 -2.56546e-19)
(0.14287 0.0828791 -1.46968e-19)
(0.120755 0.0815088 -3.23857e-19)
(0.0993075 0.0852152 4.58499e-20)
(0.0775919 0.0846012 -1.40464e-19)
(0.0569375 0.0896778 7.75938e-19)
(0.0350011 0.0884687 8.10943e-19)
(0.0168381 0.100316 1.19329e-18)
(1.50134 4.8086e-07 -3.56766e-22)
(1.50131 -2.65742e-06 2.10342e-21)
(1.50138 -2.06586e-06 -1.12343e-21)
(1.50146 -9.36868e-07 2.8674e-22)
(1.50157 -6.19763e-07 9.91868e-22)
(1.50172 -1.23524e-06 1.42644e-21)
(1.5019 -7.62882e-07 -8.27318e-22)
(1.50208 1.28232e-06 -1.22997e-21)
(1.50231 2.98752e-06 -1.36639e-21)
(1.50259 2.80429e-07 -2.08551e-21)
(1.50287 4.30022e-06 -3.11928e-21)
(1.50317 3.77461e-06 6.74043e-22)
(1.50353 3.03288e-06 4.76783e-24)
(1.50388 7.901e-06 3.68071e-21)
(1.50424 -2.40894e-06 3.71224e-21)
(1.50467 -1.23303e-06 4.51568e-21)
(1.50509 2.32949e-05 7.36676e-21)
(1.50555 6.5301e-06 8.64543e-21)
(1.50597 -2.98289e-05 7.35429e-21)
(1.50638 5.80174e-06 3.53485e-21)
(1.50689 5.38913e-05 5.73672e-21)
(1.50745 1.87299e-05 6.65086e-21)
(1.50789 -6.3187e-05 3.80744e-21)
(1.50827 -5.14684e-05 4.11798e-21)
(1.50864 5.61408e-05 5.89266e-21)
(1.50906 0.000121021 6.97031e-21)
(1.50953 5.47382e-05 6.03613e-21)
(1.50991 -4.40362e-05 5.22676e-21)
(1.51039 -7.57319e-05 5.73721e-21)
(1.51071 -3.1783e-05 8.21146e-21)
(1.51091 9.10409e-05 4.70137e-21)
(1.51105 0.000133024 2.28223e-21)
(1.51121 0.000144045 1.94344e-21)
(1.51128 0.00012796 3.54776e-23)
(1.51135 9.00843e-05 -3.75754e-22)
(1.51139 9.08735e-05 9.10109e-22)
(1.51129 0.000111467 7.68347e-22)
(1.51109 0.000161497 -1.71244e-22)
(1.51061 0.000213546 4.73778e-22)
(1.51016 0.00029778 8.65909e-23)
(1.50958 0.00042229 -3.71571e-22)
(1.50908 0.000563235 5.46947e-23)
(1.50817 0.000885366 1.08719e-21)
(1.50656 0.0010778 -1.39442e-21)
(1.50534 0.001487 8.57955e-22)
(1.50345 0.0015616 -3.26967e-21)
(1.50166 0.00221417 -3.58993e-21)
(1.49862 0.00510797 1.24186e-19)
(1.48756 0.0390109 1.54696e-18)
(1.119 0.148756 8.89396e-18)
(0.574545 0.117146 8.42233e-18)
(0.51592 0.0399039 6.87725e-18)
(0.503006 -0.0376057 4.41656e-18)
(0.546485 -0.0821101 2.30858e-18)
(0.571214 -0.106853 1.11442e-18)
(0.609971 -0.114231 3.44026e-19)
(0.640038 -0.110189 1.45177e-19)
(0.670101 -0.104071 1.65806e-21)
(0.69651 -0.0937619 -7.71933e-20)
(0.723672 -0.0861513 -1.47993e-19)
(0.745482 -0.0750533 -1.91994e-19)
(0.769423 -0.0671091 -2.39886e-19)
(0.788451 -0.0577331 -2.96522e-19)
(0.810215 -0.0500743 -3.27914e-19)
(0.826447 -0.0430901 -3.49617e-19)
(0.844945 -0.0360918 -3.61567e-19)
(0.858598 -0.0308375 -3.38899e-19)
(0.870908 -0.024223 -3.19581e-19)
(0.884097 -0.0209584 -2.98269e-19)
(0.893203 -0.0174217 -3.49284e-19)
(0.9018 -0.0138232 -2.90093e-19)
(0.907751 -0.0112659 -3.23232e-19)
(0.911826 -0.0102046 -2.98319e-19)
(0.91618 -0.0102554 -2.49094e-19)
(0.918019 -0.0104921 -2.18112e-19)
(0.91952 -0.0097114 -1.20014e-19)
(0.914524 -0.00943194 -5.82888e-20)
(0.922648 -0.0118418 -1.16268e-20)
(0.924775 -0.0118529 2.27072e-20)
(0.923734 -0.00971105 8.71752e-20)
(0.92237 -0.00882214 1.12713e-19)
(0.929003 -0.0106993 1.86564e-19)
(0.932408 -0.0101516 2.8179e-19)
(0.934582 -0.00869482 3.44156e-19)
(0.93523 -0.00889652 4.20871e-19)
(0.942212 -0.0107124 4.99267e-19)
(0.946237 -0.0111318 6.67929e-19)
(0.947546 -0.0105732 8.43236e-19)
(0.948827 -0.00934421 1.23143e-18)
(0.946792 -0.00849583 1.34007e-18)
(0.955034 -0.00975539 1.49874e-18)
(0.956403 -0.0100944 1.67524e-18)
(0.956024 -0.00817699 1.74632e-18)
(0.954052 -0.00660555 2.14609e-18)
(0.956412 -0.00794829 2.32034e-18)
(0.955145 -0.00348203 2.54416e-18)
(0.936619 0.000939097 2.76859e-18)
(0.916188 0.016901 2.863e-18)
(0.846681 0.0383482 2.89764e-18)
(0.749603 0.0821113 2.57899e-18)
(0.622498 0.155954 1.99811e-18)
(0.509876 0.214545 1.3601e-18)
(0.435656 0.246976 8.97143e-19)
(0.385144 0.251082 4.97533e-19)
(0.346878 0.228812 2.27062e-19)
(0.315409 0.195495 1.34236e-19)
(0.283539 0.166879 1.43196e-19)
(0.25466 0.145245 7.69439e-20)
(0.227891 0.129212 -2.6768e-20)
(0.203079 0.117119 -1.11422e-19)
(0.179433 0.109775 2.12669e-20)
(0.157465 0.104253 -2.17895e-19)
(0.13586 0.103868 1.10323e-21)
(0.114938 0.102008 -2.51644e-19)
(0.0949305 0.106146 3.28044e-20)
(0.0745483 0.105473 -2.00869e-19)
(0.0555899 0.111327 4.43835e-19)
(0.0351133 0.110371 5.03341e-19)
(0.0191855 0.122834 7.1149e-19)
(1.50134 4.98396e-07 7.16256e-22)
(1.50131 -3.01661e-06 -5.98707e-22)
(1.50138 -2.19744e-06 2.16995e-22)
(1.50146 -1.64411e-06 -3.31728e-21)
(1.50157 -1.26226e-06 -3.26464e-21)
(1.50172 -1.37283e-06 -4.09254e-21)
(1.5019 -1.31143e-06 -1.32521e-21)
(1.50208 1.95906e-06 1.8024e-21)
(1.50232 2.21194e-06 -6.82835e-21)
(1.50259 -8.7358e-07 -4.20034e-21)
(1.50285 4.12001e-06 1.69001e-21)
(1.50317 3.62932e-06 -3.16477e-21)
(1.50353 9.42177e-07 -2.73495e-21)
(1.50387 8.07396e-06 4.9272e-21)
(1.50425 3.63627e-06 5.16689e-21)
(1.50466 1.88157e-06 5.23827e-21)
(1.50506 1.77711e-05 1.71224e-21)
(1.50559 7.07787e-06 1.13188e-20)
(1.50599 -1.80339e-05 4.57913e-21)
(1.50634 5.66478e-06 4.93635e-21)
(1.50685 4.17306e-05 5.73742e-21)
(1.50753 1.77272e-05 5.57098e-21)
(1.50792 -5.64544e-05 7.65437e-21)
(1.50821 -1.48249e-05 6.58513e-21)
(1.50851 5.20363e-05 6.04377e-21)
(1.50911 9.71544e-05 6.99331e-21)
(1.50973 5.19508e-05 6.202e-21)
(1.51009 -4.28782e-05 4.64665e-21)
(1.51037 -7.2328e-05 2.74743e-21)
(1.51057 1.42709e-05 1.4937e-22)
(1.51076 0.000132078 -8.82265e-22)
(1.51098 0.00016836 -2.44397e-21)
(1.51153 0.000164013 -2.86508e-21)
(1.51173 0.000131039 -3.57296e-21)
(1.51182 9.9052e-05 -3.70124e-21)
(1.51188 0.00010275 -3.3729e-21)
(1.51185 0.000123225 -3.21202e-21)
(1.51174 0.000178995 -3.54264e-21)
(1.51128 0.00023998 -4.04335e-21)
(1.51104 0.000358234 -4.40566e-21)
(1.51077 0.000513867 -3.75218e-21)
(1.51045 0.000646681 -5.25371e-21)
(1.51008 0.000990573 -2.90179e-21)
(1.50944 0.00122974 -5.01041e-21)
(1.50901 0.00160262 -2.80548e-21)
(1.50798 0.00198637 -7.25134e-21)
(1.50752 0.00251812 -6.06842e-21)
(1.50651 0.00574286 8.74847e-20)
(1.497 0.0398132 7.04455e-19)
(1.23555 0.186582 1.0014e-17)
(0.61227 0.151274 1.02605e-17)
(0.536429 0.0381138 8.22794e-18)
(0.529906 -0.060962 5.16044e-18)
(0.58756 -0.114222 2.86027e-18)
(0.617128 -0.139998 1.83119e-18)
(0.657257 -0.148417 1.08246e-18)
(0.688738 -0.138676 5.40138e-19)
(0.720227 -0.128493 3.12492e-19)
(0.74438 -0.114422 1.45892e-19)
(0.77059 -0.101633 1.68311e-20)
(0.791328 -0.0878368 -1.09628e-19)
(0.814459 -0.0777963 -1.86539e-19)
(0.829894 -0.0655362 -2.24369e-19)
(0.852258 -0.0569925 -2.67883e-19)
(0.863513 -0.047502 -3.30251e-19)
(0.884741 -0.0392538 -3.29431e-19)
(0.893269 -0.0322046 -3.05961e-19)
(0.907408 -0.0259329 -2.74288e-19)
(0.917797 -0.0211382 -2.29592e-19)
(0.924671 -0.017104 -2.84494e-19)
(0.932276 -0.0141929 -2.1905e-19)
(0.937205 -0.0121466 -3.19485e-19)
(0.940247 -0.010934 -2.84417e-19)
(0.943356 -0.0110991 -2.3971e-19)
(0.944299 -0.0111757 -2.0315e-19)
(0.94556 -0.0104466 -1.13422e-19)
(0.941072 -0.0101978 -5.90796e-20)
(0.946122 -0.0124935 -2.00116e-20)
(0.947645 -0.0128348 3.80468e-20)
(0.947311 -0.010512 1.10754e-19)
(0.945627 -0.00918916 1.29229e-19)
(0.949553 -0.0102604 2.07945e-19)
(0.952346 -0.0100991 3.07624e-19)
(0.9546 -0.00919071 4.15583e-19)
(0.954742 -0.00939364 4.7734e-19)
(0.95964 -0.0110871 5.68446e-19)
(0.962969 -0.0113665 7.40791e-19)
(0.963321 -0.0111052 9.3084e-19)
(0.963631 -0.0101519 1.2092e-18)
(0.960815 -0.00964193 1.38446e-18)
(0.965962 -0.0100835 1.4982e-18)
(0.96379 -0.0105281 1.70927e-18)
(0.96309 -0.00844203 1.86414e-18)
(0.955555 -0.00635609 2.15716e-18)
(0.945768 -0.00461424 2.36442e-18)
(0.936501 0.00729064 2.56915e-18)
(0.888257 0.0191309 2.74722e-18)
(0.831546 0.0463816 2.67652e-18)
(0.719674 0.0924858 2.49018e-18)
(0.600604 0.16966 1.90846e-18)
(0.489439 0.22911 1.40386e-18)
(0.41939 0.267457 9.38595e-19)
(0.375039 0.284076 6.66482e-19)
(0.33867 0.276139 3.80849e-19)
(0.313613 0.25066 2.41615e-19)
(0.28717 0.21754 2.11216e-19)
(0.261541 0.187681 2.29421e-19)
(0.23688 0.16572 1.63589e-19)
(0.213849 0.149323 1.91193e-19)
(0.19182 0.137389 -1.58335e-20)
(0.170466 0.129708 2.2235e-19)
(0.150154 0.12376 -1.35653e-19)
(0.130005 0.123527 1.31231e-20)
(0.110265 0.121328 -5.61967e-20)
(0.0915911 0.12578 4.35846e-20)
(0.072445 0.125074 3.46063e-20)
(0.0551225 0.131567 2.10889e-19)
(0.0360089 0.131105 2.26871e-19)
(0.022166 0.143969 3.09354e-19)
(1.50134 3.82001e-07 1.15451e-21)
(1.50131 -3.38519e-06 -1.30309e-21)
(1.50137 -2.73641e-06 -4.58269e-22)
(1.50146 -2.40426e-06 -5.57879e-21)
(1.50157 -1.64963e-06 2.37354e-21)
(1.50172 -1.28267e-06 2.20312e-21)
(1.5019 -3.31024e-08 -1.02114e-21)
(1.50207 1.77128e-06 3.62798e-21)
(1.50232 1.1451e-06 -6.15757e-21)
(1.50259 1.7844e-06 -3.37737e-21)
(1.50284 3.46034e-06 -4.34258e-22)
(1.50318 2.35073e-06 1.80891e-21)
(1.50353 2.80554e-06 7.60073e-21)
(1.50385 8.21104e-06 -1.31769e-21)
(1.50426 6.85202e-06 4.55948e-21)
(1.50466 2.98516e-06 7.72577e-21)
(1.50504 1.07806e-05 9.61173e-21)
(1.5056 1.38972e-05 3.89208e-21)
(1.506 7.16181e-07 7.48047e-21)
(1.50633 6.35559e-06 1.29131e-20)
(1.50682 2.03172e-05 7.58782e-21)
(1.50758 1.66406e-05 4.42944e-21)
(1.50795 -3.25557e-05 5.52853e-21)
(1.50821 4.47869e-06 4.36863e-21)
(1.50844 5.2764e-05 5.86007e-22)
(1.50911 7.6226e-05 3.73579e-22)
(1.50985 4.16933e-05 2.37437e-22)
(1.51019 -2.02821e-05 2.41184e-21)
(1.51042 -6.82274e-05 -1.14898e-22)
(1.51055 1.96018e-05 -4.65119e-21)
(1.51065 0.000113062 -3.71539e-21)
(1.51099 0.000170287 -3.68095e-21)
(1.5119 0.000142544 -3.65783e-21)
(1.51215 0.000125763 -3.12054e-21)
(1.51229 0.000104821 -4.95078e-21)
(1.51239 0.00012305 -6.37873e-21)
(1.51242 0.000160974 -6.79271e-21)
(1.51235 0.000190234 -7.10112e-21)
(1.51212 0.000273455 -7.19989e-21)
(1.51209 0.000360665 -7.19112e-21)
(1.5121 0.000487723 -8.13005e-21)
(1.51213 0.000707122 -9.73928e-21)
(1.51245 0.000867892 -9.3087e-21)
(1.51304 0.00115088 -9.14881e-21)
(1.51327 0.00133099 -7.48908e-21)
(1.51349 0.00160642 -7.59701e-21)
(1.51468 0.00183416 -1.42647e-20)
(1.51507 0.00442115 5.03032e-20)
(1.51056 0.0255183 3.77821e-20)
(1.41919 0.157924 9.96917e-18)
(0.68297 0.185397 1.3399e-17)
(0.561022 0.0228806 1.02837e-17)
(0.576675 -0.0969052 6.58121e-18)
(0.643635 -0.156735 4.06247e-18)
(0.683165 -0.179598 3.16125e-18)
(0.721637 -0.181298 2.45425e-18)
(0.750701 -0.167877 1.36002e-18)
(0.779401 -0.156726 9.71068e-19)
(0.796799 -0.138373 5.14383e-19)
(0.822919 -0.120576 3.41838e-19)
(0.838947 -0.103733 5.97362e-20)
(0.861666 -0.0896505 -5.26797e-20)
(0.870946 -0.074266 -1.57569e-19)
(0.894953 -0.0630473 -2.13565e-19)
(0.900594 -0.0510718 -2.8824e-19)
(0.92194 -0.0421431 -2.92355e-19)
(0.927964 -0.0332247 -2.84123e-19)
(0.938818 -0.0278753 -2.69149e-19)
(0.947424 -0.0221638 -1.84544e-19)
(0.954086 -0.0193281 -2.0405e-19)
(0.95953 -0.0168959 -1.72341e-19)
(0.963989 -0.0141213 -2.54507e-19)
(0.966153 -0.0128645 -2.53493e-19)
(0.96795 -0.0131497 -2.33292e-19)
(0.968123 -0.0136483 -1.84446e-19)
(0.969195 -0.0133094 -1.13143e-19)
(0.964721 -0.0128531 -5.29475e-20)
(0.96706 -0.0142496 -6.52925e-21)
(0.967797 -0.0145134 7.7266e-20)
(0.96806 -0.0130323 1.3905e-19)
(0.965579 -0.0110674 1.85027e-19)
(0.967581 -0.0115996 2.30684e-19)
(0.96915 -0.0118474 3.3433e-19)
(0.97107 -0.0113146 4.28892e-19)
(0.96978 -0.0110238 5.20684e-19)
(0.972698 -0.0122696 6.37848e-19)
(0.973995 -0.013786 7.62461e-19)
(0.973017 -0.0135227 9.64663e-19)
(0.971944 -0.0116356 1.17691e-18)
(0.967703 -0.0104064 1.44478e-18)
(0.969545 -0.0104294 1.55589e-18)
(0.960277 -0.0111384 1.79378e-18)
(0.954249 -0.00720618 1.93276e-18)
(0.93998 0.00226679 2.22903e-18)
(0.908645 0.0095793 2.3611e-18)
(0.875889 0.0302009 2.50423e-18)
(0.787798 0.0599364 2.5485e-18)
(0.687843 0.111126 2.19954e-18)
(0.568286 0.185423 1.78019e-18)
(0.46707 0.246435 1.32112e-18)
(0.402275 0.285682 9.38145e-19)
(0.360149 0.305243 6.96342e-19)
(0.330824 0.309192 5.16002e-19)
(0.305929 0.294614 3.54498e-19)
(0.287584 0.267192 3.05845e-19)
(0.265095 0.235259 2.49555e-19)
(0.243942 0.205629 2.62622e-19)
(0.22242 0.183824 2.32844e-19)
(0.202088 0.167539 2.29587e-19)
(0.182172 0.155657 1.43801e-19)
(0.162778 0.147907 2.82755e-19)
(0.14399 0.142016 2.97179e-19)
(0.125253 0.142197 6.5781e-20)
(0.106768 0.13987 6.4036e-20)
(0.089382 0.144439 2.4446e-19)
(0.071432 0.143703 4.87118e-20)
(0.0555399 0.150622 1.47009e-19)
(0.0376139 0.150806 1.49404e-19)
(0.0256608 0.163887 3.13417e-19)
(1.50134 3.90833e-07 -3.88997e-21)
(1.5013 -3.80252e-06 -3.57247e-21)
(1.50137 -3.29439e-06 -1.6054e-21)
(1.50145 -3.12381e-06 -6.76805e-21)
(1.50157 -2.1545e-06 -5.28548e-21)
(1.50171 -1.27609e-06 5.51622e-22)
(1.50189 1.52901e-06 1.24889e-21)
(1.50207 1.72002e-06 -5.78677e-21)
(1.50232 6.24853e-07 -3.56481e-21)
(1.50259 3.93485e-06 -3.94012e-21)
(1.50283 4.80134e-06 4.0832e-22)
(1.50318 1.88986e-06 2.16001e-21)
(1.50352 5.85366e-06 1.10739e-20)
(1.50383 1.00455e-05 2.34737e-20)
(1.50427 9.76162e-06 1.71268e-20)
(1.50466 3.37356e-06 1.36417e-20)
(1.50503 4.22835e-06 1.3503e-20)
(1.50559 1.8235e-05 2.6283e-21)
(1.506 1.77195e-05 1.0443e-20)
(1.50634 1.83262e-06 1.52894e-20)
(1.5068 -8.10688e-08 4.30336e-21)
(1.50757 1.52273e-05 2.37313e-21)
(1.50797 3.92508e-07 1.3636e-21)
(1.50823 2.5065e-05 2.28217e-21)
(1.50841 4.33582e-05 6.64351e-21)