/*--------------------------------*- C++ -*----------------------------------*\
| =========                 |                                                 |
| \\      /  F ield         | OpenFOAM: The Open Source CFD Toolbox           |
|  \\    /   O peration     | Version:  2.2.x                                 |
|   \\  /    A nd           | Web:      www.OpenFOAM.org                      |
|    \\/     M anipulation  |                                                 |
\*---------------------------------------------------------------------------*/
FoamFile
{
    version     2.0;
    format      ascii;
    class       volVectorField;
    location    "0.8";
    object      U;
}
// * * * * * * * * * * * * * * * * * * * * * * * * * * * * * * * * * * * * * //

dimensions      [0 1 -1 0 0 0 0];

internalField   nonuniform List<vector> 
14161
(
(1.5 -3.30498e-10 -6.69577e-17)
(1.5 1.687e-10 8.35484e-17)
(1.5 3.22017e-10 -1.03839e-16)
(1.5 -3.35823e-10 1.28616e-16)
(1.50001 3.2498e-10 -2.14104e-16)
(1.50001 1.44623e-09 3.1051e-16)
(1.50002 1.15015e-09 -4.79631e-16)
(1.50003 1.04363e-10 6.75557e-16)
(1.50004 1.78392e-09 -8.86743e-16)
(1.50006 6.97336e-09 9.73982e-16)
(1.50009 8.55874e-09 -5.42021e-16)
(1.50012 7.27195e-09 -1.27534e-15)
(1.50018 1.69642e-08 6.32896e-15)
(1.50024 2.71328e-08 -1.84134e-14)
(1.50034 3.57191e-08 4.15148e-14)
(1.50046 9.49026e-08 -8.29024e-14)
(1.50061 5.28252e-08 1.59031e-13)
(1.5008 1.5183e-07 -2.90918e-13)
(1.50104 1.15971e-07 5.12597e-13)
(1.50134 1.88866e-07 -7.84158e-13)
(1.50169 4.15315e-07 1.15181e-12)
(1.5021 -2.47061e-07 -1.30318e-12)
(1.50258 1.00391e-06 1.36001e-12)
(1.50313 -6.28899e-07 -1.10999e-12)
(1.50372 1.7158e-06 5.74809e-13)
(1.5044 2.88708e-06 -2.54547e-14)
(1.50515 -3.15886e-06 -1.28246e-12)
(1.50588 4.58856e-06 2.73097e-12)
(1.50669 5.05215e-06 -2.68749e-12)
(1.50754 -2.36323e-06 2.00894e-12)
(1.5084 1.7549e-05 2.90767e-12)
(1.50913 -2.88031e-06 -3.61226e-12)
(1.50985 -1.02127e-05 -5.45199e-12)
(1.51051 6.39149e-06 2.96833e-11)
(1.51093 1.93387e-05 -3.05451e-11)
(1.51105 7.3477e-06 -2.01192e-11)
(1.51117 2.29961e-06 -5.04363e-11)
(1.51102 1.35545e-06 2.18974e-10)
(1.51068 2.68697e-06 -5.77712e-10)
(1.5101 5.56984e-06 9.77068e-10)
(1.5092 9.353e-06 -1.53973e-09)
(1.50781 1.32005e-05 5.39574e-09)
(1.50612 2.67392e-06 -7.25956e-09)
(1.50434 8.34851e-07 1.90133e-08)
(1.50166 5.90807e-06 -3.47556e-08)
(1.49835 1.05623e-06 4.32878e-08)
(1.49436 -2.5473e-06 -5.36637e-08)
(1.49021 -1.23389e-05 1.55983e-07)
(1.48379 3.26531e-05 -1.92372e-07)
(1.47681 -8.9579e-05 -8.68362e-08)
(1.46886 -0.000201498 1.68343e-06)
(1.46581 0.00351941 -2.02907e-05)
(0.887226 0.0106066 -7.94598e-05)
(0.551331 0.0105278 -5.5543e-05)
(0.506658 0.0045607 -5.17553e-05)
(0.505094 -0.00327848 -9.76144e-05)
(0.519406 -0.0058364 -2.99638e-05)
(0.534895 -0.00964062 0.000405643)
(0.561249 -0.0104652 -0.000877259)
(0.584718 -0.012043 -0.00159866)
(0.61074 -0.0123465 0.0018952)
(0.636033 -0.0117675 0.00340281)
(0.660062 -0.0109809 -0.00121318)
(0.682616 -0.0100481 -0.00559098)
(0.703786 -0.0090391 -0.00381709)
(0.722597 -0.00849696 0.00262571)
(0.740509 -0.00815546 0.00692415)
(0.756656 -0.00783101 0.00520708)
(0.770046 -0.0068856 -0.000985258)
(0.782439 -0.00636181 -0.00603402)
(0.793823 -0.00645484 -0.00538022)
(0.80337 -0.00579889 -0.000788991)
(0.81135 -0.0048189 0.00417433)
(0.817885 -0.00487868 0.00516067)
(0.823998 -0.00516351 0.00302161)
(0.82894 -0.0044177 -0.00286442)
(0.833852 -0.00385287 -0.00501963)
(0.839647 -0.0037951 -0.00392866)
(0.849994 -0.00371078 0.00127483)
(0.856619 -0.00339632 0.00477577)
(0.862543 -0.00391317 0.00356806)
(0.873246 -0.00375267 -0.000426126)
(0.877411 -0.00319569 -0.00281889)
(0.874908 -0.00356093 -0.00295692)
(0.896416 -0.0040721 -0.000967918)
(0.90092 -0.00457403 0.00284296)
(0.904369 -0.00531612 0.00254328)
(0.927792 -0.00570072 0.000263476)
(0.939116 -0.00461527 -0.00346198)
(0.944824 -0.00404523 -0.00361062)
(0.949174 -0.00346217 4.54206e-05)
(0.964253 -0.00439273 0.00395319)
(0.975666 -0.00443087 0.00428011)
(0.980291 -0.00427052 1.77032e-05)
(0.984385 -0.00103252 -0.00387888)
(0.975125 0.00234303 -0.00276992)
(0.963278 0.0084055 -1.03577e-06)
(0.931719 0.0202023 0.00169905)
(0.861041 0.0364775 0.00129643)
(0.775807 0.0457559 -0.000210229)
(0.666585 0.0517201 -0.00061764)
(0.570473 0.0489507 -8.01282e-05)
(0.494759 0.0398977 9.47495e-05)
(0.436851 0.031352 -0.000162165)
(0.389896 0.0255513 -0.000215593)
(0.34888 0.021427 -5.18075e-05)
(0.314181 0.0184111 -6.79496e-05)
(0.285254 0.0160774 -5.02531e-05)
(0.259823 0.0143155 -1.1646e-05)
(0.23586 0.0129586 -2.15002e-05)
(0.213828 0.011901 2.19709e-05)
(0.193746 0.0114403 9.64361e-06)
(0.174068 0.0114468 6.40131e-06)
(0.153905 0.0117625 -2.4365e-05)
(0.132067 0.012586 -7.53982e-05)
(0.107765 0.0138515 -5.70782e-05)
(0.0809518 0.0156426 -1.72465e-05)
(0.0521675 0.0153795 -1.24837e-05)
(0.0268119 0.0270442 -1.18337e-05)
(1.5 -8.25896e-11 -6.42907e-17)
(1.5 6.75417e-10 8.17365e-17)
(1.5 1.17241e-09 -9.99421e-17)
(1.5 3.28182e-10 1.25329e-16)
(1.50001 6.96758e-10 -2.07832e-16)
(1.50001 2.69742e-09 2.99034e-16)
(1.50002 4.06601e-09 -4.58652e-16)
(1.50003 2.31326e-09 6.38599e-16)
(1.50004 3.26545e-09 -8.24222e-16)
(1.50006 1.16815e-08 8.5094e-16)
(1.50009 2.11168e-08 -3.06087e-16)
(1.50012 2.1706e-08 -1.50985e-15)
(1.50018 2.98808e-08 6.34713e-15)
(1.50024 4.01755e-08 -1.78752e-14)
(1.50034 5.37942e-08 3.95664e-14)
(1.50046 1.70473e-07 -7.76726e-14)
(1.50061 1.32246e-07 1.47558e-13)
(1.5008 2.10775e-07 -2.72417e-13)
(1.50104 3.02126e-07 4.78569e-13)
(1.50134 1.61235e-07 -7.40435e-13)
(1.50169 8.78064e-07 1.03503e-12)
(1.5021 -4.78018e-07 -1.22661e-12)
(1.50258 1.50822e-06 1.20569e-12)
(1.50312 -3.80611e-07 -1.01494e-12)
(1.50373 1.78222e-06 6.21731e-13)
(1.5044 4.13715e-06 -7.30931e-15)
(1.50515 -6.13264e-06 -1.4847e-12)
(1.50589 6.19298e-06 2.66792e-12)
(1.50668 6.8213e-06 -2.61027e-12)
(1.50756 -9.56995e-06 2.25981e-12)
(1.50839 1.5845e-05 8.93451e-13)
(1.50914 1.70991e-05 -2.15984e-12)
(1.50988 -1.56334e-05 -4.57603e-12)
(1.51048 -1.2103e-09 1.96166e-11)
(1.51095 3.90358e-05 -1.56574e-11)
(1.51113 3.06651e-05 -1.87347e-11)
(1.51126 2.06686e-05 -3.11961e-11)
(1.51113 1.91839e-05 1.43563e-10)
(1.5108 2.50378e-05 -4.82438e-10)
(1.51022 3.40546e-05 1.01576e-09)
(1.50934 5.30145e-05 -1.47675e-09)
(1.508 6.18052e-05 4.0684e-09)
(1.50639 5.79153e-05 -5.80929e-09)
(1.50467 5.84789e-05 1.43508e-08)
(1.50215 9.99224e-05 -2.13287e-08)
(1.49883 8.33371e-05 2.80896e-08)
(1.49486 9.80128e-05 -3.33875e-08)
(1.49071 0.000114047 1.31016e-07)
(1.48399 0.000177264 -2.17691e-07)
(1.47655 -0.000126422 2.16237e-07)
(1.46779 0.000361537 3.01847e-07)
(1.45973 0.0139108 -2.60344e-05)
(0.871735 0.0328657 -6.65503e-05)
(0.545242 0.0305639 -6.87538e-05)
(0.502196 0.00864883 5.14239e-05)
(0.501277 -0.00977329 -0.000135646)
(0.520842 -0.0183409 -0.000514962)
(0.538852 -0.0276584 0.000754744)
(0.567229 -0.0283799 0.00142255)
(0.591026 -0.0284735 -0.00253829)
(0.617043 -0.0283316 -0.00344882)
(0.641465 -0.0266537 0.00232547)
(0.666129 -0.0237139 0.00589071)
(0.688384 -0.0205852 0.00154324)
(0.708991 -0.0173368 -0.00553436)
(0.7289 -0.0150091 -0.00601733)
(0.745288 -0.0128302 -0.000568427)
(0.760912 -0.0101458 0.00546835)
(0.775569 -0.00874691 0.00491171)
(0.787083 -0.00800283 -6.60394e-05)
(0.798151 -0.00871742 -0.0050393)
(0.808431 -0.0100213 -0.00455533)
(0.817133 -0.00922139 -0.000608621)
(0.823925 -0.00812366 0.00332174)
(0.829261 -0.00863876 0.00388015)
(0.833576 -0.00856573 0.00117556)
(0.838514 -0.00696329 -0.00264722)
(0.843849 -0.00700896 -0.002716)
(0.855089 -0.0060292 0.0003092)
(0.861624 -0.00503796 0.00323591)
(0.867871 -0.00522073 0.00264263)
(0.877225 -0.00476308 -0.000497376)
(0.881979 -0.00266188 -0.00178313)
(0.879737 -0.00326221 -0.00140425)
(0.902914 -0.00406097 2.25453e-05)
(0.907688 -0.00542264 0.00207873)
(0.91152 -0.00645862 0.00130094)
(0.93312 -0.00966663 -0.000331618)
(0.943255 -0.00773904 -0.00223848)
(0.948362 -0.00478246 -0.00290537)
(0.95263 -0.0038409 6.61195e-05)
(0.967233 -0.0059087 0.00341571)
(0.975179 -0.00641541 0.00335344)
(0.975227 -0.00581121 0.000157208)
(0.973917 -0.00226465 -0.00265902)
(0.951477 0.0016881 -0.00230569)
(0.923266 0.00781289 -0.000143843)
(0.868653 0.0207427 0.0012848)
(0.77938 0.0423819 0.000853879)
(0.684752 0.0628818 -0.000353953)
(0.589256 0.0779798 -0.000365498)
(0.51119 0.0724133 0.000102029)
(0.45059 0.0606797 6.67856e-05)
(0.402041 0.0526683 -0.000194229)
(0.360863 0.0457589 -0.000165948)
(0.324235 0.0400515 -3.06687e-05)
(0.292986 0.0357376 -7.3516e-05)
(0.266749 0.0323276 -2.48851e-05)
(0.243276 0.0294863 -1.23749e-06)
(0.220805 0.0272187 -9.49681e-06)
(0.199985 0.025717 2.9823e-05)
(0.180602 0.0255872 8.08291e-06)
(0.161328 0.0267828 4.03488e-06)
(0.141307 0.0286339 -3.69978e-05)
(0.119432 0.0319091 -8.07293e-05)
(0.0954206 0.0359504 -4.40462e-05)
(0.0699829 0.0413947 -1.0909e-05)
(0.0421213 0.0431437 -1.29985e-05)
(0.0189436 0.0581903 -1.41378e-05)
(1.5 1.00891e-10 -5.86287e-17)
(1.5 2.69263e-10 7.49699e-17)
(1.5 2.56773e-09 -9.21316e-17)
(1.5 1.97336e-09 1.12616e-16)
(1.50001 1.75724e-09 -1.82985e-16)
(1.50001 4.22794e-09 2.6057e-16)
(1.50002 7.84164e-09 -4.12616e-16)
(1.50003 7.6076e-09 5.6086e-16)
(1.50004 8.34847e-09 -6.11608e-16)
(1.50006 2.00043e-08 4.62317e-16)
(1.50009 3.81937e-08 2.22867e-16)
(1.50012 4.65683e-08 -2.07445e-15)
(1.50018 6.46524e-08 6.82163e-15)
(1.50024 7.99425e-08 -1.68305e-14)
(1.50034 1.02775e-07 3.42181e-14)
(1.50046 2.80495e-07 -6.59762e-14)
(1.50061 2.6094e-07 1.26509e-13)
(1.5008 3.5391e-07 -2.14275e-13)
(1.50105 5.34415e-07 3.75013e-13)
(1.50134 5.2039e-07 -5.80004e-13)
(1.50169 1.19996e-06 8.3e-13)
(1.5021 2.70239e-07 -9.99769e-13)
(1.50258 2.15825e-06 8.51552e-13)
(1.50312 6.12473e-07 -5.90513e-13)
(1.50374 2.48121e-06 1.55347e-13)
(1.5044 5.8739e-06 3.64545e-13)
(1.50515 -9.33568e-07 -1.53162e-12)
(1.50591 4.39692e-06 2.36273e-12)
(1.5067 1.28327e-05 -2.19357e-12)
(1.5076 -2.75228e-06 2.05447e-12)
(1.5084 7.60945e-06 -5.18438e-13)
(1.50919 3.0956e-05 -8.13778e-13)
(1.50997 8.16672e-06 -3.41473e-12)
(1.51051 -9.2063e-06 9.09546e-12)
(1.51103 3.20654e-05 -4.9478e-12)
(1.51134 4.25891e-05 -7.61421e-12)
(1.51151 2.86789e-05 -1.43035e-11)
(1.51142 1.21101e-05 5.96615e-11)
(1.51113 1.374e-05 -1.94086e-10)
(1.51058 2.15276e-05 5.14195e-10)
(1.50977 6.48852e-05 -9.63185e-10)
(1.50861 0.000112211 2.31251e-09)
(1.50713 8.48855e-05 -2.99728e-09)
(1.50567 9.19874e-05 5.10363e-09)
(1.50357 0.000127333 -8.73195e-09)
(1.50026 8.01642e-05 1.71108e-08)
(1.49657 8.41791e-05 -1.24965e-08)
(1.49262 9.48488e-05 3.80663e-08)
(1.48576 0.000243497 -1.15733e-07)
(1.47802 -0.000251896 2.37746e-07)
(1.47116 0.00181294 -8.68431e-07)
(1.45834 0.025911 -2.64153e-05)
(0.875717 0.0680911 -6.18785e-05)
(0.539278 0.0512683 -6.77382e-05)
(0.503705 0.0155148 2.22152e-05)
(0.499183 -0.0186444 4.25983e-06)
(0.525299 -0.0363338 -0.000471282)
(0.544043 -0.0506197 -0.000181354)
(0.574826 -0.0526457 0.00136074)
(0.601233 -0.0519353 0.00032768)
(0.628405 -0.0499842 -0.00284258)
(0.653718 -0.046936 -0.0018097)
(0.678115 -0.0428062 0.00285873)
(0.701235 -0.0376143 0.00413516)
(0.721703 -0.0333582 -0.00055311)
(0.741488 -0.029386 -0.00516206)
(0.758932 -0.0254172 -0.00386796)
(0.773535 -0.0214662 0.00193799)
(0.787364 -0.0178679 0.00524769)
(0.798775 -0.0157407 0.00324257)
(0.808107 -0.0154425 -0.00213083)
(0.817326 -0.0168698 -0.0044777)
(0.825465 -0.0179104 -0.00247292)
(0.832751 -0.0173174 0.00176848)
(0.838573 -0.0164337 0.00325944)
(0.842475 -0.0159022 0.00205197)
(0.846378 -0.0145754 -0.0011056)
(0.851461 -0.0147295 -0.00189723)
(0.863496 -0.0142128 -0.000467309)
(0.870165 -0.0142779 0.00164542)
(0.876707 -0.0142746 0.00154379)
(0.885364 -0.0123874 -0.000200786)
(0.889883 -0.00974685 -0.000596358)
(0.886951 -0.0104838 -0.000399524)
(0.910778 -0.0125698 0.000266735)
(0.915723 -0.0137551 0.00116807)
(0.919004 -0.0144518 0.000689651)
(0.936623 -0.0169203 -0.00051506)
(0.946406 -0.0139649 -0.0014748)
(0.950491 -0.0105765 -0.00234656)
(0.953728 -0.00831543 0.000585267)
(0.963035 -0.0119271 0.00201363)
(0.964575 -0.0098697 0.00203435)
(0.953282 -0.00675722 0.000307263)
(0.938736 0.00184619 -0.00141968)
(0.89712 0.0185503 -0.0014951)
(0.834194 0.0356648 -1.94563e-05)
(0.751115 0.0689707 0.000940158)
(0.652003 0.113892 0.000278131)
(0.563527 0.128998 -0.000416236)
(0.495087 0.134391 -8.17505e-05)
(0.443941 0.122613 0.00019883)
(0.40312 0.105089 5.15542e-06)
(0.367644 0.0927556 -0.000224142)
(0.335862 0.0819283 -0.000120101)
(0.305745 0.0720911 -1.26557e-05)
(0.278998 0.0640067 -8.05393e-05)
(0.255374 0.0576172 -7.92548e-06)
(0.233326 0.052489 4.07645e-06)
(0.211806 0.0484817 -2.23671e-06)
(0.191224 0.0459383 3.45395e-05)
(0.171455 0.0453237 5.12004e-06)
(0.151625 0.0467209 6.85955e-07)
(0.130849 0.0492122 -4.62691e-05)
(0.108878 0.0540806 -8.43879e-05)
(0.0853378 0.0594546 -2.8967e-05)
(0.0619092 0.0674772 -7.82565e-06)
(0.0364496 0.07125 -1.37981e-05)
(0.0179469 0.0880963 -1.60411e-05)
(1.5 1.00332e-10 -5.08068e-17)
(1.5 -1.72301e-10 6.34045e-17)
(1.5 2.85863e-09 -7.5092e-17)
(1.5 3.53108e-09 8.66821e-17)
(1.50001 2.57089e-09 -1.42261e-16)
(1.50001 4.06794e-09 1.97345e-16)
(1.50002 7.95162e-09 -2.55716e-16)
(1.50003 1.02324e-08 2.94935e-16)
(1.50004 1.11628e-08 -2.95746e-16)
(1.50006 2.18314e-08 1.26909e-18)
(1.50009 4.24849e-08 1.11236e-15)
(1.50012 6.20398e-08 -3.91946e-15)
(1.50018 9.60266e-08 8.90595e-15)
(1.50024 1.19841e-07 -1.7443e-14)
(1.50034 1.29477e-07 3.13121e-14)
(1.50046 3.24791e-07 -5.1495e-14)
(1.50061 3.83069e-07 7.85788e-14)
(1.5008 4.5273e-07 -1.26932e-13)
(1.50105 7.55895e-07 1.8619e-13)
(1.50134 9.05354e-07 -3.66375e-13)
(1.50169 1.17551e-06 4.32921e-13)
(1.5021 1.25576e-06 -4.47924e-13)
(1.50258 2.24795e-06 2.90062e-13)
(1.50313 3.14331e-06 -1.7291e-14)
(1.50374 1.97777e-06 -4.34053e-13)
(1.50441 6.65438e-06 7.60599e-13)
(1.50516 2.56315e-06 -1.41181e-12)
(1.50594 3.2953e-06 1.85864e-12)
(1.50672 1.19342e-05 -1.49443e-12)
(1.50763 9.0683e-06 1.34054e-12)
(1.50844 -5.05106e-06 -5.07219e-13)
(1.50922 2.24471e-05 -7.71602e-13)
(1.51009 4.08095e-05 -3.10452e-13)
(1.51069 3.91656e-06 1.28116e-12)
(1.51115 2.83037e-06 -8.01789e-13)
(1.51158 4.78826e-05 -4.53414e-12)
(1.51189 6.39543e-05 -2.60028e-12)
(1.51194 6.05577e-05 8.21995e-12)
(1.51176 4.35845e-05 -1.97097e-11)
(1.51132 3.67136e-05 3.23011e-11)
(1.51063 4.23979e-05 -1.54638e-10)
(1.50969 0.000101289 3.67748e-10)
(1.50846 0.000127219 -5.66983e-10)
(1.50731 0.000216233 6.35641e-10)
(1.50579 0.000308618 -2.13306e-10)
(1.50328 0.000304019 -4.46699e-10)
(1.50016 0.000228213 3.23671e-09)
(1.49628 0.000131318 1.08983e-09)
(1.48956 0.000297871 -2.08338e-08)
(1.48235 0.00020675 1.54737e-07)
(1.47743 0.00323497 -1.31103e-06)
(1.45841 0.0378413 -2.20842e-05)
(0.904495 0.111577 -5.52067e-05)
(0.541496 0.0736055 -5.0238e-05)
(0.510544 0.0201377 -0.000103575)
(0.505477 -0.0311958 0.000145211)
(0.540623 -0.0567498 9.42833e-05)
(0.561464 -0.0742842 -0.000685797)
(0.595178 -0.0776339 -0.000920236)
(0.624233 -0.0755187 0.00182929)
(0.652892 -0.0700578 0.00208537)
(0.679406 -0.0643764 -0.00244087)
(0.70428 -0.0576109 -0.00386889)
(0.727247 -0.0504036 0.000534418)
(0.74753 -0.0433986 0.00480474)
(0.766405 -0.0379276 0.00211874)
(0.782352 -0.0324972 -0.00327343)
(0.796137 -0.0265273 -0.00389528)
(0.807654 -0.0225483 0.000446732)
(0.818333 -0.0190676 0.0032654)
(0.827242 -0.0174406 0.00179528)
(0.834941 -0.0177952 -0.00112955)
(0.842701 -0.0192034 -0.00203299)
(0.850238 -0.0193703 -0.00109596)
(0.855491 -0.01772 0.000410316)
(0.859633 -0.0158538 0.00133611)
(0.863137 -0.0151751 0.00107852)
(0.867566 -0.0149748 6.20285e-06)
(0.880924 -0.0138645 -0.000906227)
(0.888239 -0.0156876 -0.00120674)
(0.893755 -0.0166263 -0.000640312)
(0.899835 -0.0147152 0.000149514)
(0.903293 -0.0125201 0.00105267)
(0.90007 -0.0131532 0.00105255)
(0.924282 -0.0165088 0.000448557)
(0.928914 -0.0164194 -9.32142e-05)
(0.930376 -0.0170477 -0.000284598)
(0.941455 -0.0194803 -0.000256602)
(0.949652 -0.0162488 -0.000304584)
(0.953116 -0.014389 -0.000659668)
(0.953527 -0.00927437 0.000418016)
(0.94698 -0.0111782 0.000969324)
(0.939647 -0.00453703 0.000969943)
(0.906153 0.00615262 0.000109668)
(0.857187 0.0203346 -0.000878624)
(0.778602 0.0481919 -0.000692284)
(0.677338 0.0823258 0.000451203)
(0.577799 0.123575 0.000458535)
(0.492956 0.147676 -0.000242185)
(0.435782 0.160177 -0.000112062)
(0.39807 0.158791 0.000147106)
(0.369496 0.141849 0.000120741)
(0.344911 0.123844 -0.000119351)
(0.321111 0.110565 -0.000169474)
(0.298072 0.0987477 -2.67932e-05)
(0.274512 0.0879144 -2.01403e-05)
(0.253011 0.0797206 -6.30157e-05)
(0.233286 0.0733597 3.69681e-05)
(0.213945 0.0682265 6.61705e-06)
(0.194099 0.0637186 1.30411e-05)
(0.174513 0.0609293 3.36866e-05)
(0.1558 0.0608876 -6.25353e-07)
(0.137418 0.0638046 -6.10422e-06)
(0.118518 0.0681714 -6.47248e-05)
(0.0982697 0.0745585 -7.9079e-05)
(0.0764516 0.0810371 -1.30359e-05)
(0.055599 0.0907881 -6.58242e-06)
(0.0329293 0.0954974 -1.52124e-05)
(0.0187245 0.111942 -1.82197e-05)
(1.5 4.31998e-10 -3.79559e-17)
(1.5 -4.62754e-10 4.32399e-17)
(1.5 2.92647e-09 -5.57647e-17)
(1.5 5.41479e-09 6.36904e-17)
(1.50001 5.31664e-09 -1.04523e-16)
(1.50001 4.58486e-09 1.18324e-16)
(1.50002 7.35823e-09 -1.35262e-16)
(1.50003 1.46157e-08 1.99401e-16)
(1.50004 1.9964e-08 -1.26009e-16)
(1.50006 2.96169e-08 -3.66156e-16)
(1.50009 4.8297e-08 1.84683e-15)
(1.50012 7.68744e-08 -5.17904e-15)
(1.50017 1.30455e-07 1.06835e-14)
(1.50024 1.82313e-07 -1.97963e-14)
(1.50034 2.09212e-07 3.41227e-14)
(1.50046 3.66602e-07 -5.28776e-14)
(1.50061 5.08463e-07 7.27613e-14)
(1.5008 5.33645e-07 -1.05137e-13)
(1.50104 9.94533e-07 1.34015e-13)
(1.50134 1.25121e-06 -1.8352e-13)
(1.50169 1.31693e-06 2.3828e-13)
(1.5021 2.35156e-06 -2.19154e-13)
(1.50258 1.71744e-06 6.42388e-14)
(1.50313 4.67317e-06 2.61009e-13)
(1.50375 3.83822e-06 -7.16166e-13)
(1.50444 6.56361e-06 1.09843e-12)
(1.50516 5.80885e-06 -1.27857e-12)
(1.50596 7.70525e-06 1.54886e-12)
(1.50679 1.1137e-05 -1.25885e-12)
(1.50765 1.33865e-05 4.50498e-13)
(1.50853 1.69997e-05 1.93385e-14)
(1.50931 -1.9794e-06 -9.91044e-13)
(1.51018 2.6848e-05 3.63634e-13)
(1.51097 5.03858e-05 -2.28252e-13)
(1.51147 3.95691e-06 3.23339e-13)
(1.51186 -7.4175e-06 -2.18181e-12)
(1.5123 4.25868e-05 -1.10358e-12)
(1.51268 0.000106829 5.7235e-12)
(1.51276 0.000109919 -1.96861e-13)
(1.51259 7.59233e-05 -3.03951e-11)
(1.51208 3.15429e-05 5.25493e-11)
(1.51134 3.89063e-05 -9.69083e-11)
(1.51048 0.000136798 3.86724e-10)
(1.50964 0.000168283 -1.26037e-09)
(1.50879 0.000359559 1.37287e-09)
(1.50802 0.000465137 -1.51703e-09)
(1.5061 0.000402817 4.60301e-09)
(1.50207 0.000296314 -7.0151e-09)
(1.49707 0.00031254 5.14372e-09)
(1.49114 0.000578018 4.08351e-08)
(1.4877 0.00435687 -1.27453e-06)
(1.46643 0.0489617 -1.84061e-05)
(0.974406 0.152555 -4.51454e-05)
(0.555779 0.0974714 -3.70766e-05)
(0.521233 0.0193892 -0.000163641)
(0.521665 -0.0486773 6.73302e-05)
(0.562389 -0.0875764 0.000124893)
(0.589796 -0.10566 0.000117971)
(0.625555 -0.11086 -0.000571427)
(0.657416 -0.106365 -0.000549479)
(0.686086 -0.0963886 0.0010676)
(0.714287 -0.0876298 0.000773991)
(0.737401 -0.0779996 -0.00119843)
(0.760601 -0.0687333 -0.000979482)
(0.780584 -0.058757 0.00181372)
(0.799167 -0.0511991 0.00170412)
(0.814274 -0.0445767 -0.00212964)
(0.82762 -0.0360114 -0.00345709)
(0.838498 -0.0307311 -0.000108732)
(0.848179 -0.0278567 0.00282203)
(0.857008 -0.0243597 0.00179529)
(0.864773 -0.0224876 -0.000411423)
(0.871317 -0.0234392 -0.00082159)
(0.877514 -0.024694 -0.000561591)
(0.882716 -0.0235051 -0.000215155)
(0.887803 -0.0207824 0.000429465)
(0.890491 -0.0204925 0.000716059)
(0.893322 -0.0221363 0.000661394)
(0.905021 -0.0233181 6.65408e-05)
(0.912052 -0.0245916 -0.000796626)
(0.915875 -0.0239629 -0.00103259)
(0.920258 -0.0213498 -0.000508457)
(0.92253 -0.0189362 0.00109772)
(0.918167 -0.0194654 0.00144098)
(0.939187 -0.0240641 0.000672256)
(0.942126 -0.0237697 -0.00055104)
(0.941343 -0.0212507 -0.000613247)
(0.946961 -0.0224787 -0.00028925)
(0.952216 -0.0198948 -7.15231e-05)
(0.944613 -0.0172656 0.000130372)
(0.937466 -0.00738959 0.000400369)
(0.90895 0.000248024 0.00053814)
(0.874947 0.0122068 0.000350489)
(0.808969 0.0384476 -0.000129295)
(0.714754 0.0656804 -0.00049454)
(0.614597 0.119995 0.00012347)
(0.511392 0.154716 0.000467658)
(0.434676 0.175771 -0.000129758)
(0.384207 0.186428 -8.3811e-05)
(0.351128 0.18555 8.97944e-05)
(0.329424 0.174491 0.000119092)
(0.313776 0.157676 -1.52321e-05)
(0.298227 0.141987 -0.000142857)
(0.281482 0.127061 -7.16811e-05)
(0.263172 0.113441 1.169e-05)
(0.244612 0.103709 -3.85935e-05)
(0.227853 0.0961004 -3.10531e-06)
(0.211206 0.0895867 6.33773e-05)
(0.193906 0.083666 -2.21575e-06)
(0.176005 0.0789476 3.37244e-05)
(0.158478 0.0768305 2.56836e-05)
(0.1415 0.0774133 -6.48752e-06)
(0.124743 0.0810213 -1.8799e-05)
(0.107022 0.0856918 -7.92902e-05)
(0.0886208 0.0936736 -6.39046e-05)
(0.0688303 0.100617 -4.06885e-07)
(0.0511653 0.111732 -6.04657e-06)
(0.0311853 0.116784 -1.63565e-05)
(0.0201639 0.132275 -1.96212e-05)
(1.5 6.24777e-10 -9.12116e-18)
(1.5 -5.18272e-10 1.46931e-17)
(1.5 2.70591e-09 -1.95117e-17)
(1.5 6.11857e-09 2.09779e-17)
(1.50001 7.69562e-09 -1.97294e-17)
(1.50001 5.81004e-09 -1.08418e-17)
(1.50002 6.84773e-09 1.32013e-16)
(1.50003 1.46454e-08 -5.49418e-16)
(1.50004 2.45768e-08 1.35762e-15)
(1.50006 3.50646e-08 -2.74493e-15)
(1.50009 5.60247e-08 4.9102e-15)
(1.50012 9.16181e-08 -8.61335e-15)
(1.50017 1.5192e-07 1.56659e-14)
(1.50024 2.26742e-07 -2.72369e-14)
(1.50034 2.82013e-07 4.5292e-14)
(1.50046 4.00278e-07 -6.82502e-14)
(1.50061 6.4907e-07 9.61078e-14)
(1.5008 6.16873e-07 -1.34668e-13)
(1.50104 1.14954e-06 1.75814e-13)
(1.50134 1.71081e-06 -2.34281e-13)
(1.50169 1.55929e-06 2.61133e-13)
(1.5021 3.01318e-06 -2.35659e-13)
(1.50259 2.58949e-06 1.50076e-13)
(1.50313 4.96047e-06 7.40036e-14)
(1.50376 5.13745e-06 -3.3108e-13)
(1.50446 3.87411e-06 3.43786e-13)
(1.50516 7.15297e-06 -5.07982e-13)
(1.506 1.2645e-05 6.95817e-13)
(1.50687 -1.21673e-06 -3.01649e-13)
(1.50768 1.31528e-05 -3.32177e-13)
(1.50864 4.3663e-05 4.67947e-13)
(1.50948 -1.88541e-06 -4.16331e-13)
(1.51026 -6.71057e-06 3.68408e-13)
(1.51118 6.50606e-05 -6.67122e-13)
(1.51197 7.59276e-05 8.04866e-13)
(1.5124 -5.34361e-06 -1.74544e-12)
(1.5128 -3.64898e-05 -3.35776e-12)
(1.51332 4.31704e-05 1.9749e-11)
(1.51395 0.000135726 -1.41828e-11)
(1.51423 0.000186774 -3.23354e-11)
(1.51421 0.000117225 3.80957e-11)
(1.51366 3.4326e-05 -6.89886e-11)
(1.51321 -5.3343e-06 1.73255e-10)
(1.5128 2.70917e-05 -4.88314e-10)
(1.51248 -1.74893e-05 4.50311e-10)
(1.513 0.000313994 -5.51289e-10)
(1.51331 0.000671344 2.70552e-09)
(1.51211 0.000888586 -4.00284e-09)
(1.50838 0.000692306 6.96738e-09)
(1.5057 0.00117009 -3.44233e-08)
(1.50439 0.00518732 -1.00536e-06)
(1.48462 0.0562367 -1.38457e-05)
(1.08676 0.183163 -3.68944e-05)
(0.583933 0.120709 -3.51401e-05)
(0.534173 0.0131139 -0.000207004)
(0.559712 -0.0733524 -7.42904e-05)
(0.599217 -0.120766 0.000389216)
(0.637313 -0.1373 -0.000100375)
(0.674393 -0.141715 -0.000717103)
(0.707546 -0.13354 -0.000713999)
(0.735268 -0.118792 0.00277981)
(0.764239 -0.106344 0.00276806)
(0.784665 -0.0910598 -0.00346796)
(0.80837 -0.0788268 -0.00643231)
(0.824419 -0.0669692 -0.000202657)
(0.84235 -0.055866 0.00745578)
(0.856881 -0.0486701 0.00651934)
(0.868205 -0.0406075 -0.0010065)
(0.878863 -0.0308408 -0.00669464)
(0.88807 -0.0282463 -0.00648631)
(0.895329 -0.0278692 -0.000307854)
(0.902529 -0.024729 0.00504127)
(0.908397 -0.0231944 0.00568196)
(0.913025 -0.0227238 0.00285313)
(0.917205 -0.0217326 -0.00276645)
(0.922658 -0.0197979 -0.00449545)
(0.924803 -0.0184531 -0.00277589)
(0.925754 -0.0200941 0.00138911)
(0.933733 -0.0245437 0.00369151)
(0.938712 -0.028256 0.00235069)
(0.940529 -0.0283357 -0.000830345)
(0.943999 -0.0266662 -0.00207438)
(0.944728 -0.0260196 -0.000807552)
(0.937329 -0.0240258 0.00116189)
(0.951303 -0.024665 0.00158734)
(0.949875 -0.0241527 0.000709761)
(0.947878 -0.0217008 -0.000399486)
(0.943943 -0.0229007 -0.000548858)
(0.94048 -0.0163761 -0.000359236)
(0.91298 -0.00653486 9.05679e-05)
(0.886073 0.0100948 0.000354788)
(0.826784 0.03276 0.000256548)
(0.747144 0.0543068 1.9928e-05)
(0.653446 0.105054 -0.000252592)
(0.547455 0.151366 5.88364e-05)
(0.457541 0.187928 0.0003716)
(0.392661 0.20722 -3.39587e-05)
(0.348557 0.21398 -0.000101056)
(0.317682 0.21123 8.03403e-05)
(0.29778 0.200663 7.64825e-05)
(0.285263 0.184913 3.84668e-05)
(0.274453 0.167518 -9.34827e-05)
(0.262114 0.151318 -8.19497e-05)
(0.248723 0.137088 -5.22046e-06)
(0.234405 0.126219 6.09036e-06)
(0.220274 0.117745 -1.22553e-05)
(0.206104 0.109832 6.48569e-05)
(0.191227 0.102808 5.06043e-05)
(0.175604 0.096959 -2.20883e-06)
(0.15982 0.093076 5.26299e-05)
(0.144236 0.0914644 9.80804e-06)
(0.128689 0.0923088 -1.21388e-05)
(0.113265 0.0962471 -3.54133e-05)
(0.096745 0.101943 -8.51984e-05)
(0.0806749 0.111024 -4.18743e-05)
(0.0628638 0.118263 7.86025e-06)
(0.0481691 0.130025 -6.82865e-06)
(0.0305975 0.135419 -1.74888e-05)
(0.0220353 0.149736 -2.04193e-05)
(1.5 6.58425e-10 7.21667e-18)
(1.5 4.74819e-10 -7.98394e-18)
(1.5 2.95574e-09 1.0046e-17)
(1.5 6.18422e-09 -1.88475e-17)
(1.50001 9.17096e-09 4.23544e-17)
(1.50001 7.97026e-09 -1.13121e-16)
(1.50002 7.07031e-09 2.95974e-16)
(1.50003 1.56701e-08 -7.29425e-16)
(1.50004 3.12381e-08 1.65649e-15)
(1.50006 4.22374e-08 -3.34282e-15)
(1.50009 5.99969e-08 6.10794e-15)
(1.50012 9.75629e-08 -1.06848e-14)
(1.50017 1.63344e-07 1.87198e-14)
(1.50024 2.57916e-07 -3.25946e-14)
(1.50034 3.37708e-07 5.49407e-14)
(1.50046 4.39427e-07 -8.62436e-14)
(1.50061 7.68211e-07 1.28752e-13)
(1.5008 8.30611e-07 -1.7741e-13)
(1.50104 1.24038e-06 2.65476e-13)
(1.50134 2.20865e-06 -3.41014e-13)
(1.50169 1.69824e-06 4.3005e-13)
(1.50211 3.45477e-06 -3.98002e-13)
(1.50259 3.42499e-06 3.34537e-13)
(1.50314 4.78474e-06 -2.32899e-13)
(1.50377 6.70127e-06 2.84627e-14)
(1.50448 7.21361e-06 3.66525e-15)
(1.50519 9.68875e-06 6.32777e-14)
(1.50603 9.91734e-06 -3.33454e-14)
(1.50694 1.22354e-05 4.19533e-13)
(1.50776 1.07374e-05 -7.9144e-13)
(1.50871 2.15682e-05 6.54472e-13)
(1.5097 3.08945e-05 -1.15922e-13)
(1.51049 -1.66662e-05 -3.73451e-13)
(1.5113 9.06192e-09 4.20562e-13)
(1.51239 6.27283e-05 -6.10857e-13)
(1.51316 9.48448e-05 -4.74582e-13)
(1.51367 6.19195e-06 -1.30153e-11)
(1.51411 -8.41383e-05 3.59185e-11)
(1.51475 -3.26957e-05 9.7176e-12)
(1.51587 0.000134431 -2.34544e-10)
(1.51671 0.000273334 1.52383e-10)
(1.51692 0.000248708 1.87759e-10)
(1.51689 9.56265e-05 -1.79426e-10)
(1.51691 -0.000165169 7.66087e-11)
(1.51683 -0.000348704 -6.81131e-10)
(1.51704 -0.000312055 1.03883e-09)
(1.51991 0.000160388 3.00109e-09)
(1.52264 0.000669818 -1.49367e-08)
(1.52424 0.00125368 2.04095e-08)
(1.52673 0.00146371 -5.38015e-09)
(1.52825 0.00542737 -6.50791e-07)
(1.51845 0.0515474 -8.54732e-06)
(1.29664 0.186313 -2.69576e-05)
(0.646771 0.140239 -3.74997e-05)
(0.553837 -0.00887924 8.69628e-05)
(0.619621 -0.113129 -0.000399165)
(0.656226 -0.161653 -9.90569e-05)
(0.704984 -0.174916 0.000205407)
(0.740728 -0.171738 0.00146571)
(0.769059 -0.157966 -0.00270176)
(0.793094 -0.139048 -0.00314136)
(0.820017 -0.123712 0.00465687)
(0.834758 -0.105092 0.00827621)
(0.855624 -0.0912319 -0.00186294)
(0.86796 -0.0764066 -0.0110964)
(0.885078 -0.0653648 -0.00714489)
(0.896426 -0.0547286 0.00633735)
(0.908478 -0.0455865 0.0108552)
(0.917777 -0.0374485 0.00571657)
(0.924643 -0.0308434 -0.00590094)
(0.931023 -0.0302641 -0.00861451)
(0.93727 -0.0292542 -0.00589573)
(0.940738 -0.0265376 0.00330936)
(0.945296 -0.025893 0.00668267)
(0.949146 -0.026416 0.00600029)
(0.952145 -0.0258653 0.000104337)
(0.953507 -0.024166 -0.00448226)
(0.952487 -0.0250302 -0.00458629)
(0.956357 -0.0279713 -0.00103874)
(0.958016 -0.0309642 0.00344558)
(0.958686 -0.0330755 0.00347836)
(0.959547 -0.0319558 0.00140959)
(0.956824 -0.0286929 -0.0017415)
(0.947939 -0.023777 -0.00174104)
(0.953348 -0.024492 -0.000360097)
(0.940444 -0.02356 0.000668715)
(0.934162 -0.0172213 0.000554584)
(0.915389 -0.0100678 -0.000133713)
(0.892403 0.0019636 -0.000286392)
(0.838114 0.0237201 7.38146e-05)
(0.770614 0.0470711 0.00019769)
(0.683071 0.091402 -1.79728e-05)
(0.583677 0.144046 -0.000156999)
(0.489227 0.189814 9.21166e-05)
(0.413486 0.220845 0.00025521)
(0.362364 0.238554 2.0837e-06)
(0.324285 0.244166 -0.00012122)
(0.29683 0.240168 5.34354e-05)
(0.277385 0.228324 8.82976e-05)
(0.265188 0.211188 3.82922e-05)
(0.255811 0.192541 -4.73563e-05)
(0.245762 0.174969 -9.43253e-05)
(0.235045 0.160156 -5.54205e-06)
(0.22413 0.148171 1.15217e-05)
(0.212132 0.13839 1.8769e-05)
(0.199704 0.129049 4.65681e-05)
(0.186874 0.12071 8.58238e-05)
(0.173603 0.114153 1.85759e-05)
(0.160089 0.109443 2.15586e-05)
(0.146172 0.106371 5.37999e-05)
(0.131827 0.104766 -9.15239e-06)
(0.117262 0.105681 -1.7826e-05)
(0.103139 0.110394 -5.06855e-05)
(0.0880673 0.116764 -8.029e-05)
(0.0743113 0.126643 -1.85196e-05)
(0.0585611 0.134229 1.28015e-05)
(0.0463838 0.146032 -8.54972e-06)
(0.0309051 0.151653 -1.85451e-05)
(0.0242463 0.164739 -2.08346e-05)
(1.5 3.70048e-10 2.0046e-17)
(1.5 1.44878e-09 -2.95168e-17)
(1.5 3.82153e-09 3.41604e-17)
(1.5 5.46127e-09 -4.92163e-17)
(1.50001 8.93296e-09 9.82466e-17)
(1.50001 1.00377e-08 -1.99126e-16)
(1.50002 7.59128e-09 4.38743e-16)
(1.50003 1.32021e-08 -9.32941e-16)
(1.50004 3.31953e-08 1.93875e-15)
(1.50006 5.22376e-08 -3.82551e-15)
(1.50008 7.27901e-08 7.18608e-15)
(1.50012 1.13872e-07 -1.28585e-14)
(1.50017 1.77212e-07 2.24808e-14)
(1.50024 2.91852e-07 -3.71329e-14)
(1.50033 4.31194e-07 5.89475e-14)
(1.50045 5.30539e-07 -9.23581e-14)
(1.50061 8.68746e-07 1.41209e-13)
(1.5008 1.08753e-06 -2.11055e-13)
(1.50104 1.33379e-06 2.99561e-13)
(1.50134 2.5698e-06 -4.02543e-13)
(1.50169 1.97773e-06 5.23234e-13)
(1.50211 4.11083e-06 -5.72279e-13)
(1.50259 4.67196e-06 5.38223e-13)
(1.50315 3.9335e-06 -5.61922e-13)
(1.50378 8.98413e-06 5.15698e-13)
(1.50449 1.16074e-05 -7.27709e-13)
(1.50525 8.10501e-06 9.2472e-13)
(1.50607 1.45651e-05 -8.86404e-13)
(1.50697 2.55222e-05 1.26803e-12)
(1.50788 7.39097e-06 -1.33664e-12)
(1.5088 7.97047e-06 3.19823e-13)