/*--------------------------------*- C++ -*----------------------------------*\
| =========                 |                                                 |
| \\      /  F ield         | OpenFOAM: The Open Source CFD Toolbox           |
|  \\    /   O peration     | Version:  2.2.x                                 |
|   \\  /    A nd           | Web:      www.OpenFOAM.org                      |
|    \\/     M anipulation  |                                                 |
\*---------------------------------------------------------------------------*/
FoamFile
{
    version     2.0;
    format      ascii;
    class       volScalarField;
    location    "2.55";
    object      By;
}
// * * * * * * * * * * * * * * * * * * * * * * * * * * * * * * * * * * * * * //

dimensions      [1 0 -2 0 0 -1 0];

internalField   nonuniform List<scalar> 
14161
(
-4.30919e-06
-5.53033e-08
-8.28042e-07
-5.16486e-07
-1.76623e-06
-1.31624e-06
3.43561e-07
2.79835e-07
-1.27309e-06
-9.10825e-07
7.10862e-08
-1.45648e-06
1.28141e-06
-2.54923e-06
-2.62883e-07
2.39369e-06
-1.05331e-06
1.2715e-06
3.87833e-06
3.78891e-06
3.23223e-06
2.68058e-06
4.97717e-06
6.31227e-06
5.78708e-06
8.08531e-06
1.41478e-05
1.00209e-05
1.44251e-05
1.2128e-05
2.19607e-05
3.85835e-05
1.85768e-05
2.89774e-05
4.5661e-05
5.10454e-05
7.16801e-05
9.45469e-05
0.000181735
0.000240028
0.000810146
0.000584771
0.00204883
0.0241793
0.0107865
-0.0141207
-0.0328887
-0.0339019
-0.0230684
-0.0175092
-0.0123768
-0.0104693
-0.00841527
-0.0076308
-0.006814
-0.00642303
-0.00568513
-0.00475968
-0.00394788
-0.00323453
-0.00289016
-0.00260558
-0.00226739
-0.00195735
-0.00160452
-0.00143122
-0.0012478
-0.00105916
-0.000950453
-0.00071486
-0.000576599
-0.000396926
-0.000222502
-0.000151062
-0.000277066
-0.000705353
-0.00118182
-0.00113261
-0.00132473
-0.00180233
-0.00178662
-0.0018246
-0.00159469
-0.00166834
-0.0022733
-0.00228786
-0.00224647
-0.00144157
-0.00119906
-0.00118317
-0.00200629
-0.00183945
-0.00152681
-0.00131901
-0.00102252
-0.00105089
-0.00207374
-0.00177258
-0.00190269
-0.00505858
-0.00356534
-0.00271074
-0.000164557
-0.000397485
-0.000528831
-0.00136921
-0.00197146
-0.00679269
-0.00853738
-0.00104049
0.051253
0.104981
0.160566
0.162334
0.149103
0.137049
0.12749
0.108129
0.0826878
-9.14475e-06
-8.44609e-07
-1.81573e-06
-6.02154e-07
-1.62501e-06
-1.28274e-06
-7.73174e-07
-6.3648e-07
-1.11632e-06
-4.50249e-07
-1.43273e-06
-3.26126e-06
3.77085e-06
-2.04371e-06
-9.0975e-07
6.12388e-06
-1.50949e-06
1.51648e-06
9.69922e-06
1.1155e-05
1.05107e-05
6.65884e-06
1.06003e-05
1.42125e-05
2.11913e-05
2.56569e-05
3.34677e-05
3.23121e-05
4.53832e-05
4.519e-05
5.90065e-05
7.94976e-05
6.58063e-05
9.90225e-05
0.000128591
0.000150909
0.000216841
0.00030122
0.00051675
0.000868818
0.00207952
0.00238222
0.00653696
0.0498356
0.0281268
-0.0377388
-0.068126
-0.0657752
-0.0513608
-0.0385558
-0.0313533
-0.0252991
-0.0213925
-0.0180964
-0.0147619
-0.0128586
-0.0108153
-0.00873888
-0.00689361
-0.00550045
-0.00492945
-0.00445059
-0.00427565
-0.00363204
-0.00316717
-0.00280832
-0.00263855
-0.00229421
-0.00228882
-0.00200836
-0.00180124
-0.00143941
-0.000963876
-0.000755789
-0.00114958
-0.00219793
-0.00313831
-0.00351348
-0.00388492
-0.00486536
-0.00526256
-0.00534459
-0.00497866
-0.00507808
-0.00624943
-0.00620467
-0.00654119
-0.00470311
-0.00386413
-0.00381786
-0.00542002
-0.00532967
-0.00462702
-0.00413025
-0.00384648
-0.00351763
-0.00604916
-0.00574901
-0.00643811
-0.0124754
-0.00961264
-0.0070591
-0.00246617
-0.001311
-0.00110107
-0.00298829
-0.00706886
-0.00985736
-0.00282925
0.0330791
0.145069
0.239078
0.261704
0.246644
0.223883
0.20929
0.20516
0.190437
0.163784
-1.4346e-05
-1.63175e-06
-3.30847e-06
-1.4911e-06
-2.33163e-06
-1.84864e-06
-2.20467e-06
-1.42897e-06
-2.65639e-06
-8.43798e-07
-1.37162e-06
-4.67015e-06
5.30247e-06
-5.34849e-06
1.69068e-07
9.12152e-06
-3.10276e-06
4.03381e-06
1.74941e-05
2.09494e-05
1.7432e-05
9.67405e-06
1.92245e-05
2.57603e-05
3.98313e-05
4.13233e-05
5.38265e-05
6.342e-05
7.3275e-05
8.21347e-05
9.51157e-05
0.000118309
0.000153573
0.000177963
0.000205341
0.000245447
0.000294895
0.000378312
0.000632166
0.000892311
0.00219276
0.00241152
0.00786322
0.0528992
0.0222075
-0.065843
-0.0868837
-0.0835857
-0.0723071
-0.0609104
-0.049992
-0.0440878
-0.0364622
-0.032856
-0.0278297
-0.0253152
-0.0216899
-0.0177241
-0.0146732
-0.0120324
-0.010739
-0.00969071
-0.00940823
-0.00801929
-0.00705166
-0.0060837
-0.00561876
-0.00482718
-0.00474718
-0.00430323
-0.00390115
-0.00297467
-0.00209544
-0.0017015
-0.00229892
-0.00378274
-0.00518121
-0.00627266
-0.00653417
-0.00813575
-0.00899728
-0.00914275
-0.00894271
-0.00915382
-0.0107513
-0.0107716
-0.0117968
-0.00887809
-0.00769807
-0.00706457
-0.00931279
-0.00926621
-0.00828474
-0.00790962
-0.00703071
-0.00655377
-0.010734
-0.00971054
-0.0101937
-0.0193623
-0.0151816
-0.0120071
-0.006556
-0.00247927
-0.00200045
-0.00507021
-0.00948162
-0.001835
0.0466184
0.205789
0.347909
0.405998
0.403872
0.380688
0.362383
0.33824
0.307368
0.259146
0.240291
-1.86805e-05
-2.58403e-06
-4.99713e-06
-2.18086e-06
-1.98846e-06
-1.74483e-06
-3.35263e-06
-2.2866e-06
-3.91758e-06
-9.99075e-07
-2.36776e-06
-5.27897e-06
5.67938e-06
-5.73328e-06
-1.1373e-06
1.22962e-05
-2.00151e-06
6.44268e-06
2.3517e-05
2.60667e-05
2.34801e-05
1.50278e-05
2.67308e-05
3.45897e-05
5.16913e-05
5.92527e-05
7.96776e-05
8.57971e-05
9.53934e-05
0.000122732
0.000140776
0.000168556
0.000211749
0.000218257
0.000282648
0.00031932
0.000397178
0.000508493
0.000759291
0.000966588
0.00137702
0.00172854
0.00315855
0.021217
-0.0265634
-0.0759293
-0.0866905
-0.083606
-0.077075
-0.0692346
-0.0633359
-0.0601619
-0.0547477
-0.0540919
-0.0471548
-0.0427185
-0.036029
-0.029364
-0.024272
-0.0200036
-0.0177593
-0.0161015
-0.0153712
-0.0129242
-0.0111851
-0.00929416
-0.0085079
-0.00712767
-0.00672145
-0.00593714
-0.00534848
-0.00430536
-0.00331086
-0.00265007
-0.00360873
-0.00542773
-0.00747994
-0.00933375
-0.00937743
-0.0111047
-0.0123487
-0.0122975
-0.0119979
-0.0122664
-0.013881
-0.0148371
-0.0149103
-0.012293
-0.0104739
-0.0101025
-0.012202
-0.0118193
-0.0111292
-0.0114192
-0.0103364
-0.00977814
-0.0154245
-0.0134484
-0.0141709
-0.0248552
-0.0207217
-0.0160562
-0.00885005
-0.00158845
-0.00170685
-0.00363194
0.00684877
0.0661755
0.248449
0.412225
0.488336
0.51069
0.482482
0.452035
0.436757
0.410319
0.37965
0.324614
0.309157
-2.27221e-05
-3.85808e-06
-6.08869e-06
-2.77527e-06
-3.28857e-06
-1.99001e-06
-4.07337e-06
-2.23681e-06
-5.59473e-06
-1.88696e-06
-2.95056e-06
-5.66214e-06
5.38199e-06
-5.50681e-06
-2.45312e-06
1.22865e-05
1.54103e-06
6.24064e-06
2.8808e-05
3.41555e-05
3.22807e-05
2.4549e-05
3.43334e-05
4.56623e-05
6.89587e-05
8.05908e-05
9.80738e-05
0.000118417
0.000130337
0.00016033
0.000179941
0.000213474
0.000265122
0.00034062
0.000384807
0.000422216
0.000485212
0.000480838
0.000538538
0.000528013
0.000117451
6.53499e-05
-0.00197653
-0.0194173
-0.0889166
-0.0751231
-0.0767151
-0.0807492
-0.0809798
-0.0791772
-0.0781903
-0.0791146
-0.0747652
-0.0758079
-0.0672542
-0.0588482
-0.0469387
-0.0361323
-0.0292027
-0.0239961
-0.0216731
-0.0198053
-0.0190891
-0.015897
-0.0140102
-0.0123133
-0.0114472
-0.00969874
-0.00910043
-0.00799993
-0.00733886
-0.00596996
-0.00496971
-0.00498872
-0.00551527
-0.00692996
-0.0098952
-0.0131017
-0.0126163
-0.0138373
-0.0161553
-0.016314
-0.0159569
-0.0167078
-0.0185683
-0.0187746
-0.0186667
-0.0165857
-0.0145175
-0.0140239
-0.0154816
-0.015022
-0.0143599
-0.01469
-0.0133696
-0.0130607
-0.019599
-0.0176743
-0.019185
-0.0304613
-0.024936
-0.0209859
-0.00973617
-0.00241027
0.00267124
0.0158677
0.0896061
0.282715
0.468358
0.574206
0.598974
0.588752
0.546485
0.511158
0.495902
0.46545
0.445512
0.38943
0.376375
-2.59539e-05
-5.34471e-06
-7.05233e-06
-3.28594e-06
-3.98531e-06
-2.79131e-06
-4.94936e-06
-2.51159e-06
-6.91798e-06
-2.77676e-06
-3.05976e-06
-5.15585e-06
2.55515e-06
-3.38788e-06
-2.08095e-06
1.4544e-05
7.20205e-06
7.3888e-06
3.3476e-05
4.20321e-05
4.18472e-05
3.09053e-05
4.08616e-05
5.15135e-05
7.82758e-05
9.91174e-05
0.000125811
0.000144213
0.000165487
0.00018457
0.000226115
0.000274217
0.000321264
0.000404584
0.000446564
0.000508296
0.000580262
0.000586618
0.000498652
0.000179279
-0.000736594
-0.00169152
-0.00570698
-0.0531512
-0.117394
-0.0902114
-0.0883788
-0.100727
-0.100454
-0.100242
-0.0981603
-0.0994802
-0.095008
-0.0943192
-0.0872844
-0.0789991
-0.0655696
-0.0507365
-0.0409197
-0.0335876
-0.0296148
-0.027488
-0.0262293
-0.0229344
-0.0193637
-0.0168338
-0.0154541
-0.0134158
-0.0118177
-0.0106255
-0.00953755
-0.00749819
-0.00694131
-0.00689106
-0.00862385
-0.00930864
-0.0127568
-0.0168594
-0.0165535
-0.0180853
-0.0204986
-0.0209789
-0.0203262
-0.0211709
-0.0232726
-0.0229711
-0.021961
-0.0215964
-0.0198866
-0.0192719
-0.0200675
-0.0192804
-0.018484
-0.0189063
-0.0173077
-0.0173835
-0.024653
-0.0224518
-0.0252523
-0.0380643
-0.02962
-0.0213438
-0.0116881
0.00526264
0.0248037
0.109828
0.320449
0.518353
0.623354
0.673901
0.676828
0.642566
0.592423
0.555597
0.539367
0.510551
0.499745
0.451371
0.440236
-2.91246e-05
-6.59589e-06
-8.65742e-06
-4.02296e-06
-4.29816e-06
-2.85457e-06
-6.33198e-06
-2.85411e-06
-7.88957e-06
-3.81022e-06
-3.96993e-06
-4.87232e-06
-1.71276e-06
1.72817e-07
-1.21645e-06
1.12888e-05
1.23992e-05
8.62856e-06
3.52154e-05
4.95763e-05
4.99742e-05
4.3144e-05
5.04548e-05
6.32989e-05
9.11788e-05
0.000122764
0.000146588
0.000171339
0.000205407
0.0002266
0.000256335
0.000323123
0.000389686
0.000473982
0.000565526
0.000695788
0.000774186
0.000815449
0.000838946
0.000791298
0.000334215
0.000496286
-0.000355896
-0.0320679
-0.113931
-0.124917
-0.126422
-0.140896
-0.143421
-0.136587
-0.131818
-0.128012
-0.122005
-0.117231
-0.106149
-0.093748
-0.0777535
-0.059318
-0.0482302
-0.0375606
-0.0326981
-0.0303935
-0.0288886
-0.0251779
-0.0210961
-0.0188152
-0.0170049
-0.0154571
-0.0138689
-0.0123333
-0.0105702
-0.00829615
-0.0073259
-0.00862173
-0.011594
-0.0108875
-0.0141683
-0.0211212
-0.0214706
-0.021275
-0.0248475
-0.0255465
-0.0248929
-0.0260561
-0.0279505
-0.025845
-0.0248837
-0.0267455
-0.0250181
-0.0234698
-0.0237848
-0.0223139
-0.0213081
-0.0221613
-0.0206562
-0.0211544
-0.0292692
-0.0274578
-0.0304524
-0.0433287
-0.0341764
-0.0226113
-0.00471446
0.0295046
0.120178
0.350438
0.567064
0.685772
0.741133
0.756243
0.735335
0.687149
0.633338
0.595026
0.575478
0.54908
0.545454
0.505383
0.496937
-3.13802e-05
-8.05616e-06
-9.06657e-06
-4.4247e-06
-5.60749e-06
-4.15244e-06
-6.16489e-06
-3.07229e-06
-9.35864e-06
-5.68215e-06
-3.31043e-06
-2.87406e-06
-5.75142e-06
1.43688e-06
3.5356e-06
7.24595e-06
1.9145e-05
1.49711e-05
3.68414e-05
5.76007e-05
5.85632e-05
5.82668e-05
5.85895e-05
6.52629e-05
9.50412e-05
0.000139838
0.000167947
0.000195352
0.000230515
0.000269017
0.000311672
0.000359767
0.000440762
0.000533303
0.000663155
0.000788918
0.000938676
0.00117971
0.00131196
0.00152527
0.00129308
0.00202654
0.00123268
-0.00532737
-0.0858619
-0.139026
-0.178151
-0.203383
-0.207585
-0.189433
-0.180304
-0.167485
-0.154998
-0.146616
-0.130866
-0.115548
-0.0976899
-0.0783204
-0.0652035
-0.0515874
-0.0428847
-0.0397003
-0.0362851
-0.0325227
-0.027365
-0.024959
-0.0240257
-0.0197304
-0.0185458
-0.0176208
-0.0139697
-0.0127119
-0.0115621
-0.0111847
-0.0142098
-0.0167113
-0.0178875
-0.0235481
-0.0257348
-0.0253039
-0.0286945
-0.0297902
-0.0287811
-0.0304966
-0.0313642
-0.0306658
-0.0287615
-0.0301108
-0.0287625
-0.0289578
-0.029876
-0.0285584
-0.0273315
-0.0283934
-0.0258215
-0.0262216
-0.0338182
-0.0330558
-0.0358353
-0.0464658
-0.0353092
-0.0166788
0.0182465
0.123457
0.359023
0.598787
0.733054
0.797193
0.83084
0.826987
0.789649
0.731345
0.674217
0.63243
0.609552
0.585433
0.584275
0.552634
0.546481
-3.4049e-05
-9.28447e-06
-1.06839e-05
-5.54374e-06
-5.52923e-06
-4.44721e-06
-7.49385e-06
-4.99251e-06
-8.96377e-06
-7.04274e-06
-4.46143e-06
-1.96702e-06
-9.02868e-06
2.19813e-06
6.50773e-06
1.70415e-06
2.38655e-05
2.02789e-05
3.64917e-05
6.37344e-05
6.68162e-05
7.13407e-05
7.40224e-05
7.27247e-05
0.000102489
0.000152606
0.000191481
0.000225663
0.000258198
0.000311972
0.000345239
0.00039539
0.000487455
0.0006116
0.000741957
0.000948475
0.00115155
0.00135641
0.00165863
0.00190956
0.00257093
0.00284859
0.00330589
0.0102286
-0.057392
-0.160582
-0.231649
-0.276394
-0.28135
-0.252371
-0.23873
-0.211936
-0.191489
-0.175107
-0.151699
-0.131352
-0.108223
-0.0887724
-0.0728443
-0.0532537
-0.0458555
-0.0383887
-0.0349971
-0.0308645
-0.0277987
-0.0254983
-0.0213568
-0.0218818
-0.021712
-0.0171648
-0.0169491
-0.0156421
-0.014321
-0.013133
-0.0150607
-0.0190462
-0.0207079
-0.0255944
-0.028018
-0.0271716
-0.0308008
-0.0321025
-0.0318946
-0.0340586
-0.0351508
-0.0347678
-0.0319317
-0.0331215
-0.031047
-0.0318077
-0.0316752
-0.0308502
-0.0299647
-0.0312406
-0.0295861
-0.0292215
-0.0366325
-0.035928
-0.0370013
-0.0448865
-0.0306723
0.00372673
0.11147
0.365356
0.620315
0.778619
0.851491
0.878257
0.894449
0.877781
0.831814
0.76866
0.710717
0.667249
0.6421
0.619007
0.616113
0.590488
0.588665
-3.56249e-05
-1.05527e-05
-1.11762e-05
-6.10336e-06
-6.87354e-06
-5.01829e-06
-8.49876e-06
-5.75798e-06
-8.95018e-06
-1.03322e-05
-4.12087e-06
3.61057e-08
-1.02823e-05
6.66073e-07
1.13062e-05
-1.64079e-07
2.56435e-05
3.19746e-05
3.57571e-05
6.94069e-05
7.68755e-05
8.18816e-05
9.31271e-05
7.82701e-05
0.000103218
0.000154859
0.000212428
0.000247311
0.000285544
0.000330516
0.000386276
0.000443242
0.000521039
0.000624998
0.000775233
0.000989012
0.00128789
0.00170197
0.00234486
0.00324607
0.00506697
0.00573365
0.00981086
0.0362281
-0.0365683
-0.225927
-0.314894
-0.356306
-0.348659
-0.307782
-0.280084
-0.246121
-0.220024
-0.202636
-0.17481
-0.14949
-0.123724
-0.102387
-0.0808445
-0.062717
-0.0529476
-0.0461873
-0.0379483
-0.033363
-0.0336658
-0.0287814
-0.0251283
-0.0257712
-0.0235784
-0.0210384
-0.0211176
-0.0184502
-0.0180237
-0.0177822
-0.0178779
-0.0211368
-0.0248285
-0.0294917
-0.0319982
-0.0301299
-0.0338151
-0.0349155
-0.0341679
-0.0360505
-0.0367296
-0.0366807
-0.0330185
-0.033912
-0.0321811
-0.0358736
-0.0356063
-0.0336739
-0.0323344
-0.0326912
-0.031022
-0.0287706
-0.0358026
-0.0344483
-0.0341198
-0.0361915
-0.00286701
0.107435
0.346148
0.626464
0.798341
0.900207
0.945207
0.954496
0.956531
0.929212
0.874073
0.805011
0.745263
0.700327
0.673273
0.650291
0.64468
0.623638
0.62476
-3.79926e-05
-1.18094e-05
-1.19815e-05
-7.0847e-06
-8.77029e-06
-6.15733e-06
-8.97909e-06
-6.93656e-06
-9.36185e-06
-1.25978e-05
-5.32479e-06
5.51173e-07
-1.01119e-05
-1.17433e-06
1.35118e-05
4.34518e-06
2.22044e-05
3.97869e-05
3.70426e-05
6.64308e-05
8.78226e-05
8.90921e-05
0.000106415
0.000102047
0.000106888
0.000156384
0.000222652
0.00027838
0.000311648
0.000349014
0.000403358
0.000467554
0.000541291
0.000628365
0.000745906
0.000902162
0.00111288
0.00137419
0.00180349
0.00207418
0.00308625
0.00340759
0.00521609
0.022158
-0.0754714
-0.347116
-0.381166
-0.413485
-0.407562
-0.361118
-0.313537
-0.270266
-0.236656
-0.213293
-0.187364
-0.148174
-0.128302
-0.104585
-0.0733493
-0.0617629
-0.0542508
-0.0466711
-0.0375307
-0.0331445
-0.0319477
-0.0280814
-0.0269649
-0.0259044
-0.0238899
-0.0231577
-0.0232519
-0.0211566
-0.0207536
-0.0221048
-0.0221895
-0.024152
-0.0265717
-0.0296533
-0.0323768
-0.0312723
-0.034399
-0.0358207
-0.0355018
-0.0366965
-0.0377732
-0.0380413
-0.0343398
-0.0337261
-0.0322115
-0.0353584
-0.0350169
-0.0332226
-0.0313252
-0.0312346
-0.0282904
-0.0249314
-0.0297602
-0.0244061
-0.0158153
0.0142757
0.127396
0.357201
0.601632
0.789092
0.90024
0.970703
0.99772
1.00362
0.995858
0.963494
0.905473
0.835472
0.775283
0.729706
0.701531
0.678893
0.67136
0.652894
0.654989
-3.91235e-05
-1.28118e-05
-1.35078e-05
-8.05125e-06
-8.80195e-06
-6.48813e-06
-1.07049e-05
-8.92944e-06
-8.6981e-06
-1.32508e-05
-7.85333e-06
1.39942e-07
-8.79408e-06
-2.72978e-06
1.443e-05
1.04589e-05
1.68055e-05
4.79425e-05
4.93369e-05
6.04274e-05
9.59341e-05
0.000102204
0.000120459
0.00012849
0.000117261
0.00014861
0.000221685
0.000294114
0.000337105
0.000371808
0.000411697
0.000467393
0.000532866
0.000625056
0.000719568
0.000857317
0.00102919
0.00133067
0.001689
0.00196122
0.00288341
0.00250266
0.00592837
-0.003145
-0.308069
-0.48826
-0.424962
-0.43026
-0.430175
-0.383337
-0.334357
-0.290025
-0.25528
-0.220268
-0.191366
-0.147723
-0.128813
-0.103774
-0.0689119
-0.0574289
-0.0550594
-0.0454814
-0.0374319
-0.0340776
-0.032107
-0.0290114
-0.0282302
-0.0267967
-0.0244441
-0.0248274
-0.0245356
-0.023067
-0.0231401
-0.0245616
-0.0254184
-0.0263035
-0.0275558
-0.0299558
-0.0330144
-0.0321813
-0.0345921
-0.0362829
-0.0358006
-0.0364349
-0.0369699
-0.0370418
-0.0329806
-0.0312934
-0.0295593
-0.0321662
-0.0308219
-0.0290586
-0.0264351
-0.0248522
-0.0181826
-0.00646035
-0.00333411
0.0247731
0.0803136
0.202479
0.374459
0.592918
0.768867
0.90348
0.977903
1.03089
1.04687
1.04496
1.02928
0.989884
0.928178
0.858657
0.799704
0.755113
0.726647
0.704388
0.695354
0.679097
0.681416
-4.0745e-05
-1.41033e-05
-1.45102e-05
-8.81956e-06
-1.03176e-05
-8.92099e-06
-1.13973e-05
-9.84549e-06
-9.31294e-06
-1.34841e-05
-1.05841e-05
-3.09107e-07
-5.96177e-06
-3.90583e-06
1.19463e-05
1.78109e-05
1.65207e-05
4.42688e-05
5.84473e-05
5.48585e-05
9.29801e-05
0.000118317
0.000129433
0.000145482
0.000138832
0.000149543
0.000200989
0.000290236
0.000362301
0.000388047
0.000414607
0.000444579
0.000480374
0.000520879
0.000577758
0.000592531
0.000653697
0.000655957
0.000665863
0.00020737
0.000234912
-0.00245082
-0.00058425
-0.0809582
-0.638564
-0.665281
-0.52362
-0.476606
-0.437828
-0.372384
-0.328709
-0.297548
-0.259181
-0.220126
-0.186879
-0.147805
-0.124996
-0.10098
-0.0657243
-0.0544461
-0.0542611
-0.0426238
-0.0379391
-0.0337533
-0.0315938
-0.0288252
-0.0282711
-0.02693
-0.0255642
-0.0262876
-0.0261059
-0.0255004
-0.025542
-0.0266034
-0.0267996
-0.02685
-0.0270056
-0.0292267
-0.0323362
-0.0316979
-0.033308
-0.0353073
-0.0342838
-0.0346884
-0.0340631
-0.0337023
-0.0288513
-0.0253602
-0.0230591
-0.0242955
-0.0204205
-0.014685
-0.00615757
0.00689498
0.0283341
0.0699888
0.113952
0.200687
0.299345
0.429932
0.587637
0.736787
0.845378
0.94478
1.01146
1.05787
1.07277
1.06696
1.04853
1.00894
0.947935
0.878947
0.820856
0.777456
0.749105
0.727133
0.717303
0.7024
0.704261
-4.20164e-05
-1.53631e-05
-1.51417e-05
-1.0176e-05
-1.26588e-05
-1.00401e-05
-1.13532e-05
-1.2232e-05
-1.04891e-05
-1.19246e-05
-1.39797e-05
-1.14329e-06
-2.41049e-06
-3.56654e-06
7.28721e-06
2.45293e-05
2.19004e-05
4.0705e-05
6.98353e-05
6.40376e-05
8.31408e-05
0.000129591
0.000147884
0.000169113
0.00016892
0.000158038
0.00018564
0.000262396
0.000376552
0.000412647
0.000424535
0.000427278
0.00044541
0.000459718
0.000448243
0.000412335
0.000296065
0.000211215
1.95927e-05
-0.000622439
-0.0013693
-0.00305848
-0.00556872
-0.286019
-0.769563
-0.74443
-0.639934
-0.544085
-0.465994
-0.402126
-0.354408
-0.314197
-0.268157
-0.234478
-0.188051
-0.154835
-0.124717
-0.100081
-0.0661107
-0.0527903
-0.0553481
-0.0406367
-0.0405714
-0.034878
-0.0319917
-0.0295856
-0.0289821
-0.0277756
-0.0273105
-0.028502
-0.028157
-0.0283439
-0.0279535
-0.028395
-0.0277014
-0.0272282
-0.0262517
-0.027769
-0.030861
-0.029974
-0.030405
-0.0314184
-0.0290145
-0.0298447
-0.0269276
-0.0247388
-0.0143701
-0.00702656
0.00365466
0.00947109
0.0250759
0.0492597
0.0841044
0.129624
0.187822
0.265701
0.314438
0.390862
0.496681
0.595165
0.702872
0.813112
0.907937
0.989893
1.03863
1.07387
1.08125
1.07741
1.0586
1.01894
0.959939
0.893767
0.838276
0.796904
0.769192
0.74768
0.737118
0.723291
0.724523
-4.29923e-05
-1.62809e-05
-1.70824e-05
-1.14062e-05
-1.3145e-05
-1.08082e-05
-1.30232e-05
-1.40064e-05
-1.15449e-05
-1.05825e-05
-1.63417e-05
-3.88968e-06
1.45843e-06
-3.17938e-06
2.22077e-06
2.87436e-05
3.03646e-05
3.65806e-05
6.7584e-05
7.47156e-05
7.05683e-05
0.0001291
0.00016382
0.000180938
0.000193905
0.000177108
0.000180091
0.000228633
0.000326762
0.000421648
0.00043301
0.00042782
0.000398805
0.000379882
0.00034963
0.000360494
0.000263233
0.000252057
0.000155124
0.000646447
0.000414503
0.00365218
-0.001484
-0.464361
-0.806313
-0.792535
-0.751937
-0.682626
-0.585228
-0.475462
-0.404736
-0.343097
-0.285599
-0.250177
-0.196951
-0.167477
-0.126906
-0.106538
-0.0681143
-0.0535356
-0.0548518
-0.041165
-0.040317
-0.0359591
-0.0320917
-0.0320643
-0.0307919
-0.0291698
-0.0288926
-0.0303578
-0.0294113
-0.0306925
-0.0303286
-0.0291707
-0.027882
-0.0260932
-0.0229561
-0.0221623
-0.0239598
-0.0218389
-0.0209763
-0.0146515
-0.00959837
-0.0058608
0.00497311
0.0192883
0.041156
0.0671684
0.10088
0.131028
0.175007
0.23201
0.280598
0.323792
0.369903
0.437313
0.488144
0.54359
0.609576
0.684787
0.764577
0.849953
0.930136
1.00146
1.04855
1.07684
1.08398
1.08211
1.06434
1.02576
0.969014
0.905449
0.852948
0.813733
0.786964
0.766068
0.755083
0.741877
0.742241
-4.39859e-05
-1.73977e-05
-1.81942e-05
-1.28475e-05
-1.4807e-05
-1.39163e-05
-1.31123e-05
-1.49963e-05
-1.36502e-05
-9.6827e-06
-1.79079e-05
-7.52763e-06
3.7117e-06
-4.53605e-07
-5.63939e-07
2.72791e-05
3.76755e-05
3.86195e-05
6.2701e-05
8.86396e-05
7.91179e-05
0.000112821
0.000176955
0.000200818
0.000218062
0.00021052
0.000188159
0.000204656
0.000287582
0.00043165
0.000457318
0.000434463
0.000386307
0.000356437
0.0002933
0.000241247
0.000126604
4.07853e-05
-0.000324888
-0.000139674
-0.00174942
0.00192031
-0.0383316
-0.64078
-0.827577
-0.810772
-0.794083
-0.758549
-0.690608
-0.57641
-0.476789
-0.380051
-0.328391
-0.266652
-0.219528
-0.1852
-0.133662
-0.112818
-0.0668661
-0.0569371
-0.0581094
-0.0405078
-0.0421987
-0.0381358
-0.0350188
-0.0341034
-0.0325502
-0.0308247
-0.0295
-0.030519
-0.0287136
-0.0280307
-0.028242
-0.0243719
-0.0206937
-0.0149523
-0.00630486
-0.000762116
0.00315789
0.0120034
0.0237591
0.0422366
0.0648424
0.0883568
0.121907
0.159402
0.203568
0.253461
0.293708
0.320598
0.359113
0.409418
0.456384
0.483793
0.511364
0.548823
0.586381
0.627775
0.676445
0.731659
0.795905
0.86939
0.946041
1.01207
1.0532
1.07688
1.08136
1.07844
1.06115
1.02675
0.973715
0.914157
0.865055
0.828346
0.80281
0.782823
0.771467
0.758735
0.758222
-4.49586e-05
-1.84675e-05
-1.93359e-05
-1.46361e-05
-1.65143e-05
-1.6262e-05
-1.31751e-05
-1.50773e-05
-1.62098e-05
-9.68137e-06
-1.70163e-05
-1.2346e-05
5.30637e-06
3.81461e-06
1.80955e-06
1.97224e-05
4.60613e-05
4.57298e-05
5.22255e-05
8.98712e-05
9.59595e-05
9.64036e-05
0.000171975
0.00021503
0.000227022
0.000239962
0.00020857
0.00019573
0.000235255
0.000358375
0.000465956
0.000464866
0.000421268
0.000344498
0.000263122
0.000188609
-4.03387e-06
-0.00025202
-0.000786381
-0.00144695
-0.00244029
-0.00193767
-0.171099
-0.728539
-0.822558
-0.810732
-0.803022
-0.787097
-0.752767
-0.694932
-0.603543
-0.47308
-0.394377
-0.312171
-0.257533
-0.193633
-0.142543
-0.116676
-0.0671878
-0.0614422
-0.0616183
-0.0382922
-0.0403769
-0.0375678
-0.0331673
-0.0313119
-0.0281771
-0.0266183
-0.0222567
-0.0214067
-0.0171652
-0.0109294
-0.00706538
0.00470783
0.0191631
0.0358247
0.0600117
0.0802347
0.102834
0.130575
0.163133
0.200656
0.24133
0.271659
0.305916
0.337984
0.377738
0.424746
0.46001
0.479527
0.503681
0.531049
0.555664
0.570905
0.590523
0.61433
0.643888
0.675186
0.712861
0.758547
0.812758
0.877886
0.947488
1.00864
1.04907
1.07234
1.07928
1.07516
1.0578
1.02504
0.975229
0.920354
0.875007
0.841015
0.816773
0.79784
0.786275
0.773926
0.772236
-4.56962e-05
-1.9677e-05
-2.15267e-05
-1.66279e-05
-1.66058e-05
-1.73213e-05
-1.59518e-05
-1.55806e-05
-1.8279e-05
-1.08472e-05
-1.54681e-05
-1.64109e-05
4.78387e-06
8.63298e-06
3.24793e-06
1.23912e-05
4.55873e-05
5.54459e-05
5.35754e-05
8.48498e-05
0.000114366
0.000106981
0.000147627
0.000230479
0.000246617
0.000255668
0.000244426
0.000211136
0.000211164
0.000306324
0.000466151
0.000513434
0.000469107
0.000418863
0.000396009
0.000365423
0.000347037
0.000252701
0.000307957
-0.000177759
0.000678844
-0.000869442
-0.308203
-0.775983
-0.825065
-0.818277
-0.818363
-0.808103
-0.791337
-0.764341
-0.707519
-0.60502
-0.492522
-0.378333
-0.291934
-0.208318
-0.161984
-0.113811
-0.0674188
-0.0606442
-0.0588435
-0.0350464
-0.0345587
-0.0290328
-0.0208787
-0.0159849
-0.00926308
-0.00238424
0.00782524
0.0246222
0.0374019
0.0604546
0.0829945
0.11151
0.145043
0.179432
0.216023
0.244837
0.267704
0.294137
0.323961
0.359982
0.402623
0.433617
0.460118
0.483348
0.508862
0.530972
0.552412
0.564822
0.581504
0.59729
0.612281
0.624011
0.638204
0.654101
0.676629
0.70351
0.735247
0.774533
0.823009
0.882074
0.948851
1.00674
1.04463
1.06556
1.07179
1.06713
1.05057
1.02016
0.974694
0.92465
0.883077
0.851955
0.828983
0.811452
0.799843
0.787979
0.784917
-4.64137e-05
-2.06843e-05
-2.29996e-05
-1.91139e-05
-1.81682e-05
-1.93448e-05
-1.69607e-05
-1.63672e-05
-2.06452e-05
-1.31014e-05
-1.31759e-05
-1.89275e-05
7.69643e-07
1.25092e-05
5.91103e-06
8.08263e-06
4.38483e-05
6.02954e-05
5.75953e-05
7.26522e-05
0.000116101
0.000127352
0.000127602
0.000212749
0.000264618
0.000267592
0.000271719
0.000239659
0.000206464
0.000237937
0.000382843
0.000530583
0.000573707
0.000538939
0.000556075
0.000544079
0.00061549
0.000682385
0.00105924
0.00110054
0.0029706
0.00165139
-0.435186
-0.823425
-0.839321
-0.834588
-0.833788
-0.825167
-0.815048
-0.799658
-0.771867
-0.721555
-0.626202
-0.491867
-0.350836
-0.241554
-0.171816
-0.102095
-0.0555738
-0.045417
-0.0382399
-0.0198285
-0.00325607
0.0064694
0.0273401
0.0446757
0.0622886
0.0880783
0.118073
0.155326
0.188964
0.214428
0.235456
0.259692
0.287648
0.320686
0.358794
0.390329
0.412844
0.434317
0.455409
0.477445
0.499299
0.521177
0.541115
0.55703
0.575431
0.590519
0.604238
0.615212
0.627244
0.636182
0.645194
0.654527
0.66726
0.680865
0.699364
0.722476
0.750655
0.785639
0.829511
0.883228
0.945153
1.00033
1.03674
1.05782
1.06366
1.05877
1.04244
1.01374
0.972104
0.92731
0.889989
0.861704
0.840153
0.823962
0.811855
0.800804
0.795879
-4.716e-05
-2.17665e-05
-2.43707e-05
-2.12078e-05
-2.03447e-05
-2.13296e-05
-1.81685e-05
-1.65405e-05
-2.39664e-05
-1.61012e-05
-1.04786e-05
-1.66448e-05
-7.09374e-06
1.46679e-05
1.10015e-05
9.82574e-06
3.43992e-05
6.73105e-05
6.67517e-05
7.05122e-05
0.000108309
0.00014786
0.000135781
0.000177474
0.000282557
0.000302914
0.000293546
0.000283361
0.000237461
0.000225691
0.000320354
0.000515985
0.000646384
0.000646063
0.000652757
0.00067038
0.00079321
0.000786164
0.00134266
0.00080858
0.0039832
-0.0113314
-0.586247
-0.842147
-0.841995
-0.840195
-0.83657
-0.831099
-0.828874
-0.821247
-0.80806
-0.781778
-0.730879
-0.631619
-0.463924
-0.300607
-0.151375
-0.0707726
-0.0249463
0.0172981
0.0210397
0.0420595
0.0799836
0.115706
0.156623
0.193018
0.211519
0.228524
0.252908
0.283758
0.318479
0.348873
0.370076
0.390338
0.411344
0.432433
0.451723
0.470875
0.488029
0.50557
0.522152
0.538992
0.555215
0.570608
0.586851
0.599322
0.613034
0.623077
0.633241
0.642713
0.653754
0.660984
0.667802
0.676315
0.687392
0.699616
0.715947
0.736299
0.762012
0.793564
0.833744
0.883432
0.941176
0.993385
1.02812
1.04861
1.05415
1.04902
1.03298
1.0058
0.968325
0.928471
0.895269
0.870108
0.849992
0.834923
0.822603
0.812042
0.805786
-4.80065e-05
-2.2882e-05
-2.60985e-05
-2.34488e-05
-2.23016e-05
-2.18554e-05
-2.17722e-05
-1.78112e-05
-2.37786e-05
-2.0799e-05
-9.44943e-06
-1.25809e-05
-1.42526e-05
1.25294e-05
1.57376e-05
1.12297e-05
2.626e-05
6.41789e-05
7.44912e-05
7.1994e-05
9.32675e-05
0.000140512
0.000157666
0.000152794
0.000240132
0.000321077
0.000326075
0.000323812
0.000284814
0.000233833
0.000268097
0.000390463
0.00063061
0.00067915
0.000632998
0.000523738
0.000541404
0.00030302
0.000388907
-0.000893014
0.00115683
-0.0902744
-0.705986
-0.85377
-0.849746
-0.848717
-0.844548
-0.840695
-0.839811
-0.836377
-0.830711
-0.818155
-0.788672
-0.728205
-0.549532
-0.315425
-0.107367
0.00206404
0.0696058
0.13856
0.159795
0.172907
0.210925
0.240711
0.279227
0.313831
0.339531
0.360355
0.380653
0.401574
0.419545
0.436079
0.449336
0.463621
0.477581
0.494182
0.507915
0.521444
0.532911
0.545778
0.559387
0.572401
0.584412
0.596227
0.608739
0.620864
0.632921
0.642782
0.651767
0.660652
0.671079
0.678981
0.684261
0.692767
0.70347
0.714843
0.729631
0.747937
0.771068
0.799716
0.836256
0.882726
0.937398
0.98707
1.01955
1.03919
1.04439
1.03911
1.02366
0.998124
0.964275
0.929483
0.900624
0.878468
0.859709
0.845216
0.832035
0.82191
0.814034
-4.8927e-05
-2.39099e-05
-2.79995e-05
-2.61651e-05
-2.37785e-05
-2.33781e-05
-2.45733e-05
-1.99856e-05
-2.34203e-05
-2.46702e-05
-1.01537e-05
-9.28193e-06
-1.73858e-05
5.90397e-06
1.9354e-05
1.42433e-05
2.04895e-05
5.96916e-05
8.43325e-05
8.024e-05
8.60994e-05
0.000128749
0.000169428
0.000165296
0.000194194
0.00032908
0.00036674
0.000366602
0.000349865
0.00029698
0.000260976
0.000332558
0.000517967
0.000763025
0.000719554
0.000694182
0.000631892
0.000535315
0.000359705
4.07924e-05
-0.000299359
-0.242419
-0.771371
-0.850415
-0.850414
-0.851204
-0.849583
-0.848731
-0.847921
-0.845456
-0.841808
-0.832718
-0.802218
-0.741943
-0.526604
-0.203463
0.0216703
0.13154
0.203295
0.248859
0.2881
0.305322
0.33628
0.362626
0.388354
0.408518
0.423559
0.439084
0.452282
0.468333
0.481944
0.494423
0.502928
0.512106
0.520494
0.531454
0.540588
0.551672
0.559729
0.569553
0.579898
0.591172
0.602149
0.612116
0.622965
0.633844
0.645021
0.655005
0.664417
0.673854
0.68395
0.692319
0.69765
0.70582
0.71596
0.726678
0.740204
0.756783
0.777639
0.803899
0.837766
0.881479
0.932954
0.980162
1.01133
1.02841
1.03315
1.02779
1.01312
0.990334
0.961827
0.931414
0.905527
0.885658
0.867855
0.85388
0.840951
0.830136
0.820869
-5.00059e-05
-2.5073e-05
-2.97445e-05
-2.77856e-05
-2.79404e-05
-2.4184e-05
-2.78904e-05
-2.19101e-05
-2.20528e-05
-2.63399e-05
-1.54313e-05
-7.19486e-06
-1.45573e-05
-2.5484e-06
1.96464e-05
1.81329e-05
2.19604e-05
4.72329e-05
8.43817e-05
8.78805e-05
8.21114e-05
0.000116229
0.000165909
0.000185537
0.000155626
0.000240834
0.000368933
0.000406283
0.000403802
0.000376747
0.000292603
0.000280882
0.000369849
0.000668202
0.000803323
0.00099755
0.000917829
0.00126087
0.00118988
0.00303448
0.00164477
-0.390609
-0.832795
-0.858309
-0.856618
-0.85666
-0.854837
-0.853936
-0.852117
-0.84629
-0.838353
-0.822044
-0.752346
-0.630816
-0.319677
-0.00328329
0.176659
0.271363
0.323471
0.358378
0.380502
0.396814
0.415422
0.434926
0.453457
0.472133
0.487781
0.502639
0.513323
0.52452