/*--------------------------------*- C++ -*----------------------------------*\
| =========                 |                                                 |
| \\      /  F ield         | OpenFOAM: The Open Source CFD Toolbox           |
|  \\    /   O peration     | Version:  2.2.x                                 |
|   \\  /    A nd           | Web:      www.OpenFOAM.org                      |
|    \\/     M anipulation  |                                                 |
\*---------------------------------------------------------------------------*/
FoamFile
{
    version     2.0;
    format      ascii;
    class       volScalarField;
    location    "1.25";
    object      p;
}
// * * * * * * * * * * * * * * * * * * * * * * * * * * * * * * * * * * * * * //

dimensions      [1 -1 -2 0 0 0 0];

internalField   nonuniform List<scalar> 
14161
(
0.2
0.2
0.2
0.2
0.2
0.2
0.2
0.2
0.2
0.2
0.2
0.2
0.2
0.2
0.2
0.2
0.2
0.2
0.2
0.2
0.2
0.2
0.900385
1.6723
1.68416
1.69548
1.70625
1.71657
1.72646
1.73594
1.745
1.75361
1.76174
1.76941
1.7766
1.78335
1.78968
1.79563
1.80123
1.8065
1.81148
1.81618
1.82063
1.82485
1.82885
1.83225
1.83576
1.83924
1.8427
1.84616
1.84961
1.85305
1.8565
1.85994
1.86339
1.86683
1.87027
1.87371
1.87714
1.88058
1.88402
1.88746
1.8909
1.89435
1.89781
1.90129
1.90479
1.90832
1.91189
1.91551
1.91913
1.92276
1.92641
1.93007
1.93374
1.93743
1.94113
1.94484
1.94856
1.95229
1.95602
1.95977
1.96351
1.96725
1.971
1.97474
1.97847
1.98219
1.9859
1.98959
1.99325
1.99689
2.00049
2.00405
2.00756
2.01101
2.01441
2.01773
2.02097
2.02413
2.02718
2.03013
2.03296
2.03566
2.03823
2.04065
2.04294
2.04509
2.04714
2.04909
2.05097
2.05282
2.05465
2.05645
2.05815
2.05962
2.06063
2.06094
2.10972
0.2
0.2
0.2
0.2
0.2
0.2
0.2
0.2
0.2
0.2
0.2
0.2
0.2
0.2
0.2
0.2
0.2
0.2
0.2
0.2
0.2
0.2
0.938971
1.67209
1.68847
1.69864
1.7077
1.71658
1.72558
1.73469
1.74378
1.75269
1.7613
1.76951
1.7773
1.78465
1.79157
1.79808
1.8042
1.80997
1.8154
1.82051
1.82534
1.8299
1.83425
1.83806
1.84182
1.84552
1.84918
1.85282
1.85643
1.86001
1.86356
1.8671
1.87061
1.8741
1.87758
1.88104
1.88449
1.88793
1.89135
1.89477
1.89817
1.90155
1.90493
1.90828
1.91163
1.91497
1.91831
1.92166
1.92508
1.92856
1.93211
1.93572
1.93939
1.94312
1.94688
1.95069
1.95451
1.95836
1.9622
1.96604
1.96988
1.9737
1.9775
1.98128
1.98505
1.98879
1.99252
1.99623
1.99992
2.00361
2.00727
2.01093
2.01456
2.01817
2.02176
2.02531
2.02881
2.03226
2.03564
2.03894
2.04213
2.0452
2.04814
2.05093
2.05356
2.05605
2.05841
2.06067
2.06289
2.06514
2.06752
2.07011
2.07295
2.07605
2.07927
2.08237
2.12218
0.2
0.2
0.2
0.2
0.2
0.2
0.2
0.2
0.2
0.2
0.2
0.2
0.2
0.2
0.2
0.2
0.2
0.2
0.2
0.2
0.2
0.2
0.91476
1.67196
1.68778
1.69929
1.70993
1.72005
1.72972
1.73896
1.74778
1.75619
1.76422
1.77187
1.77915
1.78606
1.79261
1.79882
1.80469
1.81023
1.81545
1.82036
1.82498
1.8293
1.83332
1.83703
1.84059
1.84419
1.8478
1.85141
1.85501
1.85861
1.86221
1.86582
1.86942
1.87303
1.87664
1.88026
1.88388
1.8875
1.89112
1.89473
1.89833
1.90195
1.90558
1.90923
1.91289
1.91657
1.92025
1.92394
1.92764
1.93134
1.93505
1.93876
1.94248
1.9462
1.94993
1.95367
1.95742
1.96117
1.96492
1.96868
1.97245
1.97621
1.97998
1.98373
1.98749
1.99123
1.99496
1.99868
2.00237
2.00605
2.00971
2.01333
2.01693
2.02048
2.02399
2.02745
2.03085
2.03417
2.03741
2.04056
2.0436
2.04652
2.0493
2.05194
2.05442
2.05674
2.0589
2.06091
2.06277
2.06451
2.06615
2.0677
2.06915
2.07047
2.07155
2.07223
2.0911
0.2
0.2
0.2
0.2
0.2
0.2
0.2
0.2
0.2
0.2
0.2
0.2
0.2
0.2
0.2
0.2
0.2
0.2
0.2
0.2
0.2
0.2
0.883712
1.67453
1.68762
1.69982
1.71154
1.72263
1.73303
1.7427
1.75166
1.75999
1.76775
1.77502
1.78185
1.78829
1.79438
1.80015
1.80562
1.81079
1.81569
1.82033
1.82469
1.82879
1.83263
1.83615
1.83962
1.84312
1.84664
1.85016
1.85369
1.85724
1.86078
1.86434
1.86791
1.87148
1.87508
1.87869
1.88232
1.88599
1.88969
1.89345
1.89724
1.90107
1.90491
1.90876
1.91263
1.91652
1.92041
1.9243
1.9282
1.93209
1.93597
1.93984
1.9437
1.94755
1.95138
1.9552
1.95902
1.96282
1.96662
1.97041
1.9742
1.97799
1.98177
1.98555
1.98932
1.99309
1.99684
2.00058
2.0043
2.00799
2.01166
2.01529
2.01889
2.02243
2.02592
2.02935
2.0327
2.03597
2.03915
2.04223
2.04518
2.04801
2.05069
2.05321
2.05556
2.05773
2.05971
2.0615
2.06309
2.0645
2.06572
2.06676
2.06761
2.06821
2.06851
2.06841
2.08143
0.2
0.2
0.2
0.2
0.2
0.2
0.2
0.2
0.2
0.2
0.2
0.2
0.2
0.2
0.2
0.2
0.2
0.2
0.2
0.2
0.2
0.2
0.901706
1.67792
1.68929
1.70008
1.71057
1.72064
1.73029
1.73952
1.74834
1.75673
1.7647
1.77225
1.7794
1.78617
1.79256
1.79861
1.80433
1.80974
1.81485
1.81969
1.82427
1.82861
1.83273
1.83644
1.8401
1.84374
1.84737
1.851
1.85462
1.85823
1.86185
1.86545
1.86906
1.87265
1.87625
1.87983
1.88341
1.88698
1.89053
1.89408
1.89762
1.90117
1.90472
1.90829
1.91187
1.91547
1.91909
1.92275
1.92643
1.93014
1.93388
1.93765
1.94144
1.94526
1.9491
1.95296
1.95684
1.96074
1.96464
1.96856
1.97249
1.97641
1.98035
1.98427
1.9882
1.99211
1.99601
1.9999
2.00375
2.00759
2.01138
2.01514
2.01884
2.02249
2.02608
2.0296
2.03303
2.03636
2.0396
2.04271
2.04569
2.04852
2.0512
2.05369
2.056
2.0581
2.05999
2.06165
2.06309
2.0643
2.06529
2.06604
2.06656
2.0668
2.06672
2.06623
2.0776
0.2
0.2
0.2
0.2
0.2
0.2
0.2
0.2
0.2
0.2
0.2
0.2
0.2
0.2
0.2
0.2
0.2
0.2
0.2
0.2
0.2
0.2
0.895993
1.67839
1.68993
1.70069
1.71125
1.72138
1.73104
1.74022
1.74895
1.75724
1.76511
1.77257
1.77965
1.78637
1.79273
1.79876
1.80447
1.80987
1.81498
1.81981
1.82438
1.82871
1.8328
1.83646
1.84011
1.84375
1.84738
1.851
1.85461
1.85822
1.86182
1.86542
1.86901
1.87261
1.87619
1.87977
1.88335
1.88692
1.89049
1.89405
1.89762
1.90118
1.90474
1.90831
1.91188
1.91546
1.91905
1.92265
1.92626
1.9299
1.93355
1.93722
1.94092
1.94464
1.94838
1.95215
1.95594
1.95976
1.96361
1.96747
1.97136
1.97526
1.97918
1.98311
1.98704
1.99098
1.99491
1.99884
2.00274
2.00663
2.01048
2.0143
2.01808
2.02179
2.02545
2.02903
2.03253
2.03592
2.03921
2.04237
2.04539
2.04825
2.05094
2.05344
2.05573
2.0578
2.05964
2.06124
2.06258
2.06366
2.06449
2.06506
2.06537
2.06537
2.06504
2.0643
2.07522
0.2
0.2
0.2
0.2
0.2
0.2
0.2
0.2
0.2
0.2
0.2
0.2
0.2
0.2
0.2
0.2
0.2
0.2
0.2
0.2
0.2
0.2
0.888985
1.67872
1.69022
1.70102
1.71166
1.72188
1.73159
1.74079
1.74949
1.75774
1.76554
1.77295
1.77996
1.78662
1.79292
1.7989
1.80456
1.80992
1.81499
1.81979
1.82432
1.8286
1.83264
1.83625
1.83987
1.84349
1.84709
1.85069
1.85429
1.85788
1.86147
1.86505
1.86863
1.87222
1.8758
1.87939
1.88298
1.88656
1.89015
1.89374
1.89733
1.90092
1.90451
1.9081
1.9117
1.91529
1.91889
1.92249
1.9261
1.92972
1.93335
1.937
1.94066
1.94433
1.94802
1.95174
1.95547
1.95923
1.96301
1.96681
1.97064
1.97449
1.97835
1.98223
1.98613
1.99003
1.99394
1.99784
2.00174
2.00562
2.00948
2.01331
2.01709
2.02083
2.02451
2.02812
2.03164
2.03506
2.03837
2.04155
2.04459
2.04747
2.05016
2.05266
2.05494
2.05698
2.05878
2.06031
2.06158
2.06256
2.06327
2.06369
2.06381
2.06363
2.06308
2.06212
2.07291
0.2
0.2
0.2
0.2
0.2
0.2
0.2
0.2
0.2
0.2
0.2
0.2
0.2
0.2
0.2
0.2
0.2
0.2
0.2
0.2
0.2
0.2
0.888496
1.67855
1.69025
1.70093
1.71145
1.72157
1.73121
1.74037
1.74906
1.75729
1.76511
1.77252
1.77955
1.78622
1.79255
1.79854
1.80422
1.80959
1.81467
1.81947
1.82401
1.8283
1.83236
1.83598
1.83961
1.84322
1.84683
1.85043
1.85401
1.8576
1.86118
1.86475
1.86832
1.87189
1.87545
1.87901
1.88257
1.88613
1.88969
1.89325
1.89681
1.90037
1.90393
1.9075
1.91106
1.91463
1.91821
1.9218
1.92539
1.92899
1.93261
1.93624
1.93988
1.94354
1.94721
1.95091
1.95462
1.95836
1.96212
1.9659
1.9697
1.97352
1.97736
1.98122
1.98509
1.98897
1.99285
1.99674
2.00062
2.00448
2.00833
2.01215
2.01593
2.01967
2.02335
2.02695
2.03048
2.0339
2.03722
2.0404
2.04344
2.04631
2.04899
2.05147
2.05372
2.05573
2.05748
2.05895
2.06014
2.06102
2.0616
2.06188
2.06184
2.06146
2.06071
2.05952
2.07018
0.2
0.2
0.2
0.2
0.2
0.2
0.2
0.2
0.2
0.2
0.2
0.2
0.2
0.2
0.2
0.2
0.2
0.2
0.2
0.2
0.2
0.2
0.884644
1.67798
1.69022
1.70098
1.71149
1.72157
1.73117
1.74028
1.74892
1.75712
1.7649
1.77228
1.7793
1.78595
1.79227
1.79825
1.80392
1.80928
1.81435
1.81915
1.82368
1.82797
1.83201
1.83562
1.83925
1.84285
1.84645
1.85004
1.85361
1.85718
1.86074
1.8643
1.86785
1.87139
1.87493
1.87847
1.88201
1.88554
1.88907
1.8926
1.89613
1.89966
1.9032
1.90673
1.91026
1.9138
1.91735
1.9209
1.92446
1.92804
1.93162
1.93522
1.93884
1.94247
1.94612
1.94979
1.95349
1.9572
1.96094
1.9647
1.96848
1.97229
1.97611
1.97995
1.98381
1.98767
1.99154
1.99541
1.99928
2.00314
2.00697
2.01078
2.01455
2.01828
2.02195
2.02555
2.02906
2.03248
2.03578
2.03895
2.04197
2.04482
2.04748
2.04993
2.05214
2.0541
2.05579
2.05719
2.05828
2.05906
2.05951
2.05963
2.05941
2.05884
2.05786
2.05643
2.06686
0.2
0.2
0.2
0.2
0.2
0.2
0.2
0.2
0.2
0.2
0.2
0.2
0.2
0.2
0.2
0.2
0.2
0.2
0.2
0.2
0.2
0.2
0.879481
1.67731
1.69001
1.7009
1.71143
1.7215
1.73107
1.74014
1.74874
1.75689
1.76464
1.772
1.77899
1.78562
1.79192
1.79789
1.80354
1.80888
1.81394
1.81872
1.82324
1.8275
1.83153
1.83512
1.83873
1.84232
1.8459
1.84947
1.85303
1.85658
1.86012
1.86365
1.86718
1.87071
1.87423
1.87774
1.88126
1.88477
1.88827
1.89178
1.89528
1.89879
1.90229
1.90579
1.90929
1.9128
1.91631
1.91983
1.92336
1.9269
1.93045
1.93401
1.9376
1.9412
1.94482
1.94846
1.95212
1.95581
1.95952
1.96326
1.96702
1.97081
1.97461
1.97844
1.98228
1.98613
1.98999
1.99385
1.9977
2.00155
2.00537
2.00917
2.01293
2.01665
2.0203
2.02389
2.02739
2.03079
2.03407
2.03722
2.04021
2.04303
2.04565
2.04805
2.05021
2.05211
2.05373
2.05504
2.05603
2.05669
2.057
2.05695
2.05653
2.05573
2.05451
2.05281
2.0629
0.2
0.2
0.2
0.2
0.2
0.2
0.2
0.2
0.2
0.2
0.2
0.2
0.2
0.2
0.2
0.2
0.2
0.2
0.2
0.2
0.2
0.2
0.87366
1.67654
1.68965
1.70068
1.71124
1.72129
1.73081
1.73984
1.74839
1.75651
1.76422
1.77155
1.77852
1.78514
1.79142
1.79737
1.803
1.80833
1.81337
1.81813
1.82263
1.82687
1.83088
1.83446
1.83805
1.84162
1.84518
1.84873
1.85227
1.8558
1.85932
1.86283
1.86634
1.86984
1.87333
1.87682
1.88031
1.88379
1.88727
1.89074
1.89421
1.89768
1.90115
1.90462
1.90809
1.91156
1.91504
1.91852
1.92201
1.92551
1.92903
1.93256
1.9361
1.93967
1.94326
1.94687
1.9505
1.95416
1.95785
1.96156
1.9653
1.96907
1.97285
1.97666
1.98049
1.98433
1.98817
1.99202
1.99586
1.9997
2.00351
2.0073
2.01105
2.01475
2.01839
2.02196
2.02544
2.02882
2.03207
2.03519
2.03815
2.04092
2.0435
2.04584
2.04794
2.04977
2.0513
2.05251
2.05339
2.0539
2.05405
2.05382
2.05319
2.05215
2.05065
2.04865
2.05827
0.2
0.2
0.2
0.2
0.2
0.2
0.2
0.2
0.2
0.2
0.2
0.2
0.2
0.2
0.2
0.2
0.2
0.2
0.2
0.2
0.2
0.2
0.866467
1.67565
1.68916
1.70034
1.71095
1.72099
1.73048
1.73945
1.74795
1.75602
1.7637
1.771
1.77794
1.78453
1.79079
1.79672
1.80233
1.80764
1.81266
1.81739
1.82187
1.82609
1.83007
1.83363
1.8372
1.84076
1.8443
1.84782
1.85134
1.85484
1.85834
1.86182
1.8653
1.86877
1.87223
1.87569
1.87914
1.88259
1.88603
1.88947
1.8929
1.89634
1.89977
1.9032
1.90663
1.91006
1.9135
1.91694
1.92039
1.92385
1.92733
1.93082
1.93433
1.93786
1.94141
1.94499
1.94859
1.95222
1.95588
1.95957
1.96329
1.96704
1.97081
1.9746
1.97841
1.98224
1.98607
1.98991
1.99374
1.99757
2.00137
2.00515
2.00889
2.01257
2.0162
2.01975
2.02321
2.02656
2.02978
2.03286
2.03578
2.03851
2.04102
2.04331
2.04533
2.04707
2.0485
2.0496
2.05034
2.05071
2.05068
2.05024
2.04938
2.04807
2.04628
2.04395
2.05296
0.2
0.2
0.2
0.2
0.2
0.2
0.2
0.2
0.2
0.2
0.2
0.2
0.2
0.2
0.2
0.2
0.2
0.2
0.2
0.2
0.2
0.2
0.858055
1.67467
1.68854
1.69989
1.71054
1.72057
1.73001
1.73892
1.74737
1.75539
1.76303
1.7703
1.77721
1.78378
1.79002
1.79593
1.80151
1.8068
1.81179
1.8165
1.82094
1.82514
1.82909
1.83263
1.83618
1.83971
1.84323
1.84673
1.85022
1.85369
1.85715
1.8606
1.86405
1.86748
1.87091
1.87433
1.87774
1.88115
1.88455
1.88794
1.89134
1.89473
1.89811
1.9015
1.90488
1.90827
1.91166
1.91506
1.91847
1.92189
1.92532
1.92877
1.93224
1.93573
1.93925
1.9428
1.94637
1.94997
1.95361
1.95727
1.96097
1.9647
1.96845
1.97223
1.97603
1.97984
1.98367
1.9875
1.99132
1.99514
1.99893
2.0027
2.00643
2.0101
2.01371
2.01724
2.02067
2.02399
2.02718
2.03022
2.03309
2.03577
2.03822
2.04043
2.04237
2.04401
2.04533
2.04631
2.0469
2.0471
2.04687
2.04621
2.0451
2.0435
2.04138
2.03869
2.04698
0.2
0.2
0.2
0.2
0.2
0.2
0.2
0.2
0.2
0.2
0.2
0.2
0.2
0.2
0.2
0.2
0.2
0.2
0.2
0.2
0.2
0.2
0.847801
1.67359
1.68781
1.69933
1.71004
1.72005
1.72944
1.7383
1.74669
1.75467
1.76226
1.7695
1.77638
1.78293
1.78913
1.79501
1.80057
1.80582
1.81077
1.81545
1.81986
1.82402
1.82795
1.83146
1.83498
1.83848
1.84197
1.84544
1.84889
1.85233
1.85575
1.85917
1.86257
1.86596
1.86935
1.87272
1.87609
1.87945
1.8828
1.88615
1.88949
1.89283
1.89617
1.89951
1.90284
1.90618
1.90952
1.91287
1.91623
1.9196
1.92299
1.9264
1.92983
1.93328
1.93676
1.94027
1.94382
1.94739
1.951
1.95464
1.95832
1.96203
1.96577
1.96954
1.97332
1.97713
1.98095
1.98477
1.98859
1.9924
1.99618
1.99994
2.00365
2.00731
2.01091
2.01442
2.01782
2.02112
2.02427
2.02727
2.03008
2.03269
2.03508
2.03721
2.03905
2.04059
2.04179
2.04262
2.04305
2.04306
2.04263
2.04173
2.04033
2.03843
2.03596
2.03288
2.04033
0.2
0.2
0.2
0.2
0.2
0.2
0.2
0.2
0.2
0.2
0.2
0.2
0.2
0.2
0.2
0.2
0.2
0.2
0.2
0.2
0.2
0.2
0.83598
1.67244
1.68699
1.69864
1.70939
1.71938
1.72872
1.73752
1.74585
1.75378
1.76134
1.76854
1.7754
1.78191
1.78809
1.79393
1.79946
1.80467
1.80959
1.81423
1.8186
1.82272
1.82661
1.83008
1.83358
1.83705
1.8405
1.84393
1.84734
1.85074
1.85412
1.85749
1.86085
1.86419
1.86752
1.87085
1.87417
1.87747
1.88077
1.88407
1.88736
1.89064
1.89392
1.8972
1.90048
1.90377
1.90705
1.91035
1.91366
1.91698
1.92032
1.92369
1.92707
1.93048
1.93393
1.9374
1.94091
1.94446
1.94805
1.95167
1.95533
1.95902
1.96275
1.9665
1.97028
1.97408
1.97789
1.9817
1.98552
1.98932
1.9931
1.99685
2.00056
2.0042
2.00778
2.01127
2.01465
2.01791
2.02102
2.02397
2.02673
2.02928
2.03159
2.03363
2.03537
2.03679
2.03785
2.03853
2.03879
2.0386
2.03794
2.03678
2.03509
2.03285
2.03001
2.02652
2.03301
0.2
0.2
0.2
0.2
0.2
0.2
0.2
0.2
0.2
0.2
0.2
0.2
0.2
0.2
0.2
0.2
0.2
0.2
0.2
0.2
0.2
0.2
0.821975
1.67124
1.68609
1.69787
1.70865
1.71861
1.72789
1.73662
1.7449
1.75279
1.76031
1.76748
1.7743
1.78078
1.78692
1.79272
1.7982
1.80337
1.80824
1.81284
1.81716
1.82124
1.82508
1.82851
1.83196
1.83539
1.8388
1.84219
1.84555
1.8489
1.85224
1.85555
1.85886
1.86215
1.86543
1.86869
1.87195
1.8752
1.87844
1.88167
1.8849
1.88812
1.89134
1.89456
1.89778
1.90101
1.90424
1.90748
1.91074
1.91401
1.9173
1.92061
1.92395
1.92733
1.93073
1.93417
1.93765
1.94117
1.94473
1.94833
1.95197
1.95565
1.95936
1.96311
1.96688
1.97067
1.97448
1.97829
1.9821
1.9859
1.98968
1.99342
1.99712
2.00075
2.00431
2.00778
2.01113
2.01436
2.01743
2.02033
2.02303
2.02551
2.02774
2.02968
2.03132
2.03261
2.03353
2.03404
2.03411
2.03371
2.0328
2.03136
2.02936
2.02676
2.02352
2.01959
2.02503
0.2
0.2
0.2
0.2
0.2
0.2
0.2
0.2
0.2
0.2
0.2
0.2
0.2
0.2
0.2
0.2
0.2
0.2
0.2
0.2
0.2
0.2
0.805716
1.67002
1.68514
1.69702
1.7078
1.71771
1.72692
1.7356
1.74383
1.75168
1.75916
1.7663
1.77308
1.77952
1.78561
1.79137
1.79679
1.80191
1.80673
1.81126
1.81553
1.81955
1.82334
1.82672
1.83012
1.83351
1.83687
1.8402
1.84351
1.84681
1.85008
1.85334
1.85658
1.85981
1.86302
1.86622
1.86942
1.8726
1.87577
1.87894
1.8821
1.88525
1.88841
1.89156
1.89472
1.89788
1.90105
1.90424
1.90744
1.91065
1.9139
1.91716
1.92046
1.92379
1.92716
1.93057
1.93402
1.93751
1.94104
1.94462
1.94825
1.95191
1.95561
1.95935
1.96311
1.9669
1.97071
1.97452
1.97833
1.98212
1.9859
1.98964
1.99332
1.99695
2.00049
2.00394
2.00727
2.01046
2.01349
2.01633
2.01897
2.02137
2.02351
2.02536
2.02687
2.02803
2.02879
2.02913
2.029
2.02837
2.0272
2.02547
2.02313
2.02016
2.0165
2.0121
2.0164
0.2
0.2
0.2
0.2
0.2
0.2
0.2
0.2
0.2
0.2
0.2
0.2
0.2
0.2
0.2
0.2
0.2
0.2
0.2
0.2
0.2
0.2
0.786904
1.66885
1.6842
1.69613
1.70687
1.7167
1.72584
1.73446
1.74264
1.75045
1.7579
1.765
1.77174
1.77813
1.78417
1.78986
1.79523
1.80028
1.80503
1.8095
1.8137
1.81765
1.82137
1.82469
1.82804
1.83137
1.83467
1.83795
1.8412
1.84442
1.84763
1.85082
1.85399
1.85715
1.86029
1.86342
1.86654
1.86965
1.87274
1.87584
1.87893
1.88201
1.88509
1.88818
1.89127
1.89437
1.89748
1.9006
1.90375
1.90691
1.9101
1.91332
1.91658
1.91987
1.9232
1.92657
1.92999
1.93346
1.93697
1.94053
1.94414
1.94779
1.95148
1.95521
1.95897
1.96276
1.96656
1.97037
1.97418
1.97798
1.98175
1.98548
1.98916
1.99278
1.99631
1.99973
2.00303
2.00619
2.00917
2.01197
2.01454
2.01686
2.01891
2.02064
2.02204
2.02305
2.02365
2.02379
2.02345
2.02258
2.02113
2.01909
2.0164
2.01304
2.00894
2.00406
2.00712
0.2
0.2
0.2
0.2
0.2
0.2
0.2
0.2
0.2
0.2
0.2
0.2
0.2
0.2
0.2
0.2
0.2
0.2
0.2
0.2
0.2
0.2
0.764786
1.66785
1.68333
1.69526
1.70591
1.71565
1.72471
1.73327
1.74142
1.74919
1.7566
1.76365
1.77033
1.77665
1.78262
1.78823
1.79352
1.79848
1.80315
1.80753
1.81165
1.81553
1.81917
1.82241
1.8257
1.82896
1.83219
1.83539
1.83857
1.84173
1.84486
1.84797
1.85106
1.85414
1.8572
1.86025
1.86329
1.86632
1.86934
1.87235
1.87536
1.87837
1.88138
1.8844
1.88742
1.89046
1.8935
1.89657
1.89965
1.90276
1.90591
1.90908
1.91229
1.91554
1.91884
1.92218
1.92557
1.92901
1.9325
1.93605
1.93964
1.94328
1.94696
1.95069
1.95444
1.95823
1.96203
1.96584
1.96965
1.97345
1.97722
1.98095
1.98463
1.98823
1.99175
1.99515
1.99842
2.00154
2.00448
2.00722
2.00972
2.01196
2.01391
2.01553
2.01679
2.01765
2.01808
2.01803
2.01746
2.01633
2.0146
2.01223
2.00917
2.0054
2.00084
1.99544
1.99721
0.2
0.2
0.2
0.2
0.2
0.2
0.2
0.2
0.2
0.2
0.2
0.2
0.2
0.2
0.2
0.2
0.2
0.2
0.2
0.2
0.2
0.2
0.739133
1.66715
1.68262
1.69444
1.70495
1.71456
1.72355
1.73205
1.74016
1.74788
1.75524
1.76222
1.76883
1.77506
1.78093
1.78645
1.79163
1.79649
1.80106
1.80534
1.80936
1.81314
1.8167
1.81984
1.82306
1.82624
1.82939
1.83251
1.83561
1.83868
1.84173
1.84475
1.84776
1.85075
1.85373
1.85669
1.85964
1.86259
1.86552
1.86846
1.87139
1.87432
1.87726
1.8802
1.88315
1.88612
1.88911
1.89211
1.89514
1.8982
1.90129
1.90442
1.90759
1.91081
1.91407
1.91738
1.92074
1.92416
1.92763
1.93116
1.93474
1.93837
1.94205
1.94577
1.94952
1.95331
1.95711
1.96092
1.96474
1.96853
1.97231
1.97604
1.97971
1.9833
1.9868
1.99018
1.99343
1.99651
1.9994
2.00208
2.00451
2.00666
2.00851
2.01001
2.01113
2.01184
2.01208
2.01182
2.01101
2.00961
2.00758
2.00487
2.00143
1.99723
1.9922
1.98627
1.98666
0.2
0.2
0.2
0.2
0.2
0.2
0.2
0.2
0.2
0.2
0.2
0.2
0.2
0.2
0.2
0.2
0.2
0.2
0.2
0.2
0.2
0.2
0.708954
1.66701
1.6822
1.69379
1.70409
1.71356
1.72246
1.7309
1.73895
1.74661
1.75388
1.76077
1.76726
1.77337
1.77911
1.7845
1.78955
1.79428
1.79872
1.80288
1.80679
1.81046
1.81391
1.81695
1.82008
1.82317
1.82623
1.82926
1.83227
1.83525
1.8382
1.84114
1.84405
1.84695
1.84983
1.85271
1.85557
1.85843
1.86128
1.86413
1.86698
1.86984
1.8727
1.87557
1.87846
1.88136
1.88428
1.88723
1.89021
1.89322
1.89626
1.89935
1.90248
1.90566
1.90889
1.91217
1.91551
1.91891
1.92236
1.92587
1.92944
1.93306
1.93673
1.94045
1.9442
1.94798
1.95179
1.95561
1.95942
1.96322
1.967
1.97073
1.97439
1.97798
1.98146
1.98482
1.98804
1.99108
1.99392
1.99653
1.99889
2.00096
2.0027
2.00407
2.00505
2.00558
2.00564
2.00516
2.0041
2.00243
2.00008
1.99701
1.99318
1.98853
1.98301
1.97653
1.97549
0.2
0.2
0.2
0.2
0.2
0.2
0.2
0.2
0.2
0.2
0.2
0.2
0.2
0.2
0.2
0.2
0.2
0.2
0.2
0.2
0.2
0.2
0.673311
1.66772
1.68222
1.69343
1.70345
1.71274
1.72153
1.72989
1.73784
1.74539
1.75253
1.75926
1.76559
1.77154
1.77711
1.78233
1.78722
1.79179
1.79608
1.8001
1.80388
1.80742
1.81075
1.81368
1.81671
1.8197
1.82267
1.8256
1.82851
1.83139
1.83425
1.83708
1.8399
1.84271
1.8455
1.84828
1.85105
1.85382
1.85659
1.85936
1.86213
1.86491
1.8677
1.8705
1.87332
1.87616
1.87903
1.88192
1.88485
1.88781
1.89081
1.89386
1.89695
1.9001
1.9033
1.90655
1.90987
1.91324
1.91668
1.92018
1.92373
1.92734
1.93101
1.93472
1.93847
1.94226
1.94607
1.94989
1.9537
1.95751
1.96128
1.96501
1.96867
1.97225
1.97572
1.97906
1.98224
1.98524
1.98803
1.99058
1.99286
1.99483
1.99646
1.99771
1.99853
1.99889
1.99874
1.99804
1.99673
1.99476
1.99209
1.98865
1.98441
1.9793
1.97327
1.96623
1.96371
0.2
0.2
0.2
0.2
0.2
0.2
0.2
0.2
0.2
0.2
0.2
0.2
0.2
0.2
0.2
0.2
0.2
0.2
0.2
0.2
0.2
0.2
0.631252
1.66964
1.68288
1.69349
1.70313
1.7122
1.72082
1.72903
1.73681
1.74417
1.7511
1.75762
1.76373
1.76946
1.77483
1.77984
1.78454
1.78894
1.79306
1.79693
1.80056
1.80396
1.80717
1.80997
1.8129
1.81579
1.81865
1.82149
1.82429
1.82707
1.82983
1.83257
1.8353
1.83801
1.8407
1.84339
1.84608
1.84876
1.85144
1.85413
1.85683
1.85953
1.86225
1.86499
1.86774
1.87053
1.87334
1.87618
1.87906
1.88198
1.88494
1.88795
1.89101
1.89412
1.89729
1.90052
1.90381
1.90717
1.91059
1.91407
1.91761
1.92122
1.92488
1.92859
1.93234
1.93612
1.93993
1.94376
1.94758
1.95139
1.95517
1.95889
1.96255
1.96611
1.96957
1.97288
1.97603
1.97899
1.98173
1.98421
1.98641
1.98828
1.9898
1.99091
1.99158
1.99176
1.9914
1.99046
1.98888
1.98661
1.9836
1.97979
1.97512
1.96954
1.96299
1.95537
1.95133
0.2
0.2
0.2
0.2
0.2
0.2
0.2
0.2
0.2
0.2
0.2
0.2
0.2
0.2
0.2
0.2
0.2
0.2
0.2
0.2
0.2
0.2
0.581427
1.6731
1.68437
1.69413
1.70327
1.71201
1.72036
1.72829
1.73579
1.74286
1.74949
1.75572
1.76156
1.76703
1.77215
1.77694
1.78143
1.78564
1.78958
1.79328
1.79676
1.80002
1.8031
1.80577
1.8086
1.81139
1.81416
1.81689
1.8196
1.82228
1.82495
1.82759
1.83022
1.83284
1.83545
1.83805
1.84065
1.84325
1.84585
1.84846
1.85108
1.85372
1.85637
1.85904
1.86174
1.86447
1.86723
1.87002
1.87285
1.87573
1.87865
1.88163
1.88465
1.88774
1.89088
1.89408
1.89735
1.90069
1.90409
1.90756
1.91109
1.91469
1.91834
1.92204
1.9258
1.92958
1.93339
1.93722
1.94105
1.94486
1.94863
1.95236
1.95601
1.95957
1.963
1.96629
1.96941
1.97232
1.97501
1.97742
1.97953
1.9813
1.9827
1.98367
1.98417
1.98416
1.98359
1.9824
1.98055
1.97797
1.97461
1.97041
1.96531
1.95925
1.95216
1.94396
1.93836
0.2
0.2
0.2
0.2
0.2
0.2
0.2
0.2
0.2
0.2
0.2
0.2
0.2
0.2
0.2
0.2
0.2
0.2
0.2
0.2
0.2
0.2
0.523176
1.67812
1.68674
1.69535
1.7038
1.71203
1.71993
1.72743
1.73452
1.74119
1.74746
1.75335
1.75888
1.76407
1.76894
1.77351
1.77779
1.78181
1.78558
1.78911
1.79244
1.79557
1.79851
1.80107
1.8038
1.8065
1.80917
1.81181
1.81442
1.81701
1.81959
1.82214
1.82468
1.82721
1.82973
1.83225
1.83477
1.83729
1.83981
1.84235
1.8449
1.84747
1.85006
1.85267
1.85532
1.85799
1.8607
1.86345
1.86624
1.86907
1.87196
1.8749
1.87789
1.88095
1.88406
1.88724
1.89049
1.89381
1.89719
1.90065
1.90417
1.90775
1.9114
1.9151
1.91885
1.92263
1.92645
1.93027
1.9341
1.93791
1.94169
1.94541
1.94906
1.9526
1.95602
1.95928
1.96236
1.96523
1.96785
1.9702
1.97222
1.97389
1.97515
1.97598
1.97631
1.97611
1.97531
1.97388
1.97174
1.96884
1.96512
1.96052
1.95498
1.94843
1.9408
1.932
1.92481
0.2
0.2
0.2
0.2
0.2
0.2
0.2
0.2
0.2
0.2
0.2
0.2
0.2
0.2
0.2
0.2
0.2
0.2
0.2
0.2
0.2
0.2
0.456962
1.68393
1.68963
1.69678
1.70429
1.71179
1.71907
1.72601
1.7326
1.73884
1.74473
1.75029
1.75554
1.76047
1.76512
1.76948
1.77358
1.77742
1.78103
1.78442
1.7876
1.7906
1.79342
1.79587
1.79851
1.80112
1.8037
1.80625
1.80878
1.81128
1.81377
1.81624
1.81869
1.82114
1.82358
1.82602
1.82846
1.8309
1.83336
1.83582
1.83831
1.84081
1.84334
1.8459
1.84849
1.85111
1.85377
1.85648
1.85922
1.86202
1.86487
1.86778
1.87074
1.87376
1.87685
1.88001
1.88323
1.88653
1.8899
1.89333
1.89684
1.90041
1.90405
1.90775
1.91149
1.91528
1.91909
1.92292
1.92675
1.93056
1.93433
1.93805
1.94169
1.94522
1.94861
1.95185
1.95489
1.95771
1.96027
1.96254
1.96447
1.96603
1.96716
1.96784
1.96799
1.96759
1.96657
1.96487
1.96244
1.95921
1.95512
1.95011
1.94412
1.93707
1.92889
1.91949
1.9107
0.2
0.2
0.2
0.2
0.2
0.2
0.2
0.2
0.2
0.2
0.2
0.2
0.2
0.2
0.2
0.2
0.2
0.2
0.2
0.2
0.2
0.2
0.385734
1.6882
1.69185
1.69738
1.70381
1.71048
1.71709
1.7235
1.72966
1.73555
1.74116
1.74647
1.7515
1.75624
1.7607
1.76489
1.76883
1.77252
1.77598
1.77923
1.78228
1.78515
1.78786
1.79019
1.79276
1.79529
1.79778
1.80025
1.8027
1.80512
1.80752
1.80991
1.81228
1.81465
1.81701
1.81938
1.82174
1.82412
1.8265
1.8289
1.83132
1.83377
1.83624
1.83874
1.84128
1.84385
1.84646
1.84912
1.85183
1.85459
1.8574
1.86027
1.8632
1.8662
1.86926
1.87239
1.87559
1.87886
1.88221
1.88563
1.88912
1.89268
1.89631
1.9
1.90373
1.90752
1.91133
1.91515
1.91898
1.92279
1.92656
1.93027
1.9339
1.93741
1.94079
1.94399
1.94699
1.94976
1.95226
1.95444
1.95628
1.95772
1.95872
1.95924
1.95921
1.9586
1.95734
1.95538
1.95264
1.94908
1.94462
1.93919
1.93274
1.92518
1.91645
1.90644
1.89603
0.2
0.2
0.2
0.2
0.2
0.2
0.2
0.2
0.2
0.2
0.2
0.2
0.2
0.2
0.2
0.2
0.2
0.2
0.2
0.2
0.2
0.2
0.315617
1.68657
1.69115
1.69549
1.70113
1.70726
1.71351
1.71967
1.72565
1.73138
1.73685
1.74202
1.7469
1.75149
1.7558
1.75984
1.76363
1.76717
1.77049
1.7736
1.77653
1.77927
1.78186
1.78409
1.78658
1.78903
1.79145
1.79384
1.79621
1.79855
1.80088
1.80319
1.80549
1.80778
1.81007
1.81236
1.81466
1.81696
1.81928
1.82162
1.82398
1.82636
1.82877
1.83122
1.8337
1.83622
1.83879
1.84141
1.84407
1.84679
1.84956
1.8524
1.8553
1.85826
1.86129
1.86439
1.86757
1.87082
1.87414
1.87754
1.88102
1.88456
1.88818
1.89185
1.89558
1.89936
1.90316
1.90698
1.91081
1.91461
1.91838
1.92208
1.92569
1.92919
1.93254
1.93571
1.93867
1.94138
1.9438
1.94591
1.94764
1.94896
1.94983
1.95018
1.94997
1.94914
1.94764
1.9454
1.94236
1.93845
1.93361
1.92776
1.92084
1.91277
1.90347
1.89285
1.88082
0.2
0.2
0.2
0.2
0.2
0.2
0.2
0.2
0.2
0.2
0.2
0.2
0.2
0.2
0.2
0.2
0.2
0.2
0.2
0.2
0.2
0.2
0.25501
1.67322
1.68511
1.6898
1.69573
1.70213
1.70859
1.7149
1.72094
1.72668
1.73208
1.73715
1.74191
1.74636
1.75052
1.7544
1.75804
1.76143
1.76461
1.76759
1.77038
1.77301
1.77548
1.7776
1.78002
1.7824
1.78475
1.78706
1.78936
1.79163
1.79388
1.79612
1.79834
1.80057
1.80278
1.805
1.80723
1.80947
1.81172
1.81399
1.81629
1.81861
1.82097
1.82336
1.82579
1.82826
1.83078
1.83334
1.83596
1.83864
1.84137
1.84417
1.84703
1.84996
1.85296
1.85603
1.85918
1.8624
1.8657
1.86908
1.87253
1.87606
1.87966
1.88332
1.88704
1.89081
1.8946
1.89842
1.90223
1.90603
1.90979
1.91348
1.91707
1.92055
1.92387
1.927
1.92991
1.93256
1.93492
1.93693
1.93856
1.93976
1.94047
1.94066
1.94026
1.93921
1.93746
1.93494
1.93158
1.92732
1.92209
1.91582
1.90842
1.89984
1.88997
1.87874
1.86509
0.2
0.2
0.2
0.2
0.2
0.2
0.2
0.2
0.2
0.2
0.2
0.2
0.2
0.2
0.2
0.2
0.2
0.2
0.2
0.2
0.2
0.2
0.212091
1.6438
1.6746
1.68167
1.68903
1.69631
1.70329
1.70987
1.71601
1.72173
1.72705
1.732
1.7366
1.7409
1.7449
1.74863
1.7521
1.75535
1.75839
1.76123
1.7639
1.7664
1.76876
1.77077
1.77312
1.77544
1.77772
1.77997
1.78219
1.78439
1.78657
1.78874
1.7909
1.79305
1.7952
1.79735
1.7995
1.80167
1.80386
1.80607
1.8083
1.81056
1.81285
1.81518
1.81755
1.81997
1.82243
1.82495
1.82752
1.83015
1.83284
1.8356
1.83842
1.84131
1.84427
1.84731
1.85043
1.85362
1.8569
1.86025
1.86368
1.86719
1.87077
1.87441
1.87812
1.88187
1.88565
1.88946
1.89326
1.89705
1.90079
1.90447
1.90804
1.91149
1.91478
1.91787
1.92073
1.92332
1.92559
1.92751
1.92903
1.9301
1.93067
1.93068
1.93008
1.9288
1.9268
1.92399
1.92031
1.9157
1.91007
1.90336
1.89549
1.88638
1.87596
1.86411
1.84885
0.2
0.2
0.2
0.2
0.2
0.2
0.2
0.2
0.2
0.2
0.2
0.2
0.2
0.2
0.2
0.2
0.2
0.2
0.2
0.2
0.2
0.2
0.200884
1.5951
1.66459
1.67411
1.68277
1.69076
1.6981
1.70481
1.71096
1.7166
1.72179
1.72659
1.73103
1.73515
1.73899
1.74255
1.74588
1.74898
1.75187
1.75458
1.75712
1.75951
1.76176
1.76366
1.76595
1.7682
1.77042
1.7726
1.77476
1.77689
1.77901
1.78111
1.78319
1.78527
1.78735
1.78943
1.79151
1.79361
1.79573
1.79787
1.80003
1.80222
1.80445
1.80672
1.80902
1.81138
1.81379
1.81625
1.81876
1.82134
1.82398
1.82669
1.82947
1.83232
1.83525
1.83825
1.84133
1.8445
1.84774
1.85107
1.85447
1.85795
1.86151
1.86514
1.86882
1.87256
1.87633
1.88012
1.88391
1.88768
1.8914
1.89506
1.89861
1.90203
1.90528
1.90832
1.91113
1.91365
1.91584
1.91766
1.91907
1.92
1.92041
1.92024
1.91943
1.91793
1.91566
1.91256
1.90855
1.90358
1.89755
1.8904
1.88205
1.87242
1.86143
1.84898
1.83212
0.2
0.2
0.2
0.2
0.2
0.2
0.2
0.2
0.2
0.2
0.2
0.2
0.2
0.2
0.2
0.2
0.2
0.2
0.2
0.2
0.2
0.2
0.200069
1.5364
1.65695
1.6676
1.677
1.68544
1.69298
1.69973
1.7058
1.71131
1.71634
1.72096
1.72522
1.72917
1.73283
1.73623
1.73941
1.74236
1.74512
1.74771
1.75013
1.7524
1.75455
1.75634
1.75857
1.76076
1.76292
1.76504
1.76713
1.76919
1.77124
1.77326
1.77528
1.77728
1.77928
1.78129
1.7833
1.78532
1.78736
1.78942
1.79151
1.79363
1.79578
1.79798
1.80022
1.80251
1.80485
1.80724
1.8097
1.81222
1.81481
1.81747
1.8202
1.82301
1.82589
1.82885
1.8319
1.83503
1.83824
1.84153
1.84491
1.84837
1.8519
1.8555
1.85916
1.86288
1.86663
1.8704
1.87417
1.87792
1.88163
1.88526
1.88878
1.89216
1.89537
1.89837
1.90111
1.90355
1.90566
1.90738
1.90866
1.90945
1.9097
1.90935
1.90833
1.90658
1.90405
1.90065
1.89631
1.89097
1.88454
1.87694
1.86811
1.85796
1.8464
1.83335
1.8149
0.2
0.2
0.2
0.2
0.2
0.2
0.2
0.2
0.2
0.2
0.2
0.2
0.2
0.2
0.2
0.2
0.2
0.2
0.2
0.2
0.2
0.2
0.200005
1.47059
1.65021
1.66167
1.67163
1.68036
1.68797
1.69465
1.70058
1.70589
1.71072
1.71514
1.71921
1.72298
1.72648
1.72973
1.73275
1.73557
1.73821
1.74068
1.74299
1.74516
1.7472
1.74887
1.75105
1.75319
1.75528
1.75734
1.75936
1.76135
1.76332
1.76527
1.7672
1.76912
1.77104
1.77296
1.77489
1.77682
1.77878
1.78075
1.78276
1.78479
1.78686
1.78898
1.79114
1.79335
1.79562
1.79795
1.80034
1.8028
1.80533
1.80793
1.81061
1.81337
1.81621
1.81913
1.82213
1.82522
1.8284
1.83166
1.83501
1.83844
1.84194
1.84552
1.84915
1.85284
1.85657
1.86032
1.86407
1.86779
1.87147
1.87507
1.87856
1.8819
1.88507
1.888
1.89068
1.89305
1.89506
1.89667
1.89782
1.89847
1.89855
1.898
1.89676
1.89477
1.89196
1.88826
1.88359
1.87787
1.87103
1.86299
1.85368
1.843
1.83089
1.81723
1.79722
0.2
0.2
0.2
0.2
0.2
0.2
0.2
0.2
0.2
0.2
0.2
0.2
0.2
0.2
0.2
0.2
0.2
0.2
0.2
0.2
0.2
0.2
0.2
1.39711
1.64391
1.65629
1.66673
1.67559
1.68312
1.6896
1.69529
1.70036
1.70496
1.70918
1.71306
1.71666
1.72001
1.72312
1.72602
1.72872
1.73124
1.7336
1.73581
1.73788
1.73983
1.74138
1.74351
1.74558
1.7476
1.74958
1.75152
1.75343
1.75531
1.75716
1.759
1.76083
1.76265
1.76447
1.76629
1.76813
1.76999
1.77186
1.77377
1.77571
1.77769
1.77971
1.78178
1.78391
1.7861
1.78835
1.79067
1.79307
1.79553
1.79808
1.8007
1.80341
1.8062
1.80908
1.81204
1.8151
1.81824
1.82147
1.82478
1.82818
1.83165
1.8352
1.83881
1.84247
1.84617
1.84989
1.85361
1.8573
1.86095
1.86452
1.86797
1.87126
1.87437
1.87725
1.87985
1.88213
1.88405
1.88554
1.88656
1.88705
1.88696
1.88621
1.88475
1.88251
1.87942
1.8754
1.87038
1.86429
1.85704
1.84856
1.83876
1.82756
1.81489
1.80064
1.77909
0.2
0.2
0.2
0.2
0.2
0.2
0.2
0.2
0.2
0.2
0.2
0.2
0.2
0.2
0.2
0.2
0.2
0.2
0.2
0.2
0.2
0.2
0.2
1.31469
1.63803
1.65156
1.66237