/*--------------------------------*- C++ -*----------------------------------*\
| =========                 |                                                 |
| \\      /  F ield         | OpenFOAM: The Open Source CFD Toolbox           |
|  \\    /   O peration     | Version:  2.2.x                                 |
|   \\  /    A nd           | Web:      www.OpenFOAM.org                      |
|    \\/     M anipulation  |                                                 |
\*---------------------------------------------------------------------------*/
FoamFile
{
    version     2.0;
    format      ascii;
    class       surfaceScalarField;
    location    "1.25";
    object      phi;
}
// * * * * * * * * * * * * * * * * * * * * * * * * * * * * * * * * * * * * * //

dimensions      [1 0 -1 0 0 0 0];

internalField   nonuniform List<scalar> 
28084
(
0.000746224
0.000742988
0.000740213
0.000737877
0.000735962
0.000734443
0.000733299
0.000732503
0.000732031
0.000731856
0.00073195
0.000732288
0.00073284
0.000733581
0.000734484
0.000735523
0.000736673
0.00073791
0.00073921
0.000740553
0.000741918
0.000743286
0.000784613
0.000789851
0.000795516
0.000799548
0.000800153
0.000796187
0.000787668
0.000775337
0.000760411
0.000744254
0.000728076
0.000712762
0.000698833
0.000686502
0.000675763
0.000666489
0.000658492
0.000651571
0.000645531
0.000640198
0.000635421
0.00063107
0.000627032
0.000631589
0.000636541
0.000641804
0.000647315
0.000653015
0.000658851
0.000664775
0.000670744
0.000676716
0.000682654
0.000688523
0.00069429
0.000699922
0.000705387
0.000710648
0.000715669
0.000720406
0.000724808
0.000728819
0.000732371
0.000735383
0.00073776
0.000739387
0.000740115
0.000739787
0.000738325
0.000735681
0.000731834
0.000726791
0.000720589
0.00071329
0.000704983
0.000695775
0.000685789
0.000675154
0.000664003
0.000652466
0.000640662
0.000628704
0.000616692
0.00060471
0.000592835
0.000581127
0.000569636
0.000558403
0.000547459
0.000536828
0.000526529
0.000516579
0.000506997
0.000497803
0.000489026
0.000480701
0.00047287
0.000465583
0.000458894
0.000452852
0.000447499
0.000442852
0.000438894
0.000435553
0.000432682
0.000430034
0.000427229
0.000423716
0.000418729
0.000411244
0.000399927
0.000383106
0.000358767
0.00032463
0.000278336
0.000217756
3.7119e-06
3.23513e-06
0.00074974
2.77572e-06
0.000748785
2.33538e-06
0.000748259
1.91574e-06
0.000748147
1.51833e-06
0.000748429
1.14451e-06
0.000749083
7.95452e-07
0.000750087
4.72133e-07
0.000751415
1.7529e-07
0.000753039
-9.45799e-08
0.000754933
-3.37226e-07
0.000757068
-5.52641e-07
0.000759414
-7.41055e-07
0.000761942
-9.02918e-07
0.000764622
-1.03889e-06
0.000767426
-1.14981e-06
0.000770325
-1.23667e-06
0.000773292
-1.30061e-06
0.0007763
-1.34287e-06
0.000779324
-1.36477e-06
0.000782341
-1.36768e-06
0.000785328
-6.02583e-05
0.000788266
-3.16991e-06
0.000666363
-3.58937e-06
0.000639833
-1.92187e-06
0.000620392
9.60591e-07
0.000609559
4.6233e-06
0.000607348
8.16541e-06
0.000611963
1.11099e-05
0.000620568
1.31572e-05
0.000630606
1.42116e-05
0.000640236
1.43578e-05
0.000648369
1.37953e-05
0.000654497
1.27652e-05
0.000658498
1.14917e-05
0.000660469
1.0152e-05
0.000660615
8.86763e-06
0.000659187
7.70968e-06
0.000656441
6.71096e-06
0.000652619
5.87862e-06
0.000647938
5.20481e-06
0.000642583
4.67438e-06
0.000636709
4.26979e-06
0.000630435
3.97392e-06
0.000623851
-4.61513e-06
0.00061702
-5.00631e-06
0.000616902
-5.31495e-06
0.000616627
-5.55703e-06
0.000616174
-5.73963e-06
0.000615537
-5.86725e-06
0.000614716
-5.94351e-06
0.000613715
-5.97158e-06
0.000612547
-5.95412e-06
0.000611228
-5.89338e-06
0.00060978
-5.79113e-06
0.000608227
-5.64857e-06
0.000606596
-5.46633e-06
0.000604913
-5.24433e-06
0.000603199
-4.98172e-06
0.000601472
-4.67676e-06
0.000599742
-4.32643e-06
0.000598012
-3.92661e-06
0.000596276
-3.47276e-06
0.000594523
-2.9578e-06
0.000592737
-2.37233e-06
0.000590899
-1.70475e-06
0.000588992
-9.37727e-07
0.000586984
-5.1635e-08
0.000584842
9.655e-07
0.000582551
2.0393e-06
0.000580089
3.14431e-06
0.000577353
4.25723e-06
0.000574234
5.35475e-06
0.000570627
6.41387e-06
0.000566438
7.41276e-06
0.00056159
8.33185e-06
0.000556029
9.15485e-06
0.000549725
9.86956e-06
0.000542673
1.04684e-05
0.000534896
1.09486e-05
0.000526441
1.13119e-05
0.000517378
1.15639e-05
0.000507794
1.17133e-05
0.000497793
1.17713e-05
0.000487483
1.17501e-05
0.000476972
1.16623e-05
0.000466357
1.152e-05
0.000455721
1.1334e-05
0.000445123
1.11135e-05
0.000434599
1.08653e-05
0.00042416
1.05938e-05
0.000413797
1.03005e-05
0.000403484
9.98437e-06
0.00039319
9.64169e-06
0.000382883
9.26656e-06
0.000372534
8.8516e-06
0.000362125
8.389e-06
0.000351648
7.87181e-06
0.000341104
7.29564e-06
0.0003305
6.66044e-06
0.000319846
5.97261e-06
0.000309148
5.24712e-06
0.000298406
4.5098e-06
0.000287608
3.79989e-06
0.000276729
3.17291e-06
0.000265732
2.70431e-06
0.000254572
2.49395e-06
0.000243195
2.67171e-06
0.000231539
3.40396e-06
0.00021953
4.89996e-06
0.000207064
7.41656e-06
0.00019399
1.12573e-05
0.000180072
1.67604e-05
0.000164963
2.42652e-05
0.000148168
3.4044e-05
0.000129019
4.61792e-05
0.000106674
6.04494e-05
8.01782e-05
0.000217606
4.86033e-05
5.11203e-06
4.19073e-06
0.000754435
3.30115e-06
0.00075573
2.44751e-06
0.000757426
1.63381e-06
0.00075951
8.63806e-07
0.000761963
1.40861e-07
0.000764765
-5.32086e-07
0.000767892
-1.15259e-06
0.000771318
-1.71876e-06
0.000775016
-2.22922e-06
0.000778956
-2.6832e-06
0.000783108
-3.08049e-06
0.00078744
-3.42139e-06
0.000791922
-3.70676e-06
0.00079652
-3.93789e-06
0.000801204
-4.11651e-06
0.000805943
-4.24472e-06
0.000810708
-4.32493e-06
0.000815468
-4.35978e-06
0.000820197
-4.35211e-06
0.00082487
-4.30488e-06
0.000829463
3.902e-05
0.000833953
1.52378e-05
0.00078561
8.85362e-06
0.000772184
4.70607e-06
0.000760957
2.56002e-06
0.000751541
2.37832e-06
0.000743922
3.74997e-06
0.000738222
5.98842e-06
0.00073449
8.39568e-06
0.000732518
1.04571e-05
0.000731831
1.19148e-05
0.000731808
1.27347e-05
0.00073185
1.30206e-05
0.00073149
1.29297e-05
0.000730435
1.26137e-05
0.000728556
1.21911e-05
0.000725845
1.17417e-05
0.000722369
1.1313e-05
0.000718238
1.09304e-05
0.000713577
1.06059e-05
0.000708506
1.03456e-05
0.000703138
1.01541e-05
0.000697575
1.00367e-05
0.000691906
-5.37441e-06
0.000686217
-5.71529e-06
0.000687337
-5.94887e-06
0.000688391
-6.10054e-06
0.000689387
-6.17965e-06
0.000690309
-6.19102e-06
0.000691131
-6.13784e-06
0.000691826
-6.02264e-06
0.000692366
-5.84724e-06
0.000692722
-5.61298e-06
0.000692865
-5.32082e-06
0.000692768
-4.97139e-06
0.000692405
-4.56508e-06
0.00069175
-4.10211e-06
0.000690783
-3.58262e-06
0.000689482
-3.0067e-06
0.000687834
-2.37402e-06
0.000685827
-1.68492e-06
0.00068346
-9.42193e-07
0.000680739
-1.46371e-07
0.000677649
7.01923e-07
0.000674166
1.6212e-06
0.00067026
2.62352e-06
0.000665914
3.719e-06
0.000661116
4.91604e-06
0.000655849
6.21209e-06
0.000650098
7.59069e-06
0.000643841
9.03034e-06
0.00063705
1.05051e-05
0.000629691
1.19855e-05
0.000621727
1.34405e-05
0.000613125
1.4839e-05
0.000603858
1.6152e-05
0.00059391
1.73545e-05
0.00058328
1.84266e-05
0.000571984
1.93548e-05
0.000560055
2.01317e-05
0.000547547
2.07565e-05
0.00053453
2.12339e-05
0.000521088
2.15729e-05
0.000507316
2.17857e-05
0.000493314
2.18864e-05
0.000479179
2.18899e-05
0.000465003
2.18104e-05
0.000450858
2.16611e-05
0.000436801
2.14533e-05
0.000422863
2.11963e-05
0.000409054
2.08967e-05
0.000395365
2.0559e-05
0.000381775
2.01853e-05
0.000368255
1.97754e-05
0.000354783
1.9328e-05
0.000341345
1.88413e-05
0.000327943
1.83138e-05
0.000314591
1.77462e-05
0.000301312
1.71429e-05
0.000288129
1.65135e-05
0.000275055
1.58756e-05
0.000262086
1.52564e-05
0.000249194
1.46966e-05
0.00023633
1.42539e-05
0.000223426
1.40088e-05
0.000210411
1.40714e-05
0.000197212
1.45913e-05
0.000183764
1.57686e-05
0.00017001
1.78667e-05
0.000155892
2.12229e-05
0.000141353
2.6253e-05
0.00012633
3.34406e-05
0.000110742
4.3296e-05
9.44818e-05
5.62639e-05
7.73895e-05
7.25445e-05
5.92197e-05
9.18878e-05
3.96234e-05
0.000266058
1.81961e-05
4.23053e-06
2.89594e-06
0.000760308
1.6045e-06
0.000763821
3.63709e-07
0.000767708
-8.19269e-07
0.000771957
-1.93779e-06
0.000776551
-2.98585e-06
0.000781471
-3.95817e-06
0.000786692
-4.85036e-06
0.000792189
-5.6589e-06
0.000797933
-6.38124e-06
0.000803893
-7.01579e-06
0.000810036
-7.56192e-06
0.00081633
-8.01992e-06
0.000822741
-8.39094e-06
0.000829233
-8.67693e-06
0.000835774
-8.88057e-06
0.00084233
-9.00514e-06
0.000848869
-9.05446e-06
0.00085536
-9.03276e-06
0.000861774
-8.9446e-06
0.000868082
-8.79475e-06
0.00087426
6.44402e-05
0.000880283
2.52835e-05
0.000920366
1.70539e-05
0.000920162
1.16956e-05
0.000916819
8.62569e-06
0.000909913
7.62997e-06
0.000899854
8.22858e-06
0.000887686
9.75785e-06
0.000874766
1.15953e-05
0.000862313
1.32962e-05
0.000851102
1.4628e-05
0.000841401
1.55326e-05
0.000833107
1.60595e-05
0.000825928
1.63028e-05
0.000819534
1.63574e-05
0.00081365
1.62989e-05
0.000808078
1.61786e-05
0.000802693
1.60275e-05
0.000797426
1.58631e-05
0.000792243
1.56948e-05
0.000787132
1.55288e-05
0.000782095
1.53698e-05
0.000777142
1.5223e-05
0.000772289
-7.05866e-06
0.000767561
-7.39166e-06
0.000769356
-7.61904e-06
0.00077128
-7.73994e-06
0.000773303
-7.75543e-06
0.000775385
-7.66673e-06
0.000777482
-7.47488e-06
0.000779551
-7.18067e-06
0.000781545
-6.78484e-06
0.000783421
-6.28822e-06
0.000785133
-5.69192e-06
0.000786637
-4.99751e-06
0.000787888
-4.20732e-06
0.000788839
-3.32465e-06
0.000789444
-2.35417e-06
0.000789651
-1.30209e-06
0.000789406
-1.75681e-07
0.000788647
1.01035e-06
0.000787299
2.27517e-06
0.000785286
3.624e-06
0.000782559
5.05704e-06
0.000779087
6.5742e-06
0.000774844
8.17788e-06
0.000769813
9.87133e-06
0.000763988
1.16558e-05
0.000757373
1.35248e-05
0.000749979
1.54631e-05
0.000741823
1.74494e-05
0.000732921
1.9458e-05
0.000723287
2.14592e-05
0.000712932
2.34213e-05
0.000701864
2.53118e-05
0.000690086
2.70995e-05
0.000677602
2.87561e-05
0.000664418
3.02576e-05
0.000650546
3.15858e-05
0.000636011
3.27289e-05
0.000620846
3.36814e-05
0.000605101
3.4444e-05
0.00058884
3.50231e-05
0.000572142
3.54295e-05
0.000555093
3.56773e-05
0.000537788
3.57827e-05
0.000520323
3.57626e-05
0.000502789
3.56336e-05
0.000485266
3.54108e-05
0.000467819
3.51074e-05
0.000450496
3.47343e-05
0.000433323
3.42998e-05
0.00041631
3.38102e-05
0.000399452
3.32703e-05
0.000382739
3.26845e-05
0.000366162
3.20573e-05
0.000349719
3.13948e-05
0.000333418
3.07059e-05
0.000317279
3.00032e-05
0.000301324
2.93043e-05
0.000285568
2.86341e-05
0.000270013
2.80266e-05
0.000254635
2.75279e-05
0.000239388
2.72008e-05
0.000224207
2.71291e-05
0.00020902
2.74257e-05
0.000193756
2.82409e-05
0.000178359
2.97749e-05
0.00016278
3.22911e-05
0.000146988
3.61311e-05
0.000130958
4.17231e-05
0.000114682
4.95794e-05
9.81592e-05
6.02641e-05
8.13925e-05
7.43065e-05
6.43617e-05
9.20104e-05
4.69812e-05
0.00011318
2.90446e-05
0.000284114
1.02119e-05
1.10116e-06
-6.16603e-07
0.000767362
-2.2826e-06
0.000773056
-3.88528e-06
0.000779098
-5.41361e-06
0.000785478
-6.85736e-06
0.00079218
-8.20725e-06
0.000799185
-9.45512e-06
0.000806469
-1.05941e-05
0.000814006
-1.16187e-05
0.000821766
-1.25248e-05
0.000829715
-1.33097e-05
0.000837821
-1.39723e-05
0.000846048
-1.45125e-05
0.000854359
-1.49319e-05
0.000862719
-1.5233e-05
0.00087109
-1.54195e-05
0.000879437
-1.54961e-05
0.000887725
-1.54679e-05
0.000895922
-1.53411e-05
0.000903995
-1.51222e-05
0.000911915
-1.48178e-05
0.000919655
4.17921e-07
0.000927189
2.63894e-05
0.000891769
2.07145e-05
0.000885183
1.80936e-05
0.000877154
1.73441e-05
0.000869257
1.79448e-05
0.000862428
1.9303e-05
0.000857235
2.08436e-05
0.00085382
2.21555e-05
0.000851954
2.30369e-05
0.00085118
2.34586e-05
0.000850969
2.34987e-05
0.000850841
2.32756e-05
0.000850432
2.29038e-05
0.000849517
2.2471e-05
0.000847995
2.20335e-05
0.000845858
2.16202e-05
0.000843159
2.12413e-05
0.000839975
2.08955e-05
0.000836388
2.05761e-05
0.000832476
2.02746e-05
0.000828298
1.99825e-05
0.000823901
1.96925e-05
0.000819311
-9.12873e-06
0.000814541
-9.60303e-06
0.000815061
-9.9348e-06
0.000815581
-1.01148e-05
0.000816051
-1.01416e-05
0.00081643
-1.00158e-05
0.000816678
-9.73861e-06
0.000816758
-9.31127e-06
0.000816632
-8.73491e-06
0.000816264
-8.01058e-06
0.000815622
-7.1392e-06
0.000814677
-6.12149e-06
0.000813404
-4.95793e-06
0.000811782
-3.64877e-06
0.000809796
-2.19396e-06
0.000807439
-5.92837e-07
0.00080471
1.16015e-06
0.000801611
3.05504e-06
0.000798163
5.07761e-06
0.000794378
7.22069e-06
0.000790259
9.47687e-06
0.000785804
1.1838e-05
0.000781009
1.42964e-05
0.000775857
1.68445e-05
0.000770327
1.94729e-05
0.00076439
2.21672e-05
0.000758009
2.49073e-05
0.000751141
2.76682e-05
0.00074374
3.04212e-05
0.000735754
3.31353e-05
0.000727134
3.57776e-05
0.000717833
3.83149e-05
0.000707809
4.0715e-05
0.000697029
4.29483e-05
0.000685469
4.49888e-05
0.000673118
4.68154e-05
0.000659979
4.84127e-05
0.000646068
4.97713e-05
0.00063142
5.0888e-05
0.000616081
5.17655e-05
0.000600115
5.24121e-05
0.000583597
5.28406e-05
0.000566614
5.30678e-05
0.000549256
5.31125e-05
0.000531617
5.29951e-05
0.000513788
5.27358e-05
0.00049585
5.23535e-05
0.000477872
5.1865e-05
0.000459907
5.12844e-05
0.000441991
5.06234e-05
0.000424141
4.9892e-05
0.000406365
4.90994e-05
0.000388664
4.8256e-05
0.00037104
4.73746e-05
0.000353502
4.64719e-05
0.000336066
4.55699e-05
0.000318755
4.46961e-05
0.000301592
4.38854e-05
0.000284588
4.31806e-05
0.000267737
4.26352e-05
0.00025101
4.23165e-05
0.000234358
4.23105e-05
0.000217722
4.27281e-05
0.000201041
4.37136e-05
0.000184265
4.54571e-05
0.000167356
4.82083e-05
0.000150291
5.22935e-05
0.000133062
5.81288e-05
0.00011568
6.62254e-05
9.81717e-05
7.71706e-05
8.05762e-05
9.15593e-05
6.29228e-05
0.000109815
4.51869e-05
0.000131875
2.72199e-05
0.000294191
8.70353e-06
-4.23855e-06
-6.31051e-06
0.0007756
-8.32484e-06
0.000783435
-1.02651e-05
0.000791593
-1.21158e-05
0.000800066
-1.38623e-05
0.000808839
-1.54915e-05
0.000817893
-1.69919e-05
0.000827205
-1.83535e-05
0.000836747
-1.95684e-05
0.000846488
-2.06308e-05
0.000856394
-2.15365e-05
0.00086643
-2.22836e-05
0.000876558
-2.28719e-05
0.000886739
-2.33029e-05
0.000896934
-2.35801e-05
0.000907106
-2.3708e-05
0.000917214
-2.36927e-05
0.000927224
-2.35412e-05
0.000937098
-2.32614e-05
0.000946804
-2.2862e-05
0.00095631
-2.2352e-05
0.000965586
9.92745e-06
0.000974606
2.98536e-05
0.000949705
2.5443e-05
0.000944153
2.29595e-05
0.000936746
2.1916e-05
0.000928701
2.20031e-05
0.000921026
2.28008e-05
0.000914553
2.38621e-05
0.000909751
2.48416e-05
0.000906651
2.55516e-05
0.00090492
2.59458e-05
0.000904037
2.60697e-05
0.000903462
2.6005e-05
0.000902759
2.58327e-05
0.000901637
2.56143e-05
0.000899949
2.53879e-05
0.000897659
2.51725e-05
0.000894801
2.49744e-05
0.000891445
2.47932e-05
0.000887671
2.46258e-05
0.000883558
2.44692e-05
0.000879171
2.43218e-05
0.000874562
2.41838e-05
0.00086977
-9.96345e-06
0.000864821
-1.04705e-05
0.000864451
-1.07809e-05
0.000864054
-1.08957e-05
0.00086359
-1.08165e-05
0.000863021
-1.05454e-05
0.000862309
-1.00849e-05
0.000861417
-9.43765e-06
0.000860308
-8.60671e-06
0.000858947
-7.5953e-06
0.000857302
-6.40684e-06
0.000855343
-5.04496e-06
0.000853045
-3.51339e-06
0.000850387
-1.81604e-06
0.000847354
4.29536e-08
0.000843939
2.06033e-06
0.000840138
4.23015e-06
0.000835953
6.5494e-06
0.000831388
9.01303e-06
0.00082645
1.16158e-05
0.000821149
1.43522e-05
0.000815492
1.72161e-05
0.000809487
2.02009e-05
0.000803136
2.32986e-05
0.000796436
2.64987e-05
0.000789378
2.97861e-05
0.000781943
3.31394e-05
0.000774104
3.6532e-05
0.000765827
3.99325e-05
0.000757069
4.33061e-05
0.000747784
4.66154e-05
0.000737924
4.98223e-05
0.000727442
5.28891e-05
0.0007163
5.57802e-05
0.000704466
5.84636e-05
0.000691919
6.09118e-05
0.000678651
6.31024e-05
0.00066467
6.50193e-05
0.000649996
6.66528e-05
0.000634664
6.79993e-05
0.000618725
6.90618e-05
0.000602238
6.98489e-05
0.000585276
7.03746e-05
0.000567917
7.06568e-05
0.000550244
7.07167e-05
0.000532338
7.05773e-05
0.000514277
7.02614e-05
0.000496126
6.9791e-05
0.00047794
6.91857e-05
0.000459756
6.84628e-05
0.000441596
6.76378e-05
0.000423469
6.67252e-05
0.000405374
6.57408e-05
0.00038731
6.47035e-05
0.000369276
6.36374e-05
0.000351285
6.25732e-05
0.000333352
6.15484e-05
0.0003155
6.06085e-05
0.000297746
5.98066e-05
0.000280094
5.92049e-05
0.000262528
5.88765e-05
0.000245015
5.89092e-05
0.000227504
5.94116e-05
0.000209944
6.05211e-05
0.000192286
6.24156e-05
0.000174496
6.53281e-05
0.000156553
6.95649e-05
0.000138454
7.55231e-05
0.000120214
8.37025e-05
0.000101868
9.47011e-05
8.34678e-05
0.000109168
6.50629e-05
0.000127649
4.66617e-05
0.00015025
2.81574e-05
0.000302761
9.25767e-06
-1.17471e-05
-1.41455e-05
0.000785028
-1.64831e-05
0.00079496
-1.87378e-05
0.000805191
-2.08888e-05
0.000815714
-2.29165e-05
0.000826517
-2.48033e-05
0.000837581
-2.65337e-05
0.000848881
-2.80945e-05
0.000860389
-2.94749e-05
0.000872075
-3.06667e-05
0.000883901
-3.16643e-05
0.000895831
-3.24647e-05
0.000907824
-3.30674e-05
0.00091984
-3.34741e-05
0.000931838
-3.36888e-05
0.000943776
-3.37173e-05
0.000955614
-3.3567e-05
0.000967312
-3.3247e-05
0.000978833
-3.27672e-05
0.000990141
-3.21385e-05
0.0010012
-3.13724e-05
0.00101199
7.65314e-06
0.00102247
3.30234e-05
0.00100944
3.02042e-05
0.00100602
2.83733e-05
0.00100002
2.74544e-05
0.000992572
2.72732e-05
0.000984782
2.75637e-05
0.000977674
2.80443e-05
0.000971931
2.85039e-05
0.00096777
2.88342e-05
0.000964997
2.90147e-05
0.000963169
2.90762e-05
0.00096178
2.90658e-05
0.000960395
2.90248e-05
0.000958712
2.89797e-05
0.000956566
2.89427e-05
0.000953901
2.89159e-05
0.000950736
2.88965e-05
0.000947126
2.88802e-05
0.000943142
2.8864e-05
0.000938852
2.88467e-05
0.000934319
2.88296e-05
0.000929592
2.8816e-05
0.000924711
-9.95281e-06
0.000919707
-1.04694e-05
0.000918641
-1.07458e-05
0.000917548
-1.07854e-05
0.000916394
-1.05911e-05
0.000915139
-1.01659e-05
0.000913747
-9.51322e-06
0.000912177
-8.63695e-06
0.000910393
-7.54157e-06
0.000908359
-6.23217e-06
0.000906038
-4.71441e-06
0.000903401
-2.99458e-06
0.000900417
-1.07958e-06
0.00089706
1.02268e-06
0.000893308
3.30544e-06
0.000889143
5.7634e-06
0.000884552
8.39034e-06
0.000879528
1.11802e-05
0.000874071
1.41261e-05
0.000868185
1.72212e-05
0.000861879
2.04583e-05
0.000855162
2.38301e-05
0.000848044
2.73286e-05
0.000840532
3.09446e-05
0.00083263
3.4667e-05
0.000824338
3.84802e-05
0.000815647
4.23641e-05
0.000806541
4.6293e-05
0.000796997
5.02361e-05
0.000786983
5.41589e-05
0.000776464
5.80232e-05
0.0007654
6.17895e-05
0.000753756
6.54176e-05
0.000741495
6.88687e-05
0.000728593
7.21066e-05
0.000715033
7.5099e-05
0.00070081
7.78182e-05
0.000685932
8.02424e-05
0.000670422
8.23561e-05
0.000654315
8.41502e-05
0.000637658
8.56222e-05
0.000620511
8.67764e-05
0.000602941
8.7623e-05
0.000585023
8.81778e-05
0.000566835
8.84612e-05
0.000548452
8.84964e-05
0.000529947
8.83082e-05
0.000511383
8.79215e-05
0.000492809
8.73595e-05
0.000474258
8.66437e-05
0.000455748
8.57936e-05
0.000437281
8.48283e-05
0.000418851
8.3768e-05
0.000400447
8.26367e-05
0.00038206
8.14646e-05
0.00036369
8.02899e-05
0.000345347
7.91593e-05
0.000327046
7.81282e-05
0.000308805
7.72599e-05
0.000290632
7.66254e-05
0.00027252
7.63044e-05
0.000254442
7.63872e-05
0.000236355
7.69804e-05
0.000218208
7.82148e-05
0.000199954
8.02565e-05
0.000181554
8.33221e-05
0.000162987
8.76975e-05
0.000144246
9.3758e-05
0.000125346
0.000101988
0.00010632
0.000112986
8.72233e-05
0.000127442
6.81144e-05
0.000146018
4.90243e-05
0.000169004
2.9884e-05
0.000311884
1.04372e-05
-2.13788e-05
-2.40774e-05
0.000795653
-2.67144e-05
0.000807633
-2.92614e-05
0.00081989
-3.16915e-05
0.000832419
-3.39798e-05
0.000845207
-3.61035e-05
0.000858235
-3.80425e-05
0.000871481
-3.97797e-05
0.000884914
-4.13012e-05
0.000898502
-4.25963e-05
0.000912208
-4.36576e-05
0.000925991
-4.44808e-05
0.000939811
-4.5065e-05
0.000953624
-4.54121e-05
0.000967386
-4.55266e-05
0.000981054
-4.54156e-05
0.000994585
-4.50881e-05
0.00100794
-4.45551e-05
0.00102107
-4.38289e-05
0.00103395
-4.29229e-05
0.00104653
-4.18513e-05
0.00105879
-7.9324e-06
0.0010707
3.45626e-05
0.0010465
3.39218e-05
0.00104312
3.33433e-05
0.00103777
3.30237e-05
0.00103139
3.29174e-05
0.001025
3.29214e-05
0.00101952
3.29372e-05
0.00101549
3.29112e-05
0.00101301
3.28386e-05
0.00101178
3.27456e-05
0.0010113
3.26664e-05
0.00101104
3.26263e-05
0.00101058
3.26359e-05
0.00100964
3.26921e-05
0.00100807
3.27834e-05
0.00100585
3.28954e-05
0.00100302
3.30146e-05
0.000999654
3.31307e-05
0.000995846
3.32377e-05
0.000991674
3.33334e-05
0.00098721
3.34189e-05
0.000982508
3.34976e-05
0.000977613
-9.24919e-06
0.000972557
-9.77331e-06
0.000970689
-1.00166e-05
0.000968771
-9.98189e-06
0.000966767
-9.67264e-06
0.00096464
-9.09256e-06
0.000962354
-8.24594e-06
0.000959872
-7.13769e-06
0.000957159
-5.77342e-06
0.00095418
-4.15946e-06
0.000950905
-2.30286e-06
0.000947303
-2.11409e-07
0.000943351
2.10698e-06
0.000939024
4.6431e-06
0.000934308
7.38717e-06
0.00092919
1.03292e-05
0.000923663
1.34595e-05
0.000917723
1.67684e-05
0.000911372
2.02461e-05
0.000904616
2.38825e-05
0.000897461
2.76676e-05
0.000889916
3.15913e-05
0.000881985
3.56429e-05
0.000873674
3.98108e-05
0.00086498
4.40816e-05
0.000855896
4.84385e-05
0.00084641
5.28608e-05
0.000836499
5.73228e-05
0.000826138
6.17942e-05
0.000815293
6.62406e-05
0.000803927
7.0624e-05
0.000792003
7.49041e-05
0.000779486
7.90397e-05
0.000766344
8.29901e-05
0.000752557
8.67166e-05
0.000738112
9.01836e-05
0.000723009
9.336e-05
0.000707262
9.622e-05
0.000690897
9.8744e-05
0.000673955
0.000100919
0.000656486
0.000102739
0.000638555
0.000104204
0.000620232
0.000105324
0.000601595
0.000106112
0.000582723
0.000106588
0.000563694
0.000106775
0.000544582
0.000106701
0.000525449
0.000106392
0.000506344
0.000105874
0.000487298
0.000105172
0.000468327
0.000104309
0.000449429
0.000103307
0.000430592
0.00010219
0.000411797
0.000100986
0.000393028
9.9732e-05
0.000374276
9.84715e-05
0.000355544
9.72593e-05
0.000336843
9.61601e-05
0.000318188
9.52466e-05
0.000299588
9.45987e-05
0.00028104
9.43021e-05
0.000262521
9.44505e-05
0.00024399
9.5149e-05
0.000225398
9.65224e-05
0.000206691
9.87261e-05
0.00018783
0.000101961
0.000168785
0.000106494
0.000149547
0.000112676
0.000130124
0.000120973
0.000110547
0.000131977
9.08677e-05
0.000146408
7.11498e-05
0.000165023
5.1441e-05
0.000188302
3.17077e-05
0.000322186
1.17366e-05
-3.30838e-05
-3.60577e-05
0.000807485
-3.89715e-05
0.000821461
-4.17898e-05
0.000835692
-4.44792e-05
0.000850176
-4.70084e-05
0.000864899
-4.9349e-05
0.000879845
-5.14759e-05
0.000894989
-5.33677e-05
0.000910301
-5.50069e-05
0.000925746
-5.63799e-05
0.000941287
-5.74773e-05
0.000956881
-5.82936e-05
0.000972484
-5.88272e-05
0.000988052
-5.90801e-05
0.00100354
-5.90575e-05
0.00101889
-5.87677e-05
0.00103408
-5.82215e-05
0.00104905
-5.7432e-05
0.00106375
-5.6414e-05
0.00107816
-5.51836e-05
0.00109224
-5.37579e-05
0.00110594
-1.38877e-05
0.00111924
3.5522e-05
0.00109442
3.65984e-05
0.00109107
3.70119e-05
0.00108597
3.71396e-05
0.0010799
3.70576e-05
0.00107391
3.68158e-05
0.0010689
3.64768e-05
0.00106543
3.61165e-05
0.00106353
3.58082e-05
0.00106287
3.56063e-05
0.00106289
3.5537e-05
0.00106306
3.55994e-05
0.00106293
3.57724e-05
0.00106222
3.60249e-05
0.00106081
3.63244e-05
0.00105868
3.66425e-05
0.0010559
3.69575e-05
0.00105254
3.72557e-05
0.00104871
3.753e-05
0.00104448
3.7779e-05
0.00103994
3.80053e-05
0.00103514
3.82145e-05
0.00103013
-7.76383e-06
0.00102495
-8.27308e-06
0.00102224
-8.46049e-06
0.00101945
-8.33014e-06
0.00101657
-7.8863e-06
0.00101354
-7.13373e-06
0.00101034
-6.07779e-06
0.00100692
-4.72463e-06
0.00100327
-3.08127e-06
0.000999338
-1.15565e-06
0.000995104
1.04373e-06
0.000990539
3.5075e-06
0.000985621
6.22503e-06
0.000980332
9.18528e-06
0.000974657
1.23765e-05
0.000968587
1.57868e-05
0.000962117
1.94039e-05
0.000955248
2.32159e-05
0.000947984
2.72108e-05
0.00094033
3.13762e-05
0.000932295
3.57003e-05
0.000923887
4.01705e-05
0.000915113
4.4774e-05
0.000905974
4.94969e-05
0.000896466
5.43233e-05
0.00088658
5.92345e-05
0.000876299
6.4208e-05
0.000865597
6.9217e-05
0.000854443
7.423e-05
0.000842802
7.92114e-05
0.000830634
8.4122e-05
0.000817899
8.89201e-05
0.000804563
9.35625e-05
0.000790595
9.80063e-05
0.000775975
0.00010221
0.000760693
0.000106135
0.000744752
0.000109747
0.000728169
0.000113017
0.000710973
0.000115921
0.000693209
0.000118443
0.000674931
0.000120575
0.000656207
0.000122316
0.000637109
0.000123671
0.000617719
0.000124655
0.000598119
0.000125289
0.000578391
0.000125597
0.00055861
0.000125607
0.00053884
0.00012535
0.000519131
0.000124854
0.000499515
0.000124147
0.000480007
0.000123255
0.000460602
0.000122205
0.000441285
0.000121023
0.000422033
0.000119744
0.000402825
0.000118406
0.000383646
0.000117061
0.000364495
0.000115771
0.000345378
0.000114609
0.000326309
0.000113656
0.000307299
0.000113001
0.000288344
0.000112737
0.000269426
0.000112959
0.000250505
0.000113772
0.000231527
0.000115296
0.000212439
0.000117677
0.000193192
0.000121101
0.000173754
0.000125815
0.000154109
0.000132148
0.000134259
0.000140543
0.000114231
0.000151581
9.40708e-05
0.000165995
7.38451e-05
0.000184622
5.36145e-05
0.000208121
3.33778e-05
0.000333785
1.29681e-05
-4.68079e-05
-5.00336e-05
0.000820535
-5.3203e-05
0.000836449
-5.6273e-05
0.000852599
-5.92028e-05
0.000868983
-6.19543e-05
0.000885589
-6.44928e-05
0.0009024
-6.67879e-05
0.000919391
-6.88132e-05
0.000936531
-7.05474e-05
0.000953785
-7.19738e-05
0.000971112
-7.30807e-05
0.000988469
-7.38611e-05
0.00100581
-7.43128e-05
0.00102309
-7.44377e-05
0.00104025
-7.42418e-05
0.00105725
-7.37349e-05
0.00107405
-7.29294e-05
0.00109059
-7.18409e-05
0.00110683
-7.04866e-05
0.00112273
-6.88857e-05
0.00113825
-6.70584e-05
0.00115336
-2.07117e-05
0.00116801
3.63422e-05
0.00114361
3.89508e-05
0.00114047
4.03034e-05
0.00113569
4.08461e-05
0.00112997
4.077e-05
0.00112437
4.02852e-05
0.00111984
3.96169e-05
0.00111688
3.89655e-05
0.00111549
3.84748e-05
0.0011153
3.82195e-05
0.00111572
3.8213e-05
0.00111619
3.8425e-05
0.00111627
3.88024e-05
0.00111568
3.92866e-05
0.00111433
3.98247e-05
0.00111221
4.03752e-05
0.00110939
4.09096e-05
0.00110598
4.1411e-05
0.00110206
4.18719e-05
0.00109773
4.22921e-05
0.00109308
4.26763e-05
0.00108816
4.30324e-05
0.00108302
-5.46543e-06
0.0010777
-5.94044e-06
0.00107417
-6.0546e-06
0.00107054
-5.81285e-06
0.0010668
-5.22039e-06
0.00106291
-4.28294e-06
0.00105883
-3.00707e-06
0.00105453
-1.40036e-06
0.00104998
5.28722e-07
0.00104514
2.77108e-06
0.00103999
5.31628e-06
0.00103451
8.15296e-06
0.00102867
1.12688e-05
0.00102246
1.46509e-05
0.00101585
1.82854e-05
0.00100886
2.21585e-05
0.00100146
2.62558e-05
0.000993667
3.05634e-05
0.000985484
3.50671e-05
0.000976918
3.9753e-05
0.000967978
4.46071e-05
0.000958673
4.96154e-05
0.00094901
5.47631e-05
0.000938991
6.00344e-05
0.00092861
6.54114e-05
0.000917857
7.08738e-05
0.000906712
7.63971e-05
0.000895149
8.1953e-05
0.000883134
8.75083e-05
0.00087063
9.30259e-05
0.000857595
9.84647e-05
0.00084399
0.000103781
0.000829779
0.000108929
0.000814932
0.000113863
0.000799432
0.000118538
0.000783269
0.000122914
0.00076645
0.000126951
0.000748993
0.000130617
0.000730933
0.000133885
0.000712315
0.000136737
0.000693197
0.00013916
0.000673649
0.000141153
0.000653746
0.00014272
0.000633573
0.000143876
0.000613212
0.000144641
0.000592749
0.000145043
0.000572259
0.000145111
0.000551808
0.000144879
0.000531448
0.00014438
0.000511211
0.000143644
0.00049111
0.000142701
0.00047114
0.000141581
0.000451284
0.000140317
0.000431516
0.000138944
0.000411813
0.000137508
0.000392156
0.000136067
0.000372541
0.000134689
0.000352974
0.000133456
0.000333467
0.000132459
0.000314031
0.000131793
0.000294667
0.000131557
0.000275354
0.000131851
0.000256054
0.000132779
0.000236713
0.000134458
0.000217271
0.000137024
0.000197678
0.00014065
0.000177894
0.000145564
0.000157899
0.000152075
0.000137691
0.000160598
0.000117288
0.000171696
9.67348e-05
0.000186106
7.6096e-05
0.000204726
5.54436e-05
0.000228377
3.48048e-05
0.000346614
1.40604e-05
-6.24921e-05
-6.59478e-05
0.000834816
-6.93531e-05
0.000852607
-7.26565e-05
0.000870615
-7.58091e-05
0.00088884
-7.87653e-05
0.000907271
-8.14839e-05
0.000925891
-8.39282e-05
0.000944674
-8.60669e-05
0.000963588
-8.78744e-05
0.000982597
-8.93305e-05
0.00100166
-9.0421e-05
0.00102073
-9.11374e-05
0.00103975
-9.14766e-05
0.00105869
-9.14407e-05
0.00107748
-9.10365e-05
0.00109608
-9.02749e-05
0.00111444
-8.91707e-05
0.00113251
-8.77415e-05
0.00115024
-8.60076e-05
0.00116758
-8.39913e-05
0.00118451
-8.17161e-05
0.00120098
-2.94917e-05
0.00121695
3.68276e-05
0.00119143
4.08801e-05
0.00118832
4.31547e-05
0.0011837
4.41079e-05
0.00117832
4.40469e-05
0.00117325
4.33486e-05
0.00116939
4.23997e-05
0.0011672
4.15186e-05
0.0011666
4.09102e-05
0.0011671
4.06629e-05
0.00116811
4.07726e-05
0.00116901
4.11787e-05
0.0011694
4.17966e-05
0.00116902
4.25417e-05
0.00116777
4.33422e-05
0.0011657
4.41453e-05
0.00116288
4.49161e-05
0.00115942
4.56353e-05
0.00115545
4.62957e-05
0.00115104
4.68984e-05
0.0011463
4.74501e-05
0.00114127
4.79609e-05
0.00113602
-2.37172e-06
0.00113057
-2.79681e-06
0.00112622
-2.82395e-06
0.00112178
-2.45854e-06
0.0011172
-1.70648e-06
0.00111246
-5.74575e-07
0.00110752
9.29738e-07
0.00110234
2.79813e-06
0.00109691
5.02091e-06
0.00109118
7.58717e-06
0.00108513
1.04847e-05
0.00107875
1.37004e-05
0.001072
1.72199e-05
0.00106487
2.10284e-05
0.00105735
2.51099e-05
0.00104944
2.94486e-05
0.00104113
3.40282e-05
0.00103243
3.88324e-05
0.00102334
4.38455e-05
0.00101388
4.90514e-05
0.00100405
5.44347e-05
0.000993858
5.99795e-05
0.000983315
6.56693e-05
0.000972419
7.14866e-05
0.000961165
7.74119e-05
0.00094954
8.34229e-05
0.000937522
8.94936e-05
0.000925084
9.55938e-05
0.000912189
0.000101689
0.000898798
0.000107739
0.000884869
0.000113702
0.000870364
0.000119532
0.000855245
0.000125179
0.000839486
0.000130595
0.000823069
0.000135734
0.000805989
0.000140548
0.000788255
0.000144998
0.000769888
0.000149046
0.000750926
0.000152663
0.000731417
0.000155827
0.000711424
0.000158524
0.000691017
0.00016075
0.000670276
0.000162509
0.000649286
0.000163815
0.000628133
0.00016469
0.000606901
0.000165162
0.000585668
0.000165266
0.000564502
0.000165036