/*--------------------------------*- C++ -*----------------------------------*\
| =========                 |                                                 |
| \\      /  F ield         | OpenFOAM: The Open Source CFD Toolbox           |
|  \\    /   O peration     | Version:  2.2.x                                 |
|   \\  /    A nd           | Web:      www.OpenFOAM.org                      |
|    \\/     M anipulation  |                                                 |
\*---------------------------------------------------------------------------*/
FoamFile
{
    version     2.0;
    format      ascii;
    class       surfaceScalarField;
    location    "0.9";
    object      cfmax;
}
// * * * * * * * * * * * * * * * * * * * * * * * * * * * * * * * * * * * * * //

dimensions      [0 3 -1 0 0 0 0];

internalField   nonuniform List<scalar> 
28084
(
0.00103347
0.00102899
0.00102514
0.0010219
0.00101925
0.00101715
0.00101556
0.00101446
0.0010138
0.00101356
0.00101369
0.00101415
0.00101492
0.00101594
0.00101719
0.00101863
0.00102022
0.00102194
0.00102374
0.0010256
0.00102748
0.00102938
0.00103125
0.00103308
0.00103485
0.00103654
0.00079607
0.000761083
0.000761269
0.000761591
0.000761879
0.000762007
0.000761854
0.000761338
0.000760409
0.00075905
0.000757276
0.000755129
0.000752663
0.000749944
0.000747036
0.000743998
0.000740878
0.000737709
0.000734513
0.000741539
0.000748908
0.000756635
0.000764687
0.000773027
0.000781615
0.000790402
0.000799333
0.000808347
0.000817379
0.000826363
0.000835232
0.000843918
0.000852358
0.000860492
0.000868262
0.000875616
0.000882505
0.000888882
0.000894706
0.000899938
0.000904539
0.000908478
0.000911742
0.000914322
0.00091621
0.000917405
0.000917905
0.000917711
0.000916823
0.000915244
0.000912976
0.000910027
0.000906408
0.000902137
0.000897237
0.000891742
0.000885692
0.000879136
0.000872132
0.000864741
0.000857035
0.000849086
0.000840973
0.000832775
0.000824578
0.000816469
0.000808539
0.000800885
0.000793608
0.000786814
0.000780615
0.000775123
0.000770453
0.000766719
0.000764033
0.000762501
0.000762225
0.0007633
0.000765809
0.000769821
0.000775389
0.000782538
0.000791261
0.00080151
0.000813186
0.000826128
0.000840104
0.000854808
0.000869865
0.000884849
0.000899333
0.000913012
0.00144695
0.00144445
0.00103834
0.00143891
0.00103701
0.00143036
0.00103628
0.00141888
0.00103613
0.00140457
0.00103652
0.00138752
0.00103742
0.00136789
0.00103881
0.00134583
0.00104065
0.00132151
0.0010429
0.00129529
0.00104552
0.00126748
0.00104847
0.00123793
0.00105172
0.00120683
0.00105522
0.0011744
0.00105893
0.00114085
0.00106282
0.00110637
0.00106683
0.00107116
0.00107094
0.00103541
0.0010751
0.000999315
0.00107929
0.000963037
0.00108347
0.000926741
0.00108761
0.000890577
0.00109167
0.000854685
0.00109564
0.000819189
0.0010995
0.000784203
0.00110321
0.00126176
0.00110676
0.00125265
0.00084194
0.00120013
0.000802914
0.00114919
0.000800202
0.00109976
0.000797981
0.00105134
0.000796202
0.00100341
0.000794749
0.000955724
0.000793387
0.000908344
0.000791883
0.000861611
0.000790099
0.000815964
0.000788026
0.000771807
0.000785734
0.000729433
0.000783329
0.000689009
0.000780903
0.000650599
0.000778516
0.000614191
0.000776198
0.00057973
0.000773949
0.000547136
0.000771749
0.000516318
0.000769566
0.000514017
0.000767358
0.000514601
0.000774207
0.000515374
0.000781469
0.000516346
0.000789063
0.000517493
0.000796916
0.000518776
0.000804952
0.000520154
0.000813089
0.000521583
0.000821238
0.00052302
0.000829309
0.000524431
0.000837214
0.000525784
0.000844868
0.000527064
0.000852197
0.000528264
0.000859138
0.000529392
0.000865643
0.00053047
0.000871681
0.000531759
0.000877241
0.000533173
0.000882327
0.000534685
0.000886958
0.000536336
0.000891164
0.000538164
0.000894974
0.000540199
0.00089841
0.000542452
0.000901489
0.000544916
0.000904209
0.000547572
0.000906552
0.000550389
0.00090847
0.000553331
0.000909902
0.000556358
0.000910782
0.000559437
0.000911045
0.000562541
0.000910632
0.000565658
0.000909505
0.000568788
0.000907642
0.000571944
0.000905049
0.000575149
0.00090175
0.000578429
0.000897786
0.000581807
0.000893206
0.000585301
0.000888061
0.00058892
0.000882399
0.000592663
0.00087626
0.000596522
0.00086968
0.000600485
0.000862689
0.00060454
0.000855319
0.000608678
0.000847608
0.000612893
0.000839601
0.000617184
0.000831353
0.000621552
0.000822931
0.000626001
0.000814405
0.000630535
0.000805853
0.000635156
0.000797355
0.000639866
0.000788993
0.000644668
0.00078085
0.000649561
0.000773013
0.00065455
0.000765568
0.000659638
0.000758605
0.000664828
0.000752214
0.000670126
0.000746486
0.000675538
0.000741513
0.000681071
0.000737386
0.000686735
0.000734195
0.000692541
0.00073203
0.000698505
0.000730978
0.000704645
0.000731125
0.000710987
0.000732557
0.000717561
0.000735352
0.000724409
0.000739586
0.000731578
0.000745328
0.000739128
0.000752631
0.00074713
0.000761533
0.00075566
0.000772047
0.000764804
0.000784152
0.000774646
0.00079779
0.000785271
0.000812863
0.000796765
0.000829254
0.000809267
0.000846872
0.000864847
0.000865777
0.00144822
0.00144528
0.00104484
0.00143931
0.00104663
0.00143035
0.00104898
0.00141848
0.00105187
0.00140379
0.00105526
0.0013864
0.00105914
0.00136751
0.00106347
0.00134639
0.00106821
0.00132293
0.00107333
0.00129731
0.00107879
0.00126971
0.00108454
0.00124035
0.00109054
0.00120941
0.00109674
0.00117711
0.00110311
0.00114365
0.0011096
0.00110924
0.00111616
0.00107407
0.00112276
0.00103835
0.00112935
0.00100224
0.0011359
0.00096594
0.00114237
0.000929597
0.00114873
0.000893368
0.00115495
0.000857392
0.00116099
0.000821797
0.00116685
0.000786698
0.00117248
0.0012651
0.00117787
0.00125416
0.000902153
0.0012
0.000862861
0.00114848
0.000862838
0.00109911
0.000862893
0.00105076
0.000862929
0.0010029
0.000862892
0.000955273
0.00086269
0.000907954
0.000862227
0.00086128
0.00086143
0.000815692
0.000860269
0.000771592
0.000858763
0.000729274
0.000856965
0.000688906
0.000854949
0.000650551
0.00085279
0.000614198
0.000850555
0.000579792
0.000848294
0.000547252
0.00084604
0.000516487
0.000843815
0.000516531
0.000841633
0.000517188
0.000848028
0.000518021
0.000854762
0.000519039
0.000861769
0.000520218
0.000869008
0.000521519
0.000876423
0.000522901
0.000883951
0.00052432
0.000891525
0.000525734
0.000899077
0.000527107
0.000906538
0.000528412
0.000913839
0.000529629
0.000920913
0.000530756
0.000927697
0.000531799
0.00093413
0.000532782
0.000940158
0.000533737
0.000945735
0.000534707
0.000950823
0.000535737
0.000955392
0.00053687
0.000959414
0.000538147
0.000962873
0.000539598
0.000965762
0.000541746
0.000968081
0.000544193
0.000969833
0.000546895
0.000971016
0.000549845
0.000971628
0.000552921
0.000971658
0.000556085
0.000971084
0.000559301
0.000969878
0.000562542
0.00096801
0.000565794
0.000965444
0.000569184
0.000962153
0.000572728
0.000958116
0.000576314
0.00095333
0.000579946
0.000947806
0.000583635
0.000941573
0.000587395
0.000934677
0.000591244
0.000927172
0.000595194
0.000919123
0.000599251
0.000910591
0.000603417
0.000901639
0.000607685
0.000892324
0.000612042
0.000882699
0.000616477
0.000872818
0.00062098
0.000862736
0.000625542
0.000852514
0.000630164
0.000842222
0.000634845
0.000831936
0.000639592
0.000821739
0.00064441
0.000811716
0.000649305
0.000801956
0.00065428
0.000792548
0.00065934
0.000783578
0.000664489
0.000775133
0.000669733
0.000767299
0.000675077
0.000760162
0.000680531
0.000753806
0.000686106
0.000748317
0.000691815
0.000743779
0.000697675
0.000740271
0.000703707
0.000737874
0.000709934
0.000736666
0.000716388
0.000736721
0.000723111
0.000738113
0.000730151
0.000740914
0.000737574
0.000745195
0.000745456
0.000751026
0.000753888
0.000758474
0.000762968
0.000767598
0.000772788
0.000778446
0.00078342
0.000791038
0.000794894
0.000805355
0.000807226
0.000821338
0.000820524
0.000838946
0.000875475
0.000858322
0.00144723
0.00144388
0.00105298
0.0014375
0.00105784
0.00142816
0.00106322
0.00141756
0.00106911
0.00140475
0.00107547
0.00138914
0.00108228
0.00137083
0.00108951
0.00134999
0.00109712
0.00132678
0.00110507
0.00130137
0.00111333
0.00127395
0.00112183
0.00124473
0.00113055
0.00121392
0.00113943
0.0011817
0.00114842
0.0011483
0.00115748
0.00111392
0.00116655
0.00107875
0.00117561
0.001043
0.0011846
0.00100685
0.00119348
0.000970463
0.00120222
0.00093402
0.00121077
0.00089767
0.00121911
0.000861556
0.00122721
0.000825806
0.00123503
0.000790537
0.00124257
0.00126349
0.00124978
0.00125289
0.000964135
0.00119882
0.000924445
0.00114606
0.000927492
0.0010946
0.000930264
0.00104439
0.000932629
0.000995351
0.000934531
0.000947444
0.000935935
0.000900671
0.000936827
0.000855103
0.000937212
0.000810858
0.000937109
0.000768078
0.000936549
0.000726896
0.000935575
0.000687417
0.000934237
0.000649707
0.000932594
0.000613789
0.000930702
0.000579651
0.000928615
0.000547255
0.000926377
0.000516614
0.000924025
0.000516593
0.000921589
0.000516989
0.000926891
0.000517529
0.000932485
0.000518208
0.000938342
0.000519009
0.000944426
0.000519916
0.000950697
0.000520908
0.000957108
0.000521966
0.00096361
0.000523068
0.000970147
0.000524197
0.000976663
0.000525334
0.000983098
0.000526465
0.000989393
0.000527581
0.000995486
0.000528675
0.00100131
0.000529747
0.00100682
0.000530803
0.00101193
0.000531851
0.0010166
0.000532908
0.00102076
0.000534278
0.00102437
0.000536648
0.00102741
0.000539126
0.00102983
0.000541718
0.00103162
0.000544434
0.00103276
0.000547282
0.00103323
0.000550266
0.00103303
0.000553389
0.00103215
0.000556649
0.00103059
0.00056004
0.00102833
0.000563553
0.00102537
0.000567174
0.00102169
0.000570888
0.00101729
0.00057468
0.00101215
0.000578537
0.00100627
0.000582449
0.000999659
0.000586413
0.000992321
0.00059043
0.00098429
0.000594506
0.000975608
0.000598649
0.000966329
0.000602868
0.000956515
0.000607169
0.000946234
0.000611553
0.000935555
0.000616018
0.000924546
0.000620557
0.000913275
0.00062516
0.000901804
0.00062982
0.0008902
0.00063453
0.000878531
0.000639288
0.000866871
0.000644097
0.000855299
0.000648964
0.000843902
0.000653895
0.000832768
0.0006589
0.000821989
0.000663986
0.000811656
0.00066916
0.000801858
0.000674431
0.000792681
0.000679808
0.000784212
0.000685303
0.000776534
0.00069093
0.000769729
0.000696707
0.000763878
0.000702655
0.00075906
0.000708798
0.000755351
0.000715164
0.000752826
0.00072179
0.000751558
0.00072872
0.000751618
0.000736008
0.000753079
0.000743721
0.000756012
0.000751945
0.000760493
0.000760781
0.000766599
0.000770342
0.000774411
0.000780742
0.000784004
0.000792064
0.000795436
0.000804313
0.000808723
0.000817409
0.000823797
0.000831346
0.000840529
0.000883076
0.000858934
0.00144401
0.00144151
0.00106275
0.00143809
0.00107063
0.00143159
0.001079
0.00142207
0.00108783
0.00140959
0.00109711
0.00139428
0.00110681
0.00137625
0.0011169
0.00135566
0.00112734
0.00133266
0.00113808
0.00130744
0.00114909
0.00128018
0.00116032
0.00125108
0.00117171
0.00122034
0.00118322
0.00118818
0.00119479
0.0011548
0.00120639
0.0011204
0.00121795
0.00108519
0.00122942
0.00104936
0.00124078
0.0010131
0.00125196
0.000976592
0.00126292
0.000939996
0.00127364
0.000903473
0.00128408
0.000867165
0.00129419
0.000831204
0.00130397
0.000795709
0.00131337
0.00126353
0.00132238
0.00125635
0.00101453
0.00120262
0.000971829
0.00115009
0.000973775
0.00109885
0.000975742
0.00104881
0.000977664
0.000999892
0.000979474
0.000952013
0.000981059
0.000905184
0.000982297
0.000859493
0.0009831
0.000815087
0.000983435
0.00077213
0.000983321
0.000730773
0.000982819
0.000691127
0.000982005
0.000653255
0.00098095
0.000617179
0.000979714
0.000582885
0.000978333
0.00055033
0.000976821
0.000519457
0.000975175
0.000516409
0.000973374
0.000516793
0.000978256
0.000517297
0.000983476
0.000517885
0.000988982
0.000518547
0.000994714
0.000519275
0.00100061
0.00052006
0.00100662
0.000520895
0.00101266
0.00052177
0.00101868
0.000522675
0.0010246
0.000523603
0.00103037
0.000524544
0.00103591
0.000525546
0.00104116
0.000526899
0.00104605
0.000528933
0.00105055
0.000531021
0.00105459
0.000533162
0.00105816
0.000535365
0.00106121
0.000537645
0.00106373
0.000540021
0.0010657
0.000542513
0.00106712
0.000545142
0.001068
0.000547924
0.00106833
0.000550871
0.0010681
0.000553988
0.00106733
0.000557272
0.00106598
0.000560713
0.00106405
0.000564297
0.0010615
0.000568005
0.00105831
0.000571814
0.00105445
0.000575705
0.00104987
0.000579658
0.00104457
0.000583659
0.00103852
0.000587697
0.00103172
0.000591771
0.00102418
0.000595882
0.00101592
0.000600037
0.00100699
0.000604247
0.000997442
0.00060852
0.000987331
0.000612864
0.000976727
0.000617282
0.000965698
0.000621771
0.000954311
0.000626325
0.000942633
0.000630935
0.000930726
0.000635592
0.000918654
0.000640288
0.000906484
0.000645021
0.000894285
0.000649793
0.000882138
0.000654612
0.000870125
0.000659488
0.000858338
0.000664434
0.000846869
0.00066946
0.000835813
0.000674579
0.000825262
0.000679803
0.000815304
0.000685145
0.000806028
0.00069062
0.000797517
0.000696248
0.000789853
0.000702049
0.000783118
0.000708049
0.000777391
0.000714277
0.000772748
0.000720766
0.000769265
0.000727554
0.000767013
0.000734689
0.000766064
0.000742226
0.000766489
0.000750235
0.000768362
0.000758803
0.000771757
0.000768035
0.000776757
0.000778058
0.000783447
0.000789006
0.000791917
0.000800993
0.000802249
0.000814038
0.000814488
0.000827999
0.000828577
0.000842709
0.000844306
0.000890987
0.000861491
0.00144709
0.00144715
0.00107416
0.00144408
0.00108501
0.00143792
0.0010963
0.00142871
0.00110804
0.00141655
0.00112019
0.00140151
0.00113272
0.00138374
0.00114562
0.00136337
0.00115883
0.00134057
0.00117232
0.0013155
0.00118604
0.00128837
0.00119994
0.00125935
0.00121397
0.00122867
0.00122807
0.00119652
0.00124218
0.00116312
0.00125627
0.00112866
0.00127027
0.00109336
0.00128413
0.00105741
0.00129781
0.001021
0.00131125
0.000984311
0.00132441
0.000947511
0.00133726
0.00091076
0.00134975
0.000874204
0.00136185
0.000837977
0.00137354
0.000802199
0.00138478
0.00126356
0.00139556
0.00125704
0.0010748
0.00120293
0.00103053
0.00114998
0.00103406
0.00109832
0.00103737
0.00104798
0.00104038
0.000998918
0.00104307
0.000951092
0.00104536
0.000904482
0.00104721
0.000859117
0.00104853
0.000815076
0.0010493
0.000772469
0.00104954
0.000731412
0.0010493
0.000692006
0.00104865
0.000654319
0.00104768
0.00061838
0.00104646
0.000584189
0.00104505
0.000551715
0.0010435
0.000520911
0.00104183
0.000518213
0.00104005
0.000518686
0.00104428
0.000519244
0.0010488
0.0005199
0.00105357
0.000520649
0.00105855
0.000521477
0.00106368
0.000522371
0.00106891
0.000523314
0.00107416
0.000524288
0.00107938
0.000525276
0.0010845
0.00052626
0.00108945
0.000527224
0.00109417
0.000528153
0.00109859
0.000529036
0.00110264
0.000530134
0.00110627
0.000532344
0.00110942
0.000534622
0.00111206
0.000536975
0.00111415
0.000539418
0.00111566
0.000541965
0.00111659
0.000544637
0.00111693
0.000547451
0.00111669
0.000550426
0.00111586
0.000553573
0.00111447
0.000556899
0.0011125
0.000560403
0.00110997
0.000564075
0.00110686
0.0005679
0.00110315
0.000571858
0.00109883
0.000575923
0.00109386
0.00058007
0.00108822
0.000584275
0.00108189
0.00058852
0.00107484
0.000592792
0.00106707
0.000597085
0.00105859
0.000601399
0.00104943
0.000605741
0.00103963
0.00061012
0.00102924
0.000614544
0.00101832
0.000619021
0.00100693
0.000623551
0.000995155
0.000628133
0.000983046
0.000632759
0.000970669
0.000637418
0.000958083
0.000642102
0.000945346
0.000646802
0.000932519
0.000651518
0.00091967
0.000656253
0.000906873
0.000661017
0.000894208
0.000665824
0.000881764
0.00067069
0.000869632
0.000675632
0.000857906
0.000680665
0.000846677
0.000685808
0.000836031
0.000691078
0.000826055
0.000696495
0.000816831
0.000702085
0.000808439
0.000707873
0.00080096
0.000713891
0.000794469
0.000720173
0.000789044
0.000726758
0.000784757
0.000733687
0.000781679
0.000741011
0.00077988
0.000748789
0.000779428
0.000757092
0.000780394
0.000766007
0.000782852
0.000775643
0.000786881
0.000786133
0.000792568
0.00079763
0.000800007
0.00081028
0.000809294
0.000824146
0.000820502
0.000839073
0.000833603
0.000854733
0.000848354
0.000899967
0.000864371
0.00145458
0.00145496
0.00108721
0.00145222
0.00110097
0.00144638
0.00111514
0.00143747
0.00112971
0.00142559
0.00114467
0.00141082
0.00115999
0.00139328
0.00117564
0.00137311
0.00119158
0.00135047
0.00120776
0.00132554
0.00122414
0.0012985
0.00124066
0.00126954
0.00125727
0.00123887
0.00127391
0.0012067
0.00129053
0.00117324
0.00130706
0.00113868
0.00132345
0.00110325
0.00133965
0.00106713
0.00135561
0.00103052
0.00137127
0.000993604
0.00138659
0.000956548
0.00140152
0.000919517
0.00141604
0.000882659
0.00143009
0.00084611
0.00144365
0.000809995
0.0014567
0.00126275
0.00146921
0.00125808
0.00113283
0.00120421
0.00108634
0.00115147
0.00109078
0.0011
0.00109497
0.00104981
0.00109882
0.00100084
0.0011023
0.000953065
0.00110534
0.000906456
0.00110788
0.000861056
0.00110984
0.000816958
0.0011112
0.000774286
0.00111196
0.000733168
0.00111219
0.000693709
0.00111195
0.000655981
0.00111134
0.000620015
0.00111045
0.000585807
0.00110932
0.000553327
0.00110801
0.000522522
0.00110655
0.000519156
0.00110494
0.000519638
0.00110849
0.000520198
0.00111233
0.000520831
0.00111641
0.000521531
0.00112068
0.000522287
0.00112509
0.000523088
0.00112958
0.000523918
0.00113408
0.000524765
0.00113854
0.000525613
0.00114288
0.000526449
0.00114704
0.000527259
0.00115095
0.000528032
0.00115454
0.000529731
0.00115775
0.000531997
0.00116052
0.000534333
0.0011628
0.000536743
0.00116455
0.000539235
0.00116574
0.000541821
0.00116634
0.000544518
0.00116634
0.000547347
0.00116574
0.000550327
0.00116454
0.000553474
0.00116275
0.000556801
0.00116037
0.000560314
0.00115742
0.000564013
0.0011539
0.000567888
0.00114979
0.000571924
0.00114508
0.000576098
0.00113976
0.000580385
0.0011338
0.000584758
0.00112716
0.000589191
0.00111984
0.000593662
0.00111181
0.000598158
0.00110307
0.000602669
0.00109363
0.000607194
0.00108352
0.000611737
0.00107278
0.000616305
0.00106148
0.000620905
0.00104966
0.000625541
0.0010374
0.000630214
0.00102477
0.000634918
0.00101183
0.000639643
0.00099864
0.000644378
0.000985262
0.000649112
0.000971751
0.000653837
0.000958164
0.000658552
0.000944567
0.000663262
0.000931031
0.000667979
0.000917637
0.000672721
0.00090447
0.000677507
0.000891622
0.000682358
0.000879184
0.000687296
0.000867245
0.000692342
0.000855891
0.00069752
0.000845205
0.000702856
0.000835269
0.000708382
0.000826159
0.00071413
0.000817953
0.000720139
0.000810727
0.000726449
0.000804554
0.000733105
0.000799505
0.000740154
0.000795648
0.000747652
0.000793049
0.00075566
0.000791776
0.000764251
0.000791895
0.000773516
0.000793475
0.000783565
0.000796593
0.000794534
0.000801332
0.000806591
0.000807786
0.000819914
0.000816059
0.000834616
0.000826246
0.000850571
0.000838358
0.000867328
0.000852159
0.000910075
0.000867109
0.00146423
0.00146492
0.00110193
0.00146248
0.00111852
0.00145693
0.0011355
0.00144831
0.00115285
0.00143669
0.00117056
0.00142216
0.0011886
0.00140483
0.00120695
0.00138484
0.00122555
0.00136235
0.00124437
0.00133752
0.00126335
0.00131055
0.00128244
0.00128162
0.00130158
0.00125093
0.00132071
0.0012187
0.00133977
0.00118514
0.00135869
0.00115045
0.00137743
0.00111484
0.00139592
0.0010785
0.00141411
0.00104165
0.00143195
0.00100445
0.00144938
0.000967089
0.00146636
0.000929725
0.00148284
0.000892512
0.00149881
0.000855587
0.00151421
0.000819079
0.00152902
0.00126191
0.00154322
0.00125917
0.00119115
0.0012056
0.0011421
0.00115314
0.00114731
0.00110193
0.00115225
0.00105194
0.00115683
0.00100311
0.00116102
0.000955382
0.00116475
0.000908753
0.00116792
0.000863278
0.00117046
0.000819074
0.00117234
0.000776288
0.00117358
0.000735064
0.00117422
0.000695518
0.00117436
0.000657726
0.0011741
0.00062172
0.00117351
0.000587492
0.00117267
0.000555008
0.00117161
0.000524213
0.00117038
0.000519903
0.00116896
0.00052041
0.00117189
0.000520975
0.00117509
0.000521594
0.00117852
0.000522259
0.00118212
0.000522961
0.00118585
0.00052369
0.00118964
0.000524434
0.00119343
0.00052518
0.00119715
0.000525914
0.00120073
0.000526625
0.00120411
0.000527513
0.00120722
0.000529725
0.00120999
0.000532021
0.00121236
0.000534394
0.00121426
0.000536841
0.00121566
0.000539367
0.00121651
0.000541981
0.00121678
0.000544697
0.00121645
0.000547535
0.00121552
0.000550515
0.00121397
0.000553656
0.00121182
0.000556976
0.00120908
0.000560488
0.00120576
0.000564195
0.00120186
0.000568096
0.00119739
0.000572181
0.00119234
0.000576432
0.00118669
0.000580826
0.00118042
0.000585334
0.00117351
0.000589929
0.00116593
0.000594583
0.00115765
0.000599275
0.00114868
0.000603986
0.00113899
0.000608709
0.00112861
0.000613439
0.00111757
0.000618179
0.00110591
0.000622934
0.00109369
0.000627709
0.00108097
0.000632507
0.00106783
0.000637324
0.00105433
0.000642154
0.00104054
0.000646984
0.00102652
0.0006518
0.00101232
0.00065659
0.000997997
0.000661345
0.000983615
0.000666063
0.000969233
0.000670753
0.000954923
0.000675426
0.000940764
0.000680104
0.000926842
0.000684809
0.000913246
0.000689565
0.000900066
0.000694399
0.000887392
0.000699336
0.000875306
0.000704408
0.000863891
0.000709646
0.000853225
0.000715088
0.000843384
0.000720775
0.000834443
0.000726752
0.000826476
0.000733068
0.000819554
0.000739773
0.000813745
0.000746923
0.000809116
0.000754577
0.000805729
0.000762802
0.000803648
0.000771676
0.000802936
0.00078129
0.000803658
0.000791757
0.000805886
0.000803217
0.000809699
0.000815848
0.000815189
0.000829851
0.000822463
0.000845395
0.000831633
0.000862408
0.000842749
0.000880363
0.000855612
0.000921169
0.000869578
0.00147602
0.00147699
0.00111832
0.00147483
0.00113767
0.00146956
0.00115738
0.0014612
0.00117744
0.00144983
0.00119783
0.00143551
0.00121853
0.00141838
0.00123951
0.00139855
0.00126071
0.00137618
0.0012821
0.00135143
0.00130363
0.00132449
0.00132522
0.00129555
0.00134683
0.00126482
0.00136839
0.0012325
0.00138984
0.0011988
0.00141111
0.00116393
0.00143214
0.00112809
0.00145287
0.00109151
0.00147324
0.00105436
0.00149319
0.00101683
0.00151268
0.000979113
0.00153166
0.000941365
0.00155008
0.000903743
0.0015679
0.00086639
0.0015851
0.000829435
0.00160164
0.00126066
0.00161749
0.00126013
0.00125036
0.00120682
0.00119846
0.00115459
0.00120449
0.00110358
0.00121022
0.00105376
0.00121555
0.00100503
0.00122045
0.000957354
0.00122483
0.000910715
0.00122861
0.00086519
0.0012317
0.000820916
0.00123408
0.000778057
0.00123575
0.00073677
0.00123678
0.000697178
0.00123726
0.000659361
0.00123729
0.000623347
0.00123698
0.000589128
0.00123638
0.000556664
0.00123555
0.000525898
0.00123451
0.00052053
0.00123328
0.00052107
0.00123558
0.000521646
0.00123813
0.000522255
0.0012409
0.000522892
0.00124383
0.000523548
0.00124687
0.000524212
0.00124995
0.000524875
0.00125301
0.000525523
0.00125598
0.000526145
0.0012588
0.000527741
0.00126139
0.00052995
0.00126368
0.000532258
0.00126562
0.000534654
0.00126714
0.00053713
0.00126817
0.000539687
0.00126868
0.000542328
0.00126862
0.000545066
0.00126797
0.000547917
0.0012667
0.000550901
0.00126482
0.000554038
0.00126232
0.000557349
0.00125922
0.000560852
0.00125552
0.000564557
0.00125124
0.00056847
0.00124639
0.000572586
0.00124096
0.000576893
0.00123496
0.000581372
0.00122835
0.000585996
0.00122113
0.000590738
0.00121327
0.000595566
0.00120474
0.000600451
0.00119551
0.000605371
0.00118558
0.000610305
0.00117494
0.000615244
0.00116362
0.000620184
0.00115164
0.000625124
0.00113904
0.000630069
0.0011259
0.000635021
0.00111227
0.000639981
0.00109823
0.000644942
0.00108385
0.000649897
0.00106919
0.000654829
0.00105431
0.000659722
0.00103927
0.000664565
0.00102413
0.000669346
0.00100893
0.000674064
0.000993741
0.000678728
0.000978636
0.000683352
0.000963693
0.000687959
0.000948995
0.000692575
0.000934633
0.000697226
0.000920695
0.000701944
0.000907269
0.00070676
0.000894436
0.000711709
0.000882277
0.000716831
0.000870867
0.00072217
0.000860282
0.000727776
0.000850594
0.0007337
0.000841876
0.00074
0.000834197
0.000746734
0.000827622
0.000753964
0.000822215
0.000761757
0.000818037
0.000770186
0.000815147
0.000779332
0.000813605
0.000789291
0.000813473
0.000800177
0.000814817
0.000812135
0.000817712
0.000825346
0.000822247
0.000840036
0.00082853
0.000856419
0.000836684
0.000874494
0.000846796
0.000893706
0.000858719
0.000933062
0.000871758
0.0014899
0.00149113
0.00113639
0.00148923
0.00115843
0.00148421
0.0011808
0.0014761
0.00120349
0.00146495
0.00122649
0.00145084
0.00124978
0.00143388
0.00127331
0.00141419
0.00129705
0.00139191
0.00132094
0.00136722
0.00134494
0.0013403
0.00136898
0.00131132
0.001393
0.00128051
0.00141692
0.00124806
0.00144069
0.00121418
0.00146424
0.0011791
0.0014875
0.001143
0.00151041
0.00110611
0.0015329
0.00106862
0.00155492
0.00103072
0.00157642
0.000992598
0.00159734
0.000954415
0.00161764
0.000916333
0.00163728
0.000878498
0.00165622
0.000841042
0.00167444
0.001259
0.00169191
0.00126109
0.00130999
0.00120806
0.0012548
0.00115609
0.0012616
0.00110531
0.00126808
0.00105565
0.00127413
0.00100703
0.00127971
0.000959385
0.00128473
0.000912715
0.0012891
0.000867121
0.00129273
0.000822761
0.00129558
0.000779818
0.00129766
0.000738464
0.00129907
0.000698828
0.00129988
0.00066099
0.00130022
0.000624977
0.00130017
0.000590774
0.00129982
0.000558339
0.00129921
0.00052761
0.00129838
0.000520969
0.00129733
0.000521535
0.001299
0.000522116
0.00130092
0.000522709
0.00130303
0.00052331
0.00130529
0.000523911
0.00130764
0.000524502
0.00131002
0.000525074
0.00131235
0.000526225
0.00131458
0.000528273
0.00131663
0.000530457
0.00131844
0.000532759
0.00131993
0.000535162
0.00132103
0.000537655
0.0013217
0.000540233
0.00132186
0.000542897
0.00132147
0.000545654
0.00132051
0.000548517
0.00131893
0.000551504
0.00131674
0.000554636
0.00131391
0.000557935
0.00131047
0.000561422
0.00130642
0.000565115
0.00130178
0.000569024
0.00129656
0.000573151
0.00129076
0.000577492
0.00128439
0.000582033
0.00127745
0.000586751
0.0012699
0.000591619
0.00126174
0.000596606
0.00125293
0.000601679
0.00124345
0.000606807
0.00123328
0.000611965
0.0012224
0.000617134
0.00121081
0.0006223
0.00119855
0.000627459
0.00118562
0.000632608
0.0011721
0.000637749
0.00115803
0.000642883
0.00114349
0.000648008
0.00112855
0.000653115
0.00111328
0.000658193
0.00109774
0.000663225
0.001082
0.000668192
0.00106611
0.00067308
0.00105012
0.000677879
0.0010341
0.000682588
0.00101809
0.000687216
0.00100218
0.000691779
0.000986443
0.000696303
0.000970959
0.000700814
0.00095582
0.000705346
0.000941113
0.000709931
0.000926923
0.000714607
0.000913333
0.000719415
0.00090042
0.0007244
0.000888257
0.000729616
0.000876919
0.000735117
0.000866476
0.000740967
0.000857
0.000747228
0.000848555
0.000753968
0.000841208
0.000761258
0.000835017
0.000769171
0.000830042
0.000777786
0.000826339
0.000787192
0.000823964
0.000797486
0.000822976
0.000808786
0.000823436
0.000821239
0.000825416
0.000835033
0.000829001
0.000850408
0.000834297
0.00086762
0.000841437
0.000886746
0.000850539
0.000907237
0.000861515
0.000945561
0.000873663
0.00150583
0.00150729
0.00115617
0.00150564
0.00118081
0.00150086
0.00120576
0.00149298
0.001231
0.00148204
0.00125653
0.00146811
0.00128232
0.0014513
0.00130833
0.00143173
0.00133453
0.00140953
0.00136085
0.00138487
0.00138725
0.00135793
0.00141366
0.0013289
0.00144001
0.00129797
0.00146624
0.00126536
0.00149227
0.00123127
0.00151803
0.00119593
0.00154346
0.00115953
0.00156848
0.0011223
0.00159303
0.00108442
0.00161706
0.0010461
0.00164051
0.00100752
0.00166331
0.000968852
0.00168544
0.000930259
0.00170684
0.000891889
0.00172748
0.00085388
0.00174732
0.00125687
0.00176635
0.00126207
0.00137014
0.00120932
0.00131117
0.00115763
0.0013187
0.00110708
0.0013259
0.0010576
0.00133264
0.00100906
0.00133888
0.000961427
0.00134452
0.000914708
0.00134945
0.000869029
0.00135358
0.000824572
0.00135687
0.000781544
0.00135935
0.000740125
0.0013611
0.000700453
0.00136223
0.000662604
0.00136285
0.000626602
0.00136307
0.000592428
0.00136296
0.000560033
0.00136258
0.00052935
0.00136195
0.000521203
0.00136108
0.000521789
0.00136214
0.000522369
0.00136343
0.000522942
0.0013649
0.000523503
0.0013665
0.000524044
0.00136817
0.000525349
0.00136985
0.000527144
0.00137147
0.000529121
0.00137296
0.000531258
0.00137424
0.000533531
0.00137526
0.000535923
0.00137594
0.000538418
0.00137622
0.000541007
0.00137603
0.000543685
0.00137532
0.000546456
0.00137404
0.000549329
0.00137216
0.000552318
0.00136967
0.000555444
0.00136654
0.000558729
0.00136278
0.000562198
0.0013584
0.000565869
0.00135341
0.000569761
0.00134783
0.000573884
0.00134167
0.000578238
0.00133493
0.000582817
0.00132763
0.000587604
0.00131975
0.000592575
0.00131127
0.0005977
0.00130217
0.000602946
0.00129242
0.000608278
0.001282
0.000613663
0.00127088
0.000619074
0.00125906
0.00062449
0.00124653
0.000629896
0.00123332
0.000635285
0.00121946
0.000640653
0.001205
0.000646001
0.00119001
0.000651325
0.00117456
0.000656621
0.00115872
0.000661878
0.00114256
0.000667081
0.00112615
0.000672211
0.00110954
0.000677247
0.0010928
0.000682175
0.00107596
0.000686983
0.0010591
0.000691672
0.00104228
0.00069625
0.00102555
0.000700738
0.001009
0.00070516
0.000992727
0.00070955
0.000976802
0.000713942
0.000961319
0.000718373
0.000946361
0.000722887
0.000932007
0.00072753
0.000918333
0.000732356
0.000905412
0.000737422
0.000893316
0.000742795
0.000882113
0.000748544
0.000871872
0.000754742
0.000862658
0.000761464
0.000854533
0.000768789
0.000847554
0.0007768
0.000841778
0.000785582
0.000837258
0.000795228
0.000834047
0.000805842
0.000832201
0.000817545
0.000831777
0.000830486
0.000832844
0.000844856
0.000835482
0.000860907
0.000839797
0.000878931
0.000845926
0.00089908
0.000854015
0.000920847
0.000864037
0.000958489
0.000875313
0.00152375
0.00152543
0.00117768
0.001524
0.00120483
0.00151945
0.00123226
0.00151178
0.00125996
0.00150104
0.00128793
0.00148728
0.00131614
0.00147061
0.00134456
0.00145113
0.00137313
0.00142899
0.00140181
0.00140435
0.00143053
0.00137736
0.00145923
0.00134824
0.00148785
0.00131717
0.0015163
0.00128436
0.00154451
0.00125003
0.00157241
0.00121439
0.00159993
0.00117765
0.001627
0.00114003
0.00165355
0.00110172
0.00167952
0.00106293
0.00170485
0.00102385
0.00172948
0.000984648
0.00175337
0.000945493
0.00177647
0.000906539