/*--------------------------------*- C++ -*----------------------------------*\
| =========                 |                                                 |
| \\      /  F ield         | OpenFOAM: The Open Source CFD Toolbox           |
|  \\    /   O peration     | Version:  2.2.x                                 |
|   \\  /    A nd           | Web:      www.OpenFOAM.org                      |
|    \\/     M anipulation  |                                                 |
\*---------------------------------------------------------------------------*/
FoamFile
{
    version     2.0;
    format      ascii;
    class       volScalarField;
    location    "0.9";
    object      rho;
}
// * * * * * * * * * * * * * * * * * * * * * * * * * * * * * * * * * * * * * //

dimensions      [1 -3 0 0 0 0 0];

internalField   nonuniform List<scalar> 
14161
(
1
1
1
1
1
1
1
1
1
1
1
1
1
1
1
1
1
1
1
1
1
1
1
1
1
1
2.54611
2.83773
2.84662
2.85504
2.86339
2.87163
2.87959
2.88713
2.89421
2.90085
2.90709
2.91304
2.91876
2.9243
2.92967
2.93486
2.93985
2.9446
2.94909
2.95257
2.95614
2.95936
2.96225
2.96481
2.96704
2.96898
2.97071
2.97232
2.97389
2.97554
2.97735
2.9794
2.98172
2.98436
2.98731
2.99055
2.99405
2.99775
3.00162
3.0056
3.00961
3.01353
3.01727
3.0208
3.0241
3.02717
3.03002
3.0327
3.03528
3.03783
3.04044
3.04319
3.04614
3.04933
3.05278
3.05647
3.06035
3.06436
3.06841
3.07243
3.07633
3.08006
3.0836
3.08693
3.09008
3.09308
3.09598
3.09882
3.1016
3.10433
3.107
3.10956
3.11199
3.11425
3.11632
3.11821
3.11992
3.12146
3.12284
3.12407
3.12515
3.12608
3.12685
3.12744
3.12783
3.12797
3.12776
3.12702
3.12543
3.12248
3.11731
3.10859
3.14138
1
1
1
1
1
1
1
1
1
1
1
1
1
1
1
1
1
1
1
1
1
1
1
1
1
1
2.54944
2.82387
2.81969
2.80934
2.79545
2.78119
2.77031
2.76563
2.76826
2.77763
2.79205
2.80947
2.82792
2.84587
2.86225
2.87646
2.88823
2.89756
2.90464
2.90905
2.91143
2.91208
2.91125
2.90926
2.90652
2.90347
2.90057
2.89826
2.89693
2.89688
2.89833
2.90132
2.90579
2.91152
2.91818
2.92534
2.93254
2.93935
2.94535
2.95024
2.95389
2.95639
2.95791
2.95874
2.95927
2.95987
2.96093
2.96271
2.96535
2.96886
2.97312
2.9779
2.98296
2.98806
2.99301
2.99775
3.00225
3.00658
3.01085
3.01513
3.01949
3.02396
3.0285
3.03308
3.03763
3.04211
3.04647
3.05069
3.05476
3.05866
3.06237
3.06589
3.06919
3.07225
3.07506
3.07759
3.07983
3.08177
3.0834
3.08471
3.08572
3.08644
3.08692
3.08724
3.08753
3.08794
3.0887
3.08999
3.09194
3.09439
3.09659
3.09668
3.13773
1
1
1
1
1
1
1
1
1
1
1
1
1
1
1
1
1
1
1
1
1
1
1
1
1
1
2.54733
2.83151
2.83444
2.8343
2.83229
2.82941
2.82694
2.8261
2.82778
2.83238
2.83978
2.84943
2.86057
2.87234
2.88396
2.89481
2.90446
2.91266
2.91929
2.92505
2.92948
2.93287
2.93522
2.93665
2.93734
2.93751
2.93737
2.93715
2.93708
2.93736
2.93817
2.93964
2.94188
2.94492
2.94873
2.9533
2.95848
2.96406
2.96979
2.9754
2.98065
2.98531
2.98925
2.99238
2.99476
2.9965
2.99781
2.99893
3.00012
3.0016
3.00353
3.00597
3.0089
3.01221
3.01573
3.01929
3.02272
3.02594
3.02891
3.03166
3.03427
3.03684
3.03944
3.04212
3.04488
3.04769
3.05051
3.05329
3.056
3.0586
3.0611
3.06349
3.06577
3.06792
3.06993
3.07177
3.07342
3.07485
3.07603
3.07694
3.07753
3.07779
3.07768
3.07719
3.07632
3.07513
3.07376
3.07247
3.0717
3.07191
3.07318
3.07402
3.10922
1
1
1
1
1
1
1
1
1
1
1
1
1
1
1
1
1
1
1
1
1
1
1
1
1
1
2.54274
2.83782
2.84598
2.85343
2.86035
2.86667
2.87239
2.87766
2.8827
2.88775
2.89303
2.8987
2.90476
2.91114
2.91765
2.92408
2.93023
2.93592
2.94102
2.94558
2.94972
2.95336
2.95645
2.95902
2.96111
2.9628
2.96419
2.96538
2.96651
2.96769
2.96903
2.97066
2.97265
2.9751
2.97802
2.98134
2.98502
2.98899
2.99319
2.99752
3.00186
3.00608
3.01006
3.01369
3.01688
3.01962
3.02191
3.02384
3.02553
3.02712
3.02876
3.03059
3.03268
3.03508
3.03773
3.04057
3.04346
3.04629
3.04895
3.05137
3.05355
3.05552
3.05736
3.05912
3.06087
3.06263
3.0644
3.06614
3.06782
3.06941
3.07089
3.07226
3.07351
3.07466
3.07569
3.07659
3.07734
3.0779
3.07825
3.07833
3.07812
3.07756
3.07659
3.07515
3.0732
3.07069
3.06765
3.06423
3.06085
3.0584
3.05791
3.05902
3.09798
1
1
1
1
1
1
1
1
1
1
1
1
1
1
1
1
1
1
1
1
1
1
1
1
1
1
2.54483
2.8309
2.83281
2.83215
2.82986
2.82694
2.82466
2.82428
2.82665
2.83207
2.84031
2.85072
2.86248
2.87477
2.88687
2.89826
2.9086
2.91771
2.92557
2.9317
2.93675
2.94068
2.94356
2.94548
2.94658
2.947
2.94693
2.94659
2.94619
2.94594
2.94604
2.94668
2.948
2.9501
2.95305
2.95687
2.96148
2.9667
2.97232
2.9781
2.98379
2.98919
2.99411
2.99847
3.00221
3.0054
3.00814
3.01057
3.01289
3.01527
3.01788
3.02084
3.0242
3.02796
3.03204
3.03633
3.04066
3.04489
3.04887
3.05251
3.05578
3.05871
3.06134
3.06377
3.06606
3.06825
3.07036
3.07236
3.07422
3.0759
3.07738
3.07864
3.07971
3.08058
3.08126
3.08176
3.08205
3.08212
3.08192
3.08143
3.08061
3.07939
3.07772
3.07552
3.07271
3.0692
3.06492
3.05986
3.05431
3.04917
3.04622
3.0466
3.09052
1
1
1
1
1
1
1
1
1
1
1
1
1
1
1
1
1
1
1
1
1
1
1
1
1
1
2.54078
2.83353
2.83811
2.84074
2.84191
2.84205
2.84192
2.84245
2.84446
2.84849
2.85468
2.86278
2.87228
2.88255
2.89296
2.90298
2.91221
2.92042
2.92748
2.93331
2.93822
2.94214
2.94508
2.94712
2.94837
2.949
2.94918
2.94911
2.94896
2.94896
2.94928
2.95009
2.95153
2.95371
2.95664
2.96033
2.96469
2.96959
2.97485
2.98026
2.98558
2.99061
2.99517
2.99915
3.00249
3.00523
3.00748
3.0094
3.0112
3.0131
3.01528
3.0179
3.02103
3.02467
3.02875
3.03314
3.03767
3.04216
3.04647
3.05048
3.05416
3.05751
3.0606
3.06348
3.06625
3.06892
3.0715
3.07396
3.07625
3.07832
3.08012
3.08165
3.0829
3.08389
3.08462
3.0851
3.08531
3.08522
3.08482
3.08405
3.08289
3.08128
3.07915
3.07642
3.073
3.06877
3.06358
3.05731
3.05004
3.0425
3.03678
3.03553
3.08339
1
1
1
1
1
1
1
1
1
1
1
1
1
1
1
1
1
1
1
1
1
1
1
1
1
1
2.53717
2.83302
2.83752
2.84014
2.8414
2.84168
2.84173
2.84245
2.84465
2.84885
2.85518
2.86338
2.87295
2.88325
2.89366
2.90367
2.91289
2.92108
2.92815
2.93398
2.93888
2.94278
2.94573
2.94778
2.94906
2.94971
2.94992
2.94986
2.94974
2.94973
2.95004
2.95082
2.95222
2.95433
2.9572
2.96082
2.96512
2.96997
2.97518
2.98054
2.98583
2.99083
2.99536
2.9993
3.00261
3.0053
3.00747
3.0093
3.01098
3.01272
3.01473
3.01716
3.0201
3.02356
3.02748
3.03172
3.03612
3.04051
3.04474
3.04871
3.05238
3.05578
3.05895
3.06198
3.06493
3.06783
3.07069
3.07345
3.07605
3.07843
3.08054
3.08235
3.08386
3.08507
3.08599
3.08662
3.08692
3.08688
3.08647
3.08564
3.08435
3.08255
3.08016
3.07712
3.0733
3.06856
3.06272
3.05556
3.04697
3.03741
3.02896
3.02546
3.07576
1
1
1
1
1
1
1
1
1
1
1
1
1
1
1
1
1
1
1
1
1
1
1
1
1
1
2.5327
2.83211
2.83637
2.83865
2.83954
2.83951
2.83936
2.84003
2.84234
2.84677
2.85341
2.86195
2.87184
2.88241
2.89304
2.90319
2.9125
2.92073
2.92781
2.9336
2.93843
2.94224
2.94507
2.94702
2.94819
2.94875
2.94887
2.94874
2.94856
2.94852
2.94881
2.94961
2.95104
2.95321
2.95615
2.95986
2.96424
2.96916
2.97443
2.97983
2.98514
2.99013
2.99465
2.99856
3.00183
3.00449
3.00665
3.00846
3.01013
3.01187
3.01388
3.0163
3.01922
3.02265
3.02651
3.03068
3.035
3.0393
3.04343
3.0473
3.05088
3.0542
3.05733
3.06034
3.06331
3.06628
3.06923
3.07212
3.07488
3.07743
3.07973
3.08173
3.08344
3.08485
3.08596
3.08675
3.08721
3.08729
3.08696
3.08617
3.08488
3.08302
3.08053
3.07731
3.07324
3.06816
3.06186
3.05406
3.04446
3.03325
3.02227
3.01617
3.06749
1
1
1
1
1
1
1
1
1
1
1
1
1
1
1
1
1
1
1
1
1
1
1
1
1
1
2.5267
2.83135
2.83568
2.83797
2.83885
2.83882
2.83871
2.83948
2.84194
2.84655
2.85338
2.86209
2.8721
2.88274
2.89337
2.90348
2.9127
2.92081
2.92775
2.93341
2.93809
2.94175
2.94444
2.94625
2.94731
2.94778
2.94784
2.94767
2.94748
2.94746
2.9478
2.94866
2.95017
2.95242
2.95545
2.95923
2.96368
2.96864
2.97392
2.97931
2.98458
2.98951
2.99395
2.99779
3.00098
3.00356
3.00565
3.00742
3.00907
3.0108
3.01282
3.01525
3.01819
3.02163
3.02549
3.02965
3.03393
3.03816
3.04222
3.04601
3.0495
3.05274
3.05579
3.05875
3.06168
3.06464
3.06759
3.07051
3.07331
3.07592
3.0783
3.0804
3.08223
3.08376
3.08501
3.08594
3.08653
3.08673
3.0865
3.0858
3.08456
3.08272
3.0802
3.0769
3.07268
3.06738
3.06076
3.05247
3.04212
3.02958
3.01635
3.00751
3.05864
1
1
1
1
1
1
1
1
1
1
1
1
1
1
1
1
1
1
1
1
1
1
1
1
1
1
2.51927
2.83035
2.83467
2.83686
2.83765
2.83757
2.83749
2.83838
2.84105
2.84594
2.85306
2.86203
2.87223
2.88299
2.89366
2.90373
2.91286
2.92085
2.92764
2.93313
2.93763
2.94111
2.94363
2.94529
2.94622
2.94658
2.94656
2.94636
2.94615
2.94616
2.94654
2.94747
2.94907
2.95143
2.95455
2.95842
2.96294
2.96795
2.97325
2.97862
2.98384
2.98871
2.99306
2.99679
2.99988
3.00238
3.0044
3.00612
3.00775
3.00948
3.01151
3.01398
3.01695
3.02041
3.02429
3.02845
3.03271
3.03691
3.04092
3.04464
3.04807
3.05123
3.05422
3.05712
3.06001
3.06292
3.06585
3.06874
3.07153
3.07414
3.07653
3.07866
3.08053
3.08213
3.08345
3.08447
3.08515
3.08545
3.08532
3.08469
3.08352
3.08172
3.07921
3.07587
3.07158
3.06613
3.05928
3.05064
3.03969
3.02609
3.0109
2.99932
3.0493
1
1
1
1
1
1
1
1
1
1
1
1
1
1
1
1
1
1
1
1
1
1
1
1
1
1
2.51011
2.82917
2.83347
2.83556
2.83623
2.83609
2.83604
2.83709
2.84003
2.84526
2.85272
2.862
2.87243
2.88331
2.89401
2.90403
2.91303
2.92085
2.92746
2.93275
2.93703
2.9403
2.94262
2.9441
2.94488
2.94512
2.94502
2.94477
2.94457
2.9446
2.94505
2.94607
2.94778
2.95025
2.9535
2.95747
2.96206
2.96712
2.97244
2.97779
2.98295
2.98773
2.99197
2.99559
2.99857
3.00096
3.0029
3.00457
3.00616
3.0079
3.00995
3.01245
3.01547
3.01897
3.02287
3.02704
3.03129
3.03547
3.03943
3.0431
3.04647
3.04958
3.05252
3.05537
3.05822
3.06109
3.06398
3.06683
3.06958
3.07216
3.07453
3.07665
3.07852
3.08013
3.08148
3.08254
3.08327
3.08362
3.08355
3.08298
3.08186
3.0801
3.07761
3.07427
3.06992
3.06438
3.05736
3.04844
3.03704
3.02257
3.00569
2.99146
3.03955
1
1
1
1
1
1
1
1
1
1
1
1
1
1
1
1
1
1
1
1
1
1
1
1
1
1
2.499
2.8278
2.83207
2.83405
2.83462
2.83443
2.83447
2.83575
2.83903
2.84467
2.85255
2.86217
2.87284
2.88384
2.89454
2.90445
2.91328
2.92089
2.92725
2.93229
2.93632
2.93935
2.94144
2.94272
2.94334
2.94347
2.9433
2.94302
2.94282
2.9429
2.94344
2.94456
2.9464
2.949
2.95237
2.95645
2.96112
2.96622
2.97154
2.97685
2.98194
2.98661
2.99073
2.99421
2.99705
2.99933
3.00118
3.00278
3.00435
3.00608
3.00816
3.0107
3.01375
3.01729
3.02122
3.0254
3.02964
3.03378
3.0377
3.04133
3.04464
3.04771
3.0506
3.05342
3.05623
3.05908
3.06193
3.06475
3.06745
3.06999
3.07231
3.07439
3.07623
3.07783
3.07917
3.08024
3.08098
3.08135
3.0813
3.08076
3.07967
3.07793
3.07546
3.07211
3.06773
3.06212
3.05496
3.04582
3.03405
3.01888
3.00054
2.9838
3.02945
1
1
1
1
1
1
1
1
1
1
1
1
1
1
1
1
1
1
1
1
1
1
1
1
1
1
2.48575
2.82617
2.83035
2.83216
2.83256
2.83232
2.83247
2.83403
2.83777
2.84393
2.8523
2.86234
2.87328
2.88441
2.89509
2.90488
2.9135
2.92085
2.92693
2.93168
2.93541
2.93815
2.93999
2.94106
2.9415
2.94151
2.94126
2.94096
2.94079
2.94094
2.94158
2.94284
2.94482
2.94757
2.95108
2.95528
2.96005
2.96519
2.97051
2.97577
2.98077
2.98532
2.98929
2.99262
2.99531
2.99747
2.99922
3.00075
3.00229
3.00402
3.00612
3.0087
3.0118
3.01538
3.01933
3.02351
3.02774
3.03185
3.03572
3.03929
3.04256
3.04558
3.04843
3.05122
3.05401
3.05683
3.05966
3.06244
3.0651
3.06759
3.06987
3.0719
3.0737
3.07526
3.07657
3.07761
3.07834
3.0787
3.07864
3.07811
3.07702
3.07528
3.0728
3.06944
3.06503
3.05934
3.05207
3.04275
3.03067
3.01492
2.99532
2.97622
3.01903
1
1
1
1
1
1
1
1
1
1
1
1
1
1
1
1
1
1
1
1
1
1
1
1
1
1
2.47007
2.82427
2.82834
2.82994
2.83019
2.82991
2.83024
2.8322
2.83649
2.84327
2.85223
2.86271
2.87394
2.88517
2.89578
2.90537
2.91372
2.92074
2.92648
2.93087
2.93426
2.93669
2.93825
2.93908
2.93934
2.93923
2.93892
2.9386
2.93848
2.93872
2.93949
2.9409
2.94306
2.94599
2.94966
2.95399
2.95885
2.96403
2.96933
2.97453
2.97942
2.98383
2.98763
2.99079
2.99333
2.99535
2.99699
2.99847
2.99997
3.00171
3.00384
3.00646
3.00961
3.01322
3.0172
3.02138
3.02558
3.02965
3.03347
3.03699
3.0402
3.04317
3.04599
3.04875
3.05152
3.05432
3.05712
3.05987
3.0625
3.06495
3.06717
3.06916
3.07091
3.07242
3.07369
3.07469
3.07538
3.0757
3.07562
3.07506
3.07394
3.07219
3.06968
3.06628
3.06182
3.05606
3.04868
3.0392
3.02686
3.01061
2.98991
2.96862
3.00831
1
1
1
1
1
1
1
1
1
1
1
1
1
1
1
1
1
1
1
1
1
1
1
1
1
1
2.45176
2.82201
2.82589
2.82722
2.82725
2.82696
2.82754
2.83002
2.83501
2.84254
2.85218
2.86317
2.87469
2.88598
2.89648
2.90582
2.91381
2.92044
2.92579
2.92978
2.93278
2.93485
2.9361
2.93669
2.93677
2.93654
2.93618
2.93588
2.93582
2.93619
2.93711
2.93872
2.94108
2.94421
2.94806
2.95254
2.95749
2.96271
2.96799
2.9731
2.97786
2.9821
2.98572
2.9887
2.99107
2.99294
2.99448
2.99589
2.99737
2.99912
3.00129
3.00396
3.00715
3.01081
3.0148
3.01898
3.02315
3.02718
3.03094
3.03439
3.03754
3.04046
3.04325
3.04599
3.04874
3.05152
3.0543
3.05703
3.05962
3.06203
3.0642
3.06614
3.06784
3.06931
3.07052
3.07147
3.0721
3.07238
3.07224
3.07163
3.07047
3.06867
3.06611
3.06266
3.05814
3.05229
3.0448
3.03515
3.02257
3.0059
2.98424
2.96092
2.99729
1
1
1
1
1
1
1
1
1
1
1
1
1
1
1
1
1
1
1
1
1
1
1
1
1
1
2.43042
2.8194
2.82307
2.82412
2.82397
2.82376
2.82473
2.8279
2.83375
2.84216
2.85253
2.86402
2.87578
2.88706
2.89733
2.9063
2.91385
2.92
2.92487
2.92839
2.93096
2.93265
2.93358
2.93391
2.93382
2.93349
2.9331
2.93284
2.93289
2.93341
2.93454
2.93637
2.93896
2.94231
2.94636
2.95098
2.95601
2.96125
2.96649
2.97149
2.97609
2.98014
2.98355
2.98632
2.9885
2.99022
2.99166
2.993
2.99447
2.99624
2.99845
3.00117
3.00442
3.00811
3.01213
3.01629
3.02043
3.02441
3.0281
3.03148
3.03457
3.03744
3.04019
3.04291
3.04564
3.04841
3.05118
3.05388
3.05645
3.05881
3.06094
3.06283
3.06448
3.06589
3.06705
3.06794
3.06851
3.06872
3.06852
3.06784
3.06661
3.06474
3.06211
3.05859
3.05398
3.04804
3.04042
3.03062
3.01781
3.00075
2.97824
2.95303
2.98597
1
1
1
1
1
1
1
1
1
1
1
1
1
1
1
1
1
1
1
1
1
1
1
1
1
1
2.40578
2.81632
2.8197
2.82038
2.82006
2.82002
2.82156
2.82564
2.83255
2.84196
2.85314
2.86513
2.87706
2.88822
2.89816
2.90666
2.91366
2.91925
2.92359
2.92659
2.9287
2.92998
2.93058
2.93067
2.93043
2.93002
2.92964
2.92946
2.92966
2.93038
2.93175
2.93385
2.93671
2.9403
2.94455
2.94931
2.95442
2.95966
2.96482
2.96969
2.97409
2.97792
2.98109
2.98363
2.98562
2.98718
2.98851
2.98979
2.99125
2.99304
2.99531
2.99809
3.0014
3.00513
3.00916
3.01331
3.01741
3.02132
3.02494
3.02825
3.03127
3.03409
3.03681
3.0395
3.04222
3.04498
3.04774
3.05042
3.05295
3.05528
3.05737
3.05921
3.06081
3.06217
3.06327
3.06409
3.0646
3.06473
3.06445
3.06369
3.06237
3.06041
3.0577
3.05407
3.04936
3.0433
3.03555
3.02558
3.01255
2.99513
2.97186
2.94491
2.97433
1
1
1
1
1
1
1
1
1
1
1
1
1
1
1
1
1
1
1
1
1
1
1
1
1
1
2.37736
2.81275
2.81578
2.8161
2.81569
2.816
2.81837
2.8236
2.83176
2.8423
2.85427
2.86668
2.87865
2.88954
2.89899
2.90687
2.91321
2.91815
2.9219
2.92432
2.92593
2.92681
2.92709
2.92696
2.92658
2.92614
2.92581
2.92577
2.92616
2.92714
2.9288
2.9312
2.93435
2.9382
2.94266
2.94756
2.95273
2.95794
2.96298
2.96767
2.97185
2.97541
2.97832
2.98062
2.98239
2.98379
2.98501
2.98625
2.9877
2.98953
2.99186
2.99471
2.99807
3.00185
3.00588
3.01001
3.01406
3.0179
3.02145
3.02468
3.02763
3.0304
3.03308
3.03575
3.03847
3.04122
3.04396
3.04662
3.04912
3.05142
3.05347
3.05527
3.05682
3.05812
3.05916
3.05992
3.06035
3.0604
3.06003
3.05917
3.05776
3.05569
3.05286
3.04912
3.04429
3.03809
3.03019
3.02003
3.00678
2.98902
2.96506
2.93649
2.96237
1
1
1
1
1
1
1
1
1
1
1
1
1
1
1
1
1
1
1
1
1
1
1
1
1
1
2.34473
2.80856
2.8112
2.81116
2.81079
2.81173
2.81525
2.82193
2.83155
2.84326
2.85598
2.86867
2.88048
2.8909
2.89967
2.90679
2.91236
2.91658
2.91968
2.9215
2.92261
2.92309
2.92309
2.92277
2.92231
2.92189
2.92167
2.92182
2.92247
2.92376
2.92575
2.92849
2.93196
2.93608
2.94074
2.94576
2.95094
2.95607
2.96096
2.96542
2.96932
2.97259
2.97521
2.97724
2.97879
2.98003
2.98115
2.98235
2.98381
2.9857
2.98809
2.99102
2.99444
2.99825
3.00229
3.00639
3.01038
3.01414
3.0176
3.02075
3.02363
3.02635
3.029
3.03165
3.03436
3.0371
3.03983
3.04248
3.04495
3.04721
3.04922
3.05098
3.05248
3.05373
3.05472
3.0554
3.05575
3.05572
3.05525
3.05429
3.05276
3.05057
3.04761
3.04374
3.03876
3.03241
3.02433
3.01398
3.0005
2.98241
2.95781
2.92773
2.95007
1
1
1
1
1
1
1
1
1
1
1
1
1
1
1
1
1
1
1
1
1
1
1
1
1
1
2.30732
2.80366
2.80584
2.8055
2.80543
2.80737
2.81245
2.8209
2.83212
2.84499
2.85831
2.87103
2.88243
2.89214
2.90005
2.90625
2.91094
2.91438
2.91681
2.91802
2.91866
2.91877
2.91853
2.91808
2.91761
2.91727
2.91723
2.91764
2.91862
2.92028
2.92266
2.92577
2.92957
2.93396
2.93879
2.94389
2.94904
2.95405
2.95872
2.9629
2.96649
2.96942
2.97172
2.97347
2.9748
2.97589
2.97691
2.97809
2.97958
2.98152
2.984
2.987
2.99049
2.99432
2.99836
3.00242
3.00635
3.01002
3.01339
3.01644
3.01926
3.02193
3.02454
3.02719
3.02989
3.03263
3.03535
3.03797
3.04043
3.04265
3.04462
3.04634
3.0478
3.049
3.04992
3.05054
3.0508
3.05068
3.0501
3.04902
3.04737
3.04505
3.04195
3.03792
3.03277
3.02625
3.01798
3.00743
2.9937
2.97529
2.95008
2.9186
2.93741
1
1
1
1
1
1
1
1
1
1
1
1
1
1
1
1
1
1
1
1
1
1
1
1
1
1
2.26439
2.79796
2.79969
2.79925
2.79988
2.80334
2.81044
2.82095
2.83382
2.84769
2.8613
2.87371
2.88438
2.8931
2.89994
2.90509
2.90884
2.91146
2.91322
2.91386
2.91406
2.91387
2.91345
2.91295
2.91254
2.91237
2.9126
2.91335
2.91473
2.9168
2.91961
2.92311
2.92724
2.93187
2.93685
2.94196
2.94703
2.95184
2.95623
2.96007
2.96328
2.96585
2.96781
2.96928
2.97039
2.97132
2.97228
2.97345
2.97499
2.97701
2.97957
2.98266
2.98621
2.99007
2.99409
2.9981
3.00195
3.00552
3.00879
3.01176
3.0145
3.01712
3.01971
3.02235
3.02505
3.02779
3.0305
3.03311
3.03554
3.03773
3.03966
3.04133
3.04275
3.04389
3.04476
3.0453
3.04549
3.04526
3.04458
3.04338
3.04159
3.03912
3.03586
3.03166
3.02633
3.01961
3.01114
3.00036
2.98637
2.96764
2.94187
2.90906
2.92437
1
1
1
1
1
1
1
1
1
1
1
1
1
1
1
1
1
1
1
1
1
1
1
1
1
1
2.21505
2.79131
2.79268
2.79252
2.79448
2.80011
2.80972
2.82245
2.83683
2.85136
2.86482
2.87648
2.88603
2.8935
2.89909
2.90312
2.90589
2.90772
2.90885
2.90895
2.9088
2.9084
2.90789
2.90744
2.90719
2.90728
2.90786
2.90903
2.91088
2.91343
2.91668
2.92058
2.92502
2.92985
2.93489
2.93995
2.94484
2.94937
2.95341
2.95685
2.95964
2.96181
2.96343
2.9646
2.96551
2.96632
2.96724
2.96843
2.97003
2.97215
2.97482
2.978
2.98159
2.98547
2.98947
2.99342
2.99717
3.00064
3.0038
3.00668
3.00936
3.01193
3.0145
3.01713
3.01983
3.02257
3.02528
3.02787
3.03027
3.03243
3.03433
3.03596
3.03733
3.03842
3.03922
3.03969
3.03979
3.03947
3.03867
3.03734
3.0354
3.03278
3.02934
3.02496
3.01943
3.0125
3.0038
2.99278
2.97852
2.95946
2.93314
2.89909
2.91095
1
1
1
1
1
1
1
1
1
1
1
1
1
1
1
1
1
1
1
1
1
1
1
1
1
1
2.15812
2.78362
2.78491
2.78568
2.78982
2.79838
2.81085
2.82573
2.84122
2.85582
2.86853
2.87894
2.88703
2.89302
2.89727
2.90015
2.90199
2.90308
2.90366
2.90334
2.90294
2.90242
2.90194
2.90164
2.90166
2.90213
2.90316
2.90483
2.90719
2.91025
2.91396
2.91822
2.92291
2.92786
2.93288
2.93779
2.9424
2.94657
2.95017
2.95315
2.95549
2.95725
2.95851
2.95942
2.96014
2.96087
2.96177
2.96302
2.96472
2.96696
2.96973
2.973
2.97665
2.98054
2.98449
2.98836
2.99201
2.99537
2.99841
3.0012
3.00381
3.00634
3.00889
3.01152
3.01423
3.01697
3.01968
3.02226
3.02463
3.02676
3.02862
3.03021
3.03153
3.03257
3.03331
3.0337
3.03371
3.03328
3.03236
3.0309
3.02881
3.02601
3.0224
3.01781
3.01207
3.00491
2.99597
2.98468
2.97014
2.95075
2.9239
2.88868
2.89713
1
1
1
1
1
1
1
1
1
1
1
1
1
1
1
1
1
1
1
1
1
1
1
1
1
1
2.09194
2.77502
2.77683
2.7796
2.78701
2.79916
2.81455
2.8311
2.84692
2.86076
2.87203
2.88069
2.88702
2.89141
2.89431
2.89609
2.89708
2.89755
2.89769
2.89707
2.89655
2.89606
2.89573
2.89571
2.89612
2.89707
2.89864
2.90088
2.9038
2.90736
2.91149
2.91605
2.9209
2.92586
2.93075
2.93538
2.93961
2.94331
2.94641
2.94888
2.95075
2.95209
2.95302
2.95369
2.95428
2.95495
2.95589
2.95723
2.95906
2.96143
2.96433
2.96768
2.97137
2.97525
2.97915
2.98292
2.98645
2.98969
2.99262
2.99531
2.99785
3.00035
3.00289
3.00553
3.00824
3.011
3.0137
3.01626
3.01861
3.0207
3.02252
3.02407
3.02534
3.02633
3.02701
3.02732
3.02724
3.0267
3.02565
3.02404
3.0218
3.01883
3.01501
3.01022
3.00425
2.99684
2.98764
2.97607
2.96123
2.94149
2.91413
2.87779
2.88291
1
1
1
1
1
1
1
1
1
1
1
1
1
1
1
1
1
1
1
1
1
1
1
1
1
1
2.01431
2.76589
2.76929
2.77557
2.78734
2.80334
2.82111
2.83831
2.85333
2.86546
2.87462
2.88117
2.88559
2.8884
2.89004
2.89087
2.89117
2.89116
2.89101
2.89023
2.88974
2.88941
2.88939
2.8898
2.89072
2.89226
2.89444
2.89729
2.90077
2.9048
2.90927
2.91403
2.91892
2.92375
2.92835
2.93258
2.93631
2.93947
2.942
2.94394
2.94533
2.94628
2.94691
2.9474
2.94791
2.9486
2.94962
2.95108
2.95307
2.95559
2.95861
2.96205
2.96577
2.96962
2.97345
2.9771
2.9805
2.9836
2.98641
2.98901
2.99149
2.99396
2.9965
2.99914
3.00188
3.00463
3.00733
3.00987
3.01219
3.01425
3.01604
3.01754
3.01877
3.0197
3.02031
3.02054
3.02036
3.01971
3.01853
3.01678
3.01436
3.0112
3.00719
3.00216
2.99595
2.98829
2.97881
2.96695
2.95179
2.9317
2.90383
2.86643
2.86826
1
1
1
1
1
1
1
1
1
1
1
1
1
1
1
1
1
1
1
1
1
1
1
1
1
1
1.92225
2.75744
2.76413
2.77559
2.79234
2.81157
2.83032
2.84659
2.85948
2.86899
2.87558
2.87986
2.88244
2.88382
2.88439
2.88447
2.88426
2.88395
2.88365
2.88291
2.88261
2.88264
2.88309
2.88406
2.88564
2.88785
2.8907
2.89416
2.89816
2.90257
2.90725
2.91206
2.91681
2.92134
2.92551
2.92921
2.93235
2.93489
2.93683
2.93823
2.93918
2.93978
2.94019
2.94057
2.94106
2.94183
2.94299
2.94462
2.94679
2.94947
2.95262
2.95612
2.95985
2.96365
2.96738
2.9709
2.97415
2.97711
2.9798
2.98231
2.98473
2.98718
2.98972
2.99238
2.99512
2.99789
3.00058
3.0031
3.00539
3.00742
3.00916
3.01062
3.0118
3.01267
3.01321
3.01336
3.01308
3.01231
3.011
3.00909
3.0065
3.00314
2.99891
2.99365
2.98718
2.97925
2.96947
2.9573
2.94182
2.92137
2.893
2.85458
2.85319
1
1
1
1
1
1
1
1
1
1
1
1
1
1
1
1
1
1
1
1
1
1
1
1
1
1
1.81191
2.75244
2.76449
2.78221
2.80315
2.8236
2.84104
2.85446
2.864
2.87032
2.8742
2.87635
2.87732
2.87753
2.8773
2.87685
2.87636
2.87596
2.87573
2.87523
2.87536
2.87594
2.87705
2.87876
2.88108
2.88403
2.88755
2.89156
2.89596
2.90059
2.90531
2.90996
2.91438
2.91844
2.92203
2.92508
2.92755
2.92944
2.9308
2.93171
2.93227
2.93262
2.93289
2.93324
2.9338
2.93471
2.93606
2.93791
2.94027
2.94311
2.94637
2.94992
2.95363
2.95734
2.96094
2.96431
2.9674
2.9702
2.97277
2.97519
2.97757
2.98
2.98255
2.98523
2.98799
2.99076
2.99344
2.99594
2.9982
3.00019
3.00189
3.0033
3.00443
3.00524
3.00571
3.00577
3.00538
3.00449
3.00304
3.00097
2.9982
2.99464
2.99018
2.98468
2.97794
2.96972
2.95964
2.94715
2.93132
2.91049
2.88163
2.84223
2.83769
1
1
1
1
1
1
1
1
1
1
1
1
1
1
1
1
1
1
1
1
1
1
1
1
1
1
1.67966
2.75558
2.77422
2.797
2.81906
2.83728
2.85068
2.85967
2.86522
2.86834
2.86981
2.87022
2.86997
2.86939
2.86868
2.86803
2.86756
2.86736
2.86748
2.86752
2.86834
2.86971
2.87166
2.87421
2.87735
2.881
2.8851
2.88951
2.8941
2.89873
2.90323
2.90749
2.91137
2.91478
2.91767
2.91999
2.92176
2.92303
2.92386
2.92436
2.92464
2.92483
2.92507
2.92549
2.92621
2.92733
2.92891
2.93099
2.93355
2.93655
2.93989
2.94345
2.9471
2.9507
2.95414
2.95733
2.96024
2.96289
2.96533
2.96768
2.97001
2.97244
2.975
2.9777
2.98048
2.98325
2.98592
2.9884
2.99062
2.99256
2.99422
2.99559
2.99666
2.99741
2.9978
2.99777
2.99727
2.99625
2.99466
2.99242
2.98946
2.98569
2.981
2.97524
2.96822
2.9597
2.9493
2.93647
2.92029
2.89907
2.86972
2.82938
2.82175
1
1
1
1
1
1
1
1
1
1
1
1
1
1
1
1
1
1
1
1
1
1
1
1
1
1
1.52489
2.77218
2.79536
2.81807
2.83595
2.84815
2.85561
2.85971
2.86164
2.86222
2.86197
2.86127
2.86037
2.85948
2.85877
2.85837
2.85833
2.85872
2.85951
2.86041
2.86218
2.86451
2.86741
2.87082
2.87468
2.8789
2.88334
2.88788
2.89237
2.89669
2.90071
2.90433
2.90748
2.91011
2.91221
2.91379
2.9149
2.91562
2.91602
2.91623
2.91636
2.91652
2.91685
2.91745
2.9184
2.91979
2.92164
2.92395
2.9267
2.92982
2.9332
2.93673
2.94028
2.94372
2.94697
2.94996
2.95268
2.95517
2.9575
2.95977
2.96208
2.9645
2.96709
2.96981
2.9726
2.97537
2.97803
2.98047
2.98265
2.98455
2.98616
2.98747
2.98849
2.98917
2.98948
2.98935
2.98874
2.98759
2.98584
2.98343
2.98027
2.97629
2.97135
2.96533
2.95802
2.94919
2.93846
2.92528
2.90873
2.88712
2.85727
2.81602
2.80538
1
1
1
1
1
1
1
1
1
1
1
1
1
1
1
1
1
1
1
1
1
1
1
1
1
1
1.35554
2.8007
2.82209
2.8369
2.84585
2.85047
2.85248
2.85303
2.85275
2.852
2.85101
2.84999
2.84913
2.84859
2.84847
2.84884
2.84971
2.85106
2.85285
2.8548
2.85765
2.86098
2.86473
2.86882
2.87315
2.87759
2.88202
2.8863
2.89034
2.89403
2.8973
2.90008
2.90237
2.90416
2.90549
2.90639
2.90695
2.90725
2.90738
2.90746
2.90759
2.90787
2.9084
2.90926
2.91051
2.9122
2.91432
2.91686
2.91976
2.92295
2.92632
2.92976
2.93315
2.9364
2.93943
2.9422
2.94472
2.94705
2.94927
2.95147
2.95376
2.9562
2.95881
2.96155
2.96436
2.96713
2.96976
2.97216
2.9743
2.97614
2.9777
2.97896
2.97992
2.98053
2.98075
2.98053
2.9798
2.9785
2.9766
2.974
2.97065
2.96643
2.96125
2.95495
2.94735
2.93819
2.92711
2.91357
2.89665
2.87463
2.84428
2.80216
2.78857
1
1
1
1
1
1
1
1
1
1
1
1
1
1
1
1
1
1
1
1
1
1
1
1
1
1
1.19119
2.82032
2.83727
2.84062
2.84159
2.84168
2.84141
2.84087
2.84009
2.83921
2.8384
2.83787
2.83778
2.83824
2.83929
2.84091
2.84305
2.84561
2.8485
2.8515
2.8553
2.85938
2.86366
2.86802
2.87236
2.87656
2.88052
2.88415
2.88738
2.89018
2.8925
2.89436
2.89578
2.89679
2.89745
2.89783
2.89801
2.89808
2.89814
2.89827
2.89855
2.89908
2.89991
2.9011
2.90268
2.90467
2.90703
2.90975
2.91274
2.91594
2.91923
2.92252
2.92571
2.92872
2.9315
2.93403
2.93636
2.93854
2.94065
2.94281
2.94509
2.94755
2.95019
2.95295
2.95577
2.95852
2.96112
2.96348
2.96556
2.96735
2.96885
2.97006
2.97095
2.97148
2.97162
2.97128
2.97043
2.96899
2.96692
2.96414
2.96057
2.95613
2.95068
2.9441
2.93619
2.92669
2.91527
2.90135
2.88404
2.86161
2.83077
2.7878
2.77132
1
1
1
1
1
1
1
1
1
1
1
1
1
1
1
1
1
1
1
1
1
1
1
1
1
1
1.05677
2.79846
2.82704
2.826
2.82627
2.82679
2.82696
2.82674
2.82634
2.82604
2.82613
2.8268
2.82815
2.83019
2.83284
2.836
2.83951
2.84325
2.84707
2.85076
2.85506
2.85937
2.8636
2.86765
2.87143
2.87488
2.87795
2.88059
2.8828
2.88458
2.88595
2.88694
2.88761
2.88801
2.88822
2.88831
2.88835
2.88843
2.8886
2.88895
2.88953
2.8904
2.89159
2.89314
2.89503
2.89728
2.89983
2.90264
2.90565
2.90877
2.91191
2.91498
2.91791
2.92065
2.92316
2.92546
2.92759
2.92963
2.93167
2.9338
2.93608
2.93857
2.94123
2.94402
2.94683
2.94956
2.95212
2.95443
2.95645
2.95818
2.95962
2.96076
2.96158
2.96204
2.96207
2.96163
2.96064
2.95905
2.95681
2.95384
2.95005
2.94537
2.93965
2.93278
2.92455
2.91471
2.90292
2.88862
2.87091
2.84806
2.81672
2.77293
2.75364
1
1
1
1
1
1
1
1
1
1
1
1
1
1
1
1
1
1
1
1
1
1
1
1
1
1
1.00579
2.70498
2.8028
2.80738
2.81028
2.81182
2.81245
2.81275
2.81322
2.81426
2.81608
2.81873
2.82213
2.82611
2.83047
2.83502
2.83958
2.844
2.84818
2.85186
2.85592
2.85973
2.86323
2.86637
2.86911
2.87145
2.87338
2.87492
2.87609
2.87694
2.87752
2.87787
2.87806
2.87814
2.87819
2.87825
2.8784
2.87868
2.87914
2.87984
2.8808
2.88206
2.88361
2.88547
2.88763
2.89005
2.8927
2.89551
2.89843
2.90139
2.9043
2.90709
2.90973
2.91217
2.91441
2.91648
2.91844
2.92036
2.92234
2.92445
2.92675
2.92927
2.93196
2.93476
2.93756
2.94026
2.94277
2.94501
2.94697
2.94863
2.95001
2.95108
2.95183
2.9522
2.95213
2.95156
2.95044
2.94869
2.94627
2.9431
2.93909
2.93415
2.92817
2.92099
2.91243
2.90225
2.89008
2.87539
2.85727
2.83399
2.80216
2.75756
2.73552
1
1
1
1
1
1
1
1
1
1
1
1
1
1
1
1
1
1
1
1
1
1
1
1
1
1
1.00033
2.58052
2.78531
2.7918
2.79524
2.79712
2.7985
2.80022
2.80275
2.80629
2.81075
2.81589
2.82141
2.82703
2.83249
2.83761
2.84228
2.84643
2.85006
2.85286
2.8559
2.85854
2.86079
2.86266
2.86416
2.86532
2.86619
2.86679
2.86719
2.86742
2.86754
2.8676
2.86764
2.86773
2.8679
2.86819
2.86864
2.86929
2.87015
2.87125
2.8726
2.87421
2.87607
2.87816
2.88046
2.88295
2.88557
2.88827
2.89101
2.89371
2.89632
2.8988
2.90112
2.90326
2.90524
2.9071
2.90891
2.91074
2.91268
2.9148
2.91713
2.91968
2.9224
2.9252
2.92798
2.93063
2.93307
2.93524
2.93713
2.93872
2.94002
2.94102
2.94169
2.94196
2.94179
2.94109
2.93982
2.93791
2.93531
2.93192
2.92769
2.92249
2.91622
2.90873
2.89984
2.8893
2.87675
2.86166
2.84312
2.8194
2.78707
2.7417
2.71698
1
1
1
1
1
1
1
1
1
1
1
1
1
1
1
1
1
1
1
1
1
1
1
1
1
1
1.00002
2.434
2.76954
2.7768
2.78084
2.78407
2.78782
2.79267
2.79863
2.80539
2.8125
2.8195
2.82604
2.83191
2.83698
2.84125
2.84475
2.84756
2.8498
2.8511
2.85267
2.85391
2.85485
2.85554
2.85601
2.85632
2.85649
2.85658
2.85663
2.85668
2.85675
2.8569
2.85715
2.85752
2.85804
2.85872
2.8596
2.86066
2.86192
2.86339
2.86505
2.8669
2.86893
2.87112
2.87343
2.87584
2.87831
2.88079
2.88325
2.88564
2.88792
2.89006
2.89206
2.89391
2.89566
2.89734
2.89903
2.90081
2.90274
2.90488
2.90725
2.90983
2.91256
2.91535
2.91809
2.92068
2.92304
2.92513
2.92693
2.92845
2.92967
2.93059
2.93117
2.93135
2.93105
2.93022
2.9288
2.92672
2.92392
2.92032
2.91584
2.91038
2.90382
2.89601
2.88678
2.87587
2.86293
2.84743
2.82846
2.80431
2.77148
2.72535
2.69801
1
1
1
1
1
1
1
1
1
1
1
1
1
1
1
1
1
1
1
1
1
1
1
1
1
1
1
2.25811
2.75553
2.76429
2.77078
2.77776
2.78592
2.79495
2.80417
2.8129
2.82065
2.82718
2.83242
2.83645
2.83943
2.84156
2.84302
2.84398
2.84459
2.84448
2.84481
2.845
2.8451
2.84514
2.84516
2.84518
2.84523
2.84534
2.84553
2.84583
2.84623
2.84677
2.84744
2.84826
2.84923
2.85035
2.85161
2.85303
2.85458
2.85627
2.85809
2.86002
2.86206
2.86417
2.86634
2.86854
2.87075
2.87293
2.87505
2.87709
2.87902
2.88084
2.88254
2.88414
2.8857
2.88725
2.88886
2.89061
2.89255
2.89473
2.89713
2.89974
2.90247
2.90523
2.90791
2.91043
2.9127
2.91469
2.9164
2.91783
2.91897
2.91981
2.92029
2.92035
2.91993
2.91896
2.91738
2.91512
2.91211
2.90829
2.90356
2.89783
2.89097
2.88284
2.87325
2.86196
2.84862
2.83271
2.81331
2.78871
2.75539
2.70852
2.67863
1
1
1
1
1
1
1
1
1
1
1
1
1
1
1
1
1
1
1
1
1
1
1
1
1
1
1
2.0424
2.75002
2.76229
2.77392
2.78598
2.7978
2.80842
2.81719
2.8239
2.82868
2.83182
2.83367
2.83458
2.83487
2.83475
2.83443
2.83401
2.8336
2.83287
2.83277
2.83275
2.83281
2.83297
2.83323
2.8336
2.83408
2.83468
2.83539
2.83622
2.83716
2.8382
2.83934
2.84058
2.8419
2.84331
2.84481
2.84638
2.84802
2.84972
2.85149
2.85331
2.85517
2.85706
2.85896
2.86086
2.86273
2.86456
2.86633
2.86802
2.86962
2.87114
2.87259
2.874
2.87541
2.87687
2.87845
2.8802
2.88217
2.88438
2.88682
2.88943
2.89215
2.89486
2.89746
2.89988
2.90204
2.90393
2.90554
2.90688
2.90793
2.90867
2.90905
2.90899
2.90844
2.90732
2.90556
2.90311
2.8999
2.89584
2.89086
2.88484
2.87768
2.86921
2.85926
2.84759
2.83385
2.81751
2.79767
2.77262
2.73881
2.69122
2.65883
1
1
1
1
1
1
1
1
1
1
1
1
1
1
1
1
1
1
1
1
1
1
1
1
1
1
1
1.77853
2.77012
2.78439
2.79773
2.80886