/*--------------------------------*- C++ -*----------------------------------*\
| =========                 |                                                 |
| \\      /  F ield         | OpenFOAM: The Open Source CFD Toolbox           |
|  \\    /   O peration     | Version:  2.2.x                                 |
|   \\  /    A nd           | Web:      www.OpenFOAM.org                      |
|    \\/     M anipulation  |                                                 |
\*---------------------------------------------------------------------------*/
FoamFile
{
    version     2.0;
    format      ascii;
    class       surfaceScalarField;
    location    "3.8";
    object      cfmax;
}
// * * * * * * * * * * * * * * * * * * * * * * * * * * * * * * * * * * * * * //

dimensions      [0 3 -1 0 0 0 0];

internalField   nonuniform List<scalar> 
28084
(
0.00103347
0.00102899
0.00102514
0.0010219
0.00101925
0.00101715
0.00101556
0.00101446
0.0010138
0.00101356
0.00101369
0.00101415
0.00101492
0.00101617
0.00101715
0.00101888
0.00102532
0.000884485
0.000760156
0.000752898
0.00075092
0.000749049
0.000747413
0.000745776
0.00074417
0.000742621
0.00074106
0.000739476
0.000737875
0.000736296
0.000734727
0.000733143
0.000731535
0.000729873
0.000728154
0.000726378
0.000724557
0.000722683
0.000720773
0.000718805
0.000716784
0.000714693
0.000712528
0.000710281
0.000707945
0.000715435
0.000723202
0.000731219
0.000739439
0.000747823
0.000756326
0.000764906
0.000773515
0.000782109
0.000790636
0.000799049
0.0008073
0.000815341
0.000823129
0.000830619
0.000837771
0.000844543
0.000850896
0.00085679
0.000862188
0.00086705
0.000871341
0.000875027
0.00087808
0.000880478
0.000882207
0.000883253
0.000883608
0.000883263
0.000882215
0.000880464
0.000878013
0.000874872
0.000871058
0.000866593
0.000861509
0.000855841
0.00084963
0.000842922
0.000835766
0.000828218
0.000820334
0.000812183
0.000803842
0.000795379
0.000786863
0.000778369
0.000769983
0.000761792
0.000753886
0.000746338
0.00073929
0.000732843
0.000727064
0.000722004
0.000717716
0.00071426
0.000711719
0.000710181
0.000709746
0.000710565
0.000712763
0.000716455
0.000721716
0.000728545
0.000736894
0.000746757
0.000758172
0.00077115
0.00078571
0.00080184
0.000819426
0.000838954
0.00144695
0.00144445
0.00103834
0.00143891
0.00103701
0.00143036
0.00103628
0.00141888
0.00103613
0.00140457
0.00103652
0.00138752
0.00103742
0.00136789
0.00103881
0.00134583
0.00104065
0.00132151
0.0010429
0.00129529
0.00104552
0.00126748
0.00104847
0.00123793
0.00105172
0.00120683
0.00105522
0.00117506
0.00105896
0.00113793
0.0010628
0.00117122
0.00106856
0.00120756
0.00107536
0.00174137
0.00092899
0.00172152
0.000800396
0.00166173
0.000794464
0.00160146
0.000794088
0.00154101
0.000793672
0.00148074
0.000793337
0.00142077
0.000792997
0.00136159
0.000792652
0.00130339
0.000792302
0.00124626
0.000791875
0.00119026
0.000791356
0.00113553
0.000790747
0.00108219
0.000790085
0.00103039
0.000789383
0.000980187
0.000788616
0.000931658
0.000787781
0.000884798
0.000786845
0.000839651
0.0007858
0.00079619
0.000784647
0.000754467
0.000783395
0.000714428
0.000782041
0.000676119
0.000780602
0.000639465
0.000779063
0.000604488
0.000777433
0.000571105
0.000775695
0.000539322
0.000773848
0.000509048
0.000771884
0.000509133
0.000769796
0.000509463
0.000776707
0.000509863
0.000783872
0.000510338
0.000791264
0.000510886
0.000798834
0.000511507
0.000806544
0.0005122
0.000814351
0.000512965
0.000822213
0.000513801
0.000830085
0.000514707
0.000837922
0.000515685
0.000845677
0.000516735
0.000853302
0.000517858
0.000860749
0.000519058
0.000867973
0.000520335
0.000874927
0.000521691
0.00088157
0.000523127
0.000887858
0.000524644
0.000893753
0.000526241
0.000899217
0.000527969
0.000904212
0.000530082
0.000908702
0.000532296
0.000912651
0.000534612
0.000916026
0.000537026
0.000918795
0.000539536
0.000920929
0.000542139
0.000922407
0.000544838
0.000923214
0.000547631
0.00092334
0.00055052
0.000922773
0.000553503
0.00092151
0.000556582
0.000919549
0.000559756
0.000916891
0.000563025
0.000913541
0.000566387
0.00090951
0.000569838
0.000904813
0.000573376
0.000899475
0.000577
0.000893526
0.000580709
0.000887002
0.000584506
0.000879945
0.00058839
0.000872403
0.000592358
0.000864427
0.000596413
0.000856073
0.000600555
0.000847399
0.000604792
0.00083847
0.000609131
0.000829365
0.000613571
0.00082015
0.000618108
0.000810892
0.000622738
0.000801667
0.000627459
0.000792556
0.000632264
0.000783644
0.000637148
0.00077502
0.000642122
0.000766755
0.000647246
0.000758989
0.000652537
0.000751823
0.000657996
0.000745319
0.000663615
0.000739536
0.000669371
0.000734536
0.000675252
0.000730395
0.000681233
0.000727201
0.000687288
0.000725044
0.000693417
0.000724012
0.000699649
0.000724237
0.000705968
0.000725805
0.000712403
0.000728775
0.000718991
0.000733229
0.000725757
0.000739206
0.00073274
0.000746671
0.000740014
0.000755616
0.000747601
0.000766064
0.000755476
0.000778012
0.000763573
0.000791456
0.000771872
0.000806365
0.000780045
0.00082267
0.000788847
0.000840564
0.00144822
0.00144528
0.00104484
0.00143931
0.00104663
0.00143035
0.00104898
0.00141848
0.00105187
0.00140379
0.00105526
0.0013864
0.00105914
0.00136751
0.00106347
0.00134639
0.00106821
0.00132293
0.00107333
0.00129731
0.00107879
0.00126971
0.00108454
0.00124035
0.00109054
0.00120941
0.00109674
0.00117678
0.00110312
0.00114534
0.0011096
0.00116174
0.00111808
0.00121396
0.00112747
0.00174302
0.000974947
0.00172394
0.000841193
0.00166389
0.000836582
0.00160344
0.000837746
0.00154275
0.000838845
0.00148241
0.000839822
0.00142239
0.000840705
0.00136323
0.000841569
0.00130508
0.000842353
0.00124799
0.000843024
0.00119198
0.000843561
0.00113723
0.000843954
0.00108382
0.000844217
0.001032
0.000844363
0.000981756
0.000844375
0.000933243
0.000844266
0.000886374
0.000844016
0.000841245
0.000843623
0.000797761
0.000843086
0.000756039
0.000842408
0.000715961
0.000841582
0.000677644
0.00084062
0.000640952
0.000839506
0.000605972
0.000838252
0.000572559
0.000836848
0.000540782
0.000835295
0.000510487
0.000833594
0.000510451
0.000831734
0.000510829
0.00083805
0.000511264
0.000844602
0.000511759
0.000851363
0.000512316
0.000858283
0.000512934
0.000865322
0.00051361
0.000872433
0.000514343
0.000879573
0.000515133
0.000886697
0.000515977
0.000893761
0.000516876
0.000900723
0.000517832
0.000907536
0.000518847
0.000914159
0.000519925
0.000920549
0.000521069
0.00092666
0.000522282
0.000932451
0.000523566
0.000937878
0.000524922
0.000942899
0.000526382
0.000947474
0.00052855
0.000951564
0.000530829
0.000955134
0.000533218
0.000958153
0.000535717
0.000960591
0.000538322
0.000962421
0.000541028
0.000963621
0.000543829
0.00096417
0.000546726
0.000964056
0.000549716
0.000963263
0.000552799
0.00096178
0.000555976
0.000959599
0.000559246
0.000956718
0.000562612
0.000953142
0.00056607
0.000948879
0.000569615
0.000943943
0.000573241
0.000938356
0.000576945
0.00093214
0.000580722
0.000925323
0.00058457
0.000917938
0.000588494
0.000910022
0.00059249
0.000901624
0.000596556
0.0008928
0.000600695
0.00088361
0.00060491
0.000874114
0.000609209
0.000864385
0.0006136
0.0008545
0.000618083
0.000844522
0.000622653
0.000834518
0.000627305
0.000824558
0.000632032
0.000814722
0.000636827
0.000805091
0.000641687
0.000795751
0.000646632
0.00078677
0.000651734
0.000778287
0.000657021
0.000770405
0.000662497
0.000763194
0.000668144
0.000756719
0.000673938
0.000751043
0.000679858
0.000746242
0.000685878
0.0007424
0.000691969
0.0007396
0.000698139
0.000737915
0.000704436
0.000737465
0.000710847
0.000738319
0.000717388
0.000740527
0.000724109
0.000744141
0.000731125
0.000749186
0.000738525
0.000755642
0.000746385
0.000763547
0.000754694
0.000772972
0.000763393
0.000783933
0.000772377
0.000796415
0.000781686
0.000810342
0.000790758
0.000825553
0.000800935
0.000841999
0.00144723
0.00144388
0.00105298
0.0014375
0.00105784
0.00142816
0.00106322
0.00141756
0.00106911
0.00140475
0.00107547
0.00138914
0.00108228
0.00137083
0.00108951
0.00134999
0.00109712
0.00132678
0.00110507
0.00130137
0.00111333
0.00127395
0.00112183
0.00124473
0.00113055
0.00121392
0.00113943
0.0011816
0.00114842
0.00114886
0.00115748
0.00116968
0.00116864
0.00121498
0.00118092
0.00174461
0.00102226
0.00172568
0.000883532
0.0016657
0.000880127
0.0016052
0.000882662
0.00154452
0.000885103
0.00148406
0.000887369
0.00142401
0.000889495
0.00136486
0.00089148
0.00130668
0.000893298
0.00124959
0.000894972
0.00119356
0.000896483
0.0011388
0.00089782
0.00108537
0.000898975
0.00103355
0.000899952
0.00098329
0.000900728
0.000934786
0.000901321
0.000887894
0.000901723
0.000842777
0.000901941
0.000799273
0.000901974
0.000757563
0.000901832
0.000717466
0.0009015
0.000679159
0.000900992
0.000642447
0.000900289
0.000607475
0.000899403
0.000574041
0.000898326
0.000542267
0.000897061
0.000511954
0.000895611
0.000511664
0.000893971
0.000512093
0.000899683
0.000512565
0.00090561
0.000513081
0.000911726
0.000513643
0.000917981
0.00051425
0.000924335
0.000514899
0.000930741
0.000515591
0.000937157
0.000516325
0.000943537
0.000517099
0.000949838
0.000517915
0.000956015
0.000518774
0.000962026
0.00051968
0.000967828
0.000520636
0.000973379
0.000521646
0.000978637
0.000522712
0.00098356
0.000523837
0.000988106
0.000525064
0.000992236
0.000527276
0.00099591
0.000529603
0.00099909
0.000532047
0.00100174
0.000534606
0.00100383
0.00053728
0.00100534
0.000540063
0.00100623
0.000542951
0.00100648
0.000545939
0.00100609
0.000549027
0.00100502
0.000552213
0.00100328
0.000555493
0.00100085
0.000558868
0.000997721
0.000562334
0.0009939
0.000565892
0.000989387
0.000569536
0.000984194
0.000573262
0.000978336
0.000577061
0.000971835
0.00058093
0.000964715
0.000584866
0.000957006
0.000588867
0.000948741
0.000592925
0.000939959
0.000597034
0.000930706
0.000601195
0.000921034
0.000605412
0.000911
0.000609689
0.000900666
0.000614039
0.000890107
0.000618471
0.000879401
0.000622988
0.000868618
0.000627584
0.000857827
0.000632251
0.000847102
0.000636978
0.000836522
0.000641756
0.000826167
0.000646587
0.000816118
0.000651501
0.000806439
0.000656573
0.000797272
0.000661837
0.000788711
0.000667303
0.000780828
0.00067295
0.000773687
0.000678754
0.000767353
0.000684694
0.000761898
0.00069074
0.000757402
0.000696866
0.000753941
0.000703095
0.000751578
0.000709488
0.000750423
0.000716034
0.000750536
0.000722747
0.000751959
0.000729711
0.000754738
0.00073706
0.000758899
0.000744911
0.000764431
0.00075336
0.000771383
0.000762389
0.000779835
0.000771933
0.000789796
0.000781883
0.000801233
0.000792324
0.000814058
0.000802842
0.000828105
0.000814524
0.000843296
0.00144401
0.00144151
0.00106275
0.00143809
0.00107063
0.00143159
0.001079
0.00142207
0.00108783
0.00140959
0.00109711
0.00139428
0.00110681
0.00137625
0.0011169
0.00135566
0.00112734
0.00133266
0.00113808
0.00130744
0.00114909
0.00128018
0.00116032
0.00125108
0.00117171
0.00122034
0.00118322
0.0011883
0.0011948
0.00115432
0.00120637
0.00117828
0.00122011
0.00121786
0.00123542
0.00174521
0.0010709
0.00172652
0.000927433
0.00166676
0.000925087
0.00160637
0.000928858
0.00154582
0.000932522
0.00148545
0.000936056
0.00142545
0.000939367
0.00136636
0.000942426
0.00130816
0.000945233
0.00125109
0.000947857
0.00119503
0.000950288
0.0011403
0.000952526
0.00108687
0.000954539
0.00103509
0.000956319
0.000984819
0.000957841
0.000936338
0.000959123
0.000889424
0.000960162
0.00084432
0.000960973
0.000800791
0.000961556
0.00075909
0.000961922
0.000718977
0.000962058
0.000680686
0.000961979
0.00064396
0.000961665
0.000609003
0.000961132
0.000575554
0.00096037
0.000543791
0.000959386
0.000513463
0.00095818
0.000512808
0.000956751
0.000513286
0.000961859
0.000513792
0.000967162
0.000514328
0.00097263
0.000514893
0.000978216
0.000515485
0.000983879
0.000516104
0.000989575
0.000516748
0.000995261
0.000517419
0.00100089
0.000518115
0.00100643
0.00051884
0.00101182
0.000519596
0.00101703
0.000520386
0.00102201
0.000521214
0.00102672
0.000522083
0.00103113
0.000522997
0.00103518
0.000524034
0.00103885
0.000526267
0.00104208
0.000528625
0.00104485
0.000531107
0.00104711
0.000533711
0.00104884
0.000536438
0.00105
0.000539283
0.00105056
0.000542242
0.00105051
0.00054531
0.00104982
0.000548483
0.00104846
0.00055176
0.00104644
0.000555138
0.00104374
0.000558615
0.00104035
0.000562186
0.00103626
0.000565849
0.00103148
0.000569599
0.00102601
0.000573432
0.00101986
0.000577339
0.00101305
0.000581312
0.0010056
0.000585346
0.000997543
0.000589442
0.000988901
0.000593594
0.000979713
0.000597791
0.000970019
0.000602025
0.000959867
0.000606291
0.000949309
0.000610594
0.000938403
0.000614939
0.000927209
0.000619338
0.000915803
0.000623802
0.000904263
0.00062834
0.000892657
0.000632943
0.000881056
0.000637603
0.000869537
0.000642309
0.000858182
0.000647053
0.000847072
0.00065184
0.000836285
0.000656707
0.00082589
0.000661734
0.000816028
0.000666959
0.000806786
0.000672393
0.000798235
0.000678018
0.000790435
0.000683808
0.000783451
0.000689745
0.000777349
0.000695805
0.000772205
0.000701966
0.000768085
0.000708266
0.000765044
0.000714779
0.000763188
0.000721492
0.000762569
0.000728419
0.000763221
0.000735668
0.000765189
0.000743386
0.000768494
0.000751712
0.000773118
0.000760782
0.000779111
0.000770571
0.000786565
0.000781006
0.000795489
0.000791976
0.000805836
0.000803605
0.000817499
0.000815617
0.000830334
0.000829091
0.000844233
0.00144709
0.00144715
0.00107416
0.00144408
0.00108501
0.00143792
0.0010963
0.00142871
0.00110804
0.00141655
0.00112019
0.00140151
0.00113272
0.00138374
0.00114562
0.00136337
0.00115883
0.00134057
0.00117232
0.0013155
0.00118604
0.00128837
0.00119994
0.00125935
0.00121397
0.00122867
0.00122807
0.00119664
0.00124219
0.00116265
0.00125626
0.00118668
0.00127259
0.00122387
0.00129058
0.00174534
0.00112016
0.00172718
0.000971458
0.00166757
0.000970136
0.00160724
0.000975226
0.00154675
0.000980177
0.00148648
0.000984951
0.00142661
0.000989442
0.00136764
0.000993636
0.00130945
0.000997538
0.00125239
0.00100119
0.00119631
0.00100458
0.00114162
0.00100771
0.00108822
0.00101056
0.0010365
0.00101312
0.000986248
0.00101537
0.000937806
0.00101734
0.000890886
0.00101903
0.000845804
0.00102044
0.000802269
0.00102159
0.000760592
0.00102247
0.000720477
0.00102308
0.000682212
0.00102343
0.000645483
0.0010235
0.000610549
0.00102332
0.000577094
0.00102287
0.000545349
0.00102216
0.000515013
0.0010212
0.000513838
0.00101998
0.000514362
0.00102449
0.000514901
0.00102918
0.000515454
0.00103401
0.000516019
0.00103894
0.000516594
0.00104392
0.000517178
0.00104891
0.000517772
0.00105388
0.000518375
0.00105877
0.000518989
0.00106354
0.000519618
0.00106815
0.000520263
0.00107256
0.00052093
0.00107673
0.000521623
0.00108062
0.000522345
0.00108418
0.000523315
0.00108737
0.000525552
0.00109016
0.000527921
0.0010925
0.000530423
0.00109437
0.000533057
0.00109571
0.000535821
0.00109651
0.000538714
0.00109674
0.00054173
0.00109636
0.000544865
0.00109535
0.000548115
0.0010937
0.000551476
0.00109139
0.000554947
0.0010884
0.000558524
0.00108473
0.000562202
0.00108037
0.000565977
0.0010753
0.000569842
0.00106954
0.000573793
0.0010631
0.000577821
0.00105598
0.000581916
0.0010482
0.000586068
0.00103979
0.000590275
0.00103077
0.000594533
0.00102117
0.000598835
0.00101104
0.000603169
0.00100042
0.000607521
0.000989346
0.000611889
0.000977879
0.000616274
0.000966073
0.000620682
0.000953992
0.000625127
0.000941708
0.000629621
0.000929302
0.000634171
0.000916841
0.000638768
0.000904395
0.000643403
0.000892044
0.000648067
0.00087987
0.000652753
0.000867955
0.00065747
0.000856378
0.000662268
0.000845223
0.000667228
0.000834622
0.000672387
0.000824661
0.000677762
0.000815409
0.000683336
0.000806928
0.000689087
0.00079928
0.000695005
0.000792527
0.000701068
0.000786737
0.000707263
0.000781964
0.000713642
0.000778256
0.000720289
0.000775714
0.00072719
0.000774379
0.000734362
0.000774279
0.000741926
0.000775451
0.000750052
0.000777912
0.000758903
0.000781639
0.000768637
0.000786689
0.00077924
0.000793161
0.000790628
0.000801056
0.000802683
0.000810303
0.000815563
0.000820789
0.000829183
0.000832383
0.000844453
0.000845003
0.00145458
0.00145496
0.00108721
0.00145222
0.00110097
0.00144638
0.00111514
0.00143747
0.00112971
0.00142559
0.00114467
0.00141082
0.00115999
0.00139328
0.00117564
0.00137311
0.00119158
0.00135047
0.00120776
0.00132554
0.00122414
0.0012985
0.00124066
0.00126954
0.00125727
0.00123887
0.00127391
0.00120676
0.00129053
0.00117307
0.00130706
0.00119624
0.00132589
0.00123263
0.00134621
0.00174522
0.00117001
0.00172771
0.0010157
0.00166808
0.00101546
0.0016078
0.00102188
0.00154735
0.00102811
0.0014872
0.0010341
0.00142745
0.00103977
0.00136861
0.0010451
0.00131045
0.00105009
0.00125345
0.00105477
0.00119739
0.00105912
0.00114278
0.00106316
0.00108942
0.00106685
0.00103778
0.00107021
0.000987567
0.00107322
0.000939178
0.00107589
0.000892264
0.00107823
0.000847217
0.00108025
0.000803687
0.00108196
0.000762047
0.00108336
0.000721944
0.00108443
0.000683715
0.00108521
0.000646994
0.00108568
0.00061209
0.00108584
0.000578637
0.00108571
0.000546916
0.00108529
0.000516578
0.00108458
0.000514753
0.00108358
0.00051532
0.00108749
0.000515887
0.00109156
0.000516451
0.00109575
0.000517009
0.00110001
0.000517561
0.00110431
0.000518105
0.0011086
0.000518642
0.00111283
0.000519173
0.00111698
0.0005197
0.00112098
0.000520227
0.00112482
0.000520757
0.00112843
0.000521296
0.00113179
0.000521847
0.00113485
0.00052289
0.00113756
0.000525112
0.0011399
0.000527477
0.00114182
0.000529983
0.00114328
0.000532631
0.00114425
0.000535418
0.0011447
0.000538342
0.00114459
0.0005414
0.0011439
0.000544588
0.00114259
0.000547901
0.00114066
0.000551335
0.00113807
0.00055489
0.00113482
0.000558559
0.0011309
0.000562341
0.00112628
0.000566229
0.00112097
0.000570214
0.00111497
0.000574289
0.00110827
0.000578446
0.00110089
0.000582676
0.00109283
0.000586967
0.00108412
0.000591308
0.00107478
0.000595695
0.00106483
0.000600124
0.0010543
0.000604584
0.00104323
0.000609062
0.00103166
0.000613546
0.00101963
0.000618028
0.0010072
0.000622505
0.00099443
0.000626985
0.000981389
0.000631478
0.000968153
0.000636001
0.000954802
0.00064056
0.000941405
0.000645143
0.00092804
0.000649739
0.000914789
0.000654341
0.000901734
0.000658942
0.00088896
0.000663551
0.000876541
0.000668245
0.000864575
0.000673098
0.000853175
0.000678151
0.000842426
0.000683427
0.000832396
0.000688912
0.000823149
0.000694594
0.000814746
0.000700467
0.000807253
0.000706517
0.000800734
0.00071274
0.000795235
0.000719202
0.000790801
0.000725993
0.000787524
0.000733098
0.000785435
0.000740535
0.000784552
0.000748442
0.000784908
0.000757006
0.000786514
0.000766416
0.000789344
0.000776853
0.000793462
0.000788311
0.000798978
0.000800696
0.000805879
0.000813877
0.000814074
0.000828043
0.000823464
0.000843306
0.00083395
0.000860194
0.000845399
0.00146423
0.00146492
0.00110193
0.00146248
0.00111852
0.00145693
0.0011355
0.00144831
0.00115285
0.00143669
0.00117056
0.00142216
0.0011886
0.00140483
0.00120695
0.00138484
0.00122555
0.00136235
0.00124437
0.00133752
0.00126335
0.00131055
0.00128244
0.00128162
0.00130158
0.00125093
0.00132071
0.00121877
0.00133977
0.00118484
0.0013587
0.00120754
0.00137997
0.00124193
0.00140275
0.00174491
0.00122071
0.00172783
0.00106082
0.00166823
0.00106162
0.00160805
0.00106932
0.00154768
0.00107678
0.00148768
0.00108395
0.00142807
0.00109073
0.00136935
0.00109715
0.00131125
0.00110317
0.00125433
0.00110882
0.00119832
0.00111407
0.0011438
0.00111893
0.0010905
0.0011234
0.00103896
0.0011275
0.000988779
0.0011312
0.000940448
0.00113453
0.000893553
0.00113748
0.000848555
0.00114007
0.000805046
0.0011423
0.000763458
0.00114418
0.000723374
0.0011457
0.000685191
0.00114689
0.000648484
0.00114772
0.000613613
0.00114822
0.000580167
0.00114838
0.000548473
0.00114822
0.000518143
0.00114774
0.000515514
0.00114694
0.000516117
0.00115024
0.000516704
0.00115367
0.000517271
0.00115719
0.000517816
0.00116078
0.000518337
0.00116437
0.000518834
0.00116793
0.000519309
0.00117142
0.000519763
0.0011748
0.000520198
0.00117803
0.000520619
0.00118106
0.000521031
0.00118386
0.000521436
0.00118639
0.000522739
0.00118861
0.000524931
0.00119046
0.000527274
0.00119193
0.000529768
0.00119296
0.000532414
0.00119352
0.000535209
0.00119359
0.00053815
0.00119312
0.000541236
0.00119208
0.000544463
0.00119046
0.000547828
0.00118822
0.000551325
0.00118535
0.00055495
0.00118182
0.000558701
0.00117763
0.000562576
0.00117276
0.000566569
0.00116721
0.000570673
0.00116096
0.000574877
0.00115403
0.000579171
0.0011464
0.000583547
0.0011381
0.000587993
0.00112913
0.000592497
0.00111951
0.000597047
0.00110927
0.000601637
0.00109843
0.00060626
0.00108702
0.000610904
0.00107507
0.000615552
0.00106263
0.000620187
0.00104975
0.000624785
0.00103649
0.000629353
0.00102289
0.000633899
0.00100902
0.000638435
0.000994952
0.00064298
0.000980762
0.000647535
0.000966526
0.000652084
0.000952318
0.00065662
0.000938217
0.00066114
0.000924305
0.000665636
0.000910666
0.000670124
0.000897372
0.000674703
0.000884529
0.000679433
0.000872248
0.000684356
0.000860617
0.000689503
0.000849712
0.000694868
0.000839604
0.000700437
0.000830357
0.000706224
0.000822034
0.000712227
0.000814695
0.000718451
0.000808378
0.00072498
0.000803136
0.00073191
0.000799049
0.00073922
0.00079614
0.00074693
0.000794422
0.000755192
0.000793922
0.000764211
0.000794645
0.000774201
0.000796561
0.000785363
0.000799749
0.000797699
0.000804323
0.000811092
0.00081026
0.000825383
0.00081745
0.000840886
0.000825811
0.000857825
0.000835286
0.00087598
0.000845796
0.00147602
0.00147699
0.00111832
0.00147483
0.00113767
0.00146956
0.00115738
0.0014612
0.00117744
0.00144983
0.00119783
0.00143551
0.00121853
0.00141838
0.00123951
0.00139855
0.00126071
0.00137618
0.0012821
0.00135143
0.00130363
0.00132449
0.00132522
0.00129555
0.00134683
0.00126482
0.00136839
0.00123268
0.00138987
0.00119788
0.00141111
0.00122117
0.00143467
0.00125167
0.00146014
0.0017439
0.0012721
0.0017277
0.00110673
0.00166823
0.00110858
0.00160822
0.00111758
0.00154796
0.00112626
0.00148813
0.00113459
0.00142863
0.00114247
0.00137003
0.00114993
0.001312
0.00115694
0.00125516
0.00116351
0.00119921
0.00116959
0.00114477
0.00117521
0.00109152
0.00118034
0.00104007
0.00118505
0.00098994
0.00118936
0.00094168
0.00119329
0.000894814
0.00119683
0.000849872
0.00119997
0.000806394
0.00120271
0.000764865
0.00120507
0.000724807
0.00120702
0.000686676
0.00120859
0.000649986
0.00120977
0.000615155
0.00121059
0.00058172
0.00121104
0.000550054
0.00121114
0.000519738
0.00121088
0.000516101
0.00121028
0.000516736
0.00121298
0.000517338
0.00121579
0.000517901
0.00121868
0.000518427
0.0012216
0.000518911
0.00122451
0.000519356
0.00122738
0.000519762
0.00123015
0.000520133
0.00123279
0.000520472
0.00123527
0.000520783
0.00123753
0.00052107
0.00123954
0.000522901
0.00124125
0.000525045
0.00124263
0.000527348
0.00124364
0.000529812
0.00124424
0.000532436
0.00124439
0.00053522
0.00124405
0.000538161
0.0012432
0.000541258
0.00124181
0.000544507
0.00123983
0.000547905
0.00123726
0.000551448
0.00123407
0.000555132
0.00123023
0.000558954
0.00122573
0.000562911
0.00122056
0.000567
0.0012147
0.000571213
0.00120816
0.000575542
0.00120092
0.000579974
0.001193
0.000584498
0.00118439
0.000589101
0.00117511
0.000593771
0.00116517
0.000598496
0.00115459
0.000603261
0.0011434
0.00060806
0.00113162
0.000612882
0.00111929
0.000617711
0.00110644
0.000622529
0.00109311
0.000627316
0.00107936
0.000632046
0.00106524
0.000636725
0.0010508
0.000641358
0.00103609
0.000645954
0.0010212
0.000650531
0.00100619
0.000655091
0.000991145
0.000659616
0.000976141
0.000664099
0.000961254
0.000668541
0.000946566
0.000672929
0.00093216
0.000677296
0.000918104
0.000681739
0.000904512
0.000686316
0.000891475
0.000691072
0.000879077
0.000696045
0.000867393
0.000701242
0.000856495
0.00070666
0.00084645
0.000712326
0.000837321
0.00071825
0.000829166
0.000724449
0.000822021
0.000731027
0.000815948
0.000738078
0.000811023
0.00074558
0.000807263
0.000753554
0.000804679
0.000762166
0.000803295
0.000771641
0.000803111
0.000782214
0.000804095
0.000794102
0.000806351
0.000807305
0.000809984
0.000821677
0.000814951
0.000837044
0.000821112
0.000853908
0.000828419
0.000872396
0.000836915
0.000891736
0.000846326
0.0014899
0.00149113
0.00113639
0.00148923
0.00115843
0.00148421
0.0011808
0.0014761
0.00120349
0.00146495
0.00122649
0.00145084
0.00124978
0.00143388
0.00127331
0.00141419
0.00129705
0.00139191
0.00132094
0.00136722
0.00134494
0.0013403
0.00136898
0.00131132
0.001393
0.00128051
0.00141692
0.00124816
0.00144069
0.00121357
0.00146423
0.00123593
0.00149024
0.00126392
0.00151792
0.00174212
0.00132343
0.00172701
0.00115233
0.00166768
0.00115502
0.00160787
0.0011652
0.00154775
0.00117499
0.00148812
0.00118439
0.00142877
0.0011933
0.00137033
0.00120178
0.00131243
0.00120977
0.00125577
0.00121729
0.00119998
0.0012243
0.00114573
0.00123084
0.00109259
0.00123688
0.00104121
0.00124245
0.000991112
0.00124755
0.000942902
0.0012522
0.00089607
0.00125639
0.000851192
0.00126014
0.000807755
0.00126342
0.000766291
0.00126627
0.000726266
0.00126867
0.000688184
0.00127066
0.000651517
0.00127222
0.000616721
0.00127338
0.000583303
0.00127413
0.000551668
0.0012745
0.000521363
0.00127449
0.000516547
0.00127408
0.000517206
0.00127617
0.000517815
0.00127835
0.000518368
0.00128058
0.000518866
0.00128283
0.000519306
0.00128504
0.000519691
0.00128719
0.000520022
0.00128923
0.000520303
0.00129112
0.000520538
0.00129282
0.000521461
0.0012943
0.000523375
0.00129551
0.000525457
0.00129641
0.000527707
0.00129696
0.000530126
0.00129713
0.000532714
0.00129687
0.000535471
0.00129616
0.000538397
0.00129495
0.000541489
0.00129322
0.000544745
0.00129094
0.000548162
0.00128808
0.000551737
0.00128461
0.000555466
0.00128051
0.000559345
0.00127577
0.000563372
0.00127036
0.000567543
0.00126428
0.000571851
0.00125751
0.000576291
0.00125005
0.000580851
0.0012419
0.000585517
0.00123306
0.000590275
0.00122353
0.000595111
0.00121332
0.000600012
0.00120245
0.000604963
0.00119093
0.00060995
0.0011788
0.000614965
0.00116606
0.000619993
0.00115277
0.000625019
0.00113895
0.000630016
0.00112464
0.000634963
0.00110991
0.000639837
0.0010948
0.000644641
0.00107937
0.00064937
0.00106369
0.000654032
0.00104783
0.000658643
0.00103188
0.000663203
0.0010159
0.000667696
0.000999976
0.000672118
0.000984186
0.000676467
0.000968612
0.000680731
0.000953336
0.000684965
0.000938439
0.000689264
0.000924029
0.000693681
0.000910189
0.000698262
0.000896996
0.000703051
0.00088452
0.000708063
0.000872831
0.000713309
0.000861993
0.000718833
0.000852069
0.000724656
0.000843112
0.000730807
0.000835151
0.000737409
0.000828264
0.000744557
0.000822511
0.000752226
0.000817907
0.000760442
0.00081446
0.000769387
0.000812195
0.000779302
0.000811113
0.000790438
0.000811182
0.000803034
0.000812533
0.000817078
0.000815249
0.00083238
0.000819266
0.000848856
0.000824425
0.000867023
0.000830714
0.000887036
0.000838244
0.000907514
0.000846649
0.00150583
0.00150729
0.00115617
0.00150564
0.00118081
0.00150086
0.00120576
0.00149298
0.001231
0.00148204
0.00125653
0.00146811
0.00128232
0.0014513
0.00130833
0.00143173
0.00133453
0.00140953
0.00136085
0.00138487
0.00138725
0.00135793
0.00141366
0.0013289
0.00144001
0.00129797
0.00146624
0.00126533
0.00149227
0.00123113
0.00151802
0.00125187
0.00154628
0.00127747
0.00157611
0.00174046
0.00137521
0.00172669
0.0011981
0.00166741
0.00120161
0.00160776
0.00121297
0.00154777
0.00122388
0.00148831
0.00123435
0.00142906
0.00124428
0.00137074
0.00125373
0.00131293
0.00126263
0.00125641
0.00127102
0.00120071
0.00127885
0.00114659
0.00128618
0.00109353
0.00129295
0.00104225
0.00129921
0.000992181
0.00130494
0.000944028
0.00131017
0.000897235
0.00131489
0.000852427
0.00131912
0.000809035
0.00132284
0.000767638
0.00132612
0.000727652
0.00132891
0.000689623
0.00133126
0.000652987
0.00133315
0.00061823
0.00133462
0.000584839
0.00133566
0.000553238
0.00133627
0.000522962
0.00133648
0.000516839
0.00133625
0.000517514
0.0013377
0.00051812
0.00133923
0.000518656
0.00134078
0.000519119
0.00134232
0.00051951
0.00134382
0.000519829
0.00134523
0.00052008
0.00134651
0.000520649
0.00134764
0.000522299
0.00134855
0.000524126
0.00134923
0.000526128
0.00134962
0.000528306
0.00134969
0.000530661
0.0013494
0.000533194
0.00134872
0.000535906
0.0013476
0.000538796
0.00134601
0.000541863
0.00134392
0.000545106
0.00134131
0.000548522
0.00133813
0.000552109
0.00133437
0.000555863
0.00133
0.000559783
0.001325
0.000563864
0.00131935
0.000568105
0.00131304
0.000572502
0.00130605
0.000577045
0.00129838
0.000581731
0.00129002
0.000586544
0.00128097
0.00059147
0.00127123
0.000596492
0.00126082
0.000601595
0.00124974
0.000606762
0.00123801
0.000611978
0.00122564
0.000617226
0.00121266
0.000622494
0.00119911
0.000627761
0.001185
0.000632998
0.00117039
0.000638187
0.0011553
0.000643305
0.0011398
0.000648328
0.00112393
0.000653244
0.00110775
0.000658053
0.00109131
0.000662764
0.00107468
0.000667397
0.00105793
0.000671948
0.00104116
0.000676397
0.00102442
0.000680738
0.00100781
0.000684973
0.000991386
0.00068909
0.000975239
0.000693165
0.000959453
0.000697293
0.000944142
0.000701525
0.000929405
0.000705905
0.000915322
0.000710483
0.000901966
0.000715283
0.000889405
0.000720329
0.000877703
0.000725685
0.000866921
0.000731384
0.000857108
0.000737466
0.000848292
0.000744073
0.00084056
0.000751299
0.000833954
0.000759117
0.000828486
0.000767554
0.000824158
0.000776808
0.000820991
0.000787139
0.000818991
0.000798812
0.000818127
0.000812091
0.000818557
0.000826932
0.000820332
0.000843133
0.000823368
0.00086075
0.000827523
0.000880136
0.00083289
0.000901582
0.000839439
0.000923107
0.000846886
0.00152375
0.00152543
0.00117768
0.001524
0.00120483
0.00151945
0.00123226
0.00151178
0.00125996
0.00150104
0.00128793
0.00148728
0.00131614
0.00147061
0.00134456
0.00145113
0.00137313
0.00142899
0.00140181
0.00140435
0.00143053
0.00137736
0.00145923
0.00134824
0.00148785
0.00131716
0.00151629
0.00128436
0.0015445
0.00124974
0.00157238
0.00127006
0.00160282
0.00129132
0.00163501
0.00174274
0.00142786
0.00172598
0.00124478
0.00166682
0.00124897
0.00160742
0.0012614
0.0015476
0.00127333
0.00148835