/*--------------------------------*- C++ -*----------------------------------*\
| =========                 |                                                 |
| \\      /  F ield         | OpenFOAM: The Open Source CFD Toolbox           |
|  \\    /   O peration     | Version:  2.2.x                                 |
|   \\  /    A nd           | Web:      www.OpenFOAM.org                      |
|    \\/     M anipulation  |                                                 |
\*---------------------------------------------------------------------------*/
FoamFile
{
    version     2.0;
    format      ascii;
    class       volScalarField;
    location    "0.03";
    object      Ma;
}
// * * * * * * * * * * * * * * * * * * * * * * * * * * * * * * * * * * * * * //

dimensions      [0 0 0 0 0 0 0];

internalField   nonuniform List<scalar> 
1024
(
7.74597
7.74597
7.74597
7.74597
7.74597
7.74597
7.74597
7.74597
7.74597
7.74597
7.74597
7.74597
7.74597
7.74597
7.74597
7.74597
7.74597
7.74597
7.74597
7.74597
7.74597
7.74597
7.74597
7.74597
7.74597
7.74597
7.74597
7.74597
7.74597
7.74597
7.74597
7.74597
7.74597
7.74597
7.74597
7.74597
7.74597
7.74597
7.74597
7.74597
7.74597
7.74597
7.74597
7.74597
7.74597
7.74597
7.74597
7.74597
7.74597
7.74597
7.74597
7.74597
7.74597
7.74597
7.74597
7.74597
7.74597
7.74597
7.74597
7.74597
7.74597
7.74597
7.74597
7.74597
7.74597
7.74597
7.74597
7.74597
7.74597
7.74597
7.74597
7.74597
7.74597
7.74597
7.74597
7.74597
7.74597
7.74597
7.74597
7.74597
7.74597
7.74597
7.74597
7.74597
7.74597
7.74597
7.74597
7.74597
7.74597
7.74597
7.74597
7.74597
7.74597
7.74597
7.74597
7.74597
7.74597
7.74597
7.74597
7.74597
7.74597
7.74597
7.74597
7.74597
7.74597
7.74597
7.74597
7.74597
7.74597
7.74597
7.74597
7.74597
7.74597
7.74597
7.74597
7.74597
7.74597
7.74597
7.74597
7.74597
7.74597
7.74597
7.74597
7.74597
7.74597
7.74597
7.74597
7.74597
7.74597
7.74597
7.74597
7.74597
7.74597
7.74597
7.74597
7.74597
7.74597
7.74597
7.74597
7.74597
7.74597
7.74597
7.74597
7.74597
7.74597
7.74597
7.74597
7.74597
7.74597
7.74597
7.74597
7.74597
7.74597
7.74597
7.74597
7.74597
7.74597
7.74597
7.74597
7.74597
7.74597
7.74597
7.74597
7.74597
7.74597
7.74597
7.74597
7.74597
7.74597
7.74597
7.74597
7.74597
7.74597
7.74597
7.74597
7.74597
7.74597
7.74597
7.74597
7.74597
7.74597
7.74597
7.74597
7.74597
7.74597
7.74597
7.74597
7.74597
7.74597
7.74597
7.74597
7.74597
7.74597
7.74597
7.74597
7.74597
7.74597
7.74597
7.74597
7.74597
7.74597
7.74597
7.74597
7.74597
7.74597
7.74597
7.74597
7.74597
7.74597
7.74597
7.74597
7.74597
7.74597
7.74597
7.74597
7.74597
7.74597
7.74597
7.74597
7.74597
7.74597
7.74597
7.74597
7.74597
7.74597
7.74597
7.74597
7.74597
7.74597
7.74597
7.74597
7.74597
7.74597
7.74597
7.74597
7.74597
7.74597
7.74597
7.74597
7.74597
7.74597
7.74597
7.74597
7.74597
7.74597
7.74597
7.74597
7.74597
7.74597
7.74597
7.74597
7.74597
7.74597
7.74597
7.74597
7.74597
7.74597
7.74597
7.74597
7.74597
7.74597
7.74597
7.74597
7.74597
7.74597
7.74597
7.74597
7.74597
7.74597
7.74597
7.74597
7.74597
7.74597
7.74597
7.74597
7.74597
7.74597
7.74597
7.74597
7.74597
7.74597
7.74597
7.74597
7.74597
7.74597
7.74597
7.74597
7.74597
7.74597
7.74597
7.74597
7.74597
7.74597
7.74597
7.74597
7.74597
7.74597
7.74597
7.74597
7.74597
7.74597
7.74597
7.74597
7.74597
7.74597
7.74597
7.74597
7.74597
7.74597
7.74597
7.74597
7.74597
7.74597
7.74597
7.74597
7.74597
7.74597
7.74597
7.74597
7.74597
7.74597
7.74597
7.74597
7.74597
7.74597
7.74597
7.74597
7.74597
7.74597
7.74597
7.74597
7.74597
7.74597
7.74597
7.74597
7.74597
7.74597
7.74597
7.74597
7.74597
7.74597
7.74597
7.74597
7.74597
7.74597
7.74597
7.74597
7.74597
7.74597
7.74597
7.74597
7.74597
7.74597
7.74597
7.74597
7.74597
7.74597
7.74597
7.74597
7.74597
7.74597
7.74597
7.74597
7.74597
7.74597
7.74597
7.74597
7.74597
7.74597
7.7506
0.221577
0.0797284
0.0974787
0.101059
0.100857
0.100672
0.100673
0.100671
0.100694
0.100702
0.100733
0.10076
0.100758
0.100744
0.100725
0.100705
0.100701
0.100708
0.100727
0.100743
0.100745
0.100744
0.100732
0.100715
0.10071
0.100708
0.10071
0.100718
0.100725
0.100727
0.100727
0.100726
0.100722
0.100721
0.100722
0.100724
0.100728
0.10073
0.10073
0.100729
0.100727
0.100724
0.100723
0.100723
0.100724
0.100725
0.100725
0.100725
0.100723
0.100721
0.10072
0.100721
0.100723
0.100725
0.100728
0.100729
0.100727
0.100725
0.100722
0.100719
0.100719
0.10072
0.100722
0.100725
0.100728
0.100731
0.100732
0.100731
0.10073
0.100726
0.100722
0.10072
0.100719
0.10072
0.100721
0.100722
0.100721
0.100718
0.100716
0.100714
0.100714
0.100714
0.10071
0.100705
0.100697
0.100692
0.100708
0.100735
0.10076
0.100769
0.100745
0.100656
0.100483
0.100194
0.0994953
0.0979186
0.0951081
0.0912107
0.0887192
0.0906093
0.0936375
0.0963751
0.0982843
0.0994167
0.0999775
0.100181
0.100248
0.100242
0.100103
0.100044
0.100014
0.0999908
0.100014
0.0999443
0.0997359
0.0992954
0.0985277
0.0972199
0.0950216
0.0917628
0.0887842
0.0865409
0.0850236
0.0841041
0.0836177
0.0834049
0.0833355
0.0833292
0.0833561
0.0834186
0.0834506
0.0834563
0.0834331
0.0834442
0.0834919
0.0834886
0.0833664
0.0832346
0.0832404
0.083243
0.0829186
0.0824002
0.0819971
0.0815771
0.0804927
0.0795832
0.0788115
0.07833
0.0780911
0.0779909
0.0779674
0.0779791
0.0780324
0.0780966
0.0781415
0.0781696
0.0781823
0.0781899
0.0781919
0.078187
0.0781785
0.0781686
0.0781596
0.0781523
0.0781502
0.0781496
0.0781482
0.0781481
0.0781481
0.0781487
0.0781496
0.0781518
0.078154
0.078156
0.0781563
0.0781539
0.0781517
0.0781495
0.0781471
0.0781462
0.0781465
0.0781498
0.0781537
0.0781566
0.0781583
0.0781589
0.0781583
0.0781553
0.0781492
0.0781451
0.0781425
0.0781409
0.0781411
0.0781432
0.0781502
0.0781563
0.0781598
0.0781615
0.0781619
0.07816
0.0781533
0.0781456
0.0781417
0.0781409
0.0781418
0.0781433
0.0781481
0.078157
0.0781634
0.0781653
0.0781646
0.0781634
0.0781599
0.0781523
0.0781435
0.0781392
0.0781386
0.0781394
0.0781419
0.0781495
0.0781617
0.07817
0.0781738
0.0781752
0.0781741
0.0781688
0.0781552
0.0781414
0.0781335
0.0781303
0.0781296
0.0781323
0.0781434
0.0781606
0.0781728
0.0781789
0.07818
0.0781785
0.0781719
0.0781547
0.0781375
0.078127
0.0781231
0.0781236
0.0781292
0.0781452
0.0781649
0.078178
0.0781854
0.0781878
0.0781858
0.0781762
0.0781541
0.0781346
0.0781244
0.0781199
0.0781217
0.0781286
0.0781497
0.0781726
0.0781873
0.0781925
0.0781916
0.0781875
0.0781809
0.0781567
0.078129
0.0781136
0.0781104
0.0781159
0.0781323
0.078158
0.0781825
0.0781949
0.0782012
0.0781993
0.0781844
0.0781609
0.078144
0.0781244
0.0780983
0.078069
0.0780815
0.078129
0.078181
0.0781575
0.0786479
0.08176
0.0944881
0.194452
1.594
1.73205
1.73205
1.73205
1.73205
1.73205
1.73205
1.73205
1.73205
1.73205
1.73205
1.73205
1.73205
1.73205
1.73205
1.73205
1.73205
1.73205
1.73205
1.73205
1.73205
1.73205
1.73205
1.73205
1.73205
1.73205
1.73205
1.73205
1.73205
1.73205
1.73205
1.73205
1.73205
1.73205
1.73205
1.73205
1.73205
1.73205
1.73205
1.73205
1.73205
1.73205
1.73205
1.73205
1.73205
1.73205
1.73205
1.73205
1.73205
1.73205
1.73205
1.73205
1.73205
1.73205
1.73205
1.73205
1.73205
1.73205
1.73205
1.73205
1.73205
1.73205
1.73205
1.73205
1.73205
1.73205
1.73205
1.73205
1.73205
1.73205
1.73205
1.73205
1.73205
1.73205
1.73205
1.73205
1.73205
1.73205
1.73205
1.73205
1.73205
1.73205
1.73205
1.73205
1.73205
1.73205
1.73205
1.73205
1.73205
1.73205
1.73205
1.73205
1.73205
1.73205
1.73205
1.73205
1.73205
1.73205
1.73205
1.73205
1.73205
1.73205
1.73205
1.73205
1.73205
1.73205
1.73205
1.73205
1.73205
1.73205
1.73205
1.73205
1.73205
1.73205
1.73205
1.73205
1.73205
1.73205
1.73205
1.73205
1.73205
1.73205
1.73205
1.73205
1.73205
1.73205
1.73205
1.73205
1.73205
1.73205
1.73205
1.73205
1.73205
1.73205
1.73205
1.73205
1.73205
1.73205
1.73205
1.73205
1.73205
1.73205
1.73205
1.73205
1.73205
1.73205
1.73205
1.73205
1.73205
1.73205
1.73205
1.73205
1.73205
1.73205
1.73205
1.73205
1.73205
1.73205
1.73205
1.73205
1.73205
1.73205
1.73205
1.73205
1.73205
1.73205
1.73205
1.73205
1.73205
1.73205
1.73205
1.73205
1.73205
1.73205
1.73205
1.73205
1.73205
1.73205
1.73205
1.73205
1.73205
1.73205
1.73205
1.73205
1.73205
1.73205
1.73205
1.73205
1.73205
1.73205
1.73205
1.73205
1.73205
1.73205
1.73205
1.73205
1.73205
1.73205
1.73205
1.73205
1.73205
1.73205
1.73205
1.73205
1.73205
1.73205
1.73205
1.73205
1.73205
1.73205
1.73205
1.73205
1.73205
1.73205
1.73205
1.73205
1.73205
1.73205
1.73205
1.73205
1.73205
1.73205
1.73205
1.73205
1.73205
1.73205
1.73205
1.73205
1.73205
1.73205
1.73205
1.73205
1.73205
1.73205
1.73205
1.73205
1.73205
1.73205
1.73205
1.73205
1.73205
1.73205
1.73205
1.73205
1.73205
1.73205
1.73205
1.73205
1.73205
1.73205
1.73205
1.73205
1.73205
1.73205
1.73205
1.73205
1.73205
1.73205
1.73205
1.73205
1.73205
1.73205
1.73205
1.73205
1.73205
1.73205
1.73205
1.73205
1.73205
1.73205
1.73205
1.73205
1.73205
1.73205
1.73205
1.73205
1.73205
1.73205
1.73205
1.73205
1.73205
1.73205
1.73205
1.73205
1.73205
1.73205
1.73205
1.73205
1.73205
1.73205
1.73205
1.73205
1.73205
1.73205
1.73205
1.73205
1.73205
1.73205
1.73205
1.73205
1.73205
1.73205
1.73205
1.73205
1.73205
1.73205
1.73205
1.73205
1.73205
1.73205
1.73205
1.73205
1.73205
1.73205
1.73205
1.73205
1.73205
1.73205
1.73205
1.73205
1.73205
1.73205
1.73205
1.73205
1.73205
1.73205
1.73205
1.73205
1.73205
1.73205
1.73205
1.73205
1.73205
1.73205
1.73205
1.73205
1.73205
1.73205
1.73205
1.73205
1.73205
1.73205
1.73205
1.73205
1.73205
1.73205
1.73205
1.73205
1.73205
1.73205
1.73205
1.73205
1.73205
1.73205
1.73205
1.73205
1.73205
1.73205
1.73205
1.73205
1.73205
1.73205
1.73205
1.73205
)
;

boundaryField
{
    front-back
    {
        type            empty;
    }
    inlet-outlet
    {
        type            calculated;
        value           nonuniform List<scalar> 2(1.73205 7.74597);
    }
    top-down
    {
        type            empty;
    }
}


// ************************************************************************* //
