/*--------------------------------*- C++ -*----------------------------------*\
| =========                 |                                                 |
| \\      /  F ield         | OpenFOAM: The Open Source CFD Toolbox           |
|  \\    /   O peration     | Version:  2.2.x                                 |
|   \\  /    A nd           | Web:      www.OpenFOAM.org                      |
|    \\/     M anipulation  |                                                 |
\*---------------------------------------------------------------------------*/
FoamFile
{
    version     2.0;
    format      ascii;
    class       surfaceScalarField;
    location    "0.9";
    object      phi;
}
// * * * * * * * * * * * * * * * * * * * * * * * * * * * * * * * * * * * * * //

dimensions      [1 0 -1 0 0 0 0];

internalField   nonuniform List<scalar> 
28084
(
0.00174119
0.00173364
0.00172716
0.00172171
0.00171724
0.0017137
0.00171103
0.00170917
0.00170807
0.00170766
0.00170788
0.00170867
0.00170996
0.00171169
0.0017138
0.00171622
0.0017189
0.00172179
0.00172482
0.00172796
0.00173114
0.00173433
0.00173749
0.00174057
0.00174355
0.00174639
0.00174907
0.00175155
0.00175382
0.00175585
0.00175764
0.00175915
0.00176039
0.00176133
0.00176197
0.00176229
0.00176229
0.00176197
0.00176131
0.00176031
0.00175896
0.00175725
0.00175503
0.00175155
0.00174182
0.00175531
0.0017641
0.00176984
0.00177912
0.00178993
0.00179967
0.00180734
0.001811
0.00181453
0.00182209
0.00183213
0.00184045
0.00184624
0.00184812
0.00184461
0.00184064
0.00184237
0.00184667
0.00184841
0.00184534
0.00183733
0.00182348
0.00181261
0.00180755
0.00180107
0.00179073
0.00177362
0.00174819
0.00172189
0.00170279
0.00168584
0.00166579
0.00164018
0.00160716
0.00157168
0.00154267
0.00151634
0.00148767
0.001455
0.00141522
0.00137539
0.00134248
0.00131038
0.00127573
0.00123696
0.0011914
0.0011494
0.00111361
0.00107815
0.00104067
0.000998254
0.000956653
0.00092204
0.0008887
0.000853236
0.000814103
0.000772489
0.000736321
0.000706299
0.000676373
0.000643784
0.000610856
0.00057982
0.000548367
0.000514526
0.000476634
0.000435872
0.00039197
0.000343434
0.00028667
0.000222588
0.000154597
8.22999e-05
8.66109e-06
7.54863e-06
0.00174939
6.47668e-06
0.00174716
5.44921e-06
0.00174594
4.47006e-06
0.00174568
3.54277e-06
0.00174633
2.67052e-06
0.00174786
1.85605e-06
0.0017502
1.10164e-06
0.0017533
4.09011e-07
0.00175709
-2.20687e-07
0.00176151
-7.86861e-07
0.00176649
-1.2895e-06
0.00177197
-1.72913e-06
0.00177786
-2.10681e-06
0.00178412
-2.42407e-06
0.00179066
-2.68288e-06
0.00179743
-2.88556e-06
0.00180435
-3.03476e-06
0.00181137
-3.13337e-06
0.00181842
-3.18447e-06
0.00182546
-3.19125e-06
0.00183243
-3.15699e-06
0.00183929
-3.08497e-06
0.00184598
-2.97845e-06
0.00185247
-2.84059e-06
0.00185872
-2.67445e-06
0.0018647
-2.48295e-06
0.00187039
-2.26884e-06
0.00187574
-2.03466e-06
0.00188075
-1.78276e-06
0.00188539
-1.5153e-06
0.00188965
-1.23418e-06
0.0018935
-9.41099e-07
0.00189695
-6.37555e-07
0.00189998
-3.24805e-07
0.00190257
-3.92175e-09
0.00190474
3.24238e-07
0.00190646
6.58998e-07
0.00190773
9.99876e-07
0.00190855
1.34669e-06
0.00190892
1.70144e-06
0.00190884
2.0862e-06
0.00190827
2.76096e-06
0.00190709
7.89031e-06
0.00190394
-1.52365e-05
0.00189107
-9.36936e-06
0.00189862
-7.91812e-06
0.00190381
-7.76927e-06
0.00190697
-7.92097e-06
0.00191423
-7.99847e-06
0.00192307
-7.87533e-06
0.00193067
-7.55791e-06
0.0019359
-7.07358e-06
0.00193681
-6.50055e-06
0.00193748
-5.86966e-06
0.00194239
-5.14519e-06
0.00195
-4.24274e-06
0.00195582
-3.1597e-06
0.00195891
-1.92488e-06
0.00195799
-7.07824e-07
0.00195115
4.35571e-07
0.00194416
1.54225e-06
0.00194343
2.6192e-06
0.00194516
3.75358e-06
0.00194417
5.00993e-06
0.00193789
6.49223e-06
0.00192632
8.14555e-06
0.00190881
9.97182e-06
0.00189488
1.19982e-05
0.00188758
1.40839e-05
0.00187899
1.61229e-05
0.00186626
1.79846e-05
0.00184687
1.95607e-05
0.00181822
2.11334e-05
0.00178971
2.27922e-05
0.0017691
2.45509e-05
0.00175021
2.63657e-05
0.0017282
2.81041e-05
0.00170027
2.93456e-05
0.00166417
3.03834e-05
0.00162629
3.13039e-05
0.00159566
3.22146e-05
0.00156754
3.31413e-05
0.00153691
3.40818e-05
0.00150181
3.49308e-05
0.00145904
3.57201e-05
0.00141649
3.64349e-05
0.00138147
3.72192e-05
0.00134761
3.80716e-05
0.00131147
3.88889e-05
0.00127156
3.94059e-05
0.00122495
3.95497e-05
0.00118216
3.92241e-05
0.0011457
3.85677e-05
0.00110947
3.77374e-05
0.00107096
3.72419e-05
0.00102755
3.72311e-05
0.00098456
3.74459e-05
0.000948384
3.77059e-05
0.000913885
3.75125e-05
0.000878153
3.65566e-05
0.000839483
3.53397e-05
0.000798451
3.42049e-05
0.000762546
3.30052e-05
0.000731824
3.17215e-05
0.000701091
3.10609e-05
0.000667652
3.12697e-05
0.000633521
3.23396e-05
0.000601123
3.42965e-05
0.000568266
3.71354e-05
0.00053277
4.05665e-05
0.000493081
4.46205e-05
0.000450873
4.96766e-05
0.000405922
5.62043e-05
0.00035689
6.29313e-05
0.000299547
6.88999e-05
0.000234388
7.34715e-05
0.000163328
8.15746e-05
8.72086e-05
1.19281e-05
9.77838e-06
0.00176035
7.70269e-06
0.00176337
5.71085e-06
0.00176733
3.81222e-06
0.00177219
2.01555e-06
0.00177791
3.28676e-07
0.00178445
-1.24153e-06
0.00179175
-2.68939e-06
0.00179974
-4.01043e-06
0.00180837
-5.20151e-06
0.00181756
-6.26081e-06
0.00182725
-7.1878e-06
0.00183736
-7.98325e-06
0.00184782
-8.6491e-06
0.00185855
-9.1884e-06
0.00186948
-9.60519e-06
0.00188053
-9.90436e-06
0.00189165
-1.00915e-05
0.00190276
-1.01728e-05
0.00191379
-1.01549e-05
0.0019247
-1.00447e-05
0.00193541
-9.84931e-06
0.00194589
-9.57582e-06
0.00195608
-9.2313e-06
0.00196594
-8.82267e-06
0.00197543
-8.35657e-06
0.00198452
-7.83937e-06
0.00199318
-7.27704e-06
0.00200138
-6.67513e-06
0.00200909
-6.03876e-06
0.00201631
-5.37258e-06
0.00202301
-4.68076e-06
0.00202919
-3.96698e-06
0.00203482
-3.23445e-06
0.00203991
-2.4859e-06
0.00204444
-1.72362e-06
0.00204842
-9.49448e-07
0.00205184
-1.64813e-07
0.00205469
6.29274e-07
0.00205698
1.43254e-06
0.0020587
2.25036e-06
0.00205986
3.12762e-06
0.00206044
5.13594e-06
0.00206032
1.87736e-05
0.00205787
-2.46955e-05
0.00204524
-1.51891e-05
0.00205016
-1.34895e-05
0.00205255
-1.347e-05
0.00205282
-1.36906e-05
0.00205763
-1.36985e-05
0.00206422
-1.33491e-05
0.00206946
-1.25975e-05
0.00207216
-1.1567e-05
0.00207021
-1.03681e-05
0.00206805
-9.01701e-06
0.00207043
-7.48702e-06
0.00207571
-5.66749e-06
0.00207908
-3.55619e-06
0.00207951
-1.15296e-06
0.00207582
1.2737e-06
0.00206574
3.64405e-06
0.00205593
5.98555e-06
0.00205294
8.30253e-06
0.00205227
1.06946e-05
0.00204867
1.32524e-05
0.00203916
1.60846e-05
0.00202378
1.92109e-05
0.00200221
2.26953e-05
0.00198485
2.65012e-05
0.00197495
3.05359e-05
0.00196393
3.45442e-05
0.00194855
3.83086e-05
0.00192688
4.15421e-05
0.00189505
4.46339e-05
0.00186479
4.79531e-05
0.00184335
5.14206e-05
0.00182285
5.48674e-05
0.00179897
5.81281e-05
0.00176869
6.06653e-05
0.00172901
6.28313e-05
0.0016889
6.48825e-05
0.0016571
6.6874e-05
0.00162743
6.8812e-05
0.001595
7.06314e-05
0.00155739
7.21596e-05
0.00151138
7.35402e-05
0.00146592
7.48318e-05
0.00142859
7.61301e-05
0.00139284
7.74273e-05
0.00135488
7.85699e-05
0.00131334
7.94044e-05
0.00126512
7.97681e-05
0.00122093
7.94157e-05
0.0011833
7.84125e-05
0.00114601
7.69586e-05
0.00110642
7.58157e-05
0.00106224
7.53986e-05
0.00101797
7.54873e-05
0.000979751
7.5509e-05
0.000943369
7.49071e-05
0.000906058
7.31517e-05
0.000866142
7.08e-05
0.000824642
6.84671e-05
0.00078847
6.61877e-05
0.00075493
6.43078e-05
0.000721223
6.36523e-05
0.000683705
6.4215e-05
0.000647083
6.63404e-05
0.000612604
7.02098e-05
0.000577408
7.57521e-05
0.000538832
8.24123e-05
0.000496012
9.04049e-05
0.00045098
0.000100278
0.000403833
0.000112953
0.000353275
0.000126807
0.000295305
0.000140272
0.00023025
0.000150753
0.000160282
0.000168417
8.40786e-05
9.87125e-06
6.75719e-06
0.00177405
3.74382e-06
0.00178225
8.48654e-07
0.00179132
-1.91163e-06
0.00180123
-4.52152e-06
0.00181195
-6.96697e-06
0.00182343
-9.23574e-06
0.00183562
-1.13175e-05
0.00184844
-1.32041e-05
0.00186184
-1.48895e-05
0.00187575
-1.63702e-05
0.00189008
-1.76445e-05
0.00190477
-1.87131e-05
0.00191973
-1.95789e-05
0.00193488
-2.02462e-05
0.00195014
-2.07213e-05
0.00196544
-2.1012e-05
0.00198069
-2.11271e-05
0.00199584
-2.10764e-05
0.00201081
-2.08707e-05
0.00202552
-2.05211e-05
0.00203994
-2.00389e-05
0.00205399
-1.94358e-05
0.00206764
-1.87232e-05
0.00208082
-1.79122e-05
0.00209351
-1.70137e-05
0.00210567
-1.60379e-05
0.00211726
-1.49946e-05
0.00212827
-1.38928e-05
0.00213866
-1.27407e-05
0.00214842
-1.15459e-05
0.00215754
-1.03151e-05
0.002166
-9.05429e-06
0.00217379
-7.76862e-06
0.00218091
-6.46247e-06
0.00218736
-5.13952e-06
0.00219313
-3.80269e-06
0.00219822
-2.45426e-06
0.00220263
-1.09579e-06
0.00220637
2.7219e-07
0.00220943
1.65699e-06
0.00221182
3.09964e-06
0.00221352
6.76467e-06
0.00221445
2.92822e-05
0.00221349
-3.17039e-05
0.00220497
-1.82613e-05
0.00221101
-1.64166e-05
0.00221274
-1.6633e-05
0.00221067
-1.69619e-05
0.00221303
-1.68943e-05
0.00221705
-1.63149e-05
0.00221957
-1.51301e-05
0.0022194
-1.35079e-05
0.00221421
-1.16231e-05
0.00220901
-9.50001e-06
0.00220894
-7.1113e-06
0.00221195
-4.36531e-06
0.00221285
-1.25039e-06
0.00221051
2.23341e-06
0.00220398
5.82939e-06
0.00219062
9.45203e-06
0.00217819
1.3149e-05
0.00217328
1.69022e-05
0.00217036
2.08141e-05
0.00216434
2.49434e-05
0.00215167
2.92298e-05
0.00213255
3.36533e-05
0.00210687
3.8516e-05
0.0020862
4.37551e-05
0.00207319
4.93368e-05
0.00205896
5.51059e-05
0.00204017
6.07778e-05
0.00201566
6.57518e-05
0.00198038
7.03702e-05
0.00194824
7.53642e-05
0.00192634
8.04708e-05
0.00190458
8.54137e-05
0.00187904
8.98845e-05
0.00184632
9.38544e-05
0.00180304
9.7316e-05
0.00176023
0.000100703
0.0017273
0.000103961
0.00169629
0.000107002
0.00166221
0.000109625
0.00162217
0.000111768
0.00157282
0.000113683
0.00152446
0.000115456
0.00148488
0.000117101
0.00144712
0.000118565
0.00140704
0.000119684
0.00136343
0.000120545
0.00131296
0.000120995
0.00126676
0.000120749
0.00122723
0.000119622
0.00118807
0.00011775
0.00114667
0.000115981
0.00110111
0.000114946
0.00105533
0.000114589
0.00101475
0.000114286
0.000975879
0.000113389
0.000936267
0.000111186
0.000894138
0.000108128
0.000851424
0.00010481
0.000814248
0.000101712
0.00077883
9.95833e-05
0.000742425
9.90455e-05
0.000701976
0.000100207
0.000662712
0.000103446
0.00062593
0.000108905
0.000588358
0.000116695
0.000546915
0.000126493
0.000500941
0.000138484
0.000452999
0.000153059
0.000403766
0.000170844
0.000351846
0.00019032
0.000293261
0.000209989
0.000227881
0.000227843
0.00015834
0.00025276
8.27559e-05
2.56937e-06
-1.43874e-06
0.00179051
-5.32607e-06
0.0018038
-9.06565e-06
0.0018179
-1.26318e-05
0.00183278
-1.60005e-05
0.00184842
-1.91502e-05
0.00186477
-2.2062e-05
0.00188176
-2.47196e-05
0.00189935
-2.71103e-05
0.00191745
-2.92245e-05
0.001936
-3.1056e-05
0.00195492
-3.26019e-05
0.00197411
-3.38625e-05
0.00199351
-3.48411e-05
0.00201301
-3.55437e-05
0.00203254
-3.59789e-05
0.00205202
-3.61575e-05
0.00207136
-3.60918e-05
0.00209048
-3.5796e-05
0.00210932
-3.52851e-05
0.0021278
-3.4575e-05
0.00214586
-3.3682e-05
0.00216344
-3.26226e-05
0.00218049
-3.14132e-05
0.00219695
-3.00698e-05
0.0022128
-2.8608e-05
0.00222798
-2.70424e-05
0.00224247
-2.53869e-05
0.00225623
-2.36545e-05
0.00226926
-2.18571e-05
0.00228153
-2.00053e-05
0.00229303
-1.81089e-05
0.00230374
-1.61762e-05
0.00231366
-1.42148e-05
0.00232278
-1.22307e-05
0.00233111
-1.02293e-05
0.00233865
-8.21463e-06
0.00234539
-6.18987e-06
0.00235133
-4.15726e-06
0.00235649
-2.11777e-06
0.00236087
-6.54785e-08
0.00236447
2.01496e-06
0.00236728
6.87827e-06
0.00236922
3.55645e-05
0.00236937
-3.99624e-05
0.00236233
-2.07297e-05
0.00236748
-1.7277e-05
0.00236749
-1.72201e-05
0.00236351
-1.7355e-05
0.00236412
-1.7199e-05
0.00236625
-1.64058e-05
0.00236661
-1.48769e-05
0.00236392
-1.27623e-05
0.00235558
-1.0193e-05
0.00234746
-7.25792e-06
0.00234525
-3.99918e-06
0.00234627
-3.16373e-07
0.00234505
3.76432e-06
0.00233991
8.25672e-06
0.00233052
1.28879e-05
0.00231347
1.7694e-05
0.00229866
2.28275e-05
0.00229246
2.81583e-05
0.00228738
3.38744e-05
0.00227919
3.98699e-05
0.00226366
4.5924e-05
0.00224089
5.17915e-05
0.00221231
5.78476e-05
0.00218996
6.43275e-05
0.00217321
7.0995e-05
0.00215356
7.82044e-05
0.00212794
8.54937e-05
0.00209621
9.22099e-05
0.00205455
9.86171e-05
0.0020188
0.000105155
0.0019937
0.000111616
0.0019682
0.000117858
0.00193876
0.000123748
0.00190286
0.000129038
0.0018563
0.000134117
0.00181148
0.000139002
0.00177656
0.000143512
0.00174319
0.000147474
0.00170661
0.000150852
0.00166428
0.000153573
0.00161217
0.000156187
0.00156235
0.000158535
0.00152128
0.000160521
0.00148172
0.000161937
0.00143988
0.000162826
0.00139418
0.000163459
0.00134202
0.000163903
0.00129479
0.000163779
0.00125423
0.00016275
0.00121389
0.000160742
0.00117116
0.000158324
0.00112401
0.000156499
0.00107707
0.000155501
0.00103548
0.000154825
0.000995307
0.000153714
0.000954093
0.000151216
0.000909745
0.000147535
0.000865516
0.000143187
0.000826853
0.000139234
0.000789499
0.000136897
0.000750586
0.000136883
0.000707574
0.000139108
0.000665835
0.000143529
0.000626555
0.000150463
0.000586555
0.000160285
0.000543034
0.000172788
0.000495235
0.000188459
0.000445733
0.000207418
0.000395402
0.000229846
0.000342965
0.000253883
0.000284753
0.000279143
0.000220436
0.000304391
0.000152816
0.000335754
7.90743e-05
-9.88994e-06
-1.47245e-05
0.00180973
-1.94246e-05
0.00182801
-2.3952e-05
0.00184705
-2.82702e-05
0.00186682
-3.23454e-05
0.00188729
-3.61469e-05
0.00190842
-3.96477e-05
0.00193014
-4.28248e-05
0.00195241
-4.56597e-05
0.00197514
-4.81385e-05
0.00199825
-5.02519e-05
0.00202167
-5.19951e-05
0.0020453
-5.33677e-05
0.00206906
-5.43735e-05
0.00209285
-5.50202e-05
0.00211658
-5.53186e-05
0.00214017
-5.52829e-05
0.00216352
-5.49294e-05
0.00218656
-5.42767e-05
0.00220921
-5.33447e-05
0.00223139
-5.21548e-05
0.00225303
-5.07285e-05
0.00227408
-4.90879e-05
0.00229448
-4.72549e-05
0.00231417
-4.52509e-05
0.00233311
-4.30966e-05
0.00235126
-4.08116e-05
0.00236859
-3.84147e-05
0.00238508
-3.59229e-05
0.0024007
-3.33522e-05
0.00241543
-3.0717e-05
0.00242927
-2.80299e-05
0.00244219
-2.53025e-05
0.00245421
-2.25444e-05
0.0024653
-1.97639e-05
0.00247548
-1.69679e-05
0.00248475
-1.41618e-05
0.00249311
-1.13498e-05
0.00250057
-8.53489e-06
0.00250713
-5.71842e-06
0.0025128
-2.89612e-06
0.00251759
-7.70972e-08
0.00252149
5.84573e-06
0.00252442
4.02775e-05
0.00252523
-4.74362e-05
0.00251792
-2.16348e-05
0.00251978
-1.64535e-05
0.00251658
-1.57165e-05
0.00250938
-1.5461e-05
0.00250677
-1.50871e-05
0.00250489
-1.40792e-05
0.00250064
-1.20781e-05
0.00249319
-9.48109e-06
0.0024805
-6.17021e-06
0.00246965
-2.28351e-06
0.00246459
1.83664e-06
0.00246164
6.34313e-06
0.0024566
1.12936e-05
0.00244749
1.67397e-05
0.00243459
2.23919e-05
0.00241471
2.85016e-05
0.00239776
3.50713e-05
0.00238945
4.18755e-05
0.00238119
4.91384e-05
0.00236958
5.68985e-05
0.00235067
6.49055e-05
0.00232453
7.31349e-05
0.00229372
8.15538e-05
0.00226945
9.00332e-05
0.00225179
9.85875e-05
0.00223186
0.000106836
0.00220621
0.000114373
0.00217409
0.00012238
0.00213131
0.000130542
0.00209366
0.000138471
0.00206616
0.000146016
0.00203802
0.000153248
0.0020054
0.000160154
0.0019664
0.000166627
0.0019163
0.000173166
0.00186894
0.000179513
0.00183149
0.00018526
0.00179503
0.000190142
0.00175539
0.000194113
0.00171033
0.000197369
0.00165561
0.000200487
0.00160425
0.000203419
0.00156147
0.000205724
0.00151968
0.000207018
0.00147545
0.000207412
0.00142677
0.00020776
0.00137268
0.000208098
0.00132425
0.000207906
0.00128187
0.000206873
0.00123925
0.000204773
0.00119447
0.000201941
0.0011444
0.000199589
0.00109653
0.000198228
0.00105429
0.000197257
0.0010128
0.000195833
0.000969827
0.000192872
0.00092314
0.000188465
0.000877435
0.000183323
0.000837588
0.000178968
0.000798908
0.000176735
0.000758401
0.000177392
0.000713947
0.00018055
0.000670521
0.000185976
0.000629378
0.000194113
0.000587664
0.000205611
0.000542653
0.000220551
0.000493534
0.000239394
0.000443064
0.000261887
0.000391906
0.000288156
0.000338922
0.00031629
0.000280521
0.000346929
0.000217193
0.000379477
0.000150803
0.000414563
7.80689e-05
-2.74098e-05
-3.30063e-05
0.00183173
-3.84606e-05
0.00185491
-4.37216e-05
0.00187878
-4.87404e-05
0.00190333
-5.34718e-05
0.00192854
-5.78744e-05
0.00195435
-6.19121e-05
0.00198072
-6.55539e-05
0.00200758
-6.87748e-05
0.00203484
-7.15556e-05
0.00206244
-7.38833e-05
0.00209027
-7.57509e-05
0.00211826
-7.71572e-05
0.00214629
-7.81063e-05
0.00217429
-7.86072e-05
0.00220214
-7.86736e-05
0.00222976
-7.83231e-05
0.00225706
-7.75763e-05
0.00228394
-7.64567e-05
0.00231033
-7.49898e-05
0.00233614
-7.32024e-05
0.0023613
-7.11222e-05
0.00238575
-6.87774e-05
0.00240943
-6.61959e-05
0.00243229
-6.3405e-05
0.00245427
-6.04311e-05
0.00247534
-5.72994e-05
0.00249547
-5.40336e-05
0.00251462
-5.06558e-05
0.00253278
-4.7186e-05
0.00254993
-4.36428e-05
0.00256606
-4.00423e-05
0.00258116
-3.6399e-05
0.00259522
-3.27253e-05
0.00260825
-2.90318e-05
0.00262025
-2.5327e-05
0.00263121
-2.1618e-05
0.00264116
-1.79098e-05
0.0026501
-1.42062e-05
0.00265803
-1.0509e-05
0.00266497
-6.81513e-06
0.00267093
-3.16361e-06
0.0026759
4.13804e-06
0.00267981
4.52063e-05
0.00268127
-5.17013e-05
0.00267308
-1.96927e-05
0.00267066
-1.23596e-05
0.00266287
-1.05808e-05
0.00265289
-9.89652e-06
0.00264834
-9.154e-06
0.00264423
-7.67608e-06
0.00263745
-5.39215e-06
0.00262702
-2.48732e-06
0.00261258
1.33805e-06
0.0026005
6.00695e-06
0.00259367
1.10029e-05
0.00258725
1.63702e-05
0.00257888
2.21138e-05
0.00256611
2.82997e-05
0.00254949
3.49276e-05
0.00252728
4.22176e-05
0.00250877
5.01329e-05
0.00249817
5.84827e-05
0.0024868
6.73104e-05
0.00247172
7.66292e-05
0.00244968
8.65317e-05
0.00242076
9.65998e-05
0.00238901
0.000106933
0.00236385
0.000116957
0.00234548
0.000126693
0.00232472
0.000136044
0.00229813
0.000145072
0.00226447
0.000154646
0.00222119
0.000164547
0.00218168
0.000174149
0.00215085
0.000183272
0.00211929
0.00019188
0.00208323
0.00019981
0.00204102
0.000207433
0.00198816
0.000215199
0.00193876
0.000222782
0.00189838
0.000229572
0.00185832
0.000235276
0.00181482
0.000239689
0.00176653
0.00024334
0.00170954
0.000246965
0.0016568
0.000250385
0.0016117
0.000252833
0.00156661
0.000254253
0.00151832
0.000254328
0.00146521
0.000254255
0.0014083
0.000254319
0.00135826
0.000253871
0.00131319
0.000252561
0.00126704
0.000250181
0.00121907
0.000247081
0.00116556
0.000244523
0.00111661
0.000242804
0.00107327
0.000241405
0.00103016
0.000239313
0.000985347
0.000235672
0.000936413
0.000230613
0.000889222
0.000224844
0.000848071
0.000220327
0.000808182
0.000218335
0.000766581
0.000219561
0.00072128
0.000223547
0.000676706
0.000230022
0.000633978
0.000239431
0.000590934
0.000252573
0.000544853
0.000269669
0.000495183
0.000291154
0.000444393
0.000316454
0.000392675
0.000346057
0.000338943
0.000378168
0.000279923
0.000413834
0.000216879
0.000453504
0.000151017
0.000492112
7.818e-05
-4.98839e-05
-5.61806e-05
0.00185652
-6.23335e-05
0.00188448
-6.82765e-05
0.00191308
-7.39469e-05
0.00194231
-7.92862e-05
0.00197215
-8.42414e-05
0.00200255
-8.87658e-05
0.00203345
-9.28193e-05
0.0020648
-9.63695e-05
0.0020965
-9.93914e-05
0.00212848
-0.000101868
0.00216065
-0.000103789
0.00219289
-0.000105152
0.00222512
-0.000105962
0.00225723
-0.000106229
0.00228913
-0.00010597
0.0023207
-0.000105206
0.00235185
-0.000103962
0.0023825
-0.000102267
0.00241254
-0.000100153
0.00244191
-9.76531e-05
0.00247052
-9.48006e-05
0.0024983
-9.16307e-05
0.00252519
-8.81779e-05
0.00255114
-8.4476e-05
0.0025761
-8.05577e-05
0.00260003
-7.64541e-05
0.00262289
-7.21944e-05
0.00264465
-6.7806e-05
0.0026653
-6.33138e-05
0.00268481
-5.87403e-05
0.00270319
-5.41058e-05
0.00272041
-4.94279e-05
0.00273648
-4.47221e-05
0.0027514
-4.00011e-05
0.00276517
-3.52757e-05
0.00277781
-3.05542e-05
0.00278931
-2.5843e-05
0.00279969
-2.11464e-05
0.00280897
-1.64668e-05
0.00281715
-1.1802e-05
0.00282425
-7.22777e-06
0.00283027
1.76713e-06
0.00283515
5.0936e-05
0.00283752
-5.17612e-05
0.00283122
-1.36575e-05
0.00282755
-5.17511e-06
0.00281799
-3.23249e-06
0.00280685
-2.26909e-06
0.00280059
-1.279e-06
0.00279383
6.34709e-07
0.00278426
3.37976e-06
0.00277064
6.78963e-06
0.00275518
1.14552e-05
0.00274287
1.69811e-05
0.00273479
2.2928e-05
0.00272599
2.92211e-05
0.00271453
3.5968e-05
0.0026983
4.29396e-05
0.00267811
5.03207e-05
0.00265362
5.87848e-05
0.00263416
6.80133e-05
0.00262155
7.77164e-05
0.00260712
8.80781e-05
0.00258823
9.87751e-05
0.00256287
0.000109791
0.00253066
0.000121266
0.00249788
0.000133134
0.00247148
0.000144861
0.00245052
0.000156094
0.00242661
0.000167095
0.00239675
0.000178059
0.00236004
0.000189175
0.00231515
0.000200727
0.00227437
0.000212402
0.00224129
0.000223468
0.00220721
0.000233775
0.00216834
0.000242855
0.0021236
0.000251485
0.00206935
0.000260364
0.0020185
0.000268963
0.00197518
0.000276586
0.00193175
0.000283033
0.00188464
0.000287977
0.00183278
0.000292076
0.00177356
0.000296417
0.00171992
0.000300287
0.00167199
0.000302945
0.00162276
0.000304413
0.0015691
0.000304367
0.00150949
0.000304037
0.0014474
0.000303674
0.00139469
0.000302621
0.00134696
0.000300639
0.00129785
0.000297495
0.00124672
0.000294131
0.00119128
0.000291457
0.00114145
0.000289321
0.00109653
0.000287153
0.00105144
0.000284155
0.00100457
0.000279754
0.000953431
0.000274001
0.000904707
0.000267778
0.00086204
0.000263088
0.000820645
0.000261297
0.000777579
0.000262917
0.000731418
0.000267525
0.000686128
0.000274995
0.000642238
0.000285818
0.000598015
0.000300688
0.000550497
0.000319821
0.000499787
0.000343507
0.000448148
0.000371334
0.000395519
0.00040398
0.00034042
0.000440178
0.000280386
0.000480715
0.000217162
0.000527388
0.000150815
0.000569354
7.76602e-05
-7.71956e-05
-8.41346e-05
0.00188413
-9.09334e-05
0.00191674
-9.75096e-05
0.00194995
-0.000103785
0.00198374
-0.000109686
0.0020181
-0.000115148
0.00205297
-0.00012011
0.00208831
-0.000124525
0.00212404
-0.000128349
0.00216007
-0.000131553
0.00219634
-0.000134114
0.00223272
-0.000136019
0.00226913
-0.000137264
0.00230545
-0.000137854
0.00234159
-0.000137801
0.00237742
-0.000137125
0.00241285
-0.00013585
0.00244777
-0.000134008
0.00248209
-0.000131633
0.00251571
-0.000128762
0.00254855
-0.000125435
0.00258052
-0.000121694
0.00261156
-0.000117581
0.00264159
-0.000113136
0.00267056
-0.000108402
0.00269843
-0.000103417
0.00272514
-9.82185e-05
0.00275066
-9.28425e-05
0.00277498
-8.73216e-05
0.00279805
-8.16859e-05
0.00281987
-7.59627e-05
0.00284044
-7.01761e-05
0.00285973
-6.43475e-05
0.00287776
-5.84954e-05
0.00289453
-5.26351e-05
0.00291003
-4.67794e-05
0.00292429
-4.09385e-05
0.00293731
-3.51197e-05
0.00294911
-2.93282e-05
0.0029597
-2.3567e-05
0.00296909
-1.78362e-05
0.0029773
-1.22652e-05
0.00298434
-1.59382e-06
0.00299016
5.45801e-05
0.00299358
-5.05587e-05
0.00299004
-6.16017e-06
0.00298624
4.00951e-06
0.00297489
6.15485e-06
0.00296284
7.36618e-06
0.00295504
8.77177e-06
0.00294476
1.09125e-05
0.0029304
1.38992e-05
0.00291234
1.80458e-05
0.00289584
2.36221e-05
0.00288377
2.99836e-05
0.00287399
3.70627e-05
0.00286207
4.45932e-05
0.00284629
5.23504e-05
0.00282623
5.98576e-05
0.00279968
6.81873e-05
0.00277508
7.80382e-05
0.00275773
8.87173e-05
0.00274182
9.99792e-05
0.00272287
0.000111727
0.00269731
0.000123649
0.00266678
0.000135571
0.00263035
0.000148366
0.00259744
0.000162058
0.00257144
0.000175538
0.00254404
0.000188451
0.00251204
0.000200943
0.00247421
0.000213204
0.00242849
0.000225615
0.00238369
0.000239289
0.00234625
0.000253259
0.0023101
0.000266524
0.00227101
0.000278103
0.0022255
0.000288641
0.0021726
0.000298177
0.00211784
0.000307939
0.00207019
0.000317734
0.00202638
0.000326374
0.00198024
0.000333443
0.00192913
0.000339221
0.00187079
0.000344178
0.00181009
0.000349236
0.00175752
0.000353839
0.00170852
0.000357404
0.00165776
0.000359354
0.0016031
0.000358908
0.00154195
0.000357837
0.00148244
0.000356493
0.00143141
0.000354186
0.00138313
0.000350767
0.00133351
0.000346573
0.00128048
0.000342905
0.00122345
0.000340159
0.00117225
0.00033767
0.00112496
0.000334859
0.0010774
0.000330939
0.0010277
0.00032555
0.000973792
0.00031898
0.000923621
0.00031224
0.000879446
0.00030731
0.000836326
0.000305484
0.000791456
0.000307305
0.000744246
0.000312498
0.000698062
0.000320968
0.000653046
0.000333329
0.000607358
0.000350122
0.000558255
0.000371146
0.00050647
0.0003969
0.000453877
0.000427161
0.000400327
0.000462696
0.000343785
0.000502608
0.000282625
0.000548265
0.000218794
0.000601296
0.000151342
0.000645923
7.76336e-05
-0.000109218
-0.000116745
0.00191458
-0.00012414
0.00195171
-0.000131304
0.0019894
-0.00013814
0.00202763
-0.00014456
0.00206637
-0.000150483
0.0021056
-0.000155838
0.00214525
-0.000160564
0.00218524
-0.000164611
0.0022255
-0.000167939
0.00226593
-0.000170522
0.00230643
-0.000172343
0.00234689
-0.000173396
0.0023872
-0.000173688
0.00242725
-0.000173231
0.00246692
-0.000172048
0.00250611
-0.000170169
0.0025447
-0.000167629
0.0025826
-0.000164469
0.0026197
-0.000160733
0.00265592
-0.00015647
0.00269116
-0.000151727
0.00272536
-0.000146554
0.00275845
-0.000141
0.00279037
-0.000135114
0.00282106
-0.000128943
0.00285048
-0.00012253
0.0028786
-0.000115918
0.00290539
-0.000109146
0.00293083
-0.000102248
0.0029549
-9.52584e-05
0.00297759
-8.82046e-05
0.00299891
-8.11119e-05
0.00301884
-7.40021e-05
0.0030374
-6.68934e-05
0.00305459
-5.98007e-05
0.00307043
-5.27358e-05
0.00308493
-4.57076e-05
0.0030981
-3.87219e-05
0.00310997
-3.17821e-05
0.00312054
-2.48911e-05
0.00312984
-1.82315e-05
0.00313787
-6.05971e-06
0.00314458
5.5297e-05
0.00314873
-4.91141e-05
0.00314555
2.53209e-06
0.00313998
1.50361e-05
0.00312608
1.81428e-05
0.00311332
1.94686e-05
0.00310278
2.1195e-05
0.00308847
2.35681e-05
0.00306803
2.72508e-05
0.00304774
3.21485e-05
0.00303117
3.86024e-05
0.00301989
4.57665e-05
0.00300768
5.3908e-05
0.00299258
6.245e-05
0.00297248
7.06722e-05
0.00294734
7.91482e-05
0.00291874
8.8982e-05
0.00289784
0.000100475
0.00288126
0.000112597
0.00286143
0.00012602
0.00283582
0.000139366
0.00280408
0.000151816
0.00276537
0.000164948
0.00272863
0.000179766
0.00270084
0.000195051
0.00267369
0.000210164
0.00264173
0.000224546
0.0026
0.000238735
0.00254817
0.00025241
0.00249483
0.000266614
0.00245118
0.000282208
0.00241464
0.000297405
0.00237545
0.000311414
0.00233037
0.000324557
0.00227838
0.000335929
0.00222009
0.000346998
0.00216703
0.000358181
0.00212161
0.00036879
0.00207584
0.000378108
0.00202661
0.000385929
0.00197218
0.00039223
0.00190934
0.000398271
0.00185017
0.000404099
0.00179944
0.000409068
0.00174952
0.000412334
0.00169702
0.000413433
0.0016412
0.000412468
0.00157922
0.000411142
0.00152152
0.000409317
0.00147084
0.000406355
0.00142108
0.000402204
0.00136922
0.000397578
0.00131314
0.000393776
0.00125479
0.000391005
0.00120238
0.000388391
0.00115218
0.000385213
0.00110083
0.000380354
0.00104725
0.00037336
0.00099169
0.000365552
0.000941341
0.000358078
0.000896322
0.000352909
0.000851789
0.000351069
0.000805202
0.000353097
0.000757472
0.000358752
0.000711549
0.000368223
0.000666457
0.000382079
0.00061957
0.000400735
0.000568718
0.00042373
0.000515425
0.000451536
0.000461303
0.000484025
0.000406298
0.000522376
0.000347438
0.000565739
0.000284084
0.000616614
0.000218614
0.000675653
0.000149534
0.000722613
7.57236e-05
-0.000145815
-0.000153878
0.0019479
-0.000161824
0.00198942
-0.000169532
0.00203144
-0.000176888
0.00207396
-0.000183786
0.00211697
-0.000190129
0.00216041
-0.000195832
0.00220424
-0.000200823
0.00224837
-0.00020504
0.00229273
-0.000208438
0.0023372
-0.000210982
0.00238169
-0.000212654
0.00242609
-0.000213445
0.00247027
-0.000213362
0.00251412
-0.000212419
0.00255752
-0.000210642
0.00260036
-0.000208065
0.00264251
-0.00020473
0.00268388
-0.000200684
0.00272436
-0.00019598
0.00276386
-0.000190671
0.00280228
-0.000184815
0.00283956
-0.000178469
0.00287561
-0.000171692
0.00291038
-0.000164538
0.00294382
-0.000157064
0.00297587
-0.00014932
0.00300651
-0.000141355
0.0030357
-0.000133215
0.00306343
-0.000124942
0.00308968
-0.000116571
0.00311444
-0.000108138
0.00313771
-9.96711e-05
0.00315949
-9.11953e-05
0.00317979
-8.2732e-05
0.00319862
-7.42985e-05
0.00321599
-6.59083e-05
0.00323192
-5.75715e-05
0.00324643
-4.9295e-05
0.00325953
-4.10822e-05
0.00327125
-3.29383e-05
0.0032816
-2.50876e-05
0.0032906
-1.13136e-05
0.00329825
5.54572e-05
0.00330337
-4.58189e-05
0.00330296
1.34421e-05
0.00329637
2.8557e-05
0.00328091
3.27217e-05
0.0032691
3.46736e-05
0.00325615
3.6154e-05
0.00323587
3.86888e-05
0.00321132
4.28499e-05
0.003189
4.84192e-05
0.00317388
5.54686e-05
0.00316152
6.36594e-05
0.0031467
7.26405e-05
0.00312627
8.1627e-05
0.00310046
9.104e-05
0.00306671
0.000101395
0.0030401
0.00011335
0.00302272
0.000125999
0.00300295
0.000139721
0.00297692
0.000154264
0.00294085
0.000168757
0.00289551
0.000182814
0.00284932
0.000198416
0.00281389
0.000215433
0.00278612
0.000232641
0.00275449
0.000250001
0.00271631
0.000266407
0.00267053
0.000281095
0.00261389
0.000296403
0.00256279
0.00031261
0.00252391
0.000329106
0.00248642
0.000344826
0.00244513
0.000359387
0.00239649
0.000372574
0.00233784
0.000385292
0.00227938
0.000398007
0.00222902
0.000410623
0.00218352
0.000421975
0.0021357
0.000431807
0.00208278
0.00043933
0.0020228
0.000446236
0.00195936
0.000453195
0.0019029
0.000459845
0.0018522
0.000465019
0.00180043
0.000467475
0.00174514
0.00046744
0.00168448
0.000466455
0.00162184
0.000465121
0.00156601
0.000463227
0.00151355
0.000460047
0.00146042
0.00045552
0.00140396
0.000450584
0.00134226
0.00044716
0.0012813
0.00044469
0.00122628
0.00044233
0.00117266
0.000438603
0.0011183
0.00043159
0.00106166
0.00042262
0.00100627
0.000413318
0.000957699
0.000404812
0.000912204
0.000399159
0.000866817
0.000397122
0.000818457
0.000399337
0.0007702
0.000405679
0.000724318
0.000416481
0.000678732
0.000432166
0.00062996
0.000452788
0.000576582
0.000477992
0.000521021
0.000508079
0.000465071
0.000542926
0.000408392
0.000584038
0.000346973
0.000630683
0.000282341
0.000686083
0.000216385
0.000749859
0.000147514
0.000797822
7.50622e-05
-0.000186837
-0.00019539
0.00198413
-0.000203844
0.00202987
-0.000212057
0.00207607
-0.000219894
0.00212275
-0.000227231
0.00216987
-0.000233956