/*--------------------------------*- C++ -*----------------------------------*\
| =========                 |                                                 |
| \\      /  F ield         | OpenFOAM: The Open Source CFD Toolbox           |
|  \\    /   O peration     | Version:  2.2.x                                 |
|   \\  /    A nd           | Web:      www.OpenFOAM.org                      |
|    \\/     M anipulation  |                                                 |
\*---------------------------------------------------------------------------*/
FoamFile
{
    version     2.0;
    format      ascii;
    class       volScalarField;
    location    "0.11";
    object      Ma;
}
// * * * * * * * * * * * * * * * * * * * * * * * * * * * * * * * * * * * * * //

dimensions      [0 0 0 0 0 0 0];

internalField   nonuniform List<scalar> 
1024
(
0
0
0
0
0
0
0
0
0
0
0
0
0
0
0
0
0
0
0
0
0
0
0
0
0
0
0
0
0
0
0
0
0
0
0
0
0
0
0
0
0
0
0
0
0
0
0
0
0
0
0
0
0
0
0
0
0
0
0
0
0
0
0
0
0
0
0
0
0
0
0
0
0
0
0
0
0
0
0
0
0
0
0
0
0
0
0
0
0
0
0
0
0
0
0
0
0
0
0
0
0
0
0
0
0
0
0
0
0
0
0
0
0
0
0
0
0
0
0
0
0
0
0
0
0
0
0
0
0
0
0
0
0
0
0
0
0
0
0
0
0
0
0
0
0
0
0
0
0
0
0
0
0
0
0
0
0
0
0
0
0
0
0
0
0
0
0
0
0
0
0
0
0
0
0
0
0
0
0
0
0
0
0
0
0
0
0
0
0
0
0
0
0
0
0
0
0
0
0
0
0
0
0
0
0
0
0
0
0
0
0
0
0
0
0
0
0
0
0
0
0
0
0
0
0
6.66011e-17
4.14489e-16
1.62299e-15
5.31042e-15
1.637e-14
5.06861e-14
1.57126e-13
4.86154e-13
1.5021e-12
4.64117e-12
1.43392e-11
4.43014e-11
1.36866e-10
4.22816e-10
1.30614e-09
4.03469e-09
1.24628e-08
3.8495e-08
1.189e-07
3.67234e-07
1.13421e-06
3.50296e-06
1.08185e-05
3.34105e-05
0.000103172
0.000318522
0.000982635
0.0030244
0.00924252
0.0276468
0.0777027
0.186288
0.286925
0.339711
0.364198
0.375082
0.379897
0.381966
0.382886
0.383312
0.383471
0.38355
0.383556
0.383599
0.383625
0.383634
0.383636
0.38363
0.383614
0.383589
0.383563
0.383542
0.383514
0.383485
0.383464
0.383457
0.383456
0.383467
0.383475
0.383483
0.383492
0.383505
0.383521
0.383538
0.383548
0.383548
0.383545
0.383544
0.383548
0.383557
0.383565
0.383568
0.383569
0.383561
0.383551
0.38354
0.383528
0.383513
0.383499
0.383492
0.383488
0.383492
0.3835
0.383513
0.383526
0.383539
0.38355
0.383556
0.383558
0.383555
0.383548
0.38354
0.383538
0.383535
0.383533
0.383529
0.383523
0.383517
0.383511
0.383505
0.383498
0.38349
0.383484
0.383478
0.38348
0.383486
0.3835
0.383516
0.383531
0.383544
0.383552
0.383555
0.383554
0.383548
0.383537
0.383522
0.383503
0.383489
0.38348
0.383476
0.383477
0.38348
0.383484
0.383487
0.383488
0.383491
0.383491
0.383493
0.383498
0.383504
0.383512
0.383521
0.383532
0.383543
0.383552
0.383558
0.383561
0.38356
0.383553
0.383544
0.383532
0.383521
0.383513
0.383508
0.383507
0.383508
0.383511
0.383514
0.383517
0.383518
0.383521
0.383522
0.383524
0.383529
0.383537
0.383547
0.383557
0.383564
0.383568
0.383564
0.383556
0.383546
0.383532
0.383511
0.383521
0.383476
0.383572
0.383667
0.384082
0.385086
0.387603
0.392207
0.397529
0.402578
0.407444
0.411483
0.414691
0.417342
0.418806
0.420275
0.42076
0.420467
0.418805
0.415033
0.412368
0.412041
0.41801
0.417323
0.422139
0.423998
0.422702
0.423574
0.424967
0.425211
0.424469
0.424339
0.424714
0.424975
0.424922
0.424745
0.424707
0.424712
0.424687
0.424674
0.424596
0.424541
0.424487
0.424448
0.424435
0.42437
0.424294
0.424255
0.424238
0.424253
0.424262
0.424288
0.424458
0.424834
0.42552
0.426608
0.428181
0.430536
0.43381
0.436991
0.439652
0.441794
0.443449
0.444682
0.445563
0.446181
0.44661
0.446925
0.447177
0.447339
0.44743
0.447472
0.447401
0.447309
0.447304
0.447341
0.447487
0.447608
0.447621
0.447515
0.447228
0.446947
0.446854
0.447017
0.447545
0.447918
0.447895
0.447516
0.447106
0.447376
0.448776
0.452087
0.457566
0.466376
0.480766
0.50207
0.513433
0.519397
0.523848
0.525197
0.524579
0.521953
0.520193
0.520757
0.532173
0.550668
0.56419
0.564234
0.58579
0.59142
0.600663
0.602883
0.607182
0.60787
0.609442
0.609688
0.610313
0.610378
0.610527
0.610466
0.610407
0.610334
0.610256
0.610203
0.610199
0.610199
0.610233
0.610265
0.610309
0.610391
0.61044
0.610459
0.610451
0.610422
0.610369
0.610341
0.610326
0.610334
0.610346
0.610376
0.610416
0.610444
0.610445
0.610444
0.610427
0.610408
0.610381
0.610336
0.61028
0.610235
0.610209
0.610201
0.610195
0.610202
0.610208
0.610218
0.610234
0.61026
0.610289
0.610307
0.610305
0.610306
0.610294
0.610283
0.610267
0.610236
0.610204
0.61019
0.610184
0.610189
0.610191
0.610202
0.610212
0.610227
0.610255
0.610283
0.610294
0.610301
0.610296
0.610292
0.610282
0.61027
0.61025
0.610225
0.610207
0.610202
0.6102
0.610205
0.610209
0.610216
0.610226
0.610238
0.610248
0.610252
0.610252
0.61025
0.610247
0.610246
0.610244
0.610245
0.610243
0.610244
0.610243
0.610246
0.610247
0.610254
0.610257
0.610264
0.610265
0.61027
0.610272
0.610289
0.610297
0.610328
0.610341
0.610367
0.610369
0.610382
0.610384
0.610333
0.61041
0.610451
0.610712
0.609572
0.611511
0.610272
0.615519
0.600315
0.635269
0.639897
0.715558
0.878432
1.0395
1.06924
1.07317
1.07363
1.07369
1.0737
1.0737
1.0737
1.0737
1.0737
1.0737
1.0737
1.0737
1.0737
1.0737
1.0737
1.0737
1.0737
1.0737
1.0737
1.0737
1.0737
1.0737
1.0737
1.0737
1.0737
1.0737
1.0737
1.0737
1.0737
1.0737
1.0737
1.0737
1.0737
1.0737
1.0737
1.0737
1.0737
1.0737
1.0737
1.0737
1.0737
1.0737
1.0737
1.0737
1.0737
1.0737
1.0737
1.0737
1.0737
1.0737
1.0737
1.0737
1.0737
1.0737
1.0737
1.0737
1.0737
1.0737
1.0737
1.0737
1.0737
1.0737
1.0737
1.0737
1.0737
1.0737
1.0737
1.0737
1.0737
1.0737
1.0737
1.0737
1.0737
1.0737
1.0737
1.0737
1.0737
1.0737
1.0737
1.0737
1.0737
1.0737
1.0737
1.0737
1.0737
1.0737
1.0737
1.0737
1.0737
1.0737
1.0737
1.0737
1.0737
1.0737
1.0737
1.0737
1.0737
1.0737
1.0737
1.0737
1.0737
1.0737
1.0737
1.0737
1.0737
1.0737
1.0737
1.0737
1.0737
1.0737
1.0737
1.0737
1.0737
1.0737
1.0737
1.0737
1.0737
1.0737
1.0737
1.0737
1.0737
1.0737
1.0737
1.0737
1.0737
1.0737
1.0737
1.0737
1.0737
1.0737
1.0737
1.0737
1.0737
1.0737
1.0737
1.0737
1.0737
1.0737
1.0737
1.0737
1.0737
1.0737
1.0737
1.0737
1.0737
1.0737
1.0737
1.0737
1.0737
1.0737
1.0737
1.0737
1.0737
1.0737
1.0737
1.0737
1.0737
1.0737
1.0737
1.0737
1.0737
1.0737
1.0737
1.0737
1.0737
1.0737
1.0737
1.0737
1.0737
1.0737
1.0737
1.0737
1.0737
1.0737
1.0737
1.0737
1.0737
1.0737
1.0737
1.0737
1.0737
1.0737
1.0737
1.0737
1.0737
1.0737
1.0737
1.0737
1.0737
1.0737
1.0737
1.0737
1.0737
1.0737
1.0737
1.0737
1.0737
1.0737
1.0737
1.0737
1.0737
1.0737
1.0737
1.0737
1.0737
1.0737
1.0737
1.0737
1.0737
1.0737
1.0737
1.0737
1.0737
1.0737
1.0737
1.0737
1.0737
1.0737
1.0737
1.0737
1.0737
1.0737
1.0737
1.0737
1.0737
1.0737
1.0737
1.0737
1.0737
1.0737
1.0737
1.0737
1.0737
1.0737
1.0737
1.0737
1.0737
1.0737
1.0737
1.0737
1.0737
1.0737
1.0737
1.0737
1.0737
1.0737
1.0737
1.0737
1.0737
1.0737
1.0737
1.0737
1.0737
1.0737
1.0737
1.0737
1.0737
1.0737
1.0737
1.0737
1.0737
1.0737
1.0737
1.0737
1.0737
1.0737
1.0737
1.0737
1.0737
1.0737
1.0737
1.0737
1.0737
1.0737
1.0737
1.0737
1.0737
1.0737
1.0737
1.0737
1.0737
1.0737
1.0737
1.0737
1.0737
1.0737
1.0737
1.0737
1.0737
1.0737
1.0737
1.0737
1.0737
1.0737
1.0737
1.0737
1.0737
1.0737
1.0737
1.0737
1.0737
1.0737
1.0737
1.0737
1.0737
1.0737
1.0737
1.0737
1.0737
1.0737
1.0737
1.0737
1.0737
1.0737
1.0737
1.0737
1.0737
1.0737
1.0737
1.0737
1.0737
1.0737
1.0737
1.0737
1.0737
1.0737
1.0737
1.0737
1.0737
1.0737
1.0737
1.0737
1.0737
1.0737
1.0737
1.0737
1.0737
1.0737
1.0737
1.0737
1.0737
1.0737
1.0737
1.0737
1.0737
1.0737
1.0737
1.0737
1.0737
1.0737
1.0737
1.0737
1.0737
1.0737
1.0737
1.0737
1.0737
1.0737
1.0737
1.0737
1.0737
1.0737
1.0737
1.0737
1.0737
1.0737
1.0737
1.0737
1.0737
1.0737
1.0737
1.0737
1.0737
1.0737
1.0737
1.0737
1.0737
1.0737
1.0737
1.0737
1.0737
1.0737
1.0737
1.0737
1.0737
1.0737
1.0737
1.0737
1.0737
1.0737
1.0737
1.0737
1.0737
1.0737
1.0737
1.0737
1.0737
1.0737
1.0737
1.0737
1.0737
1.0737
)
;

boundaryField
{
    front-back
    {
        type            empty;
    }
    inlet-outlet
    {
        type            calculated;
        value           nonuniform List<scalar> 2(1.0737 0);
    }
    top-down
    {
        type            empty;
    }
}


// ************************************************************************* //
