/*--------------------------------*- C++ -*----------------------------------*\
| =========                 |                                                 |
| \\      /  F ield         | OpenFOAM: The Open Source CFD Toolbox           |
|  \\    /   O peration     | Version:  2.2.x                                 |
|   \\  /    A nd           | Web:      www.OpenFOAM.org                      |
|    \\/     M anipulation  |                                                 |
\*---------------------------------------------------------------------------*/
FoamFile
{
    version     2.0;
    format      ascii;
    class       volScalarField;
    location    "0.3";
    object      By;
}
// * * * * * * * * * * * * * * * * * * * * * * * * * * * * * * * * * * * * * //

dimensions      [1 0 -2 0 0 -1 0];

internalField   nonuniform List<scalar> 
14161
(
-2.1103e-13
-3.53726e-14
-1.60835e-13
-2.80003e-13
-5.37871e-13
-1.00812e-12
-1.87351e-12
-3.43749e-12
-6.19241e-12
-1.10597e-11
-1.91763e-11
-3.2754e-11
-5.52598e-11
-8.82713e-11
-1.37394e-10
-2.13042e-10
-3.2647e-10
-4.89278e-10
-7.1436e-10
-9.82687e-10
-1.42235e-09
-1.78875e-09
-2.41092e-09
-2.51443e-09
-1.91998e-09
-3.78542e-09
6.46058e-09
5.17411e-09
6.02627e-09
2.70487e-08
8.23236e-08
5.13755e-08
1.61296e-08
3.22807e-07
2.3458e-07
-7.26078e-08
8.34561e-07
4.9125e-07
5.70318e-07
1.43955e-06
1.72254e-06
2.3544e-06
3.22943e-06
3.19135e-06
3.94238e-06
4.80187e-06
5.82627e-06
7.06773e-06
8.82039e-06
1.05024e-05
1.28082e-05
1.52301e-05
1.85835e-05
2.23252e-05
2.71554e-05
3.2546e-05
4.14306e-05
5.04136e-05
6.39894e-05
7.83598e-05
9.39553e-05
0.000107483
0.00013429
0.000145701
0.000195873
0.000226371
0.000282864
0.000191898
-0.000154064
-0.00443242
-0.0145877
-0.0278916
-0.0483829
-0.0763187
-0.0774275
-0.0468347
-0.026026
-0.00895997
-0.00152713
0.00290689
0.0061923
0.00882637
0.0130015
0.0143429
0.0186551
0.0257423
0.0371944
0.0489682
0.0562711
0.0465966
0.0384486
0.0319432
0.0266838
0.0230856
0.0207323
0.0186844
0.0169031
0.0156876
0.0149439
0.0141829
0.0132547
0.012537
0.0120129
0.0115847
0.0112806
0.0111028
0.0110298
0.0111006
0.0112932
0.0117003
0.0122865
0.0131133
0.0141925
0.0157467
0.0174889
0.0203091
0.0239557
0.0269811
0.0261215
-2.75615e-13
-3.43529e-14
-1.45872e-13
-2.62504e-13
-5.33595e-13
-1.04203e-12
-2.00554e-12
-3.79782e-12
-7.04485e-12
-1.28979e-11
-2.3153e-11
-4.07072e-11
-7.08504e-11
-1.18181e-10
-1.90699e-10
-3.03738e-10
-4.76346e-10
-7.24431e-10
-1.05265e-09
-1.4685e-09
-1.78318e-09
-2.08925e-09
-2.00115e-09
-1.74282e-09
1.83159e-09
7.33863e-10
1.79449e-08
2.89593e-08
3.42785e-08
8.78087e-08
1.85932e-07
1.90714e-07
2.28667e-07
6.90406e-07
7.11576e-07
3.52987e-07
2.06554e-06
1.60679e-06
1.5401e-06
4.26961e-06
4.56367e-06
6.47288e-06
9.12454e-06
8.87209e-06
1.02936e-05
1.27512e-05
1.60329e-05
1.95765e-05
2.45938e-05
2.86947e-05
3.40504e-05
4.018e-05
4.92017e-05
5.88142e-05
7.35728e-05
8.64971e-05
0.000111561
0.000131142
0.000167379
0.000201699
0.000240193
0.000285134
0.000332371
0.00038206
0.000450465
0.000468379
0.000271584
-3.46977e-05
-0.00350334
-0.0141374
-0.0451727
-0.0848907
-0.144475
-0.182167
-0.152011
-0.0942986
-0.0561662
-0.0244777
-0.00776589
0.00302785
0.0106992
0.0166415
0.0230988
0.0328311
0.0495931
0.0785151
0.117892
0.154136
0.162586
0.140814
0.115987
0.0968226
0.0824587
0.0719436
0.0636773
0.0566817
0.0510721
0.0473607
0.0446342
0.0420857
0.03982
0.0379337
0.0364923
0.0352986
0.0343785
0.0337834
0.0334352
0.0334631
0.03388
0.0349314
0.0365358
0.0389119
0.0420518
0.0465646
0.0513662
0.0585553
0.0639838
0.0692703
0.0683504
-4.64379e-13
-6.73759e-14
-2.91868e-13
-5.21579e-13
-1.04406e-12
-2.03852e-12
-3.93821e-12
-7.48844e-12
-1.40248e-11
-2.57606e-11
-4.64994e-11
-8.16354e-11
-1.40222e-10
-2.35244e-10
-3.80977e-10
-5.99645e-10
-9.21611e-10
-1.37327e-09
-1.97283e-09
-2.80689e-09
-3.61429e-09
-4.83234e-09
-5.29592e-09
-5.74185e-09
-2.71114e-09
1.44338e-09
1.17757e-08
4.37302e-08
6.39427e-08
1.45238e-07
2.18436e-07
3.35344e-07
6.1822e-07
8.28919e-07
1.10103e-06
1.57811e-06
2.67852e-06
2.75138e-06
2.83439e-06
6.63297e-06
7.22747e-06
1.01565e-05
1.44935e-05
1.64411e-05
1.86487e-05
2.10487e-05
2.67912e-05
3.29275e-05
4.06594e-05
4.83773e-05
5.73106e-05
6.93869e-05
8.29757e-05
9.89624e-05
0.000120602
0.000142378
0.00018234
0.000215628
0.000272926
0.000323071
0.000389822
0.000463153
0.000558029
0.000648086
0.000759921
0.00076256
0.000621556
-0.000962545
-0.00778462
-0.0293111
-0.0907208
-0.195217
-0.292658
-0.292489
-0.217004
-0.127001
-0.0701757
-0.0317037
-0.00894349
0.0111489
0.0273826
0.041315
0.0511872
0.0635615
0.0891385
0.130997
0.193256
0.24198
0.248252
0.223222
0.189917
0.162245
0.140288
0.122602
0.108518
0.0966081
0.0872931
0.0810178
0.076237
0.071608
0.0675411
0.0642537
0.061737
0.0596061
0.0579558
0.0568494
0.0561966
0.0561465
0.0567972
0.0584838
0.0611269
0.0650564
0.0700781
0.0773644
0.0850218
0.0959473
0.102573
0.110075
0.110546
-5.96475e-13
-1.28612e-13
-4.38215e-13
-8.2386e-13
-1.65416e-12
-3.21793e-12
-6.16281e-12
-1.15925e-11
-2.14506e-11
-3.90052e-11
-6.94871e-11
-1.21457e-10
-2.0722e-10
-3.4594e-10
-5.64244e-10
-8.95935e-10
-1.383e-09
-2.07461e-09
-3.03235e-09
-4.22131e-09
-5.36725e-09
-6.48763e-09
-6.58613e-09
-5.49692e-09
-9.82366e-10
1.26951e-08
2.40776e-08
6.32286e-08
1.25607e-07
2.18218e-07
3.34224e-07
5.02191e-07
9.37796e-07
1.1476e-06
1.62055e-06
2.53215e-06
2.92717e-06
4.32035e-06
4.92488e-06
8.43124e-06
1.11807e-05
1.36596e-05
1.93292e-05
2.44379e-05
2.58506e-05
3.09429e-05
3.83686e-05
4.61768e-05
5.58706e-05
6.71643e-05
7.89406e-05
9.66147e-05
0.000114018
0.000140677
0.000164063
0.000205292
0.000240274
0.000304828
0.00035846
0.000452638
0.000521208
0.000658577
0.0007382
0.000933737
0.00102503
0.00116759
0.00106534
-0.00188476
-0.011867
-0.0467084
-0.148934
-0.311001
-0.420986
-0.398463
-0.286596
-0.16025
-0.0821034
-0.0350158
-0.0036328
0.0237059
0.0477617
0.0667773
0.0854623
0.115335
0.160467
0.227134
0.282652
0.309678
0.30627
0.280267
0.244971
0.214027
0.188803
0.167788
0.150389
0.135102
0.123178
0.115012
0.108337
0.10177
0.0961517
0.091673
0.0881917
0.0851719
0.0828592
0.0812586
0.0803175
0.0802493
0.081132
0.0833875
0.0869988
0.0922963
0.0989083
0.108038
0.11744
0.131383
0.138948
0.147949
0.149471
-7.28061e-13
-1.78904e-13
-5.8085e-13
-1.10152e-12
-2.20034e-12
-4.28872e-12
-8.23711e-12
-1.55376e-11
-2.87953e-11
-5.2355e-11
-9.33452e-11
-1.63285e-10
-2.78554e-10
-4.63673e-10
-7.54698e-10
-1.19848e-09
-1.8524e-09
-2.77929e-09
-4.10617e-09
-5.54434e-09
-7.36982e-09
-9.30234e-09
-1.02219e-08
-1.01956e-08
-6.2053e-09
5.90443e-09
2.85592e-08
6.94375e-08
1.50439e-07
2.47123e-07
4.26261e-07
7.14242e-07
1.15038e-06
1.37204e-06
2.2954e-06
3.56553e-06
3.50307e-06
5.74104e-06
7.90448e-06
9.46642e-06
1.51235e-05
1.81108e-05
2.37617e-05
3.07675e-05
3.54355e-05
4.09955e-05
5.03615e-05
6.13832e-05
7.25546e-05
8.85235e-05
0.000104728
0.000125676
0.000151883
0.000179415
0.000218171
0.000257578
0.000316805
0.000376923
0.000464633
0.000549851
0.000666779
0.000793798
0.0009435
0.00114665
0.00130573
0.00168426
0.00087449
-0.00360688
-0.0188764
-0.0709446
-0.21707
-0.42535
-0.517187
-0.484471
-0.356617
-0.202498
-0.0990906
-0.0360342
0.00996458
0.0504089
0.0841098
0.116504
0.146
0.193478
0.256243
0.316462
0.352565
0.365881
0.353482
0.325656
0.290945
0.257159
0.2296
0.206932
0.187964
0.170669
0.157195
0.147689
0.139327
0.130937
0.123948
0.118435
0.114055
0.110202
0.107353
0.105464
0.104416
0.104427
0.105531
0.10815
0.112526
0.119056
0.126933
0.137619
0.148624
0.164576
0.173041
0.183004
0.185531
-8.26572e-13
-2.89814e-13
-8.15299e-13
-1.56434e-12
-3.08438e-12
-5.92263e-12
-1.12148e-11
-2.09155e-11
-3.83649e-11
-6.90738e-11
-1.2206e-10
-2.11535e-10
-3.59642e-10
-5.98613e-10
-9.74339e-10
-1.54702e-09
-2.39607e-09
-3.60683e-09
-5.36242e-09
-7.20839e-09
-9.75183e-09
-1.17853e-08
-1.28881e-08
-1.2239e-08
-4.63758e-09
1.00342e-08
4.23137e-08
9.31409e-08
1.96342e-07
3.34546e-07
5.47982e-07
8.82155e-07
1.39448e-06
1.97169e-06
2.78313e-06
3.8851e-06
5.29478e-06
7.30817e-06
9.68183e-06
1.09745e-05
1.72447e-05
2.41419e-05
2.81786e-05
3.64682e-05
4.30715e-05
5.12907e-05
5.97039e-05
7.30163e-05
8.8963e-05
0.000106013
0.000126147
0.000151793
0.000180418
0.000215996
0.000258768
0.000304827
0.000370957
0.000438809
0.00053641
0.000637719
0.000766568
0.000920152
0.00112116
0.00131911
0.00169223
0.00172487
-4.06894e-05
-0.00640223
-0.027758
-0.0980021
-0.286727
-0.526159
-0.593397
-0.556164
-0.429712
-0.258247
-0.11982
-0.0261807
0.0394105
0.097015
0.141127
0.18743
0.241009
0.298805
0.353471
0.389167
0.407528
0.403869
0.385917
0.35747
0.323684
0.290917
0.263939
0.241245
0.221465
0.20331
0.189664
0.179433
0.169699
0.159953
0.151995
0.145526
0.140193
0.135434
0.131975
0.129651
0.128427
0.128515
0.129984
0.133097
0.13806
0.145377
0.154218
0.16609
0.178237
0.195325
0.204819
0.215423
0.218727
-9.51829e-13
-3.99752e-13
-1.03332e-12
-1.98827e-12
-3.91577e-12
-7.52601e-12
-1.4265e-11
-2.66091e-11
-4.88055e-11
-8.79089e-11
-1.55424e-10
-2.69479e-10
-4.57827e-10
-7.61452e-10
-1.23613e-09
-1.95173e-09
-2.98802e-09
-4.44046e-09
-6.42447e-09
-9.15853e-09
-1.19296e-08
-1.5372e-08
-1.67381e-08
-1.69771e-08
-9.38401e-09
2.20661e-09
4.49655e-08
1.00473e-07
1.96695e-07
4.02169e-07
6.24254e-07
1.04635e-06
1.50433e-06
2.27417e-06
3.67634e-06
4.74691e-06
6.07859e-06
8.81362e-06
1.18472e-05
1.41826e-05
1.76537e-05
2.66401e-05
3.37953e-05
4.09001e-05
5.12682e-05
6.17741e-05
7.31652e-05
8.36314e-05
0.000102447
0.000124319
0.000148546
0.000177086
0.000210443
0.000251356
0.000296019
0.000353456
0.000416081
0.000500006
0.000596772
0.000706848
0.000844813
0.00100781
0.0012516
0.00145622
0.00180203
0.00113874
-0.00135688
-0.0106151
-0.0402794
-0.132006
-0.363108
-0.618285
-0.650943
-0.60639
-0.482528
-0.292692
-0.118151
0.00427983
0.0952755
0.167205
0.229244
0.284466
0.339688
0.386753
0.420029
0.439318
0.443407
0.432419
0.411662
0.38387
0.350987
0.31998
0.294049
0.271557
0.251054
0.232831
0.219734
0.208761
0.197848
0.187362
0.178999
0.171784
0.16558
0.160057
0.156215
0.153626
0.152231
0.152254
0.153838
0.157157
0.162625
0.170748
0.180415
0.193337
0.206264
0.223851
0.234199
0.245029
0.248968
-1.0249e-12
-4.96279e-13
-1.23517e-12
-2.39192e-12
-4.69414e-12
-8.99749e-12
-1.70145e-11
-3.16719e-11
-5.79721e-11
-1.04229e-10
-1.83944e-10
-3.18472e-10
-5.40562e-10
-8.98343e-10
-1.46012e-09
-2.32004e-09
-3.60106e-09
-5.40648e-09
-7.57551e-09
-1.09165e-08
-1.43292e-08
-1.79936e-08
-2.02742e-08
-2.02073e-08
-1.07823e-08
7.13198e-09
4.57836e-08
1.35935e-07
2.30833e-07
4.44064e-07
7.56574e-07
1.2251e-06
1.89933e-06
2.49096e-06
3.76276e-06
6.01298e-06
7.57892e-06
9.03282e-06
1.32915e-05
1.84377e-05
2.10782e-05
2.59994e-05
3.77127e-05
4.64842e-05
5.53511e-05
6.95165e-05
8.36234e-05
9.48577e-05
0.000112977
0.000133587
0.000162825
0.000196536
0.000233022
0.000274457
0.000322523
0.000379617
0.000445601
0.000530642
0.000626819
0.000746238
0.000863911
0.00104186
0.00117238
0.00137408
0.00111447
5.66444e-05
-0.0037807
-0.0166456
-0.0563662
-0.173575
-0.450043
-0.688433
-0.688518
-0.631032
-0.500037
-0.299139
-0.0896147
0.0632726
0.17137
0.255262
0.321623
0.374666
0.416248
0.448222
0.468594
0.477123
0.471036
0.455307
0.432866
0.404596
0.373842
0.345567
0.320942
0.298596
0.277976
0.260706
0.248287
0.236597
0.225214
0.214763
0.206482
0.198773
0.191906
0.185687
0.181389
0.178426
0.176775
0.176543
0.177914
0.181173
0.186794
0.195315
0.20558
0.21926
0.232709
0.25035
0.261276
0.272219
0.276615
-1.15316e-12
-6.30941e-13
-1.49092e-12
-2.89041e-12
-5.67499e-12
-1.08882e-11
-2.05952e-11
-3.83278e-11
-7.01169e-11
-1.26008e-10
-2.22311e-10
-3.84634e-10
-6.51599e-10
-1.07905e-09
-1.74423e-09
-2.74885e-09
-4.21633e-09
-6.28231e-09
-9.06354e-09
-1.26451e-08
-1.67692e-08
-2.12319e-08
-2.39232e-08
-2.47189e-08
-1.65614e-08
6.19424e-09
4.0388e-08
1.29584e-07
2.79413e-07
4.62679e-07
8.18351e-07
1.31114e-06
2.01127e-06
3.19593e-06
4.15906e-06
5.72382e-06
8.78534e-06
1.16861e-05
1.39499e-05
1.87589e-05
2.58515e-05
2.98407e-05
3.79805e-05
5.00965e-05
6.17051e-05
7.15652e-05
8.98498e-05
0.00010719
0.000125103
0.000146245
0.000174704
0.000208354
0.000246224
0.000290692
0.000341868
0.000401178
0.000473589
0.000552532
0.000650424
0.000754429
0.000892783
0.00101166
0.00117801
0.00113132
0.000670128
-0.000998992
-0.00643641
-0.0237339
-0.0778189
-0.231874
-0.540755
-0.721648
-0.706529
-0.631071
-0.477672
-0.250423
-0.0191835
0.146553
0.25948
0.339824
0.398067
0.440249
0.471031
0.492183
0.505682
0.506011
0.495105
0.476998
0.453742
0.424719
0.395503
0.369121
0.345083
0.322443
0.302165
0.286005
0.273534
0.261013
0.24957
0.239485
0.231416
0.223324
0.216067
0.209501
0.205076
0.201888
0.20012
0.199802
0.201077
0.204315
0.210107
0.218858
0.229573
0.243757
0.257509
0.274907
0.286115
0.296844
0.301549
-1.21479e-12
-7.49476e-13
-1.70899e-12
-3.30719e-12
-6.46722e-12
-1.23885e-11
-2.33874e-11
-4.34279e-11
-7.92685e-11
-1.42123e-10
-2.50037e-10
-4.31369e-10
-7.28868e-10
-1.20515e-09
-1.94874e-09
-3.07832e-09
-4.74362e-09
-7.11741e-09
-1.0441e-08
-1.41945e-08
-1.92921e-08
-2.4012e-08
-2.76777e-08
-2.77724e-08
-1.9884e-08
2.76891e-09
5.90401e-08
1.29747e-07
2.94499e-07
5.43421e-07
8.9692e-07
1.47046e-06
2.11463e-06
3.26811e-06
5.17564e-06
6.53535e-06
8.3336e-06
1.21682e-05
1.72221e-05
2.02607e-05
2.5458e-05
3.41799e-05
4.20262e-05
5.01848e-05
6.35928e-05
7.8011e-05
9.2852e-05
0.000108903
0.000133922
0.000156232
0.000183576
0.000212396
0.000253002
0.000298329
0.00034115
0.000399558
0.000468967
0.000551162
0.000634879
0.000730198
0.000843044
0.000988146
0.00110976
0.00104505
0.000512747
-0.00159137
-0.00900004
-0.0328308
-0.108196
-0.312059
-0.613178
-0.729262
-0.701637
-0.602625
-0.420173
-0.162832
0.0728359
0.230801
0.334583
0.405487
0.45563
0.490672
0.513956
0.528069
0.534502
0.529511
0.516005
0.497069
0.472666
0.443594
0.415911
0.391327
0.368149
0.346065
0.327047
0.312118
0.299165
0.285973
0.274688
0.264836
0.256747
0.248271
0.240819
0.234005
0.229333
0.22562
0.223481
0.22278
0.223764
0.226887
0.232604
0.241459
0.252362
0.266834
0.280731
0.297571
0.308879
0.319285
0.324281
-1.34237e-12
-9.26251e-13
-2.04441e-12
-3.95504e-12
-7.72283e-12
-1.47803e-11
-2.78696e-11
-5.16825e-11
-9.4196e-11
-1.68604e-10
-2.96056e-10
-5.09628e-10
-8.59029e-10
-1.41645e-09
-2.2826e-09
-3.58764e-09
-5.48133e-09
-8.12414e-09
-1.15889e-08
-1.61757e-08
-2.17957e-08
-2.68991e-08
-3.10877e-08
-3.19604e-08
-2.1726e-08
-4.16853e-09
5.41149e-08
1.50339e-07
2.87818e-07
5.6978e-07
9.39522e-07
1.55698e-06
2.33467e-06
3.40173e-06
4.84818e-06
7.54564e-06
9.8049e-06
1.2327e-05
1.62315e-05
2.2907e-05
2.93252e-05
3.3951e-05
4.19946e-05
5.35968e-05
6.55201e-05
7.56755e-05
9.38392e-05
0.000115289
0.000132264
0.000151374
0.000191029
0.000219396
0.000247302
0.000287858
0.000352919
0.000401728
0.000454158
0.000521256
0.000619365
0.000700589
0.000781967
0.0008912
0.000961762
0.000721369
-0.000273155
-0.00361582
-0.0146382
-0.0483295
-0.14931
-0.404135
-0.679331
-0.717187
-0.670258
-0.540278
-0.318814
-0.0447882
0.171218
0.309249
0.399017
0.459119
0.499871
0.528557
0.547565
0.559139
0.560156
0.552097
0.537343
0.51779
0.49254
0.463371
0.435917
0.411439
0.388415
0.36734
0.350032
0.335751
0.322026
0.308649
0.29778
0.288092
0.279973
0.271352
0.263987
0.257167
0.252429
0.248339
0.245936
0.244871
0.245514
0.248562
0.254084
0.263015
0.27396
0.288494
0.302355
0.318419
0.329607
0.339538
0.344697
-1.39572e-12
-1.05147e-12
-2.27086e-12
-4.38016e-12
-8.5158e-12
-1.62529e-11
-3.05685e-11
-5.65517e-11
-1.02837e-10
-1.83634e-10
-3.21799e-10
-5.52701e-10
-9.2995e-10
-1.53147e-09
-2.46451e-09
-3.87051e-09
-5.9308e-09
-8.86474e-09
-1.28275e-08
-1.78965e-08
-2.32403e-08
-2.96134e-08
-3.40836e-08
-3.51344e-08
-2.56696e-08
-4.86496e-11
4.7668e-08
1.55428e-07
3.15482e-07
5.76588e-07
9.99061e-07
1.55822e-06
2.44622e-06
3.70712e-06
5.19195e-06
6.85828e-06
1.01678e-05
1.389e-05
1.73405e-05
2.15265e-05
2.90712e-05
3.71238e-05
4.31393e-05
5.06835e-05
6.57038e-05
7.97581e-05
8.926e-05
0.0001045
0.000133552
0.000152144
0.000174041
0.00021282
0.000256217
0.000279416
0.000325118
0.000389918
0.000449363
0.000495492
0.000561558
0.000652977
0.000715599
0.000814593
0.000810459
0.000368673
-0.00114525
-0.00605992
-0.0216413
-0.0697391
-0.209246
-0.510218
-0.70569
-0.693655
-0.611331
-0.44086
-0.177718
0.0837085
0.259204
0.374072
0.451904
0.503445
0.537681
0.560327
0.575244
0.583737
0.582039
0.572358
0.55754
0.537641
0.51261
0.484338
0.457576
0.433019
0.410189
0.390024
0.373732
0.359242
0.345069
0.331998
0.32151
0.311781
0.303487
0.294649
0.287343
0.280371
0.275359
0.270782
0.268034
0.266482
0.266704
0.269512
0.274659
0.283521
0.294383
0.308697
0.322425
0.337661
0.348638
0.358137
0.363355
-1.51892e-12
-1.25116e-12
-2.64852e-12
-5.11002e-12
-9.92734e-12
-1.89262e-11
-3.55419e-11
-6.56379e-11
-1.19139e-10
-2.12295e-10
-3.71116e-10
-6.35871e-10
-1.06659e-09
-1.74999e-09
-2.80605e-09
-4.38723e-09
-6.66916e-09
-9.8129e-09
-1.39761e-08
-1.93732e-08
-2.54346e-08
-3.20442e-08
-3.68701e-08
-3.77112e-08
-3.00809e-08
-2.55033e-09
5.31123e-08
1.41447e-07
3.31039e-07
5.84704e-07
9.89739e-07
1.63239e-06
2.3787e-06
3.67671e-06
5.17661e-06
7.35113e-06
9.71581e-06
1.31052e-05
1.78265e-05
2.20745e-05
2.72251e-05
3.44494e-05
4.62294e-05
5.17826e-05
5.70132e-05
7.09755e-05
9.52128e-05
0.000104906
0.000115663
0.000140323
0.000177902
0.000191776
0.000227687
0.000274151
0.000316416
0.000352076
0.00041453
0.000485359
0.000541135
0.000611472
0.000688636
0.000759655
0.000868097
0.000312806
-0.00178677
-0.00883418
-0.031113
-0.101506
-0.294098
-0.586696
-0.690574
-0.653333
-0.529899
-0.307143
-0.0232903
0.197707
0.338072
0.430984
0.495066
0.539115
0.5689
0.588032
0.600403
0.606253
0.603399
0.593468
0.57911
0.558923
0.53368
0.504859
0.47783
0.453258
0.43101
0.411925
0.396274
0.381364
0.367073
0.354353
0.34399
0.334114
0.325704
0.316801
0.309662
0.30256
0.297331
0.292328
0.289272
0.287266
0.287209
0.289705
0.294411
0.30302
0.313674
0.327562
0.341008
0.355359
0.365978
0.374973
0.380182
-1.57069e-12
-1.37448e-12
-2.86644e-12
-5.51347e-12
-1.06724e-11
-2.0294e-11
-3.80152e-11
-7.0035e-11
-1.26795e-10
-2.25407e-10
-3.93009e-10
-6.71641e-10
-1.12435e-09
-1.84102e-09
-2.94422e-09
-4.59612e-09
-6.99412e-09
-1.04056e-08
-1.49471e-08
-2.06404e-08
-2.71804e-08
-3.38845e-08
-3.91919e-08
-3.97793e-08
-3.02981e-08
-7.6796e-09
5.13025e-08
1.56132e-07
3.08339e-07
5.86638e-07
1.00577e-06
1.53753e-06
2.44027e-06
3.47518e-06
5.03903e-06
7.12489e-06
9.38148e-06
1.27739e-05
1.61097e-05
2.1914e-05
2.6683e-05
3.27802e-05
3.86952e-05
5.09306e-05
6.08079e-05
6.66541e-05
7.56225e-05
0.000100479
0.00012029
0.000127236
0.00015021
0.000189681
0.00021666
0.000236816
0.000291443
0.00034848
0.000372112
0.000438634
0.000506614
0.000598084
0.000626038
0.000720888
0.000620807
-0.000400316
-0.00371479
-0.0143388
-0.0469106
-0.144699
-0.393826
-0.632764
-0.64817
-0.578445
-0.409939
-0.141551
0.117357
0.28997
0.404358
0.481503
0.533862
0.569905
0.594752
0.610845
0.621452
0.625946
0.622524
0.61281
0.59921
0.579661
0.555379
0.526739
0.499215
0.474496
0.452637
0.434248
0.418659
0.403437
0.389355
0.376974
0.366612
0.356574
0.348037
0.339057
0.331942
0.324508
0.318925
0.313416
0.30994
0.30745
0.307087
0.309146
0.313377
0.321543
0.331829
0.345152
0.358249
0.371781
0.38204
0.390591
0.395707
-1.6878e-12
-1.58082e-12
-3.25477e-12
-6.26038e-12
-1.21073e-11
-2.29971e-11
-4.30118e-11
-7.91005e-11
-1.4291e-10
-2.53469e-10
-4.40897e-10
-7.51299e-10
-1.25322e-09
-2.04394e-09
-3.25499e-09
-5.05347e-09
-7.63419e-09
-1.1107e-08
-1.58292e-08
-2.14956e-08
-2.84517e-08
-3.5224e-08
-4.04734e-08
-4.16445e-08
-3.19701e-08
-5.04336e-09
4.7641e-08
1.44766e-07
3.17346e-07
5.77083e-07
9.3539e-07
1.54532e-06
2.27585e-06
3.35633e-06
4.82952e-06
6.45488e-06
9.09926e-06
1.16326e-05
1.57109e-05
1.90388e-05
2.44161e-05
3.06306e-05
3.97918e-05
4.33244e-05
4.85369e-05
6.42392e-05
8.0632e-05
8.6607e-05
9.78907e-05
0.000125136
0.000140585
0.000155721
0.00019093
0.000232747
0.000243372
0.000296385
0.000341453
0.000415253
0.00041729
0.00055466
0.000562482
0.000695382
0.00042363
-0.00112708
-0.006083
-0.0216512
-0.0707279
-0.211203
-0.488666
-0.628958
-0.597872
-0.470852
-0.242766
0.0304672
0.233402
0.366794
0.458366
0.522526
0.5667
0.597437
0.618723
0.632816
0.642293
0.64599
0.64231
0.632803
0.61943
0.600251
0.576558
0.548483
0.520858
0.496134
0.474587
0.456445
0.440464
0.42497
0.411082
0.398747
0.38818
0.377946
0.369347
0.360413
0.353306
0.345639
0.339783
0.333857
0.330035
0.327106
0.326405
0.327977
0.331664
0.339206
0.348937
0.361526
0.374196
0.38693
0.396778
0.404848
0.409851
-1.74199e-12
-1.70014e-12
-3.45951e-12
-6.63035e-12
-1.27825e-11
-2.42197e-11
-4.5186e-11
-8.28835e-11
-1.49364e-10
-2.6415e-10
-4.58193e-10
-7.7873e-10
-1.29524e-09
-2.10694e-09
-3.34577e-09
-5.18252e-09
-7.84844e-09
-1.15373e-08
-1.63939e-08
-2.22978e-08
-2.91059e-08
-3.59024e-08
-4.10869e-08
-4.07697e-08
-3.25361e-08
-5.40957e-09
4.98793e-08
1.48636e-07
3.07458e-07
5.455e-07
9.38504e-07
1.43971e-06
2.17554e-06
3.17128e-06
4.36261e-06
6.25232e-06
7.99956e-06
1.0839e-05
1.3793e-05
1.78531e-05
2.17982e-05
2.63161e-05
3.34888e-05
4.20523e-05
4.57085e-05
5.03268e-05
6.73045e-05
8.41281e-05
8.61095e-05
9.55804e-05
0.000132358
0.000148979
0.000154827
0.000191443
0.000235655
0.00025942
0.000277182
0.000365231
0.000375407
0.000442235
0.000449668
0.000610208
0.000159649
-0.00211446
-0.00964192
-0.0329901
-0.105476
-0.303645
-0.535946
-0.57426
-0.507118
-0.33373
-0.0685868
0.169512
0.326574
0.432475
0.505631
0.557071
0.593987
0.620502
0.639286
0.65203
0.660769
0.664337
0.660874
0.651971
0.639274
0.620955
0.598125
0.570834
0.543014
0.518074
0.4966
0.478433
0.462128
0.446678
0.433122
0.420796
0.410007
0.399494
0.39068
0.381581
0.374231
0.366241
0.360044
0.353708
0.349549
0.346184
0.345123
0.346173
0.34929
0.3561
0.365106
0.376857
0.389043
0.401096
0.410577
0.418223
0.42302
-1.8489e-12
-1.90514e-12
-3.84007e-12
-7.35117e-12
-1.41513e-11
-2.67754e-11
-4.98724e-11
-9.12901e-11
-1.64146e-10
-2.89604e-10
-5.00786e-10
-8.48355e-10
-1.40588e-09
-2.27621e-09
-3.59631e-09
-5.534e-09
-8.25456e-09
-1.19896e-08
-1.67528e-08
-2.28004e-08
-2.93993e-08
-3.58009e-08
-4.06527e-08
-4.03198e-08
-2.97584e-08
-3.26858e-09
5.17434e-08
1.48129e-07
3.01174e-07
5.49319e-07
8.82947e-07
1.37191e-06
2.0569e-06
2.89682e-06
4.14793e-06
5.48612e-06
7.36354e-06
9.62324e-06
1.21817e-05
1.55098e-05
1.91107e-05
2.34709e-05
2.66619e-05
3.53968e-05
4.1047e-05
4.55737e-05
4.96375e-05
6.69204e-05
7.90599e-05
8.0135e-05
9.54573e-05
0.000122824
0.000138043
0.000141817
0.000183485
0.000223494
0.000251499
0.000286826
0.000361275
0.000401872
0.000402724
0.000352285
-0.000673398
-0.00428243
-0.0155488
-0.0507628
-0.154307
-0.385659
-0.536431
-0.508184
-0.38007
-0.151902
0.099962
0.279353
0.400522
0.485094
0.54476
0.587444
0.618764
0.641744
0.658443
0.669991
0.678076
0.681562
0.678442
0.67026
0.658423
0.641246
0.619646
0.593447
0.565592
0.540327
0.518637
0.500001
0.483286
0.467831
0.454427
0.441968
0.430941
0.420238
0.411334
0.402121
0.394562
0.386303
0.379814
0.373106
0.368594
0.364771
0.363295
0.363776
0.366315
0.372239
0.380389
0.391197
0.402824
0.414207
0.423345
0.43052
0.435068
-1.90842e-12
-2.01464e-12
-4.02789e-12
-7.68425e-12
-1.47481e-11
-2.78335e-11
-5.1707e-11
-9.44123e-11
-1.69246e-10
-2.97734e-10
-5.13412e-10
-8.66723e-10
-1.43155e-09
-2.3097e-09
-3.63948e-09
-5.59123e-09
-8.35621e-09
-1.21104e-08
-1.69177e-08
-2.2637e-08
-2.9128e-08
-3.51969e-08
-3.901e-08
-3.76643e-08
-2.65877e-08
2.78844e-09
5.74975e-08
1.54188e-07
3.05048e-07
5.32084e-07
8.62311e-07
1.3156e-06
1.91487e-06
2.74893e-06
3.70995e-06
5.0025e-06
6.61723e-06
8.36352e-06
1.06797e-05
1.30764e-05
1.6658e-05
1.91668e-05
2.28734e-05
2.75784e-05
3.25544e-05
3.9707e-05
4.10371e-05
4.72564e-05
6.04928e-05
7.15729e-05
7.04367e-05
8.57312e-05
0.000105925
0.00011653
0.000121944
0.00014572
0.000171961
0.000181053
0.000239979
0.000235369
0.000325933
2.67101e-05
-0.00177068
-0.00734131
-0.0243082
-0.0778167
-0.229791
-0.426625
-0.475166
-0.406958
-0.225523
0.0254235
0.232692
0.367903
0.462187
0.529185
0.577592
0.613361
0.640315
0.660565
0.675755
0.686518
0.694201
0.697866
0.695291
0.68786
0.676903
0.660869
0.640533
0.615646
0.58825
0.562785
0.540873
0.521729
0.504761
0.489341
0.475911
0.463045
0.451591
0.440569
0.431434
0.422034
0.414215
0.405721
0.398953
0.391916
0.387062
0.382792
0.38088
0.380759
0.382712
0.387682
0.394929
0.404803
0.41582
0.426631
0.435432
0.442103
0.446321
-2.00203e-12
-2.20329e-12
-4.37567e-12
-8.3392e-12
-1.59803e-11
-3.01148e-11
-5.58346e-11
-1.01717e-10
-1.8193e-10
-3.19027e-10
-5.48217e-10
-9.22032e-10
-1.51593e-09
-2.4322e-09
-3.80472e-09
-5.79297e-09
-8.56116e-09
-1.22147e-08
-1.69203e-08
-2.24384e-08
-2.84561e-08
-3.36498e-08
-3.6771e-08
-3.32679e-08
-2.05362e-08
1.05724e-08
6.75897e-08
1.63615e-07
3.11898e-07
5.36006e-07
8.48846e-07
1.26893e-06
1.82763e-06
2.5449e-06
3.44555e-06
4.57505e-06
5.79084e-06
7.44942e-06
9.16201e-06
1.13868e-05
1.29936e-05
1.62206e-05
1.95917e-05
2.16374e-05
2.26643e-05
2.97851e-05
3.57726e-05
3.27119e-05
4.04031e-05
5.05653e-05
5.34256e-05
5.15305e-05
6.80592e-05
8.308e-05
8.02611e-05
8.75064e-05
0.000125079
0.0001092
0.000107778
0.000121819
0.00010381
-0.000508919
-0.00311791
-0.0111453
-0.0361823
-0.111174
-0.288833
-0.424262
-0.399477
-0.269338
-0.041232
0.183809
0.333967
0.437995
0.512098
0.56593
0.605973
0.636425
0.65984
0.677855
0.69174
0.701815
0.709199
0.713102
0.711242
0.704661
0.694745
0.68
0.66105
0.637671
0.611127
0.585252
0.562902
0.543155
0.525959
0.510375
0.496769
0.483549
0.471778
0.460495
0.451169
0.441519
0.433387
0.424644
0.417551
0.410189
0.404939
0.400245
0.397877
0.397135
0.398476
0.402367
0.408679
0.417645
0.428009
0.43821
0.446589
0.452726
0.456606
-2.06446e-12
-2.30302e-12
-4.54283e-12
-8.62428e-12
-1.6478e-11
-3.09665e-11
-5.72812e-11
-1.04053e-10
-1.85547e-10
-3.24504e-10
-5.55801e-10
-9.31347e-10
-1.52561e-09
-2.43952e-09
-3.80354e-09
-5.76924e-09
-8.47958e-09
-1.2061e-08
-1.65397e-08
-2.17646e-08
-2.71173e-08
-3.14623e-08
-3.28274e-08
-2.79671e-08
-1.21814e-08
2.17587e-08
8.14529e-08
1.80593e-07
3.28569e-07
5.47303e-07
8.48899e-07
1.25437e-06
1.77184e-06
2.42883e-06
3.25327e-06
4.18181e-06
5.2342e-06
6.68264e-06
8.07477e-06
9.58456e-06
1.04846e-05
1.35717e-05
1.64534e-05
1.80519e-05
1.38041e-05
1.93419e-05
2.95206e-05
2.82646e-05
2.03767e-05
2.82558e-05
3.48825e-05
3.20752e-05
2.99601e-05
3.85142e-05
2.66697e-05
1.62006e-05
3.1922e-05
-3.52864e-06
-4.42467e-05
-9.60149e-05
-0.000182575
-0.0013351
-0.00526982
-0.0174076
-0.0558622
-0.167441
-0.312732
-0.355489
-0.284315
-0.0988137
0.126756
0.298991
0.413105
0.493926
0.552561
0.596637
0.630467
0.656864
0.677584
0.693786
0.706596
0.716188
0.723364
0.727606
0.726553
0.720842
0.712005
0.698569
0.681027
0.659161
0.633726
0.607626
0.584725
0.564356
0.546817
0.530932
0.517065
0.503495
0.491446
0.479939
0.470417
0.460507
0.452067
0.443086
0.435653
0.427965
0.422287
0.417142
0.414272
0.412872
0.413517
0.416362
0.421798
0.430015
0.439742
0.449334
0.457217
0.462794
0.466251
-2.14276e-12
-2.46505e-12
-4.84498e-12
-9.19061e-12
-1.75299e-11
-3.28863e-11
-6.06845e-11
-1.10006e-10
-1.95596e-10
-3.40848e-10
-5.81668e-10
-9.70425e-10
-1.58109e-09
-2.51065e-09
-3.88279e-09
-5.82475e-09
-8.4827e-09
-1.19619e-08
-1.62074e-08
-2.09455e-08
-2.55844e-08
-2.87052e-08
-2.84432e-08
-2.06874e-08
-2.36761e-09
3.59547e-08
1.00017e-07
2.01684e-07
3.54057e-07
5.76192e-07
8.60642e-07
1.27072e-06
1.75712e-06
2.36322e-06
3.13743e-06
3.96636e-06
4.94273e-06
6.14596e-06
7.20318e-06
8.56415e-06
9.25655e-06
1.08579e-05
1.36378e-05
1.60418e-05
1.04343e-05
1.08526e-05
1.9945e-05
2.57327e-05
1.29292e-05
8.48988e-06
1.44453e-05
1.98181e-05
1.29531e-05
-2.59348e-06
-1.19183e-05
-8.9025e-06
-6.13542e-05
-5.59329e-05
-0.00018135
-0.000216231
-0.000590264
-0.00232521
-0.00789245
-0.0251378
-0.0773875
-0.195655
-0.298942
-0.270905
-0.13281
0.0792441
0.265015
0.388217
0.475368
0.538788
0.586509
0.623317
0.652367
0.675493
0.694007
0.708752
0.72066
0.729838
0.736879
0.741376
0.741178
0.736356
0.728632
0.71651
0.70031
0.679886
0.655649
0.629549
0.60596
0.585034
0.567122
0.550889
0.536719
0.522767
0.510457
0.498729
0.488992
0.478794
0.470081
0.460866
0.453124
0.445168
0.439088
0.433486
0.430071
0.427998
0.42788
0.429769
0.434382
0.441834
0.450801
0.459685
0.466951
0.471974
0.475024
-2.20555e-12
-2.54856e-12
-4.97634e-12
-9.40656e-12
-1.7896e-11
-3.3501e-11
-6.16848e-11
-1.11498e-10
-1.97768e-10
-3.43706e-10
-5.84567e-10
-9.72012e-10
-1.57733e-09
-2.49944e-09
-3.84387e-09
-5.73853e-09
-8.29472e-09
-1.15822e-08
-1.55265e-08
-1.972e-08
-2.3505e-08
-2.52519e-08
-2.313e-08
-1.28161e-08
9.40908e-09
5.19235e-08
1.21701e-07
2.29289e-07
3.87382e-07
6.1276e-07
8.98944e-07
1.30877e-06
1.77789e-06
2.39061e-06
3.0747e-06
3.91163e-06
4.81008e-06
5.82172e-06
6.86594e-06
7.88492e-06
8.66445e-06
9.91688e-06
1.16475e-05
1.35335e-05
9.54358e-06
1.01395e-05
1.30319e-05
1.96125e-05
1.0819e-05
4.231e-06
1.7342e-07
8.89002e-06
3.11105e-06
-1.66256e-05
-3.57823e-05
-2.73402e-05
-7.01033e-05
-8.50993e-05
-0.000157655
-0.000164089
-0.000916873
-0.00352359
-0.0114744
-0.0366106
-0.110483
-0.19298
-0.221387
-0.145786
0.0358167
0.226996
0.362921
0.457115
0.525215
0.576013
0.615384
0.646708
0.672119
0.692795
0.709562
0.723115
0.734283
0.743093
0.750018
0.7547
0.75534
0.751484
0.744807
0.734037
0.719158
0.700198
0.677148
0.651641
0.627268
0.605752
0.587257
0.570569
0.556
0.541625
0.529074
0.517092
0.507119
0.496622
0.487646
0.478172
0.470094
0.461821
0.455256
0.449144
0.445103
0.442366
0.441489
0.442702
0.446593
0.453272
0.461484
0.469685
0.476302
0.480761
0.48332
-2.26772e-12
-2.67749e-12
-5.22768e-12
-9.8712e-12
-1.87459e-11
-3.50069e-11
-6.43186e-11
-1.15998e-10
-2.05104e-10
-3.55259e-10
-6.01906e-10
-9.96229e-10
-1.60742e-09
-2.52409e-09
-3.85846e-09
-5.71453e-09
-8.22179e-09
-1.13224e-08
-1.49318e-08
-1.86196e-08
-2.14999e-08
-2.19924e-08
-1.77153e-08
-4.60711e-09
2.14297e-08
6.90886e-08
1.44745e-07
2.59742e-07
4.24668e-07
6.61089e-07
9.51012e-07
1.36373e-06
1.83897e-06
2.44731e-06
3.11855e-06
3.98861e-06
4.82141e-06
5.79986e-06
6.92828e-06
7.72484e-06
8.31352e-06
1.05778e-05
1.22679e-05