/*--------------------------------*- C++ -*----------------------------------*\
| =========                 |                                                 |
| \\      /  F ield         | OpenFOAM: The Open Source CFD Toolbox           |
|  \\    /   O peration     | Version:  2.2.x                                 |
|   \\  /    A nd           | Web:      www.OpenFOAM.org                      |
|    \\/     M anipulation  |                                                 |
\*---------------------------------------------------------------------------*/
FoamFile
{
    version     2.0;
    format      ascii;
    class       volScalarField;
    location    "1.45";
    object      pB;
}
// * * * * * * * * * * * * * * * * * * * * * * * * * * * * * * * * * * * * * //

dimensions      [1 1 -3 0 0 -1 0];

internalField   nonuniform List<scalar> 
14161
(
-0.00177294
0.000164476
-0.000154682
-0.000141192
-0.000188548
-0.000224396
-0.000262096
-0.000306187
-0.000348505
-0.000380572
-0.000432446
-0.000473007
-0.000482814
-0.00054576
-0.000579683
-0.00055966
-0.000625052
-0.000607904
-0.000613008
-0.000599239
-0.000580624
-0.000536686
-0.000499979
-0.000435446
-0.000375411
-0.000303747
-0.00021729
-0.000130717
-5.08581e-05
5.34774e-06
0.000119334
0.000218348
0.000347243
0.000456661
0.000567643
0.000623828
0.000430824
0.000378893
-0.00105819
-0.00260305
-0.00731322
-0.00762185
0.131996
-0.010145
-0.0109849
-0.00402761
-0.000724918
-0.000529081
-0.000389913
0.000693068
0.00118394
-0.000351088
-1.87242e-05
-0.000512448
-0.000120786
0.000345604
-0.000829099
-8.61342e-05
-0.000306013
-0.000508972
-0.00043654
-0.000426993
-0.000422131
-0.000356733
-0.000271643
-0.000221345
-0.000291037
-0.000349553
-0.000262474
-0.000210854
-0.000259737
-0.000325968
-0.000415152
-0.000475455
-0.00057816
-0.000421172
-0.000207747
0.000215624
0.000191214
-3.27273e-05
-5.88958e-06
0.000384807
0.00040167
0.00114672
0.000719384
0.00143891
0.000941965
0.00243072
-0.000159448
-0.00464717
-0.00971256
-0.00052636
-0.000820578
0.00306129
0.00288573
0.00280215
0.00208182
0.00121548
0.000371206
0.000122473
-3.8272e-05
-5.56309e-05
-0.000149821
-4.33245e-05
-0.000182354
-5.03198e-06
-0.000319139
-0.000134358
-0.000288617
-5.1607e-05
-0.000317497
0.000421247
-0.00132265
0.00155794
-0.00442084
0.0046559
-0.00840058
0.00814992
-0.0107772
-0.00177536
0.00016594
-0.000154959
-0.0001413
-0.000188996
-0.000224308
-0.000262821
-0.000306456
-0.000348721
-0.000380977
-0.000431167
-0.000472847
-0.000485839
-0.000544105
-0.000576094
-0.000564946
-0.000620731
-0.000610741
-0.000616345
-0.000598587
-0.000580734
-0.000539498
-0.000499069
-0.000437874
-0.000380996
-0.000308313
-0.000219464
-0.000141834
-6.00646e-05
-1.04546e-05
8.09538e-05
0.000154709
0.000240409
0.000303006
0.000337778
0.000282531
0.000104858
-0.000268512
-0.00098008
-0.00226276
-0.00213827
-0.017643
0.0717088
0.00989908
0.00207572
0.000415686
0.00111204
8.26509e-05
0.000383537
-0.000118503
0.00059493
0.00110543
-0.00108186
-0.000727424
0.000387526
0.000739607
-0.00110036
-9.32716e-05
-0.000455946
-0.000532418
-6.65468e-05
-0.000282128
-0.000107747
0.00013182
-0.000218625
-5.71628e-05
0.00016476
-1.00122e-05
-0.000175487
5.98061e-05
-0.000111169
-0.000188653
9.22456e-05
0.000262904
0.000124258
-0.000213678
0.000304324
9.11763e-05
3.50329e-05
-0.000330385
-0.000299805
5.78974e-05
-0.000241289
0.000752207
0.000128734
0.00142957
-0.000862976
0.0083485
0.00479291
0.00651974
0.0091897
0.0139414
0.00480748
0.00683743
-0.000145159
-0.000493644
-0.000948803
-0.000600906
-5.33923e-05
1.83723e-05
-0.000210889
-0.000209806
-0.000266345
-0.000126653
-0.000195201
-1.68876e-05
-0.000207279
-0.000174883
-0.000306962
-5.79386e-05
-0.000428785
0.000440109
-0.00161614
0.00188801
-0.0043731
0.00457993
-0.00763192
0.00760969
-0.0100479
-0.00177454
0.000165539
-0.000155147
-0.000141379
-0.000189165
-0.000224099
-0.000263327
-0.000304997
-0.000349019
-0.000383589
-0.000431287
-0.000470168
-0.00049129
-0.000542408
-0.000573419
-0.000575533
-0.000615722
-0.000615753
-0.00061693
-0.000599588
-0.000578548
-0.000541456
-0.000499221
-0.000442204
-0.000378481
-0.000305488
-0.000218871
-0.000122964
-4.3819e-05
1.55884e-05
0.000152576
0.000277421
0.000447106
0.000629343
0.000871285
0.0011263
0.00153654
0.00225681
0.00268788
0.00507378
0.000543432
0.0431725
0.0294622
0.0214998
0.00035499
-9.46771e-05
0.00125722
-0.000311832
0.00161032
0.000284839
-0.00158561
0.00075073
0.00159905
-0.00105547
-0.00204899
0.00155405
0.000465917
0.000132843
-0.000866057
0.000517151
-0.00027854
-0.00104315
-0.000312721
-0.00114352
-0.000197987
-0.000247406
-0.00105273
-0.000424955
-0.000401321
-0.000651549
-0.000371801
-0.000627915
-0.000834763
-0.000973955
-0.000889586
-0.00139764
-0.000753184
0.000122719
-0.000380956
-0.000250686
-0.000278061
-5.52288e-05
-0.00012572
0.00116524
1.07792e-05
0.00185994
-0.00166179
0.00353746
0.000816418
0.00399637
-7.69998e-05
-0.00112207
-0.00252118
-0.000429515
-0.000103745
-0.00033573
-0.000354231
-0.000953394
-0.000431377
-0.000291316
-0.000232996
-0.00014624
-0.000306791
-0.000245899
-0.000218115
-0.000183241
-0.000150655
4.03007e-05
1.9476e-05
0.000375453
-0.000408889
0.000340196
-0.00185777
0.00148639
-0.00440124
0.00419904
-0.00744095
0.00715
-0.00912685
-0.00177537
0.00016522
-0.000155485
-0.000141793
-0.000189751
-0.000223915
-0.000265324
-0.000305543
-0.000349115
-0.000383655
-0.000430713
-0.000468497
-0.000501346
-0.000534097
-0.000571038
-0.000585604
-0.000610537
-0.000617319
-0.000621611
-0.000594552
-0.000587005
-0.000547067
-0.000504499
-0.00044667
-0.000389202
-0.000318882
-0.000239263
-0.000164117
-8.19186e-05
-2.7057e-05
3.3055e-05
8.19325e-05
0.000127106
0.000142057
0.000137471
0.000123406
0.000136713
0.000248098
0.000793261
0.00179095
0.00237353
0.00933714
0.024426
0.0210408
0.00154419
0.002576
0.00174958
0.00103546
0.0030949
-0.0015015
-0.00132248
0.00374801
0.00089787
-0.0046123
-0.00220625
0.00273074
0.000416643
-0.00266438
-0.00121816
-0.00109463
-6.42824e-05
-0.00124358
7.20558e-06
0.000314702
-0.000965899
-0.000248487
0.000125675
1.25833e-05
0.000742582
0.00050917
0.000214721
0.000542855
-0.000207317
-0.000366466
3.91064e-05
-0.000229291
0.000710685
0.000196815
0.000303591
-0.00023884
-0.000224275
-0.000551195
-0.000721586
-0.000284267
-0.000830712
0.0048049
0.00391709
0.0129219
0.00299174
0.0070204
8.48425e-05
0.00555667
0.000937987
0.0023748
0.000248363
0.000946443
0.000279656
0.000321856
-3.03077e-05
9.31519e-05
-0.000200695
-0.000131109
-3.20488e-05
7.1622e-05
0.000204027
0.000162438
2.34265e-05
-8.42809e-05
-0.000340089
-2.49362e-05
-0.000858367
0.000877601
-0.00196583
0.00204996
-0.00410805
0.00392926
-0.00652181
0.00630131
-0.00746631
-0.00177403
0.000164286
-0.000155756
-0.000141896
-0.000190144
-0.000223645
-0.000265754
-0.000303878
-0.000348824
-0.000389445
-0.000428641
-0.00046571
-0.00050849
-0.000530177
-0.00056627
-0.000597513
-0.000603669
-0.000616506
-0.000624696
-0.000604726
-0.000583656
-0.000549453
-0.00050793
-0.000456056
-0.000390072
-0.000318058
-0.000224403
-0.000130307
-4.13549e-05
1.83854e-05
0.000166841
0.000309008
0.000525087
0.00075119
0.00110602
0.00155468
0.00224169
0.00326275
0.00515397
0.00773016
0.00806523
0.0253705
0.0198535
0.0178625
-0.00308863
0.00211544
0.00258388
0.00201153
-0.00138637
0.00160366
0.00179498
-0.00469689
-0.00167996
0.00440299
0.000861627
-0.00278157
-0.00167778
0.00152034
-0.000776537
0.000567013
-0.00102403
-0.000360895
-0.000332276
-0.000784307
0.00085622
4.4903e-05
-0.000847892
-0.000409196
-0.000654948
-0.000852931
-0.00042311
-0.000825515
-0.000710176
-0.000815166
-0.000307672
-0.0011931
-0.000368253
-0.00041689
-0.000535213
-0.00201523
-0.000898855
-0.000777535
-0.0012132
0.000773652
-0.000910827
0.00431811
0.00323941
0.00242808
-0.00378983
0.000694772
-0.00162949
-0.000177244
-0.00302033
-0.000488809
0.000405218
-0.000486613
-0.000429262
-0.000477044
-0.000251527
-0.000175936
-0.00022194
-0.000195074
-0.000375461
-0.000427516
-0.000579377
-0.000553098
-0.000556816
-4.09642e-05
-0.000481777
-1.67466e-05
-0.000745352
0.000613619
-0.00194816
0.00145977
-0.003807
0.00343977
-0.00583113
0.00548846
-0.00664921
-0.00177402
0.000163471
-0.000156215
-0.00014245
-0.000191022
-0.000223628
-0.00026757
-0.000304707
-0.000349192
-0.000392887
-0.000422114
-0.000471299
-0.000511763
-0.000529895
-0.000571758
-0.000604419
-0.000600032
-0.000629313
-0.000627653
-0.000610948
-0.000587279
-0.000562974
-0.000516378
-0.000468285
-0.000398951
-0.000340778
-0.000256203
-0.000192562
-0.000116097
-5.40775e-05
-1.76123e-05
5.09579e-06
5.74298e-06
-4.25205e-05
-8.30491e-05
-0.000199365
-0.000204418
-0.000199726
-0.000121262
0.0014965
-0.0034591
0.033445
0.0137634
0.0317573
0.00193697
0.00324023
-0.000803428
0.00246794
-0.00156104
3.49417e-05
0.000780076
-0.00243096
-0.0019647
2.37534e-05
-0.000627135
-0.00132547
-0.00137267
0.000260389
-0.000185361
-3.87059e-05
-0.000393671
0.000423999
4.74984e-06
0.000316761
0.000331788
-1.69764e-05
0.000438528
0.000780002
-0.000104756
-0.000382458
7.74665e-05
5.78469e-05
0.000412891
0.000676514
0.000510697
0.000447481
0.000402496
0.0014212
0.00136534
0.000491171
0.00293289
0.00289712
0.00553461
0.00708797
0.000662405
0.0129709
0.000783532
0.00148051
-0.0020802
0.00314329
-0.0020136
0.00552668
-0.000214684
0.00406471
0.00121736
0.00131479
0.000774115
-0.000387948
-0.000149487
-0.000111567
-0.000278646
-0.000389893
-0.000222681
-0.000424553
-0.000263967
-0.000384324
-0.000191518
4.66079e-06
-0.000237716
0.000533746
-0.000866469
0.00119021
-0.00207218
0.00168569
-0.00307987
0.00275595
-0.00424307
0.0038991
-0.00508986
-0.00177253
0.000162251
-0.000156717
-0.000142708
-0.000191525
-0.000223668
-0.00026805
-0.000304632
-0.000348164
-0.000396987
-0.000422328
-0.000469066
-0.000519826
-0.00052756
-0.000569264
-0.000615627
-0.000589839
-0.000637743
-0.000627195
-0.000620283
-0.000584491
-0.000570537
-0.000523889
-0.00047726
-0.000413577
-0.000338173
-0.000253203
-0.000146484
-5.134e-05
1.31579e-05
0.000148115
0.000312039
0.000524433
0.000751866
0.00102813
0.00134037
0.00167031
0.00207518
0.0022307
0.00189523
-0.000123439
0.00757671
0.0394469
0.0314785
-0.00642993
0.00669853
0.000836809
0.00286737
0.00319588
0.00207671
0.00116762
0.00113124
0.00233646
0.00104013
-0.000159882
0.000384499
0.000196287
0.000130581
-0.000651002
-0.000735718
-0.00124819
-0.000969954
-0.0015433
-0.00109857
-0.00123167
-0.00131316
-0.000831328
-0.00098024
-0.00124519
-0.0012847
-0.000654069
-0.00106779
-0.00117608
-0.000681352
-0.0010773
-0.000397035
-0.00110166
1.70977e-05
9.57687e-05
-0.00176647
-0.00110665
0.000387046
-0.00298915
0.00312649
-0.00144534
0.00153655
-0.00135294
0.00116226
-0.00207015
0.00186677
-0.00212355
0.00320666
-0.00602525
0.000485062
-0.0010199
-0.000715532
-0.00107301
-0.000934447
-0.000195425
-0.000630822
-0.000366461
-0.000247267
-3.60929e-05
-0.000167841
4.08301e-05
-0.000178751
-0.00016659
0.000131212
-0.000532457
0.000207924
-0.000922919
0.000271708
-0.00179386
0.00117505
-0.00278429
0.00225269
-0.00367791
0.003397
-0.00426889
-0.00177224
0.000161232
-0.000157337
-0.000143397
-0.000192349
-0.000224143
-0.000269445
-0.000305805
-0.00034864
-0.000397019
-0.000423013
-0.000471888
-0.000519284
-0.000529355
-0.000572141
-0.000617874
-0.000593188
-0.000643783
-0.000635877
-0.000631453
-0.000591334
-0.000588385
-0.000533953
-0.000494394
-0.000429923
-0.000365464
-0.000294056
-0.000217611
-0.000153162
-9.59981e-05
-6.41637e-05
-5.74325e-05
-8.78895e-05
-0.000178735
-0.000350229
-0.000564797
-0.00103886
-0.00164067
-0.00277078
-0.00426819
-0.00336928
-0.013242
0.10105
0.0241999
-0.0191083
0.000578237
-0.00859193
-0.00282823
-0.00292347
-0.00232208
-0.00090272
-0.00187078
-0.00044358
-0.000775139
-0.000389262
-0.000515663
-0.000365155
1.02263e-06
-0.0014348
0.000656614
-0.000191876
-0.000248321
0.000994645
-0.000143042
0.000696954
0.000241307
0.000804647
0.00049234
0.000407474
0.000516965
0.000329257
0.000251946
0.000717246
0.000267789
0.000252545
-0.000743684
0.000469075
0.000188988
-0.000853832
0.00252829
-0.000291338
0.00476362
0.00167111
0.00849586
0.00255996
0.00294696
-0.00392386
0.000514255
-0.00311703
0.00326474
-0.0059566
0.00463633
-0.0057603
0.00458325
0.00157607
0.00165345
6.99309e-05
-0.00037196
6.33365e-05
2.27659e-05
0.000244131
-0.000176319
-1.8226e-05
-0.000208168
-1.85973e-05
-0.000145323
-5.75499e-05
0.00015007
-0.000536706
0.000423492
-0.00107918
0.00086113
-0.00199069
0.00153442
-0.00250763
0.00222808
-0.00281124
0.00276155
-0.0030431
-0.00177088
0.000160001
-0.000157916
-0.000143777
-0.000193047
-0.000224327
-0.000269906
-0.000306931
-0.000347893
-0.000400501
-0.00042483
-0.000471437
-0.000521242
-0.00053581
-0.000572461
-0.000622862
-0.000603079
-0.000644483
-0.000644774
-0.000636705
-0.000602367
-0.000597394
-0.000549881
-0.000507357
-0.000447204
-0.000371589
-0.000286678
-0.000195967
-7.2006e-05
-4.82815e-06
0.000111869
0.000279963
0.000466021
0.000683339
0.000894778
0.0010291
0.000865603
0.000829212
-0.00040878
-0.00154597
-0.000550001
-0.0201098
0.121068
0.00812695
-0.012361
-0.00192935
-0.00116488
-0.00134848
-0.00166794
-0.000259484
0.00072748
0.00110406
0.000379475
0.00106169
0.000458214
0.000301483
-0.000494354
-0.000771356
-0.00122016
-0.00148253
-0.00196252
-0.00274509
-0.00347526
-0.00211153
-0.00170815
-0.00161768
-0.00147799
-0.00144634
-0.00135856
-0.00128277
-0.00106265
-0.00116056
-0.00069649
-0.000652496
-0.000284226
-0.000711435
0.00114845
-7.02202e-05
0.00102082
0.00149995
-0.00188608
-0.000600847
-0.000149435
0.000188461
-0.000273065
-0.00490202
0.00152994
-0.00240984
0.00102339
0.00397118
-0.00280064
0.0077846
-0.00650926
0.00544857
-0.00432415
-0.00114424
-0.00165551
-0.00124744
-0.000886616
-0.000965607
-0.00060617
-0.000457899
-0.000294724
-0.00031647
-0.000245081
-0.000185998
-0.000536702
-3.78866e-06
-0.000806484
0.000199882
-0.00092949
4.06052e-05
-0.00171938
0.00109142
-0.00236432
0.00211441
-0.00260454
0.00260767
-0.00272441
-0.00177056
0.000158973
-0.000158707
-0.000144522
-0.000194006
-0.000225194
-0.000270783
-0.000308517
-0.000349519
-0.000399374
-0.0004323
-0.000470689
-0.000523286
-0.000546487
-0.000569725
-0.000624945
-0.000621798
-0.000638569
-0.000660548
-0.000643342
-0.000623573
-0.000608884
-0.000571833
-0.000528784
-0.000477179
-0.000405645
-0.000338711
-0.000265778
-0.00019927
-0.000126992
-7.39407e-05
-6.26164e-05
-8.11824e-05
-9.97103e-05
-0.000250519
-0.000389002
-0.000683576
-0.00117897
-0.00149663
-0.00273318
4.85764e-06
-0.0119593
0.0820288
0.0174351
-0.0137247
-0.00889953
-0.00425291
-0.00473234
-0.00126834
-0.00582896
-0.00301889
-0.00570923
-0.00180892
-0.00433017
-0.000994572
-0.00274651
-0.00110472
-0.0019171
-0.000420296
-0.00097182
0.00033972
0.000472982
0.00130599
0.000612491
0.000348455
0.000869784
1.31971e-05
0.000567741
0.000436307
-4.26303e-06
0.000245663
4.80549e-05
0.00029542
0.000182004
0.00023331
-0.000687195
0.00223066
0.000126439
0.00188777
0.00339653
-0.000346122
-0.00168309
0.00107749
-0.00337595
-0.000994497
-0.00453692
-0.00575129
-0.00616017
-0.00507159
-0.00262887
-0.00769542
0.00418485
-0.00725178
0.00446193
-0.00234844
0.0025643
0.000136915
9.68678e-05
0.000226735
-0.000108581
-0.000110589
-0.000231578
-0.000196164
-0.000284266
-8.43986e-05
-0.000186526
-0.000275756
0.000125882
-0.000652437
0.000399856
-0.00097266
0.000290037
-0.00114663
0.000931053
-0.00162937
0.00177399
-0.00203146
0.00204843
-0.00222237
-0.00176955
0.000157859
-0.000159336
-0.000145143
-0.000194543
-0.000225949
-0.000270868
-0.000310925
-0.000350427
-0.000399097
-0.000436982
-0.00047094
-0.000523062
-0.0005532
-0.000573411
-0.000622355
-0.00063437
-0.000639163
-0.000669673
-0.000650637
-0.000643395
-0.000619835
-0.000593532
-0.000549852
-0.000493951
-0.000426794
-0.00034629
-0.00025336
-0.000119642
-2.16098e-05
7.11716e-05
0.000265203
0.000474253
0.000739858
0.00107004
0.00142051
0.00180096
0.00244032
0.00313542
0.00388177
0.00491672
0.0172508
0.0319266
0.0418885
-0.00775904
0.000674773
0.00297338
-0.000257715
0.00167054
-0.00124169
0.00250026
-0.00271105
0.00138528
-0.00274927
0.000690864
-0.00270416
0.000302792
-0.0023002
-0.000711445
-0.00201088
-0.00109475
-0.00174137
-0.00183825
-0.00133811
-0.00153253
-0.0011036
-0.0012886
-0.00141556
-0.000841808
-0.00113131
-0.000826525
-0.000696834
-0.000682606
-0.00019756
-0.000369001
-0.000315112
-0.00106605
0.00170642
0.00332948
-0.00335572
0.00401739
0.00128494
0.00847016
0.00259363
0.00848459
-0.00185862
0.0069043
0.00148923
0.00377503
0.00423655
-0.00104353
0.00807163
-0.0015636
0.00474731
-0.00218364
0.00154201
-0.000469264
0.000190521
-0.000879601
-0.000947713
-0.00105541
-0.000657583
-0.000663971
-0.000515657
-0.000574111
-0.000322656
-0.000666031
-0.000295241
-0.000841951
0.000120942
-0.000837179
0.000196653
-0.00124879
0.00083437
-0.00157303
0.00160227
-0.00191343
0.00197176
-0.00206321
-0.00176941
0.000156927
-0.000160247
-0.000145924
-0.000195477
-0.000227456
-0.000271069
-0.000313556
-0.000351382
-0.000398576
-0.000443819
-0.000470488
-0.000525256
-0.00056208
-0.000578846
-0.000623788
-0.000650619
-0.000648043
-0.00067674
-0.000676035
-0.000657567
-0.000641023
-0.000628099
-0.000573624
-0.00053416
-0.000474994
-0.000409232
-0.000328703
-0.000246225
-0.000161305
-5.89676e-05
-1.47222e-05
4.61189e-05
0.000140459
0.000231042
0.000414331
0.000682913
0.00120609
0.00202018
0.0030971
0.00382389
0.0198601
0.0323621
0.0329403
-0.0130643
0.00228203
-0.0015289
-0.00258404
9.98673e-05
-0.00422834
0.000753621
-0.00394698
0.00148862
-0.0040814
0.0012707
-0.00273366
0.00110219
-0.00200484
0.00066346
-0.0015857
2.77402e-05
-0.000821355
-0.000979429
0.000835039
-0.000276897
7.58077e-05
2.24715e-05
0.000379801
0.000133518
0.000202553
-9.20194e-05
-0.000198456
5.18063e-05
-0.000167958
-0.000284935
-0.000158337
-0.000781315
0.00293182
0.00371858
-0.00309589
0.00380544
0.00247055
-0.00851281
-0.00309661
-0.00428621
-0.00325247
-0.00319251
-0.00232999
-0.00507402
0.00108615
-0.0048847
0.0032493
-0.00327284
0.00405709
-0.00348011
0.00192625
0.0004629
0.00011322
-0.000171026
-0.000399885
-0.000232077
-0.000263972
-0.000227737
-0.000435954
-0.000132239
-0.000290335
-0.000188278
-0.000122771
-0.000421313
0.000226367
-0.00083272
0.000239763
-0.00100272
0.000782817
-0.0012938
0.00137177
-0.00162155
0.00168299
-0.0018322
-0.00176884
0.000156001
-0.000160942
-0.000146625
-0.000196089
-0.000228776
-0.000271091
-0.00031571
-0.000353565
-0.000397674
-0.000449032
-0.000475615
-0.00052268
-0.000569974
-0.000588331
-0.000619351
-0.000664893
-0.000665273
-0.000674695
-0.000699219
-0.000672685
-0.000659616
-0.000653377
-0.000603082
-0.000566555
-0.0005036
-0.000425408
-0.000335147
-0.000201909
-6.39215e-05
2.57367e-05
0.000215879
0.000489314
0.000808025
0.00126301
0.00182805
0.00259994
0.00359262
0.00462228
0.00554474
0.00524957
0.0189123
0.0414134
0.0308185
-0.0101773
0.00603735
-0.000141089
-0.00119874
0.0014604
-0.00414622
0.00165384
-0.00396545
0.00225041
-0.00296211
0.00186149
-0.00157723
0.00138287
-0.00114725
0.000360303
-0.000908664
-0.000343738
-0.00101141
-0.0011216
-0.000742206
-0.000674868
-0.000302343
-0.00028365
-0.000669874
-0.000561667
-0.000692139
-0.000318436
-0.000481235
-0.000236805
-0.000709704
-0.000680603
-0.00029432
-0.000605068
0.00274422
0.00206158
-0.000882779
0.0069509
0.00146518
-0.0012446
0.00328915
0.00151178
-0.00175698
-0.000987277
-0.00135239
-0.00207137
0.00295193
-0.00128188
0.00314993
-0.00142068
0.00167492
-0.00262021
0.00246204
-0.00177144
0.000314483
-0.000398446
-0.000570088
-0.000701709
-0.000508713
-0.0006402
-0.000476857
-0.000490695
-0.000410337
-0.000274426
-0.000488933
-0.000398394
-0.000345326
-0.000739235
-2.59271e-05
-0.000752296
0.000448521
-0.00123564
0.00136345
-0.00145926
0.0016366
-0.00178595
-0.00176912
0.000155234
-0.000161857
-0.000147563
-0.000196972
-0.000230859
-0.000271319
-0.000318401
-0.000356192
-0.000398021
-0.000452649
-0.000481439
-0.000522642
-0.000578526
-0.000597096
-0.00062306
-0.000677704
-0.000684238
-0.000675198
-0.000722396
-0.000704124
-0.000677027
-0.000681884
-0.000661156
-0.0006033
-0.000560378
-0.00050112
-0.000427927
-0.000330661
-0.000224354
-0.000108144
-3.78589e-05
6.93205e-05
0.000204209
0.000370547
0.000561291
0.000831593
0.00117906
0.00134842
0.00187542
0.000933326
0.00679684
0.0443005
0.0335629
-0.0120801
4.32649e-06
-0.00175501
-0.00459631
-0.000358506
-0.00592597
0.000556287
-0.00565436
0.00116085
-0.00405099
0.000772356
-0.00253361
9.90548e-05
-0.00166221
-0.000325913
-0.000483878
0.000398105
-0.000836196
-0.00114498
0.000515324
-0.000722366
0.000411516
-0.000754214
-5.94748e-05
-0.000195693
-0.000176228
-0.000180665
-0.000215276
0.000579683
-0.000692656
-0.000288323
-0.00167124
-0.00192499
0.000315767
0.00292733
0.00603402
-0.000977045
-0.000118151
-0.0078248
-0.00582973
-0.00267712
-0.00197878
5.37587e-05
-0.00176981
-0.00173184
-0.000691895
-0.00175129
0.00129269
-0.00138519
0.00173019
-0.00113438
0.00151785
-0.0014802
0.00218887
-0.000147035
0.000206668
-4.1154e-05
-4.57948e-05
-3.92959e-05
-0.00014611
9.67435e-05
-0.000387753
0.000445905
-0.000583522
0.000321169
-0.000429263
-0.000242267
-0.000104869
-0.000442611
0.00030259
-0.000809243
0.00112749
-0.00124204
0.00127985
-0.00170889
-0.00176901
0.00015454
-0.000162537
-0.000148501
-0.000197675
-0.000232415
-0.000272043
-0.000320079
-0.000359732
-0.000398502
-0.000455922
-0.000490209
-0.000522138
-0.000584678
-0.000611515
-0.000624436
-0.000689496
-0.000701263
-0.000686675
-0.000743209
-0.000740163
-0.000699023
-0.00070946
-0.000705722
-0.000643689
-0.000600233
-0.00054596
-0.00045471
-0.000352595
-0.000208185
-2.05571e-05
4.40677e-05
0.000344659
0.000633309
0.00114174
0.00169696
0.00250352
0.00334181
0.00462869
0.00545901
0.00566763
0.0198031
0.0441901
0.0320742
-0.011366
0.00217843
0.0014187
-0.000110626
0.00378523
-0.00256919
0.00384882
-0.00160147
0.00321489
-0.00138279
0.00179147
-0.000981785
0.000261755
-0.00112671
-0.000873513
-0.000334165
0.000100097
-0.000851587
-0.00082351
-0.000162871
-0.000690459
-0.000307021
-0.000660729
-0.000431513
-0.000361525
-0.00092311
-0.000680709
-0.00159487
-0.000574697
-0.00121944
-0.00106418
-0.00105059
-0.000416319
0.00370453
0.00593175
0.00511379
-0.00800346
0.00468431
-0.00463062
-0.00176002
-0.0066055
-0.0024606
-0.00394298
-0.00340795
-0.00122325
-0.00305533
-0.00125532
0.000634757
-0.00156579
0.000374722
-0.00158253
0.00110675
-0.000833767
0.000411309
-0.00106163
-0.000353255
-0.000847599
-0.000618726
-0.000441225
-0.000346155
-0.000261536
-0.000564678
5.22753e-05
-0.00086288
0.000203792
-0.000848048
-0.000220311
-0.000328978
-0.000426942
0.000200107
-0.000786402
0.00103674
-0.00117537
0.00122681
-0.00163269
-0.00176983
0.000153982
-0.000163333
-0.000149577
-0.00019864
-0.000234405
-0.000273423
-0.000321107
-0.000364314
-0.000399623
-0.000457514
-0.000500369
-0.000523432
-0.000590616
-0.000625737
-0.000632772
-0.000698231
-0.000717335
-0.00071401
-0.000749393
-0.000771023
-0.000749743
-0.000720232
-0.00075434
-0.000728672
-0.000647795
-0.000616376
-0.000574008
-0.000506731
-0.000401906
-0.000264099
-0.000165931
-0.000113565
-5.51326e-05
5.61723e-05
0.000160085
0.000415627
0.00078648
0.00116811
0.00203707
0.00395941
0.0117571
0.0589061
0.0422412
-0.00495027
0.00428683
0.000589418
-0.0013309
0.00136459
-0.00183684
0.00238712
-0.000955658
0.00143594
-0.00108215
0.00075109
0.000224139
-0.00101244
0.000259021
-0.00343187
-0.00029158
-0.00190979
-0.000547329
-0.000507744
-0.000206985
-0.000741068
-0.000372942
-0.000192185
-0.000188825
-0.000150553
-0.000220404
0.000253716
-0.000103486
0.000834436
-0.000864202
-0.000252869
-0.0029411
0.00274236
0.00192863
-0.00828334
0.00707914
-0.00801745
-0.00745469
-0.00656393
0.000837851
-0.00456786
-0.00449491
-0.000857769
-0.000939687
0.00185218
0.000671537
-0.00353457
0.0010285
-0.00172288
0.000200959
-0.00138142
-0.000354655
-0.00089858
0.000593783
0.000850326
0.000886416
-9.82885e-05
9.68797e-05
-1.24722e-05
-2.88495e-05
2.07642e-05
-0.000358479
0.000374758
-0.000583702
0.000700443
-0.000951648
0.000411751
-0.000657395
0.000146151
9.62877e-05
-0.000524082
0.000841189
-0.0011316
0.00121973
-0.00160378
-0.00177045
0.000153523
-0.000164037
-0.000150733
-0.000199456
-0.000236016
-0.000275061
-0.000321306
-0.000370488
-0.000401383
-0.000458456
-0.000509438
-0.000528885
-0.000592815
-0.000636746
-0.00064832
-0.000703562
-0.000736026
-0.000743866
-0.000757575
-0.000808932
-0.000801043
-0.000746501
-0.000801012
-0.000783833
-0.00072925
-0.00067585
-0.000627086
-0.000556064
-0.00048455
-0.000344024
-0.000137323
2.93929e-05
0.000121944
0.000473239
0.000777245
0.00112587
0.00144226
0.00127685
0.00240552
0.00284927
0.0203211
0.0758062
0.0193012
0.00952326
0.00740262
0.00546954
0.00235888
0.00126842
-0.00218975
-0.000866491
-0.0036619
-0.0027679
-0.00192912
-0.00731131
0.0042778
-0.0048297
0.0019069
-0.00257853
-0.00304258
-0.000581876
0.000778603
-0.000165299
-0.00127897
-0.000341218
-0.000740274
3.36824e-05
9.72541e-05
0.000107792
-0.000387696
-7.68684e-05
0.000179352
0.000487422
-0.00136642
0.000283534
0.00153816
0.00282439
0.0155129
-0.0084166
-0.00294374
-0.00268207
-0.00273982
-0.00770309
0.00257238
-0.00675459
-0.00295638
-0.00301788
-0.00139845
-0.00151199
-0.00369513
-0.00228657
-0.00216707
-0.000971238
-0.00206549
-0.000729927
-0.000103501
-0.000489095
-0.000804841
0.00115209
0.000831448
-0.000416169
-0.000171021
-0.000218101
-0.00027189
-0.000241497
-0.000555016
0.000121324
-0.000871945
0.000504247
-0.00104427
0.00056164
-0.000762276
0.000287806
-0.000254517
-0.000315047
0.000505601
-0.00104483
0.00131881
-0.00181793
-0.00177187
0.000153216
-0.00016465
-0.000151975
-0.00020049
-0.000237462
-0.000277751
-0.000321863
-0.000372733
-0.000407196
-0.000458411
-0.000516658
-0.000541567
-0.000591697
-0.000650746
-0.000671344
-0.000704211
-0.000757952
-0.000781939
-0.000769744
-0.000837651
-0.00084413
-0.000815759
-0.000820846
-0.000849452
-0.000841069
-0.000751258
-0.000723821
-0.000739363
-0.000671048
-0.000611658
-0.000497025
-0.0005256
-0.00071397
-0.000868639
-0.00139775
-0.00228456
-0.00358042
-0.00592821
-0.00610228
-0.018709
0.0476933
0.0412591
0.00616782
0.00874211
-0.00294232
0.00735283
-0.00604585
0.00167028
-0.000974719
0.0026515
0.00122718
0.00420489
0.0013784
0.00100021
0.000194652
0.000350115
-0.00155315
-0.00103488
-0.000675689
-0.00229001
5.4497e-05
0.000518303
-0.000161309
0.000233037
-0.000309888
0.000461379
-0.000231758
0.00153869
-0.000258202
0.00298486
0.0016696
0.00222698
0.00280357
0.0058294
-0.0022458
0.0110392
-0.00146338
-3.84856e-05
0.00295677
-0.00690708
-0.00396568
0.00408392
0.00367076
0.00443294
0.00178545
0.00402243
-0.0016289
0.000632145
-0.000808436
0.00417212
0.000841458
0.00225833
-0.000704155
-0.000255605
-0.000529817
-0.000320192
-0.000739292
0.00121657
0.000554401
-0.000464143
0.000127728
-9.84467e-05
-0.000160759
3.891e-06
-0.000356403
0.000501061
-0.000558915
0.000837433
-0.000987165
0.000730386
-0.0010262
0.00048018
-0.000371986
0.000203881
0.000114664
-0.000877248
0.00123358
-0.00193406
-0.00177329
0.000153052
-0.000165214
-0.000153531
-0.000201356
-0.000239257
-0.000280968
-0.000323305
-0.000374866
-0.000416257
-0.000458007
-0.000522297
-0.000559654
-0.000589769
-0.000662229
-0.000695793
-0.000707054
-0.00078004
-0.000812246
-0.000795519
-0.000862772
-0.000892355
-0.000891047
-0.000838286
-0.000933113
-0.0009202
-0.000878486
-0.000803508
-0.00081147
-0.000816528
-0.000741266
-0.00068288
-0.000510511
-0.000450709
-0.0003497
-0.000214859
-2.9259e-05
0.000587412
0.00113728
0.00554471
-0.00194081
0.0762609
0.00111325
-0.00349416
-0.00204152
0.0103509
0.0111047
0.00506928
0.00741893
0.00160317
-0.00256187
0.00474916
-0.00860645
0.00407536
-0.00597869
0.00366925
-0.00262754
0.0015469
-0.000532717
-0.00225214
-0.000138449
-0.00146086
0.000732193
-0.00130199
0.00138379
-0.00167262
0.00211794
0.00243869
0.00214268
0.00232601
0.0069729
0.00249056
0.00807976
0.0016102
0.00323385
0.00292831
0.00275419
0.00143448
-0.00387606
0.00602991
0.00760067
0.0041149
0.00628389
0.00463687
0.00237229
0.00183023
0.00127212
0.001564
0.00241968
-0.000674392
-0.0024524
-0.00336249
3.47327e-05
-0.00285481
-0.000562832
-0.000805297
0.000188007
-0.00110184
0.00139714
0.000639583
-0.000368158
1.09325e-05
-0.000414826
-9.246e-05
2.95865e-05
-0.00027706
0.000206771
-0.000662624
0.000492193
-0.000984137
0.000792803
-0.000956325
0.000588756
-0.000480054
-5.22097e-05
-0.00026712
-0.000878412
0.00122232
-0.00188397
-0.00177545
0.000152973
-0.000165758
-0.00015479
-0.000202526
-0.000239839
-0.000284841
-0.000324172
-0.000377157
-0.000425638
-0.000458259
-0.000527226
-0.000574735
-0.000593624
-0.000672849
-0.00071853
-0.000719415
-0.000798965
-0.000845616
-0.000837157
-0.000878636
-0.000941274
-0.000961944
-0.00090404
-0.00098457
-0.00100453
-0.00101882
-0.000935757
-0.00091475
-0.00100941
-0.000987696
-0.000994541
-0.000877151
-0.00077605
-0.000952194
-0.000940292
-0.000769156
-0.000368797
-0.000203953
0.00163481
0.00465394
0.0710618
0.0059892
-0.00252562
-0.00451107
0.0012572
0.00364075
0.0100474
0.0107817
0.00491624
0.00984695
-0.000457502
0.00401084
-0.00153357
-0.00115494
-0.0015622
-0.00273612
0.00180666
-0.00232734
-0.0001254
0.000360622
-0.00145955
0.00039437
-0.000324651
0.00431977
-0.000736364
0.0115647
0.00282781
0.0129143
0.0025386
0.0126113
0.00106953
0.00562602
0.00366826
0.00566391
0.00315857
0.00233656
0.0044275
0.00274033
0.00396389
0.000320184
0.00263658
-6.09668e-05
0.000530147
2.03296e-05
0.00513466
0.00306183
0.00334255
0.00276673
0.00207111
0.00208776
0.00267345
0.00164791
-0.000777273
3.25786e-05
-0.000380943
-0.0007594
-0.000588373
0.00117816
-0.000267747
-0.000451063
0.00027764
8.83447e-05
0.000140594
-7.67491e-05
-0.000253311
0.000231156
-0.000354477
0.00056111
-0.000730087
0.000906127
-0.00109235
0.000588381
-0.000729832
0.000126263
-0.000374395
-0.000397743
0.00126242
-0.00159115
-0.00177775
0.000153062
-0.000166271
-0.00015636
-0.000204029
-0.000240376
-0.000290256
-0.000324913
-0.000378876
-0.000434363
-0.000463775
-0.000528389
-0.00058683
-0.000609743
-0.000678255
-0.000735141
-0.000749154
-0.000811488
-0.00087339