/*--------------------------------*- C++ -*----------------------------------*\
| =========                 |                                                 |
| \\      /  F ield         | OpenFOAM: The Open Source CFD Toolbox           |
|  \\    /   O peration     | Version:  2.2.x                                 |
|   \\  /    A nd           | Web:      www.OpenFOAM.org                      |
|    \\/     M anipulation  |                                                 |
\*---------------------------------------------------------------------------*/
FoamFile
{
    version     2.0;
    format      ascii;
    class       volScalarField;
    location    "2.85";
    object      p;
}
// * * * * * * * * * * * * * * * * * * * * * * * * * * * * * * * * * * * * * //

dimensions      [1 -1 -2 0 0 0 0];

internalField   nonuniform List<scalar> 
14161
(
0.2
0.2
0.2
0.2
0.2
0.2
0.2
0.2
0.2
0.2
0.2
0.2
0.2
0.2
0.2
0.2
0.2
0.2
0.2
0.2
0.2
0.2
0.2
0.2
0.2
0.2
0.2
0.2
0.2
0.2
0.2
0.2
0.2
0.2
0.2
0.2
0.2
0.2
0.200001
0.200017
0.200267
0.204279
0.272762
2.22844
6.50141
8.58203
9.05707
9.17076
9.2258
9.26474
9.29613
9.32232
9.34117
9.36214
9.39546
9.43493
9.4706
9.50008
9.52375
9.53816
9.55693
9.59113
9.63167
9.66635
9.69333
9.71076
9.72123
9.74447
9.78265
9.8221
9.85307
9.87511
9.88336
9.89905
9.93194
9.97215
10.0057
10.0304
10.0404
10.0526
10.082
10.121
10.1545
10.1793
10.1892
10.2026
10.2329
10.27
10.3009
10.3222
10.3311
10.3505
10.3831
10.4164
10.4427
10.4568
10.47
10.4969
10.5286
10.5553
10.5723
10.5845
10.6076
10.6358
10.6603
10.6767
10.6892
10.7101
10.734
10.7542
10.7673
10.7788
10.7937
10.8101
10.823
10.831
10.8368
10.8438
10.8538
0.2
0.2
0.2
0.2
0.2
0.2
0.2
0.2
0.2
0.2
0.2
0.2
0.2
0.2
0.2
0.2
0.2
0.2
0.2
0.2
0.2
0.2
0.2
0.2
0.2
0.2
0.2
0.2
0.2
0.2
0.2
0.2
0.2
0.2
0.2
0.2
0.2
0.2
0.200001
0.200016
0.200267
0.204279
0.27298
2.22404
6.49256
8.57974
9.05852
9.17401
9.22983
9.26859
9.2995
9.32504
9.34342
9.36459
9.39862
9.4383
9.47382
9.50296
9.5261
9.53954
9.55875
9.5938
9.63477
9.66943
9.69615
9.71275
9.72292
9.74655
9.78518
9.82483
9.85575
9.87747
9.88503
9.90093
9.93412
9.97446
10.008
10.0325
10.0421
10.0544
10.084
10.1229
10.1563
10.1808
10.1907
10.2043
10.2345
10.2714
10.3021
10.3233
10.3325
10.3518
10.384
10.417
10.4431
10.4574
10.471
10.4978
10.5291
10.5555
10.5725
10.5849
10.6081
10.6361
10.6602
10.6762
10.6888
10.71
10.7334
10.7528
10.7652
10.7774
10.7931
10.8093
10.8204
10.8277
10.8339
10.8423
10.852
0.2
0.2
0.2
0.2
0.2
0.2
0.2
0.2
0.2
0.2
0.2
0.2
0.2
0.2
0.2
0.2
0.2
0.2
0.2
0.2
0.2
0.2
0.2
0.2
0.2
0.2
0.2
0.2
0.2
0.2
0.2
0.2
0.2
0.2
0.2
0.2
0.2
0.2
0.200001
0.200016
0.200258
0.204146
0.270136
2.20425
6.47591
8.57417
9.05556
9.17217
9.22859
9.2673
9.29792
9.32312
9.34125
9.36308
9.39794
9.43768
9.47287
9.50158
9.52423
9.53708
9.55697
9.59294
9.63407
9.66837
9.6947
9.71058
9.72074
9.74506
9.78418
9.82375
9.85439
9.87577
9.8829
9.89923
9.93288
9.97327
10.0066
10.0308
10.0402
10.0528
10.0828
10.1216
10.1548
10.1791
10.189
10.2029
10.2332
10.2699
10.3004
10.3215
10.3311
10.3507
10.3826
10.415
10.4409
10.4554
10.4697
10.4964
10.527
10.5529
10.5697
10.5828
10.6063
10.6337
10.6573
10.6727
10.6861
10.7077
10.7309
10.7493
10.7604
10.7733
10.7901
10.8059
10.8153
10.8212
10.8265
10.8347
10.8415
0.2
0.2
0.2
0.2
0.2
0.2
0.2
0.2
0.2
0.2
0.2
0.2
0.2
0.2
0.2
0.2
0.2
0.2
0.2
0.2
0.2
0.2
0.2
0.2
0.2
0.2
0.2
0.2
0.2
0.2
0.2
0.2
0.2
0.2
0.2
0.2
0.2
0.2
0.200001
0.200015
0.200242
0.203869
0.264115
2.16898
6.45269
8.5667
9.0517
9.16962
9.22641
9.26519
9.29588
9.32067
9.33889
9.36165
9.3975
9.43724
9.47187
9.50011
9.52209
9.53477
9.55564
9.59256
9.63341
9.6671
9.6929
9.7077
9.71841
9.74384
9.78353
9.82264
9.85276
9.87353
9.88037
9.89764
9.93205
9.97235
10.0052
10.0288
10.0379
10.0514
10.0821
10.1208
10.1535
10.1775
10.1873
10.2021
10.2329
10.2692
10.2992
10.3199
10.3299
10.3504
10.3822
10.4138
10.4388
10.453
10.4682
10.4953
10.5253
10.5505
10.5671
10.5808
10.6047
10.6317
10.6549
10.6696
10.6835
10.7053
10.728
10.7454
10.7551
10.7683
10.785
10.8
10.808
10.8127
10.8168
10.8237
10.8266
0.2
0.2
0.2
0.2
0.2
0.2
0.2
0.2
0.2
0.2
0.2
0.2
0.2
0.2
0.2
0.2
0.2
0.2
0.2
0.2
0.2
0.2
0.2
0.2
0.2
0.2
0.2
0.2
0.2
0.2
0.2
0.2
0.2
0.2
0.2
0.2
0.2
0.2
0.200001
0.200014
0.200223
0.203555
0.25736
2.12502
6.42076
8.55609
9.04769
9.16794
9.2256
9.26442
9.29508
9.31927
9.33733
9.36115
9.39834
9.43852
9.47347
9.502
9.52345
9.53627
9.55857
9.59714
9.63849
9.67197
9.69723
9.71059
9.7222
9.7493
9.79008
9.82888
9.85851
9.87776
9.88415
9.90285
9.93841
9.97838
10.0105
10.0331
10.0411
10.0557
10.087
10.1249
10.1565
10.1793
10.1886
10.2041
10.2347
10.2694
10.2981
10.3176
10.3275
10.3492
10.3804
10.4108
10.4347
10.4484
10.4648
10.4926
10.5224
10.547
10.5625
10.5772
10.6017
10.6286
10.651
10.665
10.6792
10.7012
10.7237
10.7404
10.7492
10.7617
10.7776
10.7917
10.7991
10.8026
10.8056
10.8091
10.8089
0.2
0.2
0.2
0.2
0.2
0.2
0.2
0.2
0.2
0.2
0.2
0.2
0.2
0.2
0.2
0.2
0.2
0.2
0.2
0.2
0.2
0.2
0.2
0.2
0.2
0.2
0.2
0.2
0.2
0.2
0.2
0.2
0.2
0.2
0.2
0.2
0.2
0.2
0.200001
0.200012
0.200203
0.203227
0.250273
2.07192
6.37935
8.54282
9.04109
9.16461
9.22321
9.26135
9.29098
9.31352
9.33134
9.3565
9.39457
9.4338
9.46749
9.49476
9.51409
9.52714
9.55174
9.59085
9.63068
9.66235
9.68603
9.69806
9.71124
9.74017
9.78088
9.81786
9.84595
9.86283
9.86948
9.89069
9.92758
9.9667
9.99711
10.018
10.0245
10.0417
10.0756
10.114
10.1448
10.1658
10.1734
10.1918
10.2255
10.2616
10.2903
10.3078
10.3173
10.3411
10.3749
10.4064
10.4301
10.4425
10.4597
10.4884
10.5184
10.5427
10.5571
10.5722
10.5971
10.6239
10.6455
10.6591
10.6732
10.6951
10.7173
10.7337
10.7424
10.7533
10.7676
10.7807
10.7876
10.7903
10.7918
10.7917
10.7893
0.2
0.2
0.2
0.2
0.2
0.2
0.2
0.2
0.2
0.2
0.2
0.2
0.2
0.2
0.2
0.2
0.2
0.2
0.2
0.2
0.2
0.2
0.2
0.2
0.2
0.2
0.2
0.2
0.2
0.2
0.2
0.2
0.2
0.2
0.2
0.2
0.2
0.2
0.200001
0.200011
0.20018
0.202841
0.241966
2.00416
6.32526
8.52631
9.03585
9.16363
9.22329
9.26092
9.28966
9.31097
9.32899
9.35553
9.39425
9.43266
9.46518
9.49141
9.50914
9.52294
9.54937
9.58907
9.62784
9.65843
9.68111
9.69199
9.70713
9.73861
9.7794
9.81491
9.84178
9.85672
9.86505
9.88864
9.9268
9.96504
9.99448
10.013
10.0193
10.039
10.0747
10.1127
10.1423
10.1607
10.1675
10.1884
10.2235
10.2588
10.2862
10.3003
10.3102
10.3358
10.3706
10.4016
10.4239
10.4341
10.4523
10.4822
10.5127
10.5365
10.5497
10.565
10.5904
10.6175
10.6389
10.6521
10.6656
10.6862
10.7079
10.7244
10.7339
10.7434
10.7556
10.7671
10.7733
10.775
10.775
10.772
10.767
0.2
0.2
0.2
0.2
0.2
0.2
0.2
0.2
0.2
0.2
0.2
0.2
0.2
0.2
0.2
0.2
0.2
0.2
0.2
0.2
0.2
0.2
0.2
0.2
0.2
0.2
0.2
0.2
0.2
0.2
0.2
0.2
0.2
0.2
0.2
0.2
0.2
0.2
0.200001
0.200009
0.200149
0.202327
0.230824
1.91082
6.25329
8.50441
9.02916
9.16169
9.22196
9.2588
9.2868
9.30711
9.32612
9.35496
9.39415
9.43146
9.46265
9.48803
9.50432
9.51979
9.54856
9.58861
9.62577
9.65476
9.67615
9.68616
9.70405
9.73794
9.77826
9.81195
9.8374
9.85005
9.8606
9.88692
9.92588
9.96271
9.99103
10.0069
10.0142
10.0366
10.0731
10.1101
10.1389
10.155
10.1623
10.1853
10.2209
10.2552
10.2814
10.2939
10.3047
10.3316
10.3664
10.3961
10.4163
10.4252
10.445
10.4761
10.5063
10.529
10.5402
10.5558
10.582
10.6094
10.6304
10.6429
10.6559
10.6758
10.6969
10.7126
10.7221
10.7311
10.7421
10.752
10.7564
10.7563
10.7551
10.7498
10.7411
0.2
0.2
0.2
0.2
0.2
0.2
0.2
0.2
0.2
0.2
0.2
0.2
0.2
0.2
0.2
0.2
0.2
0.2
0.2
0.2
0.2
0.2
0.2
0.2
0.2
0.2
0.2
0.2
0.2
0.2
0.2
0.2
0.2
0.2
0.2
0.2
0.2
0.2
0.2
0.200007
0.200113
0.201739
0.218048
1.79306
6.16166
8.47562
9.01883
9.15679
9.21743
9.25315
9.27958
9.29866
9.31891
9.35094
9.39063
9.42671
9.45666
9.48085
9.49531
9.51273
9.5453
9.58581
9.62136
9.64903
9.66781
9.67727
9.69832
9.73502
9.77498
9.80711
9.83067
9.84061
9.85341
9.88257
9.9221
9.95748
9.98415
9.9975
10.0056
10.0304
10.0675
10.1031
10.1306
10.145
10.1531
10.1774
10.2131
10.2466
10.272
10.2846
10.2974
10.3256
10.3603
10.3893
10.4082
10.4173
10.4386
10.4696
10.4987
10.5198
10.53
10.5466
10.5731
10.5997
10.6196
10.6308
10.6444
10.6643
10.6844
10.6984
10.707
10.716
10.7262
10.7347
10.7369
10.7344
10.7314
10.7244
10.7115
0.2
0.2
0.2
0.2
0.2
0.2
0.2
0.2
0.2
0.2
0.2
0.2
0.2
0.2
0.2
0.2
0.2
0.2
0.2
0.2
0.2
0.2
0.2
0.2
0.2
0.2
0.2
0.2
0.2
0.2
0.2
0.2
0.2
0.2
0.2
0.2
0.2
0.2
0.2
0.200005
0.200078
0.20119
0.206083
1.66024
6.05348
8.44292
9.00989
9.15409
9.21469
9.24894
9.27365
9.29293
9.3152
9.34931
9.38798
9.42246
9.45089
9.47376
9.48873
9.50865
9.54261
9.58163
9.61476
9.64087
9.65818
9.67039
9.69314
9.72936
9.76685
9.79694
9.8192
9.82954
9.84457
9.87478
9.91276
9.94577
9.97121
9.98413
9.99494
10.021
10.0577
10.0917
10.118
10.1316
10.1427
10.1688
10.2046
10.2372
10.2616
10.2734
10.2882
10.3172
10.3507
10.3788
10.3972
10.4084
10.4309
10.4617
10.4895
10.5093
10.5199
10.5383
10.564
10.5885
10.6063
10.6168
10.6324
10.6524
10.6704
10.6815
10.6887
10.6981
10.7085
10.715
10.7143
10.71
10.7047
10.6955
10.6776
0.2
0.2
0.2
0.2
0.2
0.2
0.2
0.2
0.2
0.2
0.2
0.2
0.2
0.2
0.2
0.2
0.2
0.2
0.2
0.2
0.2
0.2
0.2
0.2
0.2
0.2
0.2
0.2
0.2
0.2
0.2
0.2
0.2
0.2
0.2
0.2
0.2
0.2
0.2
0.200002
0.20003
0.200525
0.193532
1.49519
5.91558
8.39981
8.99787
9.15009
9.21042
9.2432
9.26529
9.28557
9.31207
9.34759
9.38291
9.41456
9.44171
9.46229
9.47847
9.50298
9.53898
9.57478
9.60465
9.62918
9.64558
9.66129
9.68797
9.72445
9.75829
9.78554
9.80618
9.81859
9.83781
9.87041
9.90626
9.93562
9.95851
9.97161
9.98729
10.0162
10.0516
10.0821
10.1059
10.1185
10.134
10.1628
10.1971
10.2268
10.2489
10.2604
10.2788
10.3089
10.3408
10.367
10.3844
10.3979
10.422
10.4512
10.4769
10.4954
10.5078
10.5286
10.5539
10.5757
10.5907
10.6018
10.6195
10.6392
10.6543
10.6621
10.6687
10.6786
10.6887
10.6919
10.6885
10.6831
10.6754
10.6629
10.6401
0.2
0.2
0.2
0.2
0.2
0.2
0.2
0.2
0.2
0.2
0.2
0.2
0.2
0.2
0.2
0.2
0.2
0.2
0.2
0.2
0.2
0.2
0.2
0.2
0.2
0.2
0.2
0.2
0.2
0.2
0.2
0.2
0.2
0.2
0.2
0.2
0.2
0.2
0.2
0.200005
0.200027
0.200133
0.182855
1.30664
5.74745
8.34404
8.9825
9.14502
9.20277
9.22981
9.25205
9.27651
9.30949
9.34506
9.37693
9.40408
9.42626
9.44404
9.46592
9.50004
9.53696
9.56773
9.59238
9.60975
9.62616
9.64936
9.68441
9.72035
9.7491
9.77066
9.78392
9.80152
9.82991
9.86549
9.8975
9.92309
9.93981
9.95354
9.97687
10.01
10.043
10.0702
10.0894
10.1022
10.1243
10.1561
10.1882
10.2144
10.2319
10.2454
10.2697
10.3013
10.3304
10.3538
10.3674
10.3846
10.4116
10.4401
10.4637
10.4791
10.4937
10.5169
10.5415
10.5613
10.573
10.5855
10.6046
10.6235
10.6356
10.6409
10.6482
10.658
10.6659
10.665
10.6599
10.6541
10.6433
10.6271
10.5992
0.2
0.2
0.2
0.2
0.2
0.2
0.2
0.2
0.2
0.2
0.2
0.2
0.2
0.2
0.2
0.2
0.2
0.2
0.2
0.2
0.2
0.2
0.2
0.2
0.2
0.2
0.2
0.2
0.2
0.2
0.2
0.2
0.2
0.2
0.2
0.2
0.2
0.2
0.200005
0.200071
0.200859
0.205082
0.171649
1.09465
5.55088
8.28406
8.97172
9.14392
9.1971
9.22087
9.24384
9.27536
9.31154
9.34453
9.37236
9.39545
9.41129
9.43032
9.46299
9.50213
9.5351
9.56068
9.57846
9.59068
9.61085
9.64567
9.68479
9.71578
9.73824
9.75015
9.76331
9.78888
9.82656
9.86235
9.88968
9.90667
9.9153
9.93528
9.96885
10.0057
10.0355
10.0567
10.0665
10.0834
10.1143
10.1497
10.1792
10.2007
10.2115
10.2296
10.2604
10.2933
10.3199
10.3374
10.3485
10.3717
10.4017
10.4291
10.4497
10.4606
10.4781
10.5034
10.5275
10.5453
10.5541
10.5683
10.5878
10.6049
10.6145
10.6185
10.6263
10.6352
10.6394
10.6356
10.6294
10.6221
10.6079
10.5886
10.5559
0.2
0.2
0.2
0.2
0.2
0.2
0.2
0.2
0.2
0.2
0.2
0.2
0.2
0.2
0.2
0.2
0.2
0.2
0.2
0.2
0.2
0.2
0.2
0.2
0.2
0.2
0.2
0.2
0.2
0.2
0.2
0.2
0.2
0.2
0.2
0.2
0.2
0.2
0.200002
0.200028
0.200531
0.201952
0.155797
0.853351
5.3139
8.21257
8.95965
9.14058
9.18755
9.2107
9.23868
9.27484
9.30968
9.33908
9.36265
9.37943
9.39374
9.42121
9.46268
9.50111
9.52981
9.55033
9.55838
9.57113
9.60072
9.64459
9.68317
9.71034
9.72536
9.72617
9.74289
9.77842
9.82269
9.8577
9.8812
9.88651
9.89235
9.91866
9.95955
9.99834
10.0262
10.0388
10.0431
10.0658
10.1028
10.1401
10.1685
10.1833
10.1905
10.2143
10.2493
10.2822
10.3068
10.3177
10.3303
10.3576
10.3897
10.416
10.4319
10.4408
10.4615
10.4883
10.5116
10.5265
10.5341
10.5496
10.5686
10.5838
10.591
10.5947
10.6022
10.6097
10.6099
10.6044
10.5968
10.5867
10.5687
10.5468
10.5089
0.2
0.2
0.2
0.2
0.2
0.2
0.2
0.2
0.2
0.2
0.2
0.2
0.2
0.2
0.2
0.2
0.2
0.2
0.2
0.2
0.2
0.2
0.2
0.2
0.2
0.2
0.2
0.2
0.2
0.2
0.2
0.2
0.2
0.2
0.2
0.2
0.2
0.2
0.199996
0.199927
0.199261
0.194531
0.144843
0.611279
5.04233
8.11079
8.9503
9.13574
9.17545
9.20146
9.23405
9.27097
9.30496
9.33232
9.35138
9.35806
9.37525
9.41131
9.45628
9.49381
9.52092
9.53778
9.53703
9.55061
9.58756
9.63516
9.67352
9.7011
9.71168
9.70645
9.7239
9.76447
9.81162
9.84749
9.87091
9.86842
9.87354
9.90296
9.94697
9.9861
10.0138
10.02
10.023
10.0494
10.0894
10.1266
10.1537
10.1622
10.171
10.1985
10.2354
10.2676
10.2893
10.2962
10.3128
10.3431
10.3748
10.3991
10.4106
10.4213
10.4443
10.4712
10.493
10.5044
10.5126
10.5291
10.5475
10.5605
10.5654
10.5692
10.5756
10.5812
10.5786
10.5714
10.5609
10.5483
10.5259
10.5015
10.4585
0.2
0.2
0.2
0.2
0.2
0.2
0.2
0.2
0.2
0.2
0.2
0.2
0.2
0.2
0.2
0.2
0.2
0.2
0.2
0.2
0.2
0.2
0.2
0.2
0.2
0.2
0.2
0.2
0.2
0.2
0.2
0.2
0.2
0.2
0.2
0.2
0.2
0.2
0.2
0.199997
0.1998
0.197043
0.155807
0.34837
4.69915
7.95411
8.92178
9.1225
9.16256
9.19239
9.22971
9.26509
9.29594
9.32062
9.3363
9.34444
9.36454
9.40076
9.44348
9.47776
9.50327
9.52151
9.52673
9.5422
9.57216
9.61554
9.65424
9.68221
9.69571
9.69719
9.71437
9.7491
9.79128
9.82574
9.84879
9.85061
9.85861
9.88875
9.93032
9.96629
9.99348
10.0003
10.0056
10.0335
10.0732
10.1083
10.1333
10.1402
10.1522
10.1815
10.2184
10.2492
10.2678
10.2742
10.2949
10.3265
10.3568
10.3787
10.3876
10.4015
10.4264
10.4525
10.4717
10.4799
10.49
10.5072
10.5245
10.5347
10.5376
10.5415
10.5465
10.5498
10.5446
10.5356
10.5217
10.5075
10.4801
10.4522
10.4035
0.2
0.2
0.2
0.2
0.2
0.2
0.2
0.2
0.2
0.2
0.2
0.2
0.2
0.2
0.2
0.2
0.2
0.2
0.2
0.2
0.2
0.2
0.2
0.2
0.2
0.2
0.2
0.2
0.2
0.2
0.2
0.2
0.2
0.2
0.2
0.2
0.2
0.200001
0.200011
0.200131
0.200549
0.198764
0.165604
0.276325
4.25592
7.71332
8.83077
9.09282
9.16293
9.18358
9.19747
9.2176
9.2523
9.29593
9.33455
9.36362
9.38434
9.3921
9.40724
9.4358
9.47707
9.51539
9.54366
9.56267
9.57083
9.58599
9.61207
9.64499
9.67573
9.70141
9.71999
9.74036
9.76588
9.79235
9.81567
9.8355
9.85152
9.8782
9.91215
9.94319
9.96722
9.97868
9.99147
10.0204
10.0562
10.0868
10.1092
10.1178
10.134
10.1651
10.1997
10.2278
10.2431
10.253
10.2769
10.3084
10.3364
10.3552
10.3634
10.3811
10.407
10.4312
10.4473
10.4535
10.4659
10.4834
10.4986
10.5061
10.5074
10.5114
10.5155
10.5154
10.5079
10.497
10.4807
10.4623
10.4317
10.3993
10.3453
0.2
0.2
0.2
0.2
0.2
0.2
0.2
0.2
0.2
0.2
0.2
0.2
0.2
0.2
0.2
0.2
0.2
0.2
0.2
0.2
0.2
0.2
0.2
0.2
0.2
0.2
0.2
0.2
0.2
0.2
0.2
0.2
0.2
0.2
0.2
0.2
0.2
0.2
0.199998
0.200006
0.2
0.199836
0.192045
0.349923
3.78561
7.39653
8.71725
9.03373
9.12822
9.15616
9.16961
9.1896
9.22553
9.26811
9.30403
9.33288
9.35361
9.36119
9.37552
9.40733
9.44903
9.48421
9.51119
9.52801
9.53619
9.55112
9.583
9.62337
9.65759
9.68291
9.6972
9.70731
9.72609
9.75682
9.79209
9.82381
9.849
9.86714
9.88612
9.90808
9.9314
9.95417
9.97872
10.0061
10.0351
10.0616
10.0821
10.0953
10.1171
10.1482
10.1785
10.2026
10.2165
10.2318
10.258
10.2879
10.3129
10.3281
10.3383
10.3596
10.3851
10.4065
10.4192
10.4261
10.4407
10.4574
10.4697
10.4745
10.4753
10.479
10.4824
10.4786
10.4684
10.4554
10.4375
10.4141
10.3806
10.3434
10.2846
0.2
0.2
0.2
0.2
0.2
0.2
0.2
0.2
0.2
0.2
0.2
0.2
0.2
0.2
0.2
0.2
0.2
0.2
0.2
0.2
0.2
0.2
0.2
0.2
0.2
0.2
0.2
0.2
0.2
0.2
0.2
0.2
0.2
0.2
0.2
0.2
0.2
0.2
0.2
0.200002
0.200028
0.200453
0.207781
0.364523
3.19787
7.05755
8.62259
8.99863
9.10678
9.13683
9.15449
9.17822
9.21672
9.257
9.29024
9.31627
9.33415
9.3432
9.36333
9.39932
9.43797
9.4684
9.49067
9.50221
9.51069
9.53327
9.57036
9.60798
9.63644
9.65493
9.66029
9.6691
9.69652
9.7376
9.77476
9.80208
9.81908
9.82627
9.84297
9.87099
9.90584
9.94027
9.96845
9.98986
10.0075
10.0284
10.0502
10.0728
10.1012
10.1294
10.154
10.1735
10.1893
10.2102
10.2376
10.2642
10.2855
10.2984
10.3136
10.3367
10.3603
10.3784
10.3881
10.3981
10.4138
10.4291
10.4378
10.4403
10.4419
10.4449
10.4456
10.439
10.4265
10.4111
10.3915
10.3633
10.3269
10.2848
10.2215
0.2
0.2
0.2
0.2
0.2
0.2
0.2
0.2
0.2
0.2
0.2
0.2
0.2
0.2
0.2
0.2
0.2
0.2
0.2
0.2
0.2
0.2
0.2
0.2
0.2
0.2
0.2
0.2
0.2
0.2
0.2
0.2
0.2
0.2
0.2
0.2
0.2
0.2
0.2
0.200001
0.200017
0.200263
0.204258
0.289461
2.55494
6.67867
8.52657
8.96282
9.07945
9.1144
9.13734
9.16632
9.20535
9.24178
9.27137
9.29528
9.31126
9.3257
9.35106
9.38881
9.42392
9.45076
9.47038
9.47933
9.49152
9.51894
9.55609
9.58827
9.61209
9.62595
9.63022
9.64719
9.68067
9.71939
9.74955
9.7697
9.77616
9.78359
9.81018
9.85074
9.88989
9.92002
9.93958
9.94878
9.96468
9.98887
10.0193
10.0526
10.0823
10.1055
10.123
10.1414
10.1626
10.1884
10.2149
10.2375
10.2542
10.2686
10.2889
10.3121
10.3325
10.3468
10.3558
10.3691
10.3848
10.3976
10.4034
10.4043
10.4061
10.4089
10.4054
10.3962
10.3822
10.3644
10.3426
10.3097
10.2707
10.224
10.1552
0.2
0.2
0.2
0.2
0.2
0.2
0.2
0.2
0.2
0.2
0.2
0.2
0.2
0.2
0.2
0.2
0.2
0.2
0.2
0.2
0.2
0.2
0.2
0.2
0.2
0.2
0.2
0.2
0.2
0.2
0.2
0.2
0.2
0.2
0.2
0.2
0.2
0.2
0.2
0.200001
0.200012
0.200128
0.201331
0.21544
1.87377
6.19688
8.40287
8.93202
9.059
9.09744
9.12802
9.16357
9.19852
9.22934
9.25509
9.27552
9.28924
9.30914
9.34176
9.37753
9.40729
9.43049
9.44668
9.45559
9.47253
9.5025
9.53737
9.56526
9.58626
9.59708
9.60607
9.62866
9.6627
9.69492
9.7198
9.73474
9.73984
9.7563
9.79035
9.83015
9.86161
9.88244
9.89034
9.89943
9.92596
9.96418
10.0037
10.0357
10.0573
10.0689
10.0841
10.1073
10.1358
10.1649
10.1887
10.2053
10.2204
10.2398
10.2627
10.2842
10.301
10.312
10.3231
10.3384
10.3534
10.3626
10.3655
10.3672
10.3686
10.3693
10.3625
10.3505
10.3359
10.3148
10.2904
10.2529
10.2119
10.1604
10.0856
0.2
0.2
0.2
0.2
0.2
0.2
0.2
0.2
0.2
0.2
0.2
0.2
0.2
0.2
0.2
0.2
0.2
0.2
0.2
0.2
0.2
0.2
0.2
0.2
0.2
0.2
0.2
0.2
0.2
0.2
0.2
0.2
0.2
0.2
0.2
0.2
0.2
0.2
0.2
0.200008
0.200087
0.200855
0.204698
0.175403
1.16172
5.62294
8.27013
8.91655
9.05729
9.09977
9.12947
9.15773
9.18532
9.21058
9.23283
9.25027
9.2689
9.29579
9.32762
9.35605
9.38013
9.40062
9.41572
9.43235
9.45527
9.48532
9.51424
9.53834
9.55735
9.56792
9.5828
9.60938
9.64166
9.66773
9.68789
9.69889
9.71028
9.73391
9.76878
9.80137
9.8253
9.83815
9.84377
9.86522
9.90324
9.94415
9.97747
9.99894
10.0079
10.0183
10.0425
10.0749
10.1097
10.1398
10.1572
10.1672
10.1867
10.2108
10.2342
10.2527
10.265
10.2756
10.2903
10.306
10.3182
10.3241
10.3253
10.3281
10.3301
10.3256
10.3164
10.3027
10.2875
10.2626
10.2347
10.1933
10.1504
10.0936
10.0124
0.2
0.2
0.2
0.2
0.2
0.2
0.2
0.2
0.2
0.2
0.2
0.2
0.2
0.2
0.2
0.2
0.2
0.2
0.2
0.2
0.2
0.2
0.2
0.2
0.2
0.2
0.2
0.2
0.2
0.2
0.2
0.2
0.2
0.2
0.2
0.2
0.2
0.2
0.2
0.2
0.199976
0.199679
0.197347
0.153729
0.428617
4.93173
8.08724
8.88623
9.05914
9.10834
9.13849
9.16054
9.17979
9.19739
9.21657
9.24116
9.26928
9.29548
9.31744
9.33624
9.35133
9.36761
9.38738
9.41319
9.44102
9.46589
9.48648
9.50205
9.51355
9.53178
9.55504
9.58458
9.61265
9.63643
9.65239
9.66375
9.68159
9.71019
9.74198
9.76742
9.78608
9.79519
9.80985
9.84091
9.87999
9.91304
9.9351
9.94467
9.95278
9.97859
10.0153
10.0546
10.0872
10.1074
10.1123
10.1267
10.1525
10.1801
10.2026
10.216
10.2248
10.2391
10.2559
10.2709
10.2791
10.2814
10.2841
10.2872
10.2881
10.2789
10.2673
10.2525
10.2366
10.2074
10.1756
10.1309
10.0854
10.0237
9.93602
0.2
0.2
0.2
0.2
0.2
0.2
0.2
0.2
0.2
0.2
0.2
0.2
0.2
0.2
0.2
0.2
0.2
0.2
0.2
0.2
0.2
0.2
0.2
0.2
0.2
0.2
0.2
0.2
0.2
0.2
0.2
0.2
0.2
0.2
0.2
0.2
0.2
0.2
0.2
0.200008
0.200094
0.20044
0.199896
0.180139
0.259793
4.05404
7.61541
8.70818
8.94981
9.02643
9.06601
9.09099
9.11265
9.13509
9.16283
9.19266
9.21962
9.24263
9.26155
9.27666
9.2945
9.31963
9.34842
9.37572
9.39925
9.41863
9.43437
9.45092
9.47351
9.50182
9.53
9.55487
9.57609
9.59321
9.60804
9.62703
9.65205
9.68261
9.70867
9.7294
9.74302
9.75655
9.78051
9.81478
9.84724
9.87119
9.88441
9.89249
9.91543
9.95259
9.99244
10.0253
10.0457
10.0512
10.0608
10.0859
10.1176
10.1468
10.1674
10.1728
10.1843
10.202
10.2198
10.2318
10.2356
10.2369
10.2412
10.2453
10.2419
10.2293
10.216
10.1996
10.1821
10.1488
10.1137
10.0661
10.0173
9.95067
9.85618
0.2
0.2
0.2
0.2
0.2
0.2
0.2
0.2
0.2
0.2
0.2
0.2
0.2
0.2
0.2
0.2
0.2
0.2
0.2
0.2
0.2
0.2
0.2
0.2
0.2
0.2
0.2
0.2
0.2
0.2
0.2
0.2
0.2
0.2
0.2
0.2
0.2
0.2
0.2
0.2
0.200004
0.200021
0.200219
0.20363
0.287498
3.08674
7.03427
8.54583
8.90191
9.00678
9.04988
9.07223
9.09166
9.11495
9.14296
9.17
9.19389
9.21412
9.22951
9.24281
9.26285
9.29124
9.31954
9.3435
9.36268
9.37637
9.38925
9.40975
9.43877
9.46858
9.49408
9.51466
9.52964
9.54409
9.56415
9.59081
9.62095
9.64827
9.67129
9.68543
9.69962
9.72048
9.7512
9.78271
9.80764
9.82486
9.83465
9.85281
9.88706
9.92578
9.95778
9.97745
9.98434
9.99434
10.0203
10.0548
10.0891
10.1155
10.1222
10.125
10.143
10.1639
10.1808
10.1881
10.1878
10.1922
10.1972
10.1987
10.1918
10.1775
10.1636
10.1439
10.1232
10.0869
10.0493
9.99865
9.94592
9.87459
9.77368
0.2
0.2
0.2
0.2
0.2
0.2
0.2
0.2
0.2
0.2
0.2
0.2
0.2
0.2
0.2
0.2
0.2
0.2
0.2
0.2
0.2
0.2
0.2
0.2
0.2
0.2
0.2
0.2
0.2
0.2
0.2
0.2
0.2
0.2
0.2
0.2
0.2
0.2
0.2
0.2
0.2
0.200001
0.200019
0.199544
0.205635
2.03733
6.35218
8.37061
8.85271
8.98135
9.02692
9.04985
9.07061
9.09518
9.12205
9.14719
9.16959
9.18881
9.20312
9.2172
9.23878
9.26634
9.29179
9.31287
9.32996
9.34136
9.35521
9.37791
9.40656
9.43266
9.45407
9.47033
9.48162
9.49897
9.52365
9.55371
9.58207
9.60627
9.62347
9.63551
9.65549
9.68428
9.71674
9.74358
9.76337
9.77474
9.79101
9.82025
9.85682
9.88822
9.90877
9.91786
9.9282
9.9545
9.99084
10.0269
10.0547
10.0656
10.0637
10.0789
10.1021
10.1243
10.1386
10.1382
10.1392
10.1461
10.1522
10.1476
10.1372
10.1238
10.1099
10.0851
10.0603
10.0224
9.98223
9.92837
9.87152
9.7957
9.68836
0.2
0.2
0.2
0.2
0.2
0.2
0.2
0.2
0.2
0.2
0.2
0.2
0.2
0.2
0.2
0.2
0.2
0.2
0.2
0.2
0.2
0.2
0.2
0.2
0.2
0.2
0.2
0.2
0.2
0.2
0.2
0.2
0.2
0.2
0.2
0.2
0.2
0.2
0.2
0.2
0.2
0.200001
0.200272
0.197056
0.147611
0.902198
5.52407
8.21181
8.84678
8.98315
9.01552
9.03193
9.0494
9.07007
9.09267
9.11433
9.13447
9.1526
9.16905
9.18697
9.21032
9.23545
9.25775
9.27738
9.29451
9.30821
9.32583
9.35053
9.37602
9.39816
9.41708
9.43043
9.44428
9.46384
9.4894
9.51584
9.53931
9.55909
9.57176
9.58851
9.61265
9.64407
9.67427
9.69856
9.71283
9.72587
9.75071
9.78524
9.81738
9.84051
9.8528
9.86261
9.88682
9.92326
9.959
9.9864
9.99807
9.99806
10.0108
10.0357
10.0631
10.0859
10.0877
10.0835
10.0907
10.0991
10.1031
10.0926
10.0796
10.0677
10.0537
10.0239
9.99443
9.95529
9.91244
9.85463
9.79365
9.71398
9.60137
0.2
0.2
0.2
0.2
0.2
0.2
0.2
0.2
0.2
0.2
0.2
0.2
0.2
0.2
0.2
0.2
0.2
0.2
0.2
0.2
0.2
0.2
0.2
0.2
0.2
0.2
0.2
0.2
0.2
0.2
0.2
0.2
0.2
0.2
0.2
0.2
0.2
0.2
0.2
0.2
0.2
0.199995
0.199914
0.198192
0.172131
0.1053
4.41074
7.80364
8.73822
8.93422
8.98095
9.00446
9.02608
9.04663
9.06647
9.08578
9.10435
9.12365
9.14555
9.16832
9.18981
9.20926
9.22676
9.24214
9.25685
9.27525
9.29713
9.31909
9.33863
9.35622
9.36954
9.38363
9.40258
9.4262
9.4515
9.47491
9.49627
9.51195
9.5276
9.54853
9.57458
9.60357
9.62973
9.65009
9.66127
9.6809
9.71174
9.74479
9.77103
9.78788
9.79698
9.81705
9.85164
9.88799
9.915
9.92758
9.92976
9.94254
9.96889
9.99958
10.0266
10.0334
10.026
10.0301
10.0414
10.0514
10.0479
10.0332
10.021
10.0091
9.99368
9.96026
9.92681
9.88523
9.83945
9.77758
9.71303
9.63019
9.51154
0.2
0.2
0.2
0.2
0.2
0.2
0.2
0.2
0.2
0.2
0.2
0.2
0.2
0.2
0.2
0.2
0.2
0.2
0.2
0.2
0.2
0.2
0.2
0.2
0.2
0.2
0.2
0.2
0.2
0.2
0.2
0.2
0.2
0.2
0.2
0.2
0.2
0.2
0.2
0.2
0.2
0.2
0.200004
0.200128
0.202554
0.270084
3.18788
7.07947
8.48448
8.80914
8.9024
8.94472
8.97233
8.99348
9.01241
9.03036
9.04836
9.06766
9.08772
9.1075
9.12635
9.14408
9.16103
9.17746
9.19584
9.2176
9.24005
9.26096
9.27992
9.29719
9.31269
9.3319
9.35643
9.38245
9.4062
9.42718
9.44461
9.45999
9.4815
9.50643
9.53319
9.55893
9.5828
9.59744
9.61333
9.63836
9.66969
9.6977
9.71928
9.73117
9.7465
9.77652
9.81202
9.84016
9.85568
9.86024
9.8733
9.90107
9.93366
9.96163
9.97259
9.9641
9.96566
9.97948
9.99511
9.99923
9.98527
9.972
9.96236
9.94685
9.92835
9.8941
9.8578
9.81259
9.76312
9.69753
9.6297
9.54379
9.41967
0.2
0.2
0.2
0.2
0.2
0.2
0.2
0.2
0.2
0.2
0.2
0.2
0.2
0.2
0.2
0.2
0.2
0.2
0.2
0.2
0.2
0.2
0.2
0.2
0.2
0.2
0.2
0.2
0.2
0.2
0.2
0.2
0.2
0.2
0.2
0.2
0.2
0.2
0.2
0.2
0.2
0.199999
0.199993
0.199953
0.199059
0.195472
1.8687
6.20611
8.25192
8.73792
8.86061
8.90752
8.93509
8.95617
8.97486
8.99374
9.01307
9.03219
9.05084
9.06862
9.08557
9.10127
9.11736
9.13569
9.15552
9.17523
9.19442
9.21266
9.22993
9.2469
9.26517
9.28646
9.3108
9.33419
9.35501
9.37314
9.38696
9.40685
9.43179
9.45903
9.48539
9.50896
9.52748
9.54208
9.56475
9.59329
9.62273
9.64709
9.6636
9.67722
9.70138
9.73411
9.76344
9.78289
9.79154
9.80217
9.82861
9.86178
9.89035
9.90407
9.89927
9.89839
9.91203
9.93163
9.94804
9.93653
9.9185
9.9105
9.90332
9.88137
9.85734
9.8249
9.78712
9.73717
9.68337
9.61509
9.54467
9.45538
9.32354
0.2
0.2
0.2
0.2
0.2
0.2
0.2
0.2
0.2
0.2
0.2
0.2
0.2
0.2
0.2
0.2
0.2
0.2
0.2
0.2
0.2
0.2
0.2
0.2
0.2
0.2
0.2
0.2
0.2
0.2
0.2
0.2
0.2
0.2
0.2
0.2
0.2
0.2
0.2
0.2
0.2
0.199998
0.199961
0.199595
0.197389
0.153398
0.479334
5.02585
7.97389
8.68424
8.83659
8.88028
8.90089
8.91679
8.93234
8.94897
8.96766
8.98647
9.00411
9.02089
9.03714
9.05336
9.0716
9.09189
9.11172
9.13039
9.14801
9.16432
9.18162
9.20091
9.2219
9.2432
9.26343
9.28238
9.30038
9.31719
9.33564
9.35802
9.38353
9.40916
9.4327
9.45271
9.46729
9.48823
9.5133
9.54208
9.56985
9.59202
9.60477
9.62507
9.65462
9.68474
9.70772
9.72124
9.73128
9.75413
9.78631
9.8146
9.82982
9.83002
9.83
9.84386
9.86602
9.88588
9.88302
9.86365
9.85501
9.84899
9.84194
9.8127
9.78214
9.752
9.71385
9.65875
9.60091
9.53054
9.45689
9.36369
9.2261
0.2
0.2
0.2
0.2
0.2
0.2
0.2
0.2
0.2
0.2
0.2
0.2
0.2
0.2
0.2
0.2
0.2
0.2
0.2
0.2
0.2
0.2
0.2
0.2
0.2
0.2
0.2
0.2
0.2
0.2
0.2
0.2
0.2
0.2
0.2
0.2
0.2
0.2
0.2
0.2
0.2
0.2
0.199998
0.199998
0.200144
0.201352
0.253229
3.47727
7.2493
8.44254
8.72107
8.80318
8.83961
8.863
8.88419
8.9053
8.92598
8.94525
8.96327
8.9794
8.99453
9.01108
9.03055
9.05015
9.06829
9.08502
9.10012
9.11439
9.13163
9.15166
9.17188
9.19171
9.2101
9.22743
9.24427
9.26387
9.28684
9.31138
9.33509
9.35705
9.37689
9.39383
9.4134
9.4366
9.46281
9.49034
9.51665
9.53412
9.54917
9.57439
9.60424
9.62976
9.64827
9.65869
9.67714
9.70684
9.73579
9.7532
9.75809
9.75977
9.77379
9.79807
9.82056
9.82162
9.80285
9.794
9.79378
9.78758
9.77513
9.73937
9.70693
9.67554
9.63661
9.57777
9.51638
9.44399
9.36713
9.26987
9.12409
0.2
0.2
0.2
0.2
0.2
0.2
0.2
0.2
0.2
0.2
0.2
0.2
0.2
0.2
0.2
0.2
0.2
0.2
0.2
0.2
0.2
0.2
0.2
0.2
0.2
0.2
0.2
0.2
0.2
0.2
0.2
0.2
0.2
0.2
0.2
0.2
0.2
0.2
0.2
0.2
0.2
0.2
0.199999
0.199992
0.199948
0.199106
0.190785
1.81572
6.1906
8.17955
8.65952
8.77142
8.80615
8.82613
8.8452
8.86567
8.88691
8.90683
8.92486
8.94101
8.95678
8.97431
8.99322
9.01107
9.02789
9.04314
9.05619
9.07095
9.08799
9.10633
9.12354
9.14063
9.15653
9.17277
9.19029
9.21001
9.23321
9.25618
9.27719
9.29642
9.31349
9.33475
9.35911
9.38538
9.41178
9.43688
9.45837
9.47295
9.49387
9.52101
9.54871
9.57115
9.58522
9.60019
9.62559
9.65384
9.67464
9.68441
9.68801
9.70128
9.72471
9.74869
9.75574
9.74015
9.72908
9.72844
9.73496
9.72261
9.69647
9.66362
9.63407
9.59591
9.55402
9.49399
9.42993
9.355
9.2738
9.17283
9.02238
0.2
0.2
0.2
0.2
0.2
0.2
0.2
0.2
0.2
0.2
0.2
0.2
0.2
0.2
0.2
0.2
0.2
0.2
0.2
0.2
0.2
0.2
0.2
0.2
0.2
0.2
0.2
0.2
0.2
0.2
0.2
0.2
0.2
0.2
0.2
0.2
0.2
0.2
0.2
0.2
0.2
0.2
0.199998
0.199959
0.19957
0.197218
0.160239
0.287377
4.77755
7.85271
8.5934
8.75301
8.79327
8.81257
8.82849
8.84496
8.86152
8.87753
8.89276
8.90686
8.92221
8.93803
8.95343
8.96777
8.98119
8.99248
9.00608
9.0221
9.03877
9.05553
9.07213
9.08666
9.10223
9.12018
9.13867
9.15874
9.17979
9.2002
9.21913
9.23632
9.25548
9.27825
9.30431
9.33053
9.355
9.37568
9.39164
9.41088
9.43558
9.46337
9.48992
9.50931
9.52222
9.54344
9.5703
9.59338
9.60791
9.61498
9.62658
9.64851
9.67047
9.68196
9.67479
9.66163
9.66514
9.66918
9.6714
9.64627
9.61243
9.58729
9.56142
9.51467
9.46738
9.40769
9.3415
9.26332
9.17803
9.07367
8.91559
0.2
0.2
0.2
0.2
0.2
0.2
0.2
0.2
0.2
0.2
0.2
0.2
0.2
0.2
0.2
0.2
0.2
0.2
0.2
0.2
0.2
0.2
0.2
0.2
0.2
0.2
0.2
0.2
0.2
0.2
0.2
0.2
0.2
0.2
0.2
0.2
0.2
0.2
0.2
0.2
0.2
0.2
0.200001
0.200006
0.19999
0.200013
0.200646
0.234226
3.08455
7.00534
8.32002
8.62004
8.70247
8.73828
8.75977
8.77589
8.78983
8.80316
8.8168
8.83113
8.84619
8.86157
8.87694
8.89203
8.90694
8.92144
8.9379
8.95544
8.97354
8.99171
9.00935
9.02382
9.04128
9.06089
9.08099
9.10112
9.1208
9.13915
9.15744
9.17741
9.19861
9.22199
9.24646
9.26982
9.29065
9.30838
9.32869
9.35218
9.37779
9.40443
9.42962
9.44444
9.46107
9.48537
9.51008
9.52863
9.53937
9.5494
9.56926
9.59093
9.60383
9.60208
9.59529
9.59632
9.60766
9.60583
9.59106
9.56097
9.53402
9.51161
9.48428
9.43028
9.37831
9.31843
9.24989
9.16763
9.07881
8.97258
8.81093
0.2
0.2
0.2
0.2
0.2
0.2
0.2
0.2
0.2
0.2
0.2
0.2
0.2
0.2
0.2
0.2
0.2
0.2
0.2
0.2
0.2
0.2
0.2
0.2
0.2
0.2
0.2
0.2
0.2
0.2
0.2
0.2
0.2
0.2
0.2
0.2
0.2
0.2
0.2
0.2
0.2
0.2
0.200001
0.200011
0.200035
0.19986
0.198236
0.174628
1.24191
5.6822
7.95769
8.51166
8.6458
8.68958
8.71217
8.7289
8.74284
8.75715
8.77148
8.78549
8.79976
8.81385
8.82778
8.84165
8.85568
8.87051
8.88632
8.90267
8.9193
8.93581
8.95166
8.96714
8.98488
9.00395
9.0237
9.04299
9.06079
9.07708
9.09707
9.11799
9.14011
9.16297
9.18527
9.20554
9.22364
9.24426
9.26723
9.29239
9.31872
9.34418
9.36462
9.37708
9.39864
9.42384
9.44598
9.46118
9.4712
9.48731
9.50815
9.52403
9.5278
9.52406
9.52584
9.53512
9.54596
9.529
9.50014
9.47864
9.46087
9.43404
9.39936
9.34315
9.2892
9.22716
9.15534
9.06851
8.97702
8.86897
8.70058
0.2
0.2
0.2
0.2
0.2
0.2
0.2
0.2
0.2
0.2
0.2
0.2
0.2
0.2
0.2
0.2
0.2
0.2
0.2
0.2
0.2
0.2
0.2
0.2
0.2
0.2
0.2
0.2
0.2
0.2
0.2
0.2
0.2
0.2
0.2
0.2
0.2
0.2
0.2
0.2
0.2
0.2
0.2
0.2
0.199999
0.199976
0.199762
0.193517
0.187493
3.82631
7.32889
8.35095
8.58367
8.64344
8.6657
8.68136
8.69349
8.70624
8.72034
8.73421
8.74775
8.76021
8.77335
8.78706
8.80153
8.81652
8.8318
8.84737
8.86297
8.878
8.89322
8.90972
8.92693
8.94464
8.96272
8.98084
8.99701
9.01538
9.03606
9.0572
9.0787
9.10021
9.12022
9.13968
9.16089
9.18322
9.20687
9.23183
9.25661
9.27748
9.29288
9.31061
9.33464
9.35891
9.37945
9.39139
9.40476
9.42312
9.44091
9.44988
9.45138
9.45344
9.46158
9.46893
9.46764