/*--------------------------------*- C++ -*----------------------------------*\
| =========                 |                                                 |
| \\      /  F ield         | OpenFOAM: The Open Source CFD Toolbox           |
|  \\    /   O peration     | Version:  2.2.x                                 |
|   \\  /    A nd           | Web:      www.OpenFOAM.org                      |
|    \\/     M anipulation  |                                                 |
\*---------------------------------------------------------------------------*/
FoamFile
{
    version     2.0;
    format      ascii;
    class       volScalarField;
    location    "2.85";
    object      T;
}
// * * * * * * * * * * * * * * * * * * * * * * * * * * * * * * * * * * * * * //

dimensions      [0 0 0 1 0 0 0];

internalField   nonuniform List<scalar> 
14161
(
1
1
1
1
1
1
1
1
1
1
1
1
1
1
1
1
1
1
1
1
1
1
1
1
1
1
1
1
1
1
1
1
1
1
1
1
1
1
1
1.00003
1.00056
1.01004
1.23418
6.05221
10.7033
12.0645
12.3329
12.3965
12.428
12.4496
12.466
12.4804
12.4912
12.5011
12.5178
12.5393
12.5579
12.5736
12.5873
12.5958
12.6034
12.6192
12.6413
12.659
12.6739
12.6854
12.6899
12.6989
12.7174
12.739
12.7557
12.7691
12.7743
12.7803
12.7944
12.8164
12.8343
12.8487
12.8563
12.8612
12.8732
12.8941
12.9123
12.9266
12.934
12.9396
12.9528
12.9726
12.9893
13.002
13.0075
13.016
13.0317
13.0495
13.0638
13.0729
13.0793
13.0918
13.1084
13.1226
13.1324
13.1386
13.1498
13.1645
13.1776
13.1867
13.1933
13.2038
13.2157
13.2254
13.231
13.2359
13.2442
13.2558
13.2667
13.2759
13.2839
13.2914
13.2983
1
1
1
1
1
1
1
1
1
1
1
1
1
1
1
1
1
1
1
1
1
1
1
1
1
1
1
1
1
1
1
1
1
1
1
1
1
1
1
1.00003
1.00056
1.01006
1.23544
6.05157
10.7056
12.0714
12.3413
12.4054
12.4369
12.4581
12.474
12.4879
12.4984
12.5082
12.5251
12.5468
12.5652
12.5808
12.5944
12.6021
12.6099
12.6261
12.6486
12.6663
12.6811
12.6923
12.6966
12.7057
12.7244
12.746
12.7627
12.7762
12.7809
12.7869
12.8011
12.8231
12.841
12.8552
12.8625
12.8674
12.8795
12.9003
12.9183
12.9324
12.9395
12.9452
12.9583
12.9779
12.9944
13.0068
13.0123
13.0207
13.0362
13.0537
13.0677
13.0765
13.083
13.0955
13.1117
13.1255
13.1351
13.1413
13.1524
13.1669
13.1795
13.1882
13.1946
13.205
13.2166
13.2257
13.2309
13.236
13.2447
13.2559
13.2658
13.2743
13.2822
13.2901
13.296
1
1
1
1
1
1
1
1
1
1
1
1
1
1
1
1
1
1
1
1
1
1
1
1
1
1
1
1
1
1
1
1
1
1
1
1
1
1
1
1.00003
1.00054
1.0096
1.22422
6.01448
10.6947
12.0691
12.3406
12.4054
12.4372
12.4584
12.4742
12.4881
12.4984
12.5084
12.5259
12.5477
12.5659
12.5814
12.595
12.6021
12.6102
12.6269
12.6497
12.6672
12.682
12.6928
12.697
12.7064
12.7256
12.747
12.7638
12.7772
12.7816
12.7878
12.8023
12.8244
12.8422
12.8563
12.8634
12.8684
12.8808
12.9016
12.9195
12.9335
12.9405
12.9463
12.9596
12.9791
12.9954
13.0077
13.0133
13.0219
13.0374
13.0546
13.0684
13.077
13.0838
13.0964
13.1124
13.1259
13.1352
13.1419
13.1534
13.1676
13.1799
13.1882
13.195
13.2056
13.2169
13.2254
13.2298
13.2352
13.2441
13.2547
13.2633
13.2708
13.2776
13.2848
13.2884
1
1
1
1
1
1
1
1
1
1
1
1
1
1
1
1
1
1
1
1
1
1
1
1
1
1
1
1
1
1
1
1
1
1
1
1
1
1
1
1.00003
1.0005
1.00863
1.19989
5.93893
10.6699
12.0567
12.3311
12.3971
12.4297
12.4512
12.4675
12.4815
12.4919
12.5025
12.5208
12.5428
12.5606
12.5761
12.5895
12.5962
12.6047
12.6222
12.6449
12.6623
12.677
12.6873
12.6916
12.7015
12.7215
12.7426
12.7592
12.7725
12.7765
12.7831
12.7983
12.8206
12.8382
12.8522
12.8589
12.8643
12.8774
12.8983
12.916
12.9299
12.9368
12.9431
12.9569
12.9763
12.9925
13.0048
13.0105
13.0198
13.0354
13.0523
13.0658
13.0743
13.0816
13.0947
13.1106
13.1239
13.1333
13.1404
13.1525
13.167
13.1793
13.1875
13.1948
13.2058
13.217
13.225
13.2287
13.2339
13.2425
13.2524
13.2599
13.2664
13.2719
13.2777
13.2788
1
1
1
1
1
1
1
1
1
1
1
1
1
1
1
1
1
1
1
1
1
1
1
1
1
1
1
1
1
1
1
1
1
1
1
1
1
1
1
1.00003
1.00045
1.00755
1.17273
5.84944
10.6421
12.0453
12.3237
12.3911
12.4239
12.4452
12.4613
12.4749
12.4847
12.4957
12.5148
12.5369
12.5547
12.5704
12.5837
12.5903
12.5994
12.618
12.6409
12.6583
12.6729
12.6825
12.6871
12.6975
12.7185
12.7393
12.7559
12.7687
12.7719
12.7791
12.7953
12.8174
12.8347
12.8484
12.8543
12.8601
12.8736
12.8942
12.9114
12.9248
12.9312
12.9378
12.9518
12.9705
12.9861
12.998
13.0035
13.0136
13.0294
13.0458
13.0591
13.0676
13.0759
13.0898
13.1057
13.119
13.1283
13.1361
13.1488
13.1635
13.1758
13.1841
13.1919
13.2035
13.2151
13.2232
13.2266
13.2314
13.2396
13.249
13.2561
13.2614
13.2654
13.2689
13.268
1
1
1
1
1
1
1
1
1
1
1
1
1
1
1
1
1
1
1
1
1
1
1
1
1
1
1
1
1
1
1
1
1
1
1
1
1
1
1
1.00002
1.0004
1.00644
1.14449
5.74522
10.6133
12.0377
12.3202
12.3896
12.423
12.4441
12.46
12.4735
12.4832
12.4951
12.5151
12.5369
12.5546
12.5702
12.583
12.5894
12.5998
12.6195
12.6415
12.6583
12.6722
12.6808
12.6861
12.6975
12.7189
12.7385
12.7542
12.766
12.7687
12.7769
12.7941
12.8153
12.8318
12.8451
12.8492
12.8558
12.8708
12.8916
12.9081
12.9209
12.9255
12.9329
12.9483
12.9674
12.9827
12.9933
12.9975
13.0077
13.0246
13.0412
13.0541
13.0617
13.07
13.0841
13.1001
13.1132
13.1219
13.1298
13.1426
13.1572
13.1695
13.1782
13.1865
13.1986
13.2108
13.2194
13.2233
13.2276
13.2351
13.2442
13.2508
13.2554
13.2579
13.2586
13.2565
1
1
1
1
1
1
1
1
1
1
1
1
1
1
1
1
1
1
1
1
1
1
1
1
1
1
1
1
1
1
1
1
1
1
1
1
1
1
1
1.00002
1.00034
1.00516
1.1114
5.61132
10.5776
12.0315
12.3208
12.3921
12.4261
12.4468
12.4624
12.4751
12.4845
12.4969
12.5176
12.5386
12.5556
12.5704
12.5821
12.5885
12.5995
12.6202
12.6414
12.6581
12.6718
12.6789
12.6849
12.6983
12.7205
12.7393
12.7547
12.7653
12.7687
12.778
12.7969
12.8179
12.8344
12.8466
12.8496
12.8576
12.8744
12.8952
12.9115
12.9233
12.9267
12.9353
12.9517
12.9702
12.9846
12.9935
12.9972
13.0072
13.0244
13.0403
13.0521
13.0576
13.0655
13.0797
13.0955
13.108
13.1156
13.1232
13.1359
13.1506
13.1627
13.1713
13.1795
13.1914
13.2038
13.213
13.2179
13.2222
13.2292
13.2379
13.2441
13.2478
13.2488
13.2474
13.2441
1
1
1
1
1
1
1
1
1
1
1
1
1
1
1
1
1
1
1
1
1
1
1
1
1
1
1
1
1
1
1
1
1
1
1
1
1
1
1
1.00002
1.00026
1.00345
1.06662
5.41688
10.5222
12.0165
12.3153
12.3891
12.4234
12.4437
12.4589
12.4709
12.4803
12.494
12.5153
12.5354
12.5518
12.5661
12.5765
12.5834
12.5955
12.617
12.637
12.6531
12.6665
12.6721
12.6791
12.6944
12.7168
12.7348
12.7497
12.7589
12.7633
12.7737
12.7942
12.8145
12.8308
12.8421
12.8453
12.8543
12.8724
12.8929
12.9092
12.9202
12.9236
12.9333
12.9509
12.9692
12.9835
12.992
12.9964
13.0073
13.0247
13.04
13.0509
13.0552
13.0632
13.0778
13.0931
13.1047
13.1107
13.1178
13.1306
13.1451
13.1566
13.1645
13.1723
13.1838
13.1959
13.2047
13.2099
13.2147
13.2221
13.2305
13.2357
13.2383
13.2381
13.2351
13.2304
1
1
1
1
1
1
1
1
1
1
1
1
1
1
1
1
1
1
1
1
1
1
1
1
1
1
1
1
1
1
1
1
1
1
1
1
1
1
1
1.00001
1.00017
1.00152
1.01512
5.16322
10.4477
11.9928
12.3028
12.3796
12.4138
12.4333
12.4478
12.4591
12.4689
12.4846
12.5061
12.5249
12.5409
12.555
12.5643
12.5717
12.5862
12.608
12.6266
12.6423
12.6549
12.6596
12.6679
12.6849
12.7069
12.7241
12.7382
12.746
12.7515
12.7632
12.7842
12.8035
12.8191
12.8296
12.8334
12.8434
12.8622
12.8817
12.8976
12.9082
12.9121
12.9227
12.9416
12.9604
12.9751
12.9842
12.9904
13.0032
13.0215
13.0372
13.0482
13.0526
13.0617
13.0763
13.091
13.1019
13.107
13.114
13.1266
13.1404
13.151
13.1576
13.1654
13.1766
13.1877
13.1955
13.2002
13.2057
13.2136
13.2216
13.2256
13.2267
13.2255
13.2216
13.2156
1
1
1
1
1
1
1
1
1
1
1
1
1
1
1
1
1
1
1
1
1
1
1
1
1
1
1
1
1
1
1
1
1
1
1
1
1
1
1
1.00001
1.00008
0.999817
0.967244
4.8741
10.367
11.9728
12.2966
12.3767
12.411
12.4301
12.4441
12.4549
12.4657
12.4834
12.5048
12.5228
12.5382
12.5517
12.5602
12.5686
12.585
12.6068
12.6242
12.639
12.6503
12.6561
12.6653
12.6834
12.7039
12.7201
12.7334
12.7403
12.7466
12.7598
12.7804
12.798
12.8128
12.8223
12.8274
12.8381
12.8572
12.8755
12.8905
12.9
12.9051
12.9162
12.9351
12.9531
12.967
12.975
12.9822
12.9961
13.0143
13.0297
13.0408
13.0467
13.0573
13.0728
13.0873
13.0979
13.1031
13.111
13.1232
13.1357
13.145
13.1507
13.1589
13.1697
13.1794
13.1854
13.1894
13.1959
13.2044
13.2111
13.2135
13.2136
13.2114
13.2068
13.199
1
1
1
1
1
1
1
1
1
1
1
1
1
1
1
1
1
1
1
1
1
1
1
1
1
1
1
1
1
1
1
1
1
1
1
1
1
1
1
1
0.999949
0.99767
0.917131
4.49466
10.2566
11.9435
12.2868
12.3711
12.405
12.4238
12.4364
12.4469
12.4603
12.4795
12.4986
12.5149
12.5295
12.5416
12.5498
12.5608
12.5799
12.5998
12.6155
12.6292
12.6395
12.6468
12.6588
12.6789
12.697
12.7117
12.724
12.7307
12.7392
12.7557
12.776
12.7916
12.805
12.8135
12.8209
12.8347
12.8544
12.871
12.8847
12.893
12.9001
12.9132
12.9315
12.9474
12.96
12.9668
12.9756
12.9908
13.0081
13.0223
13.0325
13.0395
13.0512
13.0666
13.0802
13.0903
13.0965
13.1065
13.119
13.13
13.1377
13.1432
13.152
13.1622
13.1701
13.1745
13.1785
13.1857
13.1941
13.1987
13.1997
13.199
13.1957
13.1904
13.181
1
1
1
1
1
1
1
1
1
1
1
1
1
1
1
1
1
1
1
1
1
1
1
1
1
1
1
1
1
1
1
1
1
1
1
1
1
1
1
1.00001
1.00003
0.996933
0.875799
4.04358
10.1221
11.9071
12.2753
12.3647
12.3974
12.4134
12.4254
12.4378
12.4556
12.4752
12.4918
12.5061
12.5183
12.5274
12.5372
12.5548
12.5754
12.5914
12.6049
12.6154
12.6234
12.6334
12.6518
12.6716
12.6868
12.6995
12.7073
12.7154
12.7286
12.7483
12.7657
12.7802
12.7911
12.7985
12.8097
12.8277
12.8465
12.862
12.8742
12.8816
12.8924
12.9089
12.9261
12.9401
12.9506
12.9577
12.9693
12.9858
13.0013
13.0141
13.0223
13.0308
13.0443
13.0595
13.0719
13.0806
13.0882
13.0998
13.1125
13.1227
13.129
13.1349
13.1441
13.1538
13.1601
13.1632
13.1679
13.1756
13.1824
13.1845
13.1845
13.1832
13.1786
13.1723
13.1615
1
1
1
1
1
1
1
1
1
1
1
1
1
1
1
1
1
1
1
1
1
1
1
1
1
1
1
1
1
1
1
1
1
1
1
1
1
1
1.00001
1.00025
1.00418
1.02292
0.832018
3.5077
9.96572
11.8735
12.2709
12.3645
12.3948
12.4084
12.4198
12.4362
12.4557
12.4726
12.487
12.4997
12.5084
12.5164
12.532
12.5537
12.5709
12.5853
12.5964
12.6022
12.6104
12.6275
12.65
12.6668
12.6805
12.6887
12.6942
12.7046
12.725
12.7452
12.7612
12.7729
12.7774
12.7864
12.8031
12.8245
12.8415
12.8548
12.8616
12.8698
12.8849
12.9045
12.9204
12.9328
12.9395
12.9478
12.9626
12.9802
12.9946
13.0051
13.0111
13.0224
13.0381
13.0527
13.0642
13.0707
13.0796
13.0926
13.1054
13.115
13.1199
13.1266
13.1359
13.1446
13.1496
13.152
13.1573
13.1646
13.1688
13.1691
13.1683
13.1659
13.1598
13.1528
13.1407
1
1
1
1
1
1
1
1
1
1
1
1
1
1
1
1
1
1
1
1
1
1
1
1
1
1
1
1
1
1
1
1
1
1
1
1
1
0.999999
1.00001
1.00014
1.00293
1.00893
0.765106
2.85063
9.77085
11.8279
12.257
12.3539
12.379
12.3911
12.4046
12.4238
12.4416
12.4563
12.4691
12.4799
12.4863
12.498
12.5202
12.5412
12.5574
12.571
12.5771
12.5826
12.5945
12.619
12.6408
12.6578
12.6707
12.6714
12.6777
12.6927
12.7189
12.739
12.7548
12.7621
12.7646
12.7746
12.7961
12.8186
12.8359
12.8472
12.8495
12.8586
12.8769
12.898
12.9146
12.9255
12.9288
12.9385
12.9557
12.9737
12.9876
12.9954
13.0015
13.0141
13.0313
13.0459
13.0558
13.0607
13.0708
13.0849
13.0977
13.1064
13.1105
13.1177
13.1268
13.1344
13.1383
13.1404
13.1459
13.1521
13.1537
13.1529
13.1509
13.147
13.1389
13.1316
13.1181
1
1
1
1
1
1
1
1
1
1
1
1
1
1
1
1
1
1
1
1
1
1
1
1
1
1
1
1
1
1
1
1
1
1
1
1
1
1
0.999992
0.999815
0.997638
0.973442
0.720463
2.14664
9.58264
11.7328
12.2207
12.3228
12.3443
12.3585
12.3757
12.3959
12.4138
12.4302
12.4438
12.4478
12.455
12.4715
12.4975
12.518
12.5353
12.5491
12.5497
12.5556
12.5716
12.5999
12.6218
12.6404
12.6508
12.6483
12.657
12.6762
12.7042
12.7255
12.7421
12.7442
12.7474
12.7601
12.7844
12.8077
12.8259
12.8344
12.8363
12.8471
12.8678
12.8898
12.9071
12.9155
12.9189
12.9293
12.9483
12.9663
12.9794
12.9843
12.9915
13.0058
13.0232
13.037
13.0451
13.0506
13.0613
13.0759
13.0883
13.0958
13.1001
13.1075
13.1165
13.1229
13.1257
13.1281
13.1331
13.1379
13.1376
13.1355
13.1318
13.1269
13.1164
13.1086
13.0938
1
1
1
1
1
1
1
1
1
1
1
1
1
1
1
1
1
1
1
1
1
1
1
1
1
1
1
1
1
1
1
1
1
1
1
1
1
1
1
1.00004
0.999811
0.986116
0.787591
1.30361
9.37499
11.5958
12.1696
12.2845
12.31
12.3269
12.3488
12.3693
12.3876
12.4043
12.4182
12.4234
12.4311
12.4477
12.4733
12.4928
12.5095
12.5235
12.5272
12.5345
12.5472
12.572
12.5946
12.6134
12.6263
12.6282
12.6369
12.6535
12.678
12.6989
12.7155
12.7204
12.7264
12.7414
12.7658
12.7876
12.8064
12.8157
12.8199
12.8335
12.8557
12.8775
12.8946
12.902
12.9074
12.9194
12.9392
12.9566
12.9685
12.9717
12.9807
12.9962
13.0132
13.026
13.0322
13.0389
13.0511
13.0658
13.0772
13.0831
13.0882
13.0962
13.105
13.1103
13.1122
13.115
13.1191
13.122
13.1203
13.117
13.1113
13.1056
13.0926
13.0841
13.0677
1
1
1
1
1
1
1
1
1
1
1
1
1
1
1
1
1
1
1
1
1
1
1
1
1
1
1
1
1
1
1
1
1
1
1
1
1
1
1.00003
1.00053
1.00297
0.994862
0.833167
1.09925
9.0805
11.4294
12.1108
12.261
12.3045
12.3213
12.3314
12.3432
12.3614
12.3862
12.4073
12.4241
12.4386
12.4447
12.4524
12.4644
12.4867
12.5074
12.5229
12.5356
12.5413
12.5495
12.5626
12.5815
12.5989
12.6134
12.6249
12.6368
12.6516
12.6687
12.6832
12.6959
12.7061
12.7215
12.7424
12.7631
12.781
12.7923
12.8021
12.8188
12.8411
12.8612
12.8777
12.8859
12.8945
12.9098
12.9294
12.9453
12.9556
12.9601
12.9704
12.9866
13.0022
13.0134
13.0184
13.0269
13.0404
13.0544
13.0645
13.069
13.0753
13.084
13.0922
13.0966
13.0977
13.1009
13.1041
13.1048
13.1019
13.0977
13.0903
13.0819
13.0677
13.0581
13.0401
1
1
1
1
1
1
1
1
1
1
1
1
1
1
1
1
1
1
1
1
1
1
1
1
1
1
1
1
1
1
1
1
1
1
1
1
1
1
0.999988
1.00002
1.00001
0.998755
0.951477
1.44061
8.60069
11.2884
12.0996
12.272
12.324
12.3422
12.3485
12.3563
12.3724
12.3957
12.4143
12.4305
12.4441
12.4483
12.4518
12.4639
12.4868
12.505
12.5197
12.5303
12.5334
12.5371
12.5499
12.571
12.5876
12.6008
12.61
12.615
12.6238
12.6391
12.6584
12.676
12.6912
12.7036
12.7161
12.7317
12.7487
12.7643
12.7814
12.8004
12.8208
12.8406
12.8572
12.8678
12.8816
12.9
12.9184
12.933
12.9421
12.9492
12.961
12.9765
12.9899
12.9991
13.0045
13.0148
13.0288
13.0413
13.0498
13.0542
13.0617
13.0707
13.0779
13.0815
13.0824
13.0856
13.088
13.0867
13.0823
13.077
13.0682
13.0565
13.0415
13.0305
13.0112
1
1
1
1
1
1
1
1
1
1
1
1
1
1
1
1
1
1
1
1
1
1
1
1
1
1
1
1
1
1
1
1
1
1
1
1
1
1
1
1
1.00006
1.00096
1.02046
1.55068
7.74311
11.0885
12.0836
12.2891
12.3459
12.3606
12.3659
12.3745
12.3938
12.4153
12.4312
12.4448
12.4558
12.4589
12.4657
12.4824
12.5035
12.5185
12.5306
12.5381
12.5397
12.5454
12.5616
12.5807
12.5943
12.6035
12.6053
12.6048
12.6123
12.6312
12.6484
12.662
12.6725
12.677
12.6857
12.6995
12.7198
12.7414
12.7609
12.7781
12.7937
12.8118
12.8288
12.846
12.8671
12.887
12.9045
12.9184
12.9282
12.9384
12.9519
12.9655
12.9764
12.9836
12.9911
13.0026
13.0157
13.0263
13.033
13.0389
13.0473
13.0563
13.0619
13.0648
13.0663
13.0691
13.0697
13.0672
13.0614
13.0545
13.0446
13.0299
13.0139
13.0015
12.981
1
1
1
1
1
1
1
1
1
1
1
1
1
1
1
1
1
1
1
1
1
1
1
1
1
1
1
1
1
1
1
1
1
1
1
1
1
1
1
1
1.00003
1.00046
1.00821
1.28475
6.63072
10.7888
12.0097
12.2549
12.3193
12.3385
12.3486
12.3623
12.3843
12.404
12.4189
12.4316
12.4411
12.4471
12.4575
12.478
12.4974
12.5122
12.5243
12.5302
12.5348
12.5463
12.5665
12.5834
12.5965
12.6056
12.6051
12.6077
12.6191
12.6376
12.6503
12.6588
12.6611
12.6597
12.6668
12.6856
12.7051
12.722
12.7363
12.746
12.7589
12.7749
12.7963
12.8212
12.8452
12.8665
12.8833
12.8985
12.9124
12.9273
12.9421
12.9541
12.9626
12.969
12.9782
12.9902
13.0013
13.0097
13.0154
13.0228
13.0318
13.04
13.0446
13.0469
13.0487
13.0513
13.0495
13.0457
13.0393
13.0305
13.0194
13.0015
12.9848
12.9711
12.949
1
1
1
1
1
1
1
1
1
1
1
1
1
1
1
1
1
1
1
1
1
1
1
1
1
1
1
1
1
1
1
1
1
1
1
1
1
1
1
1
1.00003
1.00027
0.999467
0.998817
5.30337
10.4088
11.9061
12.2058
12.2784
12.3019
12.319
12.3385
12.3569
12.3724
12.3866
12.3995
12.4072
12.4166
12.4336
12.4548
12.4717
12.4868
12.499
12.5042
12.5132
12.5298
12.5522
12.5687
12.5825
12.5917
12.5959
12.6044
12.621
12.637
12.649
12.6561
12.6545
12.6558
12.6667
12.6846
12.6977
12.7077
12.7125
12.7153
12.7266
12.7484
12.7739
12.7975
12.8179
12.834
12.851
12.8699
12.8909
12.9122
12.9288
12.9403
12.948
12.9556
12.966
12.9768
12.9853
12.9915
12.9976
13.006
13.0151
13.0218
13.0254
13.0282
13.0298
13.0308
13.0279
13.0224
13.0158
13.0045
12.9924
12.9711
12.9542
12.9393
12.9151
1
1
1
1
1
1
1
1
1
1
1
1
1
1
1
1
1
1
1
1
1
1
1
1
1
1
1
1
1
1
1
1
1
1
1
1
1
1
1
1.00002
1.00035
1.00421
1.02072
0.847208
3.64778
9.92677
11.7915
12.1627
12.2405
12.2641
12.2811
12.2967
12.3119
12.3269
12.3413
12.3535
12.3645
12.3798
12.4003
12.4184
12.4346
12.4496
12.461
12.4722
12.486
12.5054
12.5245
12.5412
12.5562
12.5647
12.5742
12.5891
12.6092
12.6243
12.6365
12.6435
12.6469
12.6538
12.6684
12.6822
12.6915
12.696
12.6936
12.698
12.7134
12.7339
12.753
12.7694
12.7816
12.7931
12.8117
12.8365
12.8641
12.8898
12.9088
12.9192
12.9308
12.9421
12.9536
12.9626
12.9683
12.9729
12.9799
12.9889
12.9968
13.0021
13.0046
13.0081
13.01
13.0079
13.0046
12.9973
12.9909
12.9771
12.9633
12.9393
12.9222
12.9058
12.8792
1
1
1
1
1
1
1
1
1
1
1
1
1
1
1
1
1
1
1
1
1
1
1
1
1
1
1
1
1
1
1
1
1
1
1
1
1
1
1
1
0.999953
0.99905
0.986175
0.772335
1.52708
9.32837
11.6598
12.1213
12.2106
12.234
12.251
12.2647
12.2779
12.2909
12.3042
12.3196
12.3374
12.3543
12.3692
12.3832
12.3951
12.4069
12.4196
12.4356
12.4539
12.4708
12.4869
12.5015
12.5127
12.5268
12.5418
12.5622
12.5824
12.6005
12.614
12.6219
12.631
12.645
12.662
12.6739
12.6818
12.683
12.6837
12.6926
12.7091
12.7231
12.7335
12.74
12.7441
12.7585
12.7826
12.8114
12.8389
12.8612
12.8745
12.8901
12.9076
12.9246
12.9385
12.9467
12.9496
12.9546
12.9623
12.9709
12.9767
12.9803
12.9835
12.9871
12.9882
12.9835
12.9793
12.9707
12.9643
12.948
12.9323
12.9061
12.8886
12.8707
12.8415
1
1
1
1
1
1
1
1
1
1
1
1
1
1
1
1
1
1
1
1
1
1
1
1
1
1
1
1
1
1
1
1
1
1
1
1
1
1
1
1.00003
1.00038
1.00235
0.999945
0.898846
1.05008
8.69953
11.3089
11.9859
12.1307
12.1809
12.2106
12.2302
12.2461
12.2609
12.2782
12.297
12.3135
12.3278
12.3401
12.3498
12.3592
12.3727
12.3893
12.4052
12.4197
12.433
12.4448
12.4563
12.4705
12.4891
12.5085
12.5271
12.5454
12.5623
12.5763
12.5907
12.6068
12.6272
12.6441
12.6569
12.6647
12.6689
12.6758
12.6889
12.7015
12.7097
12.7138
12.7134
12.7206
12.7389
12.7627
12.7862
12.8065
12.8193
12.8336
12.8553
12.8794
12.9017
12.9188
12.9249
12.9299
12.9359
12.9446
12.9516
12.9551
12.9579
12.9617
12.9653
12.9646
12.9574
12.9526
12.9426
12.9357
12.9171
12.8997
12.8719
12.8535
12.8342
12.802
1
1
1
1
1
1
1
1
1
1
1
1
1
1
1
1
1
1
1
1
1
1
1
1
1
1
1
1
1
1
1
1
1
1
1
1
1
1
1
1
1.00001
1.00006
1.00033
1.00474
1.24829
7.51497
10.9908
11.9371
12.1381
12.1949
12.2195
12.2328
12.2434
12.2565
12.2727
12.2878
12.3009
12.3128
12.3231
12.331
12.3414
12.3581
12.3752
12.3896
12.4022
12.4124
12.4198
12.4291
12.4447
12.4627
12.4793
12.4953
12.5088
12.5201
12.5342
12.5534
12.5765
12.5978
12.617
12.6301
12.6402
12.6506
12.6654
12.6801
12.6898
12.695
12.6946
12.6968
12.7085
12.7265
12.7433
12.7572
12.7664
12.7773
12.7976
12.8244
12.8527
12.8775
12.8901
12.8958
12.9063
12.9162
12.9257
12.9309
12.9314
12.9355
12.9395
12.941
12.9392
12.93
12.9252
12.913
12.9051
12.8847
12.8656
12.8364
12.8169
12.7964
12.7613
1
1
1
1
1
1
1
1
1
1
1
1
1
1
1
1
1
1
1
1
1
1
1
1
1
1
1
1
1
1
1
1
1
1
1
1
1
1
1
1
1
1
0.99988
0.990969
0.952183
5.61795
10.4933
11.846
12.1105
12.1741
12.1967
12.208
12.2179
12.231
12.2458
12.2593
12.2718
12.2837
12.2939
12.3028
12.3159
12.3343
12.3512
12.3657
12.3785
12.3875
12.3961
12.4085
12.4257
12.4414
12.4554
12.4675
12.4747
12.4842
12.4985
12.5198
12.541
12.562
12.5802
12.5928
12.6079
12.6263
12.647
12.6627
12.6732
12.6767
12.6789
12.6867
12.7006
12.7129
12.7211
12.7256
12.7309
12.7463
12.7714
12.799
12.8246
12.842
12.8501
12.865
12.8803
12.8947
12.9048
12.9065
12.9075
12.9122
12.9172
12.9147
12.911
12.9015
12.897
12.8817
12.8725
12.851
12.8298
12.7996
12.7789
12.757
12.719
1
1
1
1
1
1
1
1
1
1
1
1
1
1
1
1
1
1
1
1
1
1
1
1
1
1
1
1
1
1
1
1
1
1
1
1
1
1
1
1
1
1.00007
1.00189
0.984848
0.726908
2.90121
9.76436
11.692
12.0566
12.1326
12.1525
12.1635
12.1743
12.1871
12.2015
12.2155
12.229
12.2416
12.2528
12.2647
12.2804
12.2978
12.3128
12.3268
12.3399
12.3501
12.3623
12.3789
12.3965
12.4122
12.4266
12.4375
12.4466
12.4576
12.4735
12.4917
12.5095
12.5266
12.5396
12.5548
12.5731
12.5966
12.619
12.6368
12.6483
12.6546
12.6626
12.6757
12.6879
12.6952
12.6978
12.698
12.7064
12.7259
12.7488
12.7709
12.7866
12.7955
12.8118
12.8329
12.8538
12.8724
12.8779
12.8776
12.8828
12.8888
12.8927
12.8865
12.8813
12.8715
12.8677
12.8497
12.8382
12.8156
12.7926
12.7611
12.7391
12.7163
12.6758
1
1
1
1
1
1
1
1
1
1
1
1
1
1
1
1
1
1
1
1
1
1
1
1
1
1
1
1
1
1
1
1
1
1
1
1
1
1
1
1
0.999999
0.99999
0.999775
0.993567
0.882655
0.411906
8.83601
11.3796
11.9468
12.0623
12.0927
12.1104
12.1272
12.1433
12.1589
12.1739
12.1877
12.2008
12.2149
12.2293
12.2428
12.2554
12.2678
12.2796
12.291
12.3044
12.32
12.3364
12.352
12.3675
12.3805
12.393
12.4065
12.4226
12.4407
12.4581
12.4754
12.4897
12.5034
12.5199
12.5406
12.5646
12.5871
12.6062
12.6172
12.6296
12.6447
12.6606
12.6712
12.6764
12.6751
12.6777
12.6902
12.7082
12.7244
12.7362
12.7425
12.7566
12.7785
12.8041
12.8284
12.841
12.8425
12.8486
12.8569
12.8647
12.8652
12.8556
12.8509
12.8405
12.8364
12.8164
12.8029
12.7783
12.7538
12.7209
12.6977
12.674
12.6307
1
1
1
1
1
1
1
1
1
1
1
1
1
1
1
1
1
1
1
1
1
1
1
1
1
1
1
1
1
1
1
1
1
1
1
1
1
1
1
1
1
1
0.999993
1.00008
1.00134
1.16687
7.59174
10.9775
11.8409
12.0223
12.0761
12.1015
12.1194
12.133
12.1446
12.1552
12.1654
12.1758
12.1865
12.1972
12.2077
12.2179
12.2277
12.237
12.2472
12.26
12.2742
12.2883
12.3029
12.3175
12.3305
12.3448
12.3626
12.3823
12.4003
12.4177
12.4337
12.447
12.4633
12.4824
12.5046
12.5273
12.5501
12.5676
12.5834
12.6009
12.6213
12.6381
12.6493
12.6532
12.6544
12.6618
12.6751
12.6865
12.6939
12.6971
12.7064
12.726
12.7515
12.7763
12.7935
12.7984
12.8065
12.8193
12.832
12.8377
12.834
12.8237
12.8201
12.8074
12.8022
12.7819
12.7667
12.7397
12.7133
12.6791
12.6548
12.6304
12.5845
1
1
1
1
1
1
1
1
1
1
1
1
1
1
1
1
1
1
1
1
1
1
1
1
1
1
1
1
1
1
1
1
1
1
1
1
1
1
1
1
1
0.999998
0.999975
0.99966
0.989903
0.911661
5.22193
10.3429
11.7369
12.0097
12.0732
12.0966
12.1112
12.1227
12.1325
12.1423
12.1528
12.1635
12.1741
12.1843
12.1944
12.2039
12.2133
12.2235
12.2339
12.2438
12.2536
12.2633
12.2732
12.2837
12.2955
12.3103
12.3284
12.3459
12.3626
12.3785
12.3907
12.4057
12.4232
12.4438
12.4651
12.4867
12.5064
12.5234
12.5444
12.5673
12.591
12.6098
12.6226
12.6288
12.6358
12.647
12.657
12.6621
12.663
12.6653
12.6788
12.701
12.7236
12.7403
12.7474
12.7567
12.7726
12.7903
12.8061
12.8046
12.7993
12.7912
12.7891
12.7729
12.765
12.7456
12.7293
12.6993
12.6709
12.6359
12.6108
12.5851
12.5352
1
1
1
1
1
1
1
1
1
1
1
1
1
1
1
1
1
1
1
1
1
1
1
1
1
1
1
1
1
1
1
1
1
1
1
1
1
1
1
1
1
0.999995
0.99989
0.99855
0.98547
0.766642
1.65595
9.28902
11.5361
11.9501
12.027
12.0479
12.0595
12.0707
12.0816
12.0935
12.1075
12.1219
12.1353
12.1479
12.1601
12.1719
12.1846
12.1982
12.2109
12.2224
12.2327
12.2416
12.2497
12.2586
12.2698
12.2825
12.2956
12.3093
12.3236
12.3372
12.3515
12.368
12.3871
12.4068
12.4264
12.4448
12.4599
12.4797
12.5019
12.5278
12.5535
12.5752
12.5883
12.6012
12.6146
12.6272
12.6345
12.6365
12.6347
12.6402
12.6561
12.6747
12.6886
12.6955
12.704
12.7207
12.7417
12.7622
12.7704
12.7643
12.7649
12.7582
12.7572
12.7374
12.7255
12.7071
12.6905
12.6573
12.6269
12.5913
12.5652
12.5381
12.4852
1
1
1
1
1
1
1
1
1
1
1
1
1
1
1
1
1
1
1
1
1
1
1
1
1
1
1
1
1
1
1
1
1
1
1
1
1
1
1
1
1
1
0.999996
0.999984
1.00017
0.993823
1.06735
7.84456
10.9835
11.7424
11.9118
11.9649
11.9923
12.0121
12.0305
12.0486
12.066
12.0818
12.0967
12.1105
12.1232
12.1364
12.1519
12.1674
12.1813
12.1942
12.2059
12.2157
12.2254
12.2356
12.2456
12.2556
12.2654
12.2757
12.2862
12.2993
12.3155
12.3335
12.3513
12.369
12.3863
12.4017
12.4189
12.4384
12.4614
12.4872
12.5135
12.5351
12.5521
12.5707
12.5893
12.603
12.6104
12.6101
12.6107
12.6188
12.6318
12.6417
12.648
12.6539
12.6682
12.6901
12.7124
12.7246
12.7253
12.7243
12.7305
12.7251
12.723
12.6992
12.6861
12.6663
12.6494
12.6141
12.5815
12.5454
12.5182
12.4894
12.4317
1
1
1
1
1
1
1
1
1
1
1
1
1
1
1
1
1
1
1
1
1
1
1
1
1
1
1
1
1
1
1
1
1
1
1
1
1
1
1
1
1
1
0.999998
0.999975
0.999674
0.990367
0.889877
5.03812
10.2282
11.5676
11.8408
11.9067
11.9321
11.9496
11.9671
11.9853
12.0041
12.022
12.0389
12.0548
12.0699
12.0859
12.1036
12.1207
12.1372
12.1527
12.1658
12.1792
12.1926
12.2061
12.2176
12.2286
12.2379
12.2464
12.2549
12.266
12.2814
12.2972
12.3126
12.3282
12.3425
12.3594
12.3781
12.399
12.4213
12.4452
12.4685
12.4884
12.5112
12.5343
12.5567
12.5733
12.582
12.5848
12.5891
12.5971
12.6033
12.6064
12.6089
12.619
12.6379
12.66
12.6744
12.6779
12.6822
12.6854
12.6972
12.6903
12.6818
12.6592
12.6479
12.6237
12.6053
12.5696
12.5349
12.4979
12.4693
12.4393
12.379
1
1
1
1
1
1
1
1
1
1
1
1
1
1
1
1
1
1
1
1
1
1
1
1
1
1
1
1
1
1
1
1
1
1
1
1
1
1
1
1
1
1
0.999995
0.999892
0.998593
0.986652
0.809043
1.03343
8.98147
11.3779
11.802
11.8849
11.9046
11.9139
11.9245
11.9383
11.9535
11.9692
11.9848
11.9998
12.0158
12.0321
12.0484
12.0644
12.08
12.0944
12.1103
12.1268
12.1433
12.1599
12.1759
12.1899
12.2033
12.2158
12.227
12.2389
12.2517
12.2648
12.2779
12.2909
12.3053
12.3218
12.3413
12.3616
12.3822
12.4021
12.4197
12.4412
12.4662
12.4929
12.5188
12.5387
12.5496
12.5585
12.5666
12.5721
12.5733
12.572
12.5754
12.5893
12.6073
12.6219
12.6282
12.6313
12.6432
12.65
12.6624
12.6494
12.636
12.6183
12.6094
12.5808
12.5593
12.523
12.4866
12.4488
12.4186
12.3871
12.3221
1
1
1
1
1
1
1
1
1
1
1
1
1
1
1
1
1
1
1
1
1
1
1
1
1
1
1
1
1
1
1
1
1
1
1
1
1
1
1
1
1
1
1
1.00003
0.999962
0.99967
0.992509
1.01242
7.24248
10.8014
11.6364
11.8034
11.8514
11.8736
11.8877
11.8993
11.9095
11.9192
11.9293
11.9404
11.9527
11.966
11.98
11.9947
12.0101
12.0259
12.0435
12.0623
12.082
12.1022
12.122
12.1389
12.1567
12.1736
12.1896
12.2045
12.218
12.2301
12.2419
12.2547
12.2686
12.2851
12.3033
12.3217
12.3396
12.3557
12.3748
12.3967
12.4218
12.4497
12.4771
12.4971
12.5139
12.5288
12.5401
12.5448
12.5437
12.5404
12.5462
12.5598
12.5707
12.5772
12.5823
12.5912
12.6075
12.6133
12.6188
12.6021
12.5932
12.5772
12.5687
12.5368
12.5117
12.4742
12.4366
12.3974
12.3659
12.3342
12.2675
1
1
1
1
1
1
1
1
1
1
1
1
1
1
1
1
1
1
1
1
1
1
1
1
1
1
1
1
1
1
1
1
1
1
1
1
1
1
1
1
1
1
1
1.00004
1.00019
0.999373
0.988288
0.837107
3.72806
9.77648
11.3928
11.7148
11.7944
11.8248
11.8433
11.8582
11.8701
11.8812
11.8919
11.9028
11.9146
11.9267
11.9391
11.952
11.9657
11.9809
11.9975
12.0153
12.0336
12.0523
12.0707
12.0888
12.1079
12.1273
12.1465
12.1646
12.1807
12.1942
12.2079
12.2202
12.2343
12.25
12.2662
12.282
12.2967
12.3136
12.3322
12.3541
12.379
12.4059
12.431
12.4505
12.4734
12.4935
12.5083
12.5154
12.5141
12.5123
12.5176
12.5258
12.5296
12.5335
12.5415
12.5532
12.5713
12.5698
12.5674
12.5563
12.5533
12.5351
12.5238
12.4908
12.4634
12.4238
12.3844
12.3434
12.311
12.2789
12.2075
1
1
1
1
1
1
1
1
1
1
1
1
1
1
1
1
1
1
1
1
1
1
1
1
1
1
1
1
1
1
1
1
1
1
1
1
1
1
1
1
1
1
0.999999
1
1
0.999917
0.99874
0.959315
0.755693
8.06057
10.9204
11.5687
11.712
11.7528
11.7737
11.7924
11.807
11.8216
11.836
11.8498
11.8637
11.8763
11.889
11.9019
11.9158
11.9306
11.9462
11.9629
11.9804
11.998
12.0159
12.035
12.0548
12.0749
12.0951
12.1149
12.1331
12.1512
12.168
12.1836
12.1986
12.2135
12.2276
12.2417
12.2574
12.2739
12.2923
12.3134
12.3366
12.3594
12.3798
12.4034
12.4292
12.4527
12.4716
12.4813
12.4843
12.4844
12.4875
12.4887
12.4888
12.4941
12.5037
12.5142
12.5272
12.5198
12.5186
12.5122
12.5139
12.4904
12.4733
12.4436
12.4146
12.3712
12.3302
12.2887
12.256
12.2232
12.1486
1
1
1
1
1
1
1
1
1
1
1
1
1
1
1
1
1
1
1
1
1
1
1
1
1
1
1
1
1
1
1
1
1
1
1
1
1
1
1
1
1
1
1
1
0.999995
1.00003
0.999882
0.991678
0.880481
5.06461
10.1649
11.3995
11.6396
11.6944
11.7168
11.7347
11.7519
11.768
11.7838
11.7997
11.8148
11.8297
11.8439
11.8576
11.8714
11.8854
11.8997
11.9147
11.9306
11.9469
11.9645
11.9833
12.003
12.0232
12.044
12.0647
12.0846
12.105
12.1245
12.1435
12.161
12.176
12.1895
12.2036
12.2186
12.2352
12.2532
12.2726
12.2916
12.3099
12.3317
12.3565
12.3828
12.4091
12.4306
12.4424
12.452
12.4552
12.4552
12.4532
12.4496
12.4566
12.4667
12.4688
12.4757
12.4706
12.4758
12.4692
12.4706
12.4413
12.4216
12.3947
12.3651
12.3169
12.2739
12.2326
12.1987
12.1651
12.0857
1
1
1
1
1
1
1
1
1
1
1
1
1
1
1
1
1
1
1
1
1
1
1
1
1
1
1
1
1
1
1
1
1
1
1
1
1
1
1
1
1
1
1
1
1.00007
1.00105
1.00511
0.988917
0.849715
0.812874
8.41495
11.0327
11.5361
11.6397
11.6646
11.6783
11.6948
11.7106
11.7252
11.7398
11.7546
11.7705
11.7862
11.8024
11.8185
11.8337
11.8482
11.863
11.8784
11.8947
11.9123
11.9308
11.9502
11.9702
11.9908
12.0114
12.033
12.0544
12.076
12.0969
12.1164
12.134
12.1507
12.1658
12.1808
12.197
12.2138
12.2297
12.2454
12.2643
12.2861
12.3107
12.3374
12.3638
12.3839
12.3999
12.4149
12.422
12.4222
12.4183
12.4131
12.4193
12.4251
12.4213
12.4255
12.424
12.4341
12.424
12.4184
12.3904
12.3726
12.3437
12.3126
12.2619
12.2177
12.176
12.1415
12.1076
12.0249
1
1
1
1
1
1
1
1
1
1
1
1
1
1
1
1
1
1
1
1
1
1
1
1
1
1
1
1
1
1
1
1
1
1
1
1
1
1
1
1
1
1
1
1
0.999987
1.00004
1.00014
0.999531
0.987368
0.833367
5.58759
10.2548
11.3419
11.5631
11.6149
11.6334
11.6472
11.663
11.677
11.6901
11.7036
11.7181
11.7339
11.7503
11.7669
11.7827
11.7982
11.8141
11.8299
11.8465
11.8635
11.8813
11.8996
11.9183
11.9379
11.9589
11.9807
12.003
12.0257
12.048
12.0685
12.089
12.1084
12.1263
12.1428
12.1583
12.1725
12.1868
12.2028
12.2209
12.2419
12.266
12.2917
12.3143
12.334
12.3549
12.3731
12.384
12.3866
12.3837
12.3773
12.3798
12.3807
12.3752
12.38
12.3774
12.3884
12.3735
12.3634
12.3396
12.3235
12.2905
12.2575
12.2059
12.1604
12.1166
12.08
12.0468
11.9587
1
1
1
1
1
1
1
1
1
1
1
1
1
1
1
1
1
1
1
1
1
1
1
1
1
1
1
1
1
1
1
1
1
1
1
1
1
1
1
1
1
1
1
1
1
1
1.00007
1.00119
0.998203
0.84769
1.16161
8.5119
10.9796
11.4474
11.5537
11.5811
11.595
11.611
11.6255
11.6389
11.652
11.6654
11.6795
11.6949
11.7108
11.7262
11.7422
11.7595
11.7768
11.7944
11.8121
11.8297
11.8473
11.8661
11.8859
11.9069
11.9287
11.9511
11.9739
11.9963
12.0186
12.0409
12.0624
12.0828
12.1016
12.1176
12.1321
12.1461
12.1613
12.1787
12.1988
12.2209
12.2424
12.2619
12.2852
12.308
12.3283
12.3424
12.3462
12.3475
12.3415
12.3384
12.336
12.3304
12.3361
12.3293
12.3358
12.3201
12.3121
12.2889
12.2723
12.2352
12.2006
12.1483
12.1027
12.0583
12.0205
11.9872
11.8956
1
1
1
1
1
1
1
1
1
1
1
1
1
1
1
1
1
1
1
1
1
1
1
1
1
1
1
1
1
1
1
1
1
1
1
1
1
1
1
1
1
1
1
1
1
1
1
1.00001
0.999513
0.985338
0.788806
5.59132
10.1847
11.2409
11.4572
11.5126
11.5372
11.5556
11.5743
11.5904
11.6043
11.6177
11.6308
11.6444
11.6586
11.6736
11.6897
11.7068
11.7248