/*--------------------------------*- C++ -*----------------------------------*\
| =========                 |                                                 |
| \\      /  F ield         | OpenFOAM: The Open Source CFD Toolbox           |
|  \\    /   O peration     | Version:  2.2.x                                 |
|   \\  /    A nd           | Web:      www.OpenFOAM.org                      |
|    \\/     M anipulation  |                                                 |
\*---------------------------------------------------------------------------*/
FoamFile
{
    version     2.0;
    format      ascii;
    class       volScalarField;
    location    "2.85";
    object      Bz;
}
// * * * * * * * * * * * * * * * * * * * * * * * * * * * * * * * * * * * * * //

dimensions      [1 0 -2 0 0 -1 0];

internalField   nonuniform List<scalar> 
14161
(
-3.25226e-10
-4.28778e-10
-1.41715e-10
-1.22463e-10
3.09135e-10
-4.15391e-10
4.57975e-10
-1.53915e-09
2.08595e-09
-2.84024e-09
3.20376e-09
-3.65149e-09
3.67768e-09
-6.15752e-09
6.96557e-09
-6.63449e-09
8.04324e-09
-5.62923e-09
1.14934e-09
6.43419e-10
-6.00135e-09
1.01244e-08
-1.87317e-08
2.81471e-08
-3.69173e-08
5.00983e-08
-6.07607e-08
7.03287e-08
-8.19127e-08
1.01012e-07
-1.03006e-07
2.29367e-07
1.69109e-07
1.25215e-06
1.70834e-06
3.05658e-06
3.02079e-06
-8.27237e-07
-1.67006e-06
-2.9315e-06
-9.81306e-06
-8.1847e-05
-9.63464e-05
0.000118739
-7.65574e-05
-0.000791874
-0.000745486
0.000386105
0.000813053
-0.000467593
-0.00188335
-0.00145548
0.000656601
0.00178037
0.00054004
-0.00165955
-0.00243497
-0.000837582
0.00185173
0.00255197
0.000936555
-0.00159618
-0.00265715
-0.00111292
0.00176216
0.00288122
0.00182929
-0.000738632
-0.0028082
-0.00214953
0.000582547
0.00257908
0.00268434
0.000872166
-0.00201565
-0.00310206
-0.00140077
0.00152757
0.0030794
0.00225669
-0.000584876
-0.00308142
-0.00267914
-7.81669e-05
0.00241254
0.00270505
0.000885381
-0.00230654
-0.00373889
-0.00218453
0.000621002
0.00230669
0.00216505
0.00029691
-0.00240143
-0.00327912
-0.0016516
0.000949389
0.0024279
0.00236499
0.000468894
-0.00198052
-0.00225537
-0.000383747
0.00103706
0.00134688
0.000753551
-0.000160332
-0.000553597
-0.000113602
0.000234651
0.000279082
-6.2518e-05
0.000259221
-7.08936e-05
0.000604134
0.000396399
0.00264545
0.00322255
-3.14514e-10
-3.97356e-10
-1.43159e-10
-1.58254e-10
2.37659e-10
-4.35702e-10
6.13886e-10
-1.48213e-09
1.99566e-09
-2.78284e-09
3.11908e-09
-3.59239e-09
3.66783e-09
-6.07055e-09
6.82716e-09
-6.59559e-09
7.99583e-09
-5.49521e-09
1.16586e-09
6.0528e-10
-5.91355e-09
9.78058e-09
-1.75654e-08
2.61829e-08
-3.43858e-08
4.60712e-08
-5.53554e-08
6.33285e-08
-6.86993e-08
7.90201e-08
-9.25685e-08
2.45725e-07
1.76365e-07
1.20692e-06
1.88724e-06
3.29989e-06
3.62268e-06
1.35155e-06
9.09826e-07
-3.12008e-06
-2.26566e-06
-3.21036e-05
-0.000111943
-0.000102279
1.21221e-05
-0.000195684
-0.000629075
-0.000462862
0.00029385
0.000484023
-0.000388636
-0.00122362
-0.000612219
0.00086834
0.00129943
0.000190864
-0.00130538
-0.00136224
0.000486741
0.00195515
0.00161959
-0.000209206
-0.00182718
-0.00133332
0.000902981
0.00227849
0.00188074
-8.55856e-05
-0.0020371
-0.00182021
0.000280531
0.00206507
0.00231275
0.000711694
-0.00184252
-0.00268679
-0.000919408
0.00156543
0.00267808
0.00163989
-0.000993758
-0.00282722
-0.00197787
0.00031445
0.00199478
0.00201065
0.000619518
-0.00147709
-0.0025173
-0.00151091
0.000469396
0.00177389
0.00191225
0.00077218
-0.00122677
-0.0024149
-0.00153577
0.000680047
0.00217357
0.00204233
0.000415187
-0.00169358
-0.00179402
-0.000396936
0.000833523
0.00111633
0.000571334
-0.000233141
-0.000450459
6.65759e-05
0.000190538
0.000188967
-3.09103e-05
0.00021221
-6.36283e-05
0.000468683
0.000359355
0.00154883
0.00175048
-2.70439e-10
-3.43125e-10
-1.47318e-10
-1.87155e-10
1.77861e-10
-4.32633e-10
6.80236e-10
-1.33933e-09
1.79318e-09
-2.58659e-09
2.95208e-09
-3.45766e-09
3.54424e-09
-5.73668e-09
6.37546e-09
-6.43095e-09
7.73074e-09
-5.02019e-09
1.2317e-09
4.90505e-10
-5.64156e-09
9.14841e-09
-1.58269e-08
2.32131e-08
-2.88589e-08
3.67857e-08
-4.23179e-08
4.25108e-08
-3.68765e-08
3.47436e-08
-9.41831e-09
1.14234e-07
2.71903e-07
1.29687e-06
1.71349e-06
3.65769e-06
4.24395e-06
2.41863e-06
2.31996e-06
-1.70516e-06
-3.51126e-07
-2.71008e-05
-9.1673e-05
-9.73094e-05
-4.0649e-05
-0.000108705
-0.000403182
-0.000481372
3.79412e-05
0.000439025
-4.87595e-05
-0.000887317
-0.000687346
0.000538439
0.00119419
0.00037385
-0.00100416
-0.00123315
0.000205638
0.00161877
0.0015202
-6.93602e-05
-0.00156778
-0.00120118
0.000613669
0.00197266
0.00170233
-4.98044e-05
-0.0017885
-0.00160416
0.000189817
0.00190508
0.00212677
0.000591254
-0.00183776
-0.00242594
-0.000698611
0.00163362
0.00238661
0.00118689
-0.00119177
-0.0025191
-0.00149875
0.000501496
0.00185044
0.00164697
0.000285115
-0.00140882
-0.00199439
-0.00106667
0.000441805
0.00151875
0.00158956
0.000599557
-0.0009328
-0.00191268
-0.0013159
0.000504985
0.00175465
0.00156945
0.000330484
-0.0011232
-0.00126397
-0.000318438
0.000583851
0.00080229
0.00025935
-0.000337295
-0.000267479
0.000224207
6.00948e-05
0.000114331
-2.77137e-06
0.000172843
-6.47258e-05
0.000385673
0.000305879
0.00113301
0.00124915
-2.18733e-10
-2.55984e-10
-1.50981e-10
-2.15604e-10
6.76743e-11
-3.10427e-10
5.89829e-10
-1.07004e-09
1.32341e-09
-1.96368e-09
2.20248e-09
-2.69095e-09
2.9113e-09
-4.25892e-09
4.59746e-09
-5.39665e-09
6.39557e-09
-3.73936e-09
1.77786e-09
-1.05755e-10
-3.94198e-09
7.05729e-09
-1.18437e-08
1.64963e-08
-1.89702e-08
1.90934e-08
-1.4992e-08
9.4405e-09
2.70507e-09
-1.0463e-08
3.54385e-08
1.15042e-07
3.17333e-07
1.70021e-06
1.60197e-06
4.85807e-06
6.17313e-06
5.31638e-06
5.2228e-06
2.53281e-06
3.77374e-07
-1.60558e-05
-2.81246e-05
-3.5393e-05
-5.83231e-05
-8.52545e-05
-0.000153561
-0.000184723
-3.47413e-05
0.000165436
2.89519e-05
-0.000401113
-0.000404728
0.000198042
0.000637561
0.000241277
-0.000538257
-0.000662391
7.62046e-05
0.000873968
0.00086347
-4.97318e-05
-0.000853128
-0.000584817
0.000295051
0.000981158
0.000881741
4.09842e-05
-0.00086639
-0.000910184
-0.000123873
0.00100183
0.00130912
0.000163517
-0.00143121
-0.00150402
-0.000124709
0.00144886
0.00158817
0.000199681
-0.00154053
-0.00182282
-0.000541703
0.000918982
0.00154164
0.000888378
-0.000453569
-0.00147845
-0.00137782
-0.000453098
0.00075702
0.00132007
0.000772849
-7.12812e-05
-0.000688286
-0.00116841
-0.000709132
0.000350466
0.00106131
0.00107646
0.000234029
-0.0006996
-0.000786124
-0.00015902
0.000443008
0.000421352
-9.66996e-05
-0.000253441
1.54086e-05
0.000128799
-5.2402e-05
9.824e-05
4.09089e-06
0.000133723
-6.77976e-05
0.000310501
0.000201684
0.000717282
0.000775519
-1.24404e-10
-1.33503e-10
-1.15466e-10
-1.87586e-10
-3.59634e-12
-2.4369e-10
4.44238e-10
-7.87055e-10
9.26777e-10
-1.36899e-09
1.60499e-09
-2.08898e-09
2.38006e-09
-3.05225e-09
3.09113e-09
-4.44431e-09
5.27057e-09
-3.39817e-09
2.7914e-09
-1.79927e-09
-2.82105e-10
2.04625e-09
-5.05803e-09
9.11873e-09
-1.12947e-08
1.08962e-08
-6.47184e-09
-2.45241e-09
2.26932e-08
-4.97386e-08
7.39108e-08
5.34295e-08
4.93655e-07
1.59423e-06
2.25115e-06
5.57955e-06
7.27045e-06
6.5926e-06
7.12639e-06
6.85115e-08
7.7225e-06
9.1208e-06
-3.98573e-05
-8.49978e-05
2.03065e-05
0.000122248
-9.64343e-05
-0.000287795
-2.88656e-05
0.000261906
0.000138547
-0.000178493
-0.000260621
-0.000104822
0.000102877
0.000250386
0.000199941
-9.18094e-05
-0.000343141
-0.000248232
0.00022466
0.000571892
0.000368013
-0.00016003
-0.000553398
-0.000367442
0.000460699
0.00102949
0.000474573
-0.00060426
-0.00104261
-0.000251768
0.000988656
0.00111155
-0.000117173
-0.00108263
-0.000915134
0.000238892
0.00118414
0.000708973
-0.00063474
-0.00121278
-0.000306536
0.000943937
0.00139446
0.000428971
-0.00101224
-0.00146521
-0.000639419
0.000732786
0.00171181
0.000960116
-0.000731148
-0.00113226
-0.0007754
-0.000239644
6.7739e-05
0.000404263
0.000646135
0.000512124
-3.38278e-05
-0.000487643
-0.000415047
6.17217e-05
0.000322522
7.13155e-05
-0.000210987
-2.44508e-05
2.15904e-05
3.62717e-05
-6.84651e-05
8.43963e-05
-9.67789e-06
9.15487e-05
-4.90628e-05
0.000224389
0.000132459
0.000398826
0.000440209
-8.25534e-11
-8.26324e-11
-6.71367e-11
-1.25138e-10
-2.20102e-11
-1.74793e-10
2.40423e-10
-4.31491e-10
4.28128e-10
-6.24762e-10
6.69977e-10
-9.47702e-10
1.12715e-09
-1.34356e-09
1.51186e-09
-2.74192e-09
3.35983e-09
-3.21134e-09
3.93799e-09
-4.45693e-09
4.80852e-09
-5.02269e-09
4.00903e-09
-2.97387e-09
3.35247e-09
-5.95252e-09
1.14052e-08
-2.50305e-08
4.56426e-08
-6.60567e-08
1.06119e-07
-1.69256e-08
6.84907e-07
8.38851e-07
3.72518e-06
6.33252e-06
7.84567e-06
8.51675e-06
1.10979e-05
5.8147e-06
-3.55348e-05
2.39381e-05
0.000172231
-3.83135e-05
-0.000488658
-0.000106225
0.000672105
0.000334033
-0.000696486
-0.000727382
0.000286055
0.000878144
0.000277116
-0.000687755
-0.000863649
-2.96343e-05
0.000792335
0.00059581
-0.000260837
-0.000874757
-0.000593696
0.000382952
0.00100846
0.000438459
-0.000699889
-0.0011531
-0.000207383
0.00115034
0.00121987
-7.7876e-05
-0.00127832
-0.00107987
0.000379547
0.0015375
0.00103511
-0.000539449
-0.00147343
-0.000947816
0.000622726
0.00130042
0.00050816
-0.000637882
-0.000723837
6.18818e-05
0.000848219
0.000672213
-0.000555813
-0.00119748
-0.000542728
0.000809454
0.00169988
0.000747931
-0.00120969
-0.00138957
-0.000664691
0.000104641
0.000430741
0.00043552
0.000288635
5.36525e-05
-0.000222629
-0.000324038
-9.19688e-05
0.000189086
8.01827e-05
-0.000110921
-6.9586e-05
2.62392e-05
-3.07308e-05
2.6802e-05
-6.03243e-05
4.65347e-05
-2.60714e-05
5.7305e-05
-2.8166e-05
0.000139733
6.99888e-05
0.000213286
0.000242024
-4.61602e-11
-4.5559e-11
-3.06643e-11
-5.40571e-11
-3.01481e-11
-8.84113e-11
9.07626e-11
-1.60427e-10
7.7946e-11
-1.64748e-10
1.58288e-10
-3.78019e-10
3.55296e-10
-4.17674e-10
7.98344e-10
-1.60602e-09
1.92381e-09
-2.61554e-09
3.68304e-09
-4.96936e-09
6.5841e-09
-7.74561e-09
9.00944e-09
-1.05237e-08
1.43326e-08
-2.0978e-08
2.96765e-08
-4.07283e-08
5.50556e-08
-7.20323e-08
1.10549e-07
-5.62713e-08
8.15093e-07
1.48762e-08
5.37504e-06
6.89126e-06
8.31485e-06
1.08552e-05
1.29014e-05
-2.74236e-07
-2.60645e-05
4.03505e-05
0.000142112
-5.9726e-05
-0.000376694
-6.3641e-05
0.000409048
0.000205384
-0.000327517
-0.000361063
3.27797e-05
0.000255739
0.00011613
-0.000155484
-0.000268824
-8.48886e-05
0.000152716
0.000107584
-0.000118846
-0.000223786
-0.000142251
4.43151e-05
0.000243238
0.000180954
-0.000216924
-0.0005344
-0.000169166
0.000564563
0.000712562
-3.71439e-05
-0.000872124
-0.000792727
0.00017348
0.00105844
0.000958737
-0.000299922
-0.00129162
-0.000978164
0.000370167
0.00118209
0.000992647
-2.56907e-05
-0.000840418
-0.000814707
0.000133855
0.000867103
0.00043756
-0.000429802
-0.000527869
0.000249146
0.000911833
0.000247632
-0.000761966
-0.00100095
-0.000376041
0.0003342
0.000504632
0.000254093
-3.50964e-05
-0.000197325
-0.000226136
-9.14957e-05
9.70038e-05
5.66238e-05
-7.63682e-05
-4.75405e-05
-1.24131e-05
1.5164e-06
-3.78545e-05
3.45745e-05
-5.86019e-05
1.76566e-05
-4.3478e-05
3.95177e-05
-2.28798e-05
6.90377e-05
2.55892e-05
0.000113706
0.000132332
-2.91738e-11
-2.7992e-11
-1.71303e-11
-1.7675e-11
-1.37595e-11
-4.11125e-11
2.33777e-11
-5.02755e-11
-1.42106e-11
-1.61753e-11
-2.06268e-11
-1.21679e-10
1.40681e-10
-1.58907e-10
3.07449e-10
-7.60123e-10
9.82394e-10
-1.70294e-09
2.58727e-09
-3.5411e-09
4.94774e-09
-6.40614e-09
7.89305e-09
-1.00922e-08
1.39462e-08
-1.90161e-08
2.61874e-08
-3.42726e-08
4.22795e-08
-5.19091e-08
7.57427e-08
-1.14029e-08
5.65858e-07
1.16412e-06
5.25635e-06
6.96264e-06
9.20036e-06
1.26017e-05
1.47323e-05
-6.83442e-06
-1.98035e-05
6.7756e-05
0.000134785
-0.00016282
-0.000444377
0.000147081
0.000664943
-5.35844e-05
-0.000863134
-0.000302091
0.000765892
0.000618749
-0.000444885
-0.000935305
-0.000227207
0.000724837
0.000682161
-0.000209483
-0.000864036
-0.000475369
0.000447884
0.00080573
0.000157245
-0.000507703
-0.000614947
-0.000214605
0.000244952
0.000510442
0.000295398
-0.000211681
-0.00056161
-0.000429977
8.48447e-05
0.000605219
0.000715268
-0.000147441
-0.000802337
-0.000390091
0.00034335
0.000462729
0.000342643
0.000397866
-6.45725e-05
-0.000834127
-0.000422136
0.000523621
0.000775302
0.000214301
-0.000379279
-0.000101882
0.000255661
6.0778e-05
-0.000407758
-0.000453601
-8.82351e-07
0.000381162
0.000290534
-3.41165e-05
-0.000209505
-0.000175176
-4.25454e-05
5.37924e-05
1.22113e-05
-4.78646e-05
-4.70421e-05
-8.66571e-06
-1.56531e-05
-6.82683e-07
-3.03167e-05
2.70655e-05
-4.98253e-05
-2.12384e-06
-4.95842e-05
3.01684e-05
-3.27125e-05
2.02857e-05
1.80205e-06
6.54129e-05
7.73783e-05
-1.44673e-11
-1.45678e-11
-9.05689e-12
-3.92448e-12
-9.13236e-12
-8.65299e-12
-9.58206e-12
7.6826e-13
-2.38009e-11
1.94171e-11
-4.709e-11
-1.22713e-11
6.69262e-11
-7.10016e-11
1.09549e-10
-3.07855e-10
5.96761e-10
-1.02633e-09
1.60006e-09
-2.49761e-09
3.35385e-09
-4.25287e-09
5.33924e-09
-6.84985e-09
9.29151e-09
-1.28697e-08
1.68619e-08
-1.98142e-08
2.25594e-08
-2.62405e-08
4.35519e-08
3.47116e-08
4.37333e-07
1.58983e-06
4.9956e-06
7.70263e-06
1.00117e-05
1.29013e-05
1.72269e-05
-4.97989e-08
-2.50334e-05
3.5348e-05
0.000159637
-6.06694e-05
-0.000455759
-0.000119213
0.000679643
0.000301715
-0.000826101
-0.000738821
0.000589841
0.00106503
-7.59901e-05
-0.00118686
-0.00068092
0.000770838
0.00119885
-2.54917e-05
-0.00125457
-0.000898025
0.000495436
0.00141929
0.000565677
-0.000872232
-0.00135147
-0.000353241
0.000820389
0.00115813
0.000325604
-0.00063806
-0.000875181
-0.000632976
4.00347e-05
0.000954929
0.00114128
-0.000401827
-0.00166164
-0.000426549
0.0010027
0.00057027
-0.000166831
-8.35651e-07
0.000196389
-0.000243004
-0.000440362
0.000120248
0.000565394
0.000341077
-0.000166818
-0.000245105
-4.19828e-05
-3.12808e-07
-0.000117742
-6.55115e-05
0.000161328
0.000198738
-2.14791e-05
-0.000174018
-0.000111156
-4.4503e-06
2.17578e-05
-4.6176e-06
-3.6717e-05
-3.10572e-05
-1.97279e-05
-7.48458e-06
-1.2285e-05
1.11964e-05
-3.01194e-05
1.90531e-05
-4.08468e-05
-1.11106e-05
-4.44368e-05
1.67648e-05
-4.87427e-05
-7.87954e-06
-7.70225e-06
4.37468e-05
5.08238e-05
-4.79415e-12
-4.86308e-12
-3.86715e-12
4.50263e-13
-5.5751e-12
2.93766e-12
-1.24437e-11
1.84655e-11
-3.49315e-11
3.87366e-11
-5.79868e-11
6.28063e-11
-6.98434e-11
8.59111e-11
-7.2606e-11
5.59578e-11
8.07609e-11
-2.56505e-10
5.3807e-10
-9.40693e-10
1.42608e-09
-1.79805e-09
2.34256e-09
-3.09913e-09
4.51099e-09
-7.55607e-09
1.15002e-08
-1.37777e-08
1.46787e-08
-1.4831e-08
2.89307e-08
7.002e-08
5.21274e-07
1.74682e-06
4.59509e-06
8.68648e-06
1.01171e-05
1.31591e-05
1.39895e-05
1.38801e-05
-1.30271e-05
-6.32006e-06
8.91922e-05
6.76923e-05
-0.000187572
-0.000356547
0.000259404
0.000548889
-0.000238604
-0.000861732
-0.000152268
0.000890631
0.000658856
-0.000524436
-0.00101126
-0.000231168
0.00100766
0.000874599
-0.000398101
-0.00100892
-0.00022534
0.000903809
0.000903063
-0.00025861
-0.000988308
-0.000505027
0.000437212
0.000840149
0.000415491
-0.000211106
-0.000436844
-0.000729769
-0.000633766
0.000625044
0.00153785
0.000226862
-0.00165416
-0.0010263
0.000951002
0.000979489
7.22337e-05
-0.00027575
-0.000115001
-0.000159096
-0.000196428
6.68886e-05
0.00034857
0.000230289
-0.000132591
-0.00024412
-7.27599e-05
4.65119e-05
4.15108e-05
6.22812e-05
6.61274e-05
-4.13428e-05
-0.000102382
-4.17078e-05
4.44986e-06
2.99178e-06
-1.21282e-05
-1.97936e-05
-2.03365e-05
-1.34611e-05
-1.3862e-05
-3.63093e-06
-1.61348e-06
1.66968e-05
-2.41899e-05
1.57926e-05
-3.76774e-05
-1.47036e-05
-3.3456e-05
1.08341e-06
-6.39239e-05
-1.85617e-05
-5.78087e-06
3.79664e-05
4.26775e-05
2.13878e-13
2.20539e-13
-4.55776e-13
1.92995e-12
-2.98176e-12
8.7993e-12
-1.42272e-11
2.29327e-11
-3.87983e-11
6.38667e-11
-1.01481e-10
1.32555e-10
-1.74072e-10
2.60037e-10
-3.40008e-10
4.33589e-10
-5.21999e-10
6.18672e-10
-7.27511e-10
9.12275e-10
-1.16388e-09
1.50557e-09
-2.05796e-09
2.60669e-09
-2.31866e-09
1.09222e-09
1.71234e-09
-3.14455e-09
2.56358e-09
1.41119e-09
1.48314e-08
1.20155e-07
6.05267e-07
1.77163e-06
4.4935e-06
8.5114e-06
1.16065e-05
1.19869e-05
1.25459e-05
1.38977e-05
7.8514e-06
-1.73151e-05
1.03182e-05
0.000100865
2.18782e-05
-0.000319578
-0.000143752
0.00056178
0.000354757
-0.000696697
-0.000806202
0.00051839
0.00112419
3.77029e-05
-0.00103544
-0.000781889
0.000508043
0.00106245
0.000263875
-0.000688277
-0.000614148
0.000195096
0.00075983
0.000237606
-0.000444256
-0.000406251
5.91682e-05
0.000137928
-0.000244173
-0.000114742
0.000646015
0.000212449
-0.00109186
-0.000610557
0.000799197
0.000709838
-0.00070168
-0.000771852
0.000593073
0.000799688
0.000221001
-0.000286441
-0.00026934
-9.44308e-05
3.09281e-05
0.000173576
0.000252546
7.0574e-05
-0.000186217
-0.000170832
2.82265e-05
0.000104674
4.32013e-05
-2.86949e-05
-4.40851e-05
-2.56704e-05
-4.74993e-06
-2.33875e-06
-9.84283e-06
-9.40142e-06
-7.09581e-06
-4.22283e-06
-6.79452e-06
-7.17662e-06
-7.63719e-06
3.76681e-06
3.00887e-06
1.948e-05
-1.0979e-05
1.29044e-05
-3.48577e-05
-1.09417e-05
-2.66861e-05
-1.68835e-05
-7.18495e-05
-1.26465e-05
8.08226e-06
4.49557e-05
4.84617e-05
1.44463e-12
1.48221e-12
6.80271e-13
1.81589e-12
-1.33903e-12
7.08022e-12
-1.11773e-11
1.85418e-11
-3.50745e-11
6.52548e-11
-9.10043e-11
1.0407e-10
-1.83158e-10
3.05143e-10
-4.00197e-10
5.0842e-10
-6.64916e-10
8.91305e-10
-1.21591e-09
1.77857e-09
-2.57715e-09
3.59248e-09
-4.98316e-09
6.62298e-09
-7.94121e-09
8.65073e-09
-7.6361e-09
7.00356e-09
-7.84584e-09
1.29568e-08
9.1246e-09
1.75358e-07
6.53869e-07
1.79685e-06
4.42638e-06
8.68955e-06
1.18343e-05
1.24041e-05
1.26371e-05
1.63509e-05
5.70918e-07
-2.64162e-05
4.62592e-05
0.000131864
-3.7172e-05
-0.000319204
-0.000111782
0.000431742
0.000367738
-0.000409106
-0.000823612
8.80477e-05
0.00108608
0.000536696
-0.000777396
-0.00110925
-6.89135e-05
0.00113453
0.000896377
-0.000323608
-0.000932958
-0.000440615
0.000489142
0.000613159
-0.000198742
-0.000424191
4.31966e-05
0.000155795
-0.00053713
-0.000623686
0.000711626
0.0011007
-0.000508934
-0.00118614
4.54356e-05
0.00060522
-0.000111501
-0.000245863
0.000235655
0.000414234
0.000106442
-0.000242671
-0.000220407
6.4507e-06
0.000167236
0.000218865
0.000118192
-0.000104965
-0.000169316
9.25966e-06
0.000118761
1.36873e-05
-5.11939e-05
-1.71418e-05
9.5721e-06
1.66014e-06
-1.26559e-05
-1.37609e-05
-5.9358e-06
3.68288e-06
6.69431e-06
5.79606e-06
-1.27594e-07
-1.69288e-06
-1.5962e-06
8.83724e-06
5.55495e-06
2.88273e-05
-1.42909e-06
8.56434e-06
-2.6441e-05
-8.33071e-06
-3.22335e-05
-3.7977e-05
-7.30655e-05
-4.66441e-06
2.01063e-05
4.82559e-05
5.08311e-05
1.38443e-12
1.41105e-12
9.94768e-13
1.22225e-12
-4.82456e-15
3.67872e-12
-4.77066e-12
1.02887e-11
-2.19492e-11
4.09772e-11
-5.23565e-11
7.41006e-11
-1.28975e-10
1.94754e-10
-2.15896e-10
2.67667e-10
-3.38439e-10
3.79761e-10
-5.13985e-10
8.7447e-10
-1.46406e-09
2.44164e-09
-3.83253e-09
5.27532e-09
-6.77431e-09
7.59619e-09
-6.48425e-09
5.2626e-09
-4.59863e-09
9.00794e-09
1.5838e-08
2.01946e-07
6.75867e-07
1.90714e-06
4.34564e-06
8.79713e-06
1.20099e-05
1.25249e-05
1.23055e-05
1.80203e-05
7.91186e-06
-3.70586e-05
2.34381e-05
0.000161196
3.98909e-05
-0.000319607
-0.000257452
0.000341332
0.000469387
-0.000192556
-0.000741916
-0.000200545
0.000711248
0.00067714
-0.000205551
-0.000830485
-0.000625138
0.000327583
0.000991622
0.000484514
-0.000611633
-0.000858715
-5.00156e-05
0.000719552
7.09904e-05
-0.000501101
4.41407e-05
0.000394796
-0.000281406
-0.000734627
4.16367e-07
0.000859267
-1.05613e-05
-0.000747439
-0.000242577
0.000292464
0.000142999
-1.511e-05
7.63805e-05
0.000125786
-3.52767e-05
-0.000185002
-8.47952e-05
0.000120935
0.000207477
0.000111395
-9.26163e-05
-0.000136165
4.28857e-05
9.34647e-05
-3.74348e-06
-3.42654e-05
3.388e-06
1.59563e-05
-3.856e-06
-1.77544e-05
-1.42563e-05
-2.35639e-06
7.2596e-06
1.39859e-05
1.43791e-05
1.1269e-05
3.81442e-06
1.72433e-06
3.55863e-06
1.47292e-05
1.18481e-05
3.75074e-05
-7.37085e-07
9.16278e-06
-1.51841e-05
-1.08531e-05
-4.29952e-05
-5.25264e-05
-6.31669e-05
4.91091e-06
3.03047e-05
4.84103e-05
5.0055e-05
8.73712e-13
8.61016e-13
7.14438e-13
7.29245e-13
3.60722e-13
1.06614e-12
-2.62774e-13
2.14187e-12
-5.62669e-12
8.22009e-12
-3.51632e-12
1.49332e-11
-2.43838e-11
2.66445e-11
-1.98595e-11
-1.82079e-11
7.78915e-11
-1.63822e-10
2.37353e-10
-1.66767e-10
-1.35618e-10
7.11618e-10
-1.39577e-09
2.19246e-09
-2.85959e-09
2.55457e-09
-6.06073e-10
-1.03421e-09
2.84782e-09
2.47458e-09
2.9737e-08
2.15647e-07
7.11658e-07
2.0258e-06
4.39426e-06
9.07515e-06
1.22452e-05
1.30249e-05
1.17654e-05
1.69363e-05
1.86025e-05
-2.44544e-05
-1.76232e-05
9.7315e-05
0.000112086
-0.000116266
-0.000301552
1.2208e-05
0.000348732
0.000143317
-0.000367164
-0.000367959
0.000187215
0.000413276
8.52823e-05
-0.000198842
-0.000287883
-0.000326949
4.48814e-05
0.000657032
0.00037141
-0.000534489
-0.000607439
0.000287736
0.000413428
-0.000338033
-0.000133695
0.000469179
0.000172488
-0.000433214
-0.000248328
0.000329256
0.000156172
-0.000259474
-0.000148328
0.000111916
0.000135772
3.92509e-05
1.71359e-05
-3.8291e-06
-8.53023e-05
-8.74637e-05
5.38153e-05
0.000178939
6.70767e-05
-0.000118705
-7.20027e-05
5.84393e-05
5.5474e-05
-8.35697e-06
-1.35133e-05
1.5411e-05
1.43575e-05
-7.79012e-06
-1.83974e-05
-1.23924e-05
-2.57573e-06
6.47943e-06
1.45632e-05
2.00592e-05
1.84834e-05
1.21784e-05
3.67342e-06
5.87479e-06
9.69307e-06
2.05259e-05
1.55449e-05
3.69546e-05
-1.97642e-06
1.0712e-05
-1.10106e-05
-2.06637e-05
-5.23671e-05
-5.91135e-05
-4.9496e-05
1.65015e-05
4.01082e-05
4.88526e-05
4.96624e-05
4.2852e-13
4.21672e-13
4.12473e-13
2.64678e-13
5.86294e-13
-5.93844e-13
2.54852e-12
-3.56333e-12
6.96809e-12
-1.10399e-11
2.04194e-11
-2.57021e-11
3.75723e-11
-6.19367e-11
1.05566e-10
-1.65072e-10
2.62702e-10
-3.8918e-10
5.36e-10
-6.28894e-10
5.54681e-10
-3.53155e-10
4.17431e-11
4.16983e-10
-6.58778e-10
1.49709e-10
1.36087e-09
-2.81584e-09
6.7239e-09
2.82489e-10
3.76553e-08
2.20529e-07
7.21967e-07
2.07029e-06
4.48918e-06
9.36833e-06
1.24076e-05
1.37674e-05
1.1673e-05
1.32593e-05
2.47518e-05
2.54113e-06
-3.78606e-05
-1.60768e-05
9.65635e-05
0.000127352
-0.000139579
-0.000304637
-1.80565e-05
0.000318391
0.000205293
-0.00027627
-0.000325596
5.10443e-05
0.000164985
5.8181e-05
0.000191737
9.59538e-05
-0.000539514
-0.000485665
0.000505079
0.000639047
-7.30847e-05
-0.000421288
-0.000169557
-9.78973e-05
-2.23978e-05
0.000167811
0.000165448
-7.26863e-05
-0.000162008
5.06743e-05
5.47313e-05
-5.69331e-05
-3.93455e-05
5.84296e-05
6.98911e-05
1.5035e-05
-7.91302e-06
-3.05775e-05
-5.0899e-05
5.56948e-05
0.000119176
-4.63368e-06
-9.00214e-05
-1.83611e-05
4.89973e-05
2.3383e-05
-1.32773e-05
1.27268e-06
2.37067e-05
1.52206e-05
-6.37906e-06
-1.48847e-05
-1.09576e-05
-4.86011e-06
1.81493e-06
1.19746e-05
2.01026e-05
2.26015e-05
1.65558e-05
8.97644e-06
6.99646e-06
1.34004e-05
1.40257e-05
2.55554e-05
1.60522e-05
3.48414e-05
3.74532e-06
1.31736e-05
-1.2988e-05
-3.24275e-05
-5.85195e-05
-5.74202e-05
-3.15146e-05
3.06331e-05
5.20803e-05
5.48129e-05
5.51042e-05
2.47991e-13
2.42556e-13
2.56198e-13
1.22851e-13
5.50259e-13
-8.54543e-13
2.7616e-12
-5.23662e-12
9.53613e-12
-1.55621e-11
2.90856e-11
-4.27404e-11
6.40843e-11
-1.01184e-10
1.56238e-10
-2.27184e-10
3.36423e-10
-4.56791e-10
6.09433e-10
-7.73176e-10
8.85643e-10
-9.42476e-10
8.78157e-10
-7.354e-10
7.82784e-10
-1.21297e-09
2.07782e-09
-3.30863e-09
7.20507e-09
1.87828e-09
4.22293e-08
2.1029e-07
6.91281e-07
1.96495e-06
4.49491e-06
9.09582e-06
1.17526e-05
1.38492e-05
1.19363e-05
8.74657e-06
2.3525e-05
1.32813e-05
2.51994e-06
-3.77306e-05
-5.10177e-05
8.12187e-05
0.000150615
-6.30235e-05
-0.000266597
-0.000123553
0.000292846
0.0002589
-0.000283001
-0.000282767
0.000127768
5.32031e-05
-0.000176417
0.000266315
0.000506236
-0.000385765
-0.000770294
0.00014425
0.000743034
0.000340723
-0.000285864
-0.000444359
-0.000125467
0.000123953
0.000148007
1.38166e-05
-5.79568e-05
-2.1096e-06
1.13584e-05
-2.35216e-05
-1.40344e-05
2.53923e-05
2.38061e-05
2.91379e-06
-7.83083e-06
9.5198e-06
5.28087e-05
4.226e-05
-3.00569e-05
-4.31831e-05
9.61338e-06
2.82391e-05
-4.60076e-06
-1.83018e-05
7.742e-06
2.76539e-05
1.74308e-05
-7.44184e-07
-8.42975e-06
-8.82141e-06
-8.04862e-06
-3.90372e-06
6.53076e-06
1.71362e-05
2.12205e-05
1.8818e-05
1.1591e-05
1.0556e-05
1.28622e-05
1.35615e-05
1.40996e-05
2.64009e-05
1.23773e-05
3.15463e-05
1.00948e-05
1.24848e-05
-1.66588e-05
-4.28489e-05
-6.08388e-05
-5.11779e-05
-1.33317e-05
4.09823e-05
5.94492e-05
5.79877e-05
5.80142e-05
1.99164e-13
1.96759e-13
2.03973e-13
1.25321e-13
4.07457e-13
-4.25332e-13
1.51785e-12
-2.63986e-12
6.07889e-12
-1.18936e-11
2.05698e-11
-3.38333e-11
5.8136e-11
-9.41503e-11
1.48174e-10
-2.24685e-10
3.25975e-10
-4.54717e-10
6.00343e-10
-7.50385e-10
9.45555e-10
-1.10299e-09
1.18184e-09
-1.19957e-09
1.29635e-09
-1.85568e-09
3.38182e-09
-4.89286e-09
7.15275e-09
2.20673e-09
4.79951e-08
2.05099e-07
6.59871e-07
1.79532e-06
4.39295e-06
8.54235e-06
1.0515e-05
1.26654e-05
1.22732e-05
7.15446e-06
1.93845e-05
1.9695e-06
1.39107e-05
4.91938e-05
-3.12162e-05
-0.000103333
-2.92459e-05
0.000156435
0.000171817
-0.000202977
-0.00032393
0.000197626
0.000295565
-0.00026649
-0.000266343
0.000419399
0.000131907
-0.000846563
-0.000244871
0.00102847
0.000564155
-0.000793963
-0.000797971
0.000247127
0.000525976
0.000109727
-0.000171155
-0.000138076
1.19162e-05
4.86329e-05
2.48534e-05
1.88741e-05
6.59634e-06
-1.53324e-05
-1.00934e-05
-1.23971e-06
2.98355e-06
1.61981e-05
2.52712e-05
2.5215e-05
7.15937e-06
-1.38367e-05
-3.36052e-07
2.39169e-05
9.46528e-06
-2.3285e-05
-2.26996e-05
6.6924e-06
2.40835e-05
1.66156e-05
5.29904e-06
4.1183e-07
-5.08778e-06
-1.01722e-05
-9.68551e-06
-3.22784e-07
1.12394e-05
1.7568e-05
1.8163e-05
1.34794e-05
1.01663e-05
1.32187e-05
1.10794e-05
1.31515e-05
1.66602e-05
2.6148e-05
1.13139e-05
2.92211e-05
1.30522e-05
4.60399e-06
-2.47078e-05
-5.12961e-05
-5.79564e-05
-3.94597e-05
2.35068e-06
4.21254e-05
5.40907e-05
4.82643e-05
4.79694e-05
1.69705e-13
1.68474e-13
1.71208e-13
1.55096e-13
2.05176e-13
3.36443e-14
3.22166e-13
-1.7907e-13
1.38544e-12
-3.06226e-12
7.31241e-12
-1.32601e-11
2.79256e-11
-5.18312e-11
8.86233e-11
-1.49767e-10
2.31792e-10
-3.55755e-10
4.8948e-10
-6.15712e-10
7.99379e-10
-9.59235e-10
1.08017e-09
-1.16547e-09
1.39721e-09
-2.01822e-09
3.13653e-09
-3.91149e-09
5.2586e-09
2.47936e-09
4.94738e-08
1.87967e-07
6.06706e-07
1.62133e-06
3.93461e-06
7.94038e-06
8.70718e-06
1.10854e-05
1.13891e-05
6.26374e-06
1.00619e-05
2.10383e-05
-4.30228e-06
-5.67814e-06
2.7791e-05
3.73707e-05
-4.60291e-05
-0.000175103
7.20582e-05
0.000269714
-8.9347e-05
-0.000434782
0.000157184
0.000561422
-0.000390184
-0.000738972
0.000569682
0.000903548
-0.000506509
-0.0010837
0.00014409
0.000892717
0.000131991
-0.000540885
-0.000351131
8.71477e-05
0.000173557
4.10475e-05
-4.30378e-05
-3.45703e-05
3.61391e-06
1.56429e-05
5.77661e-06
-1.28011e-06
7.95569e-06
1.88989e-05
1.91564e-05
1.06926e-05
-7.067e-07
-8.91106e-06
-4.67445e-07
2.36334e-05
2.90653e-05
-7.15479e-07
-2.99075e-05
-2.48634e-05
-8.91245e-08
1.26639e-05
9.80528e-06
8.56173e-06
9.39172e-06
7.75392e-07
-1.09339e-05
-1.43499e-05
-7.50702e-06
4.53124e-06
1.29418e-05
1.70929e-05
1.39659e-05
9.01412e-06
1.01399e-05
1.11456e-05
1.08545e-05
1.91331e-05
1.3798e-05
1.63046e-05
4.87786e-06
2.67303e-05
1.41839e-05
-4.76692e-06
-3.56713e-05
-5.5507e-05
-4.89451e-05
-2.2175e-05
1.59348e-05
4.0767e-05
4.52226e-05
3.61156e-05
3.5343e-05
1.4052e-13
1.42848e-13
1.44705e-13
1.48321e-13
1.39513e-13
1.5748e-13
1.9183e-13
3.58845e-13
-3.91758e-13
7.29171e-13
-1.05862e-13
-5.73433e-13
4.52879e-12
-1.22211e-11
2.98721e-11
-6.12431e-11
1.13064e-10
-1.93933e-10
2.86145e-10
-3.80292e-10
4.93751e-10
-5.98321e-10
7.19873e-10
-9.20684e-10
1.33585e-09
-1.96188e-09
2.6935e-09
-3.48191e-09
5.03749e-09
2.09806e-09
4.84622e-08
1.77752e-07
5.57724e-07
1.50661e-06
3.37482e-06
7.13608e-06
7.64968e-06
8.67761e-06
1.14581e-05
5.71156e-06
2.24779e-06
1.2789e-05
2.10485e-05
7.94269e-06
-3.01013e-05
-3.71653e-05
0.000114904
4.02335e-05
-0.00025387
-0.000104566
0.000398667
0.000176511
-0.000760332
-0.000211884
0.00101689
0.000314493
-0.00109744
-0.00055114
0.000891856
0.000579441
-0.000374412
-0.000622228
2.83123e-05
0.000363636
0.000156555
-7.96669e-05
-0.000107188
-2.59961e-05
2.44813e-05
1.2725e-05
-1.16846e-05
-1.40373e-05
4.12522e-06
1.93565e-05
1.95944e-05
9.04596e-06
-3.08109e-06
-1.2186e-05
-1.58989e-05
-2.01956e-06
2.19324e-05
2.49097e-05
-1.54298e-06
-2.33243e-05
-1.99028e-05
-6.70347e-06
-1.83653e-06
-1.06137e-06
7.55067e-06
1.6e-05
7.537e-06
-9.08606e-06
-1.53833e-05
-1.16702e-05
-5.77158e-07
9.77722e-06
1.5279e-05
1.37809e-05
5.92123e-06
5.34066e-06
7.7852e-06
1.04174e-05
1.47515e-05
1.71083e-05
1.88984e-06
1.05534e-05
1.24559e-05
3.64934e-05
1.69762e-05
-5.13792e-06
-3.25655e-05
-4.49362e-05
-3.32206e-05
-7.38377e-06
2.20395e-05
3.64273e-05
3.67744e-05
2.91887e-05
2.82402e-05
1.56848e-13
1.63869e-13
1.68779e-13
1.74981e-13
1.89869e-13
1.98796e-13
2.03615e-13
2.95788e-13
1.64941e-13
4.90612e-13
-2.7783e-13
1.18669e-12
-4.73962e-13
3.91281e-13
3.10773e-12
-9.29801e-12
2.38549e-11
-4.7971e-11
8.3978e-11
-1.29084e-10
1.96016e-10
-3.22886e-10
5.07031e-10
-8.35138e-10
1.33373e-09
-1.75932e-09
2.14761e-09
-2.93608e-09
4.21574e-09
1.82879e-09
4.43521e-08
1.56733e-07
4.99845e-07
1.38864e-06
2.97129e-06
6.35268e-06
6.93202e-06
6.97639e-06
8.8539e-06
7.27834e-06
1.55609e-06
1.54266e-05
-1.39421e-05
1.64199e-05
6.78104e-05
-4.92059e-05
-0.000131405
6.29666e-05
0.000274483
-0.000159149
-0.00051888
0.000309081
0.000748883
-0.000398455
-0.00100372
0.000153729
0.000944944
7.38308e-05
-0.000589448
-0.000370298
0.000228321
0.000298694
1.86879e-05
-0.000127049
-6.53662e-05
2.7904e-05
3.42124e-05
5.07412e-06
-6.65676e-06
-1.22118e-05
-9.29322e-06
5.21993e-07
6.02042e-06
5.19135e-06
7.92571e-07
-1.78358e-06
-4.57397e-06
-9.1783e-06
-6.52639e-06
7.35918e-06
1.23864e-05
6.7612e-07
-8.59057e-06
-5.52405e-06
-5.12137e-06
-1.0866e-05
-1.18906e-05
2.17218e-06
1.77412e-05
1.32047e-05
-4.24231e-06
-1.23879e-05
-1.01006e-05
-1.82894e-06
7.39405e-06
1.28555e-05
1.14865e-05
3.01852e-06
-5.28871e-07
4.52177e-06
7.26154e-06
1.39888e-05
1.38595e-05
4.27032e-06
-5.44494e-06
1.66408e-05
2.19495e-05
3.08949e-05
1.04268e-05
-9.71758e-06
-3.02536e-05
-3.66232e-05
-2.31986e-05
7.54122e-09
2.36803e-05
3.55674e-05