/*--------------------------------*- C++ -*----------------------------------*\
| =========                 |                                                 |
| \\      /  F ield         | OpenFOAM: The Open Source CFD Toolbox           |
|  \\    /   O peration     | Version:  2.2.x                                 |
|   \\  /    A nd           | Web:      www.OpenFOAM.org                      |
|    \\/     M anipulation  |                                                 |
\*---------------------------------------------------------------------------*/
FoamFile
{
    version     2.0;
    format      ascii;
    class       volScalarField;
    location    "2.85";
    object      rho;
}
// * * * * * * * * * * * * * * * * * * * * * * * * * * * * * * * * * * * * * //

dimensions      [1 -3 0 0 0 0 0];

internalField   nonuniform List<scalar> 
14161
(
0.996591
0.996652
0.99671
0.996802
0.996944
0.99717
0.997469
0.997852
0.998336
0.998937
0.999665
1.00053
1.00154
1.0027
1.00401
1.00548
1.00712
1.0089
1.01084
1.01295
1.01542
1.01817
1.02087
1.02337
1.02583
1.02848
1.03138
1.03461
1.03774
1.04064
1.04358
1.04746
1.05646
1.09079
1.30722
1.86854
2.40677
2.58568
2.62819
2.63242
2.62355
2.60916
2.59341
2.57793
2.56314
2.54915
2.53573
2.52326
2.51072
2.49724
2.48441
2.47287
2.46289
2.453
2.44089
2.42979
2.42021
2.41154
2.40523
2.39692
2.38703
2.37888
2.37219
2.36631
2.36234
2.35552
2.347
2.33965
2.33375
2.32844
2.32391
2.31605
2.30651
2.29801
2.29074
2.28392
2.27751
2.26998
2.26106
2.25221
2.24401
2.2369
2.22879
2.21976
2.21037
2.20063
2.19179
2.18435
2.17829
2.16829
2.15589
2.14344
2.13129
2.11978
2.10936
2.09991
2.08925
2.07607
2.06151
2.04764
2.03685
2.03106
2.02913
2.03319
2.04354
2.06291
2.10259
2.17729
2.30317
2.49702
2.73627
2.94333
3.08795
3.17619
3.22366
3.23806
3.23981
3.23215
3.24593
0.996588
0.99665
0.996708
0.996799
0.996942
0.997165
0.997466
0.997851
0.998336
0.998936
0.999659
1.00052
1.00153
1.00269
1.004
1.00547
1.0071
1.00889
1.01082
1.01294
1.0154
1.01815
1.02085
1.02336
1.02581
1.02845
1.03135
1.03458
1.03771
1.0406
1.04353
1.04739
1.05631
1.09053
1.3065
1.86749
2.40554
2.58406
2.6268
2.63012
2.62016
2.605
2.58876
2.57346
2.55947
2.54627
2.53323
2.52098
2.50833
2.49501
2.4824
2.47111
2.46177
2.45212
2.44029
2.42911
2.4197
2.41152
2.40543
2.39674
2.38682
2.37845
2.37176
2.36651
2.36246
2.35509
2.3466
2.3393
2.33326
2.32874
2.32389
2.31544
2.30611
2.29785
2.29063
2.28458
2.27812
2.26953
2.26043
2.25191
2.24415
2.23795
2.23067
2.22108
2.21079
2.20087
2.19181
2.18402
2.17815
2.16896
2.15658
2.14377
2.13159
2.12029
2.10993
2.10069
2.09034
2.0779
2.06485
2.05313
2.04478
2.04178
2.04248
2.05053
2.0702
2.10543
2.16809
2.27193
2.42472
2.6261
2.82722
2.98102
3.10106
3.1829
3.22402
3.23578
3.2389
3.2235
3.25002
0.99658
0.996644
0.996701
0.996793
0.996939
0.997159
0.997461
0.997847
0.998331
0.998929
0.999654
1.00052
1.00153
1.00269
1.004
1.00547
1.0071
1.00889
1.01082
1.01294
1.01537
1.01812
1.02082
1.02335
1.02582
1.02847
1.03138
1.0346
1.0377
1.04059
1.04355
1.04752
1.05658
1.09113
1.30835
1.87028
2.40776
2.58403
2.62571
2.62738
2.6159
2.59988
2.58325
2.56783
2.55382
2.54118
2.52881
2.51684
2.50455
2.49255
2.48144
2.47124
2.46232
2.45283
2.44245
2.43261
2.42392
2.41606
2.40883
2.39997
2.39124
2.38368
2.37706
2.37134
2.36542
2.3578
2.35025
2.3436
2.33766
2.33281
2.32671
2.31837
2.30995
2.30249
2.2959
2.28976
2.28192
2.27331
2.26489
2.25699
2.24986
2.24401
2.23621
2.22645
2.21651
2.20667
2.19739
2.18911
2.18178
2.17104
2.15845
2.14648
2.13531
2.12515
2.11603
2.10681
2.09599
2.08494
2.07522
2.06849
2.06569
2.06737
2.0763
2.09699
2.13516
2.19813
2.29892
2.44082
2.60489
2.75303
2.86277
2.96225
3.06066
3.14305
3.19725
3.21789
3.22575
3.20685
3.24186
0.996568
0.996632
0.996687
0.996779
0.996933
0.99715
0.99745
0.997835
0.998318
0.998913
0.999637
1.0005
1.00151
1.00267
1.00398
1.00545
1.00708
1.00887
1.01081
1.01292
1.01533
1.01805
1.02074
1.02331
1.02581
1.02847
1.03141
1.0346
1.03766
1.04054
1.04355
1.04765
1.05706
1.09231
1.31109
1.87351
2.40965
2.58261
2.62091
2.61958
2.60429
2.5861
2.56981
2.55532
2.54257
2.53167
2.52111
2.51079
2.49982
2.48921
2.47938
2.47015
2.46133
2.45185
2.44287
2.43491
2.42708
2.41959
2.41098
2.40254
2.39539
2.38879
2.38334
2.37633
2.36778
2.36013
2.35372
2.34788
2.34326
2.33672
2.32854
2.32098
2.31446
2.30851
2.30406
2.297
2.28784
2.27936
2.27171
2.26462
2.25873
2.25272
2.24376
2.2336
2.22371
2.21399
2.20441
2.19544
2.18552
2.17348
2.16162
2.151
2.1415
2.13327
2.1248
2.11556
2.10692
2.10083
2.09822
2.09881
2.10474
2.12005
2.14927
2.19912
2.2765
2.39576
2.54468
2.69056
2.80102
2.87498
2.92188
2.97451
3.04137
3.1108
3.16691
3.19433
3.20655
3.18698
3.22671
0.99655
0.996614
0.996668
0.996761
0.996917
0.997135
0.997432
0.997817
0.9983
0.998892
0.999612
1.00047
1.00148
1.00263
1.00394
1.00541
1.00704
1.00883
1.01077
1.01289
1.01526
1.01793
1.02062
1.02322
1.02578
1.02847
1.03147
1.03461
1.03757
1.04042
1.04352
1.04786
1.0579
1.09463
1.31457
1.87603
2.41007
2.57703
2.61122
2.60666
2.58861
2.57027
2.55463
2.54166
2.53091
2.52188
2.51305
2.5044
2.49527
2.48648
2.4782
2.47088
2.46322
2.45413
2.44541
2.43787
2.43129
2.42438
2.41562
2.407
2.39986
2.39354
2.38866
2.38118
2.37208
2.36423
2.35793
2.3524
2.34835
2.3415
2.33288
2.32535
2.31906
2.31338
2.30966
2.30284
2.29351
2.28498
2.27762
2.27061
2.26428
2.2582
2.24936
2.2393
2.22944
2.22007
2.211
2.20162
2.19111
2.17985
2.16944
2.16016
2.15236
2.1453
2.13782
2.13294
2.13045
2.13106
2.13692
2.15109
2.17652
2.21792
2.282
2.38073
2.51092
2.64873
2.76216
2.84119
2.88697
2.91881
2.94912
2.98329
3.03034
3.0852
3.13821
3.16741
3.18285
3.16775
3.20713
0.996527
0.99659
0.996642
0.996737
0.996892
0.997111
0.997407
0.99779
0.998269
0.998859
0.999573
1.00043
1.00142
1.00258
1.00388
1.00534
1.00697
1.00876
1.01071
1.01282
1.01517
1.01778
1.02045
1.02308
1.02571
1.02849
1.03155
1.03462
1.03743
1.04023
1.04343
1.04811
1.05912
1.09834
1.31717
1.87476
2.40448
2.56771
2.59884
2.59149
2.57434
2.55758
2.54372
2.53267
2.5236
2.51587
2.50834
2.50067
2.49276
2.48535
2.47801
2.47148
2.46378
2.45494
2.44687
2.43954
2.43343
2.42625
2.41769
2.40969
2.40291
2.3969
2.39195
2.38413
2.37543
2.36835
2.36233
2.35705
2.35286
2.34555
2.33684
2.32938
2.3227
2.31669
2.31266
2.30655
2.29746
2.28861
2.28103
2.27366
2.26643
2.25988
2.25128
2.24159
2.23272
2.22454
2.21667
2.20791
2.1982
2.18887
2.18076
2.17406
2.16902
2.16559
2.16392
2.16462
2.16978
2.18236
2.20599
2.24436
2.30181
2.38768
2.50224
2.63228
2.75053
2.83074
2.87854
2.90458
2.92152
2.93715
2.95744
2.98521
3.02098
3.06549
3.11301
3.14151
3.15964
3.15045
3.18453
0.996498
0.99656
0.996611
0.996708
0.996858
0.997077
0.997372
0.997753
0.998229
0.998813
0.999521
1.00036
1.00135
1.00249
1.00378
1.00525
1.00688
1.00867
1.01063
1.01274
1.01504
1.01759
1.02023
1.0229
1.02562
1.02854
1.03162
1.03458
1.03722
1.03996
1.04327
1.04849
1.06123
1.10477
1.3122
1.86538
2.39595
2.55977
2.58974
2.58181
2.56657
2.5508
2.53798
2.52829
2.52035
2.51329
2.50616
2.49877
2.49127
2.48438
2.47782
2.47208
2.46443
2.45578
2.44828
2.44142
2.43594
2.42844
2.41964
2.41197
2.40536
2.39951
2.39452
2.38623
2.37706
2.36967
2.36329
2.35784
2.35397
2.34668
2.33788
2.33032
2.32334
2.31687
2.31197
2.30662
2.2982
2.28909
2.28106
2.27301
2.26509
2.25756
2.24935
2.24147
2.23479
2.22902
2.22192
2.21429
2.20726
2.20157
2.19784
2.19645
2.19695
2.19989
2.2072
2.22
2.24081
2.27454
2.32664
2.40422
2.50612
2.62417
2.73624
2.82178
2.87569
2.90295
2.91741
2.92668
2.93446
2.94472
2.96055
2.98306
3.01175
3.04938
3.09243
3.12046
3.14054
3.13551
3.16245
0.996464
0.996525
0.996576
0.996672
0.996819
0.997035
0.997327
0.997704
0.998175
0.998753
0.999451
1.00028
1.00126
1.0024
1.00368
1.00513
1.00675
1.00854
1.01051
1.01265
1.0149
1.01734
1.01995
1.02266
1.02548
1.02858
1.03164
1.03445
1.03693
1.03961
1.04306
1.04873
1.06296
1.11165
1.30612
1.86158
2.39615
2.55741
2.58517
2.57735
2.56267
2.5476
2.5356
2.52673
2.51955
2.51326
2.50689
2.49988
2.49256
2.48579
2.47972
2.47387
2.46578
2.45696
2.44931
2.44234
2.4368
2.4291
2.42025
2.41272
2.4061
2.40028
2.39551
2.38745
2.37817
2.37053
2.36364
2.35749
2.35346
2.34671
2.33782
2.32954
2.32173
2.31407
2.30723
2.30138
2.29324
2.28395
2.27559
2.26754
2.2598
2.25325
2.24721
2.2419
2.23824
2.23458
2.22915
2.2246
2.22244
2.2221
2.2243
2.23099
2.24282
2.26019
2.2843
2.31756
2.36407
2.43357
2.52522
2.63157
2.73344
2.81597
2.87106
2.90266
2.9188
2.92659
2.93109
2.93492
2.93969
2.94745
2.96023
2.97823
3.00276
3.03479
3.07436
3.10244
3.12451
3.12344
3.14496
0.996425
0.996486
0.996538
0.996628
0.996773
0.996985
0.997272
0.997641
0.998105
0.998674
0.99936
1.00018
1.00115
1.00227
1.00355
1.00498
1.00659
1.00836
1.01036
1.01251
1.01473
1.01708
1.01962
1.02231
1.02534
1.02858
1.03158
1.03422
1.03655
1.03918
1.04269
1.04855
1.06302
1.11094
1.31057
1.86303
2.39229
2.55464
2.58401
2.57712
2.56309
2.54865
2.53713
2.52866
2.52166
2.51497
2.50856
2.50133
2.49369
2.48666
2.48068
2.47467
2.46642
2.45766
2.44967
2.44224
2.4363
2.42843
2.41923
2.41122
2.40405
2.39779
2.39315
2.38567
2.37644
2.36835
2.3607
2.35355
2.34804
2.3419
2.33265
2.32308
2.31351
2.30375
2.29489
2.28739
2.28038
2.27387
2.26819
2.26253
2.25718
2.25199
2.24807
2.2459
2.24575
2.24549
2.24509
2.24637
2.25059
2.25887
2.27284
2.294
2.32369
2.36304
2.41473
2.48145
2.56311
2.65482
2.74471
2.82011
2.87204
2.90106
2.9165
2.92567
2.93161
2.93463
2.9348
2.93535
2.93906
2.94633
2.95751
2.97319
2.9934
3.02113
3.05793
3.08611
3.11032
3.11371
3.13276
0.996383
0.996444
0.996495
0.996579
0.996718
0.996924
0.997205
0.997568
0.998025
0.998583
0.999258
1.00006
1.00103
1.00213
1.00339
1.0048
1.00638
1.00814
1.01012
1.01229
1.01453
1.01683
1.01927
1.0219
1.02512
1.02848
1.03141
1.0339
1.0361
1.03865
1.04214
1.04797
1.06209
1.10873
1.31121
1.8672
2.39268
2.55455
2.58513
2.57897
2.56503
2.5507
2.53887
2.53036
2.52381
2.51698
2.50994
2.50218
2.49395
2.48632
2.47951
2.47297
2.46421
2.45497
2.4467
2.43908
2.4331
2.42496
2.41487
2.4058
2.39751
2.39012
2.38469
2.37795
2.36924
2.36073
2.35246
2.34429
2.33698
2.3315
2.32436
2.31343
2.30138
2.29092
2.28214
2.27475
2.26945
2.26624
2.26525
2.26277
2.25945
2.25738
2.25647
2.25798
2.26341
2.27064
2.27924
2.29086
2.30687
2.32963
2.36187
2.40471
2.46252
2.53246
2.61179
2.69229
2.76776
2.83051
2.87725
2.90395
2.91843
2.92501
2.92888
2.93241
2.93386
2.93355
2.93317
2.93401
2.93778
2.94425
2.95333
2.96681
2.98326
3.00774
3.0424
3.07148
3.09741
3.10485
3.12414
0.996338
0.996398
0.996444
0.996523
0.996654
0.996854
0.997126
0.997482
0.997928
0.998475
0.999136
0.999928
1.00088
1.00196
1.0032
1.00461
1.00616
1.00787
1.00981
1.01199
1.01426
1.01655
1.01892
1.02149
1.02478
1.02822
1.03111
1.03355
1.03566
1.03809
1.04143
1.04705
1.06051
1.10561
1.31419
1.87477
2.39558
2.55668
2.58918
2.58432
2.56916
2.55314
2.53976
2.5303
2.52311
2.51569
2.50821
2.50008
2.49162
2.48339
2.47558
2.46777
2.45827
2.44822
2.43906
2.4308
2.42421
2.41715
2.40707
2.39666
2.3873
2.37937
2.3736
2.36907
2.36083
2.35114
2.34178
2.3321
2.32238
2.31376
2.30598
2.29833
2.28973
2.28141
2.27463
2.26947
2.26639
2.26533
2.26686
2.2689
2.27042
2.27281
2.27788
2.28769
2.30316
2.32243
2.34534
2.37368
2.40892
2.45637
2.51578
2.58588
2.66089
2.73194
2.79461
2.8462
2.88285
2.90616
2.92054
2.92645
2.92955
2.93129
2.93125
2.93175
2.93152
2.93072
2.93037
2.93165
2.93532
2.9405
2.94815
2.95908
2.97341
2.99475
3.02799
3.05853
3.08576
3.0964
3.1164
0.99629
0.996348
0.996387
0.99646
0.996584
0.996774
0.997035
0.997383
0.997817
0.99835
0.998993
0.999772
1.00069
1.00176
1.00299
1.00438
1.0059
1.00755
1.00944
1.0116
1.01392
1.01623
1.01854
1.02104
1.02432
1.02779
1.03068
1.0331
1.03514
1.03746
1.04061
1.04585
1.05857
1.10256
1.31916
1.88607
2.40273
2.55935
2.59349
2.58995
2.57326
2.55465
2.53931
2.52881
2.52051
2.51258
2.50503
2.49679
2.48802
2.47919
2.47079
2.46235
2.45284
2.44249
2.43235
2.42306
2.41488
2.40821
2.39894
2.38777
2.37721
2.36777
2.36028
2.35554
2.35032
2.34035
2.32812
2.31563
2.30356
2.29366
2.28644
2.28273
2.2812
2.2782
2.2747
2.27194
2.27081
2.27222
2.27811
2.28757
2.29808
2.30985
2.32591
2.34938
2.38094
2.41866
2.46447
2.51806
2.57884
2.6444
2.70938
2.77058
2.82399
2.86422
2.88938
2.9079
2.92017
2.92644
2.93043
2.93227
2.9311
2.92956
2.92914
2.92879
2.92763
2.92675
2.92712
2.92869
2.93165
2.93579
2.94215
2.95058
2.9641
2.98258
3.01461
3.0459
3.07421
3.08788
3.10844
0.996236
0.996293
0.996325
0.996391
0.996507
0.996685
0.996934
0.99727
0.997693
0.998215
0.998839
0.999589
1.00048
1.00153
1.00276
1.00412
1.00558
1.00719
1.00902
1.01111
1.01347
1.01586
1.01819
1.02062
1.02373
1.02716
1.03012
1.03258
1.03459
1.03683
1.0398
1.0447
1.05703
1.10079
1.33039
1.90297
2.40681
2.55935
2.59442
2.59204
2.57649
2.55833
2.54344
2.53265
2.52349
2.51479
2.50626
2.49704
2.48687
2.47654
2.46707
2.45796
2.44748
2.43649
2.4261
2.41632
2.40741
2.39969
2.39087
2.37998
2.36865
2.35814
2.34874
2.34097
2.33582
2.32711
2.31328
2.29918
2.28776
2.27984
2.2754
2.27429
2.27726
2.28038
2.28174
2.28328
2.28633
2.29446
2.31042
2.33191
2.35617
2.384
2.41841
2.464
2.51924
2.58067
2.64337
2.70259
2.7584
2.80825
2.84917
2.8777
2.8976
2.91139
2.91858
2.92399
2.92938
2.9316
2.93061
2.92899
2.92749
2.92611
2.92539
2.924
2.9226
2.92257
2.92363
2.92528
2.92709
2.9304
2.93569
2.9422
2.95488
2.97133
3.00175
3.03323
3.06266
3.0788
3.09994
0.996174
0.99623
0.996256
0.996315
0.996422
0.996586
0.996821
0.99714
0.997552
0.998059
0.998659
0.999379
1.00024
1.00126
1.00246
1.00382
1.00527
1.00684
1.00859
1.01059
1.01291
1.01541
1.01779
1.02019
1.02301
1.02635
1.02941
1.03194
1.03405
1.03634
1.03924
1.044
1.05635
1.10075
1.34452
1.9245
2.41364
2.56141
2.59634
2.59488
2.58166
2.56489
2.54931
2.5371
2.52627
2.51627
2.5063
2.49563
2.4843
2.47304
2.46267
2.45333
2.44236
2.42987
2.41791
2.40685
2.39686
2.38825
2.37914
2.36769
2.35476
2.3421
2.33008
2.31925
2.30987
2.30043
2.29023
2.28175
2.27628
2.27353
2.27223
2.27357
2.28027
2.29118
2.30142
2.31168
2.32539
2.347
2.37913
2.41871
2.4642
2.51639
2.57601
2.63906
2.69911
2.75439
2.80246
2.8401
2.86722
2.88779
2.90365
2.91395
2.91915
2.9227
2.92632
2.92802
2.92806
2.92759
2.9259
2.92374
2.92251
2.92122
2.91985
2.91825
2.91729
2.91804
2.91951
2.92092
2.92212
2.92486
2.92899
2.93375
2.94525
2.96016
2.98918
3.02105
3.05141
3.06925
3.09105
0.996104
0.996158
0.996178
0.99623
0.996328
0.996482
0.996702
0.996999
0.997393
0.997878
0.998457
0.999156
0.999982
1.00095
1.0021
1.00345
1.0049
1.00643
1.00811
1.01001
1.01227
1.01484
1.01731
1.01968
1.02221
1.02533
1.02849
1.03118
1.03347
1.03589
1.03887
1.04366
1.05626
1.10202
1.3571
1.94452
2.42129
2.56458
2.59855
2.59722
2.58482
2.5696
2.55498
2.54302
2.53199
2.52135
2.51077
2.49951
2.48726
2.47492
2.46352
2.4533
2.44204
2.42765
2.41237
2.39833
2.38563
2.37427
2.36296
2.34933
2.33359
2.31765
2.30237
2.28802
2.27635
2.26774
2.26452
2.26751
2.27085
2.27376
2.27689
2.28361
2.29828
2.32029
2.34556
2.37301
2.40556
2.44874
2.50477
2.56818
2.63163
2.69138
2.74784
2.79653
2.83495
2.86233
2.88222
2.89677
2.9061
2.91258
2.9185
2.92315
2.92512
2.92409
2.9231
2.92355
2.92326
2.92121
2.91881
2.91702
2.916
2.91475
2.91342
2.91252
2.91206
2.91304
2.91466
2.91595
2.91714
2.9191
2.92187
2.92498
2.93524
2.94894
2.97661
3.00875
3.04007
3.05954
3.08213
0.996025
0.996077
0.996091
0.996136
0.996225
0.996366
0.996571
0.996847
0.997212
0.99767
0.998236
0.998914
0.999696
1.0006
1.00168
1.003
1.00447
1.00598
1.00758
1.00938
1.01154
1.01416
1.01674
1.01905
1.02141
1.02414
1.02728
1.03025
1.03285
1.03549
1.03862
1.0436
1.05677
1.10495
1.37117
1.96297
2.42411
2.56285
2.59579
2.59519
2.58391
2.57041
2.55636
2.54397
2.53301
2.52174
2.51064
2.49836
2.48462
2.47073
2.45791
2.4461
2.43417
2.41878
2.4011
2.38385
2.36754
2.352
2.33692
2.32161
2.30272
2.28317
2.26676
2.25417
2.2465
2.24389
2.24712
2.25835
2.27262
2.28514
2.29785
2.31697
2.34748
2.38842
2.43526
2.48738
2.54621
2.61215
2.67767
2.73727
2.78766
2.82705
2.85614
2.87745
2.89269
2.90167
2.90769
2.91226
2.91616
2.91996
2.92168
2.92085
2.91971
2.91858
2.91778
2.91729
2.91535
2.91253
2.91061
2.90922
2.90842
2.90756
2.90689
2.90662
2.90672
2.90804
2.90992
2.91093
2.91174
2.91266
2.91421
2.91601
2.92511
2.93829
2.96426
2.99543
3.02775
3.04988
3.0734
0.995936
0.995986
0.995994
0.99603
0.996109
0.996235
0.996425
0.996678
0.997007
0.997437
0.997985
0.998637
0.999369
1.00022
1.00124
1.00248
1.00396
1.00548
1.00702
1.00872
1.01075
1.0134
1.01606
1.01837
1.02056
1.02297
1.02584
1.02904
1.03214
1.03508
1.03835
1.04355
1.0578
1.10973
1.39005
1.98643
2.42936
2.56055
2.59142
2.59079
2.57966
2.56651
2.55248
2.53924
2.52804
2.51622
2.50414
2.49018
2.4737
2.45697
2.44129
2.42638
2.41175
2.39411
2.3732
2.35125
2.32936
2.30754
2.28701
2.26881
2.25265
2.24023
2.23234
2.22991
2.22993
2.23334
2.24612
2.26837
2.29444
2.3214
2.35239
2.39486
2.45199
2.51975
2.58906
2.65358
2.71667
2.77328
2.81739
2.84957
2.87191
2.88715
2.89635
2.90358
2.90957
2.91327
2.91496
2.91489
2.91417
2.91514
2.91646
2.91467
2.91189
2.91128
2.91053
2.90885
2.90567
2.90317
2.90194
2.90111
2.90065
2.90056
2.9003
2.90035
2.90108
2.90292
2.90477
2.9053
2.90533
2.90527
2.90589
2.90673
2.91525
2.92835
2.95233
2.9815
3.01462
3.03986
3.06398
0.995837
0.995885
0.995886
0.995913
0.995979
0.99609
0.996263
0.996489
0.996785
0.997181
0.997695
0.99831
0.999018
0.999821
1.00076
1.0019
1.00334
1.0049
1.0064
1.00802
1.00994
1.01254
1.01528
1.01763
1.01966
1.02183
1.02444
1.02756
1.03109
1.03454
1.03807
1.04363
1.05945
1.11731
1.41673
2.01482
2.4326
2.55444
2.58155
2.57921
2.56606
2.55145
2.53635
2.52184
2.50936
2.49608
2.48219
2.4661
2.44693
2.42706
2.40745
2.38782
2.36804
2.34702
2.32176
2.29299
2.26675
2.24486
2.22665
2.21385
2.20908
2.21112
2.21607
2.22082
2.22842
2.24503
2.27351
2.31286
2.35843
2.40863
2.46839
2.54282
2.62128
2.69326
2.75335
2.79865
2.83658
2.86432
2.88303
2.89399
2.90067
2.90505
2.90771
2.90996
2.91167
2.91115
2.90958
2.90906
2.90877
2.9088
2.90849
2.90573
2.90251
2.90222
2.90144
2.89898
2.89572
2.89397
2.89336
2.89316
2.89307
2.89349
2.89345
2.89374
2.89491
2.89689
2.89841
2.89846
2.89778
2.89667
2.89687
2.89736
2.90569
2.91854
2.94081
2.96827
3.0019
3.02915
3.05296
0.995728
0.995772
0.995767
0.995786
0.995837
0.995931
0.996079
0.996284
0.99655
0.996904
0.997365
0.997933
0.998617
0.999377
1.00024
1.00127
1.00263
1.0042
1.00569
1.00723
1.00902
1.01152
1.01433
1.01674
1.01873
1.0207
1.02307
1.02603
1.02967
1.03368
1.03774
1.04384
1.06214
1.12916
1.45309
2.05072
2.43385
2.54116
2.56195
2.55585
2.53921
2.52065
2.50281
2.48597
2.47031
2.45387
2.4365
2.41743
2.39569
2.37267
2.34835
2.32147
2.29365
2.26712
2.24304
2.22079
2.20361
2.19344
2.18806
2.18571
2.18911
2.20193
2.22107
2.24041
2.26317
2.29906
2.35131
2.41817
2.49467
2.57394
2.65147
2.72496
2.78292
2.82712
2.85715
2.87592
2.88866
2.89766
2.90444
2.90753
2.90781
2.90688
2.90558
2.90553
2.90661
2.90542
2.90224
2.90063
2.90061
2.90004
2.89821
2.89561
2.89248
2.89229
2.89127
2.88884
2.88614
2.88524
2.88524
2.8854
2.88536
2.88578
2.88586
2.88631
2.88776
2.8895
2.89058
2.89039
2.88916
2.88733
2.88776
2.88824
2.89606
2.90803
2.92905
2.95569
2.98952
3.01766
3.04091
0.995607
0.995647
0.995635
0.995644
0.995679
0.995753
0.995882
0.996058
0.996289
0.996601
0.997008
0.997512
0.998144
0.998881
0.999679
1.00062
1.00183
1.00335
1.00488
1.00634
1.00803
1.01033
1.01316
1.01568
1.01774
1.01958
1.02177
1.02459
1.02817
1.0325
1.03743
1.04485
1.06699
1.14706
1.49975
2.09454
2.43549
2.52594
2.53797
2.52532
2.50193
2.47731
2.45633
2.43584
2.41618
2.39715
2.37637
2.3525
2.32546
2.29687
2.2655
2.23422
2.20774
2.18779
2.17555
2.17222
2.17412
2.17783
2.17948
2.18253
2.19628
2.22565
2.26716
2.31362
2.36385
2.42928
2.51899
2.61443
2.69807
2.7636
2.81434
2.85335
2.87788
2.8929
2.90183
2.90625
2.90735
2.90871
2.91018
2.90933
2.90553
2.90272
2.90144
2.9012
2.89997
2.8972
2.89347
2.89161
2.89104
2.88986
2.88741
2.88512
2.88257
2.88203
2.88084
2.87909
2.87687
2.8762
2.87659
2.87699
2.87689
2.87698
2.87724
2.87804
2.87962
2.88084
2.88137
2.88114
2.87962
2.87775
2.87858
2.879
2.88605
2.89677
2.91728
2.94385
2.97753
3.00561
3.0282
0.995477
0.995513
0.995491
0.995487
0.995505
0.995558
0.995663
0.995805
0.995997
0.996277
0.996627
0.997057
0.99761
0.998313
0.999074
0.99992
1.00097
1.00238
1.00393
1.00537
1.00696
1.00901
1.01176
1.01445
1.01666
1.01847
1.02056
1.02327
1.02676
1.03124
1.03699
1.04626
1.07291
1.16788
1.54927
2.13998
2.44047
2.51609
2.51886
2.49773
2.46713
2.43606
2.4094
2.38322
2.35848
2.33398
2.30367
2.268
2.23332
2.20297
2.17703
2.15856
2.15038
2.14698
2.14617
2.152
2.16836
2.18798
2.2038
2.22155
2.25639
2.31656
2.39517
2.4814
2.56906
2.65852
2.74751
2.81445
2.86118
2.88984
2.90541
2.91413
2.9184
2.92064
2.92156
2.92023
2.91636
2.91349
2.91149
2.90869
2.90348
2.89879
2.8963
2.89463
2.89141
2.88812
2.88507
2.88249
2.88065
2.87891
2.87672
2.87491
2.87292
2.87177
2.87036
2.8692
2.86741
2.86658
2.86711
2.86771
2.86755
2.86726
2.86792
2.86906
2.87042
2.87097
2.87109
2.87077
2.8695
2.86817
2.8693
2.86934
2.87554
2.88515
2.90546
2.93209
2.96543
2.99308
3.015
0.995339
0.995372
0.995334
0.995313
0.995313
0.995345
0.995423
0.995529
0.995675
0.995912
0.996214
0.996571
0.997033
0.99766
0.998393
0.999156
1.00007
1.00129
1.00279
1.00428
1.00578
1.0076
1.01014
1.01294
1.01537
1.01734
1.01943
1.02207
1.02548
1.03002
1.0364
1.04748
1.07827
1.18578
1.59087
2.17544
2.44348
2.50166
2.49722
2.46897
2.43146
2.39128
2.3534
2.3175
2.2853
2.25101
2.21205
2.17452
2.14509
2.12709
2.12076
2.12171
2.13141
2.13836
2.14431
2.16154
2.19924
2.24861
2.297
2.34747
2.41888
2.52277
2.63746
2.73512
2.80902
2.86289
2.90606
2.93119
2.94289
2.94676
2.94681
2.94483
2.94173
2.9392
2.93529
2.92932
2.92369
2.91878
2.91395
2.90883
2.90293
2.89654
2.89232
2.88852
2.88346
2.87991
2.87674
2.87296
2.87064
2.8688
2.86651
2.86492
2.86322
2.86113
2.85949
2.85839
2.8572
2.85632
2.85684
2.85765
2.85752
2.85705
2.85808
2.85906
2.86002
2.86033
2.86026
2.85956
2.85854
2.85755
2.85904
2.85902
2.86472
2.87385
2.89418
2.92062
2.95351
2.98049
3.00087
0.995191
0.995224
0.995172
0.995125
0.995102
0.995109
0.995156
0.995227
0.995327
0.995506
0.995762
0.996052
0.996419
0.996934
0.997606
0.99832
0.999105
1.00011
1.00148
1.00299
1.00445
1.0061
1.00826
1.01103
1.01375
1.01609
1.0182
1.02082
1.02425
1.02887
1.0357
1.04826
1.08247
1.19791
1.62076
2.19794
2.43913
2.48005
2.46453
2.42935
2.38316
2.33
2.27506
2.22392
2.18148
2.14772
2.12221
2.11006
2.10215
2.09741
2.09899
2.11613
2.14555
2.16806
2.19167
2.23696
2.3129
2.40842
2.50352
2.59743
2.69935
2.80284
2.87744
2.92627
2.95565
2.97059
2.97811
2.97992
2.97915
2.97644
2.97182
2.96605
2.96044
2.95529
2.94834
2.94024
2.93283
2.92532
2.91723
2.91059
2.90437
2.89651
2.89101
2.88531
2.87818
2.87358
2.8694
2.86436
2.86179
2.8595
2.85661
2.85491
2.85311
2.85025
2.84866
2.84738
2.84637
2.84556
2.84622
2.84712
2.84683
2.84626
2.8472
2.84801
2.84893
2.84956
2.84948
2.84836
2.84675
2.84565
2.84754
2.84778
2.85361
2.86278
2.88291
2.90902
2.94141
2.96764
2.98643
0.995033
0.995065
0.995003
0.994929
0.994873
0.994853
0.994863
0.994895
0.994952
0.995059
0.995254
0.995489
0.995763
0.99615
0.996711
0.997384
0.998063
0.998885
1.00001
1.00146
1.00296
1.00448
1.00632
1.00877
1.01167
1.01448
1.01691
1.01959
1.02305
1.02778
1.03496
1.04874
1.08626
1.20822
1.63962
2.20322
2.4163
2.44092
2.41121
2.3657
2.31058
2.24022
2.17226
2.1201
2.08615
2.06763
2.05954
2.07282
2.09192
2.10091
2.11255
2.15096
2.21475
2.27826
2.34122
2.43212
2.5588
2.6882
2.7944
2.87546
2.93264
2.97665
2.99847
3.00597
3.00753
3.00693
3.00504
3.00149
2.99681
2.99168
2.98626
2.98058
2.97484
2.96891
2.9618
2.95299
2.94374
2.93376
2.92315
2.91529
2.90737
2.89789
2.89135
2.88415
2.8753
2.86922
2.8634
2.85676
2.85367
2.85071
2.84694
2.84499
2.84271
2.8393
2.83798
2.83675
2.83549
2.8348
2.83517
2.83557
2.83518
2.83464
2.83537
2.83615
2.83744
2.83865
2.83853
2.83703
2.83441
2.83275
2.8343
2.83529
2.8417
2.85131
2.87171
2.89766
2.92928
2.95421
2.97115
0.99486
0.994891
0.994828
0.994729
0.994635
0.994575
0.994545
0.994537
0.994544
0.994586
0.994699
0.994865
0.995054
0.995315
0.995723
0.996306
0.996931
0.997584
0.998461
0.999701
1.00121
1.00269
1.00429
1.00635
1.00907
1.01217
1.0153
1.01827
1.02183
1.02668
1.03416
1.04905
1.09006
1.21831
1.6487
2.18434
2.36711
2.37909
2.33818
2.27724
2.20252
2.13097
2.08273
2.05709
2.04512
2.03945
2.03877
2.0648
2.11449
2.1584
2.20278
2.27747
2.39126
2.51446
2.63554
2.75514
2.86686
2.943
2.98974
3.01576
3.02621
3.02923
3.02939
3.02688
3.02237
3.01723
3.01246
3.0082
3.00391
2.99932
2.99434
2.98938
2.98457
2.97943
2.97316
2.96526
2.95571
2.9449
2.93286
2.92249
2.91176
2.90025
2.89227
2.88361
2.87333
2.86583
2.85836
2.85023
2.84622
2.84233
2.83755
2.83534
2.83255
2.82848
2.8268
2.82526
2.82362
2.82318
2.82321
2.82319
2.823
2.82271
2.82323
2.82397
2.82524
2.8267
2.82673
2.82525
2.82216
2.82
2.82063
2.82222
2.82915
2.83888
2.85932
2.88538
2.91634
2.94012
2.95556
0.994672
0.9947
0.994634
0.99452
0.994392
0.994287
0.994212
0.994144
0.994092
0.994074
0.994096
0.994177
0.994279
0.99442
0.994671
0.995106
0.995654
0.996177
0.996826
0.997784
0.999148
1.00067
1.0021
1.00382
1.00615
1.00918
1.01275
1.01645
1.02035
1.02534
1.03308
1.04926
1.09443
1.23376
1.65092
2.12837
2.27476
2.27672
2.22912
2.15647
2.09502
2.05862
2.0454
2.04403
2.05061
2.05938
2.07363
2.12423
2.21961
2.33016
2.4404
2.56342
2.70129
2.82759
2.92423
2.98202
3.01945
3.03608
3.04048
3.04099
3.03964
3.0362
3.03281
3.02912
3.02466
3.01985
3.01523
3.01097
3.00688
3.00269
2.99844
2.99417
2.98989
2.98535
2.98014
2.9734
2.96522
2.95595
2.94425
2.93206
2.91884
2.905
2.89455
2.88385
2.87215
2.86346
2.85456
2.84504
2.83976
2.83453
2.82845
2.82574
2.82253
2.818
2.81589
2.81355
2.81114
2.81115
2.81135
2.81088
2.81104
2.81113
2.81118
2.81152
2.81199
2.81333
2.81375
2.81246
2.80951
2.80729
2.80666
2.80912
2.81637
2.8264
2.84679
2.87308
2.90317
2.92535
2.93885
0.994467
0.994493
0.994419
0.994296
0.994136
0.993984
0.99387
0.993736
0.993605
0.993509
0.993455
0.993429
0.993421
0.993449
0.993555
0.993792
0.994194
0.99462
0.995066
0.995741
0.996826
0.998268
0.999682
1.0011
1.003
1.00569
1.00921
1.01352
1.01816
1.0234
1.03131
1.04916
1.10024
1.25758
1.65471
2.04354
2.12822
2.11501
2.07588
2.03602
2.02768
2.03062
2.04102
2.06202
2.09449
2.13796
2.20698
2.32233
2.47567
2.63323
2.77023
2.88611
2.96013
3.00628
3.03081
3.03919
3.04226
3.04191
3.03961
3.03672
3.03423
3.03178
3.02942
3.02611
3.02184
3.01756
3.0136
3.00992
3.00638
3.00283
2.99931
2.99594
2.99237
2.9881
2.98297
2.97676
2.96992
2.96206
2.95217
2.94067
2.92763
2.91263
2.89903
2.88562
2.87237
2.86233
2.85197
2.84098
2.83432
2.82753
2.82009
2.81662
2.81287
2.80797
2.80572
2.80273
2.79927
2.79938
2.79924
2.798
2.79833
2.79851
2.79814
2.7982
2.79809
2.79934
2.79988
2.79898
2.7967
2.79475
2.79327
2.7966
2.80386
2.8141
2.83372
2.8603
2.88971
2.91052
2.92202
0.994245
0.994269
0.994183
0.99405
0.993857
0.993658
0.993499
0.993322
0.993106
0.99291
0.992759
0.99261
0.992472
0.992383
0.992355
0.9924
0.992589
0.992848
0.993124
0.993544
0.994286
0.995492
0.996833
0.998042
0.999529
1.00171
1.00485
1.00917
1.01446
1.02021
1.0284
1.04816
1.10689
1.29156
1.65234
1.92842
1.96998
1.95858
1.95693
1.96414
1.98921
2.02598
2.07064
2.13719
2.22889
2.35262
2.50614
2.667
2.8055
2.9056
2.96755
3.00623
3.02381
3.03051
3.0346
3.03392
3.03237
3.03027
3.02712
3.02434
3.02271
3.02202
3.02133
3.01928
3.01606
3.01305
3.01035
3.00759
3.00447
3.00113
2.9978
2.99481
2.99184
2.9884
2.98414
2.97865
2.97229
2.96483
2.95592
2.94548
2.93386
2.91973
2.90464
2.88889
2.87344
2.86161
2.84949
2.83698
2.82882
2.82046
2.8116
2.8072
2.80238
2.79655
2.7942
2.79111
2.7874
2.7877
2.78714
2.78493
2.78518
2.78513
2.78424
2.78437
2.78414
2.78502
2.78541
2.78449
2.78255
2.78084
2.7792
2.78328
2.79092
2.80176
2.82087
2.84767
2.87605
2.89538
2.90463
0.994005
0.994028
0.993926
0.993784
0.993559
0.993308
0.993088
0.992887
0.992589
0.992273
0.992012
0.991775
0.991483
0.991216
0.991019
0.990907
0.990864
0.990878
0.99094
0.991119
0.991522
0.99238
0.993452
0.994437
0.995508
0.997141
0.999688
1.00349
1.00868
1.0148
1.02352
1.04532
1.11002
1.31564
1.64379
1.81795
1.85638
1.8754
1.90522
1.94825
2.00914
2.08857
2.19848
2.35352
2.533
2.70564
2.84243
2.92255
2.97
2.99485
3.00534
3.01318
3.01678
3.01748
3.01812
3.01712
3.01566
3.01383
3.01182
3.00991
3.00883
3.00865
3.00859
3.00783
3.00642
3.00527
3.00412
3.00238
2.99976
2.99686
2.99401
2.99175
2.98945
2.98662
2.98276
2.97739
2.97145
2.96461
2.95652
2.94697
2.93627
2.92327
2.90873
2.89277
2.87597
2.86179
2.84771
2.8335
2.8235
2.81336
2.80301
2.79742
2.79126
2.7845
2.78221
2.77902
2.77513
2.77545
2.77477
2.77194
2.77208
2.7717
2.77025
2.77068
2.77077
2.77112
2.77109
2.76984
2.76818
2.76702
2.76555
2.7696
2.77713
2.78843
2.80689
2.8337
2.8614
2.88
2.88821
0.993748
0.993769
0.993651
0.99349
0.993243
0.992938
0.992647
0.9924
0.992048
0.991615
0.991216
0.990876
0.990469
0.989997
0.989587
0.989275
0.988987
0.988687
0.988496
0.988435
0.988514
0.988935
0.989537
0.990086
0.990668
0.991722
0.993578
0.996526
1.00084
1.00681
1.0163
1.04043
1.11004
1.32091
1.60872
1.73819
1.80282
1.85654
1.9227
2.00707
2.12747
2.30018
2.51783
2.72679
2.8711
2.94398
2.97885
2.99015
2.99251
2.99395
2.99348
2.99441
2.99533
2.99519
2.995
2.99441
2.99378
2.99319
2.99234
2.99116
2.99043
2.99084
2.992
2.99307
2.99381
2.9944
2.99458
2.9941
2.99254
2.9905
2.98829
2.98656
2.9848
2.98272
2.97952
2.97486
2.96933
2.96277
2.95515
2.94584
2.93589
2.92396
2.91029
2.89531
2.87865
2.86251
2.84659
2.83064
2.81855
2.80645
2.79456
2.78732
2.78003
2.77277
2.77054
2.76728
2.76316
2.76301
2.76192
2.75852
2.75864
2.75803
2.75614
2.75648
2.75641
2.75619
2.75611
2.75484
2.7534
2.75243
2.75129
2.75545
2.76279
2.77434
2.793
2.81964
2.8465
2.86444
2.87131
0.993471
0.993491
0.993355
0.993172
0.992907
0.992545
0.992173
0.991863
0.991476
0.990929
0.990376
0.989905
0.989424
0.988744
0.98806
0.987495
0.986998
0.986402
0.985784
0.985363
0.985147
0.985107
0.985095
0.98497
0.984849
0.985186
0.986214
0.988109
0.991223
0.996512
1.00693
1.0339
1.11026
1.31518
1.54916
1.68806
1.80222
1.90826
2.02122
2.18127
2.40716
2.6651
2.87245
2.97135
2.99975
3.00411
2.99818
2.99071
2.98593
2.98153
2.97733
2.97464
2.97298
2.97166
2.97077
2.97025
2.97013
2.97014
2.96978
2.96915
2.96911
2.97075