/*--------------------------------*- C++ -*----------------------------------*\
| =========                 |                                                 |
| \\      /  F ield         | OpenFOAM: The Open Source CFD Toolbox           |
|  \\    /   O peration     | Version:  2.2.x                                 |
|   \\  /    A nd           | Web:      www.OpenFOAM.org                      |
|    \\/     M anipulation  |                                                 |
\*---------------------------------------------------------------------------*/
FoamFile
{
    version     2.0;
    format      ascii;
    class       surfaceScalarField;
    location    "1.55";
    object      phi;
}
// * * * * * * * * * * * * * * * * * * * * * * * * * * * * * * * * * * * * * //

dimensions      [1 0 -1 0 0 0 0];

internalField   nonuniform List<scalar> 
28084
(
0.000746224
0.000742988
0.000740213
0.000737877
0.000735962
0.000734443
0.000733299
0.000732503
0.000732031
0.000731856
0.00073195
0.000732288
0.00073284
0.000733581
0.000734484
0.000735523
0.000736673
0.00073791
0.00073921
0.000740553
0.000912038
0.000906465
0.000878501
0.000840086
0.000800085
0.000764708
0.000736499
0.00071526
0.000699575
0.00068787
0.000678857
0.000671614
0.00066553
0.000660215
0.000655424
0.000651004
0.000646861
0.000642931
0.000639173
0.000635554
0.000632049
0.000628634
0.000625288
0.00062199
0.00061872
0.000623754
0.000629014
0.000634446
0.000640003
0.000645646
0.000651339
0.000657043
0.000662726
0.000668354
0.000673898
0.000679331
0.000684626
0.000689763
0.000694721
0.000699482
0.000704033
0.000708357
0.000712444
0.00071628
0.000719854
0.000723151
0.000726156
0.000728848
0.000731202
0.00073318
0.000734731
0.000735781
0.00073622
0.000735924
0.000734802
0.00073276
0.000729704
0.000725537
0.00072017
0.000713525
0.000705542
0.000696189
0.000685466
0.000673419
0.000660141
0.000645776
0.000630516
0.000614594
0.00059827
0.00058182
0.000565517
0.000549615
0.000534339
0.000519879
0.000506388
0.000493982
0.000482748
0.000472741
0.000463995
0.000456522
0.000450312
0.00044533
0.000441516
0.000438779
0.000436986
0.000435949
0.000435413
0.00043503
0.000434326
0.000432664
0.000429201
0.000422832
0.00041215
0.000395403
0.000370507
0.000335116
0.000286829
0.000223511
3.7119e-06
3.23513e-06
0.00074974
2.77572e-06
0.000748785
2.33538e-06
0.000748259
1.91574e-06
0.000748147
1.51833e-06
0.000748429
1.14451e-06
0.000749083
7.95451e-07
0.000750087
4.72133e-07
0.000751415
1.7529e-07
0.000753039
-9.45799e-08
0.000754933
-3.37226e-07
0.000757068
-5.52641e-07
0.000759414
-7.41055e-07
0.000761942
-9.02918e-07
0.000764622
-1.03889e-06
0.000767426
-1.14981e-06
0.000770325
-1.23667e-06
0.000773292
-1.30061e-06
0.0007763
-1.34287e-06
0.000779324
-0.000198806
0.000782341
9.53286e-06
0.000539391
2.45929e-05
0.000568268
3.1219e-05
0.000610278
3.24121e-05
0.000647549
2.93981e-05
0.000675669
2.43749e-05
0.000694642
1.91517e-05
0.000706096
1.47029e-05
0.000711863
1.13194e-05
0.000713524
8.91951e-06
0.00071232
7.28562e-06
0.000709174
6.19312e-06
0.000704733
5.46043e-06
0.000699432
4.95766e-06
0.000693551
4.59869e-06
0.00068727
4.32948e-06
0.000680702
4.1177e-06
0.000673921
3.94486e-06
0.000666977
3.80097e-06
0.000659907
3.68109e-06
0.000652737
3.58306e-06
0.000645486
3.50611e-06
0.000638165
3.44984e-06
0.000630778
3.41346e-06
0.000623317
-4.89708e-06
0.000615769
-5.12958e-06
0.000615006
-5.30817e-06
0.000614131
-5.44423e-06
0.000613094
-5.54182e-06
0.000611862
-5.60291e-06
0.000610408
-5.62889e-06
0.000608713
-5.62106e-06
0.000606763
-5.58068e-06
0.000604553
-5.50912e-06
0.000602085
-5.40798e-06
0.00059937
-5.27892e-06
0.000596428
-5.12355e-06
0.000593285
-4.94348e-06
0.000589977
-4.74013e-06
0.000586542
-4.51462e-06
0.000583021
-4.26786e-06
0.000579456
-4.00115e-06
0.000575884
-3.71533e-06
0.00057234
-3.41012e-06
0.000568851
-3.08452e-06
0.000565439
-2.73716e-06
0.000562117
-2.36533e-06
0.000558892
-1.9633e-06
0.000555756
-1.52207e-06
0.000552697
-1.02761e-06
0.0005497
-4.58246e-07
0.000546755
2.16245e-07
0.000543861
1.00555e-06
0.000541032
1.87481e-06
0.000538267
2.82256e-06
0.000535514
3.84644e-06
0.000532707
4.94137e-06
0.000529763
6.09811e-06
0.00052659
7.30223e-06
0.000523086
8.53348e-06
0.000519144
9.76575e-06
0.000514663
1.09677e-05
0.000509548
1.2104e-05
0.00050372
1.31378e-05
0.000497122
1.40326e-05
0.000489718
1.47558e-05
0.000481503
1.5281e-05
0.000472494
1.55897e-05
0.000462738
1.56734e-05
0.000452302
1.5533e-05
0.000441272
1.51782e-05
0.000429749
1.46261e-05
0.000417848
1.38992e-05
0.000405686
1.30233e-05
0.000393386
1.20256e-05
0.000381067
1.09337e-05
0.00036884
9.77402e-06
0.000356801
8.5722e-06
0.000345023
7.35287e-06
0.000333549
6.14048e-06
0.000322392
4.96038e-06
0.000311528
3.84039e-06
0.000300905
2.81277e-06
0.00029044
1.91706e-06
0.000280034
1.20376e-06
0.000269573
7.39358e-07
0.000258946
6.12924e-07
0.000248046
9.43955e-07
0.000236774
1.89097e-06
0.000225041
3.65948e-06
0.000212748
6.50714e-06
0.000199761
1.07427e-05
0.00018586
1.67128e-05
0.000170686
2.47659e-05
0.000153699
3.51798e-05
0.000134158
4.80318e-05
0.000111158
6.30828e-05
8.3708e-05
0.000223352
5.08817e-05
5.11203e-06
4.19073e-06
0.000754435
3.30116e-06
0.00075573
2.44751e-06
0.000757426
1.63381e-06
0.00075951
8.63806e-07
0.000761963
1.40861e-07
0.000764765
-5.32086e-07
0.000767892
-1.15259e-06
0.000771318
-1.71876e-06
0.000775016
-2.22922e-06
0.000778956
-2.6832e-06
0.000783108
-3.08049e-06
0.00078744
-3.42139e-06
0.000791922
-3.70676e-06
0.00079652
-3.93789e-06
0.000801204
-4.11651e-06
0.000805943
-4.24472e-06
0.000810708
-4.32493e-06
0.000815468
-4.35978e-06
0.000820197
1.62778e-05
0.00082487
-1.00487e-05
0.000758903
-4.48379e-06
0.000750399
6.2885e-06
0.00074997
1.42583e-05
0.000753849
1.78062e-05
0.000759552
1.80817e-05
0.000764814
1.68158e-05
0.000768252
1.52165e-05
0.000769453
1.38469e-05
0.000768618
1.28531e-05
0.000766184
1.21949e-05
0.000762597
1.17796e-05
0.000758215
1.152e-05
0.00075329
1.13509e-05
0.000747989
1.12288e-05
0.000742419
1.11277e-05
0.000736648
1.10332e-05
0.000730721
1.09393e-05
0.000724673
1.08454e-05
0.000718531
1.0755e-05
0.000712321
1.06745e-05
0.000706067
1.06124e-05
0.000699793
1.05788e-05
0.000693527
1.05851e-05
0.000687295
-4.5894e-06
0.000681129
-4.79711e-06
0.000681741
-4.91234e-06
0.000682354
-4.95896e-06
0.000682952
-4.94675e-06
0.000683504
-4.88143e-06
0.000683975
-4.76744e-06
0.000684328
-4.60877e-06
0.00068453
-4.40902e-06
0.000684545
-4.17132e-06
0.000684341
-3.8991e-06
0.000683889
-3.5952e-06
0.000683161
-3.26213e-06
0.00068213
-2.90207e-06
0.000680773
-2.51681e-06
0.000679072
-2.10762e-06
0.00067701
-1.67623e-06
0.000674576
-1.2262e-06
0.000671765
-7.60613e-07
0.000668566
-2.81826e-07
0.000664958
2.04233e-07
0.000660918
6.98041e-07
0.000656421
1.21006e-06
0.000651442
1.74334e-06
0.000645968
2.30251e-06
0.000639991
2.89515e-06
0.000633506
3.53365e-06
0.000626517
4.23765e-06
0.000619036
5.03161e-06
0.000611084
5.93351e-06
0.000602694
6.9553e-06
0.000593902
8.10613e-06
0.000584741
9.3903e-06
0.000575243
1.08052e-05
0.000565434
1.23398e-05
0.000555329
1.3973e-05
0.000544936
1.56738e-05
0.000534251
1.74016e-05
0.000523266
1.9108e-05
0.000511966
2.07397e-05
0.000500341
2.22417e-05
0.000488383
2.35616e-05
0.00047609
2.46535e-05
0.000463472
2.54814e-05
0.000450546
2.60214e-05
0.000437341
2.62634e-05
0.000423896
2.62104e-05
0.00041026
2.58779e-05
0.000396492
2.52913e-05
0.000382661
2.44833e-05
0.000368841
2.34916e-05
0.000355107
2.23559e-05
0.000341534
2.11164e-05
0.000328181
1.98123e-05
0.000315091
1.84818e-05
0.000302281
1.71621e-05
0.000289736
1.58906e-05
0.00027741
1.47061e-05
0.000265228
1.36514e-05
0.000253089
1.27758e-05
0.000240879
1.21396e-05
0.000228485
1.18205e-05
0.000215807
1.19222e-05
0.000202768
1.25861e-05
0.000189326
1.40046e-05
0.000175459
1.64362e-05
0.000161155
2.02187e-05
0.000146389
2.57745e-05
0.000131099
3.36e-05
0.000115187
4.42188e-05
9.85166e-05
5.80808e-05
8.09091e-05
7.53745e-05
6.21184e-05
9.58215e-05
4.18073e-05
0.000274163
1.95859e-05
4.23053e-06
2.89594e-06
0.000760308
1.6045e-06
0.000763821
3.63709e-07
0.000767708
-8.19269e-07
0.000771957
-1.93779e-06
0.000776551
-2.98585e-06
0.000781471
-3.95817e-06
0.000786692
-4.85036e-06
0.000792189
-5.6589e-06
0.000797933
-6.38124e-06
0.000803893
-7.01579e-06
0.000810036
-7.56192e-06
0.00081633
-8.01992e-06
0.000822741
-8.39094e-06
0.000829233
-8.67693e-06
0.000835774
-8.88057e-06
0.00084233
-9.00514e-06
0.000848869
-9.05446e-06
0.00085536
-9.03276e-06
0.000861774
5.46446e-05
0.000868082
-1.37834e-06
0.000883463
-1.33977e-06
0.000862223
6.96468e-06
0.000845464
1.38391e-05
0.000835548
1.74518e-05
0.000830805
1.85676e-05
0.000828796
1.84288e-05
0.000827581
1.79152e-05
0.000826084
1.74479e-05
0.00082392
1.71514e-05
0.00082108
1.70147e-05
0.000817699
1.69865e-05
0.000813931
1.7016e-05
0.000809895
1.70648e-05
0.000805673
1.71079e-05
0.000801315
1.71305e-05
0.000796852
1.71256e-05
0.000792304
1.70913e-05
0.000787685
1.70298e-05
0.000783008
1.69456e-05
0.000778289
1.68457e-05
0.000773543
1.67382e-05
0.000768791
1.66325e-05
0.000764057
1.65384e-05
0.000759372
-5.45807e-06
0.00075477
-5.71513e-06
0.000756631
-5.86657e-06
0.000758588
-5.91947e-06
0.000760622
-5.87856e-06
0.000762699
-5.74765e-06
0.000764778
-5.53024e-06
0.000766818
-5.22972e-06
0.000768778
-4.84942e-06
0.000770615
-4.39275e-06
0.000772286
-3.86324e-06
0.000773747
-3.26458e-06
0.000774956
-2.60092e-06
0.000775865
-1.877e-06
0.000776431
-1.09851e-06
0.000776605
-2.72277e-07
0.000776334
5.88743e-07
0.000775563
1.48804e-06
0.000774231
2.43028e-06
0.000772278
3.41331e-06
0.000769656
4.43471e-06
0.000766315
5.4912e-06
0.000762214
6.57941e-06
0.00075731
7.69752e-06
0.00075157
8.84476e-06
0.000744964
1.00225e-05
0.000737472
1.12356e-05
0.000729085
1.24941e-05
0.000719805
1.38126e-05
0.000709651
1.52044e-05
0.000698657
1.6679e-05
0.000686871
1.82441e-05
0.000674354
1.99036e-05
0.000661176
2.16561e-05
0.000647412
2.3493e-05
0.000633141
2.53968e-05
0.000618436
2.73406e-05
0.000603363
2.92882e-05
0.000587979
3.11949e-05
0.000572328
3.30101e-05
0.000556446
3.46806e-05
0.000540362
3.61543e-05
0.000524099
3.73843e-05
0.000507682
3.83322e-05
0.000491138
3.89716e-05
0.000474498
3.92891e-05
0.0004578
3.92853e-05
0.000441085
3.89741e-05
0.000424403
3.83804e-05
0.000407806
3.75385e-05
0.000391349
3.64893e-05
0.00037509
3.52774e-05
0.000359078
3.39497e-05
0.000343356
3.25536e-05
0.000327949
3.11364e-05
0.000312861
2.97454e-05
0.000298071
2.84282e-05
0.000283531
2.7234e-05
0.000269166
2.62153e-05
0.000254879
2.54299e-05
0.000240563
2.49452e-05
0.00022611
2.48439e-05
0.000211431
2.52328e-05
0.000196468
2.62547e-05
0.000181198
2.81032e-05
0.000165629
3.10378e-05
0.000149782
3.53997e-05
0.000133668
4.16206e-05
0.000117277
5.02193e-05
0.000100592
6.17682e-05
8.35977e-05
7.68008e-05
6.62729e-05
9.56134e-05
4.85466e-05
0.000117984
3.02309e-05
0.000293712
1.1e-05
1.10116e-06
-6.16603e-07
0.000767362
-2.2826e-06
0.000773056
-3.88528e-06
0.000779098
-5.41361e-06
0.000785478
-6.85736e-06
0.00079218
-8.20725e-06
0.000799185
-9.45512e-06
0.000806469
-1.05941e-05
0.000814006
-1.16187e-05
0.000821766
-1.25248e-05
0.000829715
-1.33097e-05
0.000837821
-1.39723e-05
0.000846048
-1.45125e-05
0.000854359
-1.49319e-05
0.000862719
-1.5233e-05
0.00087109
-1.54195e-05
0.000879437
-1.54961e-05
0.000887725
-1.54679e-05
0.000895922
-1.53411e-05
0.000903995
1.11712e-05
0.000911915
1.40322e-05
0.000908605
1.26159e-05
0.000894438
1.69584e-05
0.000883351
2.06491e-05
0.000877608
2.23114e-05
0.000875733
2.25055e-05
0.00087567
2.20827e-05
0.000875846
2.15994e-05
0.000875432
2.12825e-05
0.000874175
2.11626e-05
0.000872143
2.11918e-05
0.000869512
2.13081e-05
0.00086646
2.146e-05
0.000863125
2.16114e-05
0.000859596
2.17396e-05
0.000855931
2.18314e-05
0.000852162
2.18804e-05
0.000848309
2.18845e-05
0.000844384
2.18447e-05
0.000840392
2.17637e-05
0.000836339
2.16455e-05
0.00083223
2.14947e-05
0.000828067
2.13161e-05
0.000823854
2.11142e-05
0.000819595
-7.3615e-06
0.000815291
-7.73455e-06
0.000816566
-7.98095e-06
0.000817911
-8.0937e-06
0.000819283
-8.07211e-06
0.000820637
-7.91753e-06
0.000821929
-7.6321e-06
0.000823114
-7.21824e-06
0.000824147
-6.67863e-06
0.000824984
-6.01599e-06
0.000825579
-5.23309e-06
0.00082589
-4.33284e-06
0.000825871
-3.31822e-06
0.00082548
-2.19235e-06
0.000824674
-9.58358e-07
0.000823409
3.8047e-07
0.000821644
1.82029e-06
0.000819338
3.35738e-06
0.000816455
4.98568e-06
0.000812963
6.69938e-06
0.000808834
8.49184e-06
0.000804043
1.03554e-05
0.000798571
1.22813e-05
0.000792402
1.42613e-05
0.000785524
1.62871e-05
0.000777932
1.83515e-05
0.000769625
2.04495e-05
0.000760606
2.25793e-05
0.000750885
2.47426e-05
0.000740479
2.69412e-05
0.000729408
2.91758e-05
0.000717698
3.14455e-05
0.00070538
3.37471e-05
0.000692485
3.60736e-05
0.000679047
3.84127e-05
0.0006651
4.07456e-05
0.000650679
4.30457e-05
0.000635818
4.52795e-05
0.00062055
4.74061e-05
0.000604904
4.93804e-05
0.000588908
5.11547e-05
0.000572589
5.2683e-05
0.000555974
5.39241e-05
0.00053909
5.48453e-05
0.000521969
5.54246e-05
0.000504647
5.56529e-05
0.000487165
5.55344e-05
0.000469568
5.50857e-05
0.000451908
5.43353e-05
0.00043424
5.33206e-05
0.00041662
5.20868e-05
0.000399106
5.06841e-05
0.000381751
4.91661e-05
0.0003646
4.75881e-05
0.000347686
4.60068e-05
0.000331026
4.4479e-05
0.000314614
4.30618e-05
0.000298423
4.18128e-05
0.0002824
4.07908e-05
0.00026647
4.00576e-05
0.000250543
3.96819e-05
0.000234526
3.9745e-05
0.000218338
4.035e-05
0.000201924
4.16334e-05
0.000185267
4.37793e-05
0.000168382
4.70347e-05
0.000151302
5.17243e-05
0.000134052
5.82644e-05
0.000116646
6.71691e-05
9.90927e-05
7.90324e-05
8.1419e-05
9.44554e-05
6.36571e-05
0.000113858
4.57961e-05
0.000137152
2.77018e-05
0.000304682
9.06542e-06
-4.23855e-06
-6.31051e-06
0.0007756
-8.32484e-06
0.000783435
-1.02651e-05
0.000791593
-1.21158e-05
0.000800066
-1.38623e-05
0.000808839
-1.54915e-05
0.000817893
-1.69919e-05
0.000827205
-1.83535e-05
0.000836747
-1.95684e-05
0.000846488
-2.06308e-05
0.000856394
-2.15365e-05
0.00086643
-2.22836e-05
0.000876558
-2.28719e-05
0.000886739
-2.33029e-05
0.000896934
-2.35801e-05
0.000907106
-2.3708e-05
0.000917214
-2.36927e-05
0.000927224
-2.35412e-05
0.000937098
-2.32614e-05
0.000946804
-1.38844e-05
0.00095631
2.32829e-05
0.000930007
2.20345e-05
0.000922954
2.37216e-05
0.000918153
2.52082e-05
0.000917015
2.56093e-05
0.00091846
2.53002e-05
0.000920798
2.48219e-05
0.00092273
2.44878e-05
0.000923614
2.43834e-05
0.000923329
2.44733e-05
0.000922031
2.46861e-05
0.000919959
2.49556e-05
0.000917338
2.52333e-05
0.000914336
2.54881e-05
0.000911066
2.57019e-05
0.000907603
2.58654e-05
0.000903991
2.59753e-05
0.000900257
2.60318e-05
0.000896418
2.60376e-05
0.000892483
2.59966e-05
0.000888457
2.59138e-05
0.000884344
2.57947e-05
0.000880141
2.56449e-05
0.000875846
2.54701e-05
0.000871454
-8.5939e-06
0.000866955
-9.05097e-06
0.000867132
-9.33653e-06
0.00086735
-9.44486e-06
0.000867555
-9.3749e-06
0.000867701
-9.12763e-06
0.000867742
-8.70503e-06
0.000867633
-8.10969e-06
0.000867332
-7.34459e-06
0.000866795
-6.41296e-06
0.000865979
-5.31826e-06
0.000864844
-4.06412e-06
0.000863348
-2.6543e-06
0.000861456
-1.0926e-06
0.00085913
6.17562e-07
0.00085634
2.47134e-06
0.000853056
4.45982e-06
0.000849254
6.57514e-06
0.000844912
8.80888e-06
0.000840008
1.11524e-05
0.000834527
1.35964e-05
0.000828454
1.61309e-05
0.000821782
1.87448e-05
0.000814506
2.14273e-05
0.000806626
2.41672e-05
0.000798146
2.69542e-05
0.000789075
2.97792e-05
0.000779424
3.26353e-05
0.000769207
3.55181e-05
0.000758443
3.84234e-05
0.00074715
4.13467e-05
0.000735351
4.42816e-05
0.000723065
4.7219e-05
0.000710312
5.01462e-05
0.000697107
5.3045e-05
0.000683466
5.58916e-05
0.000669401
5.86554e-05
0.000654922
6.12995e-05
0.000640042
6.37818e-05
0.00062477
6.60567e-05
0.000609117
6.80778e-05
0.000593098
6.9801e-05
0.000576728
7.1188e-05
0.000560027
7.22089e-05
0.000543019
7.28452e-05
0.000525735
7.30908e-05
0.000508209
7.29528e-05
0.000490481
7.24509e-05
0.000472599
7.16167e-05
0.000454611
7.04914e-05
0.00043657
6.91245e-05
0.00041853
6.75721e-05
0.000400543
6.58949e-05
0.000382656
6.41571e-05
0.000364908
6.24251e-05
0.000347325
6.07662e-05
0.00032992
5.92479e-05
0.000312683
5.79369e-05
0.000295584
5.68988e-05
0.000278572
5.6199e-05
0.000261576
5.59064e-05
0.000244516
5.60986e-05
0.000227317
5.68721e-05
0.000209925
5.83541e-05
0.000192318
6.07164e-05
0.000174508
6.41895e-05
0.000156528
6.90784e-05
0.000138408
7.57788e-05
0.00012017
8.47929e-05
0.000101836
9.67265e-05
8.34434e-05
0.000112238
6.50453e-05
0.000131873
4.66597e-05
0.000155714
2.81871e-05
0.000313712
9.33968e-06
-1.17471e-05
-1.41455e-05
0.000785028
-1.64831e-05
0.00079496
-1.87378e-05
0.000805191
-2.08888e-05
0.000815714
-2.29165e-05
0.000826517
-2.48033e-05
0.000837581
-2.65337e-05
0.000848881
-2.80945e-05
0.000860389
-2.94749e-05
0.000872075
-3.06667e-05
0.000883901
-3.16643e-05
0.000895831
-3.24647e-05
0.000907824
-3.30674e-05
0.00091984
-3.34741e-05
0.000931838
-3.36888e-05
0.000943776
-3.37173e-05
0.000955614
-3.3567e-05
0.000967312
-3.3247e-05
0.000978833
-3.27672e-05
0.000990141
-1.64934e-05
0.0010012
2.74588e-05
0.000977696
2.66494e-05
0.000970605
2.70181e-05
0.000966094
2.72903e-05
0.000965332
2.71072e-05
0.000967212
2.67538e-05
0.00097003
2.65373e-05
0.000972454
2.65802e-05
0.000973813
2.68586e-05
0.000973965
2.72893e-05
0.000973054
2.77879e-05
0.000971318
2.82911e-05
0.000968977
2.87584e-05
0.000966203
2.91675e-05
0.000963112
2.95082e-05
0.000959779
2.9778e-05
0.000956254
2.99788e-05
0.000952568
3.01157e-05
0.000948739
3.01952e-05
0.000944783
3.0225e-05
0.000940709
3.02133e-05
0.000936524
3.01686e-05
0.000932231
3.00996e-05
0.000927834
3.00152e-05
0.000923333
-8.73922e-06
0.000918727
-9.25263e-06
0.000918048
-9.54322e-06
0.000917392
-9.61085e-06
0.000916711
-9.45629e-06
0.00091596
-9.08133e-06
0.000915095
-8.48853e-06
0.000914073
-7.68119e-06
0.000912853
-6.66322e-06
0.000911392
-5.4391e-06
0.00090965
-4.01393e-06
0.000907586
-2.39338e-06
0.000905163
-5.83708e-07
0.000902342
1.4086e-06
0.000899087
3.57543e-06
0.000895364
5.90868e-06
0.000891142
8.39991e-06
0.000886393
1.10393e-05
0.000881091
1.38163e-05
0.000875215
1.67198e-05
0.000868748
1.97384e-05
0.000861677
2.28597e-05
0.000853995
2.60712e-05
0.000845699
2.93596e-05
0.000836795
3.27122e-05
0.000827291
3.61163e-05
0.000817201
3.95603e-05
0.000806547
4.30344e-05
0.00079535
4.65301e-05
0.000783639
5.004e-05
0.000771443
5.35561e-05
0.000758791
5.7069e-05
0.000745713
6.05663e-05
0.000732232
6.40316e-05
0.00071837
6.74434e-05
0.000704144
7.07741e-05
0.000689564
7.39896e-05
0.000674637
7.70501e-05
0.000659368
7.99111e-05
0.000643758
8.25254e-05
0.00062781
8.48459e-05
0.000611527
8.68282e-05
0.000594917
8.84347e-05
0.000577991
8.96363e-05
0.000560764
9.04155e-05
0.000543259
9.07675e-05
0.000525501
9.07003e-05
0.000507523
9.02351e-05
0.000489363
8.94048e-05
0.000471061
8.8253e-05
0.000452663
8.68323e-05
0.000434214
8.52031e-05
0.000415761
8.34321e-05
0.000397348
8.15912e-05
0.000379013
7.97558e-05
0.000360789
7.80035e-05
0.000342694
7.64121e-05
0.000324733
7.50577e-05
0.000306891
7.40138e-05
0.000289133
7.33503e-05
0.000271402
7.31366e-05
0.000253629
7.34475e-05
0.000235742
7.43723e-05
0.000217682
7.60283e-05
0.000199421
7.85741e-05
0.000180961
8.22246e-05
0.000162328
8.72652e-05
0.000143554
9.40715e-05
0.000124663
0.00010313
0.000105677
0.000115052
8.66404e-05
0.000130541
6.76117e-05
0.00015026
4.86278e-05
0.000174477
2.9621e-05
0.000323003
1.03342e-05
-2.13788e-05
-2.40774e-05
0.000795653
-2.67144e-05
0.000807633
-2.92614e-05
0.00081989
-3.16915e-05
0.000832419
-3.39798e-05
0.000845207
-3.61035e-05
0.000858235
-3.80425e-05
0.000871481
-3.97797e-05
0.000884914
-4.13012e-05
0.000898502
-4.25963e-05
0.000912208
-4.36576e-05
0.000925991
-4.44808e-05
0.000939811
-4.5065e-05
0.000953624
-4.54121e-05
0.000967386
-4.55266e-05
0.000981054
-4.54156e-05
0.000994585
-4.50881e-05
0.00100794
-4.45551e-05
0.00102107
-4.38289e-05
0.00103395
-2.32416e-05
0.00104653
3.15831e-05
0.00102309
3.07657e-05
0.00101673
2.98598e-05
0.00101317
2.89804e-05
0.00101334
2.82281e-05
0.00101603
2.78243e-05
0.00101954
2.78671e-05
0.00102255
2.82992e-05
0.0010244
2.89875e-05
0.00102496
2.97971e-05
0.0010244
3.0626e-05
0.00102296
3.14095e-05
0.00102087
3.21129e-05
0.00101829
3.27207e-05
0.00101535
3.32298e-05
0.00101214
3.36437e-05
0.00100869
3.39696e-05
0.00100504
3.4217e-05
0.00100122
3.43964e-05
0.000997243
3.45185e-05
0.000993123
3.45945e-05
0.00098887
3.46354e-05
0.000984491
3.4652e-05
0.000979994
3.46549e-05
0.000975383
-8.04353e-06
0.000970661
-8.59764e-06
0.000969143
-8.8825e-06
0.000967626
-8.90057e-06
0.000966067
-8.65404e-06
0.000964422
-8.14549e-06
0.000962649
-7.37814e-06
0.000960707
-6.35587e-06
0.000958556
-5.08333e-06
0.000956156
-3.56589e-06
0.000953468
-1.80972e-06
0.000950453
1.78267e-07
0.000947075
2.39065e-06
0.000943298
4.81785e-06
0.000939088
7.45014e-06
0.000934413
1.02771e-05
0.000929242
1.32872e-05
0.00092355
1.64681e-05
0.00091731
1.98062e-05
0.000910504
2.32872e-05
0.000903114
2.68961e-05
0.000895128
3.06174e-05
0.000886539
3.44349e-05
0.000877345
3.83324e-05
0.000867551
4.22938e-05
0.000857165
4.63033e-05
0.000846203
5.03461e-05
0.000834684
5.44089e-05
0.000822633
5.84802e-05
0.000810079
6.25493e-05
0.000797051
6.66057e-05
0.000783581
7.06378e-05
0.000769701
7.46315e-05
0.000755438
7.85689e-05
0.000740817
8.24271e-05
0.000725857
8.61773e-05
0.000710572
8.97843e-05
0.000694971
9.32073e-05
0.00067906
9.6401e-05
0.000662839
9.93179e-05
0.000646311
0.00010191
0.000629477
0.000104135
0.000612342
0.000105953
0.000594914
0.000107337
0.000577205
0.000108269
0.000559234
0.000108745
0.000541024
0.000108773
0.000522602
0.000108374
0.000504001
0.000107582
0.000485257
0.000106441
0.000466408
0.000105006
0.000447494
0.000103339
0.000428558
0.000101513
0.000409639
9.96057e-05
0.000390774
9.76995e-05
0.000371997
9.58813e-05
0.000353331
9.42384e-05
0.000334788
9.28564e-05
0.000316362
9.18163e-05
0.000298027
9.11936e-05
0.000279738
9.10594e-05
0.000261429
9.1486e-05
0.000243031
9.25569e-05
0.000224481
9.43795e-05
0.000205739
9.71004e-05
0.000186799
0.000100919
0.000167676
0.000106104
0.000148399
0.000113011
0.000128991
0.000122109
0.000109475
0.000134006
8.9894e-05
0.000149441
7.03088e-05
0.000169178
5.07698e-05
0.000193673
3.12407e-05
0.000333272
1.15027e-05
-3.30838e-05
-3.60577e-05
0.000807485
-3.89715e-05
0.000821461
-4.17898e-05
0.000835692
-4.44792e-05
0.000850176
-4.70084e-05
0.000864899
-4.9349e-05
0.000879845
-5.14759e-05
0.000894989
-5.33677e-05
0.000910301
-5.50069e-05
0.000925746
-5.63799e-05
0.000941287
-5.74773e-05
0.000956881
-5.82936e-05
0.000972484
-5.88272e-05
0.000988052
-5.90801e-05
0.00100354
-5.90575e-05
0.00101889
-5.87677e-05
0.00103408
-5.82215e-05
0.00104905
-5.7432e-05
0.00106375
-5.6414e-05
0.00107816
-3.15478e-05
0.00109224
3.50584e-05
0.00106669
3.39342e-05
0.00106143
3.18613e-05
0.00105932
2.99968e-05
0.00106087
2.87979e-05
0.00106473
2.84229e-05
0.00106916
2.87805e-05
0.00107286
2.96484e-05
0.00107523
3.07912e-05
0.0010762
3.20243e-05
0.00107597
3.32277e-05
0.00107478
3.43349e-05
0.00107289
3.53156e-05
0.00107048
3.61611e-05
0.00106767
3.68747e-05
0.00106453
3.74658e-05
0.00106113
3.7947e-05
0.0010575
3.8332e-05
0.00105366
3.86348e-05
0.00104965
3.88696e-05
0.00104547
3.90502e-05
0.00104113
3.91899e-05
0.00103665
3.93016e-05
0.00103204
3.93974e-05
0.0010273
-6.52419e-06
0.00102243
-7.09876e-06
0.00102006
-7.36168e-06
0.00101768
-7.31616e-06
0.00101523
-6.96521e-06
0.00101267
-6.31217e-06
0.00100998
-5.36085e-06
0.0010071
-4.11584e-06
0.001004
-2.58256e-06
0.00100064
-7.67304e-07
0.000996989
1.323e-06
0.000993003
3.67985e-06
0.000988649
6.29357e-06
0.000983895
9.15366e-06
0.000978709
1.22484e-05
0.000973059
1.55651e-05
0.00096692
1.90898e-05
0.000960264
2.28073e-05
0.00095307
2.67014e-05
0.000945319
3.07546e-05
0.000936996
3.4949e-05
0.00092809
3.92655e-05
0.000918596
4.36847e-05
0.000908513
4.8187e-05
0.000897846
5.27527e-05
0.000886603
5.73628e-05
0.000874801
6.19988e-05
0.000862459
6.66438e-05
0.000849601
7.12825e-05
0.000836254
7.59006e-05
0.000822447
8.04844e-05
0.00080821
8.50196e-05
0.000793573
8.94901e-05
0.000778563
9.38762e-05
0.000763204
9.8154e-05
0.000747516
0.000102294
0.000731512
0.000106261
0.000715203
0.000110014
0.000698595
0.000113507
0.00068169
0.000116696
0.00066449
0.000119531
0.000646999
0.000121971
0.000629222
0.000123979
0.000611167
0.000125526
0.000592846
0.000126596
0.000574278
0.000127185
0.000555486
0.000127302
0.000536495
0.000126966
0.000517338
0.000126213
0.000498047
0.000125087
0.000478659
0.000123644
0.000459211
0.000121949
0.000439742
0.000120079
0.00042029
0.000118116
0.000400891
0.000116149
0.000381579
0.000114274
0.000362379
0.000112587
0.000343309
0.000111181
0.000324367
0.000110145
0.000305535
0.000109561
0.000286772
0.000109502
0.000268016
0.000110039
0.000249198
0.000111251
0.000230249
0.000113237
0.000211122
0.000116131
0.000191798
0.00012012
0.000172285
0.000125456
0.000152605
0.000132476
0.00013278
0.00014163
0.000112833
0.000153517
9.28021e-05
0.000168894
7.27498e-05
0.000188615
5.27372e-05
0.000213317
3.27574e-05
0.000344697
1.26347e-05
-4.68079e-05
-5.00336e-05
0.000820535
-5.3203e-05
0.000836449
-5.6273e-05
0.000852599
-5.92028e-05
0.000868983
-6.19543e-05
0.000885589
-6.44928e-05
0.0009024
-6.67879e-05
0.000919391
-6.88132e-05
0.000936531
-7.05474e-05
0.000953785
-7.19738e-05
0.000971112
-7.30807e-05
0.000988469
-7.38611e-05
0.00100581
-7.43128e-05
0.00102309
-7.44377e-05
0.00104025
-7.42418e-05
0.00105725
-7.37349e-05
0.00107405
-7.29294e-05
0.00109059
-7.18409e-05
0.00110683
-7.04866e-05
0.00112273
-3.94446e-05
0.00113825
3.77369e-05
0.00111079
3.59296e-05
0.00110656
3.27739e-05
0.00110591
3.01258e-05
0.00110893
2.86673e-05
0.00111401
2.84639e-05
0.00111934
2.92413e-05
0.00112368
3.06247e-05
0.00112651
3.22865e-05
0.00112782
3.3998e-05
0.00112784
3.56244e-05
0.00112686
3.70989e-05
0.00112514
3.83968e-05
0.00112286
3.95162e-05
0.00112014
4.04673e-05
0.00111707
4.12657e-05
0.0011137
4.19291e-05
0.00111007
4.24757e-05
0.00110622
4.29237e-05
0.00110216
4.32903e-05
0.00109791
4.35923e-05
0.00109349
4.38454e-05
0.00108891
4.40648e-05
0.00108418
4.42644e-05
0.00107931
-4.17307e-06
0.00107431
-4.74802e-06
0.00107112
-4.97153e-06
0.00106788
-4.84706e-06
0.00106457
-4.37809e-06
0.00106114
-3.56849e-06
0.00105755
-2.42281e-06
0.00105377
-9.4649e-07
0.00104976
8.54304e-07
0.00104548
2.97237e-06
0.0010409
5.39916e-06
0.00103597
8.12509e-06
0.00103067
1.11393e-05
0.00102497
1.44296e-05
0.00101883
1.79824e-05
0.00101223
2.17828e-05
0.00100513
2.58147e-05
0.000997523
3.00603e-05
0.000989377
3.45007e-05
0.000980677
3.91159e-05
0.000971411
4.38846e-05
0.000961569
4.87851e-05
0.000951148
5.37946e-05
0.000940149
5.88903e-05
0.000928577
6.40494e-05
0.000916444
6.92494e-05
0.000903765
7.44686e-05
0.000890562
7.96865e-05
0.000876858
8.4884e-05
0.000862681
9.00434e-05
0.000848058
9.51474e-05
0.00083302
0.000100179
0.000817593
0.000105118
0.000801804
0.000109945
0.000785676
0.000114632
0.000769225
0.00011915
0.000752465
0.000123464
0.000735406
0.000127531
0.000718054
0.000131309
0.00070041
0.000134751
0.00068248
0.000137812
0.000664265
0.000140449
0.000645773
0.000142627
0.000627013
0.00014432
0.000607999
0.000145511
0.000588751
0.000146196
0.000569292
0.000146384
0.000549649
0.000146098
0.000529855
0.000145371
0.000509942
0.000144248
0.000489947
0.000142788
0.000469905
0.000141058
0.000449855
0.000139137
0.000429833
0.000137113
0.000409876
0.000135082
0.000390018
0.000133144
0.000370288
0.000131406
0.000350703
0.000129969
0.000331268
0.000128929
0.000311968
0.000128373
0.000292764
0.000128378
0.000273599
0.000129015
0.000254399
0.000130358
0.000235094
0.000132499
0.000215627
0.000135564
0.000195971
0.000139726
0.000176126
0.000145222
0.000156108
0.000152369
0.000135938
0.000161599
0.000115635
0.000173495
9.52368e-05
0.000188822
7.4804e-05
0.000208503
5.44065e-05
0.000233345
3.40649e-05
0.000357245
1.36486e-05
-6.24921e-05
-6.59478e-05
0.000834816
-6.93531e-05
0.000852607
-7.26565e-05
0.000870615
-7.58091e-05
0.00088884
-7.87653e-05
0.000907271
-8.14839e-05
0.000925891
-8.39282e-05
0.000944674
-8.60669e-05
0.000963588
-8.78744e-05
0.000982597
-8.93305e-05
0.00100166
-9.0421e-05
0.00102073
-9.11374e-05
0.00103975
-9.14766e-05
0.00105869
-9.14407e-05
0.00107748
-9.10365e-05
0.00109608
-9.02749e-05
0.00111444
-8.91707e-05
0.00113251
-8.77415e-05
0.00115024
-8.60076e-05
0.00116758
-4.7326e-05
0.00118451
3.97467e-05
0.00115716
3.68625e-05
0.00115368
3.26419e-05
0.00115423
2.93858e-05
0.00115848
2.78577e-05
0.00116455
2.79802e-05
0.00117056
2.92911e-05
0.00117533
3.1273e-05
0.00117843
3.35163e-05
0.00117992
3.57564e-05
0.00118008
3.78486e-05
0.00117922
3.97283e-05
0.00117761
4.13775e-05
0.00117541
4.28022e-05
0.00117276
4.40197e-05
0.00116973
4.50517e-05
0.00116639
4.59214e-05
0.00116276
4.66516e-05
0.00115889
4.72642e-05
0.00115479
4.778e-05
0.00115048
4.82188e-05
0.00114599
4.85991e-05
0.00114133
4.8938e-05
0.0011365
4.92518e-05
0.00113152
-1.01321e-06
0.00112641
-1.57073e-06
0.00112242
-1.73919e-06
0.00111837
-1.52191e-06
0.00111423
-9.22605e-07
0.00110996
5.42517e-08
0.00110553
1.40369e-06
0.00110088
3.11977e-06
0.001096
5.19539e-06
0.00109083
7.62231e-06
0.00108536
1.0391e-05
0.00107953
1.34904e-05
0.00107332
1.69083e-05
0.0010667
2.06309e-05
0.00105964
2.46426e-05
0.00105211
2.89264e-05
0.00104408
3.3464e-05
0.00103554
3.8235e-05
0.00102646
4.3218e-05
0.00101682
4.83902e-05
0.00100662
5.37275e-05
0.000995839
5.92049e-05
0.000984485
6.4797e-05
0.000972558
7.04777e-05
0.000960065
7.6221e-05
0.000947017
8.20013e-05
0.000933434
8.77939e-05
0.000919336
9.35749e-05
0.000904749
9.93218e-05
0.0008897
0.000105013
0.000874218
0.000110629
0.000858331
0.000116148
0.000842066
0.00012155
0.000825449
0.000126809
0.0008085
0.000131899
0.000791235
0.000136787
0.000773668
0.000141439
0.000755806
0.000145812
0.000737655
0.000149863
0.000719217
0.000153547
0.000700497
0.000156819
0.000681498
0.000159639
0.000662229
0.000161973
0.0006427
0.000163794
0.000622927
0.000165088
0.000602932
0.000165852
0.00058274
0.000166095
0.00056238
0.000165839
0.000541885