/*--------------------------------*- C++ -*----------------------------------*\
| =========                 |                                                 |
| \\      /  F ield         | OpenFOAM: The Open Source CFD Toolbox           |
|  \\    /   O peration     | Version:  2.2.x                                 |
|   \\  /    A nd           | Web:      www.OpenFOAM.org                      |
|    \\/     M anipulation  |                                                 |
\*---------------------------------------------------------------------------*/
FoamFile
{
    version     2.0;
    format      ascii;
    class       surfaceScalarField;
    location    "2";
    object      cfmax;
}
// * * * * * * * * * * * * * * * * * * * * * * * * * * * * * * * * * * * * * //

dimensions      [0 3 -1 0 0 0 0];

internalField   nonuniform List<scalar> 
28084
(
0.00126606
0.00118857
0.00116754
0.0011538
0.00116691
0.00117965
0.00119889
0.00120444
0.00120013
0.00118137
0.00114879
0.00113368
0.00112114
0.00113005
0.00114494
0.00116881
0.0011896
0.00119897
0.001194
0.0011854
0.00117479
0.00117852
0.00118416
0.0011931
0.00120893
0.00123299
0.00125423
0.00127521
0.00132402
0.00142854
0.00108681
0.000993076
0.00101291
0.00101165
0.00101148
0.00101194
0.00101284
0.00101476
0.00101955
0.00102865
0.00103582
0.00103854
0.00103842
0.00103457
0.00102596
0.00103364
0.00103996
0.0010469
0.00105453
0.00106255
0.00107111
0.00107446
0.00107361
0.00106735
0.00105995
0.0010565
0.00105394
0.00105433
0.00105823
0.00106157
0.00106732
0.00107523
0.00108183
0.00108844
0.00109418
0.00109921
0.00110377
0.00110857
0.00111469
0.0011211
0.0011283
0.00113517
0.00114173
0.00115041
0.00115842
0.00116304
0.00116315
0.00115904
0.0011516
0.00114347
0.001134
0.00112106
0.00110954
0.00109854
0.00108916
0.00108116
0.00107311
0.00106547
0.00105752
0.00104789
0.00103591
0.00101947
0.000993346
0.000962078
0.000925134
0.000884262
0.00084998
0.000820187
0.000799272
0.000783859
0.000771216
0.000760568
0.00075184
0.000743735
0.000740454
0.000739795
0.000739509
0.000738208
0.000735055
0.000731634
0.000730259
0.000733393
0.000738702
0.000743781
0.000742174
0.0007409
0.000741861
0.000753449
0.00299438
0.00345338
0.00103594
0.00339652
0.00125426
0.00337965
0.00129252
0.00339549
0.00128134
0.00339132
0.00125687
0.00325043
0.00120883
0.00304527
0.00111351
0.00294052
0.0010922
0.00293722
0.00109493
0.00300828
0.00112983
0.00297708
0.00119979
0.00289852
0.00126791
0.00283473
0.00127537
0.00278048
0.00127102
0.00272771
0.00123789
0.00250647
0.00116686
0.00233478
0.00111382
0.00225556
0.00110717
0.00221514
0.00112571
0.00225887
0.00117369
0.00221046
0.00126637
0.00213248
0.00129749
0.00205309
0.00130359
0.00198352
0.00129632
0.00187179
0.0012759
0.00176646
0.00125243
0.00169641
0.00125402
0.00163768
0.00126413
0.00161602
0.00127304
0.0015498
0.00130139
0.00118248
0.000926744
0.00110963
0.000852674
0.0010262
0.000818023
0.000963503
0.000799696
0.000914236
0.000796191
0.00086883
0.000798031
0.000824144
0.00079924
0.000780657
0.000799981
0.000736142
0.000799179
0.000689766
0.000795551
0.000644513
0.000792125
0.000603776
0.000789368
0.000568228
0.000788308
0.000536405
0.000788966
0.000538572
0.000789359
0.000538451
0.000798921
0.000537911
0.00080819
0.000537211
0.00081805
0.000537049
0.000828371
0.000537088
0.000839114
0.000537308
0.000850191
0.0005371
0.000861589
0.000537688
0.00087363
0.00054159
0.000886831
0.000545228
0.000902001
0.000549414
0.000917854
0.000553956
0.000934305
0.000558377
0.000950505
0.000563731
0.000965601
0.000570245
0.000979413
0.000574753
0.000991676
0.000577577
0.0010033
0.000579993
0.00101482
0.000582763
0.00102511
0.000587619
0.00103424
0.000592216
0.00104219
0.000595702
0.00104836
0.000597841
0.00105266
0.000599888
0.00105479
0.000602266
0.00105564
0.000605137
0.00105425
0.000607482
0.00105141
0.000608745
0.00104729
0.000607715
0.00104212
0.000605892
0.00103659
0.000609589
0.00103082
0.000612842
0.0010257
0.000614743
0.00101938
0.000617409
0.00101132
0.000618417
0.00100197
0.000618754
0.000989822
0.000618805
0.000977107
0.00061893
0.000964293
0.000618539
0.000950415
0.000618624
0.000936726
0.000618641
0.000922365
0.000618278
0.000906972
0.000617473
0.000890676
0.000616331
0.00087333
0.000613615
0.000854967
0.000609736
0.000834984
0.000605926
0.000813442
0.000604671
0.000791993
0.000604927
0.000771915
0.000604982
0.000752635
0.000603408
0.000735369
0.00060334
0.000722547
0.000603938
0.00071288
0.000604372
0.000705482
0.000605023
0.000700617
0.000603316
0.000696529
0.000602705
0.000695344
0.000602843
0.000695075
0.000601776
0.000694874
0.000603498
0.000694915
0.000607657
0.000694758
0.000614118
0.000694391
0.000622809
0.000694325
0.000629446
0.000695428
0.000632964
0.000696276
0.000635338
0.000695872
0.000640132
0.000692579
0.000644445
0.000688864
0.000655706
0.000686402
0.000661463
0.000684974
0.000672837
0.000688826
0.000669707
0.000697275
0.000715793
0.000710996
0.0030686
0.00345807
0.00138862
0.0032154
0.0011282
0.00311141
0.00107845
0.00311336
0.00110084
0.00326167
0.0011239
0.00331966
0.00122717
0.00311504
0.00137297
0.00296279
0.00139563
0.00293233
0.00137557
0.00301533
0.00131638
0.00295159
0.00122157
0.00270139
0.00111129
0.00259748
0.0011095
0.00256442
0.00112925
0.00268961
0.00118966
0.00256072
0.00131088
0.00237533
0.0014244
0.00226457
0.00143648
0.00221599
0.00140924
0.00226805
0.00136367
0.00215424
0.0012668
0.00201691
0.00121893
0.00194172
0.00124054
0.00189661
0.00127157
0.00187301
0.00133164
0.00177796
0.00141198
0.00168677
0.00143813
0.00160429
0.00143181
0.00157529
0.00141039
0.00145695
0.00135718
0.00107139
0.00085623
0.00100353
0.000778034
0.000910623
0.000744852
0.000844438
0.000727205
0.000794411
0.00072211
0.000749196
0.00071968
0.000709581
0.000722355
0.000673116
0.000725349
0.000640205
0.000729112
0.000609831
0.000734529
0.000580589
0.00074159
0.000551343
0.000748225
0.000522065
0.000754206
0.000494867
0.000759767
0.000503404
0.000764626
0.000505518
0.000777963
0.000507735
0.000791072
0.000509859
0.000804508
0.000512424
0.000818385
0.00051495
0.000832769
0.000517638
0.000847539
0.000520044
0.000862844
0.000522812
0.000878878
0.000526425
0.000896014
0.000530833
0.000914404
0.000535695
0.000932863
0.000540289
0.000950674
0.000544992
0.000967776
0.000549461
0.000983701
0.000553912
0.000998469
0.000557845
0.00101162
0.000561143
0.00102298
0.00056437
0.00103274
0.000567814
0.00104145
0.000571748
0.00104903
0.00057491
0.00105489
0.000577742
0.00105881
0.00057983
0.00106083
0.000581191
0.00106023
0.000581832
0.00105754
0.000581888
0.00105245
0.000580619
0.00104552
0.00057851
0.00103693
0.000579244
0.00102782
0.000579003
0.00101756
0.000579477
0.00100679
0.000579401
0.000995023
0.000577726
0.00098209
0.00057607
0.000967872
0.00057411
0.000951738
0.000571855
0.000933577
0.00057123
0.000914781
0.00057116
0.000895505
0.000569485
0.000875942
0.000568909
0.000856449
0.000567851
0.000836982
0.000567241
0.000818002
0.000567322
0.000799489
0.000567628
0.000780489
0.00056835
0.000760436
0.000571862
0.000740923
0.000574579
0.000721659
0.000580083
0.000704159
0.00058533
0.000689223
0.000586378
0.000676499
0.000584028
0.000667065
0.000583983
0.000660864
0.000584413
0.000656529
0.000585792
0.000655538
0.000587098
0.000657104
0.000588035
0.00066113
0.000590804
0.000664165
0.000594055
0.000667394
0.000599222
0.000669955
0.000604849
0.000671012
0.000611781
0.000670472
0.000619773
0.000669822
0.000628217
0.00067024
0.000634965
0.000671868
0.000640593
0.000674151
0.000645534
0.000675333
0.000652352
0.000674674
0.00065992
0.000674433
0.000672731
0.000674514
0.000678361
0.000676929
0.00069052
0.000683916
0.000683372
0.000695822
0.000730993
0.000709244
0.00273735
0.0034439
0.00098515
0.00325358
0.00136637
0.00310217
0.0014287
0.00310475
0.00142265
0.00327008
0.00136519
0.00326516
0.00127209
0.00288278
0.00110072
0.00269682
0.00107054
0.00269509
0.00109033
0.00296077
0.00111706
0.00294482
0.00130004
0.00267335
0.00148027
0.00257781
0.00148641
0.00258683
0.00145159
0.00272342
0.001401
0.00246866
0.00124793
0.00220824
0.00114838
0.00206731
0.00115713
0.002065
0.00117467
0.00223016
0.001236
0.00215371
0.00143117
0.00200228
0.00153888
0.00193133
0.00153717
0.00191019
0.00151143
0.00190268
0.0014627
0.00178498
0.00139825
0.00167254
0.00138361
0.00159237
0.00138477
0.00150276
0.00138453
0.00121724
0.00131384
0.0010515
0.000844582
0.000997812
0.000795012
0.000908963
0.000776818
0.000837383
0.00076364
0.000785568
0.00076218
0.000743476
0.000764997
0.000704573
0.000769078
0.000668861
0.000774047
0.000635983
0.000778925
0.000605188
0.000783576
0.000575864
0.000788586
0.000546697
0.000793877
0.00051792
0.000800036
0.000489866
0.00080605
0.000502471
0.000812015
0.000505233
0.000825884
0.000508368
0.000840451
0.000511452
0.000855045
0.000515078
0.000870087
0.000518519
0.000885678
0.000522348
0.000901871
0.00052615
0.000918598
0.000530248
0.00093587
0.000534364
0.00095364
0.000538889
0.000971797
0.000543346
0.000989557
0.000547231
0.00100658
0.000551184
0.00102284
0.000554605
0.00103705
0.00055697
0.00104899
0.000558837
0.00105932
0.000559315
0.0010679
0.000560146
0.00107455
0.000560957
0.00107925
0.000561444
0.0010823
0.000561978
0.00108314
0.0005615
0.00108199
0.000560873
0.00107897
0.000559483
0.00107379
0.000557987
0.00106677
0.000558459
0.00105782
0.000561053
0.00104833
0.00056263
0.00103846
0.000565595
0.0010283
0.00056761
0.0010183
0.000569938
0.00100788
0.000572162
0.000997711
0.000573081
0.000986599
0.000575259
0.000974591
0.000576033
0.000961324
0.000574191
0.000946579
0.000573005
0.000928858
0.000571612
0.000907098
0.000568114
0.000883279
0.000566394
0.000859847
0.000565092
0.000837518
0.000564638
0.0008161
0.000565544
0.00079526
0.000567539
0.00077439
0.000570687
0.000753813
0.000576733
0.000733234
0.000580098
0.000713325
0.00058469
0.000695377
0.000588229
0.000679526
0.000587558
0.000667611
0.00058644
0.000659332
0.000587357
0.000654849
0.000586778
0.000652749
0.000588152
0.000652404
0.000591677
0.000653981
0.000595928
0.000656063
0.000600713
0.000657871
0.000605198
0.000658829
0.000609064
0.000658987
0.000612393
0.000658962
0.000617133
0.000658097
0.000624453
0.000657105
0.000631692
0.000656341
0.000638521
0.000656237
0.000647163
0.000656933
0.00065517
0.000657477
0.000665678
0.000659594
0.00067585
0.000662131
0.000688744
0.000666455
0.000693928
0.000672547
0.000704395
0.000681758
0.000696063
0.000694589
0.000746323
0.000708486
0.00273629
0.00343596
0.00147069
0.00310449
0.00111763
0.00292013
0.0010259
0.00294627
0.00106306
0.00315804
0.00109933
0.00327624
0.00128089
0.00292454
0.00150815
0.00272134
0.00154714
0.00268817
0.00152351
0.00296043
0.00144935
0.00292899
0.0013139
0.00260074
0.00112661
0.00247168
0.00113806
0.00246625
0.0011562
0.00263028
0.00124927
0.00246404
0.00143457
0.00221326
0.00161888
0.00207348
0.00164488
0.00206961
0.0016028
0.00223238
0.00153652
0.00212925
0.00139716
0.00193678
0.00127954
0.00185057
0.00129014
0.00182562
0.00133821
0.00183863
0.00142548
0.00176712
0.00154602
0.00165997
0.00159488
0.00158033
0.00160039
0.0014944
0.00158255
0.00120101
0.00155985
0.00108966
0.000989866
0.00101912
0.000895449
0.000926184
0.000862666
0.000848531
0.000851413
0.000796625
0.000848882
0.000757876
0.000849384
0.000719448
0.000851586
0.000683342
0.000854283
0.000649377
0.000856945
0.000616983
0.000859981
0.00058632
0.000863892
0.000556626
0.000868101
0.000526955
0.000872398
0.000497661
0.000876071
0.000512217
0.000879833
0.000515134
0.000891103
0.000518439
0.00090431
0.000521767
0.000918402
0.000525652
0.000933441
0.000529047
0.000949019
0.000532744
0.000965131
0.000536269
0.000981883
0.000540327
0.000999483
0.000544691
0.00101795
0.000548832
0.00103691
0.000552588
0.00105598
0.000555801
0.00107418
0.000558737
0.0010917
0.000560794
0.00110831
0.000562189
0.00112429
0.000562585
0.00113903
0.000562194
0.00115137
0.000561217
0.00116316
0.000560791
0.00117282
0.000560148
0.0011804
0.000559566
0.00118543
0.000558152
0.00118748
0.000558835
0.00118608
0.000561073
0.00118179
0.000563305
0.00117466
0.000565022
0.00116618
0.00056818
0.00115531
0.000569862
0.00114304
0.000573074
0.00112819
0.000575284
0.00111236
0.000577229
0.00109391
0.0005796
0.00107525
0.000580669
0.00105462
0.000583848
0.00103307
0.000585873
0.00101162
0.000586341
0.000989868
0.00058746
0.00096757
0.000587703
0.000944331
0.000583399
0.000920563
0.000581115
0.000894189
0.000579276
0.00086995
0.000578488
0.000846178
0.000579798
0.000822077
0.00058221
0.000798393
0.00058522
0.000775646
0.00059118
0.000753288
0.000592771
0.00073184
0.000596066
0.000712157
0.000596437
0.000695601
0.000593983
0.000685504
0.000590846
0.000678033
0.000591297
0.000673783
0.000590915
0.000671283
0.000591154
0.000668771
0.000593675
0.00066692
0.00059761
0.000666943
0.000602997
0.00066774
0.00060765
0.000668833
0.000611348
0.000668979
0.000616124
0.000668511
0.000621969
0.000667384
0.000629451
0.00066571
0.000636783
0.00066374
0.000644477
0.000661381
0.00065469
0.000659192
0.000663994
0.000656536
0.000676342
0.000655664
0.000686386
0.000657439
0.000699134
0.00066243
0.000705093
0.000668816
0.000715066
0.000679548
0.000707139
0.000693272
0.000759255
0.000707509
0.00268471
0.00342265
0.000985057
0.00314472
0.00145618
0.00292394
0.00154407
0.00291432
0.00153055
0.0031941
0.00146929
0.0033037
0.00135848
0.00285179
0.00113308
0.00259292
0.00111454
0.00253105
0.00113173
0.00287166
0.00114427
0.00292666
0.001382
0.00256548
0.00165049
0.00241257
0.0016624
0.00247516
0.00161715
0.00270028
0.0015324
0.00248959
0.00137451
0.00218316
0.00124459
0.00201142
0.00124811
0.0019606
0.00127506
0.00214393
0.00129911
0.00212335
0.00154059
0.00192237
0.00174548
0.00181631
0.00176194
0.00182654
0.00172782
0.00187257
0.00167457
0.00182989
0.00159079
0.00170486
0.00155256
0.00159246
0.00153575
0.00152136
0.00154217
0.00137076
0.00159176
0.00116268
0.00108117
0.00105201
0.000953654
0.000945109
0.000911844
0.000859989
0.000898662
0.000803232
0.000896087
0.000765129
0.00089826
0.000726556
0.000901456
0.000690225
0.000905718
0.000656502
0.000910958
0.000624116
0.000916286
0.000592799
0.000921358
0.000562303
0.000927028
0.00053184
0.000933383
0.000502159
0.000939756
0.000520551
0.000946698
0.000524118
0.000960751
0.000528801
0.000977773
0.000533242
0.000995865
0.000537948
0.00101413
0.000541852
0.00103232
0.000545877
0.00105076
0.000549596
0.00106946
0.000553739
0.00108836
0.000558261
0.00110765
0.000562278
0.00112696
0.000565464
0.00114573
0.000567768
0.00116377
0.000570536
0.0011806
0.000572251
0.00119609
0.000575032
0.00121084
0.000576784
0.00122451
0.000578496
0.00123688
0.000580009
0.00124792
0.000580901
0.00125714
0.000580957
0.00126443
0.000580091
0.00126975
0.000580261
0.00127144
0.000585182
0.00126952
0.000588394
0.00126457
0.000593117
0.00125774
0.000595436
0.00124864
0.000599502
0.00123701
0.000601683
0.00122392
0.000604205
0.00120715
0.000605871
0.0011912
0.000604972
0.00117319
0.000606642
0.00115261
0.000603879
0.00113103
0.000602784
0.00110606
0.000603973
0.00108213
0.000602988
0.00105629
0.000605
0.00102896
0.000607132
0.00100341
0.000603221
0.000976534
0.000601042
0.00094805
0.000599407
0.000921528
0.000598653
0.000894819
0.000599721
0.000868015
0.000601965
0.000841389
0.000604082
0.000815724
0.000609348
0.000790613
0.000608183
0.000766578
0.000608706
0.000742536
0.000603093
0.000723274
0.000598903
0.000709508
0.000592999
0.000700032
0.000592761
0.0006948
0.000592383
0.000690761
0.00059204
0.000687008
0.000594274
0.0006844
0.000598905
0.000683252
0.000604924
0.000682532
0.000611207
0.000682482
0.000616521
0.000682217
0.00062266
0.000679885
0.000630362
0.00067702
0.000639345
0.000674044
0.00064728
0.000670814
0.000655325
0.000666596
0.000666092
0.000662987
0.000674099
0.000659107
0.000686254
0.000657422
0.000694989
0.000658367
0.000707646
0.000662776
0.000714406
0.000668618
0.000724524
0.000679813
0.000717595
0.000693681
0.000770802
0.000708281
0.00263909
0.00343593
0.00153986
0.00311158
0.00115475
0.00283823
0.00103616
0.00283663
0.00107425
0.00304619
0.00110519
0.00326024
0.00132159
0.00283992
0.0016069
0.00258174
0.00168962
0.00253017
0.00165635
0.00289998
0.00158267
0.0029545
0.00142924
0.00257376
0.00119489
0.00238907
0.00119461
0.00239185
0.00122915
0.00252703
0.00129221
0.00243567
0.00150831
0.00214529
0.00178467
0.00198233
0.00186145
0.00196404
0.00180713
0.00216492
0.00171698
0.00215124
0.00157922
0.00192146
0.00138746
0.00178739
0.0013662
0.00176561
0.00140849
0.00177783
0.00150447
0.00176369
0.00165386
0.00166262
0.00174838
0.00157751
0.00176765
0.00152771
0.00173933
0.00143111
0.00172795
0.0012545
0.001193
0.00108441
0.00107801
0.000956316
0.00101664
0.000863798
0.000997278
0.000803254
0.000997004
0.000767384
0.00100314
0.000730586
0.00101166
0.000696548
0.00101917
0.000664987
0.0010277
0.000634326
0.00103614
0.000604106
0.00104398
0.000574679
0.0010514
0.000545047
0.00105884
0.000517118
0.00106678
0.000539567
0.00107508
0.000547902
0.00109082
0.000555399
0.00110885
0.000561237
0.00112606
0.000566803
0.00114394
0.00057149
0.00116221
0.000576291
0.00118085
0.000580801
0.00119936
0.000585483
0.00121762
0.000590406
0.00123562
0.00059443
0.00125327
0.00059718
0.00127028
0.000599104
0.00128717
0.00060112
0.00130392
0.000601392
0.00131959
0.000602636
0.00133456
0.000602244
0.00134887
0.0006005
0.00136115
0.000599046
0.00137228
0.000596153
0.00138057
0.000593711
0.00138735
0.000589564
0.00139196
0.000591323
0.00139464
0.000599275
0.00139634
0.000603374
0.00139549
0.000610165
0.00139116
0.000615046
0.0013817
0.000621596
0.00136968
0.00062717
0.00135604
0.000630906
0.00134051
0.000636682
0.00132337
0.00063597
0.00130442
0.000639902
0.00128254
0.000639619
0.00125915
0.000637313
0.00123142
0.000639029
0.00120383
0.000635888
0.00117381
0.000636136
0.00113718
0.000637849
0.00110454
0.000632605
0.00106952
0.000628854
0.00103183
0.000626605
0.00099739
0.000625295
0.000964188
0.00062607
0.00093243
0.000628167
0.000902083
0.000629009
0.000872887
0.000632527
0.000844518
0.000629543
0.000815802
0.000625584
0.000785951
0.000614637
0.000760044
0.000606034
0.000739093
0.000595866
0.000725093
0.0005931
0.000716556
0.000591851
0.000707815
0.000592612
0.000701703
0.000595677
0.000698963
0.000600636
0.000696481
0.000607216
0.000694988
0.000615171
0.000694284
0.000623436
0.000693903
0.000630939
0.000692709
0.000639075
0.00068961
0.000648666
0.00068516
0.000657422
0.000679975
0.000665464
0.000673376
0.000676006
0.000667711
0.000683924
0.000662329
0.000696491
0.000660546
0.000703771
0.000661715
0.000715839
0.000665541
0.000722945
0.000670228
0.000733648
0.000681429
0.000728078
0.000695152
0.000780924
0.000711788
0.00268212
0.00338821
0.00100855
0.00311049
0.00151935
0.00283298
0.00165835
0.00277151
0.00164158
0.00311943
0.00157249
0.0034081
0.00146485
0.00290108
0.0012191
0.00257711
0.00116952
0.00247963
0.00117572
0.00275668
0.00119863
0.00291779
0.00143992
0.00252015
0.00180487
0.0022829
0.00184154
0.00237787
0.00180071
0.00262544
0.00170037
0.00258435
0.00155182
0.00225662
0.00137249
0.00203641
0.00135512
0.00192112
0.0013712
0.00202806
0.00140139
0.00211321
0.00163096
0.00189717
0.00195909
0.00174607
0.00201998
0.00174658
0.00200976
0.00181044
0.00196696
0.0018423
0.00186069
0.00174497
0.00177526
0.00163422
0.00174495
0.00154475
0.00175396
0.00151106
0.00180953
0.00133188
0.00133102
0.00116
0.00122098
0.00100576
0.00115991
0.000900859
0.0011458
0.000838269
0.00116427
0.00080513
0.00118506
0.000770929
0.00119528
0.000737293
0.00120316
0.00070589
0.00120588
0.000675823
0.00120701
0.000644754
0.00120874
0.000614246
0.00121221
0.000582904
0.00121664
0.000553204
0.00122167
0.000580883
0.00122761
0.000586237
0.00124099
0.000591046
0.00125675
0.000594977
0.00127122
0.000599464
0.00128605
0.000603649
0.00130102
0.000607979
0.00131605
0.000611657
0.00133131
0.00061533
0.00134658
0.000618978
0.00136172
0.000621746
0.00137639
0.000623317
0.00139043
0.000624402
0.00140498
0.000625117
0.00142047
0.000624215
0.00143522
0.000625548
0.00145123
0.000623961
0.00146516
0.000622046
0.00147875
0.000619674
0.00149051
0.000615505
0.00150002
0.000612292
0.00150782
0.000606665
0.00151151
0.00060586
0.00151532
0.000615799
0.00151516
0.000627349
0.00151293
0.000635592
0.00150823
0.000647618
0.00149884
0.000655153
0.00149007
0.000665704
0.00147847
0.000671027
0.00146388
0.000680116
0.00144662
0.000682379
0.00142621
0.000687357
0.00139975
0.000691149
0.00137647
0.000688053
0.00134907
0.000691506
0.00131715
0.000688889
0.00128381
0.000684481
0.00124142
0.000685546
0.00120273
0.000677782
0.00116377
0.000669587
0.00112065
0.000664536
0.00108187
0.000659941
0.00104152
0.000658378
0.00100163
0.000659507
0.000964333
0.000659287
0.000929244
0.000661585
0.000895444
0.00065727
0.000861641
0.000647836
0.000825123
0.00063005
0.000792356
0.000615727
0.000763873
0.000599807
0.000744743
0.00059542
0.000733302
0.000594318
0.000723217
0.000594287
0.000716741
0.000597767
0.000714066
0.000602891
0.000712522
0.000610031
0.000711214
0.000619554
0.000710417
0.00062965
0.000710291
0.000638784
0.000708382
0.000647978
0.000703809
0.000658601
0.000698017
0.000668622
0.000691564
0.000676627
0.00068377
0.000686202
0.000676702
0.000693494
0.000669675
0.000706183
0.000666739
0.000712634
0.000666902
0.000724492
0.000670231
0.000731509
0.000673842
0.000742919
0.000684658
0.000738559
0.000698546
0.000789966
0.000714753
0.00260772
0.00342969
0.00160412
0.00319358
0.0012342
0.00284074
0.00107736
0.00277122
0.0011003
0.00304304
0.00115025
0.0032617
0.00136991
0.0028171
0.00169699
0.00250921
0.00183385
0.00244802
0.0017928
0.00284208
0.00172633
0.00303115
0.00157296
0.00261675
0.00129098
0.00234493
0.00125713
0.00236873
0.00131042
0.00250174
0.00137094
0.00244589
0.00158192
0.00216258
0.00193975
0.00195958
0.00213255
0.00189462
0.00206837
0.00209496
0.001978
0.00226882
0.00184367
0.00199635
0.00157791
0.00181221
0.00148607
0.00178249
0.00153858
0.00180283
0.00163178
0.00182223
0.00180806
0.00171687
0.00198531
0.00161818
0.00207615
0.00155755
0.00209162
0.00158292
0.0021307
0.0013992
0.00146527
0.00122629
0.0013318
0.00104891
0.00127378
0.000927384
0.001281
0.000894284
0.00131445
0.000860577
0.00134674
0.00082327
0.00136145
0.000784812
0.00137284
0.000744233
0.00137759
0.000709303
0.00138063
0.000675891
0.00138311
0.000644368
0.00138716
0.000612188
0.0013916
0.000581048
0.0013961
0.000615621
0.00140082
0.000623803
0.00141093
0.000631609
0.0014249
0.000638634
0.00143741
0.000645091
0.00144977
0.000650047
0.0014622
0.000654866
0.00147538
0.000658097
0.00148899
0.00066102
0.00150296
0.000663505
0.00151674
0.000664695
0.00152988
0.000665022
0.00154226
0.000666076
0.00155551
0.000665543
0.0015692
0.000665396
0.00158326
0.000667278
0.00159973
0.00066533
0.00161145
0.000664769
0.00162532
0.000660892
0.00163856
0.000658367
0.00165081
0.000652009
0.00166074
0.000647412
0.00166572
0.000640861
0.00167127
0.000647884
0.00166727
0.000656554
0.00166552
0.000665779
0.00165841
0.000675884
0.00165205
0.000687703
0.00164151
0.000699961
0.0016301
0.000711953
0.00161426
0.000722517
0.00159764
0.000731495
0.0015764
0.000734868
0.00155232
0.00074363
0.00152556
0.000739498
0.00149705
0.000744725
0.00145593
0.000745826
0.0014203
0.000737696
0.00138099
0.000737046
0.00134024
0.00072734
0.00129962
0.000717015
0.00124914
0.000711846
0.00120194
0.00070443
0.00115277
0.000698878
0.00110217
0.000697471
0.0010543
0.000695398
0.00101105
0.000696065
0.000969199
0.000689808
0.000927726
0.000675317
0.000883857
0.000650698
0.000840577
0.00062858
0.000798278
0.00060499
0.000772944
0.000598126
0.000757925
0.0005961
0.000745573
0.000595114
0.000736341
0.000598004
0.000730688
0.000603826
0.000726996
0.000611469
0.000725256
0.000621345
0.000724125
0.000633133
0.000722851
0.00064484
0.00072025
0.000655931
0.000716641
0.00066801
0.000710501
0.00067995
0.000703031
0.000688435
0.000695181
0.000697943
0.000687814
0.00070433
0.000680169
0.000716568
0.000676065
0.000721977
0.000675375
0.000733891
0.000677585
0.000740499
0.000679794
0.000752342
0.000689587
0.000748912
0.000702425
0.000798257
0.000716629
0.00270931
0.00334839
0.00105029
0.00313762
0.00155954
0.00278618
0.00176189
0.00267788
0.00175587
0.0030936
0.00170136
0.00352337
0.00158808
0.00300716
0.00134981
0.00262048
0.00123183
0.00252071
0.00123257
0.00281185
0.0012762
0.00293256
0.00153811
0.00252058
0.00200583
0.00221252
0.00211731
0.00231201
0.00207503
0.00256822
0.00195342
0.0027873
0.00180267
0.00243268
0.00160191
0.00211303
0.00147253
0.00200835
0.00151077
0.00209061
0.00154959
0.00216958
0.00178927
0.00192617
0.00223569
0.00173929
0.00240831
0.00171751
0.00247609
0.00178794
0.0024441
0.00185039
0.00233721
0.00187998
0.00222161
0.00181841
0.0021382
0.00163927
0.00214036
0.00175014
0.00218071
0.00146855
0.00174925
0.00127672
0.00145681
0.00108496
0.00143715
0.000985075
0.00149478
0.000979372
0.00156238
0.000938565
0.00158734
0.000896911
0.00159861
0.000857026
0.00160211
0.000815263
0.00159868
0.000776804
0.00159432
0.000739608
0.00159079
0.000703432
0.00158522
0.000668413
0.00158446
0.000632934
0.00158186
0.000672395
0.00157959
0.000677973
0.00158343
0.000682713
0.00158975
0.000687309
0.00159664
0.000691287
0.001606
0.000694584
0.00161504
0.000698359
0.00162687
0.000701455
0.00163928
0.000704767
0.00165316
0.000707803
0.00166819
0.000709393
0.00168233
0.0007102
0.00169615
0.000711415
0.00171
0.000710358
0.00172331
0.000710186
0.00173792
0.000709516
0.00174965
0.000706146
0.00175757
0.000705517
0.00176984
0.000700337
0.00177867
0.00069864
0.00178554
0.000690417
0.00179529
0.00068708
0.00179642
0.000677736
0.00180386
0.000686921
0.00180353
0.000696444
0.00180763
0.00070982
0.001802
0.000719751
0.00179931
0.000734398
0.00179101
0.000741724
0.00178209
0.000758523
0.00176689
0.000766174
0.00175102
0.000782247
0.00173113
0.000785038
0.00170771
0.000799724
0.00167677
0.000801512
0.00164646
0.000804654
0.00160395
0.000809422
0.00156702
0.000800956
0.00152426
0.000803777
0.00147871
0.000795951
0.00143145
0.00077746
0.00137011
0.000769218
0.00130627
0.000756007
0.00124557
0.000744193
0.00117632
0.000738614
0.00111368
0.000733979
0.00106242
0.00073264
0.00101456
0.000725203
0.00096877
0.000707594
0.000920386
0.000677265
0.000872463
0.000644802
0.000821616
0.000612085
0.000787706
0.000604936
0.000768078
0.000600986
0.000756857
0.000597697
0.000747555
0.000599379
0.000741922
0.000604381
0.000737247
0.000612856
0.00073431
0.000624106
0.000732506
0.0006369
0.000730929
0.000650078
0.000729014
0.000664004
0.00072626
0.000678199
0.000721026
0.000691592
0.000714337
0.000700748
0.000707665
0.000710233
0.00070029
0.000716194
0.00069318
0.000727319
0.00068813
0.000731763
0.000686188
0.000744028
0.000686963
0.000749631
0.000688055
0.00076167
0.000696666
0.000759345
0.000707587
0.000806532
0.00071785
0.00260742
0.00342364
0.001679
0.00333685
0.00133746
0.00293769
0.00113439
0.00279402
0.00114691
0.0031149
0.00121766
0.00337375
0.00143093
0.00283773
0.00176662
0.00248261
0.00202155
0.00244281
0.00198378
0.00288041
0.00192475
0.00322626
0.00174289
0.00275183
0.00148387
0.00240285
0.00133349
0.00246723
0.00141608
0.00259999
0.00148441
0.0026899
0.00172762
0.00225708
0.00217491
0.00205587
0.00254372
0.00192811
0.00255477
0.00210144
0.00243026
0.00245924
0.00220826
0.00219838
0.00193164
0.00196322
0.00170114
0.00191219
0.0017336
0.00196461
0.00188295
0.00200888
0.00208933
0.00196167
0.00231909
0.00179815
0.00247645
0.00164367
0.0025889
0.00183635
0.00264431
0.00158969
0.00231318
0.00130341
0.00166914
0.00112416
0.00163988
0.0011341
0.00168153
0.00110063
0.00175428
0.00105259
0.00178967
0.000993783
0.00180762
0.000937294
0.00181307
0.000883913
0.00180366
0.000835512
0.00179317
0.000790425
0.00178055
0.000746529
0.0017704
0.000705557
0.00175904
0.000664011
0.00174949
0.000708108
0.00173951
0.00071249
0.0017406
0.000716786
0.00174524
0.000722374
0.00175267
0.000727322
0.00176313
0.000732172
0.00177371
0.000736227
0.00178624
0.00073958
0.00179706
0.000743196
0.00181156
0.00074602
0.00182526
0.000747819
0.00183792
0.000748616
0.00184949
0.000749174
0.00186012
0.000747553
0.00186933
0.00074645
0.00188164
0.000741374
0.00188825
0.000738232
0.00188951
0.000733889
0.00189821
0.000729139
0.00189837
0.000724105
0.00190934
0.000717006
0.00190976
0.000710651
0.0019175
0.000702901
0.00191497
0.00070796
0.00191829
0.000722194
0.00191212
0.000735447
0.00191246
0.000751205
0.001905
0.000765387
0.0019037
0.000782764
0.00189448
0.000797005
0.00188976
0.000815144
0.00187439
0.000828768
0.00186528
0.000844178
0.00183953
0.000855861
0.00181537
0.000868702
0.00179263
0.000872311
0.00177178
0.000883204
0.00173207
0.000874694
0.00169012
0.000880722
0.0016295
0.000878863
0.00157525
0.000854337
0.00150468
0.000845674
0.00143355
0.000832205
0.00135976
0.000808905
0.00127894
0.000794353
0.00120392
0.000784767
0.00114031
0.000779109
0.00108276
0.000768059
0.00102816
0.000744237
0.000973405
0.000708309
0.000916817
0.000664739
0.000855663
0.000621737
0.000814053
0.000610249
0.000789345
0.000604626
0.000775284
0.000599485
0.000764037
0.000600907
0.000757754
0.000605749
0.000753128
0.000614398
0.000750272
0.000626103
0.000748235
0.000639966
0.000746088
0.000654978
0.000743145
0.000671822
0.000739837
0.000687778
0.000735535
0.000702803
0.000729824
0.000713006
0.000724282
0.000722215
0.000716922
0.000728158
0.000709802
0.000738301
0.000703389
0.000741997
0.000699176
0.000754233
0.000697699
0.0007591
0.000696852
0.000771644
0.000703402
0.000770481
0.000712457
0.000815156
0.000719322
0.00278951
0.00339789
0.00110721
0.00319798
0.00159932
0.00280974
0.00187704
0.00267052
0.00188984
0.0031094
0.00184913
0.00368421
0.00175265
0.00319565
0.00153326
0.00277827
0.00132524
0.00270459
0.00132128
0.00302778
0.00140938
0.00306341
0.00169414
0.00258159
0.00227786
0.00220193
0.00256059
0.00233478
0.00247074
0.00257744
0.00233225
0.00300681
0.00215553
0.00278974
0.00198206
0.00250836
0.00180139
0.00236866
0.00182448
0.0024066
0.0019303
0.00243559
0.00217198
0.00202732
0.00253403
0.00181182
0.00289689
0.00178662
0.00296268
0.00190142
0.00294342
0.00199535
0.00287776
0.00203363
0.00277616
0.00202145
0.00270891
0.00191755
0.00269144
0.00189543
0.00265572
0.00180429
0.00259719