/*--------------------------------*- C++ -*----------------------------------*\
| =========                 |                                                 |
| \\      /  F ield         | OpenFOAM: The Open Source CFD Toolbox           |
|  \\    /   O peration     | Version:  2.2.x                                 |
|   \\  /    A nd           | Web:      www.OpenFOAM.org                      |
|    \\/     M anipulation  |                                                 |
\*---------------------------------------------------------------------------*/
FoamFile
{
    version     2.0;
    format      ascii;
    class       volScalarField;
    location    "0.09";
    object      p;
}
// * * * * * * * * * * * * * * * * * * * * * * * * * * * * * * * * * * * * * //

dimensions      [1 -1 -2 0 0 0 0];

internalField   nonuniform List<scalar> 
1024
(
0.1
0.1
0.1
0.1
0.1
0.1
0.1
0.1
0.1
0.1
0.1
0.1
0.1
0.1
0.1
0.1
0.1
0.1
0.1
0.1
0.1
0.1
0.1
0.1
0.1
0.1
0.1
0.1
0.1
0.1
0.1
0.1
0.1
0.1
0.1
0.1
0.1
0.1
0.1
0.1
0.1
0.1
0.1
0.1
0.1
0.1
0.1
0.1
0.1
0.1
0.1
0.1
0.1
0.1
0.1
0.1
0.1
0.1
0.1
0.1
0.1
0.1
0.1
0.1
0.1
0.1
0.1
0.1
0.1
0.1
0.1
0.1
0.1
0.1
0.1
0.1
0.1
0.1
0.1
0.1
0.1
0.1
0.1
0.1
0.1
0.1
0.1
0.1
0.1
0.1
0.1
0.1
0.1
0.1
0.1
0.1
0.1
0.1
0.1
0.1
0.1
0.1
0.1
0.1
0.1
0.1
0.1
0.1
0.1
0.1
0.1
0.1
0.1
0.1
0.1
0.1
0.1
0.1
0.1
0.1
0.1
0.1
0.1
0.1
0.1
0.1
0.1
0.1
0.1
0.1
0.1
0.1
0.1
0.1
0.1
0.1
0.1
0.1
0.1
0.1
0.1
0.1
0.1
0.1
0.1
0.1
0.1
0.1
0.0999999
0.0999999
0.0999998
0.0999997
0.0999995
0.0999993
0.0999989
0.0999983
0.0999973
0.0999959
0.0999939
0.0999909
0.0999866
0.0999804
0.0999717
0.0999595
0.0999426
0.0999197
0.099889
0.0998484
0.0997956
0.0997282
0.0996434
0.0995391
0.0994128
0.0992635
0.0990903
0.0988942
0.0986772
0.0984438
0.0982023
0.0979574
0.0977127
0.0974519
0.0971994
0.0969241
0.0967093
0.0964201
0.0962389
0.0959559
0.0957628
0.0954887
0.0952783
0.0949827
0.0947526
0.0943898
0.0942177
0.0938188
0.0937252
0.093329
0.0932593
0.0929113
0.0927992
0.0924833
0.0923269
0.0920155
0.091804
0.091401
0.0912435
0.0907691
0.0907776
0.0903269
0.0903782
0.0900467
0.0899643
0.0896831
0.0894666
0.0891874
0.0888841
0.0888561
0.088528
0.0885968
0.0883832
0.0883345
0.0882344
0.0880932
0.0881075
0.0879651
0.0879917
0.087884
0.0879261
0.0878373
0.0879044
0.0878321
0.0878882
0.0878648
0.0878906
0.0879012
0.0879378
0.0879356
0.0880142
0.0879816
0.0880613
0.088036
0.0881083
0.0880895
0.0881394
0.0881236
0.0881629
0.0881561
0.088183
0.0881785
0.0881912
0.0881978
0.0882088
0.0882242
0.0882279
0.0882233
0.0882354
0.0882336
0.0882362
0.0882351
0.0882362
0.0882364
0.0882357
0.0882379
0.0882411
0.088237
0.0882334
0.0882319
0.0882341
0.0882331
0.0882352
0.0882347
0.088238
0.0882349
0.0882337
0.0882249
0.0882207
0.0882084
0.0881902
0.0881888
0.0881693
0.0881796
0.0881697
0.0881773
0.0881773
0.0881818
0.08818
0.088183
0.0881864
0.0881915
0.0881932
0.0882031
0.0881959
0.0882004
0.0881941
0.0881974
0.088197
0.0881952
0.0881959
0.0881825
0.0881983
0.0881817
0.0881944
0.0881804
0.0881879
0.0881828
0.0881827
0.0881834
0.0881817
0.0881812
0.0881846
0.0881808
0.0881821
0.0881745
0.0881703
0.0881586
0.0881474
0.0881313
0.0881323
0.0881238
0.0881267
0.088123
0.0881268
0.0881286
0.0881351
0.0881386
0.0881445
0.0881444
0.0881479
0.088144
0.0881482
0.0881436
0.0881441
0.0881384
0.0881403
0.0881308
0.0881253
0.0881245
0.0881234
0.0881222
0.0881223
0.0881202
0.0881228
0.0881258
0.0881293
0.0881288
0.0881316
0.0881321
0.0881311
0.08813
0.0881285
0.0881272
0.0881254
0.0881266
0.0881299
0.0881329
0.0881395
0.0881394
0.088145
0.0881495
0.0881618
0.0881679
0.0881744
0.0881767
0.0881736
0.0881796
0.0881678
0.0881542
0.0881313
0.0881384
0.0881218
0.0881254
0.0881129
0.0881119
0.0881052
0.0881052
0.088097
0.0880928
0.0880909
0.0880858
0.0880857
0.0880812
0.0880734
0.0880742
0.0881147
0.0884397
0.0912476
0.119107
0.320059
0.451745
0.503116
0.501693
0.510614
0.51131
0.510461
0.510275
0.509577
0.509713
0.509971
0.509958
0.509899
0.509842
0.509868
0.509928
0.509968
0.509984
0.509988
0.509997
0.510006
0.510006
0.509985
0.509974
0.509973
0.509973
0.50998
0.509992
0.510022
0.510056
0.510079
0.510088
0.510084
0.510069
0.510044
0.510001
0.50997
0.509951
0.509945
0.50995
0.509966
0.509983
0.509998
0.510008
0.510011
0.51
0.509965
0.509916
0.509875
0.50984
0.509812
0.509794
0.509791
0.509793
0.509797
0.509807
0.509799
0.509777
0.509754
0.509729
0.509701
0.509669
0.509646
0.509637
0.509645
0.509664
0.509684
0.509693
0.509689
0.509669
0.509642
0.509627
0.509635
0.509671
0.509715
0.509733
0.509704
0.509618
0.509501
0.509411
0.509374
0.509408
0.509531
0.509622
0.50962
0.509532
0.509367
0.509226
0.509151
0.509185
0.509333
0.509457
0.509491
0.509445
0.50925
0.509095
0.509021
0.50905
0.50932
0.509569
0.50965
0.509623
0.509278
0.508928
0.508782
0.508757
0.509079
0.509543
0.509693
0.509665
0.509229
0.508449
0.508094
0.50802
0.508398
0.509488
0.510063
0.510136
0.509618
0.507999
0.5071
0.507082
0.507699
0.510185
0.512474
0.514089
0.514424
0.513949
0.515352
0.518376
0.523161
0.530148
0.538193
0.546498
0.553689
0.558759
0.565041
0.573068
0.582767
0.59585
0.610533
0.623311
0.6303
0.633609
0.643041
0.657449
0.682899
0.710548
0.734353
0.743244
0.683438
0.577225
0.504246
0.48673
0.483159
0.48247
0.482319
0.48225
0.482207
0.48218
0.482162
0.482144
0.482122
0.482098
0.48208
0.482083
0.482102
0.482117
0.482117
0.482108
0.482097
0.482067
0.481985
0.481906
0.481708
0.48137
0.48102
0.480457
0.479682
0.478984
0.478493
0.478215
0.478094
0.47827
0.478712
0.478935
0.479642
0.481117
0.482703
0.48414
0.486628
0.489559
0.492129
0.495557
0.499271
0.502823
0.506819
0.511029
0.515133
0.519515
0.52389
0.528285
0.532782
0.537327
0.541904
0.54652
0.551126
0.555774
0.560437
0.56517
0.569896
0.574682
0.579479
0.584303
0.589193
0.594089
0.599062
0.604046
0.609084
0.614133
0.619223
0.624321
0.62948
0.634629
0.639868
0.645073
0.650401
0.655713
0.661111
0.666511
0.671954
0.677379
0.682887
0.688366
0.693973
0.699568
0.705266
0.710962
0.716727
0.722483
0.728311
0.734131
0.740033
0.745934
0.751911
0.757894
0.763941
0.769998
0.776112
0.782238
0.788418
0.794608
0.800856
0.807109
0.813426
0.819749
0.826141
0.832545
0.839012
0.845504
0.852044
0.858615
0.865221
0.871855
0.878512
0.885186
0.89187
0.898557
0.905219
0.91184
0.918412
0.924922
0.931352
0.937678
0.943869
0.94989
0.955699
0.961251
0.966501
0.971402
0.975913
0.980002
0.983645
0.986832
0.989568
0.99187
0.993769
0.995303
0.996518
0.997461
0.998178
0.998713
0.999105
0.999386
0.999586
0.999724
0.999819
0.999883
0.999925
0.999953
0.99997
0.999982
0.999989
0.999993
0.999996
0.999998
0.999999
0.999999
1
1
1
1
1
1
1
1
1
1
1
1
1
1
1
1
1
1
1
1
1
1
1
1
1
1
1
1
1
1
1
1
1
1
1
1
1
1
1
1
1
1
1
1
1
1
1
1
1
1
1
1
1
1
1
1
1
1
1
1
1
1
1
1
1
1
1
1
1
1
1
1
1
1
1
1
1
1
1
1
1
1
1
1
1
1
1
1
1
1
1
1
1
1
1
1
1
1
1
1
1
1
1
1
1
1
1
1
1
1
1
1
1
1
1
1
1
1
1
1
1
1
1
1
1
1
1
1
1
1
1
1
1
1
1
1
1
1
1
1
1
1
1
1
1
1
1
1
1
1
1
1
1
1
1
1
1
1
1
1
1
1
1
1
1
1
1
1
1
1
1
1
1
1
1
1
1
1
1
1
1
1
1
1
1
1
1
1
1
1
1
1
1
1
1
1
1
1
1
1
1
1
1
1
1
1
1
1
1
1
1
1
1
1
1
1
1
1
1
1
1
1
1
1
1
1
1
1
1
1
1
1
1
1
1
1
1
1
1
1
1
1
1
1
1
1
1
1
1
1
1
1
1
1
1
1
1
1
1
1
1
1
1
1
1
1
1
1
1
1
1
1
1
1
1
1
1
1
1
1
1
1
1
1
1
1
1
1
1
1
1
1
1
1
1
1
1
1
1
1
1
1
1
1
1
1
1
1
1
1
1
1
1
1
1
1
1
1
1
1
1
1
1
1
1
1
1
1
)
;

boundaryField
{
    front-back
    {
        type            empty;
    }
    inlet-outlet
    {
        type            zeroGradient;
    }
    top-down
    {
        type            empty;
    }
}


// ************************************************************************* //
