/*--------------------------------*- C++ -*----------------------------------*\
| =========                 |                                                 |
| \\      /  F ield         | OpenFOAM: The Open Source CFD Toolbox           |
|  \\    /   O peration     | Version:  2.2.x                                 |
|   \\  /    A nd           | Web:      www.OpenFOAM.org                      |
|    \\/     M anipulation  |                                                 |
\*---------------------------------------------------------------------------*/
FoamFile
{
    version     2.0;
    format      ascii;
    class       volScalarField;
    location    "2.25";
    object      Ma;
}
// * * * * * * * * * * * * * * * * * * * * * * * * * * * * * * * * * * * * * //

dimensions      [0 0 0 0 0 0 0];

internalField   nonuniform List<scalar> 
14161
(
2.61617
2.61431
2.61498
2.61545
2.61621
2.61716
2.61819
2.61938
2.62077
2.62214
2.62391
2.62538
2.62676
2.62931
2.63119
2.63235
2.63376
2.6372
2.63944
2.64058
2.64104
2.64336
2.64669
2.64847
2.64941
2.6494
2.64982
2.65264
2.65355
2.65386
2.65387
2.65228
2.65049
2.64822
2.6453
2.64098
2.63505
2.62703
2.62166
2.61299
2.60089
2.58436
2.56374
2.5548
2.55266
0.837516
0.543891
0.517404
0.518628
0.535369
0.550584
0.579737
0.604396
0.631822
0.657609
0.68309
0.708225
0.730825
0.75358
0.774016
0.793658
0.812194
0.829187
0.844454
0.857792
0.869644
0.880034
0.888841
0.896237
0.902589
0.907181
0.910997
0.913717
0.916254
0.924362
0.928156
0.931011
0.931948
0.942708
0.946093
0.947041
0.957898
0.960663
0.956932
0.970464
0.975035
0.978914
0.981707
0.977121
0.991485
0.996238
0.999379
0.99898
1.01383
1.01837
1.02139
1.03479
1.04155
1.05492
1.06421
1.07482
1.09014
1.09849
1.10749
1.11335
1.11282
1.12127
1.06142
0.971305
0.795473
0.635779
0.500638
0.395698
0.310953
0.244655
0.183082
0.132032
0.0818282
0.0510913
2.61617
2.61431
2.61499
2.61545
2.61621
2.61716
2.61819
2.61938
2.62077
2.62215
2.62389
2.62532
2.6268
2.62936
2.63115
2.63239
2.63386
2.63735
2.63933
2.64039
2.64112
2.64358
2.6468
2.64847
2.64923
2.64941
2.65012
2.65274
2.65362
2.65399
2.65414
2.6525
2.65076
2.64844
2.64519
2.64047
2.63451
2.62865
2.62377
2.61542
2.60265
2.58651
2.5621
2.55257
2.53757
0.836285
0.543496
0.515638
0.517578
0.538277
0.554311
0.583375
0.607564
0.63372
0.657886
0.681574
0.705435
0.7278
0.750428
0.771168
0.791101
0.810037
0.827344
0.843112
0.857132
0.86976
0.880561
0.889746
0.897414
0.90406
0.909386
0.914245
0.918069
0.92154
0.92998
0.933774
0.936475
0.937316
0.948182
0.951289
0.952308
0.962892
0.965184
0.961122
0.974728
0.979248
0.982677
0.984609
0.98055
0.995082
0.999817
1.00256
1.00233
1.01724
1.02149
1.02429
1.03793
1.0445
1.05812
1.06795
1.07822
1.09259
1.09986
1.10563
1.10772
1.09513
1.08301
0.98207
0.849035
0.685636
0.542448
0.426183
0.344189
0.274852
0.222273
0.17218
0.134308
0.0959093
0.0894818
2.61617
2.61431
2.61499
2.61545
2.61621
2.61716
2.61821
2.61938
2.62077
2.62219
2.62384
2.62533
2.62688
2.6293
2.63101
2.63244
2.63404
2.63723
2.63902
2.64028
2.64139
2.64391
2.64673
2.64813
2.64912
2.64975
2.65071
2.6528
2.65362
2.65419
2.65427
2.65293
2.6513
2.64904
2.6463
2.64255
2.63744
2.63083
2.62514
2.61639
2.60325
2.5888
2.56528
2.55353
2.52303
0.83636
0.539079
0.514958
0.514665
0.539989
0.559491
0.591183
0.617022
0.64321
0.668549
0.691614
0.715836
0.738317
0.760787
0.781436
0.801096
0.819735
0.836493
0.852339
0.866332
0.879014
0.889642
0.898632
0.906268
0.912724
0.91816
0.923062
0.926844
0.930166
0.938441
0.942261
0.944987
0.9465
0.956667
0.959406
0.960927
0.970462
0.972097
0.968684
0.981362
0.985874
0.98903
0.990781
0.987594
1.0008
1.00557
1.00789
1.00884
1.02268
1.02675
1.0299
1.04365
1.04993
1.06281
1.0728
1.08205
1.0944
1.09607
1.09832
1.08804
1.05403
1.00419
0.856772
0.712541
0.57356
0.470127
0.384602
0.318969
0.262299
0.220119
0.179882
0.153915
0.126284
0.133725
2.61616
2.6143
2.61498
2.61544
2.6162
2.61715
2.61821
2.61935
2.62077
2.62221
2.62378
2.62535
2.62701
2.62919
2.63082
2.63255
2.63434
2.63695
2.63861
2.64036
2.64189
2.64421
2.64623
2.64753
2.6492
2.6505
2.65169
2.65287
2.65359
2.65423
2.65408
2.65345
2.65238
2.65057
2.64865
2.6453
2.6409
2.63493
2.6286
2.62142
2.60791
2.59396
2.56961
2.55977
2.50314
0.849613
0.536799
0.514061
0.516738
0.547697
0.56908
0.600692
0.628164
0.656164
0.684547
0.709847
0.736795
0.760141
0.782857
0.803558
0.822889
0.841033
0.856486
0.872125
0.88533
0.897546
0.907753
0.916165
0.923425
0.929526
0.934703
0.939536
0.943097
0.94643
0.954028
0.957565
0.96016
0.962381
0.971829
0.97429
0.976148
0.984398
0.985772
0.982434
0.994076
0.998508
1.00113
1.00269
1.00002
1.01188
1.01666
1.01858
1.01986
1.03318
1.03731
1.04054
1.05419
1.05993
1.0708
1.07889
1.08534
1.09484
1.08508
1.07687
1.04073
0.959178
0.838633
0.679899
0.551318
0.471589
0.418663
0.359262
0.307896
0.260515
0.226869
0.194275
0.177818
0.158343
0.171571
2.61614
2.61429
2.61496
2.61543
2.6162
2.61713
2.61821
2.61935
2.62073
2.62223
2.6237
2.62535
2.62714
2.62903
2.63062
2.6327
2.63462
2.63659
2.63815
2.64066
2.6425
2.6444
2.64559
2.64673
2.6496
2.65133
2.6525
2.65317
2.6535
2.65392
2.65463
2.65465
2.65424
2.65339
2.65187
2.64938
2.6457
2.64112
2.63538
2.62947
2.61811
2.60523
2.58615
2.57343
2.50187
0.890092
0.540127
0.514718
0.530557
0.566005
0.595367
0.627075
0.656575
0.68431
0.713608
0.73941
0.76752
0.789959
0.813879
0.835008
0.854001
0.87267
0.887039
0.902528
0.914773
0.926563
0.936575
0.944757
0.951886
0.958027
0.962603
0.967004
0.969895
0.972345
0.978993
0.981788
0.983939
0.986109
0.994727
0.996784
0.999053
1.00536
1.00702
1.00372
1.01323
1.01755
1.01956
1.02064
1.01854
1.02845
1.03325
1.03485
1.0359
1.04885
1.05267
1.05545
1.0678
1.07148
1.07993
1.08479
1.08461
1.09141
1.05761
1.02229
0.940385
0.80386
0.655973
0.533008
0.464815
0.427037
0.39153
0.348277
0.30566
0.267138
0.239862
0.213353
0.203764
0.189502
0.204367
2.61609
2.61428
2.61495
2.61543
2.61619
2.6171
2.6182
2.61934
2.62072
2.62221
2.62363
2.62534
2.62723
2.62885
2.63043
2.63289
2.63482
2.63628
2.63774
2.64088
2.6431
2.64456
2.64531
2.64617
2.64984
2.65177
2.653
2.65369
2.65378
2.65408
2.65519
2.65644
2.65668
2.6563
2.65558
2.65405
2.65101
2.64757
2.64377
2.63845
2.63167
2.62126
2.60956
2.59294
2.50735
0.979109
0.55239
0.516119
0.561632
0.590155
0.635244
0.669363
0.701191
0.728351
0.760163
0.786265
0.815351
0.836079
0.861243
0.882914
0.899911
0.918945
0.93382
0.949282
0.95901
0.972818
0.981159
0.988776
0.995496
1.00081
1.00506
1.00865
1.01092
1.01289
1.01778
1.02009
1.0216
1.02315
1.02995
1.03156
1.03377
1.03723
1.03941
1.03598
1.04243
1.04661
1.04775
1.04801
1.04655
1.0534
1.05786
1.05924
1.05933
1.07001
1.07261
1.07376
1.08325
1.08292
1.08633
1.08793
1.07085
1.06391
0.995271
0.904732
0.774142
0.631072
0.515695
0.457565
0.430757
0.410028
0.379469
0.343393
0.307931
0.275941
0.25399
0.232711
0.228089
0.217907
0.233268
2.61606
2.61425
2.61494
2.61541
2.61615
2.61708
2.61816
2.61933
2.6207
2.62217
2.62357
2.62534
2.62727
2.6287
2.63026
2.63305
2.63498
2.63616
2.63746
2.64097
2.64342
2.64475
2.64525
2.64593
2.64995
2.65208
2.65349
2.65432
2.6543
2.65439
2.65593
2.65812
2.65906
2.65952
2.65958
2.65903
2.65778
2.65682
2.65604
2.65405
2.65484
2.65045
2.64633
2.63919
2.53553
1.16515
0.570919
0.528857
0.608759
0.644215
0.701243
0.737666
0.77189
0.794194
0.828235
0.849123
0.877843
0.894468
0.919244
0.939662
0.95409
0.972552
0.986088
1.00085
1.00681
1.02307
1.02784
1.03576
1.04086
1.04496
1.04862
1.05115
1.0531
1.05417
1.05739
1.05937
1.06037
1.06108
1.0657
1.0672
1.06866
1.07045
1.07269
1.06881
1.07282
1.07637
1.07682
1.07585
1.07444
1.07786
1.08174
1.08239
1.08045
1.0882
1.08732
1.08672
1.09636
1.08461
1.07649
1.07239
1.02666
0.980807
0.870247
0.732062
0.605629
0.503207
0.456178
0.436026
0.423399
0.40569
0.377728
0.345909
0.314031
0.287019
0.268719
0.251599
0.250506
0.243686
0.258673
2.61601
2.61423
2.61489
2.61537
2.61614
2.61704
2.61812
2.61932
2.62066
2.62216
2.6235
2.62535
2.62729
2.62854
2.63011
2.63315
2.63498
2.63603
2.63733
2.64107
2.64354
2.64477
2.64527
2.64599
2.65015
2.65235
2.6539
2.65473
2.65483
2.65511
2.65708
2.65938
2.66091
2.6624
2.66347
2.66436
2.66576
2.66675
2.66858
2.67154
2.67666
2.68519
2.69312
2.70141
2.59975
1.55561
0.612959
0.551494
0.684057
0.736704
0.793114
0.823208
0.854833
0.865466
0.902378
0.913409
0.938901
0.953436
0.973092
0.990452
1.00193
1.01888
1.0261
1.04259
1.04621
1.06056
1.06417
1.07059
1.07448
1.07767
1.08053
1.08221
1.08372
1.08447
1.08608
1.08775
1.08808
1.08807
1.09104
1.09225
1.09296
1.09411
1.09578
1.09222
1.09442
1.09653
1.09639
1.09505
1.09157
1.09263
1.09603
1.09366
1.09133
1.09724
1.0901
1.08419
1.09385
1.0651
1.03869
1.01616
0.926635
0.820378
0.694009
0.572549
0.488786
0.456398
0.442509
0.431575
0.422545
0.403463
0.379584
0.350969
0.322676
0.299302
0.283262
0.269572
0.271113
0.266967
0.281103
2.61596
2.61419
2.61485
2.61534
2.61612
2.617
2.61807
2.6193
2.62064
2.6221
2.62345
2.62538
2.62723
2.62848
2.63013
2.6332
2.63489
2.63598
2.63744
2.64122
2.64341
2.64462
2.64533
2.64649
2.65037
2.65249
2.65392
2.65494
2.65558
2.65646
2.6592
2.66087
2.66264
2.66483
2.66756
2.67054
2.67358
2.67705
2.68255
2.69109
2.70311
2.7209
2.7565
2.78735
2.79278
2.45399
0.780104
0.618866
0.786765
0.837322
0.871518
0.89835
0.920566
0.921743
0.95912
0.96421
0.983956
0.999757
1.01191
1.02946
1.03397
1.05283
1.054
1.07431
1.07805
1.08516
1.09115
1.09566
1.09858
1.10114
1.1029
1.10404
1.10503
1.10514
1.10559
1.1069
1.10675
1.10608
1.10784
1.1084
1.10866
1.1089
1.10959
1.1067
1.10725
1.1077
1.1065
1.1051
1.09917
1.09862
1.10099
1.09665
1.09017
1.09223
1.07802
1.0621
1.06405
1.00705
0.949755
0.883984
0.761267
0.6402
0.539735
0.475969
0.457534
0.448618
0.445186
0.437547
0.42595
0.407144
0.383432
0.356686
0.331636
0.311684
0.297142
0.286289
0.289679
0.287803
0.30088
2.6159
2.61414
2.61482
2.61529
2.61607
2.61695
2.61804
2.61925
2.6206
2.62202
2.62339
2.62542
2.62708
2.62847
2.63028
2.63308
2.63466
2.63599
2.63782
2.64118
2.64289
2.64439
2.64577
2.64758
2.65047
2.65212
2.65354
2.65514
2.65688
2.65887
2.6613
2.66306
2.66459
2.66673
2.67052
2.67598
2.68128
2.68612
2.69369
2.706
2.72314
2.7463
2.78143
2.81208
2.8396
2.73167
1.20817
0.730292
0.840333
0.884454
0.921528
0.95199
0.964749
0.972199
0.991538
1.00155
1.0112
1.03149
1.03352
1.05674
1.0562
1.07795
1.08104
1.09456
1.10133
1.10379
1.11141
1.11429
1.11613
1.11775
1.11888
1.11898
1.11969
1.11913
1.11875
1.11966
1.11851
1.11744
1.11826
1.11741
1.11687
1.11683
1.1165
1.11315
1.11281
1.11083
1.10824
1.10611
1.10002
1.09535
1.09329
1.08924
1.07337
1.06727
1.0409
1.00435
0.977876
0.888351
0.79495
0.695749
0.587455
0.498447
0.465767
0.452631
0.450468
0.4533
0.452046
0.443108
0.42822
0.410229
0.388174
0.364042
0.341546
0.32424
0.3108
0.30225
0.306766
0.306707
0.318594
2.61583
2.61408
2.61477
2.61525
2.61602
2.61689
2.61799
2.61919
2.62054
2.62192
2.62337
2.62534
2.62688
2.6285
2.63049
2.63276
2.63434
2.63613
2.63823
2.64065
2.64224
2.64442
2.64665
2.64874
2.65041
2.65156
2.65276
2.65592
2.65857
2.66096
2.6629
2.6651
2.66652
2.66853
2.67125
2.67903
2.68575
2.69291
2.70025
2.7081
2.71953
2.73708
2.75874
2.77519
2.80568
2.50216
1.78541
0.833047
0.871578
0.900713
0.932818
0.961976
0.981141
0.995345
1.00705
1.0233
1.02232
1.04956
1.04299
1.0723
1.07578
1.08986
1.0994
1.10154
1.11507
1.11828
1.12261
1.12572
1.12733
1.12833
1.12841
1.12787
1.1286
1.1273
1.1263
1.1269
1.12443
1.12293
1.12241
1.12041
1.11888
1.11994
1.11736
1.11278
1.11312
1.10737
1.1015
1.09725
1.09204
1.07813
1.06731
1.05973
1.02514
0.996585
0.956912
0.886322
0.81682
0.715536
0.613112
0.528249
0.472227
0.455859
0.449911
0.457878
0.459876
0.458708
0.456399
0.447083
0.433587
0.415454
0.393085
0.370415
0.35057
0.335665
0.32366
0.316941
0.322126
0.323523
0.334187
2.61576
2.61403
2.61471
2.61521
2.61595
2.61683
2.61792
2.61913
2.62046
2.62184
2.62337
2.62515
2.6267
2.62852
2.63051
2.63229
2.63402
2.6364
2.63847
2.64005
2.64151
2.64454
2.6473
2.6493
2.6506
2.65132
2.65227
2.65682
2.65984
2.66222
2.66419
2.66655
2.66797
2.67001
2.67237
2.67988
2.68562
2.69222
2.70033
2.70874
2.7186
2.73195
2.74329
2.75714
2.69764
2.58622
1.61526
1.06072
0.926312
0.886004
0.925531
0.946368
0.973077
0.993851
1.0025
1.02356
1.01588
1.05572
1.04731
1.07088
1.08091
1.09076
1.1034
1.10243
1.11728
1.12163
1.12493
1.12694
1.12847
1.12877
1.12886
1.12831
1.12905
1.12721
1.12575
1.12678
1.12379
1.12187
1.12162
1.11817
1.11507
1.11716
1.11002
1.10316
1.10197
1.09054
1.07852
1.0689
1.06102
1.02922
1.00054
0.983654
0.921888
0.860035
0.803248
0.707859
0.617873
0.54116
0.476315
0.456807
0.444865
0.447771
0.458697
0.464049
0.465476
0.464598
0.460144
0.450749
0.437682
0.420669
0.400094
0.379013
0.360687
0.346945
0.336033
0.33081
0.3363
0.338791
0.348257
2.61568
2.61397
2.61465
2.61512
2.61587
2.61677
2.61784
2.61907
2.62035
2.62172
2.62337
2.62494
2.62648
2.6286
2.63039
2.63184
2.6338
2.63663
2.63855
2.63979
2.64101
2.64466
2.64753
2.64951
2.6508
2.65134
2.65224
2.65753
2.66057
2.66296
2.66515
2.66744
2.6688
2.67087
2.67354
2.68075
2.68597
2.69185
2.69792
2.70404
2.71077
2.71558
2.71657
2.70457
2.58146
1.89206
1.28861
1.19948
1.05997
0.926278
0.914312
0.918432
0.955604
0.980717
0.988261
1.01058
1.00178
1.04485
1.04148
1.06366
1.07469
1.08335
1.0957
1.09645
1.11067
1.11602
1.11819
1.11955
1.12039
1.12057
1.12077
1.1203
1.12122
1.1187
1.1164
1.11831
1.11387
1.11047
1.11116
1.1033
1.09756
1.10024
1.08417
1.07188
1.06684
1.04651
1.02083
0.996978
0.981192
0.925193
0.873356
0.831111
0.751841
0.673481
0.605882
0.52952
0.470673
0.451498
0.437143
0.439302
0.453462
0.460844
0.466099
0.470135
0.47067
0.468559
0.462496
0.453503
0.440779
0.424592
0.405429
0.386314
0.369963
0.357506
0.34778
0.343808
0.349409
0.352566
0.360736
2.61559
2.6139
2.61458
2.61505
2.61579
2.6167
2.61777
2.61896
2.62022
2.62162
2.62332
2.62471
2.62627
2.62869
2.63031
2.63154
2.63366
2.63681
2.63856
2.63955
2.64076
2.64495
2.64778
2.64963
2.6508
2.65157
2.65281
2.65802
2.66096
2.66356
2.66573
2.66776
2.66917
2.67181
2.67638
2.68146
2.68523
2.68906
2.6937
2.69888
2.70342
2.70871
2.72032
2.68974
2.67028
1.45164
1.26652
1.24909
1.19993
1.05416
0.979367
0.915504
0.956431
0.944047
0.974599
0.997029
0.984307
1.02712
1.02704
1.04921
1.06154
1.07078
1.08113
1.08828
1.09581
1.10424
1.10514
1.10586
1.1054
1.10472
1.10552
1.10363
1.1044
1.09935
1.09591
1.09869
1.08865
1.08234
1.08416
1.06622
1.05445
1.05415
1.0245
1.00127
0.98069
0.952086
0.905553
0.859338
0.822745
0.752806
0.685841
0.625447
0.55927
0.499467
0.458295
0.43994
0.428134
0.429311
0.442902
0.452819
0.461328
0.468072
0.47259
0.474856
0.474812
0.471456
0.465532
0.456756
0.44501
0.430187
0.412535
0.394775
0.3797
0.368065
0.359262
0.356107
0.361514
0.364937
0.371917
2.6155
2.61383
2.61448
2.61496
2.61572
2.6166
2.61767
2.61883
2.62011
2.62152
2.62321
2.62454
2.62616
2.62868
2.6301
2.63136
2.63369
2.63674
2.63836
2.63946
2.64088
2.64509
2.64762
2.64945
2.65076
2.65207
2.65413
2.65822
2.66084
2.66327
2.66577
2.66797
2.67027
2.67372
2.67795
2.68082
2.68347
2.68547
2.68758
2.68923
2.68891
2.68415
2.67405
2.55331
2.20775
1.30115
1.22642
1.22572
1.20138
1.14806
1.05419
0.925073
0.919265
0.895397
0.941649
0.966071
0.955722
1.0006
1.00019
1.03168
1.04254
1.05457
1.06432
1.07328
1.07782
1.08752
1.08593
1.08608
1.0824
1.08054
1.08276
1.07503
1.07447
1.06445
1.056
1.05805
1.03763
1.02387
1.02102
0.988341
0.964608
0.951011
0.907104
0.867639
0.823361
0.785918
0.72388
0.665054
0.611791
0.557123
0.503027
0.462077
0.432686
0.422675
0.420338
0.417044
0.433735
0.443272
0.451729
0.46138
0.469019
0.473959
0.476895
0.478343
0.477092
0.473303
0.467389
0.458957
0.447903
0.434437
0.418571
0.402448
0.388814
0.378138
0.370365
0.367871
0.372927
0.376369
0.382232
2.61539
2.61373
2.6144
2.61488
2.61561
2.6165
2.61756
2.6187
2.61999
2.62145
2.62303
2.62444
2.62617
2.62842
2.62983
2.6313
2.63396
2.63634
2.63789
2.63954
2.64152
2.64488
2.64689
2.64907
2.65122
2.65317
2.6558
2.65821
2.66007
2.66246
2.66536
2.66873
2.67192
2.67499
2.67755
2.67958
2.68178
2.68301
2.68401
2.68477
2.68583
2.68318
2.68175
2.5384
1.72244
1.1727
1.18018
1.19556
1.19153
1.17356
1.12988
1.01522
0.941205
0.893126
0.915364
0.92302
0.936109
0.968324
0.971901
1.01817
1.01706
1.03497
1.04109
1.04988
1.05397
1.06092
1.05654
1.05574
1.04585
1.04085
1.0433
1.02456
1.01726
1.0053
0.985439
0.974079
0.947625
0.919071
0.89641
0.855275
0.815098
0.776932
0.726499
0.675041
0.620188
0.577531
0.529556
0.485628
0.450726
0.424758
0.411032
0.411865
0.406375
0.406814
0.424232
0.432312
0.441744
0.452533
0.461167
0.468809
0.474673
0.478112
0.479806
0.480453
0.478937
0.475485
0.46997
0.462296
0.45227
0.43992
0.425375
0.41053
0.397911
0.388036
0.381219
0.379162
0.383702
0.386878
0.391724
2.61528
2.61365
2.6143
2.61477
2.61549
2.61638
2.61744
2.61855
2.61984
2.6213
2.62278
2.62429
2.62619
2.62799
2.62957
2.6314
2.63379
2.6356
2.63741
2.63978
2.64208
2.64413
2.64594
2.64862
2.65166
2.65434
2.65665
2.65839
2.65962
2.66126
2.66539
2.66967
2.67264
2.67497
2.67687
2.67865
2.68046
2.68131
2.68287
2.6845
2.69031
2.6961
2.68356
2.61838
1.37529
1.15675
1.15751
1.17262
1.17662
1.17962
1.15974
1.11042
1.04384
0.914378
0.902896
0.869148
0.936354
0.921189
0.966819
0.985999
0.987992
1.01073
1.01068
1.01807
1.02412
1.01966
1.01207
1.00964
0.989448
0.977082
0.973641
0.940268
0.917628
0.905999
0.863574
0.828141
0.803274
0.75439
0.708108
0.667003
0.618284
0.571037
0.530714
0.494799
0.455041
0.430914
0.411498
0.403148
0.402241
0.400259
0.391579
0.401502
0.415434
0.422773
0.433073
0.442139
0.451843
0.460898
0.468297
0.474239
0.478482
0.480758
0.481656
0.481686
0.480085
0.476851
0.471726
0.464754
0.455785
0.444769
0.431748
0.418336
0.406757
0.397722
0.391834
0.390129
0.39406
0.396795
0.400657
2.61518
2.61355
2.61419
2.61465
2.61538
2.61626
2.61726
2.61842
2.61968
2.62112
2.62252
2.62414
2.626
2.62746
2.62926
2.63158
2.63335
2.63485
2.63709
2.64008
2.64227
2.6437
2.64515
2.6483
2.65209
2.65476
2.65686
2.65843
2.65943
2.66075
2.66588
2.67012
2.67261
2.67445
2.6761
2.67764
2.67888
2.67911
2.67938
2.67856
2.67919
2.68061
2.59137
2.32882
1.26069
1.14505
1.13936
1.14449
1.14165
1.15526
1.14318
1.13016
1.08942
0.989609
0.905803
0.873945
0.894325
0.890398
0.943525
0.953922
0.966589
0.965066
0.971779
0.965484
0.982155
0.954529
0.937806
0.928876
0.898184
0.872015
0.850142
0.808688
0.770072
0.744139
0.690578
0.644413
0.609748
0.564404
0.522233
0.489944
0.457793
0.429604
0.413766
0.403734
0.396679
0.39458
0.392783
0.385883
0.39326
0.404833
0.406889
0.415419
0.422362
0.432665
0.442415
0.451118
0.459557
0.467082
0.473195
0.477809
0.480978
0.482622
0.483253
0.482968
0.481629
0.47888
0.474431
0.468074
0.459851
0.449875
0.438152
0.426075
0.415483
0.407324
0.402183
0.400646
0.403894
0.40609
0.409098
2.61506
2.61344
2.61407
2.61453
2.61525
2.61613
2.61709
2.61826
2.61953
2.62091
2.62227
2.62407
2.62574
2.62706
2.62907
2.6316
2.63304
2.63432
2.63697
2.64032
2.64222
2.6434
2.64466
2.64846
2.65238
2.65492
2.65688
2.65821
2.65939
2.66096
2.66612
2.67012
2.67245
2.67409
2.6753
2.67647
2.6772
2.67739
2.67742
2.67583
2.67264
2.66789
2.52766
1.90196
1.14751
1.11293
1.11262
1.11369
1.11054
1.11976
1.12164
1.12605
1.1153
1.073
0.971617
0.907673
0.835632
0.899114
0.876686
0.927796
0.919164
0.913853
0.908682
0.893145
0.894676
0.853488
0.824701
0.797537
0.760428
0.718603
0.677889
0.637082
0.593248
0.554094
0.516273
0.479307
0.453376
0.430767
0.411912
0.402728
0.396792
0.392997
0.390258
0.389702
0.384171
0.390952
0.39982
0.401462
0.406235
0.413435
0.416344
0.42501
0.4322
0.441556
0.45017
0.458064
0.465323
0.471658
0.476631
0.480194
0.482544
0.483792
0.484363
0.48418
0.483105
0.480769
0.476882
0.471245
0.463861
0.454844
0.444371
0.433551
0.42403
0.416834
0.412298
0.41085
0.413393
0.415002
0.417304
2.61491
2.61332
2.61395
2.61439
2.61512
2.61595
2.61694
2.61808
2.61935
2.62068
2.62199
2.62398
2.62538
2.62671
2.62907
2.63136
2.63263
2.63398
2.63708
2.64011
2.64192
2.64312
2.64462
2.64874
2.65228
2.65466
2.65663
2.65822
2.6597
2.66198
2.66585
2.66922
2.67152
2.67347
2.675
2.67648
2.67804
2.67941
2.68057
2.68157
2.68098
2.6845
2.51705
1.60889
1.0746
1.08301
1.09367
1.0985
1.10249
1.1066
1.1103
1.11681
1.11441
1.10062
1.01898
0.924792
0.837393
0.866097
0.802
0.872951
0.834251
0.831401
0.802908
0.777514
0.753841
0.709219
0.669286
0.627048
0.589578
0.54748
0.509129
0.478292
0.449678
0.427423
0.412667
0.40172
0.394966
0.392933
0.38956
0.387171
0.38687
0.386984
0.393538
0.399851
0.40009
0.402185
0.407947
0.40978
0.415821
0.422723
0.426375
0.433944
0.440522
0.448985
0.456409
0.46329
0.469505
0.475008
0.479358
0.482449
0.484393
0.485336
0.485725
0.485483
0.48455
0.48261
0.47922
0.474327
0.467855
0.459954
0.450697
0.441039
0.432491
0.426243
0.422133
0.420608
0.422417
0.423409
0.425148
2.61477
2.61318
2.6138
2.61425
2.61496
2.61575
2.61678
2.61786
2.61913
2.62042
2.6218
2.62368
2.62499
2.62646
2.62904
2.63078
2.63224
2.6339
2.63717
2.63936
2.64125
2.6431
2.64528
2.64865
2.6513
2.6539
2.65637
2.65872
2.66085
2.66305
2.66537
2.66769
2.66967
2.67313
2.67535
2.67728
2.67956
2.68174
2.68473
2.68936
2.69407
2.68083
2.58312
1.30324
1.07217
1.07052
1.07581
1.07984
1.08904
1.09321
1.10013
1.10635
1.10825
1.10624
1.03825
0.947656
0.838015
0.788024
0.726139
0.762645
0.712294
0.701348
0.659667
0.622924
0.58527
0.545718
0.512069
0.475104
0.451129
0.428947
0.412436
0.40283
0.393686
0.39053
0.38902
0.3861
0.387102
0.383747
0.389917
0.394711
0.399122
0.400532
0.40081
0.406318
0.409288
0.412907
0.418022
0.421033
0.425349
0.431452
0.435302
0.441998
0.447608
0.45511
0.461919
0.468159
0.473703
0.478354
0.481878
0.484285
0.485754
0.486495
0.486784
0.486532
0.485766
0.484204
0.481452
0.477387
0.471893
0.465059
0.456919
0.448274
0.440639
0.435199
0.431543
0.4301
0.431362
0.431921
0.433122
2.61463
2.61305
2.61366
2.61409
2.61475
2.61557
2.61657
2.61761
2.61886
2.62015
2.62163
2.62322
2.62461
2.62635
2.62857
2.63001
2.63184
2.63413
2.63658
2.63831
2.64048
2.64328
2.64591
2.64802
2.65006
2.65257
2.65637
2.65929
2.66188
2.66409
2.66528
2.66671
2.66834
2.67211
2.6754
2.67753
2.67921
2.68087
2.68292
2.68507
2.69218
2.60963
2.37044
1.2139
1.07971
1.06996
1.06562
1.06354
1.06927
1.07278
1.07901
1.07904
1.07323
1.07211
1.00075
0.8929
0.792577
0.670495
0.613983
0.606832
0.560215
0.542649
0.506422
0.480287
0.452801
0.433576
0.418735
0.405422
0.397087
0.392916
0.388747
0.38716
0.386524
0.383228
0.388271
0.39094
0.395688
0.397754
0.396685
0.401343
0.405665
0.410402
0.412367
0.41664
0.420267
0.422369
0.426998
0.430534
0.434531
0.440065
0.444049
0.450021
0.454975
0.461245
0.466932
0.472078
0.476571
0.48053
0.483723
0.486143
0.487726
0.488619
0.4889
0.488663
0.48791
0.486585
0.484196
0.480711
0.476036
0.470234
0.46316
0.455476
0.448703
0.443916
0.44063
0.439276
0.439904
0.439891
0.440517
2.61446
2.61289
2.61349
2.61391
2.61456
2.61539
2.61634
2.61735
2.61857
2.61984
2.62138
2.62269
2.62418
2.6263
2.62791
2.62931
2.63156
2.63422
2.6358
2.63735
2.64003
2.64348
2.64609
2.6476
2.64918
2.65171
2.6564
2.65957
2.6621
2.66414
2.6652
2.66652
2.66832
2.6717
2.67551
2.67766
2.67881
2.67969
2.67948
2.67735
2.67943
2.54296
2.00873
1.11451
1.06151
1.05689
1.05508
1.05404
1.05361
1.05334
1.05447
1.04402
1.02497
1.0142
0.912961
0.774501
0.652009
0.530217
0.475674
0.454563
0.435632
0.42446
0.414065
0.405667
0.398531
0.394776
0.392203
0.389179
0.387732
0.385203
0.388248
0.389164
0.394352
0.394407
0.397033
0.398375
0.401688
0.406265
0.407776
0.411872
0.415233
0.419299
0.421553
0.425588
0.4297
0.432077
0.436338
0.439922
0.443417
0.448139
0.451756
0.456812
0.460749
0.465822
0.470724
0.47563
0.48019
0.484078
0.486948
0.488886
0.489792
0.490425
0.490535
0.490188
0.489475
0.48842
0.486638
0.484014
0.480274
0.475391
0.469245
0.462455
0.45649
0.452298
0.449458
0.448302
0.44849
0.448207
0.448515
2.61428
2.61273
2.61332
2.61373
2.61435
2.61518
2.61606
2.61711
2.61826
2.61955
2.62103
2.62222
2.62388
2.62599
2.62722
2.62867
2.63155
2.63388
2.63515
2.63663
2.63991
2.64348
2.64566
2.64705
2.64878
2.65169
2.65634
2.65942
2.66179
2.66376
2.66512
2.66669
2.669
2.67176
2.67463
2.67675
2.67758
2.67762
2.67686
2.67303
2.66877
2.49451
1.6844
1.0313
1.0436
1.04976
1.05313
1.05416
1.04847
1.04378
1.03761
1.00674
0.957144
0.914498
0.757764
0.618316
0.486743
0.405012
0.384337
0.379577
0.381437
0.382797
0.384114
0.385651
0.386671
0.387293
0.389638
0.391192
0.39572
0.396208
0.398108
0.399413
0.400702
0.403946
0.405665
0.408675
0.410831
0.415025
0.417162
0.4216
0.424889
0.428943
0.431292
0.43451
0.438214
0.440375
0.443988
0.447415
0.450552
0.454733
0.458151
0.462967
0.46712
0.471875
0.476262
0.480262
0.483634
0.486672
0.489371
0.491792
0.493433
0.494421
0.494657
0.494287
0.493488
0.492438
0.490797
0.488401
0.485036
0.480852
0.475634
0.469708
0.464341
0.460513
0.457945
0.45683
0.456608
0.455953
0.455506
2.6141
2.61256
2.61312
2.61352
2.61412
2.61493
2.61578
2.61681
2.61789
2.61928
2.62056
2.62176
2.62372
2.62541
2.62664
2.62827
2.63132
2.63306
2.63446
2.63622
2.64
2.64266
2.64468
2.64661
2.64887
2.65226
2.65565
2.65827
2.66105
2.66357
2.66594
2.66774
2.66987
2.67236
2.67437
2.67666
2.68018
2.68319
2.68825
2.69263
2.6884
2.5882
1.31878
1.05075
1.05109
1.05203
1.05182
1.05058
1.04238
1.02371
1.00781
0.950862
0.846946
0.75572
0.575318
0.448558
0.371433
0.352011
0.356294
0.363218
0.369896
0.376025
0.38094
0.385652
0.390765
0.394826
0.39805
0.399585
0.402436
0.405592
0.408057
0.411126
0.413036
0.415677
0.417303
0.420147
0.421532
0.424971
0.426862
0.430728
0.433402
0.436942
0.439375
0.441836
0.445267
0.44747
0.450904
0.454415
0.457686
0.461884
0.465416
0.469905
0.473508
0.477007
0.480516
0.484375
0.488194
0.491517
0.493836
0.495484
0.496327
0.497074
0.497169
0.496724
0.495907
0.494999
0.493705
0.491946
0.489553
0.486288
0.481758
0.476366
0.471616
0.468385
0.466362
0.465427
0.46494
0.464048
0.463533
2.6139
2.61237
2.61292
2.61329
2.61388
2.61465
2.61548
2.61648
2.61755
2.61888
2.62005
2.62139
2.62329
2.62462
2.62609
2.62812
2.63047
2.63197
2.63386
2.6363
2.63927
2.64121
2.64335
2.64628
2.64936
2.65217
2.65435
2.65653
2.6606
2.6639
2.66682
2.66944
2.67095
2.6728
2.67481
2.67652
2.68172
2.68457
2.68612
2.69125
2.61202
2.41704
1.22381
1.07103
1.0571
1.05095
1.04556
1.03732
1.02327
0.984146
0.930558
0.848438
0.689104
0.554219
0.418618
0.360991
0.342885
0.351059
0.358158
0.368822
0.376947
0.384359
0.390524
0.395421
0.399127
0.403254
0.407405
0.410889
0.414432
0.417814
0.420821
0.4237
0.425379
0.427201
0.427648
0.429798
0.430392
0.433247
0.43477
0.438265
0.440782
0.444639
0.447496
0.449703
0.452646
0.454595
0.457271
0.460538
0.463538
0.467508
0.470916
0.475199
0.479216
0.483386
0.486913
0.490015
0.492514
0.495262
0.497947
0.50052
0.502113
0.503255
0.503563
0.503125
0.502162
0.501121
0.499816
0.498119
0.495871
0.492762
0.488717
0.483862
0.479609
0.476629
0.474513
0.473304
0.472331
0.471251
0.470444
2.61368
2.61216
2.6127
2.61305
2.61361
2.61434
2.61515
2.61608
2.61723
2.61837
2.61953
2.62109
2.6226
2.62384
2.62559
2.62781
2.62932
2.6309
2.63342
2.63626
2.63807
2.63987
2.64244
2.64629
2.64959
2.65147
2.65341
2.6554
2.66031
2.66427
2.66757
2.67021
2.67156
2.67332
2.67523
2.67758
2.6803
2.68171
2.6786
2.67594
2.52854
1.9937
1.11063
1.05531
1.04781
1.0385
1.03074
1.01063
0.978297
0.921372
0.792089
0.684785
0.512899
0.400777
0.358701
0.344804
0.357696
0.365819
0.377455
0.385939
0.393293
0.399792
0.405276
0.410167
0.414236
0.417468
0.420665
0.42357
0.426315
0.428893
0.431613
0.434298
0.436388
0.438636
0.43947
0.441696
0.442139
0.444656
0.445854
0.448615
0.450012
0.452928
0.455201
0.457265
0.459867
0.462072
0.464563
0.468167
0.47138
0.475613
0.479157
0.483249
0.486849
0.49041
0.493586
0.496401
0.498465
0.501087
0.502936
0.504586
0.505738
0.506685
0.506981
0.506524
0.505534
0.504596
0.503524
0.502184
0.500449
0.497813
0.494612
0.490135
0.486161
0.483655
0.482249
0.481508
0.480321
0.479361
0.478766
2.61345
2.61194
2.61247
2.61278
2.61332
2.61402
2.61479
2.61568
2.61683
2.61784
2.61902
2.62069
2.62182
2.62306
2.6253
2.62709
2.62827
2.63
2.63323
2.63545
2.63686
2.63873
2.64228
2.64614
2.64863
2.65034
2.65261
2.65526
2.66063
2.66433
2.66728
2.6699
2.67199
2.67466
2.67784
2.68191
2.68447
2.68603
2.68213
2.67828
2.48767
1.63714
1.02066
1.03059
1.03502
1.02653
1.00858
0.975231
0.88556
0.806042
0.626835
0.497481
0.391648
0.363911
0.353357
0.368492
0.375429
0.387503
0.396185
0.404132
0.410994
0.41678
0.421558
0.425323
0.428342
0.430475
0.432567
0.434708
0.437236
0.439694
0.442464
0.445235
0.44798
0.450311
0.451383
0.452834
0.452395
0.453989
0.454992
0.457398
0.458368
0.46114
0.463981
0.46663
0.469209
0.471018
0.472225
0.474598
0.476837
0.480666
0.484002
0.487925
0.491689
0.495586
0.498977
0.501971
0.503414
0.506406
0.509087
0.51138
0.512947
0.514108
0.514571
0.514196
0.513217
0.512164
0.511021
0.509686
0.507996
0.505595
0.502286
0.49812
0.494567
0.492289
0.49083
0.489494
0.487468
0.486288
0.485269
2.6132
2.61171
2.6122
2.61249
2.61302
2.61368
2.6144
2.61528
2.61634
2.6173
2.61858
2.62003
2.62108
2.62245
2.62471
2.62605
2.62738
2.62953
2.63241
2.63404
2.63573
2.63805
2.64212
2.64489
2.64676
2.649
2.65173
2.65648
2.66043
2.66346
2.66653
2.66967
2.67301
2.67755
2.68223
2.68725
2.69222
2.69901
2.7062
2.68905
2.58558
1.27972
1.03923
1.03287
1.02848
1.01741
0.96325
0.907839
0.749218
0.630138
0.472965
0.392478
0.368232
0.370171
0.380471
0.390207
0.400044
0.408642
0.416011
0.422287
0.427828
0.432534
0.436512
0.439728
0.442486
0.444646
0.446637
0.448209
0.450204
0.452069
0.454278
0.456336
0.45867
0.461081
0.46294
0.465372
0.466077
0.467532
0.468358
0.470258
0.470602
0.471955
0.472325
0.47418
0.47621
0.478596
0.480138
0.483085
0.485387
0.48941
0.492839
0.496802
0.500395
0.504061
0.507064
0.509847
0.510597
0.512621
0.513779
0.515439
0.516608
0.517648
0.518248
0.518081
0.517415
0.516507
0.515571
0.514515
0.513128
0.511196
0.507832
0.504276
0.501123
0.499099
0.497936
0.496984
0.495399
0.494369
0.493411
2.61294
2.61147
2.61192
2.61217
2.61268
2.61328
2.61396
2.61485
2.6158
2.61676
2.61807
2.61921
2.62035
2.62198
2.62367
2.62494
2.62657
2.62902
2.63089
2.63242
2.63455
2.63796
2.64092
2.64272
2.64486
2.64761
2.65219
2.6565
2.65939
2.66209
2.66546
2.67011
2.67537
2.68041
2.68478
2.68875
2.69116
2.69201
2.69488
2.58405
2.30649
1.18683
1.05235
1.03767