/*--------------------------------*- C++ -*----------------------------------*\
| =========                 |                                                 |
| \\      /  F ield         | OpenFOAM: The Open Source CFD Toolbox           |
|  \\    /   O peration     | Version:  2.2.x                                 |
|   \\  /    A nd           | Web:      www.OpenFOAM.org                      |
|    \\/     M anipulation  |                                                 |
\*---------------------------------------------------------------------------*/
FoamFile
{
    version     2.0;
    format      ascii;
    class       volScalarField;
    location    "2.25";
    object      p;
}
// * * * * * * * * * * * * * * * * * * * * * * * * * * * * * * * * * * * * * //

dimensions      [1 -1 -2 0 0 0 0];

internalField   nonuniform List<scalar> 
14161
(
0.197632
0.197906
0.197814
0.197754
0.197658
0.197535
0.197403
0.197251
0.197074
0.196897
0.196671
0.196487
0.196305
0.195984
0.195748
0.195608
0.195407
0.194986
0.194708
0.194581
0.194499
0.194187
0.193784
0.193568
0.193479
0.193475
0.193368
0.193029
0.192913
0.192881
0.192914
0.193119
0.19334
0.193616
0.19397
0.194493
0.195196
0.196118
0.196831
0.198026
0.199705
0.201907
0.204617
0.205827
0.204809
1.03474
1.5957
1.6498
1.65509
1.62538
1.60977
1.56489
1.53126
1.49309
1.45745
1.42111
1.38772
1.35587
1.32494
1.2965
1.26928
1.24433
1.22155
1.20152
1.18372
1.16857
1.15586
1.14567
1.13707
1.13005
1.12449
1.12034
1.11752
1.11521
1.10557
1.10221
1.10063
1.10159
1.0889
1.08632
1.08692
1.0742
1.07187
1.07875
1.06207
1.05777
1.0547
1.05274
1.06061
1.04342
1.03919
1.03682
1.03933
1.02251
1.01839
1.01645
1.00159
0.995183
0.980585
0.971401
0.960723
0.945141
0.93779
0.929672
0.924048
0.925393
0.913207
0.972728
1.06264
1.27047
1.47552
1.65163
1.78256
1.86247
1.923
1.95951
1.98912
2.00197
2.02066
0.197633
0.197906
0.197813
0.197754
0.197658
0.197535
0.197403
0.19725
0.197074
0.196895
0.196674
0.196493
0.196301
0.195978
0.195755
0.195602
0.195395
0.194968
0.194724
0.194605
0.194488
0.194162
0.19377
0.193571
0.193501
0.19347
0.193332
0.193018
0.192908
0.192867
0.192881
0.193085
0.193298
0.193581
0.193978
0.194556
0.195271
0.195943
0.196591
0.197721
0.199478
0.201618
0.204757
0.206111
0.206561
1.03475
1.59505
1.65167
1.65466
1.61937
1.60254
1.55839
1.52476
1.48766
1.45348
1.4191
1.38609
1.3547
1.324
1.29551
1.26833
1.24337
1.2206
1.20039
1.18248
1.16689
1.15387
1.14357
1.13498
1.12776
1.12197
1.117
1.11328
1.10996
1.09998
1.09642
1.09491
1.09584
1.08313
1.08093
1.0815
1.0692
1.06763
1.07469
1.0579
1.05378
1.0511
1.04991
1.05718
1.03999
1.03582
1.03399
1.03616
1.0193
1.01565
1.01388
0.998722
0.992467
0.977841
0.9681
0.957709
0.943203
0.937288
0.931755
0.930354
0.943033
0.950711
1.05673
1.20828
1.42459
1.61241
1.75065
1.84162
1.89584
1.94092
1.96603
1.98868
1.99576
2.018
0.197633
0.197906
0.197812
0.197754
0.197657
0.197536
0.197402
0.197252
0.197074
0.196893
0.196681
0.196493
0.196291
0.195985
0.195772
0.195593
0.195374
0.19498
0.194762
0.194608
0.194455
0.194127
0.193785
0.193622
0.193505
0.193419
0.193271
0.193018
0.192918
0.19285
0.192856
0.193023
0.193223
0.193496
0.193834
0.194296
0.194913
0.195696
0.196437
0.197598
0.199367
0.201295
0.204245
0.205943
0.208213
1.0315
1.5929
1.65354
1.6542
1.6143
1.59374
1.54773
1.51238
1.47388
1.44012
1.40713
1.37387
1.34231
1.31129
1.28293
1.25637
1.23214
1.2105
1.19051
1.17343
1.15855
1.14622
1.13609
1.12756
1.12055
1.11459
1.10965
1.10609
1.10322
1.09373
1.09009
1.08836
1.08855
1.07683
1.07493
1.07512
1.06422
1.06287
1.06931
1.05352
1.0493
1.04673
1.0457
1.05206
1.03638
1.03204
1.03043
1.03154
1.01591
1.01235
1.01028
0.99487
0.98894
0.974931
0.96494
0.955808
0.943283
0.942298
0.939764
0.94967
0.981371
1.02565
1.18667
1.36278
1.54985
1.69107
1.78743
1.85658
1.90015
1.93731
1.95766
1.97747
1.98122
2.00646
0.197635
0.197907
0.197815
0.197755
0.197658
0.197537
0.197402
0.197253
0.197074
0.196889
0.196689
0.196489
0.196275
0.195998
0.195795
0.195573
0.19534
0.195015
0.194811
0.194588
0.194394
0.194101
0.193853
0.193693
0.193479
0.19332
0.193166
0.193021
0.192935
0.192851
0.192865
0.192945
0.193077
0.193297
0.193545
0.193965
0.19451
0.195235
0.196018
0.196979
0.198738
0.200578
0.203624
0.205096
0.21049
1.01045
1.59265
1.65218
1.64576
1.60274
1.57766
1.53289
1.49581
1.45654
1.42003
1.38563
1.35003
1.31802
1.28652
1.25869
1.233
1.20964
1.18937
1.16988
1.15429
1.14037
1.1292
1.11989
1.11224
1.106
1.10068
1.096
1.09252
1.08955
1.08084
1.0775
1.07559
1.07493
1.06445
1.06292
1.06286
1.05387
1.05272
1.0588
1.04433
1.04023
1.03807
1.03727
1.04281
1.02882
1.02444
1.02315
1.02374
1.00885
1.00512
1.00286
0.987356
0.981953
0.969768
0.961893
0.956586
0.945459
0.956362
0.962875
0.997199
1.07874
1.20639
1.40328
1.57046
1.67767
1.74686
1.8107
1.86577
1.90062
1.93088
1.94655
1.96312
1.96419
1.99137
0.197639
0.197909
0.197817
0.197756
0.197658
0.19754
0.197402
0.197253
0.197077
0.196888
0.1967
0.196488
0.19626
0.19602
0.195816
0.195554
0.195311
0.195061
0.194861
0.194549
0.194323
0.194085
0.19394
0.193775
0.193422
0.193213
0.193071
0.193001
0.192961
0.192894
0.192783
0.192785
0.192838
0.192949
0.193149
0.19348
0.19394
0.194502
0.195198
0.19598
0.197406
0.199021
0.201389
0.203291
0.210534
0.963867
1.59116
1.64823
1.62444
1.58121
1.54194
1.50096
1.4618
1.42351
1.38609
1.35381
1.31928
1.28859
1.25539
1.22861
1.20306
1.1811
1.1619
1.14251
1.12882
1.11526
1.10515
1.09675
1.08952
1.08392
1.07954
1.07561
1.07303
1.07108
1.06353
1.06093
1.05931
1.05838
1.04892
1.04766
1.0472
1.04039
1.03898
1.04458
1.0327
1.02856
1.02683
1.02645
1.03099
1.01929
1.01469
1.01349
1.01391
0.999451
0.99589
0.993862
0.97953
0.976228
0.96762
0.962116
0.963513
0.954554
0.989047
1.02078
1.10425
1.25458
1.42678
1.58992
1.68326
1.72829
1.77179
1.8197
1.86433
1.89415
1.92064
1.93285
1.94653
1.94696
1.97594
0.197643
0.19791
0.197818
0.197757
0.19766
0.197543
0.197404
0.197255
0.197079
0.19689
0.196709
0.196488
0.19625
0.196045
0.195837
0.19553
0.195287
0.195105
0.194905
0.19452
0.194247
0.194079
0.193982
0.193831
0.193387
0.193151
0.193007
0.192946
0.19294
0.192876
0.192703
0.192557
0.192534
0.192586
0.192691
0.192919
0.193293
0.193717
0.194177
0.194843
0.195666
0.196897
0.198419
0.20077
0.210029
0.885405
1.57911
1.64328
1.59104
1.55431
1.49502
1.45111
1.41204
1.37543
1.33734
1.3055
1.2724
1.24663
1.21307
1.19002
1.16616
1.14583
1.12666
1.10967
1.0986
1.0826
1.07514
1.06724
1.06055
1.05566
1.05184
1.04867
1.04663
1.04496
1.03904
1.03657
1.03519
1.03427
1.02671
1.02527
1.0242
1.02008
1.01811
1.02301
1.0147
1.01062
1.00946
1.00979
1.01295
1.00462
1.00006
0.998856
0.999926
0.987416
0.985128
0.98499
0.97378
0.974604
0.971195
0.967596
0.985592
0.988764
1.05833
1.14949
1.29742
1.46915
1.61832
1.69256
1.72431
1.7479
1.78202
1.81951
1.85882
1.88525
1.90866
1.91794
1.9295
1.92996
1.95857
0.197648
0.197913
0.197821
0.197761
0.197663
0.197546
0.197407
0.197257
0.197082
0.196894
0.196718
0.196489
0.196244
0.196067
0.195858
0.19551
0.19527
0.195125
0.194936
0.19451
0.194209
0.19406
0.193993
0.193853
0.19337
0.193112
0.192942
0.192871
0.192878
0.19283
0.192601
0.192346
0.192236
0.192184
0.192195
0.192299
0.192458
0.192569
0.19266
0.192873
0.192739
0.193221
0.193747
0.194817
0.206914
0.745621
1.56018
1.6375
1.53402
1.49498
1.42351
1.37986
1.34597
1.3186
1.2823
1.25726
1.22405
1.20514
1.17162
1.15308
1.13093
1.1115
1.09333
1.07764
1.06952
1.05068
1.04575
1.0373
1.03226
1.02779
1.02417
1.02157
1.01978
1.01872
1.01458
1.0122
1.01107
1.01039
1.00495
1.00333
1.00228
0.999995
0.997672
1.00219
0.996906
0.993032
0.992559
0.99396
0.996393
0.992135
0.987594
0.987155
0.989673
0.980387
0.981664
0.983167
0.970672
0.982853
0.989927
0.991158
1.03639
1.07709
1.19995
1.35594
1.5075
1.64157
1.69979
1.72138
1.73521
1.75422
1.78357
1.81438
1.85058
1.87399
1.89517
1.90222
1.91319
1.91447
1.94131
0.197654
0.197917
0.197825
0.197765
0.197666
0.19755
0.197413
0.197259
0.197086
0.196897
0.196726
0.196488
0.19624
0.196086
0.195874
0.195499
0.195271
0.195142
0.194949
0.194496
0.194191
0.194061
0.193992
0.193842
0.193347
0.193077
0.192891
0.192823
0.192808
0.192725
0.19246
0.192186
0.192008
0.191831
0.191711
0.191625
0.191479
0.191346
0.191093
0.190656
0.190031
0.188974
0.188203
0.187186
0.199766
0.516769
1.49385
1.64667
1.46099
1.41635
1.35027
1.31275
1.28128
1.2647
1.22308
1.21098
1.1776
1.16416
1.13348
1.11746
1.09782
1.07924
1.067
1.04839
1.04242
1.02464
1.02013
1.0128
1.00875
1.00479
1.00132
0.998941
0.997324
0.996444
0.994207
0.991815
0.991196
0.99065
0.986895
0.985522
0.984878
0.983365
0.981558
0.985572
0.98279
0.980263
0.980543
0.98258
0.986538
0.985115
0.981049
0.983542
0.986624
0.97912
0.986113
0.992
0.979327
1.00894
1.0314
1.049
1.14501
1.25868
1.4098
1.55858
1.6666
1.70553
1.71933
1.72612
1.73518
1.75569
1.77973
1.809
1.84125
1.8623
1.8816
1.88735
1.89812
1.90023
1.92383
0.19766
0.197921
0.19783
0.197769
0.19767
0.197556
0.197418
0.197262
0.197089
0.196904
0.196732
0.196484
0.196248
0.196095
0.195873
0.195491
0.195286
0.195148
0.194938
0.194477
0.194208
0.194076
0.193978
0.193788
0.19332
0.193064
0.192896
0.192789
0.192702
0.192553
0.192216
0.192013
0.1918
0.191535
0.191212
0.190862
0.190518
0.19007
0.189359
0.188294
0.186864
0.184801
0.180913
0.177327
0.178644
0.250715
1.27651
1.68184
1.40609
1.34431
1.29068
1.25098
1.22537
1.22062
1.17329
1.17283
1.14007
1.12611
1.10163
1.08286
1.07055
1.04912
1.04418
1.01986
1.01572
1.00443
0.996962
0.991834
0.988746
0.985808
0.983008
0.980732
0.979551
0.979181
0.978389
0.97644
0.976202
0.976032
0.973665
0.973004
0.97279
0.972325
0.971545
0.974912
0.974096
0.973297
0.974743
0.97682
0.983135
0.983635
0.980473
0.984557
0.991792
0.988237
1.00298
1.01652
1.00899
1.06938
1.12528
1.19339
1.33628
1.47699
1.60497
1.68481
1.71091
1.71604
1.71549
1.71954
1.73225
1.75151
1.77505
1.80294
1.83099
1.85038
1.86755
1.87236
1.88295
1.88589
1.90684
0.197668
0.197927
0.197836
0.197774
0.197675
0.197562
0.197423
0.197268
0.197094
0.196915
0.196738
0.196479
0.196269
0.196093
0.195857
0.195508
0.195315
0.195142
0.194896
0.194483
0.194276
0.194092
0.193915
0.193674
0.193319
0.193124
0.192944
0.192736
0.192523
0.192273
0.19198
0.191772
0.191588
0.191314
0.190835
0.190181
0.189557
0.188959
0.188027
0.186557
0.184557
0.181886
0.178181
0.174797
0.17379
0.196674
0.86965
1.62345
1.40428
1.32658
1.26228
1.21091
1.18866
1.17756
1.14317
1.13925
1.11561
1.09352
1.08138
1.05463
1.04947
1.02381
1.02025
1.00032
0.992936
0.986833
0.977973
0.97493
0.972945
0.970795
0.96867
0.967198
0.966137
0.966494
0.966648
0.96524
0.965963
0.966206
0.964939
0.965576
0.966189
0.965921
0.966385
0.970128
0.970193
0.972181
0.975222
0.977762
0.98435
0.988912
0.990191
0.994328
1.00986
1.01273
1.03955
1.07534
1.0969
1.20086
1.30099
1.41229
1.5454
1.65863
1.70404
1.71493
1.71318
1.70745
1.70821
1.71578
1.73008
1.7469
1.76999
1.79589
1.82092
1.83907
1.85442
1.85907
1.86936
1.87275
1.89076
0.197678
0.197934
0.197842
0.19778
0.197682
0.197569
0.19743
0.197275
0.197102
0.196927
0.19674
0.19649
0.196295
0.196088
0.195833
0.195548
0.195348
0.195121
0.194852
0.19455
0.194351
0.194075
0.193802
0.193547
0.193346
0.193205
0.193017
0.192623
0.192304
0.192021
0.191794
0.191547
0.19139
0.191122
0.190705
0.189778
0.188967
0.188117
0.187243
0.186317
0.18499
0.18301
0.180622
0.179179
0.177274
0.228142
0.532974
1.44086
1.37313
1.30868
1.25406
1.20466
1.17173
1.15047
1.12459
1.11116
1.09839
1.06996
1.07144
1.02965
1.03049
1.00817
0.999337
0.991909
0.976023
0.972488
0.966446
0.963452
0.961644
0.960101
0.959337
0.959081
0.9578
0.959116
0.959955
0.958964
0.961171
0.962154
0.961805
0.963761
0.965096
0.963356
0.966335
0.971227
0.970451
0.976744
0.982938
0.986761
0.991575
1.00542
1.01487
1.02151
1.05793
1.0837
1.12709
1.20408
1.27561
1.40032
1.51734
1.62261
1.69434
1.71916
1.72081
1.70718
1.70147
1.70054
1.7029
1.71195
1.72369
1.74123
1.76471
1.78816
1.81098
1.82771
1.84111
1.84591
1.85592
1.85973
1.87526
0.197687
0.197941
0.197849
0.197787
0.197691
0.197577
0.197438
0.197282
0.197113
0.196936
0.19674
0.196512
0.196317
0.196084
0.195833
0.195609
0.195382
0.195087
0.194827
0.194632
0.194432
0.194052
0.193719
0.193478
0.193343
0.193245
0.193058
0.192504
0.192141
0.19186
0.191634
0.191372
0.191229
0.190947
0.190542
0.189633
0.188942
0.188163
0.187227
0.186238
0.185094
0.183583
0.182457
0.181272
0.191076
0.235412
0.61005
1.05448
1.24347
1.29107
1.25103
1.21386
1.17143
1.14606
1.12444
1.10066
1.09861
1.05165
1.06627
1.02539
1.01756
1.00061
0.987921
0.985672
0.968249
0.963425
0.959796
0.958049
0.957096
0.956691
0.956258
0.956472
0.955239
0.957363
0.958544
0.95708
0.960208
0.961615
0.961014
0.9649
0.967804
0.964867
0.972813
0.979965
0.980449
0.992078
1.00399
1.01304
1.02
1.05317
1.08176
1.09731
1.16671
1.23087
1.29694
1.40951
1.51047
1.60727
1.68936
1.72054
1.72882
1.72102
1.70657
1.69884
1.69433
1.69396
1.69876
1.70782
1.71981
1.73722
1.75844
1.77987
1.80088
1.81643
1.82835
1.83367
1.84339
1.84756
1.861
0.197697
0.197949
0.197857
0.197796
0.197701
0.197586
0.197447
0.197291
0.197128
0.19695
0.196741
0.196542
0.196342
0.196075
0.195848
0.195666
0.195408
0.195059
0.194822
0.194672
0.194484
0.194033
0.193686
0.193448
0.193324
0.193246
0.193047
0.192414
0.192046
0.191763
0.191511
0.191269
0.191125
0.190827
0.190394
0.189538
0.188908
0.188216
0.187509
0.186798
0.186037
0.185516
0.185511
0.187786
0.209119
0.439568
0.800908
0.872232
1.02906
1.20259
1.25048
1.23245
1.18029
1.15556
1.13236
1.10747
1.10886
1.05227
1.06634
1.02848
1.01764
1.00027
0.98679
0.984088
0.968608
0.96278
0.960089
0.958638
0.957933
0.958111
0.95813
0.958931
0.957733
0.960816
0.963096
0.960614
0.965907
0.968942
0.967396
0.976476
0.981932
0.977995
0.995571
1.00772
1.01167
1.03278
1.05864
1.08231
1.09767
1.16083
1.21635
1.26116
1.35777
1.44749
1.52618
1.62045
1.69734
1.72784
1.73863
1.73311
1.71454
1.70399
1.69656
1.69065
1.68801
1.68937
1.69585
1.70412
1.71676
1.73327
1.7525
1.77193
1.79085
1.80536
1.81651
1.82247
1.83171
1.83611
1.84766
0.197709
0.197958
0.197867
0.197807
0.19771
0.197595
0.197458
0.197304
0.197145
0.196963
0.196746
0.196571
0.196367
0.196064
0.195861
0.195702
0.195424
0.195036
0.194827
0.194702
0.19451
0.193998
0.193655
0.193435
0.193323
0.193213
0.192982
0.192358
0.191999
0.191692
0.19144
0.191226
0.191045
0.190681
0.190093
0.189481
0.189038
0.18858
0.188032
0.187433
0.186918
0.186331
0.185154
0.189824
0.209552
0.666194
0.82324
0.833592
0.880803
1.03032
1.15506
1.23032
1.19054
1.19865
1.14159
1.12111
1.12732
1.06777
1.07801
1.03806
1.0254
1.00859
0.994716
0.988241
0.97901
0.969862
0.968473
0.966761
0.965979
0.966624
0.965651
0.968329
0.96746
0.97353
0.976784
0.97299
0.984194
0.990149
0.986807
1.0068
1.01847
1.01704
1.05002
1.07358
1.09282
1.12502
1.17657
1.22608
1.2658
1.35249
1.43011
1.49666
1.57962
1.65386
1.71092
1.74028
1.75021
1.74456
1.72686
1.71436
1.70397
1.69456
1.68827
1.68449
1.68346
1.68666
1.69207
1.70064
1.71303
1.72813
1.7453
1.76329
1.78026
1.79395
1.80462
1.81131
1.82018
1.82494
1.83534
0.197721
0.197968
0.197878
0.197817
0.19772
0.197607
0.197469
0.197321
0.197159
0.196975
0.196761
0.196593
0.196382
0.196067
0.195892
0.195725
0.195422
0.195046
0.194854
0.194713
0.194497
0.193982
0.193674
0.193459
0.193316
0.193139
0.192841
0.192343
0.192024
0.19173
0.191431
0.191166
0.190876
0.190441
0.189939
0.189597
0.189301
0.18906
0.188798
0.188588
0.18863
0.189262
0.190771
0.208308
0.32062
0.783522
0.85147
0.847346
0.865682
0.914552
1.03425
1.18392
1.2246
1.24058
1.16937
1.15334
1.15246
1.09514
1.10055
1.04867
1.04058
1.02292
1.00823
0.99963
0.992764
0.982233
0.983606
0.982045
0.983991
0.985544
0.982202
0.991152
0.991211
1.00221
1.01027
1.00653
1.02879
1.04218
1.0429
1.07912
1.10323
1.11509
1.16824
1.21136
1.25684
1.30123
1.3777
1.44533
1.5048
1.57393
1.64194
1.69837
1.73804
1.75424
1.75953
1.75613
1.73695
1.72483
1.71454
1.70297
1.6936
1.68649
1.68226
1.68012
1.68098
1.68448
1.68982
1.69829
1.70984
1.72345
1.73865
1.75495
1.76996
1.78298
1.79323
1.8006
1.80917
1.8143
1.82373
0.197734
0.197979
0.19789
0.197828
0.197734
0.19762
0.197483
0.197339
0.197173
0.196986
0.196785
0.196606
0.196381
0.1961
0.195923
0.195728
0.195392
0.195095
0.194905
0.194695
0.194429
0.194016
0.193765
0.193498
0.193236
0.192994
0.192669
0.192373
0.192146
0.191829
0.191444
0.191034
0.190654
0.190294
0.189996
0.189766
0.189524
0.189405
0.189266
0.18914
0.188966
0.189296
0.190058
0.212214
0.498727
0.891977
0.885544
0.86862
0.870129
0.88415
0.93257
1.05731
1.17028
1.2355
1.20924
1.20438
1.17291
1.13346
1.1211
1.06059
1.06617
1.04135
1.0291
1.01923
1.01203
1.00395
1.0084
1.00769
1.01748
1.02137
1.0165
1.03791
1.04405
1.05708
1.07761
1.08682
1.11654
1.14673
1.16897
1.2185
1.26169
1.30071
1.3668
1.42662
1.48609
1.53554
1.59797
1.6553
1.7031
1.73883
1.75764
1.76369
1.76845
1.76066
1.74513
1.73404
1.72433
1.7121
1.70175
1.69273
1.68575
1.68082
1.67837
1.67756
1.67927
1.68215
1.68723
1.69496
1.70513
1.71734
1.73122
1.7461
1.75967
1.77221
1.78213
1.79012
1.79875
1.80408
1.81264
0.197748
0.197991
0.197902
0.197842
0.197748
0.197634
0.1975
0.197356
0.197191
0.197003
0.196818
0.196622
0.196381
0.196153
0.195951
0.195718
0.195417
0.195191
0.194955
0.19466
0.194375
0.194119
0.193881
0.193535
0.193164
0.192845
0.192574
0.192388
0.192224
0.191953
0.191415
0.190905
0.190556
0.190285
0.190071
0.189876
0.189694
0.189627
0.189424
0.189167
0.18844
0.187787
0.190039
0.20837
0.696051
0.915867
0.913318
0.895085
0.888497
0.881916
0.90171
0.944434
1.03195
1.1849
1.23142
1.24923
1.17398
1.18093
1.12063
1.09451
1.09063
1.0627
1.05816
1.04922
1.03704
1.0404
1.04845
1.04969
1.0717
1.08345
1.0839
1.12225
1.14426
1.15568
1.20585
1.24149
1.27128
1.32974
1.38141
1.43196
1.48674
1.5351
1.58985
1.63642
1.6885
1.72161
1.74483
1.75825
1.76335
1.76894
1.76995
1.76122
1.75061
1.7406
1.73112
1.72062
1.7101
1.70046
1.69206
1.68526
1.6803
1.67709
1.6758
1.67597
1.67775
1.68055
1.68546
1.69232
1.70116
1.71187
1.72409
1.73726
1.74973
1.76178
1.77127
1.77957
1.78846
1.79395
1.80189
0.197763
0.198004
0.197916
0.197858
0.197764
0.197649
0.197521
0.197373
0.197211
0.197027
0.19685
0.196641
0.196404
0.196221
0.195988
0.195699
0.195474
0.195283
0.19499
0.194625
0.194359
0.194186
0.193973
0.193561
0.193104
0.192789
0.192543
0.192394
0.192259
0.192001
0.191353
0.190843
0.190554
0.190343
0.190161
0.189998
0.189893
0.189882
0.189839
0.189881
0.189789
0.189738
0.201631
0.278783
0.809196
0.929755
0.931982
0.924013
0.920985
0.905482
0.91393
0.921987
0.961144
1.08033
1.1975
1.23638
1.22614
1.20551
1.14331
1.12015
1.11207
1.10655
1.09795
1.09932
1.07284
1.10532
1.12149
1.12954
1.16559
1.19316
1.21538
1.266
1.3063
1.3348
1.40314
1.45474
1.49282
1.5479
1.59682
1.64067
1.68425
1.71886
1.73767
1.74982
1.75996
1.76532
1.76822
1.76824
1.76111
1.75402
1.751
1.74354
1.73832
1.72684
1.71756
1.70825
1.69941
1.69174
1.68522
1.68015
1.67663
1.67452
1.6739
1.67452
1.67584
1.67831
1.68255
1.68852
1.69652
1.70612
1.71701
1.7285
1.73993
1.75141
1.76053
1.76905
1.77838
1.78405
1.79138
0.197779
0.198018
0.197932
0.197874
0.19778
0.197668
0.197544
0.197394
0.197232
0.197056
0.196881
0.196651
0.19644
0.19627
0.196011
0.195696
0.19552
0.195346
0.195003
0.194594
0.19437
0.19423
0.194028
0.193539
0.193067
0.192767
0.192546
0.192421
0.192262
0.191981
0.191331
0.19085
0.190573
0.190387
0.190256
0.190134
0.190076
0.190055
0.190042
0.190217
0.19058
0.191419
0.21048
0.41356
0.907324
0.948116
0.947059
0.945089
0.945275
0.934056
0.930113
0.924425
0.932734
0.977833
1.10279
1.19499
1.25958
1.20117
1.21502
1.13866
1.1547
1.15571
1.15929
1.17075
1.15965
1.21273
1.24314
1.27007
1.31751
1.36691
1.41283
1.46327
1.51208
1.55541
1.60562
1.65218
1.68712
1.71756
1.73861
1.74957
1.75631
1.76301
1.7657
1.76539
1.76488
1.75953
1.75405
1.75145
1.7458
1.74152
1.73845
1.731
1.72446
1.71481
1.70675
1.69871
1.69146
1.68545
1.68052
1.67679
1.6742
1.67272
1.67242
1.67312
1.67415
1.67633
1.67991
1.68515
1.69215
1.70058
1.71003
1.72002
1.73029
1.74101
1.75001
1.75864
1.76848
1.77426
1.78098
0.197797
0.198034
0.197948
0.197891
0.197798
0.197691
0.197564
0.197418
0.197254
0.197087
0.196915
0.196662
0.196487
0.196313
0.196014
0.195727
0.195574
0.195384
0.194993
0.19462
0.194407
0.194256
0.194032
0.193513
0.193082
0.192802
0.192574
0.192401
0.192208
0.19188
0.191383
0.190973
0.190696
0.190466
0.190285
0.190115
0.189939
0.18979
0.189648
0.189535
0.189642
0.189715
0.213541
0.549788
0.9823
0.974598
0.963095
0.957484
0.951899
0.947983
0.942209
0.934675
0.933263
0.948294
1.03879
1.15188
1.2418
1.23737
1.29328
1.19538
1.23993
1.2409
1.27186
1.29539
1.31347
1.37508
1.42119
1.46629
1.51383
1.56278
1.60943
1.65147
1.68976
1.71678
1.7355
1.7476
1.75565
1.76169
1.76653
1.76729
1.76366
1.76009
1.75588
1.75232
1.75076
1.74737
1.74296
1.74034
1.73409
1.72895
1.72551
1.71891
1.71297
1.70484
1.69822
1.69167
1.68575
1.68085
1.6769
1.67396
1.67207
1.67099
1.67098
1.67178
1.67271
1.67467
1.67765
1.68203
1.68786
1.69491
1.70293
1.71153
1.72085
1.73055
1.73948
1.7484
1.75863
1.76466
1.77085
0.197815
0.198051
0.197966
0.197909
0.197819
0.197715
0.197584
0.197446
0.197282
0.197118
0.196939
0.196701
0.196536
0.196343
0.196019
0.195802
0.195618
0.195396
0.194986
0.194714
0.194482
0.194248
0.193963
0.193538
0.193208
0.192889
0.192589
0.192311
0.192061
0.191783
0.191488
0.191195
0.190912
0.190492
0.190221
0.189989
0.189723
0.189473
0.189128
0.188604
0.188123
0.190241
0.210264
0.734999
0.993834
0.998207
0.990926
0.983831
0.971856
0.966094
0.956516
0.948859
0.943608
0.943438
1.01163
1.11033
1.22195
1.31264
1.36839
1.31865
1.3781
1.38775
1.43674
1.47266
1.50895
1.5627
1.60392
1.64899
1.68282
1.70984
1.72992
1.74211
1.75253
1.75917
1.76256
1.76488
1.76296
1.76246
1.75793
1.75522
1.75178
1.74864
1.7468
1.74256
1.73978
1.73531
1.73027
1.72642
1.72236
1.7175
1.71417
1.70846
1.7034
1.69658
1.69105
1.68565
1.68089
1.677
1.67393
1.67172
1.67023
1.66945
1.66963
1.6705
1.67141
1.673
1.67532
1.6788
1.68344
1.68919
1.69585
1.70322
1.71157
1.72036
1.72918
1.7384
1.74885
1.75488
1.76041
0.197835
0.198068
0.197986
0.19793
0.197844
0.197738
0.197611
0.197477
0.197315
0.197152
0.196961
0.19676
0.196581
0.196358
0.196079
0.195898
0.195661
0.195372
0.195065
0.194848
0.194564
0.19422
0.193897
0.193636
0.193374
0.193031
0.19257
0.192224
0.191921
0.191674
0.191543
0.191348
0.191073
0.190589
0.190198
0.189944
0.18975
0.189563
0.189332
0.18912
0.188386
0.199015
0.264439
0.837788
0.994774
1.00171
1.00299
1.00109
0.993666
0.988199
0.979507
0.978485
0.980703
0.975527
1.04823
1.16156
1.27777
1.44004
1.49338
1.49813
1.5468
1.56355
1.60983
1.64059
1.67485
1.69922
1.71805
1.73349
1.74418
1.75147
1.75667
1.75988
1.76069
1.76061
1.75609
1.75479
1.75186
1.75042
1.74916
1.74469
1.74196
1.73683
1.73415
1.72976
1.72643
1.72359
1.71902
1.71529
1.71152
1.70706
1.70373
1.69865
1.69444
1.6891
1.68486
1.68087
1.67727
1.67409
1.67135
1.66919
1.66764
1.66685
1.66717
1.66811
1.66929
1.67078
1.67274
1.67552
1.67907
1.68351
1.68889
1.69512
1.70243
1.71043
1.7189
1.72839
1.73891
1.74511
1.75069
0.197856
0.198087
0.198007
0.197953
0.19787
0.197762
0.197642
0.197509
0.197353
0.197191
0.196992
0.196829
0.196634
0.196367
0.196165
0.195982
0.195695
0.195365
0.195168
0.194962
0.194615
0.194193
0.193881
0.193704
0.193485
0.193121
0.192559
0.192182
0.191888
0.191665
0.191567
0.191386
0.191099
0.190628
0.190177
0.189925
0.189792
0.189695
0.189736
0.190044
0.190028
0.207773
0.374632
0.93837
0.99816
1.00322
1.00517
1.00723
1.00871
1.00803
1.00499
1.0161
1.03104
1.03091
1.13845
1.29382
1.43592
1.59121
1.64721
1.66634
1.68943
1.70281
1.71515
1.7247
1.73369
1.73988
1.74496
1.74975
1.75232
1.7542
1.75154
1.75167
1.74881
1.74894
1.74641
1.7443
1.74208
1.73869
1.73699
1.73253
1.73005
1.72603
1.72302
1.71906
1.71536
1.71228
1.70789
1.70429
1.70105
1.6972
1.69427
1.69028
1.68724
1.68313
1.67969
1.67613
1.67269
1.66974
1.66735
1.66561
1.66475
1.6645
1.66519
1.66623
1.66744
1.66859
1.6699
1.67164
1.67406
1.6774
1.68171
1.68692
1.69331
1.70063
1.70875
1.71836
1.72896
1.73514
1.74011
0.197878
0.198108
0.198029
0.197977
0.197896
0.197789
0.197677
0.197541
0.197394
0.197227
0.197039
0.196886
0.196673
0.196407
0.196255
0.196059
0.1957
0.195408
0.195256
0.195048
0.19463
0.194195
0.193941
0.193773
0.193531
0.19313
0.19257
0.192201
0.191927
0.191705
0.191559
0.191352
0.191036
0.190648
0.190289
0.190033
0.189938
0.189948
0.190057
0.190539
0.191473
0.215584
0.510633
1.01544
1.00955
1.00822
1.00643
1.00817
1.01497
1.0187
1.02325
1.05559
1.10257
1.13304
1.31716
1.47974
1.63958
1.73177
1.75162
1.75325
1.75006
1.74867
1.74681
1.74545
1.745
1.74411
1.74189
1.74109
1.7393
1.74148
1.74072
1.7397
1.73868
1.7359
1.73459
1.73149
1.73
1.7269
1.72531
1.72076
1.71782
1.71391
1.71099
1.70774
1.70442
1.70192
1.6985
1.69541
1.69271
1.68917
1.68624
1.682
1.67856
1.67502
1.67218
1.66977
1.66765
1.66568
1.66377
1.66192
1.66061
1.66012
1.66059
1.6616
1.66295
1.66415
1.66552
1.66717
1.66913
1.67149
1.67465
1.67877
1.6843
1.69102
1.69876
1.70845
1.71895
1.72525
1.73074
0.197902
0.19813
0.198054
0.198004
0.197924
0.197822
0.197712
0.197578
0.197439
0.197261
0.197101
0.196944
0.196695
0.196479
0.196326
0.196109
0.19573
0.195516
0.195338
0.195098
0.194626
0.194297
0.194051
0.193809
0.193518
0.193087
0.192668
0.192346
0.192008
0.191705
0.191428
0.191217
0.190949
0.190627
0.190359
0.190042
0.18963
0.189271
0.188683
0.188232
0.189308
0.207469
0.716023
1.01579
1.01938
1.01732
1.01635
1.01586
1.02318
1.04119
1.05314
1.11021
1.22033
1.31221
1.53634
1.6839
1.77197
1.78934
1.78261
1.77403
1.76593
1.75783
1.75083
1.74429
1.73867
1.73489
1.73191
1.73014
1.72804
1.72711
1.72641
1.72467
1.72337
1.72159
1.72065
1.71819
1.71728
1.71448
1.7131
1.70969
1.70742
1.70442
1.70199
1.69955
1.69634
1.69373
1.69024
1.68677
1.68355
1.67974
1.67668
1.67281
1.67017
1.66811
1.66621
1.6642
1.66198
1.65974
1.65811
1.65688
1.65649
1.65656
1.65738
1.65847
1.6599
1.66084
1.66173
1.66253
1.66333
1.6646
1.66688
1.67041
1.67532
1.68138
1.68876
1.69842
1.70856
1.71532
1.72017
0.197928
0.198155
0.19808
0.198032
0.197956
0.197858
0.19775
0.197622
0.197482
0.197314
0.197164
0.196992
0.19675
0.196581
0.196392
0.196131
0.195835
0.19565
0.195407
0.195095
0.194724
0.194483
0.194204
0.19384
0.193463
0.193123
0.192851
0.192546
0.192043
0.191649
0.191306
0.191007
0.190832
0.190598
0.190332
0.190051
0.189442
0.189101
0.188952
0.188458
0.198746
0.252868
0.826089
1.00395
1.01513
1.02018
1.02265
1.02879
1.03973
1.07946
1.1301
1.21554
1.40266
1.55622
1.72542
1.79149
1.80142
1.78998
1.77998
1.76689
1.75701
1.74841
1.74114
1.73517
1.72972
1.7246
1.7201
1.71643
1.71324
1.71098
1.70954
1.70848
1.70809
1.70714
1.70742
1.70588
1.70579
1.70369
1.7026
1.69997
1.69776
1.69411
1.69155
1.68932
1.68677
1.68442
1.68172
1.67833
1.67544
1.67166
1.66873
1.66494
1.66161
1.6587
1.65674
1.65562
1.65513
1.65401
1.65279
1.65107
1.6499
1.64935
1.64968
1.65061
1.65215
1.65325
1.65423
1.65515
1.6561
1.6575
1.65916
1.66199
1.6663
1.67204
1.67922
1.68911
1.69891
1.70619
1.71096
0.197956
0.198181
0.198108
0.198064
0.19799
0.197897
0.197793
0.197672
0.197525
0.197379
0.19723
0.197031
0.196837
0.196678
0.196453
0.196174
0.195985
0.195779
0.195459
0.195106
0.194881
0.194646
0.194306
0.193841
0.193443
0.193229
0.192974
0.192671
0.192068
0.191596
0.19121
0.190919
0.190765
0.190534
0.190273
0.189939
0.1896
0.189444
0.189837
0.190428
0.210021
0.379156
0.940609
1.00435
1.01211
1.02161
1.02946
1.0493
1.07952
1.13438
1.28204
1.40112
1.6176
1.74583
1.79902
1.8037
1.78705
1.77715
1.76276
1.75213
1.74241
1.73417
1.72712
1.72075
1.71489
1.70955
1.70486
1.70115
1.69836
1.69627
1.69494
1.69386
1.69335
1.69214
1.69216
1.69064
1.69069
1.68924
1.68849
1.68714
1.68627
1.68405
1.68223
1.68
1.67786
1.67527
1.6727
1.66891
1.66579
1.66148
1.65832
1.65478
1.65203
1.65004
1.64871
1.64789
1.648
1.64665
1.64609
1.64532
1.64491
1.64481
1.64521
1.64619
1.64776
1.64867
1.6493
1.64971
1.64992
1.65064
1.65123
1.6539
1.65791
1.66307
1.67001
1.67916
1.68855
1.69628
1.6994
0.197986
0.198209
0.198139
0.198098
0.198027
0.197938
0.197839
0.197723
0.197577
0.197449
0.197294
0.197083
0.196941
0.196776
0.196494
0.196266
0.196118
0.195885
0.195486
0.195209
0.195037
0.194781
0.194335
0.193866
0.193572
0.193363
0.193059
0.192687
0.192044
0.191602
0.191251
0.190947
0.190684
0.190346
0.189942
0.189453
0.189153
0.188992
0.18949
0.190436
0.217325
0.536306
1.03287
1.02355
1.02163
1.03163
1.04935
1.08053
1.17772
1.25893
1.48258
1.63549
1.76288
1.79732
1.79805
1.77975
1.77044
1.75571
1.74491
1.73448
1.72538
1.7175
1.71077
1.70512
1.70047
1.69633
1.69245
1.68886
1.68556
1.68268
1.68022
1.67808
1.67679
1.67566
1.6759
1.67557
1.67701
1.67701
1.67685
1.67616
1.67584
1.67365
1.67163
1.66875
1.66647
1.6643
1.663
1.66039
1.65822
1.65428
1.65141
1.64804
1.64497
1.6424
1.64065
1.63961
1.64085
1.6397
1.63895
1.63731
1.63638
1.63586
1.6359
1.63672
1.63819
1.6393
1.64009
1.64058
1.64087
1.64153
1.64243
1.64511
1.64855
1.65334
1.66007
1.66949
1.6794
1.68719
1.69013
0.198019
0.198239
0.198172
0.198136
0.198068
0.197984
0.197889
0.197774
0.197639
0.197516
0.19735
0.197166
0.197034
0.196852
0.196568
0.196403
0.196228
0.195951
0.195591
0.195389
0.19517
0.194865
0.194366
0.194024
0.193798
0.193504
0.193147
0.192568
0.192087
0.191726
0.191344
0.190947
0.190526
0.189972
0.189416
0.188839
0.188285
0.187488
0.186689
0.18924
0.211107
0.755841
1.02801
1.03532
1.03779
1.04511
1.09968
1.1509
1.3412
1.47968
1.67838
1.77072
1.79329
1.78584
1.77197
1.75945
1.74708
1.73543
1.72549
1.71686
1.70933
1.70274
1.69686
1.6915
1.68657
1.68201
1.67781
1.67425
1.67115
1.66839
1.66597
1.66392
1.66239
1.66092
1.66036
1.65975
1.66039
1.66061
1.66054
1.6602
1.66051
1.66027
1.66087
1.65858
1.65714
1.65463
1.6529
1.6496
1.6471
1.64294
1.63999
1.63673
1.63398
1.63186
1.63058
1.6297
1.63179
1.63146
1.63219
1.63159
1.63144
1.63121
1.63108
1.63162
1.63272
1.63366
1.63416
1.63421
1.63407
1.63382
1.63491
1.63677
1.63989
1.64439
1.65108
1.65987
1.66872
1.67626
1.67811
0.198054
0.198271
0.198208
0.198175
0.198111
0.198033
0.197944
0.19783
0.19771
0.197586
0.197417
0.197272
0.197125
0.196915
0.1967
0.196538
0.196327
0.196019
0.195785
0.195589
0.195309
0.194888
0.194519
0.1943
0.194024
0.19366
0.193103
0.192585
0.192238
0.191898
0.191445
0.190857
0.190225
0.189635