/*--------------------------------*- C++ -*----------------------------------*\
| =========                 |                                                 |
| \\      /  F ield         | OpenFOAM: The Open Source CFD Toolbox           |
|  \\    /   O peration     | Version:  2.2.x                                 |
|   \\  /    A nd           | Web:      www.OpenFOAM.org                      |
|    \\/     M anipulation  |                                                 |
\*---------------------------------------------------------------------------*/
FoamFile
{
    version     2.0;
    format      ascii;
    class       volVectorField;
    location    "2.25";
    object      U;
}
// * * * * * * * * * * * * * * * * * * * * * * * * * * * * * * * * * * * * * //

dimensions      [0 1 -1 0 0 0 0];

internalField   nonuniform List<vector> 
14161
(
(1.50296 5.0205e-07 4.48658e-22)
(1.50289 -2.291e-06 4.341e-22)
(1.50296 -3.72349e-07 1.0064e-21)
(1.50304 -6.96634e-07 9.64114e-22)
(1.50317 -2.75649e-07 1.06804e-21)
(1.50333 -1.8997e-07 7.30736e-22)
(1.5035 -3.64361e-07 1.58476e-21)
(1.50371 9.98481e-08 9.42888e-22)
(1.50395 1.27738e-07 1.43979e-21)
(1.50418 -1.58646e-06 9.68489e-22)
(1.50448 3.84963e-06 9.69847e-22)
(1.50474 4.75166e-06 6.2168e-22)
(1.50498 -2.97002e-06 4.99358e-22)
(1.50544 -5.05659e-06 7.67018e-22)
(1.50573 1.21508e-05 1.11052e-21)
(1.50592 1.07494e-06 2.00572e-21)
(1.50618 -8.18636e-06 2.06746e-21)
(1.50684 -1.75779e-05 2.38983e-21)
(1.50714 1.80379e-05 2.93289e-21)
(1.50729 1.6616e-05 2.68818e-21)
(1.50733 -1.53344e-06 2.7883e-21)
(1.50791 -1.69353e-05 3.13318e-21)
(1.50848 -8.61879e-06 3.13594e-21)
(1.50868 2.44199e-05 3.33444e-21)
(1.50878 2.17965e-05 3.40264e-21)
(1.50874 2.01362e-06 3.65825e-21)
(1.50892 -2.62117e-05 3.69332e-21)
(1.50956 -6.26773e-06 4.18439e-21)
(1.50966 1.69548e-05 4.39411e-21)
(1.5097 1.81914e-05 4.6418e-21)
(1.50972 1.40118e-05 4.82793e-21)
(1.50936 1.15177e-05 5.49568e-21)
(1.5091 1.21267e-05 4.37018e-21)
(1.50878 6.7186e-06 7.76851e-21)
(1.50837 2.49717e-05 2.71498e-21)
(1.50773 5.06269e-05 1.0497e-20)
(1.50688 7.96269e-05 -5.29274e-21)
(1.50583 8.29704e-05 2.33168e-20)
(1.50522 8.28473e-05 -4.68397e-20)
(1.50398 8.52927e-05 8.70637e-20)
(1.5017 0.000114004 -7.70065e-20)
(1.49898 7.31388e-05 1.78801e-19)
(1.49494 -4.13653e-05 -3.67314e-19)
(1.49389 0.000300424 -8.22292e-20)
(1.49084 0.00299515 4.69132e-18)
(0.762679 0.00724683 1.23058e-17)
(0.538646 0.00558629 9.65793e-18)
(0.516427 0.000838684 6.69796e-18)
(0.518839 -0.0030888 4.41624e-18)
(0.533787 -0.00494568 2.88382e-18)
(0.548241 -0.00850674 5.71923e-19)
(0.573711 -0.00923216 1.99776e-19)
(0.595697 -0.00911184 -5.14217e-19)
(0.619527 -0.00882002 -3.20741e-19)
(0.641809 -0.00840827 -1.28207e-19)
(0.663496 -0.00756762 -1.14577e-19)
(0.684276 -0.00707295 -4.45788e-19)
(0.702931 -0.00622694 -3.49565e-19)
(0.721308 -0.00584065 2.36333e-19)
(0.737707 -0.00527128 -1.48502e-19)
(0.753496 -0.00485056 -1.08159e-18)
(0.768167 -0.00447616 -3.22516e-19)
(0.781602 -0.00395252 1.07173e-18)
(0.793529 -0.00353454 -2.25555e-20)
(0.803749 -0.00297928 -1.99603e-18)
(0.812771 -0.00252548 -6.42526e-19)
(0.820665 -0.00223933 1.8871e-18)
(0.827471 -0.00204585 4.58962e-19)
(0.833225 -0.00182159 -2.23215e-18)
(0.838134 -0.00168601 -1.13408e-18)
(0.841881 -0.00125407 1.14245e-18)
(0.845146 -0.00115549 9.38684e-19)
(0.847281 -0.00123162 -6.08346e-19)
(0.849498 -0.00166621 -1.09215e-18)
(0.855671 -0.002053 -3.74674e-19)
(0.858301 -0.00228415 5.36861e-19)
(0.860162 -0.00228762 2.50849e-19)
(0.861322 -0.0022916 -3.672e-19)
(0.869154 -0.00243117 -4.79581e-19)
(0.871182 -0.0023188 -9.61554e-22)
(0.872375 -0.00237189 2.60073e-19)
(0.8804 -0.00256302 2.23626e-19)
(0.881982 -0.00214478 1.1759e-20)
(0.879909 -0.00200731 1.52281e-19)
(0.889298 -0.002176 2.01879e-19)
(0.892387 -0.00196175 3.67508e-19)
(0.895015 -0.0019822 4.70086e-19)
(0.896597 -0.00157978 6.30933e-19)
(0.893638 -0.00140341 9.17677e-19)
(0.903473 -0.00167684 9.36506e-19)
(0.906597 -0.00169443 9.61818e-19)
(0.908377 -0.00144327 1.14252e-18)
(0.908445 -0.00137479 1.42398e-18)
(0.91865 -0.0017104 1.58894e-18)
(0.921204 -0.00148666 1.5704e-18)
(0.923449 -0.00132091 2.33448e-18)
(0.932153 -0.00144514 2.24907e-18)
(0.936562 -0.00136022 2.66371e-18)
(0.945241 -0.00138664 3.09841e-18)
(0.951308 -0.00147478 3.9103e-18)
(0.957991 -0.00136326 4.02818e-18)
(0.967773 -0.0010097 5.1287e-18)
(0.972641 -0.00154668 5.69755e-18)
(0.977853 -0.00107276 6.13665e-18)
(0.980593 4.15252e-06 7.26237e-18)
(0.978884 0.0010865 7.51088e-18)
(0.980742 0.00498794 7.7012e-18)
(0.94105 0.0138959 7.80562e-18)
(0.873933 0.0329475 7.16889e-18)
(0.740694 0.0468423 3.66349e-18)
(0.604988 0.0561167 3.88433e-18)
(0.485203 0.0584609 -1.22177e-18)
(0.390238 0.0494044 6.12009e-18)
(0.309947 0.0407809 -8.41219e-19)
(0.245984 0.0352783 1.41858e-17)
(0.184812 0.0317019 7.54662e-18)
(0.132566 0.0314495 4.44406e-17)
(0.0811247 0.0246242 4.34719e-17)
(0.0379835 0.0371515 1.03544e-16)
(1.50296 -2.45617e-07 4.83085e-22)
(1.50289 -2.34127e-06 7.62252e-22)
(1.50296 -9.4197e-07 1.08463e-21)
(1.50304 -1.23185e-06 8.37511e-22)
(1.50317 -6.17149e-07 1.0361e-21)
(1.50333 -6.42461e-07 8.48441e-22)
(1.5035 -6.00726e-07 9.79663e-22)
(1.50371 6.33021e-07 9.90361e-22)
(1.50395 3.54026e-07 1.42972e-21)
(1.50418 -1.94828e-06 1.05324e-21)
(1.50448 3.73725e-06 1.16892e-21)
(1.50473 8.84488e-06 3.21953e-22)
(1.50499 -6.37983e-06 7.75794e-22)
(1.50544 -5.6179e-06 4.85362e-22)
(1.50572 2.09815e-05 1.41487e-21)
(1.50593 8.00187e-06 2.36689e-21)
(1.5062 -1.18203e-05 2.61409e-21)
(1.50685 -1.77944e-05 2.52508e-21)
(1.50712 2.68393e-05 3.35616e-21)
(1.50728 2.85779e-05 2.70396e-21)
(1.50736 3.10229e-07 2.9733e-21)
(1.50794 -2.40793e-05 2.896e-21)
(1.50847 -8.04939e-06 3.05129e-21)
(1.50867 4.44753e-05 3.41147e-21)
(1.50876 4.92299e-05 3.83643e-21)
(1.50876 9.42948e-06 3.72656e-21)
(1.50898 -2.7549e-05 3.62232e-21)
(1.50955 -1.53871e-05 4.37629e-21)
(1.50966 2.63951e-05 4.41643e-21)
(1.50971 3.82427e-05 5.35258e-21)
(1.50974 4.30677e-05 4.85782e-21)
(1.50938 6.19824e-05 5.82137e-21)
(1.50913 5.88525e-05 4.96212e-21)
(1.50881 5.0237e-05 7.14385e-21)
(1.50837 6.5085e-05 2.73589e-21)
(1.5077 8.37357e-05 1.14927e-20)
(1.50686 9.0775e-05 -4.76821e-21)
(1.50608 0.000129421 1.72795e-20)
(1.50551 8.58652e-05 -1.68901e-20)
(1.50421 0.000134568 4.75025e-20)
(1.50184 0.000206963 -2.01113e-20)
(1.49917 0.000279784 4.71087e-20)
(1.49449 9.05563e-05 -1.92845e-19)
(1.49394 0.00115443 2.08197e-19)
(1.48778 0.0108681 6.01455e-18)
(0.761849 0.0223943 1.1236e-17)
(0.538266 0.0180209 9.68902e-18)
(0.515151 0.00117584 6.72294e-18)
(0.517946 -0.0106675 3.13488e-18)
(0.536087 -0.0154631 1.5213e-18)
(0.550956 -0.0235616 -3.10678e-19)
(0.576244 -0.0255468 -2.49833e-19)
(0.597879 -0.0247754 -3.15229e-19)
(0.620772 -0.0232341 -3.55627e-19)
(0.64194 -0.0218444 -1.68784e-19)
(0.662503 -0.0200146 -1.20905e-19)
(0.68262 -0.0184103 -4.21425e-19)
(0.701388 -0.0166866 -4.05144e-19)
(0.72 -0.0149776 1.49673e-19)
(0.736811 -0.0132069 -5.1431e-20)
(0.752989 -0.0118389 -9.52032e-19)
(0.768082 -0.0107234 -4.45604e-19)
(0.781697 -0.00924358 8.35521e-19)
(0.793953 -0.00834015 1.00232e-19)
(0.804598 -0.00741703 -1.65449e-18)
(0.814051 -0.00628964 -6.7446e-19)
(0.822107 -0.0054975 1.38045e-18)
(0.829045 -0.00504733 4.5595e-19)
(0.83485 -0.00477111 -1.59136e-18)
(0.839938 -0.00436984 -1.21617e-18)
(0.844095 -0.00394483 6.23889e-19)
(0.847931 -0.00343915 9.82676e-19)
(0.850639 -0.00295414 -4.17087e-19)
(0.853291 -0.00262204 -1.10349e-18)
(0.859488 -0.00289324 -3.78715e-19)
(0.861918 -0.00275145 5.18261e-19)
(0.86361 -0.00258155 2.0431e-19)
(0.864652 -0.00252395 -3.31635e-19)
(0.872487 -0.00303281 -4.44309e-19)
(0.874299 -0.00269166 -2.54002e-20)
(0.875514 -0.00258811 2.16591e-19)
(0.883168 -0.00321421 1.82689e-19)
(0.884544 -0.00254482 5.38196e-20)
(0.882225 -0.00219583 1.48245e-19)
(0.891591 -0.0026974 1.89973e-19)
(0.894694 -0.00250766 3.67164e-19)
(0.89695 -0.00224901 4.60255e-19)
(0.898118 -0.00160557 6.41085e-19)
(0.895492 -0.00133821 9.02848e-19)
(0.905399 -0.00240926 9.0236e-19)
(0.908449 -0.0022559 9.66394e-19)
(0.91004 -0.00162769 1.13866e-18)
(0.910204 -0.00143141 1.42067e-18)
(0.920386 -0.00218031 1.54184e-18)
(0.92281 -0.00180393 1.60442e-18)
(0.92491 -0.0014792 2.29197e-18)
(0.933759 -0.00165703 2.27627e-18)
(0.938054 -0.0014962 2.68031e-18)
(0.946875 -0.00179699 3.08145e-18)
(0.953138 -0.00199902 3.98321e-18)
(0.959417 -0.00176617 4.06018e-18)
(0.968607 -0.00153135 5.22282e-18)
(0.972806 -0.0022019 5.59274e-18)
(0.976147 -0.00104112 6.17269e-18)
(0.976751 0.000139809 7.22369e-18)
(0.96842 0.00199191 7.45456e-18)
(0.958135 0.00882021 7.64423e-18)
(0.89124 0.022174 7.30603e-18)
(0.792376 0.0487737 6.5557e-18)
(0.654546 0.0961391 1.9816e-18)
(0.52325 0.115539 3.22471e-18)
(0.414007 0.107922 -1.79054e-18)
(0.334495 0.0963148 5.04657e-18)
(0.266051 0.0844884 -7.06233e-19)
(0.21183 0.0817655 1.35713e-17)
(0.160013 0.075235 8.43964e-18)
(0.115549 0.0766849 4.03886e-17)
(0.0695911 0.0708586 4.04726e-17)
(0.0297861 0.0880973 8.05968e-17)
(1.50296 2.73002e-07 6.27802e-22)
(1.50289 -3.14737e-06 9.70571e-23)
(1.50296 -1.78813e-06 5.60471e-22)
(1.50304 -1.64672e-06 1.02956e-21)
(1.50317 -1.03329e-06 1.01342e-21)
(1.50333 -1.33769e-06 6.47397e-22)
(1.50351 -7.48017e-07 7.55911e-22)
(1.50371 1.01276e-06 9.17362e-22)
(1.50395 2.73166e-07 1.42176e-21)
(1.50419 -3.08488e-06 1.11155e-21)
(1.50447 6.78838e-06 1.5621e-21)
(1.50473 1.36428e-05 -5.52654e-22)
(1.505 -1.11927e-05 6.05605e-22)
(1.50542 -9.82744e-06 1.62549e-21)
(1.5057 3.19218e-05 2.97695e-21)
(1.50594 1.41687e-05 3.11038e-21)
(1.50623 -3.05652e-05 3.29485e-21)
(1.5068 -2.80476e-05 3.29795e-21)
(1.50707 4.76888e-05 4.16227e-21)
(1.50726 3.99079e-05 3.54509e-21)
(1.50744 2.41018e-06 3.22337e-21)
(1.50797 -6.69962e-05 2.38082e-21)
(1.50843 -2.04328e-05 3.9817e-21)
(1.50864 6.72902e-05 4.09255e-21)
(1.50876 5.93757e-05 2.77882e-21)
(1.50885 9.09079e-06 3.39749e-21)
(1.5091 -4.08649e-05 4.34758e-21)
(1.50952 -3.26944e-05 4.6271e-21)
(1.50965 3.80279e-05 5.09257e-21)
(1.50972 5.74842e-05 6.3706e-21)
(1.50973 6.62028e-05 5.88788e-21)
(1.50946 9.36847e-05 6.33955e-21)
(1.50923 8.07243e-05 5.60728e-21)
(1.50892 6.96161e-05 7.64621e-21)
(1.50855 0.000114738 3.90495e-21)
(1.50801 0.000154569 9.46021e-21)
(1.50726 0.000154428 3.26516e-21)
(1.50638 0.00012382 5.90668e-21)
(1.50568 0.000193484 1.06781e-20)
(1.50434 0.000312516 1.65073e-20)
(1.50195 0.000402357 -6.27618e-21)
(1.49969 0.000470595 4.55591e-22)
(1.49491 0.000607028 1.85983e-21)
(1.49442 0.00225654 4.51434e-19)
(1.48417 0.019654 5.97179e-18)
(0.761394 0.0416434 1.1203e-17)
(0.534147 0.0293902 9.34835e-18)
(0.515073 0.00255577 6.49532e-18)
(0.515501 -0.0186756 3.1852e-18)
(0.537574 -0.0295564 1.54193e-18)
(0.55492 -0.0419828 -1.83412e-19)
(0.582265 -0.0447863 -1.32017e-19)
(0.605344 -0.0426146 -2.02311e-19)
(0.628449 -0.0388119 -2.94843e-19)
(0.650539 -0.0360605 -1.75063e-19)
(0.670594 -0.0334285 -8.33041e-20)
(0.691169 -0.0314625 -3.02781e-19)
(0.710153 -0.0289712 -4.42764e-19)
(0.728865 -0.0260477 -1.06507e-21)
(0.745759 -0.0233476 9.86242e-20)
(0.761861 -0.0211721 -6.65383e-19)
(0.776711 -0.0192545 -5.90986e-19)
(0.789938 -0.0168013 4.57348e-19)
(0.802174 -0.0151051 2.452e-19)
(0.812668 -0.0135552 -1.16629e-18)
(0.822049 -0.0116422 -7.42323e-19)
(0.829841 -0.0103076 8.63373e-19)
(0.836374 -0.00934005 4.22642e-19)
(0.841879 -0.0085192 -1.12316e-18)
(0.846707 -0.00787556 -1.0877e-18)
(0.850836 -0.00706333 3.15974e-19)
(0.854608 -0.00669025 7.41229e-19)
(0.857278 -0.00634692 -2.52591e-19)
(0.859861 -0.00657287 -8.77065e-19)
(0.865864 -0.00714576 -4.02415e-19)
(0.868212 -0.0068701 3.45782e-19)
(0.86986 -0.00656581 1.57683e-19)
(0.871155 -0.00646751 -2.76896e-19)
(0.878331 -0.00741109 -3.85617e-19)
(0.879802 -0.00695628 -4.16588e-20)
(0.881236 -0.00670033 1.82519e-19)
(0.887857 -0.0075001 1.4498e-19)
(0.888811 -0.00661563 8.61758e-20)
(0.886828 -0.0058736 1.39558e-19)
(0.895445 -0.00666468 1.82874e-19)
(0.898646 -0.00634818 3.63374e-19)
(0.900602 -0.00573922 4.58774e-19)
(0.90171 -0.00455057 6.62399e-19)
(0.899661 -0.00419523 8.56139e-19)
(0.9086 -0.00586149 8.73263e-19)
(0.911685 -0.00563792 9.57913e-19)
(0.913036 -0.00458478 1.14362e-18)
(0.91395 -0.00410528 1.40077e-18)
(0.923334 -0.00529076 1.49686e-18)
(0.925708 -0.00485648 1.64975e-18)
(0.928008 -0.00398604 2.21196e-18)
(0.936843 -0.00434593 2.32542e-18)
(0.940882 -0.00402728 2.68189e-18)
(0.949045 -0.00462549 3.12643e-18)
(0.95532 -0.00442069 4.01044e-18)
(0.96084 -0.00371755 4.14616e-18)
(0.968771 -0.00278335 5.26163e-18)
(0.969447 -0.00382705 5.63561e-18)
(0.970116 -0.00151821 6.13588e-18)
(0.96295 0.00231641 7.05502e-18)
(0.939788 0.00983323 7.21962e-18)
(0.902562 0.0289785 7.24382e-18)
(0.794479 0.0654742 6.13184e-18)
(0.670108 0.128086 5.53243e-18)
(0.5359 0.179195 7.94442e-19)
(0.431009 0.19741 2.67816e-18)
(0.347867 0.180415 -2.19669e-18)
(0.28558 0.156989 4.20492e-18)
(0.230416 0.137008 -1.00794e-18)
(0.184323 0.129884 1.2046e-17)
(0.14075 0.11979 7.68753e-18)
(0.102027 0.12166 3.6652e-17)
(0.0614439 0.11523 3.8734e-17)
(0.0275762 0.13596 6.25744e-17)
(1.50296 2.95036e-07 1.5112e-22)
(1.50289 -3.98032e-06 8.28406e-22)
(1.50296 -2.73231e-06 8.55725e-22)
(1.50304 -2.17146e-06 1.37728e-21)
(1.50317 -1.72691e-06 2.75526e-22)
(1.50333 -2.21151e-06 -8.62225e-23)
(1.50351 -5.85817e-07 7.13992e-22)
(1.5037 1.91312e-06 9.65405e-22)
(1.50395 2.46494e-07 1.14751e-21)
(1.50419 -3.63575e-06 4.60592e-22)
(1.50446 9.93208e-06 -1.72025e-22)
(1.50473 1.20117e-05 4.36428e-22)
(1.50502 -1.37357e-05 1.37692e-21)
(1.50539 -9.13904e-06 2.2755e-21)
(1.50567 4.06279e-05 5.33416e-21)
(1.50595 2.31872e-05 4.72349e-21)
(1.50628 -3.05319e-05 4.6152e-21)
(1.50673 -2.62586e-05 4.9851e-21)
(1.50701 5.24664e-05 1.8221e-21)
(1.50728 6.88722e-05 5.88402e-21)
(1.50756 -1.45416e-06 5.54435e-21)
(1.50799 -7.88175e-05 7.42544e-21)
(1.50832 -2.19666e-05 6.10188e-21)
(1.50855 7.061e-05 7.14408e-21)
(1.50881 0.000101093 7.02232e-21)
(1.50904 1.61631e-05 5.49955e-21)
(1.50927 -3.80685e-05 8.14266e-21)
(1.50947 -3.39326e-05 9.62364e-21)
(1.5096 3.02134e-05 8.63476e-21)
(1.5097 7.14887e-05 6.89086e-21)
(1.5097 9.68987e-05 7.12068e-21)
(1.50961 0.000117705 7.1413e-21)
(1.50946 0.000107548 7.08827e-21)
(1.50921 0.000118761 7.07614e-21)
(1.50895 0.000156156 6.79639e-21)
(1.50846 0.000184467 7.30675e-21)
(1.50782 0.000221999 6.79818e-21)
(1.50699 0.000239726 7.36308e-21)
(1.50611 0.000362881 6.12839e-21)
(1.50505 0.000471613 6.94916e-21)
(1.50261 0.000702622 4.56824e-21)
(1.50064 0.000834537 -4.02003e-21)
(1.49584 0.00121285 6.02214e-20)
(1.49589 0.00368395 5.10938e-19)
(1.47977 0.0286427 5.31927e-18)
(0.768392 0.0689144 1.09971e-17)
(0.531771 0.0417019 9.07475e-18)
(0.514737 0.00229805 6.39644e-18)
(0.517361 -0.0295829 3.24475e-18)
(0.543736 -0.0476197 1.81056e-18)
(0.562445 -0.0627178 4.99107e-22)
(0.58992 -0.0674441 -5.28552e-20)
(0.614893 -0.0644504 -1.52608e-19)
(0.64038 -0.0583753 -2.10176e-19)
(0.664714 -0.0535533 -2.54201e-19)
(0.686078 -0.0487967 -1.08578e-19)
(0.708253 -0.0444651 -1.22641e-19)
(0.727558 -0.0400734 -3.64026e-19)
(0.746129 -0.0354455 -3.00513e-19)
(0.762875 -0.0319492 6.05016e-22)
(0.778575 -0.0288958 -1.86801e-19)
(0.792524 -0.0257304 -5.33348e-19)
(0.804715 -0.0223017 -1.68437e-19)
(0.816565 -0.0196525 1.75441e-19)
(0.826228 -0.0171917 -4.2116e-19)
(0.835152 -0.0144536 -6.25746e-19)
(0.842427 -0.0124961 4.2219e-20)
(0.848296 -0.0111038 2.07253e-19)
(0.853404 -0.0103264 -4.55368e-19)
(0.857807 -0.00971183 -7.40593e-19)
(0.861728 -0.00919867 -9.5663e-20)
(0.865427 -0.00881279 2.98866e-19)
(0.867934 -0.00814855 -1.49914e-19)
(0.870447 -0.00762013 -4.87575e-19)
(0.875912 -0.00794145 -3.38162e-19)
(0.878191 -0.00729625 1.68788e-20)
(0.87972 -0.00674419 2.23295e-20)
(0.881356 -0.00650614 -1.44081e-19)
(0.887891 -0.00749812 -2.38344e-19)
(0.889155 -0.00691784 -8.64447e-20)
(0.890758 -0.00650211 8.3855e-20)
(0.896403 -0.00731839 8.98519e-20)
(0.897308 -0.00638894 1.16076e-19)
(0.895263 -0.00570319 1.35158e-19)
(0.903109 -0.00665449 1.8413e-19)
(0.906347 -0.00649087 3.47321e-19)
(0.907926 -0.00563436 4.52998e-19)
(0.908943 -0.00427183 6.64036e-19)
(0.907209 -0.0040758 7.86379e-19)
(0.915096 -0.00595677 8.0876e-19)
(0.91827 -0.00574759 9.41937e-19)
(0.919422 -0.00452256 1.13373e-18)
(0.920527 -0.0042628 1.33967e-18)
(0.929398 -0.005406 1.39864e-18)
(0.931823 -0.00502142 1.75089e-18)
(0.934082 -0.00431552 2.02507e-18)
(0.94271 -0.00413276 2.36724e-18)
(0.946181 -0.00396589 2.73179e-18)
(0.952874 -0.00488635 3.22938e-18)
(0.958137 -0.0046991 3.83474e-18)
(0.961946 -0.00371427 4.36248e-18)
(0.967454 -0.00204749 4.98337e-18)
(0.961569 -0.00265576 5.70335e-18)
(0.954853 0.00174005 6.12701e-18)
(0.929869 0.0115721 6.83103e-18)
(0.872824 0.0283559 6.65311e-18)
(0.779796 0.0612262 6.29233e-18)
(0.641633 0.131759 3.97078e-18)
(0.510865 0.193339 4.00032e-18)
(0.412359 0.23598 -1.86196e-19)
(0.346442 0.248286 1.49735e-18)
(0.290459 0.226676 -2.8392e-18)
(0.245071 0.2005 3.25271e-18)
(0.200989 0.176711 -1.8637e-18)
(0.161427 0.168053 9.65135e-18)
(0.124536 0.156151 5.28719e-18)
(0.090724 0.159221 2.87643e-17)
(0.0554604 0.15383 2.99199e-17)
(0.0286405 0.175362 4.135e-17)
(1.50296 2.7193e-07 3.2368e-22)
(1.50289 -4.72923e-06 1.70071e-21)
(1.50296 -3.06002e-06 -3.39034e-22)
(1.50304 -2.59919e-06 1.52563e-21)
(1.50317 -1.91156e-06 6.47626e-22)
(1.50333 -2.52493e-06 1.39761e-21)
(1.50351 -3.60665e-07 9.0824e-22)
(1.5037 2.43763e-06 7.50521e-22)
(1.50394 -6.36839e-07 1.16531e-21)
(1.5042 -2.89948e-06 1.9264e-23)
(1.50445 1.36531e-05 -1.10526e-21)
(1.50473 1.35207e-05 3.47712e-21)
(1.50504 -1.39428e-05 2.83258e-21)
(1.50536 -6.0677e-06 4.11695e-21)
(1.50563 3.911e-05 2.96247e-21)
(1.50599 2.36636e-05 3.96957e-21)
(1.50633 -3.46314e-05 8.9151e-21)
(1.50665 -2.30777e-05 9.28738e-21)
(1.50693 4.91847e-05 8.60763e-21)
(1.50737 7.11549e-05 3.21942e-21)
(1.50769 -4.52447e-06 5.5926e-21)
(1.50798 -6.30283e-05 6.82676e-21)
(1.50818 2.23467e-06 5.7165e-21)
(1.5084 6.5359e-05 6.92775e-21)
(1.50894 7.88896e-05 8.94443e-21)
(1.50923 1.88178e-05 1.01091e-20)
(1.50938 -3.56867e-05 8.83272e-21)
(1.50948 -2.37095e-05 7.22986e-21)
(1.50953 5.7317e-05 8.39891e-21)
(1.50963 9.50371e-05 9.90171e-21)
(1.50982 0.00014175 8.89853e-21)
(1.50988 0.000146867 7.56228e-21)
(1.50983 0.000144936 7.93191e-21)
(1.50971 0.000157086 6.69146e-21)
(1.50949 0.000155932 6.10583e-21)
(1.5091 0.000205728 7.88636e-21)
(1.50852 0.000260585 7.4842e-21)
(1.50783 0.000353926 5.92115e-21)
(1.50699 0.000436632 6.82192e-21)
(1.50616 0.000598623 4.91972e-21)
(1.50416 0.000901388 8.06953e-21)
(1.50238 0.000962225 -3.0901e-21)
(1.49876 0.00185147 3.21994e-20)
(1.49839 0.00522213 4.99108e-19)
(1.47916 0.0389736 4.96033e-18)
(0.793434 0.102282 1.09816e-17)
(0.533502 0.0551888 9.17035e-18)
(0.515822 -0.00212653 6.51093e-18)
(0.529381 -0.0445523 3.47123e-18)
(0.558543 -0.0707208 2.06648e-18)
(0.583983 -0.0841172 1.20655e-19)
(0.61162 -0.0904335 9.74798e-21)
(0.638383 -0.0868571 -1.14597e-19)
(0.66377 -0.0784972 -1.76711e-19)
(0.688337 -0.0718573 -2.24342e-19)
(0.709715 -0.0659611 -2.6635e-19)
(0.73199 -0.0605395 -1.87426e-19)
(0.749999 -0.0544082 -1.81374e-19)
(0.768858 -0.047151 -3.16034e-19)
(0.785457 -0.0426225 -2.70293e-19)
(0.800527 -0.0370943 -1.57234e-19)
(0.814471 -0.0325002 -2.7398e-19)
(0.825614 -0.0277011 -3.37435e-19)
(0.836703 -0.0244128 -1.48533e-19)
(0.845464 -0.0212265 -1.8734e-19)
(0.853923 -0.0184365 -3.85797e-19)
(0.860791 -0.0163385 -2.59831e-19)
(0.866462 -0.0142997 -4.85193e-20)
(0.871367 -0.0130028 -2.09784e-19)
(0.875666 -0.0122995 -4.45778e-19)
(0.879138 -0.0116614 -2.12058e-19)
(0.882554 -0.011306 -6.04427e-20)
(0.884706 -0.0105834 -1.35442e-19)
(0.886618 -0.0107969 -2.44841e-19)
(0.891344 -0.0114495 -2.56262e-19)
(0.893183 -0.0111337 -1.21551e-19)
(0.894543 -0.0104509 -8.66077e-20)
(0.896134 -0.0103437 -9.44013e-20)
(0.901942 -0.0114669 -1.61531e-19)
(0.903015 -0.0109131 -8.77046e-20)
(0.904863 -0.0103239 1.76522e-20)
(0.909027 -0.011217 7.0106e-20)
(0.910377 -0.0102212 1.21535e-19)
(0.908295 -0.00938855 1.3045e-19)
(0.914541 -0.0105906 2.01841e-19)
(0.917873 -0.0104282 3.30663e-19)
(0.918992 -0.00940287 4.51065e-19)
(0.919777 -0.00784725 6.34688e-19)
(0.918437 -0.00755707 7.21574e-19)
(0.924795 -0.00943534 7.69742e-19)
(0.928092 -0.00918478 9.17002e-19)
(0.929001 -0.00799906 1.11182e-18)
(0.929882 -0.00773457 1.29623e-18)
(0.938275 -0.00861533 1.40369e-18)
(0.940442 -0.00789122 1.83086e-18)
(0.942261 -0.00650038 1.90702e-18)
(0.950049 -0.00605086 2.37729e-18)
(0.952363 -0.00596685 2.82133e-18)
(0.957854 -0.00634419 3.15351e-18)
(0.960591 -0.00555435 3.69859e-18)
(0.960255 -0.00497296 4.31235e-18)
(0.963344 -0.000517562 4.83033e-18)
(0.94211 0.00267213 5.71439e-18)
(0.916718 0.0122794 5.95935e-18)
(0.857761 0.0351933 6.36729e-18)
(0.750884 0.0729187 5.51733e-18)
(0.616623 0.141322 4.78117e-18)
(0.484607 0.211214 2.15588e-18)
(0.390212 0.260135 2.57153e-18)
(0.328528 0.283063 -6.59689e-19)
(0.28305 0.282749 1.00522e-18)
(0.245868 0.260178 -3.21034e-18)
(0.212283 0.232866 2.45357e-18)
(0.176836 0.210645 -2.59765e-18)
(0.14363 0.200665 7.36978e-18)
(0.112538 0.188384 3.66377e-18)
(0.0833823 0.192484 1.99953e-17)
(0.0530389 0.18814 1.97553e-17)
(0.0315798 0.208986 2.45078e-17)
(1.50295 4.76024e-07 9.43174e-22)
(1.50289 -5.30878e-06 -4.33528e-22)
(1.50296 -4.05822e-06 2.42415e-21)
(1.50304 -3.32291e-06 -2.57349e-21)
(1.50317 -2.03298e-06 -7.96894e-22)
(1.50332 -2.19434e-06 -2.88544e-21)
(1.50351 -1.57468e-07 9.17158e-22)
(1.5037 3.12201e-06 4.31379e-21)
(1.50394 -3.33599e-07 -3.69472e-21)
(1.5042 -3.49801e-06 -2.63079e-22)
(1.50444 1.52941e-05 2.88381e-21)
(1.50473 1.28543e-05 -2.56822e-21)
(1.50506 -1.3477e-05 2.06599e-21)
(1.50533 3.43495e-06 6.8007e-21)
(1.5056 4.06658e-05 5.23203e-21)
(1.50604 2.39963e-05 6.42308e-21)
(1.50635 -3.11015e-05 4.81042e-22)
(1.5066 -1.39223e-08 1.07018e-20)
(1.50686 5.23747e-05 5.14806e-21)
(1.50745 5.33871e-05 5.95734e-21)
(1.50779 -1.00537e-05 7.63748e-21)
(1.508 -3.79839e-05 8.36347e-21)
(1.50809 1.56792e-05 1.00261e-20)
(1.50828 6.64686e-05 9.44256e-21)
(1.50904 6.42405e-05 1.05226e-20)
(1.50933 2.24232e-05 1.0514e-20)
(1.50946 -1.23136e-05 1.08957e-20)
(1.50954 -4.93938e-06 9.32747e-21)
(1.50953 5.18569e-05 7.67315e-21)
(1.5096 7.99373e-05 6.80509e-21)
(1.50998 0.000159312 6.36381e-21)
(1.51022 0.000158212 5.33346e-21)
(1.51026 0.000146065 6.05257e-21)
(1.5102 0.000168314 5.16507e-21)
(1.51008 0.000187817 5.00294e-21)
(1.50979 0.000256418 5.09379e-21)
(1.50926 0.000333108 5.49853e-21)
(1.50875 0.000463925 4.44222e-21)
(1.50822 0.000615352 5.69554e-21)
(1.50749 0.000852555 2.2259e-21)
(1.50649 0.00120714 7.74547e-21)
(1.50511 0.00148896 -2.43138e-21)
(1.50332 0.00239526 1.8021e-20)
(1.50185 0.00647168 4.42162e-19)
(1.48159 0.0485776 4.79448e-18)
(0.855018 0.140144 1.09483e-17)
(0.541626 0.066771 9.5165e-18)
(0.518618 -0.0121613 6.91369e-18)
(0.556217 -0.0679889 3.86076e-18)
(0.577658 -0.102962 2.23708e-18)
(0.615749 -0.11462 8.20623e-19)
(0.644315 -0.117835 2.37612e-19)
(0.67198 -0.112893 -1.34499e-20)
(0.696003 -0.100998 -1.59915e-19)
(0.721976 -0.0916652 -1.48902e-19)
(0.743033 -0.0822578 -2.00472e-19)
(0.765637 -0.073079 -2.28629e-19)
(0.782183 -0.0646402 -1.98882e-19)
(0.801728 -0.0547599 -1.84998e-19)
(0.818446 -0.049151 -2.29025e-19)
(0.831714 -0.0413131 -2.35341e-19)
(0.845769 -0.0363725 -2.27004e-19)
(0.856917 -0.0300364 -2.23317e-19)
(0.867783 -0.0257425 -2.19031e-19)
(0.874724 -0.0220588 -1.90658e-19)
(0.884231 -0.018762 -2.39497e-19)
(0.889887 -0.0169472 -2.45724e-19)
(0.895052 -0.014725 -1.82807e-19)
(0.899436 -0.0135022 -1.5093e-19)
(0.903033 -0.0128219 -2.61905e-19)
(0.906126 -0.0125477 -1.6915e-19)
(0.908825 -0.0122972 -1.80914e-19)
(0.910658 -0.0114807 -1.70034e-19)
(0.912146 -0.0114299 -1.54413e-19)
(0.915451 -0.011951 -1.56296e-19)
(0.917124 -0.0115272 -1.42348e-19)
(0.918149 -0.0105927 -1.2069e-19)
(0.919242 -0.0104318 -1.03611e-19)
(0.923657 -0.011367 -9.94762e-20)
(0.924509 -0.0108077 -5.36676e-20)
(0.926126 -0.0103846 -5.92097e-22)
(0.928146 -0.0109046 5.15551e-20)
(0.93 -0.0100075 1.04445e-19)
(0.92779 -0.00906721 1.46612e-19)
(0.931726 -0.0104152 2.34789e-19)
(0.935123 -0.0103735 3.46153e-19)
(0.935648 -0.00949554 4.25888e-19)
(0.935985 -0.0080108 5.91822e-19)
(0.935127 -0.00782446 6.51749e-19)
(0.939236 -0.00959487 7.31042e-19)
(0.942492 -0.00929654 8.95814e-19)
(0.943212 -0.00816856 1.03462e-18)
(0.943299 -0.00770528 1.26729e-18)
(0.950127 -0.00836743 1.45573e-18)
(0.951645 -0.00838941 1.74386e-18)
(0.952614 -0.00729295 1.88534e-18)
(0.95892 -0.0056345 2.39563e-18)
(0.958605 -0.00587722 2.7323e-18)
(0.961112 -0.00677316 3.1884e-18)
(0.961026 -0.00483693 3.59371e-18)
(0.950151 -0.00235787 4.23754e-18)
(0.943213 0.00692084 4.71039e-18)
(0.896879 0.0200562 5.51667e-18)
(0.830978 0.0392893 5.38213e-18)
(0.725129 0.0839549 5.28139e-18)
(0.588953 0.160117 3.73459e-18)
(0.460328 0.225613 3.23693e-18)
(0.369606 0.276218 9.5292e-19)
(0.312591 0.305683 1.65724e-18)
(0.272398 0.316408 -9.63114e-19)
(0.23812 0.306822 7.05385e-19)
(0.212271 0.282203 -3.30517e-18)
(0.185477 0.257927 1.70557e-18)
(0.156965 0.237183 -2.84902e-18)
(0.129369 0.227326 5.33197e-18)
(0.103125 0.21608 2.8543e-18)
(0.0784301 0.221114 1.1336e-17)
(0.0520785 0.218404 1.06112e-17)
(0.0349366 0.238369 1.22056e-17)
(1.50295 2.74784e-07 2.05407e-21)
(1.50288 -5.83866e-06 -1.79669e-22)
(1.50296 -4.81625e-06 8.84355e-22)
(1.50304 -3.38746e-06 -2.64184e-21)
(1.50316 -2.12285e-06 3.6442e-21)
(1.50332 -2.29542e-06 6.18058e-21)
(1.5035 -9.94228e-07 2.28787e-21)
(1.5037 3.02495e-06 6.22278e-21)
(1.50394 8.26167e-07 -7.82875e-22)
(1.50419 -1.15415e-06 6.45118e-22)
(1.50443 1.48967e-05 3.18566e-21)
(1.50474 1.34566e-05 8.01917e-21)
(1.50506 -8.48192e-06 1.11102e-20)
(1.50531 1.29403e-05 6.53351e-21)
(1.50558 3.49998e-05 3.86222e-21)
(1.50608 1.59429e-05 7.62062e-21)
(1.50637 -2.42741e-05 1.34328e-20)
(1.50657 1.15379e-05 8.81675e-21)
(1.50681 4.47681e-05 1.14698e-20)
(1.5075 3.94022e-05 1.72579e-20)
(1.50785 -4.37251e-06 1.26075e-20)
(1.50802 -7.09547e-06 1.0738e-20)
(1.50805 2.23702e-05 1.0723e-20)
(1.50822 4.20983e-05 1.01053e-20)
(1.50908 3.62375e-05 6.03419e-21)
(1.50939 3.43222e-05 6.9022e-21)
(1.50953 2.1939e-05 7.71097e-21)
(1.50961 2.12564e-05 8.78887e-21)
(1.50957 5.99583e-05 6.27679e-21)
(1.5096 7.12852e-05 4.23249e-21)
(1.51011 0.000116722 5.55098e-21)
(1.51052 0.000121239 5.83534e-21)
(1.51065 0.000145116 5.52897e-21)
(1.51069 0.000193202 5.13695e-21)
(1.51067 0.000219008 3.8355e-21)
(1.51048 0.000283754 3.32719e-21)
(1.51023 0.000396914 3.96002e-21)
(1.51006 0.0005038 2.58497e-21)
(1.50997 0.000712518 4.25876e-21)
(1.50979 0.000901034 3.26276e-22)
(1.51013 0.00132739 8.56978e-21)
(1.50961 0.0015128 -7.93452e-21)
(1.50923 0.00259137 3.08658e-21)
(1.5086 0.00723011 4.01144e-19)
(1.4885 0.0564222 4.70584e-18)
(0.968639 0.173897 1.09361e-17)
(0.55655 0.0753637 1.09548e-17)
(0.532425 -0.0303618 8.05832e-18)
(0.595575 -0.0974936 4.87715e-18)
(0.619051 -0.135897 3.13489e-18)
(0.662927 -0.148522 1.95902e-18)
(0.693699 -0.14469 7.03437e-19)
(0.722752 -0.136988 3.53459e-19)
(0.743108 -0.120977 7.83671e-20)
(0.770903 -0.109707 -4.0731e-21)
(0.787889 -0.097451 -9.05902e-20)
(0.8099 -0.0858417 -9.44842e-20)
(0.823571 -0.0752526 -1.42114e-19)
(0.842601 -0.0643455 -1.46776e-19)
(0.857932 -0.0558683 -1.57003e-19)
(0.869007 -0.046426 -1.66914e-19)
(0.882077 -0.0411786 -1.52176e-19)
(0.891777 -0.0351215 -1.39893e-19)
(0.901864 -0.0301295 -1.53651e-19)
(0.906127 -0.0249645 -1.49537e-19)
(0.91675 -0.0212786 -1.79044e-19)
(0.919879 -0.0189429 -1.83463e-19)
(0.924961 -0.0167498 -1.80844e-19)
(0.928108 -0.0153664 -1.3448e-19)
(0.930643 -0.0146181 -1.63418e-19)
(0.933076 -0.0141699 -1.29095e-19)
(0.934779 -0.0136129 -1.57082e-19)
(0.936314 -0.0127947 -1.50478e-19)
(0.937161 -0.0128632 -1.27733e-19)
(0.939287 -0.0134918 -1.22795e-19)
(0.940773 -0.0132771 -1.12102e-19)
(0.941512 -0.0126353 -9.32707e-20)
(0.94193 -0.0125448 -8.0043e-20)
(0.944816 -0.0131654 -6.48911e-20)
(0.945699 -0.0128984 -3.93563e-20)
(0.946682 -0.0125643 -1.7715e-20)
(0.947679 -0.012523 6.82208e-20)
(0.949389 -0.0120045 1.28911e-19)
(0.946898 -0.0112139 1.67308e-19)
(0.949234 -0.012388 2.02555e-19)
(0.951977 -0.0127621 3.61831e-19)
(0.952156 -0.0120158 4.28058e-19)
(0.95176 -0.0105621 5.62312e-19)
(0.950982 -0.010309 6.52093e-19)
(0.953027 -0.0112315 7.28739e-19)
(0.955726 -0.0108179 8.84602e-19)
(0.956169 -0.0104493 1.09667e-18)
(0.955106 -0.00985404 1.29421e-18)
(0.960199 -0.00996709 1.44442e-18)
(0.959805 -0.0096349 1.68858e-18)
(0.959551 -0.00787062 1.90794e-18)
(0.965442 -0.00608847 2.29438e-18)
(0.958138 -0.00690474 2.71891e-18)
(0.952998 -0.00582881 3.12468e-18)
(0.948466 0.00146964 3.59977e-18)
(0.918321 0.00897572 4.09425e-18)
(0.884068 0.0242602 4.47011e-18)
(0.801654 0.0570068 4.93026e-18)
(0.688665 0.0982885 4.30049e-18)
(0.559768 0.178991 3.72528e-18)
(0.436906 0.244378 2.16588e-18)
(0.353844 0.293121 1.89169e-18)
(0.299564 0.324396 3.05816e-19)
(0.262824 0.340433 9.55243e-19)
(0.233233 0.341309 -1.05101e-18)
(0.208577 0.325493 5.5028e-19)
(0.188072 0.301683 -2.60735e-18)
(0.165423 0.278385 8.99821e-19)
(0.141424 0.259763 -2.87232e-18)
(0.118462 0.250072 3.77271e-18)
(0.0961321 0.240313 1.84177e-18)
(0.0752781 0.246287 5.6645e-18)
(0.0521921 0.245404 5.22729e-18)
(0.0389438 0.264001 5.76682e-18)
(1.50294 2.25174e-07 -3.88374e-21)
(1.50288 -6.20344e-06 -2.37707e-21)
(1.50295 -4.939e-06 -1.9148e-21)
(1.50303 -3.65549e-06 -1.16058e-21)
(1.50316 -2.59762e-06 -9.203e-22)
(1.50331 -2.87621e-06 4.03071e-21)
(1.5035 -3.50125e-07 4.6866e-21)
(1.5037 2.80189e-06 -1.97344e-21)
(1.50393 1.86919e-06 1.25426e-21)
(1.50419 1.9771e-06 1.19704e-21)
(1.50442 1.25152e-05 4.87162e-21)
(1.50475 9.09941e-06 8.71973e-21)
(1.50506 -9.39096e-07 1.72342e-20)
(1.50528 2.16712e-05 2.30405e-20)
(1.50556 2.81095e-05 2.06086e-20)
(1.50611 8.93865e-06 1.38522e-20)
(1.50637 2.91039e-06 1.90212e-20)
(1.50654 2.60452e-05 9.44102e-21)
(1.50679 2.74804e-05 1.50563e-20)
(1.50753 1.44733e-05 1.95872e-20)
(1.50786 1.75669e-05 1.06574e-20)
(1.50802 3.5434e-05 9.67579e-21)