/*--------------------------------*- C++ -*----------------------------------*\
| =========                 |                                                 |
| \\      /  F ield         | OpenFOAM: The Open Source CFD Toolbox           |
|  \\    /   O peration     | Version:  2.2.x                                 |
|   \\  /    A nd           | Web:      www.OpenFOAM.org                      |
|    \\/     M anipulation  |                                                 |
\*---------------------------------------------------------------------------*/
FoamFile
{
    version     2.0;
    format      ascii;
    class       surfaceScalarField;
    location    "1.7";
    object      cfmax;
}
// * * * * * * * * * * * * * * * * * * * * * * * * * * * * * * * * * * * * * //

dimensions      [0 3 -1 0 0 0 0];

internalField   nonuniform List<scalar> 
28084
(
0.00101422
0.00100982
0.00100605
0.00100287
0.00100027
0.000998202
0.000996646
0.000995564
0.000994922
0.000994683
0.000994811
0.000995269
0.000996019
0.000997026
0.000998253
0.000999664
0.00100123
0.00100291
0.00100467
0.0010065
0.00100835
0.00101021
0.00101205
0.00101385
0.00101558
0.00101724
0.0010188
0.00102024
0.00102156
0.00102275
0.00102379
0.00102467
0.00102539
0.00102594
0.00102631
0.0010265
0.0010265
0.00102631
0.00102592
0.00102532
0.0010242
0.00101743
0.00102593
0.000868105
0.000772347
0.000757005
0.000759318
0.000766074
0.000774243
0.000782697
0.000791193
0.000799498
0.000807309
0.000815083
0.000823261
0.000831821
0.000840292
0.000848302
0.000855672
0.00086206
0.00086824
0.000874689
0.000881254
0.000887437
0.000892668
0.000896744
0.000899491
0.000902274
0.000905204
0.000907877
0.000909751
0.000910329
0.000909118
0.000907414
0.000905849
0.000904146
0.000901849
0.000898326
0.000893127
0.000887151
0.00088139
0.000875637
0.000869489
0.000862355
0.000853826
0.000844942
0.000836511
0.000828269
0.000819855
0.000810812
0.000800915
0.00079157
0.00078297
0.000774829
0.000766753
0.000758392
0.000750511
0.000743846
0.000738141
0.000733125
0.000728413
0.000724497
0.000722179
0.000721249
0.000721436
0.000722376
0.000724586
0.000728686
0.000734456
0.000741517
0.000749707
0.000759525
0.000771269
0.000784818
0.000799518
0.000815379
0.000832463
0.000851303
0.000725948
0.000724383
0.001019
0.000721305
0.0010177
0.000716739
0.00101698
0.00071072
0.00101683
0.000703295
0.00101721
0.000694525
0.0010181
0.000684478
0.00101946
0.000673231
0.00102127
0.000660871
0.00102347
0.000647708
0.00102605
0.000633965
0.00102895
0.000619332
0.00103214
0.00060391
0.00103557
0.000587804
0.00103921
0.000571117
0.00104303
0.00055395
0.00104696
0.000536403
0.001051
0.000518574
0.00105508
0.000500553
0.00105919
0.000482428
0.00106329
0.000464282
0.00106735
0.000446191
0.00107135
0.000428224
0.00107524
0.000410446
0.00107903
0.000392913
0.00108267
0.000375678
0.00108615
0.000358784
0.00108946
0.000342272
0.00109258
0.000326173
0.0010955
0.000310516
0.0010982
0.000295322
0.00110068
0.000280609
0.00110293
0.000266391
0.00110493
0.000252676
0.0011067
0.000239468
0.00110821
0.000226771
0.00110947
0.000214907
0.00111047
0.000203558
0.00111121
0.000192717
0.00111169
0.000182409
0.00111188
0.000173194
0.00111147
0.000177395
0.00110491
0.000372326
0.0011147
0.000472696
0.000944022
0.000502982
0.000839592
0.000508516
0.000821325
0.000509878
0.000822462
0.000510708
0.000828474
0.000511517
0.000835974
0.000512324
0.000843739
0.000513143
0.000851498
0.000514001
0.000859005
0.000514849
0.000865945
0.00051576
0.00087287
0.000516895
0.000880217
0.000518206
0.000887947
0.000519506
0.000895564
0.000520826
0.000902678
0.000522181
0.000909115
0.000523477
0.00091449
0.000524891
0.000919713
0.000526639
0.00092524
0.000528873
0.000930881
0.000531095
0.00093612
0.000533357
0.000940365
0.000535612
0.000943385
0.000537857
0.000945123
0.000540329
0.000946913
0.000543108
0.000948888
0.000545988
0.000950605
0.000548869
0.000951492
0.000551756
0.000951047
0.000554536
0.00094875
0.000557507
0.000946064
0.00056077
0.000943573
0.000564246
0.000940954
0.000567705
0.000937714
0.000571162
0.000933221
0.00057452
0.000926973
0.000578001
0.000920054
0.000581765
0.000913413
0.00058576
0.000906808
0.000589757
0.000899808
0.000593743
0.00089179
0.000597626
0.000882298
0.000601662
0.000872543
0.000605978
0.000863304
0.00061047
0.000854284
0.000614969
0.000845085
0.000619436
0.00083522
0.000623859
0.000824468
0.000628521
0.00081433
0.000633432
0.000804984
0.00063843
0.000796114
0.00064344
0.000787296
0.000648408
0.000778152
0.000653539
0.000769494
0.000658912
0.000762078
0.000664428
0.000755644
0.000669997
0.000749905
0.000675574
0.000744444
0.000681303
0.000739745
0.000687265
0.000736636
0.000693376
0.000734914
0.000699568
0.000734319
0.000705815
0.000734461
0.00071227
0.000735826
0.00071896
0.000739056
0.000725811
0.000743936
0.000732785
0.000750095
0.000739926
0.000757353
0.000747392
0.000766181
0.000755205
0.000776872
0.000763308
0.000789286
0.000771643
0.000802776
0.000780423
0.000817372
0.000789273
0.000833147
0.000800596
0.000850533
0.000727518
0.000725435
0.00102538
0.000721855
0.00102714
0.000716807
0.00102944
0.000710328
0.00103227
0.00070247
0.00103561
0.000693293
0.00103941
0.00068411
0.00104366
0.000673966
0.00104832
0.000662613
0.00105334
0.000650141
0.0010587
0.000636646
0.00106434
0.000622226
0.00107023
0.000606984
0.00107632
0.000591024
0.00108257
0.000574449
0.00108893
0.000557362
0.00109538
0.000539866
0.00110185
0.000522057
0.00110832
0.000504029
0.00111475
0.000485871
0.0011211
0.000467668
0.00112734
0.000449498
0.00113344
0.000431432
0.00113938
0.000413536
0.00114512
0.00039587
0.00115065
0.000378486
0.00115594
0.000361431
0.00116099
0.000344746
0.00116576
0.000328465
0.00117026
0.000312617
0.00117446
0.000297225
0.00117836
0.000282308
0.00118196
0.00026788
0.00118524
0.000253952
0.0011882
0.000240528
0.00119084
0.000227611
0.00119316
0.0002152
0.00119515
0.000203293
0.00119681
0.000192514
0.00119814
0.000182436
0.00119913
0.000173441
0.00119942
0.000177973
0.00119298
0.000374549
0.00120444
0.000475144
0.00102084
0.000504299
0.000907999
0.000509774
0.000886764
0.000511164
0.000886692
0.000511991
0.000891916
0.000512787
0.000898704
0.000513574
0.000905737
0.000514361
0.000912725
0.000515168
0.000919421
0.000515942
0.000925473
0.000516767
0.000931549
0.000517806
0.000938081
0.000519014
0.000944979
0.0005202
0.000951734
0.000521395
0.000957939
0.000522603
0.000963435
0.000523733
0.000967802
0.000525328
0.00097208
0.000527529
0.000976693
0.000529938
0.000981418
0.000532342
0.0009857
0.000534794
0.00098894
0.000537245
0.000990893
0.000539681
0.000991636
0.000542347
0.000992444
0.00054534
0.000993458
0.000548431
0.000994215
0.000551525
0.000994086
0.000554635
0.000992598
0.000557608
0.000989213
0.000560774
0.000985555
0.000564245
0.000982135
0.000567921
0.000978584
0.00057158
0.000974376
0.000575237
0.000968887
0.000578753
0.000961573
0.000582379
0.000953712
0.000586297
0.000946189
0.000590441
0.000938711
0.000594567
0.000930818
0.000598676
0.000921885
0.00060264
0.000911407
0.000606744
0.000900767
0.000611123
0.000890708
0.000615666
0.000880886
0.000620202
0.000870865
0.000624693
0.000860141
0.000629112
0.000848511
0.000633752
0.000837579
0.000638634
0.000827466
0.000643585
0.000817844
0.000648541
0.00080825
0.000653448
0.000798296
0.000658506
0.000788839
0.000663803
0.000780647
0.000669242
0.00077345
0.000674743
0.000766948
0.000680273
0.000760709
0.000685962
0.000755187
0.000691896
0.000751242
0.000697998
0.000748672
0.000704216
0.000747246
0.000710545
0.000746545
0.000717126
0.000747001
0.000723985
0.000749291
0.000731068
0.000753205
0.000738375
0.000758389
0.000745966
0.000764659
0.000753991
0.00077248
0.00076247
0.000782172
0.000771427
0.000793541
0.000780789
0.000805978
0.000790946
0.000819571
0.000801195
0.000834403
0.000813897
0.000850804
0.000726435
0.000723869
0.00103336
0.000719821
0.00103813
0.000714321
0.00104342
0.000709324
0.00104919
0.000703669
0.00105543
0.000696559
0.00106212
0.000688055
0.00106922
0.000678229
0.00107669
0.00066716
0.00108449
0.000654937
0.00109259
0.000641654
0.00110094
0.000627409
0.0011095
0.000612305
0.00111821
0.000596445
0.00112703
0.000579936
0.00113592
0.00056288
0.00114483
0.000545381
0.00115372
0.000527537
0.00116254
0.000509444
0.00117126
0.000491194
0.00117983
0.000472873
0.00118822
0.000454561
0.00119641
0.000436331
0.00120436
0.000418253
0.00121204
0.000400386
0.00121943
0.000382788
0.00122651
0.000365505
0.00123326
0.00034858
0.00123967
0.00033205
0.00124573
0.000315945
0.00125141
0.00030029
0.00125672
0.000285105
0.00126165
0.000270405
0.00126619
0.0002562
0.00127034
0.000242498
0.00127409
0.000229302
0.00127745
0.000216611
0.00128042
0.000204422
0.00128299
0.000192733
0.00128516
0.00018184
0.00128692
0.000173077
0.00128791
0.000177335
0.00128149
0.000375323
0.00129519
0.00047724
0.00109857
0.000505046
0.000977769
0.000510567
0.000953631
0.000512039
0.000952369
0.000512895
0.00095676
0.000513689
0.000962777
0.000514451
0.000969017
0.000515199
0.000975185
0.000515937
0.000981041
0.000516634
0.000986183
0.000517399
0.000991425
0.000518359
0.000997173
0.000519445
0.00100324
0.000520495
0.00100912
0.000521547
0.0010144
0.000522587
0.00101895
0.000524387
0.00102232
0.000526468
0.0010257
0.000528849
0.00102943
0.000531408
0.00103325
0.00053397
0.00103657
0.000536591
0.00103878
0.00053921
0.00103964
0.000541865
0.00103942
0.000544765
0.00103928
0.000547973
0.00103937
0.000551244
0.00103917
0.000554525
0.001038
0.000557808
0.00103545
0.00056099
0.00103098
0.000564407
0.0010264
0.000568106
0.00102206
0.000571969
0.00101759
0.000575799
0.0010124
0.000579614
0.00100589
0.000583281
0.000997496
0.000587117
0.000988712
0.000591224
0.000980318
0.00059551
0.000971956
0.000599755
0.000963141
0.00060395
0.000953254
0.000607991
0.000941778
0.000612202
0.000930251
0.000616669
0.00091936
0.000621259
0.000908708
0.000625817
0.000897833
0.000630299
0.000886226
0.000634711
0.000873707
0.000639343
0.000861955
0.00064419
0.000851022
0.000649088
0.000840589
0.000653974
0.000830164
0.000658808
0.000819357
0.000663802
0.000809061
0.000669034
0.000800032
0.000674407
0.00079201
0.000679842
0.000784673
0.000685321
0.00077759
0.000690981
0.000771205
0.000696905
0.000766397
0.000703022
0.000762952
0.000709293
0.00076064
0.000715724
0.000759045
0.00072244
0.000758574
0.000729487
0.0007599
0.000736833
0.000762816
0.000744505
0.000766991
0.000752548
0.000772232
0.000761145
0.000779005
0.000770313
0.000787643
0.000780148
0.000797933
0.000790554
0.000809296
0.000802067
0.000821874
0.000813774
0.000835773
0.000827458
0.000851155
0.00072274
0.000721166
0.00104295
0.000720569
0.00105069
0.000718387
0.0010589
0.000714642
0.00106757
0.000709367
0.00107668
0.00070261
0.0010862
0.000694429
0.0010961
0.000684891
0.00110634
0.000674076
0.00111688
0.000662068
0.00112769
0.000648961
0.00113871
0.000634853
0.00114989
0.000619846
0.00116118
0.000604045
0.00117254
0.000587554
0.00118392
0.00057048
0.00119526
0.000552926
0.00120653
0.000534993
0.00121767
0.000516779
0.00122864
0.000498377
0.00123941
0.000479877
0.00124992
0.00046136
0.00126016
0.000442903
0.00127009
0.000424577
0.00127968
0.000406446
0.00128891
0.000388566
0.00129775
0.000370989
0.00130619
0.000353759
0.00131421
0.000336914
0.0013218
0.000320487
0.00132895
0.000304504
0.00133564
0.000288987
0.00134188
0.000273951
0.00134766
0.000259409
0.00135298
0.000245369
0.00135783
0.000231834
0.00136222
0.000218804
0.00136614
0.000206278
0.0013696
0.000194252
0.00137261
0.000182745
0.00137514
0.00017221
0.00137683
0.000175136
0.00137039
0.000373869
0.0013865
0.000478384
0.00117703
0.000505932
0.0010478
0.000511209
0.00102051
0.000512625
0.00101803
0.000513464
0.00102167
0.000514258
0.001027
0.000515008
0.00103252
0.000515731
0.00103791
0.000516438
0.00104295
0.000517057
0.00104721
0.000517732
0.00105168
0.000518588
0.00105668
0.000519551
0.00106196
0.00052047
0.00106697
0.000521856
0.00107133
0.000523868
0.00107493
0.000525883
0.0010773
0.000528116
0.00107985
0.000530685
0.00108276
0.000533416
0.00108573
0.000536158
0.00108808
0.000538953
0.00108927
0.000541736
0.00108902
0.000544576
0.00108786
0.000547688
0.00108686
0.000551117
0.0010861
0.00055459
0.00108499
0.000558079
0.00108279
0.000561552
0.00107917
0.000564935
0.00107361
0.000568545
0.00106816
0.000572467
0.00106296
0.000576524
0.00105761
0.000580551
0.00105146
0.00058454
0.00104392
0.00058837
0.00103444
0.000592376
0.00102477
0.000596646
0.00101554
0.000601062
0.00100631
0.000605432
0.000996561
0.000609724
0.000985703
0.000613847
0.000973231
0.000618139
0.000960846
0.000622659
0.000949122
0.000627289
0.00093762
0.000631864
0.000925866
0.000636347
0.000913352
0.000640757
0.000899949
0.000645372
0.000887362
0.000650183
0.000875563
0.000655023
0.000864259
0.000659842
0.000852939
0.000664599
0.000841234
0.000669525
0.000830097
0.000674684
0.000820207
0.000679973
0.000811302
0.000685337
0.00080305
0.000690755
0.000795053
0.00069638
0.000787795
0.000702299
0.000782094
0.000708435
0.000777748
0.000714769
0.000774502
0.000721308
0.000771978
0.000728181
0.00077057
0.000735445
0.000770934
0.000743079
0.000772853
0.00075113
0.000776013
0.00075964
0.000780223
0.000768827
0.000785952
0.000778713
0.000793529
0.00078944
0.000802736
0.000800876
0.000813002
0.000813672
0.000824505
0.000826828
0.000837372
0.000841322
0.000851666
0.000726371
0.00072778
0.00105414
0.00072759
0.00106479
0.000725803
0.00107588
0.000722434
0.0010874
0.000717514
0.00109932
0.000711084
0.00111162
0.000703198
0.00112428
0.000693921
0.00113725
0.000683329
0.00115049
0.000671505
0.00116395
0.00065854
0.00117759
0.000644532
0.00119135
0.000629582
0.00120519
0.000613796
0.00121905
0.000597278
0.00123287
0.000580136
0.00124661
0.000562476
0.00126021
0.0005444
0.00127363
0.000526008
0.00128683
0.000507397
0.00129974
0.000488657
0.00131235
0.000469874
0.00132461
0.000451127
0.00133649
0.00043249
0.00134796
0.000414028
0.00135899
0.000395803
0.00136957
0.000377866
0.00137966
0.000360266
0.00138927
0.000343041
0.00139836
0.000326228
0.00140695
0.000309853
0.001415
0.00029394
0.00142253
0.000278507
0.00142953
0.000263567
0.00143599
0.000249128
0.00144192
0.000235196
0.00144732
0.000221771
0.00145219
0.000208851
0.00145653
0.000196433
0.00146035
0.000184535
0.00146363
0.000173546
0.00146602
0.000172445
0.00145964
0.000371404
0.00147793
0.000479285
0.0012562
0.000506969
0.00111719
0.000512176
0.00108606
0.000513592
0.00108211
0.000514448
0.00108493
0.000515259
0.00108949
0.000516004
0.00109422
0.000516699
0.00109874
0.000517344
0.00110282
0.000517898
0.00110617
0.000518488
0.0011099
0.000519258
0.00111414
0.000520093
0.00111856
0.00052115
0.00112263
0.000523189
0.00112596
0.000525315
0.00112844
0.000527465
0.00112988
0.000529857
0.00113158
0.000532587
0.00113369
0.000535446
0.00113572
0.000538332
0.00113702
0.000541284
0.00113711
0.000544221
0.00113565
0.000547249
0.00113358
0.000550574
0.00113175
0.000554194
0.0011301
0.000557841
0.00112803
0.000561514
0.00112475
0.00056517
0.00111994
0.000568766
0.00111342
0.000572595
0.0011071
0.000576732
0.00110104
0.000580981
0.00109477
0.000585203
0.00108763
0.000589366
0.00107909
0.000593373
0.00106855
0.00059759
0.00105809
0.000602067
0.00104805
0.000606668
0.00103802
0.00061119
0.00102743
0.000615595
0.00101567
0.000619833
0.00100229
0.000624271
0.000989205
0.000628919
0.000976767
0.000633639
0.000964554
0.000638251
0.000952044
0.000642739
0.000938694
0.000647167
0.000924604
0.000651785
0.000911349
0.000656586
0.000898903
0.000661383
0.000886929
0.000666117
0.00087489
0.000670797
0.000862465
0.000675666
0.000850673
0.000680763
0.000840106
0.000685986
0.000830491
0.000691257
0.000821466
0.000696597
0.000812691
0.000702181
0.000804664
0.000708082
0.000798135
0.000714225
0.000792923
0.000720619
0.000788713
0.000727273
0.000785207
0.000734317
0.000782856
0.000741813
0.000782257
0.000749745
0.000783179
0.000758189
0.000785304
0.000767186
0.000788465
0.000776981
0.000793155
0.0007876
0.000799679
0.000799224
0.000807815
0.000811702
0.000816991
0.000825727
0.000827415
0.000840311
0.000839213
0.000855602
0.000852296
0.00073512
0.000736911
0.00106696
0.000737099
0.00108046
0.00073568
0.00109436
0.000732663
0.00110867
0.000728072
0.00112335
0.000721944
0.00113838
0.000714328
0.00115374
0.000705284
0.00116938
0.000694886
0.00118526
0.000683214
0.00120134
0.000670358
0.00121755
0.000656413
0.00123385
0.000641481
0.00125018
0.000625667
0.00126649
0.000609077
0.00128271
0.00059182
0.0012988
0.000574003
0.0013147
0.000555731
0.00133036
0.000537106
0.00134573
0.000518228
0.00136076
0.000499189
0.00137542
0.000480079
0.00138966
0.00046098
0.00140345
0.000441968
0.00141677
0.000423113
0.00142957
0.000404477
0.00144184
0.000386117
0.00145357
0.000368081
0.00146472
0.000350413
0.0014753
0.000333149
0.00148529
0.00031632
0.00149469
0.00029995
0.00150348
0.000284058
0.00151167
0.000268659
0.00151926
0.000253763
0.00152625
0.000239376
0.00153264
0.000225499
0.00153843
0.00021213
0.00154364
0.000199267
0.00154826
0.000186924
0.00155228
0.000175434
0.00155535
0.000169816
0.00154893
0.000369822
0.00157012
0.000481128
0.00133638
0.000507205
0.00118745
0.000512327
0.00115245
0.000513821
0.00114722
0.000514712
0.00114931
0.000515533
0.00115312
0.000516257
0.00115705
0.000516891
0.0011607
0.00051745
0.00116376
0.000517939
0.00116633
0.000518469
0.00116931
0.000519401
0.00117282
0.000521374
0.00117634
0.000523427
0.00117944
0.000525586
0.00118174
0.00052781
0.00118305
0.000530093
0.00118365
0.000532661
0.00118448
0.000535557
0.00118574
0.000538543
0.0011868
0.000541595
0.00118699
0.000544718
0.00118596
0.000547794
0.00118329
0.000551029
0.0011803
0.000554588
0.0011776
0.000558401
0.00117499
0.000562218
0.00117183
0.000566084
0.00116738
0.000569929
0.0011613
0.000573758
0.00115389
0.000577823
0.00114659
0.000582194
0.00113957
0.00058661
0.00113228
0.000591006
0.001124
0.00059534
0.0011143
0.000599556
0.00110274
0.000603967
0.00109145
0.000608614
0.00108054
0.000613323
0.00106954
0.000617942
0.00105791
0.000622429
0.00104512
0.00062677
0.00103085
0.000631293
0.00101709
0.00063602
0.00100388
0.000640722
0.000990822
0.000645295
0.000977387
0.000649688
0.000963047
0.00065407
0.000948307
0.000658684
0.000934423
0.000663457
0.000921327
0.000668169
0.00090863
0.000672801
0.000895806
0.000677371
0.000882624
0.00068216
0.000870261
0.000687179
0.000859116
0.000692306
0.000848874
0.000697491
0.000839128
0.000702753
0.000829591
0.00070832
0.000820924
0.000714225
0.000813743
0.000720429
0.000807846
0.00072688
0.000802854
0.000733628
0.000798527
0.000740842
0.000795324
0.00074857
0.000793748
0.000756809
0.000793647
0.000765653
0.000794704
0.000775142
0.000796793
0.00078555
0.000800445
0.000796897
0.000805908
0.000809418
0.000812944
0.000822941
0.000821013
0.000838162
0.000830365
0.000854211
0.000841039
0.000870336
0.000852934
0.000746369
0.000748512
0.0010814
0.000749051
0.00109768
0.000747974
0.00111434
0.000745285
0.00113137
0.000740999
0.00114875
0.000735149
0.00116646
0.000727778
0.00118446
0.000718942
0.00120272
0.00070871
0.00122119
0.00069716
0.00123981
0.000684379
0.00125855
0.000670462
0.00127733
0.000655509
0.0012961
0.000639626
0.00131481
0.00062292
0.00133338
0.0006055
0.00135177
0.000587476
0.00136992
0.000568956
0.00138777
0.000550043
0.00140527
0.000530841
0.00142238
0.000511445
0.00143904
0.000491948
0.00145522
0.000472436
0.00147089
0.000452987
0.001486
0.000433675
0.00150054
0.000414566
0.00151448
0.000395718
0.00152779
0.000377184
0.00154047
0.00035901
0.0015525
0.000341233
0.00156386
0.000323887
0.00157456
0.000306998
0.0015846
0.000290587
0.00159396
0.000274671
0.00160265
0.000259259
0.00161067
0.00024436
0.00161803
0.000229975
0.00162473
0.000216104
0.00163078
0.000202742
0.00163618
0.0001899
0.00164093
0.000177803
0.00164469
0.000168177
0.0016381
0.000365738
0.00166328
0.000482678
0.00141765
0.000507016
0.00125935
0.000512224
0.00122019
0.000513786
0.00121368
0.000514707
0.00121509
0.000515503
0.00121813
0.000516178
0.00122123
0.000516758
0.00122399
0.000517245
0.00122605
0.000518119
0.00122787
0.0005198
0.00123018
0.000521758
0.00123292
0.000523798
0.00123554
0.000525938
0.00123759
0.000528214
0.00123886
0.000530527
0.00123907
0.000532942
0.00123881
0.000535722
0.00123887
0.000538793
0.00123924
0.000541906
0.00123925
0.000545096
0.00123824
0.000548366
0.00123605
0.000551603
0.00123226
0.000555072
0.00122841
0.000558889
0.00122481
0.000562895
0.00122117
0.000566889
0.00121682
0.000570939
0.00121112
0.000574942
0.00120376
0.00057902
0.00119544
0.000583376
0.00118726
0.000587988
0.00117924
0.000592602
0.00117083
0.000597166
0.00116127
0.000601647
0.00115024
0.000606074
0.00113788
0.000610718
0.00112571
0.00061558
0.00111387
0.000620406
0.00110184
0.000625114
0.00108898
0.000629657
0.0010749
0.000634125
0.00105988
0.000638777
0.00104533
0.00064359
0.00103126
0.00064831
0.00101723
0.000652851
0.0010027
0.000657171
0.000987236
0.000661537
0.00097179
0.000666137
0.000957272
0.000670836
0.000943398
0.000675446
0.000929793
0.000679918
0.000915998
0.000684311
0.000901956
0.000689003
0.000889055
0.000693943
0.000877327
0.000698968
0.000866436
0.000704049
0.00085591
0.000709197
0.000845571
0.000714706
0.000836337
0.000720608
0.000828583
0.000726846
0.000822049
0.000733386
0.000816288
0.000740292
0.000811172
0.000747732
0.000807294
0.000755731
0.000805002
0.000764276
0.000804091
0.000773509
0.000804121
0.000783494
0.000805134
0.00079451
0.000807745
0.000806563
0.000812144
0.000819951
0.00081805
0.000834523
0.000824986
0.000850934
0.00083325
0.000868425
0.000842779
0.000885436
0.000853501
0.000760067
0.000762533
0.00109748
0.000763397
0.00111648
0.000762639
0.00113582
0.000760254
0.00115551
0.000756252
0.00117552
0.000750656
0.00119583
0.000743506
0.00121641
0.000734852
0.00123722
0.000724759
0.00125822
0.000713301
0.00127934
0.000700564
0.00130053
0.000686639
0.00132174
0.000671628
0.0013429
0.000655635
0.00136395
0.00063877
0.00138482
0.000621141
0.00140546
0.000602862
0.0014258
0.000584041
0.00144579
0.000564787
0.00146537
0.000545205
0.0014845
0.000525395
0.00150312
0.000505452
0.0015212
0.000485466
0.00153869
0.00046552
0.00155557
0.000445689
0.0015718
0.000426044
0.00158736
0.000406647
0.00160223
0.000387552
0.00161639
0.000368808
0.00162983
0.000350457
0.00164254
0.000332533
0.00165452
0.000315065
0.00166576
0.000298076
0.00167626
0.000281584
0.00168602
0.0002656
0.00169506
0.000250133
0.00170336
0.000235186
0.00171095
0.000220758
0.00171782
0.000206847
0.00172398
0.000193454
0.00172944
0.000180683
0.00173389
0.000166385
0.00172722
0.000357739
0.00175656
0.000482906
0.00149983
0.000506803
0.00133098
0.000512012
0.00128694
0.000513629
0.00127915
0.000514705
0.00128001
0.000515662
0.0012823
0.00051666
0.00128454
0.000517762
0.00128629
0.000518993
0.00128721
0.000520446
0.00128846
0.000522302
0.00129025
0.000524346
0.0012923
0.000526495
0.00129403
0.000528732
0.00129504
0.000531057
0.00129519
0.000533446
0.00129413
0.000536066
0.00129325
0.000539103
0.0012928
0.000542327
0.00129243
0.000545606
0.00129143
0.000548943
0.0012892
0.000552286
0.0012855
0.000555705
0.00128097
0.000559432
0.00127648
0.000563531
0.00127228
0.000567764
0.00126781
0.000572023
0.0012623
0.000576217
0.00125533
0.000580331
0.0012465
0.000584658
0.00123758
0.000589324
0.00122882
0.000594202
0.00121998
0.00059905
0.00121049
0.000603831
0.00119967
0.000608409
0.0011871
0.00061307
0.00117398
0.000617951
0.00116107
0.000623047
0.00114831
0.000628043
0.00113519
0.000632867
0.00112105
0.000637466
0.00110553
0.000642061
0.00108969
0.000646856
0.00107435
0.00065175
0.00105937
0.000656461
0.00104428
0.000660973
0.00102855
0.000665226
0.00101188
0.000669617
0.000995723
0.000674187
0.00098048
0.000678766
0.000965739
0.000683214
0.000951111
0.000687472
0.00093612
0.000691751
0.000921326
0.000696343
0.000907791
0.00070115
0.000895335
0.000706008
0.000883615
0.000710893
0.000872138
0.000715897
0.00086093
0.000721383
0.000851162
0.000727272
0.000842804
0.000733515
0.000835577
0.000740109
0.000828976
0.000747126
0.000823049
0.000754782
0.000818559
0.000763088
0.000815604
0.000772042
0.00081394
0.00078176
0.000813072
0.000792222
0.000813261
0.000803821
0.000814927
0.00081654
0.000818282
0.000830767
0.000823016
0.000846397
0.000828838
0.000864
0.000835973
0.000882821
0.000844413
0.000900751
0.00085397
0.000776156
0.000778919
0.00111522
0.000780084
0.00113685
0.000779622
0.0011588
0.00077752
0.00118107
0.000773779
0.00120364
0.000768417
0.00122649
0.000761465
0.00124958
0.000752969
0.00127288
0.000742988
0.00129633
0.000731594
0.00131988
0.000718869
0.00134347
0.000704903
0.00136704
0.000689797
0.00139052
0.000673655
0.00141385
0.000656587
0.00143696
0.000638704
0.00145978
0.000620121
0.00148226
0.00060095
0.00150434
0.000581302
0.00152595
0.000561286
0.00154704
0.000541005
0.00156757
0.000520558
0.0015875
0.000500039
0.00160677
0.000479535
0.00162536
0.000459125
0.00164324
0.000438883
0.00166038
0.000418875
0.00167676
0.000399158
0.00169236
0.000379784
0.00170718
0.000360798
0.0017212
0.000342237
0.00173442
0.000324131
0.00174683
0.000306506
0.00175844
0.000289381
0.00176925
0.000272769
0.00177927
0.000256679
0.00178849
0.000241116
0.00179694
0.00022608
0.00180461
0.000211568
0.00181152
0.000197573
0.00181767
0.00018408
0.00182292
0.000165648
0.00181579
0.000348825
0.00185028
0.00048315
0.00158286
0.000506413
0.00140281
0.000514154
0.00135328
0.00051629
0.00134422
0.000517486
0.00134441
0.000518427
0.00134585
0.000519462
0.00134717
0.000520634
0.00134774
0.000521915
0.00134794
0.000523523
0.00134865
0.000525479
0.00134992
0.000527568
0.00135116
0.00052976
0.00135188
0.000532098
0.00135176
0.000534527
0.00135061
0.000537014
0.00134882
0.000539881
0.00134743
0.000543098
0.00134643
0.000546424
0.00134516
0.00054981
0.00134286
0.000553283
0.00133936
0.000556754
0.0013342
0.000560356
0.001329
0.0005644
0.00132411
0.000568754
0.00131926
0.000573134
0.00131374
0.000577525
0.00130677
0.000581905
0.00129809
0.000586271
0.00128846
0.000590897
0.00127896
0.000595905
0.0012697
0.000601023
0.00126009
0.000606091
0.00124933
0.000611022
0.00123704
0.000615795
0.00122312
0.000620674
0.00120942
0.000625892
0.00119603
0.000631211
0.00118254
0.00063637
0.00116833
0.000641324
0.00115291
0.000645973
0.001136
0.00065069
0.00111946
0.000655618
0.00110346
0.000660552
0.00108765
0.000665273
0.0010715
0.00066972
0.00105451
0.000673962
0.00103683
0.000678352
0.00101995
0.000682874
0.00100391
0.000687299
0.00098834
0.000691541
0.000972689
0.000695574
0.000956535
0.000699746
0.000940998
0.000704207
0.000926771
0.000708817
0.000913517
0.000713445
0.00090085
0.000718083
0.000888273
0.000722993
0.000876334
0.000728397
0.000865954
0.000734233
0.000856877
0.00074042
0.000848796
0.000746992
0.000841229
0.000754123
0.000834529
0.000762002
0.000829451
0.000770612
0.000825856
0.000779948
0.000823337
0.000790134
0.00082157
0.000801219
0.000820997
0.000813422
0.000821929
0.000826776
0.000824381
0.000841808
0.000827865
0.000858489
0.000832613
0.000877298
0.000838642
0.000897309
0.000846025
0.000916138
0.000854434
0.000794575
0.00079761
0.00113463
0.000799053
0.00115881
0.000798867
0.00118329
0.000797028
0.00120806
0.000793529
0.00123311
0.00078838
0.00125842
0.000781604
0.00128395
0.000773242
0.00130966
0.000763349
0.00133549
0.000751991
0.0013614
0.000739247
0.00138731
0.000725207
0.00141317
0.00070997
0.00143891
0.00069364
0.00146445
0.000676328
0.00148974
0.000658147
0.00151469
0.000639213
0.00153924
0.000619642
0.00156334
0.000599549
0.00158692
0.000579045
0.00160993
0.000558237
0.00163231
0.00053723
0.00165402
0.00051612
0.00167502
0.000494999
0.00169528
0.000473951
0.00171475
0.000453052
0.00173342
0.000432373
0.00175127
0.000411974
0.00176828
0.000391911
0.00178443
0.000372231
0.00179972
0.000352974
0.00181414
0.000334173
0.00182769
0.000315855
0.00184038
0.000298041
0.00185221
0.000280746
0.00186317
0.00026398
0.00187329
0.000247749
0.00188257
0.000232054
0.00189102
0.000216891
0.00189865
0.00020226
0.00190547
0.000188054
0.00191141
0.000165096
0.00190294
0.000336819
0.00194616
0.000483129
0.00166677
0.000507512
0.00147599
0.000516914
0.00142022
0.000519392
0.00140978
0.00052069
0.00140923
0.000521649
0.00140984
0.000522643
0.00141012
0.000523746
0.00140937
0.000525111
0.00140903
0.000526961
0.00140938
0.000529031
0.00141011
0.000531211
0.00141055
0.000533485
0.0014102
0.000535855
0.00140895
0.000538233
0.00140622
0.000540957
0.00140394
0.000544134
0.00140229
0.00054753
0.00140076
0.000550978
0.00139854
0.000554488
0.00139495
0.000558006
0.00138974
0.000561542
0.0013836
0.000565519
0.00137789
0.000569935
0.00137265
0.000574477
0.00136717
0.000579055
0.00136049
0.000583604
0.0013522
0.000588018
0.00134169
0.000592647
0.00133129
0.000597709
0.00132146
0.000603091
0.0013117
0.000608441
0.00130128
0.000613701
0.00128931
0.000618706
0.00127526
0.000623671
0.00126037
0.000628931
0.00124603
0.000634481
0.00123208
0.00063999
0.00121791
0.000645327
0.00120261
0.00065032
0.00118573
0.000655084
0.00116771
0.000660011
0.00115035
0.000665102
0.00113356
0.000670069
0.00111686
0.000674772
0.00109953
0.000679125
0.00108108
0.000683371
0.00106238
0.000687731
0.00104466
0.000692166
0.00102773
0.000696422
0.00101117
0.000700463
0.000994415
0.000704291
0.000977171
0.000708343
0.000960973
0.000712628
0.000946012
0.00071697
0.000931926
0.000721325
0.000918244
0.000725706
0.000904589
0.0007305
0.000891964
0.000735802
0.000880885
0.000741497
0.00087105
0.000747568
0.000861985
0.000754057
0.000853379
0.000761323
0.00084601
0.000769385
0.000840284
0.000778257
0.000835947
0.000787939
0.000832453
0.000798575
0.000829795
0.000810263
0.000828492
0.00082318
0.000828746
0.000837227
0.000830306
0.000853014
0.0008326
0.000870737
0.000836261
0.000890701
0.0008412
0.000911814
0.000847509
0.000931499
0.000854773
0.000815258
0.000818541
0.00115573
0.000820243
0.00118238
0.000820312
0.00120929
0.000818718
0.00123648
0.000815442
0.00126393
0.000810486
0.00129161
0.000803867
0.00131949
0.000795618
0.00134753
0.000785787
0.00137568
0.000774438
0.00140386
0.000761647
0.00143203
0.000747501
0.00146011
0.000732098
0.00148803
0.000715542
0.00151571
0.000697945
0.0015431
0.000679423