/*--------------------------------*- C++ -*----------------------------------*\
| =========                 |                                                 |
| \\      /  F ield         | OpenFOAM: The Open Source CFD Toolbox           |
|  \\    /   O peration     | Version:  2.2.x                                 |
|   \\  /    A nd           | Web:      www.OpenFOAM.org                      |
|    \\/     M anipulation  |                                                 |
\*---------------------------------------------------------------------------*/
FoamFile
{
    version     2.0;
    format      ascii;
    class       volScalarField;
    location    "1.7";
    object      Ma;
}
// * * * * * * * * * * * * * * * * * * * * * * * * * * * * * * * * * * * * * //

dimensions      [0 0 0 0 0 0 0];

internalField   nonuniform List<scalar> 
14161
(
6.06218
6.06218
6.06218
6.06218
6.06218
6.06218
6.06218
6.06218
6.06218
6.06218
6.06218
6.06218
6.06218
6.06218
6.06218
6.06218
6.06218
6.06218
6.06218
6.06218
6.06218
6.06218
6.06218
6.06218
6.06218
6.06218
6.06218
6.06218
6.06218
6.06218
6.06218
6.06218
6.06218
6.06218
6.06218
6.06218
6.06218
6.06218
6.06218
6.06205
6.06004
6.02606
5.37275
1.7515
0.713693
0.508625
0.46692
0.454402
0.448237
0.443684
0.439404
0.434987
0.43013
0.424772
0.419674
0.415016
0.410882
0.406819
0.40239
0.397409
0.391968
0.386892
0.382359
0.378408
0.374384
0.369837
0.364428
0.35891
0.353957
0.349654
0.345714
0.341447
0.336332
0.330537
0.325149
0.320439
0.316278
0.311961
0.306894
0.300951
0.295249
0.290185
0.285681
0.281031
0.27561
0.269433
0.263503
0.258168
0.253209
0.247984
0.241844
0.235345
0.229178
0.223553
0.217929
0.211665
0.204723
0.197864
0.191449
0.185158
0.178347
0.170819
0.163248
0.156007
0.148848
0.141117
0.132749
0.124293
0.116074
0.10771
0.0986244
0.0890223
0.0792297
0.0693684
0.0589902
0.0477896
0.0359357
0.0235025
0.014122
6.06218
6.06218
6.06218
6.06218
6.06218
6.06218
6.06218
6.06218
6.06218
6.06218
6.06218
6.06218
6.06218
6.06218
6.06218
6.06218
6.06218
6.06218
6.06218
6.06218
6.06218
6.06218
6.06218
6.06218
6.06218
6.06218
6.06218
6.06218
6.06218
6.06218
6.06218
6.06218
6.06218
6.06218
6.06218
6.06218
6.06218
6.06218
6.06218
6.06205
6.06004
6.02597
5.37
1.7519
0.712784
0.506712
0.464719
0.452211
0.446166
0.441737
0.437543
0.433175
0.428322
0.422966
0.417898
0.413258
0.409141
0.405063
0.400618
0.3956
0.390143
0.38508
0.380561
0.37661
0.37256
0.367978
0.362525
0.357026
0.352087
0.347802
0.343843
0.339545
0.334372
0.328569
0.323205
0.318526
0.314371
0.310035
0.304914
0.298956
0.293273
0.288249
0.283774
0.279137
0.273682
0.267494
0.261584
0.256294
0.251375
0.246167
0.240008
0.233509
0.227363
0.221775
0.216192
0.209946
0.203016
0.196175
0.189778
0.183529
0.176771
0.16928
0.161742
0.154516
0.147397
0.139747
0.13146
0.12309
0.114958
0.106712
0.0977894
0.0883823
0.078838
0.0692771
0.059341
0.0488944
0.0386564
0.0290675
0.0261286
6.06218
6.06218
6.06218
6.06218
6.06218
6.06218
6.06218
6.06218
6.06218
6.06218
6.06218
6.06218
6.06218
6.06218
6.06218
6.06218
6.06218
6.06218
6.06218
6.06218
6.06218
6.06218
6.06218
6.06218
6.06218
6.06218
6.06218
6.06218
6.06218
6.06218
6.06218
6.06218
6.06218
6.06218
6.06218
6.06218
6.06218
6.06218
6.06218
6.06205
6.06014
6.02756
5.39707
1.76225
0.714229
0.506787
0.464464
0.451884
0.445843
0.441421
0.437221
0.432837
0.427955
0.422596
0.417545
0.412927
0.408815
0.404714
0.400244
0.395192
0.389733
0.384692
0.380198
0.376247
0.37216
0.36753
0.362041
0.356572
0.351648
0.347381
0.34339
0.339041
0.333799
0.327993
0.322654
0.318005
0.313846
0.309467
0.304275
0.29829
0.292628
0.287637
0.283167
0.278512
0.272999
0.266779
0.260872
0.255611
0.250703
0.245476
0.23927
0.232761
0.226631
0.221065
0.215495
0.209242
0.2023
0.195456
0.18905
0.182806
0.176061
0.168576
0.161032
0.153779
0.146652
0.139041
0.1308
0.122479
0.114409
0.106277
0.0975746
0.0885137
0.0794927
0.070667
0.0618395
0.0530975
0.0457577
0.0399461
0.0403828
6.06218
6.06218
6.06218
6.06218
6.06218
6.06218
6.06218
6.06218
6.06218
6.06218
6.06218
6.06218
6.06218
6.06218
6.06218
6.06218
6.06218
6.06218
6.06218
6.06218
6.06218
6.06218
6.06218
6.06218
6.06218
6.06218
6.06218
6.06218
6.06218
6.06218
6.06218
6.06218
6.06218
6.06218
6.06218
6.06218
6.06218
6.06218
6.06218
6.06205
6.06029
6.03096
5.45654
1.7835
0.718261
0.509189
0.466525
0.453832
0.447681
0.443138
0.438814
0.434333
0.42937
0.423993
0.418961
0.414377
0.410266
0.406132
0.401627
0.396541
0.391113
0.386126
0.381689
0.377747
0.373615
0.368924
0.36341
0.357996
0.353121
0.348906
0.344887
0.34048
0.335157
0.329388
0.324118
0.319528
0.315374
0.31095
0.305676
0.299686
0.294064
0.289125
0.284654
0.279957
0.274374
0.268131
0.262235
0.256996
0.252077
0.246811
0.24055
0.234021
0.227885
0.222292
0.216675
0.210359
0.203366
0.196471
0.190003
0.183683
0.176871
0.169331
0.161742
0.154444
0.147282
0.139671
0.131472
0.123223
0.115247
0.10728
0.0988765
0.0902657
0.0819009
0.0739658
0.0664748
0.0596154
0.0550267
0.0521654
0.0540235
6.06218
6.06218
6.06218
6.06218
6.06218
6.06218
6.06218
6.06218
6.06218
6.06218
6.06218
6.06218
6.06218
6.06218
6.06218
6.06218
6.06218
6.06218
6.06218
6.06218
6.06218
6.06218
6.06218
6.06218
6.06218
6.06218
6.06218
6.06218
6.06218
6.06218
6.06218
6.06218
6.06218
6.06218
6.06218
6.06218
6.06218
6.06218
6.06218
6.06208
6.06047
6.03461
5.52359
1.80843
0.722577
0.511102
0.467839
0.455049
0.448945
0.444434
0.440125
0.435659
0.43068
0.425371
0.420441
0.415953
0.411901
0.40777
0.403274
0.398157
0.392816
0.387956
0.383638
0.379755
0.375625
0.370885
0.365399
0.360102
0.355354
0.35128
0.347306
0.342887
0.337507
0.331813
0.32668
0.322215
0.318126
0.313712
0.30838
0.302433
0.296909
0.292082
0.287656
0.282955
0.277331
0.271118
0.265285
0.260099
0.255185
0.249887
0.243586
0.237056
0.230909
0.225267
0.219551
0.213118
0.206049
0.199099
0.192566
0.186121
0.179171
0.171552
0.163922
0.156591
0.149385
0.141765
0.133625
0.125482
0.117658
0.109922
0.101895
0.0938256
0.0862221
0.079276
0.0731577
0.0680003
0.0655656
0.064862
0.067281
6.06218
6.06218
6.06218
6.06218
6.06218
6.06218
6.06218
6.06218
6.06218
6.06218
6.06218
6.06218
6.06218
6.06218
6.06218
6.06218
6.06218
6.06218
6.06218
6.06218
6.06218
6.06218
6.06218
6.06218
6.06218
6.06218
6.06218
6.06218
6.06218
6.06218
6.06218
6.06218
6.06218
6.06218
6.06218
6.06218
6.06218
6.06218
6.06218
6.06208
6.06064
6.03757
5.5785
1.83338
0.725645
0.510707
0.466389
0.453331
0.447234
0.442745
0.438414
0.43389
0.428815
0.423559
0.418748
0.414373
0.410349
0.406176
0.401594
0.3964
0.391158
0.386411
0.382252
0.378392
0.374201
0.369355
0.363876
0.358706
0.354122
0.350171
0.34621
0.341731
0.336295
0.330736
0.32575
0.321438
0.317396
0.313002
0.307625
0.301784
0.296433
0.291774
0.287467
0.282853
0.277247
0.2712
0.265593
0.260625
0.255878
0.250703
0.244541
0.238244
0.232344
0.226936
0.221419
0.215145
0.208288
0.201562
0.195243
0.188961
0.182134
0.174667
0.167171
0.159943
0.152752
0.14512
0.137054
0.129066
0.121455
0.113987
0.10637
0.0988838
0.0920722
0.0861283
0.0813222
0.077669
0.0768914
0.0778095
0.0803905
6.06218
6.06218
6.06218
6.06218
6.06218
6.06218
6.06218
6.06218
6.06218
6.06218
6.06218
6.06218
6.06218
6.06218
6.06218
6.06218
6.06218
6.06218
6.06218
6.06218
6.06218
6.06218
6.06218
6.06218
6.06218
6.06218
6.06218
6.06218
6.06218
6.06218
6.06218
6.06218
6.06218
6.06218
6.06218
6.06218
6.06218
6.06218
6.06218
6.06208
6.06086
6.04255
5.67507
1.87775
0.731872
0.5119
0.466604
0.453537
0.44756
0.443088
0.438727
0.434119
0.428971
0.423843
0.419116
0.414837
0.41078
0.406519
0.401835
0.396576
0.391457
0.38678
0.382688
0.378754
0.374442
0.369447
0.363975
0.358895
0.354362
0.350385
0.346292
0.341641
0.336095
0.330611
0.325651
0.321329
0.317162
0.312602
0.307087
0.301291
0.29602
0.291395
0.287004
0.28228
0.2766
0.270672
0.265232
0.26041
0.255694
0.250479
0.244394
0.238331
0.232714
0.227545
0.222195
0.216067
0.209495
0.203113
0.197146
0.191144
0.184535
0.177372
0.170232
0.163394
0.156567
0.149235
0.141491
0.13381
0.126455
0.119269
0.11206
0.105154
0.0991066
0.094088
0.0904471
0.0881155
0.0886457
0.0909588
0.0935129
6.06218
6.06218
6.06218
6.06218
6.06218
6.06218
6.06218
6.06218
6.06218
6.06218
6.06218
6.06218
6.06218
6.06218
6.06218
6.06218
6.06218
6.06218
6.06218
6.06218
6.06218
6.06218
6.06218
6.06218
6.06218
6.06218
6.06218
6.06218
6.06218
6.06218
6.06218
6.06218
6.06218
6.06218
6.06218
6.06218
6.06218
6.06218
6.06218
6.06213
6.06124
6.04941
5.81983
1.94605
0.742303
0.515927
0.46932
0.456159
0.45026
0.445771
0.441366
0.436645
0.431456
0.426426
0.421778
0.417589
0.413493
0.409117
0.404319
0.399042
0.393992
0.389411
0.38537
0.381307
0.376825
0.371673
0.366233
0.361224
0.35673
0.35266
0.348362
0.343461
0.337839
0.332398
0.32746
0.323094
0.318731
0.313884
0.308212
0.302511
0.297271
0.292607
0.288021
0.282984
0.27711
0.271244
0.265831
0.260971
0.256088
0.250608
0.244478
0.238521
0.233094
0.227974
0.222579
0.21639
0.210001
0.20395
0.198346
0.192613
0.1862
0.179385
0.172706
0.16639
0.16001
0.153095
0.145902
0.138853
0.132168
0.12553
0.118829
0.112476
0.107134
0.102925
0.100289
0.0991148
0.100743
0.104219
0.10668
6.06218
6.06218
6.06218
6.06218
6.06218
6.06218
6.06218
6.06218
6.06218
6.06218
6.06218
6.06218
6.06218
6.06218
6.06218
6.06218
6.06218
6.06218
6.06218
6.06218
6.06218
6.06218
6.06218
6.06218
6.06218
6.06218
6.06218
6.06218
6.06218
6.06218
6.06218
6.06218
6.06218
6.06218
6.06218
6.06218
6.06218
6.06218
6.06218
6.06213
6.06157
6.05576
5.96429
2.02642
0.753283
0.519075
0.470707
0.457502
0.451833
0.447363
0.44291
0.437936
0.432753
0.427968
0.423557
0.419534
0.415423
0.410949
0.405911
0.400713
0.395958
0.391694
0.387823
0.383722
0.379034
0.37371
0.368573
0.363887
0.359757
0.355776
0.351411
0.346209
0.340646
0.335504
0.330857
0.326605
0.322149
0.316977
0.311127
0.305514
0.300382
0.295702
0.290899
0.285449
0.279356
0.273473
0.268078
0.263093
0.257941
0.25206
0.245806
0.239878
0.234517
0.229289
0.223632
0.217283
0.211001
0.205182
0.199726
0.194037
0.187633
0.181102
0.174908
0.169096
0.163125
0.156616
0.150027
0.143727
0.137853
0.131969
0.126098
0.120565
0.115964
0.112466
0.11066
0.110563
0.113204
0.117526
0.119882
6.06218
6.06218
6.06218
6.06218
6.06218
6.06218
6.06218
6.06218
6.06218
6.06218
6.06218
6.06218
6.06218
6.06218
6.06218
6.06218
6.06218
6.06218
6.06218
6.06218
6.06218
6.06218
6.06218
6.06218
6.06218
6.06218
6.06218
6.06218
6.06218
6.06218
6.06218
6.06218
6.06218
6.06218
6.06218
6.06218
6.06218
6.06218
6.06218
6.06216
6.06199
6.06307
6.12194
2.13298
0.766786
0.522356
0.471811
0.458539
0.452985
0.448468
0.443861
0.438749
0.433763
0.429178
0.425066
0.421111
0.416879
0.412268
0.40714
0.40219
0.39773
0.393819
0.38992
0.385591
0.380619
0.375336
0.370479
0.366157
0.36229
0.358185
0.353446
0.347987
0.342694
0.337901
0.333675
0.3295
0.324827
0.31927
0.313526
0.308225
0.303469
0.298913
0.293981
0.288156
0.282015
0.276265
0.271038
0.266007
0.260618
0.254423
0.248147
0.242282
0.236946
0.23161
0.225671
0.219228
0.213029
0.207381
0.201938
0.196112
0.189712
0.183433
0.177646
0.172161
0.166418
0.160261
0.154286
0.148799
0.143708
0.138556
0.133586
0.129084
0.125458
0.122653
0.121564
0.122434
0.125978
0.130919
0.133103
6.06218
6.06218
6.06218
6.06218
6.06218
6.06218
6.06218
6.06218
6.06218
6.06218
6.06218
6.06218
6.06218
6.06218
6.06218
6.06218
6.06218
6.06218
6.06218
6.06218
6.06218
6.06218
6.06218
6.06218
6.06218
6.06218
6.06218
6.06218
6.06218
6.06218
6.06218
6.06218
6.06218
6.06218
6.06218
6.06218
6.06218
6.06218
6.06218
6.0622
6.06203
6.06858
6.28811
2.28136
0.785097
0.527724
0.474402
0.460978
0.455447
0.450894
0.44596
0.440773
0.43604
0.431738
0.427899
0.423968
0.419656
0.414705
0.409556
0.404935
0.400919
0.397293
0.393364
0.388798
0.383492
0.378404
0.373887
0.370084
0.366378
0.362172
0.357062
0.351507
0.346447
0.342086
0.338238
0.334123
0.329226
0.32342
0.317795
0.312795
0.308413
0.303974
0.298904
0.292773
0.28661
0.280933
0.275829
0.270674
0.264888
0.258293
0.251841
0.245938
0.240487
0.234936
0.228701
0.222229
0.216134
0.210599
0.205111
0.199108
0.19277
0.186741
0.181282
0.175983
0.170327
0.164525
0.159151
0.1544
0.149933
0.145439
0.141372
0.137888
0.135361
0.133342
0.132923
0.134683
0.139009
0.14442
0.146412
6.06218
6.06218
6.06218
6.06218
6.06218
6.06218
6.06218
6.06218
6.06218
6.06218
6.06218
6.06218
6.06218
6.06218
6.06218
6.06218
6.06218
6.06218
6.06218
6.06218
6.06218
6.06218
6.06218
6.06218
6.06218
6.06218
6.06218
6.06218
6.06218
6.06218
6.06218
6.06218
6.06218
6.06218
6.06218
6.06218
6.06218
6.06218
6.06226
6.06272
6.05549
6.01563
6.40912
2.46865
0.80489
0.531631
0.475313
0.461368
0.455409
0.450367
0.445163
0.44019
0.435559
0.431406
0.427488
0.423371
0.418845
0.413801
0.408952
0.404562
0.400765
0.397104
0.393046
0.388298
0.38311
0.378346
0.374164
0.370542
0.366772
0.362409
0.357128
0.351887
0.347221
0.343224
0.33946
0.335281
0.33014
0.324466
0.319281
0.31481
0.310762
0.306427
0.301206
0.295193
0.2895
0.284448
0.279782
0.274832
0.269034
0.262553
0.256306
0.250617
0.245125
0.239286
0.232682
0.226127
0.220059
0.214497
0.208893
0.202724
0.196497
0.19073
0.185501
0.180294
0.174726
0.16932
0.164536
0.160361
0.156381
0.152525
0.149356
0.146896
0.145369
0.144291
0.144623
0.147283
0.152304
0.15802
0.159796
6.06218
6.06218
6.06218
6.06218
6.06218
6.06218
6.06218
6.06218
6.06218
6.06218
6.06218
6.06218
6.06218
6.06218
6.06218
6.06218
6.06218
6.06218
6.06218
6.06218
6.06218
6.06218
6.06218
6.06218
6.06218
6.06218
6.06218
6.06218
6.06218
6.06218
6.06218
6.06218
6.06218
6.06218
6.06218
6.06218
6.06218
6.06218
6.0621
6.06099
6.04908
6.00816
6.66763
2.75327
0.83137
0.537508
0.477435
0.463112
0.456951
0.451771
0.44691
0.442356
0.438112
0.434237
0.430323
0.426109
0.421353
0.416333
0.411747
0.407647
0.404008
0.40018
0.395845
0.390766
0.38573
0.381196
0.377247
0.373612
0.369609
0.364823
0.359349
0.354257
0.349832
0.346003
0.342109
0.337594
0.332029
0.32652
0.321644
0.317467
0.313421
0.308864
0.303229
0.297393
0.292119
0.287505
0.283061
0.278161
0.272193
0.265976
0.26024
0.255054
0.249845
0.24401
0.237381
0.230846
0.224805
0.219127
0.213311
0.206991
0.200848
0.195269
0.19016
0.184993
0.179604
0.1746
0.170351
0.166602
0.163045
0.159859
0.157559
0.156064
0.15538
0.155281
0.156465
0.160058
0.165771
0.171686
0.173292
6.06218
6.06218
6.06218
6.06218
6.06218
6.06218
6.06218
6.06218
6.06218
6.06218
6.06218
6.06218
6.06218
6.06218
6.06218
6.06218
6.06218
6.06218
6.06218
6.06218
6.06218
6.06218
6.06218
6.06218
6.06218
6.06218
6.06218
6.06218
6.06218
6.06218
6.06218
6.06218
6.06218
6.06218
6.06218
6.06218
6.06218
6.06218
6.06215
6.06181
6.05503
6.05949
6.97316
3.22686
0.868587
0.547549
0.483112
0.468457
0.462115
0.456978
0.452484
0.448239
0.444447
0.440837
0.436938
0.432557
0.427504
0.422572
0.41812
0.414308
0.41074
0.40672
0.40201
0.396633
0.391574
0.387148
0.383344
0.379553
0.37525
0.369969
0.364361
0.359321
0.354969
0.351047
0.346854
0.341885
0.336062
0.330542
0.325752
0.321568
0.317324
0.312369
0.306453
0.300715
0.295647
0.29117
0.286662
0.281427
0.275292
0.269353
0.264056
0.259206
0.25417
0.248291
0.241855
0.235682
0.23004
0.224516
0.218548
0.212103
0.205989
0.200531
0.195463
0.190307
0.185146
0.180522
0.17669
0.173259
0.170134
0.167591
0.166077
0.165351
0.16544
0.166284
0.168354
0.172864
0.179286
0.18535
0.186779
6.06218
6.06218
6.06218
6.06218
6.06218
6.06218
6.06218
6.06218
6.06218
6.06218
6.06218
6.06218
6.06218
6.06218
6.06218
6.06218
6.06218
6.06218
6.06218
6.06218
6.06218
6.06218
6.06218
6.06218
6.06218
6.06218
6.06218
6.06218
6.06218
6.06218
6.06218
6.06218
6.06218
6.06218
6.06218
6.06218
6.06218
6.06218
6.0622
6.06292
6.0739
6.16551
7.03651
3.87464
0.91585
0.562878
0.491327
0.475732
0.469277
0.464544
0.460435
0.456425
0.452664
0.448917
0.444862
0.440295
0.435148
0.43033
0.426074
0.422305
0.418575
0.414418
0.4095
0.404061
0.399095
0.394853
0.391106
0.387136
0.382587
0.376931
0.37124
0.366177
0.361837
0.357721
0.353201
0.347729
0.341686
0.336104
0.331298
0.326946
0.322408
0.317025
0.310884
0.305154
0.300185
0.295674
0.290968
0.285316
0.279132
0.273413
0.268364
0.26362
0.258522
0.252449
0.246239
0.240531
0.235335
0.230088
0.224202
0.217893
0.211924
0.206548
0.201495
0.196337
0.191379
0.187056
0.183526
0.18038
0.177698
0.175734
0.174879
0.174766
0.175595
0.177365
0.180301
0.185702
0.19276
0.19894
0.200204
6.06218
6.06218
6.06218
6.06218
6.06218
6.06218
6.06218
6.06218
6.06218
6.06218
6.06218
6.06218
6.06218
6.06218
6.06218
6.06218
6.06218
6.06218
6.06218
6.06218
6.06218
6.06218
6.06218
6.06218
6.06218
6.06218
6.06218
6.06218
6.06218
6.06218
6.06218
6.06218
6.06218
6.06218
6.06218
6.06218
6.06218
6.06218
6.06199
6.05942
6.04821
6.08869
6.79203
5.36816
0.984492
0.582511
0.499062
0.481488
0.474502
0.469878
0.46603
0.462228
0.458446
0.454521
0.450184
0.445245
0.440538
0.436291
0.432472
0.428783
0.424807
0.420413
0.415479
0.410649
0.406225
0.40216
0.398442
0.394428
0.389824
0.38444
0.37919
0.374426
0.370104
0.365957
0.361405
0.355694
0.349463
0.343768
0.33876
0.333992
0.329004
0.323195
0.316845
0.310987
0.305877
0.301105
0.296086
0.290115
0.283971
0.278373
0.273398
0.268557
0.263174
0.25703
0.251107
0.245783
0.240862
0.235739
0.229894
0.223925
0.218368
0.213262
0.208272
0.203076
0.198268
0.194155
0.190844
0.187965
0.185709
0.184255
0.183951
0.184423
0.185941
0.188621
0.192349
0.198627
0.206172
0.212476
0.2136
6.06218
6.06218
6.06218
6.06218
6.06218
6.06218
6.06218
6.06218
6.06218
6.06218
6.06218
6.06218
6.06218
6.06218
6.06218
6.06218
6.06218
6.06218
6.06218
6.06218
6.06218
6.06218
6.06218
6.06218
6.06218
6.06218
6.06218
6.06218
6.06218
6.06218
6.06218
6.06218
6.06218
6.06218
6.06218
6.06218
6.06218
6.06218
6.06202
6.0599
6.05236
6.10539
6.57255
5.14469
1.07518
0.606425
0.504409
0.482852
0.476084
0.471202
0.466543
0.462044
0.45776
0.453829
0.450203
0.446558
0.442613
0.438101
0.433658
0.429621
0.425967
0.422608
0.419103
0.415239
0.41088
0.406622
0.402537
0.398763
0.395071
0.391076
0.386548
0.381923
0.377441
0.373079
0.368546
0.363583
0.358113
0.352769
0.347656
0.342639
0.337294
0.331133
0.324608
0.318531
0.313003
0.307697
0.302204
0.29599
0.289847
0.28421
0.27911
0.274024
0.268329
0.262236
0.256565
0.251478
0.246641
0.241446
0.235668
0.230083
0.225039
0.220348
0.215562
0.210464
0.205803
0.20187
0.198732
0.19608
0.194189
0.193189
0.193362
0.194455
0.19654
0.200104
0.204553
0.211712
0.219549
0.226016
0.227039
6.06218
6.06218
6.06218
6.06218
6.06218
6.06218
6.06218
6.06218
6.06218
6.06218
6.06218
6.06218
6.06218
6.06218
6.06218
6.06218
6.06218
6.06218
6.06218
6.06218
6.06218
6.06218
6.06218
6.06218
6.06218
6.06218
6.06218
6.06218
6.06218
6.06218
6.06218
6.06218
6.06218
6.06218
6.06218
6.06218
6.06218
6.06218
6.06218
6.06207
6.06181
6.06264
6.08685
4.52559
1.17808
0.631132
0.506315
0.480213
0.472701
0.467544
0.462699
0.458135
0.453964
0.450268
0.446978
0.443585
0.439849
0.435464
0.43117
0.427369
0.424095
0.4212
0.418096
0.414445
0.410203
0.406176
0.402633
0.399623
0.396798
0.393621
0.389697
0.385373
0.381228
0.377306
0.373658
0.369822
0.365447
0.360552
0.355538
0.350475
0.345303
0.339791
0.333893
0.327898
0.321888
0.315843
0.309689
0.303154
0.296869
0.29103
0.285571
0.280084
0.274116
0.268144
0.262627
0.257599
0.252655
0.247283
0.241698
0.23654
0.231941
0.227549
0.222946
0.218196
0.213885
0.210231
0.207259
0.204757
0.203164
0.202586
0.203159
0.20489
0.207425
0.211811
0.216946
0.224952
0.232986
0.239616
0.240567
6.06218
6.06218
6.06218
6.06218
6.06218
6.06218
6.06218
6.06218
6.06218
6.06218
6.06218
6.06218
6.06218
6.06218
6.06218
6.06218
6.06218
6.06218
6.06218
6.06218
6.06218
6.06218
6.06218
6.06218
6.06218
6.06218
6.06218
6.06218
6.06218
6.06218
6.06218
6.06218
6.06218
6.06218
6.06218
6.06218
6.06218
6.06218
6.06218
6.06218
6.06191
6.05785
5.97884
4.62027
1.35372
0.666798
0.514218
0.482957
0.473996
0.468225
0.463027
0.4583
0.454019
0.450281
0.446856
0.443301
0.439384
0.434952
0.430691
0.426917
0.423737
0.42073
0.417423
0.413561
0.409266
0.405392
0.402092
0.399304
0.39647
0.39321
0.389237
0.385216
0.381707
0.37877
0.376133
0.373148
0.369383
0.364875
0.360339
0.356053
0.351965
0.34768
0.342708
0.337102
0.331198
0.325077
0.318678
0.312117
0.305604
0.299275
0.293141
0.287051
0.280832
0.2749
0.269378
0.264207
0.259015
0.253513
0.248203
0.243415
0.239107
0.234837
0.230351
0.226044
0.222301
0.219124
0.216398
0.214001
0.21265
0.212466
0.213382
0.215696
0.218589
0.223739
0.229545
0.23837
0.246539
0.2533
0.254246
6.06218
6.06218
6.06218
6.06218
6.06218
6.06218
6.06218
6.06218
6.06218
6.06218
6.06218
6.06218
6.06218
6.06218
6.06218
6.06218
6.06218
6.06218
6.06218
6.06218
6.06218
6.06218
6.06218
6.06218
6.06218
6.06218
6.06218
6.06218
6.06218
6.06218
6.06218
6.06218
6.06218
6.06218
6.06218
6.06218
6.06218
6.06218
6.06218
6.06218
6.06205
6.06026
6.03085
5.24066
1.61171
0.714457
0.529773
0.492781
0.481884
0.475135
0.469417
0.464475
0.459983
0.456016
0.452193
0.448217
0.443911
0.439293
0.434997
0.431133
0.427747
0.424326
0.420547
0.416203
0.411793
0.407869
0.404477
0.401469
0.398288
0.394609
0.390361
0.386421
0.38306
0.380263
0.377515
0.37438
0.37044
0.366317
0.362697
0.359602
0.356696
0.353304
0.348982
0.343788
0.338352
0.333024
0.327667
0.322094
0.315869
0.309144
0.302214
0.295453
0.288934
0.282783
0.277049
0.271485
0.265891
0.260378
0.25532
0.250771
0.246515
0.242211
0.237941
0.23415
0.230979
0.228235
0.22582
0.223664
0.222615
0.222811
0.223969
0.226829
0.230006
0.235899
0.242346
0.251941
0.260225
0.267114
0.268109
6.06218
6.06218
6.06218
6.06218
6.06218
6.06218
6.06218
6.06218
6.06218
6.06218
6.06218
6.06218
6.06218
6.06218
6.06218
6.06218
6.06218
6.06218
6.06218
6.06218
6.06218
6.06218
6.06218
6.06218
6.06218
6.06218
6.06218
6.06218
6.06218
6.06218
6.06218
6.06218
6.06218
6.06218
6.06218
6.06218
6.06218
6.06218
6.06218
6.06218
6.06207
6.06132
6.06571
6.02633
1.99645
0.772314
0.545927
0.502395
0.490636
0.484171
0.47911
0.4747
0.470562
0.466602
0.462525
0.458146
0.453368
0.448638
0.444289
0.440344
0.436613
0.432673
0.428341
0.423571
0.419023
0.414862
0.411136
0.407583
0.40382
0.399539
0.394968
0.390855
0.387313
0.38416
0.380898
0.37714
0.37283
0.368854
0.365454
0.362618
0.359817
0.356485
0.352202
0.347699
0.343513
0.339619
0.335631
0.330914
0.325198
0.318718
0.311915
0.305121
0.298502
0.292176
0.2859
0.279687
0.273727
0.268211
0.263252
0.258708
0.254299
0.249947
0.246006
0.242696
0.239964
0.237471
0.235333
0.233632
0.232967
0.233587
0.234832
0.23824
0.241677
0.248283
0.25535
0.265613
0.274028
0.281063
0.282133
6.06218
6.06218
6.06218
6.06218
6.06218
6.06218
6.06218
6.06218
6.06218
6.06218
6.06218
6.06218
6.06218
6.06218
6.06218
6.06218
6.06218
6.06218
6.06218
6.06218
6.06218
6.06218
6.06218
6.06218
6.06218
6.06218
6.06218
6.06218
6.06218
6.06218
6.06218
6.06218
6.06218
6.06218
6.06218
6.06218
6.06218
6.06218
6.06218
6.06213
6.06122
6.05078
6.02258
6.6374
2.71075
0.850587
0.566001
0.513684
0.501081
0.495556
0.49151
0.487678
0.483771
0.479755
0.475516
0.471031
0.466306
0.461802
0.457556
0.453494
0.449358
0.444947
0.440251
0.435347
0.430656
0.426207
0.421908
0.417512
0.4129
0.407941
0.403033
0.398527
0.394511
0.390696
0.386784
0.382396
0.377866
0.373817
0.370299
0.367126
0.363753
0.359787
0.355415
0.351457
0.348119
0.345111
0.341737
0.33743
0.332032
0.326263
0.320622
0.315009
0.30918
0.302805
0.295828
0.288956
0.282642
0.277051
0.272007
0.267211
0.262536
0.258252
0.254624
0.251667
0.249139
0.24679
0.245011
0.243883
0.243546
0.244653
0.245916
0.249837
0.25359
0.260838
0.268539
0.279344
0.28791
0.295093
0.296311
6.06218
6.06218
6.06218
6.06218
6.06218
6.06218
6.06218
6.06218
6.06218
6.06218
6.06218
6.06218
6.06218
6.06218
6.06218
6.06218
6.06218
6.06218
6.06218
6.06218
6.06218
6.06218
6.06218
6.06218
6.06218
6.06218
6.06218
6.06218
6.06218
6.06218
6.06218
6.06218
6.06218
6.06218
6.06218
6.06218
6.06218
6.06218
6.06218
6.06219
6.06254
6.06708
6.11246
6.81351
4.85486
0.960565
0.590154
0.52306
0.508339
0.503368
0.499931
0.496309
0.492472
0.488394
0.484242
0.480145
0.476241
0.472465
0.468672
0.464689
0.460401
0.456018
0.451692
0.447447
0.443296
0.43911
0.434693
0.429992
0.424914
0.419727
0.414716
0.409843
0.405018
0.400164
0.395216
0.390074
0.385237
0.380858
0.376977
0.373196
0.369175
0.364664
0.360347
0.356561
0.353361
0.350255
0.346643
0.342131
0.337381
0.332933
0.328724
0.324329
0.319187
0.313017
0.306007
0.299023
0.292699
0.286982
0.28162
0.276357
0.271476
0.267288
0.263891
0.261043
0.258551
0.256381
0.254997
0.254464
0.254319
0.25586
0.257212
0.26163
0.26575
0.273546
0.281872
0.293118
0.301829
0.30913
0.310517
6.06218
6.06218
6.06218
6.06218
6.06218
6.06218
6.06218
6.06218
6.06218
6.06218
6.06218
6.06218
6.06218
6.06218
6.06218
6.06218
6.06218
6.06218
6.06218
6.06218
6.06218
6.06218
6.06218
6.06218
6.06218
6.06218
6.06218
6.06218
6.06218
6.06218
6.06218
6.06218
6.06218
6.06218
6.06218
6.06218
6.06218
6.06218
6.06218
6.06218
6.06223
6.06276
6.06891
6.24245
5.38671
1.13654
0.631641
0.534088
0.51248
0.505064
0.500475
0.496286
0.492268
0.488467
0.484907
0.481584
0.478349
0.475025
0.471476
0.467668
0.463943
0.460419
0.457096
0.453822
0.450361
0.44654
0.44235
0.438086
0.433877
0.429708
0.425498
0.421097
0.416273
0.411087
0.40557
0.400037
0.394844
0.389944
0.385304
0.380717
0.375913
0.371126
0.366818
0.363035
0.359577
0.355923
0.351685
0.347187
0.34313
0.339605
0.336225
0.332358
0.32746
0.321475
0.315249
0.309287
0.303525
0.297851
0.291954
0.286136
0.281076
0.277003
0.273669
0.270737
0.268243
0.266307
0.265311
0.265238
0.26522
0.267191
0.268714
0.273605
0.278106
0.286418
0.295337
0.306924
0.315769
0.32315
0.324728
6.06218
6.06218
6.06218
6.06218
6.06218
6.06218
6.06218
6.06218
6.06218
6.06218
6.06218
6.06218
6.06218
6.06218
6.06218
6.06218
6.06218
6.06218
6.06218
6.06218
6.06218
6.06218
6.06218
6.06218
6.06218
6.06218
6.06218
6.06218
6.06218
6.06218
6.06218
6.06218
6.06218
6.06218
6.06218
6.06218
6.06218
6.06218
6.06218
6.06218
6.06218
6.06208
6.0604
6.03431
5.24966
1.40484
0.688013
0.545356
0.516041
0.50743
0.502657
0.49858
0.494872
0.491466
0.488292
0.485293
0.482277
0.479106
0.475615
0.472013
0.468647
0.465486
0.46246
0.459303
0.455842
0.45201
0.448142
0.444399
0.440823
0.437325
0.433622
0.429472
0.424874
0.420144
0.415394
0.410579
0.405729
0.400672
0.395282
0.389683
0.384205
0.379134
0.374592
0.370537
0.366517
0.362204
0.357592
0.353347
0.349732
0.346595
0.343307
0.339275
0.334344
0.329281
0.324492
0.319744
0.314673
0.308971
0.302601
0.296536
0.291496
0.28742
0.283956
0.280797
0.278338
0.27665
0.275914
0.276207
0.276247
0.278731
0.280468
0.285744
0.290615
0.299477
0.308944
0.320731
0.329702
0.337131
0.338904
6.06218
6.06218
6.06218
6.06218
6.06218
6.06218
6.06218
6.06218
6.06218
6.06218
6.06218
6.06218
6.06218
6.06218
6.06218
6.06218
6.06218
6.06218
6.06218
6.06218
6.06218
6.06218
6.06218
6.06218
6.06218
6.06218
6.06218
6.06218
6.06218
6.06218
6.06218
6.06218
6.06218
6.06218
6.06218
6.06218
6.06218
6.06218
6.06218
6.06218
6.06218
6.0623
6.06344
6.09652
6.18042
1.91478
0.77397
0.568391
0.529312
0.5189
0.513543
0.50918
0.505296
0.501663
0.49822
0.494856
0.491424
0.487826
0.484006
0.480334
0.476872
0.473617
0.470381
0.466958
0.463262
0.45937
0.455667
0.45217
0.448805
0.445356
0.441587
0.437339
0.432939
0.428653
0.424449
0.420291
0.415926
0.411064
0.40565
0.399853
0.394168
0.38886
0.383927
0.379195
0.37438
0.369376
0.36465
0.360519
0.356974
0.353571
0.3498
0.345424
0.3411
0.337229
0.333576
0.32967
0.324964
0.319186
0.31296
0.307307
0.302561
0.29849
0.294672
0.291235
0.288828
0.287432
0.286721
0.287341
0.287482
0.290521
0.292459
0.298035
0.303284
0.3127
0.322662
0.334548
0.343642
0.35113
0.353101
6.06218
6.06218
6.06218
6.06218
6.06218
6.06218
6.06218
6.06218
6.06218
6.06218
6.06218
6.06218
6.06218
6.06218
6.06218
6.06218
6.06218
6.06218
6.06218
6.06218
6.06218
6.06218
6.06218
6.06218
6.06218
6.06218
6.06218
6.06218
6.06218
6.06218
6.06218
6.06218
6.06218
6.06218
6.06218
6.06218
6.06218
6.06218
6.06218
6.06218
6.06221
6.06271
6.06785
6.16697
7.18518
3.24728
0.892989
0.599293
0.547116
0.534395
0.528857
0.524578
0.520624
0.516694
0.512785
0.508821
0.504808
0.50062
0.496465
0.492478
0.48862
0.484862
0.481041
0.47709
0.472977
0.46894
0.465096
0.461409
0.457781
0.454029
0.449999
0.445722
0.441524
0.437425
0.433343
0.429245
0.42487
0.420034
0.414869
0.409679
0.404529
0.399396
0.39425
0.38891
0.383272
0.377861
0.373075
0.368936
0.365104
0.361097
0.356674
0.352357
0.348678
0.345527
0.342427
0.338713
0.333998
0.328623
0.323419
0.318687
0.314294
0.309981
0.30566
0.302075
0.299825
0.298619
0.297793
0.298686
0.29901
0.30254
0.304651
0.310507
0.31614
0.326085
0.336451
0.348376
0.357563
0.365139
0.367281
6.06218
6.06218
6.06218
6.06218
6.06218
6.06218
6.06218
6.06218
6.06218
6.06218
6.06218
6.06218
6.06218
6.06218
6.06218
6.06218
6.06218
6.06218
6.06218
6.06218
6.06218
6.06218
6.06218
6.06218
6.06218
6.06218
6.06218
6.06218
6.06218
6.06218
6.06218
6.06218
6.06218
6.06218
6.06218
6.06218
6.06218
6.06218
6.06218
6.06218
6.06218
6.06225
6.06342
6.08936
6.5397
8.18364
1.08576
0.638168
0.559546
0.543935
0.538515
0.534887
0.531432
0.527788
0.524056
0.52027
0.51643
0.512627
0.508884
0.50517
0.501414
0.497525
0.493502
0.489335
0.485141
0.481044
0.477092
0.473182
0.469166
0.464956
0.46053
0.456117
0.451849
0.447675
0.443503
0.439155
0.434453
0.429507
0.424561
0.419676
0.414751
0.40974
0.404427
0.398636
0.392637
0.387128
0.382249
0.37786
0.373536
0.368884
0.364199
0.360146
0.35684
0.353894
0.35066
0.346714
0.342348
0.338152
0.334247
0.330282
0.326021
0.321232
0.316745
0.313364
0.311332
0.310164
0.309121
0.31029
0.310855
0.314774
0.317044
0.323201
0.329188
0.339604
0.350302
0.362223
0.371492
0.379196
0.381562
6.06218
6.06218
6.06218
6.06218
6.06218
6.06218
6.06218
6.06218
6.06218
6.06218
6.06218
6.06218
6.06218
6.06218
6.06218
6.06218
6.06218
6.06218
6.06218
6.06218
6.06218
6.06218
6.06218
6.06218
6.06218
6.06218
6.06218
6.06218
6.06218
6.06218
6.06218
6.06218
6.06218
6.06218
6.06218
6.06218
6.06218
6.06218
6.06218
6.06218
6.06218
6.06218
6.06216
6.06168
6.05036
5.41765
1.39875
0.698191
0.570326
0.545104
0.538132
0.535121
0.53273
0.530311
0.52774
0.524957
0.52209
0.519114
0.516053
0.512895
0.509583
0.506107
0.502503
0.498802
0.495052
0.491254
0.487401
0.483418
0.479269
0.474979
0.470606
0.466342
0.462178
0.458058
0.453828