/*--------------------------------*- C++ -*----------------------------------*\
| =========                 |                                                 |
| \\      /  F ield         | OpenFOAM: The Open Source CFD Toolbox           |
|  \\    /   O peration     | Version:  2.2.x                                 |
|   \\  /    A nd           | Web:      www.OpenFOAM.org                      |
|    \\/     M anipulation  |                                                 |
\*---------------------------------------------------------------------------*/
FoamFile
{
    version     2.0;
    format      ascii;
    class       volScalarField;
    location    "1.7";
    object      T;
}
// * * * * * * * * * * * * * * * * * * * * * * * * * * * * * * * * * * * * * //

dimensions      [0 0 0 1 0 0 0];

internalField   nonuniform List<scalar> 
14161
(
1
1
1
1
1
1
1
1
1
1
1
1
1
1
1
1
1
1
1
1
1
1
1
1
1
1
1
1
1
1
1
1
1
1
1
1
1
1
1
1.00003
1.00047
1.00806
1.18264
5.87384
10.6562
12.0554
12.3369
12.3972
12.4233
12.446
12.4655
12.4823
12.4974
12.5094
12.5182
12.5317
12.5533
12.5734
12.5897
12.6038
12.6133
12.62
12.6332
12.6554
12.6751
12.6911
12.7037
12.7077
12.7154
12.7321
12.7545
12.7717
12.7857
12.793
12.7979
12.8095
12.8306
12.8491
12.8639
12.8729
12.8773
12.8883
12.9077
12.9258
12.9399
12.9482
12.954
12.9665
12.9855
13.0015
13.0138
13.0199
13.029
13.0447
13.0616
13.0752
13.0836
13.0913
13.105
13.1209
13.1342
13.1429
13.1503
13.1629
13.1771
13.1884
13.1952
13.202
13.2125
13.2233
13.2311
13.2362
13.2437
13.2557
13.2685
13.2782
13.2856
13.2932
13.3012
1
1
1
1
1
1
1
1
1
1
1
1
1
1
1
1
1
1
1
1
1
1
1
1
1
1
1
1
1
1
1
1
1
1
1
1
1
1
1
1.00003
1.00047
1.00809
1.18393
5.87326
10.6585
12.0622
12.3453
12.406
12.4321
12.4543
12.4734
12.4897
12.5045
12.5162
12.5249
12.5387
12.5604
12.5804
12.5967
12.6108
12.62
12.6267
12.6402
12.6625
12.682
12.6979
12.7103
12.7142
12.7221
12.7392
12.7615
12.7785
12.7922
12.799
12.8039
12.8162
12.8376
12.8558
12.8702
12.8785
12.8829
12.894
12.9138
12.9318
12.9458
12.9533
12.9589
12.9716
12.9906
13.0066
13.0187
13.0243
13.0332
13.0488
13.0658
13.0793
13.0873
13.0946
13.108
13.124
13.1372
13.1459
13.1529
13.165
13.1789
13.19
13.1967
13.2031
13.2131
13.2236
13.2313
13.2364
13.2437
13.2554
13.2679
13.2772
13.2842
13.2914
13.2986
1
1
1
1
1
1
1
1
1
1
1
1
1
1
1
1
1
1
1
1
1
1
1
1
1
1
1
1
1
1
1
1
1
1
1
1
1
1
1
1.00003
1.00045
1.00768
1.17353
5.83563
10.6475
12.0596
12.3442
12.4054
12.4319
12.4543
12.4733
12.4896
12.5044
12.5158
12.5247
12.5391
12.561
12.5809
12.5971
12.6112
12.6201
12.627
12.641
12.6634
12.6826
12.6985
12.7107
12.7145
12.7229
12.7405
12.7626
12.7795
12.7931
12.7992
12.8045
12.8177
12.8392
12.8572
12.8713
12.8791
12.8836
12.8951
12.9154
12.9332
12.9471
12.954
12.9596
12.9727
12.9919
13.008
13.02
13.0251
13.034
13.0499
13.0669
13.0803
13.0883
13.0954
13.1087
13.1248
13.1381
13.1469
13.1539
13.1656
13.1793
13.1905
13.1973
13.2036
13.2132
13.2232
13.2306
13.2354
13.2425
13.2538
13.2656
13.2741
13.28
13.2859
13.2913
1
1
1
1
1
1
1
1
1
1
1
1
1
1
1
1
1
1
1
1
1
1
1
1
1
1
1
1
1
1
1
1
1
1
1
1
1
1
1
1.00003
1.00041
1.00679
1.15091
5.75898
10.6222
12.0467
12.3338
12.3958
12.4233
12.4463
12.4659
12.4827
12.4978
12.5091
12.5184
12.5339
12.556
12.5755
12.5917
12.6056
12.6143
12.6217
12.6367
12.6591
12.6778
12.6934
12.7052
12.7096
12.7185
12.7368
12.7586
12.7754
12.7889
12.794
12.8
12.8142
12.8359
12.8536
12.8676
12.8746
12.8795
12.8919
12.9125
12.9302
12.9439
12.9503
12.9562
12.9699
12.9894
13.0056
13.0177
13.0226
13.0319
13.0478
13.0649
13.0784
13.0864
13.0936
13.1068
13.1231
13.1367
13.1459
13.1532
13.1652
13.179
13.1904
13.1976
13.2039
13.2132
13.2228
13.2297
13.2339
13.2404
13.2512
13.2621
13.2697
13.2743
13.2787
13.2818
1
1
1
1
1
1
1
1
1
1
1
1
1
1
1
1
1
1
1
1
1
1
1
1
1
1
1
1
1
1
1
1
1
1
1
1
1
1
1
1.00002
1.00037
1.00585
1.12629
5.67174
10.5947
12.0358
12.3275
12.3912
12.4197
12.4433
12.463
12.4797
12.4945
12.5053
12.5149
12.5316
12.5538
12.5727
12.5885
12.6024
12.6101
12.618
12.6345
12.6572
12.675
12.69
12.7009
12.7054
12.7151
12.7346
12.7556
12.772
12.7851
12.789
12.7956
12.8109
12.8327
12.8498
12.8632
12.869
12.8742
12.8873
12.908
12.925
12.9379
12.9436
12.9495
12.9636
12.9831
12.9991
13.011
13.0157
13.0256
13.0415
13.0586
13.0723
13.0807
13.0886
13.1021
13.1183
13.1321
13.1417
13.1495
13.1619
13.176
13.1876
13.1953
13.2021
13.2116
13.2209
13.2275
13.2313
13.2373
13.2476
13.2577
13.2643
13.2676
13.27
13.2708
1
1
1
1
1
1
1
1
1
1
1
1
1
1
1
1
1
1
1
1
1
1
1
1
1
1
1
1
1
1
1
1
1
1
1
1
1
1
1
1.00002
1.00033
1.0051
1.1071
5.5882
10.5744
12.0349
12.3303
12.3955
12.4249
12.4483
12.4675
12.4833
12.4973
12.5076
12.518
12.5359
12.5578
12.5753
12.5906
12.6036
12.6104
12.6196
12.6375
12.6594
12.6762
12.6903
12.6999
12.7048
12.7152
12.7355
12.7551
12.771
12.7831
12.7862
12.7934
12.8094
12.8303
12.8471
12.8602
12.8645
12.8703
12.8842
12.9048
12.9217
12.9344
12.939
12.9454
12.96
12.9793
12.995
13.006
13.0105
13.0205
13.0368
13.0534
13.0665
13.0745
13.083
13.0969
13.1127
13.1258
13.1351
13.1434
13.1561
13.1703
13.1824
13.1906
13.198
13.2078
13.2172
13.2238
13.2275
13.2333
13.243
13.2522
13.2576
13.2599
13.2602
13.2589
1
1
1
1
1
1
1
1
1
1
1
1
1
1
1
1
1
1
1
1
1
1
1
1
1
1
1
1
1
1
1
1
1
1
1
1
1
1
1
1.00002
1.00028
1.00383
1.07423
5.44023
10.5334
12.0274
12.3286
12.3947
12.4244
12.4475
12.466
12.4815
12.4946
12.5044
12.516
12.5357
12.5567
12.5738
12.5885
12.6004
12.6072
12.6177
12.6374
12.6587
12.6752
12.6886
12.697
12.7028
12.7151
12.7364
12.7553
12.7708
12.7821
12.7856
12.7942
12.8116
12.8321
12.8483
12.861
12.8652
12.8725
12.8879
12.9076
12.9237
12.936
12.9404
12.9484
12.9635
12.9809
12.9951
13.0043
13.0088
13.0191
13.0357
13.051
13.0627
13.0693
13.078
13.0922
13.1074
13.1198
13.1281
13.1367
13.1496
13.1638
13.1753
13.1835
13.1915
13.2017
13.2115
13.2182
13.2221
13.2281
13.2374
13.2454
13.2495
13.2505
13.2491
13.2463
1
1
1
1
1
1
1
1
1
1
1
1
1
1
1
1
1
1
1
1
1
1
1
1
1
1
1
1
1
1
1
1
1
1
1
1
1
1
1
1.00001
1.00019
1.00208
1.02744
5.22046
10.4676
12.0049
12.3146
12.3834
12.4146
12.4374
12.4551
12.4703
12.4827
12.4928
12.5068
12.5275
12.5472
12.5634
12.5778
12.5892
12.5969
12.6091
12.6302
12.6502
12.6661
12.6797
12.6872
12.6945
12.7092
12.7308
12.749
12.7637
12.7743
12.7798
12.7903
12.8094
12.8289
12.8444
12.856
12.8612
12.8706
12.888
12.9069
12.9219
12.9332
12.9388
12.9494
12.9662
12.9824
12.9953
13.0029
13.0087
13.0204
13.0366
13.0502
13.0601
13.0652
13.0749
13.0897
13.1039
13.115
13.1216
13.1306
13.1437
13.1574
13.1681
13.1756
13.184
13.1942
13.2038
13.2104
13.215
13.2218
13.2306
13.2371
13.2399
13.2396
13.2368
13.2327
1
1
1
1
1
1
1
1
1
1
1
1
1
1
1
1
1
1
1
1
1
1
1
1
1
1
1
1
1
1
1
1
1
1
1
1
1
1
1
1.00001
1.00011
1.00049
0.984129
4.97748
10.3984
11.9854
12.3048
12.3773
12.4105
12.4329
12.4493
12.4636
12.4746
12.4848
12.5018
12.5233
12.5418
12.5573
12.571
12.5795
12.5879
12.6041
12.6262
12.6438
12.6586
12.67
12.6758
12.6851
12.7032
12.7242
12.7406
12.7539
12.761
12.7679
12.7816
12.8023
12.8201
12.8345
12.8443
12.8511
12.8629
12.8824
12.9006
12.9149
12.9247
12.9322
12.945
12.9639
12.9799
12.9923
12.9988
13.0069
13.0209
13.0366
13.0492
13.0573
13.0624
13.0731
13.0882
13.1013
13.1105
13.1159
13.1257
13.1391
13.1517
13.1609
13.1672
13.176
13.1863
13.1953
13.2012
13.2064
13.2139
13.2223
13.2273
13.2287
13.2269
13.2234
13.2177
1
1
1
1
1
1
1
1
1
1
1
1
1
1
1
1
1
1
1
1
1
1
1
1
1
1
1
1
1
1
1
1
1
1
1
1
1
1
1
1
0.999995
0.998677
0.940238
4.67614
10.3132
11.9646
12.2974
12.3755
12.4102
12.4312
12.4469
12.46
12.4697
12.4821
12.5021
12.5223
12.5388
12.5535
12.5655
12.5729
12.5843
12.6046
12.6248
12.6405
12.654
12.662
12.6689
12.6829
12.7044
12.7225
12.7368
12.7477
12.753
12.7626
12.7811
12.8012
12.8172
12.8296
12.8351
12.8436
12.8597
12.8799
12.8963
12.9097
12.9163
12.925
12.9407
12.96
12.9759
12.9873
12.9929
13.0029
13.0189
13.0347
13.0468
13.0533
13.0594
13.0715
13.0862
13.0982
13.1055
13.1112
13.1217
13.1349
13.146
13.1532
13.1588
13.1679
13.1782
13.1861
13.1911
13.1966
13.2044
13.2124
13.2156
13.2155
13.2129
13.2087
13.2016
1
1
1
1
1
1
1
1
1
1
1
1
1
1
1
1
1
1
1
1
1
1
1
1
1
1
1
1
1
1
1
1
1
1
1
1
1
1
0.999999
0.999994
1.00001
0.997641
0.897442
4.29302
10.1987
11.9314
12.2818
12.3667
12.4029
12.423
12.4377
12.4486
12.4582
12.4747
12.4964
12.5147
12.5305
12.5445
12.5518
12.5599
12.5769
12.5997
12.6169
12.6317
12.6428
12.647
12.6567
12.6762
12.6977
12.7144
12.728
12.7328
12.7384
12.7521
12.7745
12.7932
12.808
12.8169
12.82
12.8302
12.8496
12.8696
12.8858
12.8973
12.9014
12.9125
12.9307
12.95
12.9661
12.9774
12.9843
12.9962
13.014
13.0298
13.0415
13.0471
13.0554
13.0689
13.0829
13.0938
13.0995
13.1061
13.1176
13.1301
13.1395
13.1445
13.1507
13.16
13.1696
13.1759
13.1798
13.186
13.1939
13.2004
13.202
13.2011
13.1975
13.1925
13.1838
1
1
1
1
1
1
1
1
1
1
1
1
1
1
1
1
1
1
1
1
1
1
1
1
1
1
1
1
1
1
1
1
1
1
1
1
1
0.999999
0.999977
0.999821
1.00197
1.01564
0.869646
3.86688
10.0753
11.9044
12.2786
12.3688
12.4052
12.4242
12.4372
12.4469
12.4587
12.4785
12.4997
12.5167
12.5311
12.5427
12.5492
12.5594
12.5791
12.6003
12.6163
12.6293
12.6369
12.6421
12.654
12.6758
12.695
12.7101
12.7217
12.7243
12.7315
12.7482
12.7702
12.7871
12.8006
12.8055
12.8105
12.8229
12.8439
12.862
12.8763
12.8839
12.889
12.9011
12.9216
12.94
12.9553
12.9642
12.9722
12.9866
13.0053
13.0216
13.0333
13.0391
13.0497
13.0647
13.0785
13.0882
13.0929
13.1009
13.1131
13.1247
13.1322
13.1359
13.1427
13.1521
13.1602
13.1647
13.168
13.1748
13.1825
13.1865
13.1867
13.185
13.1802
13.1746
13.1645
1
1
1
1
1
1
1
1
1
1
1
1
1
1
1
1
1
1
1
1
1
1
1
1
1
1
1
1
1
1
1
1
1
1
1
1
1
1
1.00002
1.00033
1.00398
1.01918
0.810015
3.31673
9.91327
11.8675
12.2697
12.3665
12.402
12.417
12.4262
12.4356
12.4513
12.4722
12.4907
12.506
12.519
12.5271
12.5344
12.5493
12.572
12.5906
12.6059
12.6174
12.621
12.6286
12.6458
12.6693
12.687
12.7011
12.7086
12.7126
12.7229
12.7446
12.7658
12.7819
12.7928
12.7948
12.8032
12.8209
12.8421
12.8584
12.8703
12.8724
12.8795
12.8952
12.9156
12.9327
12.9453
12.9494
12.9596
12.9765
12.9955
13.0111
13.0218
13.0291
13.0414
13.0578
13.0719
13.081
13.086
13.0954
13.1079
13.1182
13.1241
13.1276
13.1348
13.1438
13.1499
13.1529
13.1566
13.1634
13.1698
13.1707
13.1698
13.1674
13.1615
13.1553
13.1432
1
1
1
1
1
1
1
1
1
1
1
1
1
1
1
1
1
1
1
1
1
1
1
1
1
1
1
1
1
1
1
1
1
1
1
1
1
0.999998
1.00001
1.00011
1.00239
1.00352
0.747108
2.61269
9.6986
11.8106
12.247
12.3509
12.3829
12.3945
12.402
12.4134
12.4331
12.4532
12.4694
12.4838
12.496
12.5009
12.5102
12.5298
12.5534
12.5709
12.5854
12.5946
12.599
12.6092
12.6303
12.6526
12.6702
12.6853
12.6885
12.6948
12.7096
12.7337
12.7534
12.7695
12.7777
12.7814
12.7921
12.8142
12.8354
12.8513
12.8604
12.8636
12.873
12.8919
12.9109
12.9255
12.9334
12.9376
12.9492
12.9684
12.9867
13.0011
13.0085
13.0169
13.0312
13.0483
13.0625
13.0714
13.0778
13.0885
13.1012
13.1108
13.1153
13.1193
13.1265
13.1343
13.1388
13.1411
13.1451
13.1513
13.1547
13.1539
13.1521
13.1486
13.1409
13.1341
13.1205
1
1
1
1
1
1
1
1
1
1
1
1
1
1
1
1
1
1
1
1
1
1
1
1
1
1
1
1
1
1
1
1
1
1
1
1
1
1
0.999994
0.999811
0.996857
0.971685
0.737703
1.95714
9.53873
11.7025
12.2076
12.3222
12.3512
12.3612
12.3694
12.3839
12.4052
12.425
12.4416
12.4561
12.4662
12.473
12.4845
12.5069
12.5292
12.5471
12.5625
12.5678
12.5739
12.5874
12.6113
12.6319
12.6496
12.663
12.6641
12.6737
12.6926
12.7178
12.7374
12.7533
12.7582
12.7642
12.7778
12.802
12.8228
12.8397
12.8477
12.853
12.8652
12.8867
12.9052
12.9185
12.9227
12.928
12.9415
12.961
12.9779
12.9895
12.9936
13.0043
13.0209
13.0383
13.0518
13.0597
13.0673
13.0794
13.0925
13.102
13.1058
13.1104
13.1173
13.1239
13.1273
13.129
13.133
13.1378
13.1384
13.1364
13.1334
13.1284
13.1186
13.1112
13.0963
1
1
1
1
1
1
1
1
1
1
1
1
1
1
1
1
1
1
1
1
1
1
1
1
1
1
1
1
1
1
1
1
1
1
1
1
1
1
1.00005
1.00078
1.00429
0.993854
0.796623
1.11837
9.32661
11.5677
12.1639
12.2915
12.321
12.334
12.3478
12.3667
12.3865
12.404
12.4193
12.4322
12.4403
12.4501
12.4692
12.4903
12.5074
12.5227
12.5358
12.541
12.5486
12.5647
12.5898
12.6098
12.6263
12.6379
12.6413
12.6504
12.6682
12.6922
12.7124
12.7284
12.733
12.7422
12.7588
12.7829
12.8038
12.8214
12.8291
12.8373
12.8532
12.8758
12.8949
12.9088
12.9123
12.9196
12.9345
12.953
12.9673
12.9758
12.9809
12.9929
13.0109
13.0275
13.0397
13.0454
13.0547
13.068
13.0817
13.0912
13.0948
13.1002
13.1067
13.1124
13.115
13.1165
13.1194
13.1223
13.1212
13.118
13.1135
13.1067
13.095
13.0867
13.0708
1
1
1
1
1
1
1
1
1
1
1
1
1
1
1
1
1
1
1
1
1
1
1
1
1
1
1
1
1
1
1
1
1
1
1
1
1
1
1.00004
1.00065
1.00303
0.988381
0.851169
1.23499
8.98295
11.3932
12.1061
12.2579
12.3058
12.3292
12.3434
12.3557
12.3688
12.388
12.4092
12.4264
12.4415
12.453
12.4611
12.4699
12.4865
12.5069
12.5228
12.5369
12.5475
12.5543
12.5651
12.5823
12.6005
12.6144
12.6263
12.6359
12.6489
12.666
12.6827
12.6979
12.7097
12.7197
12.7355
12.7575
12.7781
12.7956
12.805
12.8174
12.8362
12.8587
12.8781
12.8933
12.8999
12.9106
12.927
12.9438
12.9564
12.9624
12.9689
12.9826
13.0001
13.0146
13.0243
13.0303
13.0413
13.0559
13.0691
13.078
13.0817
13.0878
13.0945
13.0999
13.102
13.103
13.1046
13.1052
13.1032
13.0986
13.0925
13.0827
13.0702
13.0608
13.0436
1
1
1
1
1
1
1
1
1
1
1
1
1
1
1
1
1
1
1
1
1
1
1
1
1
1
1
1
1
1
1
1
1
1
1
1
1
1
1
1.00003
1.0001
0.999704
0.985465
1.57324
8.43444
11.2569
12.1022
12.2755
12.3308
12.3566
12.3692
12.3778
12.387
12.4032
12.4238
12.4407
12.4554
12.4671
12.4705
12.4762
12.4903
12.5107
12.5263
12.5395
12.5486
12.552
12.5573
12.5723
12.591
12.6047
12.6157
12.6227
12.6294
12.6419
12.6591
12.676
12.6908
12.7029
12.7142
12.7295
12.7475
12.764
12.7788
12.7942
12.8134
12.8352
12.8558
12.8721
12.8829
12.8982
12.9166
12.9326
12.9444
12.9502
12.9584
12.9726
12.9878
12.9999
13.0072
13.0155
13.0284
13.0432
13.0547
13.0619
13.0664
13.0732
13.0807
13.086
13.0875
13.0882
13.0886
13.0868
13.084
13.0775
13.07
13.0572
13.0441
13.0333
13.0148
1
1
1
1
1
1
1
1
1
1
1
1
1
1
1
1
1
1
1
1
1
1
1
1
1
1
1
1
1
1
1
1
1
1
1
1
1
1
1
1
1.00006
1.00097
1.01995
1.52873
7.54871
11.0379
12.0734
12.28
12.3412
12.3662
12.3773
12.3841
12.3934
12.4118
12.4325
12.4483
12.4616
12.4722
12.4772
12.4856
12.5029
12.5222
12.5363
12.5476
12.5544
12.5576
12.566
12.5832
12.5992
12.6117
12.6198
12.6205
12.6232
12.6352
12.6534
12.6667
12.6772
12.6848
12.691
12.7022
12.7194
12.7382
12.7563
12.7726
12.7883
12.8052
12.8245
12.8432
12.8618
12.8814
12.9009
12.9176
12.9299
12.9387
12.9491
12.9625
12.9745
12.9841
12.9907
13.0013
13.0152
13.0285
13.0379
13.0431
13.0495
13.0574
13.0653
13.0704
13.0708
13.0714
13.071
13.0673
13.0632
13.0546
13.046
13.0304
13.0165
13.0042
12.9841
1
1
1
1
1
1
1
1
1
1
1
1
1
1
1
1
1
1
1
1
1
1
1
1
1
1
1
1
1
1
1
1
1
1
1
1
1
1
1
1
1.00003
1.0004
1.00604
1.23132
6.41669
10.7282
11.9923
12.2422
12.3111
12.3383
12.3518
12.3615
12.3751
12.3958
12.4156
12.4309
12.4438
12.454
12.4611
12.4731
12.4934
12.5115
12.5259
12.5378
12.543
12.5498
12.5645
12.5851
12.6007
12.613
12.6202
12.6218
12.6276
12.6423
12.6581
12.6691
12.676
12.6749
12.6767
12.6891
12.7072
12.7224
12.7357
12.7466
12.7565
12.7708
12.7903
12.8129
12.8355
12.8572
12.8774
12.8957
12.9112
12.9251
12.9394
12.9516
12.961
12.968
12.9761
12.9879
13.0009
13.0113
13.0186
13.0246
13.0323
13.0413
13.0483
13.0517
13.0523
13.0527
13.052
13.0463
13.0409
13.0305
13.0207
13.0022
12.9874
12.9734
12.9514
1
1
1
1
1
1
1
1
1
1
1
1
1
1
1
1
1
1
1
1
1
1
1
1
1
1
1
1
1
1
1
1
1
1
1
1
1
1
1
1
1.00003
1.00021
0.997649
0.964744
5.07642
10.3472
11.8924
12.2031
12.2805
12.3053
12.3184
12.3315
12.3497
12.3682
12.3837
12.3979
12.4111
12.4193
12.4295
12.4469
12.4679
12.4848
12.4996
12.5113
12.5173
12.5274
12.546
12.5677
12.5843
12.5981
12.6054
12.6115
12.623
12.6412
12.656
12.6671
12.6722
12.6721
12.6765
12.6904
12.7051
12.7154
12.7221
12.7224
12.7293
12.7458
12.7675
12.7888
12.8081
12.826
12.8432
12.8628
12.8842
12.906
12.924
12.9372
12.9462
12.9535
12.963
12.9746
12.9847
12.9926
12.9989
13.0066
13.0153
13.0241
13.0288
13.0306
13.0326
13.0326
13.0313
13.0235
13.0172
13.0051
12.9938
12.9723
12.9565
12.9409
12.9171
1
1
1
1
1
1
1
1
1
1
1
1
1
1
1
1
1
1
1
1
1
1
1
1
1
1
1
1
1
1
1
1
1
1
1
1
1
1
1
1.00001
1.00027
1.00354
1.01464
0.816982
3.39709
9.85949
11.7796
12.1617
12.2439
12.2652
12.2788
12.2936
12.3101
12.3261
12.3415
12.3562
12.3691
12.3797
12.3935
12.4134
12.432
12.4482
12.4631
12.4749
12.4858
12.4993
12.5187
12.5379
12.5549
12.5698
12.5783
12.5898
12.6067
12.6266
12.6415
12.6539
12.6595
12.6647
12.6754
12.6907
12.7019
12.709
12.7098
12.7095
12.7183
12.7353
12.7517
12.7664
12.779
12.7878
12.8038
12.8266
12.8533
12.8797
12.9013
12.9147
12.9272
12.9385
12.9502
12.9604
12.9676
12.9732
12.9804
12.9889
12.9976
13.0039
13.007
13.01
13.0121
13.0107
13.0085
12.9994
12.9925
12.9782
12.965
12.9406
12.9239
12.9072
12.8809
1
1
1
1
1
1
1
1
1
1
1
1
1
1
1
1
1
1
1
1
1
1
1
1
1
1
1
1
1
1
1
1
1
1
1
1
1
1
1
0.999996
0.999908
0.998734
0.986586
0.788031
1.32518
9.28812
11.6391
12.117
12.2105
12.2356
12.2528
12.2685
12.2823
12.2955
12.3088
12.3238
12.3406
12.3569
12.3721
12.3859
12.399
12.4105
12.4231
12.4369
12.4527
12.4686
12.4839
12.4992
12.5135
12.5256
12.5397
12.5555
12.5761
12.5963
12.6148
12.6285
12.6375
12.6486
12.6651
12.6811
12.6923
12.6989
12.6994
12.7032
12.7151
12.7293
12.7393
12.7459
12.7472
12.7562
12.7755
12.8014
12.8273
12.8504
12.8677
12.8821
12.9005
12.9184
12.9341
12.9443
12.9489
12.9544
12.9622
12.9711
12.9777
12.9818
12.9851
12.9883
12.9914
12.9867
12.983
12.9739
12.9665
12.9496
12.9343
12.9076
12.89
12.8722
12.8433
1
1
1
1
1
1
1
1
1
1
1
1
1
1
1
1
1
1
1
1
1
1
1
1
1
1
1
1
1
1
1
1
1
1
1
1
1
1
1
0.999999
0.999989
0.999853
0.998331
0.941891
1.14661
8.62193
11.2757
11.984
12.1377
12.1895
12.2199
12.2414
12.2578
12.2722
12.287
12.3037
12.3199
12.3344
12.3475
12.3584
12.3681
12.3794
12.3935
12.4084
12.4222
12.4347
12.4457
12.4564
12.4691
12.4852
12.5027
12.5201
12.5379
12.556
12.5735
12.5891
12.6047
12.6231
12.6441
12.6609
12.6738
12.6807
12.6867
12.6973
12.7106
12.72
12.7252
12.7252
12.7271
12.7392
12.7589
12.7794
12.7985
12.8135
12.8254
12.8457
12.8696
12.8931
12.9127
12.9226
12.9282
12.9352
12.9442
12.9522
12.9563
12.959
12.9632
12.9666
12.9682
12.9608
12.9566
12.9467
12.9389
12.9195
12.902
12.8736
12.855
12.8358
12.8038
1
1
1
1
1
1
1
1
1
1
1
1
1
1
1
1
1
1
1
1
1
1
1
1
1
1
1
1
1
1
1
1
1
1
1
1
1
1
1
1
1
1.00002
1.00037
1.00484
1.22136
7.33474
10.9422
11.9319
12.1361
12.1921
12.2198
12.2359
12.2482
12.2602
12.2757
12.293
12.3077
12.3205
12.3321
12.341
12.35
12.364
12.3808
12.3951
12.4076
12.4183
12.4258
12.434
12.4463
12.4616
12.4758
12.4899
12.5031
12.5152
12.5292
12.5469
12.5682
12.5904
12.6118
12.6303
12.6436
12.6561
12.6692
12.6857
12.6986
12.7066
12.7096
12.7094
12.7156
12.7295
12.7441
12.7559
12.765
12.7724
12.7898
12.8146
12.8424
12.8683
12.8846
12.8915
12.9034
12.9145
12.9253
12.9317
12.9328
12.9366
12.9409
12.9425
12.9423
12.9337
12.9296
12.9179
12.909
12.8877
12.8682
12.8384
12.8186
12.798
12.7629
1
1
1
1
1
1
1
1
1
1
1
1
1
1
1
1
1
1
1
1
1
1
1
1
1
1
1
1
1
1
1
1
1
1
1
1
1
1
1
1
0.999998
0.999971
0.99964
0.988597
0.919394
5.34882
10.4225
11.8339
12.1054
12.1702
12.1948
12.208
12.2189
12.2315
12.2472
12.2627
12.2764
12.2889
12.3004
12.3094
12.3209
12.338
12.3558
12.3709
12.384
12.3942
12.4023
12.4125
12.4275
12.4416
12.4541
12.465
12.4722
12.4809
12.4945
12.5135
12.533
12.5525
12.5713
12.5866
12.6039
12.6222
12.6438
12.6639
12.6785
12.6876
12.692
12.6974
12.7083
12.72
12.7275
12.7314
12.7331
12.7435
12.7646
12.79
12.8147
12.8336
12.8443
12.859
12.8762
12.8919
12.9039
12.9072
12.9085
12.9133
12.9187
12.9162
12.9137
12.9055
12.9019
12.887
12.8772
12.8548
12.8326
12.8017
12.7806
12.7587
12.7205
1
1
1
1
1
1
1
1
1
1
1
1
1
1
1
1
1
1
1
1
1
1
1
1
1
1
1
1
1
1
1
1
1
1
1
1
1
1
1
1
0.999994
0.99987
0.99873
0.971308
0.704161
2.58469
9.68238
11.6786
12.0554
12.1354
12.1544
12.1645
12.1745
12.1872
12.2026
12.2173
12.2318
12.246
12.2575
12.2702
12.2859
12.3044
12.321
12.3363
12.3505
12.3612
12.3725
12.3869
12.4041
12.4186
12.4314
12.4413
12.4493
12.458
12.471
12.4873
12.5033
12.5185
12.5311
12.5456
12.5639
12.5868
12.611
12.6327
12.6494
12.6594
12.6702
12.6838
12.697
12.7056
12.7089
12.7077
12.7111
12.725
12.7446
12.7643
12.7795
12.7893
12.8048
12.8262
12.8487
12.8691
12.877
12.8777
12.8835
12.8895
12.8945
12.888
12.8839
12.8758
12.8727
12.8551
12.8435
12.82
12.7956
12.7635
12.741
12.7179
12.6772
1
1
1
1
1
1
1
1
1
1
1
1
1
1
1
1
1
1
1
1
1
1
1
1
1
1
1
1
1
1
1
1
1
1
1
1
1
1
1
1
0.999999
0.999982
0.999698
0.992504
0.865896
0.51474
8.74605
11.3315
11.9307
12.0514
12.0843
12.1015
12.1176
12.1336
12.1496
12.1659
12.182
12.198
12.2137
12.2296
12.2454
12.2604
12.2748
12.2893
12.3022
12.3163
12.3324
12.3501
12.3664
12.3819
12.3954
12.4075
12.4197
12.434
12.4492
12.463
12.4755
12.4862
12.4978
12.5117
12.5307
12.5532
12.5762
12.5973
12.6124
12.6276
12.6451
12.6649
12.6793
12.6877
12.6886
12.689
12.6966
12.7103
12.7232
12.7328
12.7392
12.7515
12.7724
12.7979
12.8225
12.8375
12.8411
12.8477
12.8569
12.8651
12.8669
12.8572
12.8536
12.8447
12.8413
12.8217
12.8081
12.783
12.757
12.7235
12.6998
12.6759
12.6322
1
1
1
1
1
1
1
1
1
1
1
1
1
1
1
1
1
1
1
1
1
1
1
1
1
1
1
1
1
1
1
1
1
1
1
1
1
1
1
1
1
1
1
1.00004
1.00061
1.15387
7.36143
10.9191
11.8308
12.0228
12.0787
12.1034
12.1194
12.1317
12.1422
12.1522
12.1618
12.1717
12.1829
12.1949
12.207
12.2189
12.2307
12.2426
12.2548
12.2693
12.2867
12.3045
12.3224
12.3396
12.3544
12.369
12.3851
12.4032
12.4193
12.4331
12.4442
12.4536
12.4649
12.4805
12.499
12.518
12.537
12.5545
12.5715
12.5912
12.6144
12.637
12.6537
12.6628
12.6665
12.6724
12.6831
12.6924
12.6972
12.699
12.7053
12.7226
12.7465
12.7701
12.7876
12.7949
12.804
12.8176
12.8313
12.8374
12.8347
12.8253
12.823
12.8111
12.8067
12.787
12.7716
12.7442
12.7165
12.682
12.6571
12.6323
12.5859
1
1
1
1
1
1
1
1
1
1
1
1
1
1
1
1
1
1
1
1
1
1
1
1
1
1
1
1
1
1
1
1
1
1
1
1
1
1
1
1
1
0.999998
0.999971
0.99962
0.989327
0.886287
4.85517
10.2439
11.7204
12.0049
12.0669
12.089
12.102
12.1127
12.1227
12.1321
12.1417
12.1515
12.1617
12.172
12.1823
12.1925
12.203
12.2141
12.2263
12.2402
12.255
12.2701
12.2858
12.3017
12.3167
12.3333
12.3519
12.3706
12.3874
12.4025
12.4141
12.4257
12.438
12.453
12.4681
12.4828
12.4971
12.5126
12.5317
12.5546
12.5796
12.6032
12.6217
12.632
12.643
12.6557
12.6667
12.6718
12.6714
12.6704
12.6797
12.6991
12.7197
12.7348
12.7431
12.7534
12.7698
12.7886
12.8044
12.8034
12.7989
12.7923
12.7918
12.7767
12.7692
12.7504
12.734
12.7038
12.6741
12.6389
12.6132
12.587
12.5368
1
1
1
1
1
1
1
1
1
1
1
1
1
1
1
1
1
1
1
1
1
1
1
1
1
1
1
1
1
1
1
1
1
1
1
1
1
1
1
1
1
0.999995
0.999892
0.998615
0.986566
0.798193
1.20684
9.15923
11.5217
11.9471
12.0257
12.0458
12.0567
12.0666
12.0765
12.0878
12.1002
12.1119
12.1232
12.1344
12.1457
12.1576
12.17
12.1823
12.1947
12.207
12.2193
12.2318
12.2446
12.2582
12.2731
12.2898
12.3077
12.3259
12.3437
12.3598
12.3761
12.3915
12.4074
12.4228
12.4372
12.4498
12.4611
12.4757
12.4949
12.5178
12.541
12.5631
12.58
12.5971
12.6152
12.633
12.6443
12.6484
12.6459
12.6476
12.6586
12.6739
12.6856
12.6926
12.7018
12.7186
12.7396
12.7595
12.7674
12.7622
12.7639
12.7586
12.7592
12.7405
12.7296
12.7117
12.695
12.6617
12.6302
12.5944
12.5676
12.5403
12.487
1
1
1
1
1
1
1
1
1
1
1
1
1
1
1
1
1
1
1
1
1
1
1
1
1
1
1
1
1
1
1
1
1
1
1
1
1
1
1
1
1
1
0.999996
0.999982
0.999939
0.995028
1.08369
7.76335
10.9701
11.7484
11.9208
11.9767
12.0045
12.0228
12.0386
12.0532
12.0669
12.0799
12.0921
12.1038
12.116
12.1286
12.1406
12.1517
12.1624
12.1725
12.1822
12.192
12.2023
12.2136
12.2264
12.2413
12.258
12.2758
12.2941
12.3123
12.3316
12.3512
12.3702
12.388
12.4036
12.4167
12.4295
12.4437
12.462
12.4822
12.5025
12.5212
12.5392
12.5606
12.584
12.6039
12.6173
12.6208
12.6221
12.6275
12.6369
12.6436
12.6482
12.6535
12.6678
12.6887
12.7093
12.7202
12.7218
12.722
12.7291
12.7248
12.723
12.7011
12.6902
12.6707
12.6536
12.6185
12.585
12.5486
12.5207
12.4917
12.434
1
1
1
1
1
1
1
1
1
1
1
1
1
1
1
1
1
1
1
1
1
1
1
1
1
1
1
1
1
1
1
1
1
1
1
1
1
1
1
1
1
1
1
1.00003
0.999997
0.990337
0.881091
4.89463
10.1894
11.5746
11.8533
11.9214
11.9457
11.9642
11.9826
12.0003
12.0167
12.032
12.0463
12.06
12.0748
12.0901
12.1038
12.1166
12.1286
12.1395
12.1501
12.1611
12.1724
12.1842
12.1965
12.2087
12.2212
12.2352
12.2508
12.2687
12.288
12.3082
12.3279
12.3467
12.3634
12.3799
12.3952
12.411
12.4277
12.4449
12.4618
12.4795
12.4997
12.523
12.5476
12.5689
12.5833
12.5912
12.5985
12.6066
12.6117
12.6123
12.6122
12.6205
12.6378
12.6579
12.6696
12.6735
12.6794
12.683
12.6953
12.6882
12.6798
12.6606
12.6516
12.6276
12.6092
12.574
12.5384
12.5012
12.4719
12.4419
12.3818
1
1
1
1
1
1
1
1
1
1
1
1
1
1
1
1
1
1
1
1
1
1
1
1
1
1
1
1
1
1
1
1
1
1
1
1
1
1
1
1
1
1
1.00003
1.00051
1.00286
0.994444
0.825222
0.831002
8.90385
11.3646
11.8081
11.8921
11.9115
11.924
11.9388
11.9536
11.9676
11.9809
11.9949
12.0092
12.0233
12.0381
12.0525
12.0651
12.0774
12.0908
12.1041
12.1177
12.131
12.1441
12.1563
12.168
12.1802
12.1939
12.2095
12.2269
12.2459
12.2654
12.2844
12.3032
12.323
12.3424
12.361
12.3782
12.3937
12.4077
12.4224
12.4399
12.4606
12.484
12.5083
12.5298
12.5443
12.559
12.5725
12.5815
12.5839
12.5806
12.581
12.5915
12.6072
12.6188
12.6242
12.6287
12.6404
12.6473
12.6585
12.6452
12.6345
12.6194
12.6119
12.5839
12.5628
12.5272
12.4904
12.4521
12.4212
12.3901
12.3251
1
1
1
1
1
1
1
1
1
1
1
1
1
1
1
1
1
1
1
1
1
1
1
1
1
1
1
1
1
1
1
1
1
1
1
1
1
1
1
1
1
1
1
1
1.00005
0.99979
0.993146
1.00847
7.16012
10.7842
11.6374
11.8081
11.8567
11.8785
11.8932
11.9058
11.9174
11.9291
11.9414
11.954
11.9669
11.9807
11.9946
12.0078
12.021
12.0349
12.0503
12.0661
12.0813
12.0959
12.1095
12.1229
12.1364
12.1506
12.1659
12.1828
12.2007
12.2187
12.2376
12.2575
12.2784
12.2994
12.3199
12.3389
12.3554
12.3709
12.3858
12.4024
12.4221
12.444
12.4657
12.4851
12.5044
12.524
12.5414
12.5517
12.5538
12.5504
12.5527
12.5628
12.571
12.576
12.5802
12.5894
12.6051
12.6082
12.6117
12.5979
12.5926
12.5778
12.57
12.5388
12.5148
12.4783
12.4405
12.401
12.3691
12.3377
12.2707
1
1
1
1
1
1
1
1
1
1
1
1
1
1
1
1
1
1
1
1
1
1
1
1
1
1
1
1
1
1
1
1
1
1
1
1
1
1
1
1
1
1
1
1.00005
1.00022
0.999088
0.987489
0.835922
3.55661
9.71877
11.3814
11.7126
11.7953
11.8255
11.8426
11.8574
11.8713
11.8851
11.899
11.9124
11.9258
11.9395
11.9526
11.966
11.9799
11.9945
12.0094
12.0243
12.0393
12.0537
12.0681
12.0828
12.0981
12.1127
12.1271
12.1421
12.1571
12.1728
12.1909
12.2108
12.2319
12.254
12.2762
12.2965
12.315
12.3331
12.3495
12.3662
12.3845
12.4031
12.4215
12.4418
12.4636
12.4858
12.5052
12.5177
12.521
12.5214
12.5248
12.5303
12.5322
12.5344
12.5408
12.5518
12.5666
12.562
12.5602
12.5524
12.5529
12.5351
12.5235
12.4929
12.4666
12.4274
12.3876
12.3469
12.3147
12.2824
12.2107
1
1
1
1
1
1
1
1
1
1
1
1
1
1
1
1
1
1
1
1
1
1
1
1
1
1
1
1
1
1
1
1
1
1
1
1
1
1
1
1
1
1
1
1
1.00001
0.99998
0.999461
0.98325
0.792287
7.96488
10.8829
11.5574
11.7075
11.7515
11.7728
11.7918
11.8079
11.8238
11.8399
11.8549
11.8689
11.8832
11.8981
11.9133
11.9291
11.9455
11.9614
11.9763
11.9914
12.0065
12.0216
12.0369
12.0526
12.0684
12.0835
12.0978
12.1125
12.1285
12.1461
12.1655
12.1863
12.2079
12.2291
12.2493
12.2704
12.2913
12.3108
12.329
12.3456
12.3613
12.3796
12.3998
12.4219
12.4449
12.4652
12.4779
12.4867
12.4914
12.4952
12.4954
12.493
12.4968
12.5038
12.5111
12.5202
12.5121
12.5135
12.5086
12.5121
12.4887
12.4723
12.4456
12.4182
12.3745
12.3332
12.2927
12.2601
12.2267
12.1518
1
1
1
1
1
1
1
1
1
1
1
1
1
1
1
1
1
1
1
1
1
1
1
1
1
1
1
1
1
1
1
1
1
1
1
1
1
1
1
1
1
1
1
1
0.999998
1.00001
0.99987
0.992655
0.874263
4.86664
10.1093
11.3865
11.6319
11.6889
11.7135
11.7335
11.7517
11.7683
11.7853
11.802
11.8176
11.8328
11.8483
11.8641
11.8807
11.8974
11.9131
11.9289
11.9454
11.9615
11.9777
11.9939
12.0097
12.0253
12.0408
12.0563
12.0718
12.0876
12.1044
12.1226
12.1419
12.1612
12.1803
12.2013
12.2237
12.2462
12.2684
12.2888
12.3048
12.3211
12.3383
12.3582
12.3797
12.4016
12.421
12.4362
12.4503
12.4591
12.4622
12.4602
12.4554
12.4602
12.4669
12.4653
12.4693
12.4648
12.4717
12.4646
12.4646
12.4378
12.422
12.3968
12.3684
12.3208
12.2781
12.2369
12.2024
12.1682
12.0889
1
1
1
1
1
1
1
1
1
1
1
1
1
1
1
1
1
1
1
1
1
1
1
1
1
1
1
1
1
1
1
1
1
1
1
1
1
1
1
1
1
1
1
1
1.00004
1.00064
1.00359
0.997133
0.884378
0.775323
8.3194
10.9883
11.5209
11.6314
11.6599
11.6749
11.6913
11.7078
11.7237
11.7399
11.7558
11.7725
11.789
11.8053
11.8224
11.8396
11.8557
11.8736
11.8923
11.911
11.9288
11.9455
11.9627
11.9792
11.9957
12.0127
12.0291
12.0452
12.0616
12.0785
12.0958
12.1141
12.1338
12.155
12.1773
12.2005
12.2236
12.2441
12.2623
12.2802
12.2974
12.3167
12.337
12.3562
12.3752
12.3941
12.4111
12.4226
12.4262
12.4239
12.4194
12.4242
12.4261
12.4196
12.4215
12.4183
12.4288
12.4175
12.4106
12.387
12.3736
12.3457
12.3155
12.2662
12.2226
12.1808
12.1453
12.1111
12.0285
1
1
1
1
1
1
1
1
1
1
1
1
1
1
1
1
1
1
1
1
1
1
1
1
1
1
1
1
1
1
1
1
1
1
1
1
1
1
1
1
1
1
1
1
0.999996
1.00003
1.00011
0.999712
0.988627
0.841088
5.41766
10.2094
11.3368
11.5612
11.6115
11.6287
11.6413
11.657
11.6714
11.6845
11.6985
11.7146
11.7312
11.7476
11.7652
11.7831
11.8008
11.8194
11.8395
11.8596
11.8778
11.8947
11.9137
11.9319
11.9502
11.9684
11.9859
12.0025
12.0186
12.0346
12.0513
12.0695
12.089
12.1099
12.1318
12.1544
12.1759
12.1959
12.217
12.2372
12.2561
12.275
12.293
12.3107
12.3308
12.3503
12.3691
12.3821
12.3863
12.3872
12.3833
12.3865
12.3831
12.3752
12.3773
12.3709
12.3798
12.3658
12.3577
12.3362
12.3238
12.2916
12.2601
12.2101
12.1653
12.1211
12.0838
12.0502
11.9623
1
1
1
1
1
1
1
1
1
1
1
1
1
1
1
1
1
1
1
1
1
1
1
1
1
1
1
1
1
1
1
1
1
1
1
1
1
1
1
1
1
1
1
1
1
1.00004
1.00063
1.00367
0.995505
0.854594
0.967454
8.40184
10.9651
11.4469
11.5545
11.5806
11.5924
11.6064
11.6199
11.632
11.6448
11.6592
11.6739
11.6887
11.7058
11.724
11.7418
11.7602
11.7809
11.8018
11.8212
11.8402
11.8609
11.8808
11.9004
11.9194
11.9381
11.9564
11.974
11.9914
12.0088
12.0263
12.0451
12.0649
12.0856
12.106
12.1265
12.1483
12.1705
12.1923
12.2131
12.2317
12.2477
12.2656
12.2859
12.3054
12.3245
12.338
12.3439
12.3493
12.3471
12.3463
12.3401
12.3308
12.3331
12.3218
12.3259
12.313
12.3078
12.2859
12.2717
12.2356
12.2024
12.1527
12.1075
12.0626
12.0241
11.9907
11.8996
1
1
1
1
1
1
1
1
1
1
1
1
1
1
1
1
1
1
1
1
1
1
1
1
1
1
1
1
1
1
1
1
1
1
1
1
1
1
1
1
1
1
1
1
1
0.999986
1.00003
1.00012
0.999502
0.98569
0.789911
5.46273
10.1505
11.2382
11.4606
11.5179
11.5408
11.5564
11.5735
11.5879
11.6004
11.613
11.6247
11.6376
11.6536
11.6698
11.6857