/*--------------------------------*- C++ -*----------------------------------*\
| =========                 |                                                 |
| \\      /  F ield         | OpenFOAM: The Open Source CFD Toolbox           |
|  \\    /   O peration     | Version:  2.2.x                                 |
|   \\  /    A nd           | Web:      www.OpenFOAM.org                      |
|    \\/     M anipulation  |                                                 |
\*---------------------------------------------------------------------------*/
FoamFile
{
    version     2.0;
    format      ascii;
    class       volScalarField;
    location    "1.1";
    object      T;
}
// * * * * * * * * * * * * * * * * * * * * * * * * * * * * * * * * * * * * * //

dimensions      [0 0 0 1 0 0 0];

internalField   nonuniform List<scalar> 
14161
(
0.999275
0.999344
0.99932
0.999282
0.99923
0.999169
0.999128
0.999105
0.999104
0.999124
0.999177
0.999294
0.999495
0.999808
1.00027
1.00091
1.00174
1.00281
1.00415
1.00583
1.00784
1.01021
1.01296
1.01611
1.01966
1.02368
1.02817
1.03303
1.03826
1.0439
1.04992
1.05622
1.06247
1.06895
1.07571
1.08259
1.08951
1.09661
1.10357
1.11058
1.11769
1.12477
1.13128
1.13722
1.14195
1.14837
1.15677
1.17092
1.18945
1.61498
2.44287
2.78983
2.89839
2.92864
2.89883
2.87036
2.84798
2.82783
2.81108
2.79598
2.78216
2.76772
2.75498
2.74246
2.72911
2.71584
2.70202
2.69119
2.67943
2.66751
2.65596
2.64506
2.63719
2.6272
2.61487
2.60439
2.59297
2.5831
2.57213
2.55702
2.54472
2.53059
2.51595
2.50226
2.48612
2.46905
2.45017
2.43217
2.41635
2.4061
2.39831
2.39906
2.39618
2.39704
2.40704
2.42737
2.46482
2.51967
2.59297
2.67316
2.73952
2.80989
2.87415
2.92626
2.9659
2.99889
3.02672
3.05065
3.06945
3.08219
3.08986
3.09573
3.10305
3.11353
3.12592
3.13858
3.15059
3.15917
3.16737
0.999274
0.999343
0.999319
0.999281
0.999228
0.999167
0.999126
0.999102
0.999101
0.999121
0.999173
0.999289
0.999491
0.999804
1.00026
1.00089
1.00173
1.0028
1.00414
1.0058
1.00781
1.01019
1.01295
1.01609
1.01964
1.02365
1.02812
1.03299
1.03823
1.04386
1.04987
1.05618
1.06247
1.06893
1.07566
1.08255
1.0895
1.09662
1.10356
1.11053
1.11759
1.12471
1.13127
1.1372
1.1418
1.1484
1.1566
1.16778
1.17531
1.57378
2.40591
2.7544
2.85773
2.88503
2.8602
2.83745
2.81889
2.80229
2.78736
2.77382
2.76059
2.74715
2.73471
2.72349
2.71131
2.69931
2.6868
2.67682
2.66639
2.65543
2.64446
2.63415
2.62582
2.61596
2.60427
2.59371
2.58205
2.57086
2.559
2.54334
2.52981
2.51539
2.49899
2.4835
2.46967
2.45774
2.44644
2.43468
2.42219
2.41416
2.40722
2.4098
2.4184
2.43325
2.4615
2.50716
2.57192
2.65144
2.73213
2.80863
2.87051
2.91936
2.95682
2.98638
3.01013
3.03269
3.05307
3.07135
3.08601
3.09587
3.10113
3.10542
3.11145
3.12076
3.13197
3.14301
3.15232
3.1584
3.16637
0.999272
0.999341
0.999316
0.999277
0.999225
0.999165
0.999122
0.999096
0.999094
0.999113
0.999163
0.999277
0.999477
0.999788
1.00024
1.00086
1.0017
1.00277
1.00411
1.00575
1.00775
1.01012
1.01287
1.016
1.01955
1.02354
1.02799
1.03286
1.03809
1.04369
1.04968
1.056
1.06235
1.06877
1.07546
1.08236
1.08934
1.09636
1.1034
1.11035
1.11737
1.1245
1.13107
1.13703
1.14192
1.14923
1.1577
1.1681
1.16637
1.53902
2.38116
2.72919
2.83024
2.85633
2.83595
2.8157
2.79779
2.7828
2.76929
2.75623
2.74333
2.73114
2.71973
2.70939
2.69877
2.68817
2.67773
2.66918
2.65942
2.64954
2.63878
2.62927
2.62066
2.61009
2.59859
2.58723
2.57568
2.56479
2.55254
2.53635
2.52205
2.50689
2.49041
2.47566
2.4621
2.45024
2.44083
2.43404
2.42897
2.42568
2.42813
2.4401
2.45908
2.48634
2.5304
2.58943
2.66609
2.74689
2.82911
2.9129
2.97489
3.00861
3.02671
3.04078
3.05309
3.0667
3.08035
3.0932
3.10333
3.10958
3.11235
3.1148
3.11882
3.12584
3.13456
3.14288
3.15014
3.15429
3.16103
0.999268
0.999337
0.999312
0.999272
0.999222
0.99916
0.999115
0.999086
0.999081
0.999098
0.999146
0.999255
0.999453
0.999759
1.0002
1.00081
1.00165
1.00271
1.00403
1.00565
1.00764
1.01
1.01273
1.01585
1.0194
1.02336
1.02777
1.03263
1.03785
1.04337
1.04931
1.05563
1.06212
1.06849
1.07513
1.082
1.08895
1.09592
1.10302
1.10999
1.11699
1.1241
1.13067
1.13665
1.14187
1.14944
1.15747
1.16863
1.17782
1.56066
2.39621
2.74196
2.83975
2.86603
2.84826
2.82816
2.81023
2.79507
2.78129
2.76764
2.75452
2.74202
2.72996
2.71858
2.7078
2.69692
2.68675
2.67752
2.66712
2.65663
2.64479
2.6352
2.62518
2.61306
2.60128
2.58866
2.57628
2.56467
2.55199
2.53666
2.52155
2.50719
2.49249
2.48013
2.46754
2.45693
2.44934
2.44351
2.44363
2.45116
2.46929
2.49977
2.5451
2.60499
2.67514
2.75605
2.83736
2.9222
2.98515
3.03551
3.07728
3.09866
3.1058
3.11011
3.11345
3.11776
3.12331
3.1287
3.13172
3.1319
3.13014
3.12845
3.12836
3.13159
3.13683
3.14214
3.14732
3.14943
3.15541
0.999263
0.999333
0.999307
0.999266
0.999216
0.999153
0.999102
0.99907
0.999061
0.999077
0.99912
0.999224
0.999412
0.999709
1.00014
1.00074
1.00156
1.00261
1.00391
1.00551
1.00747
1.0098
1.01249
1.0156
1.01911
1.02304
1.02741
1.03221
1.03741
1.04289
1.04877
1.05507
1.06162
1.06804
1.07456
1.08136
1.08827
1.0953
1.1024
1.10927
1.11627
1.12346
1.13006
1.13608
1.14147
1.14876
1.15661
1.16922
1.19923
1.61784
2.43438
2.77151
2.86744
2.89139
2.87517
2.85408
2.83657
2.8212
2.80691
2.79241
2.77843
2.76492
2.75155
2.73935
2.72749
2.71501
2.70154
2.68899
2.67652
2.66468
2.65209
2.64191
2.63154
2.61973
2.60858
2.59637
2.58267
2.57014
2.55545
2.54054
2.52478
2.51067
2.49664
2.48595
2.47493
2.46856
2.46493
2.4694
2.48415
2.50873
2.54814
2.60211
2.66752
2.7392
2.81816
2.90827
2.9853
3.03879
3.06971
3.09499
3.11977
3.13693
3.14763
3.15206
3.15332
3.15563
3.15823
3.15897
3.15679
3.15217
3.14589
3.14051
3.13708
3.13704
3.13898
3.14127
3.14426
3.14465
3.15003
0.999257
0.999327
0.999301
0.99926
0.999208
0.999143
0.999085
0.999049
0.999035
0.999047
0.999084
0.999179
0.999357
0.999641
1.00006
1.00065
1.00143
1.00245
1.00374
1.00533
1.00723
1.00951
1.01216
1.01523
1.01873
1.02262
1.0269
1.03163
1.03677
1.04222
1.04803
1.05427
1.06082
1.06739
1.07378
1.08045
1.08733
1.09449
1.10153
1.10829
1.11528
1.12249
1.12916
1.13523
1.14081
1.14791
1.15618
1.17145
1.22184
1.67942
2.46703
2.79268
2.88755
2.91858
2.90619
2.88237
2.86319
2.84766
2.83346
2.81852
2.80397
2.78853
2.77216
2.75603
2.74162
2.72704
2.7115
2.69668
2.68309
2.66987
2.65664
2.64453
2.63278
2.62101
2.60911
2.59604
2.58054
2.56604
2.54834
2.53253
2.51824
2.50851
2.50051
2.4936
2.48754
2.49042
2.50111
2.52236
2.5578
2.61025
2.67558
2.7464
2.8204
2.90133
2.98292
3.04115
3.07651
3.09966
3.11577
3.13337
3.14955
3.16255
3.17295
3.17803
3.18094
3.18367
3.18528
3.18423
3.17986
3.17175
3.16124
3.15195
3.14523
3.14211
3.14098
3.14068
3.1414
3.14028
3.1449
0.99925
0.99932
0.999294
0.999252
0.999197
0.999129
0.999064
0.999024
0.999002
0.999009
0.999038
0.999122
0.999285
0.999555
0.999956
1.00052
1.00127
1.00224
1.00351
1.00506
1.00693
1.00914
1.01174
1.01472
1.01819
1.02204
1.02623
1.03084
1.0359
1.04132
1.04705
1.05321
1.05973
1.06641
1.07276
1.07932
1.08613
1.09327
1.10036
1.10711
1.11407
1.12107
1.12801
1.13413
1.13979
1.14675
1.15551
1.17437
1.24158
1.7395
2.49611
2.81387
2.90523
2.94228
2.93514
2.91294
2.89325
2.87477
2.8549
2.83383
2.81519
2.79638
2.77697
2.75784
2.74092
2.72465
2.70752
2.69142
2.67672
2.66356
2.65045
2.63716
2.62339
2.61076
2.59863
2.58598
2.5699
2.55392
2.53859
2.52685
2.51723
2.51066
2.50731
2.50861
2.51646
2.53297
2.56463
2.61326
2.67642
2.74735
2.82161
2.89949
2.97945
3.03724
3.07644
3.10269
3.11932
3.13206
3.14456
3.15792
3.16988
3.17991
3.18828
3.19493
3.19996
3.20313
3.2041
3.2023
3.19763
3.18847
3.17521
3.16238
3.15275
3.14685
3.14309
3.14028
3.13869
3.13632
3.14
0.999242
0.999312
0.999285
0.999243
0.999184
0.999113
0.999041
0.998992
0.99896
0.998959
0.998982
0.999051
0.999196
0.999444
0.99982
1.00035
1.00107
1.00201
1.00322
1.00473
1.00654
1.00868
1.0112
1.0141
1.01747
1.02127
1.02539
1.02988
1.0348
1.04014
1.04581
1.05183
1.05827
1.06497
1.07153
1.07795
1.08466
1.09165
1.09883
1.10568
1.11248
1.11937
1.1266
1.13299
1.13902
1.14642
1.156
1.1782
1.25974
1.79451
2.52424
2.83376
2.9208
2.95381
2.94372
2.92071
2.897
2.87438
2.85159
2.82677
2.80406
2.78225
2.76075
2.74001
2.72125
2.70424
2.68679
2.67017
2.65406
2.64045
2.62728
2.61143
2.59539
2.57913
2.56633
2.55372
2.54096
2.52948
2.5239
2.51903
2.51488
2.51957
2.52807
2.54419
2.57184
2.61515
2.67267
2.74261
2.81716
2.89432
2.97185
3.03013
3.06871
3.09631
3.11719
3.1316
3.14249
3.15386
3.16519
3.17539
3.18484
3.19258
3.19924
3.20657
3.21201
3.21557
3.21671
3.21555
3.21077
3.20127
3.18669
3.17178
3.15988
3.15142
3.14499
3.13991
3.13617
3.13277
3.13528
0.999232
0.999302
0.999275
0.999231
0.99917
0.999095
0.999015
0.998954
0.998911
0.998898
0.998913
0.998965
0.999089
0.999311
0.999656
1.00015
1.00083
1.00172
1.00285
1.00431
1.00606
1.00812
1.01053
1.01335
1.01658
1.02029
1.02436
1.02872
1.03349
1.03868
1.04423
1.0501
1.05642
1.06308
1.06987
1.07637
1.08292
1.08977
1.09687
1.10385
1.11055
1.11757
1.1248
1.13153
1.1379
1.14555
1.15488
1.17718
1.26158
1.82012
2.53837
2.83876
2.92112
2.94852
2.9289
2.90343
2.87535
2.85147
2.82699
2.79963
2.77588
2.75207
2.72836
2.70509
2.68463
2.66613
2.64853
2.62896
2.61014
2.59451
2.5798
2.56327
2.54781
2.53374
2.52261
2.5158
2.51212
2.51029
2.51096
2.51761
2.52864
2.54551
2.57264
2.61453
2.66934
2.73406
2.80408
2.87692
2.95606
3.01563
3.05315
3.07923
3.09924
3.11708
3.13267
3.14405
3.15494
3.16551
3.17512
3.18394
3.19201
3.19927
3.20666
3.21374
3.21946
3.22331
3.22516
3.2245
3.21995
3.21047
3.19556
3.17985
3.1666
3.1559
3.14673
3.13932
3.1337
3.1294
3.13074
0.999221
0.999292
0.999263
0.999217
0.999153
0.999075
0.998988
0.99891
0.998856
0.998825
0.99883
0.998866
0.998964
0.999154
0.999459
0.999914
1.00054
1.00137
1.00243
1.00379
1.00548
1.00745
1.00975
1.01244
1.01552
1.01908
1.02306
1.02733
1.03189
1.0369
1.04231
1.04804
1.05417
1.06072
1.06756
1.07438
1.08087
1.08754
1.09453
1.10156
1.10841
1.11549
1.12269
1.13001
1.13715
1.14543
1.15585
1.17919
1.26211
1.81205
2.53205
2.83285
2.91907
2.94099
2.90906
2.87775
2.84333
2.816
2.78649
2.75378
2.72631
2.70021
2.6715
2.64663
2.62176
2.60236
2.58145
2.56339
2.5443
2.52925
2.51487
2.50326
2.49226
2.48465
2.48347
2.48504
2.49208
2.50474
2.51702
2.53684
2.56615
2.60541
2.65821
2.72106
2.78802
2.85381
2.93131
2.99142
3.03216
3.06014
3.07924
3.09459
3.10831
3.12161
3.13533
3.14776
3.16003
3.1707
3.17983
3.18786
3.1952
3.20265
3.21012
3.21719
3.22313
3.22808
3.23076
3.23064
3.22637
3.21698
3.2023
3.18661
3.17274
3.16016
3.14827
3.13845
3.13113
3.12589
3.12638
0.999208
0.99928
0.999249
0.999201
0.999134
0.999052
0.998957
0.998864
0.998792
0.998743
0.998728
0.998747
0.998815
0.998967
0.999228
0.999631
1.0002
1.00096
1.00194
1.00318
1.00476
1.00665
1.00882
1.01136
1.01427
1.01762
1.02147
1.02564
1.03001
1.0348
1.04001
1.04558
1.05145
1.05788
1.06467
1.07155
1.07839
1.08483
1.09174
1.09879
1.10579
1.11286
1.12039
1.12844
1.13636
1.14517
1.15604
1.17789
1.24974
1.77727
2.50862
2.81406
2.91117
2.92877
2.88146
2.84136
2.79954
2.76761
2.73173
2.69045
2.65806
2.62319
2.59201
2.56136
2.53867
2.51744
2.50147
2.48371
2.47055
2.45769
2.44937
2.44749
2.44799
2.45136
2.46258
2.47619
2.49555
2.51899
2.55375
2.59304
2.64598
2.70625
2.76877
2.83124
2.90573
2.963
3.00258
3.03284
3.05516
3.07108
3.08359
3.09667
3.10962
3.1213
3.13204
3.14327
3.15573
3.16777
3.17832
3.18698
3.195
3.20336
3.21167
3.21912
3.22504
3.23042
3.23339
3.23381
3.22996
3.22139
3.20766
3.19232
3.17774
3.16339
3.1491
3.13726
3.12857
3.12234
3.12243
0.999194
0.999266
0.999234
0.999183
0.999112
0.999023
0.998922
0.998816
0.998719
0.99865
0.998607
0.998607
0.998648
0.998757
0.998964
0.999306
0.999805
1.00049
1.00137
1.0025
1.00392
1.0057
1.00773
1.01009
1.01282
1.01594
1.01956
1.02359
1.02783
1.03233
1.03728
1.0426
1.04825
1.0544
1.06126
1.06815
1.07501
1.08144
1.08817
1.09522
1.10226
1.10954
1.11759
1.12685
1.13569
1.14557
1.1581
1.17827
1.23219
1.71796
2.46385
2.78871
2.89091
2.88978
2.82926
2.77638
2.72789
2.68624
2.63906
2.59117
2.55193
2.51566
2.48584
2.46462
2.44749
2.43152
2.42062
2.40684
2.40639
2.40195
2.40432
2.41511
2.42765
2.44678
2.46786
2.49882
2.5346
2.57897
2.63702
2.69675
2.75508
2.81395
2.88559
2.93875
2.97502
3.00329
3.02395
3.04131
3.05609
3.06747
3.07909
3.09168
3.1041
3.11547
3.12671
3.13898
3.15176
3.16447
3.17611
3.18571
3.19425
3.20302
3.21135
3.21868
3.22439
3.22984
3.2329
3.23391
3.23088
3.22351
3.21117
3.19646
3.18089
3.16486
3.14882
3.13561
3.12599
3.11896
3.11871
0.999178
0.999251
0.999217
0.999163
0.999086
0.998991
0.998881
0.998763
0.998644
0.998544
0.998473
0.998438
0.998453
0.998515
0.998663
0.998936
0.999346
0.999935
1.00071
1.00171
1.00297
1.00458
1.00648
1.00864
1.01116
1.01403
1.01733
1.02116
1.02529
1.02949
1.03411
1.03911
1.04444
1.05033
1.05721
1.06398
1.07075
1.07718
1.08353
1.09037
1.09732
1.10518
1.11398
1.12429
1.13403
1.14516
1.16008
1.18175
1.22733
1.63233
2.39874
2.75694
2.85123
2.82142
2.75155
2.68298
2.62577
2.57157
2.52142
2.47554
2.4418
2.41583
2.39384
2.38929
2.37397
2.36539
2.35896
2.35829
2.36665
2.37369
2.39279
2.41549
2.4478
2.48306
2.5248
2.57658
2.63527
2.69288
2.74932
2.81101
2.87731
2.92366
2.95565
2.97968
2.9969
3.00959
3.02165
3.03509
3.04904
3.06018
3.07098
3.08351
3.09587
3.10806
3.12063
3.13386
3.14665
3.15905
3.17073
3.18142
3.19091
3.20014
3.20828
3.21529
3.22049
3.22578
3.22882
3.23047
3.22845
3.22249
3.21168
3.19838
3.18242
3.16495
3.14768
3.13361
3.12335
3.11557
3.11497
0.99916
0.999234
0.999198
0.99914
0.999058
0.998955
0.998835
0.998702
0.998564
0.998432
0.998324
0.998247
0.998221
0.998244
0.998328
0.998518
0.998827
0.999306
0.999962
1.00082
1.00191
1.00329
1.00501
1.00699
1.00924
1.01185
1.0148
1.0183
1.02221
1.02627
1.03044
1.03501
1.03994
1.04555
1.0523
1.05884
1.06541
1.07177
1.07771
1.08417
1.09086
1.09906
1.1094
1.11965
1.12985
1.14246
1.15897
1.18477
1.27282
1.56755
2.27227
2.62889
2.70283
2.67015
2.60546
2.54044
2.48947
2.4405
2.40233
2.37398
2.3566
2.35257
2.33511
2.34449
2.32895
2.33143
2.32963
2.35037
2.36768
2.39872
2.43559
2.48121
2.53224
2.59121
2.647
2.70376
2.76028
2.82656
2.88288
2.92464
2.95325
2.97126
2.98211
2.98982
2.99693
3.00431
3.0133
3.02419
3.03856
3.05123
3.06296
3.07434
3.08692
3.10006
3.11397
3.12816
3.14193
3.15492
3.16712
3.17875
3.18875
3.19776
3.20521
3.21192
3.21665
3.22167
3.22438
3.22628
3.22518
3.22051
3.21109
3.19933
3.18306
3.1644
3.14607
3.13125
3.1205
3.11207
3.11118
0.999141
0.999215
0.999177
0.999115
0.999027
0.998914
0.998781
0.998634
0.998476
0.998314
0.998164
0.998039
0.997955
0.997925
0.99795
0.998036
0.998242
0.998603
0.999107
0.999809
1.00072
1.00186
1.00332
1.00509
1.00706
1.00935
1.01198
1.015
1.0186
1.02244
1.02621
1.03031
1.03475
1.03996
1.04636
1.05252
1.05875
1.06481
1.07008
1.07584
1.0828
1.09114
1.10186
1.11135
1.1214
1.13372
1.14989
1.18375
1.30904
1.62077
2.12876
2.43596
2.50517
2.50238
2.4613
2.41348
2.37568
2.34715
2.32607
2.32305
2.31693
2.32715
2.31204
2.32382
2.32379
2.34054
2.36379
2.40398
2.45199
2.50285
2.56006
2.61915
2.67974
2.73739
2.8023
2.86299
2.90907
2.94335
2.96569
2.97955
2.98609
2.98952
2.99036
2.99232
2.99497
2.99881
3.00556
3.0142
3.02777
3.04198
3.05402
3.0656
3.07809
3.09188
3.1063
3.12124
3.13599
3.14991
3.16297
3.1752
3.1853
3.19417
3.20134
3.20796
3.2123
3.21719
3.21963
3.22171
3.22142
3.21795
3.20966
3.19913
3.1826
3.16307
3.14397
3.12858
3.11746
3.10857
3.10748
0.999119
0.999195
0.999154
0.999087
0.998991
0.998868
0.998722
0.998556
0.998375
0.998185
0.997992
0.997812
0.997662
0.99756
0.997505
0.997508
0.997599
0.997815
0.998148
0.998669
0.999371
1.00028
1.00142
1.00291
1.00463
1.00657
1.0088
1.01133
1.01446
1.01795
1.02145
1.025
1.02887
1.0335
1.03929
1.0449
1.05056
1.05586
1.06044
1.0655
1.0725
1.08174
1.09003
1.09798
1.10734
1.11652
1.13142
1.17759
1.30908
1.69016
2.07272
2.30934
2.36459
2.38127
2.37754
2.36197
2.32548
2.32041
2.30849
2.32474
2.3238
2.33587
2.33583
2.35654
2.38707
2.4274
2.48912
2.54767
2.60858
2.67327
2.73123
2.79951
2.86128
2.90944
2.94917
2.97515
2.98931
2.99838
3.00113
3.0021
2.99924
2.9964
2.99357
2.99214
2.99273
2.99499
2.99983
3.00708
3.01883
3.03241
3.04558
3.05776
3.07017
3.0839
3.09868
3.11403
3.12945
3.14431
3.15828
3.17106
3.18147
3.19048
3.19737
3.20354
3.2073
3.2119
3.2141
3.21636
3.21685
3.21456
3.20715
3.19755
3.18095
3.16098
3.14138
3.12552
3.11404
3.10494
3.10351
0.999095
0.999172
0.999128
0.999056
0.998952
0.998817
0.998656
0.99847
0.998263
0.998041
0.997807
0.997571
0.997347
0.997156
0.997008
0.996898
0.99688
0.996938
0.997092
0.997397
0.997873
0.998506
0.999331
1.00047
1.00187
1.00342
1.00521
1.00727
1.00977
1.01283
1.01597
1.01894
1.02216
1.02609
1.03091
1.0359
1.04077
1.04516
1.04912
1.05425
1.06047
1.06772
1.07402
1.08056
1.08727
1.09638
1.11507
1.18783
1.36156
1.82052
2.14927
2.27517
2.3162
2.33451
2.34914
2.37477
2.34279
2.36266
2.33379
2.35739
2.36157
2.3955
2.43124
2.47704
2.53869
2.60908
2.6778
2.74031
2.81088
2.8735
2.92318
2.96536
2.99237
3.00619
3.01614
3.02087
3.01923
3.0167
3.01298
3.00795
3.00351
2.99936
2.99606
2.99367
2.99299
2.99423
2.99754
3.00323
3.01191
3.02355
3.03683
3.04961
3.06207
3.07548
3.09043
3.10593
3.12174
3.13733
3.15208
3.16548
3.17663
3.18649
3.19332
3.199
3.20207
3.20629
3.20839
3.21085
3.21191
3.21072
3.20399
3.19509
3.17841
3.15822
3.13832
3.12204
3.11027
3.10112
3.0996
0.999069
0.999147
0.9991
0.999022
0.998909
0.998762
0.998583
0.998374
0.998138
0.99788
0.997603
0.997309
0.997013
0.996721
0.996466
0.99622
0.996047
0.995951
0.995934
0.996004
0.996194
0.996534
0.997046
0.997776
0.998731
0.999905
1.00123
1.00278
1.00464
1.00706
1.00969
1.01216
1.01476
1.01783
1.02131
1.02554
1.02954
1.03315
1.0366
1.04082
1.04556
1.05012
1.05474
1.05905
1.06357
1.07242
1.09991
1.2067
1.51352
1.97709
2.18072
2.24029
2.23587
2.22859
2.22282
2.22364
2.22
2.27459
2.31041
2.38725
2.44292
2.52692
2.59808
2.68111
2.74712
2.8269
2.89249
2.94515
2.98598
3.01204
3.02634
3.03673
3.04141
3.04093
3.03764
3.03489
3.02935
3.02096
3.01447
3.00758
3.00198
2.99753
2.99442
2.99231
2.99162
2.99251
2.99537
3.00034
3.00733
3.01692
3.0291
3.04171
3.05423
3.06733
3.08187
3.09758
3.11372
3.12969
3.14508
3.15919
3.17116
3.18176
3.1888
3.19428
3.19674
3.20054
3.20256
3.20514
3.20651
3.20627
3.2001
3.19173
3.17504
3.15488
3.13481
3.11827
3.1062
3.09724
3.09538
0.999041
0.99912
0.99907
0.998984
0.998862
0.998701
0.998503
0.998269
0.998001
0.997701
0.997374
0.997021
0.996646
0.996255
0.995876
0.995493
0.995148
0.994849
0.994609
0.994436
0.994357
0.994378
0.99453
0.994833
0.995281
0.995993
0.996825
0.997841
0.999062
1.00058
1.00251
1.0045
1.00642
1.00854
1.01103
1.01389
1.017
1.01986
1.02245
1.02536
1.02803
1.03093
1.03348
1.03533
1.03929
1.04839
1.0919
1.2224
1.68712
2.04628
2.16563
2.19621
2.17826
2.16182
2.16582
2.16608
2.23278
2.32503
2.44574
2.54799
2.65452
2.76239
2.84858
2.9184
2.97198
3.00821
3.03488
3.05006
3.05956
3.06285
3.06189
3.05968
3.05577
3.0476
3.04054
3.03301
3.02911
3.02117
3.01527
3.00839
3.00286
2.99817
2.99457
2.99215
2.99108
2.99097
2.99262
2.99666
3.00255
3.01061
3.02135
3.03361
3.04613
3.05907
3.07312
3.08863
3.10472
3.12084
3.1367
3.15153
3.16431
3.1755
3.18306
3.18891
3.19116
3.19461
3.19645
3.19895
3.20068
3.20124
3.19557
3.18764
3.17097
3.15097
3.13075
3.11413
3.10183
3.09308
3.09112
0.99901
0.999091
0.999036
0.998944
0.99881
0.998634
0.998416
0.998155
0.997851
0.997507
0.997124
0.996701
0.996242
0.99575
0.995248
0.994715
0.994179
0.993663
0.993179
0.992706
0.992307
0.99197
0.991725
0.9916
0.991623
0.991731
0.991958
0.992401
0.992974
0.993657
0.994654
0.995923
0.997172
0.998431
0.999888
1.00149
1.00336
1.00519
1.00679
1.00831
1.00983
1.01112
1.01201
1.01329
1.0176
1.03156
1.10072
1.27187
1.79972
2.0767
2.1508
2.17855
2.174
2.17138
2.20165
2.24722
2.36541
2.5193
2.66405
2.80532
2.93516
3.00648
3.04354
3.06551
3.07707
3.08367
3.0862
3.08557
3.08282
3.07883
3.06965
3.0621
3.05653
3.04925
3.04321
3.03528
3.03112
3.0237
3.01674
3.0101
3.00395
2.99879
2.99481
2.99199
2.99033
2.98958
2.99031
2.99377
2.9991
3.00623
3.01563
3.02707
3.03922
3.05191
3.06544
3.08019
3.09595
3.11204
3.12807
3.14331
3.15671
3.16844
3.17664
3.1831
3.18554
3.18869
3.19018
3.19249
3.19456
3.1958
3.19043
3.1828
3.16622
3.14644
3.12609
3.10979
3.0974
3.08884
3.08676
0.998976
0.999059
0.999
0.998901
0.998755
0.998562
0.998322
0.998031
0.99769
0.997296
0.996851
0.996354
0.995802
0.9952
0.99456
0.993863
0.993127
0.992397
0.991635
0.99084
0.990114
0.989395
0.988664
0.988049
0.987521
0.98706
0.98666
0.986393
0.986292
0.986281
0.98636
0.986639
0.987004
0.987436
0.987869
0.988362
0.988922
0.989599
0.990143
0.990639
0.991065
0.991353
0.992034
0.993533
0.9998
1.02432
1.13009
1.40247
1.87001
2.08253
2.14583
2.18614
2.1994
2.22678
2.27662
2.39727
2.54848
2.71473
2.89285
3.04185
3.09452
3.11136
3.114
3.11342
3.1109
3.10643
3.10157
3.09392
3.08681
3.08156
3.07381
3.06635
3.0596
3.05203
3.04537
3.0378
3.03173
3.0259
3.01863
3.0123
3.0058
3.00023
2.9956
2.9919
2.98929
2.98768
2.98718
2.98924
2.99366
3.00049
3.0096
3.0208
3.03284
3.04512
3.05779
3.07151
3.08665
3.10252
3.11851
3.13391
3.14784
3.16014
3.16906
3.17625
3.17933
3.18249
3.18385
3.18592
3.18809
3.18977
3.1846
3.17725
3.16087
3.14139
3.12091
3.10525
3.09291
3.08438
3.08216
0.99894
0.999025
0.998962
0.998853
0.998695
0.998485
0.99822
0.997898
0.997516
0.997069
0.996559
0.995978
0.995323
0.9946
0.993817
0.992938
0.991998
0.99103
0.989964
0.988826
0.987768
0.986611
0.985369
0.984239
0.983175
0.982035
0.980923
0.979956
0.979124
0.978209
0.977405
0.976759
0.976033
0.975287
0.974737
0.974183
0.97373
0.973446
0.972995
0.972141
0.971845
0.971567
0.971574
0.972784
0.980209
1.01734
1.15146
1.55324
1.92117
2.069
2.16184
2.20912
2.23305
2.28598
2.40165
2.5577
2.73017
2.92362
3.08222
3.12546
3.13652
3.13106
3.12663
3.12071
3.11441
3.10829
3.10312
3.09784
3.09161
3.08593
3.07817
3.07025
3.06239
3.05446
3.0472
3.04089
3.03315
3.02786
3.02055
3.01381
3.00708
3.00099
2.99581
2.99145
2.98817
2.98604
2.98481
2.98569
2.9888
2.99459
3.00301
3.01382
3.02578
3.03781
3.05013
3.06325
3.07767
3.09321
3.10912
3.12453
3.13881
3.1515
3.16103
3.16879
3.17264
3.17615
3.17771
3.17951
3.18141
3.18312
3.17811
3.17099
3.15504
3.13593
3.11545
3.10039
3.08826
3.0798
3.07756
0.998901
0.998988
0.99892
0.998803
0.998631
0.998402
0.998111
0.997755
0.997329
0.996826
0.996245
0.995576
0.994814
0.993963
0.993013
0.991943
0.990787
0.989564
0.988175
0.986684
0.985247
0.983627
0.981847
0.980157
0.978504
0.976635
0.974756
0.973089
0.971454
0.969658
0.967782
0.96605
0.964456
0.962538
0.96081
0.959215
0.958157
0.957025
0.95558
0.953462
0.952319
0.951655
0.951525
0.95361
0.9654
1.02089
1.20201
1.60234
1.90515
2.06986
2.17936
2.22883
2.27771
2.39323
2.55072
2.72641
2.9274
3.08313
3.12731
3.13036
3.12157
3.1173
3.11323
3.1102
3.1079
3.10519
3.10137
3.09646
3.09085
3.08532
3.07896
3.07211
3.06489
3.05761
3.05007
3.04494
3.03625
3.03135
3.02338
3.0153
3.00807
3.00137
2.99566
2.99079
2.98699
2.98438
2.98221
2.98195
2.98426
2.98916
2.9964
3.00611
3.01757
3.02946
3.04159
3.05433
3.06816
3.0832
3.09894
3.11437
3.12888
3.14184
3.15208
3.16049
3.16524
3.16939
3.17139
3.17302
3.17448
3.17592
3.17093
3.16406
3.14886
3.13012
3.10971
3.09534
3.08352
3.07509
3.07224
0.998859
0.998949
0.998876
0.998749
0.998562
0.998313
0.997995
0.997603
0.997129
0.996567
0.995911
0.995148
0.99427
0.993278
0.992157
0.990884
0.989501
0.987992
0.986271
0.984417
0.982555
0.980424
0.978094
0.975876
0.973577
0.970936
0.96824
0.965827
0.96333
0.960549
0.957601
0.954732
0.95219
0.949534
0.946538
0.943858
0.942007
0.939923
0.937569
0.934662
0.933157
0.932547
0.932984
0.938115
0.95861
1.05573
1.26848
1.65691
1.93854
2.11205
2.2107
2.26197
2.3831
2.54063
2.72233
2.92713
3.0755
3.11926
3.11622
3.10613
3.09957
3.09511
3.09233
3.09032
3.08878
3.08847
3.0881
3.08706
3.08404
3.08107
3.07798
3.07385
3.06823
3.06149
3.05269
3.0472
3.03772
3.03304
3.02427
3.01618
3.00846
3.00125
2.99515
2.98976
2.98532
2.98202
2.97909
2.97785
2.9795
2.9839
2.99003
2.99825
3.00878
3.02063
3.03275
3.0453
3.05869
3.07317
3.08855
3.10384
3.11842
3.13158
3.14251
3.1516
3.15734
3.16217
3.16467
3.16635
3.16748
3.16842
3.16333
3.15641
3.14228
3.12387
3.10386
3.0902
3.07871
3.07006
3.06697
0.998815
0.998907
0.998828
0.998692
0.99849
0.998218
0.997871
0.99744
0.996917
0.996292
0.995555
0.994693
0.993694
0.992559
0.991253
0.989766
0.988136
0.986319
0.984251
0.98203
0.979695
0.977005
0.974153
0.971399
0.968371
0.964931
0.961399
0.95814
0.954827
0.950998
0.946833
0.942936
0.939194
0.935847
0.932319
0.928411
0.925112
0.921688
0.917997
0.914494
0.912593
0.91142
0.911617
0.916248
0.953123
1.05863
1.43091
1.70907
1.96458
2.1516
2.24468
2.35888
2.52505
2.71197
2.92488
3.06496
3.1047
3.09655
3.08756
3.08112
3.07594
3.07284
3.07139
3.07082
3.07037
3.07025
3.07152
3.07343
3.07293
3.07241
3.07157
3.06857
3.06455
3.06022
3.05253
3.04777
3.03912
3.03495
3.02575
3.01814
3.009
3.00063
2.99386
2.98791
2.98299
2.97913
2.9758
2.97357
2.9743
2.97798
2.98357
2.99064
2.99993
3.01125
3.02347
3.036
3.04913
3.06312
3.07794
3.09297
3.10761
3.12099
3.13259
3.14229
3.14902
3.15445
3.15754
3.15947
3.16038
3.1608
3.15551
3.14813
3.13538
3.1172
3.09795
3.08501
3.07369
3.06471
3.0606
0.998767
0.998862
0.998778
0.998631
0.998412
0.998118
0.99774
0.997268
0.996692
0.996
0.99518
0.994212
0.993087
0.991794
0.990299
0.988593
0.986706
0.984552
0.982123
0.979549
0.976681
0.973427
0.97007
0.966704
0.962881
0.958644
0.954219
0.949921
0.945879
0.941213
0.935779
0.930715
0.925769
0.921194
0.917082
0.912814
0.907956
0.903049
0.897981
0.894338
0.892639
0.891746
0.89449
0.910828
0.968481
1.11571
1.64196
1.71369
2.03753
2.20636
2.31989
2.49798
2.69343
2.91827
3.05315
3.08909
3.07584
3.06751
3.06096
3.05614
3.05294
3.05113
3.05048
3.05086
3.05188
3.05303
3.05444
3.05788
3.05944
3.0601
3.06123
3.05976
3.05709
3.05499
3.04902
3.04516
3.03777
3.03451
3.02601
3.01925
3.00918
3.00025
2.99197
2.9852
2.97991
2.97573
2.97213
2.96896
2.96841
2.97113
2.97639
2.98297
2.99123
3.00161
3.0136
3.02622
3.03922
3.05283
3.06715
3.08183
3.09644
3.11006
3.12228
3.13249
3.14011
3.14621
3.14997
3.15223
3.15303
3.15309
3.1477
3.13955
3.12793
3.1103
3.09212
3.07943
3.06809
3.05865
3.05442
0.998717
0.998815
0.998725
0.998566
0.998331
0.998012
0.997601
0.997086
0.996455
0.995693
0.994783
0.993708
0.992449
0.990993
0.989298
0.987361
0.985197
0.982702
0.979901
0.976944
0.973547
0.96975
0.965733
0.961709
0.957161
0.952107
0.946775
0.941313
0.936412
0.930904
0.92463
0.918244
0.912037
0.906011
0.900882
0.896756
0.890942
0.883364
0.877287
0.873271
0.870774
0.869062
0.869086
0.900989
0.938749
1.34205
1.45723
1.8641
2.15481
2.30329
2.47495
2.68015
2.91276
3.04443
3.07729
3.06054
3.05089
3.04309
3.03756
3.0338
3.03141
3.03007
3.02981
3.03066
3.03257
3.03517
3.03695
3.04028
3.04425
3.04557
3.04836
3.04819
3.04739
3.04813
3.04352
3.04031
3.03439
3.03217
3.02443
3.01891
3.00984
3.00201
2.99173
2.9831
2.9764
2.97143
2.96753
2.96377
2.96194
2.96358
2.96832
2.97469
2.98252
2.99209
3.00347
3.01606
3.02903
3.04241
3.05632
3.07067
3.08518
3.09894
3.11159
3.12218
3.13058
3.13731
3.14179
3.14451
3.14546
3.14543
3.13993
3.13085
3.11995
3.10309
3.08608
3.07329
3.06184
3.05268
3.04798
0.998665
0.998766
0.998669
0.998498
0.998244
0.9979
0.997455
0.996895
0.996206
0.99537
0.994369
0.993178
0.991781
0.990151
0.988251
0.98608
0.983621
0.980786
0.977604
0.974192
0.970296
0.965955
0.96122
0.95641
0.95121
0.94539
0.939112
0.932525
0.926419
0.92012
0.913207
0.905457
0.897922
0.89065
0.88429
0.879382
0.872518
0.863458
0.856934
0.853924
0.852313
0.854671
0.870356
0.930822
1.00114
1.54167
1.54513
2.076
2.32207
2.45663
2.66671
2.90268
3.03679
3.06731
3.04915
3.03838
3.02998
3.02302
3.01797
3.01473
3.01284
3.01189
3.01166
3.01258
3.0145
3.01808
3.02008
3.02281
3.02784
3.03066
3.03423
3.03532
3.03598
3.03946
3.03682
3.03371
3.02877
3.02749
3.02074
3.01596
3.00765
3.00256
2.99228
2.98282
2.97394
2.96741
2.96263
2.9581
2.95514
2.95553
2.95959
2.96568
2.97324
2.98249
2.99331
3.00548
3.0184
3.03168
3.04537
3.05948
3.07393
3.08772
3.10048
3.11136
3.12048
3.12778
3.13306
3.13619
3.13757
3.1375
3.13168
3.12221
3.11186
3.09561
3.07944
3.06649
3.05517
3.04646
3.04218
0.998611
0.998714
0.99861
0.998427
0.998154
0.997783
0.997302
0.996695
0.995945
0.995033
0.993935
0.992627
0.991083
0.989274
0.987165
0.984744
0.981976
0.978811
0.975246
0.971295
0.966928
0.962047
0.956624
0.95093
0.94504
0.938438
0.931144
0.923511
0.916419
0.909097
0.901
0.892016
0.883285
0.874938
0.867764
0.860521
0.852089
0.842425
0.835107
0.830714
0.827837
0.82659
0.863552
0.872241
1.30924
1.31492
1.95997
2.30602
2.43724
2.64932
2.88802
3.02161
3.05246
3.03418
3.02468
3.01632
3.00916
3.00388
3.00042
2.99829
2.9971
2.99641
2.99598
2.9964
2.99779
3.0012
3.00409
3.00646
3.01141
3.01557
3.01884
3.02213
3.02364
3.02796
3.02831
3.02531
3.02121
3.02122
3.01582
3.01161
3.00371
3.00069
2.99179
2.98426
2.9737
2.96447
2.95805
2.95239
2.94818
2.94712
2.95011
2.95593
2.96321
2.97222
2.98281
2.99469
3.00737
3.02068
3.03433
3.04835
3.06276
3.07649
3.08919
3.10016
3.10983
3.11757
3.12366
3.12723
3.12929
3.12931
3.12338
3.11395
3.10393
3.08781
3.07208
3.05911
3.04824
3.04013
3.0365
0.998553
0.99866
0.998548
0.998352
0.99806
0.997661
0.997142
0.996486
0.995674
0.994682
0.993484
0.992054
0.990363
0.988371
0.986048
0.983375
0.980292
0.976789
0.972831
0.968357
0.96348
0.958047
0.951941
0.945418
0.938771
0.931335
0.923051
0.9144
0.90631
0.897844
0.888224
0.877992
0.86814
0.858714
0.851626
0.841856
0.829475
0.819082
0.812772
0.808978
0.807787
0.821729
0.885819
0.952514
1.37292
1.71057
2.25702
2.42147
2.65095
2.8959
3.02284
3.04931
3.02641
3.01546
3.00626
2.9987
2.99269
2.98841
2.98563
2.98386
2.98281
2.98225
2.98204
2.98226
2.98336
2.98604
2.98983
2.9918
2.99552
3.00092
3.00383
3.00855
3.01
3.01389
3.01816
3.01541
3.01221
3.01399
3.00998
3.00634
2.99887
2.99644
2.98832
2.98356
2.97422
2.96392
2.95489
2.94755
2.94187
2.93927
2.94078
2.94575
2.95264
2.96138
2.97178
2.98349
2.99612
3.00952
3.02317
3.03719
3.05143
3.06522
3.07787
3.08886
3.09883
3.1069
3.11389
3.11798
3.121
3.12085
3.11495
3.10543
3.09547
3.07963
3.06424
3.05154
3.04136
3.03392
3.03105
0.998493
0.998603
0.998483
0.998274
0.997961
0.997534
0.996976
0.99627
0.995393
0.99432
0.993022
0.991468
0.989625
0.98745
0.984912
0.981979
0.978587
0.974732