/*--------------------------------*- C++ -*----------------------------------*\
| =========                 |                                                 |
| \\      /  F ield         | OpenFOAM: The Open Source CFD Toolbox           |
|  \\    /   O peration     | Version:  2.2.x                                 |
|   \\  /    A nd           | Web:      www.OpenFOAM.org                      |
|    \\/     M anipulation  |                                                 |
\*---------------------------------------------------------------------------*/
FoamFile
{
    version     2.0;
    format      ascii;
    class       surfaceScalarField;
    location    "2.45";
    object      phi;
}
// * * * * * * * * * * * * * * * * * * * * * * * * * * * * * * * * * * * * * //

dimensions      [1 0 -1 0 0 0 0];

internalField   nonuniform List<scalar> 
28084
(
0.000746227
0.000742994
0.000740214
0.000737874
0.000735968
0.000734465
0.000733314
0.000732509
0.000732043
0.000731881
0.000731967
0.00073231
0.000732862
0.000733594
0.000734507
0.000735553
0.00073669
0.00073792
0.000739214
0.000740551
0.000741912
0.000743274
0.000744618
0.00074593
0.000747196
0.0007484
0.000749549
0.000750609
0.000751574
0.000752445
0.000753198
0.000753827
0.000754341
0.000754674
0.000754941
0.000755136
0.000755121
0.000754914
0.000754538
0.000753997
0.000753516
0.00075301
0.000751843
0.000739709
0.000732192
0.000754895
0.000781182
0.000809208
0.000835689
0.000861311
0.00088648
0.000911709
0.000936435
0.000959852
0.000982365
0.00100367
0.00102336
0.00104168
0.00105861
0.00107426
0.00108896
0.0011029
0.00111629
0.00112875
0.00114012
0.0011501
0.00115893
0.00116688
0.00117382
0.00117988
0.00118531
0.00119032
0.00119438
0.00119732
0.00119942
0.00120023
0.00120011
0.00119979
0.00119919
0.00119799
0.00119652
0.00119484
0.00119288
0.00119077
0.00118801
0.00118451
0.00118045
0.00117494
0.00116876
0.00116352
0.00115742
0.00115107
0.00114507
0.00113942
0.00113434
0.00112976
0.00112661
0.00112461
0.00112509
0.00112669
0.00112942
0.00113335
0.00113595
0.00114156
0.00114777
0.00115765
0.00117343
0.00119885
0.00122933
0.00127993
0.00131182
0.00126318
0.00117102
0.00107476
0.000959926
0.000824848
0.000644051
0.000386753
3.71117e-06
3.23557e-06
0.00074975
2.78252e-06
0.000748794
2.34264e-06
0.00074828
1.90813e-06
0.000748178
1.50457e-06
0.000748448
1.15356e-06
0.000749079
8.07406e-07
0.000750103
4.69316e-07
0.000751459
1.63629e-07
0.000753072
-8.49931e-08
0.000754945
-3.37215e-07
0.000757096
-5.51614e-07
0.00075946
-7.42428e-07
0.000761982
-9.0012e-07
0.000764657
-1.03438e-06
0.000767475
-1.14565e-06
0.000770378
-1.23455e-06
0.000773334
-1.29693e-06
0.00077633
-1.33949e-06
0.000779343
-1.35866e-06
0.000782352
-1.36104e-06
0.000785337
-1.34836e-06
0.00078827
-1.31914e-06
0.00079113
-1.26898e-06
0.0007939
-1.20481e-06
0.000796571
-1.1477e-06
0.00079913
-1.05481e-06
0.000801541
-9.59819e-07
0.000803838
-8.60016e-07
0.000805985
-7.53809e-07
0.000807963
-6.32807e-07
0.000809766
-5.0869e-07
0.000811421
-3.74818e-07
0.000812881
-2.69878e-07
0.000814143
-1.52707e-07
0.000815198
1.88009e-08
0.000816035
1.82841e-07
0.000816751
3.11009e-07
0.000817319
4.69555e-07
0.000817599
5.67564e-07
0.000817667
7.58577e-07
0.000817729
1.20065e-06
0.000817815
9.70981e-06
0.000817386
5.35304e-06
0.000819797
-2.25371e-05
0.000828975
-2.56167e-05
0.000850315
-2.72117e-05
0.000873532
-2.54599e-05
0.000898046
-2.47471e-05
0.000922476
-2.42265e-05
0.000947123
-2.41755e-05
0.000971454
-2.38126e-05
0.000995553
-2.28681e-05
0.00101975
-2.21582e-05
0.00104286
-2.10569e-05
0.00106484
-1.9524e-05
0.00108564
-1.80686e-05
0.00110477
-1.66207e-05
0.00112229
-1.54942e-05
0.00113881
-1.47371e-05
0.00115421
-1.3901e-05
0.00116815
-1.31071e-05
0.00118108
-1.22612e-05
0.00119319
-1.14216e-05
0.00120427
-1.04849e-05
0.00121433
-9.49294e-06
0.00122318
-8.7092e-06
0.00123108
-7.64471e-06
0.0012383
-6.66613e-06
0.00124475
-5.92268e-06
0.00125053
-5.32592e-06
0.00125592
-4.38639e-06
0.00126095
-3.34735e-06
0.00126477
-2.62615e-06
0.00126722
-1.54493e-06
0.00126863
-6.40009e-07
0.00126915
-3.57812e-07
0.00126882
-2.21343e-07
0.00126798
6.70814e-07
0.00126681
1.36924e-06
0.0012648
2.0139e-06
0.00126197
2.67918e-06
0.0012587
3.00902e-06
0.00125463
3.71327e-06
0.00125007
4.36842e-06
0.00124483
5.20176e-06
0.00123916
6.09435e-06
0.00123297
6.06897e-06
0.00122621
4.75849e-06
0.0012193
4.8262e-06
0.00121284
5.09027e-06
0.00120607
4.8222e-06
0.00119926
4.80516e-06
0.00119277
4.2494e-06
0.00118683
3.8959e-06
0.00118165
2.88392e-06
0.00117744
2.35217e-06
0.00117405
-2.3234e-07
0.00117223
-1.40138e-06
0.00117319
-2.95478e-06
0.00117522
-4.11765e-06
0.0011777
-3.79267e-06
0.001181
-5.25976e-06
0.00118351
-6.04517e-06
0.0011838
-1.05829e-05
0.001189
-1.66468e-05
0.00119993
-2.60369e-05
0.00121702
-3.00609e-05
0.00124377
-4.97111e-05
0.0012827
-2.92395e-05
0.00121278
4.88265e-05
0.00104247
9.34149e-05
0.000851334
9.66375e-05
0.00070436
0.000114812
0.000602167
0.000135234
0.000512731
0.000181365
0.000422124
0.000257481
0.000318615
0.000386188
0.000222291
5.10237e-06
4.19423e-06
0.000754444
3.30029e-06
0.00075574
2.44892e-06
0.000757435
1.64074e-06
0.000759519
8.76011e-07
0.000761982
1.30391e-07
0.000764804
-5.47154e-07
0.000767913
-1.14036e-06
0.00077131
-1.70863e-06
0.000775032
-2.23508e-06
0.000779002
-2.69402e-06
0.000783139
-3.07287e-06
0.000787449
-3.42032e-06
0.000791944
-3.70196e-06
0.000796555
-3.93068e-06
0.000801237
-4.1122e-06
0.000805978
-4.23964e-06
0.000810739
-4.31751e-06
0.000815491
-4.35107e-06
0.00082021
-4.33918e-06
0.000824877
-4.29038e-06
0.000829468
-4.21059e-06
0.000833954
-4.09789e-06
0.000838312
-3.93883e-06
0.000842524
-3.76633e-06
0.000846586
-3.55681e-06
0.000850469
-3.34292e-06
0.000854181
-3.10008e-06
0.000857692
-2.83484e-06
0.000860995
-2.55805e-06
0.000864077
-2.27491e-06
0.000866936
-1.96915e-06
0.000869561
-1.65132e-06
0.000871936
-1.3414e-06
0.000874147
-1.01261e-06
0.000876109
-7.03195e-07
0.00087776
-3.82673e-07
0.000879156
-3.57074e-08
0.000880236
3.6651e-07
0.000881101
6.33025e-07
0.000881903
9.27551e-07
0.000882702
1.57259e-06
0.000883149
5.1886e-06
0.000883381
-6.3961e-06
0.000891913
-4.42253e-05
0.000906266
-4.85171e-05
0.000925568
-5.12614e-05
0.000945147
-4.94094e-05
0.000967881
-4.88461e-05
0.000993051
-4.80853e-05
0.00101745
-4.76988e-05
0.00104229
-4.7407e-05
0.00106643
-4.55359e-05
0.00109053
-4.40531e-05
0.00111383
-4.17029e-05
0.00113531
-3.88004e-05
0.00115561
-3.59549e-05
0.00117455
-3.29386e-05
0.00119179
-3.03553e-05
0.00120669
-2.88074e-05
0.00122029
-2.70831e-05
0.00123324
-2.53644e-05
0.00124602
-2.34519e-05
0.00125779
-2.16501e-05
0.00126821
-1.97948e-05
0.00127721
-1.78802e-05
0.00128517
-1.628e-05
0.00129208
-1.41612e-05
0.0012978
-1.23615e-05
0.00130232
-1.09579e-05
0.00130577
-9.83303e-06
0.00130875
-8.00097e-06
0.00131147
-5.97428e-06
0.00131305
-4.42559e-06
0.00131382
-2.5877e-06
0.00131401
-8.31095e-07
0.00131363
2.80037e-08
0.00131248
5.1351e-07
0.001311
2.30965e-06
0.00130957
3.95895e-06
0.00130761
5.12186e-06
0.00130459
6.54951e-06
0.00130137
7.17359e-06
0.00129712
8.57961e-06
0.00129207
9.7813e-06
0.00128611
1.13553e-05
0.0012793
1.27223e-05
0.00127153
1.26162e-05
0.00126332
1.05211e-05
0.00125496
1.05679e-05
0.00124693
1.08741e-05
0.00123911
1.03866e-05
0.00123131
1.02062e-05
0.00122391
9.17207e-06
0.00121701
8.09054e-06
0.00121088
6.87098e-06
0.00120574
5.40061e-06
0.00120057
6.74355e-08
0.00119679
-2.22517e-06
0.00119511
-4.91659e-06
0.00119469
-7.38589e-06
0.00119518
-6.69916e-06
0.00119709
-5.94334e-06
0.00119909
-1.1619e-05
0.00119925
-2.22335e-05
0.00120285
-3.44537e-05
0.00121079
-5.30373e-05
0.00122761
-6.81114e-05
0.00125352
2.15843e-05
0.00116241
0.000143098
0.000963328
0.000240571
0.000731509
0.000240595
0.000563022
0.000199128
0.000433469
0.00020483
0.000338577
0.000226812
0.000266577
0.00028582
0.000204807
0.000354147
0.000144192
0.000607939
9.32966e-05
4.21838e-06
2.89941e-06
0.000760317
1.60708e-06
0.000763831
3.66923e-07
0.000767728
-8.20141e-07
0.000771986
-1.94196e-06
0.000776568
-2.9756e-06
0.000781464
-3.94251e-06
0.000786708
-4.85907e-06
0.000792235
-5.6773e-06
0.000797961
-6.37264e-06
0.000803895
-6.99809e-06
0.000810061
-7.56594e-06
0.000816384
-8.03579e-06
0.000822783
-8.37936e-06
0.000829252
-8.66222e-06
0.000835804
-8.87407e-06
0.000842369
-8.99712e-06
0.000848903
-9.04406e-06
0.000855386
-9.01946e-06
0.000861784
-8.92698e-06
0.000868088
-8.77209e-06
0.000874265
-8.5709e-06
0.000880285
-8.31773e-06
0.000886122
-8.00485e-06
0.000891758
-7.65136e-06
0.00089719
-7.26826e-06
0.000902392
-6.85021e-06
0.000907353
-6.39626e-06
0.000912054
-5.91659e-06
0.000916506
-5.41376e-06
0.000920689
-4.90075e-06
0.000924612
-4.36963e-06
0.000928232
-3.83759e-06
0.00093154
-3.28184e-06
0.000934532
-2.68236e-06
0.000937238
-2.10167e-06
0.000939707
-1.55191e-06
0.000941967
-1.00488e-06
0.000943776
-4.29038e-07
0.00094514
1.3828e-07
0.000946389
7.20906e-07
0.000947628
1.28438e-06
0.000948622
-4.99003e-06
0.00094893
-2.27614e-05
0.000944887
-6.38166e-05
0.000951739
-6.82735e-05
0.000973258
-7.41339e-05
0.000996779
-7.44997e-05
0.00102275
-7.31115e-05
0.00105173
-7.26697e-05
0.0010793
-7.16058e-05
0.00110682
-7.09469e-05
0.00113265
-6.81179e-05
0.00115821
-6.52831e-05
0.00118264
-6.19056e-05
0.00120515
-5.76416e-05
0.00122636
-5.30402e-05
0.00124513
-4.81644e-05
0.00126223
-4.4779e-05
0.00127712
-4.20272e-05
0.00129107
-3.93409e-05
0.00130411
-3.66944e-05
0.00131567
-3.37676e-05
0.00132647
-3.10215e-05
0.00133549
-2.79213e-05
0.00134341
-2.4933e-05
0.00135052
-2.23685e-05
0.00135683
-1.93162e-05
0.00136232
-1.65431e-05
0.00136668
-1.45124e-05
0.00137002
-1.27814e-05
0.00137296
-1.00872e-05
0.00137563
-7.11571e-06
0.00137717
-4.84259e-06
0.00137768
-2.30659e-06
0.00137742
4.23414e-07
0.001377
1.94435e-06
0.00137586
2.44436e-06
0.00137299
4.91175e-06
0.00137005
7.71483e-06
0.00136636
9.16284e-06
0.00136129
1.13306e-05
0.00135541
1.23533e-05
0.00134884
1.43204e-05
0.0013416
1.60142e-05
0.00133411
1.83059e-05
0.00132636
2.01289e-05
0.00131818
2.01928e-05
0.00130954
1.7648e-05
0.00130071
1.76304e-05
0.00129193
1.80191e-05
0.0012833
1.72416e-05
0.00127459
1.67515e-05
0.00126615
1.50725e-05
0.00125793
1.30934e-05
0.0012504
1.20945e-05
0.00124369
9.58352e-06
0.00123734
2.0326e-06
0.00123248
-1.50706e-06
0.0012301
-5.33212e-06
0.00122915
-9.26322e-06
0.00122932
-8.67811e-06
0.00123093
-5.95468e-06
0.00123057
-1.49733e-05
0.0012276
-3.03608e-05
0.00123133
-5.14492e-05
0.00124216
-7.83272e-05
0.00126039
2.44423e-05
0.0011408
0.000222431
0.000895803
0.000377012
0.000699081
0.00040998
0.000569187
0.000370465
0.000462336
0.000294524
0.000354241
0.000277716
0.000252586
0.000289669
0.000181119
0.000346851
0.000132383
0.000404804
8.70909e-05
0.00070083
5.22121e-05
1.08252e-06
-6.12725e-07
0.000767367
-2.2883e-06
0.000773067
-3.88811e-06
0.0007791
-5.39866e-06
0.000785468
-6.83529e-06
0.000792191
-8.21775e-06
0.000799226
-9.46789e-06
0.000806494
-1.05824e-05
0.000814002
-1.16085e-05
0.000821787
-1.25369e-05
0.000829768
-1.33178e-05
0.000837859
-1.39615e-05
0.00084606
-1.45064e-05
0.000854389
-1.4926e-05
0.000862771
-1.52222e-05
0.000871134
-1.54112e-05
0.00087948
-1.54853e-05
0.000887767
-1.54557e-05
0.000895955
-1.53246e-05
0.000904013
-1.50991e-05
0.000911925
-1.47865e-05
0.000919665
-1.44104e-05
0.000927198
-1.39624e-05
0.000934494
-1.34415e-05
0.000941536
-1.28549e-05
0.000948322
-1.22303e-05
0.000954825
-1.15493e-05
0.000961028
-1.08416e-05
0.000966929
-1.00947e-05
0.00097251
-9.31853e-06
0.000977753
-8.51685e-06
0.000982675
-7.69304e-06
0.000987229
-6.84345e-06
0.000991467
-5.99501e-06
0.000995423
-5.16472e-06
0.000998991
-4.28942e-06
0.00100216
-3.41045e-06
0.00100492
-2.53447e-06
0.00100733
-1.72171e-06
0.00100955
-8.73157e-07
0.00101148
5.34988e-08
0.00101317
9.32836e-07
0.00101463
-3.21248e-06
0.00101577
-3.17857e-05
0.00102254
-8.45729e-05
0.00103211
-9.07737e-05
0.00105172
-9.92673e-05
0.00107602
-0.00010262
0.00110312
-0.000100035
0.00113303
-9.98105e-05
0.00116105
-9.75124e-05
0.00118859
-9.61863e-05
0.00121402
-9.23913e-05
0.00123859
-8.73744e-05
0.00126153
-8.26945e-05
0.00128332
-7.6884e-05
0.00130399
-7.01434e-05
0.00132135
-6.32005e-05
0.00133715
-5.89488e-05
0.00135124
-5.51416e-05
0.00136454
-5.09452e-05
0.00137558
-4.74018e-05
0.00138572
-4.31445e-05
0.00139508
-3.93333e-05
0.00140296
-3.49158e-05
0.00140988
-3.07997e-05
0.00141501
-2.73891e-05
0.00141914
-2.33171e-05
0.00142302
-1.97929e-05
0.00142614
-1.72705e-05
0.00142869
-1.45053e-05
0.00143118
-1.12925e-05
0.00143311
-7.44373e-06
0.00143396
-4.29072e-06
0.00143434
-1.43487e-06
0.00143325
2.19007e-06
0.00143137
5.44536e-06
0.00142877
5.76894e-06
0.0014249
8.81946e-06
0.00142065
1.28083e-05
0.0014155
1.48558e-05
0.00140945
1.75941e-05
0.00140257
1.91086e-05
0.0013949
2.15577e-05
0.0013863
2.37212e-05
0.00137726
2.65461e-05
0.00136783
2.88146e-05
0.00135809
2.90469e-05
0.00134819
2.60747e-05
0.00133824
2.60818e-05
0.0013277
2.64332e-05
0.00131798
2.51668e-05
0.00130829
2.4223e-05
0.001299
2.17646e-05
0.00128994
1.91388e-05
0.00128154
1.81303e-05
0.00127393
1.46289e-05
0.00126684
4.58136e-06
0.00126051
-2.24605e-07
0.00125645
-5.05645e-06
0.00125368
-1.026e-05
0.00125288
-7.77239e-06
0.00124936
-2.50456e-06
0.00124684
-1.83643e-05
0.00124201
-4.12124e-05
0.0012464
-6.93899e-05
0.0012479
4.21003e-05
0.00110547
0.000270452
0.000812264
0.000419801
0.000600757
0.000507616
0.000480251
0.00051727
0.000410388
0.000478851
0.000359675
0.000396435
0.000303769
0.000349729
0.000230806
0.000338865
0.000167085
0.000391993
0.000120982
0.000439304
7.319e-05
0.000752622
3.99388e-05
-4.25994e-06
-6.30945e-06
0.000775608
-8.31687e-06
0.000783445
-1.02537e-05
0.000791615
-1.21193e-05
0.000800098
-1.38682e-05
0.000808857
-1.54834e-05
0.000817886
-1.69737e-05
0.000827223
-1.83642e-05
0.000836797
-1.95866e-05
0.000846522
-2.06266e-05
0.000856402
-2.15171e-05
0.00086646
-2.22878e-05
0.000876618
-2.2883e-05
0.000886791
-2.32899e-05
0.000896973
-2.35601e-05
0.000907151
-2.36957e-05
0.000917269
-2.36801e-05
0.000927282
-2.35276e-05
0.000937148
-2.32406e-05
0.000946838
-2.2834e-05
0.000956327
-2.23138e-05
0.000965595
-2.1709e-05
0.000974609
-2.10137e-05
0.00098334
-2.02294e-05
0.000991766
-1.93592e-05
0.00099988
-1.84331e-05
0.00100766
-1.74474e-05
0.00101507
-1.64128e-05
0.00102212
-1.53274e-05
0.00102883
-1.42304e-05
0.00103516
-1.30901e-05
0.00104109
-1.19429e-05
0.00104662
-1.0763e-05
0.00105172
-9.56527e-06
0.00105646
-8.34474e-06
0.00106075
-7.10949e-06
0.00106468
-5.93547e-06
0.0010683
-4.76584e-06
0.00107146
-3.62184e-06
0.00107413
-2.39237e-06
0.00107626
-1.1153e-06
0.00107824
-2.39638e-07
0.00108016
-1.22366e-05
0.00108174
-4.35282e-05
0.00108343
-0.000103782
0.00108191
-0.000114673
0.00109933
-0.000126103
0.00112691
-0.000131889
0.00115754
-0.00012772
0.00118968
-0.000127271
0.00121974
-0.000123171
0.00124868
-0.000120441
0.00127597
-0.000115423
0.001301
-0.000108683
0.00132382
-0.000103137
0.00134581
-9.42346e-05
0.00136505
-8.5441e-05
0.00138111
-7.7242e-05
0.00139834
-7.22757e-05
0.0014136
-6.63328e-05
0.0014267
-6.11764e-05
0.00143511
-5.70108e-05
0.00144529
-5.15647e-05
0.00145462
-4.69717e-05
0.00146172
-4.11779e-05
0.00146874
-3.59204e-05
0.00147451
-3.17442e-05
0.00147897
-2.66147e-05
0.00148274
-2.23435e-05
0.0014852
-1.91282e-05
0.00148714
-1.45291e-05
0.00148808
-1.10969e-05
0.00148877
-6.6405e-06
0.00148797
-2.11846e-06
0.00148642
1.12927e-06
0.00148368
5.47104e-06
0.00147979
1.02629e-05
0.0014755
1.06476e-05
0.00147048
1.44753e-05
0.00146375
1.91862e-05
0.00145768
2.20112e-05
0.00145106
2.54226e-05
0.00144318
2.75207e-05
0.00143445
3.02871e-05
0.00142458
3.28503e-05
0.00141405
3.5961e-05
0.00140298
3.84086e-05
0.00139157
3.86271e-05
0.00138034
3.60784e-05
0.00136897
3.58273e-05
0.00135715
3.59432e-05
0.00134677
3.40853e-05
0.00133661
3.27276e-05
0.00132679
2.95873e-05
0.00131695
2.62301e-05
0.00130771
2.48022e-05
0.00129937
2.11133e-05
0.00129146
8.57415e-06
0.00128448
2.28302e-06
0.00127923
-3.85431e-06
0.00127494
-7.1638e-06
0.00127223
-5.88994e-06
0.00126645
2.29542e-06
0.00125714
-2.2589e-05
0.0012605
-4.22114e-05
0.00125717
7.39492e-05
0.00110682
0.000336019
0.000828378
0.00048282
0.000641684
0.000541086
0.000499166
0.000578553
0.000396331
0.000568775
0.00033793
0.000534999
0.000298429
0.000469507
0.000257035
0.000413833
0.000201533
0.00038511
0.000147881
0.000439607
0.000111522
0.000472177
7.21751e-05
0.00079227
3.78636e-05
-1.17737e-05
-1.41443e-05
0.000785035
-1.64848e-05
0.000794972
-1.8734e-05
0.000805203
-2.08766e-05
0.000815727
-2.28943e-05
0.000826537
-2.48169e-05
0.00083762
-2.65451e-05
0.000848911
-2.80875e-05
0.000860397
-2.94631e-05
0.000872104
-3.0683e-05
0.00088396
-3.16736e-05
0.000895881
-3.24574e-05
0.000907853
-3.30616e-05
0.000919885
-3.34713e-05
0.000931901
-3.36665e-05
0.000943822
-3.37007e-05
0.000955663
-3.35489e-05
0.000967373
-3.32274e-05
0.000978886
-3.27443e-05
0.000990176
-3.21073e-05
0.00100122
-3.13274e-05
0.001012
-3.04371e-05
0.00102248
-2.94414e-05
0.00103262
-2.83426e-05
0.0010424
-2.71363e-05
0.00105182
-2.58521e-05
0.00106083
-2.45e-05
0.00106946
-2.31017e-05
0.00107766
-2.1644e-05
0.00108544
-2.01448e-05
0.00109279
-1.86183e-05
0.00109972
-1.70615e-05
0.00110618
-1.54856e-05
0.0011122
-1.38905e-05
0.00111778
-1.22954e-05
0.0011229
-1.07087e-05
0.00112754
-9.08838e-06
0.00113163
-7.44635e-06
0.00113542
-5.90518e-06
0.0011389
-4.39835e-06
0.00114182
-2.80267e-06
0.00114397
-1.59742e-06
0.00114588
-1.75043e-05
0.00114741
-4.54993e-05
0.00112614
-0.000120641
0.00109591
-0.000141662
0.00110851
-0.000155908
0.00114206
-0.000162834
0.0011814
-0.000157146
0.0012212
-0.000155665
0.00125854
-0.000150292
0.00129274
-0.000145124
0.00132807
-0.000138961
0.00135567
-0.000130339
0.00138536
-0.000123386
0.00140909
-0.000109405
0.00143089
-0.000100272
0.00145367
-9.09436e-05
0.00146653
-8.48913e-05
0.00148296
-7.47155e-05
0.00149561
-7.14692e-05
0.00150625
-6.63477e-05
0.00151603
-5.9507e-05
0.0015246
-5.42287e-05
0.00153259
-4.72068e-05
0.00154034
-4.0673e-05
0.00154636
-3.55099e-05
0.00155027
-2.90979e-05
0.00155347
-2.4132e-05
0.0015553
-1.96096e-05
0.0015556
-1.4106e-05
0.00155541
-9.80368e-06
0.00155473
-4.80125e-06
0.0015531
9.6597e-07
0.00155006
5.13479e-06
0.00154677
9.98989e-06
0.00154178
1.5672e-05
0.00153618
1.80162e-05
0.00153021
2.11493e-05
0.00152177
2.63953e-05
0.00151337
3.03562e-05
0.00150479
3.43168e-05
0.0014955
3.70995e-05
0.00148541
4.02395e-05
0.00147356
4.3219e-05
0.00146132
4.6717e-05
0.00144878
4.91854e-05
0.00143584
4.95089e-05
0.0014232
4.74501e-05
0.00141036
4.66474e-05
0.00139667
4.63161e-05
0.00138446
4.35067e-05
0.0013731
4.18069e-05
0.00136134
3.83291e-05
0.00135013
3.41214e-05
0.0013395
3.19573e-05
0.00132943
2.80085e-05
0.00131957
1.32259e-05
0.00131166
6.1156e-06
0.00130501
-1.29067e-06
0.0013008
-1.38452e-06
0.00129811
3.47679e-06
0.00129228
-1.20832e-06
0.00128665
-1.84646e-05
0.00127899
0.000109046
0.00112388
0.000352648
0.000811949
0.000522875
0.000588539
0.000625006
0.000477742
0.000644511
0.000397938
0.00063811
0.000328571
0.000609344
0.000286929
0.000576671
0.000256515
0.000525059
0.000222635
0.00046772
0.000181167
0.000421542
0.000134805
0.000478864
0.000100028
0.00050637
6.51263e-05
0.000830051
3.21798e-05
-2.14085e-05
-2.40784e-05
0.00079566
-2.67124e-05
0.000807643
-2.92555e-05
0.000819903
-3.16846e-05
0.000832433
-3.3974e-05
0.000845229
-3.61046e-05
0.000858269
-3.80284e-05
0.000871508
-3.97925e-05
0.000884958
-4.13142e-05
0.000898541
-4.25994e-05
0.000912235
-4.36474e-05
0.00092603
-4.4481e-05
0.000939858
-4.5066e-05
0.000953674
-4.54047e-05
0.000967449
-4.55032e-05
0.000981102
-4.53979e-05
0.000994633
-4.50689e-05
0.001008
-4.45308e-05
0.00102113
-4.37993e-05
0.00103399
-4.28909e-05
0.00104656
-4.18004e-05
0.0010588
-4.05749e-05
0.0010707
-3.92261e-05
0.00108223
-3.77593e-05
0.00109334
-3.61564e-05
0.00110402
-3.44776e-05
0.00111427
-3.27092e-05
0.00112406
-3.08681e-05
0.00113337
-2.89776e-05
0.00114222
-2.70487e-05
0.00115063
-2.50833e-05
0.00115851
-2.30786e-05
0.00116586
-2.10634e-05
0.00117273
-1.90227e-05
0.00117908
-1.69693e-05
0.0011849
-1.48994e-05
0.00119032
-1.28949e-05
0.00119528
-1.08747e-05
0.00119961
-8.79676e-06
0.0012032
-6.69258e-06
0.00120663
-4.81357e-06
0.00120967
-2.94699e-06
0.00121211
5.045e-07
0.00121328
-1.84459e-05
0.00119454
-0.000132575
0.00115012
-0.000174129
0.00115787
-0.000194286
0.00119545
-0.000201199
0.00124759
-0.000194273
0.00129891
-0.000189013
0.00134566
-0.000184657
0.001392
-0.00017353
0.00143138
-0.000169309
0.00146683
-0.000156245
0.00149835
-0.000145602
0.00152378
-0.000132556
0.00155311
-0.000113621
0.00157625
-0.000106336
0.0015903
-9.72583e-05
0.00160722
-8.62939e-05
0.00162503
-8.22761e-05
0.00164055
-7.53116e-05
0.00165469
-6.77519e-05
0.00166381
-6.18623e-05
0.00167504
-5.35197e-05
0.00168295
-4.52959e-05
0.00168633
-3.907e-05
0.00169019
-3.20066e-05
0.00169121
-2.49707e-05
0.00168993
-1.9165e-05
0.00168912
-1.27046e-05
0.0016871
-7.31844e-06
0.00168479
-1.24562e-06
0.00168158
4.85946e-06
0.00167793
1.06153e-05
0.00167359
1.58832e-05
0.00166769
2.18491e-05
0.00165991
2.68562e-05
0.00165047
2.98601e-05
0.00163971
3.53553e-05
0.00162733
4.01168e-05
0.00161487
4.47321e-05
0.00160043
4.86549e-05
0.00158502
5.18181e-05
0.00156997
5.51324e-05
0.00155387
5.90924e-05
0.00153719
6.14638e-05
0.00152012
6.20778e-05
0.00150281
6.09996e-05
0.00148567
5.9041e-05
0.00146926
5.79672e-05
0.00145222
5.53878e-05
0.00143652
5.30497e-05
0.00142138
4.85899e-05
0.00140674
4.36418e-05
0.00139338
4.10197e-05
0.00138145
3.62344e-05
0.00137004
1.91912e-05
0.00136112
1.04048e-05
0.00135244
1.83388e-06
0.00134656
4.67665e-06
0.00133829
9.25613e-06
0.00133285
6.51694e-06
0.00132569
0.000137379
0.00117702
0.00042195
0.000887168
0.000576403
0.000692863
0.000634072
0.00054311
0.000704939
0.000431797
0.000714189
0.000361569
0.000680807
0.000308871
0.000641155
0.00026684
0.000610796
0.000234793
0.000566569
0.000202317
0.000514182
0.00016649
0.000456397
0.00012699
0.000513739
9.2692e-05
0.000539216
5.80733e-05
0.00086224
2.79748e-05
-3.31177e-05
-3.60589e-05
0.000807491
-3.89699e-05
0.000821471
-4.17827e-05
0.000835712
-4.44783e-05
0.000850205
-4.7011e-05
0.000864919
-4.93402e-05
0.000879845
-5.14751e-05
0.000895008
-5.33759e-05
0.000910343
-5.50028e-05
0.000925782
-5.63893e-05
0.000941332
-5.74826e-05
0.000956928
-5.82887e-05
0.000972526
-5.88241e-05
0.000988098
-5.90724e-05
0.0010036
-5.90319e-05
0.00101894
-5.87419e-05
0.00103412
-5.81985e-05
0.00104911
-5.7404e-05
0.00106382
-5.63783e-05
0.00107821
-5.51494e-05
0.00109226
-5.37012e-05
0.00110594
-5.20889e-05
0.00111923
-5.03342e-05
0.0011321
-4.84444e-05
0.00114452
-4.64136e-05
0.00115645
-4.42661e-05
0.00116789
-4.2027e-05
0.00117883
-3.97125e-05
0.00118923
-3.73412e-05
0.00119911
-3.49023e-05
0.00120849
-3.24424e-05
0.00121734
-2.99471e-05
0.00122559
-2.7429e-05
0.00123334
-2.49043e-05
0.00124053
-2.24002e-05
0.00124715
-1.9838e-05
0.00125319
-1.72463e-05
0.00125876
-1.46078e-05
0.00126389
-1.20911e-05
0.00126857
-9.51212e-06
0.00127289
-7.24623e-06
0.00127663
-4.33932e-06
0.00127972
1.55314e-05
0.00128165
2.31803e-05
0.00125732
-0.000139081
0.00121248
-0.000210471
0.00123259
-0.000245817
0.0012813
-0.000251543
0.00134143
-0.000240895
0.00141017
-0.000233188
0.00147526
-0.000223339
0.00153816
-0.000209856
0.00159079
-0.000203116
0.00163769
-0.000184478
0.00167937
-0.000174456
0.00171282
-0.000156769
0.00174392
-0.000132359
0.00176219
-0.000122175
0.00178158
-0.000114532
0.0018015
-0.000101539
0.00181268
-9.53985e-05
0.00182822
-8.37439e-05
0.00183712
-7.8045e-05
0.00184552
-6.99228e-05
0.00185407
-5.87544e-05
0.00185684
-5.15667e-05
0.0018565
-4.29311e-05
0.00185654
-3.37821e-05
0.00185534
-2.58666e-05
0.00185466
-1.77746e-05
0.00185325
-1.03635e-05
0.00185079
-3.50253e-06
0.00184766
3.65405e-06
0.00184328
1.10018e-05
0.00183762
1.82465e-05
0.00182965
2.45895e-05
0.00182077
3.15421e-05
0.00181042
3.79158e-05
0.00179932
4.26053e-05
0.00178636
4.82815e-05
0.00177231
5.44956e-05
0.00175693
6.00698e-05
0.00173988
6.37908e-05
0.00172159
6.79192e-05
0.00170326
7.1817e-05
0.00168399
7.59619e-05
0.00166368
7.85412e-05
0.00164284
7.88382e-05
0.0016212
7.71068e-05
0.00159963
7.57777e-05
0.00157733
7.36805e-05
0.00155691
7.04639e-05
0.0015369
6.74658e-05
0.00151756
6.18211e-05
0.00149911
5.54224e-05
0.00148163
5.1863e-05
0.00146755
4.57499e-05
0.00145247
2.73952e-05
0.00143855
1.62439e-05
0.00142726
1.0314e-05
0.00141952
1.02248e-05
0.00141351
1.71566e-05
0.00140041
0.000156016
0.00124563
0.000428015
0.000929808
0.000616678
0.000673295
0.000726334
0.0005421
0.000745615
0.000444286
0.000775223
0.000362463
0.000767236
0.000311709
0.00072371
0.000272064
0.000674502
0.000237258
0.000643412
0.000207958
0.00060231
0.00017852
0.000553647
0.000147164
0.000490596
0.000112065
0.000548419
7.90659e-05
0.000569552
4.74559e-05
0.000890327
2.47574e-05
-4.6845e-05
-5.00354e-05
0.000820541
-5.32077e-05
0.000836463
-5.62731e-05
0.000852609
-5.91893e-05
0.000868986
-6.19348e-05
0.000885604
-6.44991e-05
0.00090244
-6.6806e-05
0.000919422
-6.88142e-05
0.00093654
-7.05496e-05
0.000953809
-7.19809e-05
0.000971161
-7.30876e-05
0.000988523
-7.38563e-05
0.00100585
-7.43061e-05
0.00102313
-7.4429e-05
0.00104031
-7.42165e-05
0.00105731
-7.37026e-05
0.00107409
-7.29029e-05
0.00109065
-7.18093e-05
0.00110689
-7.04446e-05
0.00112278
-6.88474e-05
0.00113828
-6.70009e-05
0.00115336
-6.49517e-05
0.001168
-6.27362e-05
0.00118218
-6.03712e-05
0.00119586
-5.78602e-05
0.00120901
-5.52092e-05
0.0012216
-5.24454e-05
0.00123365
-4.95882e-05
0.00124512
-4.66777e-05
0.00125601
-4.37147e-05
0.00126634
-4.07081e-05
0.0012761
-3.76799e-05
0.00128523
-3.46193e-05
0.00129375
-3.15601e-05
0.00130169
-2.84926e-05
0.00130908
-2.54294e-05
0.00131584
-2.23604e-05
0.001322
-1.92775e-05
0.00132756
-1.63031e-05
0.00133247
-1.31718e-05
0.00133675
-1.05351e-05
0.00134057
-6.50675e-06
0.00134364
3.61785e-05
0.00134676
6.57057e-05
0.00138093
-0.00015795
0.00138008
-0.000257666
0.00144542
-0.000305365
0.00151949
-0.000319553
0.00159006
-0.00030579
0.00166329
-0.000294891
0.00173197
-0.000276361
0.00178517
-0.000258753
0.00182038
-0.000245948
0.00185617
-0.000220802
0.00188749
-0.000204333
0.00190559
-0.000178083
0.00192525
-0.000156206
0.00193355
-0.000140005
0.00195443
-0.00012419
0.00196908
-0.000117229
0.00197044
-0.000103493
0.00197669
-9.36414e-05
0.00198129
-8.41589e-05
0.00198702
-7.19409e-05
0.00198916
-6.27619e-05
0.00198959
-5.4005e-05
0.00198921
-4.30788e-05
0.00198817
-3.42264e-05
0.00198573
-2.50585e-05
0.00198349
-1.4961e-05
0.00198028
-6.2904e-06
0.00197575
2.10403e-06
0.00196991
1.03828e-05
0.00196305
1.97848e-05
0.0019567
2.73979e-05
0.00194932
3.56201e-05
0.00193985
4.27693e-05
0.00192966
5.09454e-05
0.0019169
5.67221e-05
0.00190327
6.38631e-05
0.00188872
7.14664e-05
0.0018723
7.83583e-05
0.00185446
8.234e-05
0.00183502
8.73364e-05
0.00181606
9.22786e-05
0.00179615
9.67903e-05
0.00177528
9.99479e-05
0.00175399
0.000100093
0.00173228
9.91056e-05
0.0017102
9.58745e-05
0.00168991
9.34369e-05
0.00166827
8.96523e-05
0.00164787
8.55828e-05
0.00162728
7.90721e-05
0.00160678
6.9585e-05
0.00158856
6.63349e-05
0.00157022
6.0272e-05
0.00155229
3.87741e-05
0.00153911
2.40738e-05
0.00152691
1.64349e-05
0.00152424
2.37399e-05
0.00149541
0.000172637
0.00133289
0.000472412
0.000992697
0.000684605
0.000775232
0.000748047
0.000616931
0.000824119
0.00049547
0.000827557
0.000413011
0.000825986
0.000342721
0.000807164
0.000292052
0.000759153
0.000254711
0.000704729
0.000222363
0.000672838
0.000193866
0.000633558
0.00016493
0.000588749
0.000134759
0.000523451
0.000101393
0.00057981
6.93052e-05
0.000592343
4.16817e-05
0.000915441
2.20987e-05
-6.25327e-05
-6.5954e-05
0.000834822
-6.93507e-05
0.000852616
-7.26476e-05
0.00087063
-7.58048e-05
0.000888859
-7.87675e-05
0.0009073
-8.14775e-05
0.000925913
-8.39203e-05
0.000944703
-8.6083e-05
0.000963638
-8.78973e-05
0.00098264
-8.93312e-05
0.00100168
-9.04226e-05
0.00102077
-9.11344e-05
0.0010398
-9.14656e-05
0.00105873
-9.14322e-05
0.00107753
-9.10157e-05
0.00109614
-9.0236e-05
0.00111448
-8.91408e-05
0.00113256
-8.77059e-05
0.0011503
-8.59593e-05
0.00116763
-8.39443e-05
0.00118454
-8.16568e-05
0.00120099
-7.9123e-05
0.00121694
-7.64021e-05
0.00123239
-7.35055e-05
0.0012473
-7.04599e-05
0.00126163
-6.72654e-05
0.00127537
-6.39287e-05
0.00128847
-6.04815e-05
0.00130097
-5.69832e-05
0.00131284
-5.34321e-05
0.00132409
-4.98284e-05
0.00133473
-4.62082e-05
0.00134475
-4.25737e-05
0.00135409
-3.89265e-05
0.00136279
-3.52607e-05
0.00137089
-3.16079e-05
0.00137841
-2.79486e-05
0.00138531
-2.42652e-05
0.00139163
-2.06071e-05
0.0013975
-1.68741e-05
0.0014029
-1.35881e-05
0.00140768
-9.79636e-06
0.00141211
1.2159e-06
0.00141578
6.35059e-05
0.00143149
-0.000223339
0.00165517
-0.000331239
0.00179521
-0.000375716
0.00185652
-0.000391847
0.0018828
-0.000373677
0.00191392
-0.000347195
0.00194903
-0.000313528
0.0019792
-0.00029758
0.00199988
-0.000278324
0.00202657
-0.000242452
0.0020462
-0.00022031
0.00205211
-0.000190064
0.00206555
-0.000178241
0.00207084
-0.000151516
0.00207483
-0.000126621
0.00207974
-0.000124089
0.00208098
-0.000107082
0.00208039
-9.84755e-05
0.00208091
-8.58396e-05
0.00208086
-7.15312e-05
0.00207991
-6.35025e-05
0.00207927
-5.36104e-05
0.00207694
-4.07374e-05
0.002074
-3.15594e-05
0.00207062
-2.14558e-05
0.00206606
-9.99254e-06
0.0020605
4.6458e-08
0.00205409
9.72541e-06
0.00204697
1.8572e-05
0.00203938
2.88633e-05
0.00203037
3.7467e-05
0.00202048
4.69874e-05
0.00200968
5.51803e-05
0.001999
6.44096e-05
0.00198584
7.13514e-05
0.0019717
8.00362e-05
0.00195585
8.87809e-05
0.00193983
9.73831e-05
0.00192269
0.000101099
0.00190424
0.000107164
0.00188513
0.000113066
0.00186521
0.000117627
0.00184449
0.000121407
0.00182342
0.000122054
0.00180272
0.000119329
0.00178299
0.000117297
0.00176142
0.000113694
0.00174083
0.000109946
0.00172135
0.000105684
0.00170245
9.70244e-05
0.00168454
8.79516e-05
0.00166547
8.39877e-05
0.00165062
7.3792e-05
0.00163747
5.09694e-05
0.0016186
2.68421e-05
0.00160006
4.57099e-05
0.00151905
0.000186881
0.00131483
0.000513831
0.00100712
0.000690335
0.000764376
0.00084334