/*--------------------------------*- C++ -*----------------------------------*\
| =========                 |                                                 |
| \\      /  F ield         | OpenFOAM: The Open Source CFD Toolbox           |
|  \\    /   O peration     | Version:  2.2.x                                 |
|   \\  /    A nd           | Web:      www.OpenFOAM.org                      |
|    \\/     M anipulation  |                                                 |
\*---------------------------------------------------------------------------*/
FoamFile
{
    version     2.0;
    format      ascii;
    class       volScalarField;
    location    "2.45";
    object      rho;
}
// * * * * * * * * * * * * * * * * * * * * * * * * * * * * * * * * * * * * * //

dimensions      [1 -3 0 0 0 0 0];

internalField   nonuniform List<scalar> 
14161
(
0.997109
0.997662
0.997541
0.997472
0.997382
0.997285
0.997152
0.996996
0.996833
0.996674
0.996482
0.996289
0.996098
0.995872
0.995665
0.995495
0.995297
0.995102
0.994917
0.994748
0.99461
0.994519
0.994441
0.994384
0.994347
0.994372
0.994435
0.994552
0.994716
0.994939
0.995218
0.995554
0.995947
0.996399
0.99687
0.997524
0.998303
0.999042
0.999815
1.00044
1.00126
1.00293
1.00374
1.23429
2.4497
2.73138
2.6983
2.6725
2.64073
2.61143
2.58089
2.54891
2.51917
2.48804
2.45898
2.43186
2.40701
2.38395
2.3642
2.34779
2.33367
2.32165
2.31157
2.30396
2.29724
2.29211
2.28754
2.28484
2.28196
2.28178
2.28257
2.27954
2.27799
2.2775
2.27635
2.27199
2.27232
2.27449
2.26467
2.26244
2.26014
2.25127
2.24895
2.24392
2.24021
2.23711
2.23395
2.23344
2.23191
2.22049
2.21332
2.2084
2.20394
2.20003
2.19826
2.19627
2.18933
2.19428
2.16841
2.15733
2.12847
2.08349
2.03476
1.97722
1.92854
1.895
1.89211
1.90411
1.92712
2.03054
2.19588
2.49351
2.71964
2.89822
2.99868
3.10294
3.16229
3.22045
3.28155
0.997113
0.997665
0.997552
0.997503
0.997404
0.997269
0.997134
0.997018
0.996858
0.996666
0.996481
0.996305
0.996117
0.995896
0.995695
0.995519
0.995321
0.995122
0.994932
0.994759
0.994623
0.994534
0.994457
0.994397
0.994361
0.994395
0.994443
0.99455
0.994719
0.994941
0.99521
0.995539
0.995954
0.996403
0.996925
0.997503
0.998131
0.998896
0.999697
1.00036
1.00124
1.00274
1.00382
1.21588
2.44718
2.74601
2.71307
2.6879
2.65564
2.62349
2.59172
2.55909
2.52686
2.4952
2.46431
2.43576
2.41011
2.38622
2.36556
2.35079
2.33779
2.32525
2.31484
2.30642
2.29953
2.29431
2.28936
2.28644
2.28469
2.28501
2.28641
2.28369
2.28342
2.28364
2.28273
2.27806
2.27884
2.28146
2.27196
2.27051
2.2684
2.25916
2.25517
2.24784
2.24189
2.23742
2.2328
2.23027
2.22751
2.2164
2.20957
2.20589
2.20215
2.19973
2.19852
2.19856
2.19649
2.20192
2.17586
2.16779
2.14154
2.09757
2.05217
2.00159
1.94304
1.90661
1.90637
1.92565
2.003
2.26588
2.53896
2.72356
2.79133
2.85412
2.91371
2.98276
3.063
3.15034
3.24359
0.997108
0.997665
0.997542
0.997479
0.997392
0.997299
0.99716
0.996982
0.996819
0.99668
0.996496
0.996279
0.996082
0.995888
0.995679
0.995491
0.995298
0.995107
0.99492
0.994748
0.994611
0.99452
0.994448
0.994382
0.994349
0.994374
0.994434
0.994548
0.994707
0.994924
0.995192
0.995514
0.995887
0.996318
0.996918
0.997548
0.998202
0.998928
0.999499
1.00018
1.00124
1.00264
1.00359
1.20425
2.43195
2.74438
2.71837
2.69402
2.65958
2.62609
2.59464
2.56111
2.5281
2.49773
2.46697
2.43662
2.41035
2.38693
2.36679
2.34861
2.3316
2.31934
2.30876
2.30079
2.29364
2.28795
2.28383
2.28077
2.27808
2.27614
2.27502
2.27066
2.26825
2.26733
2.26604
2.26129
2.26242
2.26617
2.25742
2.25771
2.25714
2.24942
2.24712
2.24198
2.23685
2.23264
2.22714
2.22322
2.21934
2.20906
2.20253
2.199
2.19552
2.19342
2.19155
2.19154
2.19113
2.19365
2.16729
2.15712
2.12841
2.08191
2.03783
1.99003
1.93357
1.90501
1.91217
2.00076
2.26418
2.57972
2.77285
2.85075
2.86532
2.87946
2.9047
2.94624
3.00964
3.08596
3.15176
0.997109
0.997663
0.997549
0.997498
0.997398
0.997262
0.997131
0.997016
0.996851
0.996651
0.996466
0.996303
0.996108
0.995878
0.995672
0.995486
0.995296
0.995105
0.99491
0.994739
0.994602
0.99451
0.994436
0.994368
0.994329
0.994352
0.994406
0.994502
0.994649
0.99486
0.995126
0.995475
0.995839
0.996259
0.996722
0.997292
0.998007
0.998895
0.999489
1.00005
1.00104
1.00237
1.00375
1.20931
2.42399
2.72757
2.69978
2.67633
2.64429
2.61249
2.58258
2.54909
2.51635
2.48522
2.45179
2.42406
2.396
2.37163
2.35181
2.33408
2.3204
2.30608
2.29481
2.28562
2.27726
2.2714
2.26685
2.26512
2.26346
2.26266
2.26236
2.25927
2.25769
2.25759
2.25683
2.25255
2.25452
2.25941
2.25218
2.25073
2.24878
2.24063
2.23634
2.22968
2.2245
2.22081
2.2169
2.21389
2.21164
2.2045
2.19893
2.19587
2.19284
2.19056
2.1879
2.18775
2.18721
2.18863
2.16253
2.15298
2.12373
2.07922
2.03683
1.99046
1.92891
1.92368
2.00944
2.29922
2.62565
2.77276
2.85366
2.91761
2.91699
2.90875
2.89801
2.91746
2.96357
3.05272
3.11553
0.997105
0.997663
0.997539
0.997462
0.997374
0.997289
0.997156
0.996983
0.996819
0.996679
0.996497
0.996277
0.996076
0.995893
0.995692
0.995487
0.995296
0.995105
0.994911
0.994736
0.994592
0.994498
0.994421
0.99435
0.99431
0.994331
0.994379
0.994475
0.994617
0.994808
0.995048
0.995358
0.995665
0.996109
0.996635
0.997187
0.997784
0.998399
0.999077
0.999952
1.00099
1.00225
1.00351
1.20874
2.43836
2.74309
2.71395
2.68544
2.64975
2.61341
2.5798
2.5419
2.50802
2.47268
2.43453
2.40631
2.37527
2.35216
2.32984
2.31307
2.29697
2.28071
2.26922
2.25808
2.24899
2.24196
2.23425
2.23036
2.22747
2.22639
2.22664
2.22436
2.22289
2.22391
2.22452
2.22093
2.2221
2.22699
2.22312
2.22117
2.21961
2.21365
2.21069
2.20584
2.20135
2.1979
2.19439
2.19028
2.1879
2.18455
2.17763
2.1757
2.17365
2.17232
2.1705
2.17128
2.17173
2.17208
2.14712
2.13633
2.10211
2.05835
2.01373
1.95838
1.92279
1.99868
2.28483
2.59284
2.71663
2.76483
2.82275
2.89772
2.91295
2.92209
2.90635
2.89953
2.93117
3.01631
3.07839
0.99711
0.997662
0.997547
0.997497
0.997397
0.997258
0.997128
0.997014
0.996852
0.996654
0.996468
0.996301
0.996104
0.995892
0.995683
0.99548
0.9953
0.995113
0.994923
0.994741
0.99458
0.994472
0.994389
0.994324
0.994273
0.994285
0.994321
0.994388
0.994511
0.994701
0.99495
0.995228
0.995532
0.995883
0.996331
0.996761
0.997375
0.998095
0.998856
0.999683
1.00047
1.00168
1.00364
1.22397
2.44995
2.73972
2.70807
2.67366
2.6369
2.59787
2.55822
2.51636
2.4776
2.43824
2.39621
2.36437
2.3267
2.3037
2.28196
2.26792
2.24842
2.22848
2.22023
2.20786
2.1989
2.19288
2.18605
2.18313
2.18145
2.18046
2.18073
2.17698
2.17614
2.17582
2.17484
2.17199
2.17183
2.17332
2.17551
2.17044
2.16978
2.16626
2.16381
2.16016
2.15621
2.15317
2.14999
2.14554
2.14446
2.14302
2.13558
2.13577
2.1362
2.13669
2.13668
2.13809
2.1396
2.13663
2.11359
2.1003
2.06191
2.02666
1.98993
1.93413
1.9912
2.2609
2.568
2.7141
2.73981
2.75207
2.79396
2.87341
2.90613
2.9197
2.90679
2.8857
2.91412
2.99168
3.06594
0.997111
0.997665
0.997543
0.997479
0.997389
0.99729
0.997158
0.996993
0.996827
0.99668
0.996502
0.996289
0.996082
0.995899
0.995693
0.995464
0.995288
0.995105
0.994909
0.99473
0.99457
0.994451
0.994365
0.994303
0.994242
0.994233
0.994259
0.994325
0.994423
0.99457
0.994788
0.995027
0.995313
0.995638
0.996026
0.996439
0.996901
0.997367
0.998143
0.999219
1.00033
1.00156
1.00292
1.25113
2.45614
2.71065
2.67966
2.63735
2.59526
2.54981
2.50151
2.46472
2.41997
2.38653
2.35018
2.3105
2.29238
2.26155
2.24087
2.22395
2.20209
2.19225
2.18431
2.17211
2.16529
2.16096
2.15345
2.14957
2.14687
2.14482
2.1446
2.13897
2.13972
2.14073
2.1395
2.13875
2.13903
2.13944
2.14158
2.13906
2.13715
2.13295
2.13079
2.12699
2.12273
2.11961
2.11646
2.11197
2.11105
2.10973
2.10207
2.10292
2.10325
2.10131
2.10002
2.10167
2.10269
2.09685
2.07525
2.06306
2.03373
2.0052
1.97626
2.01124
2.26059
2.54477
2.59625
2.63573
2.67647
2.71794
2.76143
2.84046
2.89226
2.9123
2.90466
2.88107
2.89663
2.96427
3.05078
0.997115
0.997663
0.997543
0.997481
0.997391
0.997287
0.997153
0.997015
0.996852
0.996666
0.996483
0.996295
0.996086
0.995894
0.995689
0.995449
0.995273
0.995096
0.9949
0.994724
0.99455
0.994412
0.994318
0.994253
0.994186
0.994164
0.994179
0.994213
0.994283
0.994421
0.994612
0.994811
0.995027
0.995294
0.995526
0.995817
0.996254
0.996754
0.99727
0.997891
0.998961
1.00049
1.00162
1.2369
2.42982
2.70118
2.66451
2.62611
2.58196
2.52718
2.48202
2.44453
2.3994
2.37133
2.33388
2.30109
2.2817
2.24169
2.2154
2.2134
2.18178
2.18179
2.18061
2.16494
2.166
2.16422
2.15
2.14703
2.14338
2.13647
2.13643
2.12964
2.12957
2.1306
2.13316
2.13331
2.13512
2.1366
2.13648
2.13567
2.13339
2.13035
2.12698
2.12132
2.11879
2.11585
2.11265
2.1091
2.10627
2.10386
2.09829
2.09661
2.09643
2.09543
2.09466
2.09645
2.09803
2.09395
2.07753
2.07179
2.04986
2.02333
2.07822
2.29985
2.55646
2.67609
2.65057
2.61444
2.64604
2.6878
2.74234
2.81937
2.87851
2.9029
2.8997
2.87762
2.88654
2.94393
3.03622
0.99712
0.997666
0.997549
0.997495
0.997397
0.997266
0.997135
0.997006
0.996846
0.996672
0.996492
0.996294
0.996076
0.995888
0.995687
0.995442
0.995257
0.995083
0.994885
0.994705
0.994529
0.994377
0.994263
0.994192
0.994132
0.994087
0.994086
0.994106
0.99414
0.99422
0.994379
0.994537
0.994697
0.9949
0.995098
0.995273
0.995447
0.995723
0.996063
0.996579
0.997265
0.998309
0.999372
1.19887
2.36289
2.65851
2.60135
2.5735
2.5399
2.49552
2.46223
2.43349
2.39158
2.37543
2.34985
2.3179
2.30743
2.23619
2.22916
2.24426
2.20017
2.20163
2.1927
2.18472
2.1889
2.18364
2.17371
2.17147
2.16716
2.16638
2.16711
2.16178
2.16209
2.16295
2.16561
2.16298
2.164
2.16515
2.16381
2.16252
2.16019
2.15695
2.15321
2.14653
2.14314
2.13953
2.13562
2.13082
2.128
2.12452
2.11707
2.11457
2.11399
2.11268
2.11321
2.11712
2.12192
2.12298
2.10693
2.10794
2.10006
2.16859
2.39597
2.64253
2.62899
2.61561
2.58318
2.5639
2.59041
2.63782
2.71002
2.79223
2.8592
2.88934
2.89102
2.87107
2.87482
2.92545
3.02158
0.997125
0.997673
0.99755
0.997477
0.997384
0.997288
0.997157
0.996994
0.996828
0.996665
0.996492
0.996297
0.996074
0.995881
0.995683
0.995439
0.995241
0.995067
0.994875
0.994687
0.994509
0.994342
0.994204
0.994122
0.994061
0.994008
0.993968
0.993957
0.993964
0.994005
0.994108
0.994215
0.994296
0.994373
0.994475
0.99458
0.994603
0.994593
0.994527
0.994312
0.993939
0.993259
0.991345
1.01146
2.19019
2.65493
2.56298
2.55193
2.53388
2.50589
2.47477
2.44227
2.39156
2.37838
2.35139
2.32572
2.3203
2.22987
2.22901
2.25042
2.21367
2.20814
2.19397
2.1884
2.19248
2.18793
2.1847
2.18663
2.18393
2.18405
2.18548
2.18083
2.18045
2.18189
2.18597
2.18625
2.18739
2.19066
2.18796
2.18918
2.18707
2.18453
2.18141
2.17488
2.17225
2.16952
2.16625
2.16252
2.16053
2.15733
2.15303
2.15042
2.15213
2.15221
2.15331
2.163
2.16567
2.17359
2.16965
2.19603
2.3014
2.54259
2.7324
2.76114
2.72363
2.63346
2.59049
2.56208
2.57378
2.61845
2.68987
2.77252
2.84237
2.87751
2.88329
2.86381
2.86218
2.90933
3.0073
0.997132
0.997672
0.997551
0.997491
0.997401
0.997285
0.997151
0.997017
0.996857
0.996664
0.996481
0.996293
0.996068
0.995866
0.995672
0.995436
0.995221
0.995043
0.994855
0.994658
0.994477
0.994306
0.994147
0.994042
0.993974
0.993921
0.993871
0.99381
0.993773
0.993766
0.99379
0.993862
0.993906
0.993898
0.993882
0.993842
0.993748
0.993532
0.993239
0.992803
0.992085
0.991167
0.989413
0.997111
1.66315
2.65754
2.59463
2.55402
2.51135
2.46986
2.43377
2.38405
2.35516
2.35806
2.30617
2.29224
2.29303
2.2244
2.21322
2.21438
2.20167
2.19087
2.18111
2.17371
2.17573
2.17505
2.1753
2.17862
2.17846
2.1788
2.1798
2.1786
2.17959
2.18183
2.18376
2.18576
2.18753
2.1914
2.19116
2.19384
2.18961
2.18918
2.18772
2.18543
2.18349
2.18168
2.18058
2.17891
2.17955
2.18228
2.17815
2.18077
2.18417
2.18914
2.19774
2.21218
2.22822
2.26867
2.31576
2.48163
2.67794
2.81338
2.8786
2.74566
2.66191
2.57642
2.54205
2.52077
2.53327
2.58199
2.66132
2.74917
2.8233
2.86427
2.87391
2.85619
2.84907
2.89411
2.99321
0.997139
0.997677
0.997558
0.997501
0.997402
0.997287
0.997157
0.99701
0.99685
0.996672
0.996486
0.996296
0.996073
0.995862
0.995666
0.995438
0.9952
0.995015
0.994836
0.994633
0.99444
0.99427
0.994087
0.993943
0.993858
0.9938
0.993751
0.993686
0.993563
0.993475
0.99346
0.993453
0.99343
0.993379
0.993321
0.993165
0.992914
0.992553
0.992066
0.991389
0.99055
0.989529
0.986944
0.998628
1.48059
2.29821
2.41291
2.4679
2.47031
2.4231
2.38006
2.32902
2.30983
2.31556
2.26343
2.26794
2.25998
2.19104
2.18724
2.16896
2.17248
2.1679
2.15895
2.14573
2.14637
2.14874
2.14939
2.15322
2.15522
2.15611
2.15825
2.15858
2.16017
2.16307
2.16428
2.17026
2.17219
2.177
2.17786
2.18313
2.18016
2.18138
2.18084
2.18105
2.17987
2.17918
2.17939
2.17999
2.18592
2.18801
2.18997
2.19962
2.21247
2.23057
2.26118
2.32013
2.38287
2.50085
2.66348
2.81739
2.94334
2.90307
2.84338
2.76952
2.67563
2.59236
2.55026
2.52128
2.52749
2.56737
2.64224
2.73177
2.80831
2.85282
2.86497
2.84791
2.83842
2.87981
2.98045
0.997147
0.997686
0.997563
0.997493
0.997398
0.997294
0.997162
0.997016
0.996858
0.996674
0.996482
0.996301
0.996082
0.995856
0.995656
0.995439
0.995185
0.994988
0.994814
0.994607
0.994387
0.994223
0.994048
0.993859
0.993741
0.993672
0.99362
0.993562
0.993432
0.993224
0.993126
0.993086
0.993015
0.992892
0.992724
0.992511
0.992372
0.99195
0.991205
0.990003
0.988917
0.986953
0.984781
1.05546
1.62276
2.16137
2.17109
2.26837
2.4019
2.39683
2.35336
2.32424
2.29749
2.27392
2.2639
2.21538
2.19799
2.1616
2.16313
2.13132
2.14347
2.14099
2.13185
2.12603
2.12046
2.12215
2.12264
2.12459
2.1279
2.13042
2.13423
2.137
2.13644
2.13762
2.13771
2.14308
2.1462
2.1517
2.15244
2.15809
2.15663
2.1593
2.16304
2.16955
2.17071
2.1717
2.17766
2.18478
2.19903
2.21478
2.23346
2.27183
2.3116
2.38312
2.47871
2.58996
2.70734
2.83085
2.91118
2.98787
2.96444
2.88163
2.80207
2.71639
2.63965
2.5727
2.53176
2.50579
2.51505
2.55568
2.63027
2.71562
2.79401
2.84146
2.85575
2.84016
2.82862
2.86568
2.96818
0.997156
0.997686
0.997566
0.997505
0.997414
0.997299
0.997166
0.997021
0.996867
0.996684
0.996482
0.9963
0.996091
0.995854
0.995647
0.99544
0.995178
0.99496
0.994787
0.994586
0.994341
0.99416
0.993992
0.993778
0.993608
0.99351
0.993452
0.993401
0.993299
0.993024
0.992767
0.992645
0.992539
0.992397
0.992227
0.992084
0.992023
0.991817
0.991431
0.99075
0.991224
0.991009
0.99691
1.33531
1.84729
1.94952
2.00833
2.15513
2.19767
2.28101
2.29066
2.28916
2.29062
2.24731
2.27183
2.19758
2.18449
2.16421
2.15611
2.12956
2.14108
2.13289
2.12521
2.12271
2.11162
2.11447
2.11463
2.1164
2.11906
2.1215
2.12737
2.13022
2.12983
2.13265
2.13218
2.13975
2.14302
2.14743
2.149
2.15446
2.15577
2.16157
2.16775
2.17869
2.18958
2.20018
2.22429
2.25259
2.29728
2.34602
2.41527
2.50165
2.60656
2.69186
2.77645
2.86445
2.93865
2.9862
2.99896
2.96933
2.93683
2.85409
2.79244
2.71545
2.64148
2.58358
2.54148
2.51288
2.51911
2.55069
2.61958
2.70179
2.78145
2.83071
2.84662
2.83229
2.81923
2.852
2.95653
0.997165
0.997694
0.997574
0.997517
0.997418
0.997304
0.997173
0.997028
0.996872
0.996692
0.996484
0.996298
0.996098
0.995853
0.995637
0.995434
0.995175
0.994935
0.994752
0.994557
0.994297
0.994095
0.993921
0.993709
0.99348
0.993347
0.993269
0.993217
0.993128
0.992886
0.992454
0.99225
0.99212
0.991956
0.991817
0.991714
0.991664
0.991464
0.990943
0.990186
0.99014
0.989348
0.998586
1.60092
1.97544
1.98298
1.98389
2.034
2.09995
2.25408
2.32931
2.35928
2.35338
2.311
2.28974
2.21134
2.23675
2.18091
2.16301
2.15006
2.15054
2.14053
2.13414
2.12683
2.11759
2.1163
2.11976
2.12351
2.12493
2.127
2.13327
2.13751
2.14048
2.14427
2.14936
2.15712
2.16918
2.17513
2.18066
2.19368
2.20329
2.22412
2.24417
2.27843
2.31412
2.35737
2.42338
2.49335
2.57271
2.64016
2.70497
2.7755
2.85498
2.91317
2.96744
2.97791
2.98108
2.97139
2.96868
2.94145
2.90798
2.84043
2.76459
2.69389
2.63905
2.5892
2.54742
2.52119
2.52544
2.55245
2.6141
2.69008
2.76997
2.82041
2.83774
2.82495
2.81053
2.83925
2.94551
0.997176
0.997705
0.997581
0.997514
0.99742
0.997314
0.997186
0.997034
0.996878
0.996707
0.996494
0.9963
0.996105
0.995859
0.995632
0.995427
0.995175
0.994914
0.994711
0.994516
0.994255
0.994019
0.993837
0.993636
0.993361
0.993167
0.993057
0.992998
0.992915
0.992726
0.99224
0.991826
0.991663
0.991507
0.991408
0.991361
0.991362
0.991396
0.991116
0.990432
0.989443
0.988003
1.04447
1.78341
2.00884
1.99995
1.99066
1.98586
2.00247
2.09203
2.21338
2.28912
2.33366
2.33812
2.24793
2.23538
2.23318
2.17981
2.1722
2.12948
2.13373
2.13028
2.12145
2.1189
2.11798
2.11697
2.12058
2.12784
2.1296
2.13897
2.14597
2.15589
2.16528
2.17654
2.19606
2.21595
2.24009
2.26392
2.29317
2.33383
2.37184
2.42148
2.48256
2.54264
2.59929
2.64941
2.7034
2.76192
2.82535
2.87774
2.9223
2.94896
2.95889
2.95522
2.96061
2.95812
2.96063
2.94727
2.9364
2.91453
2.88602
2.82639
2.75766
2.69535
2.64522
2.59851
2.55531
2.53131
2.53399
2.55728
2.61245
2.68213
2.75954
2.81037
2.82885
2.81737
2.80189
2.82711
2.93476
0.997187
0.997709
0.997589
0.997529
0.997439
0.997324
0.997192
0.997042
0.996885
0.996718
0.996504
0.9963
0.996108
0.995866
0.995624
0.995415
0.995174
0.994895
0.994669
0.994462
0.994208
0.993938
0.993743
0.993553
0.993262
0.992989
0.992841
0.992744
0.992671
0.992521
0.992122
0.991481
0.991231
0.991148
0.991138
0.991167
0.9913
0.991651
0.991902
0.992188
0.992681
0.994925
1.26798
1.94611
2.01715
1.99423
1.98336
1.98055
1.97363
1.99123
2.07759
2.17474
2.35808
2.35847
2.30264
2.28489
2.23137
2.22252
2.17215
2.15062
2.16028
2.15147
2.13446
2.14357
2.14781
2.1513
2.15827
2.17349
2.18001
2.20421
2.22022
2.24663
2.27744
2.3087
2.35021
2.39747
2.44605
2.50632
2.5569
2.60818
2.65068
2.69479
2.74456
2.79517
2.84521
2.88345
2.91069
2.93304
2.93974
2.9411
2.94673
2.94334
2.94624
2.93859
2.94168
2.9354
2.9377
2.92811
2.91719
2.89673
2.86962
2.82079
2.75365
2.69787
2.65853
2.61631
2.5722
2.54822
2.54694
2.56511
2.61285
2.67518
2.75005
2.80088
2.8204
2.80982
2.79347
2.8152
2.92306
0.997198
0.997718
0.997599
0.997543
0.997447
0.997332
0.997206
0.997055
0.996891
0.996727
0.996517
0.996301
0.996109
0.995876
0.995618
0.9954
0.995171
0.994883
0.994628
0.994408
0.994162
0.993856
0.993629
0.993441
0.993171
0.992818
0.992621
0.992502
0.992415
0.992285
0.992017
0.991334
0.990791
0.990646
0.990628
0.990667
0.990753
0.991092
0.991459
0.992083
0.9927
0.995406
1.46026
2.04471
2.06638
2.04492
2.03151
2.0112
1.9992
1.98326
1.98728
2.05218
2.20207
2.30511
2.3319
2.27519
2.2573
2.25389
2.17503
2.17424
2.19812
2.20094
2.17879
2.20855
2.21679
2.24047
2.25658
2.298
2.32938
2.38062
2.42556
2.48809
2.53999
2.58637
2.63202
2.67101
2.7108
2.75283
2.79484
2.83973
2.87233
2.89442
2.91724
2.92677
2.92951
2.93203
2.93461
2.93331
2.93355
2.93009
2.93332
2.92867
2.92741
2.91781
2.92043
2.91547
2.91593
2.90773
2.89967
2.88399
2.85972
2.81573
2.75543
2.70216
2.66489
2.6257
2.58194
2.55796
2.55648
2.57289
2.61409
2.67144
2.74104
2.79143
2.81173
2.8021
2.78483
2.80349
2.9098
0.997211
0.997728
0.997608
0.997544
0.997452
0.997345
0.997219
0.997069
0.9969
0.996737
0.996535
0.996307
0.996111
0.995888
0.995617
0.995383
0.995159
0.994874
0.994588
0.994357
0.994115
0.993793
0.99352
0.993316
0.993076
0.992671
0.992379
0.992224
0.992123
0.992037
0.991845
0.991375
0.990493
0.990177
0.990085
0.990037
0.989959
0.989953
0.989972
0.990078
0.989513
0.99258
1.63645
2.0674
2.08858
2.0807
2.06959
2.04969
2.03469
2.00705
1.97893
1.98642
2.06083
2.20344
2.25031
2.27482
2.32855
2.24984
2.22741
2.23437
2.27495
2.27624
2.27813
2.33887
2.37398
2.43454
2.48252
2.53753
2.59229
2.64033
2.68267
2.72193
2.75986
2.79516
2.82986
2.86508
2.88804
2.91054
2.91679
2.92541
2.92497
2.92813
2.92709
2.92621
2.92444
2.92428
2.92608
2.92534
2.92308
2.91884
2.9173
2.91426
2.91157
2.89993
2.90394
2.90066
2.90174
2.89546
2.8872
2.87452
2.85326
2.81568
2.76063
2.71516
2.67929
2.64173
2.59722
2.57274
2.57058
2.58395
2.61782
2.66736
2.73174
2.78185
2.80289
2.79544
2.77545
2.79237
2.89878
0.997224
0.997738
0.997619
0.99756
0.997471
0.997357
0.99723
0.997084
0.99691
0.996745
0.996554
0.996316
0.996111
0.995898
0.995623
0.99537
0.995145
0.994866
0.994552
0.994306
0.994061
0.993743
0.993418
0.993177
0.992944
0.992556
0.992132
0.991933
0.991841
0.991779
0.991623
0.9913
0.990508
0.989783
0.989559
0.989376
0.98914
0.988756
0.988189
0.987268
0.985422
1.00857
1.78716
2.08781
2.09839
2.09431
2.08482
2.07164
2.06327
2.04077
2.01035
1.98799
2.00032
2.08821
2.22384
2.33468
2.34703
2.36014
2.34962
2.4078
2.44264
2.49562
2.53898
2.60409
2.64229
2.68384
2.72508
2.76753
2.79207
2.8126
2.83817
2.86638
2.87682
2.88212
2.88773
2.89835
2.9052
2.91001
2.91518
2.92071
2.91906
2.92178
2.92028
2.91915
2.91592
2.9124
2.9139
2.91383
2.9102
2.90459
2.89999
2.89829
2.89489
2.88656
2.8884
2.88529
2.8861
2.88197
2.87665
2.86774
2.84901
2.81383
2.76274
2.72069
2.68837
2.65261
2.6087
2.58557
2.58099
2.59335
2.62225
2.66392
2.72233
2.77302
2.79415
2.78818
2.76504
2.78299
2.88684
0.997238
0.99775
0.997632
0.997576
0.997483
0.997368
0.997245
0.997102
0.996923
0.996753
0.996571
0.996331
0.996112
0.995904
0.995635
0.995362
0.99513
0.994859
0.99452
0.99425
0.994004
0.993696
0.993326
0.993043
0.992791
0.992463
0.991931
0.991599
0.991446
0.991393
0.991344
0.991139
0.990685
0.989653
0.989155
0.989054
0.989036
0.989051
0.98911
0.989228
0.990061
1.16376
1.9417
2.09845
2.09707
2.09336
2.08782
2.08193
2.07517
2.06468
2.04695
2.03369
2.04308
2.08665
2.19941
2.45192
2.53915
2.59357
2.61383
2.65172
2.72253
2.76099
2.79608
2.81503
2.82863
2.84428
2.85614
2.87038
2.87822
2.88386
2.88783
2.89035
2.88923
2.88676
2.88669
2.89108
2.89666
2.90206
2.90743
2.91132
2.91114
2.91283
2.91094
2.91077
2.90924
2.90728
2.90556
2.90428
2.90055
2.89467
2.88505
2.8859
2.88266
2.87452
2.87615
2.87293
2.87401
2.87134
2.86752
2.86056
2.8455
2.8146
2.7671
2.72914
2.6963
2.67074
2.62428
2.60023
2.59447
2.60195
2.62382
2.66006
2.71293
2.76465
2.78542
2.7793
2.75577
2.77523
2.87697
0.997253
0.997762
0.997644
0.997583
0.997493
0.997383
0.997261
0.997124
0.996942
0.996764
0.996588
0.996354
0.996118
0.995911
0.995651
0.995359
0.995114
0.99485
0.994498
0.994192
0.993939
0.993648
0.993249
0.992914
0.992628
0.992327
0.9918
0.991267
0.991045
0.99098
0.991001
0.990898
0.990609
0.989934
0.989014
0.988797
0.988892
0.989049
0.989392
0.98994
0.991977
1.34507
2.04314
2.10263
2.09588
2.09281
2.09023
2.09037
2.09001
2.0894
2.08061
2.08515
2.11854
2.18257
2.39083
2.69174
2.74717
2.75707
2.77668
2.8
2.82645
2.84355
2.84796
2.85269
2.86235
2.87199
2.87491
2.87586
2.87612
2.8773
2.88018
2.88022
2.87998
2.87838
2.87952
2.87859
2.87939
2.88517
2.89179
2.89763
2.89693
2.89665
2.89524
2.89724
2.89833
2.89822
2.89589
2.89297
2.88954
2.88386
2.87632
2.87619
2.87126
2.86414
2.86335
2.85968
2.86102
2.85981
2.85735
2.85245
2.84088
2.81425
2.77291
2.7371
2.71072
2.68566
2.63814
2.61337
2.60406
2.61169
2.62741
2.65596
2.70437
2.75655
2.7766
2.77061
2.74632
2.76859
2.86623
0.997269
0.997775
0.997659
0.997601
0.997511
0.997399
0.997273
0.997144
0.996967
0.996777
0.996605
0.996381
0.996129
0.995916
0.995669
0.995361
0.995098
0.994835
0.994484
0.994134
0.993869
0.993591
0.99319
0.992777
0.992468
0.992163
0.991739
0.991033
0.990591
0.990441
0.990422
0.990482
0.990393
0.990075
0.989196
0.98831
0.988137
0.988149
0.988342
0.988598
0.990774
1.5232
2.10234
2.12222
2.11627
2.11595
2.11282
2.11145
2.11183
2.11477
2.11425
2.14026
2.24447
2.40802
2.66496
2.83044
2.84241
2.84079
2.84232
2.84644
2.85183
2.85761
2.8562
2.85621
2.8566
2.8589
2.8586
2.85811
2.85893
2.8603
2.8654
2.86679
2.86943
2.87011
2.87251
2.87211
2.87251
2.87857
2.88578
2.89189
2.8916
2.89131
2.88933
2.89218
2.89295
2.8932
2.89057
2.88617
2.88299
2.87757
2.87001
2.8673
2.86266
2.85486
2.85183
2.84757
2.84801
2.84773
2.84647
2.84364
2.83574
2.81416
2.77711
2.7456
2.7209
2.70155
2.65401
2.62829
2.61685
2.61739
2.62702
2.65141
2.6962
2.74784
2.76805
2.76207
2.73746
2.76259
2.85692
0.997285
0.997789
0.997674
0.997617
0.997531
0.997422
0.997291
0.997164
0.996996
0.996797
0.996621
0.99641
0.996148
0.995922
0.995684
0.995373
0.995087
0.994821
0.994473
0.994082
0.99379
0.993526
0.99314
0.992646
0.992306
0.991991
0.991633
0.990972
0.990199
0.989886
0.989831
0.989888
0.989981
0.989824
0.989405
0.988403
0.98716
0.986611
0.986523
0.985803
0.992696
1.68366
2.12532
2.13921
2.13436
2.13366
2.12696
2.12027
2.12339
2.13979
2.15855
2.23081
2.41695
2.66651
2.84372
2.86773
2.85851
2.84953
2.84907
2.8468
2.84713
2.84749
2.8465
2.84645
2.84494
2.8429
2.83702
2.83384
2.83384
2.83492
2.83987
2.84147
2.84607
2.84905
2.85349
2.85652
2.85805
2.86525
2.87354
2.88066
2.8819
2.88183
2.87998
2.88345
2.88397
2.8853
2.88307
2.87737
2.87438
2.86984
2.86273
2.85678
2.85215
2.8448
2.83911
2.83475
2.83429
2.83527
2.83553
2.83475
2.82968
2.81247
2.78366
2.75503
2.73679
2.71017
2.66549
2.63818
2.62496
2.6249
2.62791
2.64652
2.68823
2.73959
2.75943
2.75401
2.72922
2.75702
2.84585
0.997303
0.997805
0.997691
0.997635
0.99755
0.997444
0.997314
0.997186
0.997026
0.996823
0.996638
0.996438
0.996173
0.995931
0.995697
0.995391
0.995081
0.99481
0.994469
0.994039
0.993717
0.993452
0.9931
0.992527
0.992104
0.991805
0.991488
0.991035
0.990085
0.989329
0.98906
0.989009
0.989049
0.989255
0.989064
0.988456
0.987054
0.985457
0.984923
0.983485
1.04068
1.84357
2.11226
2.12152
2.12132
2.12228
2.12086
2.11738
2.12867
2.16623
2.22904
2.42318
2.67241
2.84283
2.87128
2.85923
2.84434
2.83941
2.83512
2.83228
2.82635
2.82523
2.82397
2.82523
2.82439
2.82335
2.81996
2.81444
2.8122
2.80924
2.81109
2.81072
2.81566
2.82024
2.82566
2.83213
2.83758
2.84643
2.85673
2.86542
2.86869
2.86927
2.86886
2.87296
2.87374
2.87641
2.87481
2.87032
2.86726
2.86403
2.85775
2.84954
2.84373
2.83607
2.82939
2.82459
2.82307
2.82382
2.82461
2.82532
2.82276
2.81005
2.78499
2.76109
2.74363
2.72675
2.68067
2.6515
2.63424
2.62736
2.62677
2.64072
2.67968
2.73091
2.75063
2.74659
2.72118
2.75182
2.83619
0.997322
0.997821
0.997709
0.997655
0.997571
0.997468
0.997337
0.997207
0.997057
0.996854
0.99666
0.996463
0.996205
0.995946
0.995712
0.995413
0.995082
0.994801
0.994469
0.994012
0.993651
0.993368
0.993047
0.992465
0.991882
0.991574
0.991308
0.990949
0.990306
0.989103
0.98838
0.988121
0.98811
0.988292
0.988572
0.988514
0.988201
0.987608
0.987559
0.98826
1.24942
1.99607
2.10735
2.10604
2.10687
2.11065
2.11753
2.12173
2.15671
2.25861
2.41736
2.69618
2.84528
2.87334
2.86007
2.84582
2.83374
2.82852
2.82354
2.82109
2.81488
2.81269
2.81022
2.80911
2.80753
2.80467
2.80126
2.79706
2.79459
2.79128
2.7888
2.78439
2.78388
2.78468
2.79144
2.80171
2.81234
2.82252
2.83324
2.84302
2.85099
2.8535
2.85444
2.85894
2.85984
2.86418
2.86358
2.86086
2.85708
2.85461
2.84931
2.8395
2.83258
2.82517
2.81762
2.81314
2.81051
2.81138
2.81278
2.81521
2.81497
2.80616
2.78766
2.76659
2.75039
2.73384
2.69043
2.65899
2.64077
2.63202
2.62608
2.63565
2.67155
2.72217
2.74181
2.73878
2.71388
2.74645
2.82492
0.997343
0.997839
0.99773
0.997677
0.997593
0.997495
0.997366
0.99723
0.997086
0.99689
0.996686
0.99649
0.99624
0.995971
0.995731
0.995436
0.99509
0.994797
0.994473
0.994001
0.993591
0.993289
0.992983
0.992454
0.991701
0.991253
0.991017
0.990774
0.990353
0.989507
0.988064
0.987292
0.986981
0.98691
0.987009
0.987502
0.987463
0.987155
0.985198
0.986732
1.44955
2.07089
2.1156
2.11131
2.11228
2.1164
2.13363
2.16187
2.2478
2.4643
2.68694
2.86043
2.85888
2.84763
2.83521
2.82499
2.8142
2.81108
2.80672
2.80475
2.79968
2.79796
2.7961
2.79416
2.79182
2.78781
2.78398
2.77981
2.77728
2.77351
2.77165
2.76879
2.76668
2.76419
2.76877
2.77458
2.78518
2.79732
2.80925
2.82008
2.8288
2.83578
2.83883
2.84427
2.84625
2.85242
2.85328
2.8518
2.84781
2.84542
2.83992
2.83013
2.8229
2.81486
2.80734
2.80324
2.79956
2.80044
2.8023
2.80567
2.80685
2.80138
2.78527
2.77098
2.75971
2.74381
2.70347
2.66889
2.64618
2.63175
2.62345
2.62892
2.66245
2.71296
2.73272
2.73102
2.7066
2.74062
2.81495
0.997365
0.997858
0.997751
0.9977
0.997618
0.997523
0.997398
0.997255
0.997116
0.996935
0.996722
0.996515
0.996276
0.996007
0.995755
0.99546
0.995104
0.994801
0.994479
0.994013
0.993537
0.993214
0.992919
0.992474
0.991647
0.990928
0.990588
0.990448
0.99018
0.989662
0.988657
0.986988
0.986104
0.985582
0.98537
0.985351
0.98558
0.985574
0.983249
0.99108
1.68007
2.10241
2.11975
2.11552
2.11707
2.12755
2.17045
2.27027
2.45291
2.71966
2.85127
2.84919
2.83707
2.82662
2.81259
2.80435
2.79539
2.79372
2.79166
2.79091
2.78824
2.78658
2.78513
2.78325
2.78088
2.77653
2.7718
2.76603
2.76138
2.75573
2.75205
2.74942
2.74781
2.74676
2.74664
2.74697
2.75482
2.76656
2.78236
2.79423
2.8044
2.8151
2.82038
2.82709
2.82993
2.83738
2.83994
2.8399
2.83631
2.83408
2.8283
2.81855
2.81145
2.80297
2.79537
2.7917
2.78706
2.78776
2.7902
2.79497
2.79779
2.79499
2.78429
2.77083
2.76132
2.74774
2.70983
2.67337
2.64999
2.6329
2.62103
2.62373
2.65476
2.7047
2.72377
2.72291
2.69906
2.73471
2.80312
0.997389
0.99788
0.997775
0.997726
0.997644
0.997553
0.997434
0.997286
0.997144
0.996981
0.99677
0.99654
0.996311
0.996056
0.995791
0.995482
0.995126
0.994816
0.994503
0.994042
0.993499
0.993136
0.99285
0.992469
0.991744
0.990737
0.990109
0.989785
0.989715
0.989473
0.988922
0.987856
0.985896
0.984575
0.983948
0.983441
0.983098
0.983247
0.982071
1.05566
1.86313
2.11144
2.12133
2.12523
2.13619
2.17615
2.26936
2.49267
2.71419
2.85686
2.84523
2.82607
2.81273
2.80028
2.78681
2.77868
2.7742
2.77365
2.77394
2.77427
2.77417
2.77376
2.77313
2.77213
2.77043
2.76698
2.76337
2.75816
2.75316
2.74622
2.73997
2.73334
2.72926
2.72851
2.72808
2.72718
2.73087
2.73668
2.75123
2.76698
2.77858
2.79136
2.79942
2.80882
2.81315
2.82018
2.82472
2.82534
2.82312
2.82133
2.81584
2.80671
2.80036
2.79204
2.78374
2.77981
2.7746
2.77525
2.77831
2.78447
2.78988
2.7898
2.78013
2.77163
2.76596
2.75461
2.71891
2.67888
2.65008
2.63095
2.61639
2.61672
2.64544
2.69537
2.71413
2.71455
2.69151
2.72877
2.79287
0.997414
0.997902
0.9978
0.997754
0.997675
0.997585
0.997472
0.997324
0.997174
0.997025
0.996825
0.996572
0.996343
0.996121
0.995854
0.995513
0.995152
0.994852
0.994543
0.994106
0.993493
0.993052
0.992761
0.992441
0.991883
0.990807
0.989822
0.989218
0.98887
0.988849
0.988687
0.988109
0.987055
0.985129
0.983582
0.983096
0.983302
0.983766
0.98581
1.28369
2.01202
2.10601
2.11213
2.13289
2.17439
2.2991
2.50229
2.74458
2.86504
2.85013
2.82636
2.81017
2.79274
2.78041
2.76669
2.75768
2.7524
2.75057
2.75071
2.75222
2.75419
2.75681
2.75774
2.75829
2.75783
2.75601
2.7537
2.7496
2.74527
2.73861
2.7315
2.72353
2.71599
2.71175
2.70897
2.7094
2.71123
2.71323
2.72158
2.73555
2.75108
2.76638
2.7771
2.78884