/*--------------------------------*- C++ -*----------------------------------*\
| =========                 |                                                 |
| \\      /  F ield         | OpenFOAM: The Open Source CFD Toolbox           |
|  \\    /   O peration     | Version:  2.2.x                                 |
|   \\  /    A nd           | Web:      www.OpenFOAM.org                      |
|    \\/     M anipulation  |                                                 |
\*---------------------------------------------------------------------------*/
FoamFile
{
    version     2.0;
    format      ascii;
    class       volScalarField;
    location    "2.35";
    object      p;
}
// * * * * * * * * * * * * * * * * * * * * * * * * * * * * * * * * * * * * * //

dimensions      [1 -1 -2 0 0 0 0];

internalField   nonuniform List<scalar> 
14161
(
0.2
0.2
0.2
0.2
0.2
0.2
0.2
0.2
0.2
0.2
0.2
0.2
0.2
0.2
0.2
0.2
0.2
0.2
0.2
0.2
0.2
0.2
0.2
0.2
0.2
0.2
0.2
0.2
0.2
0.2
0.2
0.2
0.2
0.2
0.2
0.2
0.2
0.2
0.200001
0.200017
0.200269
0.204309
0.273379
2.2326
6.50436
8.5825
9.05792
9.17064
9.225
9.26419
9.2961
9.323
9.34235
9.36286
9.39499
9.43415
9.47007
9.50013
9.52458
9.53991
9.55766
9.59035
9.63075
9.66615
9.69394
9.71268
9.723
9.74464
9.78192
9.82185
9.85361
9.8767
9.88647
9.90028
9.93136
9.97139
10.0058
10.0315
10.0433
10.0539
10.0815
10.1197
10.154
10.1797
10.1921
10.2042
10.2324
10.2688
10.3001
10.3229
10.3332
10.3512
10.3827
10.4158
10.4424
10.4578
10.4705
10.4964
10.5279
10.5549
10.5729
10.5848
10.6076
10.6356
10.6602
10.6767
10.6888
10.7096
10.7334
10.7534
10.7659
10.7772
10.7931
10.8108
10.8236
10.8305
10.8355
10.8433
10.8543
0.2
0.2
0.2
0.2
0.2
0.2
0.2
0.2
0.2
0.2
0.2
0.2
0.2
0.2
0.2
0.2
0.2
0.2
0.2
0.2
0.2
0.2
0.2
0.2
0.2
0.2
0.2
0.2
0.2
0.2
0.2
0.2
0.2
0.2
0.2
0.2
0.2
0.2
0.200001
0.200017
0.200268
0.204309
0.273596
2.22818
6.4955
8.58024
9.05932
9.17387
9.22911
9.26808
9.29948
9.3257
9.34457
9.36515
9.39806
9.4375
9.47342
9.50315
9.52691
9.54136
9.55933
9.59292
9.63382
9.66931
9.69686
9.7148
9.72466
9.74671
9.78441
9.82451
9.85626
9.879
9.88796
9.90216
9.93373
9.97385
10.0081
10.0334
10.0446
10.0556
10.0836
10.1221
10.1562
10.1815
10.193
10.2053
10.2339
10.2706
10.3019
10.3243
10.3342
10.352
10.3834
10.4166
10.4432
10.4586
10.4714
10.4972
10.5285
10.5552
10.5731
10.5851
10.6078
10.6358
10.6602
10.6766
10.6884
10.7089
10.7324
10.7524
10.7649
10.7766
10.7923
10.8091
10.8208
10.8277
10.8333
10.8416
10.8519
0.2
0.2
0.2
0.2
0.2
0.2
0.2
0.2
0.2
0.2
0.2
0.2
0.2
0.2
0.2
0.2
0.2
0.2
0.2
0.2
0.2
0.2
0.2
0.2
0.2
0.2
0.2
0.2
0.2
0.2
0.2
0.2
0.2
0.2
0.2
0.2
0.2
0.2
0.200001
0.200016
0.20026
0.204175
0.270748
2.20843
6.47887
8.57473
9.05631
9.17202
9.22792
9.26685
9.29792
9.32378
9.34232
9.36343
9.39724
9.4369
9.47257
9.50186
9.52521
9.53875
9.55738
9.59197
9.63315
9.66835
9.69549
9.71269
9.72251
9.74521
9.78339
9.82344
9.85494
9.87729
9.88557
9.90047
9.93268
9.9728
10.0067
10.0317
10.0422
10.0539
10.0824
10.1211
10.1549
10.1799
10.1907
10.2035
10.2327
10.2696
10.3007
10.3226
10.3322
10.3503
10.3819
10.4149
10.4413
10.4567
10.4698
10.4955
10.5264
10.5529
10.5707
10.5828
10.6054
10.633
10.6574
10.6737
10.6859
10.7061
10.729
10.7484
10.7608
10.7731
10.789
10.805
10.8154
10.8216
10.8266
10.8339
10.841
0.2
0.2
0.2
0.2
0.2
0.2
0.2
0.2
0.2
0.2
0.2
0.2
0.2
0.2
0.2
0.2
0.2
0.2
0.2
0.2
0.2
0.2
0.2
0.2
0.2
0.2
0.2
0.2
0.2
0.2
0.2
0.2
0.2
0.2
0.2
0.2
0.2
0.2
0.200001
0.200015
0.200244
0.203897
0.264715
2.1732
6.45569
8.56733
9.05234
9.1694
9.2258
9.26484
9.29585
9.32147
9.33983
9.36177
9.3967
9.43658
9.47178
9.50048
9.52324
9.53618
9.55585
9.59165
9.63275
9.66708
9.69356
9.70966
9.71988
9.74393
9.78292
9.82259
9.85338
9.87505
9.88249
9.89865
9.932
9.97219
10.0055
10.0298
10.0394
10.052
10.0818
10.1207
10.154
10.1785
10.1886
10.2022
10.2324
10.2692
10.3
10.3213
10.3308
10.3497
10.3812
10.4137
10.4396
10.4545
10.4681
10.4939
10.5245
10.5507
10.5685
10.5809
10.6035
10.6308
10.6547
10.671
10.6836
10.7037
10.7259
10.7443
10.7557
10.7679
10.7837
10.7987
10.8079
10.8132
10.8171
10.8228
10.8261
0.2
0.2
0.2
0.2
0.2
0.2
0.2
0.2
0.2
0.2
0.2
0.2
0.2
0.2
0.2
0.2
0.2
0.2
0.2
0.2
0.2
0.2
0.2
0.2
0.2
0.2
0.2
0.2
0.2
0.2
0.2
0.2
0.2
0.2
0.2
0.2
0.2
0.2
0.200001
0.200014
0.200225
0.203582
0.257943
2.12926
6.4238
8.55688
9.04818
9.16763
9.22507
9.26427
9.2952
9.32005
9.33819
9.36105
9.39752
9.43808
9.47356
9.50249
9.52467
9.53747
9.55862
9.59645
9.63808
9.67215
9.69804
9.71234
9.72322
9.74932
9.78979
9.82915
9.85918
9.87935
9.8856
9.90328
9.9384
9.97876
10.0111
10.0341
10.0421
10.0556
10.0867
10.1252
10.1574
10.1806
10.1893
10.2038
10.2342
10.2699
10.2995
10.3197
10.3284
10.3482
10.3792
10.4108
10.4359
10.4503
10.4646
10.491
10.5211
10.5469
10.5644
10.5778
10.6006
10.6272
10.6505
10.6664
10.6796
10.7
10.7218
10.7393
10.7496
10.7612
10.7764
10.7904
10.7985
10.8026
10.8056
10.8087
10.8086
0.2
0.2
0.2
0.2
0.2
0.2
0.2
0.2
0.2
0.2
0.2
0.2
0.2
0.2
0.2
0.2
0.2
0.2
0.2
0.2
0.2
0.2
0.2
0.2
0.2
0.2
0.2
0.2
0.2
0.2
0.2
0.2
0.2
0.2
0.2
0.2
0.2
0.2
0.200001
0.200013
0.200205
0.203253
0.250836
2.07619
6.38246
8.54387
9.04135
9.16406
9.22276
9.26138
9.29143
9.31449
9.33172
9.35594
9.39365
9.43351
9.46785
9.49557
9.51547
9.52778
9.55123
9.59005
9.63066
9.66312
9.68741
9.69952
9.7115
9.73953
9.78059
9.81867
9.84743
9.86511
9.87056
9.89022
9.92691
9.96706
9.99859
10.0201
10.026
10.0412
10.0742
10.1135
10.1456
10.1676
10.1752
10.1913
10.2241
10.2609
10.2906
10.3097
10.3185
10.3405
10.3737
10.4061
10.431
10.4445
10.4598
10.4869
10.517
10.5423
10.5588
10.5731
10.5964
10.6225
10.6446
10.6598
10.6733
10.694
10.7156
10.7324
10.7421
10.7529
10.767
10.7798
10.7868
10.7896
10.7915
10.7921
10.7894
0.2
0.2
0.2
0.2
0.2
0.2
0.2
0.2
0.2
0.2
0.2
0.2
0.2
0.2
0.2
0.2
0.2
0.2
0.2
0.2
0.2
0.2
0.2
0.2
0.2
0.2
0.2
0.2
0.2
0.2
0.2
0.2
0.2
0.2
0.2
0.2
0.2
0.2
0.200001
0.200011
0.200181
0.202865
0.242504
2.00844
6.32843
8.52763
9.03573
9.16284
9.22293
9.26121
9.29043
9.31195
9.32909
9.35457
9.3932
9.43258
9.46586
9.4925
9.51054
9.52313
9.54853
9.5884
9.6283
9.65968
9.68281
9.69335
9.70679
9.73726
9.77902
9.81609
9.844
9.85961
9.8657
9.8875
9.92537
9.96516
9.99586
10.016
10.0213
10.0385
10.0729
10.1118
10.1428
10.1632
10.17
10.1885
10.2222
10.2579
10.2863
10.3024
10.3116
10.3356
10.3696
10.4009
10.4242
10.4356
10.4524
10.4812
10.5115
10.5359
10.5507
10.5657
10.5901
10.6167
10.6382
10.652
10.6654
10.6855
10.7067
10.7231
10.7325
10.7428
10.7557
10.767
10.7725
10.7739
10.7744
10.7724
10.7669
0.2
0.2
0.2
0.2
0.2
0.2
0.2
0.2
0.2
0.2
0.2
0.2
0.2
0.2
0.2
0.2
0.2
0.2
0.2
0.2
0.2
0.2
0.2
0.2
0.2
0.2
0.2
0.2
0.2
0.2
0.2
0.2
0.2
0.2
0.2
0.2
0.2
0.2
0.200001
0.200009
0.20015
0.202349
0.23131
1.91501
6.25645
8.50598
9.0287
9.16062
9.22167
9.25946
9.28811
9.30844
9.32605
9.35325
9.39292
9.43168
9.46389
9.48969
9.50603
9.51955
9.54676
9.58747
9.62652
9.65674
9.67878
9.68765
9.70317
9.7357
9.77733
9.81309
9.83993
9.85362
9.86149
9.88561
9.92418
9.96256
9.99217
10.0101
10.0161
10.0363
10.0719
10.1096
10.1393
10.1574
10.1645
10.1858
10.2205
10.2551
10.2819
10.2956
10.306
10.3318
10.366
10.3956
10.4163
10.4259
10.4454
10.4759
10.5058
10.5285
10.54
10.5557
10.5819
10.6092
10.6301
10.6421
10.6552
10.6754
10.6964
10.7117
10.7206
10.7299
10.7419
10.7522
10.7558
10.7551
10.7542
10.7499
10.7412
0.2
0.2
0.2
0.2
0.2
0.2
0.2
0.2
0.2
0.2
0.2
0.2
0.2
0.2
0.2
0.2
0.2
0.2
0.2
0.2
0.2
0.2
0.2
0.2
0.2
0.2
0.2
0.2
0.2
0.2
0.2
0.2
0.2
0.2
0.2
0.2
0.2
0.2
0.2
0.200007
0.200114
0.201757
0.218457
1.79698
6.16475
8.47753
9.01815
9.15523
9.21695
9.25393
9.28148
9.30056
9.31864
9.34818
9.38882
9.42692
9.45812
9.48297
9.49759
9.51231
9.54205
9.58372
9.62183
9.65101
9.67159
9.67941
9.69701
9.73169
9.77322
9.80775
9.83342
9.84474
9.85444
9.88124
9.92065
9.95757
9.98564
10.0011
10.0072
10.0305
10.0673
10.1037
10.1317
10.1473
10.1542
10.178
10.2136
10.2473
10.2729
10.2854
10.2976
10.3256
10.3604
10.3895
10.4083
10.417
10.4385
10.4699
10.499
10.5197
10.529
10.5458
10.5731
10.6001
10.6197
10.6295
10.6432
10.6638
10.6843
10.698
10.7058
10.7147
10.7255
10.7347
10.7366
10.7336
10.7305
10.7241
10.7112
0.2
0.2
0.2
0.2
0.2
0.2
0.2
0.2
0.2
0.2
0.2
0.2
0.2
0.2
0.2
0.2
0.2
0.2
0.2
0.2
0.2
0.2
0.2
0.2
0.2
0.2
0.2
0.2
0.2
0.2
0.2
0.2
0.2
0.2
0.2
0.2
0.2
0.2
0.2
0.200005
0.200079
0.201204
0.2064
1.66358
6.05624
8.44547
9.00939
9.15166
9.21386
9.25014
9.27679
9.29576
9.31468
9.34527
9.38555
9.42272
9.45316
9.47741
9.49182
9.50763
9.53814
9.57873
9.61522
9.64347
9.66331
9.67194
9.6907
9.7257
9.76568
9.79809
9.82233
9.83306
9.84428
9.87217
9.91144
9.94685
9.97342
9.98694
9.99449
10.0192
10.0569
10.0928
10.12
10.1337
10.1418
10.1673
10.2042
10.2382
10.2632
10.2737
10.287
10.3165
10.3513
10.3799
10.3981
10.4072
10.4295
10.4612
10.4898
10.5094
10.5185
10.5365
10.5634
10.5888
10.6064
10.6154
10.6305
10.6513
10.6703
10.6817
10.6881
10.6968
10.7072
10.7147
10.7142
10.7095
10.7033
10.6946
10.6775
0.2
0.2
0.2
0.2
0.2
0.2
0.2
0.2
0.2
0.2
0.2
0.2
0.2
0.2
0.2
0.2
0.2
0.2
0.2
0.2
0.2
0.2
0.2
0.2
0.2
0.2
0.2
0.2
0.2
0.2
0.2
0.2
0.2
0.2
0.2
0.2
0.2
0.2
0.2
0.200002
0.200031
0.200535
0.193743
1.49772
5.91773
8.40266
8.99772
9.14641
9.20911
9.24492
9.27066
9.2894
9.30979
9.34167
9.38028
9.41525
9.44455
9.46835
9.48338
9.50054
9.5323
9.57166
9.60596
9.63303
9.65223
9.66278
9.68337
9.71935
9.75802
9.78901
9.81194
9.82278
9.83582
9.86493
9.90423
9.93854
9.96425
9.97694
9.98593
10.0115
10.0491
10.0841
10.1106
10.1236
10.133
10.1589
10.1952
10.2281
10.2522
10.2627
10.2769
10.3064
10.3406
10.3688
10.3863
10.3966
10.4194
10.4497
10.4772
10.4966
10.5072
10.5264
10.5523
10.5756
10.5914
10.6009
10.6173
10.6373
10.6539
10.6627
10.6684
10.6772
10.6868
10.6913
10.6884
10.6826
10.6739
10.6619
10.6403
0.2
0.2
0.2
0.2
0.2
0.2
0.2
0.2
0.2
0.2
0.2
0.2
0.2
0.2
0.2
0.2
0.2
0.2
0.2
0.2
0.2
0.2
0.2
0.2
0.2
0.2
0.2
0.2
0.2
0.2
0.2
0.2
0.2
0.2
0.2
0.2
0.2
0.2
0.2
0.200004
0.200027
0.20014
0.18299
1.30812
5.74867
8.34794
8.98144
9.13883
9.20154
9.2356
9.25913
9.27926
9.30393
9.33792
9.37342
9.40542
9.43258
9.45499
9.47117
9.49278
9.52727
9.56406
9.59529
9.62023
9.63788
9.65097
9.67402
9.71019
9.74715
9.77701
9.79915
9.81019
9.82437
9.85328
9.89107
9.92491
9.95104
9.96513
9.97573
10.0003
10.0355
10.0696
10.0967
10.1122
10.124
10.1492
10.1833
10.2148
10.2388
10.2511
10.2674
10.2963
10.3284
10.3553
10.3724
10.3852
10.4086
10.4377
10.4634
10.482
10.4944
10.5146
10.5393
10.5608
10.575
10.5853
10.6025
10.621
10.6347
10.6419
10.648
10.6565
10.6641
10.6646
10.6595
10.6532
10.6421
10.6264
10.5996
0.2
0.2
0.2
0.2
0.2
0.2
0.2
0.2
0.2
0.2
0.2
0.2
0.2
0.2
0.2
0.2
0.2
0.2
0.2
0.2
0.2
0.2
0.2
0.2
0.2
0.2
0.2
0.2
0.2
0.2
0.2
0.2
0.2
0.2
0.2
0.2
0.2
0.2
0.200004
0.200066
0.200856
0.205103
0.171813
1.09507
5.55111
8.288
8.96921
9.13588
9.19779
9.22887
9.25218
9.27535
9.30448
9.33761
9.36885
9.39753
9.42302
9.44339
9.46235
9.49048
9.52391
9.55469
9.58265
9.60681
9.62573
9.6436
9.67029
9.70193
9.73188
9.75924
9.78276
9.79977
9.81865
9.8467
9.87774
9.90661
9.93189
9.95046
9.96729
9.99238
10.0236
10.0533
10.0788
10.0959
10.1132
10.1399
10.1711
10.1992
10.2222
10.2368
10.2574
10.2865
10.3155
10.3398
10.3556
10.3719
10.3977
10.4254
10.4489
10.4654
10.4792
10.5007
10.5242
10.5441
10.557
10.5687
10.5857
10.6023
10.6135
10.6197
10.6262
10.6339
10.6384
10.6353
10.6291
10.6208
10.607
10.5878
10.555
0.2
0.2
0.2
0.2
0.2
0.2
0.2
0.2
0.2
0.2
0.2
0.2
0.2
0.2
0.2
0.2
0.2
0.2
0.2
0.2
0.2
0.2
0.2
0.2
0.2
0.2
0.2
0.2
0.2
0.2
0.2
0.2
0.2
0.2
0.2
0.2
0.2
0.2
0.200002
0.200028
0.20053
0.201959
0.155861
0.853023
5.31324
8.21529
8.95603
9.13378
9.19007
9.21899
9.24522
9.27373
9.30354
9.33189
9.35846
9.38344
9.40739
9.43211
9.46106
9.49104
9.51781
9.54002
9.56267
9.58747
9.61437
9.64417
9.67222
9.69562
9.71313
9.73356
9.75987
9.78948
9.8194
9.84575
9.86582
9.88357
9.90516
9.9318
9.96103
9.99001
10.0153
10.0354
10.0537
10.075
10.1029
10.1329
10.1603
10.1835
10.2
10.2185
10.2459
10.2756
10.3016
10.3222
10.3358
10.3571
10.3851
10.4114
10.4326
10.4453
10.4619
10.4851
10.508
10.5257
10.5367
10.5499
10.5666
10.5814
10.5902
10.5956
10.6021
10.6086
10.6096
10.6041
10.5967
10.5852
10.5678
10.5453
10.5072
0.2
0.2
0.2
0.2
0.2
0.2
0.2
0.2
0.2
0.2
0.2
0.2
0.2
0.2
0.2
0.2
0.2
0.2
0.2
0.2
0.2
0.2
0.2
0.2
0.2
0.2
0.2
0.2
0.2
0.2
0.2
0.2
0.2
0.2
0.2
0.2
0.2
0.2
0.199996
0.199927
0.199257
0.194521
0.144823
0.61068
5.04099
8.11022
8.9442
9.1331
9.1813
9.21031
9.2402
9.27114
9.30009
9.3248
9.34434
9.36197
9.38734
9.4246
9.46188
9.49094
9.51291
9.52452
9.53705
9.56266
9.60243
9.64197
9.67151
9.69004
9.69516
9.70931
9.73706
9.77805
9.81587
9.84322
9.85515
9.86144
9.88037
9.91296
9.95121
9.98298
10.0045
10.0129
10.0287
10.0561
10.0909
10.1229
10.1472
10.1612
10.1756
10.2011
10.2334
10.2629
10.2861
10.2993
10.3153
10.3421
10.3713
10.3956
10.4116
10.4233
10.4441
10.469
10.4904
10.5047
10.5138
10.5288
10.5457
10.5589
10.5653
10.5692
10.5751
10.5802
10.5782
10.5707
10.5612
10.5464
10.5252
10.4994
10.4566
0.2
0.2
0.2
0.2
0.2
0.2
0.2
0.2
0.2
0.2
0.2
0.2
0.2
0.2
0.2
0.2
0.2
0.2
0.2
0.2
0.2
0.2
0.2
0.2
0.2
0.2
0.2
0.2
0.2
0.2
0.2
0.2
0.2
0.2
0.2
0.2
0.2
0.2
0.2
0.200002
0.199834
0.197059
0.155794
0.347741
4.69848
7.95523
8.91288
9.11719
9.16926
9.20254
9.23413
9.26343
9.28841
9.30904
9.3207
9.33912
9.37407
9.41613
9.45105
9.47785
9.49726
9.50294
9.51327
9.54315
9.58961
9.63094
9.66022
9.67826
9.67602
9.68628
9.71752
9.76286
9.80201
9.83054
9.83886
9.83836
9.8591
9.89725
9.93861
9.97048
9.98883
9.98899
10.0057
10.0386
10.0773
10.1089
10.1295
10.1357
10.1536
10.1848
10.2193
10.2477
10.2654
10.2748
10.2964
10.3266
10.3553
10.3769
10.3875
10.4021
10.4263
10.4515
10.4705
10.4796
10.4895
10.5063
10.5233
10.5339
10.5372
10.5408
10.5459
10.5486
10.5442
10.5349
10.5229
10.5049
10.48
10.4504
10.4029
0.2
0.2
0.2
0.2
0.2
0.2
0.2
0.2
0.2
0.2
0.2
0.2
0.2
0.2
0.2
0.2
0.2
0.2
0.2
0.2
0.2
0.2
0.2
0.2
0.2
0.2
0.2
0.2
0.2
0.2
0.2
0.2
0.2
0.2
0.2
0.2
0.2
0.200001
0.200011
0.200132
0.200554
0.198796
0.165711
0.277235
4.25431
7.71442
8.84351
9.08205
9.13337
9.16619
9.20513
9.24479
9.2793
9.30669
9.32449
9.3354
9.35487
9.39029
9.43245
9.46757
9.49357
9.50922
9.51818
9.53711
9.57034
9.60811
9.63831
9.66007
9.6677
9.67942
9.7088
9.7466
9.77898
9.80373
9.81519
9.81726
9.84281
9.88311
9.92219
9.95147
9.96538
9.96479
9.98585
10.0234
10.062
10.0913
10.1055
10.1105
10.1336
10.1684
10.2025
10.2283
10.2395
10.2514
10.2776
10.3096
10.3366
10.354
10.3619
10.3809
10.4072
10.4309
10.4461
10.452
10.4649
10.4828
10.4982
10.5055
10.5064
10.5107
10.5154
10.514
10.5074
10.4961
10.4822
10.4607
10.4322
10.398
10.3457
0.2
0.2
0.2
0.2
0.2
0.2
0.2
0.2
0.2
0.2
0.2
0.2
0.2
0.2
0.2
0.2
0.2
0.2
0.2
0.2
0.2
0.2
0.2
0.2
0.2
0.2
0.2
0.2
0.2
0.2
0.2
0.2
0.2
0.2
0.2
0.2
0.2
0.2
0.199997
0.200005
0.200001
0.199847
0.192439
0.352671
3.78396
7.39825
8.73521
9.03463
9.10257
9.13764
9.17602
9.21575
9.2502
9.27819
9.29808
9.3097
9.32811
9.36188
9.40156
9.43453
9.46003
9.47669
9.48681
9.50575
9.53981
9.57774
9.60835
9.63152
9.6434
9.65611
9.68167
9.71812
9.75192
9.7777
9.79502
9.80569
9.83033
9.86387
9.89552
9.92046
9.9344
9.94112
9.96774
10.006
10.0421
10.0689
10.0782
10.0863
10.1134
10.1502
10.1823
10.2042
10.2112
10.2284
10.2581
10.2895
10.3143
10.3261
10.3364
10.359
10.3856
10.4069
10.4176
10.4241
10.4397
10.4575
10.4697
10.4736
10.4746
10.4787
10.483
10.4771
10.4679
10.4542
10.4389
10.4132
10.3816
10.3424
10.2854
0.2
0.2
0.2
0.2
0.2
0.2
0.2
0.2
0.2
0.2
0.2
0.2
0.2
0.2
0.2
0.2
0.2
0.2
0.2
0.2
0.2
0.2
0.2
0.2
0.2
0.2
0.2
0.2
0.2
0.2
0.2
0.2
0.2
0.2
0.2
0.2
0.2
0.2
0.2
0.200002
0.200028
0.200455
0.207824
0.365217
3.19914
7.05855
8.63739
8.99932
9.08318
9.12221
9.16199
9.20111
9.23455
9.26165
9.28142
9.2938
9.31473
9.35051
9.3882
9.41876
9.44209
9.45663
9.46608
9.48685
9.52216
9.55858
9.58706
9.60748
9.61673
9.62741
9.65284
9.69051
9.72542
9.75157
9.76806
9.7771
9.79699
9.82946
9.86379
9.89175
9.91208
9.92735
9.95327
9.98392
10.0129
10.0374
10.0497
10.0637
10.0934
10.1288
10.1584
10.1759
10.1839
10.2056
10.2366
10.2662
10.2872
10.2959
10.311
10.336
10.3611
10.3791
10.3862
10.3961
10.4129
10.4295
10.4381
10.4389
10.4412
10.4445
10.4467
10.4377
10.4257
10.41
10.3927
10.3625
10.328
10.2841
10.2219
0.2
0.2
0.2
0.2
0.2
0.2
0.2
0.2
0.2
0.2
0.2
0.2
0.2
0.2
0.2
0.2
0.2
0.2
0.2
0.2
0.2
0.2
0.2
0.2
0.2
0.2
0.2
0.2
0.2
0.2
0.2
0.2
0.2
0.2
0.2
0.2
0.2
0.2
0.2
0.200001
0.200017
0.200264
0.20429
0.290049
2.5576
6.68022
8.53372
8.96212
9.06277
9.10678
9.14751
9.18447
9.21596
9.24192
9.26088
9.27643
9.30105
9.33798
9.37349
9.4019
9.42376
9.43663
9.44782
9.4715
9.50756
9.54164
9.56727
9.58502
9.59107
9.60386
9.63248
9.66896
9.70036
9.72352
9.73532
9.74261
9.7634
9.79959
9.83691
9.86621
9.88623
9.89846
9.91732
9.94606
9.97696
10.0039
10.024
10.0448
10.0729
10.1023
10.1286
10.1458
10.158
10.1824
10.2125
10.2388
10.2559
10.2658
10.2855
10.3109
10.3334
10.3475
10.3538
10.3671
10.3839
10.3978
10.4035
10.4026
10.4057
10.4087
10.4067
10.3953
10.3815
10.3635
10.3432
10.3087
10.2714
10.2231
10.1549
0.2
0.2
0.2
0.2
0.2
0.2
0.2
0.2
0.2
0.2
0.2
0.2
0.2
0.2
0.2
0.2
0.2
0.2
0.2
0.2
0.2
0.2
0.2
0.2
0.2
0.2
0.2
0.2
0.2
0.2
0.2
0.2
0.2
0.2
0.2
0.2
0.2
0.2
0.2
0.200001
0.200012
0.200129
0.20136
0.215906
1.87791
6.19985
8.40663
8.92854
9.04972
9.09974
9.139
9.17241
9.20087
9.22487
9.2424
9.26087
9.29058
9.32617
9.3576
9.38322
9.4034
9.41493
9.42923
9.45486
9.48931
9.52002
9.54364
9.55985
9.56692
9.58342
9.61355
9.64713
9.67396
9.69397
9.70275
9.71422
9.74022
9.77635
9.80927
9.83371
9.84743
9.8552
9.87705
9.91263
9.94964
9.97954
10.0018
10.0189
10.0391
10.0642
10.091
10.1151
10.133
10.1574
10.1848
10.2075
10.2226
10.2372
10.2591
10.2826
10.3014
10.3124
10.3216
10.3364
10.3519
10.362
10.3653
10.3661
10.3685
10.3684
10.3633
10.3506
10.335
10.314
10.2902
10.2521
10.2119
10.1592
10.0849
0.2
0.2
0.2
0.2
0.2
0.2
0.2
0.2
0.2
0.2
0.2
0.2
0.2
0.2
0.2
0.2
0.2
0.2
0.2
0.2
0.2
0.2
0.2
0.2
0.2
0.2
0.2
0.2
0.2
0.2
0.2
0.2
0.2
0.2
0.2
0.2
0.2
0.2
0.2
0.200008
0.200088
0.200863
0.204778
0.175754
1.16734
5.62714
8.27118
8.91229
9.0557
9.10471
9.13435
9.16019
9.18417
9.2055
9.22444
9.24807
9.27771
9.3069
9.33313
9.35582
9.37497
9.39001
9.40967
9.437
9.46705
9.49313
9.51508
9.53047
9.54292
9.56385
9.59404
9.6233
9.64604
9.66282
9.6719
9.68845
9.71757
9.75074
9.77766
9.79705
9.80591
9.81901
9.84894
9.88734
9.92168
9.94627
9.96138
9.97241
9.995
10.0263
10.0589
10.0863
10.1092
10.1286
10.1507
10.1726
10.1906
10.2087
10.2304
10.2504
10.2658
10.2762
10.289
10.3039
10.3163
10.3228
10.3249
10.3275
10.3297
10.3245
10.3164
10.3034
10.286
10.2616
10.2338
10.1928
10.1495
10.0925
10.0115
0.2
0.2
0.2
0.2
0.2
0.2
0.2
0.2
0.2
0.2
0.2
0.2
0.2
0.2
0.2
0.2
0.2
0.2
0.2
0.2
0.2
0.2
0.2
0.2
0.2
0.2
0.2
0.2
0.2
0.2
0.2
0.2
0.2
0.2
0.2
0.2
0.2
0.2
0.2
0.2
0.199977
0.19968
0.197336
0.15361
0.432479
4.93638
8.08839
8.88409
9.06165
9.11222
9.13767
9.15638
9.17542
9.19741
9.22322
9.24927
9.2724
9.29273
9.31127
9.32782
9.34696
9.37107
9.39739
9.42192
9.44328
9.46199
9.47583
9.4915
9.51174
9.53745
9.56587
9.59178
9.61359
9.62727
9.64069
9.66219
9.69224
9.72071
9.74338
9.75841
9.76892
9.78965
9.82329
9.85793
9.88468
9.90183
9.90919
9.92788
9.96153
9.99968
10.0326
10.0569
10.0731
10.0871
10.1087
10.1339
10.159
10.1781
10.1966
10.2133
10.2272
10.2405
10.2549
10.2682
10.2765
10.2806
10.2839
10.2863
10.2869
10.278
10.2667
10.2535
10.2343
10.2066
10.1741
10.1309
10.084
10.0229
9.93521
0.2
0.2
0.2
0.2
0.2
0.2
0.2
0.2
0.2
0.2
0.2
0.2
0.2
0.2
0.2
0.2
0.2
0.2
0.2
0.2
0.2
0.2
0.2
0.2
0.2
0.2
0.2
0.2
0.2
0.2
0.2
0.2
0.2
0.2
0.2
0.2
0.2
0.2
0.2
0.200009
0.2001
0.200461
0.199806
0.179485
0.2585
4.05957
7.61805
8.7112
8.95535
9.02743
9.05933
9.08505
9.11328
9.14362
9.17117
9.19522
9.21598
9.23355
9.25298
9.27724
9.30429
9.33061
9.35386
9.37363
9.39019
9.40834
9.43105
9.45805
9.48494
9.50913
9.5301
9.54915
9.56563
9.58412
9.60548
9.63287
9.66138
9.68557
9.70404
9.71736
9.73446
9.76195
9.79432
9.82181
9.84238
9.85329
9.8669
9.89686
9.9354
9.97044
9.99595
10.0105
10.0188
10.0388
10.0676
10.0989
10.1263
10.1444
10.1564
10.1717
10.1883
10.2047
10.2182
10.2276
10.2331
10.2374
10.2412
10.2435
10.2395
10.229
10.2152
10.2007
10.1788
10.1485
10.1116
10.0666
10.0154
9.95042
9.85547
0.2
0.2
0.2
0.2
0.2
0.2
0.2
0.2
0.2
0.2
0.2
0.2
0.2
0.2
0.2
0.2
0.2
0.2
0.2
0.2
0.2
0.2
0.2
0.2
0.2
0.2
0.2
0.2
0.2
0.2
0.2
0.2
0.2
0.2
0.2
0.2
0.2
0.2
0.2
0.2
0.200004
0.200022
0.200218
0.203609
0.28788
3.09339
7.03865
8.55043
8.90769
9.00466
9.04051
9.06835
9.09693
9.12443
9.14946
9.17093
9.1878
9.20242
9.2226
9.24939
9.27637
9.30018
9.32014
9.33524
9.34849
9.36808
9.39574
9.42433
9.44931
9.4701
9.48594
9.50107
9.52154
9.5477
9.57628
9.60268
9.62544
9.64382
9.65857
9.67702
9.70129
9.73152
9.75917
9.78111
9.79617
9.80899
9.8324
9.86785
9.90256
9.92826
9.94333
9.95107
9.97115
10.0032
10.0391
10.0706
10.0921
10.0996
10.1096
10.1291
10.1498
10.1667
10.1769
10.1819
10.1876
10.1933
10.1979
10.1957
10.188
10.1775
10.1624
10.1455
10.1197
10.0875
10.0466
9.9995
9.9437
9.87502
9.77301
0.2
0.2
0.2
0.2
0.2
0.2
0.2
0.2
0.2
0.2
0.2
0.2
0.2
0.2
0.2
0.2
0.2
0.2
0.2
0.2
0.2
0.2
0.2
0.2
0.2
0.2
0.2
0.2
0.2
0.2
0.2
0.2
0.2
0.2
0.2
0.2
0.2
0.2
0.2
0.2
0.2
0.200001
0.200022
0.199584
0.206203
2.0448
6.35765
8.3738
8.85676
8.97707
9.01893
9.04889
9.07697
9.10311
9.1267
9.14696
9.16287
9.17789
9.19918
9.22574
9.2508
9.27226
9.29026
9.30344
9.31683
9.33794
9.36562
9.39134
9.4125
9.42941
9.44079
9.45758
9.48058
9.50863
9.53585
9.55934
9.57864
9.59202
9.61053
9.63493
9.66541
9.69471
9.71844
9.73454
9.74835
9.76927
9.80096
9.83414
9.86043
9.8775
9.88658
9.90448
9.93695
9.97443
10.0068
10.0284
10.0365
10.0429
10.062
10.0869
10.1105
10.1265
10.1287
10.1335
10.1415
10.1487
10.1509
10.1434
10.1338
10.1245
10.1075
10.0875
10.0572
10.0236
9.97916
9.92941
9.86907
9.79664
9.68722
0.2
0.2
0.2
0.2
0.2
0.2
0.2
0.2
0.2
0.2
0.2
0.2
0.2
0.2
0.2
0.2
0.2
0.2
0.2
0.2
0.2
0.2
0.2
0.2
0.2
0.2
0.2
0.2
0.2
0.2
0.2
0.2
0.2
0.2
0.2
0.2
0.2
0.2
0.2
0.2
0.2
0.200002
0.200284
0.197234
0.148033
0.909649
5.53047
8.21472
8.84803
8.97873
9.01234
9.03375
9.05415
9.07435
9.09401
9.11194
9.12882
9.14687
9.16959
9.19453
9.2172
9.2374
9.25527
9.26998
9.28671
9.3102
9.33588
9.35819
9.37742
9.39227
9.40573
9.42419
9.44844
9.47401
9.49648
9.51579
9.52942
9.54581
9.56735
9.59502
9.62477
9.65111
9.67113
9.68316
9.70181
9.73107
9.76447
9.79212
9.81179
9.82278
9.83832
9.86851
9.90554
9.93764
9.95801
9.96634
9.97288
9.99332
10.022
10.051
10.0729
10.0753
10.075
10.0841
10.0947
10.1029
10.0979
10.0877
10.0786
10.0699
10.0495
10.0252
9.99224
9.95709
9.90879
9.85558
9.79104
9.71486
9.59953
0.2
0.2
0.2
0.2
0.2
0.2
0.2
0.2
0.2
0.2
0.2
0.2
0.2
0.2
0.2
0.2
0.2
0.2
0.2
0.2
0.2
0.2
0.2
0.2
0.2
0.2
0.2
0.2
0.2
0.2
0.2
0.2
0.2
0.2
0.2
0.2
0.2
0.2
0.2
0.2
0.2
0.199995
0.199915
0.19821
0.172354
0.103877
4.41999
7.80897
8.73946
8.9355
8.98394
9.00763
9.02662
9.04529
9.06415
9.08425
9.10646
9.12911
9.15058
9.17046
9.18863
9.20538
9.22096
9.2394
9.26104
9.28273
9.30216
9.31947
9.33336
9.34682
9.36478
9.38688
9.41098
9.43338
9.4539
9.46933
9.48472
9.50487
9.52928
9.55654
9.58252
9.60543
9.61964
9.63526
9.65967
9.69175
9.72163
9.7446
9.75801
9.77121
9.79728
9.83316
9.8657
9.88678
9.8959
9.90375
9.92491
9.95646
9.98814
10.0123
10.0175
10.013
10.0218
10.0354
10.0491
10.051
10.0395
10.031
10.0221
10.0125
9.98756
9.95942
9.92527
9.88801
9.83491
9.77808
9.71034
9.63101
9.5094
0.2
0.2
0.2
0.2
0.2
0.2
0.2
0.2
0.2
0.2
0.2
0.2
0.2
0.2
0.2
0.2
0.2
0.2
0.2
0.2
0.2
0.2
0.2
0.2
0.2
0.2
0.2
0.2
0.2
0.2
0.2
0.2
0.2
0.2
0.2
0.2
0.2
0.2
0.2
0.2
0.2
0.2
0.200004
0.20013
0.202565
0.270261
3.198
7.08523
8.48501
8.80976
8.90433
8.94595
8.9711
8.99142
9.01099
9.03086
9.05078
9.07042
9.08907
9.1067
9.12385
9.14085
9.15918
9.17999
9.20142
9.22162
9.24005
9.25719
9.27307
9.29142
9.31474
9.3398
9.36317
9.38378
9.40149
9.41633
9.43737
9.46217
9.48839
9.51325
9.53606
9.55381
9.56896
9.59066
9.61842
9.64843
9.67379
9.69176
9.70319
9.7242
9.75698
9.78999
9.81388
9.82612
9.83397
9.85512
9.88808
9.92028
9.94459
9.95122
9.94736
9.95503
9.97205
9.99073
10.0001
9.98886
9.97954
9.97429
9.96359
9.95017
9.92187
9.89217
9.85615
9.81561
9.75783
9.69765
9.627
9.54461
9.41737
0.2
0.2
0.2
0.2
0.2
0.2
0.2
0.2
0.2
0.2
0.2
0.2
0.2
0.2
0.2
0.2
0.2
0.2
0.2
0.2
0.2
0.2
0.2
0.2
0.2
0.2
0.2
0.2
0.2
0.2
0.2
0.2
0.2
0.2
0.2
0.2
0.2
0.2
0.2
0.2
0.2
0.199999
0.199993
0.199955
0.199085
0.195932
1.87918
6.21324
8.25306
8.73939
8.86359
8.90779
8.93262
8.95439
8.97568
8.99585
9.01505
9.03311
9.05003
9.06574
9.08227
9.10078
9.12011
9.13924
9.15764
9.17509
9.19131
9.20832
9.22693
9.24747
9.27014
9.29264
9.31272
9.33061
9.34522
9.36362
9.38791
9.41457
9.44003
9.46271
9.48132
9.4965
9.51842
9.54377
9.57246
9.60005
9.62201
9.6349
9.65321
9.68128
9.71341
9.73944
9.75631
9.76475
9.78218
9.81397
9.84737
9.87151
9.87948
9.8778
9.88561
9.90535
9.92922
9.94507
9.9348
9.9231
9.91946
9.91692
9.90222
9.88137
9.85345
9.82429
9.7841
9.73927
9.67823
9.61542
9.54181
9.45603
9.32098
0.2
0.2
0.2
0.2
0.2
0.2
0.2
0.2
0.2
0.2
0.2
0.2
0.2
0.2
0.2
0.2
0.2
0.2
0.2
0.2
0.2
0.2
0.2
0.2
0.2
0.2
0.2
0.2
0.2
0.2
0.2
0.2
0.2
0.2
0.2
0.2
0.2
0.2
0.2
0.2
0.2
0.199998
0.199961
0.199596
0.197395
0.153155
0.488449
5.03453
7.97596
8.68575
8.83746
8.87852
8.89825
8.91588
8.93407
8.95178
8.96873
8.98526
9.00143
9.0177
9.0362
9.05633
9.07564
9.09371
9.11069
9.12656
9.14357
9.16336
9.18416
9.20476
9.22421
9.24213
9.25925
9.27663
9.29527
9.31718
9.34117
9.36523
9.38748
9.40687
9.42186
9.44219
9.46663
9.49406
9.52175
9.54685
9.5628
9.57811
9.60327
9.63442
9.66231
9.6831
9.69448
9.70916
9.73746
9.77007
9.79484
9.80561
9.80679
9.8156
9.83747
9.86338
9.88329
9.87796
9.86098
9.86054
9.86022
9.85868
9.8357
9.80741
9.78304
9.75403
9.7083
9.65966
9.59698
9.53168
9.454
9.36422
9.22287
0.2
0.2
0.2
0.2
0.2
0.2
0.2
0.2
0.2
0.2
0.2
0.2
0.2
0.2
0.2
0.2
0.2
0.2
0.2
0.2
0.2
0.2
0.2
0.2
0.2
0.2
0.2
0.2
0.2
0.2
0.2
0.2
0.2
0.2
0.2
0.2
0.2
0.2
0.2
0.2
0.2
0.2
0.199998
0.199998
0.200139
0.201342
0.253334
3.48375
7.25371
8.4447
8.72155
8.80077
8.83714
8.86415
8.88807
8.90817
8.92625
8.94261
8.95869
8.97671
8.99702
9.01636
9.03405
9.05048
9.0652
9.0795
9.09682
9.11693
9.13648
9.15489
9.17201
9.18785
9.20436
9.22362
9.24627
9.2698
9.29185
9.31201
9.33063
9.34812
9.36843
9.39178
9.41792
9.4447
9.46975
9.49019
9.50386
9.52537
9.55346
9.58306
9.60695
9.62227
9.63465
9.6583
9.68959
9.71595
9.73038
9.73498
9.74363
9.76647
9.79319
9.81383
9.81268
9.79844
9.79513
9.80106
9.80303
9.79414
9.76229
9.73433
9.71099
9.6797
9.62908
9.57779
9.51375
9.44565
9.36364
9.27005
9.12116
0.2
0.2
0.2
0.2
0.2
0.2
0.2
0.2
0.2
0.2
0.2
0.2
0.2
0.2
0.2
0.2
0.2
0.2
0.2
0.2
0.2
0.2
0.2
0.2
0.2
0.2
0.2
0.2
0.2
0.2
0.2
0.2
0.2
0.2
0.2
0.2
0.2
0.2
0.2
0.2
0.2
0.2
0.199999
0.199992
0.199949
0.19912
0.191094
1.82228
6.19602
8.18139
8.65922
8.76974
8.80676
8.82835
8.84795
8.86778
8.88667
8.90442
8.92164
8.94082
8.96051
8.97823
8.99509
9.01013
9.02348
9.03898
9.05631
9.07447
9.0915
9.10747
9.12105
9.13636
9.15372
9.17271
9.19381
9.21481
9.2342
9.25215
9.26845
9.2895
9.3144
9.34068
9.36621
9.38984
9.41007
9.42702
9.44742
9.47196
9.50012
9.52715
9.54747
9.55934
9.57905
9.60746
9.63498
9.65357
9.66222
9.67029
9.69111
9.71805
9.73992
9.74233
9.73087
9.72801
9.73534
9.74802
9.73903
9.71361
9.68764
9.66511
9.6353
9.59976
9.5469
9.49383
9.42731
9.3555
9.26931
9.17273
9.01986
0.2
0.2
0.2
0.2
0.2
0.2
0.2
0.2
0.2
0.2
0.2
0.2
0.2
0.2
0.2
0.2
0.2
0.2
0.2
0.2
0.2
0.2
0.2
0.2
0.2
0.2
0.2
0.2
0.2
0.2
0.2
0.2
0.2
0.2
0.2
0.2
0.2
0.2
0.2
0.2
0.2
0.2
0.199998
0.199959
0.19957
0.197215
0.160026
0.29276
4.78409
7.85453
8.59342
8.75351
8.79486
8.81369
8.8286
8.84459
8.86072
8.87674
8.89282
8.9091
8.92484
8.93941
8.95288
8.96408
8.97788
8.99338
9.00917
9.02481
9.0398
9.05273
9.06693
9.0844
9.10291
9.122
9.14133
9.16011
9.1774
9.19465
9.21387
9.23578
9.26065
9.28543
9.30801
9.32741
9.34396
9.3648
9.38949
9.41649
9.44394
9.46918
9.48303
9.49887
9.524
9.55184
9.57394
9.58731
9.59539
9.61336
9.63887
9.66063
9.66806
9.66227
9.65852
9.66842
9.68196
9.68605
9.65943
9.62926
9.61355
9.59708
9.55814
9.51559
9.46316
9.40789
9.33814
9.26202
9.17291
9.07353
8.91392
0.2
0.2
0.2
0.2
0.2
0.2
0.2
0.2
0.2
0.2
0.2
0.2
0.2
0.2
0.2
0.2
0.2
0.2
0.2
0.2
0.2
0.2
0.2
0.2
0.2
0.2
0.2
0.2
0.2
0.2
0.2
0.2
0.2
0.2
0.2
0.2
0.2
0.2
0.2
0.2
0.2
0.2
0.2
0.200005
0.19999
0.200015
0.200643
0.234318
3.08924
7.00823
8.32104
8.62151
8.70449
8.73927
8.75945
8.77545
8.78985
8.80386
8.8181
8.83261
8.84728
8.86165
8.87576
8.8901
8.90587
8.92253
8.93977
8.95699
8.9737
8.98826
9.00529
9.02397
9.04357
9.06318
9.08196
9.09815
9.11616
9.13616
9.157
9.17911
9.20197
9.22377
9.24343
9.2618
9.2834
9.30719
9.33328
9.36032
9.38556
9.40454
9.41721
9.43973
9.46681
9.49143
9.50927
9.51888
9.53356
9.55706
9.57919
9.59029
9.59021
9.58774
9.59856
9.61472
9.61812
9.6022
9.57356
9.55465
9.54065
9.52299
9.47701
9.42939
9.37787
9.31799
9.24497
9.16532
9.07521
8.97325
8.80947
0.2
0.2
0.2
0.2
0.2
0.2
0.2
0.2
0.2
0.2
0.2
0.2
0.2
0.2
0.2
0.2
0.2
0.2
0.2
0.2
0.2
0.2
0.2
0.2
0.2
0.2
0.2
0.2
0.2
0.2
0.2
0.2
0.2
0.2
0.2
0.2
0.2
0.2
0.2
0.2
0.2
0.2
0.200001
0.20001
0.200034
0.199863
0.198252
0.174679
1.24742
5.68799
7.96013
8.51369
8.64757
8.69011
8.71128
8.72834
8.74411
8.75905
8.77302
8.78647
8.79949
8.81263
8.82642
8.84096
8.8562
8.87188
8.88771
8.90306
8.9178
8.93301
8.95003
8.96777
8.9865
9.00531
9.02245
9.03748
9.05686
9.07754
9.0987
9.12022
9.14121
9.16023
9.17883
9.20014
9.22337
9.24852
9.27444
9.29882
9.31836
9.33322
9.3534
9.37874
9.40518
9.42755
9.44055
9.4527
9.47311
9.49575
9.51067
9.51538
9.51549
9.52394
9.53999
9.55025
9.53561
9.51163
9.4963
9.48729
9.46638
9.43736
9.38992
9.34321
9.29107
9.22561
9.14913
9.06604
8.97509
8.86945
8.69952
0.2
0.2
0.2
0.2
0.2
0.2
0.2
0.2
0.2
0.2
0.2
0.2
0.2
0.2
0.2
0.2
0.2
0.2
0.2
0.2
0.2
0.2
0.2
0.2
0.2
0.2
0.2
0.2
0.2
0.2
0.2
0.2
0.2
0.2
0.2
0.2
0.2
0.2
0.2
0.2
0.2
0.2
0.2
0.2
0.199999
0.199975
0.199749
0.193141
0.187123
3.83339
7.33265
8.35247
8.58426
8.64369
8.66602
8.68151
8.69489
8.70881
8.72157
8.73277
8.74551
8.7593
8.77358
8.78821
8.80311
8.81783
8.83193
8.84574
8.86069
8.87666
8.89324
8.9102
8.92738
8.94445
8.95968
8.97697
8.99658
9.01686
9.03745
9.05787
9.07646
9.09584
9.11733
9.13968
9.16315
9.18756
9.21081
9.23058
9.24792
9.2683
9.29158
9.31636
9.3415
9.36082
9.37022
9.38803
9.40976
9.42831
9.4379
9.44058
9.44805
9.46141
9.47328
9.46794
9.44661