/*--------------------------------*- C++ -*----------------------------------*\
| =========                 |                                                 |
| \\      /  F ield         | OpenFOAM: The Open Source CFD Toolbox           |
|  \\    /   O peration     | Version:  2.2.x                                 |
|   \\  /    A nd           | Web:      www.OpenFOAM.org                      |
|    \\/     M anipulation  |                                                 |
\*---------------------------------------------------------------------------*/
FoamFile
{
    version     2.0;
    format      ascii;
    class       volScalarField;
    location    "0.1";
    object      T;
}
// * * * * * * * * * * * * * * * * * * * * * * * * * * * * * * * * * * * * * //

dimensions      [0 0 0 1 0 0 0];

internalField   nonuniform List<scalar> 
14161
(
1
1
1
1
1
1
1
1
1
1
1
1
1
1
1
1
1
1
1
1
1
1
1
1
1
1
1
1
1
1
1
1
1
1
1
0.999999
0.999999
0.999998
0.999997
0.999995
0.999993
0.99999
0.999987
0.999982
0.999975
0.999967
0.999957
0.999944
0.999927
0.999905
0.999877
0.999842
0.999797
0.99974
0.999669
0.99958
0.999469
0.99933
0.999159
0.998947
0.998685
0.998364
0.99797
0.99749
0.996904
0.996194
0.995332
0.994294
0.993038
0.99154
0.989727
0.987588
0.984996
0.981954
0.978304
0.974023
0.968915
0.962958
0.955909
0.947645
0.937872
0.926449
0.913067
0.897975
0.880395
0.859637
0.83342
0.800513
0.758692
0.729852
0.692391
0.647212
0.808097
3.24464
3.44184
3.46787
3.49893
3.51496
3.56751
3.58351
3.59128
3.60368
3.63013
3.666
3.69662
3.71953
3.73542
3.73269
3.73962
3.75795
3.79755
3.83794
3.88558
3.91689
3.96586
4.03922
4.2448
4.47302
4.36934
1
1
1
1
1
1
1
1
1
1
1
1
1
1
1
1
1
1
1
1
1
1
1
1
1
1
1
1
1
1
1
1
1
1
1
0.999999
0.999999
0.999998
0.999997
0.999995
0.999993
0.99999
0.999987
0.999982
0.999975
0.999967
0.999957
0.999944
0.999927
0.999905
0.999877
0.999842
0.999797
0.99974
0.999669
0.99958
0.999469
0.999331
0.999159
0.998947
0.998685
0.998365
0.99797
0.99749
0.996903
0.996193
0.99533
0.994292
0.993034
0.991536
0.989722
0.987577
0.984993
0.981948
0.978299
0.974021
0.968918
0.962967
0.955936
0.94773
0.937969
0.926695
0.913426
0.898502
0.881611
0.862245
0.839176
0.813393
0.78371
0.765746
0.736636
0.742633
1.34823
3.45782
3.60317
3.6312
3.65692
3.65772
3.67545
3.66914
3.67234
3.67815
3.69985
3.72523
3.74952
3.76652
3.7782
3.77858
3.78608
3.79962
3.82791
3.85727
3.8985
3.92645
3.98073
4.05851
4.27389
4.48653
4.35749
1
1
1
1
1
1
1
1
1
1
1
1
1
1
1
1
1
1
1
1
1
1
1
1
1
1
1
1
1
1
1
1
1
1
1
0.999999
0.999999
0.999998
0.999997
0.999995
0.999993
0.99999
0.999987
0.999982
0.999975
0.999967
0.999957
0.999944
0.999927
0.999905
0.999877
0.999842
0.999797
0.99974
0.999669
0.99958
0.999468
0.99933
0.999157
0.998945
0.998683
0.998361
0.997966
0.997485
0.996896
0.996185
0.995318
0.994278
0.993017
0.991511
0.989694
0.987537
0.984946
0.981891
0.978223
0.973928
0.968792
0.9628
0.955675
0.947387
0.93752
0.926056
0.912546
0.896911
0.878544
0.856743
0.829461
0.79598
0.75507
0.713099
0.652929
0.580732
0.651795
3.20419
3.43264
3.47576
3.52965
3.54424
3.57876
3.60316
3.62027
3.63928
3.67187
3.69962
3.73151
3.76003
3.78083
3.79251
3.81202
3.83168
3.8576
3.88135
3.91553
3.93904
3.99734
4.07959
4.30551
4.49732
4.34204
1
1
1
1
1
1
1
1
1
1
1
1
1
1
1
1
1
1
1
1
1
1
1
1
1
1
1
1
1
1
1
1
1
1
1
0.999999
0.999999
0.999998
0.999997
0.999995
0.999993
0.99999
0.999987
0.999982
0.999975
0.999968
0.999957
0.999944
0.999927
0.999905
0.999877
0.999842
0.999797
0.99974
0.999669
0.99958
0.999468
0.99933
0.999157
0.998944
0.998681
0.998359
0.997962
0.997481
0.996889
0.996177
0.995305
0.994265
0.992995
0.99149
0.989663
0.987505
0.984901
0.981842
0.978177
0.97387
0.96874
0.962744
0.955639
0.947425
0.937772
0.926572
0.913452
0.898318
0.880829
0.861168
0.8391
0.814456
0.787286
0.757318
0.716898
0.684881
1.19435
3.35642
3.43799
3.49345
3.50559
3.52321
3.55152
3.58055
3.61484
3.63892
3.65838
3.6683
3.68675
3.71267
3.74608
3.77567
3.80948
3.83486
3.85955
3.88031
3.91263
3.93847
4.00007
4.09125
4.32371
4.50701
4.32272
1
1
1
1
1
1
1
1
1
1
1
1
1
1
1
1
1
1
1
1
1
1
1
1
1
1
1
1
1
1
1
1
1
1
1
0.999999
0.999999
0.999998
0.999997
0.999995
0.999993
0.99999
0.999987
0.999982
0.999975
0.999968
0.999957
0.999944
0.999927
0.999905
0.999877
0.999842
0.999797
0.99974
0.999668
0.999579
0.999467
0.999328
0.999154
0.998941
0.998677
0.998353
0.997955
0.997471
0.996876
0.99616
0.995284
0.994237
0.992959
0.991443
0.989609
0.987426
0.984817
0.981721
0.978036
0.973682
0.968515
0.962449
0.955258
0.946893
0.93705
0.925552
0.91183
0.895799
0.876706
0.854907
0.830285
0.801736
0.766704
0.715351
0.659768
0.577926
1.93877
3.5209
3.61556
3.56459
3.57901
3.5815
3.59542
3.61741
3.63427
3.64948
3.66184
3.67395
3.68905
3.70321
3.72752
3.75736
3.79507
3.82559
3.85197
3.86934
3.90076
3.93271
3.99729
4.09202
4.31604
4.50954
4.32085
1
1
1
1
1
1
1
1
1
1
1
1
1
1
1
1
1
1
1
1
1
1
1
1
1
1
1
1
1
1
1
1
1
1
1
0.999999
0.999999
0.999998
0.999997
0.999995
0.999993
0.99999
0.999987
0.999982
0.999976
0.999968
0.999957
0.999944
0.999927
0.999905
0.999877
0.999842
0.999797
0.99974
0.999668
0.999579
0.999466
0.999327
0.999153
0.998939
0.998674
0.998349
0.997948
0.997461
0.996864
0.996142
0.995263
0.994206
0.992925
0.991392
0.989549
0.987355
0.984723
0.981626
0.977898
0.97355
0.968353
0.962292
0.955144
0.946818
0.937075
0.925764
0.912428
0.896957
0.87933
0.860199
0.83919
0.816096
0.792419
0.770873
0.764432
0.735455
2.50496
3.59931
3.66344
3.62879
3.63326
3.63386
3.64426
3.66993
3.6852
3.69515
3.70183
3.7041
3.70506
3.71163
3.73508
3.76347
3.79659
3.82259
3.8457
3.86408
3.90159
3.93902
4.0025
4.09602
4.31229
4.50909
4.32128
1
1
1
1
1
1
1
1
1
1
1
1
1
1
1
1
1
1
1
1
1
1
1
1
1
1
1
1
1
1
1
1
1
1
1
0.999999
0.999999
0.999998
0.999997
0.999996
0.999993
0.99999
0.999987
0.999982
0.999976
0.999968
0.999957
0.999944
0.999927
0.999905
0.999877
0.999842
0.999796
0.999739
0.999667
0.999577
0.999465
0.999324
0.99915
0.998934
0.998667
0.99834
0.997937
0.997445
0.996845
0.996116
0.995229
0.994163
0.99287
0.991328
0.989465
0.987259
0.98459
0.981469
0.977692
0.973291
0.968041
0.96188
0.954632
0.946114
0.936141
0.924447
0.910733
0.894514
0.875563
0.853581
0.828391
0.797316
0.756024
0.693991
0.637602
0.532791
1.95944
3.51113
3.52633
3.51456
3.55027
3.58928
3.61256
3.65113
3.67959
3.70409
3.72279
3.73029
3.73504
3.74222
3.75949
3.77895
3.80314
3.82283
3.84344
3.86384
3.90322
3.94415
4.00647
4.09793
4.30978
4.50016
4.32502
1
1
1
1
1
1
1
1
1
1
1
1
1
1
1
1
1
1
1
1
1
1
1
1
1
1
1
1
1
1
1
1
1
1
1
0.999999
0.999999
0.999998
0.999997
0.999996
0.999993
0.999991
0.999987
0.999982
0.999976
0.999968
0.999958
0.999944
0.999927
0.999906
0.999878
0.999842
0.999797
0.99974
0.999667
0.999577
0.999464
0.999323
0.999148
0.998931
0.998662
0.998332
0.997927
0.997431
0.996825
0.996091
0.995195
0.99412
0.992813
0.991251
0.989372
0.987126
0.984446
0.981267
0.97748
0.973041
0.967755
0.961579
0.954254
0.94573
0.935757
0.924253
0.910982
0.895483
0.877478
0.85662
0.833211
0.80807
0.780195
0.73846
0.711997
0.646699
2.55557
3.53147
3.49394
3.52417
3.53881
3.57979
3.59547
3.63437
3.66672
3.69621
3.72007
3.7332
3.74026
3.75718
3.77537
3.79061
3.80882
3.8227
3.84418
3.86694
3.90731
3.94882
4.00975
4.10319
4.31681
4.49342
4.32889
1
1
1
1
1
1
1
1
1
1
1
1
1
1
1
1
1
1
1
1
1
1
1
1
1
1
1
1
1
1
1
1
1
1
1
0.999999
0.999999
0.999998
0.999997
0.999996
0.999993
0.999991
0.999987
0.999982
0.999976
0.999968
0.999958
0.999945
0.999927
0.999906
0.999877
0.999842
0.999796
0.999739
0.999666
0.999576
0.999462
0.99932
0.999143
0.998924
0.998654
0.998321
0.997911
0.997411
0.996798
0.996055
0.995151
0.994059
0.992744
0.991153
0.989258
0.986971
0.984258
0.981019
0.977193
0.972641
0.967307
0.960954
0.953532
0.944788
0.934662
0.922854
0.909199
0.892996
0.874026
0.85152
0.825141
0.794178
0.759433
0.708174
0.667422
0.643781
3.07855
3.58376
3.56521
3.59484
3.5731
3.59129
3.59884
3.63123
3.65262
3.67516
3.69606
3.71625
3.73371
3.7613
3.78333
3.7953
3.80876
3.82209
3.84352
3.87025
3.91234
3.95334
4.01381
4.11122
4.33355
4.4889
4.33336
1
1
1
1
1
1
1
1
1
1
1
1
1
1
1
1
1
1
1
1
1
1
1
1
1
1
1
1
1
1
1
1
1
1
1
0.999999
0.999999
0.999998
0.999997
0.999996
0.999994
0.999991
0.999987
0.999982
0.999976
0.999968
0.999958
0.999945
0.999928
0.999906
0.999878
0.999842
0.999797
0.999739
0.999667
0.999575
0.999461
0.999318
0.999141
0.99892
0.998647
0.998312
0.997898
0.997392
0.996773
0.996019
0.995107
0.993995
0.99266
0.991052
0.989118
0.986809
0.984055
0.980765
0.976889
0.972265
0.966845
0.960418
0.952926
0.944148
0.934042
0.922262
0.908617
0.892278
0.873186
0.8514
0.82864
0.805613
0.787069
0.757258
0.736655
1.15332
3.4087
3.62317
3.61349
3.63163
3.61254
3.62654
3.63916
3.65331
3.66239
3.67734
3.69437
3.71835
3.73873
3.76796
3.79382
3.80633
3.81901
3.83382
3.85336
3.88004
3.92046
3.95939
4.01971
4.123
4.358
4.48725
4.3302
1
1
1
1
1
1
1
1
1
1
1
1
1
1
1
1
1
1
1
1
1
1
1
1
1
1
1
1
1
1
1
1
1
1
1
0.999999
0.999999
0.999998
0.999997
0.999996
0.999994
0.999991
0.999987
0.999982
0.999976
0.999968
0.999958
0.999945
0.999928
0.999906
0.999878
0.999842
0.999797
0.999739
0.999666
0.999574
0.999459
0.999315
0.999135
0.998913
0.998637
0.998297
0.997879
0.997365
0.99674
0.995972
0.995048
0.993919
0.992562
0.99092
0.988961
0.986597
0.983799
0.980436
0.976476
0.971746
0.966214
0.959651
0.952011
0.942994
0.932537
0.920235
0.905948
0.889118
0.869543
0.846866
0.821604
0.79367
0.760266
0.712764
0.637464
1.34753
3.45865
3.56806
3.57058
3.60098
3.59249
3.6191
3.64917
3.65412
3.66537
3.67157
3.68733
3.71037
3.73359
3.76222
3.79036
3.80423
3.81762
3.83511
3.85643
3.88607
3.92576
3.9628
4.02415
4.13675
4.38447
4.48205
4.32263
1
1
1
1
1
1
1
1
1
1
1
1
1
1
1
1
1
1
1
1
1
1
1
1
1
1
1
1
1
1
1
1
1
1
1
0.999999
0.999999
0.999998
0.999997
0.999996
0.999994
0.999991
0.999987
0.999983
0.999977
0.999969
0.999959
0.999946
0.999929
0.999907
0.999879
0.999843
0.999797
0.999739
0.999666
0.999574
0.999458
0.999314
0.999133
0.998908
0.998631
0.998286
0.997864
0.997343
0.996708
0.995932
0.99499
0.993842
0.992465
0.99079
0.988796
0.986382
0.983529
0.980094
0.976056
0.971235
0.965601
0.958913
0.951118
0.941879
0.931159
0.918635
0.904298
0.887784
0.868984
0.847582
0.823207
0.794929
0.760941
0.731765
0.70443
1.86646
3.55577
3.57721
3.58197
3.59867
3.59727
3.6232
3.65777
3.66809
3.68281
3.68857
3.69833
3.71529
3.73782
3.76062
3.78867
3.8027
3.81882
3.84052
3.86366
3.89537
3.93467
3.96855
4.03067
4.15281
4.41216
4.47782
4.31054
1
1
1
1
1
1
1
1
1
1
1
1
1
1
1
1
1
1
1
1
1
1
1
1
1
1
1
1
1
1
1
1
1
1
1
0.999999
0.999999
0.999998
0.999997
0.999996
0.999994
0.999991
0.999987
0.999983
0.999977
0.999969
0.999959
0.999946
0.999929
0.999907
0.999879
0.999843
0.999797
0.999739
0.999666
0.999573
0.999456
0.99931
0.999127
0.9989
0.998619
0.998269
0.997841
0.997312
0.996667
0.995875
0.994919
0.993747
0.992344
0.990631
0.988594
0.986124
0.983203
0.979685
0.97555
0.9706
0.964806
0.957911
0.949871
0.940365
0.929357
0.916474
0.901597
0.884436
0.86441
0.84097
0.812677
0.778306
0.736443
0.700423
0.6313
2.53106
3.59064
3.58038
3.58078
3.55514
3.57955
3.60095
3.63857
3.65671
3.68222
3.69091
3.70399
3.7189
3.74134
3.7583
3.78572
3.79732
3.81574
3.84186
3.86685
3.90007
3.93986
3.973
4.03916
4.17183
4.43842
4.47192
4.29292
1
1
1
1
1
1
1
1
1
1
1
1
1
1
1
1
1
1
1
1
1
1
1
1
1
1
1
1
1
1
1
1
1
1
1
0.999999
0.999999
0.999998
0.999997
0.999996
0.999994
0.999991
0.999988
0.999983
0.999977
0.99997
0.99996
0.999947
0.99993
0.999908
0.99988
0.999844
0.999799
0.99974
0.999667
0.999574
0.999457
0.999309
0.999126
0.998897
0.998613
0.99826
0.997826
0.997288
0.996635
0.995828
0.994856
0.993659
0.992227
0.990475
0.988392
0.985863
0.982872
0.979264
0.975019
0.969933
0.963975
0.95689
0.948652
0.93894
0.927726
0.914652
0.899394
0.881496
0.860363
0.836276
0.810429
0.783458
0.745748
0.731373
0.720696
3.08396
3.61169
3.60664
3.62085
3.57386
3.5964
3.61686
3.63593
3.65843
3.6783
3.69184
3.70848
3.72298
3.74962
3.76125
3.78926
3.80003
3.8188
3.84649
3.87084
3.90373
3.94476
3.97776
4.05053
4.19498
4.46685
4.46848
4.27185
1
1
1
1
1
1
1
1
1
1
1
1
1
1
1
1
1
1
1
1
1
1
1
1
1
1
1
1
1
1
1
1
1
1
1
0.999999
0.999999
0.999998
0.999997
0.999996
0.999994
0.999991
0.999988
0.999983
0.999977
0.99997
0.99996
0.999947
0.99993
0.999909
0.999881
0.999845
0.999799
0.999741
0.999667
0.999573
0.999455
0.999306
0.999121
0.998888
0.9986
0.998242
0.997802
0.997254
0.99659
0.995767
0.994775
0.993551
0.992088
0.990295
0.988161
0.985565
0.982492
0.978779
0.974407
0.969163
0.963026
0.955715
0.9472
0.93712
0.925429
0.911635
0.895669
0.876897
0.854943
0.830858
0.804468
0.776854
0.738024
0.688911
0.996453
3.34459
3.58241
3.58933
3.59733
3.57851
3.59793
3.61468
3.62859
3.65143
3.67098
3.68772
3.70721
3.72275
3.75125
3.75982
3.78972
3.80167
3.8212
3.85086
3.87432
3.90568
3.94678
3.98186
4.06162
4.21666
4.48835
4.46571
4.24937
1
1
1
1
1
1
1
1
1
1
1
1
1
1
1
1
1
1
1
1
1
1
1
1
1
1
1
1
1
1
1
1
1
1
1
0.999999
0.999999
0.999998
0.999997
0.999996
0.999994
0.999992
0.999988
0.999984
0.999978
0.999971
0.999961
0.999948
0.999931
0.99991
0.999882
0.999847
0.999801
0.999743
0.999669
0.999575
0.999457
0.999307
0.999121
0.998887
0.998597
0.998234
0.997788
0.997232
0.996558
0.995718
0.994706
0.993455
0.991957
0.990118
0.987927
0.985258
0.982096
0.978272
0.97377
0.968363
0.962026
0.954477
0.945677
0.935229
0.923105
0.908859
0.89261
0.874401
0.854033
0.830108
0.801475
0.763977
0.714227
0.64864
1.77403
3.55506
3.58667
3.59818
3.58273
3.5813
3.58148
3.61921
3.62854
3.65545
3.67275
3.69126
3.70792
3.7221
3.75038
3.76117
3.79325
3.80774
3.82691
3.85655
3.87731
3.90617
3.94865
3.98548
4.07446
4.24232
4.50363
4.46106
4.22506
1
1
1
1
1
1
1
1
1
1
1
1
1
1
1
1
1
1
1
1
1
1
1
1
1
1
1
1
1
1
1
1
1
1
1
0.999999
0.999999
0.999998
0.999998
0.999996
0.999994
0.999992
0.999988
0.999984
0.999978
0.999971
0.999961
0.999949
0.999932
0.999911
0.999883
0.999848
0.999802
0.999744
0.99967
0.999575
0.999456
0.999306
0.999117
0.99888
0.998586
0.998217
0.997765
0.997199
0.996511
0.995655
0.994621
0.993342
0.991807
0.98992
0.98767
0.984924
0.981666
0.977719
0.973064
0.967465
0.960895
0.953049
0.943898
0.933104
0.920623
0.906063
0.889293
0.869501
0.846163
0.8181
0.784245
0.74425
0.718726
0.673063
2.66116
3.63152
3.59252
3.60089
3.55762
3.57316
3.56623
3.60626
3.62124
3.65528
3.67117
3.69209
3.70396
3.71712
3.74448
3.75883
3.79226
3.81033
3.83054
3.85947
3.8793
3.9081
3.95114
3.9895
4.08793
4.26402
4.5201
4.45623
4.19689
1
1
1
1
1
1
1
1
1
1
1
1
1
1
1
1
1
1
1
1
1
1
1
1
1
1
1
1
1
1
1
1
1
1
1
0.999999
0.999999
0.999998
0.999998
0.999996
0.999995
0.999992
0.999989
0.999984
0.999979
0.999972
0.999962
0.99995
0.999934
0.999913
0.999886
0.99985
0.999805
0.999747
0.999673
0.999579
0.99946
0.999309
0.99912
0.998882
0.998586
0.998213
0.997756
0.997181
0.996482
0.995608
0.994552
0.993242
0.991667
0.989729
0.987413
0.984583
0.981219
0.97714
0.97232
0.966519
0.959707
0.951598
0.942152
0.931034
0.918129
0.902732
0.884697
0.863588
0.838792
0.812277
0.789628
0.766864
0.754949
0.790794
3.17245
3.61469
3.6189
3.61036
3.563
3.56925
3.56614
3.59655
3.61658
3.64906
3.67024
3.69329
3.7011
3.71467
3.74224
3.75753
3.79043
3.81075
3.83215
3.86194
3.88258
3.91163
3.95562
3.99539
4.10151
4.28415
4.5321
4.45003
4.17078
1
1
1
1
1
1
1
1
1
1
1
1
1
1
1
1
1
1
1
1
1
1
1
1
1
1
1
1
1
1
1
1
1
1
1
0.999999
0.999999
0.999999
0.999998
0.999996
0.999995
0.999992
0.999989
0.999985
0.99998
0.999973
0.999963
0.999951
0.999935
0.999914
0.999887
0.999852
0.999807
0.99975
0.999676
0.999581
0.999462
0.99931
0.999119
0.998878
0.998578
0.9982
0.997735
0.997151
0.996439
0.995548
0.994469
0.993128
0.991513
0.989521
0.987136
0.984216
0.98074
0.976517
0.971521
0.965516
0.958462
0.95004
0.940181
0.928394
0.914613
0.89848
0.879952
0.859563
0.837851
0.813232
0.779789
0.734291
0.646874
1.27521
3.44957
3.56885
3.59016
3.58328
3.57338
3.56309
3.57947
3.5879
3.61507
3.64111
3.66236
3.68527
3.69362
3.70844
3.73841
3.75422
3.78857
3.80982
3.83168
3.86208
3.88467
3.91614
3.96052
4.00464
4.11637
4.30089
4.54049
4.44559
4.14513
1
1
1
1
1
1
1
1
1
1
1
1
1
1
1
1
1
1
1
1
1
1
1
1
1
1
1
1
1
1
1
1
1
1
1
1
0.999999
0.999999
0.999998
0.999997
0.999995
0.999993
0.99999
0.999986
0.99998
0.999974
0.999965
0.999953
0.999937
0.999917
0.99989
0.999856
0.999812
0.999754
0.999681
0.999588
0.999469
0.999317
0.999127
0.998885
0.998584
0.998202
0.997733
0.997141
0.996416
0.995507
0.994404
0.99303
0.991372
0.989322
0.986863
0.983847
0.980252
0.975884
0.97071
0.96447
0.957119
0.948286
0.937925
0.925685
0.911586
0.895551
0.877336
0.8559
0.828763
0.794179
0.748156
0.716366
0.649545
2.34847
3.61315
3.56263
3.58513
3.5471
3.55859
3.55176
3.58858
3.58643
3.61998
3.63671
3.65499
3.6746
3.68396
3.70145
3.73657
3.75263
3.78768
3.80852
3.83049
3.86104
3.88687
3.92077
3.9656
4.0136
4.12986
4.31894
4.54851
4.43981
4.12388
1
1
1
1
1
1
1
1
1
1
1
1
1
1
1
1
1
1
1
1
1
1
1
1
1
1
1
1
1
1
1
1
1
1
1
1
0.999999
0.999999
0.999998
0.999997
0.999995
0.999993
0.99999
0.999986
0.999981
0.999975
0.999966
0.999954
0.999939
0.999919
0.999893
0.999859
0.999815
0.999758
0.999686
0.999592
0.999473
0.999321
0.999129
0.998886
0.998581
0.998196
0.997719
0.997118
0.996382
0.995456
0.994329
0.992922
0.991221
0.989112
0.986579
0.983465
0.979748
0.975216
0.969836
0.963321
0.955635
0.946448
0.935744
0.923154
0.908492
0.891133
0.869919
0.844709
0.815403
0.788314
0.766181
0.757837
0.760813
3.02898
3.62657
3.5781
3.58877
3.53374
3.54402
3.53236
3.57197
3.58278
3.61768
3.63204
3.65153
3.66816
3.6768
3.68949
3.73291
3.75068
3.78618
3.80644
3.82942
3.85936
3.8871
3.92338
3.96944
4.02341
4.14272
4.33678
4.55337
4.4343
4.10116
1
1
1
1
1
1
1
1
1
1
1
1
1
1
1
1
1
1
1
1
1
1
1
1
1
1
1
1
1
1
1
1
1
1
1
1
0.999999
0.999999
0.999998
0.999997
0.999995
0.999993
0.999991
0.999987
0.999982
0.999976
0.999967
0.999956
0.999941
0.999922
0.999896
0.999863
0.99982
0.999765
0.999693
0.999601
0.999483
0.999333
0.999142
0.998899
0.998595
0.998208
0.997728
0.997118
0.99637
0.995427
0.994276
0.992835
0.991089
0.988919
0.986306
0.983087
0.979234
0.974524
0.968925
0.96215
0.954169
0.944596
0.933352
0.919889
0.903801
0.88476
0.862975
0.841691
0.81859
0.793715
0.761671
0.689562
1.05338
3.33792
3.55892
3.577
3.56615
3.5431
3.53547
3.52642
3.5539
3.56942
3.60546
3.63039
3.64775
3.66301
3.6697
3.67879
3.72754
3.74655
3.78321
3.80446
3.82949
3.85853
3.88816
3.92593
3.97046
4.03008
4.15625
4.35636
4.55742
4.42635
4.0837
1
1
1
1
1
1
1
1
1
1
1
1
1
1
1
1
1
1
1
1
1
1
1
1
1
1
1
1
1
1
1
1
1
1
1
1
0.999999
0.999999
0.999998
0.999997
0.999996
0.999994
0.999991
0.999988
0.999983
0.999977
0.999969
0.999958
0.999944
0.999925
0.9999
0.999868
0.999826
0.999771
0.9997
0.999609
0.999492
0.999342
0.999151
0.998907
0.9986
0.99821
0.997723
0.997108
0.99635
0.995391
0.994217
0.992745
0.990953
0.988724
0.986029
0.9827
0.978708
0.97382
0.968004
0.960927
0.952545
0.942423
0.930447
0.916125
0.89968
0.881503
0.861443
0.836569
0.804911
0.760552
0.703599
0.631001
2.02552
3.55022
3.52027
3.56987
3.52901
3.53296
3.52084
3.53902
3.53845
3.56417
3.59105
3.62286
3.64184
3.65946
3.66291
3.67169
3.72179
3.7408
3.77753
3.80189
3.82883
3.85803
3.889
3.9275
3.97122
4.03705
4.1681
4.37066
4.55838
4.41767
4.06511
1
1
1
1
1
1
1
1
1
1
1
1
1
1
1
1
1
1
1
1
1
1
1
1
1
1
1
1
1
1
1
1
1
1
1
1
0.999999
0.999999
0.999998
0.999997
0.999996
0.999994
0.999992
0.999988
0.999984
0.999978
0.999971
0.99996
0.999946
0.999928
0.999904
0.999873
0.999832
0.999779
0.99971
0.99962
0.999505
0.999358
0.999169
0.998928
0.998622
0.998233
0.997744
0.997124
0.996353
0.99538
0.994184
0.992679
0.990843
0.988549
0.985771
0.982331
0.978194
0.973105
0.967016
0.959596
0.950787
0.940157
0.927724
0.913271
0.896604
0.876203
0.85123
0.820047
0.78414
0.750186
0.733594
0.726246
2.86695
3.60028
3.51314
3.55698
3.49852
3.5126
3.50593
3.53911
3.5266
3.56369
3.58222
3.61338
3.62929
3.65072
3.65488
3.66671
3.71707
3.73596
3.77142
3.79934
3.82851
3.85891
3.88999
3.92917
3.97507
4.04445
4.18082
4.38649
4.55674
4.40568
4.04564
1
1
1
1
1
1
1
1
1
1
1
1
1
1
1
1
1
1
1
1
1
1
1
1
1
1
1
1
1
1
1
1
1
1
1
1
0.999999
0.999999
0.999998
0.999998
0.999996
0.999995
0.999992
0.999989
0.999985
0.99998
0.999972
0.999963
0.999949
0.999932
0.999909
0.999879
0.999839
0.999787
0.999719
0.999632
0.999518
0.999372
0.999185
0.998945
0.998639
0.998249
0.997757
0.997134
0.996353
0.99537
0.994153
0.99262
0.990733
0.988387
0.985515
0.981961
0.977662
0.972361
0.966006
0.958256
0.949071
0.938066
0.925077
0.909268
0.890372
0.867707
0.84129
0.814116
0.790144
0.766256
0.724383
0.901744
3.20601
3.53695
3.53225
3.51918
3.49437
3.50063
3.48716
3.51739
3.51774
3.55716
3.57555
3.60636
3.61796
3.63977
3.64577
3.65899
3.71186
3.73186
3.765
3.79635
3.82656
3.85883
3.89067
3.92776
3.9805
4.05204
4.19309
4.39943
4.55223
4.39391
4.0282
1
1
1
1
1
1
1
1
1
1
1
1
1
1
1
1
1
1
1
1
1
1
1
1
1
1
1
1
1
1
1
1
1
1
1
1
0.999999
0.999999
0.999999
0.999998
0.999997
0.999995
0.999993
0.99999
0.999986
0.999981
0.999974
0.999965
0.999952
0.999936
0.999914
0.999885
0.999847
0.999797
0.999731
0.999646
0.999535
0.999393
0.999209
0.998973
0.99867
0.998284
0.997792
0.997169
0.99638
0.995387
0.994141
0.992591
0.990652
0.988249
0.98529
0.981609
0.977142
0.971653
0.965005
0.956977
0.947272
0.935511
0.921455
0.904646
0.88499
0.863126
0.839843
0.812181
0.772954
0.717725
0.624807
1.65553
3.44006
3.46589
3.51868
3.50227
3.49599
3.4818
3.4795
3.49462
3.50125
3.54313
3.56835
3.59815
3.60763
3.62854
3.63476
3.64963
3.70627
3.72754
3.759
3.792
3.82395
3.85863
3.89018
3.92718
3.98567
4.0589
4.20263
4.41165
4.54638
4.38327
4.00442
1
1
1
1
1
1
1
1
1
1
1
1
1
1
1
1
1
1
1
1
1
1
1
1
1
1
1
1
1
1
1
1
1
1
1
1
1
0.999999
0.999999
0.999998
0.999997
0.999996
0.999994
0.999991
0.999987
0.999983
0.999976
0.999968
0.999956
0.99994
0.999919
0.999892
0.999855
0.999807
0.999744
0.999662
0.999554
0.999415
0.999233
0.999001
0.9987
0.998318
0.997826
0.997204
0.99641
0.995414
0.994148
0.992575
0.990595
0.988135
0.98507
0.981313
0.976633
0.970988
0.964007
0.955527
0.945279
0.932897
0.918327
0.901168
0.881535
0.857804
0.826972
0.788721
0.740009
0.705242
0.646515
2.60539
3.53152
3.42665
3.51051
3.46632
3.47585
3.47098
3.47141
3.4788
3.48901
3.52453
3.55799
3.58983
3.59909
3.61859
3.62342
3.63996
3.6988
3.72285
3.75356
3.78707
3.81945
3.8555
3.88827
3.9268
3.99144
4.06517
4.212
4.42105
4.54021
4.37508
3.97656
1
1
1
1
1
1
1
1
1
1
1
1
1
1
1
1
1
1
1
1
1
1
1
1
1
1
1
1
1
1
1
1
1
1
1
1
1
0.999999
0.999999
0.999998
0.999997
0.999996
0.999994
0.999992
0.999989
0.999984
0.999978
0.99997
0.999959
0.999945
0.999925
0.999899
0.999864
0.999818
0.999758
0.999678
0.999574
0.999439
0.999263
0.999036
0.998741
0.998364
0.997876
0.99726
0.996463
0.995466
0.994182
0.992589
0.990564
0.988072
0.984905
0.981052
0.976205
0.970304
0.963012
0.954122
0.94343
0.930704
0.915404
0.896966
0.8737
0.84549
0.812448
0.781089
0.75291
0.729696
0.760526
3.00883
3.51244
3.44929
3.4695
3.44227
3.4554
3.44688
3.467
3.46588
3.48109
3.50945
3.54264
3.5741
3.58847
3.60751
3.61178
3.63137
3.68813
3.71627
3.74673
3.78088
3.81465
3.85314
3.88717
3.92691
3.994
4.0682
4.22196
4.42922
4.53392
4.36349
3.95126
1
1
1
1
1
1
1
1
1
1
1
1
1
1
1
1
1
1
1
1
1
1
1
1
1
1
1
1
1
1
1
1
1
1
1
1
1
0.999999
0.999999
0.999998
0.999998
0.999996
0.999995
0.999993
0.99999
0.999986
0.99998
0.999973
0.999963
0.999949
0.999931
0.999906
0.999874
0.999831
0.999773
0.999698
0.999598
0.999468
0.999297
0.999077
0.998787
0.998419
0.997935
0.997325
0.996529
0.995532
0.994241
0.992635
0.990573
0.988031
0.984794
0.980822
0.975802
0.969678
0.962087
0.952943
0.941724
0.928203
0.911107
0.890577
0.866348
0.840612
0.813328
0.782748
0.738051
0.64331
1.23658
3.25972
3.4285
3.45238
3.43733
3.43103
3.43059
3.4259
3.45145
3.44703
3.47737
3.49352
3.52769
3.55655
3.5742
3.59583
3.60141
3.62221
3.67739
3.70803
3.73859
3.77392
3.8095
3.85153
3.88551
3.92671
3.99267
4.07327
4.23006
4.43387
4.52757
4.35291
3.93335
1
1
1
1
1
1
1
1
1
1
1
1
1
1
1
1
1
1
1
1
1
1
1
1
1
1
1
1
1
1
1
1
1
1
1
1
1
0.999999
0.999999
0.999999
0.999998
0.999997
0.999995
0.999993
0.999991
0.999987
0.999982
0.999976
0.999966
0.999954
0.999937
0.999914
0.999883
0.999843
0.999788
0.999717
0.999622
0.999498
0.999332
0.99912
0.998838
0.998479
0.998003
0.997402
0.996613
0.995622
0.994328
0.992714
0.990627
0.988041
0.984736
0.980657
0.975486
0.96917
0.961291
0.951722
0.939654
0.924996
0.907358
0.886942
0.864164
0.837548
0.801533
0.750503
0.683705
0.580466
2.08818
3.40878
3.3461
3.44074
3.42043
3.41795
3.41138
3.41454
3.42596
3.42773
3.4662
3.47896
3.51497
3.54088
3.55861
3.58078
3.58942
3.6117
3.66743
3.69853
3.7289
3.76584
3.80456
3.84863
3.88466
3.92361
3.98932
4.07882
4.23669
4.43394
4.51999
4.3359
3.91569
1
1
1
1
1
1
1
1
1
1
1
1
1
1
1
1
1
1
1
1
1
1
1
1
1
1
1
1
1
1
1
1
1
1
1
1
1
1
0.999999
0.999999
0.999998
0.999997
0.999996
0.999994
0.999992
0.999989
0.999984
0.999978
0.99997
0.999958
0.999943
0.999922
0.999894
0.999856
0.999805
0.999739
0.999649
0.999531
0.999374
0.99917
0.998898
0.99855
0.998087
0.997498
0.996719
0.995736
0.994447
0.992829
0.990726
0.988103
0.984727
0.980556
0.97525
0.968736
0.960488
0.95035
0.937753
0.922705
0.904961
0.884278
0.857726
0.821233
0.775828
0.727579
0.700678
0.655861
2.65016
3.43625
3.33094
3.409
3.38081
3.40255
3.39856
3.39983
3.40514
3.41394
3.44422
3.46636
3.50224
3.52611
3.54397
3.56585
3.57667
3.59851
3.65638
3.68855
3.71898
3.75773
3.7988
3.84573
3.88133
3.92007
3.98586
4.0829
4.23736
4.43485
4.51229
4.3171
3.90163
1
1
1
1
1
1
1
1
1
1
1
1
1
1
1
1
1
1
1
1
1
1
1
1
1
1
1
1
1
1
1
1
1
1
1
1
1
1
0.999999
0.999999
0.999998
0.999998
0.999997
0.999995
0.999993
0.99999
0.999986
0.999981
0.999973
0.999963
0.999949
0.99993
0.999904
0.999869
0.999822
0.99976
0.999675
0.999565
0.999415
0.999222
0.99896
0.998625
0.998176
0.997602
0.996838
0.99587
0.994591
0.99298
0.990871
0.988229
0.984805
0.98055
0.975103
0.968347
0.959767
0.949264
0.936367
0.92101
0.901909
0.877103
0.844598
0.8086
0.776829
0.745162
0.707835
0.799074
2.92912
3.39665
3.34274
3.36577
3.35403
3.37949
3.37387
3.38885
3.38932
3.40046
3.42345
3.45117
3.48803
3.51357
3.53018
3.55122
3.56269
3.58258
3.6432
3.67711
3.70856
3.74872
3.79371
3.84186
3.8767
3.91639
3.98377
4.08487
4.23522
4.4289
4.50127
4.29728
3.88836
1
1
1
1
1
1
1
1
1
1
1
1
1
1
1
1
1
1
1
1
1
1
1
1
1
1
1
1
1
1
1
1
1
1
1
1
1
1
0.999999
0.999999
0.999999
0.999998
0.999997
0.999996
0.999994
0.999992
0.999988
0.999983
0.999977
0.999968
0.999955
0.999938
0.999914
0.999883
0.99984
0.999782
0.999704
0.999601
0.999461
0.999278
0.99903
0.998711
0.998278
0.997724
0.996981
0.996032
0.994772
0.993173
0.991068
0.988415
0.984955
0.98062
0.975041
0.968094
0.959267
0.948522
0.935032
0.918423
0.896589
0.869494
0.840314
0.81061
0.777974
0.72802
0.613238
1.21773
3.14082
3.32654
3.3361
3.3371
3.33602
3.34731
3.34997
3.3691
3.37334
3.38711
3.40604
3.43329
3.47099
3.50074
3.51721
3.53696
3.54842
3.56805
3.62834
3.66572
3.69843
3.74005
3.78935
3.83535
3.86956
3.91268
3.98061
4.08531
4.2331
4.42132
4.49055
4.27724
3.87795
1
1
1
1
1
1
1
1
1
1
1
1
1
1
1
1
1
1
1
1
1
1
1
1
1
1
1
1
1
1
1
1
1
1
1
1
1
1
1
0.999999
0.999999
0.999998
0.999998
0.999996
0.999995
0.999993
0.99999
0.999986
0.99998
0.999972
0.999961
0.999945
0.999924
0.999896
0.999857
0.999804
0.999732
0.999637
0.999507
0.999336
0.999102
0.998798
0.998385
0.997853
0.997133
0.996211
0.994976
0.993401
0.991313
0.988665
0.985184
0.980795
0.975087
0.968001
0.95894
0.947763
0.933436
0.915255
0.892667
0.867591
0.839822
0.806072
0.754041
0.674512
0.541084
1.88252
3.27176
3.23757
3.32607
3.3159
3.31726
3.32131
3.32846
3.34202
3.3538
3.37
3.39047
3.41593
3.45273
3.4859
3.5027
3.52098
3.53327
3.55324
3.61226
3.65263
3.6867
3.73089
3.78414
3.82821
3.86141
3.9107
3.98051
4.0825
4.23212
4.41053
4.47531
4.25896
3.86887
1
1
1
1
1
1
1
1
1
1
1
1
1
1
1
1
1
1
1
1
1
1
1
1
1
1
1
1
1
1
1
1
1
1
1
1
1
1
1
0.999999
0.999999
0.999999
0.999998
0.999997
0.999996
0.999994
0.999992
0.999988
0.999983
0.999976
0.999966
0.999953
0.999934
0.999909
0.999874
0.999827
0.999761
0.999674
0.999554
0.999396
0.999178
0.998893
0.998503
0.997996
0.997306
0.996415
0.995213
0.993671
0.991608
0.988976
0.985489
0.981071
0.975291
0.968069
0.958737
0.947077
0.93195
0.913179
0.891314
0.865823
0.833815
0.786831
0.720141
0.658595
0.570328
2.36877
3.30201
3.19286
3.30287
3.28004
3.30314
3.29887
3.30465
3.3155
3.33194
3.34962
3.37567
3.39838
3.43582
3.46899
3.48654
3.5064
3.5209
3.54064
3.59897
3.64165
3.67676
3.72205
3.7759
3.82012
3.85319
3.90654
3.97659
4.07976
4.22934
4.40006
4.46304
4.23901
3.85945
1
1
1
1
1
1
1
1
1
1
1
1
1
1
1
1
1
1
1
1
1
1
1
1
1
1
1
1
1
1
1
1
1
1
1
1
1
1
1
1
0.999999
0.999999
0.999998
0.999998
0.999997
0.999995
0.999993
0.99999
0.999986
0.99998
0.999971
0.99996
0.999943
0.999921
0.99989
0.999848
0.999789
0.99971
0.999601
0.999456
0.999254
0.998989
0.998622
0.998143
0.997486
0.996633
0.995471
0.993972
0.991949
0.989351
0.985878
0.981452
0.975617
0.968261
0.958688
0.946651
0.931072
0.912216
0.889695
0.861474
0.820689
0.767571
0.715647
0.682478
0.617706
2.61049
3.27985
3.19096
3.25728
3.24541
3.27821
3.27604
3.28483
3.29237
3.31094
3.32833
3.35945
3.382
3.41781
3.45087
3.47076
3.49111
3.50672
3.52523
3.58201
3.62806
3.66417
3.71158
3.76417
3.8114
3.8478
3.90222
3.97246
4.07268
4.22168
4.38841
4.44783
4.21851
3.84807
1
1
1
1
1
1
1
1
1
1
1
1
1
1
1
1
1
1
1
1
1
1
1
1
1
1
1
1
1
1
1
1
1
1
1
1
1
1
1
1
0.999999
0.999999
0.999999
0.999998
0.999997
0.999996
0.999994
0.999992
0.999988
0.999983
0.999976
0.999966
0.999952
0.999933
0.999905
0.999868
0.999816
0.999746
0.999647
0.999515
0.999331
0.999087
0.998747
0.998299
0.997679
0.996868
0.995756
0.994307
0.992338
0.989787
0.986356
0.981948
0.976102
0.968651
0.958881
0.946496
0.930758
0.911274
0.887001
0.853628
0.808487
0.767039
0.725219
0.673958
0.783289
2.76748
3.23227
3.1908
3.22114
3.21462
3.24621
3.24711
3.26472
3.27047
3.28886
3.3045
3.3376
3.36046
3.39704
3.42981
3.45402
3.47452
3.49161
3.50918
3.56486
3.6143
3.65178
3.70287
3.7518
3.80143
3.84301
3.89791
3.96731
4.06175
4.21217
4.38022
4.43699
4.19736
3.83565
1
1
1
1
1
1
1
1
1
1
1
1
1
1
1
1
1
1
1
1
1
1
1
1
1
1
1
1
1
1
1
1
1
1
1
1
1
1
1
1
1
0.999999
0.999999
0.999998
0.999998
0.999997
0.999995
0.999993
0.99999
0.999986
0.99998
0.999972
0.99996
0.999943
0.99992
0.999887
0.999842
0.99978
0.999692
0.999573
0.999407
0.999183
0.998871
0.998455
0.997877
0.997111
0.996056
0.994665
0.992766