/*--------------------------------*- C++ -*----------------------------------*\
| =========                 |                                                 |
| \\      /  F ield         | OpenFOAM: The Open Source CFD Toolbox           |
|  \\    /   O peration     | Version:  2.2.x                                 |
|   \\  /    A nd           | Web:      www.OpenFOAM.org                      |
|    \\/     M anipulation  |                                                 |
\*---------------------------------------------------------------------------*/
FoamFile
{
    version     2.0;
    format      ascii;
    class       volScalarField;
    location    "0.85";
    object      p;
}
// * * * * * * * * * * * * * * * * * * * * * * * * * * * * * * * * * * * * * //

dimensions      [1 -1 -2 0 0 0 0];

internalField   nonuniform List<scalar> 
14161
(
0.199776
0.199828
0.199802
0.199772
0.199731
0.199677
0.199614
0.199535
0.199438
0.199323
0.199194
0.199043
0.198877
0.1987
0.198487
0.198253
0.198
0.197725
0.197463
0.197195
0.196881
0.19654
0.196225
0.195949
0.195702
0.195384
0.194989
0.194706
0.194503
0.194342
0.194273
0.194169
0.194072
0.193975
0.194022
0.194104
0.194253
0.194491
0.194829
0.195279
0.195801
0.196323
0.196959
0.197788
0.198757
0.199742
0.200857
0.20211
0.20308
0.204769
0.205403
0.258596
1.22283
1.61652
1.58393
1.54649
1.51692
1.47795
1.44072
1.40057
1.36039
1.32158
1.28239
1.24672
1.21776
1.19248
1.17338
1.15992
1.14999
1.14235
1.1368
1.13441
1.13651
1.13711
1.13939
1.14004
1.1288
1.12594
1.12585
1.1109
1.10698
1.11586
1.09976
1.0963
1.10192
1.08086
1.07616
1.08177
1.04191
1.03056
0.989643
0.933513
0.870273
0.872876
0.885138
1.01157
1.06747
1.20821
1.35245
1.49249
1.6026
1.68139
1.7396
1.78556
1.8226
1.85295
1.87923
1.90235
1.92308
1.94249
1.96187
1.98166
2.00356
2.02415
2.04881
2.06886
2.07842
2.08764
2.0968
0.199776
0.199829
0.199801
0.199769
0.199732
0.199681
0.199612
0.199531
0.199439
0.199325
0.19919
0.199044
0.19888
0.198693
0.198488
0.198254
0.198001
0.197728
0.197462
0.19719
0.19688
0.196541
0.196226
0.19595
0.195698
0.195381
0.194985
0.194702
0.194497
0.19434
0.194271
0.194164
0.194064
0.193977
0.194002
0.194085
0.19423
0.194453
0.194786
0.195242
0.195773
0.196268
0.196894
0.197726
0.198662
0.199624
0.200678
0.202021
0.203214
0.20448
0.206274
0.244066
1.1731
1.60423
1.58059
1.53893
1.50705
1.46569
1.42835
1.3882
1.34877
1.31041
1.27125
1.23699
1.20973
1.18575
1.16637
1.15384
1.14455
1.13732
1.13247
1.13
1.13303
1.13285
1.13322
1.1331
1.12017
1.11695
1.11827
1.10318
1.10073
1.11108
1.09352
1.08967
1.09517
1.07294
1.06705
1.07208
1.03365
1.02238
0.977536
0.931522
0.871562
0.865694
0.894205
1.11324
1.28211
1.44087
1.57166
1.66192
1.72746
1.77837
1.81823
1.85104
1.87836
1.9018
1.92228
1.94079
1.95751
1.97328
1.989
2.00513
2.02288
2.04005
2.05407
2.07009
2.08063
2.09145
2.09685
0.199776
0.199828
0.199802
0.199772
0.19973
0.199678
0.199615
0.199533
0.199433
0.199327
0.199198
0.199043
0.198872
0.198695
0.198486
0.198252
0.198002
0.197734
0.197462
0.197186
0.196874
0.196542
0.196227
0.19595
0.195687
0.195372
0.194976
0.194691
0.194483
0.194324
0.194261
0.194152
0.194048
0.193952
0.193962
0.194026
0.194155
0.194382
0.194672
0.195123
0.195592
0.196059
0.196656
0.197532
0.198415
0.199328
0.200313
0.201445
0.202502
0.203383
0.204226
0.237762
1.19486
1.61515
1.61454
1.56408
1.53355
1.48755
1.44445
1.39883
1.35382
1.30692
1.26519
1.22796
1.19503
1.17035
1.15356
1.14166
1.13293
1.12506
1.12083
1.11937
1.12423
1.12462
1.1245
1.12369
1.11092
1.10678
1.10826
1.09443
1.09388
1.10246
1.08715
1.08343
1.08602
1.06615
1.05859
1.06346
1.02748
1.01402
0.973156
0.924924
0.872267
0.874867
1.05772
1.29584
1.48977
1.63601
1.72171
1.77767
1.8176
1.85023
1.87645
1.89935
1.9188
1.9363
1.9514
1.96499
1.97657
1.98707
1.99665
2.00638
2.01818
2.02857
2.04385
2.05738
2.06564
2.07766
2.08478
0.199776
0.199829
0.199801
0.199769
0.199732
0.199681
0.199609
0.199534
0.199441
0.199325
0.199192
0.199041
0.198882
0.198693
0.198483
0.198251
0.197996
0.19774
0.197471
0.197176
0.196868
0.196545
0.196224
0.19595
0.195673
0.19536
0.194964
0.194677
0.194455
0.194296
0.194233
0.194127
0.19402
0.193911
0.193866
0.193934
0.194044
0.194247
0.194499
0.194867
0.195279
0.19577
0.196351
0.197184
0.197979
0.198864
0.199858
0.201078
0.202624
0.204314
0.206819
0.265187
1.23602
1.618
1.60913
1.55318
1.51672
1.46956
1.42697
1.3804
1.33548
1.29249
1.24822
1.20566
1.17301
1.1506
1.13143
1.11894
1.11084
1.10527
1.10215
1.10102
1.10539
1.10679
1.10634
1.10444
1.0931
1.08931
1.09147
1.07937
1.07894
1.08853
1.07334
1.06958
1.07018
1.05155
1.04305
1.04901
1.01518
0.993825
0.952539
0.918583
0.854306
0.963096
1.29158
1.52989
1.68307
1.76674
1.82291
1.85938
1.88773
1.90963
1.92721
1.94229
1.95522
1.9667
1.9765
1.98586
1.99267
1.99872
2.00424
2.0106
2.01867
2.02585
2.03782
2.04858
2.05563
2.06503
2.0701
0.199776
0.199829
0.199802
0.199772
0.199731
0.199677
0.199615
0.199533
0.199438
0.199326
0.19919
0.199045
0.19888
0.198694
0.198483
0.198249
0.198006
0.197743
0.197459
0.197173
0.196864
0.196547
0.196231
0.195944
0.195649
0.195339
0.194955
0.194662
0.194431
0.194265
0.194189
0.194082
0.193973
0.193828
0.193749
0.193783
0.193879
0.194025
0.194252
0.194538
0.194858
0.195262
0.195848
0.19651
0.197198
0.198015
0.198859
0.199795
0.201067
0.202868
0.204173
0.251226
1.22586
1.63757
1.6248
1.56183
1.51445
1.46066
1.41079
1.35952
1.308
1.25883
1.2147
1.17593
1.14225
1.11892
1.10097
1.09003
1.08242
1.07694
1.07493
1.07397
1.07823
1.08104
1.08274
1.07908
1.06857
1.06468
1.06578
1.05567
1.0539
1.06397
1.04972
1.04639
1.04628
1.02866
1.02022
1.02252
0.989992
0.974443
0.958268
0.913683
0.90417
1.21866
1.47593
1.63266
1.73336
1.80398
1.85362
1.88854
1.91277
1.93136
1.94569
1.95861
1.96888
1.97842
1.9858
1.9934
1.99833
2.00299
2.00673
2.01056
2.01766
2.02313
2.03297
2.04159
2.04844
2.05459
2.05671
0.199777
0.199829
0.199801
0.19977
0.199732
0.199682
0.199612
0.19953
0.19944
0.199331
0.199192
0.199039
0.198879
0.198698
0.198483
0.198251
0.197997
0.197748
0.197472
0.197162
0.196849
0.196543
0.196241
0.195942
0.195622
0.195309
0.194946
0.194644
0.194403
0.194222
0.19413
0.194025
0.193892
0.193718
0.19359
0.193595
0.193646
0.193755
0.193906
0.194106
0.194342
0.19472
0.195199
0.195705
0.196262
0.196987
0.197753
0.198851
0.200139
0.201639
0.203048
0.267148
1.22635
1.62719
1.57981
1.51882
1.46074
1.40369
1.34943
1.29877
1.2495
1.20601
1.17155
1.14592
1.08833
1.08141
1.06296
1.05173
1.04551
1.04104
1.04028
1.03924
1.04363
1.04608
1.04982
1.04636
1.0365
1.03353
1.03362
1.02421
1.02234
1.0328
1.02063
1.01714
1.01511
1.00262
0.998925
1.00411
0.979361
0.970949
0.963585
0.937708
1.1617
1.40252
1.52634
1.60425
1.70298
1.79259
1.85728
1.89404
1.92055
1.93959
1.9542
1.96608
1.97585
1.98409
1.99039
1.99627
1.99994
2.00387
2.00657
2.0097
2.01642
2.02085
2.0301
2.03707
2.0425
2.04667
2.04681
0.199777
0.199829
0.199802
0.199772
0.199731
0.199677
0.199616
0.199539
0.199437
0.19932
0.199196
0.199052
0.198881
0.198692
0.198479
0.198251
0.198011
0.197744
0.197465
0.197152
0.19684
0.19654
0.196262
0.195947
0.195585
0.195258
0.194949
0.194628
0.194371
0.194171
0.194052
0.193949
0.193794
0.193596
0.193402
0.193353
0.193357
0.193395
0.193469
0.193572
0.193692
0.193943
0.19422
0.194484
0.19473
0.195076
0.19549
0.196067
0.196796
0.197871
0.200977
0.223374
1.12129
1.61572
1.52843
1.45575
1.39964
1.34687
1.29396
1.24832
1.1944
1.15599
1.14111
1.08864
1.05042
1.0474
1.02348
1.017
1.01234
1.00953
1.00701
1.00656
1.0122
1.01241
1.01707
1.01544
1.00708
1.00404
1.00385
0.996192
0.994987
1.00327
0.995195
0.993756
0.995654
0.992968
0.993654
0.998677
0.988159
0.985398
1.00195
1.22884
1.41339
1.49956
1.49228
1.55673
1.63164
1.74647
1.83136
1.8814
1.91287
1.93399
1.95041
1.96369
1.97454
1.98312
1.98982
1.99563
1.99903
2.00252
2.00479
2.00771
2.01412
2.01854
2.02747
2.03388
2.0378
2.03947
2.04085
0.199778
0.19983
0.199802
0.19977
0.199732
0.199681
0.199614
0.199531
0.199441
0.199331
0.199195
0.199047
0.198878
0.198697
0.198488
0.19825
0.198
0.197751
0.197471
0.197142
0.196832
0.196534
0.196269
0.195948
0.195556
0.195224
0.194921
0.194608
0.19433
0.194111
0.193958
0.193847
0.193667
0.193452
0.193192
0.193083
0.193027
0.192996
0.192985
0.193002
0.19303
0.193114
0.193188
0.193231
0.193309
0.193306
0.193125
0.193007
0.192505
0.192382
0.190727
0.19186
0.853305
1.55444
1.40135
1.32596
1.28925
1.2581
1.21715
1.19834
1.12522
1.1165
1.09237
1.04942
1.01734
1.0055
0.994052
0.994066
0.986568
0.983083
0.981875
0.984089
0.987164
0.986121
0.992712
0.991948
0.986793
0.9831
0.983632
0.97908
0.979206
0.987693
0.98991
0.987215
0.99046
0.993059
0.99982
1.02154
1.04168
1.14131
1.33967
1.48393
1.54715
1.49958
1.4866
1.5258
1.58084
1.70137
1.79676
1.86258
1.89868
1.92352
1.94172
1.95662
1.96879
1.97871
1.98632
1.99275
1.99681
2.00082
2.00287
2.00575
2.01184
2.01604
2.02451
2.03021
2.03303
2.03426
2.03554
0.199779
0.19983
0.199802
0.199773
0.199732
0.199679
0.199612
0.199536
0.19944
0.199328
0.199195
0.199051
0.198887
0.198696
0.198485
0.198248
0.198004
0.197751
0.197471
0.19714
0.196827
0.196531
0.196272
0.195941
0.195529
0.195191
0.194872
0.194586
0.194294
0.194044
0.193857
0.193716
0.193504
0.193275
0.19297
0.192794
0.192655
0.192538
0.192439
0.192311
0.192203
0.192039
0.19188
0.191631
0.191448
0.190971
0.190228
0.188882
0.187004
0.185842
0.180645
0.184421
0.344977
1.27015
1.30242
1.23596
1.2084
1.19204
1.15475
1.15377
1.07314
1.1096
1.04968
1.0183
1.0114
0.971035
0.980439
0.983853
0.967532
0.96774
0.967222
0.967858
0.969951
0.970958
0.978479
0.979153
0.97621
0.974705
0.978503
0.975267
0.977031
0.98374
0.991518
0.994085
1.00875
1.05014
1.08362
1.18581
1.33179
1.47478
1.59993
1.64588
1.58692
1.53802
1.50801
1.5161
1.5673
1.67278
1.76839
1.84185
1.88288
1.90987
1.92956
1.94539
1.95888
1.97027
1.97938
1.98711
1.99221
1.99725
1.99969
2.00307
2.00928
2.0134
2.02189
2.02734
2.02935
2.03059
2.03166
0.19978
0.199831
0.199803
0.199774
0.199732
0.199678
0.199616
0.199536
0.199438
0.199331
0.1992
0.199051
0.198885
0.198693
0.198486
0.198259
0.198005
0.197748
0.19747
0.197137
0.196819
0.196526
0.196267
0.195931
0.195497
0.195148
0.194831
0.194559
0.19428
0.193984
0.193731
0.193555
0.19332
0.193058
0.192735
0.192504
0.192296
0.192096
0.191892
0.191683
0.191452
0.191194
0.190894
0.19063
0.190182
0.189445
0.188245
0.185906
0.183003
0.180148
0.174275
0.173565
0.580074
0.884114
1.05532
1.17032
1.15808
1.19112
1.15196
1.15882
1.07089
1.09733
1.03135
1.00711
1.01228
0.962323
0.975409
0.976377
0.956395
0.959685
0.959463
0.961375
0.964316
0.966372
0.975957
0.977679
0.974358
0.974455
0.98235
0.982707
0.994384
1.0101
1.05292
1.07929
1.16261
1.26199
1.39515
1.50669
1.62573
1.71165
1.728
1.66566
1.60397
1.5549
1.54211
1.54976
1.58304
1.66118
1.7545
1.82717
1.87004
1.89808
1.91771
1.93386
1.94814
1.96057
1.97096
1.97995
1.98652
1.99228
1.99555
1.99931
2.00589
2.01039
2.019
2.02459
2.02601
2.02748
2.02935
0.199781
0.199831
0.199804
0.199773
0.199734
0.199682
0.199615
0.199537
0.199445
0.19933
0.199201
0.199051
0.198884
0.1987
0.198489
0.198257
0.198015
0.197744
0.197465
0.197137
0.196815
0.196512
0.196255
0.195919
0.195467
0.195105
0.194783
0.194516
0.194259
0.193931
0.193609
0.193345
0.193094
0.192815
0.192491
0.192225
0.191957
0.191697
0.1914
0.191119
0.190764
0.190404
0.189998
0.189615
0.188931
0.187786
0.186255
0.184301
0.182758
0.178514
0.177262
0.167665
0.590724
0.916491
0.978614
1.06388
1.17812
1.20188
1.16118
1.1623
1.10118
1.07654
1.06728
1.0045
1.00792
0.973398
0.976373
0.969106
0.958748
0.960896
0.960131
0.964197
0.965479
0.968174
0.980157
0.985484
0.987181
0.998995
1.02746
1.04918
1.11458
1.17977
1.29058
1.39379
1.48518
1.58795
1.68298
1.74432
1.77709
1.77569
1.73401
1.67569
1.6259
1.58791
1.57356
1.57369
1.60537
1.66616
1.74894
1.81964
1.86178
1.88894
1.90808
1.92332
1.93769
1.95036
1.96153
1.97167
1.97964
1.98607
1.99029
1.99458
2.00176
2.00638
2.01558
2.02152
2.02231
2.02451
2.02754
0.199782
0.199832
0.199804
0.199776
0.199734
0.199681
0.199619
0.199539
0.199444
0.199329
0.199203
0.19906
0.198888
0.198694
0.198493
0.198267
0.198009
0.197741
0.197467
0.197137
0.196812
0.196495
0.19623
0.195899
0.195446
0.195067
0.194732
0.194451
0.19421
0.193894
0.193473
0.193142
0.192847
0.192556
0.192254
0.191946
0.191642
0.191327
0.19102
0.19068
0.190338
0.190012
0.18973
0.189289
0.188876
0.188138
0.1877
0.187343
0.188437
0.188753
0.201512
0.348586
0.79206
0.914912
0.921844
0.990126
1.15186
1.21436
1.21853
1.20505
1.11494
1.10266
1.06395
1.0141
1.02837
0.989666
0.980685
0.975755
0.967279
0.97025
0.970097
0.979491
0.98368
0.992941
1.02587
1.04478
1.07869
1.14827
1.22501
1.33462
1.42384
1.51133
1.60068
1.67978
1.73726
1.76788
1.78802
1.79594
1.7844
1.76415
1.72942
1.68348
1.64446
1.61393
1.605
1.60558
1.63275
1.67813
1.74931
1.81595
1.85675
1.88205
1.90001
1.91422
1.92744
1.9402
1.95149
1.96249
1.97185
1.97924
1.98415
1.98898
1.99686
2.00183
2.01208
2.01836
2.01782
2.02098
2.02541
0.199783
0.199833
0.199806
0.199775
0.199736
0.199684
0.199619
0.199539
0.199444
0.199335
0.199207
0.199057
0.198893
0.198703
0.198494
0.198265
0.198007
0.197743
0.197466
0.19715
0.196813
0.196482
0.196195
0.195862
0.195436
0.195036
0.194683
0.194365
0.194144
0.193826
0.193338
0.192948
0.19261
0.192304
0.19201
0.191677
0.191326
0.190996
0.190681
0.190361
0.190135
0.189837
0.189484
0.189115
0.188677
0.188343
0.188435
0.188623
0.189484
0.189718
0.197394
0.540031
0.873416
0.90849
0.886321
0.947189
1.00467
1.17263
1.22186
1.23208
1.13509
1.13294
1.06659
1.02662
1.05997
0.995053
0.992826
0.994144
0.987684
1.00193
1.00912
1.0419
1.06377
1.12487
1.20053
1.29393
1.38082
1.46306
1.54627
1.62855
1.69946
1.74453
1.77181
1.78742
1.79576
1.79837
1.79319
1.78744
1.77336
1.75557
1.72862
1.69484
1.66356
1.64114
1.6312
1.63385
1.65427
1.69257
1.75341
1.81365
1.85314
1.87694
1.89353
1.90622
1.91833
1.93026
1.94138
1.9526
1.96321
1.97165
1.97754
1.98262
1.99097
1.99595
2.00675
2.01338
2.01411
2.01706
2.02174
0.199784
0.199834
0.199806
0.199778
0.199737
0.199685
0.199618
0.199543
0.199448
0.199334
0.199213
0.199066
0.198894
0.198703
0.198494
0.198272
0.198014
0.197737
0.197463
0.197161
0.196819
0.196474
0.19615
0.195807
0.195423
0.19501
0.194639
0.194284
0.194035
0.193706
0.193247
0.192777
0.192394
0.192062
0.191751
0.191387
0.191008
0.190679
0.190357
0.190127
0.189903
0.189543
0.189195
0.188743
0.188297
0.187905
0.18763
0.187316
0.186855
0.185794
0.187934
0.660806
0.902513
0.910066
0.894599
0.896495
0.928266
0.979964
1.13766
1.17691
1.19737
1.11522
1.11345
1.07054
1.05825
1.0035
1.03453
1.04859
1.05494
1.1181
1.17035
1.26276
1.34825
1.42446
1.50858
1.58757
1.66001
1.71488
1.7478
1.76842
1.78219
1.79064
1.79639
1.79674
1.79278
1.78782
1.78265
1.77576
1.76325
1.74771
1.72748
1.70366
1.67973
1.66488
1.65672
1.66038
1.67644
1.70975
1.75945
1.81187
1.84975
1.87257
1.88757
1.8991
1.90992
1.92067
1.93145
1.94233
1.95375
1.96332
1.97009
1.97591
1.98469
1.98983
2.0015
2.0086
2.00941
2.01302
2.01858
0.199785
0.199835
0.199808
0.199779
0.199737
0.199687
0.19962
0.199545
0.199453
0.199341
0.199214
0.199067
0.198895
0.198711
0.198504
0.198275
0.198021
0.197741
0.197453
0.197158
0.196828
0.196479
0.196111
0.195756
0.195389
0.194993
0.194593
0.194208
0.19389
0.193548
0.193154
0.192661
0.192241
0.191845
0.191459
0.191067
0.190673
0.190335
0.190016
0.18983
0.189568
0.189209
0.18883
0.18832
0.187949
0.187682
0.187375
0.187541
0.186383
0.188625
0.217389
0.760099
0.913182
0.913156
0.900547
0.896277
0.884102
0.905308
0.991734
1.04441
1.1969
1.11408
1.17693
1.10078
1.09236
1.08494
1.15999
1.22363
1.31009
1.38641
1.47078
1.54966
1.6215
1.6835
1.72358
1.74871
1.76876
1.77957
1.78881
1.79021
1.78907
1.7844
1.7844
1.78505
1.78165
1.78
1.77354
1.76568
1.75516
1.74302
1.72735
1.71031
1.69334
1.68352
1.67946
1.68437
1.69683
1.72529
1.7651
1.8111
1.8468
1.86866
1.88234
1.8927
1.90229
1.91182
1.9216
1.93204
1.94355
1.95423
1.96206
1.96882
1.97773
1.98296
1.9953
2.0027
2.00411
2.00822
2.01398
0.199787
0.199836
0.199809
0.19978
0.199738
0.19969
0.199625
0.199547
0.199454
0.199344
0.199219
0.199071
0.198904
0.198712
0.198509
0.198284
0.198027
0.19775
0.197446
0.197148
0.196833
0.196484
0.196093
0.195709
0.195334
0.194979
0.194578
0.194147
0.193736
0.193364
0.193005
0.192605
0.192104
0.191637
0.191191
0.19077
0.190357
0.189995
0.189664
0.18948
0.189163
0.188804
0.188463
0.187972
0.18768
0.18763
0.187443
0.188133
0.187003
0.192183
0.339775
0.850421
0.923219
0.921017
0.910297
0.902287
0.894814
0.883122
0.891017
0.948403
1.1678
1.21321
1.26063
1.16582
1.27332
1.34008
1.40955
1.4955
1.57049
1.63794
1.68708
1.71833
1.74228
1.75664
1.76465
1.77021
1.77146
1.77373
1.77682
1.77711
1.77797
1.77342
1.77258
1.77117
1.77035
1.76924
1.76352
1.75714
1.74816
1.73855
1.72651
1.71476
1.70413
1.69888
1.69827
1.70331
1.71362
1.7381
1.76988
1.81068
1.84389
1.86498
1.8777
1.88687
1.89521
1.90361
1.91226
1.92186
1.933
1.94435
1.95341
1.96123
1.9701
1.97555
1.98884
1.99673
1.99847
2.00286
2.00948
0.199788
0.199837
0.19981
0.199782
0.199741
0.199691
0.199627
0.199551
0.199457
0.199349
0.199224
0.199073
0.198912
0.198726
0.198516
0.198284
0.198025
0.197758
0.197455
0.197137
0.196829
0.196488
0.196081
0.195678
0.195285
0.19493
0.194565
0.194096
0.193627
0.193186
0.192805
0.192449
0.191999
0.191415
0.190935
0.190495
0.19008
0.189691
0.189372
0.189047
0.188613
0.188155
0.18757
0.18714
0.186811
0.186463
0.185993
0.186133
0.185186
0.191388
0.521569
0.873343
0.911658
0.906796
0.901521
0.895925
0.891286
0.880566
0.870222
0.951768
1.15991
1.33873
1.40275
1.44512
1.51947
1.58139
1.63468
1.66966
1.69941
1.7182
1.73392
1.74529
1.75196
1.7571
1.75578
1.75538
1.75719
1.75902
1.76033
1.76267
1.76255
1.76107
1.75875
1.75811
1.75764
1.75732
1.75341
1.74834
1.74151
1.73419
1.72582
1.71791
1.71198
1.71005
1.71259
1.71901
1.72817
1.74761
1.77456
1.80997
1.8409
1.8611
1.87322
1.8813
1.88854
1.89596
1.90344
1.91218
1.92267
1.93397
1.94401
1.95303
1.96208
1.96769
1.9818
1.99004
1.99217
1.99685
2.00359
0.19979
0.199838
0.199812
0.199784
0.199743
0.199693
0.19963
0.199555
0.199459
0.199355
0.19923
0.199083
0.198916
0.198729
0.198525
0.198293
0.198037
0.197762
0.197461
0.197136
0.196824
0.196482
0.196077
0.195657
0.19525
0.194869
0.194499
0.194059
0.193526
0.193054
0.192616
0.192258
0.191803
0.191192
0.190671
0.190206
0.189775
0.189503
0.189121
0.188615
0.187913
0.187365
0.186826
0.186268
0.185698
0.184977
0.184076
0.182307
0.180012
0.18004
0.658701
0.893982
0.910975
0.906687
0.906786
0.904881
0.910969
0.919554
0.911986
1.08766
1.34335
1.55741
1.62276
1.64076
1.66292
1.68017
1.69447
1.70476
1.71293
1.71693
1.71695
1.72
1.72753
1.73178
1.73375
1.73443
1.73413
1.73576
1.73866
1.74258
1.74494
1.74657
1.74485
1.74506
1.74524
1.74568
1.74351
1.73953
1.73429
1.72886
1.72408
1.72066
1.7184
1.71775
1.72082
1.72937
1.73812
1.75483
1.77911
1.8093
1.83749
1.8566
1.86874
1.87593
1.8822
1.88848
1.89501
1.90277
1.91253
1.92347
1.93396
1.94422
1.95343
1.95935
1.97442
1.98306
1.98563
1.99051
1.9978
0.199792
0.19984
0.199814
0.199786
0.199745
0.199695
0.199631
0.19956
0.199466
0.199359
0.199234
0.199089
0.198927
0.198741
0.198533
0.198299
0.19805
0.197774
0.197474
0.197145
0.196812
0.196466
0.196078
0.195648
0.195229
0.194812
0.194414
0.193963
0.193446
0.192963
0.192472
0.192001
0.191529
0.190983
0.190457
0.189967
0.189508
0.189203
0.18873
0.188089
0.187337
0.186761
0.186259
0.185792
0.185473
0.185041
0.185345
0.183789
0.187185
0.242995
0.778451
0.900727
0.906387
0.906007
0.906361
0.905589
0.919983
0.961002
0.99508
1.31785
1.56218
1.70353
1.70211
1.69711
1.69295
1.69382
1.69449
1.6924
1.69222
1.69156
1.69046
1.69035
1.69191
1.69876
1.70366
1.70494
1.70693
1.7112
1.71607
1.72115
1.72605
1.7287
1.7297
1.73065
1.73083
1.73109
1.73027
1.72737
1.72466
1.72205
1.7202
1.71983
1.72068
1.72173
1.72615
1.73481
1.74626
1.76095
1.78333
1.80898
1.83393
1.85175
1.86358
1.87072
1.87608
1.88139
1.88697
1.89373
1.90264
1.91297
1.92337
1.93462
1.9444
1.95081
1.96677
1.97577
1.97865
1.98361
1.99087
0.199794
0.199841
0.199816
0.199788
0.199746
0.199699
0.199637
0.199562
0.199471
0.199366
0.199241
0.199098
0.198936
0.198752
0.198545
0.198313
0.198062
0.197782
0.197483
0.197161
0.196809
0.196453
0.196061
0.19564
0.195209
0.194791
0.194335
0.193834
0.193349
0.192893
0.192387
0.191808
0.191271
0.190751
0.19028
0.189779
0.189264
0.188822
0.188287
0.187612
0.186915
0.186416
0.186113
0.185899
0.185866
0.185977
0.186909
0.186902
0.19664
0.445161
0.871336
0.906308
0.904352
0.905067
0.90756
0.91004
0.935414
1.05546
1.19942
1.55542
1.72255
1.73273
1.70844
1.69837
1.69002
1.68206
1.67714
1.67252
1.6695
1.66821
1.66717
1.664
1.66313
1.66577
1.66939
1.67488
1.67784
1.68149
1.68668
1.69108
1.69825
1.7048
1.70919
1.7109
1.71285
1.71443
1.7157
1.71525
1.71455
1.71324
1.71305
1.71487
1.7181
1.72157
1.72725
1.73549
1.75055
1.76441
1.78563
1.80767
1.83028
1.84698
1.85848
1.86579
1.87012
1.87471
1.87934
1.88512
1.89308
1.90262
1.9127
1.92447
1.93487
1.942
1.95892
1.96821
1.97131
1.97639
1.98385
0.199796
0.199843
0.199818
0.19979
0.199751
0.199702
0.199641
0.199567
0.199478
0.199373
0.199249
0.199108
0.198947
0.198764
0.198558
0.198328
0.198076
0.197798
0.197489
0.197178
0.196826
0.196448
0.196046
0.195616
0.19521
0.194779
0.194262
0.19374
0.193259
0.192798
0.192256
0.191628
0.191066
0.190526
0.190122
0.189624
0.189033
0.18835
0.187758
0.187175
0.186537
0.18604
0.185414
0.184875
0.184033
0.183214
0.181964
0.179663
0.181683
0.621978
0.892691
0.908199
0.905966
0.907892
0.914596
0.933424
0.972085
1.23848
1.49186
1.72088
1.74174
1.71111
1.6943
1.67936
1.67058
1.66434
1.65946
1.65461
1.65113
1.64953
1.64804
1.64455
1.64187
1.63832
1.63921
1.64316
1.64625
1.65215
1.65699
1.66358
1.67098
1.68004
1.68663
1.69066
1.69359
1.69535
1.69763
1.69942
1.70158
1.70294
1.70559
1.70978
1.71372
1.71902
1.72589
1.73471
1.75023
1.76544
1.78545
1.80545
1.82597
1.84207
1.85332
1.86059
1.86475
1.86835
1.87194
1.87682
1.88376
1.89245
1.9021
1.91391
1.92477
1.93294
1.95064
1.96013
1.96348
1.96875
1.97615
0.199798
0.199845
0.19982
0.199793
0.199754
0.199706
0.199646
0.199572
0.199484
0.199381
0.199259
0.19912
0.198959
0.198777
0.198572
0.198345
0.198093
0.197815
0.197506
0.19719
0.196842
0.196454
0.196048
0.19562
0.195177
0.194728
0.19422
0.193703
0.193177
0.19266
0.192081
0.191481
0.190916
0.190372
0.18993
0.189364
0.188672
0.187952
0.187281
0.186688
0.186083
0.185562
0.184969
0.184535
0.183804
0.183786
0.18208
0.185195
0.23744
0.762161
0.888624
0.899475
0.90455
0.906913
0.92929
1.01445
1.1291
1.49306
1.70221
1.74223
1.71013
1.69044
1.67247
1.66081
1.65339
1.64828
1.64461
1.64031
1.63707
1.63437
1.63175
1.62859
1.62388
1.61894
1.61791
1.61782
1.61975
1.62439
1.62806
1.63588
1.64054
1.64945
1.65749
1.66568
1.67179
1.67629
1.68059
1.68525
1.68934
1.69178
1.69553
1.70015
1.70649
1.71242
1.72035
1.73083
1.74657
1.76282
1.78296
1.80289
1.82162
1.83699
1.84799
1.85529
1.85978
1.86221
1.86494
1.86888
1.8747
1.88248
1.89169
1.90318
1.91448
1.92368
1.94199
1.95171
1.95543
1.9609
1.96828
0.199801
0.199847
0.199822
0.199796
0.199757
0.19971
0.199651
0.199579
0.199492
0.19939
0.199269
0.199131
0.198972
0.198792
0.19859
0.198364
0.198113
0.197835
0.197533
0.197206
0.19685
0.196457
0.196062
0.195645
0.195175
0.194674
0.194187
0.193698
0.193153
0.192523
0.191912
0.191325
0.190764
0.190305
0.18974
0.189088
0.188301
0.187662
0.187046
0.186529
0.186129
0.185911
0.185927
0.186025
0.186108
0.186997
0.187137
0.197454
0.511443
0.868875
0.895669
0.895864
0.908646
0.921805
0.96475
1.18606
1.43594
1.68597
1.74146
1.70958
1.68724
1.66708
1.65214
1.64171
1.63511
1.63
1.62683
1.62463
1.62271
1.62041
1.6181
1.61572
1.61098
1.60706
1.60266
1.59884
1.59865
1.60015
1.6024
1.60854
1.61325
1.62263
1.63064
1.64164
1.64925
1.65466
1.6603
1.66563
1.67074
1.67601
1.68192
1.6882
1.69505
1.70315
1.71325
1.72566
1.74076
1.7582
1.77923
1.79926
1.81676
1.83142
1.84222
1.84977
1.85416
1.85626
1.85829
1.86122
1.86585
1.87268
1.88135
1.8924
1.90396
1.914
1.93278
1.94285
1.94701
1.95275
1.95993
0.199803
0.199849
0.199825
0.199799
0.199761
0.199715
0.199656
0.199585
0.1995
0.199399
0.199281
0.199145
0.198988
0.19881
0.19861
0.198386
0.198136
0.197861
0.19756
0.197231
0.196869
0.196482
0.196087
0.195647
0.195168
0.194661
0.19419
0.193684
0.193086
0.192429
0.191805
0.191206
0.19072
0.190157
0.189505
0.188692
0.18804
0.187393
0.18679
0.18619
0.185616
0.184954
0.184356
0.18327
0.181864
0.179532
0.176803
0.178479
0.682782
0.889219
0.904862
0.906076
0.916874
0.980513
1.0655
1.44237
1.66417
1.74236
1.71016
1.68758
1.66531
1.64807
1.6357
1.62684
1.62062
1.61604
1.61237
1.61005
1.60771
1.60603
1.6037
1.60241
1.59864
1.59585
1.59054
1.58577
1.58278
1.58087
1.58142
1.58429
1.58821
1.59618
1.60279
1.61412
1.62273
1.63225
1.6407
1.64793
1.6546
1.66159
1.6678
1.67497
1.68402
1.69438
1.70516
1.71734
1.73394
1.75156
1.77386
1.79456
1.81157
1.82555
1.83635
1.84398
1.84841
1.85058
1.85172
1.85367
1.85714
1.86312
1.87122
1.88159
1.89331
1.90386
1.92321
1.93374
1.93844
1.94437
1.95129
0.199806
0.199851
0.199828
0.199802
0.199765
0.19972
0.199662
0.199593
0.199509
0.199409
0.199293
0.199159
0.199005
0.19883
0.198633
0.198411
0.198164
0.197891
0.197592
0.197259
0.196893
0.19653
0.196127
0.195662
0.195167
0.19467
0.194202
0.193659
0.192993
0.192373
0.191738
0.191205
0.190607
0.189921
0.18908
0.188394
0.187778
0.18722
0.186796
0.186423
0.186012
0.185616
0.18541
0.18524
0.186255
0.186139
0.197839
0.348042
0.840133
0.905459
0.906245
0.925
0.948058
1.14591
1.35554
1.65497
1.73134
1.70021
1.67657
1.65403
1.63711
1.62492
1.61606
1.60983
1.60536
1.60196
1.59821
1.59557
1.59377
1.59275
1.59071
1.58995
1.58686
1.58502
1.58004
1.57588
1.57085
1.5665
1.56471
1.5642
1.56652
1.57142
1.57716
1.5881
1.59711
1.60926
1.61803
1.62555
1.63293
1.64112
1.64993
1.65964
1.67053
1.68108
1.69315
1.7075
1.72467
1.74395
1.76651
1.78812
1.80525
1.81903
1.82994
1.83777
1.84246
1.84497
1.84514
1.84603
1.84846
1.85375
1.86125
1.87079
1.88258
1.89329
1.91318
1.92433
1.92955
1.93572
1.94232
0.199809
0.199854
0.199831
0.199806
0.19977
0.199725
0.199669
0.199601
0.199518
0.199421
0.199308
0.199176
0.199025
0.198853
0.198659
0.198441
0.198195
0.197928
0.197632
0.197297
0.196939
0.196582
0.196166
0.195684
0.195194
0.194738
0.194223
0.193576
0.192946
0.192323
0.191786
0.19123
0.1905
0.189548
0.188782
0.188104
0.187522
0.186994
0.186735
0.186276
0.185607
0.18491
0.183804
0.182723
0.181624
0.179896
0.184565
0.613847
0.907743
0.91784
0.914403
0.962871
1.02753
1.38228
1.61962
1.73133
1.70142
1.67441
1.64922
1.63047
1.61642
1.60698
1.59953
1.59469
1.5907
1.58792
1.58499
1.58275
1.58087
1.57937
1.57744
1.5763
1.57473
1.57328
1.57009
1.56629
1.56122
1.55633
1.55179
1.54842
1.54897
1.55059
1.55398
1.56272
1.5706
1.58326
1.59311
1.60331
1.61382
1.62426
1.63497
1.64467
1.6548
1.66695
1.68102
1.69705
1.71477
1.73476
1.75752
1.77999
1.7978
1.8119
1.82304
1.83114
1.83626
1.83893
1.83837
1.83837
1.83992
1.84455
1.85141
1.86
1.87178
1.88239
1.90295
1.91468
1.92046
1.92678
1.93303
0.199812
0.199856
0.199834
0.19981
0.199774
0.199731
0.199676
0.19961
0.199529
0.199434
0.199323
0.199195
0.199047
0.198879
0.198689
0.198473
0.19823
0.197976
0.197678
0.197343
0.197001
0.196648
0.196204
0.195731
0.195266
0.194822
0.194261
0.193571
0.192966
0.192349
0.191932
0.191271
0.190336
0.18934
0.188527
0.187856
0.187281
0.186698
0.186432
0.185888
0.185156
0.184418
0.183553
0.183407
0.182604
0.18704
0.255437
0.794191
0.916601
0.929998
0.946963
1.09475
1.29173
1.61037
1.71909
1.68824
1.66193
1.63766
1.621
1.60931
1.60009
1.59208
1.58499
1.58031
1.57655
1.57425
1.5719
1.57018
1.568
1.5662
1.56475
1.56356
1.56262
1.56128
1.55981
1.55575
1.55213
1.54766
1.54197
1.5369
1.53463
1.53322
1.53504
1.54033
1.54704
1.55874
1.56846
1.5806
1.59118
1.60166
1.61256
1.62459
1.6371
1.65096
1.66644
1.6833
1.7016
1.72269
1.7467
1.77046
1.78945
1.80396
1.8155
1.82412
1.82964
1.83224
1.83152
1.8306
1.83162
1.83545
1.8415
1.84924
1.86092
1.87119
1.89234
1.90468
1.91103
1.91754
1.92347
0.199816
0.199859
0.199837
0.199814
0.19978
0.199737
0.199684
0.199619
0.199541
0.199449
0.199341
0.199216
0.199072
0.198908
0.198722
0.198508
0.198279
0.198031
0.197729
0.197402
0.197078
0.196726
0.196256
0.195805
0.19538
0.194929
0.194312
0.193616
0.193005
0.19241
0.192036
0.191337
0.190311
0.189246
0.188392
0.187687
0.187113
0.186554
0.186367
0.186064
0.185641
0.185301
0.185078
0.186214
0.186781
0.196553
0.577107
0.905192
0.92112
0.962158
1.0186
1.33399
1.58059
1.72758
1.69615
1.66392
1.63529
1.61477
1.59948
1.58839
1.57954
1.57306
1.56794
1.5645
1.56142
1.55957
1.55783
1.5567
1.55503
1.55353
1.55184
1.55055
1.54943
1.54784
1.54734
1.54474
1.54203
1.53888
1.53338
1.52861
1.52359
1.51949
1.52
1.52184
1.52565
1.53528
1.54352
1.557
1.56855
1.58038
1.59304
1.60703
1.62165
1.63586
1.65117
1.6687
1.68877
1.7111
1.73631
1.76118
1.78112
1.79623
1.80807
1.817
1.82263
1.82527
1.82447
1.82285
1.82334
1.8263
1.83156
1.83854
1.85003
1.85992
1.88128
1.89434
1.90127
1.90797
1.91347
0.19982
0.199862
0.199841
0.199818
0.199785
0.199744
0.199692
0.19963
0.199554
0.199465
0.19936
0.199239
0.199099
0.198942
0.19876
0.19855
0.198335
0.198093
0.197789
0.197474
0.197174
0.196818
0.196344
0.195911
0.195507
0.195055
0.194422
0.193713
0.1931
0.192505
0.192122
0.191408
0.190386
0.189235
0.188311
0.187458
0.186646
0.185875
0.185092
0.18442
0.18321
0.181592
0.179323
0.175468
0.175136
0.192372
0.706323
0.889794
0.919248
1.033
1.24679
1.5667
1.72804
1.7062
1.67211
1.64483
1.62336
1.60503
1.58812
1.5756
1.56612
1.56025
1.55544
1.55175
1.54848
1.54632
1.5449
1.54384
1.54266
1.54099
1.53939
1.53788
1.53704
1.5356
1.53463
1.53285
1.5313
1.52935
1.52448
1.5209
1.51485
1.5091
1.507
1.50571
1.50736
1.51421
1.52164
1.53482
1.54604
1.55841
1.57127
1.58521
1.60009
1.61601
1.63342
1.65321
1.67504
1.69873
1.72406
1.74952
1.77063
1.78692
1.79963
1.80927
1.81527
1.81811
1.81704
1.81506
1.81509
1.81715
1.82145
1.82777
1.83897
1.84852
1.86975
1.88358
1.89118
1.89811
1.90322
0.199824
0.199866
0.199845
0.199823
0.199791
0.199752
0.199702
0.199641
0.199568
0.199482
0.199381
0.199264
0.199128
0.198981
0.198804
0.198601
0.198399
0.198164
0.197863
0.197564
0.197284
0.196934
0.196472
0.196049
0.195632
0.195218
0.194643