/*--------------------------------*- C++ -*----------------------------------*\
| =========                 |                                                 |
| \\      /  F ield         | OpenFOAM: The Open Source CFD Toolbox           |
|  \\    /   O peration     | Version:  2.2.x                                 |
|   \\  /    A nd           | Web:      www.OpenFOAM.org                      |
|    \\/     M anipulation  |                                                 |
\*---------------------------------------------------------------------------*/
FoamFile
{
    version     2.0;
    format      ascii;
    class       volScalarField;
    location    "0.85";
    object      T;
}
// * * * * * * * * * * * * * * * * * * * * * * * * * * * * * * * * * * * * * //

dimensions      [0 0 0 1 0 0 0];

internalField   nonuniform List<scalar> 
14161
(
0.999065
0.999287
0.999178
0.999051
0.998875
0.998642
0.998377
0.998052
0.997645
0.997162
0.99663
0.995995
0.995285
0.994555
0.993674
0.992705
0.991657
0.990492
0.989373
0.988263
0.987009
0.985585
0.984236
0.98305
0.982043
0.980836
0.979222
0.978016
0.977116
0.976369
0.976078
0.975672
0.975346
0.975107
0.975456
0.975882
0.976539
0.977542
0.978946
0.980844
0.983116
0.985362
0.988002
0.991285
0.995369
0.999562
1.0043
1.0097
1.01378
1.02083
1.02296
1.15462
2.6621
2.98766
2.95673
2.92357
2.89931
2.86582
2.83415
2.80176
2.76567
2.73168
2.69923
2.66756
2.6415
2.618
2.60001
2.58601
2.57746
2.57052
2.5665
2.56355
2.56493
2.56514
2.56746
2.57052
2.56204
2.5587
2.56101
2.54874
2.5406
2.54999
2.53483
2.52645
2.53229
2.51172
2.5029
2.50987
2.46649
2.45215
2.40626
2.34397
2.27287
2.27744
2.26808
2.41391
2.44273
2.57205
2.68181
2.77792
2.85731
2.91858
2.96254
2.99596
3.02111
3.04251
3.06067
3.07786
3.09474
3.10971
3.12373
3.13578
3.14701
3.15337
3.16723
3.17516
3.19256
3.22318
3.31115
0.999068
0.999293
0.99917
0.999027
0.99887
0.998668
0.998375
0.998026
0.997647
0.997172
0.996597
0.995983
0.995302
0.994518
0.993672
0.992702
0.991652
0.990503
0.989367
0.988244
0.986998
0.985584
0.984238
0.98305
0.982022
0.980815
0.979195
0.977988
0.977082
0.976351
0.976059
0.975633
0.975295
0.975125
0.975373
0.975793
0.976422
0.977365
0.978755
0.980682
0.983004
0.985124
0.987702
0.991016
0.994963
0.999062
1.00353
1.00925
1.01457
1.01978
1.0273
1.13822
2.59635
2.94704
2.92461
2.88773
2.8634
2.82989
2.79919
2.7675
2.7327
2.70123
2.66779
2.63728
2.61445
2.5924
2.57312
2.56122
2.55484
2.54881
2.54513
2.54023
2.54221
2.54221
2.54228
2.54371
2.53348
2.52801
2.53149
2.51764
2.51104
2.52048
2.50288
2.49311
2.49639
2.47399
2.46042
2.46509
2.42203
2.4055
2.34921
2.29756
2.23068
2.22425
2.23368
2.47882
2.6531
2.76776
2.88391
2.97417
3.02423
3.05975
3.08489
3.10319
3.11726
3.13288
3.14656
3.15905
3.17136
3.18178
3.19053
3.19644
3.201
3.1991
3.19395
3.18574
3.1977
3.22372
3.30646
0.999064
0.999287
0.999176
0.999056
0.998875
0.998647
0.99839
0.998046
0.997613
0.997176
0.99665
0.996
0.995259
0.994525
0.993661
0.992688
0.991649
0.990524
0.989374
0.988233
0.986967
0.98558
0.984234
0.983054
0.981987
0.980784
0.979163
0.977953
0.977029
0.976282
0.976003
0.975571
0.975219
0.975024
0.97522
0.975531
0.976086
0.977054
0.978245
0.980149
0.982196
0.984167
0.986573
0.990136
0.99389
0.997824
1.00195
1.00671
1.0112
1.01452
1.01747
1.08432
2.61621
2.94462
2.95708
2.92086
2.90561
2.87262
2.84364
2.80865
2.77532
2.73785
2.69976
2.66726
2.63638
2.61329
2.59787
2.58479
2.57812
2.56925
2.56557
2.562
2.56745
2.56869
2.56895
2.57007
2.56018
2.55378
2.55773
2.54418
2.5418
2.55023
2.53498
2.52931
2.53103
2.51196
2.49795
2.50466
2.46358
2.44517
2.39783
2.34428
2.29202
2.28767
2.50397
2.7123
2.83468
2.96405
3.03886
3.08036
3.10776
3.12766
3.1389
3.15137
3.1637
3.17393
3.17882
3.18457
3.19598
3.20798
3.21909
3.22778
3.23068
3.22331
3.21109
3.18958
3.19072
3.21447
3.29724
0.999069
0.999293
0.999171
0.999027
0.99887
0.998665
0.998355
0.998037
0.997658
0.997173
0.996617
0.995972
0.995314
0.994524
0.993657
0.992695
0.991614
0.990536
0.989425
0.988201
0.986936
0.985589
0.984209
0.983063
0.981937
0.980731
0.979115
0.977898
0.976912
0.976147
0.975854
0.975429
0.975074
0.97485
0.974791
0.975132
0.975611
0.976471
0.977519
0.979075
0.980832
0.982883
0.985186
0.988639
0.99204
0.995862
1.00016
1.00544
1.01226
1.01946
1.0302
1.17258
2.67681
2.98668
2.98764
2.94498
2.91694
2.87812
2.8458
2.80869
2.77593
2.737
2.70573
2.66806
2.63725
2.61853
2.60183
2.58846
2.58237
2.57373
2.57153
2.57054
2.57387
2.57572
2.57552
2.57497
2.56586
2.55947
2.5643
2.55296
2.54899
2.55995
2.5433
2.53952
2.53914
2.51943
2.50545
2.51427
2.47416
2.4494
2.39346
2.36389
2.2754
2.39284
2.74615
2.91296
3.04989
3.11109
3.14916
3.17058
3.18764
3.19789
3.20028
3.20306
3.20502
3.20358
3.20258
3.2118
3.22333
3.23346
3.24113
3.24324
3.23727
3.22249
3.20673
3.18494
3.1867
3.20813
3.28996
0.999065
0.999289
0.999177
0.999055
0.998876
0.998642
0.998384
0.998043
0.997642
0.997171
0.996593
0.995992
0.9953
0.994524
0.993647
0.992671
0.99167
0.990568
0.98937
0.988183
0.986903
0.98558
0.984236
0.983039
0.981839
0.980632
0.97907
0.977837
0.976817
0.976027
0.975661
0.97523
0.97488
0.974541
0.97432
0.974481
0.974897
0.975502
0.976441
0.977651
0.97897
0.98056
0.982879
0.985684
0.988625
0.992164
0.995981
0.999986
1.00514
1.01275
1.01797
1.11918
2.64663
2.99198
2.99684
2.94795
2.91316
2.87236
2.83512
2.79797
2.76114
2.72246
2.6871
2.64448
2.62273
2.59611
2.58063
2.56688
2.55537
2.54428
2.54291
2.54032
2.54424
2.54767
2.55207
2.54876
2.53921
2.53743
2.53992
2.52945
2.52485
2.53448
2.51786
2.51314
2.5125
2.49186
2.48147
2.48597
2.44962
2.4247
2.40837
2.36797
2.32034
2.69641
2.87347
3.0291
3.14584
3.19892
3.21414
3.22479
3.23462
3.23721
3.2333
3.23098
3.22687
3.22029
3.21824
3.22639
3.23569
3.24333
3.24639
3.24235
3.23224
3.21415
3.19645
3.17781
3.18293
3.20477
3.28587
0.999072
0.999293
0.999171
0.999031
0.998877
0.998676
0.99838
0.998019
0.997647
0.997204
0.996624
0.995965
0.99529
0.994547
0.993658
0.992691
0.991609
0.99057
0.989439
0.988156
0.986849
0.985551
0.98427
0.983032
0.981733
0.980497
0.979019
0.977756
0.976703
0.975852
0.975406
0.974987
0.974543
0.97411
0.973667
0.973696
0.973911
0.974355
0.974973
0.975789
0.976709
0.978166
0.980184
0.982381
0.984798
0.987928
0.991338
0.996269
1.00233
1.00897
1.01439
1.18008
2.66954
3.03603
3.00659
2.94658
2.89808
2.85171
2.79893
2.74698
2.70043
2.66003
2.60685
2.59715
2.53524
2.51826
2.49861
2.48211
2.4722
2.46032
2.45556
2.45016
2.45509
2.45661
2.46507
2.46227
2.45372
2.45274
2.45325
2.44421
2.43922
2.44992
2.43523
2.431
2.42615
2.41048
2.40255
2.41041
2.37967
2.36707
2.37054
2.30684
2.56531
2.75732
2.88272
2.99014
3.11335
3.20586
3.24911
3.25976
3.26605
3.2636
3.2556
3.24917
3.24144
3.23251
3.23053
3.23673
3.24244
3.24616
3.24394
3.23534
3.22201
3.20317
3.18747
3.174
3.18074
3.20527
3.28648
0.999069
0.999293
0.999174
0.999053
0.998875
0.998637
0.998387
0.998078
0.997647
0.997138
0.99662
0.996028
0.995315
0.994526
0.993628
0.99267
0.99168
0.990563
0.98941
0.988121
0.986799
0.985505
0.984359
0.98309
0.981606
0.980255
0.979007
0.97768
0.976568
0.975651
0.975073
0.974662
0.974125
0.973616
0.972888
0.97267
0.972668
0.972798
0.973065
0.973452
0.973835
0.974691
0.975886
0.977074
0.978127
0.979484
0.98127
0.983899
0.987493
0.99259
1.00607
1.05715
2.52767
3.03565
2.96574
2.88921
2.82572
2.76456
2.70193
2.64342
2.59683
2.52572
2.51582
2.46822
2.41346
2.40906
2.37908
2.36259
2.3529
2.34717
2.34046
2.33569
2.34167
2.34113
2.34832
2.34775
2.34034
2.34072
2.34157
2.33483
2.33227
2.3408
2.3312
2.3293
2.33043
2.32705
2.32667
2.33229
2.31963
2.30959
2.30299
2.56793
2.6664
2.85441
2.82906
2.92757
3.02637
3.16701
3.25817
3.28537
3.28525
3.27543
3.26562
3.25752
3.24885
3.24043
3.23888
3.24281
3.24485
3.24458
3.23761
3.2252
3.2117
3.19598
3.18151
3.17312
3.18072
3.20699
3.28979
0.999076
0.999297
0.999177
0.999035
0.998874
0.998666
0.998381
0.998023
0.997648
0.997202
0.996634
0.99601
0.995289
0.994537
0.993678
0.992685
0.99162
0.990586
0.989451
0.988089
0.986774
0.985479
0.984378
0.98311
0.981498
0.980114
0.978868
0.977583
0.976394
0.975401
0.974684
0.974238
0.973577
0.972998
0.97201
0.971537
0.971264
0.971088
0.97099
0.97101
0.971039
0.971278
0.971598
0.971812
0.972201
0.972241
0.971559
0.971284
0.969542
0.969417
0.962033
0.965716
2.30785
3.01449
2.81313
2.69649
2.63049
2.58966
2.5221
2.50952
2.43516
2.40717
2.38877
2.34565
2.31221
2.29895
2.2831
2.28121
2.27273
2.26961
2.26519
2.26703
2.2708
2.26865
2.27609
2.27578
2.27165
2.27066
2.27129
2.26751
2.2674
2.27627
2.27894
2.2763
2.2787
2.27871
2.28216
2.30421
2.31834
2.4137
2.62424
2.67995
2.81238
2.75208
2.7646
2.85162
2.92792
3.07925
3.19546
3.2727
3.29494
3.29006
3.27567
3.26509
3.25523
3.24777
3.24535
3.24687
3.24596
3.24293
3.23328
3.21978
3.20701
3.19182
3.17698
3.17277
3.18161
3.21208
3.29197
0.999079
0.999298
0.999174
0.999055
0.998877
0.998657
0.998366
0.99805
0.997652
0.997184
0.996617
0.996014
0.99534
0.994541
0.993662
0.992666
0.991636
0.990589
0.98945
0.988084
0.986753
0.985465
0.984387
0.983091
0.981399
0.979982
0.978631
0.977451
0.976226
0.975112
0.974268
0.973712
0.972902
0.972224
0.971033
0.97029
0.969664
0.969107
0.96862
0.967996
0.967447
0.966617
0.965763
0.96448
0.963677
0.961722
0.958988
0.953326
0.945079
0.94009
0.916805
0.933903
1.25894
2.60474
2.5703
2.4888
2.45023
2.44441
2.39205
2.41373
2.32185
2.36473
2.33249
2.28612
2.2876
2.23986
2.25013
2.2577
2.24118
2.24349
2.2485
2.25145
2.25518
2.25596
2.26481
2.26561
2.2629
2.26216
2.26594
2.26221
2.26324
2.26773
2.27465
2.27459
2.28485
2.33272
2.35915
2.46069
2.60532
2.73766
2.81762
2.90185
2.84773
2.82525
2.78888
2.81079
2.88072
3.01092
3.13334
3.23406
3.27584
3.28923
3.28454
3.27215
3.26003
3.25167
3.24844
3.24822
3.24532
3.24065
3.22953
3.21631
3.20426
3.18799
3.17312
3.173
3.18369
3.21786
3.29746
0.999084
0.9993
0.99918
0.999056
0.99888
0.998647
0.998388
0.998054
0.997637
0.99719
0.99665
0.996027
0.99533
0.99452
0.993657
0.992718
0.99165
0.990574
0.989443
0.988069
0.986722
0.985441
0.984363
0.983057
0.981275
0.979801
0.978433
0.977272
0.976134
0.974889
0.973786
0.973085
0.972168
0.971278
0.969976
0.969006
0.968109
0.967219
0.966305
0.96533
0.964255
0.962994
0.96147
0.960263
0.958414
0.95547
0.950863
0.940972
0.928217
0.914664
0.887857
0.877173
1.98634
2.11563
2.25671
2.41241
2.38479
2.44816
2.4055
2.44535
2.35364
2.39507
2.34646
2.30484
2.3273
2.27285
2.29116
2.29893
2.27761
2.28155
2.28318
2.28698
2.29265
2.29599
2.30834
2.30775
2.30259
2.3008
2.30745
2.30408
2.31228
2.32222
2.36707
2.38524
2.46691
2.55645
2.68552
2.76786
2.88084
2.94234
2.99022
2.93618
2.86941
2.83328
2.82482
2.8398
2.88311
2.97328
3.0849
3.19341
3.24828
3.27426
3.28394
3.28184
3.2695
3.25662
3.25119
3.24905
3.24477
3.23853
3.22667
3.21381
3.20178
3.18309
3.16943
3.17302
3.18598
3.22401
3.30065
0.999088
0.999301
0.999185
0.999046
0.998884
0.998667
0.998382
0.998051
0.997676
0.997197
0.996653
0.996019
0.995314
0.994557
0.993674
0.992693
0.991694
0.990565
0.989424
0.988079
0.986715
0.985396
0.984323
0.983009
0.981163
0.979633
0.978235
0.977056
0.975995
0.974685
0.973324
0.972228
0.971222
0.97016
0.968862
0.96775
0.966614
0.965503
0.964206
0.962942
0.961309
0.95956
0.957494
0.955794
0.952949
0.94853
0.941963
0.933245
0.926242
0.906022
0.901133
0.807986
1.73565
2.22613
2.34276
2.37895
2.45686
2.52809
2.47858
2.48786
2.45043
2.40233
2.40837
2.3432
2.35047
2.31668
2.3278
2.32181
2.31389
2.31727
2.31678
2.32086
2.32183
2.32345
2.33544
2.3385
2.33709
2.34556
2.37423
2.39037
2.45815
2.51673
2.61015
2.72598
2.80506
2.89163
2.98809
3.0185
3.05944
3.06288
3.02349
2.95987
2.90146
2.86631
2.85039
2.85011
2.88803
2.95541
3.04563
3.15071
3.21637
3.252
3.27138
3.28032
3.27793
3.26416
3.25465
3.25008
3.24438
3.23653
3.22447
3.21202
3.19851
3.17696
3.166
3.17318
3.1885
3.23097
3.30242
0.999092
0.999306
0.999183
0.999065
0.998886
0.998658
0.998402
0.998066
0.997668
0.997182
0.996651
0.996063
0.995346
0.994527
0.993686
0.992753
0.991674
0.990541
0.989417
0.988069
0.986703
0.98533
0.984224
0.98292
0.981079
0.979479
0.978012
0.976759
0.975751
0.974555
0.972821
0.971423
0.970196
0.968992
0.967769
0.966479
0.96519
0.963848
0.962498
0.960977
0.959365
0.957808
0.956625
0.954855
0.953461
0.950659
0.948861
0.947261
0.952607
0.953995
1.01397
1.38168
2.11674
2.27829
2.28224
2.32007
2.49629
2.56735
2.54907
2.55936
2.47756
2.44085
2.41898
2.36685
2.37883
2.34558
2.33984
2.3363
2.32949
2.33404
2.33281
2.34132
2.34318
2.34675
2.38295
2.39715
2.42943
2.50272
2.5757
2.68235
2.76834
2.8521
2.93519
3.00222
3.05838
3.06551
3.09496
3.10351
3.09462
3.06987
3.03432
2.98234
2.92589
2.89128
2.87653
2.87321
2.90298
2.9526
3.0219
3.11099
3.1826
3.2267
3.25459
3.27245
3.27995
3.27323
3.25999
3.25187
3.2445
3.23538
3.2233
3.21067
3.19448
3.17064
3.16348
3.17361
3.19076
3.23669
3.30379
0.999096
0.999309
0.999192
0.999055
0.998894
0.998677
0.998403
0.998065
0.997663
0.997211
0.996676
0.996042
0.995362
0.994577
0.9937
0.992743
0.991656
0.990552
0.989408
0.988123
0.986714
0.985288
0.984085
0.98274
0.981032
0.979349
0.97782
0.9764
0.97548
0.974261
0.97231
0.970665
0.969219
0.96789
0.966655
0.965272
0.963789
0.962352
0.960927
0.959408
0.958414
0.957213
0.955845
0.954684
0.953044
0.951679
0.952153
0.953067
0.957014
0.958083
0.992904
1.81976
2.20568
2.2526
2.20927
2.30631
2.33401
2.51315
2.53642
2.5871
2.46172
2.47909
2.42486
2.35461
2.40085
2.34529
2.34076
2.34268
2.33626
2.35518
2.36219
2.39995
2.41636
2.47525
2.54844
2.63235
2.72054
2.79947
2.87797
2.95521
3.02987
3.06848
3.08926
3.10902
3.12273
3.12247
3.11703
3.10524
3.09359
3.07643
3.04671
3.00633
2.95568
2.91988
2.90108
2.89709
2.91586
2.95327
3.00714
3.07847
3.14862
3.19796
3.23568
3.25735
3.27276
3.27592
3.26702
3.25563
3.24524
3.23527
3.22308
3.20913
3.18949
3.16415
3.16023
3.17266
3.19403
3.24098
3.30365
0.999101
0.999313
0.999191
0.999074
0.998899
0.998678
0.998393
0.998083
0.997687
0.997202
0.996695
0.99609
0.995376
0.994568
0.993688
0.992774
0.991704
0.990528
0.989379
0.988151
0.986735
0.985274
0.983909
0.982494
0.980953
0.97923
0.977638
0.976064
0.97503
0.973719
0.97196
0.969974
0.968317
0.96685
0.965524
0.964025
0.962405
0.960935
0.959405
0.958314
0.957412
0.956009
0.954793
0.953384
0.951533
0.949863
0.948502
0.947006
0.944547
0.939559
0.937965
1.95598
2.23239
2.24393
2.22441
2.2214
2.27276
2.28563
2.49659
2.47549
2.51917
2.44276
2.43038
2.4008
2.40726
2.34707
2.37917
2.39636
2.39676
2.46466
2.51383
2.59637
2.688
2.75171
2.81922
2.8939
2.96193
3.02303
3.04171
3.06041
3.08787
3.10753
3.12234
3.12904
3.13024
3.11799
3.1182
3.10517
3.09009
3.07356
3.05085
3.02231
2.98176
2.94759
2.92352
2.91664
2.92792
2.95916
3.00329
3.05726
3.122
3.17007
3.21272
3.24168
3.26002
3.27133
3.27177
3.26127
3.24778
3.23625
3.22309
3.20743
3.18425
3.1593
3.15801
3.17227
3.19584
3.24306
3.30258
0.999107
0.999316
0.999201
0.999077
0.9989
0.998687
0.998401
0.998087
0.997707
0.997239
0.996708
0.996093
0.995366
0.994597
0.993736
0.992784
0.991732
0.990556
0.989333
0.988117
0.98676
0.985314
0.983767
0.982277
0.980762
0.979134
0.977449
0.975762
0.974409
0.973004
0.971488
0.969461
0.967704
0.966011
0.964354
0.962691
0.960986
0.959446
0.957896
0.957016
0.955956
0.954588
0.953427
0.951598
0.95
0.948916
0.947359
0.948224
0.94235
0.953216
1.00453
2.06386
2.23581
2.24002
2.22231
2.22469
2.20311
2.22178
2.36419
2.33562
2.51836
2.40888
2.47504
2.44117
2.43485
2.41773
2.49873
2.56188
2.65184
2.7153
2.78905
2.87324
2.94052
3.00862
3.04926
3.06031
3.07838
3.08604
3.10012
3.10425
3.10823
3.10906
3.1105
3.1173
3.12475
3.11974
3.11343
3.10569
3.09158
3.07731
3.05512
3.03443
3.00274
2.97481
2.94923
2.9374
2.93932
2.96346
2.9993
3.03992
3.09783
3.14397
3.18705
3.22371
3.24704
3.26199
3.27021
3.26661
3.25218
3.23804
3.22328
3.20552
3.17876
3.15546
3.15559
3.17113
3.19678
3.2447
3.30067
0.999113
0.99932
0.999206
0.999081
0.998898
0.998699
0.998428
0.998104
0.997713
0.997247
0.996723
0.996105
0.995409
0.9946
0.99375
0.992821
0.991755
0.990604
0.98932
0.988059
0.986763
0.985337
0.983719
0.982097
0.980496
0.979019
0.977383
0.975587
0.973806
0.972217
0.970741
0.969153
0.967139
0.965175
0.96329
0.961486
0.95968
0.958016
0.956398
0.955548
0.954245
0.952887
0.951921
0.950127
0.948867
0.948674
0.94778
0.95106
0.945359
0.970105
1.35159
2.17824
2.25014
2.25062
2.23513
2.22434
2.2184
2.19769
2.21001
2.24146
2.51959
2.47853
2.60378
2.49299
2.5981
2.67067
2.72345
2.79974
2.87231
2.9258
2.98029
2.99698
3.02596
3.04842
3.07205
3.08354
3.0921
3.08811
3.09397
3.09643
3.1025
3.10384
3.10586
3.10828
3.12203
3.12191
3.11332
3.10254
3.08777
3.07387
3.05884
3.04195
3.01845
2.99565
2.97179
2.95645
2.95205
2.96989
2.9952
3.02466
3.07405
3.11825
3.16055
3.20243
3.233
3.25244
3.26454
3.26745
3.25693
3.24111
3.22357
3.20338
3.17329
3.15258
3.15361
3.16999
3.1958
3.24402
3.29884
0.999119
0.999325
0.999205
0.999091
0.998918
0.998706
0.998438
0.998114
0.997721
0.997265
0.996744
0.996107
0.995436
0.994666
0.993796
0.992829
0.991741
0.99063
0.989367
0.988013
0.986728
0.985345
0.983675
0.981984
0.980301
0.978784
0.977293
0.975402
0.973427
0.971519
0.969861
0.96839
0.966659
0.964236
0.962197
0.960285
0.958443
0.956643
0.955185
0.953844
0.952106
0.950459
0.948043
0.946181
0.94481
0.943341
0.941263
0.941986
0.937651
0.965491
1.77914
2.19322
2.23577
2.22756
2.21678
2.20875
2.1989
2.18175
2.16703
2.26266
2.48888
2.66531
2.68548
2.74704
2.83167
2.88538
2.93277
2.948
2.98363
3.00471
3.02573
3.03707
3.04681
3.05657
3.06734
3.06969
3.08122
3.08524
3.09019
3.09274
3.09485
3.09506
3.09409
3.09476
3.10581
3.10976
3.10498
3.09672
3.08472
3.0722
3.05997
3.04656
3.03055
3.01386
2.99574
2.97923
2.96547
2.97304
2.99016
3.00787
3.05218
3.09437
3.1348
3.17824
3.21671
3.24276
3.25656
3.26408
3.25956
3.24446
3.22407
3.20119
3.16828
3.15032
3.15151
3.16819
3.19429
3.2426
3.29561
0.999126
0.99933
0.999218
0.999097
0.998925
0.998713
0.998444
0.998129
0.997725
0.997289
0.996773
0.996161
0.995466
0.994679
0.993831
0.992865
0.991798
0.990648
0.989396
0.988016
0.986704
0.985302
0.983654
0.981902
0.980167
0.978521
0.976983
0.975246
0.973023
0.970992
0.969068
0.96757
0.965764
0.963264
0.961042
0.958983
0.95696
0.955777
0.954231
0.952385
0.949478
0.947144
0.944808
0.942314
0.939689
0.93635
0.932542
0.9246
0.91405
0.898741
1.94298
2.2152
2.23671
2.22822
2.22877
2.22543
2.23131
2.24893
2.21633
2.44194
2.6787
2.82451
2.93763
2.96637
2.99067
2.99413
2.99716
3.00342
3.01855
3.02427
3.0263
3.0199
3.02792
3.03559
3.04826
3.05063
3.05558
3.06056
3.06875
3.07379
3.07795
3.08199
3.08145
3.0832
3.09246
3.099
3.09761
3.0915
3.08159
3.07015
3.06002
3.05099
3.04114
3.0285
3.0132
2.9996
2.98394
2.98225
2.99156
3.00153
3.03594
3.0744
3.11223
3.15315
3.19771
3.22972
3.24767
3.2578
3.25849
3.24652
3.22477
3.19931
3.16378
3.14819
3.14934
3.16619
3.19176
3.24018
3.29251
0.999134
0.999336
0.999225
0.999106
0.998934
0.998722
0.998447
0.998151
0.997764
0.997316
0.99679
0.996182
0.995507
0.994731
0.993864
0.992884
0.991843
0.990697
0.989452
0.988071
0.986654
0.985221
0.983644
0.981852
0.980082
0.978286
0.976616
0.974783
0.972632
0.970604
0.968525
0.96651
0.964555
0.962302
0.960065
0.95791
0.955825
0.954578
0.952704
0.95037
0.947201
0.944694
0.942479
0.940271
0.938741
0.936416
0.937898
0.930683
0.94756
1.07655
2.08065
2.21777
2.2264
2.22608
2.22745
2.22496
2.2391
2.29168
2.29917
2.67899
2.83008
3.00363
3.02455
3.02923
3.02072
3.01371
3.01083
3.00268
3.0055
3.00499
3.00529
3.00015
2.99921
3.00654
3.02
3.02476
3.02985
3.03778
3.04907
3.05683
3.06334
3.06818
3.07018
3.07243
3.07884
3.08433
3.08543
3.08089
3.07466
3.06663
3.0588
3.05291
3.04797
3.03923
3.02801
3.01502
3.00155
2.99414
2.99862
3.00211
3.02649
3.0593
3.09305
3.1308
3.17711
3.21589
3.23762
3.2489
3.25388
3.24628
3.2249
3.19753
3.16005
3.14598
3.14707
3.1639
3.18885
3.23733
3.28836
0.999142
0.999342
0.999233
0.999114
0.998935
0.998738
0.998477
0.998164
0.997783
0.997343
0.99682
0.996223
0.995544
0.994774
0.993912
0.992946
0.991895
0.990723
0.989477
0.988139
0.986653
0.985173
0.983552
0.981794
0.97997
0.978211
0.976325
0.974232
0.972175
0.970268
0.968212
0.965789
0.963495
0.961224
0.959203
0.957102
0.954929
0.953127
0.950979
0.948397
0.945445
0.943245
0.941856
0.940805
0.940544
0.940911
0.945316
0.945508
0.990303
1.60581
2.20166
2.23679
2.23057
2.22961
2.23182
2.23276
2.25433
2.40652
2.52768
2.85856
3.02347
3.05442
3.03778
3.02847
3.02628
3.01209
3.00824
2.99978
2.99656
2.99272
2.99111
2.98556
2.98419
2.98586
2.9907
3.00094
3.00601
3.0109
3.02059
3.03145
3.03889
3.0473
3.05308
3.05625
3.06285
3.06915
3.07315
3.07148
3.06808
3.06162
3.05462
3.04994
3.04833
3.04441
3.03724
3.0265
3.01698
3.00539
3.00578
3.00444
3.02141
3.05074
3.08018
3.11444
3.15701
3.20119
3.22686
3.23922
3.24658
3.24342
3.22411
3.19607
3.15702
3.14352
3.1446
3.16129
3.18548
3.23404
3.28448
0.99915
0.999349
0.999241
0.999121
0.998956
0.998752
0.998493
0.998183
0.997809
0.997372
0.996854
0.996264
0.995589
0.994825
0.993963
0.993005
0.991955
0.990793
0.989492
0.988202
0.986741
0.985167
0.983482
0.981656
0.979953
0.978182
0.976054
0.973848
0.971776
0.969842
0.967669
0.965038
0.962613
0.960212
0.958481
0.95642
0.954134
0.95126
0.948775
0.946371
0.943687
0.94156
0.938832
0.93637
0.932499
0.928543
0.922311
0.911932
0.908025
1.88668
2.2151
2.23122
2.22633
2.22791
2.23349
2.25694
2.28348
2.5936
2.81412
2.99845
3.05824
3.03758
3.02778
3.01178
3.00643
3.0022
3.0021
2.99479
2.99035
2.9858
2.98406
2.97789
2.97324
2.97114
2.96876
2.97452
2.97749
2.98338
2.99197
3.00415
3.01655
3.02913
3.03768
3.04188
3.04716
3.05084
3.05506
3.0554
3.05542
3.05275
3.04948
3.04834
3.04678
3.04607
3.04284
3.03534
3.02859
3.01739
3.01391
3.00932
3.01763
3.04404
3.07114
3.10264
3.14117
3.18565
3.21409
3.22899
3.23776
3.23828
3.2223
3.19464
3.15413
3.14076
3.14152
3.15815
3.18189
3.23066
3.27993
0.999159
0.999357
0.99925
0.999134
0.998969
0.998768
0.998513
0.998206
0.997837
0.997404
0.996894
0.996311
0.995638
0.99488
0.994022
0.993077
0.992023
0.990866
0.989568
0.988245
0.986806
0.985192
0.983486
0.981689
0.979809
0.977948
0.975838
0.973678
0.971453
0.969287
0.966904
0.964373
0.96193
0.959539
0.957703
0.955415
0.952737
0.949682
0.94681
0.94423
0.941571
0.939262
0.936599
0.93468
0.931235
0.93116
0.922951
0.938052
1.05595
2.05995
2.20211
2.2147
2.22315
2.22512
2.24717
2.35632
2.45469
2.82432
3.00612
3.08658
3.05348
3.03608
3.01933
3.00594
3.00078
2.99819
2.99952
2.99206
2.98656
2.97963
2.9755
2.97114
2.96654
2.96544
2.96261
2.96228
2.96077
2.96244
2.96574
2.97905
2.98722
3.00177
3.01262
3.02118
3.02841
3.03498
3.04138
3.04464
3.04654
3.04449
3.04283
3.04201
3.04315
3.04365
3.04301
3.03945
3.03608
3.02667
3.02149
3.01588
3.01665
3.03856
3.06342
3.09246
3.12755
3.16924
3.20061
3.21877
3.2281
3.23188
3.21973
3.19315
3.15169
3.13781
3.13795
3.15466
3.17793
3.22711
3.27552
0.999169
0.999365
0.99926
0.999146
0.998984
0.998785
0.998535
0.998232
0.997869
0.997439
0.996936
0.99636
0.995695
0.994944
0.994097
0.993153
0.992107
0.990949
0.989686
0.988321
0.986833
0.98518
0.983518
0.981797
0.979846
0.977737
0.975655
0.973616
0.971408
0.968777
0.966192
0.963651
0.961166
0.959242
0.956948
0.954455
0.951166
0.948449
0.945823
0.943585
0.941751
0.940661
0.940789
0.941387
0.942116
0.946689
0.947717
0.99386
1.77101
2.1999
2.22587
2.21959
2.23628
2.25252
2.29178
2.55475
2.78878
2.97692
3.08694
3.06345
3.04758
3.03381
3.02386
3.01027
3.0051
2.99633
2.99137
2.9848
2.97889
2.97254
2.96799
2.96524
2.96099
2.96097
2.9571
2.95371
2.95023
2.95024
2.94894
2.95756
2.9638
2.97872
2.99097
3.00501
3.01311
3.01759
3.02384
3.02716
3.02987
3.03084
3.03252
3.03367
3.03479
3.03718
3.04028
3.04149
3.04008
3.03373
3.02869
3.02282
3.01787
3.03422
3.0568
3.08341
3.11497
3.15213
3.18597
3.20816
3.2186
3.2245
3.2162
3.19148
3.1494
3.1344
3.13373
3.15078
3.17388
3.22358
3.27079
0.99918
0.999374
0.999271
0.999159
0.998999
0.998804
0.998558
0.998259
0.997902
0.997478
0.996985
0.996415
0.995759
0.995016
0.994181
0.993246
0.992204
0.991053
0.989799
0.988424
0.986906
0.985275
0.983636
0.981815
0.97982
0.977659
0.975661
0.973569
0.971164
0.968403
0.965717
0.963061
0.960986
0.958673
0.956145
0.952765
0.949993
0.947217
0.944595
0.941936
0.939343
0.936233
0.933579
0.928849
0.922855
0.912162
0.899483
0.879409
1.96619
2.20034
2.22335
2.2261
2.23481
2.31909
2.37855
2.78404
2.95514
3.0941
3.06355
3.04671
3.03288
3.01796
3.00955
3.00025
2.99918
2.99269
2.98577
2.97986
2.97175
2.96526
2.95891
2.95676
2.95301
2.95315
2.95023
2.94894
2.94301
2.94054
2.93817
2.94337
2.94561
2.95671
2.96589
2.98248
2.99253
3.00095
3.00947
3.01523
3.01972
3.02246
3.02299
3.02363
3.02631
3.03183
3.0368
3.03892
3.04165
3.03821
3.0355
3.02968
3.02096
3.03101
3.05123
3.07453
3.10232
3.13476
3.16919
3.19655
3.2094
3.21672
3.21188
3.18942
3.14713
3.13056
3.12918
3.14668
3.16956
3.22004
3.26603
0.999192
0.999384
0.999282
0.999173
0.999016
0.998825
0.998582
0.99829
0.997938
0.997522
0.997037
0.996477
0.995832
0.9951
0.994276
0.993353
0.992318
0.99118
0.989932
0.988541
0.986986
0.985471
0.983819
0.981891
0.979814
0.977674
0.975708
0.973498
0.970742
0.968101
0.965328
0.963068
0.960602
0.957907
0.954406
0.951461
0.948733
0.946156
0.944192
0.942652
0.941081
0.939675
0.939447
0.939221
0.944297
0.943783
0.997897
1.36339
2.16067
2.2321
2.23214
2.2609
2.27646
2.52702
2.70754
2.95007
3.09742
3.07225
3.05443
3.03433
3.01815
3.00369
2.99285
2.98679
2.9841
2.98483
2.9784
2.97357
2.9661
2.95994
2.952
2.95002
2.94599
2.94587
2.94287
2.94276
2.93777
2.93436
2.92995
2.93146
2.93185
2.93962
2.94571
2.96085
2.97304
2.9865
2.99379
2.99811
3.0027
3.00595
3.00843
3.01162
3.01621
3.02195
3.02879
3.03386
3.03875
3.04024
3.03981
3.03517
3.02432
3.02791
3.0458
3.06559
3.08942
3.11747
3.15026
3.18273
3.20014
3.20859
3.20677
3.18684
3.14481
3.12631
3.1242
3.14241
3.16514
3.21652
3.26122
0.999205
0.999394
0.999295
0.999188
0.999035
0.998847
0.998609
0.998323
0.997978
0.997572
0.997096
0.996547
0.995916
0.995194
0.994386
0.993476
0.992444
0.991329
0.990098
0.988702
0.987175
0.985685
0.983991
0.981981
0.979886
0.977956
0.975845
0.973182
0.970517
0.967797
0.965479
0.963223
0.960419
0.956475
0.953202
0.950191
0.947445
0.94476
0.943512
0.941665
0.939131
0.937207
0.932943
0.928266
0.923086
0.914891
0.92213
1.88005
2.24435
2.25538
2.24335
2.31003
2.35006
2.73742
2.91965
3.08674
3.06366
3.04642
3.02329
3.01353
3.00325
2.99491
2.98357
2.97773
2.973
2.97357
2.97128
2.96866
2.96283
2.95636
2.94719
2.94192
2.93823
2.93701
2.93474
2.934
2.93119
2.92957
2.92428
2.92258
2.92113
2.92521
2.92685
2.93969
2.94952
2.96625
2.976
2.98305
2.99134
2.99755
3.00161
3.00252
3.00424
3.01008
3.0193
3.02801
3.03553
3.03999
3.04145
3.03862
3.02708
3.02495
3.03856
3.05574
3.0761
3.10081
3.13065
3.16726
3.19007
3.20055
3.20073
3.18329
3.14222
3.12179
3.11917
3.13799
3.16058
3.213
3.25631
0.999218
0.999405
0.999308
0.999204
0.999055
0.998871
0.998639
0.998361
0.998024
0.997626
0.997162
0.996626
0.996009
0.995304
0.99451
0.993607
0.99258
0.991526
0.990299
0.988898
0.987434
0.985975
0.984159
0.982168
0.980158
0.978302
0.976067
0.973192
0.970573
0.967798
0.966092
0.963459
0.959927
0.955711
0.952157
0.949078
0.946281
0.943264
0.941934
0.93971
0.936981
0.935182
0.932219
0.931927
0.92786
0.948375
1.11009
2.10934
2.25109
2.26711
2.27582
2.46115
2.63598
2.8971
3.0845
3.05497
3.0327
3.00752
2.99128
2.98549
2.98024
2.9785
2.97074
2.96864
2.96343
2.96295
2.96075
2.9604
2.95601
2.95157
2.94487
2.93784
2.93247
2.92885
2.92778
2.92441
2.92302
2.9228
2.91913
2.9171
2.91212
2.91275
2.91196
2.91976
2.92645
2.94201
2.95497
2.96763
2.97607
2.98202
2.98545
2.98708
2.9894
2.99715
3.00814
3.01935
3.02834
3.03533
3.0397
3.03948
3.0287
3.02114
3.02963
3.04512
3.06256
3.08443
3.1118
3.14994
3.17889
3.19247
3.19367
3.1786
3.13919
3.11705
3.11386
3.13333
3.15584
3.20954
3.25148
0.999233
0.999417
0.999323
0.999222
0.999076
0.998898
0.998672
0.998401
0.998073
0.997687
0.997235
0.996714
0.996111
0.995425
0.994649
0.993746
0.992781
0.99176
0.990516
0.989138
0.987752
0.986315
0.984385
0.982462
0.980614
0.978749
0.976325
0.973391
0.970708
0.967971
0.966455
0.963724
0.95992
0.955389
0.95165
0.948415
0.945622
0.942742
0.941696
0.940529
0.939165
0.938919
0.939145
0.945042
0.947813
0.986839
1.88554
2.26432
2.26546
2.31166
2.3463
2.69976
2.87648
3.07163
3.05428
3.03804
3.02474
3.01081
2.99456
2.98145
2.96785
2.96128
2.95629
2.95704
2.95424
2.954
2.95151
2.95133
2.94895
2.94597
2.9413
2.93494
2.92873
2.92055
2.91898
2.91552
2.91364
2.91421
2.91203
2.91238
2.90648
2.90332
2.90122
2.90492
2.90736
2.91981
2.93008
2.94672
2.95899
2.96816
2.97542
2.97928
2.98194
2.98785
2.99682
3.00919
3.02093
3.03003
3.03636
3.03763
3.02754
3.01671
3.02051
3.03434
3.04927
3.06834
3.09345
3.13141
3.16673
3.18404
3.18591
3.17305
3.13578
3.11228
3.10837
3.12847
3.1509
3.20609
3.2464
0.999249
0.99943
0.999339
0.999241
0.9991
0.998927
0.998708
0.998445
0.998128
0.997754
0.997315
0.996808
0.996223
0.995565
0.994806
0.993921
0.993011
0.992023
0.990768
0.989431
0.98815
0.986714
0.984758
0.982894
0.981131
0.979273
0.976803
0.973809
0.971102
0.968335
0.966743
0.963934
0.960206
0.955347
0.951356
0.947556
0.943767
0.939969
0.935912
0.93286
0.927758
0.9214
0.912416
0.894842
0.892925
0.908898
1.97675
2.2147
2.23578
2.36852
2.58362
2.84444
3.04236
3.03853
3.01929
3.00403
2.99043
2.98762
2.97992
2.97188
2.95818
2.95044
2.94469
2.9434
2.94119
2.94075
2.93908
2.93863
2.93812
2.93658
2.93544
2.93029
2.92642
2.918
2.91281
2.90817
2.90581
2.90601
2.90371
2.90507
2.90137
2.89723
2.89179
2.89232
2.8901
2.89887
2.90662
2.92407
2.9379
2.94944
2.95916
2.96461
2.96764
2.97315
2.98401
2.99852
3.01359
3.02513
3.03203
3.03319
3.02378
3.01098
3.01095
3.02313
3.03709
3.05317
3.07486
3.1122
3.1531
3.17572
3.17766
3.16691
3.13197
3.10743
3.10265
3.12325
3.14577
3.20267
3.24144
0.999266
0.999444
0.999356
0.999261
0.999125
0.998958
0.998747
0.998493
0.998187
0.997827
0.997403
0.996911
0.996339
0.995728
0.994994
0.994134
0.993278
0.992325
0.991079
0.989797
0.988604
0.987202
0.985297
0.98348
0.981639
0.979929
0.977702
0.974622
0.97192
0.969038
0.966686
0.964398
0.961411
0.956486
0.952174
0.947884
0.943695
0.939755
0.936401
0.934033
0.934447
0.93481
0.938142
0.946073
0.995812
1.85825
2.18156
2.27538
2.3192
2.65808
2.86047
3.06426
3.06247
3.0374
3.01189
2.99641
2.97757
2.96819
2.96103