/*--------------------------------*- C++ -*----------------------------------*\
| =========                 |                                                 |
| \\      /  F ield         | OpenFOAM: The Open Source CFD Toolbox           |
|  \\    /   O peration     | Version:  2.2.x                                 |
|   \\  /    A nd           | Web:      www.OpenFOAM.org                      |
|    \\/     M anipulation  |                                                 |
\*---------------------------------------------------------------------------*/
FoamFile
{
    version     2.0;
    format      ascii;
    class       volScalarField;
    location    "3.6";
    object      rho;
}
// * * * * * * * * * * * * * * * * * * * * * * * * * * * * * * * * * * * * * //

dimensions      [1 -3 0 0 0 0 0];

internalField   nonuniform List<scalar> 
14161
(
1
1
1
1
1
1
1
1
1
1
1
1
1
1.00003
0.99982
0.999211
1.00787
1.13101
2.54802
2.78249
2.79401
2.80511
2.81601
2.82624
2.83581
2.84493
2.85373
2.86221
2.87053
2.87839
2.88588
2.8928
2.89936
2.90545
2.91125
2.91672
2.92204
2.92709
2.93209
2.93683
2.94147
2.94571
2.9497
2.95323
2.95658
2.9596
2.96262
2.96553
2.96839
2.97121
2.974
2.97678
2.97956
2.98236
2.98519
2.98804
2.99095
2.99391
2.99696
3.00009
3.00333
3.00667
3.01012
3.01364
3.01712
3.02054
3.0239
3.02724
3.03053
3.03378
3.03699
3.04015
3.04328
3.04639
3.04952
3.05266
3.05583
3.05901
3.06226
3.06559
3.06902
3.0726
3.07638
3.08034
3.08456
3.08896
3.09318
3.0971
3.10084
3.10452
3.10823
3.11196
3.11567
3.11927
3.12276
3.12614
3.12945
3.13274
3.13604
3.13937
3.14268
3.14594
3.14914
3.1523
3.15545
3.15863
3.16185
3.16499
3.16787
3.17055
3.17327
3.17603
3.17838
3.17977
3.18022
3.18019
3.17996
3.17955
3.17975
1
1
1
1
1
1
1
1
1
1
1
1
1
0.999983
1.00003
0.99942
1.00837
1.13013
2.54709
2.78169
2.79382
2.80509
2.81611
2.82637
2.83592
2.84502
2.85383
2.86232
2.87065
2.87851
2.886
2.89291
2.89946
2.90554
2.91134
2.91682
2.92214
2.92719
2.93219
2.93693
2.94157
2.94579
2.94978
2.95331
2.95665
2.95965
2.96267
2.96558
2.96844
2.97126
2.97405
2.97683
2.97962
2.98243
2.98526
2.98812
2.99104
2.99401
2.99705
3.00019
3.00344
3.00679
3.01025
3.01377
3.01727
3.0207
3.02407
3.02741
3.03072
3.03398
3.03719
3.04036
3.04351
3.04664
3.04978
3.05294
3.05612
3.05934
3.0626
3.06595
3.0694
3.073
3.07681
3.0808
3.08504
3.08947
3.0937
3.09764
3.10139
3.10508
3.10878
3.11251
3.11621
3.11982
3.12331
3.1267
3.13002
3.1333
3.13658
3.13988
3.14317
3.1464
3.14958
3.15269
3.15577
3.15884
3.16195
3.16498
3.16779
3.17039
3.17302
3.17573
3.17805
3.17945
3.17993
3.17991
3.17964
3.17935
3.17938
1
1
1
1
1
1
1
1
1
1
1
1
1
0.999985
1.00014
0.999622
1.00884
1.13058
2.54488
2.77958
2.79271
2.80419
2.81529
2.8257
2.83535
2.84455
2.8534
2.86193
2.87029
2.87815
2.88568
2.89261
2.89916
2.90525
2.91104
2.91651
2.92185
2.92691
2.93191
2.93664
2.94126
2.94548
2.94946
2.95302
2.95635
2.95936
2.96239
2.96531
2.96816
2.97097
2.97376
2.97655
2.97934
2.98214
2.98498
2.98785
2.99077
2.99376
2.99682
2.99997
3.00322
3.00657
3.01
3.01349
3.01695
3.02035
3.02372
3.02704
3.03033
3.03358
3.03678
3.03994
3.04308
3.0462
3.04932
3.05245
3.0556
3.05879
3.06204
3.06535
3.06876
3.07231
3.07605
3.07996
3.0841
3.08842
3.09259
3.09649
3.10023
3.10391
3.1076
3.11133
3.11506
3.11872
3.12227
3.12569
3.12904
3.13234
3.13562
3.13892
3.14221
3.14547
3.14868
3.15185
3.155
3.15815
3.16131
3.16438
3.16718
3.16976
3.17237
3.17506
3.17734
3.17867
3.17907
3.17899
3.17857
3.17819
3.1782
1
1
1
1
1
1
1
1
1
1
1
1
1
1
1.00012
1.00007
1.00899
1.13128
2.54438
2.77855
2.79212
2.80355
2.81448
2.82487
2.83459
2.84387
2.85278
2.86134
2.86971
2.87758
2.88514
2.8921
2.89868
2.90481
2.9106
2.9161
2.92143
2.9265
2.93148
2.93619
2.94076
2.94493
2.94888
2.95244
2.95578
2.9588
2.96184
2.96477
2.96764
2.97047
2.97329
2.9761
2.97892
2.98176
2.98462
2.98753
2.9905
2.99354
2.99665
2.99984
3.0031
3.00643
3.00983
3.01326
3.01666
3.02003
3.02338
3.0267
3.03
3.03326
3.03648
3.03967
3.04283
3.04597
3.04911
3.05225
3.05542
3.05861
3.06186
3.06519
3.0686
3.07211
3.07577
3.07958
3.08355
3.08767
3.09175
3.09564
3.09939
3.10308
3.1068
3.11055
3.11433
3.11809
3.12168
3.12513
3.12848
3.13177
3.13506
3.13835
3.14163
3.14487
3.14806
3.15121
3.15434
3.15747
3.16059
3.1636
3.16634
3.16888
3.17145
3.17408
3.17628
3.17752
3.17786
3.17773
3.17723
3.17666
3.17651
1
1
1
1
1
1
1
1
1
1
1
1
1
1.00001
1.00012
1.00026
1.00875
1.1318
2.54487
2.77823
2.79186
2.80322
2.814
2.82431
2.83407
2.84336
2.85229
2.86084
2.86917
2.87701
2.88457
2.89156
2.89818
2.90434
2.91017
2.91567
2.92099
2.92603
2.93095
2.93558
2.94005
2.94415
2.94803
2.95156
2.95489
2.95793
2.96094
2.96387
2.96676
2.96963
2.9725
2.97537
2.97825
2.98116
2.98411
2.9871
2.99014
2.99324
2.9964
2.99962
3.0029
3.00622
3.00957
3.01294
3.01629
3.01962
3.02294
3.02625
3.02954
3.0328
3.03603
3.03923
3.0424
3.04555
3.04868
3.05182
3.05498
3.05816
3.06139
3.06468
3.06805
3.07152
3.0751
3.07879
3.08259
3.08652
3.09047
3.09431
3.09806
3.1018
3.10556
3.10939
3.1133
3.11714
3.1208
3.1243
3.12769
3.13101
3.13432
3.13762
3.1409
3.14412
3.14729
3.15043
3.15353
3.15661
3.15968
3.16261
3.16527
3.16774
3.17024
3.17279
3.17486
3.17596
3.17621
3.176
3.17541
3.17454
3.17402
1
1
1
1
1
1
1
1
1
1
1
1
1
0.999995
1.00012
0.999808
1.00883
1.13203
2.54518
2.77794
2.79163
2.80301
2.81388
2.8242
2.83398
2.84325
2.85214
2.86065
2.86889
2.87668
2.8842
2.89122
2.89787
2.90405
2.9099
2.91539
2.92068
2.92565
2.93048
2.93498
2.93931
2.94329
2.94707
2.95052
2.9538
2.95684
2.95983
2.9628
2.96573
2.96867
2.97161
2.97456
2.97752
2.98051
2.98353
2.98658
2.98969
2.99284
2.99605
2.99929
3.00257
3.00587
3.00919
3.0125
3.01581
3.01912
3.02243
3.02574
3.02903
3.0323
3.03555
3.03877
3.04196
3.04512
3.04827
3.05143
3.0546
3.0578
3.06103
3.06431
3.06765
3.07106
3.07457
3.07815
3.0818
3.08551
3.08926
3.093
3.09672
3.10045
3.10423
3.10809
3.11205
3.11598
3.11969
3.12322
3.12664
3.12999
3.13332
3.13664
3.13993
3.14315
3.14632
3.14944
3.15252
3.15557
3.15857
3.16142
3.164
3.16637
3.16879
3.17122
3.17312
3.17402
3.17413
3.17382
3.17314
3.17192
3.17074
1
1
1
1
1
1
1
1
1
1
1
1
1
0.999996
1.00006
0.999929
1.00863
1.13221
2.54554
2.7778
2.79151
2.8029
2.81382
2.82412
2.83392
2.8432
2.85208
2.86055
2.86873
2.87647
2.88396
2.89096
2.89761
2.90376
2.90961
2.91507
2.92031
2.92519
2.9299
2.93429
2.93848
2.94235
2.94603
2.94944
2.95267
2.95576
2.9588
2.96182
2.96483
2.96784
2.97085
2.97386
2.97689
2.97993
2.98299
2.98608
2.98921
2.99237
2.99558
2.99881
3.00207
3.00533
3.00858
3.01185
3.01512
3.0184
3.02169
3.02497
3.02825
3.03151
3.03476
3.03798
3.04117
3.04433
3.04749
3.05065
3.05381
3.05701
3.06023
3.06348
3.06678
3.07014
3.07356
3.07704
3.08057
3.08412
3.08771
3.09135
3.09504
3.09878
3.10261
3.10654
3.1106
3.11463
3.1184
3.12198
3.12542
3.12878
3.13212
3.13544
3.13871
3.14193
3.14508
3.14819
3.15124
3.15424
3.15718
3.15995
3.16243
3.16471
3.16703
3.16932
3.171
3.1717
3.17171
3.17133
3.1705
3.16881
3.16706
1
1
1
1
1
1
1
1
1
1
1
1
1
0.999999
1.00003
0.999848
1.00877
1.13153
2.54446
2.77737
2.79129
2.80275
2.81373
2.82402
2.83384
2.8431
2.85196
2.8604
2.86852
2.87623
2.88368
2.89064
2.89728
2.9034
2.90924
2.91466
2.91983
2.92465
2.92927
2.93359
2.93771
2.94154
2.94518
2.94857
2.9518
2.95492
2.958
2.96107
2.96412
2.96716
2.97021
2.97325
2.97631
2.97939
2.98249
2.98561
2.98875
2.99192
2.9951
2.99831
3.00152
3.00473
3.00794
3.01117
3.01441
3.01765
3.02091
3.02418
3.02745
3.03071
3.03396
3.03718
3.04039
3.04357
3.04674
3.0499
3.05307
3.05626
3.05947
3.0627
3.06596
3.06925
3.07259
3.07596
3.07936
3.08276
3.0862
3.08969
3.09328
3.09698
3.1008
3.10476
3.10888
3.113
3.11686
3.12049
3.12397
3.12736
3.13071
3.13403
3.13728
3.14047
3.1436
3.14668
3.14969
3.15265
3.15553
3.1582
3.16058
3.16278
3.16499
3.16709
3.16851
3.169
3.16891
3.16841
3.16726
3.16502
3.16254
1
1
1
1
1
1
1
1
1
1
1
1
1
1
1.00002
0.999886
1.0088
1.13086
2.54362
2.77723
2.7912
2.80266
2.81363
2.8239
2.83373
2.84299
2.85185
2.86028
2.86837
2.87607
2.88349
2.89042
2.89706
2.90316
2.90898
2.91438
2.91953
2.92435
2.92894
2.93324
2.93735
2.94114
2.94475
2.94813
2.95132
2.95442
2.95748
2.96054
2.96359
2.96663
2.96966
2.97271
2.97576
2.97884
2.98193
2.98505
2.98818
2.99132
2.99447
2.99762
3.00078
3.00394
3.00711
3.01029
3.01349
3.01669
3.0199
3.02314
3.02638
3.02962
3.03286
3.03608
3.0393
3.04249
3.04567
3.04884
3.05202
3.0552
3.0584
3.06162
3.06484
3.06808
3.07134
3.07462
3.07791
3.08122
3.08457
3.08798
3.0915
3.09515
3.09895
3.10291
3.10705
3.1112
3.11512
3.1188
3.12232
3.12573
3.1291
3.13241
3.13565
3.13882
3.14192
3.14496
3.14793
3.15084
3.15364
3.15621
3.15847
3.16056
3.16265
3.16451
3.16563
3.16591
3.16574
3.16503
3.16341
3.16076
3.1575
1
1
1
1
1
1
1
1
1
1
1
1
1
0.999999
1.00001
1.00008
1.00866
1.13028
2.54336
2.77758
2.7914
2.80277
2.81369
2.82392
2.83375
2.843
2.85187
2.86028
2.86836
2.87604
2.88343
2.89034
2.89696
2.90304
2.90885
2.91423
2.91935
2.92414
2.92871
2.93299
2.93707
2.94084
2.94442
2.94776
2.95094
2.95402
2.95706
2.9601
2.96314
2.96617
2.9692
2.97224
2.97528
2.97833
2.98139
2.98446
2.98754
2.99063
2.99373
2.99682
2.99992
3.00303
3.00615
3.00928
3.01241
3.01555
3.01871
3.02189
3.02508
3.02827
3.03146
3.03464
3.03783
3.041
3.04416
3.04731
3.05047
3.05364
3.05682
3.06002
3.06321
3.0664
3.06959
3.07278
3.07599
3.07923
3.08251
3.08588
3.08937
3.09299
3.09676
3.10069
3.10482
3.10902
3.11303
3.11681
3.12039
3.12385
3.12723
3.13054
3.13376
3.13689
3.13995
3.14294
3.14585
3.14869
3.1514
3.15385
3.15599
3.15798
3.15993
3.16152
3.16233
3.16242
3.16215
3.16115
3.159
3.15581
3.15181
1
1
1
1
1
1
1
1
1
1
1
1
1
1
1.00002
0.999836
1.00876
1.12916
2.54113
2.77676
2.79078
2.80219
2.81312
2.82333
2.83314
2.84237
2.85123
2.85962
2.86768
2.87533
2.88267
2.88954
2.89611
2.90218
2.90797
2.91335
2.91844
2.92323
2.92779
2.93206
2.93612
2.93988
2.94344
2.94678
2.94995
2.95301
2.95605
2.95908
2.96212
2.96516
2.96819
2.97124
2.97428
2.97732
2.98038
2.98344
2.98651
2.98958
2.99265
2.99573
2.99881
3.0019
3.00501
3.00811
3.01122
3.01434
3.01748
3.02064
3.02381
3.02698
3.03014
3.0333
3.03646
3.0396
3.04274
3.04587
3.04901
3.05216
3.05532
3.0585
3.06168
3.06485
3.06802
3.0712
3.07438
3.07758
3.08082
3.0841
3.08749
3.09101
3.09466
3.09845
3.10245
3.10663
3.11072
3.11457
3.11822
3.12172
3.12511
3.1284
3.1316
3.13469
3.13771
3.14065
3.1435
3.14627
3.14889
3.15123
3.15326
3.15514
3.1569
3.15819
3.1587
3.15866
3.15818
3.15666
3.15402
3.15029
3.14547
1
1
1
1
1
1
1
1
1
1
1
1
1
0.999999
0.999995
0.999869
1.00871
1.12805
2.53878
2.77643
2.79054
2.80196
2.8129
2.82306
2.83281
2.842
2.85081
2.85915
2.86715
2.87475
2.88202
2.88883
2.89534
2.90137
2.9071
2.91247
2.91753
2.9223
2.92685
2.93112
2.93516
2.93893
2.94247
2.94579
2.94895
2.95201
2.95502
2.95803
2.96104
2.96405
2.96707
2.97009
2.97311
2.97614
2.97916
2.9822
2.98523
2.98827
2.99131
2.99435
2.99739
3.00045
3.00351
3.00657
3.00963
3.01271
3.01581
3.01891
3.02203
3.02516
3.02828
3.03139
3.0345
3.03761
3.04071
3.04382
3.04695
3.0501
3.05327
3.05646
3.05966
3.06287
3.06607
3.06927
3.07246
3.07568
3.07892
3.08218
3.08552
3.08895
3.09248
3.09615
3.10001
3.10409
3.10822
3.11214
3.11584
3.11937
3.12275
3.12602
3.12917
3.13223
3.1352
3.13808
3.14087
3.14357
3.14609
3.1483
3.1502
3.15195
3.15348
3.15446
3.15473
3.15456
3.1537
3.15175
3.14857
3.14436
3.13876
1
1
1
1
1
1
1
1
1
1
1
1
1
1
1.00001
1.00002
1.00856
1.12691
2.53688
2.7766
2.79061
2.80194
2.81285
2.82293
2.83262
2.84173
2.85046
2.85874
2.86666
2.8742
2.88139
2.88813
2.89456
2.90052
2.9062
2.91153
2.91655
2.9213
2.92582
2.93007
2.93408
2.93784
2.94136
2.94466
2.94779
2.95083
2.95382
2.9568
2.95978
2.96277
2.96575
2.96875
2.97173
2.97473
2.97772
2.98071
2.98371
2.98671
2.9897
2.9927
2.99569
2.99869
3.00169
3.0047
3.00771
3.01074
3.01379
3.01684
3.01991
3.02299
3.02607
3.02914
3.0322
3.03527
3.03835
3.04144
3.04456
3.04771
3.05088
3.05409
3.05733
3.06058
3.06384
3.06709
3.07033
3.07356
3.0768
3.08006
3.08338
3.08675
3.09021
3.09378
3.09753
3.10149
3.10558
3.10954
3.11328
3.11681
3.12019
3.12343
3.12655
3.12956
3.13247
3.13529
3.138
3.14059
3.14298
3.14504
3.14682
3.1484
3.14968
3.15034
3.15042
3.15004
3.14874
3.14636
3.14257
3.13779
3.1313
1
1
1
1
1
1
1
1
1
1
1
1
1
1
1.00001
0.999876
1.00858
1.12474
2.5336
2.77594
2.79003
2.80134
2.81223
2.8223
2.83197
2.84106
2.84978
2.85803
2.86594
2.87343
2.88057
2.88725
2.89362
2.89953
2.90517
2.91046
2.91544
2.92018
2.92468
2.92893
2.93292
2.93666
2.94016
2.94344
2.94656
2.94958
2.95253
2.95549
2.95843
2.96138
2.96433
2.96729
2.97024
2.97319
2.97615
2.97912
2.98208
2.98504
2.988
2.99095
2.99391
2.99686
2.99982
3.00278
3.00575
3.00874
3.01174
3.01475
3.01777
3.02079
3.02381
3.02681
3.02982
3.03283
3.03585
3.0389
3.04199
3.04511
3.04828
3.05149
3.05474
3.05802
3.06131
3.0646
3.06787
3.07113
3.07438
3.07765
3.08095
3.0843
3.08773
3.09127
3.09495
3.09882
3.10282
3.10679
3.11053
3.11405
3.11739
3.12057
3.12362
3.12657
3.12941
3.13214
3.13476
3.13724
3.1395
3.14142
3.14306
3.14446
3.14545
3.14583
3.14573
3.14497
3.14328
3.14044
3.13605
3.13067
3.12332
1
1
1
1
1
1
1
1
1
1
1
1
1
1
1
0.999911
1.00844
1.12247
2.52998
2.77551
2.78963
2.80088
2.8117
2.82175
2.83139
2.84045
2.84913
2.85732
2.86516
2.87258
2.87965
2.88626
2.89256
2.89841
2.90398
2.90921
2.91414
2.91884
2.92329
2.9275
2.93144
2.93515
2.93862
2.94187
2.94496
2.94795
2.95087
2.95379
2.95669
2.9596
2.96251
2.96543
2.96834
2.97125
2.97417
2.97709
2.98002
2.98293
2.98585
2.98876
2.99166
2.99457
2.99748
3.0004
3.00334
3.00629
3.00927
3.01226
3.01525
3.01824
3.02123
3.02421
3.02718
3.03016
3.03315
3.03617
3.03922
3.04232
3.04546
3.04865
3.05189
3.05517
3.05849
3.06181
3.06512
3.0684
3.07166
3.07494
3.07824
3.08158
3.08497
3.08845
3.09207
3.09585
3.09976
3.10369
3.10743
3.11094
3.11426
3.11743
3.12045
3.12336
3.12614
3.12879
3.13131
3.13367
3.13578
3.13755
3.13902
3.14018
3.14087
3.141
3.14066
3.13949
3.13739
3.13404
3.12898
3.12298
3.1147
1
1
1
1
1
1
1
1
1
1
1
1
1
1
1.00001
0.999958
1.00826
1.11982
2.5263
2.7753
2.78938
2.80052
2.81124
2.82122
2.8308
2.8398
2.84841
2.85652
2.86427
2.8716
2.87857
2.88509
2.8913
2.89708
2.90258
2.90775
2.91262
2.91726
2.92164
2.9258
2.92968
2.93333
2.93675
2.93995
2.943
2.94595
2.94884
2.95173
2.9546
2.95748
2.96036
2.96323
2.9661
2.96897
2.97185
2.97472
2.97759
2.98044
2.98329
2.98613
2.98897
2.9918
2.99464
2.99749
3.00037
3.00326
3.00619
3.00915
3.01211
3.01508
3.01805
3.02102
3.024
3.02698
3.02999
3.03302
3.03608
3.03918
3.04232
3.0455
3.04873
3.05201
3.05533
3.05869
3.06203
3.06534
3.06863
3.0719
3.0752
3.07853
3.08191
3.08534
3.08892
3.09263
3.09648
3.10036
3.10407
3.10755
3.11083
3.11394
3.11691
3.11974
3.12245
3.12502
3.12745
3.12969
3.13166
3.13328
3.13458
3.1355
3.13591
3.13582
3.1351
3.13357
3.13102
3.12716
3.12146
3.11487
3.10568
1
1
1
1
1
1
1
1
1
1
1
1
1
1
1.00001
0.999942
1.00809
1.11664
2.52183
2.77493
2.78899
2.80003
2.81064
2.82054
2.83005
2.83897
2.84751
2.85556
2.86325
2.8705
2.8774
2.88386
2.89
2.89572
2.90115
2.90628
2.91111
2.91571
2.92003
2.92414
2.92796
2.93157
2.93494
2.9381
2.94109
2.94401
2.94687
2.94973
2.95258
2.95543
2.95828
2.96113
2.96397
2.96681
2.96964
2.97247
2.97529
2.9781
2.98089
2.98367
2.98645
2.98922
2.99199
2.99478
2.99758
3.00041
3.00327
3.00615
3.00905
3.01196
3.01487
3.01781
3.02076
3.02373
3.02673
3.02975
3.0328
3.03588
3.039
3.04217
3.04538
3.04864
3.05194
3.0553
3.05868
3.06201
3.06531
3.0686
3.07189
3.07522
3.07858
3.08199
3.08549
3.08912
3.09288
3.0967
3.10037
3.10382
3.10706
3.11014
3.11306
3.11584
3.11847
3.12096
3.12328
3.12538
3.12718
3.12863
3.12973
3.13039
3.13053
3.13016
3.12908
3.12716
3.12415
3.11974
3.11335
3.1062
3.09594
1
1
1
1
1
1
1
1
1
1
1
1
1
0.999998
0.999994
0.999882
1.00795
1.11303
2.51638
2.77415
2.78837
2.79941
2.81001
2.81986
2.82931
2.83818
2.84664
2.85463
2.86223
2.86943
2.87626
2.88266
2.88872
2.89436
2.89971
2.90477
2.90953
2.91407
2.91833
2.92237
2.92615
2.9297
2.93302
2.93614
2.93909
2.94197
2.94478
2.94761
2.95042
2.95323
2.95605
2.95885
2.96165
2.96445
2.96724
2.97002
2.97278
2.97554
2.97828
2.98101
2.98373
2.98644
2.98915
2.99188
2.99462
2.99738
3.00016
3.00297
3.00581
3.00866
3.01153
3.01443
3.01736
3.02032
3.0233
3.02631
3.02935
3.03241
3.0355
3.03864
3.04183
3.04505
3.04833
3.05166
3.05505
3.05842
3.06174
3.06505
3.06835
3.07168
3.07503
3.07842
3.08186
3.08541
3.08909
3.09285
3.09647
3.09987
3.10306
3.10608
3.10894
3.11165
3.1142
3.11659
3.1188
3.12077
3.12241
3.12369
3.12457
3.12497
3.12488
3.12413
3.1227
3.12036
3.11687
3.1119
3.1048
3.09704
3.08587
1
1
1
1
1
1
1
1
1
1
1
1
1
1
1
0.999875
1.0077
1.10899
2.51033
2.7736
2.78796
2.79902
2.80959
2.81939
2.82879
2.83757
2.84592
2.85379
2.86128
2.86838
2.87513
2.88146
2.88744
2.89301
2.89829
2.90327
2.90794
2.9124
2.91659
2.92056
2.92426
2.92774
2.93101
2.93407
2.93696
2.9398
2.94256
2.94534
2.94811
2.95087
2.95363
2.95638
2.95913
2.96187
2.9646
2.96732
2.97003
2.97272
2.9754
2.97807
2.98072
2.98338
2.98603
2.98869
2.99137
2.99406
2.99677
2.99951
3.00229
3.00509
3.00792
3.01078
3.01368
3.01662
3.0196
3.0226
3.02562
3.02867
3.03174
3.03486
3.03802
3.04122
3.04447
3.04778
3.05115
3.05454
3.05788
3.0612
3.06451
3.06783
3.07115
3.0745
3.07788
3.08131
3.08485
3.08851
3.0921
3.09546
3.09862
3.10159
3.10441
3.10706
3.10954
3.11184
3.11394
3.11577
3.11726
3.11835
3.119
3.11913
3.11872
3.11766
3.11583
3.11306
3.10907
3.10356
3.09571
3.08731
3.075
1
1
1
1
1
1
1
1
1
1
1
1
1
1
1.00002
0.99994
1.00752
1.10432
2.50404
2.77362
2.78793
2.7989
2.80938
2.81907
2.82836
2.837
2.84522
2.85296
2.86032
2.86731
2.87394
2.88019
2.88608
2.89158
2.89676
2.90166
2.90625
2.91063
2.91474
2.91862
2.92225
2.92566
2.92885
2.93185
2.93467
2.93746
2.94017
2.94289
2.9456
2.94831
2.95101
2.95371
2.9564
2.95909
2.96176
2.96443
2.96708
2.96972
2.97235
2.97495
2.97755
2.98013
2.98272
2.98532
2.98792
2.99055
2.99319
2.99586
2.99856
3.0013
3.00407
3.00689
3.00974
3.01264
3.01558
3.01856
3.02156
3.02459
3.02764
3.03073
3.03385
3.03703
3.04025
3.04352
3.04687
3.05028
3.05367
3.05702
3.06034
3.06365
3.06696
3.07028
3.07362
3.07699
3.08044
3.08399
3.0875
3.0908
3.09388
3.09677
3.09951
3.10207
3.10447
3.10666
3.10863
3.11031
3.11163
3.11252
3.11295
3.11284
3.11208
3.11069
3.10846
3.10526
3.10075
3.09472
3.08614
3.077
3.06374
1
1
1
1
1
1
1
1
1
1
1
1
1
0.999999
0.999994
1.00003
1.00696
1.09891
2.49752
2.7742
2.78827
2.79903
2.80934
2.81891
2.82807
2.83658
2.84466
2.85227
2.85949
2.86636
2.87285
2.87899
2.88476
2.89015
2.89523
2.90002
2.90452
2.9088
2.91281
2.9166
2.92014
2.92347
2.92658
2.9295
2.93224
2.93495
2.93759
2.94023
2.94287
2.94549
2.94811
2.95073
2.95334
2.95595
2.95856
2.96115
2.96374
2.96631
2.96886
2.9714
2.97392
2.97644
2.97896
2.98148
2.98402
2.98657
2.98915
2.99175
2.9944
2.99708
2.99981
3.00257
3.00539
3.00825
3.01116
3.01411
3.0171
3.02011
3.02314
3.02621
3.02931
3.03247
3.03567
3.03893
3.04225
3.04565
3.04909
3.05248
3.05584
3.05917
3.06247
3.06576
3.06905
3.07235
3.07568
3.07909
3.0825
3.08574
3.08877
3.09161
3.09429
3.09679
3.0991
3.10119
3.10304
3.10457
3.10571
3.10639
3.10656
3.10614
3.10509
3.10332
3.10069
3.09703
3.09198
3.08543
3.07609
3.06625
3.05185
1
1
1
1
1
1
1
1
1
1
1
1
1
0.999999
1
0.999928
1.00636
1.09337
2.49043
2.77478
2.7886
2.79914
2.80927
2.81866
2.82766
2.83601
2.84393
2.8514
2.85846
2.8652
2.87155
2.87758
2.88323
2.88852
2.89349
2.89817
2.90256
2.90674
2.91064
2.91433
2.91778
2.92102
2.92405
2.9269
2.92956
2.93219
2.93477
2.93734
2.93989
2.94243
2.94497
2.94751
2.95004
2.95257
2.9551
2.95763
2.96014
2.96264
2.96512
2.96758
2.97003
2.97247
2.9749
2.97733
2.97978
2.98225
2.98474
2.98726
2.98983
2.99245
2.9951
2.99781
3.00057
3.00338
3.00625
3.00917
3.01213
3.01512
3.01814
3.02118
3.02426
3.02739
3.03058
3.03382
3.03713
3.04052
3.04399
3.04745
3.05087
3.05423
3.05754
3.06082
3.06408
3.06733
3.07059
3.07389
3.07721
3.08038
3.08335
3.08612
3.08872
3.09114
3.09336
3.09534
3.09705
3.09841
3.09937
3.09984
3.09975
3.09901
3.09765
3.09548
3.09243
3.08828
3.08269
3.07558
3.06552
3.05493
3.03948
1
1
1
1
1
1
1
1
1
1
1
1
1
1
1
0.999859
1.00594
1.08785
2.48231
2.77488
2.78849
2.79886
2.80886
2.81812
2.82698
2.8352
2.84299
2.85033
2.85726
2.86388
2.87011
2.87602
2.88155
2.88674
2.89161
2.89619
2.90047
2.90455
2.90834
2.91193
2.91529
2.91845
2.92139
2.92417
2.92676
2.92932
2.93182
2.93432
2.9368
2.93926
2.94171
2.94415
2.9466
2.94904
2.95149
2.95392
2.95635
2.95877
2.96117
2.96355
2.96591
2.96826
2.9706
2.97294
2.97529
2.97767
2.98008
2.98253
2.98502
2.98757
2.99016
2.9928
2.99549
2.99823
3.00103
3.0039
3.00684
3.00981
3.01281
3.01582
3.01886
3.02196
3.02513
3.02835
3.03165
3.03503
3.03849
3.042
3.04548
3.04888
3.0522
3.05547
3.0587
3.0619
3.06509
3.06828
3.07148
3.07456
3.07745
3.08016
3.08268
3.08502
3.08713
3.08901
3.09059
3.09181
3.09258
3.09282
3.09247
3.09146
3.08975
3.0872
3.08372
3.07907
3.07292
3.06523
3.05446
3.04316
3.02664
1
1
1
1
1
1
1
1
1
1
1
1
1
1
1
0.999913
1.00506
1.08184
2.47335
2.77486
2.78824
2.79842
2.80824
2.81736
2.82609
2.83418
2.84184
2.84904
2.85582
2.8623
2.86839
2.87418
2.87959
2.88468
2.88943
2.89391
2.89809
2.90205
2.90573
2.90921
2.91247
2.91553
2.91839
2.92108
2.9236
2.92609
2.92854
2.93096
2.93337
2.93575
2.93813
2.94049
2.94286
2.94524
2.94761
2.94997
2.95233
2.95468
2.95702
2.95934
2.96164
2.96392
2.96619
2.96845
2.97072
2.973
2.97531
2.97766
2.98005
2.98248
2.98497
2.98753
2.99015
2.99283
2.99557
2.99837
3.00125
3.00416
3.00712
3.01011
3.01314
3.01619
3.0193
3.02248
3.02575
3.02912
3.03258
3.03611
3.03966
3.04313
3.0465
3.04979
3.05301
3.05618
3.05932
3.06243
3.06551
3.0685
3.07132
3.07396
3.0764
3.07863
3.08062
3.08235
3.08377
3.08482
3.0854
3.0854
3.08474
3.08345
3.08137
3.07844
3.07452
3.06936
3.06265
3.05434
3.04289
3.03088
3.01327
1
1
1
1
1
1
1
1
1
1
1
1
1
1
1
0.999971
1.0041
1.07532
2.46308
2.7745
2.78761
2.79762
2.80729
2.81629
2.82491
2.83285
2.84036
2.8474
2.85403
2.86035
2.86628
2.87191
2.87717
2.88213
2.88675
2.89113
2.89519
2.89904
2.90261
2.90599
2.90915
2.91212
2.91491
2.91753
2.91999
2.92243
2.92484
2.92722
2.92958
2.93191
2.93422
2.93652
2.9388
2.94108
2.94336
2.94563
2.9479
2.95016
2.95242
2.95466
2.95689
2.9591
2.9613
2.96347
2.96564
2.96783
2.97005
2.97233
2.97466
2.97705
2.97951
2.98203
2.98463
2.98729
2.98999
2.99274
2.99556
2.99842
3.00132
3.00423
3.00717
3.01017
3.01323
3.01637
3.01959
3.0229
3.0263
3.0298
3.03339
3.03691
3.04032
3.04361
3.04682
3.04997
3.05306
3.05611
3.0591
3.06198
3.06471
3.06726
3.06962
3.07177
3.07367
3.07528
3.07656
3.07742
3.07779
3.07753
3.07659
3.07499
3.07255
3.06922
3.06484
3.05916
3.05188
3.04295
3.03082
3.01812
2.99946
1
1
1
1
1
1
1
1
1
1
1
1
1
1
1
0.999989
1.00316
1.0687
2.45201
2.77425
2.78688
2.79654
2.8059
2.81463
2.82301
2.83075
2.83808
2.84496
2.85145
2.85762
2.86343
2.86892
2.87404
2.87881
2.88326
2.88746
2.89135
2.89504
2.89846
2.9017
2.90471
2.90757
2.91025
2.9128
2.91519
2.91758
2.91996
2.92232
2.92466
2.92696
2.92925
2.93151
2.93375
2.93598
2.93821
2.94043
2.94265
2.94487
2.94709
2.94931
2.95153
2.95373
2.95591
2.95807
2.96021
2.96235
2.96451
2.9667
2.96894
2.97124
2.97361
2.97605
2.97857
2.98115
2.98377
2.98645
2.98921
2.99204
2.99491
2.99784
3.00084
3.0039
3.00697
3.0101
3.01329
3.01655
3.01989
3.02335
3.0269
3.03046
3.03388
3.03715
3.0403
3.04337
3.04637
3.04932
3.0522
3.05498
3.05761
3.06008
3.06236
3.06442
3.06621
3.0677
3.06884
3.06954
3.06967
3.06917
3.06797
3.06604
3.06323
3.0595
3.05465
3.04847
3.04061
3.03102
3.01826
3.00485
2.98517
1
1
1
1
1
1
1
1
1
1
1
1
1
1
1
0.999992
1.00232
1.06184
2.43915
2.7733
2.78561
2.79493
2.80396
2.81238
2.82043
2.8279
2.83498
2.84167
2.848
2.85403
2.85973
2.86508
2.87008
2.87464
2.87893
2.8829
2.88661
2.89012
2.89336
2.89644
2.8993
2.90201
2.90455
2.90697
2.90926
2.91155
2.91389
2.9162
2.91849
2.92076
2.92298
2.92518
2.92735
2.92949
2.93161
2.93372
2.93583
2.93796
2.94009
2.94225
2.94442
2.94659
2.94875
2.9509
2.95305
2.95519
2.95735
2.95954
2.96178
2.9641
2.96651
2.969
2.97158
2.97423
2.97691
2.97964
2.98245
2.98532
2.98823
2.99116
2.99408
2.99702
3
3.00305
3.00618
3.0094
3.01272
3.01616
3.01971
3.02331
3.0268
3.03012
3.03329
3.03635
3.03931
3.04218
3.04497
3.04765
3.05019
3.05258
3.05478
3.05674
3.05842
3.05978
3.06077
3.06129
3.06118
3.0604
3.05894
3.05666
3.05348
3.04933
3.04399
3.03729
3.02885
3.01861
3.00523
2.99112
2.97041
1
1
1
1
1
1
1
1
1
1
1
1
1
1
1
0.999994
1.00168
1.05488
2.42231
2.76917
2.78122
2.79045
2.79933
2.80771
2.81569
2.82315
2.83019
2.83682
2.84308
2.84902
2.85461
2.85985
2.86472
2.86917
2.87334
2.87718
2.88078
2.88417
2.88731
2.89029
2.89305
2.89567
2.89812
2.90046
2.90267
2.9049
2.9072
2.90947
2.91174
2.91398
2.91618
2.91834
2.92045
2.92252
2.92455
2.92656
2.92857
2.9306
2.93265
2.93475
2.93687
2.93902
2.94116
2.94329
2.94541
2.94752
2.94964
2.95179
2.954
2.9563
2.95868
2.96117
2.96377
2.96646
2.96918
2.97194
2.97477
2.97769
2.98067
2.98366
2.98663
2.98959
2.99259
2.99565
2.99878
3.00198
3.00529
3.00872
3.01226
3.01588
3.01943
3.02278
3.02593
3.02894
3.03183
3.03462
3.03729
3.03986
3.04231
3.0446
3.0467
3.04856
3.05012
3.05137
3.05219
3.05251
3.05221
3.05116
3.04941
3.04679
3.04324
3.03865
3.03285
3.02562
3.01659
3.00569
2.99172
2.9769
2.95527
1
1
1
1
1
1
1
1
1
1
1
1
1
1
1
0.999998
1.00059
1.0464
2.40034
2.76297
2.77587
2.7853
2.79439
2.80283
2.81092
2.81844
2.82556
2.83221
2.83845
2.84431
2.84976
2.85488
2.8596
2.86396
2.868
2.87176
2.87521
2.87847
2.88147
2.88432
2.88692
2.8894
2.8917
2.89389
2.89595
2.89806
2.90025
2.90241
2.90459
2.90677
2.90892
2.91104
2.91309
2.91509
2.91704
2.91895
2.92085
2.92276
2.92471
2.92671
2.92878
2.9309
2.93304
2.93516
2.93727
2.93935
2.94143
2.94355
2.94574
2.94801
2.95038
2.95286
2.95546
2.95819
2.96095
2.96375
2.9666
2.96955
2.9726
2.97568
2.97875
2.98178
2.98482
2.98791
2.99105
2.99427
2.99756
3.00094
3.00441
3.00799
3.01155
3.01493
3.01809
3.02109
3.02395
3.02668
3.02928
3.03176
3.0341
3.03629
3.03828
3.04002
3.04144
3.04254
3.04321
3.0433
3.04274
3.04146
3.0394
3.03643
3.03251
3.02749
3.0212
3.01345
3.00382
2.99225
2.97775
2.96231
2.93958
1
1
1
1
1
1
1
1
1
1
1
1
1
1
1
1
0.999999
1.03721
2.37656
2.75814
2.77179
2.78144
2.79073
2.79925
2.80739
2.81484
2.82189
2.82847
2.83461
2.84032
2.84559
2.85054
2.85506
2.85933
2.86317
2.86684
2.87013
2.87324
2.87606
2.87874
2.88117
2.88349
2.88562
2.88766
2.88956
2.89152
2.89359
2.89561
2.89764
2.89969
2.90174
2.90378
2.90577
2.90772
2.9096
2.91143
2.91323
2.915
2.9168
2.91865
2.92056
2.92255
2.92462
2.92672
2.92881
2.93086
2.93291
2.93498
2.93711
2.93932
2.94164
2.94406
2.94663
2.94934
2.95212
2.95491
2.95776
2.96071
2.96377
2.96691
2.97005
2.97316
2.97625
2.97938
2.98256
2.98581
2.98912
2.9925
2.99597
2.99952
3.00311
3.00652
3.0097
3.01269
3.01552
3.01821
3.02076
3.02316
3.02543
3.02753
3.02942
3.03105
3.03234
3.03328
3.03378
3.03363
3.03283
3.0313
3.02894
3.02562
3.02132
3.01585
3.0091
3.0008
2.99059
2.97835
2.96338
2.94719
2.92353
1
1
1
1
1
1
1
1
1
1
1
1
1
1
1
1
0.999953
1.02839
2.35129
2.75502
2.76892
2.77851
2.78779
2.79639
2.8045
2.81183
2.8187
2.82523
2.83118
2.83678
2.84183
2.84662
2.85093
2.85505
2.85873
2.86227
2.86538
2.86832
2.87095
2.87343
2.87565
2.87778
2.87972
2.88159
2.88332
2.88513
2.88707
2.88895
2.89084
2.89273
2.89462
2.89652
2.8984
2.90026
2.90206
2.90381
2.90551
2.90716
2.90882
2.9105
2.91225
2.91408
2.916
2.91803
2.9201
2.92213
2.92413
2.92613
2.9282
2.93035
2.93261
2.93499
2.93751
2.9402
2.94299
2.94578
2.9486
2.95152
2.95457
2.95773
2.96096
2.96416
2.96731
2.97048
2.97371
2.97699
2.98034
2.98374
2.9872
2.99074
2.99432
2.99774
3.00092
3.0039
3.0067
3.00934
3.01183
3.01417
3.01636
3.01837
3.02016
3.02167
3.02283
3.0236
3.02389
3.02355
3.0225
3.02068
3.01799
3.01434
3.00964
3.00373
2.99649
2.98765
2.97686
2.96399
2.94852
2.93166
2.90688
1
1
1
1
1
1
1
1
1
1
1
1
1
1
1
1
0.999961
1.01984
2.32266
2.75218
2.7662
2.77574
2.78496
2.79375
2.80183
2.80913
2.81574
2.82216
2.82793
2.83341
2.83822
2.84276
2.84684
2.85075
2.85428
2.85763
2.86056
2.86331
2.86574
2.86801
2.87005
2.87199
2.87376
2.87547
2.87704
2.87872
2.88055
2.88232
2.88408
2.88585
2.88761
2.88937
2.89111
2.89284
2.89452
2.89616
2.89774
2.89929
2.90083
2.90238
2.90398
2.90566
2.90744
2.90933
2.91135
2.91339
2.91538
2.91735
2.91934
2.9214
2.92356
2.92584
2.92826
2.93086
2.93363
2.93642
2.93922
2.9421
2.94509
2.94821
2.95144
2.9547
2.95788
2.96106
2.96429
2.9676
2.97097
2.9744
2.97787
2.98141
2.98499
2.98842
2.99161
2.99458
2.99737
2.99998
3.00242
3.00471
3.00682
3.00876
3.01045
3.01183
3.01287
3.01349
3.01356
3.01298
3.0117
3.0096
3.00659
3.00259
2.99749
2.99116
2.98343
2.97405
2.96269
2.94921
2.93325
2.91558
2.88989
1
1
1
1
1
1
1
1
1
1
1
1
1
1
1
1
0.999988
1.01184
2.28999
2.7497
2.76372
2.77326
2.78239
2.79135
2.79933
2.8066
2.813
2.8192
2.82479
2.83008
2.83463
2.83887
2.84264
2.84624
2.84953
2.85263
2.85537
2.85791
2.86016
2.86224
2.86411
2.86589
2.86752
2.86909
2.87053
2.87212
2.87388
2.87557
2.87728
2.87899
2.88069
2.88235
2.88399
2.88558
2.88712
2.8886
2.89003
2.89142
2.89279
2.89417
2.89561
2.89712
2.89872
2.90043
2.90229
2.9043
2.90628
2.90819
2.91008
2.91204
2.91411
2.9163
2.91863
2.92115
2.92388
2.92669
2.92949
2.93236
2.93533
2.93842
2.94164
2.94494
2.94817
2.95134
2.95456
2.95786
2.96124
2.96469
2.96817
2.97171
2.97528
2.97872
2.98191
2.98487
2.98763
2.99021
2.99261
2.99483
2.99688
2.99872
3.00032
3.00157
3.00247
3.00293
3.00278
3.00197
3.00044
2.99806
2.99471
2.99037
2.98486
2.97811
2.96989
2.95997
2.94805
2.93395
2.91748
2.89912
2.87232
1
1
1
1
1
1
1
1
1
1
1
1
1
1
1
0.999997
1.00005
1.00526
2.25201
2.74654
2.76097
2.77075
2.78009
2.78926
2.7973
2.80459
2.81082
2.81684
2.82227
2.82735
2.8316
2.83546
2.8388
2.84189
2.84477
2.84753
2.84998
2.8523
2.85436
2.85627
2.858
2.85963
2.86114
2.86259
2.8639
2.86541
2.86712
2.86877
2.87044
2.87211
2.87375
2.87534
2.87686
2.87832
2.87969
2.88101
2.88226
2.88349
2.8847
2.88594
2.88723
2.88859
2.89003
2.89158
2.89326
2.89512
2.89709
2.89899
2.90081
2.90264
2.90456
2.90661
2.90881
2.91121
2.91386
2.9167
2.91954
2.92238
2.92532
2.92838
2.93158
2.93489
2.93817
2.94136
2.94457
2.94784
2.95118
2.95459
2.95805
2.96155
2.96511
2.96854
2.97174
2.9747
2.97745
2.98001
2.98237
2.98454
2.98652
2.98828
2.98977
2.99091
2.99164
2.99192
2.99156
2.99053
2.98872
2.98604
2.98237
2.97766
2.97176
2.96458
2.95588
2.94545
2.93296
2.91827
2.90131
2.88215
2.8544
1
1
1
1
1
1
1
1
1
1
1
1
1
1
1