/*--------------------------------*- C++ -*----------------------------------*\
| =========                 |                                                 |
| \\      /  F ield         | OpenFOAM: The Open Source CFD Toolbox           |
|  \\    /   O peration     | Version:  2.2.x                                 |
|   \\  /    A nd           | Web:      www.OpenFOAM.org                      |
|    \\/     M anipulation  |                                                 |
\*---------------------------------------------------------------------------*/
FoamFile
{
    version     2.0;
    format      ascii;
    class       volScalarField;
    location    "1.35";
    object      rho;
}
// * * * * * * * * * * * * * * * * * * * * * * * * * * * * * * * * * * * * * //

dimensions      [1 -3 0 0 0 0 0];

internalField   nonuniform List<scalar> 
14161
(
0.999023
0.999057
0.999017
0.998969
0.998898
0.998809
0.998688
0.99856
0.998428
0.998235
0.998039
0.997874
0.99763
0.997353
0.997154
0.996888
0.99651
0.996289
0.996107
0.995679
0.99519
0.995033
0.995012
0.994818
0.994086
0.99368
0.99362
0.99373
0.993825
0.993547
0.992721
0.992529
0.992528
0.992597
0.992891
0.993537
0.993901
0.994208
0.994544
0.994866
0.995295
0.995675
0.99597
0.995742
0.996469
0.998004
1.00309
1.00347
1.01133
2.13301
2.72971
2.77702
2.77449
2.73894
2.71384
2.66394
2.62265
2.57707
2.53022
2.48889
2.44749
2.40678
2.37107
2.33196
2.29423
2.26053
2.22675
2.19618
2.16926
2.14692
2.13079
2.12007
2.11338
2.10964
2.10726
2.10855
2.12492
2.1016
2.09893
2.09894
2.10563
2.08075
2.0775
2.07701
2.07738
2.06052
2.05808
2.05493
2.05445
2.06214
2.04008
2.03459
2.03357
2.03206
2.01661
2.00493
1.99739
1.98073
1.97697
1.96532
1.99061
2.01588
2.17926
2.39654
2.66054
2.84973
2.94248
2.99853
3.03653
3.06875
3.09557
3.11896
3.13231
3.13965
3.13862
3.13797
3.13409
3.13063
3.13238
0.999023
0.999056
0.999017
0.998969
0.998898
0.998808
0.998689
0.998562
0.998426
0.998235
0.998043
0.997872
0.997627
0.997359
0.997155
0.996881
0.996514
0.9963
0.996098
0.995675
0.995201
0.99505
0.995005
0.994797
0.994083
0.993696
0.993647
0.993753
0.993784
0.993457
0.992738
0.992583
0.992578
0.992632
0.992887
0.993508
0.993835
0.994137
0.994412
0.994729
0.995227
0.995731
0.995956
0.995822
0.996655
0.998508
1.0033
1.00324
1.01824
2.12784
2.71979
2.77408
2.76893
2.7298
2.70488
2.65608
2.6131
2.56691
2.5189
2.47368
2.43118
2.38844
2.35303
2.31454
2.27687
2.24361
2.21145
2.18365
2.15845
2.13776
2.12356
2.11372
2.10734
2.10426
2.10347
2.10577
2.12302
2.09954
2.09843
2.09844
2.10499
2.08035
2.07733
2.07683
2.07701
2.06007
2.05771
2.05484
2.05435
2.06192
2.03979
2.03427
2.03356
2.0319
2.01633
2.00536
1.99917
1.98465
1.98492
1.97739
2.0216
2.07559
2.27151
2.49785
2.7152
2.85671
2.93736
2.99254
3.03236
3.06632
3.09402
3.1172
3.13082
3.13816
3.13748
3.13644
3.13321
3.12912
3.13315
0.999023
0.999056
0.999017
0.998969
0.998897
0.998806
0.998691
0.998565
0.998421
0.998236
0.998051
0.997866
0.997625
0.997371
0.997152
0.996872
0.996529
0.996306
0.99608
0.995674
0.995237
0.995079
0.994979
0.994733
0.994097
0.993763
0.993699
0.993703
0.993627
0.993289
0.992821
0.992698
0.992676
0.992703
0.992906
0.993359
0.993614
0.99387
0.994069
0.994421
0.994995
0.995328
0.995816
0.995718
0.996615
0.998362
1.00294
1.00241
1.02509
2.11637
2.70071
2.76644
2.755
2.71137
2.68587
2.63702
2.59124
2.5447
2.4965
2.45135
2.40972
2.36558
2.33025
2.29306
2.25865
2.22821
2.19734
2.17304
2.14955
2.13019
2.11736
2.10812
2.10183
2.0985
2.09925
2.10242
2.12166
2.09887
2.0994
2.09955
2.10582
2.08345
2.07961
2.07822
2.07833
2.06274
2.05887
2.05673
2.05578
2.06313
2.04168
2.03655
2.036
2.03407
2.0204
2.00994
2.00747
1.99754
2.00966
2.01523
2.09516
2.2027
2.41891
2.61344
2.74316
2.84164
2.91291
2.96766
3.01072
3.04782
3.07927
3.10587
3.12239
3.13119
3.13267
3.13208
3.13001
3.1252
3.13126
0.999024
0.999056
0.999017
0.998969
0.998896
0.998804
0.998695
0.998568
0.998414
0.998239
0.998061
0.997856
0.997625
0.99739
0.997145
0.996861
0.996554
0.996317
0.996059
0.995666
0.995294
0.995106
0.994927
0.994642
0.994138
0.993878
0.993739
0.993551
0.993354
0.993118
0.992945
0.99288
0.992842
0.992794
0.992854
0.99306
0.993217
0.993388
0.993577
0.993944
0.994479
0.99504
0.995342
0.995656
0.996341
0.997834
1.00212
1.00182
1.01531
2.08706
2.69055
2.75356
2.73233
2.68555
2.65295
2.60137
2.55232
2.50722
2.46339
2.4183
2.38241
2.34133
2.30775
2.2739
2.24464
2.21823
2.18817
2.16698
2.14404
2.12592
2.11452
2.10514
2.09969
2.0961
2.09651
2.09905
2.11967
2.09805
2.09902
2.09913
2.10469
2.08593
2.08057
2.07841
2.07824
2.06448
2.05895
2.05763
2.0564
2.06276
2.04243
2.03874
2.03925
2.03791
2.02805
2.01944
2.0259
2.02356
2.06221
2.10515
2.25108
2.42057
2.60175
2.7182
2.78513
2.85266
2.91001
2.95582
2.99384
3.02979
3.06295
3.09137
3.11073
3.12156
3.1256
3.1256
3.1248
3.11952
3.12816
0.999025
0.999057
0.999017
0.99897
0.998897
0.998802
0.9987
0.998569
0.998406
0.998245
0.998068
0.997845
0.997629
0.997409
0.997134
0.996856
0.996588
0.996327
0.996024
0.995668
0.995364
0.995119
0.994842
0.994568
0.99423
0.994017
0.993751
0.993329
0.99309
0.993003
0.993005
0.993078
0.993046
0.992874
0.992649
0.992616
0.99267
0.992794
0.992999
0.993361
0.993897
0.994351
0.994877
0.995182
0.995694
0.996678
0.999648
0.999579
1.00415
2.01927
2.69313
2.73808
2.69816
2.65405
2.60545
2.55379
2.50613
2.46681
2.43232
2.39127
2.36185
2.32752
2.2963
2.26653
2.23944
2.21548
2.18555
2.16869
2.14497
2.1292
2.11771
2.1085
2.10382
2.09978
2.09978
2.1008
2.12091
2.10343
2.10416
2.10324
2.10705
2.0926
2.08614
2.08242
2.08181
2.07004
2.06283
2.06267
2.06064
2.0669
2.04926
2.04724
2.04861
2.04826
2.0463
2.03951
2.06689
2.08508
2.16949
2.28562
2.47493
2.61675
2.71289
2.77156
2.81551
2.86401
2.911
2.94885
2.98213
3.01433
3.04647
3.07562
3.09743
3.11002
3.11657
3.11752
3.11807
3.11258
3.12378
0.999027
0.999057
0.999017
0.99897
0.998897
0.998802
0.998702
0.99857
0.998402
0.998251
0.998073
0.997837
0.997634
0.997424
0.997123
0.996854
0.996618
0.996331
0.99598
0.995684
0.995433
0.995121
0.994735
0.994512
0.99433
0.994169
0.993744
0.993134
0.992929
0.992898
0.992983
0.9932
0.99319
0.99288
0.992259
0.992122
0.99215
0.99224
0.9924
0.992681
0.993193
0.993651
0.993913
0.994381
0.99448
0.994639
0.996011
0.996751
1.00043
1.87962
2.702
2.70638
2.65118
2.60405
2.54699
2.50903
2.47307
2.44024
2.41336
2.37909
2.35491
2.32546
2.29195
2.26706
2.23619
2.21663
2.1845
2.17153
2.14559
2.13243
2.12034
2.11197
2.10863
2.10472
2.10435
2.10428
2.12047
2.11047
2.10934
2.10716
2.10912
2.09955
2.09289
2.08746
2.08605
2.07615
2.06957
2.0701
2.06776
2.07446
2.06202
2.06347
2.06777
2.06648
2.08118
2.08886
2.14881
2.21245
2.36348
2.52892
2.66912
2.73272
2.77062
2.80195
2.83557
2.8735
2.91272
2.9442
2.97287
3.00178
3.03213
3.06044
3.08332
3.09695
3.10563
3.10772
3.10997
3.10443
3.11806
0.999029
0.999058
0.999018
0.998971
0.998898
0.998803
0.998704
0.998571
0.998401
0.998256
0.998077
0.997832
0.997637
0.997435
0.997115
0.996852
0.996645
0.996335
0.99594
0.995699
0.995499
0.995121
0.994645
0.994463
0.994413
0.9943
0.993701
0.993009
0.99284
0.992833
0.992941
0.993235
0.993228
0.992789
0.991892
0.991686
0.991664
0.991708
0.991809
0.991994
0.992309
0.992556
0.992631
0.992575
0.992361
0.991147
0.990253
0.990917
0.995681
1.68983
2.68146
2.67855
2.58975
2.55714
2.50939
2.47821
2.46007
2.42894
2.40339
2.37345
2.35059
2.3253
2.28578
2.26936
2.22933
2.21833
2.18266
2.17162
2.14597
2.13218
2.12049
2.11274
2.10974
2.10673
2.10677
2.10679
2.11996
2.11531
2.11288
2.11038
2.11123
2.10577
2.1
2.09418
2.0933
2.08607
2.08098
2.0822
2.08028
2.0904
2.08502
2.0895
2.10408
2.11084
2.15094
2.18705
2.30245
2.43902
2.6021
2.71526
2.7662
2.78157
2.80116
2.8221
2.84724
2.88155
2.91339
2.9406
2.96604
2.99183
3.01965
3.04627
3.06891
3.08295
3.09339
3.09671
3.10088
3.09564
3.11111
0.999031
0.99906
0.999019
0.998972
0.998899
0.998805
0.998705
0.998571
0.998403
0.99826
0.998077
0.997833
0.997643
0.997441
0.997114
0.996851
0.996664
0.996336
0.995913
0.995714
0.995546
0.995108
0.994591
0.994438
0.994464
0.994361
0.993626
0.992945
0.9928
0.992798
0.992933
0.993206
0.99315
0.992572
0.991704
0.991428
0.991286
0.991232
0.991231
0.991212
0.991259
0.991261
0.990886
0.990212
0.989266
0.98755
0.984725
0.985606
0.989799
1.38949
2.58124
2.71203
2.55488
2.52576
2.47885
2.44317
2.43152
2.40782
2.38419
2.36403
2.32863
2.3158
2.26739
2.26302
2.21585
2.2085
2.17746
2.1621
2.14094
2.12635
2.11612
2.10918
2.10703
2.10533
2.10555
2.10554
2.11605
2.11512
2.11246
2.11077
2.11116
2.10824
2.10412
2.09993
2.10181
2.09743
2.09632
2.09951
2.0962
2.11737
2.12334
2.13272
2.16784
2.19236
2.27995
2.37998
2.53888
2.67625
2.76545
2.79755
2.80353
2.80826
2.81821
2.83503
2.85722
2.88789
2.91441
2.93863
2.96126
2.98399
3.00869
3.03297
3.05469
3.06866
3.08041
3.08489
3.09097
3.08642
3.1029
0.999034
0.999062
0.999022
0.998973
0.9989
0.998809
0.998705
0.998571
0.998412
0.998264
0.998074
0.99784
0.997649
0.99744
0.997118
0.996861
0.996672
0.996324
0.995909
0.995736
0.995558
0.995096
0.994602
0.994472
0.994491
0.994335
0.993545
0.99294
0.992791
0.992793
0.992943
0.993038
0.99284
0.992218
0.991652
0.991389
0.99114
0.990895
0.99062
0.990316
0.99008
0.989757
0.989041
0.987936
0.98672
0.985053
0.981702
0.981122
0.985783
1.08
2.29904
2.85466
2.63982
2.55347
2.48302
2.42746
2.40126
2.37205
2.35975
2.34741
2.29308
2.29778
2.24305
2.23965
2.20491
2.17932
2.1655
2.13839
2.12226
2.11059
2.10178
2.09593
2.09622
2.0972
2.09793
2.09842
2.10707
2.10975
2.10767
2.10891
2.10961
2.10771
2.10653
2.10364
2.11089
2.10793
2.11662
2.12661
2.12506
2.16274
2.18278
2.20829
2.2867
2.36265
2.50231
2.62958
2.74933
2.81055
2.82647
2.82497
2.82262
2.82499
2.83134
2.84337
2.86537
2.89252
2.91665
2.9379
2.95756
2.97718
2.99867
3.02028
3.04076
3.05449
3.06727
3.07276
3.08046
3.07666
3.09364
0.999037
0.999065
0.999025
0.998975
0.998904
0.998814
0.998704
0.998571
0.998426
0.998266
0.998071
0.997858
0.997657
0.997432
0.997133
0.996891
0.996669
0.996315
0.995946
0.99575
0.995522
0.995073
0.994681
0.994567
0.994462
0.994184
0.993466
0.993012
0.99287
0.992823
0.992834
0.992688
0.992285
0.991852
0.991635
0.991493
0.99125
0.990807
0.990028
0.989319
0.988812
0.988281
0.987536
0.986685
0.985729
0.984674
0.982704
0.982887
0.990012
1.05935
1.87622
2.88663
2.68109
2.58305
2.50008
2.42643
2.38281
2.34324
2.32206
2.3164
2.26196
2.26499
2.23218
2.20457
2.18995
2.14891
2.14407
2.10909
2.09893
2.09051
2.0824
2.0789
2.08084
2.08412
2.08686
2.08879
2.09635
2.10308
2.10184
2.10764
2.10959
2.1087
2.11368
2.11124
2.12699
2.12928
2.1483
2.16773
2.17529
2.24951
2.2979
2.36573
2.49621
2.60725
2.7327
2.80629
2.84235
2.84572
2.84032
2.83438
2.83513
2.83646
2.84058
2.85291
2.8734
2.89779
2.91997
2.93809
2.95474
2.97129
2.9896
3.0083
3.02709
3.04043
3.05399
3.06052
3.06958
3.06659
3.08356
0.999041
0.999068
0.999028
0.998978
0.998908
0.99882
0.998704
0.998572
0.99844
0.998267
0.998071
0.997882
0.997662
0.99742
0.997164
0.996925
0.99665
0.996308
0.996013
0.99576
0.995446
0.995081
0.994828
0.994642
0.994351
0.993963
0.993479
0.993202
0.993021
0.992779
0.992478
0.992161
0.991835
0.991668
0.991621
0.991626
0.99146
0.990919
0.989587
0.98836
0.987682
0.987105
0.986563
0.985926
0.985193
0.984236
0.9827
0.982734
0.993277
1.10269
1.72573
2.55869
2.56253
2.54773
2.5039
2.41289
2.36553
2.33189
2.30033
2.28014
2.2507
2.23286
2.22024
2.17227
2.1686
2.12608
2.11729
2.08811
2.07716
2.06948
2.06511
2.06493
2.06925
2.0732
2.07886
2.08385
2.09073
2.10027
2.09919
2.10863
2.11359
2.11512
2.12984
2.13148
2.15958
2.17384
2.21058
2.25537
2.29685
2.41717
2.50583
2.60448
2.72648
2.80303
2.85083
2.8607
2.85922
2.85204
2.84355
2.84168
2.84176
2.84361
2.84948
2.86273
2.88164
2.90379
2.92295
2.93808
2.95199
2.96589
2.98143
2.99731
3.01416
3.02683
3.04084
3.04836
3.05854
3.05628
3.07293
0.999045
0.999072
0.999032
0.998982
0.998911
0.998826
0.998706
0.998577
0.998449
0.998267
0.998075
0.997902
0.997665
0.997414
0.997199
0.996959
0.996626
0.996326
0.996086
0.995755
0.995369
0.99513
0.994971
0.994709
0.994179
0.993792
0.993553
0.993391
0.993147
0.992609
0.992068
0.991763
0.991621
0.991579
0.991592
0.991696
0.991565
0.990973
0.989218
0.987777
0.987221
0.986774
0.986438
0.986053
0.985563
0.985054
0.984461
0.986879
1.00921
1.33941
1.82873
2.09663
2.32856
2.46577
2.45409
2.40819
2.35863
2.32995
2.30437
2.26494
2.25251
2.21716
2.20767
2.17135
2.14817
2.11317
2.10469
2.08259
2.06852
2.05786
2.05837
2.05972
2.06514
2.06936
2.07628
2.08418
2.09048
2.10439
2.10606
2.12164
2.13285
2.13946
2.17284
2.18583
2.23811
2.27747
2.34079
2.43187
2.52247
2.65061
2.73217
2.80171
2.85257
2.87037
2.87247
2.86409
2.85517
2.84959
2.84694
2.84698
2.84792
2.85033
2.85868
2.87182
2.89014
2.9098
2.92559
2.93763
2.94886
2.96028
2.97333
2.98659
3.00149
3.01343
3.02772
3.0363
3.04753
3.04605
3.06195
0.99905
0.999076
0.999036
0.998987
0.998915
0.99883
0.998711
0.998584
0.998455
0.998268
0.998086
0.997916
0.997666
0.997415
0.99723
0.996979
0.996611
0.996357
0.996141
0.995734
0.995325
0.995174
0.995084
0.994746
0.994053
0.993705
0.993577
0.9935
0.993232
0.992398
0.991825
0.991614
0.991542
0.991537
0.991599
0.991737
0.991524
0.990793
0.98885
0.987599
0.987206
0.986926
0.986633
0.98642
0.986017
0.985718
0.98597
0.990816
1.0432
1.65973
1.93905
1.97143
2.07195
2.28936
2.39251
2.42455
2.37127
2.34835
2.32626
2.26635
2.26604
2.22241
2.19429
2.18293
2.13913
2.10737
2.09824
2.08127
2.06877
2.05511
2.06
2.06355
2.06959
2.07495
2.08103
2.09547
2.1023
2.12555
2.13561
2.16281
2.18807
2.20982
2.2748
2.31612
2.39627
2.48011
2.56837
2.66764
2.74658
2.82249
2.85455
2.87018
2.87455
2.86815
2.86369
2.85793
2.85162
2.84951
2.84981
2.85065
2.85239
2.85769
2.86717
2.88042
2.89802
2.91527
2.92817
2.93784
2.94676
2.95592
2.96657
2.97713
2.98993
3.00083
3.01502
3.02451
3.03654
3.03571
3.05088
0.999055
0.999081
0.99904
0.998992
0.99892
0.998835
0.998719
0.998593
0.998458
0.998275
0.998104
0.997925
0.997669
0.997426
0.997252
0.996985
0.996613
0.996397
0.996168
0.995704
0.995321
0.99522
0.995126
0.994718
0.994004
0.993688
0.993609
0.993504
0.993158
0.992276
0.991802
0.991608
0.991539
0.991546
0.991645
0.991634
0.991235
0.990349
0.988626
0.987853
0.987497
0.987201
0.987071
0.986866
0.986944
0.987046
0.988432
0.999358
1.19506
1.84676
1.96678
1.95548
1.97456
2.06819
2.2069
2.39933
2.37719
2.3654
2.34194
2.26912
2.27437
2.22811
2.19129
2.18209
2.14604
2.10918
2.09531
2.08673
2.07566
2.06394
2.07351
2.07788
2.09058
2.09987
2.1057
2.13697
2.15002
2.19011
2.21967
2.26216
2.32322
2.3779
2.47394
2.54463
2.6254
2.70302
2.77276
2.82678
2.85336
2.86919
2.86773
2.862
2.86158
2.85884
2.85617
2.85344
2.85087
2.85094
2.852
2.85384
2.85758
2.86449
2.87454
2.88811
2.90429
2.91866
2.92875
2.93666
2.94369
2.95101
2.95955
2.96769
2.97862
2.98828
3.00236
3.01298
3.02575
3.02557
3.03987
0.99906
0.999086
0.999045
0.998998
0.998926
0.99884
0.998731
0.998603
0.998459
0.998289
0.998124
0.99793
0.997681
0.997455
0.997262
0.99699
0.996654
0.996429
0.996161
0.9957
0.995378
0.995247
0.995103
0.994688
0.994065
0.993766
0.993576
0.993363
0.992913
0.992278
0.991943
0.991753
0.991637
0.991555
0.991473
0.991165
0.99061
0.989828
0.988983
0.988559
0.988173
0.98781
0.98752
0.987369
0.98729
0.98754
0.989597
1.00967
1.43949
1.95532
1.96372
1.94687
1.94793
1.98069
2.04443
2.22828
2.32984
2.39347
2.34965
2.29648
2.29307
2.23363
2.21903
2.17162
2.15692
2.12061
2.09652
2.10005
2.09753
2.0901
2.10894
2.11806
2.14446
2.16333
2.17963
2.23936
2.27323
2.33191
2.39821
2.46702
2.55314
2.61658
2.69047
2.74907
2.7991
2.82566
2.84923
2.86047
2.85399
2.85337
2.85242
2.84874
2.84952
2.84988
2.84999
2.84956
2.85004
2.85142
2.85375
2.85715
2.86263
2.87033
2.88072
2.89425
2.90904
2.9212
2.92906
2.93539
2.94095
2.94682
2.95339
2.9592
2.96817
2.97607
2.98976
3.00158
3.01502
3.01574
3.02936
0.999066
0.999092
0.999051
0.999004
0.998932
0.998844
0.998744
0.998613
0.998459
0.998309
0.998139
0.997931
0.997706
0.997491
0.997261
0.996997
0.996728
0.99646
0.996129
0.995733
0.995464
0.995254
0.995027
0.994676
0.994229
0.993863
0.993466
0.993112
0.992716
0.992418
0.992271
0.992093
0.991764
0.991284
0.990945
0.990512
0.990092
0.989751
0.989521
0.989369
0.989114
0.988735
0.988223
0.987557
0.987181
0.98737
0.990647
1.02896
1.68878
2.00856
2.00845
1.99101
1.97548
1.96725
1.98665
2.06723
2.17463
2.35476
2.36229
2.34676
2.33277
2.25726
2.26024
2.16293
2.17021
2.15732
2.11012
2.14186
2.14467
2.14129
2.18694
2.2112
2.25307
2.30151
2.34752
2.43329
2.49784
2.56414
2.63039
2.68992
2.7509
2.7889
2.813
2.82928
2.84204
2.84458
2.84039
2.84252
2.84018
2.83662
2.83716
2.83712
2.83852
2.84099
2.84346
2.84606
2.84872
2.85163
2.85513
2.86016
2.86644
2.87478
2.88527
2.89841
2.91191
2.92204
2.92823
2.93322
2.93744
2.94192
2.94672
2.95062
2.95795
2.96418
2.9774
2.99023
3.00423
3.00617
3.019
0.999072
0.999098
0.999058
0.999011
0.99894
0.99885
0.998755
0.998622
0.998465
0.998329
0.998149
0.997935
0.997743
0.997515
0.997253
0.997024
0.996799
0.996475
0.996105
0.995804
0.995544
0.995232
0.994943
0.994704
0.994427
0.993986
0.993316
0.992885
0.992637
0.992553
0.992566
0.992412
0.991847
0.990893
0.990429
0.990117
0.989931
0.989831
0.989831
0.989941
0.989861
0.98961
0.989076
0.988097
0.987583
0.988147
0.995483
1.14292
1.85351
2.02707
2.02696
2.01794
2.00184
1.97966
1.97928
2.00063
2.04517
2.19202
2.29882
2.37442
2.35701
2.28943
2.29915
2.19169
2.21261
2.21709
2.17105
2.22726
2.23972
2.25569
2.34479
2.38882
2.44775
2.53112
2.58712
2.65489
2.71209
2.75753
2.78944
2.80673
2.82066
2.83022
2.83214
2.82668
2.82617
2.82784
2.82532
2.82548
2.825
2.82376
2.82422
2.8258
2.82929
2.83352
2.83799
2.8424
2.84658
2.851
2.85597
2.86194
2.8689
2.87759
2.88797
2.90016
2.91193
2.92113
2.92657
2.93053
2.93371
2.93691
2.94014
2.94248
2.94834
2.95322
2.96574
2.97898
2.99343
2.99647
3.00878
0.999079
0.999105
0.999065
0.999018
0.998948
0.998859
0.998765
0.998631
0.998481
0.998345
0.998156
0.997954
0.997775
0.997526
0.997261
0.997066
0.996842
0.996481
0.996118
0.995872
0.995591
0.995201
0.994906
0.994758
0.994569
0.994077
0.993216
0.992788
0.992615
0.992608
0.992694
0.992532
0.991809
0.990673
0.990235
0.990012
0.989922
0.989915
0.989988
0.990176
0.990137
0.989921
0.989383
0.988374
0.987871
0.988992
1.00369
1.35207
1.96896
2.02892
2.03081
2.03056
2.02107
2.00391
1.99169
1.99166
2.00844
2.06985
2.2071
2.34945
2.38485
2.36732
2.36294
2.25849
2.3142
2.32307
2.31469
2.38936
2.42322
2.47259
2.57114
2.61672
2.66686
2.72822
2.76446
2.79522
2.80947
2.82024
2.82419
2.82502
2.81971
2.81663
2.81746
2.81467
2.811
2.81244
2.81178
2.81136
2.81133
2.81165
2.81358
2.81718
2.82179
2.82723
2.83296
2.83842
2.84413
2.84977
2.85598
2.86242
2.86987
2.8788
2.88928
2.90124
2.91227
2.92017
2.92443
2.92719
2.92929
2.93125
2.93311
2.93408
2.9388
2.94276
2.9547
2.96794
2.98251
2.98675
2.99825
0.999087
0.999112
0.999073
0.999027
0.998957
0.998872
0.998774
0.998642
0.998506
0.998359
0.998163
0.997989
0.9978
0.99754
0.997293
0.997092
0.996859
0.996522
0.99617
0.995908
0.99561
0.995208
0.994922
0.994801
0.994617
0.994121
0.993242
0.992829
0.992666
0.992635
0.99264
0.992403
0.991655
0.990763
0.990374
0.990148
0.990054
0.989995
0.989995
0.990059
0.989903
0.989514
0.988934
0.98802
0.987816
0.989733
1.01734
1.58934
2.04715
2.0479
2.04658
2.04134
2.03061
2.02165
2.01122
2.00402
2.00435
2.04008
2.14383
2.29086
2.45471
2.48411
2.46654
2.39693
2.48234
2.50618
2.53336
2.60162
2.64005
2.6851
2.74289
2.77284
2.79282
2.80592
2.81525
2.81917
2.81922
2.8148
2.81169
2.81256
2.81028
2.80573
2.80234
2.80177
2.7998
2.79907
2.79829
2.79833
2.79932
2.80125
2.80479
2.8093
2.8148
2.82138
2.82811
2.83436
2.841
2.84784
2.85506
2.86212
2.8699
2.87857
2.88881
2.90032
2.9109
2.91772
2.92124
2.92293
2.9241
2.92489
2.92558
2.92549
2.92955
2.93283
2.94408
2.95699
2.97146
2.97681
2.98765
0.999095
0.99912
0.999082
0.999036
0.998968
0.998886
0.998783
0.998656
0.998528
0.99837
0.998183
0.998019
0.997814
0.997571
0.997334
0.997101
0.996879
0.996597
0.996229
0.995931
0.995635
0.995264
0.994992
0.994817
0.994599
0.994135
0.993399
0.993017
0.99275
0.992577
0.992382
0.992049
0.991514
0.991125
0.990852
0.990543
0.990153
0.989912
0.989756
0.989634
0.989388
0.988952
0.988426
0.987771
0.987868
0.992238
1.06777
1.81482
2.06901
2.07151
2.06724
2.06012
2.04907
2.04154
2.03654
2.02744
2.0222
2.07001
2.15739
2.30642
2.55873
2.60952
2.60631
2.60873
2.66526
2.68072
2.70807
2.7467
2.77375
2.78936
2.80266
2.80965
2.81083
2.81094
2.80672
2.80535
2.80554
2.8031
2.79931
2.79942
2.7976
2.79391
2.79012
2.78861
2.78697
2.7867
2.78669
2.78753
2.78977
2.79328
2.79806
2.80358
2.80979
2.8166
2.82362
2.8308
2.83803
2.84581
2.8539
2.86184
2.86988
2.87864
2.88873
2.8997
2.90928
2.91482
2.91754
2.9182
2.91835
2.91807
2.91766
2.91687
2.92052
2.92318
2.93379
2.94618
2.96042
2.96673
2.97661
0.999104
0.999129
0.999092
0.999046
0.998981
0.9989
0.998793
0.998677
0.998546
0.998381
0.998218
0.998039
0.997831
0.997622
0.997368
0.997115
0.996923
0.996671
0.996284
0.995961
0.995676
0.995361
0.995085
0.994827
0.994547
0.994173
0.993705
0.993334
0.992849
0.992397
0.992031
0.991721
0.991526
0.991481
0.991368
0.991024
0.990221
0.989721
0.989455
0.989219
0.989022
0.988824
0.988743
0.988623
0.989358
0.999853
1.2454
1.95265
2.06889
2.07223
2.07097
2.06805
2.06413
2.06358
2.06853
2.06517
2.07347
2.16233
2.26498
2.46788
2.70634
2.74107
2.73887
2.74848
2.7648
2.77298
2.77879
2.78875
2.79675
2.79858
2.80073
2.79657
2.79632
2.79655
2.79498
2.79161
2.79082
2.78983
2.78729
2.78609
2.78355
2.78092
2.77791
2.77684
2.77647
2.77679
2.77772
2.77942
2.78195
2.78565
2.79101
2.79688
2.80362
2.81081
2.81844
2.8262
2.8342
2.84267
2.85145
2.85999
2.86844
2.8776
2.88787
2.89844
2.90706
2.91133
2.91305
2.91283
2.91197
2.91058
2.90922
2.90808
2.91151
2.91376
2.92364
2.93531
2.94911
2.95636
2.96556
0.999113
0.999138
0.999102
0.999058
0.998994
0.998914
0.998807
0.998697
0.998561
0.9984
0.998251
0.998054
0.997863
0.99767
0.997397
0.997157
0.996961
0.996715
0.996363
0.996013
0.995722
0.995462
0.995186
0.994819
0.994476
0.994244
0.994017
0.993686
0.992965
0.992245
0.991846
0.991629
0.991587
0.99165
0.991578
0.991205
0.990228
0.989597
0.989345
0.98916
0.989066
0.989033
0.988995
0.989194
0.990806
1.01028
1.50066
2.05377
2.05764
2.05942
2.06272
2.06533
2.06715
2.07467
2.09698
2.11412
2.15118
2.30622
2.47955
2.70615
2.80576
2.81197
2.79709
2.78362
2.78276
2.7817
2.78198
2.78183
2.78271
2.78364
2.78384
2.78209
2.77966
2.77888
2.7791
2.77759
2.77584
2.77509
2.77428
2.77353
2.77234
2.77075
2.76858
2.76731
2.76728
2.76772
2.76901
2.77108
2.77373
2.77768
2.78283
2.78872
2.79594
2.80378
2.81215
2.82068
2.82934
2.83847
2.84789
2.85712
2.86623
2.87594
2.88624
2.8961
2.90349
2.90665
2.90754
2.90688
2.90494
2.90251
2.9003
2.89905
2.90231
2.90415
2.91339
2.92436
2.93784
2.94587
2.95439
0.999123
0.999148
0.999113
0.99907
0.999007
0.99893
0.998828
0.998716
0.99858
0.998432
0.998275
0.99808
0.997908
0.997703
0.997445
0.997214
0.996978
0.996749
0.996472
0.996076
0.995766
0.995558
0.995268
0.994798
0.994462
0.994348
0.994192
0.99386
0.993014
0.992293
0.991936
0.991701
0.991591
0.99157
0.991405
0.99094
0.990189
0.989842
0.989649
0.989541
0.989462
0.989171
0.988537
0.988678
0.99163
1.03236
1.76928
2.08436
2.08581
2.08095
2.07855
2.08045
2.08279
2.09046
2.13709
2.19307
2.28536
2.53161
2.71861
2.83266
2.84223
2.8237
2.7997
2.7826
2.7736
2.76886
2.76696
2.76511
2.76414
2.76337
2.7624
2.76239
2.76165
2.76174
2.76237
2.7635
2.76312
2.76312
2.76215
2.76169
2.76065
2.75968
2.7582
2.7572
2.75757
2.75815
2.75941
2.76134
2.76392
2.76817
2.77323
2.77951
2.78731
2.79566
2.80467
2.81371
2.82303
2.8327
2.84279
2.85281
2.86278
2.87326
2.88376
2.89288
2.89908
2.90131
2.9016
2.90058
2.89769
2.89422
2.8911
2.88983
2.8929
2.89445
2.9032
2.91343
2.92646
2.93525
2.94383
0.999134
0.999159
0.999125
0.999084
0.999021
0.998946
0.998852
0.998734
0.998604
0.998465
0.998292
0.998127
0.99795
0.99773
0.997518
0.99727
0.996995
0.996807
0.996573
0.99616
0.995839
0.995612
0.995308
0.994862
0.994593
0.994423
0.994204
0.993848
0.993152
0.992638
0.992287
0.991858
0.991519
0.991276
0.991016
0.990625
0.990357
0.990301
0.990302
0.990269
0.990043
0.98953
0.989074
0.989896
0.998799
1.20035
1.93251
2.08041
2.08712
2.08543
2.08372
2.09332
2.10479
2.12073
2.206
2.34013
2.51309
2.75802
2.83772
2.85127
2.83226
2.80743
2.78805
2.77095
2.75951
2.75211
2.74708
2.74378
2.74174
2.74068
2.7403
2.74093
2.74192
2.74328
2.74494
2.74717
2.74854
2.74894
2.74841
2.74836
2.74764
2.74707
2.74634
2.74597
2.74676
2.74746
2.74889
2.75101
2.75367
2.75792
2.76298
2.76917
2.7772
2.78584
2.79542
2.80537
2.81566
2.82625
2.83711
2.84796
2.85893
2.87031
2.88102
2.88929
2.89418
2.8954
2.89524
2.89378
2.89019
2.88573
2.8816
2.88023
2.88313
2.88448
2.89276
2.90248
2.91549
2.92497
2.93299
0.999145
0.999171
0.999137
0.999098
0.999037
0.998964
0.998874
0.998754
0.998636
0.998495
0.998317
0.99818
0.99799
0.997769
0.997586
0.997322
0.997048
0.99686
0.99664
0.99631
0.995959
0.995638
0.995319
0.995053
0.99483
0.994505
0.994135
0.993781
0.993407
0.993088
0.992696
0.991983
0.991389
0.991005
0.990744
0.990634
0.990642
0.99075
0.990793
0.990664
0.990341
0.98961
0.98954
0.991272
1.00977
1.47907
2.04965
2.06522
2.07112
2.07655
2.08335
2.10874
2.14628
2.18904
2.33515
2.5699
2.74501
2.84274
2.84191
2.8295
2.81175
2.79015
2.77138
2.75626
2.74456
2.73536
2.72757
2.72112
2.71773
2.71676
2.71696
2.71779
2.71919
2.72223
2.72532
2.72817
2.73055
2.73162
2.73198
2.73271
2.73303
2.7336
2.73349
2.73405
2.73524
2.73611
2.7376
2.73963
2.74225
2.74619
2.75135
2.75804
2.76674
2.77573
2.7857
2.79613
2.80709
2.8184
2.83009
2.84197
2.85422
2.86656
2.87735
2.88475
2.88858
2.8892
2.88871
2.88681
2.88261
2.87719
2.87195
2.87058
2.87305
2.87472
2.88251
2.89184
2.90468
2.91425
2.9219
0.999158
0.999183
0.999152
0.999114
0.999055
0.998984
0.998894
0.998781
0.998671
0.998522
0.998359
0.998224
0.998034
0.997826
0.997634
0.997396
0.997133
0.996894
0.996701
0.996484
0.996093
0.995639
0.995402
0.995295
0.995058
0.994528
0.994061
0.99384
0.993659
0.993372
0.992893
0.991956
0.99141
0.991118
0.99097
0.990909
0.990868
0.990778
0.990556
0.99021
0.989723
0.988764
0.988799
0.992643
1.03691
1.77691
2.09132
2.09679
2.09531
2.0971
2.10143
2.14711
2.22441
2.35176
2.55702
2.77932
2.84607
2.83874
2.82313
2.80647
2.78525
2.76604
2.75003
2.73746
2.7268
2.71781
2.71073
2.70483
2.70011
2.69739
2.69623
2.69612
2.69658
2.6994
2.7032
2.70775
2.71155
2.71401
2.71656
2.71819
2.71934
2.72067
2.72117
2.72212
2.72312
2.72461
2.72621
2.72807
2.73059
2.73504
2.74028
2.74655
2.75492
2.76391
2.77416
2.78507
2.79676
2.80911
2.82199
2.83519
2.84871
2.86164
2.87228
2.87896
2.88209
2.88245
2.88174
2.87958
2.87482
2.86856
2.86276
2.8614
2.86284
2.86463
2.87184
2.88101
2.8938
2.90359
2.91008
0.999171
0.999197
0.999167
0.99913
0.999075
0.999006
0.998915
0.998817
0.998705
0.998553
0.998408
0.998263
0.998092
0.997883
0.997682
0.997492
0.997222
0.996941
0.996801
0.996625
0.99619
0.995718
0.995558
0.995449
0.995158
0.994602
0.994239
0.994026
0.99374
0.993342
0.99277
0.992149
0.991867
0.991721
0.991556
0.991225
0.990675
0.990349
0.990003
0.98969
0.989556
0.989601
0.990681
1.00356
1.2366
1.95859
2.09024
2.09893
2.10693
2.12172
2.14291
2.22716
2.34931
2.60206
2.764
2.85011
2.83612
2.81549
2.80092
2.78036
2.7593
2.74095
2.72752
2.7175
2.70933
2.70229
2.69605
2.69031
2.6851
2.6809
2.67816
2.67756
2.6777
2.6796
2.68221
2.68669
2.69156
2.69577
2.7
2.70242
2.70434
2.70588
2.70713
2.70921
2.71111
2.7131
2.71478
2.71729
2.72022
2.72416
2.72904
2.73546
2.74383
2.75277
2.76318
2.77444
2.78664
2.79966
2.8133
2.82713
2.84125
2.85466
2.86553
2.87188
2.87481
2.87507
2.87422
2.87182
2.8665
2.85969
2.8537
2.85243
2.85272
2.85459
2.86115
2.87034
2.88289
2.8921
2.89778
0.999186
0.999212
0.999183
0.999149
0.999097
0.999029
0.998939
0.998853
0.99874
0.998594
0.998453
0.99831
0.998158
0.997939
0.997755
0.997586
0.997308
0.997059
0.996907
0.996703
0.996308
0.99594
0.99571
0.995505
0.995202
0.994858
0.99462
0.994289
0.993739
0.993153
0.99274
0.99256
0.992507
0.992367
0.992007
0.991307
0.990381
0.989973
0.989652
0.989479
0.989503
0.98996
0.992919
1.02436
1.54497
2.08806
2.08537
2.09233
2.11091
2.15383
2.21535
2.39359
2.57499
2.79595
2.84583
2.83082
2.80586
2.79113
2.77303
2.75411
2.73411
2.71807
2.70696
2.69916
2.69318
2.68784
2.6826
2.67728
2.67214
2.66772
2.66463
2.66288
2.66216
2.6628
2.66389
2.66695
2.67086
2.67609
2.6821
2.68594
2.68955
2.69199
2.69379
2.6957
2.69766
2.7001
2.7026
2.7057
2.70881
2.71288
2.7175
2.72345
2.7314
2.74011
2.75052
2.76199
2.77459
2.78828
2.80286
2.81821
2.83368
2.84744
2.85823
2.86438
2.86706
2.86745
2.86648
2.8638
2.85795
2.85093
2.84503
2.84365
2.84256
2.8451
2.85036
2.85939
2.87119
2.88042
2.88499
0.999202
0.999228
0.999201
0.999168
0.99912
0.999053
0.99897
0.998887
0.998778
0.998642
0.998499
0.998373
0.998222
0.99801
0.99784
0.99766
0.997421
0.997215
0.99701
0.99676
0.996486
0.996204
0.995852
0.995519
0.995319
0.995228
0.995012
0.994473
0.99364
0.993171
0.993008
0.993045
0.992931
0.99258
0.991968
0.990979
0.99024
0.989966
0.989777
0.989458
0.989193
0.989769
0.996741
1.1116
1.85512
2.09063
2.10346
2.11868
2.1526
2.24938
2.38128
2.64805
2.77497
2.84852
2.82934
2.80021
2.78493
2.76705
2.75223
2.7345
2.71571
2.70109
2.69097
2.68409
2.67895
2.67448
2.67007
2.66547
2.66066
2.65606
2.65256
2.65003
2.6482
2.64778
2.64771
2.64951
2.65193
2.65637
2.66261
2.66804
2.67322
2.67642
2.67916
2.68161
2.68465
2.68759
2.69038
2.69381
2.69727
2.70126
2.70634
2.71215
2.71945
2.72839
2.73883
2.75045
2.76326
2.77726
2.79234
2.80848
2.82461
2.83857
2.84922
2.85561
2.85863
2.85915
2.85802
2.85508
2.84884
2.84172
2.836
2.83419
2.8321
2.83524
2.83987
2.84839
2.85972
2.86819
2.87193
0.999219
0.999245
0.99922
0.99919
0.999144
0.99908
0.999003
0.998923
0.998822
0.998692
0.998552
0.998439
0.99829
0.998103
0.997921
0.997733
0.997566
0.997367
0.997091
0.996873
0.996692
0.996408
0.995983
0.995692
0.995613
0.995488
0.995172
0.994494
0.993869
0.993622
0.993556
0.993354
0.992951
0.992348
0.99152
0.990957
0.990727
0.990663
0.990528
0.990077
0.990126
0.992508
1.01232
1.41113
2.01105
2.08104
2.10545
2.15929
2.23126
2.43202
2.61516
2.81348
2.85038
2.82926
2.79648
2.77796
2.75881
2.74471
2.73042
2.71341
2.6958
2.68252
2.67358
2.66784
2.66391
2.66058
2.65751