/*--------------------------------*- C++ -*----------------------------------*\
| =========                 |                                                 |
| \\      /  F ield         | OpenFOAM: The Open Source CFD Toolbox           |
|  \\    /   O peration     | Version:  2.2.x                                 |
|   \\  /    A nd           | Web:      www.OpenFOAM.org                      |
|    \\/     M anipulation  |                                                 |
\*---------------------------------------------------------------------------*/
FoamFile
{
    version     2.0;
    format      ascii;
    class       volScalarField;
    location    "1.1";
    object      pB;
}
// * * * * * * * * * * * * * * * * * * * * * * * * * * * * * * * * * * * * * //

dimensions      [1 1 -3 0 0 -1 0];

internalField   nonuniform List<scalar> 
14161
(
-0.00768732
0.00180068
-0.000590128
4.58265e-06
-0.000294854
-0.000236661
-0.000314959
-0.000316582
-0.000356452
-0.000368161
-0.000394008
-0.000411237
-0.000424237
-0.000432635
-0.000450842
-0.000442514
-0.000445577
-0.000441532
-0.000433173
-0.000402408
-0.00038917
-0.000358541
-0.000326239
-0.000284406
-0.000237593
-0.000180518
-0.000132289
-5.03363e-05
2.21652e-05
0.000115295
0.000200336
0.000326099
0.000418003
0.000583657
0.000690594
0.000898426
0.00110054
0.00125768
0.00147754
0.00152983
0.0018042
0.00185525
0.00173972
0.00167227
0.000796002
0.000294973
-0.00237441
-0.00583707
-0.00149386
-0.0437945
0.252499
-0.0308802
-0.0332602
-0.00837399
-0.00600861
-0.00210664
-0.00191066
-0.00024376
-0.0031698
0.000412631
-0.00190009
0.000872771
0.000461342
-0.000104349
-0.00193603
-0.00183698
-0.000730566
0.000439017
0.000738191
4.09603e-05
-0.00166648
-0.000529101
0.00352927
0.00185952
-0.0025625
-0.00465787
-0.000248321
0.00389153
0.000229031
0.0040547
0.000708073
5.19311e-05
-0.000325478
-0.00279055
-0.00660091
-0.000183878
-0.0063162
0.000414697
0.00648149
0.0112181
0.00350006
-0.000230277
0.00196843
0.00169202
-0.00381872
0.000873967
0.00164274
-0.000916219
-0.000187767
-0.000523573
7.83295e-05
0.000914315
-0.000269037
5.48349e-05
-0.00067309
-0.000129501
-0.000308147
-0.000113763
-8.2101e-05
0.000344032
-0.00146379
0.00180009
-0.00372665
0.00425316
-0.00681619
0.00628261
-0.0100299
0.0106892
-0.0115857
-0.00769451
0.00180754
-0.000591818
4.22609e-06
-0.000295218
-0.000237036
-0.000313975
-0.000318076
-0.000354895
-0.000373351
-0.00038856
-0.000415688
-0.00042295
-0.000433311
-0.000449085
-0.000445683
-0.000447195
-0.00044009
-0.000432247
-0.00040405
-0.000389697
-0.000361266
-0.000328428
-0.000288862
-0.000242126
-0.000186548
-0.000138056
-6.77148e-05
1.97324e-06
8.42354e-05
0.000164869
0.000264053
0.000359476
0.000470722
0.000578771
0.000724131
0.000795789
0.000983185
0.00098649
0.00116901
0.00108907
0.0011051
0.000767403
0.000324035
-0.000401763
-0.00141049
-0.00280368
-0.00734043
-0.00168207
-0.0443893
0.0907476
-0.00547144
0.00944681
0.00519451
0.00499048
0.000520538
0.0013565
0.000596692
-0.00189853
0.00192824
-0.00179112
0.000139788
0.000648932
0.000244277
0.000703717
0.000906065
0.00156616
0.000324034
-0.000392389
-0.000229986
0.00139906
0.000804911
0.0013611
-0.00069822
-0.000947313
0.00207916
0.000522328
-0.014425
0.00925444
0.0288881
0.00167492
-0.0327931
-0.00589254
0.033645
-0.0127908
0.0112437
0.011971
0.0179697
-0.00978325
-0.0101719
0.00097353
6.21847e-05
0.00325015
-0.00511847
0.00250732
-0.00302558
0.00181381
-0.00134873
0.000421091
-0.000179293
0.000283543
-0.00150303
0.000161078
-0.000616835
-0.000101116
-4.19533e-05
0.000389765
-6.87132e-06
0.00017209
-0.000221063
-0.00149575
0.00213397
-0.00399682
0.00398891
-0.00754631
0.00773686
-0.00945245
0.00772547
-0.0112418
-0.00768927
0.0018039
-0.000591912
3.64503e-06
-0.000295357
-0.000237013
-0.000314233
-0.000317609
-0.000356309
-0.000368971
-0.000394533
-0.000411475
-0.000424474
-0.000436165
-0.000447335
-0.000448191
-0.000444929
-0.000441699
-0.000435666
-0.000405452
-0.000390535
-0.00035959
-0.000327826
-0.000284537
-0.000235152
-0.000175893
-0.000128346
-3.9667e-05
3.70953e-05
0.000138394
0.000237658
0.000367629
0.000492811
0.000660875
0.000839343
0.00106671
0.00129449
0.00166047
0.00181181
0.00224153
0.00246724
0.0029541
0.00356323
0.00452971
0.00395346
0.00848272
0.00221919
0.0222013
-0.0126754
0.104417
0.0233462
0.0254384
-0.00045741
0.000939611
-0.00259256
-0.000696721
-0.00370266
-0.00146813
-0.00371399
0.00161503
-0.00362961
-0.00164264
-0.0024589
-0.00324185
-0.0031822
-0.00106941
-0.00152967
-0.00103421
0.000297864
-0.00276146
-0.000457696
-0.00365708
-0.00180986
-0.0010614
-0.00395727
-0.00254547
0.0176143
0.0159336
-0.0248985
-0.0519265
0.0128572
0.0786193
0.00419105
-0.0282976
0.0269086
0.0173011
-0.0244019
-0.00988138
0.00535523
0.0178146
-0.0116557
-0.0014584
0.00436101
0.0015941
-0.00599506
0.00669774
-0.000877637
0.00135093
-0.00193442
-0.000271347
0.000138833
0.00032003
0.000117547
-0.000309265
0.000272826
-0.00142123
-0.000348764
-0.000489166
-0.000824362
0.000167325
-0.00164766
0.00116032
-0.0040506
0.00434574
-0.00629994
0.0069924
-0.00842454
0.0108567
-0.00874767
-0.00768726
0.00180108
-0.000592495
2.62833e-06
-0.000295959
-0.000237692
-0.000313853
-0.000319304
-0.000356962
-0.000369843
-0.000395593
-0.000407557
-0.000427379
-0.000434045
-0.000446873
-0.000450196
-0.000446875
-0.00044
-0.000432224
-0.00040975
-0.000391912
-0.000363867
-0.00033417
-0.000297018
-0.000253089
-0.000201807
-0.000151083
-9.6651e-05
-3.19074e-05
3.54549e-05
0.000104819
0.000184208
0.000249472
0.000344962
0.000388193
0.000483919
0.000518473
0.000538032
0.000574679
0.000582356
0.000545136
0.000592826
0.000366074
0.000359267
0.000286349
0.000536162
-0.00109646
0.0026405
-0.00344621
0.0109965
0.0239533
0.0228821
0.000972036
0.00275319
0.00271836
0.00267866
-0.000520463
0.00370359
-0.00376844
0.00284808
-0.00159249
-0.00235884
-0.00166293
-0.00152958
0.000560007
0.00120649
0.00171314
0.000525305
-0.00117849
0.000269183
0.00260929
0.0012322
-0.00234365
-0.00268924
0.00672907
0.0133995
-0.0188353
-0.0371873
0.0363862
0.0643066
0.00114396
-0.0755618
-0.00421286
0.0366286
-0.0136917
-0.0233535
0.0462803
-0.0196132
0.0122975
-0.023611
0.0139397
0.00380884
-0.000584669
-0.00218237
0.003347
0.000542156
-0.000801977
0.000546824
-0.000179036
0.0010295
-0.00141979
0.001152
-0.00157069
0.00103187
-0.000644491
0.00177018
0.000491589
-0.000446785
-0.00109741
0.00052893
-0.00165567
0.00355083
-0.00457644
0.00495137
-0.00756087
0.00742829
-0.00945883
0.00596669
-0.0103189
-0.00767604
0.0017917
-0.000591918
1.58923e-06
-0.000296132
-0.000237868
-0.000313483
-0.00032034
-0.000353374
-0.000373871
-0.000390614
-0.000412267
-0.000424713
-0.000436907
-0.000445163
-0.000454386
-0.000447825
-0.000446104
-0.000435845
-0.000412516
-0.000393966
-0.00036404
-0.000332437
-0.000289357
-0.000239437
-0.00018075
-0.000126294
-4.31262e-05
3.98279e-05
0.000150083
0.000254517
0.00039802
0.000530998
0.000752797
0.000914705
0.00121492
0.00144761
0.00183493
0.00214601
0.00257553
0.00300077
0.00377996
0.0044161
0.00569825
0.00642855
0.00986484
0.0082714
0.025574
0.00159138
0.0758618
0.00161604
0.0251877
-0.00882125
0.00287058
-0.00210832
0.00320334
-0.0039781
0.00361562
-0.00463344
0.000305142
-0.00291952
-0.00148104
-0.00151168
-0.00230433
-0.0021845
-0.000601163
-0.0016143
-0.0016347
-0.003949
-0.00261944
-0.0026954
0.000178285
0.000916505
0.00328364
-0.00207799
-0.00792017
-0.00294288
0.0411173
0.0167291
-0.0596813
-0.024865
0.0510066
0.016065
-0.0324887
0.0329038
-0.0106764
-0.00263581
-0.0297751
0.0272906
0.00172884
-0.0061192
0.00137471
0.00849636
-0.00429361
0.00285682
-0.00232442
0.00454654
-0.00412581
0.000381832
-0.00235907
0.00161401
-0.00141916
0.00237571
-0.00185069
0.000105755
-0.00205637
-0.000803928
7.04344e-05
-0.000370499
0.000162641
-0.00259702
4.76326e-05
-0.00368806
0.00365812
-0.00617617
0.00504312
-0.00735297
0.00774809
-0.00680503
-0.00767051
0.00178531
-0.000591645
-1.13003e-07
-0.000296968
-0.00023867
-0.000313938
-0.000321117
-0.000356956
-0.000371615
-0.000396349
-0.000409547
-0.000429203
-0.000440726
-0.000445522
-0.000455436
-0.000450208
-0.000444563
-0.000432305
-0.000420936
-0.000396329
-0.000372809
-0.000343959
-0.000310693
-0.000269804
-0.000223942
-0.000177343
-0.000134785
-7.79968e-05
-2.58879e-05
2.38373e-05
8.08232e-05
0.000122871
0.000175705
0.00019871
0.000205531
0.00018914
0.000163802
7.98638e-05
4.53956e-05
2.21816e-05
4.16622e-05
0.000151469
0.00026583
0.000551406
0.00169014
-0.00219643
0.00954326
-0.0274948
0.107356
-0.0316464
0.052064
-0.0037481
-0.00269785
0.00117005
3.13587e-05
-0.00363991
0.00364292
-0.00535546
0.00427163
-0.00160931
0.00391181
0.000642883
0.00110934
0.00141218
0.00169387
5.26689e-05
-0.000202441
0.0020411
0.00234095
0.00400151
0.00246843
0.00026342
-0.001682
0.000506393
0.00464748
0.0106788
-0.00127204
-0.0124705
0.000548537
0.0331658
-0.00956078
0.00305601
-0.00765207
-0.00100547
-0.0150109
0.01611
0.0106002
-0.0105917
0.00139
0.00204565
0.00889587
-0.00944716
0.00225484
0.00141649
0.00283387
-0.00342284
0.000634522
0.00125965
-0.0014726
0.00107441
-0.00131808
0.000489977
-0.00169723
0.00151755
-0.00239025
0.00219433
-0.00147255
-0.000263315
0.00187976
0.000189281
0.00341629
-0.00525099
0.0040894
-0.00518575
0.00682315
-0.00807078
0.00715713
-0.00807806
-0.00765466
0.00177207
-0.000591044
-1.47198e-06
-0.00029732
-0.000238895
-0.000314329
-0.000320105
-0.000357381
-0.000370114
-0.000397927
-0.000408268
-0.000430415
-0.000443369
-0.000441164
-0.000458186
-0.000459473
-0.000443964
-0.000437727
-0.000426188
-0.000401791
-0.000375785
-0.000341521
-0.000300022
-0.000252504
-0.000193667
-0.000135682
-5.83463e-05
2.40718e-05
0.000136856
0.00024717
0.000393715
0.000532547
0.000756707
0.000948759
0.00123809
0.00145858
0.00181281
0.00210649
0.0025078
0.00280109
0.00316411
0.00361674
0.00384572
0.00445796
0.00363743
0.00611136
0.00358062
0.0046211
-0.00240424
0.0565061
0.0568216
0.00419586
0.00038281
0.006388
0.00714799
-0.00668481
0.00493634
-0.00782035
0.0025267
-0.00585297
0.000520163
-0.00540661
-0.00286259
-0.00493573
-0.00313221
-0.00193448
-0.00115473
-0.00102244
-0.00231254
-0.00295045
-0.00270532
-0.00198375
0.000553398
-0.00237147
0.00204787
-0.00751739
-0.00511111
0.0146945
0.00932458
-0.0112099
0.00213125
0.00238802
0.00277135
0.007068
0.0158732
-0.0120561
-0.00477433
-0.0178415
0.0192427
-0.0163305
-0.0051707
0.00361569
0.00271273
-0.00523284
0.00205283
-0.0032171
0.00198486
-0.00328135
0.00060971
-0.00338827
0.00218598
0.00013715
0.000355079
-0.00255923
0.00181458
-0.000418549
0.00373862
-5.67999e-05
-0.00121551
-0.00550236
5.10378e-05
-0.00219333
0.00492425
-0.00619622
0.00316688
-0.00607617
0.00792721
-0.00726575
-0.00764667
0.0017636
-0.000590808
-3.64033e-06
-0.000298534
-0.000239845
-0.000314748
-0.0003222
-0.000357148
-0.000374196
-0.000397267
-0.000411484
-0.000426378
-0.00044648
-0.000440579
-0.000461115
-0.000459083
-0.000447493
-0.000438824
-0.000432081
-0.000405117
-0.000387419
-0.000357813
-0.000328626
-0.000291927
-0.000254442
-0.000217019
-0.00018321
-0.000138663
-0.000102792
-6.70335e-05
-3.55838e-05
-1.52455e-05
-9.97138e-06
-2.87471e-05
-6.46213e-05
-0.000122045
-0.000159791
-0.000333618
-0.000464828
-0.000640489
-0.000812282
-0.000882416
-0.00133881
-0.00087185
-0.00307777
-0.00121818
-0.0106448
0.00201781
-0.034832
0.149443
-0.0190073
-0.0319749
-0.0301222
0.00163198
-0.00380039
0.00144711
0.00427695
-0.00184037
0.00356803
-0.000546894
0.00206649
-0.00141586
0.00192372
0.000217932
0.00173934
0.00183789
-0.00097332
-0.000434631
-0.000996674
0.00172508
0.001301
0.00272992
-0.00208058
-0.000559869
-0.00488023
0.00327266
0.000846078
0.00403242
-0.00385292
-0.00294159
0.0105193
0.00135875
0.00179199
-0.0177368
0.00417125
-0.0150948
0.017182
0.00293694
0.00723684
0.0033326
0.00787611
-0.000447704
-0.00946324
0.00935636
-0.00564644
0.000622125
-0.000135614
-0.000228387
-0.000811842
-0.00167085
-0.000799198
-0.00333806
0.000805533
0.00193602
0.000212963
-0.00141101
-0.00269585
-0.00455744
0.00131407
-0.000523409
0.00409389
-0.00474073
0.000901079
-0.00545857
0.0062863
-0.00627253
0.00580338
-0.0066024
-0.00762862
0.00174946
-0.000590437
-5.26425e-06
-0.000299104
-0.00024009
-0.000315238
-0.000322747
-0.000356748
-0.000372525
-0.000401001
-0.000407841
-0.000432892
-0.000448636
-0.000443446
-0.000463861
-0.00046247
-0.000454941
-0.000444676
-0.000438841
-0.000414921
-0.000390215
-0.000358823
-0.000321343
-0.000277106
-0.000223055
-0.000162364
-9.848e-05
-4.38358e-06
8.54451e-05
0.000205697
0.000338744
0.000474173
0.000681629
0.000856836
0.00112461
0.00129904
0.00156236
0.00173927
0.00199024
0.00221647
0.00221459
0.00266072
0.00184516
0.00306115
0.000546325
0.0068667
-0.00452607
0.0248456
-0.0263827
0.147596
0.100474
0.00298665
-0.020578
-0.0117623
-0.0136054
-0.0129906
-0.00433069
-0.0121456
-0.00305226
-0.00681381
-0.00316539
-0.0056592
-0.003722
-0.0037079
-0.00426727
-0.00265472
-0.00200933
-0.00155319
-0.00181594
-0.00332741
-0.00347668
-0.0035598
-0.00100224
-0.00265399
0.00060107
-0.00413725
0.000796022
0.00776443
0.00727618
0.000220513
-0.00537306
-0.00320915
-0.000553102
-0.00270933
0.0101172
-0.00391323
-0.000283826
-0.00566015
-0.0210232
-0.00262609
-0.00502112
6.79756e-05
0.00435636
0.00247651
-0.00160863
0.00594873
-0.00317178
0.00321248
-0.00505697
0.00207203
-0.00017198
0.0032334
-0.00425004
-0.00279915
-0.00230265
0.00108594
0.00167946
0.00237096
0.00106254
-0.00405181
0.00135499
-0.00425318
0.00606666
-0.00575795
0.0033499
-0.00457472
0.00526077
-0.00612261
-0.00761893
0.00173976
-0.000590502
-7.35012e-06
-0.000300494
-0.000241701
-0.000316109
-0.000323467
-0.000359271
-0.000373494
-0.00040257
-0.000409747
-0.000435367
-0.000449157
-0.000448062
-0.000461895
-0.000468887
-0.000460279
-0.000446874
-0.00044761
-0.000423513
-0.00040869
-0.000380463
-0.000354075
-0.000323394
-0.000296054
-0.000262656
-0.0002383
-0.000212052
-0.000185977
-0.000174304
-0.00016219
-0.000154475
-0.000180076
-0.000217702
-0.000287632
-0.000336533
-0.00042535
-0.000511479
-0.00061092
-0.000715737
-0.000811464
-0.000729303
-0.00094589
-0.000609566
-0.00166208
-0.00117569
-0.00449294
-0.00459723
0.00329233
0.0242466
0.140222
-0.0290079
-0.00408316
-0.00878886
-0.00131561
-0.0045844
0.00269535
-0.00401402
0.00523203
-0.00234774
0.00161514
-0.00191293
0.000887544
-0.00309887
0.000134595
-0.000235567
0.00027799
0.00115519
0.000258405
0.00173035
-0.0015998
0.000275243
-0.000887071
-0.00059557
-0.00426264
-0.000589134
0.00318202
0.0141712
-0.0163904
-0.00559622
0.0146018
0.00209132
-0.0124628
-0.00846143
-0.000832758
0.00462672
-0.00863097
0.00849528
-0.00610559
0.0101334
0.0036036
0.000673523
0.00550279
-0.00312757
-0.00274878
-0.00439267
0.000861242
-0.000686415
0.0012739
0.00288999
0.00116793
-0.00444736
0.00245434
0.00311341
0.00127334
-0.00110312
-0.00105111
-0.00345667
0.000484661
0.000218929
0.00221517
-0.0022312
0.000454938
-0.0035246
0.00731946
-0.00705807
0.00530919
-0.00483222
-0.00760051
0.00172633
-0.000590244
-9.18341e-06
-0.000301357
-0.000242225
-0.000316598
-0.000324598
-0.000359417
-0.000374868
-0.000400697
-0.000411952
-0.000434917
-0.00045321
-0.00045326
-0.000464905
-0.000470163
-0.000474066
-0.000451932
-0.000447984
-0.000434842
-0.000413378
-0.000386812
-0.000353752
-0.000314648
-0.000269915
-0.000213803
-0.000152665
-8.16499e-05
1.11941e-05
0.000105315
0.000227286
0.000361053
0.00052354
0.000657469
0.00083917
0.00095762
0.00108546
0.00118832
0.00128342
0.00130914
0.00107843
0.00105375
0.000600553
0.000710759
-0.000583355
0.00183016
-0.00414643
0.00907624
-0.0301043
0.120541
0.0787481
-0.0126987
0.00280039
-0.00670764
-0.0116189
-0.00596889
-0.00871594
0.0028105
-0.0116654
0.00344311
-0.00897789
-0.000827328
-0.00577386
-0.00290013
-0.00362709
-0.0012584
-0.00319914
-0.00220986
-0.00151414
-0.00238216
-0.00222279
-0.00389968
-0.00125912
-0.00322855
-0.00644328
-0.00458021
0.0120589
0.000557706
-0.0050621
0.00959802
-0.00167385
-0.0152338
-0.0114786
0.00302286
0.00340614
0.00500807
-0.00774449
0.00153555
-0.00379056
-0.00719356
-0.00090176
-0.0114594
0.00827167
-0.0105338
0.00786643
-0.00520762
0.00146919
-0.0022875
0.00202217
-0.00458221
0.00050251
0.000568785
0.00037169
-0.00237498
-0.000375786
-0.00112057
0.000988187
0.000393548
0.000827772
-0.00290323
-0.000738632
-0.00461767
0.00586466
-0.00316545
0.000469839
-0.00497432
0.00702576
-0.00656643
-0.00758977
0.00171622
-0.000590666
-1.12678e-05
-0.000302979
-0.00024392
-0.000317968
-0.000324801
-0.000361203
-0.000375976
-0.000401123
-0.000420216
-0.000435276
-0.000452246
-0.000465078
-0.000463395
-0.000476273
-0.000478957
-0.000462846
-0.00045835
-0.000451631
-0.000433981
-0.000412129
-0.000388361
-0.000367572
-0.000346808
-0.000321071
-0.000302986
-0.000287935
-0.000281607
-0.000275695
-0.000287416
-0.000296233
-0.000315787
-0.000365892
-0.000429003
-0.000500817
-0.000538534
-0.000578711
-0.00059078
-0.000502524
-0.000343732
-0.000276692
2.68404e-06
0.000237556
0.00156503
0.00262649
0.00460535
0.0097962
0.00844794
0.0701291
0.068483
-0.0163183
0.0260068
0.000780296
0.00912069
-0.00920411
0.00906125
-0.00210089
0.000679167
0.00319053
-0.00344913
0.00189737
-0.00141972
-0.0008833
0.00290965
-0.000606193
0.00229108
0.00132488
0.000877476
-0.000541391
-0.0017385
-0.000222693
-0.00193346
0.000804127
0.00270512
0.00674741
0.0133718
0.00139466
0.00393033
-0.00532694
-0.0136417
-0.001292
0.0062457
0.00884275
-0.00693577
-0.00754803
-0.000951448
-0.00499818
0.00408011
-0.00372251
0.00850015
-0.00454766
0.013383
-0.00489192
0.00301959
0.00610186
-0.00132068
-0.00219595
-0.00286022
-0.00166027
-0.000955103
-0.00182008
-0.00115087
-0.000210245
0.000385967
-0.000605501
0.00070168
-0.000838631
-0.000332343
-0.00123937
0.00220494
-0.00114352
0.000375561
-0.00534612
0.00776714
-0.00495976
0.00344042
-0.00604294
-0.00757276
0.00170491
-0.000590463
-1.32333e-05
-0.000304015
-0.00024441
-0.000319044
-0.000325111
-0.00036201
-0.000377229
-0.000401286
-0.000422215
-0.000438073
-0.000451209
-0.000469713
-0.000469852
-0.000480725
-0.000485727
-0.000476251
-0.000464689
-0.000460912
-0.000444142
-0.000422465
-0.000394195
-0.000366098
-0.000331101
-0.00028776
-0.000234739
-0.000177075
-0.000114635
-3.75614e-05
5.95835e-05
0.000153148
0.000296177
0.00036814
0.000459511
0.000538831
0.0006457
0.000654831
0.000641328
0.000550279
0.000519296
0.000307125
0.000265587
-0.000221186
-0.000601576
-0.00272529
-0.00449815
-0.00982081
0.021244
0.0475
0.0249549
0.00224448
0.0325614
-0.00509162
0.0220809
-0.0113006
-0.00258605
-0.00101555
-0.0131257
0.00752318
-0.0121309
-0.000724876
-0.0046153
-0.00305485
-0.00242258
-0.000801275
-0.00247619
-0.00223573
-0.00201393
-0.00375107
-0.00296112
-0.00459023
-0.000200159
-0.00535851
0.000766102
-0.00440812
0.027011
-0.0159651
-0.0109624
-0.00053437
-0.00402089
0.00158467
-0.000799793
-0.0135373
-0.0044251
-0.00485456
0.00343647
-0.00595803
0.00109094
-0.00831063
0.00633821
-0.00874942
-0.000204802
-0.00258611
0.00021961
0.00287694
0.00154059
0.0041067
-0.00161853
-0.000868981
-0.000904548
0.00108081
0.0013771
-0.000862598
5.07006e-05
-0.00169838
2.81481e-06
-0.000903389
-0.000447056
-0.000143202
-0.00122174
-0.00214576
0.00345523
-0.00150907
0.000567558
-0.00627482
0.00734538
-0.00442803
-0.00756163
0.00169547
-0.000591204
-1.51461e-05
-0.000305795
-0.000246034
-0.000321147
-0.000325132
-0.000365822
-0.000378574
-0.000405972
-0.000422102
-0.00043903
-0.000456782
-0.000473848
-0.000476026
-0.000484957
-0.000493143
-0.000490237
-0.000475007
-0.00047634
-0.000470145
-0.000453497
-0.000433824
-0.000422155
-0.000409302
-0.000392349
-0.000379682
-0.000374858
-0.000378074
-0.000386827
-0.000402925
-0.00042339
-0.000475128
-0.000497193
-0.000559449
-0.000590503
-0.000620018
-0.000627209
-0.000516134
-0.00045194
-0.000143208
-0.000123076
0.000715499
0.000148384
0.0032601
-0.00126195
0.0120584
-0.0168289
0.0844845
0.0224529
0.0156243
-0.00288861
0.0206211
0.00603248
0.0295828
-0.0196133
0.016854
-0.0142467
0.0106424
-0.00720735
0.00628536
-0.00292049
0.00238792
-0.000811901
0.000371257
-0.000909955
0.0017322
0.00106678
0.0012355
-0.000492646
-0.00111643
0.00396059
-0.000775706
0.00166162
-0.00139456
0.0237842
-0.0129721
-0.0166104
-0.00132263
0.00521264
-0.00144649
-0.00940972
-0.00827076
0.000688533
0.00409516
0.00261615
-9.67238e-05
-0.00519236
0.00202196
-0.00198797
0.00318317
0.00393747
-0.00365539
0.00754401
-0.00120087
0.00517757
-0.00590376
-0.00308919
-0.00127692
0.00274266
0.00137044
-0.00139226
-0.000434427
-0.00116616
0.00130438
-0.00131024
0.000571159
-0.00013182
0.000140646
-0.00110442
0.000910167
-0.00154187
0.000107903
-0.00510114
0.00424557
-0.00257731
0.00456004
-0.00795065
-0.00754733
0.00168583
-0.000590896
-1.71056e-05
-0.000307041
-0.000246899
-0.000321763
-0.000326739
-0.000365875
-0.000378266
-0.000406364
-0.000430302
-0.000444318
-0.000456331
-0.000484374
-0.00048275
-0.000490876
-0.000498806
-0.000505163
-0.000494564
-0.000488252
-0.000483043
-0.000471012
-0.000448953
-0.000429006
-0.000411383
-0.000387609
-0.000349337
-0.000305394
-0.000258377
-0.000209168
-0.000160133
-7.80555e-05
-2.65131e-05
5.6266e-05
8.38762e-05
0.00014775
0.000119
0.000162488
0.00012487
7.07019e-05
-0.000110685
-0.000611902
-0.000506836
-0.0017111
-0.000125063
-0.00380546
0.00676041
-0.0179102
0.0982562
0.00542241
-0.00223553
-0.00819988
0.0125691
0.0102338
0.026175
0.00211324
0.0272382
-0.0156163
0.00852653
-0.0123796
0.00222858
-0.0081707
-0.000950135
-0.00231625
-0.00112428
-8.04786e-05
0.00199211
-7.59766e-05
0.000373339
-0.00395188
0.00078658
-0.00432719
0.00526684
-0.00614329
0.0101074
0.0104305
-0.0122902
-0.00209127
0.00289329
-0.00638435
-0.0103496
-0.0070775
-0.00154897
0.000915616
-0.00254967
-0.00532227
-0.00443407
-0.00446979
-0.00192023
-0.00279968
-0.00489368
0.0024556
-0.0119851
0.00904068
-0.00541068
0.00540696
0.00267449
0.00179033
-0.00175466
-0.00373636
0.00016452
-0.00205692
0.00126703
-0.000297615
0.000714891
-0.00155069
0.00049764
-0.000712332
0.000218111
-1.43537e-05
9.82359e-05
-0.00215169
0.00223526
-0.00233507
0.00455951
-0.00449646
0.00182967
-0.00284486
-0.00753683
0.00167779
-0.000591792
-1.88688e-05
-0.000308768
-0.000248055
-0.000323811
-0.00032715
-0.000366546
-0.000381651
-0.000404143
-0.000434869
-0.000448461
-0.000456913
-0.000488043
-0.000491068
-0.000500709
-0.000507643
-0.000513693
-0.00051284
-0.000505866
-0.000507305
-0.000508206
-0.000492798
-0.000481791
-0.000485143
-0.000485976
-0.000475873
-0.000478576
-0.000493282
-0.00050617
-0.000533349
-0.000555562
-0.000587407
-0.000619747
-0.000671312
-0.000705298
-0.000755048
-0.000728905
-0.000657592
-0.000552288
-0.000352134
1.54953e-05
0.000525251
0.000938091
0.00172962
0.000918814
0.00610646
-0.00612935
0.0850653
0.0124074
0.00103157
-0.00447278
-0.00803936
-0.00427404
0.0122905
0.0133152
0.0178525
0.00374886
0.0107483
-0.0055552
0.00332155
-0.00392057
0.00280521
-0.000485898
0.00176519
0.000297483
0.0037869
-0.00167864
0.0023554
0.000873868
0.00914239
0.00898648
-0.00265205
0.0121788
0.00307724
-0.00102153
-0.00789501
0.000816968
0.00477623
-0.00130583
0.00050423
0.0021241
0.003295
0.00242212
0.00246338
0.00278921
0.00165463
0.00385181
-0.00113512
0.00472368
-0.00372328
0.0093107
-0.00355502
0.00740698
0.000259272
0.00492148
0.00617556
-0.00217625
0.00128296
0.00298296
0.00404366
-0.00313918
5.49689e-05
-0.000911066
0.00181228
-0.00134272
0.000546636
-0.000655351
0.000373585
-0.00142177
-0.000729776
0.000268986
-0.00101381
-0.000386971
0.000641531
-0.00452778
0.00646517
-0.0054301
-0.00752425
0.00166998
-0.000591404
-2.06643e-05
-0.000310117
-0.000248837
-0.000325173
-0.000327817
-0.000369205
-0.000384848
-0.000408573
-0.000434587
-0.000453041
-0.000463588
-0.000491302
-0.000504803
-0.000506474
-0.000518745
-0.000534451
-0.000529566
-0.000526671
-0.000525494
-0.000524988
-0.000522013
-0.000507254
-0.000497364
-0.000497921
-0.000485247
-0.000460191
-0.000429053
-0.00040179
-0.000373902
-0.000343385
-0.000321406
-0.000268879
-0.000258718
-0.000235945
-0.000241389
-0.000250171
-0.000370353
-0.000709852
-0.0016748
-0.00166079
-0.00199559
-0.00226349
-0.00289717
-0.00332599
-0.00875848
0.0205286
0.053217
0.0143456
0.00200879
0.00174165
-0.00303641
0.00593632
-0.000543919
0.0104727
0.00876573
0.026445
-0.0159149
0.01492
-0.0107846
-0.0078604
0.00776828
-0.0115267
0.00566327
-0.00618814
0.011631
-0.00482375
0.00690361
0.00296763
0.0136664
-0.00169485
0.00246809
0.00377027
-0.00104834
0.00109847
0.000485053
-0.00224887
-0.00358989
-0.00103329
0.00131828
0.00305211
0.00171519
5.39588e-05
-0.000862562
-0.00140055
-0.000392923
-0.000222382
-0.00338669
-0.00438503
-0.00550551
-0.00416773
-0.00236751
-0.00776244
0.000375575
-0.00148568
0.000171906
0.000402182
-0.00241608
-0.00326318
-0.00112207
-0.00211333
0.00140042
-0.000315473
-0.000249849
-0.0012666
0.00108874
-0.000388807
-0.00021566
0.000280937
-0.000362844
-0.000289583
-0.000150171
0.000362223
0.000623341
-0.00236764
0.00228595
-0.00538873
-0.00751534
0.0016637
-0.00059229
-2.21415e-05
-0.00031168
-0.000249843
-0.000326257
-0.000330409
-0.000368813
-0.000386841
-0.000413697
-0.000433579
-0.000459691
-0.000472115
-0.000492163
-0.000514471
-0.000515801
-0.000527115
-0.000546715
-0.000547226
-0.000551724
-0.000552443
-0.000560074
-0.000572802
-0.000562518
-0.000565773
-0.000579139
-0.000603717
-0.000599903
-0.000615988
-0.000647073
-0.000678443
-0.000716108
-0.000731671
-0.00078001
-0.000844472
-0.000948827
-0.00101608
-0.000837523
-0.000818213
-0.000587419
-0.000682568
-0.000162529
-0.00085272
0.0011897
-0.00337221
0.00611353
-0.0181091
0.0796332
0.0418908
-0.00151635
0.000748662
-0.00721078
-0.0069187
-0.00205623
0.000726919
0.00591188
0.00228399
0.0153148
0.00410668
0.0234024
-0.00883694
-0.00556335
0.0209975
-0.0192893
0.0292328
-0.00219653
0.0161857
-0.00156166
0.00434962
0.00206904
-0.0016445
0.0060809
-0.00114017
0.00189595
0.00131201
0.00257904
0.0036228
0.00380102
0.00324127
0.000312998
0.0008818
0.00198007
0.00201875
0.00341606
0.00233394
0.00151926
0.00135651
0.00267004
0.00446891
0.00258914
0.0113402
-0.00409245
0.015356
-0.00379659
0.00927742
0.00103449
0.00750622
-0.00214179
0.00579971
0.0052384
0.00377366
-0.0014127
-0.000379915
3.0492e-05
0.00145363
0.000400172
0.000696514
-0.000587155
0.00132876
-0.000438338
-4.17036e-05
0.00118061
-0.00012658
0.000310596
-0.00194969
-0.00300712
0.00218911
-0.00189041
-0.00750484
0.00165775
-0.000591774
-2.34574e-05
-0.000313059
-0.00025085
-0.000327269
-0.00033127
-0.000371945
-0.000387733
-0.0004207
-0.00043399
-0.000467399
-0.000479818
-0.000497134
-0.000525006
-0.000535227
-0.00053734
-0.000560732
-0.000577688
-0.000569249
-0.000579727
-0.00058832
-0.00060029
-0.000601656
-0.000602911
-0.000605931
-0.000632124
-0.000626781
-0.00061536
-0.000596015
-0.000600623
-0.000600663
-0.000596746
-0.000588432
-0.000524318
-0.000538502
-0.000496067
-0.000564257
-0.000588924
-0.000751699
-0.00112151
-0.000712162
-0.00133725
2.42005e-05
-0.00223108
0.00548416
-0.0163688
0.091881
0.0169089
-0.00346625
-0.00328181
-0.00500974
-0.00280487
0.00347027
0.00335916
0.000107577
-0.00995214
0.00730575
0.0166049
-0.00292106
0.00892435
0.0162385
0.026694
-0.00632004
0.0160819
-0.00180703
0.00431057
0.00151572
0.00405493
0.00162035
0.00259443
0.00157618
0.00328544
0.00203357
0.00390456
0.00355738
0.00337911
0.00306976
0.00566847
0.00457652
0.00687845
0.00650685
0.00435583
0.00361714
0.00648026
0.00722157
0.004812
0.00359599
0.00241995
-0.000315522
0.00155611
-0.00222095
-0.00246622
-0.00353549
0.00181684
-0.00467601
0.00169347
0.00320175
-0.00209603
-0.00335177
-7.52548e-05
-0.00189598
0.00154351
-7.06013e-05
0.000154915
-0.00192564
0.000759245
-6.95554e-06
0.00018945
-0.000414424
0.000490377
-0.000706769
-0.000198293
-0.00177529
0.000255931
-0.000730729
0.00244223
-0.00544412
-0.00749795
0.00165339
-0.000592451
-2.44894e-05
-0.000314476
-0.000251864
-0.000327856
-0.000334524
-0.000371469
-0.000393626
-0.000420498
-0.000437814
-0.000469067
-0.000488596
-0.00050407
-0.000527764
-0.000551432
-0.000551938
-0.000570974
-0.000595865
-0.000598295
-0.000606705
-0.000626063
-0.00064178
-0.000660913
-0.000668527
-0.000681137
-0.000717806
-0.000751255
-0.000767261
-0.000786666
-0.000859891
-0.000897819
-0.000993582
-0.0010353
-0.00108926
-0.00119238
-0.00115099
-0.00123191
-0.00126429
-0.0014038
-0.00111379
-0.000775482
-2.38443e-05
0.000301783
-0.000245909
0.00268232
-0.00347919
0.0863526
0.0129853
-0.00279319
-0.00629074
-0.0102685
-0.00259838
0.00417425
0.00247876
-0.0207846
-0.0275619
0.0106414
0.0378507
-0.00985227
0.0206462
0.011875
-0.00569363
-0.000432973
0.00250348
0.00296546
0.0025478
-0.00162278
-0.000652824
-0.00266684
-0.0013697
0.00228559
0.00122806
0.000257848
-0.000285727
-8.8658e-05
0.00051532
0.00466493
0.000378452
0.000819473
0.00429901
-0.001165
0.00297711
0.00185316
0.000213766
0.000190733
-0.00196596
-0.00217731
-0.00137198
-0.000718123
0.00115167
0.00630748
-0.00182144
0.0119115
-0.000873346
0.00375307
0.0056279
0.00202468
-0.000549982
0.00449421
-5.23097e-05
0.000373475
-2.20167e-05
0.0022574
6.14909e-05
-0.000503976
0.000534524
0.000221098
-0.000620724
2.66089e-05
-0.000642126
0.00094662
-0.000380648
0.000617007
-0.000946001
-0.00155179
0.0015339
-0.00229905
-0.00748901
0.00164892
-0.000591683
-2.53789e-05
-0.000315565
-0.000252971
-0.000328844
-0.000337087
-0.000373568
-0.000394485
-0.000426294
-0.000440244
-0.000473679
-0.00050166
-0.000512442
-0.000536755
-0.000563541
-0.000576643
-0.000587245
-0.000615513
-0.000632775
-0.00063664
-0.000657827
-0.000680213
-0.000709052
-0.000720311
-0.000734692
-0.000767695
-0.000794024
-0.00080371
-0.000802925
-0.000805247
-0.000807324
-0.000819784
-0.000802764
-0.000852864
-0.000884685
-0.000761268
-0.000645792
-0.000922814
-0.00139327
-0.00140133
-0.00210467
-0.00181029
-0.00473803
-0.000806268
-0.0160321
0.0476643
0.0510767
0.0170177
0.0077546
0.00113074
-0.000211321
0.0117058
0.0146556
0.00462719
-0.0161502
-0.0176923
0.0387275
0.0181015
-0.00658433
0.0158202
0.00120008
0.00220993
0.00113442
0.000336306
-0.00332752
0.000590045
-0.000363422
0.00474772
0.000302599
-0.00192991
-0.00143365
0.000986121
0.00600944