/*--------------------------------*- C++ -*----------------------------------*\
| =========                 |                                                 |
| \\      /  F ield         | OpenFOAM: The Open Source CFD Toolbox           |
|  \\    /   O peration     | Version:  2.2.x                                 |
|   \\  /    A nd           | Web:      www.OpenFOAM.org                      |
|    \\/     M anipulation  |                                                 |
\*---------------------------------------------------------------------------*/
FoamFile
{
    version     2.0;
    format      ascii;
    class       surfaceScalarField;
    location    "0.06";
    object      cfmax;
}
// * * * * * * * * * * * * * * * * * * * * * * * * * * * * * * * * * * * * * //

dimensions      [0 3 -1 0 0 0 0];

internalField   nonuniform List<scalar> 
1023
(
3.927
3.927
3.927
3.927
3.927
3.927
3.927
3.927
3.927
3.927
3.927
3.927
3.927
3.927
3.927
3.927
3.927
3.927
3.927
3.927
3.927
3.927
3.927
3.927
3.927
3.927
3.927
3.927
3.927
3.927
3.927
3.927
3.927
3.927
3.927
3.927
3.927
3.927
3.927
3.927
3.927
3.927
3.927
3.927
3.927
3.927
3.927
3.927
3.927
3.927
3.927
3.927
3.927
3.927
3.927
3.927
3.927
3.927
3.927
3.927
3.927
3.927
3.927
3.927
3.927
3.927
3.927
3.927
3.927
3.927
3.927
3.927
3.927
3.927
3.927
3.927
3.927
3.927
3.927
3.927
3.927
3.927
3.927
3.927
3.927
3.927
3.927
3.927
3.927
3.927
3.927
3.927
3.927
3.927
3.927
3.927
3.927
3.927
3.927
3.927
3.927
3.927
3.927
3.927
3.927
3.927
3.927
3.927
3.927
3.927
3.927
3.927
3.927
3.927
3.927
3.927
3.927
3.927
3.927
3.927
3.927
3.927
3.927
3.927
3.927
3.927
3.927
3.927
3.927
3.927
3.927
3.927
3.927
3.927
3.927
3.927
3.927
3.927
3.927
3.927
3.927
3.927
3.927
3.927
3.927
3.927
3.927
3.927
3.927
3.927
3.927
3.927
3.927
3.927
3.927
3.927
3.927
3.927
3.927
3.927
3.927
3.927
3.927
3.927
3.927
3.927
3.927
3.927
3.927
3.927
3.927
3.927
3.927
3.927
3.927
3.927
3.927
3.927
3.927
3.927
3.927
3.927
3.927
3.927
3.927
3.927
3.927
3.927
3.927
3.927
3.927
3.927
3.927
3.927
3.927
3.927
3.927
3.927
3.927
3.927
3.927
3.927
3.927
3.927
3.927
3.927
3.927
3.927
3.927
3.927
3.927
3.927
3.927
3.927
3.927
3.927
3.927
3.927
3.927
3.927
3.927
3.927
3.927
3.927
3.927
3.927
3.927
3.927
3.927
3.927
3.927
3.927
3.927
3.927
3.927
3.927
3.927
3.927
3.927
3.927
3.927
3.927
3.927
3.927
3.927
3.927
3.927
3.927
3.927
3.927
3.927
3.927
3.927
3.927
3.927
3.927
3.927
3.927
3.927
3.927
3.927
3.927
3.927
3.927
3.927
3.927
3.927
3.927
3.92701
3.92701
3.92702
3.92704
3.92706
3.9271
3.92716
3.92724
3.92737
3.92756
3.92783
3.92822
3.92878
3.92956
3.93065
3.93214
3.93417
3.93665
3.93992
3.94167
3.94404
3.94698
3.94938
3.952
3.95444
3.95749
3.96062
3.96391
3.96745
3.97099
3.97584
3.97833
3.98268
3.98522
3.98867
3.99128
3.9941
3.99714
4.00048
4.00386
4.00806
4.01125
4.01632
4.01849
4.02259
4.02459
4.02693
4.0295
4.03096
4.03367
4.03622
4.03947
4.03977
4.04222
4.04368
4.04442
4.04284
4.04327
4.04818
4.0481
4.04867
4.04937
4.05026
4.04931
4.04631
4.04482
4.04426
4.0447
4.04407
4.04373
4.0434
4.04337
4.04282
4.04281
4.04259
4.04279
4.0429
4.04288
4.0429
4.04296
4.0429
4.0427
4.04247
4.04234
4.04221
4.04216
4.042
4.04176
4.04164
4.04151
4.04133
4.04129
4.04171
4.04185
4.04199
4.04194
4.04204
4.04206
4.0421
4.04204
4.04203
4.04195
4.04187
4.0418
4.04172
4.04166
4.04163
4.04156
4.04158
4.04162
4.04178
4.04181
4.04228
4.04246
4.04261
4.04279
4.04298
4.04321
4.04328
4.0432
4.04307
4.04295
4.04303
4.04311
4.04311
4.04316
4.04327
4.0435
4.0435
4.04354
4.04367
4.04372
4.0438
4.04384
4.04398
4.04397
4.04389
4.04361
4.04318
4.04289
4.0426
4.04257
4.04247
4.04242
4.04242
4.04239
4.04244
4.04258
4.04288
4.04307
4.04325
4.04344
4.04355
4.04377
4.04359
4.04363
4.04321
4.03963
4.0075
3.73927
2.93254
2.92742
3.01697
2.97788
2.98918
3.00644
3.00442
3.00434
3.00438
3.00389
3.00461
3.00547
3.00578
3.00613
3.00623
3.00641
3.0064
3.00614
3.00557
3.00528
3.00514
3.00516
3.0053
3.00579
3.00659
3.00736
3.00814
3.00877
3.00943
3.01019
3.01063
3.01075
3.0106
3.01023
3.00973
3.00786
3.00335
2.99406
2.97603
2.94399
2.89188
2.81457
2.711
2.58746
2.49104
2.42696
2.38454
2.3569
2.33931
2.32804
2.32069
2.31581
2.31239
2.31028
2.30909
2.30853
2.3088
2.30881
2.30821
2.30734
2.3057
2.30479
2.30439
2.30456
2.30587
2.30685
2.30695
2.30647
2.30427
2.30289
2.30245
2.30256
2.30433
2.30648
2.30702
2.30671
2.304
2.3016
2.30058
2.29998
2.30216
2.30576
2.30581
2.3021
2.28991
2.27634
2.2638
2.24973
2.23405
2.21874
2.1956
2.1667
2.13192
2.09543
2.06357
2.02902
2.00189
1.95295
1.91347
1.82684
1.77251
1.76979
1.99038
2.11011
2.13902
2.14493
2.1459
2.14598
2.14594
2.14595
2.14611
2.14621
2.14634
2.14659
2.14738
2.14878
2.1501
2.15165
2.15259
2.15293
2.15294
2.15235
2.15182
2.15057
2.14812
2.14494
2.14181
2.13737
2.13141
2.12634
2.12002
2.11305
2.10653
2.09922
2.09178
2.08448
2.07671
2.06912
2.0616
2.05395
2.04638
2.03875
2.03107
2.02347
2.01579
2.00822
2.00069
1.99312
1.98562
1.97808
1.97061
1.96313
1.95569
1.94825
1.94081
1.93338
1.92597
1.91859
1.91123
1.90387
1.89648
1.88914
1.88177
1.87446
1.86721
1.85997
1.85281
1.84565
1.83849
1.83137
1.82421
1.81711
1.80999
1.80293
1.7959
1.78891
1.78199
1.77513
1.76836
1.76176
1.75533
1.74909
1.74307
1.7373
1.73184
1.72673
1.72202
1.71774
1.71393
1.71062
1.70779
1.70544
1.70353
1.70203
1.70086
1.69999
1.69934
1.69889
1.69857
1.69835
1.6982
1.69811
1.69804
1.69801
1.69798
1.69797
1.69796
1.69795
1.69795
1.69795
1.69795
1.69795
1.69795
1.69795
1.69795
1.69795
1.69795
1.69795
1.69795
1.69795
1.69795
1.69795
1.69795
1.69795
1.69795
1.69795
1.69795
1.69795
1.69795
1.69795
1.69795
1.69795
1.69795
1.69795
1.69795
1.69795
1.69795
1.69795
1.69795
1.69795
1.69795
1.69795
1.69795
1.69795
1.69795
1.69795
1.69795
1.69795
1.69795
1.69795
1.69795
1.69795
1.69795
1.69795
1.69795
1.69795
1.69795
1.69795
1.69795
1.69795
1.69795
1.69795
1.69795
1.69795
1.69795
1.69795
1.69795
1.69795
1.69795
1.69795
1.69795
1.69795
1.69795
1.69795
1.69795
1.69795
1.69795
1.69795
1.69795
1.69795
1.69795
1.69795
1.69795
1.69795
1.69795
1.69795
1.69795
1.69795
1.69795
1.69795
1.69795
1.69795
1.69795
1.69795
1.69795
1.69795
1.69795
1.69795
1.69795
1.69795
1.69795
1.69795
1.69795
1.69795
1.69795
1.69795
1.69795
1.69795
1.69795
1.69795
1.69795
1.69795
1.69795
1.69795
1.69795
1.69795
1.69795
1.69795
1.69795
1.69795
1.69795
1.69795
1.69795
1.69795
1.69795
1.69795
1.69795
1.69795
1.69795
1.69795
1.69795
1.69795
1.69795
1.69795
1.69795
1.69795
1.69795
1.69795
1.69795
1.69795
1.69795
1.69795
1.69795
1.69795
1.69795
1.69795
1.69795
1.69795
1.69795
1.69795
1.69795
1.69795
1.69795
1.69795
1.69795
1.69795
1.69795
1.69795
1.69795
1.69795
1.69795
1.69795
1.69795
1.69795
1.69795
1.69795
1.69795
1.69795
1.69795
1.69795
1.69795
1.69795
1.69795
1.69795
1.69795
1.69795
1.69795
1.69795
1.69795
1.69795
1.69795
1.69795
1.69795
1.69795
1.69795
1.69795
1.69795
1.69795
1.69795
1.69795
1.69795
1.69795
1.69795
1.69795
1.69795
1.69795
1.69795
1.69795
1.69795
1.69795
1.69795
1.69795
1.69795
1.69795
1.69795
1.69795
1.69795
1.69795
1.69795
1.69795
1.69795
1.69795
1.69795
1.69795
1.69795
1.69795
1.69795
1.69795
1.69795
1.69795
1.69795
1.69795
1.69795
1.69795
1.69795
1.69795
1.69795
1.69795
1.69795
1.69795
1.69795
1.69795
1.69795
1.69795
1.69795
1.69795
1.69795
1.69795
1.69795
1.69795
1.69795
1.69795
1.69795
1.69795
1.69795
1.69795
1.69795
1.69795
1.69795
1.69795
1.69795
1.69795
1.69795
1.69795
1.69795
1.69795
1.69795
1.69795
1.69795
1.69795
1.69795
1.69795
1.69795
1.69795
1.69795
1.69795
1.69795
1.69795
1.69795
1.69795
1.69795
1.69795
1.69795
1.69795
1.69795
1.69795
1.69795
1.69795
1.69795
1.69795
1.69795
1.69795
1.69795
1.69795
1.69795
1.69795
1.69795
1.69795
1.69795
1.69795
1.69795
1.69795
1.69795
1.69795
1.69795
1.69795
1.69795
1.69795
1.69795
1.69795
1.69795
1.69795
1.69795
1.69795
1.69795
1.69795
1.69795
1.69795
1.69795
1.69795
1.69795
1.69795
1.69795
1.69795
1.69795
1.69795
1.69795
1.69795
1.69795
1.69795
1.69795
1.69795
1.69795
1.69795
1.69795
1.69795
1.69795
1.69795
1.69795
1.69795
1.69795
1.69795
1.69795
1.69795
1.69795
1.69795
1.69795
1.69795
1.69795
1.69795
1.69795
1.69795
1.69795
1.69795
1.69795
1.69795
1.69795
1.69795
1.69795
1.69795
1.69795
1.69795
1.69795
1.69795
1.69795
1.69795
1.69795
1.69795
1.69795
1.69795
1.69795
1.69795
1.69795
1.69795
1.69795
1.69795
1.69795
1.69795
1.69795
1.69795
1.69795
1.69795
1.69795
1.69795
1.69795
1.69795
1.69795
1.69795
1.69795
1.69795
1.69795
1.69795
1.69795
1.69795
1.69795
1.69795
1.69795
1.69795
1.69795
1.69795
1.69795
1.69795
1.69795
1.69795
1.69795
)
;

boundaryField
{
    front-back
    {
        type            empty;
        value           nonuniform 0();
    }
    inlet-outlet
    {
        type            calculated;
        value           nonuniform List<scalar> 2(1.69795 3.927);
    }
    top-down
    {
        type            empty;
        value           nonuniform 0();
    }
}


// ************************************************************************* //
