/*--------------------------------*- C++ -*----------------------------------*\
| =========                 |                                                 |
| \\      /  F ield         | OpenFOAM: The Open Source CFD Toolbox           |
|  \\    /   O peration     | Version:  2.2.x                                 |
|   \\  /    A nd           | Web:      www.OpenFOAM.org                      |
|    \\/     M anipulation  |                                                 |
\*---------------------------------------------------------------------------*/
FoamFile
{
    version     2.0;
    format      ascii;
    class       volScalarField;
    location    "0.7";
    object      p;
}
// * * * * * * * * * * * * * * * * * * * * * * * * * * * * * * * * * * * * * //

dimensions      [1 -1 -2 0 0 0 0];

internalField   nonuniform List<scalar> 
14161
(
0.196818
0.198621
0.200075
0.199826
0.20025
0.200358
0.200501
0.200145
0.199616
0.198484
0.197755
0.197428
0.197345
0.196911
0.197264
0.19788
0.197996
0.197102
0.196072
0.19432
0.192211
0.190589
0.188879
0.18747
0.187061
0.187022
0.187122
0.187577
0.187532
0.187403
0.185834
0.184585
0.183514
0.182855
0.18182
0.179896
0.179021
0.178511
0.178198
0.177774
0.178398
0.178783
0.179087
0.179746
0.181269
0.183118
0.185067
0.185393
0.189968
1.09071
1.54077
1.72723
1.77553
1.77855
1.73071
1.67962
1.63312
1.59157
1.53693
1.49162
1.44625
1.40655
1.36956
1.33612
1.30657
1.28274
1.26388
1.24903
1.23525
1.22064
1.20857
1.19716
1.18609
1.1764
1.16958
1.16953
1.18583
1.20091
1.22022
1.26899
1.36354
1.51084
1.62702
1.71166
1.75953
1.8004
1.83124
1.85793
1.87404
1.88534
1.89255
1.89986
1.90757
1.91596
1.92595
1.93522
1.94138
1.94607
1.94733
1.94843
1.95077
1.95448
1.95784
1.96197
1.96463
1.96802
1.97007
1.97167
1.97147
1.97297
1.97502
1.97918
1.98265
1.98587
1.98697
1.98601
1.98348
1.98305
1.98283
0.209609
0.19851
0.198027
0.197249
0.197525
0.198458
0.19929
0.19998
0.200938
0.202277
0.202723
0.20126
0.199791
0.197272
0.195499
0.193342
0.192905
0.193759
0.194845
0.196981
0.199097
0.200692
0.199285
0.195446
0.192683
0.187825
0.184328
0.180559
0.178291
0.177304
0.17817
0.179208
0.180123
0.181557
0.182929
0.184033
0.184895
0.185285
0.185338
0.185162
0.185049
0.185027
0.185703
0.186518
0.187822
0.190455
0.196262
0.19968
0.272799
1.29314
1.60302
1.70362
1.72468
1.68464
1.64605
1.59911
1.55101
1.50899
1.46607
1.42296
1.3811
1.35265
1.31885
1.28766
1.26434
1.24485
1.22611
1.21044
1.19885
1.19214
1.18707
1.1824
1.17951
1.18267
1.19639
1.21957
1.25737
1.29529
1.33142
1.37841
1.42976
1.48828
1.57056
1.66533
1.73326
1.78506
1.82095
1.85278
1.87278
1.88662
1.89535
1.90294
1.91045
1.91898
1.92794
1.93471
1.93977
1.94319
1.9446
1.94689
1.95072
1.95539
1.95901
1.96333
1.9662
1.96842
1.96971
1.97075
1.9715
1.97435
1.97771
1.98238
1.98598
1.98883
1.98981
1.98858
1.98561
1.98561
1.98709
0.186632
0.203519
0.20378
0.203758
0.202995
0.201368
0.200164
0.198824
0.197132
0.194821
0.193355
0.195066
0.197747
0.199341
0.201763
0.204116
0.203109
0.199126
0.195533
0.190785
0.185423
0.180323
0.179487
0.183274
0.187737
0.190496
0.19427
0.1981
0.199677
0.197806
0.194034
0.189433
0.185815
0.181942
0.178152
0.175051
0.172765
0.171819
0.17149
0.171561
0.172019
0.173137
0.174445
0.175106
0.176611
0.177154
0.178022
0.179759
0.196407
1.09612
1.50439
1.65397
1.68155
1.62611
1.56678
1.51986
1.47131
1.42351
1.38558
1.3491
1.31839
1.28525
1.25853
1.23027
1.20719
1.18708
1.16853
1.15311
1.13912
1.12784
1.11897
1.11082
1.10732
1.10786
1.11969
1.14554
1.18133
1.23255
1.27742
1.3302
1.37044
1.41311
1.46754
1.54731
1.64211
1.71959
1.77062
1.81307
1.84094
1.86015
1.87441
1.88662
1.89679
1.90556
1.91229
1.91842
1.92188
1.92384
1.9262
1.92961
1.9357
1.94303
1.94798
1.95289
1.95553
1.9575
1.95832
1.95961
1.96077
1.96517
1.96949
1.97559
1.98085
1.98421
1.9845
1.98154
1.97831
1.97811
1.98031
0.217023
0.194669
0.194675
0.194144
0.195153
0.197169
0.199042
0.200358
0.202505
0.205458
0.206902
0.20391
0.200826
0.196377
0.193054
0.188998
0.188382
0.191165
0.194697
0.199642
0.205052
0.209397
0.207407
0.201778
0.195029
0.185831
0.179881
0.173333
0.168884
0.167613
0.169812
0.173798
0.177485
0.180698
0.183725
0.186879
0.189744
0.191381
0.191386
0.190915
0.189787
0.188757
0.187401
0.186823
0.185069
0.18703
0.188447
0.188408
0.192011
0.884902
1.36635
1.51089
1.53576
1.46415
1.41124
1.3764
1.34523
1.31285
1.28629
1.25653
1.23451
1.20747
1.18776
1.16346
1.14813
1.13459
1.11806
1.10546
1.0955
1.08828
1.08299
1.07952
1.07766
1.07764
1.08321
1.1063
1.12396
1.18682
1.22943
1.2807
1.3077
1.33802
1.36424
1.41182
1.47917
1.57172
1.66976
1.74437
1.79385
1.82461
1.84698
1.86437
1.87788
1.88819
1.89787
1.90571
1.90849
1.91237
1.91678
1.92217
1.92904
1.93828
1.94517
1.9512
1.95435
1.95648
1.95664
1.95724
1.95961
1.9653
1.97107
1.9781
1.98331
1.98587
1.98452
1.97962
1.97499
1.97439
1.97736
0.175387
0.206025
0.206291
0.206166
0.205269
0.202779
0.200692
0.198963
0.19646
0.192724
0.189847
0.192092
0.196252
0.198686
0.203274
0.207627
0.207231
0.201821
0.195921
0.189478
0.181037
0.172379
0.17017
0.174743
0.182876
0.187009
0.194707
0.202002
0.206014
0.205055
0.201106
0.195291
0.188646
0.18223
0.176993
0.172811
0.169129
0.166938
0.165948
0.16602
0.167141
0.168491
0.168941
0.169385
0.169431
0.167399
0.160134
0.14949
0.149732
0.369854
1.22303
1.35767
1.37595
1.31999
1.29853
1.28423
1.27333
1.24445
1.23676
1.20692
1.19795
1.16715
1.1572
1.13048
1.12065
1.10109
1.09414
1.07823
1.0698
1.06435
1.05957
1.05642
1.05295
1.05152
1.04933
1.07105
1.07526
1.1363
1.17178
1.23535
1.24445
1.27638
1.26924
1.3041
1.34657
1.40516
1.49429
1.60132
1.69506
1.75838
1.79594
1.82176
1.83939
1.85573
1.87014
1.88211
1.89044
1.8964
1.90506
1.9131
1.91903
1.92694
1.93583
1.94516
1.95049
1.95231
1.95276
1.95332
1.95626
1.96206
1.96783
1.97383
1.97811
1.97991
1.97859
1.97371
1.96877
1.96838
1.97348
0.222303
0.192905
0.193168
0.192691
0.193885
0.196332
0.198797
0.200496
0.20326
0.207134
0.209698
0.206718
0.202719
0.197383
0.193406
0.187944
0.18598
0.189219
0.19386
0.199553
0.206662
0.213336
0.213007
0.207215
0.198688
0.187711
0.180947
0.172603
0.165634
0.162761
0.164743
0.168145
0.172987
0.177397
0.180987
0.18526
0.189003
0.19158
0.192015
0.191329
0.19007
0.187509
0.184237
0.181477
0.178109
0.175906
0.171962
0.164986
0.163773
0.21244
0.539001
1.46228
1.37678
1.3227
1.2827
1.2543
1.23239
1.21537
1.20403
1.17749
1.16762
1.13997
1.12867
1.10423
1.09437
1.07536
1.06805
1.05092
1.04237
1.03342
1.02644
1.02106
1.01799
1.01533
1.01285
1.03145
1.03631
1.11836
1.15112
1.18911
1.20528
1.21849
1.21872
1.22536
1.24459
1.28195
1.35012
1.44119
1.56671
1.66491
1.72902
1.76975
1.79727
1.82025
1.84047
1.8589
1.87149
1.88214
1.89621
1.90778
1.91695
1.92415
1.93436
1.94553
1.9527
1.95396
1.95314
1.95428
1.95877
1.96452
1.96962
1.97427
1.97731
1.97822
1.97651
1.97158
1.96616
1.96437
1.97208
0.167081
0.205513
0.205878
0.206132
0.205315
0.203158
0.200817
0.198787
0.19597
0.191713
0.187825
0.189344
0.193634
0.195745
0.201871
0.206944
0.207767
0.202953
0.196818
0.189897
0.18059
0.170651
0.165873
0.169122
0.17656
0.181092
0.190501
0.198443
0.204429
0.205316
0.203295
0.197436
0.190688
0.185691
0.179126
0.17428
0.169959
0.167224
0.166053
0.165932
0.167086
0.169137
0.1713
0.173167
0.175024
0.177257
0.179483
0.182326
0.191143
0.23239
1.26477
1.53446
1.41161
1.3414
1.28637
1.24981
1.22063
1.1996
1.18062
1.16703
1.14219
1.13038
1.10433
1.09347
1.07314
1.06527
1.04911
1.04139
1.03292
1.02708
1.02142
1.01541
1.0118
1.00927
1.01216
1.00924
1.05383
1.08434
1.14206
1.15977
1.1916
1.16967
1.18293
1.16636
1.17267
1.19174
1.23053
1.29114
1.41269
1.53483
1.64177
1.71024
1.75888
1.7896
1.81103
1.8336
1.85451
1.87369
1.88962
1.90295
1.91542
1.92183
1.92533
1.93421
1.94411
1.94892
1.9515
1.95447
1.96109
1.96654
1.97082
1.97442
1.97659
1.97661
1.97444
1.96898
1.96321
1.95569
1.96948
0.225525
0.193396
0.194033
0.1936
0.194312
0.196376
0.198637
0.20043
0.203133
0.206972
0.210142
0.208158
0.204289
0.199132
0.195325
0.189606
0.186069
0.18866
0.192951
0.196778
0.20396
0.211285
0.213141
0.208567
0.20145
0.192094
0.184767
0.176366
0.168638
0.163976
0.163575
0.165531
0.169544
0.173544
0.176777
0.179869
0.183489
0.186445
0.187046
0.186593
0.185347
0.183921
0.18226
0.181235
0.180025
0.179898
0.180764
0.1833
0.187868
0.30074
1.45405
1.5459
1.42377
1.3458
1.28577
1.24362
1.21596
1.19269
1.17365
1.15473
1.13989
1.12968
1.10151
1.09047
1.07078
1.06387
1.04918
1.04404
1.03445
1.03005
1.02373
1.01846
1.01566
1.01406
1.02289
1.0267
1.09331
1.13488
1.17595
1.15
1.17429
1.14149
1.13894
1.1247
1.12055
1.1327
1.16029
1.21364
1.3206
1.45257
1.57778
1.65985
1.71152
1.75718
1.80003
1.83342
1.8547
1.86446
1.87826
1.90018
1.91813
1.92982
1.92921
1.93516
1.94583
1.95367
1.95938
1.96265
1.96947
1.97379
1.97648
1.97804
1.97828
1.97585
1.97205
1.96644
1.95902
1.94876
1.96514
0.163565
0.203206
0.203694
0.204618
0.204308
0.202404
0.200535
0.198492
0.196267
0.192358
0.188179
0.188696
0.192193
0.193845
0.199603
0.2041
0.205987
0.203252
0.198656
0.191096
0.184606
0.176022
0.169509
0.169836
0.174701
0.180001
0.185132
0.192149
0.197967
0.200799
0.200249
0.196746
0.192247
0.188123
0.183487
0.177745
0.174279
0.171942
0.171466
0.170994
0.170878
0.171779
0.172903
0.174257
0.176234
0.178598
0.181045
0.184822
0.190949
0.293835
1.45645
1.54758
1.46096
1.36339
1.29744
1.24659
1.21345
1.18406
1.16359
1.1343
1.12828
1.0942
1.08556
1.05455
1.04564
1.02964
1.02402
1.01793
1.01291
1.0084
1.00431
1.00101
0.998209
0.996816
1.00544
1.0097
1.06391
1.11224
1.14999
1.16282
1.13576
1.13259
1.10405
1.10331
1.0896
1.10914
1.14085
1.20135
1.29844
1.4257
1.55104
1.6442
1.709
1.75125
1.77771
1.80515
1.83587
1.86182
1.87952
1.88887
1.90215
1.92289
1.94265
1.95279
1.95686
1.95629
1.95875
1.96232
1.97037
1.97413
1.97663
1.97673
1.97715
1.9733
1.96871
1.96152
1.95431
1.94354
1.95759
0.226513
0.19535
0.196013
0.195242
0.1953
0.196727
0.198514
0.199719
0.201846
0.204737
0.207773
0.207027
0.204
0.200043
0.197113
0.192242
0.18819
0.188846
0.191601
0.193631
0.199407
0.204692
0.207769
0.205096
0.200553
0.195721
0.18716
0.181303
0.174575
0.169479
0.16734
0.166685
0.168221
0.170491
0.172434
0.174094
0.175855
0.176932
0.17743
0.178162
0.178671
0.178309
0.177609
0.177101
0.1773
0.177686
0.178567
0.180147
0.184253
0.236146
1.2464
1.42986
1.39994
1.32454
1.26935
1.22109
1.18117
1.14122
1.12126
1.10505
1.10051
1.05748
1.05151
1.0175
1.01073
0.99015
0.990474
0.979491
0.975718
0.97008
0.966265
0.962833
0.960991
0.96697
0.969338
1.00059
1.02246
1.10251
1.10483
1.14414
1.1103
1.11468
1.09353
1.10138
1.0896
1.11967
1.16394
1.24075
1.33551
1.45171
1.56052
1.64229
1.70507
1.74947
1.77946
1.80441
1.8273
1.85012
1.86951
1.8848
1.90129
1.91596
1.92644
1.93595
1.94873
1.95433
1.95834
1.96028
1.96835
1.97011
1.97154
1.97057
1.97126
1.96834
1.96418
1.95561
1.95148
1.94055
1.95325
0.166467
0.201086
0.201753
0.202784
0.203157
0.202156
0.200643
0.199213
0.197538
0.194685
0.191363
0.190893
0.192965
0.194147
0.198105
0.20124
0.203422
0.202234
0.199233
0.194443
0.189985
0.183325
0.177906
0.17601
0.177741
0.180758
0.183061
0.187571
0.191185
0.193793
0.19431
0.192802
0.190652
0.187525
0.184274
0.181087
0.178353
0.176349
0.174958
0.174364
0.173721
0.173837
0.173919
0.174075
0.174162
0.174481
0.174106
0.173512
0.180524
0.23914
1.05399
1.26691
1.32246
1.30645
1.24515
1.21498
1.14858
1.12045
1.09653
1.09337
1.04562
1.03593
1.03481
0.997006
0.988305
0.975306
0.972323
0.962
0.957253
0.952732
0.948209
0.944358
0.941808
0.94671
0.952977
0.989858
1.01701
1.09595
1.08928
1.13496
1.11202
1.13431
1.12711
1.15353
1.15637
1.18766
1.24118
1.31435
1.4008
1.50381
1.59477
1.65978
1.71302
1.75621
1.78593
1.80747
1.82868
1.84948
1.86733
1.88378
1.8991
1.91256
1.92181
1.93171
1.94777
1.95664
1.96238
1.9626
1.96998
1.96965
1.96955
1.96751
1.9682
1.96513
1.9609
1.9514
1.94901
1.93775
1.94789
0.224017
0.197496
0.197658
0.196845
0.196243
0.196794
0.197917
0.198839
0.200254
0.202204
0.204376
0.204411
0.202394
0.199814
0.197934
0.194276
0.190838
0.190014
0.191045
0.192124
0.195079
0.197747
0.200129
0.199551
0.197383
0.193279
0.189337
0.185006
0.179766
0.175713
0.172717
0.170868
0.170678
0.17078
0.171025
0.171566
0.172266
0.172765
0.172844
0.172764
0.172483
0.171859
0.171427
0.171025
0.170515
0.169642
0.167878
0.166369
0.176884
0.33242
0.93618
1.07545
1.18745
1.25026
1.22241
1.2153
1.14338
1.12096
1.08431
1.07715
1.02947
1.03735
1.00546
1.0006
0.971323
0.966406
0.959363
0.955032
0.951132
0.943543
0.940337
0.93422
0.93046
0.946201
0.955985
1.03392
1.08907
1.16074
1.165
1.21478
1.21253
1.25256
1.26525
1.30852
1.32052
1.33743
1.37789
1.4263
1.48219
1.55796
1.62993
1.68432
1.72453
1.76028
1.78564
1.80727
1.82792
1.84818
1.86672
1.88264
1.89768
1.91073
1.9198
1.92738
1.94243
1.95214
1.95783
1.95706
1.96549
1.96514
1.96531
1.96224
1.96213
1.95628
1.9526
1.9429
1.94267
1.93279
1.94113
0.174384
0.2001
0.200832
0.201678
0.20224
0.202009
0.201099
0.200239
0.199116
0.197433
0.195383
0.194353
0.195087
0.195738
0.197591
0.199172
0.200716
0.200445
0.198572
0.195935
0.193252
0.189029
0.18532
0.182586
0.182129
0.182395
0.183164
0.184908
0.186116
0.187241
0.187658
0.18709
0.185613
0.183671
0.18177
0.179846
0.177997
0.176216
0.174812
0.173739
0.172703
0.171734
0.171081
0.170816
0.170691
0.171261
0.172525
0.175085
0.191631
0.653291
0.872646
0.960843
1.0568
1.20366
1.20628
1.21779
1.1399
1.11811
1.06887
1.05895
1.0152
1.03123
0.995638
0.999268
0.959675
0.964601
0.957199
0.957064
0.948437
0.951171
0.960808
0.965082
1.00279
1.09535
1.1922
1.31121
1.3444
1.3895
1.38932
1.42446
1.43157
1.44843
1.45367
1.46503
1.47662
1.48187
1.49563
1.51594
1.55656
1.60936
1.66232
1.70444
1.73895
1.7667
1.79055
1.81113
1.83278
1.85192
1.8695
1.88383
1.89905
1.91324
1.92417
1.93094
1.94369
1.95334
1.95696
1.95395
1.96287
1.9628
1.9621
1.9587
1.95749
1.94987
1.9474
1.93889
1.93763
1.92692
1.93427
0.218126
0.19879
0.198568
0.197657
0.197006
0.197002
0.197693
0.198146
0.198794
0.200093
0.201485
0.201751
0.200651
0.199167
0.198057
0.195821
0.193583
0.192104
0.192027
0.192219
0.192891
0.193708
0.194762
0.19469
0.193329
0.190978
0.189008
0.185688
0.182942
0.179931
0.177212
0.175395
0.173913
0.17281
0.171949
0.171473
0.171014
0.170395
0.169764
0.169404
0.168946
0.168463
0.168111
0.167649
0.167498
0.16674
0.166032
0.16808
0.194672
0.781631
0.874553
0.906493
0.9564
1.06911
1.1208
1.1816
1.13555
1.12838
1.06432
1.05755
1.01018
1.03316
1.00005
1.00992
0.970063
0.985336
0.986864
0.999839
1.00461
1.07786
1.17565
1.26779
1.38244
1.48555
1.584
1.614
1.61725
1.61507
1.60041
1.60099
1.59297
1.5801
1.56329
1.55201
1.54321
1.54348
1.54814
1.56674
1.59995
1.64504
1.68768
1.71865
1.75025
1.7759
1.79354
1.81175
1.83277
1.85121
1.86743
1.88093
1.89582
1.90988
1.92133
1.92889
1.93996
1.94953
1.95372
1.94856
1.95891
1.96007
1.96001
1.95613
1.95426
1.94395
1.94289
1.93529
1.93221
1.91938
1.92572
0.183584
0.200114
0.200905
0.201349
0.201633
0.201471
0.201128
0.200603
0.199974
0.199028
0.197805
0.196853
0.196756
0.196791
0.197378
0.19787
0.198482
0.198315
0.197346
0.195728
0.194111
0.19163
0.189305
0.186886
0.185465
0.1845
0.183891
0.183466
0.18325
0.183171
0.182936
0.182063
0.180696
0.179153
0.177767
0.17637
0.175071
0.17326
0.172017
0.170798
0.169831
0.168716
0.16748
0.165235
0.163852
0.161478
0.159954
0.168072
0.276755
0.855919
0.876655
0.88181
0.890397
0.929505
0.975674
1.0903
1.08095
1.12637
1.06473
1.06715
1.00979
1.0377
1.01367
1.03614
1.0295
1.09122
1.15112
1.24354
1.34238
1.44265
1.56236
1.64293
1.68981
1.70921
1.72143
1.7153
1.70101
1.68252
1.66557
1.64977
1.63518
1.61844
1.60396
1.59279
1.58468
1.58402
1.58973
1.60356
1.62922
1.66067
1.69236
1.72101
1.75089
1.77326
1.78997
1.80845
1.8281
1.84614
1.86275
1.87724
1.8919
1.90554
1.91729
1.92636
1.93474
1.94335
1.94766
1.94215
1.95444
1.95785
1.95786
1.95315
1.95081
1.93802
1.9384
1.93179
1.92546
1.91083
1.91566
0.211125
0.199354
0.198799
0.198331
0.197943
0.197707
0.197986
0.198207
0.198878
0.199204
0.199677
0.199951
0.199551
0.198713
0.197895
0.196783
0.195361
0.194164
0.193507
0.192752
0.192632
0.192396
0.19216
0.191655
0.190634
0.189142
0.18751
0.185287
0.183347
0.181301
0.1796
0.177593
0.175605
0.173842
0.1723
0.170907
0.169575
0.16836
0.167202
0.166
0.165671
0.164555
0.163507
0.161563
0.160444
0.158958
0.158406
0.175158
0.583158
0.871595
0.88911
0.884194
0.882193
0.886546
0.908533
0.990184
1.02077
1.10022
1.06044
1.10262
1.05412
1.11021
1.11576
1.21553
1.29299
1.40346
1.50461
1.60297
1.66175
1.68964
1.71235
1.73415
1.73984
1.7337
1.72588
1.71426
1.69864
1.68736
1.67301
1.66244
1.65362
1.63907
1.62647
1.62001
1.61437
1.61655
1.6219
1.63348
1.65205
1.67625
1.703
1.72795
1.75123
1.77145
1.78919
1.80966
1.8273
1.84391
1.85869
1.87171
1.88541
1.89852
1.91086
1.92155
1.92879
1.93617
1.94233
1.93862
1.9519
1.95626
1.95609
1.95037
1.94774
1.93472
1.93457
1.92791
1.91889
1.90243
1.90674
0.191036
0.200309
0.200741
0.201063
0.200898
0.201007
0.200754
0.200301
0.200094
0.199424
0.198785
0.198044
0.197737
0.197406
0.197368
0.197242
0.197141
0.196801
0.196033
0.195023
0.193936
0.192183
0.190624
0.188911
0.187326
0.185886
0.184443
0.183165
0.182008
0.181158
0.180325
0.179031
0.177461
0.175811
0.173926
0.17246
0.171247
0.170332
0.16954
0.16889
0.167933
0.166558
0.165011
0.163346
0.162085
0.161254
0.163377
0.185268
0.787177
0.903087
0.907345
0.897008
0.884971
0.882105
0.883968
0.91748
0.960199
1.09601
1.12691
1.22017
1.22967
1.34809
1.424
1.53504
1.60665
1.65053
1.67913
1.6998
1.71282
1.71734
1.72239
1.72108
1.72065
1.71953
1.71331
1.70411
1.68954
1.67759
1.66709
1.65757
1.65256
1.64618
1.64066
1.64054
1.63454
1.63525
1.64035
1.65263
1.6686
1.68844
1.71107
1.73193
1.75073
1.76976
1.78794
1.80726
1.82353
1.8401
1.85634
1.86989
1.88166
1.89342
1.90592
1.91638
1.92277
1.92904
1.93659
1.93522
1.94906
1.95361
1.95373
1.94675
1.94525
1.93323
1.93075
1.92231
1.91202
1.89409
1.89808
0.205459
0.199573
0.199041
0.198855
0.198793
0.198687
0.198708
0.19879
0.199073
0.199103
0.199215
0.199184
0.19891
0.198367
0.1979
0.197073
0.196264
0.195308
0.194447
0.193562
0.192827
0.192043
0.191197
0.190266
0.189123
0.187825
0.185888
0.184172
0.182544
0.180956
0.179832
0.177998
0.174944
0.172937
0.171175
0.169561
0.168084
0.166577
0.164835
0.163694
0.163108
0.161517
0.159367
0.157706
0.15231
0.149477
0.154426
0.228213
0.858782
0.921147
0.926258
0.917245
0.900656
0.89012
0.888797
0.921287
0.978044
1.12961
1.28919
1.41717
1.51658
1.57796
1.62802
1.65671
1.67885
1.69201
1.70073
1.70278
1.70186
1.69584
1.69309
1.69319
1.69315
1.69453
1.69241
1.68737
1.67972
1.6708
1.66436
1.65821
1.65294
1.65365
1.6528
1.65348
1.65231
1.64941
1.65346
1.66413
1.67807
1.69528
1.71332
1.7309
1.749
1.76675
1.7829
1.8015
1.81763
1.83502
1.85177
1.86541
1.87569
1.88573
1.89945
1.90999
1.91594
1.92189
1.93068
1.93258
1.94597
1.94975
1.95061
1.94291
1.9431
1.93232
1.92622
1.91449
1.90513
1.88703
1.89099
0.195688
0.200315
0.200529
0.200489
0.200398
0.200346
0.200211
0.199919
0.199769
0.199433
0.199028
0.198538
0.198171
0.197755
0.197404
0.197075
0.196648
0.196073
0.195371
0.194384
0.193349
0.192183
0.19086
0.189346
0.187906
0.186172
0.184329
0.182772
0.181424
0.180317
0.179533
0.178029
0.175626
0.173172
0.171545
0.170133
0.168862
0.167616
0.166355
0.164967
0.163808
0.161891
0.158855
0.157064
0.150197
0.148929
0.16619
0.528883
0.909151
0.932824
0.933781
0.933075
0.930636
0.933265
0.949382
1.00591
1.11859
1.33719
1.53588
1.64529
1.65663
1.67208
1.67779
1.69022
1.6915
1.69649
1.69431
1.68941
1.68175
1.67358
1.66908
1.66716
1.66611
1.66804
1.67036
1.67006
1.66652
1.65977
1.65492
1.65166
1.64857
1.65094
1.65377
1.65748
1.66287
1.65973
1.66406
1.67231
1.68353
1.69765
1.71231
1.72707
1.74266
1.75878
1.77497
1.79348
1.81088
1.82882
1.84559
1.85874
1.86849
1.87776
1.89129
1.90206
1.90844
1.91443
1.92472
1.92964
1.9421
1.94428
1.9465
1.93981
1.94049
1.93064
1.92119
1.90754
1.89884
1.88068
1.88437
0.202074
0.199673
0.199417
0.19932
0.199386
0.199345
0.199292
0.199261
0.199261
0.199217
0.199115
0.198923
0.198625
0.198205
0.19773
0.197156
0.196547
0.195674
0.194739
0.193781
0.192865
0.192056
0.19089
0.189517
0.188219
0.186808
0.18474
0.182989
0.181392
0.179853
0.17904
0.177319
0.174877
0.17166
0.169345
0.167539
0.16592
0.164344
0.162812
0.161431
0.161165
0.16062
0.159934
0.159713
0.158237
0.159168
0.182932
0.780546
0.961938
0.96042
0.956568
0.954899
0.964428
0.98745
1.04275
1.15184
1.35406
1.5785
1.70028
1.6986
1.69795
1.68355
1.68239
1.68565
1.68737
1.6869
1.68449
1.67748
1.66939
1.66265
1.65612
1.65215
1.6482
1.64631
1.64808
1.64805
1.6483
1.64665
1.64427
1.64144
1.63978
1.64496
1.65036
1.65519
1.6623
1.66367
1.66933
1.67676
1.68594
1.69789
1.71088
1.72358
1.73722
1.75186
1.76775
1.78554
1.80273
1.81984
1.83678
1.84972
1.8602
1.87041
1.88269
1.89383
1.90145
1.90846
1.9196
1.92658
1.93832
1.93854
1.94247
1.93686
1.93678
1.92552
1.91529
1.90204
1.89264
1.87391
1.87705
0.198154
0.200209
0.200269
0.200104
0.200013
0.199921
0.199837
0.199698
0.199573
0.199351
0.199058
0.198711
0.198335
0.1979
0.197478
0.1971
0.196573
0.195832
0.194868
0.193933
0.192988
0.192053
0.190768
0.189132
0.187611
0.186197
0.184413
0.182379
0.180713
0.179256
0.178264
0.177069
0.175343
0.172824
0.170374
0.168732
0.167458
0.166292
0.165111
0.163844
0.162406
0.160876
0.159245
0.156895
0.153462
0.155131
0.187559
0.884712
0.977702
0.984809
0.991472
0.997844
1.01486
1.06974
1.1744
1.36558
1.57389
1.7178
1.72698
1.71769
1.71038
1.68994
1.67988
1.68162
1.67891
1.67502
1.66979
1.66234
1.65588
1.65134
1.64727
1.64185
1.63649
1.6308
1.62988
1.62953
1.63091
1.63183
1.6309
1.63075
1.63188
1.63847
1.64403
1.64941
1.65717
1.66159
1.66908
1.6755
1.68368
1.69505
1.7067
1.71818
1.73068
1.74445
1.76044
1.77715
1.79335
1.8097
1.82703
1.84048
1.85197
1.86317
1.87416
1.88555
1.89501
1.90371
1.91465
1.92305
1.93421
1.93342
1.93851
1.93372
1.93203
1.91714
1.90945
1.89788
1.88642
1.86581
1.86932
0.200565
0.199782
0.199727
0.199635
0.199677
0.199604
0.199522
0.199466
0.199386
0.199245
0.199049
0.198807
0.198483
0.198048
0.197603
0.197177
0.196609
0.195681
0.194712
0.193734
0.192801
0.191925
0.190694
0.189016
0.187523
0.186126
0.184576
0.182544
0.180565
0.178791
0.177052
0.175912
0.174417
0.17243
0.16913
0.166316
0.164108
0.162089
0.160278
0.158525
0.1569
0.155327
0.154164
0.152885
0.152439
0.162231
0.337304
0.990677
1.00741
1.01655
1.027
1.04816
1.09542
1.19702
1.38076
1.58656
1.71689
1.74326
1.72959
1.72575
1.71064
1.68813
1.67869
1.67899
1.67436
1.66464
1.65486
1.64759
1.64428
1.64166
1.6389
1.63302
1.62686
1.62058
1.61835
1.61581
1.61622
1.61858
1.619
1.62003
1.62224
1.62812
1.63465
1.64045
1.64889
1.65766
1.66539
1.67236
1.68064
1.69059
1.70077
1.71162
1.72367
1.73693
1.75175
1.7676
1.78359
1.80023
1.81752
1.83103
1.84302
1.85468
1.86532
1.87685
1.88857
1.89849
1.90906
1.91827
1.9294
1.92811
1.93403
1.93064
1.92691
1.9092
1.90422
1.89359
1.87943
1.85706
1.86194
0.199286
0.20002
0.200039
0.199938
0.199859
0.199783
0.199691
0.199564
0.199465
0.199246
0.199007
0.198728
0.198387
0.197949
0.1975
0.197132
0.196563
0.195696
0.194681
0.193734
0.192788
0.19185
0.190567
0.188861
0.187306
0.185749
0.18433
0.182636
0.180533
0.17864
0.176909
0.17539
0.174326
0.172941
0.171226
0.169222
0.166564
0.164824
0.163535
0.162428
0.161485
0.160432
0.159303
0.158203
0.157129
0.178296
0.712856
1.02871
1.04799
1.06146
1.08378
1.133
1.22608
1.39897
1.61015
1.72799
1.75959
1.74378
1.72492
1.7255
1.71035
1.6868
1.67539
1.67367
1.66989
1.65875
1.64465
1.6371
1.63455
1.63163
1.62908
1.62356
1.61676
1.61158
1.60895
1.60523
1.60368
1.60526
1.60685
1.60883
1.61108
1.61622
1.62412
1.6304
1.64073
1.65021
1.65816
1.66621
1.67548
1.68474
1.6941
1.70446
1.71596
1.72846
1.74225
1.75717
1.77371
1.7902
1.80648
1.81999
1.83225
1.84453
1.85535
1.8678
1.8806
1.89238
1.90308
1.91234
1.92446
1.9229
1.92985
1.9277
1.92208
1.90281
1.89902
1.8883
1.87168
1.84792
1.85558
0.200037
0.199828
0.199848
0.199796
0.199779
0.199726
0.199616
0.199488
0.19939
0.199202
0.198971
0.198739
0.198435
0.198002
0.197541
0.197124
0.196565
0.195643
0.194632
0.193662
0.192755
0.191748
0.190381
0.188749
0.187216
0.185712
0.184195
0.182434
0.180434
0.178375
0.176435
0.174593
0.172917
0.171785
0.17028
0.16829
0.165229
0.162503
0.160816
0.159695
0.158968
0.158329
0.157785
0.157996
0.158671
0.186214
0.928356
1.11443
1.12062
1.13822
1.17661
1.26687
1.42707
1.62218
1.75933
1.77704
1.77123
1.73571
1.71492
1.71645
1.70524
1.68383
1.66976
1.66395
1.66061
1.65014
1.6362
1.62858
1.6254
1.62161
1.618
1.61279
1.60653
1.60237
1.59919
1.595
1.59275
1.59384
1.59629
1.5994
1.60169
1.60439
1.61152
1.61819
1.62933
1.63866
1.64849
1.65771
1.66753
1.67711
1.68642
1.69642
1.70741
1.71919
1.73229
1.74691
1.76285
1.77929
1.79449
1.8074
1.8199
1.83248
1.84467
1.85806
1.87176
1.88496
1.89616
1.9058
1.91929
1.91769
1.92514
1.92354
1.91782
1.89855
1.89393
1.88062
1.86165
1.83786
1.84875
0.19969
0.199904
0.199956
0.199898
0.19983
0.199747
0.199658
0.199511
0.199397
0.199198
0.19896
0.198691
0.198413
0.197972
0.197493
0.197037
0.196496
0.19563
0.194598
0.193632
0.192757
0.191729
0.190155
0.188576
0.187077
0.185769
0.184257
0.182227
0.180319
0.178527
0.1768
0.175181
0.173641
0.172458
0.171246
0.169777
0.168229
0.166246
0.16444
0.163443
0.162827
0.16251
0.162372
0.16256
0.165609
0.209053
1.05275
1.17316
1.18839
1.2185
1.29209
1.43016
1.61503
1.75096
1.78005
1.77169
1.76862
1.73908
1.71381
1.70661
1.69708
1.68109
1.664
1.65527
1.65146
1.64208
1.62864
1.6209
1.617
1.61229
1.60716
1.60151
1.59577
1.59241
1.58895
1.5853
1.58058
1.57991
1.583
1.58644
1.58835
1.5908
1.59752
1.60364
1.61478
1.62416
1.63645
1.64714
1.65809
1.66847
1.67828
1.68807
1.69832
1.70955
1.72222
1.73622
1.75204
1.76769
1.78186
1.79413
1.80606
1.81924
1.83305
1.84754
1.86178
1.8759
1.88796
1.89827
1.91296
1.91213
1.91983
1.91787
1.91334
1.89563
1.88811
1.87011
1.85149
1.82907
1.84101
0.199871
0.199844
0.199885
0.19986
0.199825
0.199745
0.199646
0.199498
0.199374
0.19919
0.198934
0.198669
0.19841
0.198027
0.197496
0.196952
0.196416
0.195632
0.19457
0.193594
0.192689
0.191664
0.19015
0.188471
0.186972
0.185687
0.184224
0.182209
0.18002
0.178146
0.176403
0.174815
0.173306
0.171326
0.169571
0.168221
0.166442
0.164387
0.161848
0.160184
0.158874
0.15795
0.156623
0.155841
0.160463
0.225803
1.09113
1.19198
1.23126
1.30058
1.4325
1.60302
1.74915
1.79066
1.77789
1.75707
1.7545
1.73985
1.71761
1.70306
1.69308
1.67985
1.66099
1.64869
1.64194
1.63233
1.62001
1.61182
1.60796
1.60324
1.59656
1.58974
1.58434
1.58076
1.57772
1.57492
1.56957
1.56822
1.56972
1.57116
1.57364
1.5761
1.58169
1.58782
1.5986
1.60784
1.62138
1.6327
1.64533
1.65735
1.66842
1.67851
1.68842
1.69974
1.71222
1.726
1.74083
1.75527
1.76886
1.78061
1.79202
1.80576
1.82081
1.83658
1.85113
1.86615
1.87889
1.88986
1.90514
1.90587
1.91398
1.91181
1.9076
1.89322
1.87928
1.85656
1.84147
1.82321
1.83368
0.199785
0.199859
0.199919
0.199893
0.19984
0.19976
0.199669
0.199523
0.199372
0.199201
0.198916
0.198662
0.198378
0.198042
0.197496
0.196891
0.196298
0.195599
0.194602
0.193566
0.192509
0.191518
0.190185
0.188467
0.186917
0.185453
0.184165
0.182437
0.18013
0.178319
0.176741
0.175407
0.17428
0.172668
0.170766
0.16918
0.167769
0.166326
0.164565
0.162393
0.159087
0.156443
0.151973
0.149562
0.161014
0.355898
1.16213
1.20547
1.28897
1.4434
1.59606
1.73219
1.77192
1.78408
1.78018
1.76099
1.74512
1.73756
1.72302
1.70546
1.69336
1.67986
1.66115
1.6468
1.63605
1.62622
1.61354
1.60448
1.60012
1.59504
1.58781
1.57985
1.57396
1.56992
1.56613
1.56366
1.55983
1.55776
1.55707
1.55651
1.55808
1.56072
1.56555
1.57191
1.58122
1.59069
1.60377
1.61553
1.62925
1.64295
1.65576
1.6672
1.67796
1.68919
1.70123
1.7142
1.72806
1.74201
1.75462
1.76649
1.77771
1.79164
1.8078
1.82457
1.83995
1.85601
1.86907
1.88037
1.89615
1.89876
1.90733
1.90533
1.90086
1.88902
1.87058
1.84449
1.83399
1.81581
1.82637
0.199811
0.199854
0.199889
0.1999
0.199852
0.199762
0.199656
0.199528
0.199361
0.199197
0.198914
0.198646
0.19835
0.19803
0.19752
0.196874
0.196198
0.195537
0.194682
0.193559
0.19242
0.191243
0.190047
0.188655
0.186995
0.185355
0.18383
0.18225
0.180361
0.178239
0.176396
0.174709
0.173373
0.171622
0.169043
0.167027
0.165244
0.163892
0.162576
0.161164
0.159331
0.159384
0.159569
0.160691
0.188335
0.764846
1.16311
1.29573
1.45539
1.63603
1.73289
1.77455
1.76809
1.7577
1.74696
1.73346
1.72
1.71232
1.707
1.69458
1.68109
1.66839
1.65519
1.64122
1.63047
1.62001
1.60784
1.59743
1.59237
1.58786
1.58053
1.57114
1.56435
1.56015
1.55466
1.55151
1.54894
1.54665
1.54619
1.54381
1.54442
1.54554
1.54863
1.55457
1.56222
1.57142
1.58427
1.59689
1.61131
1.62592
1.64007
1.65323
1.66578
1.67788
1.68963
1.70137
1.71412
1.72755
1.74019
1.7518
1.76328
1.77701
1.79389
1.81156
1.8281
1.84549
1.85924
1.87107
1.88731
1.89154
1.89974
1.89711
1.8935
1.88214
1.86178
1.83592
1.82576
1.80705
1.81833
0.199799
0.199858
0.199901
0.199918
0.199873
0.199781
0.199671
0.199565
0.19937
0.19918
0.198947
0.198633
0.198313
0.197989
0.19752
0.19684
0.196143
0.195462
0.194661
0.193591
0.192389
0.191143
0.189854
0.18858
0.187168
0.185387
0.183639
0.182048
0.180478
0.178725
0.176913
0.175328
0.174179
0.172752
0.171132
0.169593
0.168495
0.167679
0.166907
0.166063
0.164901
0.163423
0.160794
0.164213
0.194625
1.02614
1.26688
1.40921
1.60006
1.69876
1.74022
1.75007
1.73783
1.72464
1.71447
1.70533
1.69524
1.68241
1.67581
1.66824
1.65963
1.65124
1.64252
1.63386
1.62358
1.61168
1.59916
1.58952
1.58272
1.57715
1.56948
1.5626
1.55619
1.55202
1.54447
1.53993
1.53752
1.53498
1.53547
1.53121
1.53123
1.53163
1.53426
1.53996
1.54564
1.55384
1.56531
1.57786
1.5918
1.607
1.622
1.63707
1.65167
1.66444
1.67627
1.68738
1.69977
1.71308
1.72567
1.73678
1.74921
1.76251
1.77921
1.79747
1.8151
1.83378
1.84865
1.86151
1.87837
1.88411
1.89203
1.88884
1.88517
1.87163
1.85347
1.82999
1.81804
1.7977
1.80882
0.199819
0.199865
0.19988
0.199917
0.199884
0.199806
0.199681
0.199565
0.199387
0.199172
0.198953
0.198635
0.198299
0.197926
0.197484
0.196816
0.196109
0.195391
0.194611
0.19355
0.192345
0.191123
0.18985
0.188442
0.187122
0.185581
0.18363
0.181883
0.180279
0.178841
0.17731
0.175348
0.173674
0.172097
0.170213
0.167915
0.166035
0.164316
0.162328
0.160379
0.158677
0.155969
0.156044
0.162084
0.421304
1.30425
1.39936