/*--------------------------------*- C++ -*----------------------------------*\
| =========                 |                                                 |
| \\      /  F ield         | OpenFOAM: The Open Source CFD Toolbox           |
|  \\    /   O peration     | Version:  2.2.x                                 |
|   \\  /    A nd           | Web:      www.OpenFOAM.org                      |
|    \\/     M anipulation  |                                                 |
\*---------------------------------------------------------------------------*/
FoamFile
{
    version     2.0;
    format      ascii;
    class       volScalarField;
    location    "0.85";
    object      Bz;
}
// * * * * * * * * * * * * * * * * * * * * * * * * * * * * * * * * * * * * * //

dimensions      [1 0 -2 0 0 -1 0];

internalField   nonuniform List<scalar> 
14161
(
-2.24438e-14
-2.31919e-14
-2.15913e-14
-2.22757e-14
-5.21694e-14
2.22191e-14
-2.6888e-13
9.07844e-13
-1.80966e-12
2.4783e-12
1.70015e-12
-1.0955e-11
1.0402e-11
6.82817e-12
-2.71269e-12
-9.67536e-12
-9.68274e-12
1.10478e-11
3.15954e-11
5.98732e-12
-3.07766e-11
6.87803e-12
-1.03099e-10
2.56107e-11
2.60517e-10
-2.45277e-10
-8.75047e-11
3.02304e-10
1.37356e-10
-7.62988e-11
-2.08542e-10
-1.64375e-10
-1.59165e-11
9.22303e-11
1.81921e-10
1.1404e-10
2.96055e-11
-2.71376e-11
-4.09697e-11
-7.57806e-11
-4.53405e-11
-7.50491e-11
2.63456e-13
-3.60226e-10
2.95775e-09
3.11143e-08
4.60696e-07
1.27032e-06
-9.94234e-06
5.06649e-05
-4.78434e-05
1.55935e-07
4.2421e-05
2.33864e-06
4.51774e-05
-0.000145908
-0.00010015
0.000362335
0.000299976
-0.000569344
-0.000187329
0.000817184
0.00066058
-0.000798911
-0.00127953
-2.57189e-05
0.00113929
0.000719903
-0.000414807
-0.00100659
-0.00061799
0.000626787
0.00123617
0.000882292
-0.00038697
-0.00137395
-0.00073732
0.000447815
0.000685695
0.000264213
-0.000269707
-0.000381529
0.000109308
0.000616772
-0.000277994
-0.000268124
0.000167019
-0.000246825
0.000134712
3.32916e-05
-7.79117e-05
0.000124766
-8.04107e-05
-0.000184399
2.71083e-05
0.00017281
8.30141e-05
-7.57391e-05
-8.23056e-05
3.6342e-05
7.03608e-05
-1.68974e-05
-8.74121e-05
-7.31217e-05
-2.55676e-05
-4.18977e-07
-1.74539e-06
-1.21888e-06
9.25104e-06
1.23529e-05
8.64927e-06
-2.09792e-07
-1.64233e-06
-2.94783e-06
-4.6347e-06
-2.83688e-06
-1.67858e-07
-5.72039e-06
-8.57453e-06
-1.89292e-13
-2.90723e-13
-4.21823e-13
1.21491e-12
-7.03066e-12
2.30193e-12
5.65033e-12
1.1118e-11
-8.47917e-11
1.0568e-10
5.61108e-10
-1.68342e-09
7.02924e-10
7.69853e-10
1.72506e-10
-1.21743e-10
-1.16829e-09
-5.0688e-10
2.77957e-09
-1.15203e-10
-1.22407e-09
1.72305e-10
-3.75166e-09
2.08704e-09
1.87346e-08
-3.18728e-08
-9.49045e-10
1.60085e-08
1.30657e-08
-2.2907e-09
-8.95491e-09
-7.65432e-09
-6.14992e-09
6.91029e-11
1.119e-08
5.9161e-09
-3.01642e-10
-3.73987e-09
-3.03576e-09
-2.93246e-09
-1.73241e-09
1.31905e-09
3.19523e-09
4.13169e-09
1.64514e-09
3.73296e-09
7.08419e-08
7.78764e-07
4.45699e-06
6.27557e-06
2.23508e-05
3.26641e-05
-9.40723e-05
-0.000240917
0.000268903
0.000448107
-0.000148784
-0.00134201
-0.000726469
0.00240664
0.00245313
-0.00224064
-0.0044609
-0.00053386
0.00427552
0.00375218
-0.000168146
-0.00255574
-0.00265257
-0.000992568
0.00172233
0.00222656
0.00070007
-0.000932983
-0.00144775
-0.000626701
0.000818512
0.000894789
-0.00023553
-0.000525917
-0.000208822
0.000101622
0.000109368
0.00010341
-0.000207277
-2.30701e-05
0.000165493
-0.000210154
0.000186413
3.59854e-05
-8.70148e-05
9.57548e-05
-2.3692e-05
-0.000112755
7.71e-06
0.00010603
0.000102787
3.71545e-05
-2.79418e-05
-2.6073e-05
1.20111e-05
5.92119e-06
-3.34321e-05
-4.53989e-05
-2.45253e-05
-2.21075e-06
3.95948e-06
-5.3302e-06
-1.20767e-05
-2.14913e-06
1.14421e-05
1.17111e-05
4.39673e-06
-2.71909e-06
1.46795e-07
-7.60204e-06
-1.1053e-05
5.98902e-06
3.5829e-06
3.9854e-12
4.2417e-12
4.88356e-12
-2.74201e-11
1.02087e-10
-1.01241e-11
-1.29824e-10
9.13812e-12
-2.11951e-11
3.36903e-10
-2.31779e-10
-6.79364e-10
7.25078e-10
3.55878e-10
-7.20932e-10
4.18693e-09
-1.76726e-08
3.17816e-08
-7.52282e-09
-1.91424e-08
-9.7082e-10
1.14293e-08
-7.42125e-09
2.7087e-08
1.82069e-08
-1.22669e-07
4.65541e-08
5.79128e-08
2.8732e-08
-2.29757e-08
-3.71579e-08
-1.94274e-08
2.78856e-08
-3.25236e-08
4.69503e-08
6.04993e-08
-1.38426e-08
-4.10549e-08
-5.29135e-08
-1.46296e-08
1.00944e-08
3.4973e-08
2.84727e-08
1.68679e-08
7.04923e-09
-7.1592e-09
-1.00455e-07
1.61079e-06
-6.75323e-07
9.81178e-06
1.40682e-06
-1.10425e-05
0.000134152
-8.56195e-05
-0.000206414
0.000149642
0.000526019
-0.000168874
-0.000990614
-0.000360924
0.00142693
0.000950516
-0.0014065
-0.000395743
0.0022893
0.00109001
-0.00304304
-0.00349571
-0.000252911
0.00243293
0.00297302
0.00141338
-0.00231845
-0.00301442
-0.00115264
0.00161484
0.00262019
0.000625312
-0.00204203
-0.0016943
0.000612952
0.00128179
6.6689e-05
-0.000268847
-8.96132e-05
8.82801e-05
0.000186997
-0.000200909
-1.85059e-05
0.000143869
-0.000122418
-4.52992e-07
0.000143298
-6.14677e-05
-9.0687e-05
5.71076e-05
0.000130372
7.92859e-05
6.83509e-07
-2.47627e-05
-1.1608e-05
-1.88272e-05
-3.55937e-05
-3.20601e-05
-7.04258e-06
1.0335e-05
5.55188e-06
-5.0435e-06
-1.22426e-05
-7.45968e-06
3.43514e-06
7.46082e-06
3.5232e-06
-2.29732e-06
4.7759e-06
1.59186e-05
1.31035e-05
8.88504e-06
2.64736e-06
-3.2236e-12
-3.72436e-12
-5.15253e-12
1.64002e-11
-8.61519e-11
4.33848e-11
7.42812e-11
-9.99926e-11
8.09361e-10
-3.01284e-09
1.58969e-09
1.01784e-08
-1.07724e-08
-4.77818e-09
1.88561e-09
6.41213e-09
-4.82927e-09
2.47933e-08
-3.68047e-08
-4.11479e-09
1.66352e-08
1.49256e-08
-1.59748e-08
-2.72359e-08
1.81309e-07
-3.07929e-07
2.99025e-08
1.5595e-07
8.23224e-08
-4.46068e-08
-7.49649e-08
-9.14979e-08
5.86831e-08
3.76528e-08
1.97412e-08
6.15557e-08
-1.7302e-08
-6.3414e-08
-5.63179e-08
-7.93352e-09
1.62593e-08
4.83725e-08
4.30551e-08
3.44721e-08
1.92973e-08
-7.26921e-08
-4.58002e-07
4.37748e-07
6.14644e-06
1.26432e-05
4.87079e-05
-4.01203e-05
-0.000138638
-0.00013642
0.000685274
0.000575295
-0.000539227
-0.00137218
-0.000141108
0.000774664
0.000558331
0.000133244
0.000233348
-0.000301199
-0.00124628
-0.000520676
0.00199762
0.00209296
-0.000641177
-0.00227319
-0.00191473
0.000359158
0.00185682
0.0012414
6.46554e-05
-0.00111726
-0.000727907
5.83665e-07
0.000294951
0.000417444
0.000353639
-0.000240207
-0.000649152
-9.92136e-05
0.000326955
0.000273566
0.000241393
-0.000141843
-0.000221857
0.000254041
-0.000111297
-7.10929e-05
0.000110898
-2.65942e-06
-8.13781e-05
-2.56189e-05
4.30798e-05
5.55517e-05
3.22187e-05
3.17029e-06
-2.9822e-05
-3.41453e-05
-2.16895e-05
-2.41271e-05
-2.04607e-05
-4.88558e-06
-2.85683e-06
-1.15452e-05
-7.40971e-06
3.60303e-06
1.76998e-05
1.82486e-05
2.03844e-05
-6.81489e-06
-3.67962e-05
-3.54306e-05
-1.60061e-05
-5.19763e-06
-1.22401e-07
-3.06274e-11
-1.99147e-11
-3.5479e-11
1.6276e-10
-7.30859e-10
3.03507e-10
7.90492e-10
-1.82773e-10
-6.93813e-10
7.11509e-10
-1.65199e-09
9.8439e-10
1.75923e-09
-6.76023e-10
-2.27897e-10
-1.1464e-08
4.58252e-08
-8.07406e-08
6.21563e-09
7.5417e-08
-2.07489e-10
-3.38413e-08
-9.39524e-09
-6.83137e-08
1.53723e-07
-7.92194e-09
-1.45808e-07
1.85958e-08
4.96438e-08
1.92275e-08
-2.26059e-08
5.06288e-08
-9.25633e-08
-5.56891e-08
2.17614e-07
2.57681e-08
-7.73587e-08
-7.46575e-08
-4.20446e-08
-1.4142e-08
8.86763e-09
2.84606e-09
-1.72315e-08
6.35577e-09
3.47469e-08
4.85315e-08
-8.10609e-08
3.5059e-07
4.7746e-06
0.000126323
-6.0886e-05
-0.00024865
9.29959e-05
0.00036785
2.77895e-05
-0.00098307
9.30512e-05
0.00146118
0.000475142
-0.0021965
-0.000841721
0.00199231
0.000523982
-0.00133598
0.0002619
0.00135345
0.000296019
-0.00208928
-0.00181705
0.000871167
0.00221604
0.00126115
-0.000511098
-0.00126085
-0.00087936
7.04778e-05
0.000727132
0.00063668
-3.85488e-06
-0.000240985
-0.000475797
-7.07902e-05
0.000321594
-0.000394591
-4.72993e-06
0.00050243
0.000301366
-0.000254084
-0.000110922
-0.000211247
0.000285828
4.69454e-05
-0.000333021
9.54368e-05
0.00020054
2.22231e-05
-5.20139e-05
4.01077e-05
0.000134548
3.57031e-05
-5.51501e-05
1.12672e-05
2.24522e-05
-3.54059e-05
-4.21605e-05
3.41187e-06
2.49495e-05
9.03475e-06
-9.59009e-06
-1.92832e-05
-1.77189e-05
-7.96252e-07
8.6977e-06
3.67588e-05
4.21454e-05
2.6382e-05
8.84033e-06
-2.47607e-06
-1.0331e-06
-1.54807e-11
-1.20565e-11
-9.12981e-12
-2.27665e-11
6.29023e-11
-1.42408e-10
-6.30201e-11
1.15353e-10
-1.21417e-09
6.71934e-09
-1.42186e-08
-3.53031e-10
1.97366e-08
-7.37289e-10
-7.9945e-09
-6.35381e-09
-4.53425e-09
1.86578e-08
-1.44819e-08
4.44287e-09
2.74434e-09
4.36441e-10
1.00576e-08
-9.61565e-09
-9.30681e-08
2.7876e-07
-2.11232e-07
-1.00445e-07
6.67965e-08
1.03921e-07
3.36659e-08
-4.51315e-08
-5.32558e-08
-8.05774e-08
-5.89668e-08
1.08931e-07
1.45678e-07
6.06734e-08
-3.56303e-08
-8.06995e-08
-7.40255e-08
-5.05931e-08
-1.22175e-08
2.95864e-09
4.08984e-09
5.46231e-08
3.24167e-07
1.22473e-06
1.81348e-05
-0.00015975
0.000378299
0.000251557
-0.000776419
-0.000636576
0.00131921
0.0010041
-0.00138936
-0.00169933
0.00139647
0.00146916
-0.000554061
-0.0016589
0.000129465
0.0011869
0.000673989
-0.000590896
-0.0010231
0.000239284
0.00111307
0.000167888
-0.000534627
-0.00055606
-0.000167511
0.000208413
0.000254136
0.00016116
-6.32893e-05
-0.000129256
0.000134774
-0.000603641
0.000312405
0.00118409
-0.00119568
-0.00121877
0.00125727
0.000894518
-0.000453646
-0.000590524
2.90231e-05
0.000241031
-1.33128e-06
3.27142e-05
0.000300444
-0.000359636
-0.000134941
0.000242448
-1.10694e-05
-3.93491e-05
-2.12224e-05
-9.37386e-05
4.75263e-05
7.82038e-05
-5.33593e-05
-7.00702e-05
-1.79342e-05
2.25254e-05
3.81512e-05
3.07046e-06
-6.23727e-09
3.23689e-05
5.40306e-05
4.12477e-05
1.54691e-05
-1.1542e-05
-1.13334e-05
5.79313e-06
3.76451e-06
-4.32997e-06
-1.4602e-06
-2.25625e-11
-1.59592e-11
-2.60304e-11
6.07644e-11
-4.28917e-10
3.59913e-10
3.4004e-10
-2.25915e-10
-3.8254e-10
3.08477e-10
-7.34853e-11
-1.75208e-09
3.65008e-09
-1.97576e-10
-2.80481e-09
1.11688e-08
-3.63963e-08
3.186e-09
1.62737e-07
-1.48803e-07
-7.61587e-08
7.61936e-09
5.37181e-08
1.09833e-07
-1.28654e-07
1.34315e-07
-8.07679e-08
-7.9306e-08
5.30323e-08
8.87219e-08
7.49955e-09
-3.03765e-08
-1.69344e-07
7.43879e-08
-1.15742e-08
-1.93082e-07
1.83519e-07
1.90228e-07
1.16517e-07
-5.90696e-09
-8.26595e-08
-8.67721e-08
-4.91509e-08
-3.61681e-08
-2.26899e-08
-5.14799e-08
9.40268e-09
1.38406e-07
-3.47634e-06
2.08776e-05
-0.000103589
-1.1202e-05
0.000125279
0.000186286
-0.000345635
-0.000175597
0.000344781
0.000396321
-0.000346249
-0.000390096
0.00020694
0.000481456
-6.16747e-06
-0.000409273
-0.00050945
0.000203404
0.000659077
0.000166654
-0.00041695
-0.000495209
-7.6917e-05
0.000294133
0.000253633
4.66259e-05
-8.40229e-05
-7.28516e-05
-9.01916e-05
0.000107611
8.2601e-05
-0.000494995
0.00105499
0.000284736
-0.00207525
8.00972e-05
0.00201301
-2.3888e-05
-0.00105772
-0.000387898
0.00041092
0.000313369
-0.000331012
-0.000123288
-0.000215335
0.000325534
0.000139435
-0.000420147
4.85626e-05
0.000178368
-0.000151776
0.000123865
0.000119424
-0.000133532
5.88378e-05
0.000116206
-0.000105093
-0.000116731
1.03068e-05
3.5496e-05
-1.57728e-05
-5.73042e-05
-8.38897e-05
-5.29739e-05
-2.09076e-05
-2.83778e-05
-3.80953e-05
-2.35904e-05
-1.09524e-05
-8.14932e-06
-1.35847e-06
1.91251e-11
-4.37458e-12
1.67492e-11
4.32545e-11
-1.1332e-10
2.49584e-10
9.84042e-11
-2.23556e-10
7.56729e-10
-6.99317e-09
2.71813e-08
-3.14848e-08
-8.672e-09
1.73535e-08
1.11117e-08
-8.26194e-09
9.43343e-09
-2.52922e-08
-3.2468e-08
9.32608e-08
7.12371e-09
-4.50239e-08
-1.25681e-08
-5.38487e-08
-2.50033e-07
1.11447e-06
-1.01859e-06
-3.9745e-07
4.31796e-07
3.90849e-07
6.86447e-08
-1.52065e-07
-3.53801e-07
-9.46335e-08
2.17567e-07
1.51463e-07
3.35853e-07
4.19572e-08
-2.1177e-07
-3.28311e-07
-2.48329e-07
-1.45972e-07
3.44131e-08
1.40819e-07
2.33384e-07
2.58658e-07
5.55649e-08
3.04998e-07
-4.45242e-06
1.41585e-05
1.08021e-05
-2.78742e-05
-3.64606e-05
-5.14809e-05
0.000140064
0.000140021
-9.55043e-05
-0.0001644
-4.09339e-05
0.000128139
4.58965e-05
-0.000218546
6.90695e-05
0.000413062
3.42898e-05
-0.000546891
-0.000197719
0.000280435
0.00017177
-4.97456e-05
-8.10127e-05
-1.059e-05
2.58187e-05
9.46224e-06
1.2383e-05
5.75991e-05
1.04064e-05
7.96183e-05
-3.92239e-05
-0.000291652
0.000410347
0.000288063
-0.00156797
0.000819085
0.00175844
-0.000581175
-0.00128925
-0.000377728
0.000428335
0.000252175
0.000328565
6.07983e-05
-8.06093e-05
0.000344601
-0.000473564
2.87924e-05
0.000395912
-0.000318398
-0.000132875
0.00026294
-0.000108642
2.92375e-05
0.000140343
-0.000168989
-9.3707e-05
9.72261e-05
3.38614e-05
-1.99805e-05
2.25582e-05
3.57457e-05
6.21469e-06
9.87392e-07
1.40151e-05
8.31993e-06
-1.47059e-05
-1.05899e-05
-4.09812e-06
-2.92624e-06
-2.69416e-07
6.80294e-12
5.60134e-12
8.97752e-12
-7.5886e-12
9.39365e-11
-1.17627e-10
-5.96669e-11
8.14393e-11
7.56569e-11
8.49664e-11
-8.34376e-10
2.12312e-09
-2.18064e-09
2.26601e-10
1.08522e-09
-6.75916e-09
3.2655e-08
-6.56188e-08
-1.76186e-08
1.42456e-07
-1.87354e-08
-5.46082e-08
-4.68384e-08
1.11692e-08
1.91e-08
-1.02447e-07
2.74721e-07
-1.21853e-07
-1.50999e-07
-2.48947e-08
9.64741e-08
1.01855e-07
6.22873e-08
-5.48748e-09
-1.44795e-07
-5.69324e-08
1.45114e-09
-6.12141e-08
2.89887e-09
6.03328e-08
9.08017e-08
8.15042e-08
3.48854e-08
-1.76309e-08
-3.42098e-08
-3.04739e-08
-5.57241e-08
-2.32435e-07
4.38562e-06
3.01403e-06
0.000153409
-8.25119e-05
-0.000152204
-0.000232987
0.000135128
0.00050905
5.54459e-05
-0.000531448
-0.000104224
0.000395808
-5.25081e-05
-0.000410473
0.000105813
0.000763681
0.000139539
-0.00127291
-0.000322523
0.000806367
0.000457729
-0.00015095
-0.000323756
-0.000164922
0.000100649
0.000163391
9.56341e-05
1.90975e-05
-8.66359e-05
-4.90241e-05
0.000371208
-0.000924314
0.000579872
0.000565008
-0.00145383
0.000717412
0.00122194
-0.000896216
-0.000807735
5.39192e-05
0.000703581
0.00033753
0.000449689
-0.00136662
0.00160172
-0.000651279
-0.00117912
0.00119618
0.000233729
-0.000744235
9.36681e-05
0.000126103
-3.5249e-05
0.000132477
-0.000139419
-6.31986e-05
0.000221573
4.46382e-05
-0.000138721
-6.07423e-05
1.81749e-05
3.83982e-05
4.18151e-05
3.59639e-05
2.88887e-05
2.63789e-05
1.57075e-05
1.70623e-05
1.17348e-05
5.80675e-06
1.89669e-06
9.54536e-13
3.42429e-13
1.23732e-12
1.07173e-12
2.75117e-12
2.51679e-12
-1.57306e-11
1.00438e-11
9.9101e-12
-1.58889e-10
1.22603e-09
-3.19015e-09
2.31224e-09
1.14832e-09
-6.14573e-10
-3.22574e-09
9.87674e-09
-2.49509e-08
1.82094e-08
3.13888e-08
-2.2365e-08
-2.08304e-08
-2.69063e-09
8.18707e-09
3.91609e-08
-8.70532e-08
9.80083e-08
1.55837e-08
-8.27229e-08
-4.47006e-08
2.5006e-08
4.45144e-08
3.58008e-08
9.9799e-09
-3.13786e-08
-3.52293e-08
-4.84503e-08
-1.56936e-09
3.24254e-08
3.60694e-08
3.05218e-08
1.68302e-08
-3.29966e-09
-1.13099e-08
-8.74519e-09
-1.15202e-08
7.33767e-08
-1.07953e-06
2.80068e-06
-0.000102002
8.07106e-05
0.000461341
-5.51544e-05
-0.000996416
-0.000242501
0.0013461
0.000348433
-0.00112023
-0.000393072
0.00133659
-0.000598191
-0.00135422
0.000339389
0.00242269
0.000662941
-0.00247643
-0.00211311
0.00144446
0.00203448
0.000291821
-0.000912476
-0.000895106
-0.000150429
0.000294746
0.000291944
0.000100446
-0.000390197
0.000498502
-6.51583e-05
-0.00169732
0.00212543
0.000156485
-0.00186066
0.00113511
0.00148542
-0.000947235
-0.000858692
-4.73281e-05
0.000504904
0.000429345
-0.000199165
-0.000427914
0.000839294
-0.00256099
0.00129893
0.00120967
-0.00106748
-0.000308486
0.000716959
4.06567e-05
-0.000276143
-0.000251056
3.99022e-05
0.000383871
0.00010407
-0.000248552
-0.000177339
-4.7208e-05
-5.02037e-05
-4.85216e-05
-2.24969e-05
-1.93827e-05
-1.74834e-05
1.09371e-05
2.5817e-05
2.77957e-05
1.85916e-05
1.0642e-05
3.63475e-06
-4.05923e-13
2.04334e-13
-5.5052e-13
9.99715e-13
-2.44406e-11
4.60492e-11
7.68504e-13
-2.76375e-11
-1.13413e-11
-2.67313e-11
2.58621e-10
-6.64933e-10
6.41022e-10
7.57034e-11
-1.90134e-10
-2.00148e-11
-6.2822e-09
4.77804e-08
-1.18508e-07
8.6368e-08
4.37103e-08
-2.77046e-08
-4.24477e-08
-6.8738e-09
-1.14781e-08
6.96789e-08
4.04627e-08
-7.07108e-08
-3.33253e-08
-5.51461e-09
1.76487e-08
1.69577e-08
5.83771e-09
-3.44504e-09
-5.65322e-10
-4.90262e-09
-9.29162e-09
-3.76258e-09
1.3025e-09
-1.23239e-08
-1.05737e-08
1.93523e-09
1.09592e-08
2.30772e-08
2.95354e-08
2.34242e-08
-2.6446e-08
1.61822e-07
-6.19316e-06
4.04152e-05
-0.000363661
0.000388747
0.000658781
-0.00045908
-0.000987523
0.000901251
0.000555693
-0.00104296
-6.03281e-05
0.0011067
-0.000654904
-0.00093918
0.000533329
0.00101302
0.000589423
-0.000961722
-0.001843
0.000695689
0.00162603
0.000335307
-0.000779097
-0.000844911
-0.000122823
0.00039876
0.000455962
-1.20277e-05
-0.000315007
0.00146289
-0.00270543
-0.000302964
0.00350925
-0.000464527
-0.00270769
0.00113288
0.00116808
-0.000764975
-0.00110066
0.000267986
0.000605353
0.000291349
-0.000486792
-0.000212577
-0.00068579
0.00165696
-0.000232837
-0.000514045
0.000181112
0.000791271
-0.000202873
-0.000631956
0.000148107
0.000302789
0.000217105
-7.87522e-05
-0.000387877
-0.000135512
0.000177833
0.00012259
-2.62088e-05
-5.04248e-05
-2.63911e-05
-3.31238e-05
-3.39574e-05
-8.20071e-06
1.46075e-05
1.72637e-05
1.45796e-05
1.05985e-05
4.36569e-06
-5.15471e-14
1.13626e-13
-1.755e-13
-1.4072e-13
-5.44109e-12
1.28275e-11
3.38894e-12
-1.19871e-11
8.61014e-12
-1.58638e-10
8.15632e-10
-1.40237e-09
-2.70502e-11
1.10472e-09
1.86236e-10
2.40935e-10
-3.64315e-09
6.36778e-09
1.28468e-09
-1.8126e-08
7.48081e-09
9.49988e-09
3.70937e-09
-3.19762e-09
-3.79523e-09
-1.68533e-09
-1.20177e-08
1.254e-08
1.57271e-08
-5.56674e-09
-1.04265e-08
-5.59197e-09
-1.03914e-10
4.41973e-09
3.72175e-09
3.05373e-09
2.59536e-09
-3.91616e-09
-3.06296e-09
3.62376e-09
1.63864e-09
-2.06001e-09
-3.88322e-09
-6.04738e-09
-7.75261e-09
1.72628e-08
-2.8586e-07
2.81973e-06
-1.32262e-06
3.56163e-05
-0.000213335
-0.000195394
0.000626565
0.00037499
-0.000497374
-0.000658521
0.000336138
0.000158363
1.76806e-05
0.000794639
-0.000582112
-0.00123636
0.000470986
0.000837068
0.000942375
-0.000715081
-0.00232793
0.000360495
0.00173029
0.000990961
-0.000585052
-0.00122542
-0.000403502
0.000497667
0.000634159
0.000189442
0.000253644
-0.000381126
-0.00235093
0.00265511
0.00240091
-0.00262556
-0.00219732
0.00199946
0.00161777
-0.00096176
-0.00111466
0.000179316
0.000541335
0.000246056
-6.08296e-05
-0.000435845
0.00154001
-0.00284535
-0.000189133
0.00157928
-0.000390671
-0.000752069
-0.000793402
0.000389748
0.000675343
7.70241e-05
-0.000226855
-0.00026992
-1.0694e-05
0.000311496
0.000290032
9.89798e-05
-1.48644e-05
-1.14617e-05
6.51284e-06
4.82173e-06
-8.33691e-06
-1.57977e-05
-9.65411e-06
-8.63875e-06
1.0706e-06
6.35615e-06
4.19717e-06
-4.34272e-15
3.47312e-14
-3.51945e-14
-2.28277e-14
-6.95343e-14
-1.48301e-12
5.48787e-12
-3.31551e-12
-1.29382e-12
3.88414e-12
-4.65971e-11
1.80082e-10
-2.53729e-10
5.1702e-11
8.54561e-11
7.79774e-11
-6.71955e-10
3.87305e-09
-9.50078e-09
5.4531e-09
7.29323e-09
-4.184e-09
-4.14283e-09
-8.66723e-10
1.56065e-09
3.98077e-09
-3.89191e-09
4.274e-09
-3.2205e-09
-3.62254e-09
-4.57498e-10
3.16042e-09
2.93235e-09
8.10529e-10
-1.51137e-09
-5.62299e-10
-5.14163e-09
-1.90389e-09
-2.24083e-09
3.03218e-10
7.22804e-09
5.10609e-09
2.02729e-09
1.25862e-09
-6.58194e-09
4.32226e-08
-5.73766e-07
2.80193e-06
2.0465e-06
-4.39139e-06
5.73996e-05
-0.000107611
-0.000143784
0.00020944
0.000115164
2.01852e-05
3.98886e-05
-0.000352351
-0.000294338
0.000747323
0.000272977
-0.00119456
-3.2424e-05
0.000866945
0.00103083
-0.000886932
-0.00198174
0.00044572
0.00154246
0.000742616
-0.000623849
-0.00116492
-0.000199433
0.00056057
0.000573592
0.00027145
-0.000702593
-0.000373822
0.000915432
0.000849288
-0.00128349
-0.00166837
0.000694432
0.00177306
-0.000171591
-0.00137741
-0.000120045
0.00136957
0.000838904
-0.000556214
-0.00102059
-5.16044e-05
-0.000955607
0.00142368
0.00163659
-0.00226873
-0.000303012
0.000234374
0.000932343
0.000649965
-0.00056894
-0.000511633
-0.000178866
0.00021372
0.000355858
8.08522e-05
-0.000124802
-7.06057e-05
-1.02214e-05
2.98618e-06
1.46686e-05
2.89189e-05
9.10203e-06
-2.26674e-05
-3.07274e-05
-3.09708e-05
-1.26292e-05
1.10381e-06
3.27922e-06
6.53326e-14
-4.28758e-14
1.37997e-13
1.2585e-13
7.29407e-13
-1.55715e-12
-1.25996e-13
8.88625e-13
1.77459e-12
-1.37168e-11
5.94753e-11
-7.23666e-11
-1.1675e-10
1.85927e-10
5.07831e-11
-6.87485e-11
3.32239e-10
-1.86799e-09
3.84348e-09
-1.89102e-09
-2.2468e-09
6.12379e-10
1.72503e-09
4.20585e-10
-3.99318e-10
-2.44249e-09
2.18041e-09
2.65446e-10
-5.01739e-09
8.41264e-09
1.25536e-09
-3.48596e-09
-4.05124e-09
-2.09202e-09
8.22238e-10
4.46744e-09
-3.37086e-10
2.30679e-09
2.50395e-09
-7.26327e-09
-5.88545e-10
-1.17923e-10
1.27603e-09
2.68605e-09
-6.96644e-09
3.62927e-08
-2.66141e-07
-1.55067e-06
2.51743e-06
1.15329e-06
-1.07049e-05
7.31426e-05
-0.000145379
-1.74813e-05
0.000112339
6.18118e-05
0.000130779
2.84145e-05
-0.000306912
-6.45582e-05
0.000338831
-0.000119599
-0.000332288
5.25837e-05
0.000231324
7.58437e-05
-0.000288245
-6.1035e-05
7.33511e-05
0.000107049
8.08682e-06
-3.60105e-05
-1.57612e-05
1.86165e-05
-6.04266e-05
0.000599402
-0.000766693
-0.000837826
0.00103556
0.000414379
-0.0016643
-0.00042275
0.00213986
0.00171411
-0.000900561
-0.00162328
-0.00071947
-0.000494014
-0.000867424
-0.000194586
0.000434119
0.000814175
0.000438564
0.000162327
-0.00283669
0.00189087
0.0015261
0.000363929
0.000283805
-0.00113754
-0.000446098
0.000205385
0.000204726
0.000364106
-2.92708e-05
-0.000349064
-0.000235823
1.71799e-06
6.50754e-05
1.70109e-05
1.14958e-05
3.05991e-05
9.09296e-06
-2.48164e-05
-3.44943e-05
-3.646e-05
-1.86854e-05
-2.52873e-06
2.33029e-06
7.72001e-14
1.97656e-14
1.03002e-13
7.04834e-14
-1.39512e-13
5.64569e-13
1.75111e-14
-5.66451e-13
-3.49481e-13
8.29955e-12
-4.82477e-11
1.30339e-10
-9.48535e-11
-5.48293e-11
3.22571e-11
4.34867e-11
-5.34246e-11
7.02911e-10
-2.98911e-09
4.63762e-09
-1.45356e-09
-2.33592e-09
2.8765e-10
1.22232e-09
9.98113e-10
-7.00028e-10
-4.72791e-10
1.45298e-09
-3.44971e-09
6.17924e-10
2.52633e-09
1.34975e-09
-1.28604e-09
-1.5206e-09
-7.774e-10
6.59993e-10
-2.75239e-10
1.05119e-09
8.41423e-10
-1.61933e-09
3.40674e-10
7.05755e-10
9.74792e-10
-9.29407e-10
-5.37899e-09
1.68654e-08
1.95105e-06
-7.78193e-06
3.75511e-06
3.69817e-06
4.37448e-07
6.83059e-06
-6.49013e-05
0.000200759
-0.000236499
0.000231025
3.70188e-06
-0.000268257
-0.000301778
-2.34367e-05
0.000526865
0.000598283
-0.000193235
-0.000440493
-0.0001362
7.72256e-05
1.27014e-05
-0.000186228
-0.000304164
-0.00013235
0.000523447
-0.00200621
0.00211451
0.00355469
-0.0081314
0.000922134
0.00614192
-0.00201989
-0.00305029
0.00288639
0.0018737
-0.000593971
-0.00204488
-0.00154488
-0.000289759
0.00115231
0.00184372
0.0013969
0.000825611
0.000383222
0.000292405
-0.000526682
0.000395027
-0.00107185
0.00316333
0.00115986
-0.00156371
-0.000467362
-0.00122691
-0.000646064
0.000733886
0.000232231
0.000169969
5.91521e-05
-0.000353246
-0.000231444
-1.54844e-05
6.21593e-05
4.7687e-05
-7.45001e-06
-7.73282e-06
1.49066e-05
2.73503e-06
-1.14631e-05
-1.2648e-05
-1.96574e-05
-1.46291e-05
-3.80511e-06
1.39831e-06
7.14816e-14
-1.71428e-14
1.27749e-13
9.2488e-14
1.44354e-13
-2.97648e-13
1.59356e-13
1.73385e-13
-1.07933e-13
1.00836e-12
-7.83952e-12
2.18434e-11
-1.5528e-11
-1.87357e-11
1.52089e-11
1.0176e-11
-2.08928e-11
1.2746e-11
2.13035e-10
-6.97327e-10
5.92211e-10
2.28773e-10
-1.68634e-10
-2.72195e-10
8.04596e-11
-3.66777e-10
-1.69191e-10
3.36336e-09
-3.59032e-09
-3.12726e-09
5.84602e-09
1.56719e-09
-3.87768e-09
-1.75042e-09
5.80725e-10
1.58365e-09
1.49489e-09
-1.87983e-10
-1.45849e-09
-1.3853e-09
-6.54818e-10
3.077e-10
1.06218e-09
1.08969e-09
1.908e-09
-1.13077e-07
8.24883e-06
-2.23179e-05
4.72242e-06
1.03039e-05
4.87968e-06
7.71447e-06
-0.000171142
0.00056038
-0.00108026
0.00051282
-8.5406e-05
-4.40273e-05
0.000681647
0.000505235
0.000222812
-0.000911505
-0.000551531
-0.000711274
-0.000550341
0.00130848
-0.00345567
0.00811522
-0.00527179
-0.012573
0.0202323
-0.00307626
-0.0106712
0.0048945
0.00311249
0.0004448
-0.0026284
-0.00103273
0.00227605
0.000162928
-0.0027766
-0.00137931
0.00109505
0.00223713
0.00152181
0.000446435
-0.000798823
-0.000878364
-0.000450586
-7.25666e-05
-0.000350344
0.000250834
-0.000445843
0.000375197
-0.00152153
-0.00325045
-9.75211e-05
5.217e-05
-0.000151604
0.00119188
0.000492555
-8.02867e-05
8.62424e-05
-0.000280251
-0.000216265
6.53449e-05
3.85216e-05
9.42668e-06
6.95229e-06
-2.73153e-05
-2.74566e-05
-1.03661e-07
5.94637e-06
1.65489e-05
2.18219e-05
8.39049e-06
-4.35202e-06
-3.06578e-06
7.18251e-07
7.31245e-14
-5.77579e-16
1.17332e-13
6.19614e-14
-2.32823e-14
2.0294e-13
6.82477e-14
-2.96511e-13
-1.03198e-13
1.57921e-13
3.54276e-13
-1.55506e-12
3.71632e-12
-2.3762e-12
-1.15841e-12
-1.3792e-13
4.86214e-12
-1.08089e-11
-1.82147e-12
7.54026e-11
-1.17163e-10
-1.22605e-11
8.83101e-11
1.79767e-11
-3.07176e-11
1.92277e-11
-4.48107e-11
-2.54452e-10
4.69559e-10
1.00716e-10
-3.95862e-10
-1.98191e-10
1.97763e-10
1.76196e-10
3.87585e-11
-1.88563e-10
3.984e-11
-2.01648e-10
3.44628e-10
-6.74133e-12
-1.40235e-10
1.84692e-10
-1.46495e-10
-8.65982e-10
4.67745e-08
-6.27586e-07
1.95438e-05
-3.80511e-05
-4.63786e-07
1.88587e-05
-3.49215e-06
-1.11241e-05
-0.000207222
0.000549797
-0.00192544
0.00251997
-0.00166438
0.00154569
-0.000178195
-0.00239348
-0.000309021
-0.00373078
0.00421075
-0.00321158
0.00264211
0.017284
-0.0194385
-0.0150239
0.0243857
0.00455235
-0.0170681
-0.00362542
0.0110922
0.00241458
-0.00424412
-0.00168334
0.000582383
0.00185228
-2.39111e-05
-0.00155445
-0.000116793
0.00121805
0.00120536
-0.000253278
-0.000868522
-0.00122562
-0.00130933
-0.000594981
5.22894e-05
4.46437e-05
-0.000452531
-0.000415485
-0.00172105
-0.000487251
-0.00111322
0.00199845
0.00163546
0.000345507
0.00110657
0.000546781
-0.000447931
6.96453e-05
-0.000170479
-0.000339273
0.00015731
0.000122772
-5.88262e-05
-2.28329e-05
-6.1665e-07
-3.34921e-05
-3.24763e-05
2.55995e-06
2.10697e-05
4.08284e-05
4.91684e-05
3.06883e-05
5.5335e-06
-1.87317e-06
3.48425e-08
4.98236e-14
-1.09513e-14
8.31612e-14
4.77827e-14
-6.91562e-14
3.69807e-13
-1.86602e-13
-2.9089e-13
9.5813e-14
4.42986e-13
-2.30188e-12
7.34855e-12
-7.80142e-12
-3.98475e-12
7.35394e-12
2.16754e-12
-2.84654e-12
5.20869e-12
-1.63453e-11
1.28953e-11
6.13925e-12
-1.78991e-12
-1.10421e-11
1.5464e-12
-2.73608e-12
1.11739e-11
3.83744e-12
-1.45394e-12
-3.53895e-11
6.03802e-11
-8.48128e-11
1.33568e-10
-1.11565e-10
-3.04268e-13
1.14908e-10
-3.57124e-10
6.59415e-10
-8.04312e-10
6.66879e-10
3.58848e-10
-1.81763e-09
1.66957e-09
-6.81977e-10
-5.13046e-09
1.7615e-07
-8.1522e-07
2.23957e-05
-3.97402e-05
-2.68781e-05
5.50852e-05
5.2653e-06
-6.11077e-05
-0.000232603
0.000445006
-0.00232601
0.00378266
-0.0056225
0.00401069
-0.00529187
-0.00455507
0.00905436
-0.00517176
0.0137591
0.00732934
-0.0279103
-0.0134777
0.021444
0.019809
-0.0121475
-0.0194904
0.00321094
0.015747
0.00186885
-0.00711956
-0.00302307
0.00110957
0.00100504
0.000262693
-0.000325377
0.000108661
0.000498616
0.000204095
-0.000434035
-0.000942793
-0.000531796
-0.000237894
0.000370336
3.69561e-05
0.000242738
1.47583e-05
0.000670057
0.000354509
0.0015646
0.00188607
0.00235789
0.000930853
-0.00101002
0.000133275
7.96242e-05
-0.000927177
-0.000299727
0.000106583
-0.000413277
5.83363e-05
0.000330768
-3.11242e-05
-5.65532e-05
1.41503e-05
2.26378e-06
-3.25854e-05
-2.21609e-05
1.48511e-05
3.21041e-05
4.54436e-05
5.38343e-05
3.97988e-05
1.06784e-05
-1.2551e-06
-5.43878e-07
3.49453e-14
-2.85294e-15
5.71489e-14
2.14908e-14
-7.81998e-14
3.35168e-13
-1.17854e-13
-4.07332e-13
1.51027e-13
2.93578e-13
-1.25414e-12
5.85457e-12
-8.59412e-12
1.38098e-12
3.80411e-12
1.33101e-12
-6.46157e-12
1.25888e-11
-2.15217e-11
2.90822e-11
-3.11723e-11
2.43073e-11
-2.2165e-11
3.48002e-11
-4.83464e-11
5.22885e-11
-5.14101e-11
4.38317e-11
-2.24283e-11
3.89732e-11
-8.42317e-11
7.08825e-11
-6.62891e-11
8.17513e-11
1.86488e-10
-1.01175e-09
1.70801e-09
-1.54915e-09
9.54381e-10
7.86379e-10
-1.34145e-09
1.99739e-09
-3.96302e-09
1.51996e-09
-1.59013e-08
4.50544e-06
-5.76788e-05
7.40681e-05
-3.86642e-05
-1.85931e-05
-5.04253e-05
-0.000101443
-0.000273475
0.000293663
-0.0025269
0.00424451
-0.00788282
-0.00396658
0.00231775
0.000816497
0.0267054
0.00195425
-0.0327382
-0.019695
0.0200682
0.0264471
0.00160268
-0.0212687
-0.0151578
0.0100219
0.0184748
0.00225884
-0.0127204
-0.0071127
0.00220673
0.00380823
0.00148598
9.46055e-05
-3.35137e-05
0.000373171
8.58913e-05
-0.000387918
-0.000666124
-0.000604629
-0.000133889
0.000716574
0.00108971
0.000602041
0.00034675
0.000396138
0.000869139
0.000910057
0.00132546
-0.000162545
-0.000841314
-0.00233368
-0.000628052
-4.54126e-05
-0.000961063
-0.000610403
0.000263774
-0.000163121
-0.000113268
0.000467378
0.000142274
-6.75708e-05
8.88375e-05
3.63871e-05
-1.93144e-05
-3.3047e-05
-1.20989e-05
1.70933e-05
2.36968e-05
2.30508e-05
3.26182e-05
3.25092e-05
1.09879e-05
-1.45353e-06
-1.17236e-06
2.06657e-14
-2.04927e-15
2.97368e-14
1.46053e-14
-8.30949e-14
3.97053e-13
-3.07134e-13
-2.1648e-13
2.4471e-13
2.54299e-13
-1.99852e-12
7.65284e-12
-1.33744e-11
1.16568e-11
-4.23297e-12
6.70217e-12
-2.24179e-11
2.99386e-11
-3.27976e-11
2.89398e-11
-2.51146e-11
3.09921e-11
-2.97842e-11
4.16898e-11
-5.72582e-11
6.18451e-11
-6.6708e-11
6.95162e-11
-6.72166e-11
5.99604e-11
-6.73443e-11
1.87508e-11
1.84549e-10
-3.28395e-10
3.11434e-10
-5.68568e-10
7.53825e-10
-2.45272e-10
-5.09847e-10
1.15863e-09
-1.58654e-09
2.77149e-09
-6.6831e-09
2.77111e-08
-2.44193e-07
8.80201e-06
-7.68207e-05
6.2317e-05
-1.98377e-05
-2.88074e-05
-0.000113778
-7.42707e-05
-0.000443313
0.000102295
-0.00277261
0.00545981
-0.0176863
-0.0126344
0.0537586
0.00472934
-0.039543
-0.0256874
0.0179281
0.0302876
0.0119092
-0.0158912
-0.0206529
-0.00370019
0.0165544
0.0173931
-0.000250119
-0.0165273
-0.0124782
0.00564621
0.0114269
0.00532475
-0.00102513
-0.00459463
-0.0027347
-1.33782e-05
0.000480698
-4.83558e-05
-0.000296148
-0.000210102
0.0002845
0.000661311
0.000782224
0.000921138
-0.000408268
-0.000836648
-0.00121818
-0.00144399
-0.00202163
-0.0013238
-0.00120383
8.51178e-05
0.000988349
-0.000401409
-0.000170713
0.000446916
0.000268187
-0.000174053
0.000434924
0.000382838
-0.000105344
0.000107645
0.000150297
-1.94556e-05
-4.36229e-05
-2.58694e-05
-7.28212e-06
6.365e-06
1.34469e-06
-1.07397e-05
1.25881e-06
1.56165e-05
7.31942e-06
-2.04261e-06
-1.69623e-06