/*--------------------------------*- C++ -*----------------------------------*\
| =========                 |                                                 |
| \\      /  F ield         | OpenFOAM: The Open Source CFD Toolbox           |
|  \\    /   O peration     | Version:  2.2.x                                 |
|   \\  /    A nd           | Web:      www.OpenFOAM.org                      |
|    \\/     M anipulation  |                                                 |
\*---------------------------------------------------------------------------*/
FoamFile
{
    version     2.0;
    format      ascii;
    class       surfaceScalarField;
    location    "0.85";
    object      cfmax;
}
// * * * * * * * * * * * * * * * * * * * * * * * * * * * * * * * * * * * * * //

dimensions      [0 3 -1 0 0 0 0];

internalField   nonuniform List<scalar> 
28084
(
0.00124338
0.00123634
0.00123412
0.00123356
0.00123351
0.00123256
0.00122731
0.00122423
0.00121952
0.00121631
0.00121506
0.00121382
0.00121738
0.00122185
0.00122905
0.0012344
0.00124288
0.0012499
0.0012549
0.00125633
0.00125643
0.0012551
0.00125384
0.00125268
0.00125188
0.00125598
0.0012609
0.00126713
0.00127139
0.0012762
0.00128073
0.00128291
0.00128466
0.00128624
0.00128769
0.0012877
0.00128707
0.00128653
0.00128533
0.00128345
0.00128138
0.00128068
0.0012805
0.00128364
0.00129185
0.00131622
0.00137159
0.0012181
0.000925661
0.000891455
0.000868846
0.00086284
0.000866384
0.000875646
0.000887641
0.000902664
0.000922146
0.000943871
0.000965976
0.00098846
0.00100919
0.00102619
0.00104262
0.00105897
0.00107565
0.00109102
0.00110468
0.00111634
0.00112651
0.00113511
0.00114225
0.00114892
0.0011556
0.00116104
0.00116449
0.00116419
0.00115929
0.00115123
0.00114173
0.00112849
0.00110794
0.00106676
0.00100345
0.000923945
0.000853971
0.000801506
0.000761377
0.000730521
0.000705455
0.000686969
0.00067391
0.000664017
0.000656091
0.000649022
0.000643117
0.000638288
0.00063436
0.000631567
0.000629847
0.000628669
0.00062787
0.000627732
0.000628194
0.000629296
0.000631224
0.000634514
0.000638889
0.000644746
0.000651486
0.000659603
0.000668589
0.000678213
0.000688495
0.000699126
0.000710201
0.000721358
0.000731035
0.000742264
0.00358309
0.00358119
0.00124947
0.00357009
0.00125245
0.00353617
0.00124622
0.00348087
0.00123504
0.00343842
0.00122394
0.00340222
0.0012271
0.00335979
0.00123279
0.00332773
0.00124102
0.00327968
0.00125611
0.00320863
0.00127513
0.00314038
0.0012922
0.00307234
0.00129661
0.00300008
0.00129831
0.00293106
0.00129875
0.00284873
0.00129028
0.00273018
0.00128231
0.0026083
0.00126843
0.00250324
0.00126062
0.00241832
0.00126451
0.00234715
0.00127504
0.00227671
0.00129103
0.00221022
0.00131028
0.00213586
0.00133225
0.00204319
0.00135651
0.00195995
0.00137193
0.00187816
0.00137986
0.00179869
0.00138343
0.00172017
0.00138561
0.00164175
0.00138312
0.0015661
0.00137906
0.00148516
0.0013736
0.00140531
0.00136934
0.00133154
0.00136764
0.0012621
0.00136732
0.00119742
0.00136982
0.00113639
0.00137225
0.00107728
0.00137477
0.0010198
0.00137847
0.000964799
0.00138008
0.000912051
0.00138111
0.000861019
0.00138122
0.000812563
0.00137931
0.000765223
0.001377
0.000721977
0.00137165
0.000730121
0.00136538
0.000737915
0.00136963
0.000750047
0.00137597
0.000557928
0.000914084
0.000548082
0.000797979
0.000550389
0.000792738
0.000555256
0.000813052
0.000557041
0.000846342
0.000566541
0.000880251
0.000568498
0.00090702
0.000570387
0.000929404
0.00057468
0.000953038
0.000580705
0.000978016
0.000587541
0.00100736
0.000595187
0.00103097
0.000602786
0.00105283
0.000607682
0.0010716
0.000611234
0.00108856
0.000614851
0.00110445
0.000618274
0.00112103
0.000621748
0.00113718
0.000626024
0.00115143
0.000630402
0.00116346
0.000634714
0.00117324
0.000639022
0.00118107
0.000643597
0.00118699
0.000648037
0.00119125
0.000652298
0.00119325
0.000652455
0.00119187
0.000650849
0.00118679
0.000648491
0.00117636
0.000648352
0.00116014
0.000643796
0.0011388
0.000639966
0.00111317
0.000635103
0.00108721
0.000636388
0.00106101
0.000641012
0.00103418
0.000654322
0.00100682
0.000654176
0.000975109
0.000630197
0.000940986
0.000602625
0.000896351
0.000583962
0.000839374
0.000570854
0.00079453
0.000562782
0.000762176
0.000557407
0.00073505
0.000555015
0.000714733
0.000555306
0.000700849
0.000556793
0.000691396
0.000559274
0.000683924
0.000562582
0.000676668
0.000566595
0.00066977
0.000571102
0.000663625
0.000575831
0.000658447
0.000580751
0.000654193
0.000585715
0.000650951
0.000590643
0.000648569
0.000595189
0.000646646
0.000599854
0.000645323
0.000604606
0.000644576
0.000609696
0.000644606
0.000615006
0.000645676
0.000620846
0.000648138
0.00062649
0.000651864
0.000632775
0.000657027
0.000638317
0.000662896
0.000644351
0.000670112
0.000650297
0.000678245
0.000656355
0.000687019
0.000663256
0.000696273
0.000670306
0.000705741
0.000678266
0.000715775
0.000688103
0.000726065
0.000693479
0.000736469
0.000698313
0.000745838
0.00358117
0.00357113
0.00125355
0.00356889
0.00125192
0.00354637
0.00126542
0.00349715
0.00128754
0.00344823
0.00131213
0.00340394
0.00131099
0.00335852
0.00130974
0.00333452
0.00130706
0.00328895
0.00129349
0.00317104
0.00127496
0.00306181
0.00125914
0.00298178
0.00126422
0.002921
0.00127724
0.00286809
0.00129909
0.0028383
0.00132428
0.00274046
0.00135897
0.00262274
0.00140264
0.00251593
0.00143529
0.00242294
0.00144675
0.00234702
0.0014434
0.00228118
0.00143895
0.00222282
0.00142686
0.00214542
0.00141037
0.00202495
0.00138959
0.00191617
0.00137874
0.00182381
0.00137893
0.00174156
0.00138848
0.00166675
0.0014006
0.00159942
0.00141771
0.00153711
0.00144038
0.00147861
0.00145976
0.00140773
0.00147818
0.00133493
0.00149228
0.00126494
0.00150152
0.00119825
0.00150569
0.00113452
0.00150605
0.00107628
0.00150684
0.00101944
0.00150686
0.000964848
0.00150562
0.000912162
0.00150518
0.000861173
0.00150187
0.000812728
0.00149887
0.000765061
0.00149679
0.000718977
0.00149274
0.000733046
0.00148532
0.000732438
0.00148782
0.000650682
0.0014883
0.000531798
0.000908456
0.000526287
0.000824805
0.000531273
0.000830161
0.000552783
0.000859015
0.000570785
0.000901079
0.000586461
0.000936734
0.000593628
0.000968093
0.000601386
0.00100762
0.000608646
0.0010395
0.000615356
0.00106392
0.000623658
0.00108867
0.000630325
0.00111413
0.000637144
0.00113745
0.000642273
0.00116492
0.00064619
0.00118511
0.000649032
0.00120547
0.000651358
0.00122302
0.000652494
0.00123975
0.000654499
0.00125588
0.000656686
0.00127155
0.000658522
0.00128257
0.000659993
0.00129308
0.000660509
0.00130172
0.000660579
0.00130777
0.000660274
0.0013111
0.000659073
0.00131247
0.000661267
0.00130971
0.00066133
0.00130185
0.000659911
0.00128655
0.000655852
0.00126616
0.000653612
0.00123449
0.000649192
0.00119976
0.000651754
0.00115811
0.000656275
0.00111439
0.000669925
0.00107617
0.000676051
0.00103758
0.000677056
0.000998741
0.000655729
0.000958308
0.000628277
0.000909697
0.00060368
0.000858321
0.000589321
0.000815976
0.000577099
0.000782047
0.00056933
0.000755643
0.000565458
0.000737557
0.000565301
0.000724529
0.000567384
0.000713906
0.000569997
0.000705114
0.000573266
0.000697049
0.000577295
0.000690115
0.000581598
0.000683689
0.000585942
0.00067806
0.000590302
0.000673494
0.000595036
0.00066991
0.000599273
0.000667111
0.000603571
0.000664904
0.000607877
0.000663015
0.000612742
0.000661822
0.000617839
0.000661654
0.000623867
0.000662749
0.000629585
0.000665156
0.000636611
0.000668947
0.000642198
0.000673599
0.000648917
0.000679306
0.000655206
0.000685789
0.000662558
0.000692857
0.000670702
0.000700594
0.000680064
0.000708647
0.000689527
0.000717685
0.000702266
0.000727411
0.000708459
0.000738318
0.000715664
0.000747154
0.00356997
0.00357619
0.00126774
0.00356819
0.00128431
0.00353434
0.00127838
0.00345142
0.00126178
0.0033712
0.00123973
0.00332583
0.00125068
0.00329531
0.00126575
0.00329085
0.00128996
0.00328336
0.00132538
0.00316256
0.00137113
0.00304721
0.00141443
0.00297375
0.00142688
0.00292576
0.00142909
0.00288223
0.00142522
0.0028498
0.00141456
0.00272393
0.00139366
0.00256808
0.00136091
0.0024292
0.00133513
0.00233485
0.00134101
0.00226289
0.00136103
0.00221148
0.00139067
0.00217465
0.00143439
0.00213076
0.00148246
0.00201423
0.00153488
0.00190292
0.00157474
0.00180878
0.00159552
0.00173596
0.00160192
0.00166738
0.00159541
0.00160575
0.0015908
0.00154503
0.00158174
0.00148575
0.00156923
0.00140851
0.00155611
0.00132873
0.00155128
0.00125444
0.0015511
0.00118574
0.00155344
0.00112276
0.00155792
0.00106512
0.0015646
0.00101076
0.00157422
0.000956836
0.00158182
0.000905103
0.00158636
0.000856114
0.00158964
0.000808658
0.00159118
0.000762902
0.00159027
0.000719436
0.00158833
0.000742259
0.00158539
0.000727271
0.00159085
0.00065513
0.00160704
0.000545057
0.00108734
0.000523168
0.000940445
0.000552418
0.000939585
0.000579504
0.000970247
0.000591431
0.00101507
0.000600631
0.00105301
0.000613784
0.00108788
0.000626438
0.00112015
0.000636612
0.00115242
0.000642985
0.0011795
0.000647354
0.001205
0.000652237
0.00122737
0.000657789
0.00124803
0.000663847
0.00126644
0.000668373
0.00128699
0.000672243
0.00130527
0.000676479
0.00132377
0.00068017
0.00133951
0.000682761
0.00135156
0.000685849
0.0013616
0.000689425
0.00137089
0.000693125
0.00137931
0.000696405
0.00138747
0.000698383
0.00139347
0.000699026
0.0013971
0.000701579
0.00139821
0.000709909
0.00139808
0.000716361
0.0013945
0.000723726
0.00138594
0.000720619
0.00137499
0.000721731
0.00134658
0.000712904
0.00131753
0.000714469
0.00127222
0.000709225
0.0012274
0.000722754
0.00118795
0.00072138
0.00115107
0.000721826
0.00111109
0.000708792
0.00107012
0.000684607
0.00102245
0.00065055
0.000965988
0.000626308
0.000900661
0.000605253
0.000847548
0.000590039
0.000806467
0.00058059
0.000778069
0.000577514
0.000759614
0.000577171
0.000746433
0.000578266
0.000736731
0.000580476
0.000728264
0.000584144
0.000720081
0.000588093
0.000712471
0.000591963
0.000705242
0.000595848
0.000698713
0.000600204
0.00069303
0.000604133
0.000688244
0.000608333
0.000684278
0.000612209
0.00068087
0.000616678
0.00067833
0.000621333
0.000676623
0.000627237
0.000676365
0.000632922
0.000677208
0.000640673
0.000679504
0.000646509
0.00068297
0.000653993
0.000687349
0.00066097
0.000692764
0.000669792
0.000698883
0.000679444
0.000705943
0.00069104
0.000713686
0.000701748
0.000722353
0.000716111
0.000731385
0.000723621
0.000741624
0.000733123
0.000749535
0.00356158
0.00357257
0.00127768
0.00356187
0.0012764
0.00353273
0.00130141
0.00345131
0.00133761
0.00337197
0.00138286
0.0033234
0.00139054
0.00330221
0.00139376
0.00330548
0.00138986
0.00330417
0.00137615
0.00315391
0.00134613
0.0030168
0.0013155
0.00293114
0.00132389
0.00287529
0.00134777
0.00283209
0.00137819
0.00281017
0.00142372
0.00271058
0.00148355
0.00255629
0.00155689
0.00242083
0.0016163
0.00232299
0.00163744
0.00226119
0.00163249
0.00222486
0.00162708
0.00219753
0.00160845
0.00215729
0.00157756
0.00202144
0.00154154
0.0018995
0.00151677
0.00180215
0.00151269
0.00171792
0.00152723
0.00164881
0.00154692
0.00158766
0.00157731
0.00152832
0.00160894
0.0014723
0.00164387
0.00139695
0.00167916
0.00132042
0.0017034
0.00124898
0.00172039
0.00118152
0.00173248
0.0011196
0.00173562
0.00106312
0.00173853
0.00101013
0.00173943
0.000957002
0.00173746
0.000905217
0.00173397
0.00085522
0.0017319
0.000808146
0.00173049
0.000763032
0.0017298
0.000720194
0.00173119
0.000748593
0.00173501
0.000728867
0.00174981
0.000742034
0.00178636
0.000608258
0.00150617
0.000552314
0.0010933
0.000601133
0.0010841
0.000626955
0.00110907
0.000639091
0.00114777
0.000647729
0.00118452
0.000659202
0.0012192
0.000666303
0.00124744
0.000670082
0.00127785
0.000672873
0.00130691
0.000676939
0.00133057
0.000679344
0.00135156
0.0006832
0.00137194
0.00068464
0.00139081
0.000685995
0.00140809
0.000688246
0.00142367
0.000691626
0.00143769
0.0006944
0.00144939
0.00069555
0.00145973
0.00069648
0.00146813
0.000697439
0.00147472
0.000698217
0.00148018
0.000699638
0.00148444
0.000700184
0.00148898
0.000699591
0.00149137
0.000705092
0.00149093
0.000717362
0.00148728
0.000726578
0.00148209
0.000742282
0.00147219
0.000746624
0.00146335
0.000758774
0.00143751
0.000756502
0.00141559
0.000768107
0.00137541
0.000767414
0.00134275
0.000786563
0.00130326
0.000790729
0.00127845
0.000788516
0.00124467
0.000779601
0.00120026
0.000759126
0.00114983
0.000724429
0.00109074
0.000685747
0.00101891
0.000648625
0.000944357
0.000620146
0.000879294
0.000600697
0.000834622
0.000592149
0.000807003
0.000588764
0.000788804
0.000588322
0.000774413
0.00058988
0.000762978
0.000592857
0.000752081
0.000596229
0.000741752
0.000599429
0.000732083
0.000602539
0.000723282
0.000606336
0.000715515
0.000609831
0.000708614
0.000613898
0.000702733
0.000617296
0.000697739
0.000621423
0.00069383
0.000625585
0.000690639
0.000631572
0.000688463
0.000637065
0.000687815
0.000644911
0.000688484
0.000650992
0.00069028
0.000659309
0.000693125
0.000667253
0.00069725
0.000677582
0.000702103
0.000688669
0.000708277
0.000702513
0.000715366
0.000714671
0.000724103
0.000730395
0.000733233
0.000739297
0.000743758
0.000751134
0.000751391
0.00353361
0.00356522
0.00128731
0.00357015
0.00132022
0.00355454
0.00131962
0.00345548
0.00130547
0.00335411
0.00127475
0.00329842
0.0012899
0.00326501
0.0013137
0.00325713
0.0013469
0.0032778
0.00139669
0.00312316
0.0014638
0.00298084
0.00153316
0.00291008
0.00155571
0.00287687
0.00156258
0.00285302
0.00156044
0.002849
0.00154594
0.00275145
0.00152442
0.0025761
0.00148096
0.00241847
0.00143767
0.00231218
0.00144136
0.00223672
0.00146745
0.00219288
0.0015064
0.00215499
0.00156625
0.00212434
0.00163164
0.00199239
0.00170638
0.00187116
0.00177441
0.00177156
0.00181428
0.00170033
0.00182363
0.00164427
0.0018163
0.00159358
0.00181
0.0015412
0.00180151
0.00149046
0.00178767
0.00142426
0.00176837
0.00134385
0.00175866
0.00126499
0.0017543
0.00119577
0.00175444
0.00113021
0.00176555
0.00107178
0.00177594
0.00101562
0.00178617
0.000961863
0.00179745
0.000910314
0.00180817
0.000861119
0.00181799
0.000814024
0.001825
0.000770446
0.00183046
0.000728474
0.00183379
0.000768925
0.00183559
0.000757006
0.00184306
0.000788507
0.00185581
0.000653281
0.00174799
0.000591839
0.0011831
0.000642433
0.00118811
0.000667397
0.00122779
0.000676742
0.00127699
0.000686279
0.00131599
0.000696297
0.00135077
0.000700716
0.0013753
0.000706915
0.00140232
0.000709199
0.00143026
0.000710277
0.0014498
0.000708487
0.00146475
0.000710395
0.00148161
0.000710253
0.00149748
0.000711968
0.0015092
0.000712481
0.00152107
0.000713994
0.00153134
0.000713451
0.00154037
0.000714194
0.00154926
0.000714026
0.00155766
0.000714744
0.00156349
0.000714295
0.00156897
0.000714599
0.00157221
0.000714054
0.00157509
0.000712269
0.0015758
0.000719248
0.00157451
0.000730917
0.00157149
0.000740051
0.00156814
0.000757776
0.00156043
0.000765938
0.0015524
0.000783984
0.00153281
0.000789992
0.00151173
0.000808191
0.00147507
0.000820978
0.00144532
0.000833234
0.00141467
0.000851958
0.00139533
0.000855174
0.00137461
0.000851764
0.00133353
0.000838304
0.00128914
0.000810331
0.00123591
0.000773115
0.00116869
0.000717123
0.00108964
0.000668893
0.00100153
0.000633165
0.000920169
0.000614663
0.000870245
0.000605966
0.000838405
0.00060157
0.000816996
0.000601283
0.000801606
0.000603467
0.000788478
0.000606024
0.000775146
0.000608372
0.000762326
0.000610444
0.000750209
0.000613457
0.000739658
0.000616431
0.000730437
0.000620336
0.000722486
0.000623558
0.000715479
0.000627716
0.000709846
0.000631294
0.000705149
0.000636649
0.00070138
0.000641756
0.000699415
0.000649665
0.000698827
0.000656127
0.000699248
0.00066545
0.000700781
0.000674487
0.000703873
0.000686246
0.000707746
0.000698507
0.000713353
0.000713992
0.000719874
0.000727409
0.000728401
0.000744311
0.000737443
0.000755166
0.000747643
0.000768799
0.00075451
0.00354394
0.00358285
0.0013184
0.00356545
0.0013122
0.00353525
0.00133883
0.00342227
0.00138299
0.00332103
0.00144904
0.00328829
0.00146867
0.00327098
0.00148114
0.00328581
0.00148178
0.00333219
0.00146943
0.00317925
0.00144011
0.00302638
0.00140082
0.0029317
0.00140964
0.00288064
0.00144129
0.00284061
0.00147712
0.00282242
0.00153542
0.00270975
0.0016095
0.00252435
0.00170112
0.00237175
0.0017888
0.00227413
0.00182478
0.00222684
0.00182557
0.00220184
0.00182162
0.00218421
0.00180381
0.00217191
0.00176635
0.00206056
0.00173141
0.00193424
0.00169828
0.00182642
0.00168922
0.00173512
0.00170021
0.0016653
0.00172307
0.00159982
0.00175686
0.00154069
0.00179514
0.00148336
0.00183966
0.00141378
0.00188298
0.00133243
0.00191677
0.00125496
0.00194329
0.00118748
0.00196038
0.00112812
0.00197244
0.00106879
0.00197905
0.00101455
0.00197853
0.000962117
0.00197719
0.000911744
0.0019748
0.000862713
0.001972
0.000815238
0.00196847
0.000769131
0.00196493
0.000726814
0.00196133
0.000778059
0.00195479
0.000771697
0.00196363
0.000731009
0.00196714
0.000666988
0.00196439
0.00062342
0.00132257
0.000691289
0.00133544
0.000719198
0.00140294
0.000729648
0.00143748
0.000734548
0.00146608
0.000734475
0.00148597
0.000729429
0.00149858
0.000733504
0.00151738
0.000730424
0.00153495
0.000729331
0.00154922
0.000724854
0.00156421
0.000725601
0.00157708
0.000722676
0.00159169
0.000723359
0.00160053
0.000721944
0.0016112
0.000722126
0.00161821
0.000720243
0.00162661
0.000720323
0.00163318
0.000718553
0.00164118
0.000719315
0.00164594
0.00071828
0.00165074
0.000718182
0.0016518
0.000715892
0.00165385
0.000715838
0.00165063
0.000724802
0.00164871
0.000737251
0.00164582
0.000750268
0.00163968
0.000770199
0.00163894
0.000785929
0.00162458
0.000802821
0.00161684
0.000822514
0.0015797
0.000841468
0.00155445
0.000865447
0.00152959
0.000874105
0.00150577
0.000899728
0.00148246
0.000909651
0.00146852
0.000910723
0.00143212
0.000905147
0.00140109
0.000886127
0.00136144
0.000861425
0.00130572
0.000812449
0.0012394
0.000752989
0.00115218
0.0006874
0.00104983
0.000649454
0.00096121
0.000629999
0.000905729
0.00061896
0.000872469
0.000616184
0.000850474
0.000618095
0.000831058
0.000619485
0.000812199
0.000620344
0.000794849
0.000620308
0.000778481
0.000622005
0.000764872
0.000623971
0.000752738
0.000627648
0.000742342
0.000630541
0.000732902
0.000634541
0.000725122
0.000637507
0.000718734
0.00064241
0.00071332
0.000646926
0.000709558
0.000655035
0.000707281
0.000661969
0.000705918
0.000672293
0.000705889
0.000682576
0.000707513
0.000695559
0.000710499
0.000708957
0.000715514
0.000725564
0.000721684
0.000739943
0.000730086
0.000758587
0.000739251
0.000771365
0.000749809
0.000786773
0.0007576
0.00350321
0.00357275
0.00130738
0.00357679
0.00136213
0.00359192
0.00137423
0.00349628
0.00137002
0.00338032
0.0013362
0.0033147
0.00135143
0.00328488
0.00137949
0.0032767
0.00141922
0.00329577
0.00147729
0.00311872
0.00155624
0.00296516
0.00164582
0.00290067
0.00168123
0.0028755
0.00169813
0.00285732
0.00170027
0.00286085
0.00168942
0.00280699
0.00167311
0.00263507
0.00163304
0.00247535
0.00158632
0.00235894
0.0015879
0.00227471
0.001615
0.00222641
0.00165719
0.0021751
0.00171998
0.00214025
0.00178642
0.00202244
0.00187081
0.00188836
0.00195695
0.00178899
0.00200819
0.00171226
0.00202849
0.00165588
0.00203286
0.00160008
0.00203067
0.00155018
0.00202643
0.00150034
0.00201404
0.00144707
0.00199659
0.00136698
0.00198469
0.00129105
0.00198011
0.00121737
0.00198244
0.00115095
0.0019889
0.00109013
0.00200212
0.00103069
0.00201483
0.000975521
0.00202779
0.000922789
0.00204207
0.000873043
0.00205652
0.000824622
0.00206961
0.000777706
0.0020814
0.000733741
0.00209267
0.000788553
0.00210408
0.000791413
0.00212543
0.000785325
0.0021423
0.000640821
0.00219573
0.000707227
0.00177716
0.000743733
0.00147377
0.000755107
0.00153163
0.000761807
0.00156069
0.000762131
0.00158253
0.00075895
0.00159803
0.000753407
0.00161107
0.000752233
0.00162158
0.000744304
0.00163024
0.000743581
0.00164204
0.000736943
0.00165631
0.000737233
0.00166959
0.000732897
0.0016818
0.000733161
0.00169045
0.00073021
0.0016999
0.000729818
0.00170501
0.000727768
0.00171144
0.000727913
0.00171631
0.000726728
0.00172203
0.000727158
0.00172519
0.000725216
0.00172701
0.000724784
0.00172635
0.000721875
0.00172614
0.000723541
0.00172217
0.00073431
0.00171872
0.000745529
0.00171431
0.000762381
0.00170755
0.000778371
0.00170389
0.000802662
0.00169016
0.000816007
0.00168745
0.000844941
0.00164494
0.000859533
0.00161552
0.000891517
0.00159217
0.000901387
0.0015709
0.000930223
0.00154297
0.000935389
0.00152484
0.00093946
0.00149461
0.000943447
0.00146466
0.000934907
0.00142847
0.000924109
0.00138651
0.000892629
0.00133901
0.000843031
0.00126912
0.000766321
0.00116899
0.00070218
0.00105574
0.000662781
0.000976811
0.000641913
0.000929656
0.000636871
0.000897061
0.000637644
0.000871914
0.000637885
0.000849988
0.000636364
0.00083081
0.00063321
0.000813264
0.000633053
0.00079553
0.000633549
0.000778985
0.000636573
0.000765351
0.000638898
0.00075306
0.000642459
0.000742703
0.00064456
0.000734091
0.000649059
0.000726836
0.000652927
0.000721055
0.000661195
0.000717254
0.000668673
0.000714485
0.00067994
0.000713152
0.000691264
0.000713703
0.00070538
0.000716115
0.000719622
0.000720703
0.000737117
0.000726551
0.000752292
0.000734735
0.000772637
0.000743868
0.00078645
0.000754343
0.000804541
0.000763413
0.00352926
0.00361126
0.00137157
0.00358277
0.00135764
0.003574
0.00138765
0.00345055
0.0014318
0.00333011
0.00151075
0.00329726
0.00154256
0.00328704
0.00156369
0.0033014
0.0015719
0.00334914
0.0015675
0.0032318
0.00154937
0.00308529
0.0015158
0.00298216
0.00152393
0.00292855
0.00155851
0.0028787
0.00159876
0.00285103
0.00165577
0.00277654
0.00173248
0.00257526
0.00182013
0.00240852
0.00192171
0.00231216
0.00197179
0.00225505
0.00198626
0.00222692
0.00198965
0.00219638
0.00198336
0.00217878
0.00195563
0.00210553
0.00192966
0.00198161
0.00189928
0.00187178
0.00188956
0.00177787
0.00189725
0.00169873
0.00192203
0.0016276
0.00195256
0.0015612
0.00198826
0.00149751
0.0020292
0.00143591
0.00207242
0.00135893
0.00211288
0.00128169
0.00214465
0.00121039
0.00216872
0.00114724
0.00218501
0.00108687
0.0021966
0.00102952
0.0022037
0.000976071
0.00220866
0.000924816
0.00220693
0.000875691
0.00220712
0.000827985
0.00220693
0.000781794
0.00220665
0.000737542
0.00220602
0.000804879
0.00220244
0.000812636
0.00221147
0.00085486
0.00221429
0.000862907
0.00223062
0.000733147
0.00156782
0.000757356
0.00152994
0.000765867
0.0015676
0.000773833
0.00161356
0.000775017
0.00164436
0.000773414
0.00167288
0.000770869
0.00169005
0.000764393
0.00169687
0.000759566
0.00171174
0.000758246
0.00172685
0.00075422
0.00173973
0.000753115
0.00175554
0.000749937
0.00176601
0.000749358
0.00177634
0.000746658
0.00178375
0.000744546
0.00179017
0.000742289
0.001795
0.000741184
0.00180304
0.000738878
0.00180611
0.000737845
0.00180681
0.00073571
0.00180552
0.000734375
0.0018071
0.000730838
0.00180575
0.000737085
0.00180259
0.000748868
0.00179875
0.000761251
0.00179603
0.000780631
0.00178871
0.000797066
0.00178867
0.000824577
0.00177196
0.000841644
0.00175575
0.00087616
0.00171036
0.000890087
0.00168641
0.000921977
0.00166051
0.000935621
0.0016392
0.000958098
0.00160602
0.000972635
0.00159469
0.000982432
0.0015735
0.000988425
0.00155007
0.000982205
0.0015237
0.000980797
0.00148619
0.000958455
0.0014441
0.000919449
0.0013808
0.00084973
0.00129103
0.000763924
0.00117892
0.000702179
0.0010682
0.000671962
0.000998988
0.000662498
0.000953139
0.000660471
0.000921092
0.000658435
0.000894198
0.000655515
0.000870012
0.000650702
0.000848321
0.00064839
0.000827352
0.000646274
0.000805803
0.000647715
0.000787476
0.000649112
0.000772234
0.000651959
0.000760243
0.000652845
0.000749727
0.000656875
0.000740276
0.000660004
0.000731423
0.000668222
0.000724619
0.000676161
0.000719156
0.000688375
0.000716524
0.000700351
0.000716018
0.000715424
0.00071793
0.000730476
0.000722275
0.000748696
0.000728563
0.000764468
0.000737161
0.000786144
0.000746747
0.000800508
0.000757858
0.00082453
0.00076676
0.00350375
0.00359871
0.00133118
0.00359466
0.00141065
0.00360893
0.00143626
0.00355336
0.00144757
0.00344107
0.00141923
0.00337379
0.00143409
0.00334313
0.00146704
0.00332835
0.00150783
0.00332768
0.00156925
0.00318703
0.00164606
0.00303022
0.00173771
0.00294924
0.00178696
0.00291825
0.00181251
0.00288818
0.00182368
0.00288146
0.00182847
0.00285859
0.00181867
0.00270935
0.00179836
0.00255904
0.00176596
0.00244271
0.00176916
0.00235036
0.00178958
0.00228969
0.00183588
0.00221932
0.00188978
0.0021683
0.00195021
0.00208392
0.00202818
0.00195069
0.00210613
0.00184216
0.00216574
0.00175648
0.00220177
0.00168757
0.00222038
0.00162489
0.00222512
0.00156609
0.00223041
0.00150944
0.00222975
0.0014524
0.00222161
0.00138912
0.0022165
0.00131393
0.00221495
0.00124032
0.00221606
0.00117143
0.00222029
0.00110821
0.0022298
0.00104718
0.00224593
0.000988254
0.00225827
0.000932466
0.00226908
0.000879313
0.00228018
0.000828457
0.00229081
0.000779877
0.00229855
0.000732936
0.00230452
0.00080687
0.00230694
0.00081824
0.00231209
0.000891153
0.00231073
0.00090325
0.00230049
0.000795495
0.00169297
0.000768016
0.00162755
0.000771014
0.0016376
0.000782433
0.00169044
0.000787395
0.00172723
0.00078887
0.00175925
0.000785784
0.00177862
0.000776375
0.00178491
0.000776111
0.001798
0.000768583
0.00181085
0.000768785
0.00182139
0.000762789
0.00184074
0.000762597
0.00184829
0.000758573
0.00185665
0.000756999
0.00186126
0.000753467
0.00186824
0.000751717
0.00187355
0.000749323
0.0018776
0.000747674
0.00188039
0.000745905
0.00188322
0.000744957
0.00188208
0.000743119
0.00187967
0.000742724
0.00187937
0.000754503
0.00187935
0.000766765
0.00187643
0.000783009
0.00187036
0.000801185
0.00186996
0.000826464
0.00186233
0.000849031
0.00186217
0.000873501
0.00181935
0.000901506
0.00178486
0.000925633
0.00176069
0.00095092
0.0017403
0.000970781
0.00171784
0.000984495
0.00169693
0.00100952
0.00167591
0.00101808
0.00165836
0.00102933
0.00163842
0.00102849
0.00161163
0.00102936
0.00157924
0.00101511
0.00154013
0.000983615
0.00148241
0.000925328
0.00140334
0.000834439
0.00129543
0.000759684
0.00116157
0.000712685
0.00107471
0.000693828
0.00101461
0.000685413
0.000967222
0.000680024
0.000931128
0.000675137
0.000899759
0.000668506
0.000872624
0.000664675
0.000848541
0.000660394
0.000825286
0.000660071
0.000804582
0.00065977
0.0007873
0.000661462
0.000773105
0.000661783
0.000760424
0.000665879
0.000749541
0.000668048
0.00073974
0.000676022
0.000732078
0.000683975
0.000725776
0.000696897
0.000722231
0.000709292
0.00072102
0.000725241
0.000722333
0.000740478
0.000726158
0.000759506
0.000732467
0.000776089
0.00074087
0.000798848
0.000750482
0.000814426
0.000761592
0.000844581
0.000769827
0.00351766
0.00365388
0.00142474
0.00361233
0.00141022
0.00360397
0.00144137
0.00352152
0.00148741
0.00339841
0.00156534
0.00335574
0.00160807
0.00334334
0.00163794
0.00334636
0.00165705
0.00337145
0.00166624
0.00329167
0.0016632
0.00316118
0.00164711
0.0030587
0.00165415
0.00299456
0.00169054
0.00293488
0.00173444
0.00288671
0.00178515
0.00284367
0.00185183
0.00267323
0.00193344
0.00251763
0.00202253
0.00240478
0.0020809
0.00233073
0.00211054
0.00228549
0.00213098
0.00223187
0.00213682
0.00219526
0.00213091
0.00214675
0.0021224
0.00203179
0.00210944
0.00192502
0.00210404
0.00182856
0.00211393
0.00174087
0.00213331
0.00166397
0.00215972
0.00159029
0.00219323
0.00151851
0.00222756
0.00145286
0.00226433
0.0013871
0.00230313
0.00131115
0.00233526
0.00123758
0.00236137
0.00116884
0.00238281
0.00110791
0.00240003
0.00104728
0.00241363
0.00098924
0.00242372
0.000934114
0.00243018
0.000881317
0.0024329
0.000830606
0.00243686
0.000781915
0.00244039
0.000734939
0.00244275
0.00081419
0.00244596
0.000831847
0.00245151
0.000933836
0.00246491
0.000973454
0.00241505
0.000881686
0.00193147
0.000809349
0.00182138
0.000793099
0.00179979
0.000801264
0.00181551
0.000798468
0.00182688
0.000801619
0.00184498
0.000794055
0.00186108
0.000784963
0.00187106
0.000782205
0.00188584
0.000773685
0.00188574
0.000774748
0.00189375
0.000768215
0.00191874
0.000766923
0.00192652
0.000762787
0.00192945
0.000760423
0.00193133
0.000757546
0.00193975
0.00075368
0.00194348
0.000751732
0.00194807
0.000749989
0.00194986
0.000748641
0.00195184
0.000746452
0.00194959
0.00074478
0.00194766
0.000749487
0.0019439
0.000763299
0.00194439
0.000776308
0.001939
0.000795471
0.00193461
0.000814954
0.00193335
0.000846658
0.00192817
0.000872746
0.00192904
0.000909006
0.0018863
0.000931405
0.00185266
0.000961617
0.00182495
0.000983848
0.00179796
0.0010079
0.00178936
0.00101915
0.00177105
0.00104057
0.00174614
0.00104926
0.00172153
0.00106333
0.00170094
0.00106498
0.00167779
0.00107071
0.00164766
0.00106101
0.00160955
0.00103668
0.00154976
0.000987189
0.0014737
0.000905357
0.00136918
0.000816557
0.00123886
0.000756891
0.00113099
0.000729819
0.00106312
0.000714251
0.00101101
0.000703503
0.000970583
0.00069564
0.000934354
0.00068662
0.000900754
0.000681085
0.00087277
0.00067545
0.000846327
0.000673412
0.000822418
0.000671384
0.000802048
0.000672216
0.000785379
0.000671573
0.000770877
0.000675418
0.000758895
0.000677378
0.000747896
0.00068547
0.000739481
0.000693337
0.000732283
0.000706351
0.000727969
0.000718812
0.000726284
0.000735014
0.00072766
0.00074996
0.00073164
0.00077003
0.000737865
0.000787505
0.000746002
0.000811296
0.000755321
0.000828364
0.000765926
0.000863869
0.000773394
0.00353992
0.00365067
0.00137454
0.00362594
0.00147072
0.0036337
0.00150391
0.0036133
0.00153152
0.00352327
0.0015161
0.00345927
0.00153228
0.00342084
0.00157082
0.00339341
0.00161252
0.00337378
0.001669
0.00327069
0.00174029
0.00312606
0.0018178
0.00303432
0.00187627
0.00298664
0.00191041
0.00294084
0.00193611
0.00290821
0.00195573
0.00288873
0.00195989
0.00277458
0.00196121
0.00264633
0.00195313
0.00253296
0.00196004
0.0024372
0.001984
0.00236054
0.00202894
0.00227478
0.0020739
0.00220502
0.00212259
0.00213827
0.00218387
0.00201985
0.00225029
0.0019103
0.00230633
0.00181693
0.00234708
0.00173466
0.00237611
0.0016629
0.00239476
0.00159372
0.00241176
0.00152651
0.00242501
0.00146452
0.00243101
0.001401
0.00243708
0.0013346
0.00244261
0.00126259
0.0024483
0.00119329
0.00245581
0.0011275
0.00246473
0.00106407
0.00247829
0.00100329
0.00249043
0.000944718
0.00250103