/*--------------------------------*- C++ -*----------------------------------*\
| =========                 |                                                 |
| \\      /  F ield         | OpenFOAM: The Open Source CFD Toolbox           |
|  \\    /   O peration     | Version:  2.2.x                                 |
|   \\  /    A nd           | Web:      www.OpenFOAM.org                      |
|    \\/     M anipulation  |                                                 |
\*---------------------------------------------------------------------------*/
FoamFile
{
    version     2.0;
    format      ascii;
    class       volScalarField;
    location    "0.85";
    object      p;
}
// * * * * * * * * * * * * * * * * * * * * * * * * * * * * * * * * * * * * * //

dimensions      [1 -1 -2 0 0 0 0];

internalField   nonuniform List<scalar> 
14161
(
0.200792
0.201952
0.200852
0.198083
0.195763
0.194581
0.195729
0.196301
0.198046
0.200765
0.20213
0.204208
0.2035
0.202013
0.199804
0.196203
0.192945
0.187689
0.185669
0.184678
0.185099
0.187036
0.188941
0.189976
0.192707
0.193799
0.191991
0.190313
0.188629
0.186731
0.184388
0.183341
0.182346
0.181351
0.180592
0.180529
0.180887
0.180944
0.180752
0.181371
0.181916
0.182152
0.181353
0.178374
0.172076
0.163858
0.148626
0.228327
1.21937
1.36355
1.46271
1.51433
1.54767
1.55261
1.53832
1.51953
1.49654
1.47275
1.45578
1.432
1.40619
1.3774
1.35058
1.33156
1.3175
1.30831
1.29975
1.2902
1.27933
1.26674
1.25425
1.24207
1.23079
1.22256
1.21731
1.22005
1.2309
1.2499
1.2685
1.28974
1.31287
1.36388
1.44432
1.56021
1.68785
1.78001
1.83826
1.8784
1.9031
1.9201
1.93415
1.94628
1.95158
1.95315
1.95307
1.9531
1.95383
1.95563
1.95866
1.96208
1.9648
1.96692
1.96733
1.96688
1.96552
1.96433
1.96431
1.96612
1.96719
1.97065
1.97265
1.97496
1.97607
1.97757
1.97747
1.97984
1.97763
1.99014
1.9944
0.198481
0.195966
0.199868
0.205845
0.211786
0.209249
0.204295
0.20016
0.194748
0.18838
0.182547
0.183828
0.188708
0.192842
0.200515
0.205468
0.211823
0.215891
0.211499
0.204419
0.196707
0.18982
0.183421
0.176055
0.171362
0.171226
0.174253
0.177513
0.181623
0.186021
0.190472
0.193069
0.194549
0.194499
0.192722
0.191128
0.189478
0.187187
0.185948
0.185383
0.185435
0.186186
0.18744
0.190375
0.19239
0.200221
0.198765
0.806079
1.44828
1.62964
1.66579
1.62095
1.58407
1.55201
1.50057
1.45486
1.4215
1.3967
1.38032
1.35457
1.33085
1.30693
1.28435
1.2682
1.25619
1.24778
1.24123
1.23389
1.22466
1.21558
1.21002
1.20922
1.21249
1.22141
1.23919
1.2658
1.30156
1.34709
1.39262
1.44101
1.48457
1.53549
1.58573
1.63842
1.68251
1.75927
1.81762
1.86693
1.89603
1.91674
1.93158
1.9428
1.94986
1.95203
1.95225
1.95232
1.95246
1.95335
1.95538
1.95843
1.96136
1.96379
1.96498
1.96528
1.96468
1.9643
1.96454
1.96608
1.96688
1.97088
1.97332
1.97634
1.97775
1.9796
1.9799
1.98268
1.98027
1.99132
1.99658
0.204841
0.206901
0.199164
0.189864
0.180421
0.183315
0.193492
0.198729
0.207374
0.216564
0.223161
0.217212
0.205531
0.197091
0.191432
0.183313
0.172
0.162604
0.163795
0.175177
0.18684
0.197101
0.207544
0.216777
0.221284
0.217219
0.209477
0.198929
0.193147
0.184792
0.178802
0.173968
0.171081
0.170618
0.172309
0.175874
0.179436
0.180508
0.182144
0.183357
0.184764
0.187184
0.188361
0.190051
0.193364
0.199914
0.189616
0.936049
1.53046
1.65977
1.68238
1.62502
1.55816
1.50748
1.48125
1.46768
1.42685
1.38075
1.33922
1.30691
1.28361
1.27015
1.24596
1.22146
1.20117
1.18382
1.17167
1.16112
1.14905
1.13715
1.12834
1.12303
1.11922
1.12478
1.13653
1.1611
1.18808
1.23735
1.28387
1.34908
1.41111
1.48415
1.53009
1.58268
1.62954
1.68922
1.74767
1.81326
1.8608
1.89197
1.91024
1.92422
1.93166
1.93779
1.94109
1.94259
1.94275
1.94282
1.94402
1.94653
1.94899
1.95181
1.95379
1.95503
1.95543
1.95656
1.95813
1.96072
1.96251
1.9671
1.96949
1.97203
1.97387
1.97643
1.97814
1.98014
1.97567
1.98575
1.9909
0.195104
0.190918
0.200628
0.21435
0.226393
0.221127
0.205397
0.197711
0.187768
0.176051
0.164463
0.166592
0.179482
0.189206
0.204339
0.217127
0.231347
0.240174
0.230921
0.214811
0.199955
0.183418
0.173288
0.161545
0.151774
0.15062
0.157468
0.167291
0.178557
0.186108
0.195608
0.203207
0.207492
0.207536
0.205382
0.201979
0.198381
0.193206
0.189763
0.187667
0.186809
0.186704
0.187803
0.189841
0.191619
0.196435
0.193824
0.76927
1.43927
1.61088
1.62887
1.56998
1.5188
1.47495
1.43723
1.39322
1.35737
1.3186
1.28319
1.25635
1.22944
1.20732
1.19058
1.1742
1.15827
1.14376
1.12836
1.11534
1.10402
1.09302
1.08443
1.07927
1.07517
1.07555
1.07675
1.09347
1.0976
1.14156
1.17271
1.24388
1.30017
1.37129
1.41085
1.46763
1.51811
1.5691
1.62908
1.71477
1.78968
1.84587
1.88155
1.90554
1.91972
1.92731
1.93119
1.9337
1.93463
1.93494
1.93657
1.93907
1.94127
1.94412
1.94672
1.9496
1.95201
1.95485
1.95773
1.96074
1.96314
1.96727
1.96915
1.97097
1.97273
1.97572
1.97681
1.97908
1.97423
1.9812
1.98774
0.207681
0.211848
0.201231
0.186124
0.169377
0.169587
0.185876
0.194687
0.20932
0.226294
0.239149
0.231583
0.2125
0.198754
0.190015
0.177199
0.159515
0.142143
0.140451
0.155893
0.177173
0.190284
0.211247
0.229098
0.240761
0.237511
0.225891
0.212254
0.198245
0.184878
0.175828
0.167644
0.161713
0.159826
0.161655
0.165094
0.168969
0.171957
0.175784
0.179561
0.182612
0.183929
0.184594
0.184264
0.181263
0.178451
0.172091
0.311228
1.36624
1.53496
1.55459
1.49054
1.43555
1.38776
1.34659
1.30482
1.2595
1.22876
1.19913
1.1777
1.15452
1.14128
1.12548
1.11281
1.09764
1.08567
1.07465
1.06609
1.05956
1.05469
1.05056
1.04981
1.04947
1.05524
1.05357
1.07205
1.06946
1.11344
1.12898
1.19671
1.234
1.29313
1.31995
1.34778
1.38993
1.42999
1.47994
1.56107
1.65513
1.75576
1.82458
1.86675
1.89261
1.90401
1.91087
1.9178
1.92206
1.92436
1.92701
1.93064
1.93365
1.9367
1.93972
1.94401
1.94876
1.95344
1.95732
1.96062
1.96364
1.96707
1.96898
1.97059
1.97234
1.97409
1.97386
1.97623
1.97026
1.97425
1.98168
0.193541
0.188706
0.201247
0.218587
0.235296
0.229127
0.207761
0.198527
0.186175
0.170916
0.153932
0.152596
0.168985
0.181118
0.199704
0.215939
0.236059
0.251343
0.243483
0.222953
0.203348
0.183531
0.17174
0.156484
0.141071
0.135794
0.138665
0.152815
0.165811
0.177136
0.187189
0.198203
0.205556
0.208217
0.206972
0.2032
0.198544
0.192828
0.188707
0.185858
0.182366
0.180332
0.179052
0.178313
0.178443
0.180044
0.184708
0.235472
1.27486
1.50263
1.48861
1.41012
1.356
1.31275
1.27767
1.2484
1.20183
1.17958
1.1576
1.14423
1.11804
1.10941
1.09049
1.08084
1.06818
1.06284
1.05302
1.05136
1.04269
1.03955
1.03295
1.03128
1.02755
1.03043
1.02628
1.03928
1.03621
1.07066
1.08218
1.14236
1.18399
1.21196
1.24401
1.23874
1.2709
1.3079
1.35094
1.41412
1.49338
1.59861
1.7145
1.801
1.85115
1.87361
1.88826
1.89969
1.90801
1.91267
1.91714
1.92231
1.92665
1.93049
1.93407
1.93918
1.94506
1.95078
1.95551
1.95898
1.96302
1.96559
1.96789
1.96912
1.97092
1.97141
1.97106
1.97261
1.96668
1.96849
1.97577
0.207912
0.214865
0.203869
0.186812
0.165259
0.160459
0.177503
0.187298
0.203211
0.223335
0.241694
0.237969
0.217419
0.200766
0.190348
0.176275
0.155106
0.131305
0.123097
0.137467
0.159239
0.171223
0.198133
0.218761
0.235058
0.237986
0.229561
0.215331
0.199304
0.187827
0.174962
0.164742
0.157399
0.153567
0.15229
0.153015
0.15691
0.161303
0.165937
0.170137
0.173903
0.17679
0.179904
0.181002
0.183852
0.1834
0.187412
0.211417
1.13117
1.48705
1.36404
1.30542
1.25618
1.22951
1.20539
1.19341
1.15453
1.14696
1.11777
1.1129
1.08517
1.08155
1.06275
1.0584
1.04535
1.04258
1.03295
1.03193
1.02442
1.0242
1.01605
1.01374
1.01153
1.00539
1.0134
1.00221
1.03217
1.02634
1.09449
1.12225
1.18039
1.18067
1.21634
1.20256
1.22814
1.25567
1.27942
1.3232
1.37766
1.4471
1.55517
1.67743
1.77379
1.81957
1.8482
1.86954
1.88177
1.8914
1.90167
1.91142
1.91916
1.92536
1.93066
1.93641
1.94253
1.94904
1.95461
1.9584
1.96402
1.96641
1.96923
1.96918
1.97034
1.96955
1.96821
1.96779
1.96169
1.95979
1.96985
0.194289
0.187632
0.200268
0.215295
0.234266
0.231933
0.211272
0.200005
0.188642
0.172881
0.152498
0.146058
0.160358
0.172983
0.190609
0.205807
0.226254
0.245465
0.244174
0.228003
0.207886
0.187773
0.177319
0.161796
0.143889
0.13359
0.132811
0.143609
0.155293
0.166459
0.175623
0.187543
0.195635
0.200197
0.200963
0.199018
0.194863
0.190929
0.186319
0.182936
0.178685
0.174811
0.172085
0.16919
0.166236
0.162377
0.158347
0.158114
0.370099
1.45791
1.34048
1.27517
1.22578
1.18608
1.16014
1.14306
1.11945
1.11182
1.08217
1.07513
1.05247
1.05071
1.03313
1.02943
1.01918
1.01586
1.0081
1.00638
1.00235
1.00174
0.993796
0.989554
0.987064
0.98259
0.991137
0.980206
1.01032
0.991474
1.066
1.08796
1.14376
1.13938
1.17691
1.16871
1.18458
1.19594
1.20995
1.24075
1.2663
1.31154
1.40778
1.53516
1.67861
1.76485
1.80671
1.83566
1.85416
1.86859
1.88289
1.89768
1.90921
1.9188
1.92704
1.9345
1.94062
1.94711
1.95345
1.95641
1.96357
1.966
1.96888
1.96836
1.9692
1.96779
1.96536
1.96291
1.95662
1.95019
1.96522
0.202744
0.214935
0.202922
0.188734
0.167238
0.158219
0.172547
0.182196
0.196015
0.213881
0.23256
0.235412
0.219886
0.20418
0.193992
0.181005
0.16311
0.139854
0.126834
0.136385
0.152902
0.161054
0.186722
0.203478
0.219148
0.226917
0.223076
0.214392
0.202256
0.192555
0.181566
0.172391
0.16471
0.158705
0.155328
0.155297
0.156281
0.158165
0.161818
0.165604
0.168827
0.171118
0.173444
0.173865
0.175974
0.175623
0.176956
0.199826
0.881816
1.36802
1.33272
1.26992
1.21036
1.16192
1.13632
1.11587
1.10767
1.07561
1.07013
1.04015
1.03554
1.01767
1.01075
0.999583
0.997405
0.985516
0.982426
0.977956
0.977482
0.970099
0.964584
0.960214
0.961653
0.953936
0.963627
0.949598
0.98239
0.979615
1.0661
1.06925
1.11802
1.11396
1.14143
1.15051
1.13837
1.14478
1.14038
1.15906
1.17601
1.21088
1.29061
1.39937
1.57
1.69047
1.75521
1.7952
1.82377
1.84502
1.86204
1.8814
1.8975
1.90979
1.91941
1.92926
1.93872
1.94571
1.95324
1.95677
1.96482
1.96565
1.96877
1.96744
1.96696
1.96279
1.95925
1.95533
1.94844
1.94025
1.95473
0.200647
0.186905
0.199316
0.20873
0.226433
0.229233
0.213857
0.203521
0.19452
0.181277
0.162903
0.153325
0.161033
0.173217
0.184242
0.198147
0.213286
0.229501
0.234947
0.226521
0.212022
0.195561
0.187603
0.173891
0.159343
0.147637
0.14367
0.148434
0.155404
0.162849
0.169212
0.179241
0.185087
0.18936
0.191808
0.192684
0.190805
0.18797
0.184461
0.182524
0.180667
0.178755
0.177467
0.176475
0.176924
0.179242
0.182768
0.211907
0.92719
1.29489
1.33954
1.28554
1.21402
1.17291
1.13634
1.11194
1.10343
1.07135
1.07055
1.03272
1.02657
1.0075
1.00237
0.990887
0.984702
0.97764
0.972767
0.967024
0.961091
0.957045
0.947594
0.941108
0.933444
0.938055
0.927824
0.940833
0.927276
0.99225
1.02419
1.08515
1.06957
1.09205
1.08279
1.10069
1.08776
1.09231
1.0889
1.10053
1.1125
1.14278
1.20275
1.28939
1.44598
1.59732
1.7066
1.76181
1.79757
1.82585
1.84368
1.86303
1.88204
1.89871
1.91158
1.92404
1.93308
1.93984
1.94699
1.95
1.9598
1.96217
1.96723
1.96603
1.9646
1.95763
1.95378
1.94862
1.94183
1.93194
1.9435
0.192508
0.213536
0.201227
0.192018
0.174427
0.165186
0.174861
0.183759
0.19345
0.205914
0.220468
0.227699
0.219364
0.208042
0.19942
0.189741
0.176345
0.159675
0.147427
0.150195
0.158111
0.165065
0.182641
0.192107
0.202476
0.210436
0.211888
0.208951
0.20181
0.194491
0.187787
0.181944
0.174608
0.169503
0.165885
0.163604
0.163118
0.162788
0.163292
0.164969
0.167232
0.168966
0.169853
0.170893
0.171473
0.171355
0.175778
0.203673
0.84031
1.09748
1.18331
1.22359
1.17226
1.1666
1.11672
1.11054
1.07802
1.06678
1.0654
1.01949
1.00706
0.994512
0.996216
0.980439
0.976524
0.966462
0.964286
0.954861
0.952292
0.947079
0.94496
0.935188
0.932959
0.932894
0.923624
0.93292
0.91905
0.984105
1.01387
1.05468
1.05435
1.06826
1.05061
1.05541
1.0541
1.05541
1.04992
1.05741
1.06298
1.09735
1.15199
1.23491
1.38224
1.53424
1.66234
1.74549
1.80199
1.83521
1.85019
1.86515
1.88497
1.90214
1.91429
1.92668
1.93534
1.94232
1.94958
1.95144
1.96084
1.96171
1.96644
1.96392
1.96081
1.9526
1.94824
1.94204
1.93567
1.92435
1.93309
0.206025
0.187438
0.195504
0.20252
0.21725
0.222284
0.213175
0.205935
0.199629
0.189632
0.176521
0.166841
0.169486
0.177863
0.183037
0.193724
0.202365
0.212716
0.219733
0.217367
0.209247
0.199086
0.193914
0.185293
0.174194
0.165689
0.160641
0.160504
0.162829
0.165573
0.16979
0.173632
0.177778
0.180402
0.182472
0.183656
0.183689
0.183161
0.181161
0.179963
0.178825
0.177614
0.176125
0.174847
0.172664
0.171382
0.184226
0.384897
0.898467
1.00269
1.09504
1.19363
1.18771
1.18647
1.1322
1.12002
1.08027
1.07719
1.04222
1.03726
1.00354
0.997713
0.988297
0.988584
0.975845
0.972426
0.961406
0.957279
0.954173
0.953689
0.944237
0.937277
0.932895
0.93505
0.924539
0.940057
0.939915
1.02839
1.01363
1.05487
1.0319
1.05017
1.03486
1.04007
1.03323
1.04052
1.04181
1.0541
1.06136
1.10082
1.16022
1.2497
1.38637
1.52639
1.64726
1.7216
1.77664
1.8225
1.85551
1.87764
1.89202
1.90699
1.92067
1.93524
1.94463
1.94914
1.95436
1.95371
1.96017
1.95947
1.96469
1.96119
1.95708
1.94728
1.94277
1.93543
1.92886
1.91634
1.92257
0.187333
0.21118
0.202924
0.195436
0.18463
0.177579
0.181674
0.187352
0.194348
0.201142
0.210323
0.217532
0.214721
0.208178
0.20234
0.196568
0.186782
0.177441
0.168551
0.166787
0.170305
0.173424
0.181406
0.186086
0.19139
0.19658
0.199398
0.199487
0.195881
0.191585
0.188089
0.184315
0.180837
0.176639
0.173475
0.17078
0.168763
0.167422
0.166513
0.166058
0.166254
0.166796
0.167818
0.168609
0.169166
0.170214
0.18538
0.65196
0.882599
0.942949
1.00835
1.14355
1.1721
1.21244
1.16452
1.1565
1.1037
1.09311
1.05383
1.05006
1.01281
1.00558
0.993399
0.9963
0.982785
0.978805
0.965819
0.963429
0.959334
0.958302
0.946759
0.941679
0.938634
0.950417
0.954255
1.00234
1.03575
1.10857
1.07633
1.10324
1.07883
1.09028
1.07336
1.08017
1.07315
1.08217
1.08506
1.10187
1.11848
1.16012
1.22531
1.3106
1.43441
1.55967
1.65856
1.7214
1.76639
1.80463
1.8362
1.86188
1.88156
1.90039
1.91316
1.92291
1.92988
1.93521
1.9434
1.94644
1.95619
1.95628
1.96204
1.95761
1.95267
1.94057
1.93617
1.928
1.92139
1.90796
1.91164
0.207689
0.189355
0.193862
0.198107
0.209596
0.213772
0.209126
0.204645
0.20177
0.194814
0.187373
0.180491
0.179831
0.183542
0.186875
0.19232
0.196107
0.201449
0.206265
0.205942
0.20294
0.197353
0.194297
0.189724
0.182958
0.178206
0.174008
0.172028
0.170904
0.171338
0.171921
0.173153
0.174985
0.175611
0.176349
0.176991
0.177422
0.17767
0.17702
0.176617
0.175985
0.174984
0.174128
0.174108
0.173307
0.175612
0.191314
0.80801
0.906083
0.938355
0.972701
1.05684
1.11959
1.21072
1.17471
1.17732
1.11187
1.09952
1.05609
1.05674
1.01888
1.01305
1.00241
1.00934
0.997082
0.992834
0.975735
0.977063
0.976814
0.981279
0.98471
0.991213
1.0351
1.09102
1.16237
1.25641
1.28066
1.30866
1.27598
1.27711
1.24957
1.24222
1.22463
1.22489
1.21703
1.22171
1.22209
1.2296
1.25099
1.2882
1.33514
1.38972
1.48344
1.58787
1.67707
1.73628
1.77464
1.80816
1.83593
1.85862
1.87737
1.89601
1.91074
1.92135
1.92893
1.93307
1.94074
1.94356
1.95356
1.9528
1.95891
1.95366
1.94798
1.93394
1.92939
1.9212
1.91379
1.8995
1.90132
0.187765
0.208116
0.204274
0.198449
0.193045
0.187961
0.18867
0.191203
0.195961
0.198706
0.203575
0.208213
0.208014
0.20477
0.201211
0.198683
0.192386
0.187767
0.182671
0.179584
0.179932
0.180312
0.182696
0.184689
0.186191
0.188156
0.189646
0.189735
0.188538
0.186728
0.184611
0.182415
0.180426
0.177985
0.175753
0.173441
0.171364
0.169398
0.167579
0.165796
0.164531
0.163271
0.162829
0.161397
0.159976
0.16553
0.208815
0.891303
0.949729
0.957697
0.968512
0.994903
1.04773
1.15011
1.15368
1.19775
1.13604
1.12935
1.08011
1.08131
1.04665
1.04391
1.03299
1.04625
1.04164
1.04588
1.03644
1.07184
1.12242
1.1857
1.26787
1.34503
1.42532
1.50193
1.55844
1.57034
1.5667
1.54986
1.51777
1.49846
1.47831
1.46095
1.44931
1.43726
1.42281
1.41572
1.40854
1.39543
1.39564
1.41649
1.43863
1.4854
1.55547
1.63263
1.69434
1.74643
1.77469
1.80612
1.83309
1.8558
1.8757
1.89344
1.90829
1.91903
1.92678
1.93131
1.9376
1.93991
1.95001
1.94817
1.95496
1.94886
1.94313
1.92707
1.92251
1.91435
1.90613
1.89041
1.89213
0.206168
0.192323
0.194898
0.196577
0.20403
0.206778
0.204533
0.202099
0.201189
0.197206
0.193828
0.189952
0.188495
0.189304
0.190655
0.192987
0.194021
0.196005
0.197984
0.198058
0.196648
0.193905
0.191686
0.189782
0.185937
0.18323
0.180367
0.178176
0.176692
0.175579
0.17495
0.174346
0.173842
0.173664
0.173205
0.172955
0.172523
0.171863
0.17109
0.17036
0.168847
0.16711
0.163841
0.158311
0.158039
0.166819
0.393832
1.00691
1.00928
1.00912
1.00917
1.01879
1.03815
1.10119
1.1342
1.20631
1.16971
1.17674
1.12832
1.13503
1.11298
1.12869
1.12776
1.17036
1.20741
1.27553
1.34174
1.40434
1.49066
1.58122
1.63653
1.69178
1.73028
1.752
1.75954
1.74337
1.72358
1.69751
1.66675
1.64194
1.6197
1.60197
1.58843
1.57026
1.54354
1.51958
1.50446
1.48457
1.47625
1.48738
1.5053
1.53859
1.59315
1.6549
1.7065
1.75276
1.77961
1.80809
1.83113
1.851
1.87085
1.88841
1.90347
1.91471
1.92371
1.92955
1.93437
1.93519
1.94506
1.94259
1.94984
1.94375
1.93833
1.92042
1.91551
1.90721
1.89841
1.88133
1.88298
0.191046
0.205403
0.203767
0.200487
0.19738
0.19417
0.193483
0.194597
0.196759
0.197679
0.199957
0.202001
0.20227
0.200909
0.198743
0.197675
0.194228
0.192036
0.189235
0.186791
0.185999
0.185034
0.184803
0.184837
0.18466
0.184541
0.184368
0.184061
0.183219
0.182125
0.180979
0.179526
0.177928
0.176667
0.174801
0.173382
0.172051
0.170812
0.170054
0.169207
0.168459
0.167664
0.16783
0.167742
0.168076
0.183771
0.675954
1.06839
1.05809
1.03748
1.02185
1.01606
1.02178
1.04743
1.09579
1.19206
1.1976
1.24018
1.20482
1.24234
1.26051
1.31871
1.37865
1.46023
1.55172
1.61244
1.65289
1.70642
1.71932
1.74457
1.74845
1.75796
1.76429
1.76497
1.76299
1.75343
1.73982
1.72389
1.70355
1.6813
1.65941
1.64504
1.634
1.61782
1.59539
1.57599
1.55705
1.53498
1.53066
1.53726
1.55442
1.5807
1.62136
1.67188
1.71654
1.75234
1.77929
1.80583
1.8271
1.84716
1.8647
1.88216
1.89684
1.9088
1.92013
1.92762
1.93067
1.92917
1.93931
1.93665
1.94435
1.93859
1.93331
1.91436
1.90838
1.89997
1.89035
1.87218
1.87478
0.203445
0.195608
0.196883
0.197077
0.20105
0.202329
0.201497
0.200246
0.199887
0.197934
0.196707
0.194861
0.1935
0.193447
0.193273
0.193836
0.19381
0.193997
0.194095
0.19374
0.192889
0.191204
0.189584
0.188193
0.185834
0.184048
0.182124
0.180429
0.178842
0.177445
0.176302
0.17494
0.173748
0.172873
0.172012
0.171246
0.170569
0.169952
0.169679
0.169405
0.169032
0.168607
0.169064
0.169472
0.170731
0.19084
0.801549
1.11221
1.10332
1.07917
1.05468
1.03925
1.03362
1.04178
1.07342
1.14973
1.26024
1.33234
1.3775
1.43861
1.51746
1.57631
1.63086
1.67265
1.69078
1.71823
1.72959
1.74532
1.75285
1.75982
1.75823
1.75574
1.75387
1.74969
1.7485
1.74565
1.73568
1.72346
1.707
1.68965
1.67135
1.65745
1.64699
1.63453
1.62032
1.60672
1.5929
1.57843
1.57468
1.57533
1.58727
1.6081
1.64125
1.68368
1.7228
1.75165
1.7779
1.80099
1.82202
1.8424
1.85829
1.87515
1.89028
1.90306
1.91573
1.92428
1.92506
1.92164
1.93203
1.92977
1.93835
1.93199
1.92771
1.90838
1.90108
1.89237
1.88228
1.86289
1.86775
0.194446
0.203382
0.202698
0.200668
0.199041
0.197234
0.196377
0.196597
0.197368
0.197503
0.19832
0.198849
0.1989
0.198221
0.196995
0.196045
0.194518
0.193184
0.191534
0.190025
0.188773
0.187512
0.186359
0.185655
0.184462
0.183322
0.182359
0.181493
0.180676
0.17967
0.178511
0.177127
0.175503
0.17423
0.173222
0.172324
0.171582
0.170907
0.170641
0.170353
0.170198
0.170015
0.170994
0.171572
0.172821
0.195293
0.893223
1.11857
1.10956
1.09336
1.07059
1.05844
1.05258
1.05653
1.0966
1.18514
1.34332
1.48095
1.56626
1.62794
1.6603
1.69936
1.70684
1.72242
1.72742
1.73416
1.73569
1.73814
1.73794
1.73879
1.73633
1.73041
1.72347
1.71662
1.71536
1.72062
1.72
1.71501
1.70568
1.69322
1.67886
1.66682
1.65537
1.64345
1.63476
1.62752
1.61877
1.60958
1.6046
1.60679
1.61351
1.62991
1.65606
1.68975
1.72333
1.74746
1.77215
1.79546
1.81708
1.83602
1.85039
1.86657
1.88241
1.89591
1.9088
1.91764
1.91837
1.91459
1.92521
1.92387
1.93244
1.92523
1.92243
1.90345
1.89463
1.88366
1.87266
1.85188
1.86172
0.201248
0.198025
0.198455
0.198127
0.199805
0.200292
0.199981
0.199263
0.19903
0.198028
0.197594
0.196668
0.195809
0.195377
0.194638
0.194417
0.193942
0.193313
0.192705
0.191986
0.19102
0.189693
0.188428
0.187196
0.18527
0.183398
0.181847
0.180457
0.179214
0.178325
0.176858
0.174637
0.173129
0.171944
0.170944
0.170089
0.169311
0.168616
0.168006
0.167812
0.167408
0.166983
0.167013
0.166765
0.168177
0.196065
0.93976
1.08512
1.08205
1.07589
1.06348
1.06627
1.07577
1.1024
1.17255
1.30404
1.51029
1.65444
1.70058
1.71247
1.71772
1.72681
1.72858
1.7287
1.72806
1.73095
1.72834
1.72252
1.71796
1.71195
1.70803
1.70648
1.70338
1.69328
1.68995
1.69129
1.69249
1.69213
1.68892
1.68298
1.67493
1.66713
1.65823
1.64731
1.64068
1.63578
1.62916
1.62665
1.62981
1.62722
1.63301
1.64472
1.66392
1.69091
1.71891
1.74037
1.7634
1.78669
1.80827
1.82697
1.84224
1.85807
1.87396
1.88739
1.89986
1.90926
1.91145
1.90823
1.91859
1.91742
1.92531
1.91774
1.91647
1.89938
1.88793
1.87523
1.86271
1.84207
1.85645
0.196948
0.201664
0.201541
0.200296
0.199466
0.198546
0.19799
0.197795
0.19789
0.197663
0.19773
0.197668
0.197411
0.196898
0.196132
0.195334
0.194205
0.193159
0.192036
0.1909
0.189774
0.18834
0.18711
0.186062
0.184534
0.18268
0.181329
0.180196
0.179183
0.178504
0.177246
0.17587
0.173731
0.172247
0.171088
0.170095
0.169211
0.168339
0.167392
0.166218
0.165105
0.163941
0.160789
0.158012
0.160768
0.200066
0.927372
1.04255
1.06502
1.06772
1.06572
1.07438
1.10151
1.16047
1.28053
1.47197
1.64803
1.72282
1.7377
1.74005
1.73919
1.74083
1.7346
1.73125
1.72437
1.72061
1.7206
1.71566
1.70768
1.69959
1.68914
1.68526
1.67962
1.67373
1.67064
1.6644
1.66439
1.66369
1.66254
1.66134
1.65955
1.65722
1.65328
1.64731
1.64353
1.64082
1.63557
1.63363
1.64034
1.63774
1.6431
1.65198
1.66672
1.68886
1.7131
1.73341
1.75551
1.77789
1.79852
1.81702
1.83385
1.84942
1.8646
1.87769
1.88999
1.90043
1.90444
1.90257
1.91263
1.91146
1.91859
1.91016
1.91116
1.89594
1.88131
1.86584
1.85023
1.83119
1.85109
0.200184
0.199034
0.199307
0.199111
0.199507
0.199603
0.19938
0.198923
0.198643
0.1981
0.197767
0.197231
0.196615
0.195976
0.195243
0.194637
0.193874
0.193
0.192127
0.191403
0.19033
0.188907
0.187436
0.186259
0.184841
0.18275
0.181092
0.179686
0.178385
0.177502
0.17657
0.175114
0.173366
0.171055
0.169427
0.168078
0.166781
0.165408
0.164077
0.162679
0.161221
0.159968
0.157604
0.156021
0.168175
0.370641
1.00886
1.03548
1.04222
1.05164
1.07172
1.10239
1.16488
1.27451
1.46364
1.63356
1.72364
1.74031
1.74035
1.73792
1.73794
1.73444
1.73175
1.72559
1.72213
1.71429
1.70785
1.70165
1.69957
1.6896
1.68183
1.67169
1.661
1.65679
1.6517
1.64855
1.64499
1.64045
1.63981
1.63964
1.64314
1.64427
1.64114
1.63823
1.63958
1.64008
1.64075
1.63986
1.64524
1.64376
1.6481
1.65574
1.66908
1.68851
1.70915
1.7276
1.74805
1.76828
1.78855
1.80721
1.82473
1.84042
1.85402
1.86659
1.87914
1.89128
1.89737
1.89683
1.90643
1.9056
1.91241
1.90342
1.90632
1.89199
1.87538
1.85739
1.83864
1.81953
1.84191
0.198521
0.200495
0.200612
0.199965
0.199622
0.199058
0.198764
0.198413
0.198186
0.197992
0.197775
0.197465
0.197015
0.196323
0.195604
0.194864
0.193962
0.192929
0.191891
0.190885
0.189842
0.188327
0.1869
0.185708
0.184417
0.182719
0.180629
0.179071
0.177848
0.176687
0.175975
0.174833
0.173277
0.171531
0.169196
0.167608
0.166198
0.164858
0.163814
0.162797
0.161798
0.160593
0.16012
0.15893
0.17912
0.735784
1.02518
1.05167
1.06122
1.07689
1.11843
1.18197
1.30883
1.48007
1.65376
1.72876
1.7509
1.74349
1.73988
1.73363
1.72973
1.72409
1.71993
1.71642
1.71092
1.70448
1.69726
1.69226
1.68617
1.68201
1.67617
1.66369
1.65356
1.6434
1.63685
1.63454
1.62979
1.62628
1.62423
1.62188
1.62507
1.6277
1.63051
1.63094
1.63326
1.63479
1.63839
1.64055
1.64615
1.64564
1.64951
1.65793
1.6711
1.68699
1.70505
1.72219
1.74066
1.75888
1.77865
1.79723
1.81447
1.82916
1.84161
1.85472
1.86826
1.88227
1.89009
1.89083
1.89996
1.89983
1.90694
1.8985
1.90191
1.88774
1.86941
1.84903
1.82763
1.80855
1.83251
0.199744
0.199514
0.19968
0.199492
0.199546
0.199415
0.199178
0.198832
0.198581
0.198213
0.197851
0.19746
0.196771
0.196069
0.195314
0.194587
0.193852
0.192909
0.191794
0.190761
0.189717
0.188373
0.186849
0.185471
0.18434
0.182811
0.180612
0.178809
0.177333
0.176106
0.17502
0.1744
0.173066
0.171572
0.16963
0.167618
0.166312
0.165191
0.164503
0.163988
0.163839
0.163918
0.164689
0.167611
0.198175
0.955235
1.08081
1.09275
1.10583
1.13313
1.19956
1.32573
1.51376
1.67414
1.74985
1.76468
1.75808
1.74193
1.73197
1.73049
1.72265
1.71023
1.70755
1.70427
1.69841
1.6923
1.68594
1.68123
1.67523
1.67102
1.6641
1.65733
1.64842
1.63691
1.62918
1.62113
1.61592
1.61434
1.60892
1.60701
1.60859
1.60986
1.61376
1.61562
1.62141
1.62619
1.63269
1.63805
1.64389
1.64795
1.65291
1.66047
1.67155
1.68487
1.70068
1.71657
1.73315
1.75
1.76852
1.78633
1.80236
1.8158
1.828
1.84268
1.85728
1.87285
1.88212
1.88389
1.89336
1.89435
1.90189
1.89495
1.89734
1.88266
1.86294
1.84086
1.81764
1.79775
1.82217
0.199303
0.199831
0.20006
0.199854
0.199597
0.199283
0.199021
0.198731
0.198473
0.198171
0.197876
0.197483
0.196898
0.19613
0.195376
0.194597
0.193799
0.192941
0.191776
0.190525
0.189291
0.188022
0.186581
0.185147
0.183816
0.182399
0.180676
0.178589
0.176893
0.175484
0.174257
0.173437
0.172476
0.171052
0.169161
0.166872
0.165459
0.164065
0.163061
0.162047
0.161825
0.161094
0.161784
0.165774
0.239596
1.07801
1.1341
1.14658
1.16684
1.21918
1.33454
1.52393
1.69189
1.75828
1.76959
1.77334
1.75876
1.748
1.73334
1.72166
1.71258
1.70508
1.69615
1.68832
1.68642
1.68138
1.67382
1.66843
1.66387
1.6587
1.65204
1.64602
1.63852
1.63093
1.62264
1.61154
1.60547
1.60044
1.59594
1.59536
1.59341
1.59407
1.59792
1.60046
1.60829
1.61357
1.62238
1.63106
1.63797
1.64556
1.65266
1.6606
1.67056
1.68215
1.69587
1.71038
1.7258
1.74111
1.75778
1.77375
1.78866
1.8015
1.8144
1.83096
1.84625
1.86272
1.87314
1.87567
1.88666
1.88954
1.89703
1.89201
1.89246
1.87659
1.85598
1.83329
1.80787
1.78724
1.81088
0.199568
0.199569
0.199776
0.199657
0.199602
0.199396
0.199138
0.198881
0.198651
0.198263
0.197912
0.197494
0.196843
0.196079
0.195297
0.194506
0.193703
0.192892
0.191835
0.190414
0.189042
0.187661
0.186348
0.185087
0.183583
0.181995
0.180377
0.178584
0.176758
0.175117
0.173731
0.172697
0.172012
0.170664
0.168948
0.166537
0.165105
0.163818
0.162741
0.16153
0.160253
0.157928
0.157803
0.162958
0.348378
1.20673
1.20886
1.22549
1.26628
1.35273
1.50929
1.69316
1.76592
1.78648
1.76742
1.75607
1.75802
1.73636
1.72157
1.71819
1.70579
1.694
1.68725
1.68047
1.67231
1.66431
1.66078
1.65648
1.65072
1.64618
1.63965
1.63189
1.62662
1.62306
1.61379
1.60418
1.59591
1.58793
1.58435
1.58188
1.57741
1.57822
1.57886
1.58024
1.58896
1.59634
1.60808
1.61913
1.62946
1.6396
1.64877
1.65711
1.667
1.67765
1.68959
1.70268
1.71732
1.73175
1.74686
1.76136
1.77593
1.78849
1.80208
1.81903
1.8345
1.85114
1.86266
1.86665
1.87976
1.88528
1.89268
1.88789
1.88538
1.86926
1.8495
1.82642
1.79911
1.77719
1.79976
0.199371
0.199622
0.199923
0.199797
0.19961
0.199363
0.199113
0.198882
0.198644
0.198238
0.197888
0.197459
0.196871
0.19609
0.195312
0.19448
0.193669
0.192822
0.191751
0.190287
0.188859
0.187425
0.186054
0.18487
0.18344
0.181469
0.179796
0.178222
0.176688
0.174906
0.173166
0.17162
0.170684
0.169307
0.167549
0.164842
0.163252
0.161952
0.161174
0.16045
0.160634
0.160967
0.163405
0.173421
0.411701
1.30395
1.2834
1.30754
1.38047
1.49888
1.65854
1.76382
1.77391
1.77799
1.76215
1.74268
1.73448
1.72886
1.71318
1.69818
1.69034
1.68208
1.66954
1.66044
1.65556
1.64933
1.64356
1.63791
1.63472
1.63111
1.62421
1.61872
1.61393
1.60784
1.60091
1.59564
1.58661
1.57878
1.57408
1.56865
1.56473
1.56356
1.56135
1.56335
1.5716
1.57962
1.59264
1.60495
1.6179
1.62873
1.64037
1.6502
1.66065
1.67095
1.68206
1.69377
1.70728
1.72162
1.73592
1.74954
1.76407
1.77667
1.79094
1.8071
1.82158
1.83889
1.85138
1.85779
1.87271
1.88038
1.88715
1.88054
1.8767
1.86204
1.84377
1.82007
1.78992
1.76698
1.78766
0.199432
0.199607
0.199748
0.199697
0.199596
0.199417
0.199162
0.198928
0.198696
0.198254
0.197842
0.197422
0.196841
0.196063
0.195287
0.19445
0.193672
0.192748
0.191595
0.190115
0.188738
0.187336
0.185895
0.184554
0.183142
0.181277
0.17936
0.177747
0.176373
0.17498
0.173184
0.171105
0.16953
0.168517
0.166997
0.165357
0.163646
0.162839
0.162591
0.162482
0.163566
0.164077
0.166079
0.182482
0.369989
1.32146
1.31548
1.35947
1.47503
1.63306
1.73903
1.76859
1.76041
1.7569
1.74339
1.72627
1.71479
1.70698
1.69674
1.68482
1.67436
1.66505
1.65316
1.64325
1.63576
1.63009
1.62372
1.61946
1.61642
1.61194
1.60724
1.60303
1.59739
1.59201
1.587
1.58121
1.57384
1.56946
1.56316
1.5572
1.55544
1.54944
1.54579
1.54758
1.55239
1.55795
1.57161
1.58477
1.60052
1.61487
1.62902
1.6405
1.65151
1.66209
1.67338
1.68456
1.69707
1.71134
1.72524
1.73836
1.75258
1.76494
1.77932
1.79399
1.80759
1.82632
1.83908
1.84917
1.86594
1.87328
1.87797
1.86983
1.86805
1.85505
1.83775
1.81309
1.78144
1.7572
1.77574
0.199426
0.199621
0.199756
0.199719
0.199587
0.199403
0.199157
0.198923
0.198687
0.19826
0.197815
0.197364
0.196783
0.196049
0.195297
0.194449
0.1936
0.19268
0.191476
0.189947
0.188572
0.187197
0.185854
0.18425
0.182705
0.181025
0.178984
0.177157
0.175548
0.174531
0.172898
0.170414
0.168101
0.166288
0.164949
0.163458
0.161876
0.159796
0.157909
0.155947
0.154919
0.153852
0.152381
0.185029
0.378748
1.16116
1.19307
1.34114
1.49928
1.66318
1.71004
1.72385
1.7146
1.71179
1.71363
1.70202
1.69076
1.68248
1.67554
1.66793
1.65991
1.65002
1.63719
1.62691
1.61875
1.61009
1.60269
1.59878
1.59417
1.59026
1.58776
1.58359
1.57893
1.57505
1.56955
1.56395
1.5594
1.55521
1.5481
1.54507
1.5423
1.5368
1.53444
1.53418
1.53524
1.5398
1.55097
1.56469
1.58314
1.59937
1.61463
1.62725
1.63985
1.65113
1.66315
1.67446
1.68655
1.70055
1.71428
1.72731
1.7411
1.75294
1.76661
1.78007
1.79399
1.81375
1.82687
1.84096
1.8581
1.86387
1.86771
1.85847
1.86012
1.84865
1.83144
1.80627
1.77252
1.74718
1.76431
0.199503
0.199632
0.199656
0.199628
0.199542
0.199391
0.19918
0.198934
0.198682
0.198247
0.1978
0.19732
0.196712
0.196015
0.195267
0.194476
0.19349
0.192493
0.191369
0.189886
0.188403
0.186999
0.185712
0.184164
0.182252
0.180541
0.178783
0.1768
0.174889
0.173229
0.172026
0.170136
0.167515
0.164589
0.162122
0.160033
0.158303
0.156544
0.154219
0.151162
0.145642
0.1446
0.14614
0.217978
0.604528
0.940598
1.07998
1.36784