/*--------------------------------*- C++ -*----------------------------------*\
| =========                 |                                                 |
| \\      /  F ield         | OpenFOAM: The Open Source CFD Toolbox           |
|  \\    /   O peration     | Version:  2.2.x                                 |
|   \\  /    A nd           | Web:      www.OpenFOAM.org                      |
|    \\/     M anipulation  |                                                 |
\*---------------------------------------------------------------------------*/
FoamFile
{
    version     2.0;
    format      ascii;
    class       volScalarField;
    location    "0.85";
    object      T;
}
// * * * * * * * * * * * * * * * * * * * * * * * * * * * * * * * * * * * * * //

dimensions      [0 0 0 1 0 0 0];

internalField   nonuniform List<scalar> 
14161
(
1.00871
1.01358
1.0044
0.989694
0.977248
0.9722
0.979096
0.981739
0.990471
1.00587
1.01435
1.02224
1.016
1.0109
0.999942
0.981904
0.967481
0.942692
0.936659
0.933527
0.93568
0.946541
0.955216
0.959208
0.973135
0.980757
0.971702
0.962951
0.954772
0.947041
0.934934
0.927181
0.920903
0.916819
0.915716
0.917013
0.919998
0.921924
0.92091
0.923146
0.924331
0.9243
0.920045
0.9055
0.878076
0.833357
0.765788
0.919422
2.59058
2.71637
2.77972
2.80727
2.84142
2.85732
2.8475
2.83508
2.82017
2.80162
2.78775
2.77465
2.76807
2.75236
2.73224
2.71901
2.70868
2.70318
2.69845
2.69136
2.68276
2.67106
2.65866
2.64882
2.64182
2.63764
2.6328
2.6358
2.64824
2.6663
2.68535
2.70378
2.73021
2.78338
2.86438
2.96003
3.04579
3.1036
3.12642
3.15009
3.17046
3.18119
3.19477
3.21266
3.22519
3.23145
3.23373
3.23697
3.2418
3.2491
3.25906
3.26882
3.27613
3.28012
3.28225
3.2838
3.28633
3.29036
3.2971
3.30231
3.30721
3.31158
3.31821
3.32299
3.33305
3.33794
3.34991
3.35475
3.36812
3.37645
3.3563
0.991018
0.96844
0.986923
1.02335
1.06756
1.07374
1.0534
1.03079
0.998434
0.95741
0.917042
0.910445
0.927904
0.947058
0.980893
1.00798
1.04645
1.07977
1.07295
1.05233
1.02007
0.98541
0.950549
0.909655
0.879941
0.873001
0.882755
0.895388
0.910586
0.928468
0.948916
0.962689
0.972536
0.97571
0.971654
0.965771
0.959289
0.951413
0.946534
0.943618
0.943233
0.944595
0.949758
0.96316
0.973529
1.01071
1.01663
2.52249
3.06792
3.07702
3.06501
3.02515
3.00336
2.98256
2.94253
2.90519
2.88462
2.86234
2.84785
2.82667
2.80621
2.78321
2.75999
2.74378
2.73078
2.72559
2.72195
2.71821
2.71156
2.7046
2.70489
2.70936
2.71485
2.72654
2.74696
2.77339
2.80884
2.85167
2.89272
2.93887
2.97374
3.01474
3.03532
3.05107
3.08437
3.13174
3.14728
3.16527
3.18515
3.19428
3.204
3.22039
3.23286
3.23912
3.24007
3.2407
3.24321
3.2481
3.25533
3.26374
3.27173
3.27645
3.27928
3.28084
3.2827
3.28615
3.29206
3.29805
3.30348
3.3078
3.31445
3.319
3.32806
3.33315
3.34578
3.35247
3.36678
3.3753
3.35907
1.02545
1.05685
1.02065
0.961205
0.890179
0.872995
0.910955
0.937254
0.986534
1.04976
1.11066
1.11462
1.07597
1.0377
1.00258
0.953152
0.882918
0.816864
0.802376
0.841264
0.883926
0.931891
0.984555
1.03834
1.07803
1.07851
1.06001
1.02026
0.994153
0.954042
0.921505
0.894555
0.876656
0.870138
0.874168
0.886636
0.901259
0.906623
0.915425
0.922699
0.928361
0.938565
0.944088
0.951479
0.966541
0.995603
0.963283
2.71219
3.08568
3.06394
3.09673
3.0537
3.01208
2.97167
2.95072
2.9418
2.89427
2.8512
2.81468
2.78945
2.76021
2.74442
2.72164
2.697
2.67517
2.65471
2.63685
2.62092
2.6077
2.59708
2.59011
2.58512
2.57758
2.58415
2.59627
2.62118
2.64678
2.6952
2.73958
2.80578
2.86008
2.93108
2.96494
3.01276
3.04846
3.09509
3.12901
3.15778
3.18288
3.19876
3.20669
3.22231
3.23657
3.24581
3.2479
3.24438
3.24362
3.24511
3.24926
3.25561
3.26326
3.27054
3.27565
3.27812
3.28045
3.28404
3.28946
3.29617
3.30289
3.30849
3.31541
3.31918
3.32738
3.3323
3.34501
3.35294
3.3677
3.37449
3.35799
0.973616
0.934722
0.981345
1.06409
1.15665
1.1748
1.10984
1.06752
1.00233
0.919883
0.834596
0.815612
0.862959
0.90169
0.967295
1.03486
1.12059
1.19457
1.19077
1.1428
1.08237
1.00385
0.941757
0.867319
0.801037
0.779411
0.799264
0.827619
0.873354
0.909393
0.95479
0.994692
1.02218
1.02963
1.0239
1.01156
0.999137
0.980486
0.969417
0.959841
0.955221
0.953382
0.956951
0.965708
0.974996
0.99624
0.998355
2.4009
3.02907
3.06132
3.05084
2.99414
2.94746
2.90588
2.86454
2.82289
2.78159
2.74109
2.69977
2.6794
2.65219
2.62652
2.60817
2.59675
2.58809
2.57838
2.56038
2.54385
2.53261
2.52571
2.52201
2.52261
2.51761
2.51952
2.51884
2.54282
2.54491
2.59874
2.632
2.71839
2.76436
2.84375
2.87196
2.92768
2.97648
3.02735
3.08123
3.13895
3.16942
3.20318
3.216
3.23032
3.24735
3.25793
3.2605
3.25695
3.25128
3.24892
3.24997
3.25397
3.25889
3.26529
3.27095
3.27484
3.27731
3.27969
3.2841
3.29008
3.29642
3.30205
3.30878
3.3131
3.32196
3.32828
3.34136
3.35044
3.36467
3.37184
3.35565
1.04142
1.09188
1.03687
0.938642
0.823405
0.785763
0.847962
0.889696
0.967087
1.07044
1.17188
1.18791
1.12926
1.0691
1.01969
0.943223
0.833659
0.720522
0.68532
0.732968
0.814022
0.872732
0.963683
1.05426
1.12955
1.14424
1.12166
1.07322
1.02259
0.965133
0.920174
0.874731
0.837026
0.819989
0.823211
0.833118
0.849779
0.864245
0.881618
0.89624
0.909873
0.916335
0.920196
0.920365
0.908783
0.893315
0.872725
1.27186
2.84863
2.8916
2.91044
2.84216
2.79408
2.75829
2.71629
2.69265
2.64846
2.63002
2.5907
2.56676
2.53906
2.5258
2.50898
2.50233
2.49007
2.48144
2.46923
2.45505
2.4419
2.43444
2.43215
2.43708
2.43602
2.44627
2.43842
2.46778
2.45633
2.52085
2.52352
2.60816
2.62813
2.70145
2.70986
2.74298
2.79984
2.8542
2.92059
3.01093
3.09408
3.17154
3.20994
3.23157
3.24997
3.26214
3.26613
3.265
3.25847
3.25253
3.25085
3.25436
3.25951
3.26517
3.27133
3.27722
3.28135
3.28306
3.28435
3.28927
3.29483
3.29966
3.30612
3.31027
3.31834
3.32567
3.3399
3.34882
3.36169
3.36887
3.35182
0.965621
0.9232
0.984805
1.08926
1.21257
1.24158
1.14862
1.09486
1.01337
0.909016
0.79157
0.750805
0.80933
0.856613
0.93689
1.02111
1.13499
1.2438
1.2593
1.20072
1.12766
1.03409
0.958128
0.861133
0.762684
0.716529
0.709979
0.764138
0.814197
0.86579
0.915375
0.970051
1.01062
1.0297
1.03077
1.02317
1.00723
0.9858
0.971331
0.959802
0.943827
0.933496
0.927023
0.922928
0.922911
0.926729
0.947386
1.08994
2.82052
2.86719
2.84957
2.77453
2.72775
2.69511
2.64859
2.6245
2.5699
2.55586
2.52182
2.50995
2.47511
2.46749
2.44303
2.43651
2.42471
2.42281
2.41333
2.41674
2.40775
2.40643
2.39901
2.39918
2.39313
2.40033
2.39116
2.41546
2.39981
2.45285
2.44698
2.51526
2.55869
2.56966
2.62105
2.61419
2.66023
2.71441
2.78507
2.87203
2.97003
3.07698
3.16756
3.21387
3.2391
3.24931
3.25662
3.26161
3.26075
3.25379
3.24792
3.2456
3.24793
3.25311
3.25971
3.26698
3.27272
3.27562
3.27625
3.28158
3.28788
3.29288
3.3
3.30443
3.31291
3.31994
3.3345
3.34419
3.35785
3.36521
3.34741
1.04418
1.10248
1.04262
0.935262
0.799253
0.739006
0.805561
0.850002
0.931008
1.04511
1.16964
1.20672
1.14926
1.08453
1.0299
0.9486
0.82169
0.676013
0.608047
0.651283
0.735026
0.787196
0.899127
0.999561
1.09064
1.13127
1.12165
1.07906
1.02571
0.975641
0.914957
0.861944
0.82073
0.796673
0.784251
0.784097
0.800291
0.815694
0.83476
0.853973
0.871942
0.886232
0.902406
0.907961
0.919786
0.920237
0.936901
1.02601
2.6385
2.83796
2.69045
2.65983
2.61072
2.59382
2.5533
2.54658
2.49383
2.49338
2.45364
2.45661
2.4227
2.42304
2.39905
2.39712
2.38056
2.3816
2.37335
2.37797
2.37253
2.37498
2.3654
2.35915
2.35578
2.34343
2.35548
2.32894
2.37505
2.34519
2.43565
2.44937
2.52496
2.49903
2.56464
2.54519
2.56328
2.59586
2.64158
2.70937
2.79388
2.88608
3.00385
3.10834
3.1777
3.20197
3.2135
3.23127
3.24285
3.2448
3.24201
3.23706
3.23891
3.24377
3.25104
3.25871
3.2655
3.26985
3.27038
3.27534
3.28205
3.28733
3.29527
3.29956
3.30833
3.31518
3.32962
3.33988
3.35429
3.3601
3.34207
0.972512
0.928881
0.989673
1.07976
1.2066
1.24432
1.16233
1.10407
1.0331
0.930938
0.798243
0.734102
0.779729
0.830653
0.907163
0.983469
1.093
1.21348
1.25543
1.21581
1.1468
1.05616
0.989428
0.895892
0.787461
0.715481
0.692654
0.735359
0.77847
0.826244
0.871302
0.928431
0.97037
0.997425
1.00837
1.00652
0.996701
0.984724
0.96588
0.952705
0.933302
0.915099
0.901093
0.886027
0.869939
0.848698
0.821493
0.80662
1.27085
2.71609
2.609
2.57374
2.53504
2.49837
2.47567
2.46702
2.43496
2.43977
2.40568
2.41142
2.38761
2.39622
2.3759
2.3745
2.35993
2.35979
2.35366
2.35799
2.35831
2.36335
2.35712
2.3508
2.34803
2.33978
2.35298
2.32827
2.36931
2.32008
2.4194
2.41104
2.48789
2.45408
2.51712
2.51033
2.5348
2.54271
2.5644
2.6099
2.66141
2.73691
2.85801
2.98414
3.10217
3.1589
3.16957
3.18966
3.21456
3.23118
3.24065
3.24122
3.23148
3.22853
3.2353
3.24489
3.25357
3.25962
3.26105
3.26467
3.27095
3.27633
3.28508
3.29057
3.30059
3.30849
3.32407
3.33524
3.35069
3.35545
3.3375
1.01687
1.08541
1.02364
0.940813
0.814402
0.73968
0.795167
0.83804
0.906971
1.00404
1.11955
1.1769
1.14235
1.09003
1.0403
0.969207
0.86438
0.727005
0.637889
0.661175
0.722484
0.757891
0.8653
0.946321
1.02906
1.08481
1.08993
1.07144
1.03088
0.994696
0.94473
0.898994
0.85792
0.824598
0.804493
0.801329
0.803612
0.810526
0.8258
0.839442
0.853842
0.864947
0.876834
0.878718
0.886918
0.886528
0.888877
0.98791
2.34451
2.69481
2.65977
2.613
2.55468
2.50664
2.50495
2.47201
2.47796
2.43678
2.44414
2.40555
2.41075
2.39349
2.38607
2.36864
2.36622
2.34728
2.3441
2.33584
2.33822
2.33131
2.32702
2.32114
2.32729
2.31474
2.33255
2.30385
2.36146
2.32652
2.44639
2.38796
2.46792
2.43734
2.45833
2.49916
2.49276
2.50525
2.50148
2.5267
2.55471
2.60004
2.69089
2.79889
2.95757
3.05553
3.09103
3.11488
3.15131
3.18088
3.2003
3.2139
3.21622
3.20852
3.21116
3.22397
3.23954
3.24927
3.25315
3.25565
3.26084
3.26608
3.2754
3.28135
3.29304
3.30211
3.3181
3.33032
3.34617
3.35149
3.32963
1.01519
0.941251
1.00335
1.05629
1.15711
1.20023
1.15021
1.10295
1.05138
0.970633
0.85613
0.781502
0.795347
0.845613
0.890212
0.954932
1.03635
1.1328
1.19022
1.17668
1.13514
1.06656
1.01889
0.943602
0.859889
0.787886
0.755086
0.767298
0.788269
0.821395
0.850757
0.895447
0.925088
0.948338
0.9637
0.972426
0.969583
0.965261
0.952017
0.943301
0.934588
0.925265
0.918685
0.914219
0.9164
0.927695
0.939844
1.05065
2.3737
2.67994
2.67614
2.63081
2.54309
2.52116
2.50536
2.47067
2.47512
2.43306
2.4483
2.40198
2.40049
2.37895
2.37307
2.35415
2.34382
2.33027
2.32433
2.32245
2.3147
2.31194
2.2999
2.29487
2.28627
2.29772
2.28034
2.30801
2.27403
2.37673
2.37655
2.47713
2.40487
2.43518
2.38548
2.43401
2.43657
2.44642
2.43139
2.44208
2.4619
2.50911
2.58949
2.6814
2.83195
2.93376
3.02322
3.06648
3.0986
3.13552
3.15988
3.17939
3.18987
3.18978
3.19375
3.20634
3.21996
3.22839
3.23186
3.23408
3.23955
3.24698
3.25858
3.26661
3.27979
3.28971
3.30866
3.32321
3.34247
3.34898
3.323
0.960701
1.06253
1.00734
0.959024
0.859289
0.792336
0.828473
0.86627
0.91328
0.981094
1.06761
1.12944
1.11859
1.08716
1.04876
0.998134
0.925937
0.830265
0.750933
0.745674
0.771648
0.800157
0.872696
0.919484
0.974755
1.02366
1.04522
1.04404
1.02003
0.995583
0.966657
0.939283
0.905772
0.880059
0.860316
0.84703
0.842812
0.839319
0.839915
0.845556
0.852633
0.859711
0.863865
0.868692
0.872287
0.871599
0.892631
0.920599
2.13817
2.47633
2.50526
2.59165
2.50091
2.52016
2.46439
2.47609
2.44793
2.42218
2.43293
2.37397
2.36933
2.34686
2.35359
2.33051
2.32721
2.31101
2.31164
2.29987
2.29806
2.29085
2.29067
2.2828
2.28199
2.28634
2.27476
2.29237
2.26353
2.35775
2.36768
2.41441
2.39399
2.44506
2.39836
2.37701
2.36713
2.38722
2.38127
2.39401
2.39845
2.44722
2.52145
2.6194
2.76815
2.8772
2.97152
3.03795
3.0765
3.11364
3.13994
3.1614
3.17732
3.18135
3.18491
3.19487
3.2058
3.21625
3.22373
3.22926
3.23585
3.24091
3.24915
3.25327
3.26526
3.27587
3.2985
3.31514
3.33598
3.34483
3.31544
1.04838
0.957685
0.994692
1.02984
1.10098
1.14094
1.11512
1.0835
1.05015
0.995268
0.916819
0.850043
0.84427
0.876917
0.893413
0.941266
0.988909
1.04929
1.09898
1.1045
1.08476
1.04537
1.01724
0.973447
0.917214
0.869111
0.836127
0.827341
0.830606
0.840799
0.859713
0.874813
0.894436
0.908175
0.919968
0.928405
0.931962
0.93387
0.926763
0.921696
0.916752
0.911438
0.90504
0.899878
0.892101
0.883632
0.942299
1.41366
2.25956
2.40243
2.48208
2.64316
2.56506
2.57775
2.49457
2.49995
2.44245
2.457
2.40757
2.41594
2.37511
2.37613
2.35818
2.36385
2.34918
2.35027
2.34138
2.34141
2.33566
2.33666
2.32548
2.32062
2.31172
2.31697
2.29722
2.32913
2.30566
2.44516
2.3585
2.43687
2.37357
2.4196
2.39178
2.39368
2.3647
2.37146
2.37029
2.40535
2.40945
2.45387
2.52344
2.6236
2.76096
2.86572
2.95375
3.00938
3.04876
3.07856
3.11077
3.13329
3.15014
3.16522
3.1761
3.18763
3.20001
3.21019
3.22062
3.22553
3.22969
3.23171
3.2371
3.2408
3.25356
3.26559
3.29033
3.30817
3.32953
3.34078
3.3084
0.931238
1.04197
1.00905
0.974166
0.914808
0.871447
0.88577
0.907147
0.939144
0.977572
1.03047
1.07876
1.08282
1.06689
1.04276
1.01471
0.968097
0.91537
0.861379
0.841218
0.851278
0.859031
0.891578
0.914638
0.943556
0.972762
0.991781
0.998389
0.987831
0.97544
0.96227
0.945466
0.928976
0.909838
0.894379
0.880808
0.870403
0.86314
0.857971
0.854911
0.854899
0.855843
0.859587
0.863209
0.866169
0.869753
0.927872
1.9917
2.23125
2.30471
2.38203
2.59138
2.51138
2.60347
2.52106
2.53803
2.4708
2.48615
2.44073
2.45406
2.41175
2.4112
2.3948
2.40417
2.3869
2.38559
2.37148
2.37165
2.36327
2.36075
2.3437
2.33772
2.32725
2.34377
2.33916
2.41285
2.42518
2.53935
2.43266
2.4902
2.43493
2.46576
2.43254
2.44936
2.4393
2.45263
2.44573
2.47708
2.48687
2.51916
2.58381
2.67213
2.79592
2.90019
2.97504
3.02728
3.05154
3.06658
3.08998
3.11588
3.14271
3.16662
3.17798
3.1832
3.19015
3.19801
3.2077
3.21463
3.21927
3.22118
3.22777
3.23264
3.24578
3.25674
3.28306
3.30168
3.32316
3.33642
3.30111
1.05517
0.968102
0.984867
1.00035
1.05144
1.08059
1.069
1.05006
1.03525
1.00078
0.957179
0.913125
0.899235
0.910396
0.919939
0.944272
0.96672
0.997701
1.028
1.03571
1.03086
1.01088
0.996736
0.975382
0.944413
0.918904
0.894766
0.881478
0.872251
0.872595
0.874409
0.878786
0.886148
0.889493
0.893753
0.898087
0.901827
0.905091
0.903614
0.902831
0.90096
0.897263
0.89374
0.894225
0.89139
0.901436
0.94745
2.21421
2.25266
2.30192
2.34991
2.4819
2.49662
2.6556
2.54537
2.57374
2.47678
2.49001
2.43373
2.45123
2.4053
2.40442
2.38797
2.39876
2.37959
2.37995
2.35915
2.36374
2.36188
2.36703
2.37536
2.3827
2.43694
2.50417
2.57528
2.69501
2.65702
2.74202
2.68326
2.70688
2.66239
2.66967
2.63078
2.63212
2.61757
2.62652
2.61339
2.61899
2.62331
2.6471
2.68491
2.73103
2.82102
2.90048
2.97172
3.02434
3.05717
3.07269
3.08868
3.11426
3.13841
3.15941
3.16933
3.17403
3.17984
3.18736
3.19552
3.20344
3.20974
3.2134
3.22095
3.226
3.23884
3.24966
3.27679
3.29595
3.31762
3.33176
3.29354
0.932605
1.02659
1.01444
0.991326
0.963792
0.936985
0.937185
0.944543
0.964578
0.980827
1.0075
1.0359
1.04405
1.03672
1.02226
1.0115
0.983649
0.958222
0.929251
0.909219
0.907037
0.905603
0.913321
0.922646
0.93153
0.942593
0.951878
0.955071
0.952693
0.946989
0.939574
0.931051
0.922438
0.911784
0.901577
0.890899
0.881081
0.871704
0.862948
0.85438
0.848319
0.842508
0.840299
0.833614
0.824915
0.854138
0.937185
2.25432
2.29759
2.31699
2.33518
2.38123
2.43762
2.59774
2.50782
2.60267
2.49565
2.51945
2.45638
2.48016
2.44428
2.45171
2.44203
2.46048
2.45352
2.46517
2.45437
2.49623
2.55191
2.61844
2.69737
2.77822
2.85199
2.91453
2.95872
2.99531
2.97496
2.98324
2.9371
2.92036
2.90409
2.88602
2.84863
2.8375
2.81801
2.80663
2.7807
2.76209
2.75337
2.7689
2.78849
2.82989
2.88622
2.93939
2.97382
3.02538
3.05446
3.06523
3.08088
3.10637
3.1312
3.15035
3.16038
3.16774
3.17451
3.18119
3.18826
3.19678
3.20367
3.20742
3.21553
3.21967
3.23239
3.24224
3.27053
3.28999
3.31194
3.32589
3.28703
1.04223
0.976349
0.98349
0.986306
1.0179
1.03562
1.0313
1.02176
1.01707
0.998604
0.978916
0.955586
0.943809
0.943661
0.94695
0.957139
0.964528
0.976577
0.989417
0.994407
0.991692
0.983098
0.973313
0.965578
0.948784
0.935425
0.921043
0.90933
0.901065
0.894954
0.891309
0.887975
0.885509
0.885034
0.883021
0.882073
0.880525
0.878189
0.875498
0.87294
0.866361
0.859026
0.84446
0.819194
0.815179
0.864231
1.4551
2.435
2.4235
2.42227
2.42076
2.43372
2.44444
2.53459
2.50476
2.64485
2.54271
2.58341
2.52186
2.54765
2.52328
2.54856
2.55138
2.60383
2.64743
2.72118
2.79837
2.85378
2.92375
2.99803
3.0423
3.09758
3.12729
3.14278
3.14834
3.14429
3.11701
3.0973
3.05357
3.03438
3.01583
2.992
2.9814
2.97165
2.93386
2.89334
2.86656
2.84034
2.81651
2.81834
2.83253
2.86287
2.91368
2.95925
2.98864
3.03433
3.0528
3.05948
3.07878
3.10249
3.12567
3.1425
3.15152
3.16005
3.16763
3.17543
3.18234
3.19045
3.19742
3.20184
3.21011
3.21412
3.22619
3.23498
3.26376
3.28396
3.30647
3.31971
3.28015
0.9506
1.0169
1.01363
1.00444
0.98964
0.973728
0.96841
0.971251
0.978943
0.984456
0.99602
1.00821
1.01325
1.01058
1.00201
0.997819
0.983182
0.971847
0.957371
0.944064
0.93841
0.932906
0.931012
0.930934
0.93078
0.931217
0.931483
0.93112
0.928358
0.924484
0.920432
0.915059
0.908663
0.903587
0.895565
0.889128
0.882934
0.876961
0.873341
0.869867
0.866918
0.863608
0.864442
0.865055
0.865162
0.944025
2.14879
2.49355
2.45897
2.43131
2.40664
2.40116
2.40886
2.44996
2.50001
2.65163
2.57372
2.66599
2.61478
2.67272
2.69753
2.76327
2.82275
2.89691
2.97571
3.01111
3.05756
3.10635
3.10921
3.11669
3.11228
3.12407
3.13618
3.15341
3.15904
3.16482
3.14734
3.1281
3.09545
3.06432
3.03355
3.01494
3.00446
2.98602
2.95638
2.93222
2.90308
2.86822
2.85435
2.8601
2.87701
2.90145
2.93793
2.97643
3.00524
3.03099
3.04193
3.05611
3.07722
3.10246
3.12218
3.1347
3.14133
3.15125
3.16153
3.17138
3.17762
3.18503
3.19218
3.19671
3.20524
3.20898
3.21964
3.22742
3.25561
3.27572
3.29898
3.31326
3.27428
1.02365
0.98539
0.987931
0.985546
1.00192
1.01035
1.01005
1.00588
1.00413
0.995503
0.988238
0.977837
0.969379
0.967617
0.96587
0.968113
0.969124
0.9714
0.973449
0.973614
0.971445
0.965461
0.959224
0.953934
0.943925
0.935774
0.926889
0.918781
0.911099
0.904177
0.89897
0.893313
0.888237
0.884295
0.880271
0.87657
0.873199
0.87014
0.868683
0.867561
0.866135
0.864616
0.866878
0.869688
0.874448
0.970976
2.32117
2.5265
2.49871
2.4695
2.43677
2.42261
2.42276
2.44187
2.48873
2.57902
2.71436
2.76298
2.80723
2.86617
2.95671
2.98791
3.04602
3.07702
3.09473
3.11225
3.12027
3.12645
3.13496
3.13766
3.135
3.13161
3.12989
3.14065
3.14548
3.15304
3.1434
3.12629
3.10244
3.07809
3.05486
3.03588
3.02025
3.00196
2.98187
2.96363
2.93798
2.91216
2.89856
2.89333
2.90206
2.91829
2.94897
2.98338
3.00961
3.0241
3.03626
3.05204
3.07585
3.10201
3.11752
3.12422
3.13117
3.14334
3.15606
3.16731
3.17266
3.18018
3.1867
3.19137
3.20018
3.2031
3.2131
3.21932
3.24628
3.2668
3.29032
3.30599
3.26866
0.969866
1.01063
1.01024
1.00575
0.998252
0.989512
0.984364
0.984253
0.986471
0.987499
0.991215
0.994516
0.996151
0.994501
0.990038
0.985875
0.979515
0.973318
0.965577
0.958207
0.951973
0.946048
0.940745
0.937819
0.933044
0.92852
0.924518
0.920937
0.917605
0.913512
0.909107
0.904215
0.897905
0.892273
0.8877
0.883517
0.879893
0.876426
0.875079
0.873892
0.873622
0.873546
0.878402
0.881644
0.886549
0.988549
2.41414
2.52571
2.4936
2.47185
2.44395
2.43275
2.43089
2.44044
2.50106
2.61205
2.77792
2.87632
2.93472
2.99293
3.0102
3.04072
3.0532
3.07408
3.08627
3.10209
3.11003
3.11545
3.12054
3.12542
3.12822
3.12521
3.115
3.11727
3.11795
3.13119
3.13052
3.12043
3.10378
3.08541
3.06681
3.04465
3.02119
2.99998
2.9869
2.9784
2.9625
2.9461
2.93278
2.92485
2.92499
2.93448
2.95599
2.98031
3.00554
3.01806
3.03014
3.05152
3.07931
3.10328
3.11292
3.11397
3.12214
3.1362
3.15019
3.16173
3.16782
3.17577
3.18166
3.18628
3.19472
3.19731
3.20664
3.21209
3.23738
3.25632
3.28077
3.29763
3.2637
1.00947
0.992552
0.992669
0.989932
0.996902
1.00038
1.00078
0.998431
0.997703
0.993437
0.990883
0.986093
0.981439
0.979097
0.97555
0.974524
0.972802
0.970506
0.96841
0.965808
0.962172
0.956999
0.952053
0.94731
0.939731
0.931645
0.924662
0.918122
0.912013
0.908127
0.902574
0.8934
0.886878
0.88148
0.876675
0.872371
0.868369
0.864692
0.861158
0.85993
0.858182
0.856625
0.857444
0.857103
0.862773
0.973679
2.40902
2.45109
2.42935
2.42867
2.42199
2.44022
2.46347
2.50962
2.60897
2.76389
2.95226
3.0356
3.06014
3.05605
3.06651
3.06744
3.06818
3.06535
3.06681
3.06973
3.07424
3.08072
3.08666
3.09648
3.10905
3.11925
3.11752
3.1126
3.10592
3.1091
3.11099
3.1063
3.0963
3.08461
3.06987
3.05062
3.02769
3.00291
2.9844
2.9738
2.96488
2.95764
2.95089
2.94071
2.93935
2.94181
2.95528
2.97566
2.99993
3.01198
3.02598
3.0524
3.08099
3.09993
3.10469
3.10467
3.11484
3.12953
3.14403
3.15604
3.16375
3.17266
3.17752
3.18139
3.18882
3.19141
3.19969
3.2051
3.22804
3.24563
3.27084
3.28694
3.25877
0.983959
1.0048
1.00571
1.00274
0.99915
0.994886
0.991894
0.990458
0.990466
0.989545
0.989755
0.989727
0.989108
0.98745
0.984573
0.981156
0.976489
0.971903
0.966766
0.961354
0.95654
0.950523
0.945115
0.940697
0.934654
0.926945
0.921087
0.915896
0.911005
0.908133
0.903023
0.898768
0.890301
0.883805
0.87857
0.873918
0.86964
0.865342
0.860629
0.854591
0.848783
0.843543
0.830017
0.816063
0.829492
0.932793
2.29911
2.4046
2.4396
2.4511
2.45625
2.47531
2.52169
2.60834
2.75322
2.94056
3.06853
3.10471
3.09008
3.09891
3.09683
3.10159
3.09622
3.08936
3.07725
3.07151
3.06873
3.06743
3.07074
3.07597
3.07965
3.09269
3.09486
3.09754
3.09794
3.09358
3.09417
3.08896
3.08312
3.0748
3.06476
3.04952
3.03143
3.01119
2.9947
2.98325
2.97063
2.96713
2.96482
2.95453
2.95169
2.95123
2.95943
2.97449
2.99504
3.00808
3.0266
3.05246
3.07578
3.09014
3.09494
3.09645
3.10787
3.12302
3.13804
3.15076
3.16003
3.16952
3.17346
3.17642
3.18284
3.18476
3.193
3.19893
3.21933
3.23455
3.26053
3.27613
3.25481
1.00234
0.99567
0.995543
0.994724
0.996606
0.997669
0.997489
0.995934
0.994896
0.992632
0.991035
0.988531
0.985764
0.982942
0.979677
0.976984
0.973874
0.970234
0.966428
0.963388
0.959038
0.953464
0.947174
0.942288
0.936813
0.928231
0.920998
0.914488
0.908032
0.90361
0.899692
0.893918
0.888461
0.878703
0.871481
0.865314
0.859234
0.852653
0.846086
0.839086
0.831653
0.824585
0.81451
0.805202
0.866311
1.38525
2.41329
2.4378
2.45156
2.45807
2.48082
2.5228
2.61071
2.74014
2.94
3.05412
3.11628
3.10377
3.10321
3.09888
3.10553
3.10191
3.10339
3.10005
3.09867
3.08577
3.07545
3.06606
3.06409
3.06165
3.06629
3.06843
3.06829
3.07601
3.08038
3.08189
3.08223
3.07236
3.06778
3.06212
3.05819
3.04664
3.02917
3.00904
2.99605
2.98438
2.97719
2.9715
2.96702
2.95875
2.95654
2.95754
2.96466
2.97675
2.99264
3.00487
3.02258
3.04366
3.06466
3.07849
3.08476
3.08915
3.10148
3.11693
3.13255
3.146
3.15636
3.16527
3.16861
3.17144
3.17711
3.17888
3.18734
3.19274
3.21089
3.22447
3.24796
3.26518
3.24839
0.992457
1.0009
1.00186
0.999972
0.998776
0.996377
0.994933
0.993267
0.992076
0.991275
0.990367
0.989155
0.98757
0.984842
0.981832
0.978652
0.974889
0.970508
0.965891
0.961267
0.956938
0.950767
0.944636
0.939461
0.934135
0.927631
0.918758
0.911739
0.905833
0.899791
0.896257
0.89145
0.885535
0.880554
0.870717
0.86366
0.857331
0.851193
0.846203
0.841134
0.836201
0.829803
0.827539
0.819515
0.910373
2.17324
2.43377
2.44777
2.45769
2.47467
2.53355
2.61573
2.7657
2.93398
3.07667
3.10508
3.13122
3.11954
3.11529
3.10859
3.10403
3.09671
3.09208
3.08807
3.08461
3.08188
3.07454
3.0682
3.0607
3.05734
3.05472
3.05143
3.05228
3.05288
3.05949
3.06678
3.07095
3.06584
3.06272
3.05408
3.05165
3.04164
3.03115
3.01349
2.99865
2.98381
2.97753
2.97342
2.96905
2.96193
2.95995
2.96087
2.96657
2.97525
2.98725
2.99784
3.0134
3.03164
3.05192
3.06651
3.07475
3.08149
3.09537
3.11179
3.12746
3.14134
3.15151
3.15993
3.16294
3.16626
3.17203
3.17441
3.18232
3.18709
3.2028
3.21562
3.23738
3.25627
3.24097
0.999323
0.997547
0.997497
0.996782
0.997292
0.997128
0.996414
0.995126
0.99414
0.992587
0.990969
0.989407
0.986652
0.983675
0.980405
0.977117
0.973998
0.970176
0.965467
0.960889
0.956441
0.951065
0.944603
0.938596
0.933941
0.927878
0.918926
0.911048
0.904213
0.898148
0.892387
0.889522
0.883948
0.87877
0.872838
0.864078
0.858319
0.853367
0.85027
0.847799
0.847004
0.8471
0.850428
0.863043
0.979329
2.44014
2.47547
2.48439
2.49864
2.53337
2.6155
2.75922
2.9288
3.05163
3.10365
3.10519
3.09724
3.08897
3.08428
3.08412
3.0811
3.07175
3.06868
3.06672
3.06434
3.06352
3.0596
3.05818
3.05266
3.04845
3.04367
3.04223
3.03961
3.03861
3.04391
3.04597
3.05341
3.05819
3.05447
3.0474
3.04497
3.03548
3.02683
3.00948
2.99546
2.98028
2.97437
2.97169
2.96879
2.96654
2.96413
2.96318
2.96564
2.97125
2.98014
2.98915
3.00261
3.01896
3.03886
3.05392
3.06457
3.07414
3.08966
3.10721
3.12196
3.13603
3.14577
3.1538
3.15739
3.16152
3.16757
3.17105
3.17758
3.18144
3.19539
3.20672
3.22861
3.24621
3.23373
0.996699
0.998559
0.999611
0.999007
0.998109
0.99691
0.995745
0.994557
0.993386
0.992075
0.990832
0.989297
0.987187
0.983962
0.980766
0.977369
0.973838
0.970321
0.965562
0.960223
0.954818
0.949482
0.943388
0.937238
0.931498
0.925551
0.918796
0.909934
0.902376
0.89572
0.889531
0.885038
0.880772
0.875486
0.870005
0.86022
0.853856
0.847574
0.842889
0.838186
0.837013
0.833983
0.835542
0.858123
1.09692
2.52048
2.5197
2.54114
2.57422
2.6437
2.77311
2.96058
3.06699
3.11795
3.11984
3.10895
3.09727
3.08545
3.07305
3.07019
3.06281
3.05668
3.05194
3.04784
3.04845
3.04686
3.04385
3.04254
3.03928
3.03643
3.03227
3.02918
3.02718
3.02836
3.03045
3.02919
3.03457
3.04044
3.04511
3.04297
3.03883
3.03169
3.02555
3.00911
2.99671
2.97906
2.97239
2.97033
2.9675
2.9669
2.96556
2.96442
2.96496
2.96772
2.97324
2.98038
2.99248
3.0072
3.02634
3.04128
3.05502
3.06809
3.08485
3.10301
3.11629
3.13
3.13926
3.14685
3.15186
3.15721
3.16323
3.16811
3.17273
3.17518
3.18834
3.19934
3.22076
3.23802
3.22579
0.99826
0.997889
0.998357
0.997841
0.997779
0.997144
0.996135
0.995144
0.994285
0.992642
0.991108
0.989424
0.986924
0.983707
0.980387
0.976951
0.973368
0.969972
0.965804
0.959922
0.954063
0.948058
0.942226
0.936863
0.93063
0.923936
0.917135
0.909691
0.901838
0.894474
0.887899
0.882711
0.879752
0.874418
0.869364
0.859226
0.852777
0.846872
0.84175
0.835865
0.829191
0.819012
0.816709
0.850128
1.41043
2.61648
2.60313
2.6256
2.67882
2.78555
2.92833
3.09364
3.11024
3.12556
3.1184
3.10485
3.0979
3.08439
3.07084
3.06299
3.05414
3.0481
3.04159
3.03662
3.03421
3.03176
3.03188
3.03083
3.02729
3.02549
3.02054
3.01585
3.0154
3.01759
3.01648
3.01623
3.0168
3.01973
3.02964
3.03229
3.02828
3.02277
3.01654
3.00249
2.99256
2.9762
2.9699
2.96528
2.96524
2.96565
2.96539
2.96376
2.96357
2.9644
2.96707
2.97211
2.9832
2.9967
3.01532
3.03059
3.04778
3.06354
3.08099
3.09842
3.11017
3.12277
3.1317
3.13918
3.146
3.15343
3.15937
3.16434
3.16639
3.1684
3.18269
3.19378
3.21464
3.22868
3.21805
0.997191
0.998087
0.999146
0.998716
0.998026
0.997104
0.996035
0.995063
0.994189
0.992476
0.990953
0.989199
0.986972
0.983712
0.98042
0.976803
0.973197
0.969677
0.965418
0.959426
0.953391
0.947212
0.9411
0.935855
0.930019
0.921689
0.914372
0.907493
0.900979
0.893486
0.885802
0.87853
0.874369
0.868582
0.862405
0.850892
0.843634
0.837441
0.833462
0.829746
0.830068
0.832119
0.840641
0.89815
1.55973
2.67913
2.65208
2.69201
2.78039
2.9066
3.01704
3.10657
3.10004
3.10436
3.10211
3.09447
3.08522
3.08358
3.07426
3.06203
3.05213
3.04184
3.03059
3.02466
3.02209
3.0202
3.02003
3.01687
3.01583
3.01394
3.00817
3.0054
3.00318
3.0011
3.0017
3.00296
3.00049
3.00214
3.01081
3.01526
3.01841
3.0134
3.00774
2.99686
2.98906
2.97511
2.96856
2.96281
2.96422
2.96379
2.96412
2.96239
2.96137
2.96117
2.96239
2.96536
2.97487
2.98751
3.00556
3.02167
3.04174
3.05939
3.07798
3.09317
3.10324
3.1149
3.12384
3.13162
3.13988
3.14937
3.1549
3.15844
3.1594
3.1622
3.17803
3.18914
3.20741
3.21964
3.20928
0.997559
0.998164
0.998478
0.99826
0.997903
0.997282
0.996246
0.995249
0.994418
0.992625
0.990826
0.989082
0.9868
0.983572
0.980279
0.976587
0.973169
0.969343
0.964793
0.958614
0.952749
0.946768
0.940562
0.934661
0.92868
0.921052
0.912724
0.905462
0.899234
0.893298
0.886106
0.877027
0.869939
0.865715
0.859385
0.853353
0.846005
0.842407
0.841204
0.840565
0.845186
0.848243
0.854256
0.935037
1.42223
2.65636
2.66926
2.74102
2.86817
3.01296
3.04035
3.07431
3.06833
3.06816
3.06299
3.06518
3.05716
3.05452
3.0569
3.0516
3.04533
3.04099
3.02912
3.01724
3.01019
3.0083
3.00391
3.00152
3.00073
2.99698
2.99388
2.99181
2.98795
2.98832
2.9873
2.98404
2.98296
2.98668
2.99017
2.9968
3.01028
3.00404
2.99954
2.99152
2.98292
2.96803
2.96257
2.95634
2.9585
2.96015
2.96191
2.96078
2.95847
2.95781
2.95897
2.96036
2.96819
2.97982
2.99678
3.01347
3.03457
3.05297
3.07221
3.0851
3.0945
3.1063
3.11567
3.1244
3.13412
3.14403
3.1482
3.15089
3.15279
3.15639
3.17409
3.18519
3.20294
3.21173
3.20047
0.99753
0.998249
0.998725
0.998484
0.997925
0.997198
0.996196
0.995225
0.994345
0.992635
0.990725
0.988842
0.986476
0.983438
0.980261
0.976632
0.972889
0.96905
0.964344
0.957922
0.951983
0.945935
0.94027
0.933494
0.926846
0.919839
0.911199
0.90306
0.895486
0.891103
0.884454
0.874485
0.864269
0.855832
0.84958
0.843021
0.836595
0.827874
0.819503
0.810771
0.805439
0.80011
0.787361
0.932832
1.33335
2.51397
2.54654
2.72896
2.84454
2.99197
2.97496
2.99378
2.99314
2.99112
3.00046
3.00805
3.00795
3.01045
3.01387
3.01644
3.01855
3.01851
3.01252
3.00735
3.00118
2.9932
2.98585
2.98353
2.97948
2.97678
2.97584
2.97303
2.97158
2.97186
2.96873
2.96582
2.96468
2.96482
2.96807
2.97805
2.99179
2.99165
2.99443
2.98686
2.98013
2.9676
2.95959
2.95254
2.9542
2.95585
2.95785
2.95713
2.9555
2.9541
2.95545
2.95622
2.96268
2.9728
2.98844
3.0055
3.02679
3.04502
3.06341
3.07478
3.08476
3.09752
3.10758
3.11784
3.12785
3.13745
3.14122
3.14287
3.14661
3.15147
3.17015
3.18149
3.19621
3.20301
3.19204
0.997899
0.998396
0.998349
0.998119
0.997731
0.997118
0.996288
0.995299
0.994334
0.992564
0.990665
0.988703
0.986188
0.983246
0.980013
0.976735
0.972591
0.968321
0.963732
0.957664
0.95133
0.945084
0.939476
0.933103
0.924964
0.91757
0.910128
0.901673
0.893134
0.885403
0.880327
0.872665
0.862247
0.849387
0.838046
0.827733
0.819055
0.811188
0.801155
0.789036
0.763388
0.756973
0.75512
0.999103
1.79976
2.2983
2.43773
2.74196
2.84643
2.91184
2.88868
2.90784
2.91751
2.91627
2.93556
2.95294
2.96129
2.96649
2.97257
2.98248
2.98897
2.99276
2.99318
2.9934
2.99012
2.98524
2.9794
2.9704
2.96258
2.96049
2.95662
2.95247
2.95312
2.95351
2.95206
2.95073
2.95098
2.94971
2.9512
2.95875
2.97051
2.9791
2.98703
2.98073
2.97671
2.96716
2.95866
2.94688
2.94608
2.94692
2.95111
2.95235
2.95249
2.95097
2.95151
2.95173
2.95765
2.9658
2.98015
2.99733
3.01825