/*--------------------------------*- C++ -*----------------------------------*\
| =========                 |                                                 |
| \\      /  F ield         | OpenFOAM: The Open Source CFD Toolbox           |
|  \\    /   O peration     | Version:  2.2.x                                 |
|   \\  /    A nd           | Web:      www.OpenFOAM.org                      |
|    \\/     M anipulation  |                                                 |
\*---------------------------------------------------------------------------*/
FoamFile
{
    version     2.0;
    format      ascii;
    class       volScalarField;
    location    "1.5";
    object      Bz;
}
// * * * * * * * * * * * * * * * * * * * * * * * * * * * * * * * * * * * * * //

dimensions      [1 0 -2 0 0 -1 0];

internalField   nonuniform List<scalar> 
14161
(
3.4897e-16
3.47856e-16
3.44764e-16
3.02077e-16
2.84657e-16
2.63334e-16
2.47895e-16
2.44333e-16
2.41478e-16
2.3645e-16
2.3047e-16
2.1872e-16
2.09299e-16
1.96446e-16
1.87794e-16
1.80279e-16
1.73385e-16
1.65831e-16
1.63057e-16
1.59723e-16
1.55127e-16
1.50231e-16
1.42475e-16
1.39831e-16
1.3446e-16
1.30428e-16
1.29538e-16
1.276e-16
1.27433e-16
1.21766e-16
1.36123e-16
7.9419e-17
2.40542e-16
8.65022e-16
9.97419e-16
7.66546e-16
8.02206e-16
7.88917e-16
7.17349e-16
6.24584e-16
5.97635e-16
5.45746e-16
5.18718e-16
4.92938e-16
4.8597e-16
4.69819e-16
4.63055e-16
4.50444e-16
4.37073e-16
4.1362e-16
3.78914e-16
3.44919e-16
3.04227e-16
2.7802e-16
2.5809e-16
2.4562e-16
2.46834e-16
2.49066e-16
2.44385e-16
2.39569e-16
2.38904e-16
2.33587e-16
2.23102e-16
2.1174e-16
1.86739e-16
1.63307e-16
1.55011e-16
1.4729e-16
1.42169e-16
1.38066e-16
1.38303e-16
1.37284e-16
1.3286e-16
1.25173e-16
1.20773e-16
1.17284e-16
1.18036e-16
1.19497e-16
1.22302e-16
1.23158e-16
1.25882e-16
1.23038e-16
1.26802e-16
1.41175e-16
1.6568e-16
2.00407e-16
2.63306e-16
3.22375e-16
3.29084e-16
2.87642e-16
2.42958e-16
1.91641e-16
1.70998e-16
1.48603e-16
1.40706e-16
1.5168e-16
1.1775e-16
1.00023e-16
8.28466e-17
7.2414e-17
6.40257e-17
5.95257e-17
5.68352e-17
5.57303e-17
5.51188e-17
5.51447e-17
5.15223e-17
4.59129e-17
4.02984e-17
3.62675e-17
2.95275e-17
2.28911e-17
1.76208e-17
1.11904e-17
5.21324e-18
-1.43367e-17
-4.21369e-17
-3.76983e-17
-5.74088e-17
7.20013e-16
6.63146e-16
5.97961e-16
5.35741e-16
4.7045e-16
4.35519e-16
4.34224e-16
4.77943e-16
4.95689e-16
4.97516e-16
4.89835e-16
4.69136e-16
4.48203e-16
4.12275e-16
3.99829e-16
3.9436e-16
3.94374e-16
4.06158e-16
3.96539e-16
3.91459e-16
3.82885e-16
3.70484e-16
3.56905e-16
3.29271e-16
3.19858e-16
3.07593e-16
3.10157e-16
3.01414e-16
2.95574e-16
2.8939e-16
2.85109e-16
2.80096e-16
3.36739e-16
1.1297e-15
1.23684e-15
1.32231e-15
1.39051e-15
1.03767e-15
9.03626e-16
8.31868e-16
7.694e-16
6.93316e-16
6.53883e-16
6.1373e-16
5.91573e-16
5.74765e-16
5.53994e-16
5.27454e-16
4.94911e-16
4.61706e-16
4.29323e-16
4.07551e-16
3.91186e-16
3.7998e-16
3.74398e-16
3.74158e-16
3.66844e-16
3.55843e-16
3.4287e-16
3.31976e-16
3.20117e-16
3.11487e-16
3.0383e-16
2.93599e-16
2.92877e-16
2.9042e-16
2.86462e-16
2.85153e-16
2.81753e-16
2.79546e-16
2.75422e-16
2.71775e-16
2.70386e-16
2.75998e-16
2.89547e-16
2.99365e-16
3.11836e-16
3.35264e-16
3.53093e-16
3.67376e-16
3.83831e-16
3.93601e-16
4.1163e-16
4.32965e-16
4.6506e-16
4.86702e-16
4.97971e-16
4.62498e-16
3.714e-16
3.05017e-16
1.80735e-16
1.53581e-16
1.30545e-16
1.08469e-16
1.14525e-16
1.12483e-16
9.7006e-17
9.869e-17
9.67819e-17
8.16428e-17
7.24658e-17
6.53365e-17
6.22146e-17
5.97261e-17
5.88503e-17
5.59999e-17
5.29889e-17
4.88634e-17
4.4786e-17
3.98415e-17
3.63587e-17
2.60658e-17
2.15358e-17
8.12993e-19
-7.95637e-18
-4.37819e-17
-7.81689e-17
-1.15956e-16
-2.48154e-16
1.47621e-15
1.46508e-15
1.42668e-15
1.41027e-15
1.30553e-15
1.23656e-15
1.15497e-15
1.04623e-15
9.19645e-16
8.33328e-16
8.01184e-16
7.72767e-16
7.5745e-16
7.38755e-16
7.17912e-16
6.8138e-16
6.48758e-16
5.81965e-16
5.30114e-16
5.12993e-16
4.98892e-16
4.90802e-16
5.05948e-16
5.05819e-16
5.02143e-16
4.90366e-16
4.80756e-16
4.7093e-16
4.59101e-16
4.46019e-16
4.43602e-16
4.56571e-16
6.41586e-16
1.6397e-15
1.57354e-15
1.30863e-15
1.23711e-15
1.18588e-15
1.06991e-15
9.67679e-16
8.31628e-16
7.23343e-16
6.51367e-16
6.00518e-16
5.6935e-16
5.42135e-16
5.1783e-16
4.9969e-16
4.92703e-16
4.78613e-16
4.69628e-16
4.61589e-16
4.45906e-16
4.26684e-16
4.04727e-16
3.91433e-16
3.64941e-16
3.44935e-16
3.32025e-16
3.24236e-16
3.16372e-16
3.16281e-16
3.1085e-16
3.0728e-16
3.10818e-16
3.07694e-16
3.09055e-16
3.0899e-16
3.14046e-16
3.14786e-16
3.26675e-16
3.3087e-16
3.43897e-16
3.7061e-16
3.84465e-16
4.04131e-16
4.352e-16
4.52676e-16
4.60689e-16
4.57509e-16
4.51887e-16
4.46852e-16
4.46468e-16
4.47081e-16
4.34096e-16
4.38588e-16
4.14897e-16
4.19991e-16
3.64567e-16
3.32275e-16
2.22857e-16
1.73109e-16
1.11914e-16
1.053e-16
1.00285e-16
9.38749e-17
1.00152e-16
9.51508e-17
8.51862e-17
7.69942e-17
7.30424e-17
7.24163e-17
7.26963e-17
6.96684e-17
6.52317e-17
5.74612e-17
5.21673e-17
4.14015e-17
3.5099e-17
2.80076e-17
2.32948e-17
1.22434e-17
8.26069e-18
-7.51702e-18
-1.42263e-17
-5.52269e-17
-1.00681e-16
-1.61975e-16
-3.74701e-16
9.80218e-16
8.6033e-16
6.95391e-16
5.55869e-16
4.40085e-16
4.30965e-16
4.63594e-16
5.53437e-16
5.87748e-16
5.95722e-16
5.95095e-16
5.69182e-16
5.31941e-16
4.81382e-16
4.71139e-16
4.65854e-16
4.71132e-16
4.90317e-16
5.03266e-16
4.99576e-16
4.89006e-16
4.80063e-16
4.52949e-16
4.09588e-16
3.99625e-16
3.91818e-16
3.80892e-16
3.84762e-16
3.75148e-16
3.67739e-16
3.60282e-16
3.49056e-16
3.70093e-16
1.43581e-15
1.23552e-15
1.1514e-15
9.42497e-16
8.53829e-16
6.62257e-16
5.97291e-16
5.61984e-16
5.13805e-16
4.8175e-16
4.62189e-16
4.53025e-16
4.471e-16
4.23528e-16
4.06754e-16
4.03173e-16
3.8e-16
3.6927e-16
3.5839e-16
3.49569e-16
3.3986e-16
3.29224e-16
3.19009e-16
3.08753e-16
2.99051e-16
2.83228e-16
2.74511e-16
2.6897e-16
2.57336e-16
2.45758e-16
2.42995e-16
2.38042e-16
2.30835e-16
2.27115e-16
2.27954e-16
2.34034e-16
2.35441e-16
2.44152e-16
2.49641e-16
2.60345e-16
2.79804e-16
2.97845e-16
3.14508e-16
3.3513e-16
3.56271e-16
3.73996e-16
3.79024e-16
3.65264e-16
3.5641e-16
3.19681e-16
3.11734e-16
2.7269e-16
2.88932e-16
2.71915e-16
2.90943e-16
2.98534e-16
3.27713e-16
2.81106e-16
2.58116e-16
1.83393e-16
1.67984e-16
1.3431e-16
1.24999e-16
1.10466e-16
9.10521e-17
8.14641e-17
8.14665e-17
8.43099e-17
8.46838e-17
8.31947e-17
7.95617e-17
7.4578e-17
6.73723e-17
6.4942e-17
5.25296e-17
4.20371e-17
2.8689e-17
1.80536e-17
9.58277e-18
4.1123e-18
-7.26377e-18
-1.96823e-17
-3.26856e-17
-6.71725e-17
-1.35852e-16
-3.3657e-16
1.0632e-15
1.11516e-15
1.15624e-15
1.19481e-15
1.1078e-15
1.05194e-15
9.85914e-16
8.81161e-16
7.39045e-16
6.48267e-16
6.18826e-16
5.9926e-16
5.98211e-16
6.21524e-16
6.02139e-16
5.7015e-16
5.36449e-16
4.71718e-16
4.12448e-16
3.91822e-16
3.73137e-16
3.64831e-16
3.72644e-16
3.91594e-16
3.92735e-16
3.86229e-16
3.86849e-16
3.79717e-16
3.59411e-16
3.52319e-16
3.44562e-16
3.56288e-16
4.77593e-16
1.42274e-15
1.32899e-15
1.20811e-15
1.04085e-15
9.20555e-16
8.28891e-16
7.34444e-16
6.88797e-16
6.15489e-16
5.63628e-16
5.15665e-16
4.94629e-16
4.62046e-16
4.2931e-16
4.09701e-16
3.86734e-16
3.66588e-16
3.39793e-16
3.18137e-16
3.06659e-16
2.94758e-16
2.76575e-16
2.60049e-16
2.4612e-16
2.33385e-16
2.23951e-16
2.09571e-16
1.88845e-16
1.71441e-16
1.58023e-16
1.41851e-16
1.34176e-16
1.30744e-16
1.27388e-16
1.33004e-16
1.37179e-16
1.40354e-16
1.45343e-16
1.53679e-16
1.63577e-16
1.75125e-16
1.88682e-16
2.03571e-16
2.22241e-16
2.53041e-16
2.7349e-16
3.09757e-16
3.11705e-16
3.1845e-16
2.91565e-16
2.78646e-16
2.47001e-16
2.43282e-16
2.19793e-16
2.31749e-16
2.47419e-16
2.81293e-16
2.72916e-16
2.73627e-16
2.30451e-16
2.0395e-16
1.66647e-16
1.46637e-16
1.25636e-16
1.07155e-16
1.04198e-16
1.06337e-16
1.06824e-16
1.05806e-16
1.02551e-16
9.90059e-17
9.02253e-17
8.01282e-17
7.00174e-17
5.93874e-17
4.61741e-17
3.40066e-17
2.60805e-17
2.07307e-17
1.27705e-17
1.12036e-17
-1.14749e-18
-2.97392e-17
-4.58489e-17
-9.20201e-17
-2.22629e-16
8.31666e-16
7.2341e-16
5.57512e-16
4.08925e-16
3.02184e-16
2.91195e-16
3.21611e-16
3.86996e-16
4.30441e-16
4.34552e-16
4.324e-16
4.13539e-16
3.88315e-16
3.42614e-16
3.24496e-16
3.13783e-16
3.12426e-16
3.2188e-16
3.36697e-16
3.32823e-16
3.24568e-16
3.22127e-16
2.99388e-16
2.74148e-16
2.66109e-16
2.56841e-16
2.49993e-16
2.46234e-16
2.37636e-16
2.31485e-16
2.23951e-16
2.25208e-16
3.06825e-16
8.494e-16
8.9232e-16
9.97092e-16
9.49296e-16
8.21829e-16
6.72051e-16
5.64228e-16
5.06451e-16
4.2089e-16
3.91421e-16
3.7058e-16
3.55352e-16
3.37494e-16
3.13145e-16
2.91462e-16
2.73796e-16
2.58385e-16
2.42264e-16
2.16998e-16
1.94127e-16
1.82818e-16
1.76607e-16
1.63381e-16
1.45395e-16
1.38323e-16
1.34045e-16
1.25347e-16
1.14069e-16
1.0498e-16
9.63946e-17
8.99165e-17
8.12269e-17
7.33364e-17
6.46241e-17
5.86071e-17
5.53593e-17
5.42872e-17
5.08963e-17
4.90896e-17
4.70795e-17
4.91706e-17
5.39453e-17
6.73044e-17
7.84587e-17
1.06592e-16
1.30352e-16
1.65248e-16
1.98141e-16
2.19957e-16
2.22302e-16
2.24831e-16
2.16916e-16
2.08913e-16
1.91476e-16
1.97914e-16
2.01216e-16
2.47424e-16
2.63701e-16
2.92733e-16
2.59198e-16
2.35393e-16
1.93133e-16
1.71407e-16
1.51104e-16
1.36097e-16
1.27836e-16
1.24629e-16
1.23845e-16
1.21993e-16
1.22471e-16
1.19879e-16
1.08763e-16
9.64099e-17
8.54281e-17
7.53912e-17
6.30846e-17
5.05487e-17
4.02204e-17
3.45452e-17
2.84671e-17
2.47447e-17
2.32153e-17
5.96763e-18
-5.72834e-18
-4.2213e-17
-1.10102e-16
4.41384e-16
4.85038e-16
5.4351e-16
5.99855e-16
5.66451e-16
5.34462e-16
4.98324e-16
4.45801e-16
3.69081e-16
3.10915e-16
2.9355e-16
2.74541e-16
2.75312e-16
2.96609e-16
2.7773e-16
2.56299e-16
2.38095e-16
2.10728e-16
1.75807e-16
1.5862e-16
1.47202e-16
1.38969e-16
1.41074e-16
1.4788e-16
1.48145e-16
1.47271e-16
1.44007e-16
1.41101e-16
1.32532e-16
1.28707e-16
1.24167e-16
1.27149e-16
1.97463e-16
5.82987e-16
7.1434e-16
7.98797e-16
7.02899e-16
6.05786e-16
5.15056e-16
4.34172e-16
4.0289e-16
3.56324e-16
3.24404e-16
2.91325e-16
2.71878e-16
2.46553e-16
2.24324e-16
2.01972e-16
1.88594e-16
1.7929e-16
1.61437e-16
1.45698e-16
1.36986e-16
1.29641e-16
1.155e-16
1.02148e-16
9.47619e-17
8.53115e-17
7.59315e-17
6.70328e-17
6.02109e-17
5.61544e-17
4.97299e-17
4.4293e-17
3.89778e-17
3.58641e-17
3.55151e-17
3.22502e-17
2.90172e-17
2.35332e-17
1.87865e-17
1.55418e-17
1.25341e-17
1.14128e-17
1.05232e-17
1.17782e-17
1.51001e-17
2.12904e-17
3.00777e-17
3.85087e-17
6.15585e-17
7.7954e-17
9.14842e-17
1.15928e-16
1.16678e-16
1.35893e-16
1.28261e-16
1.61828e-16
1.67157e-16
2.06586e-16
2.33808e-16
2.79602e-16
2.77963e-16
2.69917e-16
2.28872e-16
1.95197e-16
1.82482e-16
1.59691e-16
1.38656e-16
1.36408e-16
1.39268e-16
1.42312e-16
1.44254e-16
1.41853e-16
1.33029e-16
1.18903e-16
1.07126e-16
9.58532e-17
8.54398e-17
7.26186e-17
6.36942e-17
4.90956e-17
4.47355e-17
4.08434e-17
3.35928e-17
2.19987e-17
1.70807e-17
-1.72116e-17
-4.26492e-17
3.59429e-16
3.11216e-16
2.35088e-16
1.64221e-16
1.15903e-16
1.09411e-16
1.20325e-16
1.4374e-16
1.68551e-16
1.70853e-16
1.67538e-16
1.55511e-16
1.47002e-16
1.26359e-16
1.11684e-16
1.05592e-16
1.02171e-16
1.02705e-16
1.08167e-16
1.06128e-16
1.02356e-16
9.8283e-17
9.14079e-17
8.91079e-17
8.0043e-17
7.52843e-17
7.34073e-17
6.99528e-17
6.93537e-17
6.51177e-17
6.23373e-17
6.08912e-17
9.37347e-17
2.84662e-16
4.05082e-16
4.58196e-16
4.24106e-16
3.36888e-16
2.59069e-16
2.09828e-16
1.78124e-16
1.51676e-16
1.40947e-16
1.30695e-16
1.30161e-16
1.17285e-16
1.13943e-16
1.0495e-16
9.89672e-17
9.10015e-17
8.09655e-17
7.3726e-17
6.79794e-17
5.93777e-17
5.16539e-17
4.62779e-17
3.99136e-17
3.5254e-17
3.17762e-17
2.90701e-17
2.55914e-17
2.23474e-17
1.94074e-17
1.75675e-17
1.62772e-17
1.4965e-17
1.34308e-17
1.112e-17
1.0855e-17
1.01107e-17
1.03541e-17
1.02642e-17
1.07582e-17
1.15944e-17
1.27402e-17
1.39506e-17
1.71274e-17
2.15132e-17
2.74642e-17
2.93819e-17
5.00909e-17
6.26837e-17
6.54289e-17
7.67291e-17
7.5783e-17
8.40817e-17
7.77337e-17
9.40071e-17
9.36818e-17
1.85991e-16
2.11731e-16
2.42893e-16
2.76937e-16
2.88206e-16
2.60673e-16
2.22404e-16
1.93758e-16
2.00403e-16
1.91178e-16
1.65456e-16
1.56309e-16
1.55224e-16
1.57075e-16
1.61119e-16
1.58629e-16
1.44864e-16
1.29166e-16
1.16447e-16
1.06609e-16
9.01855e-17
7.71607e-17
6.22604e-17
5.25711e-17
4.32424e-17
3.43387e-17
2.76215e-17
2.84284e-17
3.18692e-18
-4.8528e-18
9.7925e-17
1.11503e-16
1.32225e-16
1.56694e-16
1.52479e-16
1.43622e-16
1.32828e-16
1.18619e-16
9.88458e-17
8.01245e-17
7.29828e-17
6.59728e-17
6.34018e-17
6.89675e-17
6.00528e-17
5.41925e-17
4.84717e-17
4.17739e-17
3.39905e-17
2.71074e-17
2.49699e-17
2.30999e-17
2.33185e-17
2.38303e-17
2.28825e-17
2.22367e-17
2.07895e-17
1.97749e-17
1.85571e-17
1.73324e-17
1.66809e-17
1.60962e-17
2.02222e-17
5.76447e-17
2.56038e-16
2.59031e-16
2.08597e-16
1.76959e-16
1.50683e-16
1.37685e-16
1.14219e-16
1.03557e-16
9.45562e-17
8.75142e-17
8.15773e-17
7.10353e-17
6.76359e-17
5.69417e-17
5.42815e-17
4.56818e-17
4.04147e-17
3.47199e-17
2.98097e-17
2.54907e-17
2.17744e-17
1.82605e-17
1.60927e-17
1.35694e-17
1.14631e-17
9.74054e-18
8.05562e-18
6.6604e-18
5.94175e-18
4.4983e-18
3.70072e-18
3.17536e-18
2.72135e-18
2.50176e-18
2.21425e-18
1.84762e-18
1.69832e-18
1.49773e-18
1.14834e-18
6.94524e-19
1.00262e-19
5.69832e-19
7.01584e-20
2.61899e-18
4.60528e-18
1.0652e-17
1.59746e-17
2.37374e-17
2.82878e-17
3.85775e-17
4.32021e-17
4.6924e-17
5.32161e-17
7.68687e-17
6.70524e-17
1.0062e-16
1.60636e-16
2.08616e-16
2.69273e-16
2.88833e-16
3.11534e-16
2.4937e-16
1.88596e-16
1.9537e-16
2.24689e-16
2.17075e-16
1.84095e-16
1.72319e-16
1.6432e-16
1.6219e-16
1.61014e-16
1.53779e-16
1.45684e-16
1.3646e-16
1.26063e-16
1.09351e-16
9.36559e-17
7.99782e-17
6.33721e-17
6.40923e-17
4.70737e-17
3.43335e-17
3.45587e-17
1.62664e-17
1.83551e-17
7.58033e-17
6.47056e-17
4.8511e-17
3.24867e-17
2.19785e-17
2.07709e-17
2.25615e-17
2.66508e-17
3.27944e-17
3.21363e-17
3.06305e-17
2.74415e-17
2.48657e-17
2.03999e-17
1.75423e-17
1.64617e-17
1.55313e-17
1.58376e-17
1.70562e-17
1.64357e-17
1.5685e-17
1.43665e-17
1.35295e-17
1.2238e-17
1.09217e-17
1.07066e-17
9.96631e-18
9.21144e-18
9.02561e-18
8.11973e-18
8.06659e-18
7.70339e-18
8.39259e-18
1.81279e-17
1.05021e-16
9.5044e-17
8.59973e-17
6.98299e-17
4.64835e-17
4.17518e-17
2.68285e-17
2.13024e-17
1.68999e-17
1.46206e-17
1.27901e-17
8.46129e-18
7.30555e-18
3.03575e-18
2.75203e-18
-1.02427e-18
-2.24998e-18
-4.07149e-18
-4.38169e-18
-5.02071e-18
-5.13705e-18
-5.0778e-18
-4.68861e-18
-4.361e-18
-3.67085e-18
-3.31785e-18
-2.69267e-18
-2.41482e-18
-2.01995e-18
-2.07264e-18
-1.95771e-18
-2.05832e-18
-2.04741e-18
-2.11426e-18
-2.07692e-18
-1.88427e-18
-1.70474e-18
-1.71516e-18
-1.79336e-18
-1.93757e-18
-2.11646e-18
-2.17282e-18
-2.46105e-18
-1.67694e-18
3.79929e-19
4.21043e-18
6.54678e-18
1.01981e-17
1.14097e-17
1.34467e-17
1.57991e-17
1.79096e-17
2.70362e-17
4.57859e-17
5.46104e-17
6.51802e-17
1.01077e-16
1.65883e-16
2.26775e-16
3.14511e-16
2.86684e-16
3.05948e-16
3.00055e-16
1.94979e-16
1.73888e-16
2.16426e-16
2.22092e-16
2.1685e-16
2.04472e-16
1.83939e-16
1.71357e-16
1.62656e-16
1.50925e-16
1.4034e-16
1.33033e-16
1.26502e-16
1.03575e-16
9.15276e-17
6.17872e-17
5.60346e-17
4.75311e-17
3.43155e-17
3.19245e-17
1.50914e-17
1.55898e-17
1.1509e-17
1.36012e-17
1.64665e-17
2.08199e-17
2.10406e-17
2.00768e-17
1.86485e-17
1.6249e-17
1.36695e-17
1.04727e-17
9.24038e-18
8.34766e-18
7.8006e-18
8.31532e-18
7.17856e-18
6.49119e-18
5.35175e-18
4.30825e-18
3.29405e-18
2.39458e-18
2.25988e-18
2.29902e-18
2.33256e-18
2.28896e-18
2.12036e-18
1.82484e-18
1.74875e-18
1.48862e-18
1.53539e-18
1.3844e-18
1.5025e-18
1.56554e-18
2.2391e-18
1.04897e-17
5.83238e-17
5.62773e-17
4.69893e-17
3.41947e-17
2.4547e-17
2.10879e-17
1.77615e-17
1.69795e-17
1.59676e-17
1.44199e-17
1.36313e-17
1.22652e-17
1.14636e-17
1.00573e-17
9.19748e-18
7.56913e-18
6.82116e-18
6.89036e-18
6.69409e-18
6.44176e-18
6.09862e-18
6.49972e-18
6.26204e-18
6.64252e-18
7.27978e-18
7.53887e-18
7.68836e-18
7.63634e-18
7.63254e-18
7.53458e-18
7.28437e-18
7.18929e-18
7.28964e-18
7.29419e-18
7.3399e-18
7.0854e-18
6.67576e-18
6.25639e-18
6.1305e-18
5.86046e-18
6.06208e-18
5.83099e-18
6.7868e-18
6.9507e-18
7.48626e-18
7.08793e-18
7.10449e-18
6.99596e-18
6.24073e-18
6.17796e-18
6.75774e-18
6.34397e-18
9.6306e-18
2.20318e-17
3.28972e-17
4.90967e-17
6.05871e-17
1.20133e-16
1.78379e-16
2.68119e-16
2.91385e-16
2.96823e-16
2.40097e-16
2.54328e-16
2.78161e-16
2.30419e-16
1.76498e-16
2.05605e-16
2.21275e-16
1.89577e-16
1.69685e-16
1.64592e-16
1.61615e-16
1.51379e-16
1.37317e-16
1.26245e-16
1.21605e-16
1.2308e-16
1.08508e-16
6.9361e-17
4.62956e-17
3.67262e-17
3.50074e-17
2.00317e-17
1.6146e-17
8.98697e-18
7.62779e-18
5.7746e-18
3.80351e-18
2.60783e-18
2.49801e-18
2.7616e-18
3.03528e-18
3.90365e-18
3.55774e-18
3.23415e-18
2.82318e-18
2.38229e-18
1.97477e-18
1.73544e-18
1.67541e-18
1.65066e-18
1.90659e-18
2.10728e-18
2.15427e-18
2.0972e-18
1.95465e-18
1.78305e-18
1.58217e-18
1.45056e-18
1.40893e-18
1.3975e-18
1.2475e-18
1.38372e-18
1.46039e-18
1.32229e-18
1.36919e-18
2.3488e-18
9.37962e-18
3.2153e-17
2.55326e-17
2.4845e-17
1.77677e-17
1.33228e-17
1.19763e-17
1.02964e-17
8.91155e-18
7.99013e-18
6.98263e-18
6.20114e-18
5.46611e-18
5.15993e-18
4.3172e-18
3.87331e-18
3.50427e-18
3.29421e-18
2.98792e-18
2.37683e-18
1.75198e-18
1.49571e-18
1.37161e-18
1.4333e-18
1.43353e-18
1.67773e-18
2.54987e-18
3.13506e-18
3.12831e-18
2.84481e-18
2.72613e-18
2.5228e-18
2.4249e-18
2.53023e-18
2.57657e-18
2.87337e-18
3.2e-18
3.5792e-18
3.72015e-18
3.68744e-18
3.61951e-18
3.69407e-18
4.10988e-18
5.02914e-18
5.51739e-18
5.98493e-18
4.55596e-18
3.06634e-18
1.94126e-18
1.05906e-18
2.92529e-19
-1.46309e-18
-8.9384e-19
-2.19365e-18
6.14443e-18
1.25723e-17
2.86724e-17
3.97978e-17
9.55818e-17
1.49845e-16
2.29664e-16
2.85087e-16
2.39741e-16
2.48511e-16
2.89892e-16
2.15446e-16
1.60787e-16
1.96966e-16
2.25082e-16
2.23261e-16
1.86936e-16
1.70514e-16
1.6811e-16
1.53841e-16
1.35001e-16
1.337e-16
1.30068e-16
1.11086e-16
9.10805e-17
9.60411e-17
8.43952e-17
5.75164e-17
3.79611e-17
3.59068e-17
1.98937e-17
1.74656e-17
9.56636e-19
1.17182e-18
1.38755e-18
1.78055e-18
1.92414e-18
1.89334e-18
1.80526e-18
1.5377e-18
1.3397e-18
1.00688e-18
8.98592e-19
8.85845e-19
9.03565e-19
1.02611e-18
9.84546e-19
9.25576e-19
7.76228e-19
6.47395e-19
5.01914e-19
4.10333e-19
4.16296e-19
4.4163e-19
4.5507e-19
4.89114e-19
5.23319e-19
5.02186e-19
4.60753e-19
5.00743e-19
3.32807e-19
4.93404e-19
2.2512e-19
4.41712e-19
5.53066e-19
2.3309e-18
1.20281e-17
1.79591e-17
1.61424e-17
1.09176e-17
7.50168e-18
5.55898e-18
4.56423e-18
4.08295e-18
3.50112e-18
3.27256e-18
2.96066e-18
2.76703e-18
2.41609e-18
2.04886e-18
2.05915e-18
2.45507e-18
2.70256e-18
2.81806e-18
3.0244e-18
2.93929e-18
2.75649e-18
2.4058e-18
2.10397e-18
1.90287e-18
1.94615e-18
2.3333e-18
3.56751e-18
4.27975e-18
3.93946e-18
3.83017e-18
3.67168e-18
3.44596e-18
3.34813e-18
3.39121e-18
3.74661e-18
3.89436e-18
4.46079e-18
5.02509e-18
5.36326e-18
5.42117e-18
5.62702e-18
5.6155e-18
6.61945e-18
7.80961e-18
7.30417e-18
3.58381e-18
7.67353e-19
-1.20442e-18
-2.54124e-18
-2.45162e-18
-2.82538e-18
-2.10092e-18
-2.51445e-18
1.46411e-18
-1.67181e-18
1.82287e-17
4.46358e-18
6.59531e-17
1.21031e-16
1.98967e-16
2.7279e-16
2.07591e-16
1.94274e-16
2.38232e-16
2.40852e-16
2.36463e-16
1.99078e-16
1.96217e-16
2.07688e-16
2.07703e-16
2.36563e-16
2.12048e-16
1.90532e-16
1.74403e-16
1.73627e-16
1.53618e-16
1.4288e-16
9.9318e-17
8.97384e-17
8.97258e-17
6.37089e-17
3.86314e-17
3.34479e-17
1.9958e-17
1.85434e-17
8.92991e-19
7.72812e-19
6.36361e-19
4.62117e-19
3.51978e-19
3.54209e-19
3.65502e-19
4.67708e-19
5.86262e-19
5.62266e-19
5.39799e-19
4.99097e-19
4.32711e-19
4.39783e-19
3.81469e-19
3.7946e-19
3.88107e-19
4.32463e-19
5.31648e-19
5.37825e-19
5.27936e-19
4.96652e-19
4.59861e-19
4.23677e-19
4.40837e-19
4.25908e-19
4.13872e-19
4.57182e-19
2.73854e-19
5.87972e-19
1.83793e-19
8.198e-19
1.45685e-19
2.33e-18
7.1296e-18
1.33456e-17
1.30275e-17
9.54557e-18
6.72875e-18
5.29146e-18
4.71497e-18
4.53528e-18
4.25473e-18
3.6879e-18
3.38427e-18
3.27691e-18
2.85824e-18
2.43594e-18
2.48447e-18
2.74225e-18
3.07601e-18
3.36138e-18
3.43179e-18
3.28735e-18
3.09861e-18
2.58952e-18
2.35712e-18
2.13948e-18
2.17174e-18
2.78504e-18
3.40993e-18
3.75233e-18
3.91428e-18
3.97492e-18
3.81145e-18
3.78308e-18
3.61923e-18
3.68236e-18
4.09158e-18
4.24449e-18
5.82565e-18
7.26143e-18
8.19661e-18
8.8609e-18
9.3904e-18
9.87765e-18
1.05675e-17
1.06541e-17
6.89561e-18
1.83232e-18
-7.05822e-19
-2.0338e-18
-3.11971e-18
-3.12709e-18
-3.61099e-18
-2.98938e-18
-3.22168e-18
-2.47897e-19
-4.11898e-18
1.33996e-17
3.6535e-18
5.49122e-17
1.00779e-16
1.52822e-16
2.24817e-16
2.31933e-16
1.75098e-16
1.72379e-16
1.85034e-16
1.84385e-16
2.02978e-16
1.6715e-16
1.51511e-16
1.86323e-16
1.53201e-16
1.6539e-16
1.8173e-16
1.44864e-16
1.37404e-16
1.45902e-16
1.59028e-16
1.40491e-16
1.00748e-16
9.33227e-17
6.6401e-17
3.87733e-17
3.25837e-17
1.89455e-17
1.71938e-17
1.33908e-19
1.83141e-19
1.76505e-19
2.40597e-19
3.28361e-19
3.52178e-19
3.75658e-19
3.37431e-19
2.50075e-19
2.38847e-19
2.48474e-19
2.57201e-19
2.73977e-19
3.0752e-19
3.37206e-19
3.46397e-19
3.48985e-19
3.06918e-19
2.77969e-19
2.46746e-19
2.46412e-19
2.6739e-19
2.66385e-19
2.96498e-19
3.06217e-19
2.97512e-19
2.86303e-19
2.58873e-19
2.73494e-19
2.62749e-19
2.55279e-19
2.60501e-19
2.39506e-19
5.18193e-19
1.54186e-18
6.85553e-18
8.69551e-18
5.6443e-18
3.75898e-18
3.45689e-18
4.15759e-18
3.98972e-18
4.19277e-18
3.19465e-18
2.93863e-18
2.48338e-18
1.05762e-18
1.5148e-18
1.6534e-18
2.31678e-18
2.77897e-18
3.20951e-18
3.3082e-18
3.21648e-18
2.70931e-18
2.34989e-18
2.11127e-18
2.0974e-18
2.33752e-18
2.97432e-18
3.59376e-18
3.80544e-18
3.99846e-18
4.10402e-18
4.02662e-18
4.23966e-18
4.62453e-18
5.80338e-18
7.0509e-18
8.45875e-18
1.19674e-17
1.32111e-17
1.4019e-17
1.44213e-17
1.44048e-17
1.32807e-17
1.20036e-17
7.36195e-18
4.07201e-18
7.8562e-19
-2.94822e-18
-4.54965e-18
-4.71861e-18
-3.92475e-18
-3.79927e-18
-2.92531e-18
-3.10196e-18
5.75794e-19
1.14569e-18
1.52317e-17
1.88239e-17
4.66385e-17
9.21074e-17
1.25529e-16
1.32141e-16
1.48777e-16
1.35005e-16
1.09142e-16
1.17752e-16
1.34105e-16
1.23535e-16
1.31756e-16
1.35554e-16
1.01009e-16
1.39814e-16
1.56659e-16
1.12384e-16
1.23625e-16
1.47022e-16
1.4632e-16
1.55057e-16
1.37332e-16
9.54872e-17
8.82116e-17
6.35015e-17
3.83712e-17
3.18532e-17
1.93424e-17
1.6037e-17
2.96306e-19
2.56585e-19
2.05314e-19
1.83323e-19
2.00411e-19
2.0868e-19
2.37838e-19
2.73216e-19
3.16278e-19
3.14802e-19
2.38574e-19
2.70508e-19
2.92173e-19
2.27098e-19
2.46318e-19
2.42215e-19
2.45861e-19
2.19998e-19
2.46846e-19
2.84578e-19
2.88848e-19
2.85699e-19
2.87439e-19
2.68641e-19
2.42316e-19
2.33319e-19
2.17479e-19
2.22243e-19
2.14222e-19
2.18799e-19
2.09427e-19
2.10668e-19
2.28e-19
4.33942e-19
6.76664e-19
3.20317e-18
6.60266e-18
1.32156e-18
-4.78112e-19
2.21178e-18
4.86605e-18
5.75877e-18
3.76457e-18
1.88101e-18
3.62949e-19
-3.04554e-19
-4.98467e-19
4.26744e-19
1.37003e-18
3.05381e-18
3.64818e-18
3.95515e-18
3.7815e-18
2.55217e-18
1.6155e-18
1.18467e-18
1.74999e-18
2.29931e-18
3.14224e-18
3.81346e-18
4.16491e-18
4.45002e-18
4.72865e-18
4.96529e-18
5.36834e-18
6.11889e-18
7.10254e-18
8.06324e-18
8.91548e-18
1.03019e-17
1.37269e-17
1.61011e-17
1.89311e-17
1.99323e-17
1.74791e-17
1.05727e-17
6.36152e-18
-5.45388e-18
-4.99754e-18
-2.56453e-18
-3.16137e-18
-4.40691e-18
-5.13523e-18
-4.97713e-18
-3.85419e-18
-2.78499e-18
-1.93924e-18
1.1464e-18
4.56557e-18
1.5184e-17
2.46697e-17
4.71213e-17
8.47692e-17
9.57866e-17
1.0708e-16
1.04279e-16
8.61135e-17
9.79893e-17
7.07472e-17
9.54488e-17
1.23248e-16
8.82316e-17
6.53973e-17
1.20725e-16
1.26139e-16
8.80752e-17
1.30087e-16
1.56891e-16
1.23603e-16
1.15255e-16
1.29848e-16
1.28665e-16
9.49222e-17
9.20134e-17
7.30393e-17
4.28007e-17
3.17864e-17
1.85052e-17
2.32188e-17
1.31909e-19
2.08187e-19
2.24987e-19
2.201e-19
2.02795e-19
2.18615e-19
2.29233e-19
2.18309e-19
2.27342e-19
2.23109e-19
2.17469e-19
2.2006e-19
2.21665e-19
2.2609e-19
1.9858e-19
2.15656e-19
2.16925e-19
2.40909e-19
2.40764e-19
1.87681e-19
1.78268e-19
1.94501e-19
1.90691e-19
1.92683e-19
1.68784e-19
1.73361e-19
1.90108e-19
1.8504e-19
1.77354e-19
1.65623e-19
1.72792e-19
1.62323e-19
1.60935e-19
4.92283e-19
8.30871e-19
2.16788e-18
5.88584e-18
-3.33987e-18
-4.79824e-18
8.17167e-18
1.13236e-17
6.65888e-18
1.3218e-18
-7.93771e-18
-5.49848e-18
-2.27418e-18
7.42244e-19
3.68315e-18
5.76078e-18
5.71203e-18
4.02039e-18
1.75836e-18
2.49682e-19
6.48758e-19
1.40846e-18
2.34677e-18
3.04467e-18
3.38857e-18
3.38958e-18
2.67566e-18
2.50408e-18
3.23244e-18
4.4388e-18
5.97855e-18
6.51939e-18
4.96353e-18
3.71101e-18
3.12389e-18
3.8776e-18
3.77688e-18
3.40144e-18
1.209e-17
1.76351e-17
1.93331e-17
1.31348e-17
2.25092e-18
-2.618e-19
-8.1139e-18
-1.85311e-17
-1.34928e-17
-9.59145e-18
-1.05543e-17
-9.50608e-18
-8.27733e-18
-7.16612e-18
-6.5654e-18
-5.15454e-18
2.04822e-19
-2.54187e-20
1.3182e-17
2.5199e-17
3.87498e-17
8.04305e-17
6.4451e-17
7.29744e-17
5.85432e-17
1.04561e-16
3.80126e-17
6.97393e-17
8.86461e-17
6.72219e-17
6.35056e-17
9.44679e-17
8.85058e-17
6.68169e-17
1.27454e-16
1.44118e-16
9.40473e-17
7.67715e-17
1.07026e-16
1.29223e-16
1.31174e-16
1.15152e-16
9.01043e-17
7.51911e-17
4.78494e-17
3.544e-17
2.39751e-17
1.54375e-17
2.76977e-19
2.34158e-19
2.66944e-19
2.22844e-19
2.70165e-19
2.4945e-19
2.61979e-19
2.27613e-19
2.17135e-19
2.32709e-19
2.5333e-19
2.22469e-19
1.94439e-19
1.97266e-19
1.82577e-19
1.78637e-19
1.72557e-19
1.96157e-19
1.86715e-19
1.98748e-19
1.79364e-19
1.88694e-19
1.65673e-19
1.46624e-19
1.46271e-19
1.42166e-19
1.26356e-19
1.22478e-19
1.17156e-19
1.27681e-19
1.30396e-19
1.28869e-19
1.27978e-19
4.31422e-19
7.76351e-19
9.04391e-19
8.17612e-18
-2.31938e-17
8.60102e-18
3.18914e-17
6.67057e-18
-6.25464e-18
-9.36766e-18
-8.98348e-18
-5.55256e-18
4.96238e-18
9.09778e-18
9.16236e-18
4.97824e-18
-9.67091e-19
-5.37004e-18
-2.84651e-18
7.45972e-19
4.22197e-18
3.93433e-18
1.60684e-18
-1.2725e-18
-5.5882e-19
3.75052e-18
3.79164e-18
4.03813e-19
1.27125e-19
3.67553e-18
2.05235e-18
3.42884e-18
3.98114e-18
5.24949e-18
3.58694e-18
-9.93663e-19
-1.55691e-18
-1.1171e-19
3.9492e-18
1.01959e-17
1.00178e-17
7.19279e-18
-4.02045e-18
-7.9584e-18
-1.34744e-17
-1.63087e-17
-1.32448e-17
-9.54194e-18
-6.95169e-18
-8.89314e-18
-8.98093e-18
-8.18912e-18
-6.35078e-18
-6.99922e-18
-2.65786e-18
-3.08235e-18
6.22152e-18
2.25785e-17
2.97523e-17
2.24614e-17
5.39479e-17
2.37607e-17
7.18752e-17
2.57193e-17
3.81609e-17
7.53478e-17
4.28986e-17
7.17405e-17
6.91172e-17
6.66006e-17
5.71532e-17
9.26553e-17
1.19783e-16
6.97183e-17
5.40354e-17
9.33957e-17
1.25686e-16
1.26043e-16
1.33944e-16
1.21436e-16
8.22646e-17
6.66998e-17
5.03946e-17
3.71873e-17
2.0398e-17
1.60617e-17
2.07074e-19
2.3031e-19
2.1292e-19
2.04601e-19
2.87869e-19
2.91379e-19
2.56619e-19
2.15622e-19
2.11124e-19
2.19134e-19
2.00339e-19
2.10839e-19
2.24618e-19
1.89557e-19
1.59431e-19
1.57253e-19
1.52785e-19
1.27819e-19
1.32863e-19
1.09939e-19
1.1203e-19
1.05527e-19
8.14194e-20
1.01725e-19
8.75573e-20
9.28774e-20
5.5402e-20
6.04433e-20
7.26782e-20
8.37706e-20
6.02971e-20
8.92084e-20
3.99194e-20
5.09287e-19
4.86258e-19
9.46127e-19
2.46929e-18
-1.44282e-17
3.0023e-17
1.39679e-17
-2.81492e-17
-1.53379e-17
2.34002e-19
1.04552e-17
1.61307e-17
9.93179e-18
2.34393e-18
-6.03822e-18
-1.19681e-17
-1.13002e-17
3.2806e-18
1.51946e-17
7.05232e-18
-3.01222e-18
-5.58936e-18
2.37461e-18
4.66959e-18
1.70225e-18
-6.94644e-19
3.08358e-19
2.74308e-18
1.29173e-18
5.31168e-18
3.34009e-18
4.40083e-18
4.13745e-18
3.32719e-18
1.05239e-18
-1.29454e-18
-2.87766e-18
-6.40496e-19
2.13517e-18
8.42519e-18
5.67571e-18
7.17547e-18
6.20245e-18
-1.33947e-17
-2.7803e-17
-1.74463e-17
-1.02014e-17
-4.069e-18
-6.20499e-18
-7.08793e-18
-7.70687e-18
-8.04248e-18
-6.65551e-18
-6.71357e-18
-6.18338e-18
-1.0397e-18
3.66346e-18
-7.23478e-18
2.99795e-17
-6.79803e-19
2.67195e-17
1.21948e-17
4.49477e-17
1.79989e-17
7.00345e-17
3.46934e-17
5.52234e-17
6.26344e-17
4.03779e-17
5.47757e-17
6.80662e-17
8.57778e-17
6.42519e-17
5.15228e-17
9.07102e-17
1.18667e-16
1.22075e-16
1.1341e-16
1.26592e-16
1.09591e-16
9.45565e-17
6.8902e-17
5.15672e-17
3.53494e-17
1.9092e-17
1.72705e-17
3.10639e-19
3.1538e-19
3.21746e-19
3.04909e-19
2.57592e-19
2.71566e-19
2.11792e-19
1.38487e-19
1.76667e-19
2.32631e-19
2.1401e-19
2.07721e-19
1.64996e-19
1.79166e-19
1.35154e-19
1.0878e-19
1.02261e-19
3.18718e-20
7.33501e-20
7.23334e-20
2.37028e-20
5.12857e-22
1.27081e-19
7.65717e-21
9.67178e-21
1.65326e-20
5.15579e-20
3.47935e-20
7.24929e-20
3.65213e-20
5.26888e-20
9.97623e-20
2.18497e-20
5.70277e-19
1.83058e-19
1.06435e-18
2.46112e-19
-5.1938e-19
1.49244e-17
-6.63262e-18
-2.87485e-17
1.4281e-17
4.34315e-17
-4.16466e-18
-4.27297e-17
-4.79805e-18
2.41279e-17
6.59341e-18
-5.13491e-18
1.21834e-18
1.54955e-19
-1.07555e-18
1.13128e-18
7.90343e-19
-8.99202e-19
3.86437e-18
-1.00532e-18
-2.34438e-18
4.02964e-18
6.11306e-18
3.68509e-18
-1.45919e-19
2.133e-18
6.27017e-18
1.57437e-18
-3.81922e-19
3.27937e-18
-1.11397e-18
-1.22872e-18
-1.73549e-18
-4.69563e-19
1.66126e-18
5.36859e-18
1.73968e-18
-9.75503e-19
1.32155e-17
-8.03413e-19
-3.00936e-17
-2.46517e-17
-8.1787e-18
-5.62812e-18
-3.90229e-18
-3.74471e-18
-6.55929e-18
-6.03099e-18
-5.64818e-18
-6.98958e-18
-5.36574e-18
-9.71815e-18
2.20779e-18
-2.48283e-18
-2.4964e-17
4.08417e-17
-2.51962e-17
3.84845e-17
1.36643e-17
2.88055e-17
3.90471e-17
2.36254e-17
5.26072e-17
2.69698e-17
3.8912e-17
6.0121e-17
6.18176e-17
6.10638e-17
6.24554e-17
8.64665e-17
1.08237e-16
9.83971e-17
9.44084e-17
9.57058e-17
1.10344e-16
1.05376e-16
1.09771e-16
8.41021e-17
4.48374e-17
3.30369e-17
1.67135e-17
1.27409e-17
1.43333e-19
2.04623e-19
2.68037e-19
3.53015e-19
2.46672e-19
1.68577e-19
2.49923e-19
2.12998e-19
1.86657e-19
1.52971e-19
1.31634e-19
6.15251e-20
1.18615e-19
7.90069e-21
5.72133e-20
4.42654e-20
1.80917e-20
5.69272e-20
7.68765e-21
2.72497e-20
5.02572e-20
3.26522e-20
2.29501e-20
3.7145e-20
1.00403e-20
2.99506e-20
-4.59323e-21
1.3078e-20
7.88336e-21
2.04475e-20
3.93213e-20
3.58196e-20
3.75548e-20
3.42882e-19
6.5966e-19
-1.10436e-18
4.84103e-18
-6.36763e-18
4.02042e-18
6.97504e-18
-7.99926e-18
-3.36164e-18
1.42238e-17
5.91167e-18
-8.5595e-18
-6.60944e-18
4.47335e-18
3.93481e-18
1.54634e-18
1.93505e-18
-5.88985e-19
1.66217e-18
1.79121e-20
-1.71596e-18