/*--------------------------------*- C++ -*----------------------------------*\
| =========                 |                                                 |
| \\      /  F ield         | OpenFOAM: The Open Source CFD Toolbox           |
|  \\    /   O peration     | Version:  2.2.x                                 |
|   \\  /    A nd           | Web:      www.OpenFOAM.org                      |
|    \\/     M anipulation  |                                                 |
\*---------------------------------------------------------------------------*/
FoamFile
{
    version     2.0;
    format      ascii;
    class       surfaceScalarField;
    location    "2.45";
    object      phi;
}
// * * * * * * * * * * * * * * * * * * * * * * * * * * * * * * * * * * * * * //

dimensions      [1 0 -1 0 0 0 0];

internalField   nonuniform List<scalar> 
28084
(
0.00174119
0.00173364
0.00172716
0.00172171
0.00171724
0.0017137
0.00171103
0.00170917
0.00170807
0.00170766
0.00170788
0.00170867
0.00170996
0.00171169
0.0017138
0.00171622
0.0017189
0.00172179
0.00172482
0.00172796
0.00173114
0.00173433
0.00173749
0.00174057
0.00174355
0.00174639
0.00174907
0.00175155
0.00175382
0.00175585
0.00175764
0.00175915
0.00176039
0.00176133
0.00176197
0.00176229
0.00176229
0.00176197
0.00176131
0.00176031
0.00175897
0.00175727
0.00175501
0.00174841
0.0017378
0.0017499
0.00175984
0.00176559
0.00177209
0.00178188
0.00179338
0.00180432
0.00181334
0.00182016
0.00182206
0.00182567
0.00183461
0.00184418
0.00185178
0.00185488
0.0018541
0.00184815
0.00184499
0.00184783
0.00184968
0.00184819
0.00184068
0.00182595
0.00180964
0.00179948
0.00179276
0.00178294
0.00176735
0.00174519
0.0017165
0.00169299
0.00167563
0.0016564
0.00163236
0.00160256
0.00156492
0.00153175
0.00150538
0.00147803
0.00144661
0.00140998
0.0013678
0.00133122
0.00129981
0.00126744
0.00123193
0.00119098
0.00114961
0.00111518
0.00108265
0.00104873
0.0010119
0.000971572
0.000936133
0.000904625
0.00087275
0.00083927
0.000801984
0.000767839
0.000736542
0.000704766
0.000670595
0.000633015
0.000597088
0.000561275
0.000522891
0.000479588
0.000432496
0.00038262
0.000328586
0.000265643
0.000190839
0.000108826
8.66109e-06
7.54863e-06
0.00174939
6.47668e-06
0.00174716
5.44921e-06
0.00174594
4.47006e-06
0.00174568
3.54277e-06
0.00174633
2.67052e-06
0.00174786
1.85605e-06
0.0017502
1.10164e-06
0.0017533
4.09011e-07
0.00175709
-2.20687e-07
0.00176151
-7.86861e-07
0.00176649
-1.2895e-06
0.00177197
-1.72913e-06
0.00177786
-2.10681e-06
0.00178412
-2.42407e-06
0.00179066
-2.68288e-06
0.00179743
-2.88556e-06
0.00180435
-3.03476e-06
0.00181137
-3.13337e-06
0.00181842
-3.18447e-06
0.00182546
-3.19125e-06
0.00183243
-3.15699e-06
0.00183929
-3.08497e-06
0.00184598
-2.97845e-06
0.00185247
-2.84059e-06
0.00185872
-2.67445e-06
0.0018647
-2.48295e-06
0.00187039
-2.26884e-06
0.00187574
-2.03466e-06
0.00188075
-1.78276e-06
0.00188539
-1.5153e-06
0.00188965
-1.23418e-06
0.0018935
-9.41099e-07
0.00189695
-6.37555e-07
0.00189998
-3.24805e-07
0.00190257
-3.92172e-09
0.00190474
3.24239e-07
0.00190646
6.59003e-07
0.00190773
9.99951e-07
0.00190855
1.34781e-06
0.00190892
1.71369e-06
0.00190884
2.30199e-06
0.0019083
6.32372e-06
0.00190659
1.05433e-05
0.00189711
-1.0809e-05
0.00188293
-8.94395e-06
0.00189128
-8.59735e-06
0.00189881
-8.69661e-06
0.00190215
-8.79851e-06
0.0019064
-8.7563e-06
0.00191419
-8.60744e-06
0.00192349
-8.30825e-06
0.00193212
-7.86015e-06
0.00193848
-7.31703e-06
0.00194234
-6.7422e-06
0.00194092
-6.07198e-06
0.00194156
-5.25962e-06
0.00194819
-4.28519e-06
0.00195522
-3.1264e-06
0.00196019
-1.86067e-06
0.00196024
-5.69032e-07
0.001956
6.686e-07
0.00194647
1.9399e-06
0.00194042
3.33062e-06
0.00194093
4.85916e-06
0.00194032
6.5413e-06
0.00193609
8.28089e-06
0.00192564
9.9296e-06
0.0019072
1.15365e-05
0.00188772
1.31813e-05
0.00187507
1.48885e-05
0.00186599
1.66563e-05
0.00185371
1.84271e-05
0.00183543
2.01018e-05
0.00181009
2.16951e-05
0.00177829
2.32869e-05
0.00175234
2.48582e-05
0.00173281
2.63959e-05
0.00171136
2.78598e-05
0.0016849
2.91619e-05
0.00165239
3.03369e-05
0.001612
3.14542e-05
0.00157664
3.25151e-05
0.00154837
3.35088e-05
0.00151909
3.43807e-05
0.00148561
3.50387e-05
0.00144659
3.55388e-05
0.00140211
3.59654e-05
0.00136369
3.62895e-05
0.0013306
3.65206e-05
0.00129651
3.66346e-05
0.0012592
3.66519e-05
0.00121621
3.66326e-05
0.00117301
3.64209e-05
0.00113686
3.60581e-05
0.00110264
3.56188e-05
0.00106711
3.5144e-05
0.00102863
3.47704e-05
0.0009867
3.44959e-05
0.000949759
3.41896e-05
0.000916602
3.38559e-05
0.000883053
3.35287e-05
0.000847814
3.32756e-05
0.000808803
3.32459e-05
0.000773318
3.34881e-05
0.000740616
3.40301e-05
0.000707337
3.48439e-05
0.000671559
3.58861e-05
0.000632328
3.73751e-05
0.000595307
3.94805e-05
0.000558349
4.22822e-05
0.000518633
4.58389e-05
0.000473728
5.01244e-05
0.000424952
5.55835e-05
0.000373402
6.26081e-05
0.000317632
7.25924e-05
0.000253022
8.20352e-05
0.000176645
0.000110328
9.23011e-05
1.19281e-05
9.77838e-06
0.00176035
7.70269e-06
0.00176337
5.71085e-06
0.00176733
3.81222e-06
0.00177219
2.01555e-06
0.00177791
3.28676e-07
0.00178445
-1.24153e-06
0.00179175
-2.68939e-06
0.00179974
-4.01043e-06
0.00180837
-5.20151e-06
0.00181756
-6.26081e-06
0.00182725
-7.1878e-06
0.00183736
-7.98325e-06
0.00184782
-8.6491e-06
0.00185855
-9.1884e-06
0.00186948
-9.60519e-06
0.00188053
-9.90436e-06
0.00189165
-1.00915e-05
0.00190276
-1.01728e-05
0.00191379
-1.01549e-05
0.0019247
-1.00447e-05
0.00193541
-9.84932e-06
0.00194589
-9.57582e-06
0.00195608
-9.2313e-06
0.00196594
-8.82267e-06
0.00197543
-8.35657e-06
0.00198452
-7.83937e-06
0.00199318
-7.27704e-06
0.00200138
-6.67513e-06
0.00200909
-6.03876e-06
0.00201631
-5.37258e-06
0.00202301
-4.68076e-06
0.00202919
-3.96698e-06
0.00203482
-3.23445e-06
0.00203991
-2.4859e-06
0.00204444
-1.72362e-06
0.00204842
-9.49447e-07
0.00205184
-1.64798e-07
0.00205469
6.2951e-07
0.00205698
1.43599e-06
0.0020587
2.27351e-06
0.00205986
4.0562e-06
0.00206049
1.54907e-05
0.00205954
2.46416e-05
0.00204985
-1.76629e-05
0.00203453
-1.54011e-05
0.00204018
-1.51521e-05
0.00204492
-1.52954e-05
0.00204529
-1.53195e-05
0.00204694
-1.51084e-05
0.00205254
-1.46863e-05
0.00205952
-1.40048e-05
0.0020657
-1.30746e-05
0.0020692
-1.18786e-05
0.00206988
-1.06323e-05
0.00206518
-9.19966e-06
0.00206311
-7.51562e-06
0.00206755
-5.57507e-06
0.0020722
-3.34131e-06
0.00207453
-8.92538e-07
0.00207149
1.66793e-06
0.00206376
4.20094e-06
0.00205083
6.85719e-06
0.00204217
9.70772e-06
0.00204048
1.27402e-05
0.00203744
1.59662e-05
0.00203041
1.93721e-05
0.00201698
2.26205e-05
0.00199479
2.58525e-05
0.00197228
2.91937e-05
0.00195731
3.25968e-05
0.00194581
3.60497e-05
0.00193105
3.95292e-05
0.00190997
4.28215e-05
0.00188133
4.59614e-05
0.00184646
4.91146e-05
0.00181819
5.22419e-05
0.00179645
5.52583e-05
0.00177266
5.81077e-05
0.00174359
6.06406e-05
0.00170816
6.29142e-05
0.00166498
6.51265e-05
0.0016275
6.72569e-05
0.00159721
6.91664e-05
0.0015658
7.08049e-05
0.00153
7.20227e-05
0.00148837
7.29736e-05
0.00144141
7.38278e-05
0.00140109
7.45046e-05
0.00136611
7.49417e-05
0.00132998
7.51178e-05
0.0012906
7.50185e-05
0.00124531
7.48175e-05
0.00120018
7.44294e-05
0.00116219
7.3821e-05
0.00112612
7.29957e-05
0.0010887
7.20104e-05
0.00104818
7.12186e-05
0.00100451
7.06077e-05
0.000966053
6.995e-05
0.000930951
6.92622e-05
0.000895389
6.86061e-05
0.000857938
6.81535e-05
0.000816906
6.8106e-05
0.000779835
6.84716e-05
0.000745333
6.94423e-05
0.00071012
7.1008e-05
0.000672187
7.31657e-05
0.000630844
7.61597e-05
0.000592067
8.03177e-05
0.000553475
8.58879e-05
0.000512144
9.31165e-05
0.000465599
0.00010195
0.000415239
0.000113209
0.000362569
0.000127411
0.000306358
0.000147073
0.000242472
0.000166067
0.000167955
0.000203737
8.54393e-05
9.87125e-06
6.75719e-06
0.00177405
3.74382e-06
0.00178225
8.48654e-07
0.00179132
-1.91163e-06
0.00180123
-4.52152e-06
0.00181195
-6.96697e-06
0.00182343
-9.23574e-06
0.00183562
-1.13175e-05
0.00184844
-1.32041e-05
0.00186184
-1.48895e-05
0.00187575
-1.63702e-05
0.00189008
-1.76445e-05
0.00190477
-1.87131e-05
0.00191973
-1.95789e-05
0.00193488
-2.02462e-05
0.00195014
-2.07213e-05
0.00196544
-2.1012e-05
0.00198069
-2.11271e-05
0.00199584
-2.10764e-05
0.00201081
-2.08707e-05
0.00202552
-2.05211e-05
0.00203994
-2.00389e-05
0.00205399
-1.94358e-05
0.00206764
-1.87232e-05
0.00208082
-1.79122e-05
0.00209351
-1.70137e-05
0.00210567
-1.60379e-05
0.00211726
-1.49946e-05
0.00212827
-1.38928e-05
0.00213866
-1.27407e-05
0.00214842
-1.15459e-05
0.00215754
-1.03151e-05
0.002166
-9.05429e-06
0.00217379
-7.76862e-06
0.00218091
-6.46247e-06
0.00218736
-5.13952e-06
0.00219313
-3.80269e-06
0.00219822
-2.45423e-06
0.00220263
-1.09544e-06
0.00220637
2.77365e-07
0.00220943
1.67328e-06
0.00221182
5.05373e-06
0.0022136
2.48349e-05
0.00221416
3.98596e-05
0.00220824
-2.15787e-05
0.00219553
-1.90736e-05
0.00220029
-1.91307e-05
0.00220258
-1.9386e-05
0.00219963
-1.92915e-05
0.00219819
-1.88849e-05
0.00220116
-1.81525e-05
0.00220561
-1.70364e-05
0.00220919
-1.55626e-05
0.00220968
-1.37112e-05
0.00220705
-1.17173e-05
0.00219908
-9.47225e-06
0.00219453
-6.89722e-06
0.00219703
-4.00573e-06
0.00219945
-7.4009e-07
0.00219922
2.87909e-06
0.00219312
6.68456e-06
0.00218185
1.05391e-05
0.00216579
1.46441e-05
0.00215496
1.89864e-05
0.00215127
2.35188e-05
0.00214583
2.82731e-05
0.00213585
3.32715e-05
0.00211942
3.8098e-05
0.0020934
4.29539e-05
0.00206819
4.79947e-05
0.00205134
5.30909e-05
0.00203742
5.82095e-05
0.00202018
6.33617e-05
0.00199614
6.82143e-05
0.00196393
7.28421e-05
0.00192614
7.75284e-05
0.00189597
8.21894e-05
0.0018721
8.66516e-05
0.00184587
9.08504e-05
0.00181397
9.45561e-05
0.00177529
9.78722e-05
0.00172931
0.000101165
0.00169001
0.000104326
0.00165763
0.000107121
0.00162384
0.000109475
0.00158544
0.000111177
0.00154086
0.000112524
0.00149136
0.000113802
0.00144917
0.000114849
0.00141207
0.000115475
0.00137356
0.000115632
0.00133179
0.000115236
0.00128378
0.000114796
0.00123658
0.000114236
0.00119657
0.000113442
0.00115827
0.000112387
0.00111836
0.000110984
0.00107518
0.00010964
0.00102923
0.000108515
0.000988899
0.000107454
0.000951473
0.000106506
0.000913548
0.000105582
0.000873422
0.000105062
0.000830025
0.000104975
0.000790933
0.000105427
0.000754241
0.000106748
0.000716849
0.000109017
0.00067653
0.000112311
0.000632875
0.000116816
0.000591954
0.0001229
0.000551323
0.000130999
0.000508029
0.000141678
0.000459732
0.000154795
0.00040781
0.000171418
0.000354023
0.000191838
0.000297136
0.000219841
0.000233671
0.000247585
0.000161054
0.000290464
8.10558e-05
2.56937e-06
-1.43874e-06
0.00179051
-5.32607e-06
0.0018038
-9.06565e-06
0.0018179
-1.26318e-05
0.00183278
-1.60005e-05
0.00184842
-1.91502e-05
0.00186477
-2.2062e-05
0.00188176
-2.47196e-05
0.00189935
-2.71103e-05
0.00191745
-2.92245e-05
0.001936
-3.1056e-05
0.00195492
-3.26019e-05
0.00197411
-3.38625e-05
0.00199351
-3.48411e-05
0.00201301
-3.55437e-05
0.00203254
-3.59789e-05
0.00205202
-3.61575e-05
0.00207136
-3.60918e-05
0.00209048
-3.5796e-05
0.00210932
-3.52851e-05
0.0021278
-3.4575e-05
0.00214586
-3.3682e-05
0.00216344
-3.26226e-05
0.00218049
-3.14132e-05
0.00219695
-3.00698e-05
0.0022128
-2.8608e-05
0.00222798
-2.70424e-05
0.00224247
-2.53869e-05
0.00225623
-2.36545e-05
0.00226926
-2.18571e-05
0.00228153
-2.00053e-05
0.00229303
-1.81089e-05
0.00230374
-1.61762e-05
0.00231366
-1.42148e-05
0.00232278
-1.22307e-05
0.00233111
-1.02293e-05
0.00233865
-8.21463e-06
0.00234539
-6.18985e-06
0.00235133
-4.15698e-06
0.00235649
-2.11371e-06
0.00236087
-8.0982e-08
0.00236448
4.56004e-06
0.00236737
3.03725e-05
0.00236928
5.2428e-05
0.00236549
-2.43848e-05
0.00235461
-2.03728e-05
0.0023582
-2.02299e-05
0.00235858
-2.04502e-05
0.00235315
-2.02986e-05
0.00234958
-1.97724e-05
0.00235088
-1.88075e-05
0.0023536
-1.73148e-05
0.00235535
-1.52988e-05
0.00235358
-1.28651e-05
0.00234809
-1.01627e-05
0.002337
-7.07173e-06
0.00233022
-3.62025e-06
0.00233112
2.1728e-07
0.00233165
4.57959e-06
0.00232925
9.37194e-06
0.00232042
1.43924e-05
0.00230543
1.95877e-05
0.00228608
2.5142e-05
0.00227331
3.09865e-05
0.00226801
3.70735e-05
0.00226052
4.33995e-05
0.00224782
4.98807e-05
0.00222844
5.6299e-05
0.0021983
6.27763e-05
0.00217056
6.95109e-05
0.00215239
7.62978e-05
0.00213638
8.3134e-05
0.00211696
8.98818e-05
0.00209002
9.62133e-05
0.00205382
0.000102338
0.00201333
0.000108547
0.00198184
0.000114709
0.00195613
0.000120611
0.00192762
0.000126125
0.001893
0.000130946
0.00185081
0.000135339
0.0018021
0.000139693
0.00176144
0.000143838
0.00172715
0.000147516
0.00169095
0.000150554
0.00164994
0.00015271
0.00160218
0.000154452
0.00155031
0.000156129
0.00150655
0.000157509
0.00146721
0.000158335
0.00142617
0.000158429
0.00138179
0.000157797
0.0013308
0.000157081
0.00128143
0.000156335
0.00123918
0.000155342
0.00119821
0.000154026
0.00115537
0.000152351
0.00110903
0.000150479
0.00106048
0.000148778
0.00101803
0.000147218
0.000978093
0.000145933
0.000937363
0.000144905
0.000894119
0.000144315
0.000848044
0.000144146
0.00080662
0.00014463
0.000767509
0.000146272
0.000727687
0.000149284
0.000684913
0.000153696
0.000638839
0.000159573
0.000595533
0.000167432
0.000552661
0.000177896
0.000507344
0.000191785
0.000457415
0.000208822
0.00040407
0.000230236
0.000349231
0.000255871
0.000291678
0.000290782
0.00022832
0.000326541
0.000156967
0.000372655
7.89168e-05
-9.88994e-06
-1.47245e-05
0.00180973
-1.94246e-05
0.00182801
-2.3952e-05
0.00184705
-2.82702e-05
0.00186682
-3.23454e-05
0.00188729
-3.61469e-05
0.00190842
-3.96477e-05
0.00193014
-4.28248e-05
0.00195241
-4.56597e-05
0.00197514
-4.81385e-05
0.00199825
-5.02519e-05
0.00202167
-5.19951e-05
0.0020453
-5.33677e-05
0.00206906
-5.43735e-05
0.00209285
-5.50202e-05
0.00211658
-5.53186e-05
0.00214017
-5.52829e-05
0.00216352
-5.49294e-05
0.00218656
-5.42767e-05
0.00220921
-5.33447e-05
0.00223139
-5.21548e-05
0.00225303
-5.07285e-05
0.00227408
-4.90879e-05
0.00229448
-4.72549e-05
0.00231417
-4.52509e-05
0.00233311
-4.30966e-05
0.00235126
-4.08116e-05
0.00236859
-3.84147e-05
0.00238508
-3.59229e-05
0.0024007
-3.33522e-05
0.00241543
-3.0717e-05
0.00242927
-2.80299e-05
0.00244219
-2.53025e-05
0.00245421
-2.25444e-05
0.0024653
-1.97639e-05
0.00247548
-1.69679e-05
0.00248475
-1.41618e-05
0.00249311
-1.13498e-05
0.00250057
-8.53474e-06
0.00250713
-5.7162e-06
0.0025128
-2.94533e-06
0.00251759
2.73754e-06
0.00252158
3.37568e-05
0.00252435
6.31188e-05
0.00252054
-2.57056e-05
0.00250906
-1.98521e-05
0.00251047
-1.9366e-05
0.00250754
-1.94708e-05
0.0024986
-1.92178e-05
0.00249234
-1.85229e-05
0.00249121
-1.73043e-05
0.00249105
-1.5417e-05
0.00248963
-1.28486e-05
0.00248411
-9.70112e-06
0.0024739
-6.24501e-06
0.00245908
-2.30847e-06
0.00244979
2.06042e-06
0.00244781
6.89011e-06
0.00244477
1.2371e-05
0.00243849
1.83715e-05
0.00242559
2.47851e-05
0.0024059
3.12891e-05
0.00238349
3.8281e-05
0.00236878
4.55602e-05
0.00236077
5.31139e-05
0.00235001
6.10045e-05
0.00233356
6.90902e-05
0.00231058
7.7074e-05
0.00227691
8.5203e-05
0.00224681
9.36361e-05
0.00222712
0.00010208
0.00220843
0.000110542
0.00218632
0.000118797
0.00215623
0.000126683
0.00211612
0.000134324
0.00207341
0.000142046
0.00204076
0.00014967
0.00201339
0.000156965
0.00198282
0.000163735
0.00194584
0.000169705
0.00190023
0.000175246
0.00184936
0.00018061
0.00180789
0.000185737
0.00177266
0.000190308
0.0017351
0.000193986
0.00169236
0.000196611
0.00164161
0.000198815
0.00158832
0.000200842
0.00154445
0.000202557
0.00150458
0.000203611
0.00146265
0.000203734
0.00141706
0.000203026
0.00136388
0.000202141
0.0013139
0.000201224
0.00127175
0.000199943
0.00123062
0.000198269
0.00118701
0.000196124
0.00113901
0.000193925
0.00108912
0.000191865
0.00104589
0.000189863
0.00100504
0.000188093
0.000963062
0.000186706
0.000918027
0.000185971
0.00086992
0.000185788
0.000826299
0.000186291
0.000784628
0.000188261
0.000741943
0.000191957
0.000696383
0.000197407
0.000647869
0.000204518
0.000601997
0.000214032
0.000556658
0.000226622
0.000509179
0.000243388
0.000457641
0.000263835
0.00040312
0.000289419
0.000347328
0.000319803
0.000289183
0.000360664
0.000225706
0.000403999
0.000155165
0.000452343
7.8281e-05
-2.74098e-05
-3.30063e-05
0.00183173
-3.84606e-05
0.00185491
-4.37216e-05
0.00187878
-4.87404e-05
0.00190333
-5.34718e-05
0.00192854
-5.78744e-05
0.00195435
-6.19121e-05
0.00198072
-6.55539e-05
0.00200758
-6.87748e-05
0.00203484
-7.15556e-05
0.00206244
-7.38833e-05
0.00209027
-7.57509e-05
0.00211826
-7.71572e-05
0.00214629
-7.81063e-05
0.00217429
-7.86072e-05
0.00220214
-7.86736e-05
0.00222976
-7.83231e-05
0.00225706
-7.75763e-05
0.00228394
-7.64567e-05
0.00231033
-7.49898e-05
0.00233614
-7.32024e-05
0.0023613
-7.11222e-05
0.00238575
-6.87774e-05
0.00240943
-6.61959e-05
0.00243229
-6.3405e-05
0.00245427
-6.04311e-05
0.00247534
-5.72994e-05
0.00249547
-5.40336e-05
0.00251462
-5.06558e-05
0.00253278
-4.7186e-05
0.00254993
-4.36428e-05
0.00256606
-4.00423e-05
0.00258116
-3.6399e-05
0.00259522
-3.27253e-05
0.00260825
-2.90318e-05
0.00262025
-2.5327e-05
0.00263121
-2.1618e-05
0.00264116
-1.79098e-05
0.0026501
-1.42061e-05
0.00265803
-1.0508e-05
0.00266497
-6.89917e-06
0.00267093
8.25998e-08
0.00267599
3.7145e-05
0.00267952
7.43288e-05
0.00267451
-2.43831e-05
0.00266086
-1.63837e-05
0.00265849
-1.5627e-05
0.00265194
-1.54731e-05
0.0026395
-1.49809e-05
0.0026309
-1.40115e-05
0.00262759
-1.24294e-05
0.00262492
-1.0104e-05
0.00262089
-6.97461e-06
0.00261243
-3.06302e-06
0.00259863
1.17809e-06
0.00258113
6.05242e-06
0.00257018
1.1412e-05
0.00256629
1.728e-05
0.00256077
2.38158e-05
0.0025515
3.09e-05
0.00253559
3.84294e-05
0.00251204
4.62496e-05
0.00248709
5.4612e-05
0.00247051
6.32861e-05
0.00245979
7.23e-05
0.0024458
8.16422e-05
0.00242557
9.1147e-05
0.00239851
0.000100704
0.00236127
0.000110445
0.00232898
0.000120493
0.00230717
0.000130549
0.00228526
0.000140532
0.00225963
0.000150204
0.00222608
0.000159452
0.00218155
0.00016864
0.00213632
0.000177875
0.00210172
0.000186934
0.00207157
0.000195431
0.00203809
0.00020325
0.00199792
0.000210184
0.00194819
0.000216859
0.00189497
0.000223314
0.00185206
0.000229325
0.00181456
0.000234558
0.00177446
0.000238761
0.00172917
0.000241771
0.00167489
0.000244401
0.00161999
0.000246771
0.00157541
0.000248665
0.00153399
0.000249722
0.00149022
0.000249635
0.00144277
0.000248738
0.00138727
0.000247768
0.00133655
0.000246806
0.00129404
0.000245413
0.00125221
0.000243516
0.00120782
0.000240995
0.00115844
0.000238481
0.00110825
0.000236108
0.0010651
0.000233908
0.00102403
0.000231973
0.000981523
0.000230492
0.000935539
0.000229832
0.000886763
0.000229898
0.000842515
0.000230791
0.000800085
0.000233079
0.000756497
0.000237117
0.000709311
0.00024345
0.000659214
0.000251769
0.000610466
0.000262867
0.000562338
0.000277306
0.000512496
0.000296401
0.000459166
0.000319554
0.000403424
0.000348841
0.000346711
0.000383739
0.000287933
0.000430148
0.000223868
0.000480701
0.000153587
0.000530963
7.74002e-05
-4.98839e-05
-5.61806e-05
0.00185652
-6.23335e-05
0.00188448
-6.82765e-05
0.00191308
-7.39469e-05
0.00194231
-7.92862e-05
0.00197215
-8.42414e-05
0.00200255
-8.87658e-05
0.00203345
-9.28193e-05
0.0020648
-9.63695e-05
0.0020965
-9.93914e-05
0.00212848
-0.000101868
0.00216065
-0.000103789
0.00219289
-0.000105152
0.00222512
-0.000105962
0.00225723
-0.000106229
0.00228913
-0.00010597
0.0023207
-0.000105206
0.00235185
-0.000103962
0.0023825
-0.000102267
0.00241254
-0.000100153
0.00244191
-9.76531e-05
0.00247052
-9.48006e-05
0.0024983
-9.16307e-05
0.00252519
-8.81779e-05
0.00255114
-8.4476e-05
0.0025761
-8.05577e-05
0.00260003
-7.64541e-05
0.00262289
-7.21944e-05
0.00264465
-6.7806e-05
0.0026653
-6.33138e-05
0.00268481
-5.87403e-05
0.00270319
-5.41058e-05
0.00272041
-4.94279e-05
0.00273648
-4.47221e-05
0.0027514
-4.00011e-05
0.00276517
-3.52757e-05
0.00277781
-3.05542e-05
0.00278931
-2.5843e-05
0.00279969
-2.11463e-05
0.00280897
-1.64664e-05
0.00281715
-1.19226e-05
0.00282426
-3.29084e-06
0.00283038
4.17161e-05
0.00283497
8.76377e-05
0.0028319
-1.8906e-05
0.00281828
-9.71894e-06
0.00281376
-8.96606e-06
0.00280411
-8.76197e-06
0.00278885
-8.06773e-06
0.00277832
-6.82213e-06
0.00277279
-4.89654e-06
0.00276741
-2.13736e-06
0.00276047
1.60742e-06
0.00274905
6.07487e-06
0.00273159
1.11076e-05
0.00271211
1.69193e-05
0.00269988
2.32935e-05
0.00269384
3.02548e-05
0.00268552
3.79181e-05
0.00267282
4.63467e-05
0.00265399
5.5019e-05
0.00262669
6.41834e-05
0.00259996
7.39757e-05
0.00258211
8.40899e-05
0.00256875
9.46021e-05
0.00255187
0.000105467
0.00252787
0.000116484
0.00249654
0.000127486
0.00245649
0.000138889
0.00242274
0.000150517
0.0023988
0.000162101
0.00237383
0.000173562
0.00234425
0.000184827
0.00230735
0.000195373
0.00225843
0.000205971
0.0022112
0.000216672
0.0021748
0.000227003
0.00214125
0.000236752
0.00210439
0.000245688
0.0020607
0.000253466
0.00200682
0.000260988
0.0019514
0.0002684
0.00190652
0.000275239
0.0018659
0.000281117
0.00182252
0.000285626
0.00177396
0.00028895
0.001716
0.000291944
0.00165881
0.000294518
0.00161205
0.000296371
0.00156776
0.000297191
0.00152101
0.000296762
0.00147021
0.00029578
0.00141205
0.000294747
0.00135973
0.000293477
0.00131526
0.000291614
0.00127108
0.000289092
0.00122453
0.000285973
0.0011724
0.000283191
0.00112121
0.000280767
0.00107755
0.000278517
0.00103579
0.000276572
0.000992382
0.000275019
0.000945227
0.00027439
0.000896262
0.000274787
0.000852123
0.000276271
0.000809525
0.000279391
0.000765421
0.000284567
0.000717559
0.000291997
0.000667381
0.000301478
0.000618442
0.000313986
0.000569542
0.000329979
0.000517858
0.000350932
0.00046201
0.000376197
0.00040471
0.00040866
0.000346968
0.000447958
0.000287241
0.000499624
0.000221976
0.000557068
0.000151391
0.000608385
7.61544e-05
-7.71956e-05
-8.41346e-05
0.00188413
-9.09334e-05
0.00191674
-9.75096e-05
0.00194995
-0.000103785
0.00198374
-0.000109686
0.0020181
-0.000115148
0.00205297
-0.00012011
0.00208831
-0.000124525
0.00212404
-0.000128349
0.00216007
-0.000131553
0.00219634
-0.000134114
0.00223272
-0.000136019
0.00226913
-0.000137264
0.00230545
-0.000137854
0.00234159
-0.000137801
0.00237742
-0.000137125
0.00241285
-0.00013585
0.00244777
-0.000134008
0.00248209
-0.000131633
0.00251571
-0.000128762
0.00254855
-0.000125435
0.00258052
-0.000121694
0.00261156
-0.000117581
0.00264159
-0.000113136
0.00267056
-0.000108402
0.00269843
-0.000103417
0.00272514
-9.82185e-05
0.00275066
-9.28425e-05
0.00277498
-8.73216e-05
0.00279805
-8.16859e-05
0.00281987
-7.59627e-05
0.00284044
-7.01761e-05
0.00285973
-6.43475e-05
0.00287776
-5.84954e-05
0.00289453
-5.26351e-05
0.00291003
-4.67794e-05
0.00292429
-4.09385e-05
0.00293731
-3.51197e-05
0.00294911
-2.93282e-05
0.0029597
-2.35684e-05
0.00296909
-1.80102e-05
0.00297731
-7.70272e-06
0.00298446
4.44264e-05
0.00299036
0.000100863
0.00299129
-1.10805e-05
0.00298027
-4.35211e-07
0.00297534
3.4485e-07
0.00296361
4.94889e-07
0.00294655
1.37712e-06
0.00293474
2.89397e-06
0.00292747
5.2027e-06
0.00291979
8.46221e-06
0.00290981
1.29111e-05
0.00289567
1.78736e-05
0.00287383
2.35816e-05
0.00285245
3.03064e-05
0.00283969
3.76856e-05
0.0028315
4.58009e-05
0.00282028
5.46917e-05
0.00280377
6.43735e-05
0.00278164
7.43077e-05
0.00275028
8.47968e-05
0.00272175
9.60645e-05
0.00270342
0.000107643
0.0026874
0.00011972
0.00266787
0.00013219
0.00264029
0.000144734
0.00260459
0.000157302
0.00256199
0.000170354
0.00252739
0.000183628
0.00250198
0.00019678
0.0024745
0.000209707
0.00244137
0.000222391
0.0024014
0.000234376
0.00234847
0.000246427
0.00229964
0.00025858
0.00226211
0.00027023
0.00222555
0.000281128
0.00218545
0.000291109
0.00213841
0.000299785
0.00208049
0.000308193
0.00202298
0.000316536
0.0019764
0.00032414
0.00193239
0.000330592
0.00188544
0.000335278
0.0018331
0.000338985
0.00177117
0.000342389
0.00171106
0.000345122
0.00166103
0.000346859
0.00161274
0.000347356
0.00156172
0.00034656
0.00150618
0.000345461
0.0014444
0.000344225
0.00138945
0.000342358
0.00134162
0.000339647
0.00129365
0.000336211
0.00124382
0.000332397
0.00118824
0.000329228
0.00113539
0.000326509
0.00108998
0.000323881
0.00104604
0.000321579
0.00100042
0.000319689
0.00095088
0.000319188
0.000901193
0.000320037
0.000856808
0.00032223
0.000813611
0.000326235
0.000768457
0.000332223
0.000719614
0.000340852
0.000669513
0.000351985
0.000621234
0.000366642
0.000572556
0.00038489
0.000520299
0.000407337
0.000463973
0.000434171
0.00040599
0.000469303
0.000346986
0.000512889
0.00028609
0.000569446
0.000219549
0.00063265
0.000148562
0.000684638
7.467e-05
-0.000109218
-0.000116745
0.00191458
-0.00012414
0.00195171
-0.000131304
0.0019894
-0.00013814
0.00202763
-0.00014456
0.00206637
-0.000150483
0.0021056
-0.000155838
0.00214525
-0.000160564
0.00218524
-0.000164611
0.0022255
-0.000167939
0.00226593
-0.000170522
0.00230643
-0.000172343
0.00234689
-0.000173396
0.0023872
-0.000173688
0.00242725
-0.000173231
0.00246692
-0.000172048
0.00250611
-0.000170169
0.0025447
-0.000167629
0.0025826
-0.000164469
0.0026197
-0.000160733
0.00265592
-0.00015647
0.00269116
-0.000151727
0.00272536
-0.000146554
0.00275845
-0.000141
0.00279037
-0.000135114
0.00282106
-0.000128943
0.00285048
-0.00012253
0.0028786
-0.000115918
0.00290539
-0.000109146
0.00293083
-0.000102248
0.0029549
-9.52584e-05
0.00297759
-8.82046e-05
0.00299891
-8.11119e-05
0.00301884
-7.40021e-05
0.0030374
-6.68934e-05
0.00305459
-5.98007e-05
0.00307043
-5.27358e-05
0.00308493
-4.57076e-05
0.0030981
-3.8722e-05
0.00310997
-3.17856e-05
0.00312054
-2.51223e-05
0.00312984
-1.33935e-05
0.00313797
4.31779e-05
0.00314468
0.000111409
0.00314527
-2.6746e-06
0.00313444
1.02235e-05
0.00312713
1.13653e-05
0.00311206
1.19598e-05
0.00309295
1.31291e-05
0.00307932
1.50549e-05
0.0030692
1.7815e-05
0.00305825
2.1543e-05
0.00304415
2.63878e-05
0.0030261
3.2182e-05
0.00300073
3.87373e-05
0.00297809
4.6555e-05
0.00296416
5.49044e-05
0.00295221
6.40977e-05
0.00293734
7.4037e-05
0.00291626
8.4736e-05
0.00288978
9.60806e-05
0.00285621
0.000108264
0.00282646
0.000121054
0.00280609
0.000134037
0.00278577
0.000147493
0.00276212
0.000161227
0.00273044
0.000175206
0.00269048
0.000189622
0.00264691
0.000204572
0.00261114
0.000219538
0.0025824
0.000234218
0.00255109
0.000248546
0.00251383
0.000262325
0.00246986
0.000275911
0.00241549
0.000289674
0.0023659
0.00030338
0.0023267
0.000316391
0.00228721
0.000328371
0.00224355
0.000339117
0.00219384
0.000348851
0.0021331
0.000358523
0.0020754
0.000367941
0.00202806
0.000376428
0.0019818
0.00038341
0.00193251
0.000388561
0.00187816
0.000392598
0.00181406
0.000396311
0.00175417
0.000399442
0.00170349
0.000401353
0.00165367
0.000401692
0.00160072
0.00040038
0.00154285
0.000398794
0.00147989
0.000397005
0.00142426
0.000394365
0.00137389
0.000390644
0.00132263
0.000386013
0.00126905
0.000381526
0.00120965
0.000377786
0.00115443
0.000374346
0.00110625
0.000370932
0.0010591
0.000367903
0.00101052
0.000365567
0.000957806
0.00036509
0.000907047
0.000366155
0.000861334
0.000368696
0.000816246
0.000373308
0.000769165
0.000379875
0.000718344
0.000389757
0.000668553
0.000402581
0.000620525
0.000419324
0.000571674
0.000439786
0.000518613
0.000464745
0.000462081
0.000493724
0.000404634
0.000531173
0.000345911
0.000578709
0.0002837
0.000639747
0.000216067
0.000707037
0.000145235
0.000759421
7.27529e-05
-0.000145815
-0.000153878
0.0019479
-0.000161824
0.00198942
-0.000169532
0.00203144
-0.000176888
0.00207396
-0.000183786
0.00211697
-0.000190129
0.00216041
-0.000195832
0.00220424
-0.000200823
0.00224837
-0.00020504
0.00229273
-0.000208438
0.0023372
-0.000210982
0.00238169
-0.000212654
0.00242609
-0.000213445
0.00247027
-0.000213362
0.00251412
-0.000212419
0.00255752
-0.000210642
0.00260036
-0.000208065
0.00264251
-0.00020473
0.00268388
-0.000200684
0.00272436
-0.00019598
0.00276386
-0.000190671
0.00280228
-0.000184815
0.00283956
-0.000178469
0.00287561
-0.000171692
0.00291038
-0.000164538
0.00294382
-0.000157064
0.00297587
-0.00014932
0.00300651
-0.000141355
0.0030357
-0.000133215
0.00306343
-0.000124942
0.00308968
-0.000116571
0.00311444
-0.000108138
0.00313771
-9.96711e-05
0.00315949
-9.11953e-05
0.00317979
-8.2732e-05
0.00319862
-7.42985e-05
0.00321599
-6.59083e-05
0.00323192
-5.75715e-05
0.00324643
-4.92949e-05
0.00325953
-4.10864e-05
0.00327125
-3.32193e-05
0.00328163
-1.98725e-05
0.00329092
4.24294e-05
0.00329872
0.000121689
0.0033034
7.83497e-06
0.00329243
2.34006e-05
0.00328206
2.5235e-05
0.0032632
2.63594e-05
0.00324266
2.79501e-05
0.00322852
3.02261e-05
0.00321621
3.33885e-05
0.0032028
3.76936e-05
0.00318529
4.29743e-05
0.0031626
4.93064e-05
0.00313566
5.69472e-05
0.00311414
6.5854e-05
0.00309952
7.53042e-05
0.00308398
8.55144e-05
0.00306484
9.66242e-05
0.00303944
0.000108389
0.00300792
0.000120955
0.00297272
0.000134612
0.00294347
0.000149101
0.00292136
0.000163571
0.00289722
0.000178486
0.00286788
0.000193581
0.00283166
0.000208865
0.00278639
0.000224943
0.00274251
0.000241594
0.00270656
0.000258289
0.00267408
0.000274466
0.00263828
0.000290044
0.00259548
0.000304978
0.00254507
0.000320024
0.00248929
0.000335347
0.00244015
0.000350469
0.00239856
0.000364684
0.00235524
0.000377632
0.00230645
0.000389154
0.00225132
0.00040003
0.00218788
0.000410826
0.00213
0.000421144
0.00208106
0.000430284
0.00203172
0.000437752
0.00197811
0.000443036
0.00191896
0.000447311
0.00185279
0.000451496
0.00179307
0.000455037
0.00174095
0.000457227
0.00168847
0.000457612
0.00163253
0.000456048
0.00157104
0.000454107
0.00150726
0.000451942
0.00145203
0.000448896
0.00140031
0.00044474
0.00134743
0.0004394
0.00129173
0.000434096
0.00123066
0.000429519
0.00117485
0.000425
0.00112464
0.000420472
0.00107441
0.000416492
0.00102273
0.000413735
0.000966635
0.000413045
0.000914639
0.000413892
0.000867112
0.000416316
0.000819545
0.000421026
0.000770029
0.000428293
0.000717175
0.000439262
0.000667346
0.000453489
0.000619097
0.000471915
0.000569141
0.000494437
0.000515226
0.000521911
0.000458658
0.000553632
0.000401686
0.000594296
0.000343834
0.00064525
0.000281197
0.000709954
0.000213218
0.000779853
0.000142545
0.000832515
7.12417e-05
-0.000186837
-0.00019539
0.00198413
-0.000203844
0.00202987
-0.000212057
0.00207607
-0.000219894
0.00212275
-0.000227231
0.00216987
-0.000233956
0.00221739
-0.000239966
0.00226526