/*--------------------------------*- C++ -*----------------------------------*\
| =========                 |                                                 |
| \\      /  F ield         | OpenFOAM: The Open Source CFD Toolbox           |
|  \\    /   O peration     | Version:  2.2.x                                 |
|   \\  /    A nd           | Web:      www.OpenFOAM.org                      |
|    \\/     M anipulation  |                                                 |
\*---------------------------------------------------------------------------*/
FoamFile
{
    version     2.0;
    format      ascii;
    class       volScalarField;
    location    "2.65";
    object      rho;
}
// * * * * * * * * * * * * * * * * * * * * * * * * * * * * * * * * * * * * * //

dimensions      [1 -3 0 0 0 0 0];

internalField   nonuniform List<scalar> 
14161
(
0.99106
0.991046
0.990979
0.990909
0.990782
0.990653
0.990511
0.990366
0.990232
0.990102
0.98997
0.989835
0.989737
0.989659
0.989594
0.989499
0.989415
0.989397
0.989402
0.989421
0.989462
0.98955
0.989605
0.989649
0.989699
0.989764
0.989861
0.989982
0.990072
0.990118
0.990094
0.990183
0.990449
0.990895
0.991105
0.991242
0.991329
0.991448
0.991632
0.992002
0.991923
0.992201
0.990909
0.993283
1.00916
1.14107
1.9796
2.59185
2.4573
2.37013
2.34904
2.3492
2.34449
2.34134
2.33446
2.32718
2.32244
2.31387
2.30396
2.29267
2.28087
2.26985
2.25878
2.24753
2.23646
2.22629
2.21634
2.20728
2.19794
2.18849
2.17813
2.16769
2.15757
2.14789
2.13813
2.12905
2.12004
2.11155
2.1038
2.09883
2.09512
2.09697
2.10093
2.11166
2.13235
2.16066
2.19623
2.22988
2.25804
2.28735
2.30213
2.31955
2.34256
2.35916
2.37798
2.39063
2.39378
2.39939
2.40044
2.39882
2.40502
2.44037
2.48217
2.5479
2.61775
2.69936
2.78029
2.86232
2.93048
2.99723
3.05307
3.10564
3.14991
3.19664
3.23639
3.28846
3.31885
3.31283
3.29609
0.991066
0.991037
0.990968
0.990899
0.990773
0.990648
0.990508
0.990364
0.990226
0.990091
0.989956
0.989822
0.989726
0.989649
0.989586
0.98949
0.989406
0.989389
0.989395
0.989414
0.989455
0.989541
0.989593
0.989634
0.989681
0.989737
0.98982
0.989926
0.98999
0.990016
0.989998
0.99001
0.990267
0.990579
0.99067
0.99067
0.990588
0.990594
0.990514
0.990572
0.990202
0.99027
0.987914
0.988596
0.992622
1.25287
2.18889
2.48441
2.46751
2.42203
2.40752
2.39605
2.38295
2.36978
2.35061
2.33329
2.31946
2.30031
2.2829
2.26358
2.24577
2.23057
2.21593
2.20222
2.18988
2.17902
2.16892
2.16036
2.15155
2.14337
2.1357
2.12834
2.12183
2.11528
2.10932
2.10413
2.09851
2.09288
2.08769
2.0842
2.08407
2.09255
2.10481
2.12322
2.15871
2.19808
2.23494
2.26628
2.28895
2.29731
2.29184
2.29911
2.3141
2.33693
2.36495
2.42178
2.49108
2.52849
2.57237
2.62007
2.66576
2.71809
2.76023
2.80436
2.84291
2.88367
2.92106
2.96392
3.00419
3.04943
3.0939
3.137
3.18009
3.22687
3.27331
3.32179
3.33222
3.31672
3.28615
0.991079
0.991035
0.990962
0.990894
0.990768
0.990645
0.990505
0.990358
0.990219
0.990083
0.989951
0.98982
0.989724
0.98965
0.989583
0.989486
0.989402
0.989385
0.989391
0.989411
0.989451
0.989535
0.989597
0.989645
0.9897
0.989769
0.989874
0.990018
0.990122
0.990155
0.99018
0.99033
0.99076
0.991271
0.991585
0.991858
0.992077
0.992451
0.992896
0.993737
0.994558
0.995796
0.995403
0.998077
0.991614
1.49332
2.36008
2.6406
2.67605
2.62389
2.59828
2.57058
2.54521
2.52313
2.49931
2.47584
2.45766
2.43502
2.41395
2.39282
2.37223
2.35588
2.33871
2.32449
2.31007
2.29769
2.28638
2.27675
2.26679
2.25654
2.24744
2.23949
2.23213
2.22557
2.21765
2.20743
2.1967
2.18764
2.17933
2.17375
2.17065
2.17092
2.18539
2.21074
2.2333
2.27199
2.31253
2.33631
2.3473
2.36472
2.38323
2.40518
2.4579
2.57302
2.66023
2.72027
2.79301
2.84106
2.891
2.90664
2.92275
2.9462
2.95848
2.96168
2.97256
2.98941
3.00907
3.03301
3.05791
3.08635
3.11874
3.15282
3.19182
3.22924
3.26499
3.28773
3.28891
3.27232
3.24799
0.991086
0.991032
0.990951
0.99089
0.990765
0.990636
0.990492
0.990346
0.990211
0.990083
0.989949
0.989816
0.989714
0.989636
0.989567
0.989468
0.989385
0.989369
0.989376
0.989396
0.989437
0.989524
0.989573
0.98961
0.989652
0.989703
0.989773
0.989848
0.989884
0.989888
0.98983
0.989821
0.989933
0.990159
0.990188
0.99014
0.989998
0.989696
0.989428
0.989386
0.989194
0.989668
0.988915
0.990877
0.980275
1.61685
2.44719
2.69442
2.75158
2.72074
2.69446
2.66653
2.63811
2.61592
2.59024
2.56498
2.54319
2.51786
2.4942
2.47138
2.4467
2.42673
2.40649
2.38969
2.37292
2.35728
2.34305
2.33115
2.31883
2.30705
2.29603
2.28533
2.27458
2.26358
2.25365
2.24209
2.23027
2.21908
2.20933
2.20193
2.20006
2.20768
2.21496
2.23526
2.27676
2.30978
2.34859
2.39893
2.42815
2.45405
2.51213
2.61604
2.68301
2.73355
2.79915
2.85913
2.88552
2.90237
2.93974
2.9463
2.96071
2.96397
2.96556
2.97328
2.98616
3.0043
3.02251
3.0451
3.06626
3.09219
3.12218
3.15347
3.18681
3.211
3.22951
3.23016
3.2335
3.2155
3.20289
0.991106
0.991035
0.990944
0.990882
0.990762
0.990635
0.990491
0.990343
0.990205
0.990074
0.989942
0.989812
0.989709
0.989631
0.989561
0.98946
0.989376
0.989361
0.989368
0.98939
0.989433
0.989523
0.98958
0.989624
0.989679
0.989749
0.989865
0.990004
0.990119
0.990161
0.990201
0.990415
0.990901
0.991497
0.991928
0.992371
0.992758
0.993286
0.993958
0.995281
0.996454
0.99893
0.998798
1.00111
0.987321
1.62471
2.49991
2.68922
2.76658
2.75808
2.73089
2.70176
2.67291
2.65399
2.62434
2.59383
2.56984
2.54191
2.51824
2.49254
2.46464
2.4448
2.42218
2.40352
2.38493
2.36988
2.35509
2.34346
2.33047
2.31736
2.30613
2.29487
2.28369
2.27232
2.26039
2.24856
2.2367
2.22454
2.21397
2.20604
2.20098
2.20353
2.22097
2.24722
2.278
2.3285
2.38681
2.4268
2.47466
2.55539
2.62391
2.66364
2.71152
2.77786
2.81398
2.83491
2.86697
2.90669
2.9316
2.93454
2.95498
2.97112
2.99017
3.00152
3.01156
3.02185
3.0339
3.0488
3.06436
3.08288
3.1053
3.12655
3.14949
3.15947
3.17043
3.1734
3.18184
3.17625
3.18436
0.99111
0.991035
0.990937
0.990875
0.990751
0.990622
0.990484
0.990343
0.990204
0.990066
0.989925
0.989796
0.989694
0.989618
0.98955
0.989449
0.989361
0.989345
0.989351
0.989372
0.989413
0.989496
0.989538
0.989568
0.989601
0.989643
0.989699
0.989752
0.989766
0.989757
0.989662
0.989615
0.98966
0.989799
0.989786
0.989684
0.989451
0.989056
0.988548
0.988529
0.988334
0.989144
0.987762
0.989007
0.97034
1.63919
2.53058
2.70901
2.77278
2.76804
2.75205
2.72058
2.69106
2.67126
2.63525
2.59609
2.56782
2.5372
2.5107
2.48085
2.44951
2.42828
2.40485
2.38606
2.36784
2.35153
2.33672
2.3262
2.31442
2.3011
2.28914
2.27787
2.26727
2.25634
2.24454
2.23282
2.22196
2.21114
2.20052
2.19382
2.1914
2.1925
2.20632
2.24043
2.28242
2.32743
2.37604
2.44688
2.52569
2.56741
2.60264
2.67071
2.70486
2.73356
2.77333
2.81697
2.84791
2.86423
2.88097
2.90193
2.92706
2.94683
2.9706
2.99104
3.00411
3.0147
3.02914
3.04333
3.05581
3.06581
3.08275
3.09735
3.11608
3.13118
3.1457
3.15566
3.16306
3.17041
3.18485
0.991133
0.991042
0.99093
0.990867
0.990744
0.990624
0.990484
0.990338
0.990198
0.99006
0.989916
0.989787
0.989686
0.989607
0.989538
0.989435
0.989346
0.989329
0.989335
0.989356
0.989399
0.989487
0.989541
0.98958
0.989634
0.989702
0.989804
0.989949
0.990079
0.990139
0.990198
0.990431
0.990937
0.99157
0.992094
0.992619
0.993146
0.993739
0.994465
0.995713
0.997333
1.00034
1.0003
1.0028
0.990558
1.67882
2.45557
2.71366
2.7485
2.71765
2.69449
2.65579
2.61995
2.59923
2.55961
2.52032
2.49585
2.46906
2.44782
2.42342
2.39837
2.38095
2.35855
2.34451
2.33314
2.32062
2.30723
2.29761
2.28927
2.28098
2.27346
2.26384
2.25549
2.24686
2.23729
2.22881
2.22023
2.21062
2.20207
2.19453
2.19175
2.19677
2.21478
2.23215
2.25687
2.32258
2.39594
2.45067
2.49772
2.56381
2.61552
2.63823
2.65319
2.69829
2.73007
2.75978
2.79227
2.8235
2.84433
2.86619
2.88395
2.90742
2.94304
2.97333
2.98914
3.00303
3.01873
3.03114
3.03799
3.04483
3.06754
3.08705
3.10819
3.12936
3.14565
3.15656
3.16224
3.17594
3.18998
0.991138
0.991044
0.990926
0.990865
0.990741
0.990616
0.990473
0.990324
0.990186
0.990049
0.989906
0.989778
0.989676
0.989596
0.989524
0.989418
0.989325
0.989307
0.989313
0.989332
0.98937
0.98945
0.989485
0.989506
0.989531
0.989563
0.989606
0.989641
0.989644
0.989611
0.989466
0.989433
0.989441
0.989476
0.98943
0.989277
0.988963
0.988531
0.987804
0.987635
0.987357
0.98785
0.986879
0.98941
0.975762
1.60382
2.37096
2.68334
2.71227
2.64897
2.61147
2.57238
2.53773
2.51736
2.49187
2.46621
2.45014
2.4273
2.4114
2.39604
2.37746
2.36565
2.33927
2.32782
2.31729
2.30611
2.29766
2.28633
2.27905
2.2705
2.26575
2.25692
2.25118
2.2446
2.23756
2.23073
2.22402
2.21676
2.20887
2.20106
2.20345
2.21508
2.21883
2.23549
2.2787
2.32655
2.37309
2.4358
2.51218
2.5465
2.56399
2.59495
2.61923
2.64094
2.66046
2.69852
2.73743
2.76722
2.79625
2.827
2.84288
2.86764
2.90772
2.94676
2.96131
2.97581
2.9974
3.01231
3.02401
3.03903
3.06469
3.08828
3.11117
3.13551
3.15371
3.16631
3.17155
3.19018
3.20037
0.99116
0.991051
0.990921
0.99086
0.990737
0.990608
0.990466
0.990325
0.990184
0.990039
0.989891
0.989765
0.989663
0.989582
0.989511
0.989404
0.989308
0.989288
0.989294
0.989312
0.98935
0.989432
0.989478
0.989509
0.989551
0.989613
0.989711
0.989842
0.989956
0.99001
0.990073
0.990328
0.990821
0.99145
0.991982
0.992534
0.993141
0.993742
0.994447
0.995403
0.996651
0.998431
0.998021
1.00079
0.996578
1.41889
2.21643
2.59724
2.62164
2.53275
2.50459
2.48477
2.4593
2.44527
2.4289
2.40863
2.39489
2.3662
2.3567
2.34249
2.32362
2.31061
2.28617
2.27787
2.25279
2.24768
2.24107
2.2299
2.22277
2.21396
2.20813
2.19827
2.19295
2.18512
2.17771
2.17158
2.16588
2.15958
2.15557
2.15257
2.15511
2.17188
2.17587
2.21021
2.25871
2.29552
2.36709
2.42468
2.47264
2.50996
2.52739
2.54612
2.56461
2.58685
2.60375
2.627
2.66439
2.70338
2.74604
2.77915
2.80775
2.84014
2.87703
2.92021
2.94296
2.95945
2.97758
2.99612
3.01184
3.03399
3.06719
3.09552
3.12136
3.15267
3.1735
3.18787
3.19284
3.21361
3.2157
0.991165
0.991054
0.990919
0.990856
0.990732
0.990603
0.99046
0.990317
0.990174
0.990027
0.989877
0.989751
0.989648
0.989565
0.989492
0.989384
0.989282
0.989259
0.989264
0.98928
0.989312
0.989382
0.989414
0.989424
0.989436
0.989455
0.989482
0.989501
0.989499
0.989444
0.989291
0.989264
0.989228
0.989212
0.989135
0.988942
0.988576
0.988062
0.987211
0.986372
0.985832
0.985227
0.984117
0.984543
0.990273
1.13704
1.75337
2.54864
2.5455
2.47243
2.42258
2.40556
2.38912
2.38131
2.37541
2.35542
2.34706
2.32166
2.31207
2.27485
2.27276
2.26243
2.23674
2.22606
2.20667
2.20117
2.19437
2.18734
2.1745
2.16743
2.15859
2.15208
2.14337
2.13632
2.12919
2.12218
2.11488
2.10812
2.09867
2.09499
2.09577
2.10597
2.12563
2.13773
2.20191
2.24034
2.31796
2.37283
2.4165
2.45525
2.47506
2.49794
2.50979
2.5273
2.54577
2.56823
2.60256
2.63351
2.67814
2.71951
2.7643
2.80091
2.83597
2.88433
2.91789
2.93802
2.95038
2.96678
2.98849
3.02013
3.06492
3.11384
3.14009
3.18039
3.20416
3.22134
3.22703
3.2454
3.23471
0.991183
0.991062
0.990917
0.990851
0.990726
0.990601
0.990457
0.99031
0.990163
0.990016
0.989865
0.989738
0.989635
0.989552
0.989477
0.989366
0.98926
0.989232
0.989236
0.989251
0.989285
0.989356
0.989396
0.989411
0.989437
0.989483
0.989558
0.989662
0.989765
0.989804
0.989881
0.990127
0.99054
0.991092
0.991586
0.992077
0.992627
0.993188
0.993881
0.994518
0.995726
0.996421
0.99809
0.998957
1.00733
1.04866
1.43175
2.57433
2.63638
2.55218
2.46551
2.41736
2.37887
2.36209
2.34176
2.31712
2.30447
2.27464
2.26122
2.23461
2.23479
2.21435
2.20157
2.17487
2.16983
2.16289
2.15845
2.14763
2.14001
2.12783
2.12194
2.11325
2.10671
2.09951
2.09243
2.08511
2.07778
2.06956
2.06174
2.05001
2.05381
2.05605
2.07167
2.07815
2.13725
2.19456
2.2673
2.32249
2.36851
2.40368
2.42091
2.44471
2.44659
2.47055
2.50435
2.53638
2.56845
2.59328
2.62924
2.67035
2.71862
2.76101
2.79867
2.85068
2.89257
2.91836
2.93298
2.94586
2.96352
2.99807
3.05386
3.11839
3.16734
3.21253
3.23408
3.24927
3.25826
3.26926
3.25555
0.99119
0.991066
0.990916
0.990848
0.990721
0.99059
0.990448
0.990304
0.990154
0.990002
0.98985
0.989723
0.989619
0.989534
0.989454
0.989339
0.989227
0.989193
0.989195
0.989208
0.989235
0.989295
0.989322
0.989324
0.989317
0.989317
0.989318
0.989316
0.98929
0.989198
0.989141
0.989139
0.989106
0.989025
0.988899
0.988713
0.988382
0.98787
0.987179
0.986059
0.985882
0.984409
0.98518
0.981022
0.987064
1.00362
1.62256
2.61447
2.56887
2.48976
2.40951
2.35342
2.31529
2.29959
2.28229
2.27238
2.26304
2.23858
2.22774
2.20713
2.21163
2.18839
2.18025
2.15109
2.14978
2.1466
2.14343
2.13942
2.12708
2.1196
2.11118
2.10416
2.09582
2.09055
2.08335
2.0751
2.06587
2.057
2.04442
2.02978
2.02962
2.03804
2.03406
2.06073
2.1032
2.1849
2.23678
2.27382
2.28275
2.32134
2.37967
2.40353
2.42759
2.44708
2.47634
2.49918
2.51707
2.54226
2.57583
2.61604
2.66086
2.71102
2.75514
2.80901
2.86007
2.89496
2.91488
2.92841
2.9425
2.97045
3.02685
3.10511
3.17068
3.21873
3.24518
3.25795
3.26863
3.27769
3.27613
0.991203
0.991072
0.990916
0.990845
0.990715
0.990585
0.990439
0.990294
0.990145
0.989992
0.989837
0.989708
0.989604
0.989518
0.989434
0.989314
0.989196
0.989156
0.989155
0.989168
0.989194
0.989254
0.989287
0.989297
0.989301
0.989317
0.989351
0.989407
0.98943
0.989451
0.989603
0.989911
0.990236
0.990543
0.990913
0.991386
0.991939
0.992494
0.993126
0.993764
0.995311
0.995854
0.998287
0.997295
1.00461
1.0238
1.82515
2.48798
2.52483
2.47368
2.43304
2.38875
2.35087
2.33301
2.31398
2.30368
2.29128
2.25976
2.24698
2.22428
2.22481
2.19884
2.18765
2.16179
2.16142
2.15508
2.15555
2.14629
2.13758
2.12396
2.11873
2.11073
2.10523
2.09792
2.09104
2.08157
2.07278
2.06202
2.04978
2.0338
2.0332
2.03869
2.03685
2.07215
2.12318
2.19884
2.21971
2.27586
2.27116
2.26523
2.30532
2.3636
2.39886
2.41761
2.43238
2.45698
2.48843
2.51543
2.53678
2.56714
2.60445
2.65722
2.70882
2.76882
2.83063
2.87402
2.89938
2.91038
2.91801
2.93635
2.98826
3.0752
3.16354
3.21527
3.24515
3.25724
3.26858
3.27789
3.28608
0.99121
0.991076
0.990916
0.990842
0.990709
0.990578
0.990433
0.990284
0.990132
0.989977
0.98982
0.98969
0.989583
0.989498
0.98941
0.989282
0.989153
0.989106
0.989101
0.989111
0.989134
0.989179
0.989203
0.989204
0.989185
0.989144
0.989107
0.98907
0.989005
0.98894
0.98894
0.98896
0.988959
0.988901
0.988777
0.988663
0.988508
0.988218
0.98781
0.987278
0.987172
0.987011
0.986975
0.986721
0.99247
1.05998
1.89182
2.28561
2.41525
2.4517
2.44074
2.41945
2.37287
2.35392
2.33023
2.31913
2.30352
2.27216
2.2565
2.22822
2.2229
2.19363
2.18386
2.16175
2.16277
2.15451
2.15595
2.14636
2.13843
2.12403
2.12002
2.11167
2.10738
2.09971
2.09236
2.08189
2.07363
2.06174
2.04874
2.03363
2.03385
2.03451
2.04772
2.08582
2.18279
2.24921
2.22751
2.24209
2.29017
2.29212
2.26032
2.30011
2.37539
2.41405
2.43802
2.4619
2.47985
2.49934
2.51712
2.54404
2.57174
2.61326
2.66384
2.73264
2.80273
2.85891
2.89167
2.90313
2.90743
2.91748
2.95574
3.03773
3.14218
3.20586
3.24009
3.2502
3.26249
3.27033
3.28817
0.991217
0.99108
0.990915
0.990838
0.990703
0.990571
0.990424
0.990273
0.99012
0.989964
0.989805
0.989672
0.989564
0.989478
0.989389
0.989253
0.989112
0.989057
0.989047
0.989055
0.989079
0.989124
0.989148
0.989153
0.989143
0.989105
0.989089
0.989085
0.989069
0.989092
0.989232
0.989466
0.989691
0.989907
0.990189
0.990581
0.991079
0.991521
0.991964
0.992643
0.993394
0.994808
0.994849
0.997623
1.00609
1.25809
1.96391
2.1237
2.25108
2.36085
2.42974
2.41739
2.38168
2.35099
2.31654
2.30085
2.276
2.26917
2.25707
2.23189
2.22064
2.1936
2.18383
2.16662
2.16656
2.15932
2.15941
2.15039
2.14195
2.12855
2.12514
2.11835
2.11369
2.10513
2.09822
2.08767
2.07976
2.06628
2.05045
2.03377
2.03413
2.04216
2.05235
2.14223
2.23462
2.29748
2.27849
2.22329
2.25415
2.30126
2.29273
2.27598
2.31634
2.36456
2.39125
2.41231
2.44328
2.47475
2.49925
2.52236
2.54751
2.57563
2.61542
2.67824
2.75129
2.82187
2.86981
2.88829
2.89323
2.89682
2.92186
2.99324
3.10407
3.18491
3.22607
3.23427
3.24693
3.25214
3.28407
0.991221
0.991082
0.990914
0.990835
0.990695
0.990562
0.990414
0.990261
0.990107
0.98995
0.989788
0.989651
0.989539
0.989452
0.989364
0.989221
0.989062
0.988996
0.98898
0.988983
0.989001
0.98904
0.989055
0.989041
0.989002
0.988928
0.988849
0.988783
0.988708
0.988668
0.988668
0.988692
0.988691
0.988653
0.988622
0.988616
0.988592
0.988535
0.988446
0.988463
0.988537
0.989021
0.98886
0.992194
1.01145
1.54134
1.96832
2.05166
2.12146
2.24425
2.39112
2.40822
2.40227
2.38144
2.34762
2.32781
2.30185
2.29543
2.26904
2.25212
2.22629
2.21242
2.18836
2.18401
2.17389
2.1761
2.17049
2.1658
2.1497
2.14255
2.13924
2.13583
2.12919
2.12256
2.11349
2.1056
2.09455
2.08199
2.06396
2.04627
2.04401
2.06702
2.10817
2.23246
2.27829
2.32323
2.33986
2.29454
2.24374
2.26419
2.30247
2.29538
2.30242
2.33203
2.36307
2.38278
2.41593
2.44577
2.46669
2.48281
2.50371
2.52845
2.56681
2.62629
2.70078
2.77828
2.84082
2.87283
2.88557
2.8882
2.9031
2.95477
3.05615
3.1546
3.20744
3.21162
3.22397
3.22536
3.2728
0.991226
0.991084
0.990913
0.990832
0.990688
0.990553
0.990403
0.990248
0.990093
0.989937
0.989772
0.98963
0.989515
0.989426
0.989339
0.989192
0.989014
0.988935
0.988911
0.988912
0.988926
0.988967
0.988983
0.988966
0.988918
0.988821
0.988758
0.988716
0.98869
0.98869
0.988767
0.988896
0.989031
0.989165
0.989361
0.989633
0.989951
0.990244
0.990586
0.990933
0.991595
0.991884
0.992873
0.996208
1.02882
1.78222
2.01044
2.03858
2.06178
2.11929
2.2201
2.33202
2.388
2.3856
2.36175
2.34709
2.31974
2.30993
2.2791
2.26214
2.22944
2.21497
2.18789
2.18659
2.17829
2.1809
2.17454
2.16872
2.15099
2.146
2.14333
2.14097
2.13429
2.1284
2.11978
2.11242
2.10218
2.0869
2.07208
2.05854
2.06209
2.11525
2.23516
2.34635
2.33964
2.3035
2.3207
2.33854
2.29981
2.26709
2.28943
2.29785
2.29355
2.32276
2.36689
2.38936
2.41073
2.43776
2.45912
2.4732
2.48942
2.50905
2.54475
2.5973
2.6663
2.7415
2.81243
2.855
2.87409
2.87698
2.88377
2.91772
3.00414
3.11616
3.18224
3.18681
3.19744
3.1992
3.25046
0.991227
0.991085
0.990911
0.990827
0.99068
0.990542
0.99039
0.990233
0.990076
0.98992
0.989753
0.989604
0.989485
0.989394
0.989308
0.989159
0.98896
0.988864
0.98883
0.988825
0.988831
0.988865
0.988884
0.988847
0.98876
0.988606
0.988461
0.988406
0.988371
0.988333
0.988314
0.98831
0.988284
0.988263
0.988258
0.988264
0.988265
0.988256
0.988284
0.988122
0.988483
0.987388
0.98879
0.994746
1.15151
1.9291
2.0447
2.05014
2.04993
2.06636
2.0995
2.18552
2.29107
2.37983
2.37618
2.3575
2.33752
2.31217
2.29147
2.25476
2.23627
2.20302
2.19048
2.17419
2.17908
2.17364
2.17432
2.16158
2.15403
2.14671
2.14564
2.14279
2.13354
2.12787
2.11942
2.11125
2.10048
2.08389
2.07103
2.07618
2.1299
2.26069
2.3327
2.4028
2.45144
2.37374
2.31573
2.3341
2.34438
2.30718
2.29188
2.28873
2.29353
2.31374
2.34331
2.36627
2.38591
2.41007
2.43431
2.45426
2.47296
2.48912
2.51819
2.56297
2.6275
2.69866
2.77863
2.83456
2.86353
2.8684
2.87301
2.89421
2.96581
3.07642
3.15674
3.16948
3.18383
3.18689
3.22201
0.991229
0.991084
0.990908
0.990822
0.990671
0.990532
0.990379
0.99022
0.990059
0.989901
0.989732
0.989578
0.989455
0.98936
0.989275
0.989128
0.988907
0.988792
0.988746
0.988735
0.988737
0.988763
0.988797
0.988757
0.988646
0.988436
0.988276
0.988241
0.988239
0.988247
0.988253
0.988276
0.988306
0.98834
0.988434
0.988559
0.988746
0.988897
0.989171
0.989181
0.989806
0.98897
0.991957
1.00106
1.44414
1.97726
2.02793
2.03213
2.03034
2.03707
2.05178
2.08944
2.18094
2.29724
2.33882
2.35111
2.34585
2.32053
2.30802
2.26813
2.24922
2.20826
2.19706
2.17907
2.18695
2.17942
2.18028
2.16995
2.16523
2.15992
2.15713
2.15237
2.1439
2.13706
2.12907
2.12111
2.1079
2.10154
2.1143
2.17866
2.31063
2.4613
2.4206
2.37242
2.40366
2.40304
2.35487
2.34111
2.34027
2.31474
2.30238
2.30546
2.3104
2.31639
2.32933
2.34789
2.36874
2.39384
2.42411
2.44986
2.46649
2.48382
2.50385
2.53797
2.59494
2.66445
2.74668
2.81307
2.85132
2.85962
2.86282
2.87602
2.93011
3.03257
3.12418
3.14775
3.16873
3.17515
3.20186
0.991223
0.991081
0.990904
0.990815
0.990663
0.990523
0.990369
0.990208
0.990042
0.98988
0.989709
0.989548
0.98942
0.989321
0.989234
0.989089
0.988847
0.988707
0.988646
0.988627
0.988627
0.988641
0.988681
0.988639
0.988496
0.988198
0.987977
0.987919
0.9879
0.987882
0.98785
0.987789
0.987693
0.987651
0.987649
0.987656
0.987688
0.987754
0.987805
0.988039
0.988724
0.988755
0.992326
1.01319
1.71348
2.05375
2.07067
2.06408
2.04926
2.03985
2.04151
2.05536
2.08603
2.15359
2.25488
2.32606
2.34038
2.32823
2.31638
2.27956
2.25528
2.21094
2.19948
2.18369
2.19361
2.1852
2.18985
2.1818
2.1743
2.17185
2.17015
2.1663
2.15819
2.15102
2.15211
2.15369
2.156
2.21858
2.32061
2.45384
2.44348
2.46905
2.50869
2.44096
2.38654
2.38638
2.37083
2.34013
2.33017
2.31663
2.29508
2.3026
2.30729
2.31262
2.31748
2.32974
2.34535
2.37654
2.41164
2.43798
2.45151
2.46611
2.48151
2.50969
2.5556
2.62555
2.71108
2.78721
2.83514
2.84783
2.85075
2.85672
2.89684
2.98834
3.08934
3.12693
3.15752
3.16826
3.19159
0.991222
0.991076
0.990898
0.990807
0.990652
0.990511
0.990358
0.990196
0.990027
0.98986
0.989686
0.989517
0.989382
0.98928
0.989192
0.989049
0.988792
0.98862
0.988542
0.988511
0.988508
0.988523
0.988569
0.988526
0.988377
0.988044
0.987738
0.987661
0.987641
0.98763
0.98761
0.987559
0.987463
0.987421
0.987425
0.98744
0.987423
0.987434
0.987335
0.987308
0.986709
0.987418
0.991539
1.05614
1.90844
2.10126
2.11282
2.10661
2.08815
2.06914
2.05692
2.05093
2.05512
2.07156
2.11654
2.19741
2.2763
2.28473
2.27797
2.27594
2.24282
2.21749
2.17994
2.18277
2.18417
2.19222
2.18685
2.17968
2.17442
2.17737
2.18278
2.18632
2.1879
2.20174
2.25488
2.32203
2.40647
2.51635
2.6017
2.62896
2.59874
2.5199
2.50077
2.47756
2.4213
2.39429
2.37138
2.34015
2.32588
2.3168
2.3018
2.30077
2.30436
2.30704
2.31481
2.31866
2.33478
2.36287
2.39785
2.42089
2.43661
2.4489
2.46403
2.48903
2.52814
2.59488
2.67414
2.75522
2.8162
2.83634
2.84076
2.84387
2.87209
2.94767
3.05027
3.10371
3.14376
3.16088
3.18553
0.99121
0.991068
0.990891
0.990798
0.990641
0.990497
0.990341
0.990182
0.990012
0.989841
0.989665
0.989486
0.989341
0.989232
0.989143
0.989001
0.988737
0.988525
0.988424
0.988381
0.988371
0.988381
0.98843
0.988386
0.988233
0.987915
0.987452
0.987286
0.987218
0.987186
0.98716
0.987089
0.986946
0.986815
0.986753
0.98669
0.986545
0.986547
0.986153
0.986432
0.984973
0.986934
0.991484
1.22694
2.04272
2.12014
2.12432
2.11728
2.10649
2.09409
2.07986
2.0655
2.05018
2.0534
2.06179
2.10323
2.17386
2.25877
2.28562
2.26365
2.2621
2.20712
2.19166
2.18532
2.20469
2.2098
2.21717
2.22011
2.22035
2.26128
2.304
2.36501
2.42231
2.49822
2.57883
2.66254
2.73127
2.71341
2.6925
2.63453
2.58679
2.53223
2.48841
2.46125
2.42
2.39112
2.37219
2.35338
2.34566
2.34008
2.32349
2.31062
2.30801
2.31116
2.31423
2.31508
2.32681
2.35043
2.37892
2.39956
2.41549
2.42776
2.44177
2.46435
2.50279
2.56545
2.64213
2.72291
2.79582
2.8237
2.82958
2.82908
2.84812
2.90952
3.00921
3.07608
3.12476
3.1501
3.1782
0.991205
0.991059
0.990881
0.990788
0.990628
0.990482
0.990322
0.990165
0.989996
0.98982
0.989641
0.989456
0.989299
0.98918
0.989086
0.98895
0.988683
0.988429
0.988304
0.988243
0.988224
0.988228
0.988281
0.988245
0.988087
0.987792
0.987256
0.986981
0.986872
0.986804
0.986726
0.986631
0.98648
0.98637
0.986264
0.986276
0.986265
0.986428
0.986338
0.98707
0.98611
0.989355
0.996649
1.49139
2.06783
2.11134
2.11452
2.10675
2.10098
2.09787
2.09406
2.08537
2.06812
2.05331
2.05044
2.06558
2.10152
2.16468
2.23314
2.26076
2.28646
2.23332
2.24367
2.25841
2.31406
2.36164
2.41005
2.47779
2.52391
2.58566
2.65396
2.72685
2.77939
2.80548
2.8186
2.80292
2.78043
2.74279
2.69464
2.63649
2.59159
2.53816
2.49636
2.47388
2.44291
2.41162
2.3959
2.376
2.35868
2.34909
2.338
2.32604
2.319
2.31674
2.3136
2.31258
2.32116
2.33771
2.35743
2.3773
2.39643
2.41328
2.42849
2.44965
2.48404
2.54038
2.61643
2.6954
2.77531
2.80938
2.81938
2.81821
2.82932
2.87683
2.96777
3.04758
3.10666
3.13828
3.17532
0.991187
0.991045
0.990869
0.990777
0.990616
0.990466
0.990302
0.990143
0.989976
0.989796
0.989614
0.989426
0.989256
0.989126
0.989023
0.988889
0.988627
0.988326
0.988174
0.988094
0.988063
0.988059
0.988107
0.988079
0.987909
0.987613
0.987057
0.986661
0.986499
0.986366
0.986185
0.98604
0.985925
0.985847
0.98579
0.985754
0.985762
0.985868
0.986014
0.986536
0.986287
0.989496
1.00836
1.72219
2.11224
2.12812
2.13045
2.12853
2.12304
2.11805
2.11182
2.10092
2.08835
2.07941
2.07378
2.06125
2.06438
2.10992
2.2136
2.29185
2.36535
2.42859
2.46718
2.55002
2.61053
2.68883
2.75585
2.79675
2.82328
2.84224
2.85276
2.86188
2.8596
2.84071
2.8243
2.80205
2.77371
2.74356
2.70874
2.66877
2.62946
2.58466
2.54226
2.4989
2.45145
2.41751
2.39996
2.38007
2.36742
2.36252
2.35765
2.34972
2.34167
2.3303
2.32055
2.31657
2.32204
2.33435
2.34633
2.36347
2.38408
2.40457
2.42142
2.43977
2.46976
2.52001
2.5924
2.66861
2.75381
2.79477
2.80911
2.80723
2.81386
2.84995
2.92757
3.01609
3.08277
3.12253
3.16948
0.991177
0.991033
0.990854
0.990764
0.990603
0.990449
0.990281
0.990121
0.989954
0.989769
0.989583
0.989397
0.989215
0.989071
0.98896
0.988823
0.988567
0.988222
0.988039
0.987938
0.987893
0.987882
0.987929
0.987912
0.987727
0.987415
0.986852
0.986359
0.986142
0.985946
0.985662
0.985389
0.985226
0.985066
0.984959
0.984824
0.984675
0.984412
0.984417
0.983943
0.984326
0.987792
1.04129
1.91226
2.13211
2.14958
2.14971
2.14889
2.14331
2.13695
2.1316
2.12564
2.12019
2.11518
2.10997
2.10509
2.12265
2.21754
2.38447
2.5818
2.66781
2.76737
2.79551
2.83819
2.84908
2.86935
2.87555
2.87981
2.86395
2.86051
2.8509
2.85054
2.84655
2.8331
2.81923
2.79998
2.7779
2.75633
2.72843
2.69678
2.66279
2.62223
2.57783
2.53555
2.49037
2.45946
2.43633
2.40945
2.38683
2.37221
2.36201
2.35231
2.34142
2.32876
2.3201
2.31813
2.32132
2.32715
2.33701
2.35186
2.3705
2.39023
2.40948
2.42948
2.45693
2.50176
2.56861
2.64187
2.73093
2.77905
2.79842
2.79626
2.79879
2.8254
2.89144
2.98334
3.05859
3.10601
3.16395
0.991154
0.991014
0.990837
0.990749
0.990589
0.990432
0.99026
0.990097
0.989929
0.989739
0.989548
0.989366
0.989178
0.989017
0.988892
0.98875
0.988504
0.988117
0.987895
0.987772
0.987711
0.987692
0.987731
0.987725
0.987528
0.98719
0.986597
0.986029
0.985767
0.985524
0.985162
0.984802
0.984629
0.984468
0.984397
0.984273
0.984286
0.984088
0.984365
0.983382
0.985521
0.990486
1.20132
2.03202
2.12801
2.13917
2.13791
2.13612
2.13276
2.13251
2.13314
2.13549
2.14251
2.14893
2.15902
2.18834
2.27897
2.46526
2.68546
2.80827
2.84234
2.8485
2.85663
2.86086
2.86605
2.86497
2.8597
2.85904
2.85017
2.84661
2.83671
2.83139
2.83028
2.82512
2.81584
2.80169
2.78405
2.76503
2.74399
2.7222
2.69524
2.66281
2.62537
2.58393
2.53434
2.49595
2.45958
2.42537
2.39886
2.38246
2.37217
2.36295
2.34978
2.33803
2.33076
2.32709
2.32663
2.32877
2.33413
2.34249
2.35599
2.37345
2.39407
2.41663
2.44388
2.48509
2.54624
2.61791
2.7081
2.76291
2.78756
2.78572
2.78637
2.80572
2.86107
2.95088
3.03233
3.08729
3.15387
0.991136
0.990995
0.990818
0.990731
0.990573
0.990413
0.990236
0.990071
0.989903
0.989707
0.989512
0.98933
0.989141
0.988964
0.988824
0.988675
0.988431
0.988018
0.98775
0.9876
0.987523
0.987494
0.987525
0.987534
0.987328
0.986953
0.986295
0.985703
0.985418
0.98513
0.984688
0.984162
0.983925
0.983673
0.983519
0.983283
0.983223
0.983037
0.983411
0.982761
0.98596
0.99682
1.49359
2.04782
2.09874
2.10583
2.11422
2.11733
2.11838
2.12072
2.12732
2.13717
2.1525
2.16986
2.2124
2.33349
2.5334
2.74722
2.84432
2.86118
2.8569
2.84875
2.8453
2.84613
2.83974
2.83434
2.82521
2.82789
2.82779
2.82732
2.82459
2.82191
2.81935
2.81759
2.81311
2.80269
2.7907
2.77581
2.75944
2.74151
2.71931
2.69363
2.6618
2.62234
2.57098
2.52594
2.48481
2.44952
2.42112
2.40273
2.38769
2.37305
2.35718
2.34394
2.33376
2.32778
2.32626
2.32955
2.33151
2.33707
2.34791
2.36354
2.38303
2.40624
2.43404
2.47196
2.5276
2.59682
2.6869
2.74587
2.77561
2.77458
2.77448
2.78769
2.83428
2.9194
3.00528
3.06648
3.14281
0.991108
0.990972
0.990796
0.990709
0.990553
0.990395
0.990214
0.990041
0.989873
0.989675
0.989472
0.989288
0.989101
0.988908
0.988753
0.988595
0.988351
0.987923
0.987605
0.987425
0.987327
0.987289
0.987315
0.987328
0.987107
0.986668
0.985862
0.985345
0.985077
0.984796
0.984374
0.983703
0.983414
0.983248
0.983248
0.983265
0.983299
0.983462
0.983657
0.98436
0.988422
1.01639
1.75159
2.08859
2.11407
2.1183
2.1217
2.12323
2.12232
2.12308
2.13023
2.15012
2.17939
2.2355
2.36835
2.59666
2.78843
2.86036
2.85684
2.85918
2.8352
2.82796
2.82809
2.82534
2.81892
2.81465
2.80632
2.80339
2.80244
2.80341
2.80839
2.80838
2.80798
2.80597
2.80252
2.79666
2.78955
2.77982
2.76868
2.75496
2.73646
2.71459
2.68705
2.65294
2.60807
2.56175
2.51724
2.47696
2.44128
2.41668
2.39637
2.37862
2.36485
2.35242
2.34119
2.33205
2.32783
2.32778
2.32753
2.33157
2.34205
2.35802
2.37731
2.39977
2.42531
2.45819
2.50868
2.57795
2.66648
2.72756
2.76242
2.76339
2.7639
2.77283
2.81138
2.88873
2.97707
3.04526
3.12853
0.991083
0.990947
0.990771
0.990686
0.99053
0.990375
0.990194
0.990012
0.989838
0.989642
0.989431
0.98924
0.989054
0.988851
0.98868
0.988513
0.988266
0.987825
0.987454
0.987246
0.987127
0.987079
0.987102
0.98712
0.986877
0.986341
0.985386
0.984942
0.98469
0.984416
0.984004
0.983229
0.982747
0.98247
0.982179
0.981858
0.981419
0.981105
0.979643
0.980409
0.986205
1.09736
1.93907
2.10827
2.1303
2.13294
2.13261
2.12931
2.12696
2.12604
2.13712
2.1769
2.25443
2.40048
2.62777
2.81963
2.85339
2.83286
2.83744
2.83267
2.80728
2.80729
2.81088
2.8091
2.80345
2.80092
2.79562
2.79183
2.78801
2.78216
2.7837
2.78175
2.78345
2.78319
2.78253
2.78158
2.78056
2.77694
2.76941
2.7589
2.74567
2.72956
2.70705
2.67811
2.64091
2.5969
2.55073
2.50557
2.46304
2.43325
2.40913
2.39141
2.37738
2.36303
2.3478
2.33523
2.3274
2.32508
2.32564
2.32837
2.33595
2.34962
2.36802
2.38941
2.41255
2.44322
2.49255
2.5627
2.64826
2.70881
2.74863
2.75206
2.75291
2.75806
2.78974
2.85908
2.94785
3.02258
3.11263
0.991049
0.990917
0.990745
0.990662
0.990504
0.990351
0.990173
0.989984
0.989802
0.989608
0.989393
0.989191
0.988999
0.988791
0.988603
0.98843
0.988182
0.987732
0.987299
0.987058
0.986922
0.986865
0.986882
0.986907
0.986644
0.986007
0.984935
0.984506
0.984267
0.984027
0.983636
0.98282
0.982092
0.981762
0.981381
0.981275
0.981249
0.981522
0.981242
0.984473
0.993867
1.39181
2.04963
2.07562
2.09103
2.0995
2.10847
2.11437
2.11982
2.13204
2.17306
2.27217
2.44986
2.67317
2.82832
2.85631
2.82112
2.80361
2.81176
2.8004
2.78131
2.78326
2.78806
2.78744
2.78233
2.78151
2.77951
2.77665
2.77359
2.76845
2.76405
2.7581
2.75957