/*--------------------------------*- C++ -*----------------------------------*\
| =========                 |                                                 |
| \\      /  F ield         | OpenFOAM: The Open Source CFD Toolbox           |
|  \\    /   O peration     | Version:  2.2.x                                 |
|   \\  /    A nd           | Web:      www.OpenFOAM.org                      |
|    \\/     M anipulation  |                                                 |
\*---------------------------------------------------------------------------*/
FoamFile
{
    version     2.0;
    format      ascii;
    class       volScalarField;
    location    "2.65";
    object      T;
}
// * * * * * * * * * * * * * * * * * * * * * * * * * * * * * * * * * * * * * //

dimensions      [0 0 0 1 0 0 0];

internalField   nonuniform List<scalar> 
14161
(
0.950211
0.960773
0.95767
0.957947
0.957227
0.956638
0.955933
0.95524
0.954568
0.953914
0.953292
0.952688
0.95217
0.951736
0.951428
0.951103
0.950745
0.950611
0.950553
0.950579
0.95069
0.950843
0.951159
0.951499
0.951906
0.952414
0.952974
0.953668
0.954448
0.955219
0.956036
0.956578
0.957349
0.958871
0.959968
0.960992
0.961899
0.962262
0.962937
0.96275
0.960589
0.957146
0.948753
0.941973
0.942767
1.05849
2.04167
2.37346
2.35717
2.32439
2.32958
2.33586
2.33812
2.34029
2.34021
2.33939
2.34023
2.33782
2.33416
2.32901
2.32341
2.31819
2.3126
2.30702
2.30128
2.2954
2.28922
2.28525
2.27988
2.27418
2.26714
2.26009
2.25368
2.24748
2.24135
2.2345
2.22715
2.22119
2.21665
2.2146
2.21135
2.21236
2.2147
2.22242
2.23828
2.26003
2.29717
2.315
2.33642
2.35819
2.37322
2.37857
2.39428
2.41129
2.42911
2.42432
2.42615
2.43442
2.43981
2.44038
2.44063
2.4735
2.51504
2.57584
2.63017
2.69957
2.75993
2.81652
2.86925
2.91251
2.94898
2.97832
3.00064
3.0181
3.0275
3.01883
3.01864
3.04073
3.10733
0.950273
0.960809
0.957702
0.957969
0.957245
0.956653
0.955955
0.955264
0.954591
0.953933
0.953304
0.952705
0.952189
0.951756
0.951442
0.951105
0.950741
0.95061
0.950555
0.950585
0.950697
0.950847
0.951154
0.951479
0.951869
0.95234
0.952828
0.953473
0.954092
0.954745
0.955378
0.95564
0.956251
0.957217
0.957915
0.958264
0.958251
0.957937
0.957259
0.956109
0.95168
0.948284
0.934231
0.910695
0.931094
1.2333
2.67812
2.82324
2.79883
2.77674
2.7652
2.75383
2.74453
2.73481
2.72326
2.71136
2.70127
2.68781
2.67488
2.66075
2.64886
2.638
2.62655
2.61765
2.60862
2.60088
2.59423
2.58885
2.58275
2.57736
2.57254
2.56904
2.56536
2.56087
2.55583
2.55254
2.54798
2.54479
2.53768
2.53165
2.52967
2.54012
2.5455
2.55691
2.59572
2.62293
2.63422
2.65072
2.67145
2.65807
2.63611
2.66181
2.67838
2.66327
2.67083
2.74408
2.80874
2.83254
2.83886
2.89225
2.9405
2.97867
3.01705
3.05759
3.08618
3.11613
3.13123
3.14474
3.14568
3.14508
3.13636
3.12677
3.11127
3.09449
3.07227
3.04445
3.04906
3.06919
3.12892
0.950363
0.960857
0.957751
0.958011
0.957282
0.956685
0.955998
0.955302
0.954621
0.953964
0.953339
0.952744
0.952226
0.951786
0.951481
0.951136
0.950772
0.95064
0.950587
0.95062
0.950733
0.9509
0.951225
0.951578
0.952011
0.952561
0.953151
0.953957
0.954816
0.955829
0.956687
0.957461
0.958639
0.960682
0.962475
0.964336
0.966215
0.968189
0.970199
0.972824
0.975325
0.979412
0.981136
0.983723
1.0382
2.07747
2.91832
2.96317
2.97604
2.93466
2.9197
2.89939
2.88662
2.87004
2.85192
2.83858
2.82397
2.80646
2.79023
2.77311
2.76065
2.74722
2.73561
2.72397
2.71388
2.70427
2.69642
2.68923
2.68228
2.6761
2.66924
2.66295
2.65829
2.6551
2.64833
2.63815
2.63041
2.6248
2.62139
2.62095
2.61342
2.61115
2.64778
2.67828
2.6735
2.71692
2.75336
2.76153
2.76692
2.81677
2.84682
2.80633
2.86656
3.03007
3.0919
3.09258
3.11696
3.18089
3.22269
3.2332
3.23819
3.26222
3.27973
3.2962
3.30498
3.30485
3.29355
3.2807
3.26059
3.23892
3.21117
3.17745
3.14242
3.1115
3.08312
3.06588
3.06862
3.08719
3.13797
0.950427
0.960888
0.957773
0.958019
0.957308
0.956719
0.956014
0.955314
0.954636
0.953983
0.953366
0.95276
0.952236
0.951802
0.951486
0.951131
0.950773
0.950643
0.950586
0.950608
0.95071
0.950852
0.951136
0.951434
0.951791
0.952195
0.952668
0.953194
0.953706
0.954167
0.954586
0.95467
0.954975
0.95528
0.955359
0.95513
0.954906
0.953854
0.952895
0.950849
0.950954
0.950814
0.952728
0.956399
0.985991
2.4031
3.01768
3.03142
3.04977
3.01656
3.00296
2.97944
2.96512
2.94507
2.9237
2.90561
2.88648
2.86511
2.84545
2.82586
2.81076
2.79311
2.7794
2.76453
2.75288
2.74049
2.73015
2.71953
2.71022
2.70243
2.69519
2.68704
2.67737
2.66761
2.65868
2.64989
2.64094
2.63145
2.61832
2.61185
2.62368
2.63897
2.62408
2.65649
2.71435
2.72055
2.75402
2.82197
2.83978
2.81286
2.90829
3.05703
3.09072
3.06201
3.13384
3.21884
3.23965
3.22478
3.24853
3.26981
3.29086
3.29974
3.30913
3.31679
3.31436
3.30668
3.29333
3.27909
3.25799
3.23726
3.20989
3.18042
3.14762
3.12821
3.11206
3.1132
3.11342
3.13214
3.15748
0.950549
0.960943
0.95782
0.958065
0.957339
0.956758
0.956053
0.955349
0.954667
0.954023
0.9534
0.952798
0.952272
0.951835
0.951516
0.951151
0.950788
0.950657
0.9506
0.95063
0.950742
0.950901
0.951223
0.951575
0.95204
0.952558
0.95324
0.954071
0.955079
0.956162
0.957213
0.958311
0.959738
0.962232
0.964656
0.967341
0.970432
0.973781
0.977643
0.982577
0.989371
0.999408
1.00654
1.01523
1.02053
2.38225
2.98264
3.03883
3.03487
3.02619
3.01154
2.98645
2.97247
2.95186
2.92804
2.91046
2.88928
2.86942
2.84857
2.8283
2.81269
2.79338
2.78033
2.76266
2.75177
2.7392
2.72995
2.71919
2.71036
2.70139
2.69356
2.68638
2.67745
2.66812
2.65939
2.6522
2.64236
2.63324
2.62444
2.61823
2.61905
2.62042
2.64288
2.66821
2.67728
2.75594
2.82058
2.8149
2.83235
2.95917
3.02073
2.96934
3.04211
3.14366
3.17114
3.15354
3.19503
3.26053
3.26726
3.25443
3.28042
3.28621
3.28656
3.28798
3.29197
3.29213
3.28499
3.2764
3.25877
3.24539
3.22411
3.20514
3.18259
3.17934
3.17067
3.16983
3.16267
3.16609
3.16606
0.950605
0.96097
0.95784
0.958088
0.957362
0.956756
0.956058
0.955364
0.954689
0.954034
0.953391
0.952798
0.952272
0.95183
0.951506
0.951135
0.950758
0.950618
0.950557
0.950571
0.950668
0.950798
0.951054
0.951322
0.951637
0.951998
0.952397
0.952842
0.953204
0.953595
0.953765
0.953639
0.9536
0.953357
0.953064
0.952392
0.951748
0.950716
0.948785
0.94794
0.947593
0.950096
0.949665
0.95126
0.922148
2.36279
2.99354
3.0221
3.0298
3.01777
3.00559
2.97673
2.96154
2.94122
2.91505
2.89923
2.87502
2.85655
2.83411
2.81528
2.79831
2.7764
2.76542
2.74671
2.73697
2.72324
2.7147
2.7036
2.6948
2.68323
2.67406
2.66529
2.65617
2.64727
2.63711
2.62811
2.61896
2.60896
2.60179
2.59962
2.59756
2.58966
2.59882
2.65934
2.71526
2.72476
2.74167
2.84374
2.94623
2.92775
2.92271
3.03211
3.07013
3.04791
3.09411
3.14887
3.19496
3.20503
3.21504
3.24702
3.27523
3.27112
3.26491
3.26785
3.28072
3.28665
3.28399
3.28024
3.27063
3.26653
3.25133
3.23778
3.21861
3.20959
3.19762
3.1901
3.18317
3.17323
3.16427
0.950735
0.961023
0.957878
0.958125
0.957389
0.956775
0.956097
0.955397
0.954712
0.954061
0.953414
0.952814
0.952296
0.951844
0.951514
0.951136
0.950756
0.950609
0.950547
0.950561
0.950665
0.950824
0.951128
0.951461
0.951905
0.952483
0.953117
0.954001
0.955011
0.956269
0.957394
0.958661
0.960414
0.963144
0.966158
0.969309
0.973254
0.977316
0.981683
0.987896
0.996149
1.00921
1.02062
1.03405
1.04812
2.51076
3.02507
3.03889
3.06151
3.02883
3.01889
2.98643
2.97251
2.94808
2.91536
2.89046
2.85366
2.82943
2.79506
2.77198
2.74374
2.71924
2.70598
2.68071
2.66748
2.64922
2.64201
2.63029
2.62179
2.60942
2.60334
2.59652
2.5905
2.58386
2.57611
2.56761
2.56095
2.55672
2.55391
2.55294
2.54642
2.55544
2.59653
2.60324
2.59495
2.702
2.79877
2.82098
2.82462
2.9145
2.99013
2.97348
2.97013
3.04546
3.07779
3.08488
3.11803
3.15678
3.19834
3.2205
3.24187
3.24826
3.24808
3.25034
3.26651
3.28079
3.2863
3.28911
3.28716
3.28761
3.26723
3.24696
3.22627
3.2138
3.20086
3.19211
3.18479
3.17179
3.16072
0.950787
0.961045
0.957888
0.958137
0.957408
0.956794
0.956098
0.9554
0.954712
0.954056
0.953403
0.95279
0.952277
0.951816
0.951481
0.951092
0.950701
0.950538
0.950469
0.950464
0.950543
0.950658
0.950874
0.951099
0.951371
0.951679
0.952022
0.952381
0.952675
0.952935
0.952913
0.95252
0.952154
0.951699
0.950965
0.94988
0.948342
0.946585
0.944167
0.942131
0.941132
0.941609
0.942742
0.947885
0.956772
2.36346
3.02994
3.03683
3.05739
2.9865
2.94664
2.8857
2.85833
2.81128
2.7806
2.74233
2.71553
2.69499
2.65862
2.64513
2.61673
2.60109
2.58353
2.5651
2.55407
2.53698
2.53344
2.52213
2.51721
2.50556
2.50266
2.49378
2.48969
2.48457
2.47971
2.47547
2.47162
2.46657
2.45857
2.45802
2.46597
2.49406
2.48494
2.48774
2.57958
2.64202
2.63579
2.72019
2.81726
2.84328
2.85774
2.91913
2.96848
2.98581
2.99887
3.03884
3.07828
3.10577
3.14767
3.17959
3.20966
3.23133
3.2329
3.22755
3.24829
3.2705
3.28371
3.29503
3.29855
3.29347
3.27175
3.2466
3.22478
3.20892
3.19491
3.18529
3.17887
3.16188
3.15215
0.950909
0.961093
0.957924
0.958163
0.957433
0.956825
0.956108
0.955416
0.954732
0.954066
0.953404
0.952793
0.952276
0.951806
0.951466
0.951072
0.950672
0.950493
0.950428
0.950417
0.950499
0.950632
0.950908
0.951211
0.951621
0.952119
0.952808
0.953643
0.954689
0.9559
0.957061
0.958455
0.960243
0.963063
0.96615
0.969518
0.973635
0.977746
0.982295
0.985979
0.991436
0.996674
0.998511
0.998445
1.06311
1.7796
2.85633
2.93386
2.93727
2.81984
2.75188
2.71026
2.69581
2.6548
2.6394
2.60317
2.5898
2.56732
2.54252
2.53518
2.50308
2.50479
2.47588
2.48104
2.45737
2.44854
2.4461
2.43399
2.43073
2.41865
2.41721
2.40761
2.40443
2.39914
2.39491
2.39151
2.38805
2.38375
2.38101
2.38304
2.38326
2.39368
2.40899
2.44169
2.49399
2.4934
2.60796
2.6696
2.69053
2.73446
2.7977
2.8378
2.8631
2.90769
2.95314
2.98554
3.02114
3.04744
3.09861
3.12923
3.16993
3.20496
3.21484
3.20976
3.224
3.24727
3.27437
3.29493
3.30494
3.29709
3.27088
3.24083
3.2151
3.19206
3.17675
3.16607
3.15996
3.1419
3.13904
0.950958
0.961108
0.957929
0.958165
0.957434
0.956822
0.956102
0.955418
0.954723
0.95405
0.953382
0.952768
0.95224
0.951759
0.951408
0.951005
0.950584
0.950384
0.95031
0.950258
0.950301
0.950397
0.950582
0.950752
0.950967
0.951221
0.951509
0.951776
0.95201
0.95218
0.951982
0.951552
0.951007
0.950231
0.949158
0.947586
0.945197
0.942332
0.938503
0.93335
0.926779
0.919712
0.90945
0.902087
0.88029
1.21386
2.11198
2.68613
2.66016
2.60047
2.58315
2.56103
2.56349
2.53005
2.54137
2.5013
2.51179
2.47277
2.48722
2.45523
2.44258
2.44762
2.4172
2.4203
2.40001
2.39983
2.38819
2.39039
2.37659
2.37442
2.36349
2.36057
2.35329
2.34856
2.34376
2.34029
2.33433
2.33081
2.32353
2.31925
2.32646
2.32071
2.36113
2.32676
2.40361
2.44387
2.53389
2.53693
2.58977
2.6464
2.67935
2.72572
2.76517
2.80857
2.85979
2.90424
2.96257
3.00208
3.05568
3.07887
3.12849
3.16991
3.19224
3.1939
3.19911
3.22033
3.25335
3.28225
3.30211
3.29899
3.27053
3.22336
3.19691
3.16455
3.14666
3.1335
3.12866
3.1137
3.12335
0.951064
0.96115
0.95796
0.958185
0.957444
0.956814
0.956116
0.955428
0.954724
0.95405
0.953375
0.952751
0.952215
0.951726
0.95137
0.950958
0.950519
0.950304
0.950212
0.95016
0.950203
0.950312
0.950545
0.950791
0.951123
0.951582
0.952174
0.952951
0.953911
0.955057
0.956147
0.957516
0.959289
0.96172
0.964617
0.967643
0.971071
0.974501
0.978522
0.981785
0.986616
0.989177
0.991954
0.993775
0.995211
1.00972
0.940461
2.52728
2.54311
2.50762
2.48422
2.46765
2.47012
2.4567
2.46919
2.44943
2.46789
2.43135
2.44078
2.41316
2.43712
2.39978
2.40865
2.38127
2.38272
2.37194
2.37637
2.36299
2.36248
2.34999
2.34827
2.33984
2.33513
2.32924
2.32493
2.31931
2.31422
2.30445
2.30112
2.28531
2.30468
2.2817
2.32867
2.28694
2.37182
2.38667
2.45165
2.50394
2.50912
2.56153
2.5935
2.63355
2.66977
2.71273
2.77072
2.81919
2.88536
2.93095
2.98794
3.03034
3.0861
3.12837
3.1612
3.17709
3.18004
3.19483
3.22512
3.25817
3.29267
3.29808
3.27138
3.21602
3.16961
3.13424
3.11821
3.10647
3.09983
3.09309
3.10565
0.951108
0.961159
0.957961
0.958181
0.957441
0.956826
0.956095
0.955403
0.954699
0.954013
0.953328
0.9527
0.952156
0.951658
0.95129
0.95086
0.950394
0.950148
0.950021
0.949952
0.949936
0.949994
0.950136
0.950258
0.950391
0.950593
0.9508
0.951035
0.951205
0.951308
0.951001
0.950678
0.95023
0.949429
0.948141
0.946413
0.944138
0.941118
0.936904
0.931037
0.925342
0.91554
0.909962
0.892553
0.878005
0.995045
1.82966
2.72145
2.65196
2.61127
2.57242
2.53151
2.51553
2.49385
2.49307
2.46834
2.47819
2.43986
2.44612
2.41656
2.44086
2.40246
2.40838
2.38246
2.38165
2.38093
2.3719
2.37303
2.35836
2.35427
2.34782
2.3459
2.33987
2.33472
2.32811
2.32303
2.31348
2.30858
2.29585
2.29272
2.27765
2.30319
2.26473
2.33124
2.31897
2.4202
2.42988
2.50234
2.4806
2.48956
2.51392
2.57111
2.60777
2.63678
2.68093
2.73046
2.7993
2.85214
2.90884
2.97008
3.0296
3.08181
3.12573
3.15702
3.16101
3.17216
3.19796
3.23132
3.26881
3.28839
3.27512
3.21971
3.16305
3.12806
3.1086
3.09903
3.09128
3.08667
3.08841
0.951194
0.96119
0.957982
0.958187
0.957444
0.956831
0.9561
0.955387
0.954681
0.953987
0.953292
0.952657
0.952104
0.951599
0.951224
0.95078
0.950287
0.950016
0.94987
0.949779
0.949755
0.949823
0.949993
0.950174
0.950425
0.950781
0.951268
0.951934
0.952744
0.953576
0.954558
0.955843
0.957759
0.959733
0.961986
0.964599
0.967755
0.971417
0.975561
0.979583
0.985931
0.990607
1.00098
1.00665
1.00286
1.16011
2.31097
2.66303
2.70947
2.65686
2.58953
2.55461
2.53224
2.50421
2.49951
2.46958
2.48025
2.43932
2.44467
2.41435
2.44221
2.39897
2.40581
2.3813
2.3882
2.3737
2.38278
2.36857
2.36791
2.35467
2.3531
2.34612
2.34348
2.33637
2.33183
2.32191
2.31506
2.30702
2.29699
2.2901
2.27513
2.30256
2.26369
2.35586
2.35341
2.4753
2.43193
2.43944
2.50919
2.50292
2.49173
2.50047
2.56635
2.60138
2.65243
2.69912
2.74722
2.80334
2.86181
2.92893
2.98219
3.03613
3.08474
3.13401
3.14496
3.15355
3.17197
3.20473
3.24653
3.27916
3.27758
3.22547
3.16189
3.12669
3.10839
3.09994
3.09229
3.08862
3.08086
0.951228
0.96119
0.957977
0.958174
0.957423
0.956805
0.956073
0.955347
0.954641
0.953942
0.953238
0.95259
0.952021
0.951505
0.95112
0.950649
0.950112
0.949806
0.949622
0.949497
0.949433
0.949436
0.949495
0.949575
0.94966
0.949755
0.949898
0.950074
0.950259
0.95022
0.950027
0.949868
0.949546
0.949038
0.948099
0.946885
0.945569
0.943689
0.94135
0.938058
0.935311
0.932796
0.930845
0.930567
0.948151
0.986886
2.13472
2.47706
2.56109
2.59417
2.54506
2.55136
2.51654
2.50634
2.50117
2.48159
2.49185
2.45659
2.46559
2.43066
2.45502
2.41123
2.41811
2.39623
2.40581
2.39098
2.4011
2.38586
2.38656
2.37174
2.37237
2.36384
2.3614
2.35269
2.34739
2.33657
2.3333
2.32345
2.31339
2.29829
2.30989
2.28863
2.33288
2.31018
2.45231
2.45281
2.49956
2.42212
2.4541
2.50359
2.5338
2.49735
2.48791
2.51997
2.56869
2.63374
2.69301
2.74986
2.80076
2.85567
2.912
2.97333
3.04099
3.10776
3.13872
3.1492
3.15682
3.18306
3.21972
3.2542
3.2701
3.23561
3.1686
3.12943
3.11124
3.10597
3.09842
3.09616
3.08132
0.951286
0.961208
0.957991
0.958173
0.957414
0.95679
0.956058
0.955314
0.954605
0.953907
0.953184
0.952527
0.951944
0.951413
0.951028
0.95054
0.949956
0.949618
0.949409
0.949252
0.949162
0.949163
0.949233
0.949332
0.949496
0.949703
0.950059
0.950522
0.951173
0.951736
0.952523
0.953656
0.955109
0.956682
0.958417
0.960481
0.963418
0.966674
0.97007
0.973577
0.97819
0.983555
0.987537
0.989185
1.05679
1.24012
2.21543
2.38394
2.48532
2.62801
2.59266
2.61455
2.56335
2.56092
2.53246
2.52408
2.51213
2.48739
2.49254
2.45179
2.46344
2.42414
2.42914
2.40666
2.41541
2.40017
2.40909
2.39208
2.39107
2.37848
2.37842
2.37096
2.36877
2.35986
2.35527
2.34538
2.34065
2.33327
2.3138
2.30486
2.29452
2.32193
2.31567
2.39143
2.49562
2.48419
2.51724
2.50067
2.42081
2.44752
2.50761
2.54053
2.52584
2.55457
2.56933
2.59897
2.63192
2.67682
2.73995
2.80038
2.86408
2.92222
2.99111
3.05666
3.11104
3.13434
3.13973
3.16149
3.19623
3.23351
3.26104
3.24478
3.18104
3.13458
3.1146
3.11882
3.1117
3.11231
3.08503
0.951309
0.961201
0.957981
0.958154
0.957385
0.956756
0.956016
0.955267
0.954553
0.953842
0.953103
0.952438
0.951831
0.951277
0.950893
0.950389
0.949749
0.949357
0.949103
0.948905
0.94876
0.948689
0.948672
0.948654
0.948656
0.948661
0.948712
0.948846
0.948965
0.948942
0.948855
0.948783
0.948717
0.948458
0.948023
0.947552
0.94698
0.946719
0.946372
0.946328
0.946354
0.947563
0.950231
0.950848
1.05289
1.90208
2.21925
2.29609
2.36776
2.57219
2.56475
2.6184
2.55278
2.55037
2.49425
2.50031
2.46589
2.49064
2.44354
2.457
2.41434
2.42555
2.39718
2.40832
2.39229
2.40473
2.3905
2.39612
2.37787
2.37572
2.36952
2.36956
2.36295
2.35829
2.34897
2.34725
2.34037
2.33242
2.30853
2.30318
2.30435
2.34265
2.36721
2.46885
2.52716
2.47402
2.51474
2.57464
2.54679
2.48025
2.47271
2.48065
2.48805
2.51077
2.56659
2.59812
2.63566
2.66379
2.71736
2.77146
2.8367
2.893
2.95643
3.02567
3.09136
3.12494
3.12808
3.14208
3.17325
3.20929
3.24111
3.24395
3.19711
3.14079
3.12047
3.13432
3.13246
3.1368
3.09691
0.951343
0.961205
0.957981
0.958143
0.957365
0.956731
0.955983
0.955234
0.954495
0.953776
0.953035
0.95235
0.951723
0.951149
0.950756
0.950247
0.949563
0.94911
0.948814
0.948584
0.948396
0.948278
0.948263
0.948239
0.948269
0.948321
0.948527
0.948811
0.949208
0.94958
0.950079
0.950792
0.951738
0.952789
0.954001
0.955408
0.957216
0.959274
0.96156
0.963657
0.966511
0.968427
0.970939
0.971213
1.03764
2.17089
2.22866
2.25744
2.28571
2.3747
2.45693
2.58083
2.5245
2.57683
2.51081
2.53056
2.48813
2.5155
2.46724
2.48167
2.43755
2.44706
2.41719
2.43012
2.41475
2.42891
2.41273
2.41707
2.39777
2.39675
2.39168
2.39291
2.38653
2.37718
2.3693
2.36539
2.35858
2.33541
2.31762
2.31928
2.33528
2.34306
2.50066
2.54229
2.59656
2.55418
2.4902
2.50817
2.55895
2.56421
2.53899
2.55231
2.54258
2.49796
2.50819
2.54357
2.57809
2.60997
2.65685
2.71218
2.77875
2.83385
2.9066
2.97864
3.05009
3.10756
3.11933
3.12566
3.15026
3.1868
3.22272
3.24067
3.21351
3.15131
3.12668
3.1512
3.15489
3.15995
3.11755
0.95135
0.961191
0.957964
0.958117
0.957331
0.956688
0.955931
0.955177
0.954421
0.953687
0.95294
0.952228
0.95158
0.950983
0.950572
0.950049
0.949334
0.9488
0.948439
0.948161
0.947912
0.947708
0.947638
0.947506
0.947394
0.947312
0.947228
0.947216
0.947195
0.947225
0.947162
0.947112
0.947054
0.947001
0.946818
0.946705
0.94628
0.94607
0.945533
0.944497
0.943751
0.939582
0.932106
0.980816
1.04872
2.2038
2.24616
2.26457
2.27655
2.2966
2.37057
2.42083
2.59513
2.52184
2.60018
2.53439
2.55525
2.50445
2.52242
2.47172
2.48498
2.43999
2.44665
2.42697
2.44214
2.42833
2.43835
2.42144
2.41614
2.4119
2.41167
2.40972
2.39716
2.3883
2.38491
2.38031
2.37116
2.34464
2.34464
2.3605
2.41465
2.48962
2.64051
2.53724
2.56959
2.63876
2.59286
2.49831
2.49035
2.49991
2.49149
2.49595
2.53138
2.56024
2.54479
2.56644
2.58109
2.61439
2.64396
2.69474
2.74904
2.80942
2.88289
2.95016
3.02187
3.08809
3.1121
3.11659
3.13493
3.16735
3.2006
3.22605
3.21673
3.16351
3.13454
3.16096
3.16453
3.16913
3.1442
0.95137
0.961183
0.957954
0.958096
0.957297
0.956645
0.955879
0.955118
0.954348
0.953602
0.952846
0.952112
0.951443
0.950819
0.950379
0.949847
0.949129
0.948501
0.948076
0.947755
0.947464
0.947184
0.947077
0.946912
0.946771
0.946698
0.946634
0.946644
0.946783
0.946971
0.94716
0.947473
0.947948
0.948415
0.948996
0.949664
0.950627
0.951567
0.952598
0.953084
0.95535
0.956215
0.953819
1.04119
1.70256
2.28611
2.28688
2.29758
2.30237
2.31158
2.33196
2.35734
2.51382
2.52016
2.62818
2.552
2.58568
2.52018
2.54563
2.48358
2.49872
2.44616
2.45413
2.43175
2.44934
2.43485
2.4444
2.42938
2.42761
2.42599
2.42428
2.41634
2.40805
2.40408
2.40676
2.40014
2.38063
2.37105
2.40293
2.48805
2.60255
2.62325
2.76367
2.66206
2.56574
2.55924
2.60907
2.58258
2.56218
2.5641
2.52519
2.48591
2.48689
2.51021
2.51803
2.53041
2.54403
2.57181
2.59848
2.64285
2.69796
2.76669
2.83459
2.90312
2.9813
3.05514
3.10079
3.10896
3.12082
3.15052
3.18055
3.20804
3.21351
3.1742
3.13979
3.16455
3.16914
3.17493
3.16072
0.951334
0.961143
0.957913
0.958051
0.957242
0.956584
0.955808
0.955047
0.954264
0.953503
0.952734
0.951971
0.951275
0.950623
0.950142
0.949595
0.948867
0.948142
0.947633
0.947238
0.946893
0.946528
0.946327
0.946104
0.945848
0.945628
0.945318
0.945062
0.944882
0.944776
0.944688
0.944587
0.944493
0.944437
0.944389
0.94429
0.944424
0.945015
0.945331
0.946865
0.950016
0.954907
0.957363
1.06573
2.17885
2.33319
2.31366
2.30792
2.29666
2.28571
2.30201
2.33558
2.39075
2.40986
2.58002
2.51946
2.58989
2.50973
2.54555
2.47712
2.49922
2.44638
2.45751
2.43693
2.45768
2.44751
2.45005
2.43968
2.43886
2.43634
2.4333
2.42584
2.4203
2.42268
2.42822
2.42743
2.41658
2.49357
2.64068
2.66188
2.81616
2.7325
2.69776
2.72955
2.67128
2.5838
2.5548
2.53261
2.50692
2.52803
2.54619
2.54472
2.53028
2.53847
2.54421
2.55379
2.56107
2.5718
2.58977
2.61933
2.6679
2.7312
2.79052
2.86699
2.94878
3.02967
3.09018
3.10531
3.11066
3.13464
3.16265
3.19169
3.20682
3.18208
3.14548
3.16632
3.17157
3.17652
3.16731
0.951337
0.961121
0.957887
0.958015
0.957196
0.95653
0.955743
0.954976
0.954183
0.953406
0.952624
0.95183
0.951101
0.950418
0.949893
0.949345
0.948621
0.947778
0.947199
0.946736
0.946322
0.945884
0.945612
0.945397
0.945045
0.944775
0.944334
0.943974
0.943797
0.943703
0.943675
0.943623
0.943625
0.943485
0.943591
0.943855
0.943818
0.943564
0.942885
0.941094
0.937327
0.930613
0.948155
1.01427
2.252
2.31616
2.32163
2.3298
2.31789
2.29546
2.29145
2.30075
2.30298
2.36833
2.363
2.55356
2.49056
2.57552
2.50431
2.55985
2.48278
2.49832
2.46239
2.48107
2.47109
2.47668
2.47658
2.4646
2.46288
2.46613
2.46929
2.47505
2.47566
2.48803
2.53808
2.6031
2.69965
2.78894
2.82923
2.83322
2.80055
2.77178
2.68305
2.64694
2.6702
2.65422
2.6262
2.59463
2.55238
2.52135
2.52035
2.5165
2.51611
2.51072
2.51803
2.52818
2.53822
2.54183
2.55666
2.58096
2.62982
2.68732
2.75201
2.83014
2.90972
2.99374
3.07198
3.09935
3.10198
3.12111
3.14672
3.17387
3.19417
3.18541
3.15285
3.16782
3.17266
3.17783
3.16944
0.951272
0.961065
0.957831
0.957954
0.957131
0.956456
0.955659
0.954876
0.954082
0.953287
0.952495
0.951673
0.950903
0.950184
0.949598
0.949054
0.948324
0.947367
0.946687
0.946132
0.945637
0.945129
0.944725
0.944486
0.944003
0.94357
0.943129
0.942464
0.942003
0.94161
0.941343
0.941021
0.940755
0.940199
0.939837
0.939253
0.938245
0.937365
0.935122
0.93418
0.929402
0.921933
0.98546
1.17081
2.35809
2.3816
2.38211
2.3732
2.36358
2.35215
2.34671
2.33285
2.3207
2.29905
2.36193
2.36664
2.5498
2.47812
2.57604
2.48255
2.5473
2.46662
2.47566
2.4554
2.48363
2.48918
2.49276
2.50584
2.50413
2.55072
2.58305
2.64738
2.70838
2.78904
2.85248
2.91645
2.95514
2.98667
2.95123
2.91253
2.85687
2.81581
2.77274
2.71074
2.66721
2.6307
2.59725
2.57046
2.5555
2.55427
2.55325
2.54847
2.54339
2.53993
2.53991
2.54555
2.54511
2.54875
2.55577
2.57793
2.61649
2.66351
2.72352
2.79471
2.87366
2.95543
3.04463
3.09214
3.09388
3.10769
3.13007
3.15724
3.1814
3.18511
3.15934
3.16512
3.16924
3.17709
3.16921
0.95125
0.961026
0.957784
0.9579
0.957072
0.956387
0.95558
0.954775
0.953979
0.953167
0.952357
0.951515
0.950707
0.949954
0.949289
0.948746
0.948027
0.946952
0.946173
0.945528
0.944963
0.944383
0.943845
0.943606
0.943012
0.942494
0.942031
0.941162
0.940515
0.940007
0.939631
0.939253
0.938807
0.938288
0.937725
0.937511
0.937459
0.938027
0.938902
0.942154
0.94296
0.945908
1.04535
1.82345
2.41276
2.39757
2.39324
2.38006
2.37087
2.35881
2.35163
2.3463
2.3263
2.29809
2.30216
2.33488
2.43464
2.41587
2.59225
2.49558
2.57495
2.51012
2.53749
2.54477
2.6061
2.66412
2.68734
2.74891
2.8087
2.85969
2.90616
2.97347
3.01349
3.04894
3.05407
3.05906
3.03977
3.02385
2.98963
2.93722
2.87799
2.82723
2.77946
2.74651
2.72277
2.69146
2.65287
2.6132
2.57381
2.55451
2.54701
2.53977
2.53266
2.52824
2.52886
2.53035
2.53274
2.53178
2.5415
2.55988
2.59234
2.63834
2.6941
2.76259
2.84043
2.92459
3.01601
3.08011
3.08604
3.09626
3.11525
3.14129
3.16755
3.18142
3.16586
3.16284
3.16975
3.17619
3.16601
0.951155
0.960951
0.957707
0.957818
0.956996
0.956302
0.955479
0.95466
0.953858
0.953028
0.95218
0.951333
0.950487
0.949694
0.948949
0.948409
0.947672
0.94649
0.94561
0.944855
0.944184
0.943518
0.942839
0.942541
0.941858
0.941168
0.9406
0.939625
0.938749
0.938103
0.937464
0.936795
0.936178
0.935704
0.935255
0.935051
0.935232
0.935471
0.936757
0.938897
0.941998
0.941544
1.05641
2.21969
2.39991
2.37576
2.36716
2.36367
2.36667
2.36421
2.34926
2.31995
2.31194
2.33278
2.36086
2.33738
2.30297
2.45323
2.5523
2.68611
2.71146
2.79275
2.80659
2.89956
2.93384
3.00501
3.04312
3.08384
3.10319
3.10705
3.10899
3.10934
3.11677
3.11676
3.09647
3.08423
3.05791
3.03154
3.00976
2.98645
2.94829
2.89848
2.84055
2.78443
2.73747
2.69621
2.66056
2.63215
2.61068
2.59147
2.57524
2.55995
2.55129
2.54923
2.54769
2.54366
2.54226
2.53956
2.5404
2.5524
2.57596
2.61443
2.66859
2.73331
2.80834
2.89428
2.98612
3.06368
3.07839
3.08643
3.10187
3.12712
3.15244
3.17236
3.16762
3.1618
3.16519
3.17069
3.16169
0.951103
0.960893
0.957635
0.957742
0.956921
0.956221
0.955383
0.954544
0.953733
0.952885
0.952009
0.951141
0.950261
0.949424
0.948605
0.948059
0.947275
0.946051
0.945036
0.94418
0.943408
0.942653
0.941842
0.941478
0.940727
0.939878
0.939206
0.938196
0.937128
0.936336
0.93545
0.934218
0.933256
0.932321
0.931463
0.930418
0.928927
0.927252
0.925559
0.921266
0.914498
0.921989
1.01655
2.29139
2.35655
2.35682
2.35283
2.35811
2.36603
2.36381
2.35252
2.34231
2.34029
2.35568
2.37073
2.35393
2.38499
2.56441
2.76901
2.82881
2.96447
2.99442
3.05854
3.06811
3.09961
3.1024
3.1295
3.13726
3.15199
3.14788
3.14302
3.12993
3.11895
3.11303
3.09872
3.08722
3.07058
3.05383
3.03256
3.0063
2.9786
2.93934
2.88806
2.83138
2.7825
2.73426
2.69931
2.67461
2.64667
2.615
2.58598
2.56462
2.55114
2.54589
2.54222
2.53531
2.53083
2.53312
2.53902
2.5503
2.56724
2.59791
2.64308
2.70397
2.7775
2.86189
2.95499
3.04249
3.07034
3.07822
3.09048
3.11445
3.13835
3.16199
3.16571
3.15944
3.16059
3.16629
3.15907
0.950978
0.960798
0.957538
0.957648
0.956827
0.956119
0.955266
0.954411
0.953592
0.952727
0.951825
0.950922
0.95002
0.949132
0.948244
0.947666
0.946803
0.945621
0.944418
0.943442
0.942556
0.941702
0.940761
0.9403
0.939463
0.93848
0.937657
0.936506
0.93524
0.93433
0.933357
0.931908
0.930911
0.929951
0.929199
0.928258
0.927563
0.925954
0.925516
0.92221
0.917477
0.982811
1.13709
2.35006
2.37011
2.37058
2.3668
2.37195
2.37239
2.36655
2.36424
2.37029
2.39239
2.41437
2.42528
2.48781
2.6526
2.86489
3.02521
3.11369
3.10308
3.11687
3.12226
3.13021
3.12491
3.13407
3.13079
3.12972
3.13582
3.1382
3.13902
3.13527
3.12471
3.11527
3.10239
3.09001
3.07775
3.06365
3.04693
3.02824
3.00669
2.97681
2.93737
2.8817
2.82662
2.76674
2.72841
2.69946
2.66497
2.63029
2.60629
2.58788
2.57236
2.56292
2.55468
2.54424
2.53869
2.52929
2.53142
2.54105
2.55854
2.58341
2.62081
2.67392
2.74253
2.82597
2.92425
3.0177
3.06194
3.07167
3.08107
3.10267
3.12412
3.14842
3.15973
3.15813
3.15657
3.16072
3.15381
0.950885
0.960714
0.957443
0.957557
0.95673
0.956018
0.955146
0.954275
0.953441
0.952565
0.951627
0.950697
0.949775
0.948829
0.947883
0.947236
0.946328
0.945162
0.943785
0.942684
0.941698
0.940747
0.939674
0.939129
0.938204
0.937092
0.936133
0.934743
0.933375
0.932291
0.931054
0.929049
0.927608
0.92602
0.924522
0.923047
0.921812
0.920694
0.921335
0.922288
0.91884
1.02834
1.80902
2.35751
2.35456
2.36568
2.36772
2.36766
2.36367
2.35749
2.36653
2.3923
2.42807
2.45061
2.51069
2.70443
2.92476
3.05868
3.12785
3.11412
3.11198
3.12113
3.12725
3.12198
3.1254
3.11987
3.12431
3.1176
3.11721
3.11861
3.11975
3.12212
3.11978
3.11317
3.10412
3.092
3.07877
3.06821
3.05584
3.04163
3.02573
3.00208
2.97105
2.92819
2.87739
2.80992
2.75962
2.72606
2.68828
2.65283
2.6264
2.60292
2.58267
2.56648
2.55396
2.54251
2.53533
2.53437
2.53474
2.53852
2.55008
2.569
2.59994
2.64653
2.71102
2.79497
2.89715
2.99245
3.05147
3.06532
3.07165
3.0911
3.11104
3.13607
3.15214
3.15506
3.1513
3.15316
3.14834
0.950737
0.960601
0.95733
0.957453
0.956616
0.955897
0.955018
0.954137
0.953269
0.952385
0.951412
0.950458
0.949512
0.948517
0.947513
0.946774
0.945843
0.944664
0.943124
0.941896
0.940785
0.939723
0.938509
0.93789
0.936881
0.935641
0.934522
0.932636
0.931196
0.930151
0.928841
0.927138
0.925581
0.924586
0.92426
0.92433
0.924637
0.92545
0.92669
0.929767
0.936251
1.04965
2.20017
2.3375
2.32033
2.32999
2.34642
2.35261
2.34282
2.33857
2.35961
2.42168
2.48316
2.52988
2.72986
2.96595
3.07712
3.1164
3.11785
3.09477
3.09665
3.09266
3.09406
3.09684
3.10301
3.10316
3.10077
3.10328
3.10278
3.10478
3.10542
3.11214
3.11246
3.10902
3.10158
3.09195
3.08091
3.07111
3.06085
3.0491
3.03608
3.01885
2.99566
2.96372
2.92077
2.85854
2.79445
2.74926
2.70936
2.67187
2.64268
2.61472
2.59269
2.57792
2.56461
2.55177
2.54164
2.53606
2.53442
2.53747
2.54435
2.55935
2.58533
2.62674
2.6878
2.76967
2.87246
2.96833
3.03856
3.05789
3.06282
3.08003
3.0987
3.12232
3.14156
3.14846
3.1473
3.14595
3.1425
0.950603
0.960492
0.957213
0.957342
0.956499
0.955758
0.954898
0.954
0.953094
0.952193
0.951194
0.950208
0.949221
0.948192
0.947128
0.94629
0.945352
0.944144
0.942437
0.941091
0.939863
0.938681
0.937329
0.936635
0.93553
0.934229
0.932751
0.930577
0.928909
0.927747
0.926349
0.92462
0.922364
0.920409
0.918188
0.915269
0.911919
0.907783
0.898631
0.886447
0.923874
0.991291
2.22498
2.31257
2.31782
2.33443
2.35523
2.36383
2.34951
2.34639
2.3914
2.50322
2.60094
2.77381
3.00954
3.09774
3.11064
3.12209
3.09798
3.08778
3.0825
3.07423
3.07687
3.08109
3.08521
3.08582
3.08589
3.0862
3.08798
3.08804
3.08698
3.09241
3.0956
3.09545
3.09141
3.08516
3.07692
3.07061
3.06294
3.05412
3.04192
3.02853
3.01137
2.98861
2.95479
2.90382
2.8332
2.77807
2.73526
2.69554
2.66073
2.6285
2.60254
2.58513
2.56931
2.55435
2.54191
2.5371
2.53517
2.53564
2.54029
2.55067
2.57174
2.6085
2.66559
2.74581
2.84677
2.94336
3.02298
3.04931
3.0543
3.0692
3.08642
3.10765
3.1284
3.14048
3.14125
3.13796
3.13484
0.950424
0.960357
0.957079
0.957211
0.956364
0.955608
0.954765
0.953856
0.952918
0.951994
0.950984
0.949958
0.948916
0.947857
0.946745
0.945784
0.944855
0.943636
0.941738
0.940259
0.938903
0.937601
0.93612
0.935365
0.934167
0.932785
0.930839
0.928462
0.926629
0.925387
0.923864
0.922079
0.918955
0.916864
0.914952
0.913601
0.913354
0.913685
0.916257
0.911016
1.01279
1.45738
2.36
2.34571
2.34271
2.35339
2.37432
2.39043
2.38058
2.38379
2.49222
2.66672
2.83291
3.0377
3.11213
3.10986
3.10773
3.09441
3.08862
3.08757
3.07568
3.06409
3.06455
3.06552
3.06515
3.06312
3.06595
3.06653
3.0708
3.07274
3.07262
3.07722
3.07916
3.08343