/*--------------------------------*- C++ -*----------------------------------*\
| =========                 |                                                 |
| \\      /  F ield         | OpenFOAM: The Open Source CFD Toolbox           |
|  \\    /   O peration     | Version:  2.2.x                                 |
|   \\  /    A nd           | Web:      www.OpenFOAM.org                      |
|    \\/     M anipulation  |                                                 |
\*---------------------------------------------------------------------------*/
FoamFile
{
    version     2.0;
    format      ascii;
    class       volVectorField;
    location    "2.65";
    object      U;
}
// * * * * * * * * * * * * * * * * * * * * * * * * * * * * * * * * * * * * * //

dimensions      [0 1 -1 0 0 0 0];

internalField   nonuniform List<vector> 
14161
(
(1.51354 8.35784e-06 -2.25764e-22)
(1.51363 -1.90865e-05 -4.80433e-22)
(1.51373 2.18678e-07 -7.27705e-22)
(1.51383 1.48448e-06 6.89411e-23)
(1.51403 1.77694e-06 -7.45628e-24)
(1.51423 1.9887e-06 -1.29411e-21)
(1.51445 1.0768e-06 1.19478e-21)
(1.51468 -2.83977e-07 -9.08961e-23)
(1.5149 3.82579e-07 1.23489e-21)
(1.51512 -1.52693e-07 -9.59111e-23)
(1.51532 1.30987e-07 -3.80784e-23)
(1.51553 -1.02784e-06 1.40263e-22)
(1.51569 1.1655e-06 -4.2338e-22)
(1.51583 -1.58182e-07 6.527e-22)
(1.51595 1.15649e-06 2.58485e-22)
(1.51607 -7.17426e-07 3.02344e-22)
(1.51621 -1.53164e-06 -3.59555e-23)
(1.51625 -1.39313e-06 7.39466e-23)
(1.51626 -3.75281e-07 3.0071e-22)
(1.51626 2.47407e-07 -2.49056e-22)
(1.51624 1.69391e-07 -4.09252e-22)
(1.51618 1.99171e-06 2.27767e-22)
(1.51609 3.29058e-06 9.06725e-23)
(1.516 4.91707e-06 4.52528e-22)
(1.51589 8.05891e-06 -1.86933e-22)
(1.51576 9.69275e-06 2.40991e-22)
(1.5156 1.40663e-05 2.93804e-22)
(1.51539 1.80911e-05 3.71145e-22)
(1.51518 2.07748e-05 4.30618e-22)
(1.51498 3.21291e-05 3.15667e-22)
(1.51478 5.32396e-05 7.33599e-22)
(1.51465 6.29668e-05 7.16702e-22)
(1.51442 7.41307e-05 7.45666e-22)
(1.51387 0.000103613 8.0183e-22)
(1.51351 0.00013886 8.79587e-22)
(1.51322 0.000158002 8.29618e-22)
(1.513 0.000199459 9.26467e-22)
(1.51283 0.000255166 9.53827e-22)
(1.51265 0.000285152 9.80411e-22)
(1.51233 0.000302799 1.0965e-21)
(1.51283 0.000174297 1.07876e-21)
(1.51341 0.000154404 1.33389e-21)
(1.51566 -0.00011131 1.20704e-21)
(1.5172 -0.00247539 3.92853e-20)
(1.52061 -0.0208006 3.21811e-19)
(1.52046 -0.141075 3.1002e-18)
(1.16688 -0.172626 1.0459e-17)
(0.896265 -0.0536548 8.93036e-18)
(0.916994 0.00254208 6.27851e-18)
(0.940566 0.00163571 5.59519e-18)
(0.946153 0.000888608 5.20082e-18)
(0.943272 0.00171792 5.06037e-18)
(0.942602 0.00192769 4.72884e-18)
(0.94142 0.00228474 4.37202e-18)
(0.941669 0.00240315 4.14485e-18)
(0.942215 0.00234869 3.9556e-18)
(0.942142 0.00200584 3.6803e-18)
(0.943525 0.00219513 3.51376e-18)
(0.945631 0.00195027 3.2872e-18)
(0.948359 0.00190244 3.09443e-18)
(0.95143 0.00169346 2.99461e-18)
(0.954477 0.00129254 2.79091e-18)
(0.957704 0.00113587 2.66414e-18)
(0.961107 0.00100548 2.64099e-18)
(0.96462 0.000799416 2.40273e-18)
(0.967916 0.000604945 2.1438e-18)
(0.971206 0.000388761 1.97347e-18)
(0.974253 0.000115345 1.78944e-18)
(0.977671 1.88032e-05 1.64475e-18)
(0.981246 -8.05702e-05 1.53314e-18)
(0.98526 -0.000138689 1.47998e-18)
(0.989419 -0.000292339 1.38381e-18)
(0.99354 -0.000340429 1.27876e-18)
(0.997506 -0.000358886 1.19394e-18)
(1.00151 -0.000226862 1.16516e-18)
(1.00531 0.000104105 1.04761e-18)
(1.00898 0.000411725 1.00649e-18)
(1.01221 0.000577937 8.89458e-19)
(1.01472 0.000762749 6.65807e-19)
(1.01663 0.000744661 6.10951e-19)
(1.01798 0.000349977 2.84125e-19)
(1.01722 -6.84716e-05 1.55585e-20)
(1.01586 -0.000304181 -1.32609e-19)
(1.01179 -0.000473851 -4.14827e-19)
(1.00352 -0.000852785 -8.02793e-19)
(0.992034 -5.20441e-05 -1.24344e-18)
(0.975016 0.00190754 -1.62703e-18)
(0.960642 0.00422446 -1.97748e-18)
(0.947078 0.00574266 -2.20838e-18)
(0.931111 0.00645816 -2.33837e-18)
(0.921457 0.00708348 -2.41438e-18)
(0.913663 0.00579295 -2.68866e-18)
(0.901197 0.00277111 -2.94783e-18)
(0.892378 0.00258813 -3.12414e-18)
(0.882224 0.00233896 -3.4467e-18)
(0.877971 0.00155907 -3.49177e-18)
(0.876503 0.000186332 -3.71055e-18)
(0.873352 5.32181e-06 -3.66155e-18)
(0.870775 0.000729744 -4.24815e-18)
(0.867903 0.00185385 -4.45525e-18)
(0.86574 0.00540057 -4.60435e-18)
(0.844808 0.0122114 -5.26111e-18)
(0.815826 0.0221057 -1.10587e-17)
(0.772984 0.0289602 -1.94856e-18)
(0.726968 0.0340845 2.15863e-18)
(0.6717 0.0368512 2.8031e-18)
(0.616271 0.0402279 -7.89298e-18)
(0.559823 0.039559 -1.15677e-17)
(0.507173 0.0400358 -8.43981e-18)
(0.456832 0.0386268 -1.01385e-17)
(0.409519 0.0396119 3.74658e-18)
(0.363702 0.0393435 -1.30252e-17)
(0.318953 0.041326 3.58989e-19)
(0.274693 0.0393181 -8.6225e-18)
(0.231054 0.0418277 1.15066e-18)
(0.186349 0.040922 -8.17025e-18)
(0.140407 0.0453463 2.21722e-19)
(0.0918508 0.0375396 4.1571e-17)
(0.045637 0.0561452 -1.44837e-17)
(1.51353 -4.77462e-07 6.97631e-22)
(1.51363 -1.43785e-05 2.79905e-21)
(1.51373 4.35893e-06 3.19884e-21)
(1.51384 3.73166e-06 2.58242e-21)
(1.51404 1.81353e-06 1.56634e-21)
(1.51424 2.18951e-06 2.93645e-21)
(1.51445 -2.02978e-07 2.19944e-21)
(1.51468 -1.93742e-06 1.82985e-21)
(1.5149 -1.11386e-06 3.145e-21)
(1.51512 -7.32394e-07 2.2614e-21)
(1.51532 4.43625e-07 2.35826e-21)
(1.51554 -1.69808e-06 1.87207e-21)
(1.5157 2.83368e-07 3.44622e-21)
(1.51584 -1.37252e-06 1.20856e-21)
(1.51596 1.89596e-07 -3.81359e-22)
(1.51609 3.55159e-07 3.8472e-22)
(1.51622 4.81771e-07 2.68902e-22)
(1.51626 -1.497e-07 -1.07154e-21)
(1.51627 5.9717e-07 -3.56606e-22)
(1.51627 6.6016e-07 -2.20973e-21)
(1.51625 3.69256e-07 -1.66057e-21)
(1.51618 1.34882e-06 -2.38534e-21)
(1.51609 2.08375e-06 -3.10067e-21)
(1.51601 3.37951e-06 -3.84262e-21)
(1.51591 4.94186e-06 -2.04096e-21)
(1.51579 4.27766e-06 -1.65535e-21)
(1.51565 4.2894e-06 -2.86434e-21)
(1.51546 2.75157e-06 -2.78445e-21)
(1.51529 3.43457e-07 -3.91108e-21)
(1.51514 -2.5774e-06 -2.74414e-21)
(1.51498 -1.93135e-06 -4.08253e-21)
(1.51489 -2.25915e-05 -3.52762e-21)
(1.51469 -2.40996e-05 -3.53729e-21)
(1.51426 -3.82821e-05 -4.02595e-21)
(1.51408 -4.41532e-05 -4.08331e-21)
(1.51401 -7.27661e-05 -3.69437e-21)
(1.514 -0.000132581 -4.16645e-21)
(1.51401 -0.000179007 -4.1028e-21)
(1.51413 -0.00027838 -4.12732e-21)
(1.51427 -0.000467017 -3.97367e-21)
(1.51531 -0.000661913 -4.11872e-21)
(1.51564 -0.00140565 -4.3088e-21)
(1.52074 -0.00213652 -4.79994e-21)
(1.52149 -0.00917757 -3.14932e-20)
(1.52386 -0.0654529 -1.65211e-18)
(1.4057 -0.255463 1.95086e-18)
(0.77339 -0.18558 9.41305e-18)
(0.68612 -0.0236037 6.64121e-18)
(0.710789 0.0233764 4.42853e-18)
(0.72427 0.0129797 2.78284e-18)
(0.731826 0.00709607 3.37011e-18)
(0.737136 0.00643295 2.26822e-18)
(0.743384 0.0053237 1.56564e-18)
(0.749949 0.00490179 1.58891e-18)
(0.7592 0.00453386 1.52804e-18)
(0.767789 0.00431693 1.4024e-18)
(0.77536 0.00333848 1.19578e-18)
(0.784834 0.00361864 1.14871e-18)
(0.793572 0.00283518 9.01934e-19)
(0.802803 0.00272068 9.52092e-19)
(0.81121 0.00222424 8.19017e-19)
(0.81841 0.00143865 7.66465e-19)
(0.825217 0.00119676 6.26664e-19)
(0.831592 0.000867211 6.0304e-19)
(0.83728 0.000572615 4.49852e-19)
(0.842185 0.000251584 3.91865e-19)
(0.846366 -1.13702e-05 2.15183e-19)
(0.850045 -0.000311198 1.10202e-19)
(0.853765 -0.000193862 8.27648e-20)
(0.857279 -0.000232571 -5.36203e-20)
(0.860372 -0.000438885 -1.70729e-19)
(0.863106 -0.000499052 -2.67322e-19)
(0.86556 -0.000504661 -4.35091e-19)
(0.868112 -0.000425028 -6.68906e-19)
(0.870524 -0.000124279 -9.16413e-19)
(0.872283 0.000455998 -1.34593e-18)
(0.874819 0.00106311 -1.8409e-18)
(0.876975 0.00160724 -2.44905e-18)
(0.879718 0.00176923 -2.7969e-18)
(0.881766 0.00144075 -3.3989e-18)
(0.881501 0.000883607 -4.75239e-18)
(0.876327 0.00125959 -5.66178e-18)
(0.870519 0.000339468 -6.57944e-18)
(0.861266 -0.000496644 -7.64495e-18)
(0.841486 0.000702331 -8.27447e-18)
(0.824818 0.00184786 -8.57003e-18)
(0.810231 0.00440828 -8.54224e-18)
(0.797575 0.00697549 -8.27982e-18)
(0.790605 0.00888612 -8.09027e-18)
(0.790313 0.00809489 -7.91573e-18)
(0.796968 0.00502197 -7.73323e-18)
(0.790627 0.00308125 -7.023e-18)
(0.784417 0.00378447 -1.12189e-17)
(0.775841 0.00127941 6.08424e-20)
(0.761198 0.00180401 -2.04056e-17)
(0.725764 0.0023115 2.84971e-17)
(0.687835 0.0036403 -6.11855e-17)
(0.657863 0.00148935 8.93195e-17)
(0.629876 -0.00022807 -8.04002e-17)
(0.592864 -0.000730327 5.62827e-17)
(0.555923 0.015792 -2.88483e-19)
(0.516025 0.0335756 -1.85658e-16)
(0.474929 0.0483499 1.55872e-16)
(0.437215 0.0530817 -4.09637e-18)
(0.4015 0.0548479 -3.73388e-17)
(0.369446 0.0549026 7.55566e-19)
(0.338766 0.0564707 -4.70074e-16)
(0.31116 0.0534231 -2.27695e-16)
(0.285274 0.0529514 1.60207e-16)
(0.261918 0.0506614 -2.2369e-16)
(0.239521 0.051078 -3.01157e-16)
(0.217599 0.0519561 -1.4853e-16)
(0.194591 0.0545019 -1.44062e-16)
(0.169666 0.0544629 -9.7387e-17)
(0.143899 0.0577373 -7.10801e-17)
(0.115767 0.0574956 -1.11352e-16)
(0.0867877 0.0639707 -1.40292e-16)
(0.0521812 0.0686715 -7.18306e-17)
(0.02168 0.0880653 -1.35495e-17)
(1.5135 -8.49553e-08 9.20934e-22)
(1.51361 -2.47948e-05 -1.3881e-21)
(1.51373 3.6364e-06 -2.43877e-21)
(1.51384 4.11088e-06 -6.52085e-22)
(1.51404 3.74298e-06 -1.17864e-21)
(1.51424 3.89285e-06 -4.09078e-22)
(1.51445 7.66879e-07 -1.17949e-21)
(1.51468 -1.106e-06 -1.77212e-21)
(1.5149 -1.20929e-06 5.09633e-22)
(1.51512 -1.77827e-06 -2.12836e-21)
(1.51532 -1.86371e-07 2.81032e-21)
(1.51554 -3.26739e-06 -1.89923e-21)
(1.5157 9.41218e-08 -1.97568e-21)
(1.51584 -1.87676e-06 -1.94296e-21)
(1.51596 -1.6248e-07 -7.89428e-22)
(1.51609 3.33023e-08 -8.0706e-22)
(1.51622 7.30605e-07 -1.77389e-21)
(1.51626 4.04568e-07 -2.20094e-21)
(1.51627 1.54922e-06 -1.05885e-21)
(1.51627 1.21465e-06 -2.05107e-21)
(1.51624 1.82673e-06 -4.27175e-21)
(1.51618 3.97064e-06 -8.11662e-21)
(1.51609 6.38304e-06 -6.73404e-21)
(1.516 8.62025e-06 -7.75348e-21)
(1.51589 1.23058e-05 -1.33268e-20)
(1.51574 1.45563e-05 -1.26657e-20)
(1.51558 1.84202e-05 -1.3536e-20)
(1.51534 1.99492e-05 -1.40793e-20)
(1.51509 2.48785e-05 -1.3526e-20)
(1.51485 2.62474e-05 -1.17982e-20)
(1.51467 4.13098e-05 -1.13512e-20)
(1.51448 4.98772e-05 -1.06709e-20)
(1.51412 5.53386e-05 -1.1093e-20)
(1.51339 7.70721e-05 -1.00496e-20)
(1.51289 8.03097e-05 -1.07432e-20)
(1.51239 7.84413e-05 -1.03845e-20)
(1.51193 8.26595e-05 -1.03028e-20)
(1.5114 8.09476e-05 -1.03149e-20)
(1.5109 3.80549e-05 -1.03074e-20)
(1.50988 -0.000158351 -1.03417e-20)
(1.50936 -0.000512036 -1.00553e-20)
(1.50709 -0.00124988 -8.44784e-21)
(1.5085 -0.00272379 2.33563e-21)
(1.50201 -0.0100839 7.85759e-20)
(1.49966 -0.076557 8.34567e-19)
(1.0697 -0.265869 2.53548e-18)
(0.586424 -0.177986 3.21275e-18)
(0.521708 -0.0584329 2.44815e-18)
(0.523967 -0.000622237 1.27095e-18)
(0.552007 0.000283479 8.70685e-19)
(0.570199 -0.00667545 6.36849e-19)
(0.586559 -0.00717795 5.33491e-19)
(0.60201 -0.00819188 3.3703e-19)
(0.616488 -0.0100116 2.58561e-19)
(0.631366 -0.00911684 2.63437e-19)
(0.6445 -0.00855568 1.96863e-19)
(0.656789 -0.00952342 8.51607e-20)
(0.669718 -0.00732494 9.00077e-20)
(0.682492 -0.00766955 1.60287e-19)
(0.694208 -0.00631168 -2.83164e-19)
(0.704805 -0.00530793 -1.28517e-19)
(0.714391 -0.00471404 -1.63413e-20)
(0.723136 -0.0037991 -4.31252e-19)
(0.731319 -0.00312887 -5.06756e-19)
(0.738564 -0.00242312 -5.56163e-19)
(0.745254 -0.00187296 -5.8642e-19)
(0.750876 -0.00128986 -1.08381e-18)
(0.755962 -0.00131046 -8.60211e-19)
(0.760883 -0.000631744 -1.61218e-18)
(0.765569 -0.000169536 -1.65479e-18)
(0.769938 8.02027e-05 -2.08301e-18)
(0.773792 0.000383512 -2.75625e-18)
(0.777096 0.000588456 -3.42458e-18)
(0.780294 0.00103205 -3.75505e-18)
(0.78458 0.00136091 -4.80203e-18)
(0.789987 0.00139473 -5.91028e-18)
(0.794931 0.00073659 -6.78109e-18)
(0.799111 0.000735412 -8.29991e-18)
(0.801861 0.00119834 -9.82772e-18)
(0.803602 0.00248905 -1.10763e-17)
(0.806125 0.00353947 -1.23172e-17)
(0.804774 0.00447698 -1.32198e-17)
(0.792353 0.00557686 -1.40284e-17)
(0.77901 0.00801717 -1.50969e-17)
(0.76817 0.00720502 -1.46521e-17)
(0.746218 0.00799546 -1.52866e-17)
(0.725709 0.00694546 -1.4449e-17)
(0.715724 0.00234532 -1.43102e-17)
(0.709847 0.000459231 -1.35209e-17)
(0.692271 0.000642339 -1.15992e-17)
(0.678695 0.00393502 -1.58224e-17)
(0.664953 0.0081069 3.2212e-20)
(0.627155 0.0187724 -4.52799e-18)
(0.538807 0.0266594 -1.19714e-17)
(0.482915 0.0343646 6.98581e-17)
(0.435415 0.0398801 -1.44969e-16)
(0.381612 0.042839 2.69654e-16)
(0.324208 0.042208 -4.96717e-16)
(0.288821 0.0409964 8.98449e-16)
(0.25339 0.0400585 -1.38997e-15)
(0.218767 0.0419124 1.32528e-15)
(0.197181 0.050064 -7.63589e-17)
(0.174205 0.0529875 -1.25464e-15)
(0.152568 0.0529336 1.23192e-15)
(0.136059 0.0551696 2.23498e-16)
(0.120641 0.0555199 1.70827e-15)
(0.106545 0.0560722 1.28488e-15)
(0.0943645 0.0534033 -1.89688e-15)
(0.0833083 0.0538427 -1.77945e-16)
(0.0741596 0.0513548 1.48235e-15)
(0.0671902 0.0521915 3.36212e-18)
(0.0615939 0.0514076 -3.90518e-16)
(0.0583608 0.0561795 -5.21513e-17)
(0.052308 0.0564251 -1.76204e-16)
(0.0492698 0.0628969 -9.20294e-17)
(0.0410133 0.0677234 6.14424e-17)
(0.036856 0.0837349 1.21561e-17)
(0.0214429 0.0932606 1.45553e-17)
(0.0198983 0.121254 2.52094e-17)
(1.51349 1.8513e-06 -7.18276e-22)
(1.5136 -2.82452e-05 7.23834e-22)
(1.51374 2.43902e-06 1.96264e-21)
(1.51385 4.05867e-06 2.16005e-21)
(1.51404 4.19988e-06 1.47359e-22)
(1.51423 4.21957e-06 -2.34649e-21)
(1.51446 1.16121e-06 -2.09497e-21)
(1.51469 -1.58077e-06 -2.09776e-21)
(1.51491 -1.14181e-06 -7.01214e-22)
(1.51513 -2.31475e-06 -1.16382e-22)
(1.51533 -6.57228e-07 -1.47029e-21)
(1.51554 -3.60748e-06 -3.17514e-21)
(1.5157 5.50575e-08 -1.42958e-21)
(1.51585 -3.04788e-06 -1.55845e-21)
(1.51597 -3.69933e-07 7.81223e-21)
(1.5161 -1.64221e-07 7.83238e-21)
(1.51623 6.77039e-07 9.86898e-21)
(1.51627 -2.52353e-07 7.20745e-21)
(1.51629 8.23156e-07 3.0698e-21)
(1.51628 8.42067e-07 1.23577e-20)
(1.51626 1.87893e-06 1.39401e-20)
(1.5162 4.4726e-06 1.8854e-20)
(1.51612 6.95709e-06 1.78779e-20)
(1.51605 9.1943e-06 2.03026e-20)
(1.51596 1.21722e-05 2.44277e-20)
(1.51585 1.4286e-05 1.76153e-20)
(1.51571 1.58756e-05 2.10895e-20)
(1.51555 1.44546e-05 2.59083e-20)
(1.51542 1.38107e-05 2.61189e-20)
(1.51532 7.76919e-06 2.10849e-20)
(1.51521 3.05454e-06 2.09846e-20)
(1.51513 -4.54106e-06 2.05373e-20)
(1.51503 -5.04605e-06 2.01827e-20)
(1.51483 -1.58026e-05 2.01051e-20)
(1.51477 -4.02048e-05 2.06861e-20)
(1.51479 -8.22442e-05 2.10376e-20)
(1.51484 -0.00011814 2.06179e-20)
(1.51505 -0.000204617 2.17258e-20)
(1.51547 -0.000335176 2.18658e-20)
(1.5157 -0.000496581 2.17711e-20)
(1.5159 -0.000999007 2.18901e-20)
(1.51554 -0.00146287 2.18854e-20)
(1.51585 -0.00224375 2.92438e-20)
(1.51286 -0.007266 1.18e-19)
(1.50158 -0.0503457 9.43638e-19)
(0.933191 -0.159632 2.99993e-18)
(0.53528 -0.125576 2.68811e-18)
(0.466925 -0.0638361 1.7473e-18)
(0.460595 -0.0252794 8.88937e-19)
(0.481626 -0.0217236 4.5069e-19)
(0.501162 -0.0258381 -1.1649e-19)
(0.519776 -0.0228672 -6.2341e-20)
(0.538088 -0.0227452 -6.12057e-20)
(0.555315 -0.0236886 1.23179e-19)
(0.572711 -0.0200135 -1.20031e-19)
(0.58876 -0.0178635 4.24936e-20)
(0.604377 -0.0192261 -3.50609e-19)
(0.619997 -0.0162381 -3.97016e-20)
(0.63547 -0.0172607 -1.94487e-19)
(0.649392 -0.0143137 -5.1219e-19)
(0.662157 -0.0130129 -2.26975e-19)
(0.674152 -0.0127272 -3.64562e-19)
(0.685044 -0.0109157 -7.01928e-19)
(0.695376 -0.0101728 -6.56869e-19)
(0.70447 -0.00903449 -7.49163e-19)
(0.712738 -0.00863074 -7.53818e-19)
(0.720128 -0.00810111 -1.11754e-18)
(0.727075 -0.00808275 -1.24297e-18)
(0.733595 -0.00666772 -1.2896e-18)
(0.740063 -0.00560301 -1.7728e-18)
(0.745811 -0.00493867 -1.85453e-18)
(0.751214 -0.00435811 -2.24719e-18)
(0.756826 -0.00401427 -2.73993e-18)
(0.762826 -0.00374749 -3.62934e-18)
(0.768719 -0.00348987 -4.24641e-18)
(0.77417 -0.00356114 -5.66906e-18)
(0.780268 -0.00348716 -6.69431e-18)
(0.786681 -0.00270997 -7.94272e-18)
(0.793362 -0.000862222 -9.76483e-18)
(0.796867 0.00187922 -1.12631e-17)
(0.794991 0.0053715 -1.34026e-17)
(0.789264 0.00849393 -1.47196e-17)
(0.786482 0.0125345 -1.6611e-17)
(0.772151 0.0166505 -1.72943e-17)
(0.744231 0.0208208 -2.01677e-17)
(0.729641 0.0188529 -1.45006e-17)
(0.710199 0.0183826 -1.89016e-17)
(0.675261 0.0137594 -1.36499e-17)
(0.661147 0.0148325 -1.99494e-17)
(0.644686 0.0238742 -1.65561e-20)
(0.593391 0.0445614 -1.34299e-17)
(0.509003 0.0564215 1.05493e-17)
(0.459955 0.0656472 -3.76049e-17)
(0.416858 0.0774976 7.78671e-17)
(0.355574 0.0839775 -9.42942e-17)
(0.291423 0.0800977 6.07037e-17)
(0.259917 0.074973 1.29874e-16)
(0.230369 0.073639 -4.36579e-16)
(0.1896 0.0713372 6.45834e-16)
(0.14898 0.0641372 -5.12469e-16)
(0.122811 0.0627952 -4.08363e-17)
(0.0979175 0.0632495 -1.2482e-16)
(0.0752444 0.063446 2.35219e-16)
(0.0577667 0.0614957 -1.10161e-15)
(0.043536 0.0611088 -4.44423e-16)
(0.0329793 0.0590544 4.73608e-16)
(0.0246365 0.0595383 9.01366e-17)
(0.0193158 0.0554814 -1.3316e-17)
(0.015089 0.0551712 8.66299e-16)
(0.0134757 0.0507381 6.59177e-17)
(0.0132221 0.0508695 -4.1541e-16)
(0.0132281 0.0494511 -1.94117e-16)
(0.0132375 0.0550074 -2.70117e-16)
(0.0118352 0.0548336 -1.5769e-16)
(0.0123574 0.0627004 6.06516e-17)
(0.0123783 0.067994 6.28426e-17)
(0.0130985 0.0885598 5.69554e-18)
(0.00769268 0.0996434 2.53069e-18)
(0.00993982 0.131979 -5.34028e-18)
(1.51346 4.2583e-06 1.06863e-22)
(1.51358 -3.21676e-05 1.47794e-21)
(1.51373 1.45996e-06 -1.23264e-22)
(1.51384 3.58786e-06 -2.65527e-21)
(1.51404 6.68034e-06 6.36726e-21)
(1.51423 7.33684e-06 1.21959e-20)
(1.51445 1.68992e-06 1.47641e-20)
(1.51469 -2.5905e-06 2.41099e-21)
(1.51491 -8.29514e-07 1.3024e-20)
(1.51513 -1.69989e-06 1.3664e-20)
(1.51533 -6.85781e-07 2.78535e-21)
(1.51553 -4.41154e-06 1.65494e-20)
(1.5157 -8.17899e-07 1.40603e-20)
(1.51585 -3.02315e-06 1.82826e-20)
(1.51597 7.06232e-07 8.64294e-21)
(1.5161 5.09886e-07 1.07078e-20)
(1.51624 1.99062e-06 1.7062e-20)
(1.51628 1.47008e-06 2.05073e-20)
(1.51629 3.00933e-06 2.52455e-20)
(1.51629 2.40648e-06 1.08314e-20)
(1.51627 3.30994e-06 9.59184e-21)
(1.5162 7.42342e-06 7.69075e-21)
(1.51611 1.19381e-05 4.11683e-21)
(1.51602 1.59726e-05 2.42571e-21)
(1.5159 2.09062e-05 3.25987e-21)
(1.51577 2.3903e-05 6.77376e-21)
(1.51559 2.93549e-05 2.20922e-21)
(1.51534 3.27726e-05 -2.18139e-21)
(1.51506 3.4946e-05 -3.08307e-21)
(1.51481 3.63405e-05 2.009e-21)
(1.51458 5.11475e-05 1.12117e-21)
(1.51433 5.85256e-05 3.78169e-22)
(1.51392 6.91735e-05 1.62732e-21)
(1.51308 8.47437e-05 -1.49738e-21)
(1.51241 8.62448e-05 -2.46624e-21)
(1.51168 8.20502e-05 -3.38255e-22)
(1.51092 8.4529e-05 -1.67977e-21)
(1.51012 6.76353e-05 -2.63575e-21)
(1.50918 2.26273e-05 -2.30478e-21)
(1.50759 2.78772e-07 -2.26714e-21)
(1.50596 -0.000310662 -3.1629e-21)
(1.50175 -0.000533184 -5.06972e-21)
(1.50141 -0.00102044 -2.33176e-21)
(1.49701 -0.00353843 1.24651e-19)
(1.49964 -0.0251005 1.46614e-18)
(0.951959 -0.0725079 4.50389e-18)
(0.548367 -0.0767708 4.20921e-18)
(0.464774 -0.0512973 1.93147e-18)
(0.453641 -0.0408791 9.01519e-19)
(0.461995 -0.0409695 1.36739e-19)
(0.479577 -0.0461654 -2.21728e-19)
(0.498928 -0.0458406 -2.5655e-19)
(0.518186 -0.043978 -2.12134e-19)
(0.536151 -0.0461494 -3.89922e-19)
(0.554991 -0.0401609 -3.06576e-19)
(0.573651 -0.0380397 -2.37021e-19)
(0.591406 -0.038944 -6.33072e-19)
(0.608273 -0.0342453 -1.50288e-19)
(0.625544 -0.0345696 -9.22332e-19)
(0.640541 -0.0294695 -5.58843e-19)
(0.655821 -0.0266227 -3.1857e-19)
(0.669862 -0.0245407 -1.04656e-18)
(0.681301 -0.0210559 -7.30275e-19)
(0.692463 -0.01963 -6.86863e-19)
(0.702021 -0.0172542 -1.24043e-18)
(0.710932 -0.0155565 -7.34793e-19)
(0.718856 -0.0137475 -1.16033e-18)
(0.726214 -0.0131005 -1.27868e-18)
(0.732694 -0.0111679 -1.34603e-18)
(0.73956 -0.00984678 -1.4887e-18)
(0.745917 -0.00861348 -1.7849e-18)
(0.75177 -0.00745013 -2.09433e-18)
(0.758025 -0.00700164 -2.64178e-18)
(0.764053 -0.00696461 -3.08972e-18)
(0.770061 -0.00720231 -3.83528e-18)
(0.776416 -0.00716012 -4.70054e-18)
(0.782888 -0.00644271 -5.92622e-18)
(0.788904 -0.00477254 -7.30896e-18)
(0.79468 -0.00230284 -8.47163e-18)
(0.798248 0.00144409 -1.09293e-17)
(0.800262 0.00677792 -1.25466e-17)
(0.798832 0.0137332 -1.5261e-17)
(0.785903 0.0220393 -1.87556e-17)
(0.770419 0.0274698 -1.90151e-17)
(0.754832 0.0308685 -2.05597e-17)
(0.719461 0.033437 -1.98512e-17)
(0.686085 0.0328198 -1.85566e-17)
(0.663219 0.0359985 -1.32571e-17)
(0.637269 0.0481587 -1.45514e-17)
(0.570125 0.0624318 2.32374e-17)
(0.524143 0.0862855 -6.81124e-17)
(0.493844 0.111588 9.41652e-17)
(0.440352 0.126931 -5.38294e-17)
(0.373528 0.127409 -3.08498e-17)
(0.338858 0.132684 1.29837e-16)
(0.304754 0.130654 -1.41464e-16)
(0.256251 0.1221 3.88491e-17)
(0.208462 0.115343 1.63123e-16)
(0.175019 0.110037 -1.12119e-16)
(0.143688 0.107426 -3.12926e-16)
(0.115952 0.100531 6.30327e-16)
(0.0884122 0.0955598 1.01478e-15)
(0.0642192 0.0882343 5.1049e-16)
(0.0475399 0.0822918 -9.12855e-16)
(0.033125 0.0777284 -5.00922e-16)
(0.0228175 0.0707011 -6.18742e-17)
(0.0138791 0.0671719 3.19247e-16)
(0.0099822 0.0596211 5.58967e-16)
(0.004229 0.0570896 3.03088e-16)
(0.00224472 0.0508665 -7.63747e-17)
(0.00120281 0.0503709 -8.8222e-17)
(0.000772655 0.0491615 -1.57004e-16)
(0.000334677 0.0548824 -1.98713e-16)
(-0.000340508 0.0538502 -1.50574e-16)
(-0.000190793 0.0608082 -1.66335e-16)
(0.00185665 0.0659434 -1.48215e-16)
(0.0035358 0.0894764 -7.77853e-17)
(0.00551531 0.0998593 -1.45884e-17)
(0.00775018 0.133528 -2.32802e-17)
(1.51345 7.39838e-06 1.94431e-21)
(1.51358 -3.40137e-05 -1.8648e-22)
(1.51373 2.87758e-07 2.02511e-21)
(1.51384 2.95893e-06 -3.555e-21)
(1.51404 6.5131e-06 -8.3558e-21)
(1.51424 8.45896e-06 -2.87497e-20)
(1.51447 2.03099e-06 -3.50238e-20)
(1.51469 -3.12017e-06 -6.65188e-21)
(1.51491 -4.1284e-07 -3.8503e-20)
(1.51513 -2.17829e-06 -3.94212e-20)
(1.51534 -9.01352e-07 -2.66406e-20)
(1.51555 -5.68412e-06 -4.65034e-20)
(1.51572 -1.67934e-06 -5.16643e-20)
(1.51586 -6.8685e-06 -4.72874e-20)
(1.51598 -1.10145e-06 -4.28755e-20)
(1.51612 -3.61544e-07 -4.94678e-20)
(1.51626 3.59566e-06 -6.71127e-20)
(1.5163 2.99739e-06 -5.1006e-20)
(1.51632 5.33373e-06 -6.02579e-20)
(1.51631 4.4008e-06 -6.6085e-20)
(1.5163 2.906e-06 -6.70355e-20)
(1.51623 7.56526e-06 -6.35049e-20)
(1.51616 1.26991e-05 -5.87633e-20)
(1.5161 1.63895e-05 -5.7941e-20)
(1.51602 2.38796e-05 -5.38871e-20)
(1.51593 2.42686e-05 -4.741e-20)
(1.51581 2.9782e-05 -4.28835e-20)
(1.51568 3.25642e-05 -4.18793e-20)
(1.51559 2.81665e-05 -4.16084e-20)
(1.5155 2.25547e-05 -4.35231e-20)
(1.51544 2.68169e-05 -4.23476e-20)
(1.51542 2.16459e-05 -4.4065e-20)
(1.51539 2.89744e-05 -4.34153e-20)
(1.51534 2.1064e-05 -4.35662e-20)
(1.51536 8.03387e-06 -4.29254e-20)
(1.51547 -1.89017e-05 -4.22537e-20)
(1.51565 -4.14467e-05 -4.17553e-20)
(1.51587 -6.63921e-05 -4.04768e-20)
(1.51655 -0.00011851 -4.30347e-20)
(1.51661 -0.000175809 -3.28126e-20)
(1.51693 -0.000374849 -1.10315e-19)
(1.5157 -0.000608359 -1.55503e-19)
(1.51775 -0.00108205 -1.3167e-18)
(1.51332 -0.00138679 -3.84922e-18)
(1.52433 -0.00165465 -1.21309e-18)
(0.968815 -0.000215542 9.73936e-18)
(0.56242 -0.00476913 1.12797e-17)
(0.477445 -0.0330999 2.89973e-18)
(0.459059 -0.0460139 1.53441e-18)
(0.46401 -0.0585788 5.06157e-20)
(0.478443 -0.068461 -9.50329e-19)
(0.499448 -0.0703377 -5.50141e-19)
(0.519549 -0.0672213 -5.61832e-19)
(0.538804 -0.0702615 -8.18882e-19)
(0.559276 -0.0630602 -4.36831e-19)
(0.5804 -0.0600389 -6.65063e-19)
(0.600291 -0.0589813 -5.97969e-19)
(0.61771 -0.052651 -7.20486e-19)
(0.636349 -0.0520385 -6.57357e-19)
(0.651491 -0.045554 -5.56772e-19)
(0.668557 -0.0411453 -9.5708e-19)
(0.68336 -0.0363024 -8.76031e-19)
(0.694934 -0.0305801 -6.00441e-19)
(0.707047 -0.0277238 -7.67732e-19)
(0.715877 -0.0239096 -7.75552e-19)
(0.725092 -0.0215804 -1.06481e-18)
(0.733058 -0.0191803 -1.38846e-18)
(0.740448 -0.0184313 -9.96889e-19)
(0.746384 -0.0161439 -1.25306e-18)
(0.753664 -0.0149781 -1.39595e-18)
(0.759798 -0.0133168 -1.58774e-18)
(0.765744 -0.0118542 -2.32255e-18)
(0.771781 -0.0113915 -2.5298e-18)
(0.777635 -0.0111153 -2.98196e-18)
(0.783907 -0.01085 -3.37797e-18)
(0.790333 -0.0109519 -3.87005e-18)
(0.796881 -0.0103987 -5.20072e-18)
(0.802722 -0.00843905 -5.87984e-18)
(0.807402 -0.00495559 -7.42746e-18)
(0.810216 -0.000150233 -8.78787e-18)
(0.81124 0.00673731 -9.78264e-18)
(0.811002 0.016998 -1.58717e-17)
(0.804273 0.0280373 -1.53946e-17)
(0.779451 0.0376658 -1.84787e-17)
(0.750023 0.0471476 -2.50937e-17)
(0.7295 0.0533476 -1.27474e-17)
(0.703155 0.0542259 -2.77678e-17)
(0.650955 0.064212 -4.85798e-18)
(0.594963 0.0802859 -8.28301e-18)
(0.567209 0.106577 -1.66579e-17)
(0.540323 0.132471 3.24988e-17)
(0.47339 0.148564 1.18972e-17)
(0.441017 0.168659 -8.98417e-17)
(0.410653 0.180209 1.59727e-16)
(0.365156 0.178263 -1.74685e-16)
(0.31368 0.170935 3.54578e-17)
(0.275309 0.166631 2.0503e-16)
(0.24105 0.16196 -1.73589e-16)
(0.205221 0.147567 -5.09781e-17)
(0.166265 0.142489 3.58661e-16)
(0.141165 0.130186 -5.05023e-16)
(0.112677 0.124318 -2.79115e-15)
(0.0881965 0.113002 -2.45467e-15)
(0.0661911 0.103261 -5.96527e-16)
(0.0467503 0.0949456 1.80178e-16)
(0.0315008 0.0847797 1.92877e-16)
(0.0182793 0.0773008 4.4818e-16)
(0.0107329 0.0672374 4.99565e-16)
(0.0030891 0.062104 1.70751e-16)
(0.000988845 0.0527372 8.31453e-17)
(-0.00113432 0.0516961 4.1799e-18)
(-0.0024825 0.0505817 -1.08605e-16)
(-0.00339275 0.0559284 -1.13609e-16)
(-0.00475939 0.0535563 -1.01471e-16)
(-0.0049976 0.0596251 -1.43317e-16)
(-0.00304787 0.0638958 -1.48222e-16)
(-0.00122094 0.0863029 -7.85106e-17)
(0.00553556 0.0975102 -2.09138e-17)
(0.00812109 0.132566 -2.51404e-17)
(1.51341 1.14613e-05 7.17384e-21)
(1.51356 -3.32508e-05 4.93906e-21)
(1.51373 -7.95223e-07 9.01969e-21)
(1.51384 1.74263e-06 -4.48929e-21)
(1.51404 6.34942e-06 1.43217e-20)
(1.51425 8.07003e-06 2.07854e-20)
(1.51446 3.69696e-06 6.73891e-21)
(1.51469 -2.52773e-07 2.96367e-20)
(1.51491 -3.79183e-07 1.47352e-20)
(1.51513 -2.15861e-06 1.30662e-20)
(1.51535 -1.3164e-06 1.31846e-20)
(1.51555 -5.76057e-06 1.89974e-20)
(1.51572 -1.34577e-06 3.18206e-20)
(1.51587 -6.25247e-06 9.34484e-21)
(1.51599 -2.87058e-08 -1.91823e-20)
(1.51613 4.97069e-07 -1.34769e-20)
(1.51627 4.56541e-06 -3.13361e-22)
(1.51631 3.70251e-06 -9.25119e-21)
(1.51633 6.17657e-06 -7.75344e-21)
(1.51633 4.94199e-06 4.51096e-21)
(1.51631 3.90236e-06 7.58217e-21)
(1.51625 9.28066e-06 8.2046e-21)
(1.51616 1.53985e-05 8.16583e-21)
(1.51608 2.20503e-05 1.41454e-20)
(1.51597 3.0314e-05 1.58831e-22)
(1.51582 3.40848e-05 -1.32296e-21)
(1.51566 4.00529e-05 2.62547e-21)
(1.51541 4.32484e-05 7.47259e-21)
(1.51512 4.64926e-05 7.19114e-21)
(1.51482 4.46992e-05 3.03216e-21)
(1.51459 5.68712e-05 8.26921e-21)
(1.51429 6.18644e-05 1.01528e-20)
(1.51383 7.67907e-05 1.19836e-20)
(1.51297 9.01332e-05 1.36799e-20)
(1.51215 9.98262e-05 1.44842e-20)
(1.51131 0.000105907 1.56169e-20)
(1.51032 0.000118959 1.67503e-20)
(1.50936 0.000142069 1.79956e-20)
(1.50828 0.000213528 1.91639e-20)
(1.50665 0.000188108 2.07447e-20)
(1.50463 0.000330827 1.98255e-20)
(1.49937 0.000313418 1.62603e-20)
(1.49805 0.000479713 6.40931e-21)
(1.49314 0.00330037 1.50237e-19)
(1.4925 0.0238731 1.50474e-18)
(0.879501 0.0718455 5.1328e-18)
(0.524034 0.0538839 4.57169e-18)
(0.451998 -0.0145821 2.97579e-18)
(0.438371 -0.0578067 1.31426e-18)
(0.462334 -0.0774957 6.88631e-19)
(0.481877 -0.0950514 2.36547e-19)
(0.509024 -0.0989462 6.48041e-19)
(0.533967 -0.0948893 5.7973e-19)
(0.557492 -0.0983319 -6.56627e-20)
(0.581203 -0.0883236 -6.70651e-20)
(0.606726 -0.0837254 3.11519e-19)
(0.629104 -0.0792011 8.97274e-20)
(0.648294 -0.0704392 2.18544e-19)
(0.668539 -0.0675543 3.58693e-19)
(0.68431 -0.0589182 -4.61349e-19)
(0.703858 -0.0544677 -7.55288e-19)
(0.718495 -0.0454665 -8.61945e-19)
(0.731168 -0.0377617 -7.45195e-19)
(0.743897 -0.0339269 3.72163e-19)
(0.752344 -0.0288973 4.38834e-19)
(0.762483 -0.0271264 -4.55818e-19)
(0.770068 -0.0237874 -1.33496e-18)
(0.777106 -0.0215775 -1.59672e-18)
(0.782814 -0.0190046 -9.68198e-19)
(0.789401 -0.0180087 -2.50951e-19)
(0.793897 -0.0160429 -3.92801e-19)
(0.798861 -0.0148566 -1.02106e-18)
(0.80294 -0.0143039 -1.33608e-18)
(0.807192 -0.0141641 -1.28078e-18)
(0.812133 -0.014099 -1.70758e-18)
(0.816917 -0.0139171 -2.01001e-18)
(0.821244 -0.0126879 -2.31558e-18)
(0.825089 -0.010301 -2.9558e-18)
(0.827989 -0.00610866 -2.79498e-18)
(0.830599 9.7236e-05 -5.19548e-18)
(0.831258 0.00882723 -6.61558e-18)
(0.827842 0.0205318 -6.9503e-18)
(0.812476 0.0370318 -2.41232e-17)
(0.801648 0.0540958 3.16234e-18)
(0.789863 0.0662819 -2.75663e-17)
(0.743596 0.0745543 -2.52298e-17)
(0.695029 0.0837001 1.07945e-17)
(0.660741 0.102193 -5.20778e-17)
(0.628351 0.121346 1.97398e-17)
(0.572111 0.148266 3.72208e-17)
(0.524468 0.17215 -5.7506e-17)
(0.497975 0.192826 5.42095e-17)
(0.474613 0.209636 -5.20567e-17)
(0.425044 0.216141 9.76947e-17)
(0.391385 0.22054 -3.09611e-16)
(0.358612 0.214686 5.11886e-16)
(0.322973 0.206755 -3.33913e-16)
(0.284042 0.19307 -7.15367e-16)
(0.245987 0.179848 7.12817e-16)
(0.214065 0.169244 4.86874e-16)
(0.184057 0.156866 8.88814e-16)
(0.15291 0.145776 2.73921e-15)
(0.126086 0.134498 3.80903e-15)
(0.10083 0.122013 3.28082e-15)
(0.0768827 0.111776 1.58867e-15)
(0.0560247 0.0981035 5.63779e-16)
(0.0381132 0.0865689 4.37805e-16)
(0.0263624 0.0737782 4.78903e-16)
(0.0137082 0.0675869 2.10377e-16)
(0.00792757 0.0564797 1.48177e-16)
(0.00200892 0.0549669 1.61458e-17)
(-0.00181141 0.0533771 -4.13388e-17)
(-0.00388682 0.0587235 -2.46345e-17)
(-0.00599614 0.054928 -1.59144e-17)
(-0.00616074 0.0598653 -2.87922e-17)
(-0.00545828 0.063116 3.7673e-18)
(-0.00411385 0.0825359 -1.11926e-17)
(0.00505755 0.0929082 -2.1566e-17)
(0.00860396 0.130184 -1.87839e-17)
(1.5134 1.58587e-05 -5.62884e-21)
(1.51355 -3.21619e-05 -5.48172e-21)
(1.51374 -1.26511e-06 -9.22699e-21)
(1.51384 -4.35374e-07 -3.02884e-21)
(1.51404 6.05211e-06 -4.47789e-20)
(1.51425 7.57292e-06 -1.58169e-20)
(1.51447 4.12045e-06 2.19834e-21)
(1.5147 1.86026e-07 -1.60957e-20)
(1.51493 1.66094e-07 -1.43516e-20)
(1.51514 -5.34035e-06 -1.93747e-20)
(1.51536 -3.00431e-06 -1.80825e-20)
(1.51556 -7.0583e-06 -1.1797e-20)
(1.51574 -4.43377e-06 -2.88929e-21)
(1.51588 -7.67656e-06 3.77766e-20)
(1.51601 -1.9888e-06 5.04909e-20)