/*--------------------------------*- C++ -*----------------------------------*\
| =========                 |                                                 |
| \\      /  F ield         | OpenFOAM: The Open Source CFD Toolbox           |
|  \\    /   O peration     | Version:  2.2.x                                 |
|   \\  /    A nd           | Web:      www.OpenFOAM.org                      |
|    \\/     M anipulation  |                                                 |
\*---------------------------------------------------------------------------*/
FoamFile
{
    version     2.0;
    format      ascii;
    class       volScalarField;
    location    "1.15";
    object      p;
}
// * * * * * * * * * * * * * * * * * * * * * * * * * * * * * * * * * * * * * //

dimensions      [1 -1 -2 0 0 0 0];

internalField   nonuniform List<scalar> 
14161
(
0.199235
0.199421
0.199356
0.199302
0.199223
0.199126
0.199012
0.198879
0.198724
0.198547
0.198354
0.198141
0.197888
0.197631
0.197376
0.197083
0.196769
0.196477
0.196158
0.195783
0.195457
0.195169
0.19485
0.194508
0.194255
0.194051
0.193763
0.193421
0.193213
0.193038
0.192898
0.192842
0.192853
0.192913
0.19303
0.193233
0.193584
0.193975
0.194498
0.195154
0.19586
0.196774
0.197826
0.198917
0.20035
0.201526
0.202761
0.203612
0.205097
0.234066
1.17768
1.62572
1.64931
1.60415
1.57343
1.533
1.49739
1.45989
1.41918
1.3807
1.3422
1.30631
1.26836
1.2291
1.19646
1.16975
1.14401
1.12118
1.10525
1.09635
1.0923
1.09135
1.09981
1.10417
1.11191
1.11855
1.12164
1.12281
1.12121
1.12276
1.12939
1.1321
1.13537
1.14054
1.14158
1.1416
1.14739
1.13043
1.12574
1.13149
1.13964
1.09591
1.07701
1.02161
0.967752
0.957634
0.969555
0.9782
1.08592
1.12564
1.28535
1.44542
1.59585
1.70707
1.78255
1.83684
1.87713
1.9089
1.93402
1.95574
1.97449
1.99075
2.00629
2.02143
2.03698
2.05406
2.07051
2.08477
2.12017
0.199233
0.19942
0.199355
0.199298
0.199227
0.199135
0.199008
0.198871
0.198728
0.198558
0.198348
0.198128
0.197891
0.197642
0.19737
0.197074
0.196777
0.196475
0.196153
0.195787
0.19546
0.195164
0.194843
0.194511
0.194256
0.19404
0.193754
0.193428
0.193212
0.193031
0.192888
0.192831
0.19284
0.192898
0.193019
0.19321
0.193528
0.193944
0.194485
0.195042
0.195801
0.196738
0.197696
0.198812
0.200323
0.201558
0.202931
0.20359
0.205446
0.234674
1.15712
1.6229
1.63896
1.59488
1.56564
1.52351
1.48308
1.44551
1.40806
1.37129
1.33339
1.29718
1.26063
1.22442
1.19346
1.16605
1.14092
1.11823
1.10281
1.09439
1.09113
1.0901
1.09793
1.1018
1.10807
1.11392
1.1165
1.11738
1.11606
1.11851
1.12431
1.12712
1.12986
1.13482
1.13584
1.13578
1.14132
1.12468
1.12171
1.123
1.1343
1.08835
1.06988
1.01719
0.96406
0.95434
0.963283
1.00684
1.18829
1.32332
1.4964
1.63933
1.74115
1.81251
1.8649
1.9032
1.93158
1.9543
1.97225
1.9881
2.00217
2.01455
2.02617
2.03754
2.05051
2.06548
2.08049
2.08611
2.11797
0.199234
0.199419
0.199357
0.199302
0.199222
0.199125
0.199016
0.198886
0.198719
0.198542
0.198359
0.198149
0.197882
0.197625
0.197377
0.197095
0.196769
0.196464
0.196151
0.19579
0.195457
0.195153
0.194831
0.194515
0.194253
0.194024
0.193742
0.193435
0.193202
0.193009
0.192863
0.192805
0.192805
0.19285
0.192955
0.193123
0.193432
0.193832
0.194287
0.194875
0.195628
0.196381
0.197341
0.198591
0.200031
0.201149
0.202474
0.203402
0.205238
0.229376
1.14936
1.63077
1.64352
1.60462
1.57664
1.5392
1.50163
1.4607
1.41923
1.37617
1.33472
1.29285
1.25229
1.22117
1.19004
1.15818
1.13434
1.11186
1.09686
1.08829
1.08554
1.0843
1.09256
1.09647
1.10264
1.10836
1.11107
1.113
1.11127
1.11351
1.11985
1.12202
1.1237
1.12932
1.1299
1.12899
1.1334
1.11787
1.11526
1.11403
1.126
1.08103
1.06022
1.00921
0.956649
0.952451
0.983598
1.12344
1.32294
1.50398
1.65378
1.75474
1.82669
1.87752
1.91422
1.94263
1.96304
1.98005
1.99285
2.00416
2.01368
2.02169
2.0296
2.03622
2.04292
2.05098
2.06065
2.06572
2.08168
0.199234
0.199421
0.199355
0.199298
0.199226
0.199135
0.199008
0.198872
0.198729
0.19856
0.198346
0.198129
0.197898
0.197647
0.197361
0.197072
0.196783
0.196483
0.196135
0.195794
0.195454
0.195135
0.194817
0.194516
0.194248
0.193997
0.193727
0.193436
0.193183
0.192979
0.192823
0.192757
0.192737
0.192767
0.192855
0.193008
0.193283
0.193611
0.193991
0.19454
0.195251
0.195985
0.196833
0.198077
0.199424
0.200623
0.201994
0.203278
0.20612
0.23174
1.15909
1.64161
1.64278
1.60364
1.5722
1.53195
1.49261
1.45018
1.40971
1.36921
1.3283
1.2826
1.24242
1.20868
1.1769
1.14538
1.12121
1.09818
1.08426
1.07628
1.07426
1.07281
1.08156
1.08585
1.09179
1.09691
1.09972
1.10282
1.10093
1.10316
1.10949
1.11135
1.11251
1.11655
1.11801
1.11623
1.11889
1.10522
1.10175
1.09944
1.10803
1.06562
1.03693
0.989045
0.942895
0.956141
1.10162
1.34064
1.5424
1.67978
1.76343
1.82645
1.87541
1.91583
1.9452
1.96809
1.98492
1.99887
2.00854
2.01681
2.02325
2.02844
2.03386
2.03721
2.0418
2.04576
2.05276
2.05667
2.06186
0.199236
0.199419
0.199357
0.199301
0.199222
0.199126
0.199016
0.198885
0.198719
0.198543
0.198357
0.198148
0.197886
0.197624
0.197371
0.197096
0.196769
0.196454
0.19614
0.195808
0.19545
0.195124
0.194809
0.194529
0.194245
0.193951
0.193704
0.193442
0.193147
0.192918
0.192761
0.192683
0.192646
0.192646
0.192706
0.192866
0.193038
0.193296
0.193618
0.19397
0.194555
0.195264
0.196081
0.19724
0.198586
0.199836
0.201053
0.202385
0.205928
0.229843
1.15402
1.65179
1.63869
1.60121
1.564
1.52344
1.48032
1.43395
1.38903
1.34324
1.30216
1.25511
1.21933
1.18538
1.15123
1.12292
1.10026
1.07811
1.06446
1.05748
1.0556
1.05375
1.06427
1.06815
1.0733
1.07844
1.07927
1.08732
1.08483
1.08542
1.09435
1.09573
1.09634
1.09944
1.10125
1.09937
1.0998
1.08797
1.08352
1.08041
1.08404
1.03831
1.01358
0.98735
0.929178
1.03591
1.29924
1.51625
1.64703
1.72697
1.7906
1.84321
1.88479
1.92124
1.94917
1.97053
1.98614
1.99919
2.00822
2.01627
2.02231
2.02721
2.03175
2.03451
2.03909
2.04162
2.04709
2.04943
2.05017
0.199236
0.199421
0.199355
0.199298
0.199227
0.199135
0.199008
0.19887
0.198728
0.198561
0.198344
0.198124
0.1979
0.197644
0.197355
0.197071
0.19678
0.196459
0.196129
0.195808
0.195447
0.195109
0.194801
0.194532
0.19423
0.193906
0.193666
0.193423
0.193136
0.192848
0.192667
0.192574
0.192515
0.192487
0.19253
0.192624
0.192737
0.192868
0.193109
0.193413
0.193715
0.19417
0.194963
0.195851
0.196932
0.197907
0.199236
0.200682
0.204785
0.21671
1.11503
1.65373
1.63064
1.57903
1.53335
1.49024
1.44664
1.39894
1.35206
1.30207
1.2608
1.21745
1.19067
1.14052
1.1142
1.09724
1.06625
1.04628
1.03654
1.02934
1.02871
1.0267
1.03617
1.04172
1.04536
1.05142
1.04756
1.05407
1.05628
1.05713
1.06605
1.0691
1.06918
1.07132
1.0741
1.07009
1.06951
1.06036
1.05493
1.05147
1.05425
1.01709
1.0076
0.976764
0.988029
1.23802
1.45019
1.57451
1.65469
1.71732
1.77827
1.83141
1.87429
1.91131
1.93928
1.96113
1.97804
1.99112
2.00138
2.01042
2.01741
2.02285
2.02795
2.03123
2.03668
2.03864
2.04353
2.04464
2.04396
0.199238
0.199422
0.199356
0.199302
0.199222
0.199123
0.199013
0.198881
0.198721
0.198544
0.198352
0.198138
0.197898
0.197632
0.197348
0.197079
0.196788
0.196449
0.196127
0.195813
0.195451
0.195092
0.194784
0.194524
0.194206
0.19387
0.193618
0.193401
0.193123
0.192772
0.192562
0.192429
0.192347
0.192287
0.192257
0.192317
0.19237
0.192438
0.192485
0.192594
0.192822
0.193115
0.193563
0.194031
0.194961
0.195953
0.197598
0.198701
0.203046
0.206037
1.06025
1.65525
1.60192
1.52343
1.46332
1.41245
1.37307
1.3282
1.29316
1.24415
1.20828
1.16899
1.15144
1.09684
1.07229
1.06969
1.02971
1.01359
1.00487
0.99777
0.996968
0.996616
1.00342
1.0095
1.01194
1.01995
1.01541
1.01477
1.0207
1.02153
1.02775
1.03237
1.03397
1.03734
1.04017
1.03839
1.03832
1.03141
1.02938
1.03152
1.04039
1.01665
1.01371
1.0117
1.23085
1.40874
1.52698
1.55135
1.61597
1.67377
1.74342
1.80957
1.85801
1.89481
1.9236
1.94723
1.96556
1.98017
1.99167
2.00213
2.01028
2.01661
2.02281
2.02705
2.0331
2.03545
2.04012
2.04146
2.04026
0.19924
0.199423
0.199357
0.199301
0.19922
0.199129
0.199012
0.198876
0.198716
0.198549
0.198352
0.198128
0.197904
0.197634
0.197346
0.197072
0.196793
0.196445
0.19612
0.195811
0.195457
0.195079
0.194764
0.194498
0.19417
0.193829
0.193561
0.19336
0.193098
0.192719
0.192455
0.192281
0.192159
0.192059
0.19197
0.191917
0.191919
0.191885
0.191808
0.191717
0.191613
0.191466
0.191332
0.191327
0.191312
0.191494
0.191364
0.191665
0.192622
0.194869
0.946796
1.60132
1.52389
1.40524
1.35312
1.33859
1.30135
1.25988
1.23758
1.18798
1.1559
1.12898
1.11079
1.0468
1.03601
1.02716
1.0024
0.984688
0.974016
0.965829
0.964627
0.965045
0.969735
0.979373
0.980984
0.984795
0.983241
0.980895
0.98439
0.985055
0.991129
0.998323
0.999999
1.00471
1.00841
1.00957
1.01367
1.01508
1.01964
1.02363
1.04044
1.02192
1.09828
1.27134
1.45282
1.51583
1.52597
1.52791
1.56634
1.61755
1.711
1.78398
1.83696
1.87589
1.90677
1.93171
1.95156
1.96732
1.98056
1.99191
2.00095
2.00842
2.01627
2.02125
2.02894
2.03196
2.03689
2.03826
2.03733
0.199242
0.199425
0.199358
0.1993
0.199226
0.199129
0.199012
0.198874
0.19872
0.19855
0.198354
0.198127
0.197904
0.197643
0.197343
0.197068
0.196793
0.196448
0.196112
0.195807
0.19546
0.195068
0.194744
0.194458
0.194127
0.19379
0.193506
0.193299
0.19303
0.192678
0.192332
0.192101
0.191928
0.19178
0.191645
0.191514
0.191386
0.191318
0.19116
0.190925
0.190638
0.190197
0.189666
0.189106
0.188609
0.187824
0.186183
0.185701
0.180695
0.181379
0.461124
1.47942
1.4651
1.31629
1.27186
1.25031
1.21948
1.19177
1.1856
1.13069
1.1023
1.08862
1.07517
0.98933
1.0084
0.994529
0.96503
0.96294
0.942537
0.937132
0.935013
0.936256
0.937517
0.947103
0.94887
0.95633
0.955773
0.953911
0.956803
0.955429
0.964419
0.969999
0.974512
0.984041
0.992905
1.00022
1.00709
1.0132
1.02243
1.04196
1.10669
1.18092
1.37116
1.52042
1.5913
1.54152
1.51571
1.50891
1.52616
1.58322
1.67374
1.75557
1.81706
1.85812
1.88961
1.91475
1.93569
1.95266
1.96731
1.97997
1.99072
1.99946
2.00894
2.01489
2.02354
2.02626
2.03291
2.03402
2.03357
0.199244
0.199427
0.19936
0.199304
0.199226
0.19913
0.19901
0.19888
0.198723
0.198549
0.198357
0.198129
0.197904
0.197649
0.197343
0.197063
0.196789
0.196451
0.196105
0.195797
0.19546
0.195063
0.194723
0.194414
0.194079
0.193753
0.193453
0.193212
0.192946
0.192636
0.192208
0.191911
0.191686
0.191481
0.191292
0.191076
0.19086
0.190648
0.190433
0.190031
0.189524
0.188683
0.187442
0.185902
0.184108
0.181939
0.178318
0.175198
0.166919
0.170135
0.290108
1.03115
1.27053
1.2754
1.22746
1.20757
1.12639
1.1525
1.12611
1.1075
1.07996
1.04334
1.06665
0.976409
0.958728
0.968449
0.934066
0.928347
0.922165
0.916677
0.914214
0.915195
0.917017
0.927218
0.929017
0.936163
0.936057
0.935052
0.938906
0.939627
0.951253
0.962606
0.968021
0.981126
0.990826
0.998786
1.0217
1.05961
1.09943
1.2097
1.3346
1.49887
1.61688
1.68062
1.62451
1.57873
1.52228
1.50538
1.52362
1.569
1.64856
1.73415
1.80111
1.84401
1.87577
1.90097
1.92221
1.93962
1.95486
1.96821
1.98011
1.99054
2.00094
2.00764
2.01747
2.02021
2.02803
2.02932
2.02981
0.199247
0.199428
0.199363
0.199307
0.199228
0.199132
0.199015
0.198881
0.198721
0.198554
0.198361
0.198135
0.197903
0.197656
0.197346
0.197057
0.196784
0.196457
0.196099
0.195782
0.195455
0.195068
0.194702
0.194364
0.194029
0.19371
0.193403
0.193118
0.192852
0.192558
0.192089
0.191711
0.191427
0.191181
0.190924
0.190669
0.190379
0.190062
0.189816
0.189474
0.188979
0.188298
0.187418
0.186043
0.184756
0.1833
0.181633
0.179299
0.174594
0.176778
0.561696
0.846307
1.02077
1.17047
1.19246
1.19709
1.12309
1.13712
1.10033
1.092
1.06278
1.03379
1.03597
0.977399
0.947403
0.93665
0.913637
0.912268
0.908561
0.90445
0.902052
0.902428
0.905908
0.914158
0.918232
0.927362
0.92777
0.930094
0.933765
0.936628
0.949762
0.963046
0.971379
1.00273
1.0304
1.07797
1.15286
1.27274
1.39532
1.51188
1.63023
1.72503
1.75036
1.70822
1.63859
1.57792
1.54044
1.53889
1.53896
1.5672
1.63164
1.71292
1.78268
1.82784
1.8604
1.88619
1.9078
1.92547
1.94116
1.95509
1.96812
1.98035
1.9919
1.9997
2.01064
2.01344
2.02219
2.02352
2.02468
0.19925
0.19943
0.199364
0.199309
0.19923
0.199134
0.199015
0.198887
0.198729
0.198551
0.198367
0.198141
0.197903
0.19766
0.197354
0.197057
0.196776
0.196464
0.196093
0.195762
0.195445
0.195084
0.194673
0.194312
0.193973
0.193669
0.193363
0.193029
0.192731
0.192421
0.192035
0.191524
0.191177
0.190886
0.1906
0.190304
0.189964
0.189605
0.189179
0.188861
0.188347
0.187509
0.186485
0.184759
0.183272
0.181286
0.179717
0.175403
0.174465
0.170731
0.615915
0.854593
0.907383
1.03146
1.15906
1.20258
1.15932
1.15778
1.11198
1.1085
1.06166
1.05103
1.00244
1.00513
0.93071
0.913977
0.902412
0.905968
0.900631
0.89634
0.896719
0.895572
0.903135
0.913955
0.919058
0.928231
0.930817
0.934398
0.944188
0.952781
0.987895
1.02343
1.06198
1.16193
1.25922
1.37653
1.48182
1.58442
1.67801
1.74744
1.77917
1.78661
1.75949
1.70855
1.65469
1.60853
1.56945
1.55558
1.5559
1.58233
1.63227
1.70585
1.77072
1.81559
1.84737
1.87281
1.89436
1.91169
1.92743
1.94165
1.9556
1.96924
1.98213
1.9913
2.00306
2.00596
2.0157
2.01711
2.01963
0.199253
0.199433
0.199367
0.19931
0.199231
0.199138
0.19902
0.198885
0.198736
0.198557
0.198365
0.198147
0.197905
0.197661
0.197366
0.197058
0.196768
0.196467
0.196089
0.195742
0.195435
0.195086
0.194641
0.194261
0.193917
0.193617
0.193306
0.192949
0.192604
0.192299
0.19195
0.191353
0.190944
0.19061
0.190304
0.189973
0.189637
0.189279
0.188899
0.188614
0.188304
0.18778
0.18727
0.186607
0.186517
0.186561
0.18841
0.18935
0.203801
0.408347
0.804792
0.868004
0.861353
0.918361
1.06066
1.16659
1.17832
1.18221
1.12104
1.12729
1.06893
1.05609
0.995364
0.985254
0.943415
0.907551
0.896382
0.901393
0.902465
0.900443
0.899725
0.900168
0.907162
0.920272
0.928735
0.948201
0.959573
0.981543
1.03589
1.07597
1.18341
1.28612
1.38984
1.4851
1.57795
1.66875
1.73255
1.76874
1.79059
1.80073
1.79637
1.77878
1.7535
1.71427
1.66842
1.62545
1.59379
1.5865
1.58496
1.60353
1.6415
1.70464
1.76456
1.80693
1.83674
1.86105
1.88173
1.8984
1.91373
1.92785
1.94261
1.95726
1.97162
1.98198
1.99438
1.99749
2.0083
2.0096
2.01269
0.199256
0.199435
0.199369
0.199313
0.199235
0.199138
0.199025
0.198892
0.198738
0.198555
0.19837
0.198157
0.197907
0.197658
0.197383
0.197059
0.19676
0.196463
0.196096
0.19573
0.195413
0.195075
0.194618
0.194213
0.193859
0.193558
0.19324
0.192868
0.192489
0.192155
0.191791
0.191273
0.190744
0.190357
0.190029
0.189707
0.189369
0.189024
0.188665
0.188328
0.188137
0.187712
0.187199
0.186611
0.185864
0.185383
0.185537
0.184017
0.191302
0.573267
0.86906
0.886043
0.869642
0.877252
0.912196
1.04705
1.12355
1.17671
1.14159
1.15057
1.08195
1.03562
1.02327
0.953624
0.948435
0.90927
0.898784
0.90697
0.908974
0.912125
0.918338
0.925867
0.942349
0.973667
1.00116
1.07094
1.12722
1.23503
1.33282
1.42739
1.51222
1.60489
1.68081
1.73546
1.76614
1.7863
1.79652
1.80065
1.79943
1.79197
1.78299
1.7692
1.74913
1.72089
1.68551
1.64954
1.61959
1.60612
1.60311
1.61991
1.65262
1.70765
1.76111
1.80038
1.82789
1.85019
1.86937
1.88521
1.89995
1.91399
1.92943
1.94487
1.96069
1.97274
1.98535
1.98844
2.00022
2.00143
2.00575
0.19926
0.199438
0.199372
0.199313
0.19924
0.199145
0.199026
0.198893
0.198748
0.198561
0.198367
0.198166
0.197912
0.197657
0.197394
0.197065
0.196754
0.196458
0.196106
0.19572
0.195388
0.195048
0.194602
0.19417
0.193802
0.19348
0.193168
0.192788
0.192385
0.191994
0.191645
0.191209
0.190581
0.190129
0.18977
0.189454
0.189134
0.188807
0.188477
0.188118
0.187943
0.187601
0.187024
0.186442
0.184982
0.183775
0.181586
0.179356
0.181282
0.693126
0.873157
0.882055
0.871997
0.869938
0.862982
0.87705
1.00537
1.06639
1.15423
1.14523
1.06143
1.07164
1.00055
0.949224
0.953496
0.925289
0.922137
0.933132
0.941016
0.966191
0.989151
1.02932
1.12799
1.20124
1.30831
1.39374
1.47351
1.55711
1.63655
1.70475
1.74375
1.76659
1.78127
1.78687
1.79157
1.78984
1.79164
1.7899
1.78626
1.77999
1.77297
1.76041
1.7457
1.72446
1.69684
1.66678
1.64288
1.6302
1.62946
1.6414
1.66755
1.71275
1.76016
1.79568
1.82083
1.84064
1.85796
1.87287
1.88695
1.90061
1.91636
1.93232
1.94924
1.96303
1.97516
1.97804
1.99083
1.99197
1.99744
0.199264
0.19944
0.199375
0.199319
0.199241
0.199145
0.199034
0.198899
0.19875
0.198568
0.198371
0.198174
0.197921
0.19766
0.197402
0.197078
0.196753
0.19645
0.196115
0.195716
0.19536
0.195015
0.19459
0.194134
0.193749
0.193387
0.193099
0.192709
0.192274
0.191831
0.191475
0.191071
0.190535
0.189962
0.189542
0.189213
0.188908
0.188624
0.18834
0.188068
0.187853
0.187788
0.187596
0.187633
0.187391
0.188687
0.188135
0.196973
0.323147
0.815415
0.890176
0.886348
0.878167
0.87367
0.856262
0.855339
0.855468
0.969385
1.01023
1.14666
1.07782
1.10731
0.989454
0.97391
0.961836
0.982559
0.99709
1.04435
1.09594
1.19331
1.28789
1.37387
1.45474
1.53563
1.60562
1.67214
1.71626
1.74424
1.76556
1.78
1.78685
1.78635
1.78403
1.77885
1.77906
1.779
1.77965
1.77822
1.77535
1.76946
1.76253
1.75344
1.7423
1.72706
1.70653
1.68226
1.66318
1.65056
1.64964
1.65858
1.68158
1.71885
1.76039
1.79282
1.81517
1.83256
1.84758
1.86103
1.8743
1.88751
1.90347
1.91981
1.9378
1.95301
1.96521
1.9675
1.98049
1.98157
1.98943
0.199268
0.199443
0.199379
0.199323
0.199243
0.199154
0.199038
0.198901
0.198759
0.198577
0.198376
0.198181
0.197935
0.197662
0.197403
0.197098
0.196757
0.196442
0.196119
0.195725
0.195337
0.194984
0.194581
0.194103
0.193695
0.193306
0.193011
0.192623
0.192148
0.191676
0.19128
0.190947
0.190528
0.189877
0.189366
0.188988
0.188681
0.188409
0.188142
0.18791
0.187691
0.187715
0.187664
0.187774
0.187815
0.188447
0.18779
0.195147
0.528699
0.878392
0.905629
0.897849
0.892935
0.886152
0.876431
0.863962
0.856824
0.886722
0.951313
1.00948
1.13979
1.08807
1.15197
1.03592
1.12931
1.19365
1.27204
1.34397
1.4326
1.51151
1.58892
1.65616
1.69944
1.723
1.74273
1.75545
1.76515
1.77048
1.77379
1.77261
1.77265
1.77305
1.77018
1.76524
1.76829
1.76776
1.76741
1.76583
1.76419
1.76034
1.75471
1.74773
1.73895
1.72742
1.71254
1.69446
1.67987
1.67013
1.66954
1.67656
1.69602
1.72557
1.76162
1.79114
1.8106
1.82556
1.83861
1.85027
1.86252
1.87525
1.89069
1.90731
1.92587
1.94241
1.95492
1.95675
1.97059
1.97024
1.9808
0.199273
0.199447
0.199383
0.199328
0.19925
0.199157
0.199042
0.198911
0.198763
0.198589
0.198384
0.198185
0.197952
0.19767
0.197403
0.197119
0.196764
0.196434
0.196119
0.195749
0.195323
0.194945
0.194558
0.194089
0.193647
0.193242
0.192917
0.192524
0.192006
0.191521
0.191099
0.190782
0.19041
0.189958
0.189268
0.188804
0.188461
0.188181
0.187929
0.187671
0.187403
0.187037
0.186613
0.186042
0.18521
0.183761
0.180973
0.179806
0.656749
0.894453
0.910283
0.902723
0.898179
0.891251
0.881619
0.865999
0.855335
0.857358
0.896335
0.937265
1.20831
1.28136
1.31837
1.33012
1.40602
1.47871
1.54172
1.61245
1.65861
1.68885
1.71494
1.73117
1.74308
1.74887
1.75222
1.75234
1.75396
1.75631
1.75773
1.75818
1.75915
1.7606
1.75852
1.75674
1.75761
1.75662
1.75653
1.75573
1.75534
1.75256
1.74806
1.74249
1.73543
1.72639
1.71581
1.70372
1.69382
1.68718
1.68698
1.69213
1.7084
1.73184
1.76322
1.79013
1.80698
1.8197
1.83078
1.84072
1.85147
1.86341
1.87807
1.89489
1.91378
1.93176
1.94462
1.94563
1.95813
1.95895
1.97294
0.199278
0.199451
0.199387
0.199333
0.199254
0.199162
0.199053
0.198915
0.198767
0.198604
0.198396
0.19819
0.197967
0.197681
0.197407
0.197132
0.196779
0.196434
0.196118
0.195765
0.195317
0.194911
0.194529
0.194091
0.193605
0.193183
0.192826
0.192431
0.191881
0.19136
0.190938
0.190575
0.1903
0.189873
0.189373
0.188672
0.188247
0.187947
0.187724
0.187522
0.187385
0.187219
0.187286
0.1872
0.187909
0.187348
0.191923
0.255376
0.802754
0.922891
0.92206
0.918137
0.913508
0.908696
0.901824
0.894847
0.888241
0.894353
0.971483
1.08208
1.4302
1.53917
1.56374
1.58837
1.6214
1.64139
1.67038
1.68627
1.70219
1.71407
1.72305
1.72799
1.73106
1.73418
1.73986
1.73987
1.74222
1.74361
1.74534
1.74711
1.74767
1.7493
1.74832
1.74766
1.74641
1.74589
1.74574
1.74566
1.74639
1.74517
1.74182
1.73744
1.73174
1.72474
1.71771
1.71024
1.70438
1.70118
1.70184
1.70609
1.71882
1.73803
1.76521
1.7891
1.80404
1.81487
1.82368
1.83197
1.84106
1.85203
1.86582
1.88253
1.90128
1.92045
1.93348
1.93453
1.94604
1.94909
1.96306
0.199283
0.199455
0.199392
0.199337
0.199261
0.199167
0.19906
0.198925
0.198774
0.198617
0.198411
0.198196
0.19798
0.197699
0.197413
0.197138
0.196807
0.196441
0.196111
0.195768
0.195324
0.194892
0.194501
0.194085
0.193575
0.193127
0.192734
0.192336
0.191787
0.191218
0.190785
0.190389
0.190141
0.18978
0.189332
0.188731
0.188074
0.187704
0.187496
0.187324
0.187269
0.187353
0.187755
0.188168
0.189509
0.190393
0.198458
0.438788
0.903842
0.937451
0.926101
0.922637
0.917715
0.914929
0.911966
0.917401
0.924569
0.966517
1.16752
1.40017
1.6498
1.69559
1.67811
1.68005
1.67879
1.68578
1.6878
1.69148
1.69059
1.69464
1.7003
1.70364
1.70746
1.71122
1.71545
1.7178
1.71968
1.72031
1.72399
1.72753
1.73063
1.73381
1.73586
1.73748
1.73609
1.73642
1.73587
1.73663
1.7377
1.73708
1.73493
1.7313
1.72732
1.72309
1.71923
1.71497
1.71222
1.71125
1.71356
1.71731
1.72735
1.74391
1.76715
1.78824
1.80203
1.81083
1.81744
1.82391
1.83124
1.84103
1.85361
1.86984
1.88807
1.90826
1.92169
1.92362
1.93511
1.9389
1.95251
0.199289
0.199459
0.199397
0.199343
0.199267
0.199173
0.199069
0.198935
0.19878
0.198627
0.19843
0.198205
0.197988
0.197725
0.197427
0.197142
0.196835
0.196456
0.196105
0.195764
0.195344
0.194884
0.194475
0.194065
0.193574
0.193082
0.192634
0.192246
0.191734
0.191114
0.190645
0.190237
0.189913
0.189637
0.189211
0.188755
0.188007
0.187411
0.187028
0.18672
0.186406
0.18615
0.185841
0.185507
0.185276
0.184086
0.187807
0.596332
0.927197
0.936633
0.928466
0.928849
0.926812
0.926013
0.926565
0.944094
0.987947
1.08113
1.41674
1.64212
1.74463
1.72148
1.70601
1.69196
1.68443
1.67639
1.6738
1.67131
1.66879
1.66825
1.66828
1.67041
1.6761
1.67882
1.68463
1.69172
1.6963
1.69932
1.70453
1.70915
1.7146
1.71872
1.72208
1.72417
1.7257
1.72554
1.72484
1.72572
1.72697
1.72728
1.7265
1.72428
1.7219
1.72023
1.7194
1.71862
1.71745
1.71823
1.7215
1.72589
1.73474
1.74951
1.76917
1.78774
1.80001
1.80728
1.81196
1.81653
1.82183
1.83011
1.84146
1.85686
1.87439
1.89538
1.90946
1.91273
1.92427
1.92819
1.94132
0.199295
0.199464
0.199403
0.199349
0.199273
0.199181
0.199077
0.198948
0.198791
0.198634
0.19845
0.198219
0.197995
0.197753
0.197445
0.197151
0.196855
0.196486
0.196111
0.195761
0.195365
0.194887
0.194453
0.194052
0.193585
0.193045
0.192568
0.192143
0.191677
0.191075
0.190533
0.190091
0.189686
0.189413
0.189053
0.188576
0.188052
0.187197
0.186534
0.185994
0.18537
0.184725
0.183854
0.183076
0.181014
0.180555
0.195482
0.743667
0.912564
0.925017
0.923601
0.924211
0.926648
0.927615
0.940681
0.989166
1.13856
1.33645
1.64445
1.75116
1.73202
1.70879
1.68925
1.67499
1.66656
1.66086
1.6571
1.65424
1.65114
1.6475
1.64437
1.64503
1.64672
1.64827
1.65139
1.65779
1.6641
1.67002
1.67367
1.6798
1.68718
1.69397
1.70073
1.70679
1.71071
1.71183
1.7127
1.71432
1.71583
1.71688
1.71723
1.71687
1.71627
1.71662
1.71751
1.71871
1.72
1.7223
1.72737
1.73225
1.74049
1.75418
1.77108
1.7872
1.79795
1.80412
1.80682
1.8095
1.81285
1.81933
1.8293
1.84362
1.86046
1.88195
1.89694
1.90176
1.91327
1.91726
1.92984
0.199301
0.199469
0.199409
0.199356
0.199281
0.199192
0.199085
0.198961
0.198806
0.198644
0.19847
0.198239
0.198008
0.197775
0.197476
0.197165
0.196868
0.19653
0.19613
0.195758
0.195378
0.194912
0.194455
0.194041
0.193588
0.193023
0.192516
0.19204
0.191631
0.191101
0.190447
0.189942
0.189506
0.18911
0.188814
0.1884
0.187852
0.187284
0.186339
0.185726
0.185344
0.185201
0.185171
0.186061
0.186078
0.196499
0.37675
0.852462
0.912485
0.913685
0.915805
0.917092
0.922867
0.930081
0.970388
1.06763
1.35802
1.59857
1.74579
1.73411
1.70421
1.68245
1.66632
1.65487
1.64947
1.64531
1.64318
1.6404
1.63837
1.63434
1.63039
1.62638
1.62378
1.62165
1.62315
1.62772
1.63255
1.64136
1.64689
1.65334
1.66185
1.67145
1.68019
1.6867
1.69147
1.69483
1.69744
1.69914
1.70144
1.70393
1.70699
1.70788
1.70863
1.71014
1.71273
1.7157
1.71922
1.72356
1.73
1.73719
1.74468
1.75791
1.77247
1.78628
1.79552
1.80078
1.8018
1.80266
1.80431
1.80848
1.81692
1.83049
1.84658
1.86801
1.88402
1.89049
1.9021
1.90608
1.91805
0.199308
0.199475
0.199415
0.199361
0.199291
0.199203
0.199092
0.198975
0.198824
0.198656
0.198486
0.198266
0.198024
0.197791
0.197518
0.197191
0.196884
0.196566
0.196162
0.195766
0.195388
0.194958
0.194468
0.194028
0.193572
0.193027
0.192479
0.191978
0.191582
0.1911
0.190453
0.189816
0.189314
0.188873
0.188495
0.188149
0.187674
0.187053
0.186376
0.18527
0.184443
0.183459
0.182334
0.180672
0.178164
0.182608
0.5964
0.888851
0.910751
0.910377
0.913715
0.915776
0.929089
0.960391
1.08302
1.30578
1.59291
1.73949
1.73112
1.69764
1.67612
1.65743
1.64455
1.63504
1.63004
1.62615
1.62422
1.62244
1.62162
1.61999
1.61753
1.61368
1.60906
1.60452
1.60408
1.6042
1.60662
1.61316
1.61913
1.62827
1.63444
1.64401
1.6523
1.6615
1.6704
1.67766
1.68226
1.68584
1.68839
1.69146
1.69455
1.69725
1.69981
1.70275
1.70689
1.7117
1.7163
1.7222
1.72981
1.73965
1.74793
1.76009
1.77298
1.78468
1.79255
1.79678
1.79682
1.79586
1.79636
1.79788
1.80511
1.81784
1.83287
1.85382
1.87064
1.87891
1.89074
1.89475
1.90599
0.199316
0.199481
0.199422
0.19937
0.199299
0.199213
0.199103
0.198988
0.198845
0.198673
0.1985
0.1983
0.198051
0.197808
0.197555
0.197231
0.196905
0.196588
0.196216
0.195797
0.195405
0.194996
0.194509
0.194044
0.193586
0.193034
0.192462
0.191956
0.191516
0.191109
0.190528
0.189729
0.189139
0.188635
0.188169
0.187801
0.187375
0.186767
0.186054
0.185
0.183929
0.182918
0.182636
0.180596
0.184104
0.242516
0.765523
0.88776
0.894302
0.896382
0.903546
0.910669
0.946998
1.04293
1.31484
1.56996
1.72639
1.7235
1.68857
1.66767
1.65026
1.63759
1.62914
1.62297
1.61828
1.61351
1.61121
1.60974
1.60915
1.60824
1.6064
1.60384
1.59943
1.59405
1.59056
1.58733
1.5881
1.5917
1.59612
1.6043
1.61127
1.6212
1.62844
1.63836
1.64905
1.65747
1.66399
1.66852
1.67149
1.67667
1.68215
1.68743
1.69113
1.69493
1.69944
1.70468
1.71174
1.71945
1.72789
1.73923
1.74893
1.76133
1.77243
1.78223
1.78875
1.79222
1.79158
1.78891
1.78863
1.78756
1.79361
1.80547
1.81947
1.83949
1.85673
1.86685
1.87897
1.88318
1.8937
0.199324
0.199487
0.19943
0.199379
0.19931
0.199226
0.199117
0.199001
0.198868
0.198694
0.198516
0.198329
0.198085
0.197829
0.19758
0.197292
0.196945
0.196609
0.196265
0.19585
0.195438
0.195031
0.194571
0.194075
0.193616
0.193075
0.192468
0.191948
0.191461
0.191122
0.190581
0.189785
0.18906
0.188491
0.188019
0.187592
0.187303
0.186966
0.186497
0.186052
0.185603
0.185407
0.186192
0.186205
0.195501
0.562539
0.898758
0.907776
0.903713
0.903299
0.916077
0.955939
1.05712
1.31505
1.57459
1.72956
1.72069
1.68522
1.66262
1.64268
1.62844
1.61734
1.6093
1.60451
1.60108
1.59837
1.59702
1.59605
1.59573
1.5952
1.59438
1.59303
1.59019
1.58683
1.58195
1.57606
1.5756
1.57538
1.57763
1.58267
1.58805
1.59678
1.60405
1.61354
1.62338
1.63481
1.64454
1.65146
1.65743
1.66412
1.66965
1.67413
1.67807
1.68324
1.68955
1.69747
1.70547
1.71391
1.72299
1.736
1.74676
1.75959
1.76984
1.77875
1.78416
1.7871
1.78556
1.78145
1.78102
1.77756
1.78274
1.79372
1.80641
1.82513
1.84218
1.85427
1.8668
1.87151
1.88139
0.199332
0.199494
0.199438
0.199389
0.199319
0.199239
0.199133
0.199015
0.198889
0.198716
0.198536
0.198356
0.198128
0.197863
0.197609
0.197343
0.19701
0.196647
0.196293
0.195926
0.195502
0.195078
0.194624
0.194134
0.193675
0.193145
0.192507
0.191967
0.191446
0.191116
0.190618
0.189972
0.189073
0.18841
0.187867
0.187395
0.186895
0.186463
0.185899
0.184948
0.183432
0.181494
0.178401
0.175992
0.187781
0.729071
0.900222
0.915739
0.916787
0.922568
0.947179
1.05229
1.31059
1.57076
1.7258
1.72141
1.68474
1.66233
1.64213
1.62555
1.61267
1.60189
1.59407
1.58917
1.58673
1.58549
1.58449
1.58387
1.58393
1.58371
1.58345
1.58298
1.58142
1.57924
1.57517
1.56927
1.56599
1.56311
1.56327
1.565
1.56804
1.57503
1.58223
1.59225
1.60003
1.61227
1.62327
1.63204
1.63966
1.64635
1.6531
1.66007
1.66697
1.67387
1.68092
1.68801
1.69568
1.7049
1.71613
1.73036
1.74329
1.75642
1.76664
1.77462
1.77922
1.78154
1.77907
1.77407
1.77335
1.76819
1.77206
1.78209
1.79332
1.81077
1.82703
1.84116
1.85439
1.85977
1.86899
0.199342
0.199502
0.199447
0.199399
0.19933
0.199254
0.19915
0.199032
0.19891
0.198745
0.198561
0.198386
0.198171
0.1979
0.197644
0.197398
0.197087
0.196701
0.196338
0.195993
0.195606
0.195158
0.194672
0.194193
0.193767
0.193248
0.192581
0.192013
0.19149
0.191066
0.190682
0.19009
0.189279
0.188457
0.187881
0.187464
0.187177
0.18699
0.187153
0.187467
0.188004
0.189672
0.191047
0.203944
0.505453
0.913942
0.940002
0.937005
0.950328
0.983504
1.08846
1.32336
1.58376
1.72933
1.71873
1.68125
1.65693
1.63522
1.61844
1.60471
1.59452
1.5868
1.58048
1.57633
1.57372
1.57227
1.57146
1.57111
1.57115
1.5713
1.57158
1.57197
1.57147
1.57039
1.5672
1.56259
1.55925
1.55414
1.55172
1.55022
1.55146
1.5554
1.55996
1.56838
1.57624
1.5882
1.59972
1.61249
1.62265
1.63162
1.63956
1.64699
1.65358
1.66015
1.66771
1.67638
1.68572
1.69678
1.70915
1.72379
1.73893
1.75266
1.76261
1.77011
1.77405
1.77557
1.77223
1.7665
1.76519
1.75927
1.76158
1.77056
1.78059
1.79664
1.81167
1.82783
1.84186
1.84791
1.85646
0.199352
0.19951
0.199457
0.199411
0.199342
0.199269
0.19917
0.199051
0.198931
0.198776
0.198593
0.198418
0.198216
0.197946
0.19769
0.197458
0.197162
0.196769
0.196411
0.196072
0.195712
0.195258
0.194758
0.194283
0.193888
0.193388
0.192713
0.192087
0.191551
0.191053
0.190738
0.190185
0.189563
0.188566
0.187882
0.18735
0.186939
0.186492
0.186022
0.185365
0.18452
0.18296
0.18058
0.184095
0.7148
0.952482
0.964195
0.968178
0.996488
1.09485
1.33903
1.58235
1.73477
1.72678
1.68799
1.66216
1.63865
1.61948
1.60428
1.59252
1.58337
1.576
1.57025
1.56625
1.56332
1.56154
1.56067
1.56018
1.55994
1.55984
1.56004
1.56043
1.56035
1.56017
1.55809
1.55513
1.55172
1.54715
1.54221
1.53816
1.53799
1.53821
1.54042
1.54755
1.55468
1.56568
1.5762
1.5905
1.60154
1.61133
1.62008
1.62889
1.63775
1.64668
1.65618
1.66666
1.67661
1.68773
1.70049
1.71543
1.73299
1.74732
1.75757
1.76481
1.76836
1.76927
1.76546
1.75936
1.75739
1.75033
1.75135
1.75896
1.76811
1.78279
1.79635
1.81484
1.82931
1.8358
1.8436
0.199363
0.199519
0.199467
0.199423
0.199356
0.199285
0.19919
0.199073
0.198954
0.19881
0.198629
0.198455
0.198263
0.198001
0.197749
0.197521
0.197239
0.196851
0.196503
0.196179
0.195832
0.195368
0.194869