/*--------------------------------*- C++ -*----------------------------------*\
| =========                 |                                                 |
| \\      /  F ield         | OpenFOAM: The Open Source CFD Toolbox           |
|  \\    /   O peration     | Version:  2.2.x                                 |
|   \\  /    A nd           | Web:      www.OpenFOAM.org                      |
|    \\/     M anipulation  |                                                 |
\*---------------------------------------------------------------------------*/
FoamFile
{
    version     2.0;
    format      ascii;
    class       surfaceScalarField;
    location    "1.15";
    object      phi;
}
// * * * * * * * * * * * * * * * * * * * * * * * * * * * * * * * * * * * * * //

dimensions      [1 0 -1 0 0 0 0];

internalField   nonuniform List<scalar> 
28084
(
0.000746227
0.000742997
0.000740227
0.000737889
0.000735981
0.000734479
0.000733332
0.000732531
0.000732067
0.00073191
0.000732001
0.000732329
0.000732895
0.000733661
0.000734559
0.000735593
0.000736759
0.000737997
0.000739272
0.000740628
0.000742021
0.000743396
0.000744731
0.000746074
0.000747375
0.000748578
0.00074965
0.000750715
0.00075169
0.000752561
0.000753333
0.000753995
0.000754539
0.000754953
0.000755242
0.000755412
0.000755405
0.000755219
0.000754847
0.000754319
0.000753716
0.000752923
0.000751939
0.000750971
0.000749725
0.000758642
0.00076761
0.000777293
0.000787841
0.000793761
0.000776998
0.000786402
0.000812506
0.000845826
0.000883324
0.000917606
0.000948879
0.000977201
0.00100469
0.00102947
0.00105113
0.00107314
0.00109615
0.0011165
0.0011339
0.00115033
0.00116451
0.00117601
0.00118584
0.00119401
0.00120047
0.00120507
0.00120836
0.00121034
0.00121094
0.00121115
0.00121065
0.00120982
0.00120837
0.00120604
0.00120264
0.00119875
0.00119404
0.00118926
0.00118453
0.0011788
0.0011731
0.00116764
0.00116073
0.00115364
0.0011491
0.00114657
0.00114393
0.00114094
0.00113539
0.00113093
0.0011307
0.0011375
0.00113354
0.00112943
0.00108956
0.00101951
0.000942341
0.000873519
0.000815463
0.000769197
0.000732512
0.000702069
0.000675747
0.000652703
0.000631215
0.000608571
0.000581788
0.000548209
0.000503242
0.000443224
0.000358694
0.000220332
3.71183e-06
3.23718e-06
0.000749751
2.77621e-06
0.000748797
2.34064e-06
0.000748276
1.90929e-06
0.000748175
1.50492e-06
0.000748452
1.15145e-06
0.00074909
8.07357e-07
0.000750113
4.67871e-07
0.000751472
1.61872e-07
0.000753087
-8.55424e-08
0.000754955
-3.26531e-07
0.000757112
-5.54475e-07
0.000759493
-7.49319e-07
0.000762011
-8.94505e-07
0.000764674
-1.03249e-06
0.000767497
-1.15424e-06
0.000770422
-1.23295e-06
0.000773384
-1.30063e-06
0.000776391
-1.34303e-06
0.000779405
-1.35488e-06
0.000782434
-1.36178e-06
0.00078545
-1.35381e-06
0.000788394
-1.31695e-06
0.000791249
-1.26299e-06
0.00079405
-1.21363e-06
0.000796752
-1.1541e-06
0.000799301
-1.06454e-06
0.000801665
-9.60619e-07
0.000803957
-8.61102e-07
0.000806104
-7.51307e-07
0.000808092
-6.35393e-07
0.000809925
-5.1762e-07
0.000811593
-3.90022e-07
0.000813084
-2.66357e-07
0.000814393
-1.27376e-07
0.00081552
2.02781e-08
0.000816478
1.65621e-07
0.000817211
3.14473e-07
0.000817692
4.73578e-07
0.000817928
6.25295e-07
0.000818036
7.8218e-07
0.000817953
9.42192e-07
0.000817562
1.09376e-06
0.000817106
1.25219e-06
0.00081656
-9.17254e-06
0.000815601
-9.55366e-06
0.000823934
-9.87175e-06
0.000832383
-1.00782e-05
0.000841572
-9.80469e-06
0.000851455
6.38077e-06
0.000855231
-9.93953e-06
0.000858396
-2.46421e-05
0.000873094
-3.11991e-05
0.000898224
-3.5579e-05
0.000930345
-3.25552e-05
0.000967481
-3.02647e-05
0.00100471
-2.8501e-05
0.0010368
-2.83393e-05
0.00106662
-2.68714e-05
0.00109404
-2.36635e-05
0.00111979
-2.30772e-05
0.0011442
-2.22676e-05
0.00116749
-1.89671e-05
0.00118983
-1.60163e-05
0.00120958
-1.41027e-05
0.00122633
-1.15915e-05
0.00124179
-9.82625e-06
0.00125503
-8.44655e-06
0.00126558
-7.25137e-06
0.00127426
-5.92276e-06
0.00128122
-4.39543e-06
0.00128646
-3.23593e-06
0.00129042
-2.05199e-06
0.00129352
-9.01323e-07
0.00129559
-3.17754e-07
0.00129689
-1.98588e-08
0.00129761
-2.5477e-07
0.00129779
3.75411e-07
0.00129714
1.49719e-06
0.00129556
2.56321e-06
0.00129287
3.21007e-06
0.0012898
4.26188e-06
0.00128598
4.4523e-06
0.00128136
4.37288e-06
0.00127659
5.2662e-06
0.00127135
5.41126e-06
0.00126506
4.91224e-06
0.00125841
6.49286e-06
0.00125198
7.73774e-06
0.00124467
4.58119e-06
0.00123812
2.54496e-06
0.00123155
2.67385e-06
0.00122724
3.15931e-06
0.00122276
5.92994e-06
0.00121676
5.28818e-06
0.00120978
6.1717e-07
0.00120439
-6.53548e-06
0.00120484
4.03306e-06
0.00120546
4.82507e-06
0.00116471
4.01352e-05
0.00108193
7.01669e-05
0.000963567
7.7403e-05
0.00084515
6.88134e-05
0.00075434
5.68087e-05
0.000685983
4.61004e-05
0.00063292
3.75559e-05
0.000591409
3.06653e-05
0.000556902
2.61372e-05
0.000527223
2.34591e-05
0.000500728
2.25816e-05
0.000476943
2.27905e-05
0.00045324
2.61784e-05
0.000428693
3.28025e-05
0.000402324
4.43513e-05
0.000371727
5.96334e-05
0.000332394
8.4109e-05
0.000279181
0.000138021
0.000209591
0.000220067
0.000140615
5.10677e-06
4.19384e-06
0.000754439
3.29925e-06
0.000755741
2.44546e-06
0.000757437
1.63817e-06
0.000759517
8.71351e-07
0.000761983
1.34382e-07
0.000764808
-5.44122e-07
0.000767922
-1.14211e-06
0.000771325
-1.7014e-06
0.000775047
-2.23706e-06
0.000779025
-2.70832e-06
0.000783159
-3.06779e-06
0.000787456
-3.39997e-06
0.000791972
-3.71053e-06
0.000796616
-3.95875e-06
0.000801287
-4.10498e-06
0.000805987
-4.23449e-06
0.000810779
-4.3297e-06
0.000815571
-4.35577e-06
0.000820279
-4.33326e-06
0.000824957
-4.29484e-06
0.000829572
-4.22462e-06
0.000834067
-4.09237e-06
0.00083843
-3.9331e-06
0.000842676
-3.77809e-06
0.000846764
-3.59827e-06
0.000850643
-3.35997e-06
0.000854285
-3.09411e-06
0.000857788
-2.83841e-06
0.000861094
-2.56375e-06
0.000864187
-2.27621e-06
0.000867071
-1.98167e-06
0.000869735
-1.67345e-06
0.000872171
-1.36596e-06
0.000874373
-1.03497e-06
0.000876339
-6.93402e-07
0.000878081
-3.51536e-07
0.00087953
1.10237e-08
0.00088069
3.38496e-07
0.000881607
6.95845e-07
0.000882235
1.11296e-06
0.000882558
1.43598e-06
0.000882789
1.78037e-06
0.00088292
2.15391e-06
0.000882689
-1.78301e-05
0.000881949
-1.85244e-05
0.000889719
-1.91771e-05
0.000897765
-1.95247e-05
0.000906643
-1.8894e-05
0.000916181
-3.50601e-06
0.000921693
-2.35384e-05
0.000924506
-4.82433e-05
0.000934392
-6.18711e-05
0.000957391
-7.15563e-05
0.000987864
-6.92155e-05
0.00102147
-6.22368e-05
0.00105356
-5.92778e-05
0.00108196
-5.69827e-05
0.0011097
-5.35888e-05
0.00113487
-4.83975e-05
0.00115917
-4.61118e-05
0.00118376
-4.31769e-05
0.00120726
-3.65527e-05
0.00122759
-3.08888e-05
0.00124624
-2.70778e-05
0.00125999
-2.22304e-05
0.00127337
-1.86645e-05
0.00128493
-1.57249e-05
0.00129386
-1.31576e-05
0.0013012
-1.0426e-05
0.00130677
-7.81515e-06
0.00131066
-5.6734e-06
0.00131316
-3.60755e-06
0.00131449
-1.85645e-06
0.00131477
-6.50953e-07
0.00131398
6.43125e-08
0.00131272
-1.80818e-07
0.00131056
1.3238e-06
0.00130782
3.80727e-06
0.0013044
5.27205e-06
0.00130017
6.78083e-06
0.00129513
8.81324e-06
0.00128978
9.27392e-06
0.00128406
9.5084e-06
0.00127758
1.11935e-05
0.00127117
1.19249e-05
0.00126441
1.11525e-05
0.00125735
1.35119e-05
0.00125057
1.46203e-05
0.00124374
1.13946e-05
0.00123701
6.85582e-06
0.00123036
6.99556e-06
0.00122613
9.06334e-06
0.00122166
1.33166e-05
0.00121463
1.15262e-05
0.00120619
6.25132e-07
0.00120011
-6.54593e-06
0.0012
4.49449e-05
0.00116182
8.79209e-05
0.00106976
0.000158375
0.00092636
0.000188023
0.000798118
0.000168399
0.000696627
0.000136661
0.000610511
0.000109212
0.000537025
8.76568e-05
0.000476253
7.19914e-05
0.000426333
6.04001e-05
0.000383677
5.30786e-05
0.000346999
4.7733e-05
0.000314489
4.63331e-05
0.000286038
4.71114e-05
0.000259727
5.22103e-05
0.000235879
6.30425e-05
0.00021269
8.3462e-05
0.000190543
0.000112699
0.000166716
0.000153334
0.000137258
0.000206625
9.83759e-05
0.000360396
6.20885e-05
4.22516e-06
2.8953e-06
0.000760315
1.60828e-06
0.000763831
3.69492e-07
0.000767728
-8.24183e-07
0.00077199
-1.94911e-06
0.000776578
-2.97566e-06
0.000781479
-3.94065e-06
0.000786721
-4.85927e-06
0.00079225
-5.67321e-06
0.00079798
-6.36424e-06
0.00080391
-7.00202e-06
0.000810083
-7.57614e-06
0.000816416
-8.03247e-06
0.000822805
-8.37226e-06
0.000829266
-8.6582e-06
0.00083584
-8.88618e-06
0.000842442
-9.01643e-06
0.000848962
-9.04827e-06
0.000855419
-9.02976e-06
0.000861849
-8.92007e-06
0.000868165
-8.77866e-06
0.000874364
-8.59163e-06
0.000880411
-8.30892e-06
0.000886274
-7.99331e-06
0.000891953
-7.67302e-06
0.000897398
-7.31201e-06
0.000902589
-6.87315e-06
0.000907497
-6.39001e-06
0.000912187
-5.91957e-06
0.000916627
-5.42049e-06
0.00092081
-4.90654e-06
0.000924731
-4.3826e-06
0.000928381
-3.84115e-06
0.000931746
-3.29668e-06
0.000934825
-2.73059e-06
0.000937619
-2.14213e-06
0.000940139
-1.55479e-06
0.000942285
-9.48719e-07
0.000944108
-3.40075e-07
0.000945647
2.43987e-07
0.000946875
8.40164e-07
0.000947674
1.452e-06
0.000948302
2.07373e-06
0.000948896
2.67448e-06
0.00094902
-2.60089e-05
0.000948555
-2.70453e-05
0.000955637
-2.79806e-05
0.000963195
-2.85606e-05
0.000971839
-3.01316e-05
0.000980382
-1.36983e-05
0.000979006
-3.26284e-05
0.000963502
-6.9983e-05
0.000972378
-9.11403e-05
0.000995859
-0.00010397
0.00103052
-0.000101648
0.00106705
-9.20557e-05
0.00110428
-8.88366e-05
0.00113889
-8.39744e-05
0.00117187
-7.90764e-05
0.00120213
-7.31507e-05
0.0012305
-6.91543e-05
0.00125505
-6.20332e-05
0.00127969
-5.25599e-05
0.00129939
-4.28653e-05
0.00131274
-3.91807e-05
0.00132733
-3.19277e-05
0.00133961
-2.63154e-05
0.00134843
-2.17934e-05
0.00135543
-1.80002e-05
0.00136013
-1.3908e-05
0.00136322
-1.00796e-05
0.00136506
-6.60128e-06
0.00136576
-3.68941e-06
0.00136557
-9.32056e-07
0.00136449
9.96201e-07
0.00136249
2.20044e-06
0.00136006
2.05673e-06
0.00135646
3.94811e-06
0.00135268
7.35572e-06
0.0013483
9.40718e-06
0.0013427
1.12662e-05
0.0013367
1.38901e-05
0.00133015
1.55196e-05
0.00132292
1.55079e-05
0.00131557
1.74125e-05
0.00130761
1.87698e-05
0.00129955
1.76734e-05
0.00129115
2.00769e-05
0.0012828
2.14111e-05
0.00127488
1.858e-05
0.00126698
1.11618e-05
0.00125972
1.1147e-05
0.00125474
1.63508e-05
0.00125004
2.30826e-05
0.00124486
1.93066e-05
0.00123304
2.24941e-06
0.00122569
3.29655e-05
0.00117511
0.000138183
0.00102783
0.000232133
0.000845471
0.000287014
0.000715836
0.00028955
0.000629938
0.000253665
0.000567101
0.000208768
0.000509913
0.000169222
0.000451447
0.00013757
0.000394052
0.000114417
0.000341109
9.70997e-05
0.000293471
8.55742e-05
0.000251766
7.61696e-05
0.000214967
7.25386e-05
0.000183215
7.08003e-05
0.000155158
7.538e-05
0.000131469
8.52863e-05
0.000109671
0.000107086
9.17857e-05
0.000141783
7.6627e-05
0.000191586
6.40675e-05
0.000242112
4.599e-05
0.000422132
2.89924e-05
1.09363e-06
-6.15233e-07
0.000767366
-2.28363e-06
0.000773068
-3.888e-06
0.000779111
-5.40812e-06
0.000785488
-6.84758e-06
0.000792203
-8.21314e-06
0.00079923
-9.46344e-06
0.000806502
-1.0583e-05
0.000814016
-1.15979e-05
0.000821801
-1.25319e-05
0.000829788
-1.33319e-05
0.000837877
-1.39621e-05
0.000846069
-1.44823e-05
0.000854416
-1.49371e-05
0.000862823
-1.52532e-05
0.000871181
-1.53972e-05
0.000879492
-1.54662e-05
0.000887808
-1.54822e-05
0.000896035
-1.535e-05
0.000904098
-1.50941e-05
0.000912008
-1.48035e-05
0.000919763
-1.44386e-05
0.000927319
-1.39637e-05
0.000934649
-1.34267e-05
0.000941711
-1.28709e-05
0.000948486
-1.22786e-05
0.000954984
-1.16001e-05
0.000961179
-1.08287e-05
0.000967019
-1.00847e-05
0.000972596
-9.30906e-06
0.000977862
-8.51439e-06
0.000982809
-7.70735e-06
0.000987432
-6.88157e-06
0.000991718
-6.0491e-06
0.000995668
-5.20537e-06
0.000999301
-4.30769e-06
0.00100253
-3.42831e-06
0.00100538
-2.52728e-06
0.00100781
-1.60276e-06
0.00100992
-7.1035e-07
0.00101182
1.50828e-07
0.00101332
1.05082e-06
0.00101437
1.97049e-06
0.00101529
2.83922e-06
0.00101574
-3.36398e-05
0.00101544
-3.49749e-05
0.00102184
-3.61208e-05
0.00102912
-3.68571e-05
0.00103752
-3.65653e-05
0.00104573
-7.34302e-06
0.00104281
-4.02241e-05
0.0010117
-9.1993e-05
0.00101951
-0.000124712
0.00104918
-0.000139445
0.00108653
-0.000139021
0.00112486
-0.00012797
0.00116309
-0.000123673
0.00119988
-0.000115291
0.0012362
-0.000107949
0.00126948
-9.73215e-05
0.00129976
-9.20249e-05
0.00132508
-7.99047e-05
0.00135134
-6.50368e-05
0.00137076
-5.70589e-05
0.00137989
-5.05529e-05
0.00139301
-3.93915e-05
0.00140402
-3.25116e-05
0.00140938
-2.62885e-05
0.00141341
-2.10431e-05
0.00141623
-1.58109e-05
0.00141806
-1.0751e-05
0.00141929
-5.92815e-06
0.00141971
-2.09759e-06
0.00141843
1.2759e-06
0.00141663
3.552e-06
0.00141419
5.90786e-06
0.0014116
5.40278e-06
0.00140778
7.69056e-06
0.00140182
1.24188e-05
0.00139685
1.46577e-05
0.00139136
1.68108e-05
0.00138453
2.03367e-05
0.00137742
2.24063e-05
0.00136968
2.27734e-05
0.00136127
2.48167e-05
0.00135236
2.6881e-05
0.00134321
2.53081e-05
0.00133363
2.74394e-05
0.00132455
2.90859e-05
0.00131555
2.62484e-05
0.00130578
1.58375e-05
0.00129729
1.64853e-05
0.00129117
2.22733e-05
0.00128743
3.60285e-05
0.0012713
2.88599e-05
0.00126392
5.45384e-05
0.00122355
0.000181827
0.00105767
0.00032125
0.000845707
0.000361849
0.000702623
0.00037359
0.000599292
0.000352788
0.00053343
0.000310455
0.000488862
0.000266783
0.000447151
0.000226556
0.000402539
0.000190056
0.000353669
0.0001615
0.000302701
0.000138461
0.000255178
0.000122132
0.000212537
0.000107998
0.000174298
0.000100692
0.000140949
9.46706e-05
0.000111646
9.71849e-05
8.69866e-05
0.000102904
6.46827e-05
0.000121881
4.75962e-05
0.000153966
3.48582e-05
0.000209182
2.70944e-05
0.000258523
2.00561e-05
0.000450754
1.38342e-05
-4.24591e-06
-6.31272e-06
0.000775608
-8.32124e-06
0.000783445
-1.02614e-05
0.00079161
-1.21191e-05
0.000800096
-1.38702e-05
0.000808864
-1.54816e-05
0.000817901
-1.69715e-05
0.000827233
-1.83609e-05
0.000836809
-1.95801e-05
0.00084654
-2.06142e-05
0.000856418
-2.15178e-05
0.000866482
-2.23026e-05
0.000876652
-2.28789e-05
0.000886821
-2.32823e-05
0.000896989
-2.35558e-05
0.000907186
-2.37089e-05
0.000917337
-2.36887e-05
0.000927339
-2.35433e-05
0.000937208
-2.32647e-05
0.000946929
-2.28324e-05
0.000956423
-2.2334e-05
0.000965702
-2.17372e-05
0.00097475
-2.10098e-05
0.000983532
-2.02096e-05
0.000991975
-1.93752e-05
0.00100006
-1.84871e-05
0.00100785
-1.74994e-05
0.00101528
-1.64227e-05
0.00102229
-1.53344e-05
0.00102893
-1.42214e-05
0.00103525
-1.30861e-05
0.00104122
-1.19418e-05
0.00104682
-1.07834e-05
0.00105202
-9.61999e-06
0.00105687
-8.41698e-06
0.00106125
-7.19624e-06
0.00106521
-5.95717e-06
0.00106876
-4.72113e-06
0.00107191
-3.49717e-06
0.0010746
-2.23364e-06
0.0010768
-9.72996e-07
0.00107882
2.56227e-07
0.00108059
1.46358e-06
0.0010818
2.72292e-06
0.0010824
-4.07223e-05
0.00108237
-4.23002e-05
0.00108872
-4.35404e-05
0.00109587
-4.46229e-05
0.00110368
-4.20886e-05
0.0011111
1.43744e-05
0.00111177
-4.69322e-05
0.00108218
-0.000119928
0.00109227
-0.000162156
0.00112933
-0.000179097
0.00116694
-0.000177991
0.00120597
-0.000164637
0.00124563
-0.000160917
0.00128376
-0.000148513
0.00132297
-0.000136912
0.00135779
-0.000121286
0.00138914
-0.000113655
0.00141733
-9.67582e-05
0.00143888
-7.48641e-05
0.00145341
-6.99454e-05
0.00146954
-6.04902e-05
0.00148188
-4.43449e-05
0.0014917
-3.70412e-05
0.00149902
-2.93515e-05
0.00150625
-2.24231e-05
0.00150889
-1.64725e-05
0.00150916
-1.04565e-05
0.00150915
-3.74424e-06
0.00150963
4.29324e-07
0.00150888
4.4732e-06
0.0015072
7.16328e-06
0.00150497
1.1102e-05
0.00150175
1.22989e-05
0.00149888
1.33855e-05
0.00149322
1.84892e-05
0.00148728
2.1655e-05
0.00148091
2.36289e-05
0.00147266
2.76656e-05
0.00146387
3.0353e-05
0.00145472
3.10611e-05
0.00144498
3.35258e-05
0.00143395
3.62764e-05
0.00142305
3.39104e-05
0.00141108
3.59223e-05
0.00139962
3.8446e-05
0.00138832
3.51069e-05
0.00137658
2.1596e-05
0.00136701
2.04877e-05
0.00135834
3.83312e-05
0.00134941
4.48422e-05
0.00133362
7.3242e-05
0.00131603
0.00022302
0.00116385
0.000395426
0.000941485
0.000463967
0.000764048
0.000464997
0.000631396
0.000439771
0.000540865
0.000397932
0.000484097
0.000352009
0.000444616
0.000311307
0.00040988
0.000275474
0.000375162
0.000240544
0.000337831
0.000208685
0.000296796
0.000180893
0.000250947
0.000160223
0.000206323
0.000141535
0.000166272
0.000130286
0.000131495
0.000119672
0.000101278
0.00011934
7.60669e-05
0.000119643
5.43735e-05
0.000134324
3.77676e-05
0.00016158
2.57731e-05
0.000216076
1.80154e-05
0.000264678
1.37775e-05
0.000464362
9.6852e-06
-1.17576e-05
-1.41468e-05
0.000785032
-1.64822e-05
0.000794972
-1.87424e-05
0.000805209
-2.08812e-05
0.00081573
-2.29024e-05
0.00082654
-2.48081e-05
0.000837625
-2.65405e-05
0.000848923
-2.80842e-05
0.000860423
-2.94533e-05
0.000872119
-3.06747e-05
0.000883975
-3.16799e-05
0.000895901
-3.24685e-05
0.00090788
-3.30425e-05
0.000919908
-3.3462e-05
0.000931918
-3.36941e-05
0.000943891
-3.37164e-05
0.000955737
-3.35504e-05
0.000967422
-3.32532e-05
0.00097895
-3.27751e-05
0.000990273
-3.21123e-05
0.00100132
-3.13459e-05
0.00101209
-3.04621e-05
0.0010226
-2.944e-05
0.0010328
-2.83272e-05
0.00104259
-2.71542e-05
0.00105198
-2.59107e-05
0.00106103
-2.45704e-05
0.00106966
-2.31302e-05
0.00107784
-2.16321e-05
0.00108551
-2.01391e-05
0.00109286
-1.86065e-05
0.00109981
-1.70716e-05
0.00110635
-1.5528e-05
0.00111245
-1.39452e-05
0.00111812
-1.23861e-05
0.00112338
-1.07896e-05
0.00112808
-9.17414e-06
0.00113234
-7.52472e-06
0.0011361
-5.8734e-06
0.00113938
-4.28022e-06
0.00114223
-2.66827e-06
0.00114457
-1.01638e-06
0.00114638
6.00618e-07
0.00114786
2.20042e-06
0.00114913
-4.7448e-05
0.00114982
-4.91744e-05
0.00115541
-5.04475e-05
0.00116145
-5.20648e-05
0.00116797
-5.02153e-05
0.00117464
3.68733e-05
0.0011779
-5.72039e-05
0.00112482
-0.000157072
0.00114262
-0.000201639
0.00119179
-0.000220544
0.00123479
-0.000218176
0.00128603
-0.000201384
0.00133813
-0.000199425
0.00138531
-0.000183425
0.00143793
-0.000166195
0.00148705
-0.000147675
0.00153041
-0.000133412
0.00156577
-0.000110268
0.00159491
-9.09962e-05
0.00160904
-8.15172e-05
0.00162731
-6.84467e-05
0.00164568
-5.13138e-05
0.00165202
-4.29551e-05
0.00166526
-3.20067e-05
0.00167262
-2.3801e-05
0.00167328
-1.71875e-05
0.00167388
-1.08851e-05
0.00167364
-1.70635e-06
0.0016727
3.35065e-06
0.00167009
8.10898e-06
0.00166656
1.11984e-05
0.00166205
1.55983e-05
0.00165478
2.02518e-05
0.00164776
2.06905e-05
0.00164073
2.61445e-05
0.00163151
3.09485e-05
0.00162218
3.27668e-05
0.00161196
3.7031e-05
0.00160064
4.03388e-05
0.00158847
4.17826e-05
0.00157547
4.41553e-05
0.00156152
4.84302e-05
0.00154665
4.53858e-05
0.00152991
4.69745e-05
0.00151433
5.01311e-05
0.00149842
4.55005e-05
0.00148228
3.08618e-05
0.00146742
3.0504e-05
0.00145101
5.40356e-05
0.00144058
6.50433e-05
0.00142949
0.000228973
0.00129389
0.000448952
0.00103315
0.000575077
0.00086823
0.000597412
0.000750983
0.000555412
0.000648773
0.000496381
0.000553318
0.000437915
0.000477259
0.000387092
0.000429372
0.000346403
0.000394962
0.00031291
0.000364373
0.000281191
0.000332381
0.000254285
0.000298344
0.000225322
0.000262102
0.000200183
0.000223224
0.000176641
0.000183066
0.000161143
0.000147175
0.000145187
0.000114597
0.000140847
8.64184e-05
0.000135942
6.24542e-05
0.00014613
4.29428e-05
0.000169276
2.82496e-05
0.000220247
1.76577e-05
0.00026893
1.25203e-05
0.000474254
8.62338e-06
-2.13892e-05
-2.40787e-05
0.000795659
-2.67142e-05
0.000807643
-2.92616e-05
0.000819906
-3.16883e-05
0.00083244
-3.39831e-05
0.000845241
-3.61017e-05
0.000858266
-3.80335e-05
0.000871515
-3.97715e-05
0.000884955
-4.13029e-05
0.000898563
-4.25968e-05
0.000912271
-4.36499e-05
0.000926055
-4.44953e-05
0.000939894
-4.50515e-05
0.000953705
-4.54027e-05
0.000967464
-4.55227e-05
0.000981157
-4.54165e-05
0.000994722
-4.50739e-05
0.00100805
-4.45551e-05
0.00102118
-4.38321e-05
0.00103408
-4.29063e-05
0.00104667
-4.18204e-05
0.00105889
-4.0593e-05
0.00107083
-3.92294e-05
0.00108241
-3.7756e-05
0.00109354
-3.61811e-05
0.0011042
-3.45191e-05
0.00111448
-3.2775e-05
0.0011243
-3.09248e-05
0.00113361
-2.89725e-05
0.0011423
-2.70365e-05
0.00115064
-2.50677e-05
0.00115855
-2.30849e-05
0.001166
-2.11001e-05
0.00117298
-1.90912e-05
0.00117946
-1.70712e-05
0.00118549
-1.50613e-05
0.00119102
-1.30115e-05
0.00119596
-1.09475e-05
0.00120037
-8.89166e-06
0.00120426
-6.80241e-06
0.00120758
-4.68682e-06
0.0012103
-2.64924e-06
0.00121273
-6.54836e-07
0.00121488
1.41922e-06
0.00121658
-5.33421e-05
0.00121792
-5.52337e-05
0.00122367
-5.64728e-05
0.00122961
-5.86694e-05
0.00123572
-5.76685e-05
0.00124194
7.80388e-05
0.00124688
-7.6834e-05
0.00117421
-0.000209107
0.00120734
-0.000247437
0.00130064
-0.000272014
0.00139767
-0.000270284
0.0014989
-0.000248121
0.00157927
-0.000250021
0.00164246
-0.00023096
0.00169534
-0.000207154
0.00173437
-0.000181753
0.00176783
-0.000161618
0.00179186
-0.000125151
0.00181117
-0.000108146
0.0018192
-9.51683e-05
0.00182641
-7.02556e-05
0.00183403
-6.38158e-05
0.00183916
-5.03101e-05
0.0018384
-3.29622e-05
0.00183963
-2.43373e-05
0.00183944
-1.70536e-05
0.00183829
-1.00417e-05
0.00183571
1.24681e-06
0.00183235
6.9545e-06
0.00182909
1.28774e-05
0.00182294
1.87465e-05
0.00181491
2.33523e-05
0.00180721
2.88417e-05
0.00179701
3.15775e-05
0.00178743
3.6962e-05
0.00177754
4.24807e-05
0.00176586
4.50044e-05
0.00175528
5.0165e-05
0.00174251
5.45013e-05
0.00172753
5.63218e-05
0.00171285
5.94397e-05
0.00169696
6.58554e-05
0.00167964
6.08222e-05
0.00166215
6.25922e-05
0.00164373
6.63926e-05
0.00162393
6.10878e-05
0.0016076
4.80299e-05
0.00159164
4.23322e-05
0.00158054
6.64577e-05
0.00155336
0.000203206
0.00142097
0.00049227
0.00117973
0.000616005
0.000972269
0.000694212
0.000804323
0.000700838
0.000700914
0.000651074
0.000626908
0.000572
0.000558431
0.00048587
0.000493165
0.000422161
0.000441982
0.000377889
0.000401639
0.000345087
0.00036941
0.00031497
0.00033934
0.000290402
0.000308987
0.000264099
0.000277273
0.000240327
0.000243901
0.000212928
0.000208001
0.000194473
0.000170137
0.000173596
0.000132429
0.000164672
0.000100309
0.000155233
7.33204e-05
0.000160745
5.06027e-05
0.000179876
3.35403e-05
0.000225399
2.0356e-05
0.000272989
1.44441e-05
0.000483309
9.56191e-06
-3.30959e-05
-3.60594e-05
0.000807491
-3.89714e-05
0.000821471
-4.17895e-05
0.000835709
-4.44849e-05
0.000850203
-4.70056e-05
0.000864924
-4.93466e-05
0.000879874
-5.14695e-05
0.000895023
-5.33686e-05
0.000910352
-5.50045e-05
0.000925805
-5.63792e-05
0.000941349
-5.74753e-05
0.000956944
-5.83004e-05
0.000972568
-5.8823e-05
0.000988139
-5.90674e-05
0.00100361
-5.9054e-05
0.001019
-5.87658e-05
0.00103422
-5.82103e-05
0.00104916
-5.74239e-05
0.00106387
-5.64155e-05
0.0010783
-5.51761e-05
0.00109238
-5.37218e-05
0.00110604
-5.21013e-05
0.00111937
-5.0348e-05
0.00113229
-4.84597e-05
0.00114472
-4.64346e-05
0.00115663
-4.42999e-05
0.00116811
-4.2093e-05
0.00117908
-3.97836e-05
0.00118948
-3.73445e-05
0.00119923
-3.48909e-05
0.00120849
-3.24352e-05
0.00121734
-2.99626e-05
0.0012257
-2.74759e-05
0.00123352
-2.49869e-05
0.00124081
-2.2491e-05
0.00124757
-1.99848e-05
0.00125384
-1.74868e-05
0.00125957
-1.49677e-05
0.00126462
-1.24334e-05
0.00126904
-9.91887e-06
0.00127289
-7.35951e-06
0.001276
-4.89587e-06
0.00127845
-2.42186e-06
0.00128074
2.79468e-08
0.00128259
-5.91032e-05
0.001284
-6.12515e-05
0.00128915
-6.26338e-05
0.00129412
-6.49793e-05
0.00129935
-6.31205e-05
0.00130308
0.000130643
0.0013091
-0.000110672
0.00142854
-0.000301944
0.00159092
-0.000345993
0.00169142
-0.000370924
0.001771
-0.000348178
0.0018168
-0.000310124
0.00185211
-0.000300556
0.00188172
-0.000268594
0.00190318
-0.000239198
0.00191128
-0.000205158
0.00192995
-0.000178935
0.0019427
-0.000136186
0.00194504
-0.000110921
0.00194352
-9.87238e-05
0.00195573
-7.43217e-05
0.00194762
-6.10774e-05
0.00194521
-5.13784e-05
0.00194301
-3.31945e-05
0.00193481
-2.32842e-05
0.00193244
-1.53537e-05
0.00192902
-7.45833e-06
0.00192388
4.87445e-06
0.00191747
1.25403e-05
0.00191239
2.01661e-05
0.00190629
2.63852e-05
0.00189838
3.2851e-05
0.00188921
3.90091e-05
0.00187788
4.26393e-05
0.00186618
4.97039e-05
0.0018544
5.45518e-05
0.0018427
5.92807e-05
0.00183101
6.601e-05
0.00181857
6.99708e-05
0.00180435
7.26514e-05
0.00178927
7.69147e-05
0.00177212
8.35456e-05
0.00175311
7.91664e-05
0.00173524
8.21938e-05
0.00171854
8.27315e-05
0.00170208
7.77503e-05
0.00168974
6.02067e-05
0.00166208
7.31853e-05
0.00161251
0.0001989
0.0014569
0.000446677
0.0011907
0.000699762
0.000980853
0.000784997
0.000887932
0.000799012
0.000798706
0.000776046
0.000703708
0.000720125
0.00061813
0.000637237
0.000542854
0.000537076
0.000482479
0.000463132
0.000433551
0.000411303
0.000396441
0.000375491
0.000366245
0.000345268
0.00033801
0.00032217
0.000309656
0.000297471
0.000280558
0.000276304
0.00025032
0.000251196
0.000217853
0.000232961
0.000182726
0.000205944
0.000146703
0.000191643
0.000112111
0.000177784
8.28805e-05
0.000177789
5.90725e-05
0.000193156
4.07337e-05
0.000231482
2.61572e-05
0.00027801
1.76944e-05
0.000493386
1.07998e-05
-4.6821e-05
-5.00353e-05
0.000820541
-5.32049e-05
0.00083646
-5.62783e-05
0.000852616
-5.92016e-05
0.000869001
-6.19515e-05
0.000885613
-6.44892e-05
0.00090243
-6.67915e-05
0.000919436
-6.88121e-05
0.000936577
-7.05443e-05
0.000953837
-7.19735e-05
0.000971179
-7.30802e-05
0.000988537
-7.38656e-05
0.0010059
-7.43107e-05
0.00102318
-7.4424e-05
0.00104032
-7.42348e-05
0.00105735
-7.37317e-05
0.00107419
-7.2919e-05
0.00109072
-7.18263e-05
0.00110695
-7.0484e-05
0.00112288
-6.88838e-05
0.00113841
-6.70186e-05
0.00115347
-6.49639e-05
0.00116815
-6.27632e-05
0.00118237
-6.04083e-05
0.00119606
-5.78794e-05
0.00120921
-5.52311e-05
0.00122186
-5.24947e-05
0.00123393
-4.96726e-05
0.00124539
-4.67267e-05
0.00125621
-4.3692e-05
0.00126633
-4.06918e-05
0.00127606
-3.76826e-05
0.00128527
-3.46565e-05
0.00129392
-3.16254e-05
0.00130201
-2.85919e-05
0.00130951
-2.55622e-05
0.00131648
-2.25375e-05
0.00132301
-1.95223e-05
0.00132878
-1.64796e-05
0.0013338
-1.34559e-05
0.00133817
-1.03902e-05
0.0013419
-7.30834e-06
0.00134479
-4.32167e-06
0.00134774
-1.28932e-06
0.0013505
-6.40377e-05
0.00135298
-6.6025e-05
0.0013583
-6.78481e-05
0.00136399
-6.89235e-05
0.00137046
-6.93681e-05
0.0013765
-8.46156e-06
0.00139017
-0.000276167
0.00171733
-0.000397336
0.00196782
-0.000423675
0.0020083
-0.000412763
0.00200773
-0.000379963
0.00200586
-0.00033989
0.00200601
-0.000324127
0.00202002
-0.000278238
0.00202026
-0.000255832
0.00202138
-0.000214542
0.00202513
-0.00017764
0.00201843
-0.000147425
0.00203018
-0.000114787
0.00201796
-8.77186e-05
0.00200684
-7.37867e-05
0.00201061
-5.78505e-05
0.00200134
-4.4816e-05
0.00198755
-3.26551e-05
0.00198421
-2.10945e-05
0.00198194
-1.25174e-05
0.00197754
-3.52815e-06
0.00197246
8.91805e-06
0.0019654
1.74053e-05
0.00195936
2.69057e-05
0.00195096
3.53702e-05
0.00194039
4.30462e-05
0.00192927
5.02189e-05
0.00191658
5.45967e-05
0.00190538
6.261e-05
0.00189389
6.77867e-05
0.00188136
7.23236e-05
0.00186834
8.11346e-05
0.00185527
8.58407e-05
0.00183976
8.98406e-05
0.00182524
9.5867e-05
0.00181013
0.000101577
0.00179502
9.57352e-05
0.00177992
9.87634e-05
0.00175979
9.59157e-05
0.00173721
0.000107087
0.00167809
0.000112289
0.0015778
0.00023193
0.00137802
0.000466532
0.00112368
0.000657129
0.000947529
0.000793687
0.000814994
0.000875334
0.000744985
0.000895342
0.0006999
0.000862546
0.000664007
0.000795883
0.000615268
0.000697662
0.00055782
0.000586013
0.000494225
0.000500885
0.000441518
0.000442973
0.000402858
0.000404244
0.000372069
0.000373917
0.000343956
0.000351575
0.000316101
0.000327806
0.000287768
0.000308887
0.000258511
0.000286735
0.000227434
0.000269705
0.000194291
0.000240767
0.000160779
0.000220907
0.000124849
0.000201469
9.40774e-05
0.000196223
6.92164e-05
0.000208064
4.93458e-05
0.000240312
3.3318e-05
0.000285048
2.16604e-05
0.000504781
1.25417e-05
-6.25063e-05
-6.59497e-05
0.000834821
-6.93564e-05
0.000852618
-7.26593e-05
0.000870632
-7.581e-05
0.000888861
-7.87634e-05
0.000907298
-8.14895e-05
0.000925922
-8.39271e-05
0.00094471
-8.60618e-05
0.000963637
-8.78781e-05
0.000982665
-8.93319e-05
0.00100173
-9.04193e-05
0.0010208
-9.11376e-05
0.00103983
-9.14809e-05
0.00105879
-9.14265e-05
0.00107756
-9.10227e-05
0.00109618
-9.02712e-05
0.00111458
-8.91629e-05
0.00113265
-8.77214e-05
0.00115035
-8.60036e-05
0.00116773
-8.39903e-05
0.00118469
-8.16784e-05
0.00120111
-7.91421e-05
0.00121708
-7.64396e-05
0.00123256
-7.35631e-05
0.00124749
-7.04878e-05
0.00126185
-6.72805e-05
0.00127562
-6.39583e-05
0.00128878
-6.05641e-05
0.00130127
-5.70481e-05
0.00131307
-5.34152e-05
0.00132405
-4.98109e-05
0.00133461
-4.62089e-05
0.00134466
-4.26077e-05
0.00135411
-3.89859e-05
0.00136295
-3.53742e-05
0.00137119
-3.17788e-05
0.00137882
-2.81806e-05
0.00138591
-2.46352e-05
0.00139252
-2.10766e-05
0.00139824
-1.75422e-05
0.00140313
-1.40158e-05
0.00140727
-1.0527e-05
0.00141055
-7.07286e-06
0.00141292
-3.71605e-06
0.00141566
-6.92933e-05
0.00141793
-7.16409e-05
0.00142197
-7.42463e-05
0.00142585
-7.48587e-05
0.00142973
-8.30976e-05
0.00143401
-0.000340411
0.00146023
-0.000537219
0.00169191
-0.000435187
0.00182299
-0.000420825
0.00194827
-0.00041156
0.00199307
-0.000379851
0.00201039
-0.000352474
0.00201182
-0.000325709
0.0020228
-0.000282694
0.0020274
-0.000255503
0.00203775
-0.000213753
0.00204209
-0.000180074
0.00204021
-0.000140033
0.00204891
-0.000113588
0.00203918
-8.10889e-05
0.00202968
-6.33357e-05
0.00202639
-5.35433e-05
0.00201705
-3.9953e-05
0.0020111
-2.81623e-05
0.00200666
-1.72617e-05
0.00200174
-8.58022e-06
0.00199409
1.19449e-06
0.00198694
1.31602e-05
0.00197871
2.34247e-05
0.00197145
3.47856e-05
0.00196376
4.43585e-05
0.00195359
5.31198e-05
0.0019418
6.02286e-05
0.00192903
6.6065e-05
0.00191592
7.52672e-05
0.00190396
8.13365e-05
0.00189112
8.64329e-05
0.0018798
9.70825e-05
0.00186866
0.000100914
0.00185634
0.000105399
0.00184229
0.000111458
0.00182842
0.000118042
0.00180687
0.000115555
0.00176717
0.000123854
0.00168836
0.000157461
0.00156261
0.000209482
0.0013914
0.000314662
0.00116607
0.000486992
0.000961875
0.000642924
0.000816424
0.000789122
0.000727494
0.000863208
0.00067836
0.000920891
0.000642444
0.000931538
0.000618824
0.000911358
0.000593403
0.000853368
0.000562708
0.000761166
0.000522684