/*--------------------------------*- C++ -*----------------------------------*\
| =========                 |                                                 |
| \\      /  F ield         | OpenFOAM: The Open Source CFD Toolbox           |
|  \\    /   O peration     | Version:  2.2.x                                 |
|   \\  /    A nd           | Web:      www.OpenFOAM.org                      |
|    \\/     M anipulation  |                                                 |
\*---------------------------------------------------------------------------*/
FoamFile
{
    version     2.0;
    format      ascii;
    class       volVectorField;
    location    "1.15";
    object      U;
}
// * * * * * * * * * * * * * * * * * * * * * * * * * * * * * * * * * * * * * //

dimensions      [0 1 -1 0 0 0 0];

internalField   nonuniform List<vector> 
14161
(
(1.50098 -2.99373e-07 -1.45569e-22)
(1.50079 4.89213e-07 2.09249e-22)
(1.50086 3.92523e-07 1.29393e-21)
(1.50093 1.83121e-06 1.43612e-21)
(1.50103 -1.75949e-06 2.16823e-21)
(1.50117 -4.79265e-06 3.36174e-21)
(1.50131 1.39545e-06 5.14546e-21)
(1.50148 4.28759e-06 5.71067e-21)
(1.50168 -5.33621e-07 6.92985e-21)
(1.50193 -4.43602e-06 7.18868e-21)
(1.50218 2.54284e-06 7.19967e-21)
(1.50246 3.58579e-06 8.05212e-21)
(1.50279 2.83139e-07 8.61834e-21)
(1.50315 -2.57862e-06 1.0643e-20)
(1.50347 2.8061e-06 1.09698e-20)
(1.50386 2.57978e-06 1.27182e-20)
(1.50428 -4.93687e-07 1.30359e-20)
(1.50468 3.00571e-07 1.44223e-20)
(1.50511 -9.65498e-07 1.50102e-20)
(1.50563 1.02354e-06 1.46164e-20)
(1.50606 5.08363e-06 1.5049e-20)
(1.50644 1.58708e-06 1.58461e-20)
(1.50688 -1.3029e-06 1.58657e-20)
(1.50732 4.69414e-06 1.60638e-20)
(1.50767 6.64223e-06 1.67269e-20)
(1.50796 3.93518e-08 1.75795e-20)
(1.50837 -6.49786e-06 1.76801e-20)
(1.50884 1.11837e-06 1.78584e-20)
(1.50912 5.61892e-06 1.79088e-20)
(1.50936 5.2852e-06 1.8123e-20)
(1.50958 6.08173e-06 1.83709e-20)
(1.50964 7.02421e-06 1.81791e-20)
(1.50965 4.32593e-06 1.80313e-20)
(1.50959 5.94965e-06 1.78036e-20)
(1.50947 3.79297e-06 1.76863e-20)
(1.50924 5.53567e-06 1.75708e-20)
(1.50881 9.79697e-06 1.72192e-20)
(1.50833 1.16718e-05 1.75191e-20)
(1.50772 2.18198e-05 1.72702e-20)
(1.50693 3.27354e-05 1.74587e-20)
(1.50611 3.02982e-05 1.73047e-20)
(1.50496 4.42234e-05 1.62293e-20)
(1.50362 4.10745e-05 1.90614e-20)
(1.50228 4.14832e-05 1.53318e-20)
(1.50039 5.00375e-05 2.20953e-20)
(1.49869 6.9234e-05 1.31909e-20)
(1.49737 4.72139e-05 1.73722e-20)
(1.49605 4.93669e-06 3.05364e-20)
(1.49479 0.00025065 -2.27857e-20)
(1.44558 0.00190889 2.29157e-19)
(0.69414 0.00951702 7.9136e-18)
(0.528271 0.000240004 6.0676e-18)
(0.528887 -0.00794768 3.07519e-18)
(0.550926 -0.0101108 7.89003e-19)
(0.572608 -0.0105417 1.19171e-19)
(0.597319 -0.00915705 -1.08071e-19)
(0.620697 -0.0085059 -1.23332e-19)
(0.642368 -0.00801129 -1.3479e-19)
(0.665887 -0.00824123 -1.39511e-19)
(0.688909 -0.00791161 -1.32818e-19)
(0.710112 -0.00708834 -1.55237e-19)
(0.730389 -0.00730897 -1.63989e-19)
(0.752022 -0.0076344 -2.04216e-19)
(0.774426 -0.00628639 -2.31387e-19)
(0.792294 -0.00472815 -2.43641e-19)
(0.807234 -0.00399374 -2.43439e-19)
(0.82157 -0.00281317 -2.47036e-19)
(0.834199 -0.00207587 -2.39099e-19)
(0.843419 -0.00160143 -2.45094e-19)
(0.848834 -0.00122738 -2.19378e-19)
(0.851493 -0.000829216 -1.80345e-19)
(0.852081 -0.000141541 -9.61912e-20)
(0.847739 0.000106697 -6.8234e-20)
(0.845305 0.000413986 -4.04365e-20)
(0.841123 0.000575213 -1.75112e-20)
(0.837498 0.000285676 4.2381e-21)
(0.835493 -0.000239196 2.12156e-20)
(0.835237 -0.00124608 2.85813e-20)
(0.836261 -0.0015634 7.83567e-20)
(0.83577 -0.00129694 9.97819e-20)
(0.832623 -0.00117188 1.43801e-19)
(0.83146 -0.00121782 1.74236e-19)
(0.830119 -0.00102777 2.15321e-19)
(0.82784 -0.0013578 2.53921e-19)
(0.827993 -0.00187209 2.66265e-19)
(0.828682 -0.00166621 2.88228e-19)
(0.826611 -0.00192653 2.81282e-19)
(0.835606 -0.00247293 2.53258e-19)
(0.837589 -0.00131188 3.3887e-19)
(0.83468 -0.000920552 2.63119e-19)
(0.832405 -0.00276954 1.97515e-19)
(0.854645 -0.00417225 2.4943e-20)
(0.866341 -0.00385675 8.26673e-19)
(0.897423 -0.00360588 6.4328e-19)
(0.927248 -0.00140128 1.85502e-18)
(0.934169 -0.00124535 5.80842e-18)
(0.929698 -0.00436814 1.11348e-17)
(0.928973 -0.0063133 1.33226e-17)
(0.87645 0.0035334 1.54234e-17)
(0.85454 0.0117688 5.4479e-18)
(0.771382 0.0329664 5.0979e-18)
(0.680238 0.0545409 3.0945e-18)
(0.594295 0.0550997 2.03392e-18)
(0.527246 0.0469509 1.56944e-18)
(0.475953 0.0386422 1.35963e-18)
(0.436049 0.0317734 1.18934e-18)
(0.403834 0.0264204 1.10525e-18)
(0.377506 0.0223304 1.01197e-18)
(0.354908 0.0196708 9.81357e-19)
(0.334793 0.0181031 9.88516e-19)
(0.315588 0.0174964 1.01827e-18)
(0.296459 0.0173587 8.88747e-19)
(0.277082 0.0185809 9.18836e-19)
(0.255622 0.0209459 7.97595e-19)
(0.23089 0.0251315 7.82798e-19)
(0.200991 0.0303465 5.60517e-19)
(0.165007 0.0382092 7.3886e-19)
(0.116186 0.0539824 1.79752e-19)
(0.0593865 0.0609787 1.30781e-18)
(1.50098 -1.25463e-06 -7.75584e-22)
(1.50079 1.07995e-06 1.85079e-21)
(1.50087 -1.89716e-07 2.48227e-21)
(1.50094 4.91326e-07 1.69831e-21)
(1.50103 -3.51281e-07 2.90878e-21)
(1.50114 -1.11297e-06 4.62929e-21)
(1.50131 3.71016e-07 4.89247e-21)
(1.50151 1.48242e-09 6.23037e-21)
(1.50169 1.13115e-06 7.4493e-21)
(1.5019 1.08254e-06 7.90926e-21)
(1.50218 4.66738e-07 7.84368e-21)
(1.5025 -3.14459e-06 8.61346e-21)
(1.5028 2.12741e-06 1.03863e-20)
(1.50312 3.37733e-06 1.02818e-20)
(1.50348 1.2059e-06 1.06153e-20)
(1.50389 -2.93305e-06 1.2854e-20)
(1.50428 2.14345e-06 1.35831e-20)
(1.50468 3.53299e-06 1.44534e-20)
(1.50512 -2.32145e-06 1.54563e-20)
(1.50562 1.34324e-06 1.49985e-20)
(1.50605 8.99771e-06 1.54247e-20)
(1.50645 4.2854e-06 1.49271e-20)
(1.50689 -1.29685e-06 1.46184e-20)
(1.50732 5.90135e-06 1.45608e-20)
(1.50767 1.26614e-05 1.64951e-20)
(1.50798 3.18571e-06 1.68463e-20)
(1.50839 -9.13231e-06 1.70098e-20)
(1.50884 9.00238e-07 1.69018e-20)
(1.50912 1.30814e-05 1.63503e-20)
(1.50938 1.20342e-05 1.73267e-20)
(1.5096 1.43854e-05 1.66134e-20)
(1.50966 1.66656e-05 1.73449e-20)
(1.50967 1.42909e-05 1.766e-20)
(1.50961 1.80738e-05 1.70983e-20)
(1.50948 1.1087e-05 1.67307e-20)
(1.50927 2.1729e-05 1.6907e-20)
(1.50887 3.76645e-05 1.61588e-20)
(1.50838 5.2017e-05 1.69104e-20)
(1.50772 6.10517e-05 1.53078e-20)
(1.50708 8.00067e-05 1.68104e-20)
(1.50618 9.30552e-05 1.62975e-20)
(1.505 0.000124666 1.59492e-20)
(1.50382 0.000161926 1.8021e-20)
(1.50243 0.000162229 1.43636e-20)
(1.50043 0.000167159 2.15142e-20)
(1.49875 0.000175307 9.99836e-21)
(1.49732 9.52919e-05 2.31704e-20)
(1.49606 5.03067e-05 1.98905e-20)
(1.4944 0.000264157 1.25879e-20)
(1.44662 0.00110919 -1.70026e-18)
(0.71278 0.0157309 9.9339e-18)
(0.542061 0.000883501 7.34124e-18)
(0.542574 -0.0146865 3.24323e-18)
(0.564484 -0.0212361 9.84497e-19)
(0.585557 -0.0263983 3.5146e-19)
(0.611279 -0.0244545 -9.51573e-20)
(0.636322 -0.0217429 -9.69341e-20)
(0.658283 -0.0204058 -8.33e-20)
(0.681179 -0.0197852 -6.05752e-20)
(0.702745 -0.0182452 -3.17784e-20)
(0.725274 -0.0155136 -2.32183e-20)
(0.746199 -0.014626 -1.29737e-21)
(0.767513 -0.0130419 -3.18521e-20)
(0.787711 -0.0101813 -3.81681e-20)
(0.805023 -0.00729987 -4.36074e-20)
(0.82054 -0.00575734 -2.33051e-20)
(0.834504 -0.00360532 -1.32669e-20)
(0.846963 -0.00232963 -1.66443e-20)
(0.856103 -0.00154005 9.74591e-21)
(0.861306 -0.00105781 -4.47624e-21)
(0.863864 -0.000442552 8.03687e-20)
(0.86462 0.000105016 1.25438e-19)
(0.860798 0.000351161 1.8709e-19)
(0.858884 0.000511806 2.13172e-19)
(0.855803 0.000604838 2.47137e-19)
(0.85342 0.000230406 2.68827e-19)
(0.852181 -0.000418798 2.81301e-19)
(0.852365 -0.00190192 2.97684e-19)
(0.853763 -0.00206326 3.31828e-19)
(0.853175 -0.00157867 3.69009e-19)
(0.851046 -0.00153633 3.96782e-19)
(0.850369 -0.00154434 4.44731e-19)
(0.849762 -0.00117761 4.82739e-19)
(0.847985 -0.00175223 5.34815e-19)
(0.848574 -0.00240516 5.45688e-19)
(0.849502 -0.00198723 5.81463e-19)
(0.847903 -0.00218757 5.95872e-19)
(0.856901 -0.00309027 5.7676e-19)
(0.858622 -0.00175613 6.45479e-19)
(0.859152 -0.000939156 5.98601e-19)
(0.854456 -0.00364296 6.95751e-19)
(0.877808 -0.00596525 1.49051e-19)
(0.889 -0.00555985 1.50239e-18)
(0.917884 -0.00420111 4.20254e-19)
(0.947262 -0.00107311 3.15469e-18)
(0.95413 -0.00142675 6.41271e-18)
(0.950537 -0.00606994 9.79865e-18)
(0.931327 -0.00937574 1.29893e-17)
(0.836843 0.00819006 1.21522e-17)
(0.751014 0.0191243 5.82016e-18)
(0.640575 0.0554527 3.86651e-18)
(0.542806 0.069238 2.33932e-18)
(0.464943 0.0588639 1.43333e-18)
(0.408255 0.0468434 1.20422e-18)
(0.365724 0.0380498 9.36401e-19)
(0.333232 0.0310756 8.89166e-19)
(0.306896 0.0263613 8.12048e-19)
(0.284778 0.0228062 7.39727e-19)
(0.264923 0.02111 7.72862e-19)
(0.246891 0.0202872 6.42797e-19)
(0.229998 0.0205226 7.22561e-19)
(0.213039 0.0214049 4.78123e-19)
(0.195829 0.0234821 7.04341e-19)
(0.177606 0.0270206 2.99186e-19)
(0.157044 0.0322037 6.39776e-19)
(0.131844 0.0386112 2.36387e-20)
(0.103143 0.0492527 8.63328e-19)
(0.0664571 0.0705751 -1.01703e-19)
(0.0554495 0.119814 -3.4062e-19)
(1.50098 -1.94666e-06 1.1454e-21)
(1.50079 2.39772e-07 -3.25316e-22)
(1.50086 3.84549e-07 -5.99172e-22)
(1.50093 6.2624e-07 -6.39021e-22)
(1.50103 -1.48992e-07 1.19475e-21)
(1.50118 -6.84528e-07 2.04288e-21)
(1.50131 8.76336e-07 2.4924e-21)
(1.50147 1.28316e-06 3.95848e-21)
(1.50169 4.03916e-07 5.27626e-21)
(1.50195 9.23225e-07 6.54884e-21)
(1.50218 1.89143e-06 8.11463e-21)
(1.50244 -2.33196e-06 5.5893e-21)
(1.50281 5.84148e-07 7.25133e-21)
(1.50317 2.56708e-06 1.04262e-20)
(1.50349 2.68826e-06 1.21169e-20)
(1.50384 9.75813e-08 1.27107e-20)
(1.50428 2.83937e-06 1.33703e-20)
(1.50471 -2.62672e-07 1.57113e-20)
(1.50511 -9.12209e-07 1.79323e-20)
(1.50561 4.865e-06 1.79268e-20)
(1.50605 1.53059e-05 1.64034e-20)
(1.50646 7.98562e-06 1.44614e-20)
(1.5069 -9.71921e-07 1.62575e-20)
(1.50731 1.26965e-05 1.51397e-20)
(1.50767 2.00832e-05 1.16994e-20)
(1.50799 2.20819e-06 1.21263e-20)
(1.50838 -1.44785e-05 1.31445e-20)
(1.50882 4.01351e-06 1.31433e-20)
(1.50913 2.57367e-05 1.45903e-20)
(1.5094 2.42223e-05 1.54048e-20)
(1.50963 2.85353e-05 1.44299e-20)
(1.50969 3.24843e-05 1.53537e-20)
(1.50971 3.17511e-05 1.36086e-20)
(1.50967 3.70048e-05 1.53094e-20)
(1.50956 3.2595e-05 1.42767e-20)
(1.50937 4.7117e-05 1.4686e-20)
(1.509 6.84163e-05 1.45319e-20)
(1.50853 8.45145e-05 1.46417e-20)
(1.50799 0.000134514 1.41586e-20)
(1.50728 0.000137729 1.39131e-20)
(1.50633 0.000153256 1.42338e-20)
(1.50547 0.000247861 1.35431e-20)
(1.50436 0.000242772 1.4843e-20)
(1.50274 0.000245766 1.15421e-20)
(1.50087 0.000282982 1.85342e-20)
(1.49946 0.000321301 9.5884e-21)
(1.4979 0.000225505 2.4584e-20)
(1.49671 5.88285e-05 9.29733e-21)
(1.49476 0.000309269 -3.92985e-21)
(1.45527 0.000464517 -1.27662e-18)
(0.717707 0.0156104 9.32966e-18)
(0.541453 -0.00247081 7.47425e-18)
(0.53861 -0.0264183 3.2737e-18)
(0.55983 -0.0381707 1.25145e-18)
(0.578677 -0.0461494 4.74005e-19)
(0.601676 -0.0445802 6.50678e-21)
(0.622213 -0.0383194 -5.28088e-20)
(0.645947 -0.0366891 -7.92848e-20)
(0.668289 -0.0341649 -7.04098e-20)
(0.692109 -0.0325143 -8.85048e-20)
(0.714773 -0.0289015 -1.0839e-19)
(0.738255 -0.0275563 -8.20008e-20)
(0.760195 -0.0246034 -1.2981e-19)
(0.778784 -0.0184731 -1.51823e-19)
(0.794612 -0.0139442 -1.40546e-19)
(0.811914 -0.0116234 -1.20923e-19)
(0.825236 -0.00761425 -1.29148e-19)
(0.837357 -0.0051325 -1.08688e-19)
(0.846403 -0.00345959 -1.09166e-19)
(0.851319 -0.00227328 -9.83002e-20)
(0.853582 -0.00112042 -4.49904e-20)
(0.854518 -0.000240885 3.27681e-20)
(0.850302 0.000125615 5.88099e-20)
(0.848412 0.000331823 8.40604e-20)
(0.845097 0.000210126 1.0565e-19)
(0.842529 -0.000439933 1.32774e-19)
(0.840669 -0.00162093 1.32841e-19)
(0.840157 -0.00363654 1.53219e-19)
(0.841432 -0.00385767 1.94061e-19)
(0.840838 -0.00309991 2.39212e-19)
(0.837924 -0.00334938 2.73057e-19)
(0.83742 -0.00338866 3.28507e-19)
(0.837459 -0.00288532 3.75721e-19)
(0.835095 -0.00364398 4.40658e-19)
(0.8355 -0.00455231 4.48313e-19)
(0.836936 -0.00402293 4.77235e-19)
(0.836036 -0.00407328 5.09592e-19)
(0.844854 -0.00544346 4.75065e-19)
(0.846481 -0.00394901 5.9134e-19)
(0.84867 -0.00328031 5.7525e-19)
(0.843628 -0.00586527 6.66516e-19)
(0.866893 -0.0101218 2.96454e-19)
(0.880383 -0.0100999 1.52285e-18)
(0.908243 -0.00656321 2.52774e-19)
(0.938153 -0.00193428 4.03758e-18)
(0.940373 -0.00217044 6.0469e-18)
(0.926158 -0.0139318 1.09521e-17)
(0.842507 -0.00721858 1.17561e-17)
(0.732548 0.0575268 8.85364e-18)
(0.60748 0.106409 4.43812e-18)
(0.500589 0.133837 3.08127e-18)
(0.421462 0.136768 1.93134e-18)
(0.362106 0.117151 1.55911e-18)
(0.314514 0.0922638 1.10982e-18)
(0.274169 0.0723953 1.23771e-18)
(0.241384 0.0580976 8.36217e-19)
(0.213462 0.0479812 1.19281e-18)
(0.189932 0.0409454 6.7547e-19)
(0.16911 0.0364561 1.03364e-18)
(0.151054 0.0330231 5.823e-19)
(0.134867 0.0319193 8.97537e-19)
(0.11995 0.0317712 4.52219e-19)
(0.106369 0.0340384 5.86837e-19)
(0.0931845 0.0390241 3.154e-19)
(0.08105 0.0482607 3.16277e-19)
(0.067662 0.0620723 6.18843e-19)
(0.0535366 0.0796406 -3.0174e-19)
(0.0300655 0.0983908 1.04212e-18)
(0.0317974 0.167787 6.25648e-19)
(1.50098 -2.41289e-06 -6.69735e-22)
(1.50079 2.4641e-07 2.66641e-22)
(1.50087 5.37248e-07 -3.08459e-22)
(1.50095 5.45035e-07 7.02143e-22)
(1.50103 2.09689e-07 2.10582e-21)
(1.50114 -2.18489e-07 1.97798e-22)
(1.50131 9.22522e-07 -1.91279e-22)
(1.50151 1.93909e-06 1.32653e-21)
(1.50169 6.72764e-07 1.6804e-21)
(1.5019 1.84936e-06 8.1331e-22)
(1.50219 2.16906e-06 -1.48731e-22)
(1.5025 -1.83194e-06 -3.54816e-22)
(1.50279 2.92734e-07 6.05829e-22)
(1.50311 4.56205e-06 2.38675e-21)
(1.50349 2.56601e-06 5.6984e-21)
(1.50391 3.26052e-07 6.70558e-21)
(1.50428 5.14301e-06 6.99566e-21)
(1.50466 4.23844e-06 8.77633e-21)
(1.50513 -3.29996e-06 3.83815e-21)
(1.5056 9.63428e-07 1.1251e-20)
(1.50605 1.7382e-05 9.53835e-21)
(1.50648 1.11249e-05 1.44757e-20)
(1.50691 -3.44076e-06 1.3285e-20)
(1.50732 1.6294e-05 1.67648e-20)
(1.50767 2.57818e-05 1.65164e-20)
(1.50803 5.94447e-06 1.44534e-20)
(1.50839 -1.59184e-05 1.52603e-20)
(1.50882 -1.95041e-06 2.24055e-20)
(1.50917 3.53864e-05 2.08799e-20)
(1.50945 3.92488e-05 1.74344e-20)
(1.50967 4.74658e-05 1.80438e-20)
(1.50976 5.31751e-05 1.79481e-20)
(1.50979 5.06319e-05 1.79562e-20)
(1.50977 5.34827e-05 1.74065e-20)
(1.50968 4.74676e-05 1.80193e-20)
(1.50952 5.05864e-05 1.81457e-20)
(1.50919 8.55325e-05 1.77827e-20)
(1.5088 0.000110397 1.83692e-20)
(1.50837 0.000158065 1.8667e-20)
(1.50772 0.000225734 1.83188e-20)
(1.50682 0.000264606 1.87619e-20)
(1.50594 0.000266499 1.74496e-20)
(1.505 0.000320603 1.95182e-20)
(1.50337 0.000374341 1.39685e-20)
(1.50165 0.000376172 2.8707e-20)
(1.50025 0.00045213 -4.70707e-21)
(1.49863 0.00023848 3.97977e-20)
(1.49716 0.000105858 -8.02691e-21)
(1.49398 0.000592411 1.72817e-19)
(1.45063 0.000653116 1.60989e-19)
(0.699444 0.0209307 8.6169e-18)
(0.530849 -0.00276353 7.00326e-18)
(0.527329 -0.033368 2.99176e-18)
(0.551245 -0.0529002 1.12024e-18)
(0.5723 -0.0633467 2.7563e-19)
(0.597646 -0.0624715 -4.80328e-20)
(0.62151 -0.05559 -1.5334e-19)
(0.648062 -0.0538062 -2.06002e-19)
(0.672908 -0.0504275 -2.35876e-19)
(0.698304 -0.0479309 -2.50697e-19)
(0.721073 -0.0428668 -2.4211e-19)
(0.748128 -0.040751 -2.44323e-19)
(0.77117 -0.0347182 -2.56928e-19)
(0.788041 -0.0253048 -2.46461e-19)
(0.806834 -0.0193458 -2.80755e-19)
(0.824524 -0.0168376 -2.80024e-19)
(0.837703 -0.0109712 -2.98428e-19)
(0.849991 -0.00724082 -3.0468e-19)
(0.857896 -0.00487101 -2.95098e-19)
(0.861946 -0.00340072 -3.29027e-19)
(0.863559 -0.00185189 -2.28128e-19)
(0.864377 -0.000479741 -2.00137e-19)
(0.859608 0.000437012 -1.46492e-19)
(0.857182 0.000621215 -1.41664e-19)
(0.853638 0.000616781 -1.23912e-19)
(0.851408 -0.000168075 -9.80212e-20)
(0.849557 -0.00151555 -8.08827e-20)
(0.848111 -0.00413137 -6.15445e-20)
(0.849692 -0.00498228 -2.44207e-20)
(0.848871 -0.00413947 1.75801e-20)
(0.845973 -0.0045447 7.0861e-20)
(0.84559 -0.00503683 1.41396e-19)
(0.845511 -0.00451516 2.03159e-19)
(0.844113 -0.00481957 2.8583e-19)
(0.844105 -0.00632592 3.27883e-19)
(0.84573 -0.00612016 3.91565e-19)
(0.845763 -0.00597422 3.95896e-19)
(0.853582 -0.00790051 4.22251e-19)
(0.855963 -0.00674889 5.83146e-19)
(0.858291 -0.0058538 5.97113e-19)
(0.855046 -0.00817413 6.63873e-19)
(0.87836 -0.0154708 6.06509e-19)
(0.894493 -0.0146621 1.3416e-18)
(0.922893 -0.0112684 1.54253e-18)
(0.948135 9.53093e-05 4.31793e-18)
(0.941086 -0.000585609 7.25266e-18)
(0.851712 0.000116275 9.99213e-18)
(0.705203 0.0607037 7.87579e-18)
(0.561378 0.135754 4.53301e-18)
(0.446742 0.167393 2.42864e-18)
(0.378321 0.181167 1.70827e-18)
(0.330168 0.171959 1.16865e-18)
(0.293617 0.149024 1.15293e-18)
(0.259356 0.124772 9.11599e-19)
(0.225078 0.102731 1.0504e-18)
(0.19395 0.0843362 9.30699e-19)
(0.165546 0.070883 9.1257e-19)
(0.141147 0.0604906 1.0036e-18)
(0.119267 0.0533034 5.4434e-19)
(0.10068 0.0472362 8.48289e-19)
(0.0842875 0.0442027 3.96887e-19)
(0.0702325 0.0419103 6.59232e-19)
(0.0583258 0.0428993 4.22261e-20)
(0.0474516 0.045669 1.29089e-19)
(0.0393624 0.0544393 -2.94869e-19)
(0.0327719 0.0689943 3.4771e-19)
(0.0299667 0.0913798 3.18571e-19)
(0.0167353 0.109795 -9.44656e-19)
(0.0211091 0.187518 -1.91516e-19)
(1.50098 -2.75342e-06 -1.68799e-21)
(1.50079 -8.3061e-08 2.17403e-21)
(1.50086 6.1244e-07 -1.51494e-22)
(1.50093 3.12542e-07 5.17658e-21)
(1.50103 5.32446e-07 5.05875e-21)
(1.50117 4.81321e-07 8.91454e-21)
(1.50131 9.05848e-07 8.72855e-21)
(1.50147 2.44386e-06 7.94238e-21)
(1.50169 1.07153e-06 1.15806e-20)
(1.50195 2.62853e-06 8.19843e-21)
(1.50218 2.34066e-06 3.71007e-22)
(1.50244 -1.03523e-06 1.12916e-20)
(1.5028 -6.05014e-07 1.10864e-20)
(1.50317 6.353e-06 1.17009e-20)
(1.5035 3.16479e-06 9.80258e-21)
(1.50384 1.47487e-06 1.31989e-20)
(1.50428 7.22748e-06 1.88664e-20)
(1.50472 7.46065e-06 1.97827e-20)
(1.50513 -5.15971e-06 2.03471e-20)
(1.50557 -4.83668e-07 1.16408e-20)
(1.50606 1.92335e-05 1.23479e-20)
(1.5065 1.13534e-05 1.48273e-20)
(1.50692 2.09561e-06 1.07861e-20)
(1.50729 1.99936e-05 1.12067e-20)
(1.50767 3.04876e-05 1.34528e-20)
(1.50807 1.46081e-05 1.56056e-20)
(1.50843 -8.3504e-06 1.46806e-20)
(1.50879 -7.37415e-06 1.15071e-20)
(1.50923 3.71864e-05 1.2368e-20)
(1.50954 5.27976e-05 1.77455e-20)
(1.50976 6.31278e-05 1.8099e-20)
(1.50987 6.87119e-05 1.59202e-20)
(1.5099 7.10528e-05 1.80831e-20)
(1.50992 6.34902e-05 1.61253e-20)
(1.50988 5.43292e-05 1.52254e-20)
(1.50966 5.05718e-05 1.75695e-20)
(1.50947 0.000104557 1.72769e-20)
(1.50917 0.000137446 1.56541e-20)
(1.50881 0.000200204 1.69732e-20)
(1.50847 0.000263074 1.64578e-20)
(1.50778 0.00033526 1.60985e-20)
(1.5069 0.000377579 1.63896e-20)
(1.50596 0.000441778 1.7285e-20)
(1.50449 0.000511563 1.50879e-20)
(1.50282 0.000572903 1.7454e-20)
(1.50137 0.000598133 1.39688e-20)
(1.50013 0.000565982 1.94698e-20)
(1.49835 0.000532018 4.13537e-20)
(1.49483 0.000720502 -6.31135e-20)
(1.45253 0.0062904 1.18993e-18)
(0.694116 0.0405704 8.24567e-18)
(0.521771 -0.0018005 6.47487e-18)
(0.524471 -0.0475858 3.35074e-18)
(0.549767 -0.0757043 1.0878e-18)
(0.573516 -0.0879653 2.5016e-19)
(0.600968 -0.0883024 -8.62049e-20)
(0.62694 -0.0801233 -2.09644e-19)
(0.656364 -0.0785107 -2.3301e-19)
(0.684598 -0.0718947 -2.87704e-19)
(0.713251 -0.0657576 -3.07482e-19)
(0.736965 -0.0568629 -3.07554e-19)
(0.765059 -0.0534758 -2.98069e-19)
(0.788429 -0.0417047 -3.19718e-19)
(0.803418 -0.0295893 -3.21332e-19)
(0.823613 -0.0268098 -3.25762e-19)
(0.839546 -0.0217499 -3.41269e-19)
(0.851402 -0.0124133 -3.46138e-19)
(0.863013 -0.00857154 -3.42641e-19)
(0.869878 -0.00548417 -3.23877e-19)
(0.87291 -0.00330629 -3.72976e-19)
(0.873604 -0.00159788 -2.47656e-19)
(0.874431 -9.96934e-05 -2.42148e-19)
(0.868352 0.00128204 -1.96514e-19)
(0.86621 0.00137148 -1.68119e-19)
(0.863303 0.00104361 -1.82871e-19)
(0.861018 -0.000272652 -1.39917e-19)
(0.860558 -0.00119159 -1.33667e-19)
(0.855505 -0.00470741 -8.03613e-20)
(0.857343 -0.00679503 -7.9913e-20)
(0.857484 -0.00581385 -2.88065e-20)
(0.853009 -0.00686545 2.00579e-20)
(0.852715 -0.00812529 1.20465e-19)
(0.853084 -0.00762035 1.99563e-19)
(0.852234 -0.00814951 2.74582e-19)
(0.852018 -0.00983042 3.44981e-19)
(0.853932 -0.0100258 4.02829e-19)
(0.855191 -0.00948632 4.46999e-19)
(0.861991 -0.0125816 4.63503e-19)
(0.865519 -0.0120253 6.41174e-19)
(0.868019 -0.0107375 7.2526e-19)
(0.86779 -0.0130639 7.68482e-19)
(0.892964 -0.0225327 7.66789e-19)
(0.908964 -0.0226871 1.60445e-18)
(0.920896 -0.0103675 2.20499e-18)
(0.955954 0.00161315 4.04257e-18)
(0.888877 0.0139145 7.54515e-18)
(0.721401 0.0780262 6.84666e-18)
(0.5636 0.169772 4.05443e-18)
(0.448239 0.226215 2.48063e-18)
(0.370826 0.231045 1.37407e-18)
(0.318899 0.221807 1.29141e-18)
(0.282723 0.200188 9.98153e-19)
(0.255978 0.173373 1.1108e-18)
(0.229406 0.149094 8.92809e-19)
(0.20156 0.128298 1.02039e-18)
(0.173604 0.109033 1.16202e-18)
(0.145908 0.0933622 8.92175e-19)
(0.121758 0.0804261 1.1295e-18)
(0.0996493 0.0707236 8.1324e-19)
(0.0809368 0.0619636 7.24699e-19)
(0.0641545 0.0564773 5.52991e-19)
(0.0502615 0.0514551 5.60454e-19)
(0.0383751 0.0508421 5.32713e-19)
(0.0282855 0.0514557 4.66316e-20)
(0.020911 0.0584589 -1.12966e-19)
(0.0169067 0.0712579 -6.18569e-19)
(0.0172061 0.0951891 -7.93632e-21)
(0.0124422 0.114582 1.06998e-18)
(0.0174919 0.197007 4.26824e-19)
(1.50098 -3.29245e-06 3.99117e-21)
(1.50079 -5.67923e-07 -1.91516e-21)
(1.50087 1.10166e-06 -6.39724e-22)
(1.50095 1.96189e-07 -2.81746e-21)
(1.50103 9.96772e-07 -6.4312e-21)
(1.50114 1.23034e-06 -1.39499e-20)
(1.50131 1.1083e-06 -1.22326e-20)
(1.50151 3.23457e-06 -6.75746e-21)
(1.50169 1.2783e-06 -1.59444e-20)
(1.50189 2.65604e-06 -1.14224e-20)
(1.50219 2.28142e-06 -1.88994e-21)
(1.5025 1.098e-06 -1.76755e-20)
(1.50279 -2.5161e-06 -1.77506e-20)
(1.50312 5.33011e-06 -7.54566e-21)
(1.5035 9.21077e-06 -8.00325e-21)
(1.5039 5.25347e-06 -6.599e-21)
(1.50427 1.82588e-06 -1.86419e-20)
(1.5047 5.38985e-06 -1.63324e-21)
(1.50514 -1.95226e-06 -1.23686e-20)
(1.50558 4.91519e-07 -1.42373e-20)
(1.50608 1.92461e-05 -1.28865e-20)
(1.50653 1.65188e-05 -1.15835e-20)
(1.50694 8.46686e-06 -5.73264e-21)
(1.5073 2.52064e-05 -4.40228e-21)
(1.5077 3.3541e-05 -8.8719e-22)
(1.50813 1.5748e-05 1.69056e-21)
(1.50848 -1.00881e-05 2.58193e-21)
(1.50882 -8.18472e-06 2.90766e-21)
(1.50926 2.8199e-05 1.4507e-21)
(1.50965 6.33577e-05 -8.06719e-22)
(1.5099 7.37048e-05 1.12995e-21)
(1.51002 8.55214e-05 -1.49745e-21)
(1.51008 8.20993e-05 5.45047e-22)
(1.51015 7.53534e-05 3.3253e-23)
(1.51006 6.25624e-05 7.76148e-22)
(1.50994 7.60977e-05 1.00885e-21)
(1.50984 9.28565e-05 1.31988e-21)
(1.50973 0.000154898 1.78142e-21)
(1.50948 0.000208824 1.87382e-21)
(1.50911 0.000257487 1.66337e-21)
(1.50881 0.000372564 1.60614e-21)
(1.50834 0.00044598 1.5308e-21)
(1.50736 0.000561933 2.82068e-21)
(1.50623 0.000648743 7.37777e-22)
(1.50501 0.00075901 3.6499e-21)
(1.50394 0.000725958 -7.35151e-22)
(1.50277 0.000685679 2.5451e-21)
(1.50071 0.000937827 9.13216e-21)
(1.49686 0.000592056 5.16224e-21)
(1.4742 0.0076453 2.49776e-19)
(0.712091 0.0692115 9.33618e-18)
(0.523612 -0.00131529 7.25404e-18)
(0.534863 -0.0661786 3.96767e-18)
(0.564251 -0.0996449 1.21884e-18)
(0.592784 -0.114873 3.91548e-19)
(0.623452 -0.114864 -3.30927e-20)
(0.651392 -0.105008 -2.25605e-19)
(0.682495 -0.103923 -2.86969e-19)
(0.710297 -0.0945002 -3.4854e-19)
(0.739835 -0.084898 -3.6441e-19)
(0.764648 -0.0734118 -3.94705e-19)
(0.79006 -0.0660812 -4.02678e-19)
(0.80274 -0.0515121 -3.83664e-19)
(0.83139 -0.0360992 -4.08402e-19)
(0.846634 -0.0331948 -4.12949e-19)
(0.857545 -0.026413 -4.14007e-19)
(0.873737 -0.0132932 -4.16044e-19)
(0.885504 -0.0108004 -4.20852e-19)
(0.891133 -0.00615897 -3.51725e-19)
(0.894389 -0.00306419 -4.6661e-19)
(0.894763 -0.00167156 -3.07615e-19)
(0.896159 -0.000311104 -3.52653e-19)
(0.891631 0.00272067 -3.45714e-19)
(0.889029 0.00206561 -2.51788e-19)
(0.887615 0.00124026 -2.47306e-19)
(0.884798 -0.00100691 -2.12299e-19)
(0.887578 -0.00134743 -2.21887e-19)
(0.884277 -0.003177 -2.09055e-19)
(0.883803 -0.00695838 -2.0344e-19)
(0.883682 -0.0064571 -1.17617e-19)
(0.879384 -0.00694075 -9.09143e-20)
(0.878004 -0.00876324 2.52326e-21)
(0.878471 -0.00862319 6.75868e-20)
(0.877844 -0.00896901 2.38347e-19)
(0.877197 -0.010801 3.18032e-19)
(0.880024 -0.0110038 4.00586e-19)
(0.881113 -0.0102144 4.38577e-19)
(0.886271 -0.0138394 4.92633e-19)
(0.89035 -0.0135736 6.35722e-19)
(0.892136 -0.01223 7.80775e-19)
(0.891811 -0.0156013 7.84694e-19)
(0.91252 -0.0281292 7.83942e-19)
(0.919447 -0.0249784 1.73051e-18)
(0.932566 -0.00534707 1.74405e-18)
(0.92826 0.00727769 4.57956e-18)
(0.772904 0.0784839 5.51376e-18)
(0.615445 0.199487 3.34067e-18)
(0.484092 0.275932 1.84212e-18)
(0.397358 0.29356 1.1376e-18)
(0.334972 0.281853 9.98021e-19)
(0.291334 0.254707 9.51044e-19)
(0.26115 0.221802 9.47641e-19)
(0.235815 0.192781 1.03037e-18)
(0.21345 0.169833 9.9091e-19)
(0.191237 0.151171 7.04518e-19)
(0.16898 0.133991 1.12964e-18)
(0.144891 0.118907 9.77745e-19)
(0.120598 0.10451 9.14101e-19)
(0.0975703 0.0929324 1.01098e-18)
(0.0782325 0.0818065 1.06212e-18)
(0.0608136 0.0740204 8.09205e-19)
(0.0468407 0.066266 3.7863e-19)
(0.0348856 0.0636387 5.96642e-19)
(0.0256076 0.0613568 4.22094e-19)
(0.0181121 0.0655401 -1.99901e-19)
(0.0142658 0.0754613 -2.2953e-20)
(0.0149586 0.0981229 -4.1008e-20)
(0.0127063 0.117442 -1.34247e-18)
(0.0185587 0.20311 -3.33689e-19)
(1.50097 -4.15227e-06 5.95478e-21)
(1.50079 -4.37315e-07 5.3595e-21)
(1.50086 2.98667e-07 2.84969e-21)
(1.50093 -3.91406e-07 5.11081e-21)
(1.50103 2.77925e-06 1.61682e-20)
(1.50117 2.71368e-06 2.09026e-20)
(1.50131 3.52315e-07 1.52697e-20)
(1.50148 1.21683e-06 2.57374e-20)
(1.50169 5.60125e-06 1.85753e-20)
(1.50194 5.05266e-06 1.91742e-20)
(1.50218 2.56289e-07 1.93811e-20)
(1.50246 -1.13598e-06 2.53673e-20)
(1.50278 -2.25748e-06 3.31191e-20)
(1.50314 1.05416e-05 1.76397e-20)
(1.50353 7.68053e-06 5.44386e-21)
(1.50388 1.26348e-06 7.9628e-21)
(1.50426 2.85068e-06 1.47535e-20)
(1.50472 1.0365e-05 8.65764e-21)
(1.50515 2.35623e-07 1.13827e-20)
(1.50557 -4.70291e-07 2.03268e-20)
(1.50607 1.71815e-05 2.03495e-20)
(1.50656 2.18129e-05 1.90136e-20)
(1.50697 2.32863e-05 1.9407e-20)
(1.50731 3.02808e-05 2.0314e-20)
(1.50775 3.31663e-05 8.31429e-21)
(1.50818 2.10678e-05 8.07329e-21)
(1.50853 1.67407e-06 1.15614e-20)
(1.50885 -6.03565e-06 1.56171e-20)
(1.50926 1.7476e-05 1.19415e-20)
(1.50977 6.76396e-05 5.32518e-21)
(1.51005 8.54021e-05 8.70361e-21)
(1.51022 0.000110266 1.21274e-20)
(1.51031 0.000112071 1.55774e-20)
(1.51037 9.41619e-05 1.68088e-20)
(1.51042 0.000100292 1.65007e-20)
(1.51033 7.5372e-05 1.86239e-20)
(1.5103 8.35841e-05 1.98074e-20)
(1.51025 0.000106361 2.08813e-20)
(1.51025 0.000226808 2.20465e-20)
(1.51019 0.000346541 2.45288e-20)
(1.50996 0.000398275 2.51799e-20)
(1.50961 0.000482187 2.38947e-20)
(1.50908 0.000640038 2.37871e-20)
(1.50867 0.000773905 2.37645e-20)
(1.50766 0.000928561 2.30196e-20)
(1.50648 0.000942831 2.49336e-20)
(1.50498 0.000941605 2.02799e-20)
(1.50335 0.00149989 1.56628e-20)
(1.5003 0.000427088 1.88715e-20)
(1.49388 0.00551005 -1.34273e-19)
(0.723367 0.100255 9.92569e-18)
(0.519027 -0.00866729 7.90994e-18)
(0.547015 -0.0958267 4.62077e-18)
(0.589067 -0.132158 1.51187e-18)
(0.62305 -0.149402 7.38393e-19)
(0.655909 -0.148806 2.12534e-19)
(0.68491 -0.134984 4.21067e-20)
(0.717212 -0.135112 -5.63438e-20)
(0.744397 -0.121263 -1.07951e-19)
(0.780061 -0.106733 -1.11234e-19)
(0.805925 -0.0898392 -1.72332e-19)
(0.834973 -0.076428 -1.47362e-19)
(0.844985 -0.0566655 -1.52668e-19)
(0.878807 -0.0450287 -1.41321e-19)
(0.894864 -0.0365636 -9.52768e-20)
(0.895955 -0.0249623 -1.59771e-19)
(0.921175 -0.0201199 -1.18768e-19)
(0.931378 -0.0112562 -1.20285e-19)
(0.936889 -0.00486094 -4.59169e-20)
(0.94109 -0.00279169 -6.07162e-20)
(0.94189 -0.0023013 -8.51153e-21)
(0.942663 -0.00216573 6.22143e-20)
(0.938934 0.00116507 1.4253e-20)
(0.935736 -0.000410117 8.31344e-20)
(0.935101 -0.00159278 7.95825e-20)
(0.930865 -0.00273084 9.11652e-20)
(0.933187 -0.00436635 1.23744e-19)
(0.933559 -0.00494987 1.38942e-19)
(0.929771 -0.00850589 1.37648e-19)
(0.929371 -0.00896379 2.18023e-19)
(0.926411 -0.00927188 2.09762e-19)
(0.923668 -0.0129826 3.08583e-19)
(0.923139 -0.0128693 3.99449e-19)
(0.920969 -0.0130775 5.19211e-19)
(0.920078 -0.0147881 6.86698e-19)
(0.920883 -0.0143823 7.54694e-19)
(0.920221 -0.0119705 7.80061e-19)
(0.923651 -0.0179657 8.49549e-19)
(0.924741 -0.0184701 9.23847e-19)
(0.923478 -0.015023 1.22952e-18)
(0.919472 -0.0191603 1.26186e-18)
(0.930543 -0.0266067 9.04272e-19)
(0.933763 -0.0297161 2.06297e-18)
(0.93738 -0.00419256 2.84218e-18)
(0.805381 0.0503278 3.93254e-18)
(0.65767 0.200275 2.84789e-18)
(0.527341 0.304897 1.75131e-18)
(0.468322 0.363372 1.0205e-18)
(0.400162 0.369507 9.74184e-19)
(0.347008 0.34044 9.79502e-19)
(0.294638 0.295947 1.22326e-18)
(0.257457 0.250498 9.50301e-19)
(0.23019 0.214581 1.12587e-18)
(0.208816 0.188737 1.38842e-18)
(0.188724 0.169721 9.56667e-19)
(0.169732 0.153348 8.39889e-19)
(0.149501 0.140054 1.02219e-18)
(0.129434 0.125761 1.21504e-18)
(0.107587 0.113207 7.36954e-19)
(0.0879833 0.0999333 8.13773e-19)
(0.0694387 0.0900257 1.34349e-18)
(0.0542001 0.0796699 8.28185e-19)
(0.0406559 0.0750986 4.45749e-19)
(0.0305726 0.0702854 5.83065e-19)
(0.0216905 0.0724103 1.34221e-19)
(0.0156024 0.0802668 -3.84471e-19)
(0.0159826 0.101098 -4.56235e-19)
(0.014077 0.120022 1.22523e-18)
(0.0211986 0.20821 4.92448e-19)
(1.50097 -4.39019e-06 -5.36717e-21)
(1.50078 -4.54795e-07 -6.93295e-21)
(1.50086 2.60588e-07 2.08939e-21)
(1.50093 1.0804e-06 -7.3205e-21)
(1.50104 2.77854e-07 -1.24304e-20)
(1.50116 -4.57275e-07 -9.28846e-21)
(1.50131 9.33396e-07 -1.81004e-21)
(1.50149 6.36493e-06 -1.43991e-20)
(1.5017 3.25055e-06 -1.14465e-20)
(1.50192 3.62523e-07 -1.06601e-20)
(1.50218 1.73029e-06 -6.64649e-21)
(1.50248 3.4415e-06 -2.4319e-21)
(1.50277 -2.08055e-06 1.10805e-20)
(1.50314 5.34627e-06 3.10188e-20)
(1.50353 7.25746e-06 3.97785e-20)
(1.5039 5.32798e-06 3.60036e-20)
(1.50425 4.18179e-06 4.54135e-20)
(1.50472 8.99681e-06 2.86869e-20)
(1.50516 6.86635e-06 4.02585e-20)
(1.50557 3.30148e-06 5.44403e-20)
(1.50606 1.17259e-05 3.51665e-20)
(1.50658 2.29147e-05 3.04426e-20)
(1.507 3.31617e-05 3.09776e-20)
(1.50735 3.24555e-05 3.22399e-20)