/*--------------------------------*- C++ -*----------------------------------*\
| =========                 |                                                 |
| \\      /  F ield         | OpenFOAM: The Open Source CFD Toolbox           |
|  \\    /   O peration     | Version:  2.2.x                                 |
|   \\  /    A nd           | Web:      www.OpenFOAM.org                      |
|    \\/     M anipulation  |                                                 |
\*---------------------------------------------------------------------------*/
FoamFile
{
    version     2.0;
    format      ascii;
    class       surfaceScalarField;
    location    "0.08";
    object      phi;
}
// * * * * * * * * * * * * * * * * * * * * * * * * * * * * * * * * * * * * * //

dimensions      [1 0 -1 0 0 0 0];

internalField   nonuniform List<scalar> 
1023
(
0
0
0
0
0
0
0
0
0
0
0
0
0
0
0
0
0
0
0
0
0
0
0
0
0
0
0
0
0
0
0
0
0
0
0
0
0
0
0
0
0
0
0
0
0
0
0
0
0
0
0
0
0
0
0
0
0
0
0
0
0
0
0
0
0
0
0
0
0
0
0
0
0
0
0
0
0
0
0
0
0
0
0
0
0
0
0
0
0
0
0
0
0
0
0
0
0
0
0
0
0
0
0
0
0
0
0
0
0
0
0
0
0
0
0
0
0
0
0
0
0
0
0
0
0
0
0
0
0
0
0
0
0
0
0
0
0
0
0
0
0
0
0
0
0
0
0
0
0
0
0
0
1.08996e-16
1.84612e-15
6.57383e-15
1.26231e-14
2.62272e-14
5.11055e-14
1.02865e-13
2.06336e-13
4.09934e-13
8.03574e-13
1.55416e-12
2.96865e-12
5.60889e-12
1.04836e-11
1.93713e-11
3.54174e-11
6.41411e-11
1.15091e-10
2.04747e-10
3.61243e-10
6.32264e-10
1.09809e-09
1.89268e-09
3.23802e-09
5.49883e-09
9.26987e-09
1.55131e-08
2.57715e-08
4.25003e-08
6.9572e-08
1.13043e-07
1.82302e-07
2.91769e-07
4.63387e-07
7.30228e-07
1.14164e-06
1.77051e-06
2.72332e-06
4.15394e-06
6.28213e-06
9.41788e-06
1.3993e-05
2.06005e-05
3.00438e-05
4.33939e-05
6.20552e-05
8.78377e-05
0.000123028
0.000170458
0.000233549
0.000316339
0.000423454
0.000560031
0.000731568
0.000943699
0.00120191
0.00151116
0.00187557
0.00229798
0.0027797
0.00332032
0.00391761
0.00456779
0.00526592
0.0060054
0.00675827
0.0074959
0.00822748
0.00895107
0.00967198
0.0104005
0.0111275
0.0118613
0.0126062
0.0133959
0.0142624
0.015141
0.0159665
0.0166736
0.0173783
0.0179801
0.0185366
0.0191424
0.0197526
0.0204274
0.0210897
0.0218046
0.0225462
0.0232971
0.0239839
0.0246397
0.0252471
0.0258732
0.0265676
0.0272872
0.0280103
0.0285866
0.0291473
0.0295129
0.029823
0.030179
0.0304823
0.0308089
0.0310792
0.0313424
0.0315838
0.0317477
0.0318563
0.031951
0.0320324
0.0321076
0.0321313
0.0321517
0.0321591
0.032155
0.0321424
0.0321035
0.0320495
0.0319805
0.0319081
0.031836
0.0317681
0.0317046
0.0316468
0.0315949
0.0315504
0.0315083
0.0314679
0.0314302
0.0313965
0.0313666
0.0313381
0.0313137
0.0312913
0.0312768
0.0312653
0.0312558
0.0312498
0.0312433
0.0312412
0.0312389
0.0312383
0.0312371
0.0312374
0.0312382
0.0312405
0.0312439
0.0312467
0.03125
0.0312539
0.0312578
0.0312622
0.0312666
0.0312716
0.0312784
0.0312881
0.0313012
0.0313187
0.0313391
0.0313574
0.0313733
0.0313846
0.0313949
0.0314019
0.0314067
0.0314099
0.0314108
0.0314119
0.0314111
0.0314094
0.0314039
0.0313965
0.0313912
0.0313887
0.0313887
0.0313881
0.0313909
0.0314006
0.0314155
0.0314326
0.0314492
0.0314609
0.0314703
0.0314789
0.0314834
0.0314878
0.0314895
0.0314906
0.0314895
0.0314883
0.0314863
0.0314856
0.0314853
0.0314861
0.0314896
0.0314961
0.0315064
0.0315177
0.0315279
0.0315352
0.0315405
0.0315431
0.0315445
0.031546
0.0315473
0.03155
0.0315511
0.0315522
0.0315536
0.0315543
0.0315567
0.031561
0.0315678
0.0315772
0.0315889
0.0315965
0.0316011
0.0316054
0.0316068
0.0316076
0.0316087
0.0316094
0.0316097
0.0316077
0.0316033
0.0315976
0.0315947
0.0315933
0.0315936
0.0315957
0.0316025
0.0316155
0.0316278
0.0316388
0.0316437
0.0316438
0.031643
0.0316409
0.0316401
0.0316398
0.0316409
0.0316459
0.0316467
0.0316417
0.0316335
0.0316113
0.0314808
0.0300412
0.0160508
-0.0815426
-0.152132
-0.169733
-0.177536
-0.181415
-0.18014
-0.179622
-0.179294
-0.179532
-0.17972
-0.179744
-0.17963
-0.179572
-0.179557
-0.179556
-0.179541
-0.179526
-0.179528
-0.179543
-0.179552
-0.179551
-0.179544
-0.179537
-0.179524
-0.179499
-0.179463
-0.179437
-0.179424
-0.179417
-0.179415
-0.179416
-0.179423
-0.179427
-0.179415
-0.179382
-0.179338
-0.179282
-0.179206
-0.179109
-0.179
-0.178883
-0.17876
-0.178667
-0.17862
-0.178619
-0.178642
-0.178699
-0.178865
-0.179274
-0.18014
-0.181826
-0.184892
-0.190176
-0.198866
-0.212551
-0.233156
-0.262501
-0.29968
-0.330993
-0.35609
-0.375334
-0.389503
-0.399602
-0.406625
-0.411432
-0.414714
-0.416933
-0.418406
-0.419376
-0.419995
-0.420409
-0.42078
-0.421216
-0.42173
-0.422205
-0.422503
-0.422635
-0.422657
-0.42261
-0.422595
-0.422718
-0.423101
-0.423535
-0.423762
-0.423762
-0.42356
-0.423289
-0.423205
-0.423271
-0.423676
-0.42445
-0.424835
-0.424842
-0.424563
-0.423727
-0.423403
-0.423411
-0.423818
-0.42509
-0.425881
-0.425996
-0.425675
-0.424143
-0.423044
-0.422809
-0.423147
-0.425304
-0.42749
-0.427795
-0.427043
-0.42418
-0.422137
-0.421512
-0.422069
-0.424691
-0.427069
-0.427696
-0.426546
-0.421855
-0.418339
-0.416384
-0.416235
-0.418688
-0.422071
-0.422588
-0.418255
-0.408274
-0.403125
-0.402311
-0.406482
-0.409916
-0.407101
-0.382948
-0.386511
-0.412994
-0.431207
-0.438272
-0.43992
-0.440271
-0.440358
-0.440402
-0.440433
-0.440456
-0.440465
-0.440466
-0.440473
-0.44049
-0.440497
-0.440486
-0.44048
-0.440489
-0.440534
-0.440574
-0.440679
-0.440868
-0.441076
-0.441412
-0.441917
-0.442516
-0.442845
-0.442916
-0.44292
-0.443008
-0.442999
-0.442507
-0.441833
-0.441293
-0.440463
-0.43868
-0.437305
-0.435675
-0.433287
-0.431094
-0.428731
-0.425866
-0.423054
-0.420167
-0.417033
-0.413893
-0.410652
-0.407305
-0.403889
-0.400393
-0.396878
-0.393304
-0.389655
-0.385964
-0.382195
-0.37835
-0.374438
-0.37045
-0.366419
-0.362324
-0.358167
-0.353953
-0.349659
-0.345315
-0.340887
-0.336373
-0.331793
-0.327136
-0.322429
-0.317679
-0.312862
-0.307983
-0.303023
-0.297977
-0.292854
-0.287655
-0.282386
-0.277049
-0.271639
-0.266154
-0.260596
-0.254964
-0.249259
-0.243481
-0.237633
-0.231711
-0.225719
-0.219656
-0.213523
-0.207322
-0.20105
-0.194709
-0.188295
-0.181805
-0.175242
-0.168597
-0.161879
-0.155084
-0.148217
-0.141282
-0.134285
-0.127233
-0.120132
-0.112996
-0.105844
-0.0987121
-0.0916062
-0.0845395
-0.0775316
-0.0706087
-0.0638035
-0.0571553
-0.0507094
-0.0445162
-0.0386289
-0.0331009
-0.0279824
-0.0233162
-0.019134
-0.0154537
-0.0122771
-0.00959006
-0.00736383
-0.00555773
-0.00412306
-0.00300702
-0.00215655
-0.00152135
-0.00105612
-0.00072176
-0.000485798
-0.000322176
-0.000210617
-0.000135781
-8.63583e-05
-5.42072e-05
-3.35934e-05
-2.0561e-05
-1.24327e-05
-7.4293e-06
-4.38849e-06
-2.5632e-06
-1.48067e-06
-8.46143e-07
-4.78449e-07
-2.67748e-07
-1.4832e-07
-8.13467e-08
-4.41798e-08
-2.37643e-08
-1.26623e-08
-6.68438e-09
-3.49645e-09
-1.81248e-09
-9.31241e-10
-4.74304e-10
-2.39483e-10
-1.19876e-10
-5.95022e-11
-2.93055e-11
-1.43264e-11
-6.94268e-12
-3.34179e-12
-1.59918e-12
-7.57622e-13
-3.48767e-13
-1.57642e-13
-7.02436e-14
-3.40968e-14
-3.86446e-15
-1.8851e-16
0
0
0
0
0
0
0
0
0
0
0
0
0
0
0
0
0
0
0
0
0
0
0
0
0
0
0
0
0
0
0
0
0
0
0
0
0
0
0
0
0
0
0
0
0
0
0
0
0
0
0
0
0
0
0
0
0
0
0
0
0
0
0
0
0
0
0
0
0
0
0
0
0
0
0
0
0
0
0
0
0
0
0
0
0
0
0
0
0
0
0
0
0
0
0
0
0
0
0
0
0
0
0
0
0
0
0
0
0
0
0
0
0
0
0
0
0
0
0
0
0
0
0
0
0
0
0
0
0
0
0
0
0
0
0
0
0
0
0
0
0
0
0
0
0
0
0
0
0
0
0
0
0
0
0
0
0
0
0
0
0
0
0
0
0
0
0
0
0
0
0
0
0
0
0
0
0
0
0
0
0
0
0
0
0
0
0
0
0
0
0
0
0
0
0
0
0
0
0
0
0
0
0
0
0
0
0
0
0
0
0
0
0
0
0
0
0
0
0
0
0
0
0
0
0
0
0
0
0
0
0
0
0
0
0
0
0
0
0
0
0
0
0
0
0
0
0
0
0
0
0
0
0
0
0
0
0
0
0
0
0
0
0
0
0
0
0
0
0
0
0
0
0
0
0
0
0
0
0
0
0
0
0
0
0
0
0
0
0
0
0
0
0
0
0
0
0
0
0
0
0
0
0
0
0
0
0
0
0
0
0
0
0
0
0
0
0
0
)
;

boundaryField
{
    front-back
    {
        type            empty;
        value           nonuniform 0();
    }
    inlet-outlet
    {
        type            calculated;
        value           uniform 0;
    }
    top-down
    {
        type            empty;
        value           nonuniform 0();
    }
}


// ************************************************************************* //
