/*--------------------------------*- C++ -*----------------------------------*\
| =========                 |                                                 |
| \\      /  F ield         | OpenFOAM: The Open Source CFD Toolbox           |
|  \\    /   O peration     | Version:  2.2.x                                 |
|   \\  /    A nd           | Web:      www.OpenFOAM.org                      |
|    \\/     M anipulation  |                                                 |
\*---------------------------------------------------------------------------*/
FoamFile
{
    version     2.0;
    format      ascii;
    class       volScalarField;
    location    "1.85";
    object      Bx;
}
// * * * * * * * * * * * * * * * * * * * * * * * * * * * * * * * * * * * * * //

dimensions      [1 0 -2 0 0 -1 0];

internalField   nonuniform List<scalar> 
14161
(
1.00256
1.00186
1.00202
1.0021
1.00222
1.00236
1.00252
1.0027
1.0029
1.00312
1.00336
1.00361
1.00387
1.00414
1.00443
1.0047
1.00499
1.00527
1.00552
1.00577
1.00601
1.00621
1.0064
1.00655
1.00664
1.00669
1.0067
1.00665
1.00655
1.00639
1.00614
1.00582
1.00539
1.00489
1.00429
1.0036
1.00274
1.00192
1.00103
1.00016
0.999344
0.998223
0.997356
0.994419
0.995413
0.974118
0.964948
0.992385
1.02373
1.05476
1.07597
1.092
1.1062
1.11939
1.13206
1.14435
1.1558
1.16602
1.17543
1.18403
1.19132
1.19751
1.20234
1.20621
1.20916
1.21158
1.21356
1.21535
1.21709
1.21872
1.22033
1.22171
1.22268
1.22379
1.22536
1.22723
1.22881
1.23028
1.23202
1.23435
1.23706
1.23907
1.24172
1.24505
1.24894
1.25299
1.25629
1.25985
1.26339
1.26686
1.27088
1.27522
1.27934
1.28363
1.28958
1.29759
1.30398
1.3117
1.31979
1.32784
1.3317
1.33423
1.33987
1.35501
1.36642
1.35755
1.29929
1.16352
1.003
0.851973
0.722814
0.613065
0.512464
0.42144
0.334339
0.254103
0.167711
0.104093
0.0279127
1.00256
1.00186
1.00202
1.0021
1.00222
1.00235
1.00252
1.0027
1.0029
1.00312
1.00336
1.00361
1.00387
1.00415
1.00443
1.0047
1.00499
1.00527
1.00552
1.00577
1.00601
1.00622
1.0064
1.00655
1.00664
1.00669
1.00671
1.00666
1.00656
1.0064
1.00616
1.00584
1.00544
1.00494
1.00431
1.00362
1.00287
1.00197
1.00104
1.0001
0.999274
0.998506
0.997832
0.997662
0.996582
1.00316
1.01814
1.02711
1.03769
1.04765
1.06114
1.07642
1.09118
1.10482
1.11825
1.13114
1.14304
1.15405
1.16457
1.1746
1.18317
1.19068
1.19666
1.20167
1.2057
1.20912
1.21194
1.21438
1.2165
1.21846
1.22038
1.22209
1.22366
1.22516
1.22679
1.22862
1.23028
1.23218
1.23396
1.23608
1.23838
1.2409
1.24348
1.2464
1.24991
1.25352
1.25693
1.26062
1.26432
1.26807
1.27194
1.2761
1.28036
1.2849
1.29024
1.29703
1.30397
1.31132
1.31952
1.32744
1.32927
1.33272
1.33792
1.34932
1.33667
1.25913
1.13368
0.969003
0.817854
0.697992
0.592096
0.496759
0.406939
0.327064
0.249295
0.182164
0.119212
0.0804279
0.0312392
1.00256
1.00187
1.00202
1.0021
1.00222
1.00235
1.00252
1.0027
1.0029
1.00312
1.00336
1.00361
1.00387
1.00415
1.00443
1.00471
1.00499
1.00527
1.00553
1.00578
1.00601
1.00622
1.00641
1.00655
1.00665
1.00671
1.00672
1.00668
1.00659
1.00643
1.0062
1.0059
1.0055
1.00501
1.00443
1.00375
1.00297
1.00211
1.00122
1.00029
0.999334
0.99859
0.998195
0.999404
0.9993
1.0243
1.03976
1.04407
1.04239
1.04615
1.05594
1.06829
1.08201
1.09667
1.11082
1.12503
1.13862
1.15229
1.16441
1.17553
1.18536
1.19301
1.19913
1.204
1.20818
1.21195
1.21528
1.21813
1.22045
1.22256
1.22448
1.22614
1.22793
1.2296
1.23139
1.23344
1.23528
1.23733
1.23921
1.24151
1.24376
1.24647
1.24906
1.25206
1.25577
1.25927
1.26247
1.26607
1.26974
1.27355
1.27755
1.28168
1.28592
1.29043
1.29565
1.30242
1.30979
1.31665
1.32512
1.33116
1.33054
1.33145
1.33569
1.32285
1.24451
1.06762
0.872922
0.732533
0.627284
0.543636
0.462494
0.389758
0.317643
0.252207
0.185471
0.132702
0.0867451
0.0620539
0.0209874
1.00256
1.00187
1.00203
1.0021
1.00222
1.00235
1.00252
1.0027
1.0029
1.00312
1.00336
1.00361
1.00387
1.00415
1.00443
1.00471
1.00499
1.00527
1.00554
1.00579
1.00602
1.00623
1.00642
1.00657
1.00667
1.00673
1.00675
1.00672
1.00663
1.00649
1.00628
1.006
1.00561
1.00516
1.00462
1.00396
1.00319
1.00232
1.0014
1.00038
0.999281
0.99823
0.997198
0.997094
0.997241
1.00081
1.02248
1.03308
1.03825
1.04475
1.0571
1.0713
1.08741
1.10408
1.12055
1.1367
1.15158
1.16498
1.17709
1.18751
1.19642
1.20333
1.20924
1.21383
1.21793
1.22162
1.22486
1.22767
1.22989
1.23187
1.23348
1.23505
1.23688
1.23861
1.2401
1.24236
1.24432
1.24637
1.24812
1.25005
1.25219
1.25488
1.25743
1.2596
1.26328
1.26637
1.26962
1.27307
1.27655
1.28033
1.28426
1.28848
1.29281
1.29721
1.30182
1.30898
1.31563
1.32318
1.33115
1.33303
1.33512
1.33309
1.32051
1.21388
1.02007
0.818676
0.686124
0.591177
0.52031
0.45526
0.388521
0.330339
0.270011
0.214306
0.157456
0.113228
0.0725807
0.0507158
0.0111625
1.00255
1.00187
1.00203
1.0021
1.00222
1.00235
1.00252
1.0027
1.0029
1.00312
1.00336
1.00361
1.00388
1.00415
1.00443
1.00471
1.005
1.00528
1.00555
1.00579
1.00603
1.00624
1.00643
1.00659
1.0067
1.00676
1.00679
1.00677
1.00671
1.00659
1.0064
1.00613
1.0058
1.00538
1.00487
1.00429
1.00359
1.00274
1.00182
1.00075
0.99943
0.997682
0.995902
0.99296
0.989254
0.983058
0.975692
0.985611
1.00477
1.02198
1.04408
1.06797
1.09005
1.11205
1.1328
1.15299
1.17088
1.18391
1.19692
1.2075
1.21583
1.22121
1.22605
1.23026
1.23395
1.2374
1.24054
1.24321
1.24559
1.24742
1.24862
1.24981
1.25137
1.25304
1.25412
1.2562
1.25801
1.25994
1.26159
1.26295
1.26458
1.26687
1.26941
1.27076
1.27372
1.27631
1.27925
1.28267
1.28615
1.28998
1.29381
1.29801
1.30258
1.30687
1.31083
1.3182
1.32441
1.33385
1.34295
1.34024
1.34331
1.32777
1.24029
1.03974
0.831496
0.690375
0.587249
0.516442
0.461305
0.406958
0.350837
0.29926
0.246861
0.200831
0.151466
0.113842
0.0728422
0.0494452
0.00813278
1.00255
1.00187
1.00203
1.0021
1.00222
1.00235
1.00252
1.0027
1.0029
1.00312
1.00336
1.00361
1.00388
1.00415
1.00443
1.00472
1.005
1.00527
1.00556
1.00581
1.00604
1.00626
1.00645
1.00661
1.00674
1.00681
1.00685
1.00685
1.0068
1.0067
1.00654
1.00632
1.00605
1.00569
1.00525
1.00474
1.00412
1.00339
1.00247
1.001
0.99943
0.997824
0.996563
0.992876
0.989624
0.967578
0.941489
0.947666
0.971457
1.00348
1.03626
1.068
1.09623
1.12157
1.14536
1.16603
1.18354
1.19862
1.2153
1.22791
1.23865
1.24526
1.25035
1.25447
1.25752
1.26013
1.26292
1.26519
1.26752
1.26928
1.2706
1.27148
1.27233
1.2739
1.27445
1.27615
1.27786
1.27938
1.28102
1.28186
1.28295
1.28468
1.28713
1.28773
1.29002
1.29199
1.29428
1.29654
1.29925
1.3026
1.30621
1.31053
1.31505
1.31968
1.32247
1.33016
1.33775
1.34947
1.3571
1.3534
1.34437
1.2703
1.08006
0.871379
0.731304
0.619347
0.538644
0.481608
0.433302
0.383037
0.332354
0.286959
0.24283
0.206664
0.164057
0.129628
0.0850023
0.0582582
0.0137852
1.00255
1.00187
1.00202
1.0021
1.00222
1.00236
1.00252
1.0027
1.0029
1.00313
1.00336
1.00361
1.00388
1.00415
1.00443
1.00472
1.005
1.00528
1.00556
1.00582
1.00605
1.00628
1.00647
1.00664
1.00678
1.00687
1.00693
1.00693
1.00691
1.00684
1.00673
1.00657
1.00634
1.00607
1.00573
1.00534
1.00485
1.00429
1.00351
1.00245
1.00122
0.999025
0.996701
0.992422
0.991554
0.979983
0.945108
0.94075
0.95863
0.999849
1.0436
1.08241
1.1166
1.14533
1.17254
1.19539
1.21372
1.22858
1.24533
1.25674
1.26658
1.27265
1.27683
1.28112
1.28376
1.28601
1.28721
1.28956
1.29204
1.29425
1.29603
1.29738
1.29816
1.29924
1.29962
1.30052
1.30198
1.30298
1.30443
1.30535
1.30605
1.3066
1.30804
1.30852
1.30955
1.31111
1.31311
1.31499
1.31768
1.32111
1.32436
1.32873
1.33299
1.33839
1.33968
1.34691
1.35491
1.36199
1.36512
1.36432
1.31417
1.14058
0.939969
0.802444
0.696502
0.604387
0.534498
0.478778
0.429382
0.380499
0.333156
0.291215
0.250556
0.217743
0.17866
0.146695
0.0993858
0.0684093
0.020202
1.00254
1.00186
1.00202
1.0021
1.00222
1.00236
1.00252
1.0027
1.00291
1.00313
1.00336
1.00361
1.00388
1.00415
1.00443
1.00473
1.00501
1.00528
1.00557
1.00584
1.00607
1.0063
1.00651
1.00667
1.00683
1.00694
1.00701
1.00704
1.00704
1.00702
1.00696
1.00686
1.00671
1.00654
1.00632
1.00607
1.0058
1.00546
1.00506
1.00459
1.00388
1.00267
1.00199
1.00022
1.00073
0.995226
0.960141
0.963862
0.981633
1.02531
1.07802
1.11704
1.15467
1.18261
1.21309
1.23633
1.25454
1.2703
1.28271
1.29221
1.29989
1.30475
1.30847
1.31306
1.31594
1.31634
1.31713
1.31853
1.32008
1.32155
1.3234
1.32461
1.32594
1.32673
1.32739
1.32818
1.32918
1.32974
1.33069
1.33169
1.33256
1.33221
1.33297
1.33422
1.33409
1.33529
1.33675
1.33818
1.33961
1.34186
1.34443
1.34825
1.35123
1.35588
1.35589
1.36008
1.36424
1.36557
1.3663
1.3334
1.1923
0.994469
0.849189
0.756594
0.672971
0.604524
0.547345
0.492304
0.440675
0.391335
0.344358
0.301978
0.26118
0.227419
0.188809
0.157249
0.111053
0.0801823
0.0298404
1.00254
1.00186
1.00202
1.0021
1.00222
1.00235
1.00252
1.0027
1.0029
1.00313
1.00336
1.00362
1.00388
1.00415
1.00443
1.00473
1.00502
1.00529
1.00558
1.00585
1.00609
1.00633
1.00655
1.00672
1.00689
1.00702
1.00711
1.00717
1.0072
1.00722
1.00721
1.00719
1.00714
1.00709
1.007
1.00692
1.00685
1.00683
1.00686
1.00694
1.00711
1.00732
1.00746
1.00698
1.00525
1.00557
0.989638
0.995551
1.03594
1.08322
1.14158
1.18008
1.21767
1.24255
1.27002
1.28746
1.30451
1.3183
1.32056
1.33124
1.32927
1.33381
1.33813
1.33634
1.34046
1.34046
1.34164
1.34166
1.34219
1.34342
1.34473
1.34618
1.34804
1.34962
1.35012
1.35098
1.35185
1.3526
1.35347
1.35419
1.35567
1.3559
1.35579
1.35718
1.35705
1.3574
1.35853
1.35988
1.36083
1.3621
1.36309
1.36475
1.36575
1.3662
1.36468
1.36545
1.36498
1.35911
1.32994
1.21344
1.02025
0.884002
0.78561
0.713949
0.644705
0.589227
0.533344
0.483032
0.430917
0.385357
0.340472
0.3001
0.259921
0.226098
0.188852
0.159722
0.118173
0.0907185
0.0422519
1.00253
1.00186
1.00202
1.00209
1.00221
1.00235
1.00252
1.0027
1.0029
1.00313
1.00336
1.00361
1.00388
1.00415
1.00444
1.00473
1.00502
1.00531
1.00559
1.00587
1.00612
1.00636
1.00659
1.00678
1.00695
1.00711
1.00722
1.00731
1.00738
1.00744
1.00749
1.00755
1.00761
1.00767
1.00773
1.00785
1.00804
1.00836
1.00877
1.00952
1.01065
1.01254
1.01509
1.01912
1.02299
1.03439
1.06366
1.08545
1.15688
1.18608
1.22806
1.25357
1.28103
1.30505
1.3231
1.3325
1.33942
1.34924
1.3536
1.35668
1.3563
1.3516
1.35783
1.35471
1.35581
1.35664
1.35761
1.35789
1.35848
1.35915
1.36032
1.36182
1.36318
1.36485
1.36602
1.36674
1.36784
1.36841
1.36953
1.37025
1.3718
1.37246
1.37232
1.37311
1.3734
1.37316
1.37301
1.37346
1.37339
1.37294
1.37208
1.37104
1.37088
1.36834
1.36502
1.35482
1.33985
1.29883
1.1766
1.01359
0.880919
0.806019
0.73943
0.683491
0.630798
0.586186
0.532632
0.487233
0.436759
0.391653
0.346835
0.306112
0.265422
0.230694
0.193696
0.165227
0.127152
0.101961
0.0579685
1.00252
1.00185
1.00201
1.00209
1.00221
1.00235
1.00251
1.0027
1.0029
1.00312
1.00336
1.00361
1.00388
1.00416
1.00444
1.00474
1.00503
1.00532
1.0056
1.00588
1.00615
1.0064
1.00664
1.00685
1.00703
1.0072
1.00736
1.00749
1.00759
1.00769
1.00779
1.0079
1.00805
1.00823
1.00844
1.00874
1.00908
1.00964
1.01032
1.01125
1.01239
1.01389
1.01574
1.01777
1.0207
1.02002
1.12305
1.23994
1.31263
1.31638
1.32764
1.33846
1.33952
1.35492
1.3578
1.36384
1.36354
1.36777
1.37648
1.37102
1.37422
1.36644
1.36931
1.36838
1.36649
1.36795
1.36803
1.36887
1.36968
1.37053
1.37179
1.37287
1.37394
1.3752
1.37614
1.37696
1.37794
1.37889
1.38027
1.38098
1.38225
1.38245
1.38204
1.38233
1.38206
1.38079
1.3794
1.37837
1.37727
1.37595
1.37375
1.36844
1.36415
1.35228
1.33068
1.29147
1.21546
1.08036
0.907306
0.781542
0.716001
0.675294
0.649441
0.615216
0.584268
0.547181
0.502956
0.46876
0.423055
0.383494
0.341343
0.302086
0.262042
0.227048
0.191143
0.163718
0.129353
0.108263
0.0694256
1.00251
1.00185
1.00201
1.00209
1.00221
1.00235
1.00251
1.00269
1.0029
1.00312
1.00336
1.00361
1.00388
1.00416
1.00444
1.00474
1.00503
1.00533
1.00561
1.0059
1.00619
1.00644
1.00668
1.00692
1.00712
1.00731
1.0075
1.00767
1.00782
1.00796
1.0081
1.00826
1.00847
1.00873
1.00908
1.00949
1.01004
1.01072
1.0117
1.013
1.01453
1.01706
1.02056
1.026
1.03251
1.05793
1.13111
1.29408
1.33265
1.34756
1.35989
1.36623
1.36546
1.37647
1.37301
1.37878
1.37746
1.37585
1.3826
1.37587
1.37924
1.37374
1.37159
1.37292
1.37246
1.37341
1.37326
1.3743
1.37515
1.37604
1.37761
1.37876
1.37988
1.38111
1.38227
1.38328
1.38389
1.38457
1.38563
1.3859
1.38645
1.3862
1.38551
1.38498
1.38407
1.38332
1.38114
1.37704
1.37223
1.36421
1.35163
1.33073
1.30245
1.25739
1.17803
1.07316
0.919777
0.769083
0.68052
0.636099
0.614944
0.595412
0.584201
0.563725
0.544935
0.516104
0.487196
0.451886
0.413114
0.377606
0.339124
0.302791
0.26441
0.230665
0.19603
0.169489
0.137858
0.118389
0.0843418
1.00251
1.00184
1.002
1.00208
1.0022
1.00234
1.00251
1.00269
1.00289
1.00312
1.00336
1.0036
1.00388
1.00416
1.00444
1.00473
1.00504
1.00535
1.00562
1.00592
1.00622
1.00649
1.00674
1.00698
1.00722
1.00744
1.00764
1.00786
1.00806
1.00823
1.00842
1.00861
1.00885
1.00915
1.00956
1.01001
1.01055
1.01118
1.0118
1.01252
1.01304
1.01376
1.01271
1.01462
1.00203
1.04199
1.1141
1.15973
1.20024
1.28604
1.32827
1.33743
1.35598
1.36108
1.37209
1.36931
1.37602
1.37347
1.37573
1.3739
1.37595
1.37413
1.36997
1.37087
1.37224
1.37334
1.3738
1.37525
1.37631
1.37765
1.37951
1.3805
1.38189
1.38282
1.38377
1.38444
1.38497
1.38543
1.38575
1.38578
1.38518
1.38494
1.38223
1.37832
1.37443
1.36778
1.35773
1.34061
1.31841
1.28479
1.23894
1.16944
1.08131
0.982399
0.847415
0.720734
0.619925
0.550819
0.507437
0.497813
0.497509
0.503243
0.50654
0.505778
0.501683
0.490369
0.47003
0.440416
0.407091
0.374039
0.338696
0.304241
0.267261
0.23474
0.201646
0.176231
0.1458
0.126449
0.0954255
1.0025
1.00184
1.002
1.00208
1.0022
1.00234
1.0025
1.00268
1.00289
1.00311
1.00335
1.0036
1.00387
1.00415
1.00444
1.00473
1.00505
1.00536
1.00565
1.00595
1.00626
1.00654
1.0068
1.00706
1.00732
1.00756
1.0078
1.00804
1.00828
1.00851
1.00873
1.00895
1.0092
1.00951
1.00987
1.01031
1.01078
1.01127
1.01174
1.01222
1.01264
1.01319
1.01308
1.01454
1.00367
1.03949
1.09811
1.10585
1.14289
1.19883
1.26552
1.29291
1.33328
1.33346
1.34982
1.34747
1.3593
1.35934
1.36281
1.36455
1.36579
1.36717
1.36442
1.36477
1.36608
1.36707
1.36806
1.36919
1.36987
1.37152
1.37326
1.37463
1.37626
1.37747
1.3784
1.37841
1.3784
1.37758
1.37577
1.37363
1.36755
1.36262
1.35178
1.33475
1.31536
1.28507
1.24628
1.18762
1.11581
1.03147
0.937643
0.826746
0.722835
0.635939
0.566325
0.495759
0.443818
0.412986
0.403989
0.415327
0.429793
0.444776
0.45413
0.461445
0.463367
0.45878
0.445107
0.423075
0.396359
0.36742
0.33596
0.304229
0.269288
0.238848
0.207132
0.182929
0.154191
0.135724
0.107949
1.00249
1.00183
1.00199
1.00207
1.00219
1.00233
1.00249
1.00268
1.00288
1.0031
1.00334
1.0036
1.00386
1.00415
1.00445
1.00474
1.00505
1.00537
1.00567
1.00598
1.00629
1.00659
1.00687
1.00714
1.00742
1.00769
1.00796
1.00822
1.00849
1.00876
1.00901
1.00927
1.00952
1.00979
1.01009
1.01042
1.01079
1.01114
1.01152
1.01192
1.01264
1.01341
1.01523
1.0165
1.03
1.06563
1.08973
1.09057
1.10874
1.13204
1.16968
1.22197
1.27838
1.29794
1.32221
1.32461
1.34641
1.34718
1.35425
1.35414
1.35674
1.36181
1.3596
1.35931
1.35917
1.35958
1.36063
1.36101
1.36123
1.36191
1.36239
1.36297
1.36385
1.36287
1.36179
1.35809
1.35336
1.34633
1.33374
1.31983
1.29821
1.2686
1.22922
1.17326
1.10973
1.03544
0.952503
0.855248
0.762682
0.677253
0.609614
0.55221
0.493736
0.442843
0.404419
0.369673
0.345409
0.333385
0.334809
0.348925
0.372166
0.391911
0.409339
0.42487
0.433881
0.432359
0.425862
0.407954
0.387134
0.361719
0.334418
0.305381
0.272914
0.244018
0.213284
0.190284
0.163109
0.145607
0.120461
1.00247
1.00182
1.00198
1.00206
1.00218
1.00232
1.00249
1.00267
1.00287
1.00309
1.00334
1.00359
1.00386
1.00415
1.00445
1.00474
1.00506
1.00538
1.00569
1.00601
1.00632
1.00664
1.00695
1.00724
1.00753
1.00782
1.00812
1.0084
1.00869
1.00899
1.00927
1.00954
1.00979
1.01005
1.0103
1.01055
1.01077
1.01093
1.01096
1.01069
1.01061
1.00901
1.00973
0.999961
1.02656
1.07792
1.07922
1.08061
1.09086
1.10253
1.12342
1.16332
1.21078
1.26671
1.29086
1.32343
1.33932
1.34602
1.35081
1.34899
1.35513
1.35497
1.35422
1.35325
1.35211
1.35149
1.35122
1.34947
1.34805
1.34469
1.34226
1.33706
1.33126
1.32067
1.30642
1.28851
1.26261
1.23087
1.1857
1.13199
1.07066
1.00236
0.928294
0.839713
0.759169
0.685139
0.626009
0.575402
0.525348
0.477393
0.437502
0.404657
0.373019
0.343549
0.323543
0.305581
0.293027
0.289748
0.294047
0.309507
0.332227
0.355852
0.374239
0.392588
0.405591
0.409377
0.407377
0.394629
0.378169
0.356253
0.332349
0.30613
0.27611
0.249104
0.219366
0.197609
0.17183
0.155703
0.13325
1.00246
1.00182
1.00198
1.00205
1.00218
1.00232
1.00248
1.00266
1.00286
1.00308
1.00333
1.00359
1.00385
1.00414
1.00444
1.00475
1.00506
1.00539
1.00572
1.00604
1.00636
1.00669
1.00703
1.00734
1.00765
1.00796
1.00827
1.00859
1.00889
1.00921
1.00951
1.00979
1.01004
1.01028
1.01048
1.01064
1.01074
1.01077
1.01058
1.01015
1.00965
1.00808
1.00723
0.997008
1.01422
1.06382
1.06395
1.06773
1.07561
1.08211
1.095
1.11756
1.14919
1.20934
1.26912
1.31224
1.32523
1.34418
1.34687
1.34265
1.35042
1.3473
1.34392
1.34194
1.33882
1.33408
1.32933
1.32063
1.31122
1.29573
1.27861
1.25479
1.22241
1.18179
1.12951
1.07423
1.01198
0.945827
0.869452
0.793772
0.724195
0.661938
0.614752
0.572289
0.529478
0.490287
0.456121
0.428
0.40326
0.37607
0.353124
0.333689
0.316394
0.2972
0.283835
0.274841
0.266864
0.26697
0.270842
0.286561
0.306106
0.331813
0.350394
0.370781
0.386108
0.392631
0.392845
0.383503
0.37043
0.351881
0.330945
0.307437
0.280366
0.255063
0.226655
0.206028
0.181639
0.166796
0.146759
1.00245
1.00181
1.00197
1.00205
1.00217
1.00231
1.00247
1.00265
1.00285
1.00307
1.00332
1.00358
1.00384
1.00413
1.00444
1.00475
1.00507
1.0054
1.00574
1.00608
1.0064
1.00675
1.0071
1.00745
1.00777
1.00811
1.00844
1.00876
1.00909
1.00942
1.00975
1.01004
1.01029
1.0105
1.01069
1.01086
1.01098
1.01111
1.01115
1.01128
1.01146
1.01179
1.01309
1.01231
1.03016
1.06413
1.06279
1.0685
1.07219
1.07717
1.08685
1.09892
1.11784
1.15857
1.21337
1.28815
1.31523
1.33913
1.33551
1.33382
1.33593
1.33065
1.32171
1.31035
1.29739
1.27831
1.25712
1.22576
1.18641
1.13708
1.08089
1.02119
0.95367
0.881562
0.807377
0.739822
0.678916
0.630133
0.590969
0.551204
0.514758
0.480778
0.451523
0.429204
0.408272
0.388511
0.371852
0.356675
0.343157
0.328117
0.31371
0.29973
0.289282
0.276595
0.266639
0.260734
0.255354
0.256527
0.259848
0.274192
0.289707
0.313609
0.332216
0.354557
0.372055
0.380396
0.381963
0.37488
0.364193
0.348476
0.32977
0.308955
0.284947
0.260894
0.23447
0.214589
0.191709
0.177996
0.160171
1.00244
1.0018
1.00196
1.00204
1.00216
1.0023
1.00246
1.00264
1.00284
1.00306
1.0033
1.00357
1.00384
1.00413
1.00443
1.00475
1.00507
1.00541
1.00577
1.00611
1.00645
1.0068
1.00718
1.00755
1.00791
1.00826
1.0086
1.00894
1.00929
1.00964
1.00999
1.0103
1.01056
1.01077
1.01097
1.01115
1.01132
1.01154
1.01178
1.01218
1.0124
1.01443
1.01252
1.03519
1.06246
1.05986
1.05991
1.06281
1.0644
1.0695
1.07588
1.08197
1.09676
1.11549
1.15266
1.21137
1.28214
1.30336
1.31229
1.29899
1.28869
1.27425
1.24451
1.20633
1.1631
1.10833
1.04966
0.983535
0.909317
0.832912
0.762937
0.701152
0.649146
0.608108
0.567619
0.530595
0.495133
0.465824
0.441707
0.423078
0.405703
0.390566
0.376059
0.363953
0.353732
0.343187
0.333862
0.324498
0.316251
0.305899
0.297067
0.286299
0.277819
0.2684
0.260293
0.255431
0.251868
0.253625
0.257019
0.268405
0.281942
0.304268
0.32278
0.344604
0.362674
0.371489
0.373526
0.368475
0.359534
0.346416
0.329524
0.311253
0.289894
0.267802
0.243507
0.22444
0.202878
0.190183
0.174256
1.00242
1.00179
1.00195
1.00203
1.00214
1.00228
1.00244
1.00262
1.00283
1.00305
1.00329
1.00355
1.00383
1.00412
1.00443
1.00475
1.00508
1.00542
1.00579
1.00615
1.0065
1.00686
1.00724
1.00765
1.00804
1.00841
1.00876
1.00912
1.00948
1.00985
1.01022
1.01056
1.01084
1.01107
1.01122
1.01132
1.01135
1.01133
1.01109
1.01088
1.00973
1.00992
1.00149
1.01745
1.04676
1.04549
1.0452
1.04712
1.04978
1.05485
1.05971
1.0682
1.08017
1.09599
1.11872
1.15901
1.20983
1.23035
1.23791
1.20737
1.14902
1.10572
1.04481
0.971205
0.897445
0.826254
0.760611
0.704396
0.659418
0.615867
0.575569
0.538858
0.506916
0.479059
0.454607
0.432594
0.412531
0.395398
0.380156
0.36782
0.358788
0.350746
0.342936
0.335997
0.329255
0.323806
0.317926
0.311795
0.30552
0.29774
0.290962
0.282155
0.275339
0.267196
0.260958
0.25635
0.25405
0.255282
0.258653
0.268502
0.280144
0.299936
0.317685
0.338126
0.355425
0.364738
0.367438
0.363906
0.356171
0.344914
0.329782
0.314034
0.295214
0.275566
0.253124
0.234594
0.214166
0.202431
0.1882
1.00241
1.00178
1.00193
1.00201
1.00213
1.00227
1.00243
1.00261
1.00281
1.00303
1.00327
1.00354
1.00382
1.0041
1.00442
1.00475
1.00508
1.00543
1.0058
1.00618
1.00655
1.00692
1.00731
1.00773
1.00816
1.00857
1.00895
1.00932
1.00969
1.01007
1.01046
1.01083
1.01118
1.01145
1.01168
1.01186
1.012
1.01209
1.01209
1.01206
1.01162
1.01168
1.00527
1.00927
1.04035
1.03835
1.04181
1.04343
1.04622
1.04835
1.05232
1.05752
1.06634
1.07233
1.0821
1.08838
1.09215
1.10869
1.05713
0.996725
0.91658
0.85008
0.793334
0.743004
0.698916
0.654923
0.616397
0.57837
0.545448
0.514851
0.489322
0.464555
0.445629
0.42772
0.411023
0.395924
0.38205
0.370229
0.359599
0.350585
0.343966
0.338874
0.333517
0.328509
0.323545
0.319073
0.3149
0.310357
0.305357
0.299087
0.293849
0.286063
0.280505
0.273283
0.267575
0.262794
0.260261
0.260487
0.263376
0.272428
0.282854
0.300528
0.316593
0.335135
0.35131
0.360417
0.363198
0.360805
0.354219
0.344534
0.331467
0.318066
0.301442
0.284096
0.262866
0.245604
0.226293
0.215718
0.2031
1.00239
1.00177
1.00192
1.002
1.00212
1.00225
1.00241
1.00259
1.00279
1.00302
1.00325
1.00352
1.0038
1.00409
1.00441
1.00474
1.00508
1.00544
1.00582
1.00621
1.0066
1.00699
1.00738
1.00781
1.00827
1.00871
1.00913
1.00953
1.00992
1.01031
1.01072
1.01114
1.01155
1.01191
1.01222
1.01253
1.01286
1.01317
1.0135
1.01383
1.01421
1.01511
1.01411
1.01672
1.04551
1.04244
1.04536
1.04517
1.04654
1.04659
1.04708
1.04677
1.04687
1.04538
1.03976
1.0083
0.975068
0.914025
0.84798
0.802328
0.75703
0.714444
0.677767
0.642913
0.613344
0.585084
0.561111
0.537938
0.516857
0.493623
0.473311
0.453473
0.437907
0.423704
0.409893
0.39702
0.38554
0.375332
0.365875
0.357167
0.349515
0.343999
0.339219
0.33412
0.329555
0.324947
0.320996
0.316959
0.312547
0.307173
0.302918
0.295904
0.290711
0.284013
0.27831
0.273215
0.269911
0.26895
0.270888
0.278482
0.288046
0.303267
0.318067
0.334179
0.348266
0.357075
0.359732
0.358987
0.352911
0.344657
0.333498
0.322012
0.307533
0.292571
0.273108
0.257232
0.238875
0.229261
0.217994
1.00238
1.00176
1.00191
1.00198
1.0021
1.00224
1.0024
1.00257
1.00277
1.003
1.00323
1.00349
1.00378
1.00408
1.00439
1.00473
1.00508
1.00544
1.00582
1.00623
1.00664
1.00705
1.00745
1.0079
1.00836
1.00885
1.00932
1.00975
1.01017
1.01058
1.01101
1.01146
1.01196
1.01245
1.0129
1.01334
1.01392
1.01449
1.01537
1.01608
1.0184
1.01781
1.03629
1.04662
1.05044
1.0492
1.05063
1.05041
1.05091
1.05098
1.05024
1.04659
1.04295
1.03674
1.00738
0.934505
0.840006
0.770628
0.732369
0.698248
0.672835
0.645238
0.623167
0.60131
0.583274
0.566092
0.550782
0.536736
0.523743
0.509726
0.495489
0.478477
0.463166
0.44812
0.434208
0.420693
0.408236
0.396945
0.386202
0.376064
0.366863
0.359305
0.353458
0.347568
0.342436
0.337047
0.332897
0.328522
0.324328
0.319042
0.315181
0.308856
0.303536
0.297135
0.291104
0.285741
0.281629
0.280016
0.28087
0.286877
0.29513
0.308216
0.320675
0.334979
0.347691
0.355039
0.357525
0.357835
0.352851
0.34635
0.336852
0.327215
0.314899
0.30185
0.283991
0.26912
0.251989
0.243384
0.233205
1.00236
1.00174
1.00189
1.00197
1.00208
1.00221
1.00238
1.00255
1.00275
1.00297
1.00321
1.00347
1.00376
1.00406
1.00437
1.00472
1.00508
1.00544
1.00583
1.00625
1.00668
1.00711
1.00754
1.00798
1.00846
1.00897
1.0095
1.00998
1.01044
1.01088
1.01133
1.01182
1.01236
1.01293
1.01348
1.0139
1.01429
1.01447
1.01476
1.01406
1.01535
1.00771
1.02608
1.05666
1.05406
1.05429
1.05529
1.05539
1.05452
1.05295
1.05175
1.04463
1.02727
1.0011
0.93155
0.831634
0.75501
0.707852
0.677536
0.653696
0.635982
0.620314
0.606266
0.593741
0.58255
0.573246
0.564132
0.556343
0.548349
0.540206
0.531293
0.518338
0.505313
0.489966
0.475188
0.459502
0.444727
0.431041
0.417977
0.405528
0.394042
0.383907
0.375446
0.36806
0.361254
0.354793
0.349579
0.344163
0.339568
0.334057
0.329886
0.324096
0.318553
0.312397
0.306063
0.30046
0.295512
0.293006
0.292481
0.29663
0.303998
0.314533
0.326185
0.33752
0.347444
0.354467
0.356546
0.357496
0.354208
0.349016
0.340752
0.332803
0.322366
0.310334
0.294984
0.2813
0.265599
0.257351
0.2483
1.00234
1.00173
1.00188
1.00195
1.00206
1.00219
1.00235
1.00253
1.00272
1.00295
1.00319
1.00344
1.00373
1.00404
1.00435
1.0047
1.00507
1.00544
1.00584
1.00626
1.00671
1.00716
1.00762
1.00807
1.00856
1.00908
1.00965
1.0102
1.01072
1.01122
1.0117
1.01219
1.01276
1.01339
1.01401
1.01469
1.01527
1.01583
1.01631
1.01656
1.01748
1.0128
1.02418
1.06069
1.05606
1.05753
1.05733
1.05833
1.05693
1.05404
1.05198
1.04416
1.00243
0.937538
0.832939
0.7541
0.704241
0.674624
0.65369
0.638673
0.626438
0.616091
0.606433
0.598302
0.590387
0.584181
0.578031
0.572853
0.567599
0.561913
0.556757
0.548663
0.539639
0.527734
0.515211
0.500468
0.485579
0.470194
0.455761
0.441624
0.427929
0.414656
0.403253
0.393765
0.384867
0.377053
0.370045
0.363062
0.357446
0.351396
0.34648
0.340753
0.334833
0.328557
0.321574
0.315575
0.309806
0.306568
0.305192
0.30771
0.313155
0.321774
0.331096
0.340473
0.348356
0.354338
0.356733
0.357975
0.356236
0.352559
0.345873
0.339077
0.330059
0.319364
0.307072
0.293762
0.27971
0.271085
0.263429
1.00232
1.00171
1.00186
1.00193
1.00204
1.00217
1.00233
1.0025
1.0027
1.00292
1.00316
1.00341
1.0037
1.00401
1.00433
1.00467
1.00505
1.00544
1.00583
1.00626
1.00673
1.00721
1.00769
1.00817
1.00866
1.0092
1.00978
1.01038
1.01098
1.01155
1.0121
1.01262
1.01319
1.01385
1.01454
1.01547
1.0164
1.01765
1.01884
1.02127
1.02287
1.03611
1.0475
1.061
1.05666
1.05813
1.05729
1.05816
1.05775
1.05078
1.03639
1.01673
0.935866
0.83684
0.759024
0.711713
0.681495
0.662031
0.64764
0.637005
0.628476
0.621224
0.613632
0.607697
0.601324
0.596221
0.591044
0.586553
0.58229
0.577737
0.573733
0.569402
0.564192
0.555807
0.546939
0.53536
0.52253
0.507241
0.492322
0.477261
0.461909
0.446564
0.433075
0.421104
0.410664
0.401209
0.392533
0.384119
0.37699
0.370044
0.364291
0.358346
0.35221
0.346027
0.338531
0.33212
0.325691
0.321416
0.319134
0.319799
0.323586
0.329819
0.337806
0.345028
0.352038
0.356893
0.359383
0.360621
0.359123
0.35695
0.35167
0.345835
0.338385
0.329409
0.318901
0.305797
0.293542
0.28476
0.278765
1.0023
1.0017
1.00184
1.00191
1.00202
1.00215
1.0023
1.00248
1.00267
1.00288
1.00313
1.00338
1.00366
1.00397
1.0043
1.00464
1.00502
1.00542
1.00582
1.00626
1.00673
1.00723
1.00775
1.00826
1.00878
1.00932
1.00991
1.01054
1.0112
1.01185
1.01247
1.01307
1.01363
1.0142
1.0148
1.01544
1.01595
1.01643
1.01581
1.017
1.0088
1.02886
1.06249
1.05695
1.05557
1.05546
1.05385
1.05261
1.0511
1.0427
0.998787
0.937782
0.837486
0.763668
0.716819
0.688438
0.669565
0.657404
0.647868
0.640538
0.634339
0.629226
0.622988
0.617687
0.611897
0.606977
0.601879
0.597558
0.593499
0.589829
0.586374
0.583455
0.580796
0.576112
0.57023
0.561445
0.55116
0.538266
0.524277
0.508945
0.493421
0.478359
0.463032
0.449067
0.436847
0.425762
0.415548
0.405824
0.39732
0.389084
0.382258
0.375869
0.369455
0.363378
0.355786
0.348961
0.342381
0.336822
0.333943
0.332843
0.334726
0.338528
0.344652
0.350468
0.355976
0.360472
0.363752
0.365132
0.364012
0.362603
0.358811
0.35389
0.34786
0.340057
0.330676
0.318035
0.307917
0.298805
0.29381
1.00228
1.00168
1.00182
1.00189
1.002
1.00212
1.00227
1.00244
1.00263
1.00284
1.00309
1.00335
1.00362
1.00393
1.00426
1.00461
1.00498
1.00539
1.00581
1.00624
1.00673
1.00724
1.00778
1.00833
1.00888
1.00944
1.01004
1.01068
1.01137
1.0121
1.01281
1.01346
1.01406
1.01461
1.01513
1.01564
1.01616
1.01656
1.01675
1.01734
1.01321
1.02164
1.05995
1.05345
1.05363
1.05209
1.05117
1.04452
1.03202
1.01232
0.930702
0.834876
0.765253
0.721318
0.694169
0.676696
0.665328
0.65783
0.652193
0.647147
0.642398
0.637964
0.632713
0.627615
0.622069
0.61713
0.611757
0.607328
0.603115
0.599552
0.596328
0.593644
0.591709
0.589536
0.586603
0.580539
0.573195
0.563495
0.551798
0.537403
0.52279
0.507023
0.490658
0.475143
0.460923
0.448086
0.436765
0.426217
0.41685
0.407908
0.400258
0.393606
0.387381
0.381658
0.374443
0.367159
0.360477
0.35334
0.34958
0.347259
0.347379
0.349046
0.353086
0.357475
0.362498
0.366374
0.369044
0.371019
0.370685
0.36975
0.366587
0.362157
0.357143
0.350312
0.342265
0.330678
0.321971
0.312154
0.30881
1.00225
1.00166
1.0018
1.00186
1.00197
1.00209
1.00224
1.00241
1.0026
1.0028
1.00304
1.0033
1.00358
1.00388
1.00422
1.00456
1.00494
1.00535
1.00578
1.00622
1.00672
1.00725
1.0078
1.00837
1.00896
1.00955
1.01017
1.01084
1.01156
1.01229
1.01307
1.01382
1.01451
1.01514
1.01577
1.01647
1.01754
1.01863
1.02119
1.0224
1.03986
1.04442
1.05638
1.05103
1.05143
1.05019
1.04657
1.03761
0.991894
0.928629
0.833868
0.768988
0.72782
0.703466
0.686862
0.676392
0.668254
0.662348
0.657542
0.653614
0.64971
0.646269
0.642327
0.638246
0.633466
0.629107
0.623921
0.619076
0.613926
0.610121
0.606407
0.603595
0.601269
0.599656
0.598181
0.595316
0.590741
0.583311
0.574438
0.562868
0.550184
0.534845
0.519493
0.503103
0.487384
0.473044
0.460385
0.448481
0.437828
0.42788
0.419068
0.41139
0.40481
0.398815
0.392032
0.384352
0.377995
0.370065
0.36557
0.362074
0.360832
0.360797
0.362454
0.365108
0.36874
0.372372
0.375054
0.377541
0.37825
0.377648
0.375254
0.371508
0.367404
0.361538
0.354714
0.34405
0.335992
0.325917
0.323481
1.00223
1.00164
1.00177
1.00184
1.00194
1.00206
1.0022
1.00237
1.00256
1.00276
1.00299
1.00325
1.00353
1.00382
1.00416
1.00452
1.00488
1.00529
1.00573
1.00619
1.00669
1.00723
1.0078
1.00839
1.009
1.00964
1.0103
1.01101
1.01175
1.01251
1.01328
1.01405
1.01474
1.01523
1.01551
1.0155
1.01532
1.01368
1.0137
1.0033
1.01295
1.04527
1.0432
1.0424
1.03996
1.03739
1.02348
0.996191
0.920328
0.827702
0.76934
0.731439
0.708632
0.693417
0.682755
0.675281
0.669478
0.66476
0.661121
0.658313
0.655279
0.652373
0.649205
0.645952
0.641877
0.638355
0.633896
0.630016
0.624928
0.620905
0.616625
0.613596
0.61082
0.608993
0.607527
0.606217
0.604051
0.599083
0.592943
0.584169
0.573603
0.560211
0.545646
0.528907
0.512214
0.496316
0.482229