/*--------------------------------*- C++ -*----------------------------------*\
| =========                 |                                                 |
| \\      /  F ield         | OpenFOAM: The Open Source CFD Toolbox           |
|  \\    /   O peration     | Version:  2.2.x                                 |
|   \\  /    A nd           | Web:      www.OpenFOAM.org                      |
|    \\/     M anipulation  |                                                 |
\*---------------------------------------------------------------------------*/
FoamFile
{
    version     2.0;
    format      ascii;
    class       volScalarField;
    location    "1.85";
    object      Ma;
}
// * * * * * * * * * * * * * * * * * * * * * * * * * * * * * * * * * * * * * //

dimensions      [0 0 0 0 0 0 0];

internalField   nonuniform List<scalar> 
14161
(
2.61624
2.6118
2.61285
2.6134
2.61424
2.61527
2.61643
2.61769
2.61921
2.62086
2.62258
2.62436
2.62628
2.62844
2.63054
2.6325
2.63491
2.63696
2.63865
2.6406
2.64244
2.64401
2.64588
2.64713
2.64786
2.64843
2.64864
2.64838
2.64772
2.64669
2.64509
2.64292
2.64
2.63654
2.63241
2.62766
2.62142
2.61595
2.61004
2.60399
2.59731
2.58987
2.58513
2.56245
2.57204
1.5588
0.585821
0.51126
0.54034
0.566655
0.591111
0.613101
0.633922
0.655155
0.677103
0.700021
0.722014
0.742939
0.763508
0.784028
0.802627
0.819561
0.833015
0.843511
0.851573
0.857265
0.861205
0.864008
0.865411
0.86612
0.863897
0.864622
0.863002
0.862039
0.861841
0.865367
0.866497
0.866391
0.866964
0.868021
0.870053
0.87477
0.877993
0.881958
0.88952
0.895476
0.900187
0.9054
0.909895
0.913877
0.917608
0.921524
0.923728
0.921992
0.937659
0.948629
0.962945
0.981302
1.02184
1.0651
1.10978
1.15591
1.16346
1.1577
1.08597
1.07111
0.927
0.780421
0.651833
0.559936
0.492834
0.439457
0.392416
0.347756
0.303801
0.256142
0.203029
0.137068
0.0941364
2.61628
2.61183
2.61291
2.6135
2.61424
2.61513
2.61646
2.61787
2.61925
2.62074
2.6226
2.62447
2.62631
2.6285
2.63059
2.63259
2.63492
2.63697
2.63872
2.64067
2.6425
2.6441
2.64589
2.64715
2.64788
2.64848
2.64871
2.64845
2.64785
2.6468
2.64517
2.64305
2.64029
2.63675
2.6325
2.62786
2.62258
2.61628
2.60947
2.60311
2.59706
2.59118
2.58641
2.5868
2.57128
1.99327
0.677653
0.587724
0.60763
0.621659
0.639156
0.65688
0.674235
0.693193
0.713144
0.735927
0.757946
0.777596
0.797455
0.817055
0.835052
0.850549
0.862393
0.871681
0.878798
0.883937
0.887064
0.88933
0.890079
0.890711
0.887101
0.888144
0.887238
0.886032
0.885824
0.889132
0.889972
0.890676
0.890904
0.891773
0.892881
0.898434
0.901253
0.905306
0.91266
0.917524
0.922399
0.927915
0.933032
0.937555
0.941414
0.945211
0.947476
0.946105
0.962602
0.972289
0.988027
1.00756
1.04851
1.08797
1.12243
1.17649
1.18716
1.2009
1.03548
0.882352
0.69933
0.556099
0.44805
0.376287
0.327659
0.291265
0.261615
0.232714
0.206236
0.174866
0.154221
0.125246
0.145537
2.61624
2.61184
2.61287
2.6134
2.61425
2.61531
2.6164
2.6176
2.61926
2.62093
2.62255
2.62423
2.62636
2.62855
2.63054
2.63258
2.63487
2.63695
2.63877
2.6407
2.64248
2.64412
2.64589
2.64713
2.64795
2.64855
2.64879
2.6486
2.64804
2.647
2.64551
2.64345
2.64067
2.63744
2.63337
2.62844
2.6231
2.6176
2.61177
2.60448
2.59791
2.59338
2.58789
2.59655
2.5969
2.37412
0.738584
0.615464
0.621752
0.630663
0.645832
0.660702
0.679233
0.697279
0.715906
0.73331
0.752611
0.770439
0.78935
0.808001
0.825002
0.839726
0.850907
0.859518
0.86639
0.87161
0.874872
0.877046
0.877723
0.877949
0.874302
0.875292
0.875132
0.873284
0.87303
0.876818
0.878198
0.879049
0.879672
0.880421
0.881576
0.888063
0.89072
0.894721
0.902722
0.908062
0.91346
0.919103
0.924463
0.929495
0.933746
0.937779
0.94047
0.939121
0.954081
0.963795
0.980505
1.00148
1.04281
1.08432
1.12221
1.163
1.16858
1.10758
0.868993
0.681742
0.537066
0.432765
0.347751
0.277584
0.222185
0.181704
0.153596
0.132564
0.122287
0.116636
0.125539
0.131541
0.199205
2.61625
2.61183
2.61291
2.6135
2.61424
2.61513
2.61646
2.61786
2.61924
2.6207
2.62262
2.62454
2.62636
2.62833
2.63058
2.63272
2.63485
2.63698
2.63891
2.64077
2.64256
2.64428
2.64588
2.64724
2.64809
2.64873
2.64896
2.64887
2.64836
2.64746
2.64604
2.64412
2.64151
2.63829
2.63441
2.63036
2.62496
2.61881
2.61211
2.60493
2.59782
2.59064
2.58133
2.58136
2.58445
1.92006
0.67402
0.579996
0.591491
0.601038
0.617983
0.634304
0.653728
0.673397
0.693855
0.715106
0.73686
0.75802
0.779501
0.799944
0.818612
0.8349
0.847615
0.857931
0.865293
0.8715
0.875838
0.87916
0.880402
0.880997
0.877372
0.878757
0.879758
0.877699
0.877301
0.882229
0.884114
0.885376
0.886016
0.886062
0.886833
0.89339
0.895871
0.898096
0.906324
0.910273
0.916058
0.921181
0.926395
0.931635
0.935991
0.94003
0.943392
0.942791
0.957762
0.967916
0.982394
1.01037
1.04311
1.08023
1.11716
1.15024
1.12789
0.835676
0.633951
0.48118
0.417326
0.368552
0.319301
0.26724
0.215135
0.165869
0.133143
0.110397
0.100681
0.10225
0.123019
0.14029
0.222693
2.61623
2.61184
2.61287
2.61339
2.61426
2.61534
2.61642
2.61762
2.61927
2.62096
2.62258
2.62428
2.62642
2.62854
2.63058
2.63263
2.63483
2.637
2.63899
2.64079
2.64259
2.64438
2.64593
2.64737
2.64833
2.64899
2.64929
2.64931
2.64889
2.64812
2.64686
2.64499
2.64298
2.64005
2.63624
2.63234
2.62799
2.6226
2.61544
2.6078
2.59916
2.5892
2.57661
2.55569
2.52966
1.66222
0.626367
0.537274
0.553204
0.569284
0.592703
0.615902
0.639472
0.663956
0.688187
0.712744
0.737664
0.758344
0.7833
0.80493
0.824695
0.840673
0.852311
0.862097
0.869511
0.875807
0.880319
0.88428
0.886056
0.887597
0.883025
0.884658
0.885668
0.884227
0.883339
0.888967
0.891252
0.892596
0.893821
0.892825
0.893563
0.900402
0.902617
0.90475
0.912918
0.916079
0.922099
0.926777
0.932075
0.937445
0.941525
0.945384
0.949169
0.947528
0.960533
0.969619
0.984872
1.01578
1.04752
1.06699
1.13402
1.12142
0.872393
0.640783
0.50528
0.418976
0.368234
0.330031
0.295029
0.260146
0.226994
0.189597
0.154918
0.126801
0.115711
0.114176
0.131896
0.149613
0.237267
2.61624
2.61182
2.61291
2.6135
2.61425
2.61515
2.61646
2.61788
2.61926
2.62072
2.62262
2.6246
2.62643
2.62833
2.63065
2.63285
2.63484
2.63697
2.63912
2.64089
2.6427
2.64453
2.64605
2.64753
2.64867
2.64935
2.64972
2.64988
2.64957
2.64892
2.64782
2.64622
2.64465
2.64224
2.6391
2.63532
2.63115
2.62649
2.61994
2.61038
2.59967
2.58922
2.58056
2.55848
2.54488
1.45522
0.574885
0.504031
0.523397
0.550313
0.579738
0.610215
0.63905
0.666729
0.694975
0.721921
0.748803
0.772968
0.800181
0.821719
0.843513
0.860168
0.87314
0.88338
0.890217
0.895577
0.899463
0.902852
0.905229
0.906464
0.904406
0.904749
0.904346
0.904568
0.900581
0.906722
0.908842
0.910819
0.913293
0.91072
0.911166
0.916829
0.920122
0.920659
0.92838
0.931072
0.936277
0.940951
0.946419
0.951485
0.955576
0.95937
0.962516
0.963101
0.973276
0.983559
1.00031
1.03534
1.06909
1.09454
1.1206
0.912442
0.683428
0.548043
0.494013
0.441425
0.381991
0.331755
0.291486
0.259815
0.233532
0.205983
0.178975
0.150796
0.13688
0.130337
0.143606
0.159329
0.250658
2.61621
2.61183
2.61287
2.61342
2.61428
2.61533
2.61645
2.61771
2.61928
2.62096
2.62261
2.6244
2.6265
2.62843
2.63061
2.63285
2.63486
2.63695
2.63923
2.641
2.64279
2.6447
2.64622
2.64763
2.64902
2.64979
2.65026
2.65049
2.65041
2.64986
2.64924
2.64815
2.64653
2.64472
2.64257
2.64007
2.63694
2.6324
2.62691
2.61916
2.61322
2.60057
2.58177
2.5521
2.53719
1.60408
0.593041
0.501857
0.524338
0.560997
0.596501
0.631621
0.664549
0.695396
0.726499
0.756952
0.783002
0.811623
0.837146
0.862325
0.875856
0.901843
0.91462
0.926356
0.93366
0.93794
0.940809
0.944743
0.947802
0.950386
0.945695
0.947949
0.947393
0.944967
0.942133
0.945973
0.947162
0.947305
0.949864
0.949111
0.947895
0.951333
0.954292
0.955357
0.959175
0.96197
0.965101
0.967386
0.972207
0.976716
0.979834
0.983285
0.986141
0.98854
0.990008
1.00777
1.02441
1.05168
1.07011
1.11879
0.99046
0.734707
0.61235
0.538108
0.519637
0.469293
0.411299
0.354265
0.308366
0.274341
0.249261
0.224915
0.203
0.176123
0.159913
0.149366
0.158848
0.170975
0.264532
2.61618
2.61179
2.61287
2.61342
2.61428
2.61532
2.61645
2.61778
2.61931
2.62088
2.62258
2.62451
2.62648
2.62839
2.63065
2.63291
2.63491
2.63698
2.63934
2.64113
2.64291
2.64492
2.64651
2.64784
2.64929
2.65031
2.6509
2.65126
2.65139
2.65122
2.65073
2.64999
2.64931
2.64833
2.64651
2.6447
2.64297
2.64039
2.63807
2.63565
2.63104
2.62348
2.62104
2.61541
2.61963
1.78721
0.618752
0.519426
0.558837
0.595974
0.638251
0.672796
0.711284
0.741653
0.778631
0.810915
0.843834
0.872422
0.901799
0.917535
0.951377
0.966954
0.983455
0.995401
1.00843
1.01294
1.01702
1.02169
1.02368
1.02541
1.02381
1.02658
1.02771
1.02348
1.02084
1.02333
1.02355
1.02355
1.02494
1.023
1.02298
1.02182
1.02386
1.0244
1.02298
1.02667
1.02827
1.02854
1.02938
1.03101
1.03071
1.03015
1.03003
1.03218
1.03093
1.04671
1.05522
1.06821
1.10114
1.00619
0.773498
0.644276
0.622883
0.606851
0.57288
0.516335
0.448969
0.382705
0.330777
0.292822
0.266783
0.242933
0.223214
0.19891
0.183098
0.170282
0.177991
0.185282
0.280329
2.61615
2.61177
2.61287
2.61346
2.61423
2.61516
2.61642
2.61783
2.61924
2.6209
2.62257
2.62449
2.6265
2.62842
2.6306
2.63293
2.63497
2.63702
2.63938
2.64125
2.6431
2.64513
2.64681
2.64817
2.64959
2.65091
2.65163
2.65217
2.65256
2.6527
2.65264
2.6525
2.65213
2.65198
2.65161
2.6509
2.65003
2.64939
2.6491
2.6482
2.64889
2.6472
2.64245
2.62975
2.5993
1.75667
0.622154
0.509797
0.595664
0.650257
0.708408
0.746896
0.798077
0.82618
0.870841
0.893271
0.936512
0.967093
0.981363
1.00895
1.01674
1.0525
1.06664
1.06641
1.07931
1.08446
1.08718
1.08805
1.08899
1.09134
1.08667
1.08816
1.0899
1.08767
1.08389
1.08564
1.08603
1.08653
1.08766
1.08807
1.08749
1.08956
1.09084
1.09382
1.09498
1.09607
1.09732
1.09809
1.09817
1.09751
1.09813
1.0927
1.09021
1.08622
1.08397
1.08736
1.09123
1.10517
1.0011
0.80553
0.698973
0.622342
0.628599
0.62871
0.595497
0.546696
0.47541
0.406004
0.34917
0.308229
0.2811
0.257794
0.239725
0.217309
0.203153
0.189575
0.197778
0.200289
0.296288
2.61609
2.61176
2.61283
2.61339
2.61424
2.61531
2.6164
2.61765
2.61923
2.62094
2.62258
2.62446
2.62653
2.62847
2.6306
2.63296
2.63504
2.63708
2.6394
2.64144
2.64336
2.64533
2.64714
2.6486
2.64994
2.65146
2.65252
2.65327
2.6539
2.6543
2.65455
2.65481
2.65544
2.65601
2.65653
2.65731
2.65863
2.66112
2.66434
2.66963
2.67638
2.69123
2.7134
2.75287
2.80972
2.78435
0.925927
0.601212
0.766874
0.818193
0.870958
0.895648
0.932691
0.943256
0.97829
0.977819
1.01864
1.03953
1.05287
1.06566
1.07941
1.09261
1.1152
1.10535
1.11819
1.1221
1.12406
1.12433
1.1245
1.12414
1.1205
1.12248
1.12341
1.123
1.11789
1.11882
1.11929
1.12142
1.1228
1.12353
1.12502
1.12597
1.12733
1.13099
1.13277
1.13528
1.13781
1.13871
1.13813
1.13883
1.13551
1.12801
1.12508
1.11746
1.11552
1.1099
1.09636
0.95719
0.795935
0.681572
0.668689
0.701865
0.689805
0.679633
0.638844
0.58409
0.508087
0.433246
0.371544
0.326919
0.297818
0.27386
0.256385
0.235132
0.221911
0.207229
0.216888
0.216873
0.313564
2.61604
2.61172
2.6128
2.61335
2.61425
2.61519
2.61641
2.61777
2.61922
2.62082
2.62259
2.62443
2.62649
2.6285
2.63058
2.63295
2.63515
2.6372
2.63934
2.64162
2.64363
2.64553
2.64742
2.64909
2.6505
2.65199
2.65353
2.6546
2.65545
2.65629
2.6568
2.65734
2.65822
2.66001
2.66171
2.66395
2.66638
2.67024
2.67333
2.67779
2.68329
2.69035
2.69921
2.70122
2.70468
2.66458
2.06765
0.843934
0.929111
0.933256
0.970238
0.997986
1.00314
1.04194
1.02212
1.03909
1.03891
1.06865
1.09753
1.07378
1.10062
1.09932
1.13138
1.13051
1.12626
1.13855
1.13814
1.13929
1.13881
1.13921
1.13627
1.13546
1.13676
1.13549
1.13315
1.13302
1.13267
1.13455
1.13613
1.13794
1.13879
1.13901
1.13905
1.14281
1.14408
1.14503
1.14564
1.14347
1.14263
1.14177
1.13763
1.12917
1.12504
1.09492
1.07018
1.00053
0.860305
0.714574
0.639773
0.588341
0.644858
0.694082
0.693674
0.683042
0.649292
0.596402
0.524141
0.451857
0.389764
0.342448
0.311944
0.287612
0.270912
0.250844
0.238604
0.222224
0.234837
0.233836
0.330242
2.616
2.61169
2.61277
2.61338
2.61417
2.61518
2.6164
2.6177
2.61918
2.62087
2.62258
2.62435
2.62648
2.62853
2.63056
2.63294
2.63521
2.63732
2.63934
2.64182
2.64399
2.64582
2.64771
2.64961
2.65116
2.65261
2.65455
2.65612
2.65728
2.65836
2.65925
2.65984
2.66102
2.66292
2.66632
2.66933
2.67343
2.67861
2.68634
2.69647
2.7069
2.73036
2.76919
2.83383
2.95238
3.16304
1.68861
1.16022
1.06502
1.03826
0.984564
1.0142
0.997375
1.02915
1.02304
1.0093
1.0381
1.03366
1.08372
1.05132
1.08982
1.08367
1.10259
1.10683
1.10925
1.11555
1.11581
1.11724
1.11652
1.11653
1.11412
1.11325
1.11533
1.11446
1.11466
1.11477
1.113
1.11727
1.11984
1.12229
1.12499
1.12553
1.12451
1.1283
1.13176
1.13497
1.13731
1.13062
1.12736
1.12186
1.09376
1.06707
1.02407
0.949457
0.83993
0.727771
0.610326
0.540119
0.523377
0.609236
0.672235
0.720933
0.723742
0.706545
0.667807
0.605887
0.530403
0.459054
0.403249
0.357349
0.326615
0.302583
0.287043
0.267893
0.255745
0.237829
0.25207
0.248994
0.345728
2.61594
2.61166
2.61272
2.61329
2.61416
2.6152
2.61634
2.61767
2.61912
2.6208
2.62258
2.62433
2.62642
2.62855
2.6306
2.63283
2.63529
2.63746
2.63943
2.64199
2.64428
2.64618
2.64806
2.65003
2.65193
2.65355
2.6554
2.65755
2.65913
2.66046
2.66188
2.66272
2.66383
2.66542
2.66956
2.67342
2.67754
2.68243
2.6869
2.68968
2.69093
2.69556
2.68286
2.6877
2.58274
2.17038
1.40202
1.16088
1.03585
1.0682
0.953128
0.950079
0.975921
0.963229
1.0032
0.973509
1.01348
1.00958
1.0489
1.04471
1.07281
1.08329
1.07604
1.09307
1.10052
1.10442
1.10726
1.10912
1.10905
1.10969
1.10989
1.10741
1.10996
1.10827
1.10975
1.10762
1.1072
1.10982
1.11185
1.11343
1.11406
1.11599
1.10926
1.10966
1.1099
1.10587
1.08692
1.06714
1.03664
0.985731
0.926147
0.833
0.744953
0.661111
0.569935
0.486694
0.448652
0.457947
0.511397
0.566965
0.633819
0.687197
0.700291
0.691734
0.667529
0.619501
0.544853
0.470762
0.416947
0.372257
0.3419
0.317808
0.302941
0.284508
0.272796
0.254205
0.268817
0.262595
0.36254
2.61586
2.6116
2.61269
2.61326
2.61415
2.6151
2.61629
2.61766
2.61907
2.62074
2.62256
2.62432
2.62635
2.62855
2.63063
2.63276
2.63535
2.63759
2.63962
2.6421
2.64457
2.64658
2.64848
2.65052
2.65268
2.65449
2.6563
2.6589
2.66098
2.66267
2.66419
2.66574
2.66653
2.66848
2.67081
2.67598
2.6798
2.68357
2.68701
2.68964
2.69132
2.69515
2.69301
2.70361
2.62924
1.55721
1.23217
1.18904
1.13604
1.1372
1.02556
0.950618
0.964555
0.931957
0.972572
0.949467
1.00142
1.00125
1.01961
1.04343
1.05312
1.07758
1.06982
1.08215
1.08904
1.09379
1.09748
1.09852
1.09713
1.09778
1.09818
1.09682
1.09878
1.0972
1.09812
1.09462
1.09481
1.09365
1.09279
1.09118
1.08263
1.07859
1.05921
1.04196
1.01746
0.969558
0.925813
0.842019
0.766383
0.693036
0.62235
0.548187
0.483293
0.428857
0.408902
0.393452
0.40308
0.438569
0.500385
0.57197
0.634523
0.686742
0.7014
0.691167
0.65877
0.610031
0.545118
0.474581
0.42596
0.384477
0.355666
0.332711
0.318932
0.300964
0.289314
0.270266
0.283552
0.275878
0.378228
2.61579
2.61155
2.61265
2.61326
2.61405
2.61505
2.61623
2.61763
2.61902
2.62064
2.62251
2.62432
2.62625
2.62857
2.63068
2.63276
2.63537
2.63773
2.63986
2.64222
2.64479
2.64703
2.64899
2.65112
2.65341
2.65553
2.65748
2.65991
2.66258
2.66469
2.66645
2.66837
2.66942
2.67081
2.67275
2.67577
2.67995
2.68283
2.68601
2.68923
2.6945
2.70334
2.7212
2.75626
2.84732
1.38803
1.21414
1.20465
1.19629
1.1915
1.07554
1.04827
0.90933
0.906483
0.922098
0.929289
0.96109
0.957028
1.01593
1.01736
1.05556
1.07237
1.06547
1.0774
1.08025
1.08515
1.0902
1.09128
1.08886
1.08856
1.0885
1.08662
1.08722
1.08148
1.0802
1.07027
1.06584
1.05496
1.03254
1.01734
0.978593
0.943946
0.880961
0.816111
0.751351
0.68827
0.62471
0.559586
0.498876
0.444093
0.40958
0.378907
0.372998
0.362334
0.364468
0.376363
0.4026
0.43485
0.481015
0.540276
0.598746
0.651939
0.672133
0.674671
0.657124
0.609781
0.544291
0.476241
0.432509
0.394876
0.368596
0.347022
0.334643
0.317132
0.305369
0.285825
0.297477
0.289051
0.393872
2.61572
2.6115
2.61258
2.61315
2.61403
2.61501
2.61619
2.61758
2.61897
2.62056
2.62247
2.6243
2.62619
2.62853
2.6307
2.6328
2.63536
2.63784
2.64008
2.64236
2.64495
2.64746
2.64959
2.65183
2.65414
2.65658
2.65866
2.66088
2.66404
2.66649
2.66854
2.67039
2.67224
2.67304
2.67481
2.67671
2.6794
2.68191
2.68226
2.68079
2.6789
2.66799
2.66647
2.60548
2.15792
1.23202
1.16303
1.16976
1.17834
1.18044
1.14717
1.13457
0.975789
0.926931
0.872888
0.927668
0.931772
0.970554
1.00049
0.994051
1.07237
1.05667
1.05476
1.06643
1.0649
1.06771
1.07133
1.07021
1.06532
1.06121
1.0596
1.04674
1.04041
1.01549
1.00043
0.968292
0.937535
0.887226
0.834854
0.774124
0.718617
0.660392
0.608954
0.548562
0.494153
0.448317
0.414852
0.391899
0.376377
0.365024
0.359199
0.347406
0.345306
0.353465
0.369456
0.38101
0.404366
0.433597
0.475243
0.532033
0.587475
0.640395
0.655256
0.657757
0.642162
0.598496
0.53995
0.476752
0.437938
0.403924
0.380135
0.360508
0.349709
0.332918
0.321023
0.300799
0.310846
0.301874
0.408567
2.61564
2.61144
2.61252
2.6131
2.61394
2.61498
2.61609
2.61747
2.61894
2.62047
2.62238
2.62427
2.62612
2.62845
2.63071
2.63286
2.63526
2.63792
2.64039
2.64267
2.64501
2.64782
2.6503
2.65259
2.65503
2.65769
2.65992
2.66219
2.66511
2.66817
2.67051
2.67244
2.67429
2.67548
2.67638
2.67761
2.67873
2.68036
2.67865
2.67591
2.67078
2.65929
2.64743
2.58484
1.60163
1.13253
1.12626
1.14205
1.15674
1.16452
1.17165
1.17864
1.07508
1.04649
0.894374
0.922941
0.893939
0.987098
0.980844
1.02272
1.05135
1.04177
1.0465
1.05308
1.04769
1.04584
1.04394
1.03095
1.0159
0.994294
0.972947
0.929122
0.89046
0.833305
0.776428
0.725109
0.66998
0.623576
0.569102
0.518626
0.474788
0.436357
0.411795
0.395265
0.379825
0.374449
0.365502
0.359609
0.352896
0.348474
0.355333
0.353711
0.35516
0.359383
0.372971
0.387021
0.406728
0.432486
0.46628
0.51278
0.563583
0.61508
0.638222
0.642556
0.630514
0.591237
0.53582
0.476125
0.441833
0.411768
0.390886
0.373161
0.363891
0.348171
0.336323
0.315384
0.323758
0.31431
0.422645
2.61555
2.61139
2.61247
2.61307
2.61387
2.61487
2.61602
2.6174
2.61888
2.62036
2.6223
2.62424
2.6261
2.62833
2.63071
2.6329
2.63518
2.63803
2.64063
2.64301
2.6453
2.64805
2.65091
2.65342
2.65598
2.6588
2.66127
2.66348
2.66609
2.66982
2.67253
2.67458
2.67629
2.67775
2.67824
2.67941
2.6804
2.6821
2.68304
2.68493
2.68819
2.6905
2.70402
2.69528
1.40907
1.13341
1.122
1.13409
1.14236
1.15575
1.16871
1.17687
1.1699
1.15516
1.00734
0.959751
0.901174
0.978205
0.951169
1.03029
1.02254
1.02015
1.01314
1.00454
0.985175
0.966382
0.939764
0.888179
0.842262
0.783215
0.729193
0.678702
0.627713
0.576884
0.526506
0.480221
0.441609
0.412848
0.395787
0.381425
0.373328
0.369903
0.364811
0.365376
0.359585
0.359266
0.365172
0.365464
0.363592
0.358979
0.359689
0.360818
0.363861
0.367738
0.37946
0.392956
0.410177
0.432783
0.462313
0.502783
0.549238
0.59859
0.621938
0.626295
0.615523
0.581004
0.531243
0.476351
0.445713
0.41899
0.400827
0.385173
0.37729
0.362708
0.351107
0.329573
0.336385
0.326483
0.436042
2.61546
2.61133
2.61239
2.61297
2.61381
2.61484
2.61594
2.61726
2.61881
2.6203
2.62214
2.62416
2.62608
2.62819
2.63069
2.63298
2.63521
2.63801
2.64084
2.64339
2.64567
2.64821
2.6514
2.6543
2.65706
2.65991
2.66259
2.66486
2.66734
2.67093
2.67444
2.67679
2.67846
2.68012
2.6812
2.68216
2.68361
2.68543
2.68845
2.69382
2.69894
2.71567
2.72098
2.69527
1.30965
1.1321
1.12259
1.11967
1.11897
1.13089
1.14354
1.15025
1.16749
1.15551
1.14008
0.998312
0.963144
0.893297
0.985719
0.947684
0.958326
0.924676
0.898074
0.845527
0.80111
0.742738
0.691352
0.639859
0.586841
0.534039
0.485021
0.447154
0.417629
0.398238
0.382289
0.372023
0.36497
0.359983
0.356256
0.356672
0.35406
0.356002
0.3605
0.366985
0.367328
0.365856
0.368639
0.371317
0.37075
0.366938
0.368806
0.370208
0.372128
0.375847
0.384873
0.397536
0.412617
0.432632
0.459205
0.494295
0.536149
0.581745
0.606232
0.610586
0.601618
0.571804
0.527195
0.477195
0.449255
0.42582
0.410392
0.39656
0.389915
0.376623
0.36542
0.343424
0.34873
0.338352
0.448776
2.61536
2.61126
2.61231
2.61291
2.6137
2.6147
2.61585
2.61715
2.6187
2.62024
2.62197
2.62407
2.62604
2.62805
2.63064
2.63302
2.63527
2.63793
2.64099
2.64376
2.64611
2.64863
2.65156
2.65505
2.65822
2.6611
2.66395
2.66648
2.66874
2.67158
2.67612
2.67907
2.68092
2.6825
2.68357
2.68372
2.68378
2.68354
2.68163
2.67958
2.67
2.66404
2.6097
1.92755
1.12426
1.09131
1.09776
1.10319
1.10724
1.11584
1.12064
1.1385
1.15048
1.16965
1.14755
1.11564
0.961821
0.872278
0.835231
0.814927
0.750996
0.728161
0.658469
0.606664
0.558684
0.506063
0.463642
0.431745
0.406034
0.387027
0.369447
0.358953
0.35154
0.345802
0.343547
0.341269
0.343607
0.350613
0.3558
0.361252
0.36282
0.364352
0.365984
0.371319
0.375306
0.374589
0.376529
0.379383
0.379616
0.376145
0.376691
0.378706
0.380477
0.383083
0.390813
0.401803
0.415848
0.433176
0.456462
0.487628
0.52525
0.566893
0.591452
0.595606
0.588343
0.562822
0.523266
0.478818
0.453245
0.432513
0.419314
0.407293
0.401735
0.389915
0.379062
0.356977
0.361018
0.350004
0.461011
2.61525
2.61119
2.61223
2.61277
2.6136
2.61465
2.61574
2.617
2.61858
2.62016
2.62181
2.62394
2.62596
2.62795
2.63052
2.63304
2.63532
2.63787
2.64112
2.64399
2.64676
2.6491
2.6518
2.65545
2.65922
2.66244
2.66537
2.66831
2.67047
2.67302
2.67669
2.68115
2.68391
2.6857
2.68744
2.68903
2.69002
2.69043
2.69045
2.69086
2.68884
2.69064
2.65503
1.5301
1.07402
1.06618
1.08008
1.08791
1.09842
1.10863
1.1178
1.12836
1.1431
1.14738
1.12823
1.03854
0.905296
0.708678
0.623617
0.589983
0.53235
0.48606
0.455304
0.425816
0.404775
0.384758
0.373757
0.364748
0.359644
0.354762
0.351824
0.346366
0.349045
0.34834
0.350226
0.350543
0.349391
0.352624
0.357885
0.364287
0.367364
0.369746
0.371032
0.375202
0.380046
0.380617
0.382425
0.385353
0.386795
0.384368
0.385126
0.386806
0.389273
0.390864
0.396901
0.406297
0.418493
0.433896
0.455156
0.482313
0.515789
0.553646
0.577828
0.581959
0.576067
0.554531
0.520868
0.481006
0.45751
0.439087
0.428009
0.417286
0.412687
0.402466
0.392177
0.370235
0.373083
0.361427
0.472712
2.61516
2.6111
2.61213
2.61269
2.61348
2.61449
2.61566
2.61684
2.61842
2.62005
2.62166
2.62377
2.62588
2.62789
2.63034
2.63301
2.6354
2.63789
2.64111
2.64422
2.64725
2.64976
2.65233
2.6554
2.66003
2.66375
2.66698
2.67015
2.67272
2.67487
2.67746
2.68275
2.68694
2.68948
2.69166
2.6938
2.69635
2.6972
2.69794
2.69928
2.69818
2.7093
2.69836
1.37304
1.08226
1.08087
1.08981
1.09233
1.09794
1.10274
1.10678
1.10864
1.1051
1.10699
1.03455
0.860701
0.669153
0.511078
0.454477
0.443341
0.423346
0.40431
0.390629
0.378136
0.368559
0.35949
0.351942
0.34929
0.350866
0.351089
0.35411
0.351552
0.355282
0.356949
0.359885
0.363111
0.362233
0.363492
0.366714
0.371771
0.375762
0.379322
0.379759
0.382503
0.386963
0.388561
0.389599
0.392047
0.394042
0.392405
0.393195
0.394561
0.397414
0.397995
0.40252
0.410301
0.421503
0.435959
0.454766
0.478127
0.507834
0.541721
0.565969
0.569602
0.565033
0.547499
0.519164
0.483771
0.462058
0.44553
0.435982
0.4267
0.422921
0.414211
0.4047
0.383099
0.384939
0.372705
0.48424
2.61504
2.61102
2.61202
2.61257
2.61337
2.61435
2.61553
2.6167
2.61823
2.61993
2.62155
2.62354
2.62575
2.62781
2.63013
2.63294
2.6355
2.63793
2.64086
2.6445
2.6476
2.65063
2.65292
2.65591
2.66
2.66485
2.66868
2.67199
2.67526
2.67718
2.67999
2.68305
2.68969
2.69395
2.69734
2.70052
2.70511
2.70959
2.71744
2.72273
2.73863
2.75453
2.75933
1.28831
1.11201
1.10016
1.09931
1.0986
1.10124
1.1035
1.10488
1.09932
1.07433
1.04763
0.891088
0.664836
0.491167
0.407528
0.407551
0.406677
0.408382
0.400743
0.39584
0.389199
0.385618
0.380819
0.378221
0.374427
0.373349
0.372682
0.375032
0.372629
0.37499
0.37623
0.378214
0.380947
0.380345
0.3783
0.378493
0.381312
0.384371
0.388143
0.387815
0.389155
0.392516
0.395252
0.394965
0.396868
0.399273
0.398982
0.40005
0.401287
0.404502
0.405003
0.408964
0.415991
0.426347
0.438887
0.455483
0.475968
0.501258
0.531532
0.554937
0.559397
0.555729
0.541359
0.518149
0.487006
0.466957
0.451906
0.443713
0.435316
0.432378
0.425366
0.41664
0.395636
0.396546
0.383963
0.495084
2.61491
2.61091
2.61191
2.61244
2.61326
2.61419
2.61538
2.61658
2.61801
2.61976
2.62143
2.62328
2.62557
2.62773
2.62993
2.63284
2.63555
2.63792
2.64072
2.64463
2.64798
2.65132
2.65387
2.65651
2.65979
2.66563
2.67023
2.6741
2.67756
2.68044
2.6826
2.68593
2.69017
2.6974
2.70213
2.70492
2.70746
2.70874
2.71102
2.70259
2.706
2.65756
2.03376
1.17932
1.11741
1.11202
1.10868
1.10768
1.10476
1.10137
1.09787
1.07867
0.999031
0.901203
0.66679
0.483835
0.400359
0.385029
0.401967
0.408513
0.411716
0.411776
0.411827
0.40917
0.407123
0.403467
0.401755
0.398629
0.397536
0.394043
0.393461
0.39196
0.393711
0.394463
0.39599
0.397509
0.399057
0.396685
0.393878
0.393534
0.394588
0.397682
0.398813
0.398795
0.400543
0.403668
0.402829
0.404165
0.406709
0.407274
0.408441
0.409602
0.412911
0.413283
0.416359
0.42185
0.43043
0.441677
0.456152
0.474341
0.496577
0.523328
0.546723
0.5502
0.548647
0.537443
0.517832
0.490485
0.471862
0.458009
0.451164
0.443456
0.441097
0.435515
0.428532
0.407711
0.407664
0.395148
0.505304
2.61477
2.61081
2.61179
2.61232
2.61314
2.61403
2.6152
2.61644
2.61778
2.61955
2.62129
2.62304
2.62537
2.6276
2.62978
2.63262
2.63545
2.63798
2.64071
2.64445
2.64828
2.65172
2.65506
2.65727
2.66068
2.66506
2.67131
2.67607
2.68011
2.68391
2.68617
2.68898
2.69281
2.69806
2.70562
2.71152
2.71593
2.72049
2.72396
2.72361
2.72931
2.69573
1.49708
1.14463
1.12379
1.12249
1.11855
1.11549
1.10955
1.09847
1.07721
1.0445
0.868894
0.675475
0.486013
0.403256
0.385973
0.405042
0.418357
0.42726
0.431935
0.432436
0.433694
0.431659
0.430046
0.426656
0.424707
0.421389
0.42001
0.416688
0.414489
0.412974
0.414303
0.414704
0.41777
0.417929
0.420949
0.419518
0.415175
0.410452
0.4088
0.410206
0.410943
0.409267
0.408625
0.41042
0.410121
0.410323
0.412271
0.413627
0.415032
0.416223
0.419548
0.420688
0.423669
0.428841
0.436863
0.447205
0.460023
0.474097
0.492733
0.515969
0.539134
0.544079
0.542727
0.534668
0.518815
0.494464
0.476708
0.464025
0.458555
0.450782
0.44943
0.445228
0.439884
0.419144
0.418482
0.406192
0.515234
2.61463
2.61069
2.61167
2.61219
2.61298
2.61385
2.61501
2.61629
2.61756
2.61931
2.62111
2.62283
2.62505
2.62742
2.62965
2.6323
2.6353
2.63804
2.64073
2.64405
2.64848
2.65219
2.65586
2.65838
2.66141
2.66496
2.67157
2.67735
2.68234
2.6865
2.69075
2.69317
2.69636
2.70114
2.70608
2.71751
2.72503
2.73522
2.74726
2.77023
2.79892
2.86773
1.35165
1.15605
1.13544
1.1338
1.12588
1.1207
1.11074
1.08119
0.996861
0.908152
0.650273
0.476132
0.40239
0.38662
0.409339
0.421693
0.434004
0.440391
0.444848
0.446318
0.448816
0.448656
0.447678
0.445377
0.443884
0.441027
0.43965
0.436732
0.435393
0.432551
0.43232
0.431758
0.434215
0.434033
0.437148
0.438575
0.437268
0.432155
0.427643
0.426374
0.426143
0.42444
0.421855
0.422614
0.422284
0.421275
0.422574
0.423772
0.425046
0.425883
0.429127
0.43075
0.433046
0.436832
0.442745
0.450728
0.461357
0.474385
0.49074
0.51132
0.534077
0.539688
0.539955
0.533902
0.520221
0.498179
0.481736
0.470001
0.465829
0.457733
0.457549
0.45458
0.449923
0.430272
0.428873
0.416944
0.523887
2.61447
2.61057
2.61154
2.61202
2.61282
2.61367
2.61479
2.61609
2.61736
2.61901
2.62089
2.62264
2.62467
2.62717
2.62949
2.63196
2.63509
2.63802
2.6406
2.64377
2.6485
2.6525
2.65622
2.65966
2.6622
2.66624
2.67096
2.67816
2.68398
2.68922
2.69361
2.69821
2.70074
2.7041
2.70858
2.713
2.72155
2.72441
2.71843
2.72158
2.66908
2.08484
1.18955
1.13029
1.12674
1.12527
1.11812
1.10817
1.08093
1.0324
0.84286
0.656035
0.471511
0.401243
0.393063
0.412843
0.427346
0.439523
0.448795
0.454729
0.458073
0.459969
0.462345
0.4632
0.462892
0.46144
0.460375
0.458034
0.457201
0.454505
0.453747
0.451132
0.450071
0.44813
0.449379
0.449191
0.452005
0.452675
0.45477
0.452375
0.448092
0.442199
0.439783
0.437614
0.433216
0.432481
0.432063
0.430058
0.430471
0.43122
0.43259
0.433442
0.436665
0.439062
0.441234
0.444634
0.450195
0.457477
0.467327
0.47802
0.488951
0.506549
0.529478
0.53672
0.536999
0.53367
0.523495
0.503789
0.488249
0.476554
0.473025
0.464543
0.465476
0.463659
0.45927
0.44095
0.438714
0.427748
0.533505
2.61432
2.61043
2.61138
2.61185
2.61264
2.61347
2.61453
2.61585
2.61716
2.61867
2.6206
2.62243
2.6243
2.62683
2.62928
2.63166
2.63475
2.63783
2.64048
2.64358
2.64824
2.65261
2.65656
2.66049
2.66295
2.66703
2.67126
2.67876
2.68495
2.69103
2.6966
2.7012
2.70579
2.70808
2.71127
2.71533
2.71888
2.72566
2.7258
2.7299
2.69897
1.47601
1.11589
1.10702
1.10979
1.11098
1.10503
1.07864
0.996524
0.886944
0.627013
0.467158
0.401397
0.399639
0.418416
0.431406
0.444245
0.45232
0.458806
0.464238
0.467637
0.469892
0.47236
0.47391
0.474666
0.474326
0.474132
0.472576
0.472476
0.470273
0.470003
0.467437
0.46709
0.464563
0.464652
0.463858
0.465728
0.465598
0.467991
0.468708
0.46739
0.461778
0.458225
0.455272
0.450245
0.448345
0.447133
0.44442
0.443849
0.443612
0.444287
0.444523
0.44715
0.449678
0.451451
0.453652
0.457472
0.462238
0.470064
0.479376
0.490948
0.504937
0.526426
0.53635
0.537282
0.534402
0.525417
0.509291
0.494553
0.482684
0.479789
0.471448
0.473238
0.472263
0.468207
0.451162
0.448018
0.438565
0.53995
2.61414
2.6103
2.61121
2.61167
2.61244
2.6133
2.61426
2.61557
2.61692
2.61832
2.62025
2.62215
2.62399
2.62637
2.62898
2.63144
2.63423
2.63748
2.64038
2.64356
2.64788
2.65259
2.65675
2.66097
2.66366
2.66768
2.67217
2.67971
2.68589
2.69183
2.69833
2.70453
2.70951
2.71466
2.71867
2.72333
2.73172
2.74335
2.77154
2.80133
2.87328
1.32401
1.12293
1.10624
1.1007
1.09753
1.07425
1.02338
0.832858
0.630683
0.466763
0.403207
0.410296
0.426055
0.440404
0.452453
0.461896
0.46878
0.472468
0.47604
0.478939
0.480859
0.48277
0.484077
0.484977
0.484723
0.4854
0.484542
0.485037
0.483645
0.483847
0.48187
0.48189
0.480001
0.479816
0.478013
0.478882
0.478686
0.480709
0.48074
0.482655
0.479537
0.475542
0.470829
0.465342
0.460994
0.458592
0.455436
0.454117
0.452795
0.452839
0.452852
0.455235
0.458263
0.460423
0.462576
0.466439
0.47041
0.477463
0.485429
0.492498
0.5042
0.523282
0.534227
0.536296
0.535662
0.530001
0.516374
0.502478
0.490237
0.487396
0.479098
0.481016
0.480641
0.476719
0.460933
0.456868
0.44915
0.5488
2.61394
2.61014
2.61104
2.61146
2.61219
2.61307
2.61401
2.61524
2.61665
2.61803
2.6198
2.62181
2.62368
2.62582
2.62856
2.63116
2.63373
2.63698
2.64014
2.64339
2.64745
2.65236
2.65666
2.6611
2.66406
2.66827
2.67345
2.68144
2.68757
2.69283
2.69824
2.70561
2.71187
2.71519
2.71724
2.7153
2.71355
2.70166
2.69509
2.61942