/*--------------------------------*- C++ -*----------------------------------*\
| =========                 |                                                 |
| \\      /  F ield         | OpenFOAM: The Open Source CFD Toolbox           |
|  \\    /   O peration     | Version:  2.2.x                                 |
|   \\  /    A nd           | Web:      www.OpenFOAM.org                      |
|    \\/     M anipulation  |                                                 |
\*---------------------------------------------------------------------------*/
FoamFile
{
    version     2.0;
    format      ascii;
    class       volScalarField;
    location    "1.3";
    object      rho;
}
// * * * * * * * * * * * * * * * * * * * * * * * * * * * * * * * * * * * * * //

dimensions      [1 -3 0 0 0 0 0];

internalField   nonuniform List<scalar> 
14161
(
0.997528
0.997616
0.997488
0.997305
0.99705
0.996727
0.996334
0.99587
0.995336
0.994734
0.994067
0.993339
0.992557
0.991717
0.990849
0.989958
0.98899
0.98805
0.987154
0.986181
0.985301
0.984483
0.983725
0.983024
0.982327
0.981761
0.981453
0.981294
0.981093
0.980888
0.980905
0.981018
0.981258
0.981623
0.982042
0.982504
0.982953
0.983671
0.983628
0.983224
0.978065
0.98144
0.990492
1.64818
2.75646
2.49971
2.38909
2.34855
2.31748
2.29205
2.27614
2.26441
2.25222
2.23921
2.22466
2.21066
2.1949
2.17868
2.1626
2.14669
2.13288
2.11936
2.10397
2.08774
2.07209
2.06043
2.06112
2.08905
2.12625
2.167
2.20511
2.23503
2.25487
2.27038
2.28069
2.29304
2.31568
2.349
2.38867
2.41871
2.43792
2.4384
2.42514
2.40762
2.38973
2.3964
2.37914
2.40921
2.58404
2.77901
2.99205
3.11335
3.19623
3.23825
3.24393
3.2307
3.19579
3.14823
3.10706
3.07369
3.05921
3.04932
3.04109
3.03436
3.03328
3.03727
3.04306
3.05097
3.05586
3.06144
3.06501
3.07359
3.08037
3.09292
3.09854
3.11367
3.11097
3.12104
3.10605
0.997523
0.997611
0.997484
0.9973
0.997044
0.996722
0.996327
0.995863
0.995329
0.994727
0.994059
0.993328
0.992547
0.991708
0.990838
0.989941
0.988982
0.98804
0.987133
0.986171
0.98528
0.984463
0.983707
0.983003
0.982307
0.981733
0.981426
0.981255
0.981047
0.980839
0.980827
0.98091
0.981121
0.981419
0.981768
0.982156
0.982616
0.983135
0.983187
0.982884
0.980349
0.982619
0.984307
1.74429
2.54177
2.51771
2.44997
2.41022
2.38251
2.35683
2.32917
2.306
2.28102
2.26107
2.24118
2.22649
2.20944
2.19197
2.17135
2.1486
2.12739
2.10772
2.09003
2.07556
2.0645
2.06276
2.06687
2.07531
2.08199
2.08548
2.08334
2.07936
2.07699
2.0739
2.0715
2.07287
2.08542
2.11316
2.14589
2.17575
2.19466
2.20427
2.20258
2.19988
2.21106
2.2712
2.34507
2.47977
2.69489
2.87474
3.01413
3.10782
3.16537
3.24311
3.25393
3.2492
3.23698
3.20827
3.16489
3.12255
3.09545
3.07718
3.06526
3.05479
3.04968
3.05022
3.05279
3.05807
3.06357
3.07126
3.0753
3.08354
3.08936
3.10158
3.10714
3.1248
3.12152
3.13466
3.12116
0.997522
0.997609
0.997481
0.997297
0.997041
0.996719
0.996324
0.99586
0.995325
0.994723
0.994055
0.993324
0.992542
0.991705
0.990824
0.989925
0.988983
0.988041
0.987141
0.986193
0.985264
0.984403
0.983636
0.982964
0.982297
0.981727
0.98144
0.981282
0.981084
0.980875
0.980876
0.981005
0.981292
0.981714
0.982255
0.982897
0.9837
0.985046
0.985969
0.986786
0.98814
0.991125
1.03262
1.99865
2.60905
2.65638
2.61714
2.57798
2.54746
2.51701
2.48546
2.45685
2.42602
2.40027
2.37146
2.34573
2.31768
2.29153
2.26383
2.23689
2.21361
2.19187
2.1734
2.15823
2.14691
2.13986
2.13318
2.1234
2.11465
2.10522
2.09501
2.08465
2.07396
2.06446
2.05671
2.05171
2.06221
2.08807
2.11356
2.1345
2.14597
2.14577
2.13414
2.11971
2.14545
2.28578
2.45138
2.60353
2.69382
2.8109
2.91856
3.00842
3.08513
3.1596
3.21294
3.21787
3.21092
3.1879
3.15098
3.12033
3.10135
3.08571
3.07245
3.05872
3.04956
3.04751
3.04829
3.05229
3.05645
3.06316
3.06701
3.07294
3.07749
3.08502
3.09051
3.10728
3.1022
3.1169
3.10432
0.997518
0.997604
0.997476
0.997291
0.997035
0.996712
0.996317
0.995852
0.995316
0.994713
0.994044
0.993312
0.992527
0.991691
0.990804
0.989903
0.988976
0.988005
0.987084
0.986174
0.985242
0.984382
0.983622
0.982941
0.982252
0.981667
0.981357
0.981173
0.980944
0.980681
0.980643
0.980698
0.980864
0.981142
0.981475
0.981859
0.982374
0.983321
0.984183
0.98479
0.986448
0.985455
1.08043
2.11514
2.61632
2.70718
2.68991
2.66125
2.62832
2.6007
2.56823
2.53754
2.50363
2.47658
2.44362
2.41276
2.38035
2.35092
2.32166
2.29258
2.26898
2.24574
2.2254
2.20799
2.19304
2.18143
2.17263
2.16514
2.15351
2.13857
2.12233
2.10818
2.09374
2.08125
2.06919
2.06332
2.07473
2.09681
2.12211
2.14603
2.1647
2.16958
2.17373
2.2022
2.28556
2.42274
2.55807
2.60861
2.66409
2.73924
2.82321
2.91885
3.01398
3.08794
3.15322
3.16796
3.16536
3.15436
3.13496
3.11681
3.10389
3.09072
3.07883
3.0668
3.05867
3.05444
3.05365
3.05549
3.05785
3.06281
3.06609
3.07033
3.07297
3.07579
3.07946
3.09931
3.09243
3.10967
3.09853
0.997517
0.997602
0.997474
0.997289
0.997032
0.996708
0.996313
0.995847
0.995311
0.994707
0.994037
0.993305
0.992518
0.991683
0.990795
0.989888
0.988979
0.987992
0.987036
0.98616
0.985238
0.984353
0.983574
0.982853
0.982174
0.981615
0.98132
0.981137
0.980923
0.98068
0.980688
0.980829
0.981135
0.981642
0.982323
0.983132
0.984228
0.985933
0.988429
0.990911
0.995921
0.995583
1.09495
2.21958
2.6254
2.72805
2.73001
2.6929
2.65637
2.63183
2.59968
2.5694
2.53529
2.50467
2.46721
2.43693
2.404
2.37392
2.33976
2.3106
2.28334
2.26112
2.24087
2.22415
2.21419
2.20585
2.1968
2.18787
2.17777
2.16819
2.15877
2.14842
2.13782
2.12765
2.11955
2.11311
2.11971
2.14465
2.16691
2.19113
2.2103
2.23333
2.26875
2.34127
2.45074
2.50356
2.54765
2.57632
2.60606
2.64805
2.70795
2.79777
2.90559
2.99618
3.07156
3.10114
3.10936
3.11147
3.10655
3.09979
3.09548
3.09058
3.08386
3.07578
3.06823
3.06369
3.06159
3.0626
3.06432
3.0669
3.07084
3.07277
3.07402
3.07319
3.07396
3.09037
3.08187
3.09952
3.08907
0.997515
0.997598
0.997469
0.997283
0.997026
0.996701
0.996305
0.995838
0.995301
0.994695
0.994024
0.99329
0.992497
0.991665
0.990772
0.989854
0.98896
0.987959
0.986986
0.98611
0.985183
0.984304
0.98351
0.982789
0.982095
0.981521
0.981192
0.980957
0.980691
0.980396
0.980341
0.980378
0.980503
0.980748
0.981127
0.981538
0.982036
0.982875
0.984345
0.9862
0.989522
0.986515
1.07735
2.20322
2.6406
2.74838
2.75278
2.71389
2.6754
2.64709
2.61079
2.5791
2.54243
2.50688
2.46743
2.44038
2.40655
2.37396
2.34142
2.31451
2.29364
2.27203
2.25337
2.23997
2.23144
2.22614
2.21825
2.2104
2.20539
2.19982
2.1934
2.18712
2.17967
2.17168
2.16555
2.16099
2.16482
2.18457
2.21289
2.24819
2.27631
2.32372
2.40167
2.47718
2.53395
2.53564
2.5299
2.52423
2.53534
2.55823
2.59199
2.66468
2.77584
2.88529
2.96906
3.01017
3.02652
3.04773
3.05945
3.06982
3.07789
3.08228
3.08143
3.07776
3.07248
3.06949
3.06907
3.07004
3.07136
3.07435
3.07658
3.07946
3.07624
3.07106
3.06718
3.07993
3.07036
3.08791
3.07937
0.997514
0.997596
0.997467
0.99728
0.997021
0.996696
0.996299
0.995832
0.995294
0.994686
0.994014
0.993278
0.992486
0.991653
0.990756
0.989816
0.988929
0.987939
0.986941
0.986071
0.985138
0.984237
0.983447
0.982727
0.982016
0.981429
0.98108
0.980841
0.980603
0.980342
0.980325
0.980437
0.980705
0.981142
0.98176
0.98259
0.983611
0.984882
0.987055
0.989611
0.994234
0.992117
1.07344
2.11485
2.63298
2.73101
2.72413
2.68892
2.65113
2.61428
2.5757
2.55243
2.5192
2.48196
2.44997
2.43433
2.40745
2.37504
2.34969
2.32851
2.30935
2.29009
2.27524
2.26082
2.25322
2.24866
2.242
2.23466
2.2286
2.22383
2.22002
2.21693
2.21271
2.20608
2.19729
2.19026
2.19712
2.22828
2.25357
2.28347
2.33672
2.41986
2.48648
2.5597
2.56949
2.54894
2.52575
2.49887
2.48817
2.4923
2.50607
2.55467
2.64477
2.76551
2.85659
2.90959
2.92692
2.95013
2.98059
3.01
3.03344
3.05123
3.06138
3.06435
3.06665
3.06794
3.07006
3.07316
3.07876
3.08069
3.08017
3.07716
3.07319
3.06863
3.06095
3.0696
3.05909
3.07568
3.06915
0.997512
0.997593
0.997462
0.997275
0.997015
0.996689
0.996291
0.995821
0.995282
0.994672
0.993999
0.993261
0.992457
0.991618
0.990729
0.989788
0.98889
0.987902
0.986874
0.985985
0.985066
0.984147
0.983353
0.982627
0.981906
0.981278
0.980873
0.980572
0.980273
0.97993
0.979802
0.979805
0.979866
0.980001
0.980226
0.980653
0.981183
0.981668
0.982646
0.984549
0.986623
0.990574
1.0242
1.97652
2.63248
2.68457
2.63298
2.61312
2.57786
2.55516
2.52795
2.51039
2.48553
2.46573
2.44379
2.42261
2.40045
2.37608
2.35447
2.32872
2.31017
2.28842
2.2764
2.26207
2.25311
2.24553
2.23967
2.23308
2.22761
2.22314
2.21852
2.21321
2.2071
2.19839
2.18916
2.18565
2.19347
2.21279
2.24735
2.31599
2.3793
2.44987
2.52046
2.55443
2.55252
2.53707
2.51443
2.48127
2.45579
2.43906
2.43681
2.4684
2.54651
2.67092
2.788
2.86604
2.88978
2.91109
2.93969
2.96969
2.99503
3.01627
3.03477
3.04666
3.05641
3.06034
3.06524
3.06997
3.07711
3.07972
3.08291
3.07943
3.07367
3.06135
3.05055
3.05767
3.04577
3.06215
3.05727
0.997511
0.997591
0.997459
0.997271
0.99701
0.996683
0.996284
0.995813
0.995273
0.994661
0.993983
0.993244
0.99244
0.991602
0.99071
0.989748
0.988818
0.987866
0.986835
0.985915
0.985
0.984066
0.983244
0.982493
0.981759
0.981126
0.9807
0.980405
0.980124
0.979812
0.979664
0.979707
0.979862
0.98014
0.980531
0.980986
0.981425
0.98186
0.981806
0.981195
0.977363
0.976892
0.975015
1.64364
2.58505
2.56158
2.52068
2.50455
2.49096
2.48509
2.47968
2.46543
2.45141
2.43393
2.41546
2.38902
2.36762
2.33538
2.30863
2.2769
2.25598
2.23308
2.21948
2.20289
2.19502
2.18261
2.17685
2.17048
2.16554
2.16089
2.15604
2.15035
2.1453
2.13926
2.13023
2.12072
2.11974
2.16252
2.21464
2.28371
2.3534
2.44106
2.49744
2.52054
2.52527
2.52188
2.49912
2.46577
2.43408
2.41223
2.39427
2.41221
2.4675
2.56893
2.70083
2.80622
2.8405
2.867
2.89316
2.92146
2.94849
2.97483
3.00347
3.02479
3.04187
3.04936
3.05832
3.06436
3.07568
3.08246
3.08335
3.07939
3.06895
3.05209
3.04004
3.04547
3.0366
3.04994
3.04956
0.997509
0.997588
0.997455
0.997265
0.997004
0.996675
0.996274
0.995802
0.995259
0.994645
0.993964
0.993222
0.99241
0.99156
0.99068
0.989711
0.98874
0.98782
0.986788
0.985796
0.98489
0.98394
0.98309
0.982327
0.981602
0.980907
0.980429
0.980064
0.979723
0.979335
0.979058
0.978931
0.978914
0.978936
0.979007
0.979145
0.979376
0.979606
0.979786
0.979678
0.977819
0.981473
0.986847
1.36547
2.53071
2.60047
2.56095
2.52418
2.50092
2.47618
2.45469
2.42814
2.40166
2.37805
2.35483
2.32812
2.30563
2.27389
2.24976
2.21804
2.19869
2.17381
2.15989
2.1418
2.13707
2.12833
2.12247
2.11627
2.1138
2.11026
2.10355
2.0967
2.09012
2.08279
2.07238
2.06247
2.06752
2.12526
2.18293
2.2753
2.36188
2.39239
2.43505
2.4613
2.47595
2.48516
2.46519
2.44824
2.42979
2.41766
2.39435
2.39998
2.43411
2.51915
2.65991
2.77783
2.83129
2.86866
2.89356
2.91548
2.93714
2.95815
2.98125
3.00035
3.01937
3.02998
3.0442
3.05318
3.07064
3.07415
3.07978
3.07678
3.06574
3.04813
3.03316
3.03758
3.02776
3.0366
3.04075
0.997508
0.997586
0.997452
0.997261
0.996998
0.996668
0.996266
0.995791
0.995247
0.99463
0.993945
0.993201
0.992386
0.991523
0.990648
0.989672
0.988662
0.987751
0.986747
0.985687
0.984763
0.983825
0.982938
0.982157
0.981408
0.980674
0.980152
0.979773
0.979421
0.979037
0.978717
0.978655
0.978686
0.978792
0.978933
0.979079
0.979045
0.97871
0.977916
0.97669
0.972978
0.974788
0.969262
1.6021
2.58343
2.61357
2.53897
2.48174
2.44288
2.41268
2.39695
2.36557
2.33133
2.31686
2.29954
2.2766
2.25547
2.22658
2.20588
2.17688
2.16001
2.13678
2.12703
2.11009
2.10784
2.09803
2.09211
2.08929
2.08848
2.08927
2.08543
2.079
2.07368
2.06817
2.05821
2.04818
2.05567
2.1323
2.21296
2.29335
2.36293
2.36277
2.37521
2.38599
2.39645
2.41002
2.40632
2.41197
2.40814
2.40823
2.3943
2.39726
2.41703
2.47578
2.59801
2.74034
2.82478
2.87083
2.90416
2.92466
2.94196
2.95797
2.97567
2.99134
3.00601
3.0152
3.02892
3.0398
3.06113
3.06521
3.07361
3.07073
3.06051
3.04198
3.02504
3.02862
3.01881
3.02671
3.03029
0.997506
0.997583
0.997448
0.997256
0.996991
0.996659
0.996255
0.995779
0.995231
0.994612
0.993921
0.993174
0.992355
0.991466
0.990597
0.989634
0.988582
0.987651
0.986664
0.985564
0.984621
0.983667
0.982734
0.981918
0.981146
0.980362
0.979785
0.979354
0.978956
0.978475
0.977991
0.977706
0.977555
0.977505
0.977516
0.9776
0.977921
0.978634
0.979455
0.981218
0.98351
0.992628
0.992466
1.82881
2.60795
2.67207
2.58132
2.51099
2.45323
2.4145
2.40132
2.36876
2.34717
2.32377
2.29631
2.28483
2.26488
2.23662
2.21627
2.18317
2.16728
2.14516
2.13955
2.12066
2.11631
2.10637
2.10409
2.10206
2.10181
2.10203
2.10079
2.09589
2.09143
2.08531
2.07574
2.05698
2.07864
2.17459
2.27921
2.33033
2.36476
2.3561
2.34049
2.32816
2.32193
2.32864
2.34245
2.36505
2.3771
2.39228
2.38869
2.39468
2.4133
2.45414
2.54944
2.6959
2.80911
2.8705
2.90711
2.92495
2.93971
2.95421
2.96989
2.98353
2.99721
3.00468
3.01813
3.02762
3.04837
3.05404
3.06311
3.06118
3.05274
3.0346
3.0166
3.01991
3.01122
3.01788
3.02173
0.997504
0.99758
0.997445
0.997251
0.996985
0.996651
0.996245
0.995767
0.995216
0.994593
0.993897
0.993143
0.992323
0.991425
0.990538
0.989587
0.988509
0.987541
0.986564
0.985437
0.984446
0.983513
0.982534
0.981665
0.980837
0.979995
0.979367
0.978935
0.978551
0.97811
0.977521
0.977149
0.977035
0.977041
0.977081
0.977179
0.977297
0.977485
0.97779
0.979286
0.97998
0.987427
0.986546
1.83253
2.62283
2.68371
2.58658
2.50363
2.44647
2.40281
2.39108
2.36471
2.34015
2.31741
2.29307
2.27767
2.24022
2.22633
2.20631
2.16818
2.14679
2.12815
2.12482
2.10009
2.09756
2.09118
2.09258
2.09055
2.08966
2.08916
2.08814
2.08429
2.08046
2.07317
2.06056
2.04634
2.08658
2.22458
2.34123
2.34204
2.32754
2.31486
2.30486
2.28932
2.26514
2.26025
2.2685
2.29082
2.31228
2.34179
2.35683
2.37445
2.39649
2.42696
2.50015
2.63338
2.76911
2.85224
2.8958
2.91687
2.93231
2.94653
2.96176
2.97467
2.9888
2.99645
3.01119
3.02033
3.0406
3.04658
3.05546
3.05234
3.04502
3.02686
3.01006
3.01253
3.00557
3.00923
3.01302
0.997501
0.997577
0.997441
0.997245
0.996977
0.996642
0.996233
0.995752
0.995197
0.994571
0.993869
0.993108
0.992286
0.991373
0.990458
0.98953
0.988439
0.987406
0.986439
0.985309
0.98424
0.983311
0.982327
0.981366
0.980444
0.979547
0.978857
0.978358
0.97793
0.977427
0.976714
0.976109
0.97577
0.975578
0.975439
0.975362
0.975405
0.975668
0.976051
0.977046
0.976374
0.980757
0.98327
1.7294
2.5823
2.64394
2.55843
2.46977
2.40002
2.3595
2.34946
2.32851
2.30206
2.28367
2.25808
2.23989
2.20844
2.19746
2.16683
2.15287
2.09838
2.09323
2.09236
2.08066
2.07223
2.07284
2.07646
2.07693
2.0743
2.07332
2.07391
2.07151
2.06954
2.06339
2.05516
2.04507
2.11735
2.25103
2.32999
2.33593
2.29033
2.26593
2.2485
2.23403
2.21908
2.21407
2.21471
2.22267
2.23847
2.2718
2.3015
2.33261
2.36553
2.39383
2.44849
2.55654
2.71076
2.82661
2.88299
2.90997
2.9252
2.93691
2.94963
2.96183
2.97594
2.98414
2.99978
3.00917
3.03026
3.0371
3.0466
3.04321
3.03659
3.02032
3.00333
3.00405
2.9996
2.99995
3.00501
0.997499
0.997574
0.997437
0.99724
0.99697
0.996632
0.996222
0.995738
0.995178
0.994549
0.993842
0.993068
0.992251
0.99133
0.990367
0.989455
0.988373
0.987272
0.986295
0.985181
0.984023
0.983056
0.98211
0.981063
0.980034
0.979131
0.97837
0.977788
0.977271
0.97672
0.97599
0.975293
0.974873
0.974591
0.97445
0.974408
0.97419
0.973618
0.972698
0.972317
0.970266
0.972693
0.982463
1.66173
2.46747
2.53087
2.45872
2.3969
2.34471
2.32047
2.30817
2.2977
2.27338
2.2713
2.2376
2.21507
2.18319
2.17933
2.14352
2.13852
2.0833
2.08498
2.07358
2.06138
2.05788
2.06297
2.06978
2.07074
2.06889
2.06679
2.06914
2.06861
2.06493
2.05542
2.05275
2.08112
2.18801
2.30163
2.30384
2.28328
2.2841
2.26231
2.22708
2.2092
2.20181
2.19307
2.18629
2.18453
2.19629
2.21726
2.25238
2.2867
2.32547
2.35398
2.40786
2.50865
2.67245
2.80026
2.86659
2.89959
2.91628
2.92635
2.93751
2.94949
2.9641
2.97222
2.98702
2.99521
3.01706
3.02511
3.03613
3.03273
3.02694
3.01303
2.99598
2.99451
2.99133
2.98941
2.99654
0.997495
0.997571
0.997433
0.997234
0.996962
0.996622
0.996208
0.995721
0.995157
0.994523
0.993811
0.993022
0.992208
0.991281
0.990274
0.989348
0.988293
0.987125
0.986114
0.98503
0.983795
0.982759
0.981829
0.980709
0.979586
0.978701
0.977866
0.977107
0.976384
0.975703
0.974941
0.974039
0.973379
0.972957
0.972792
0.972716
0.972586
0.972348
0.972505
0.973113
0.974287
0.979492
0.997159
1.71576
2.32574
2.40511
2.37441
2.36686
2.34604
2.32326
2.30286
2.30188
2.28835
2.26888
2.24477
2.18682
2.18279
2.17071
2.14525
2.13879
2.08748
2.081
2.07199
2.06384
2.06372
2.07128
2.07465
2.07866
2.07389
2.07375
2.07639
2.0755
2.0705
2.07324
2.08495
2.16912
2.28155
2.33599
2.33003
2.25566
2.23065
2.22311
2.21448
2.19951
2.1876
2.17972
2.1725
2.17386
2.18096
2.17882
2.19895
2.2329
2.28286
2.33281
2.3919
2.4848
2.63565
2.78246
2.86306
2.90109
2.92115
2.92975
2.93798
2.94423
2.95374
2.96025
2.97327
2.98056
3.00359
3.01279
3.02612
3.02298
3.01812
3.00604
2.98932
2.98443
2.9822
2.97839
2.98795
0.997492
0.997567
0.997428
0.997228
0.996954
0.996611
0.996195
0.995704
0.995136
0.994495
0.993779
0.992975
0.992152
0.991236
0.990191
0.989229
0.988199
0.986987
0.985917
0.984843
0.983557
0.982434
0.981475
0.980325
0.979078
0.978157
0.977384
0.97651
0.975496
0.974698
0.973962
0.973082
0.972198
0.971634
0.971384
0.971298
0.971106
0.970164
0.969412
0.968876
0.969942
0.974435
1.01289
1.80421
2.19658
2.27386
2.29307
2.31447
2.33101
2.31914
2.32177
2.29736
2.29593
2.25912
2.24513
2.19117
2.17297
2.14913
2.153
2.12784
2.10738
2.07906
2.06713
2.06468
2.06919
2.07167
2.07555
2.07904
2.0734
2.078
2.09492
2.10516
2.11563
2.17998
2.25655
2.37321
2.42661
2.39395
2.37224
2.32922
2.26989
2.24627
2.24041
2.22221
2.20144
2.19198
2.19301
2.19694
2.19734
2.19693
2.20815
2.21593
2.23906
2.29037
2.35427
2.44676
2.58654
2.74515
2.83639
2.87489
2.89287
2.90164
2.91055
2.91755
2.92947
2.93957
2.95415
2.96142
2.98574
2.99755
3.01411
3.01169
3.00795
2.99788
2.98211
2.97435
2.97164
2.96561
2.97759
0.997488
0.997563
0.997423
0.997221
0.996945
0.9966
0.99618
0.995685
0.995112
0.994464
0.993743
0.992927
0.992079
0.991178
0.99011
0.989093
0.98808
0.98684
0.985694
0.984629
0.983313
0.982089
0.981077
0.979919
0.978542
0.977509
0.976706
0.975803
0.974483
0.97345
0.972692
0.971966
0.970851
0.969642
0.968892
0.968611
0.968351
0.967311
0.964866
0.960267
0.960729
0.9643
1.10575
1.89855
2.0945
2.13388
2.15294
2.17785
2.21567
2.24543
2.26661
2.26909
2.25696
2.23741
2.20288
2.17935
2.14017
2.13644
2.11721
2.12422
2.0774
2.05638
2.05245
2.05651
2.05279
2.06419
2.08162
2.09329
2.09931
2.1444
2.24261
2.33386
2.42785
2.53317
2.62452
2.63441
2.59576
2.52838
2.50726
2.46593
2.40144
2.36921
2.34979
2.31003
2.27706
2.26706
2.26198
2.24783
2.2366
2.23113
2.2342
2.23756
2.25577
2.29084
2.34792
2.43314
2.56858
2.72989
2.83442
2.87235
2.88315
2.88964
2.8983
2.90692
2.92115
2.93023
2.94165
2.94558
2.96868
2.98122
3.00066
2.99854
2.99678
2.98856
2.97384
2.96379
2.95899
2.95214
2.96569
0.997484
0.997558
0.997418
0.997214
0.996936
0.996588
0.996164
0.995665
0.995087
0.994431
0.993706
0.992881
0.992002
0.991114
0.990042
0.988943
0.987941
0.986713
0.985457
0.984367
0.983079
0.981719
0.980628
0.979492
0.978022
0.97683
0.975929
0.975002
0.973522
0.972164
0.971296
0.970644
0.969968
0.968599
0.967345
0.966915
0.966913
0.966741
0.966286
0.964132
0.966586
0.973183
1.37146
1.99508
2.03771
2.04639
2.05342
2.0729
2.10155
2.14716
2.18115
2.22363
2.22864
2.22106
2.204
2.1583
2.15153
2.10666
2.10351
2.10848
2.06105
2.03608
2.05721
2.06116
2.06633
2.11713
2.21196
2.30364
2.40939
2.52005
2.65148
2.75016
2.80624
2.7963
2.80172
2.78816
2.75179
2.70869
2.69252
2.65852
2.60945
2.57276
2.53243
2.48093
2.43803
2.39116
2.34217
2.30998
2.2986
2.2942
2.28195
2.27819
2.28301
2.30615
2.35323
2.43133
2.55589
2.71757
2.82678
2.87009
2.88437
2.88951
2.89566
2.90082
2.91269
2.91994
2.92885
2.93002
2.95062
2.96353
2.98666
2.98614
2.98708
2.98017
2.96658
2.95373
2.94652
2.93875
2.95408
0.997479
0.997553
0.997412
0.997207
0.996926
0.996575
0.996147
0.995643
0.99506
0.994393
0.993664
0.992834
0.991911
0.991025
0.989975
0.988799
0.987757
0.986575
0.985224
0.984063
0.982833
0.981369
0.980113
0.978984
0.977536
0.976118
0.97507
0.974079
0.972553
0.970815
0.969765
0.969054
0.968493
0.967193
0.96494
0.963739
0.963367
0.963486
0.963693
0.963304
0.966895
0.990026
1.6362
2.0068
2.02775
2.02362
2.02636
2.03045
2.0457
2.06575
2.09907
2.14094
2.18598
2.19521
2.17777
2.16682
2.12979
2.1243
2.085
2.10733
2.06069
2.09736
2.16928
2.24283
2.34795
2.46678
2.60347
2.71288
2.80092
2.8245
2.85015
2.86637
2.85725
2.8353
2.82789
2.81879
2.80562
2.798
2.79013
2.76453
2.73095
2.69675
2.65585
2.61405
2.57268
2.52864
2.47725
2.43546
2.39744
2.36649
2.33878
2.32906
2.32778
2.34123
2.37661
2.44538
2.55063
2.69823
2.80867
2.85896
2.87524
2.87827
2.88279
2.88736
2.89918
2.90713
2.91546
2.91472
2.93322
2.94569
2.97207
2.97393
2.97779
2.97155
2.95909
2.94378
2.93399
2.92411
2.93959
0.997473
0.997548
0.997405
0.997199
0.996916
0.996561
0.99613
0.99562
0.995031
0.994356
0.993616
0.992786
0.991835
0.990907
0.989898
0.988672
0.987558
0.986414
0.985006
0.983729
0.982541
0.981044
0.979589
0.978387
0.977047
0.975424
0.974147
0.973034
0.971611
0.969593
0.968259
0.967488
0.966884
0.965894
0.963445
0.961202
0.960143
0.959478
0.959075
0.95866
0.96164
1.03055
1.81945
2.03232
2.04332
2.03684
2.02983
2.02785
2.02778
2.03189
2.03714
2.05344
2.08047
2.11116
2.12138
2.11711
2.14357
2.10212
2.15729
2.21414
2.28809
2.38488
2.5306
2.65289
2.712
2.76355
2.79724
2.82329
2.83806
2.8342
2.82944
2.83551
2.83526
2.82042
2.81593
2.812
2.8102
2.81088
2.80906
2.79933
2.78284
2.7607
2.73098
2.69572
2.65989
2.62016
2.56828
2.52423
2.48419
2.47025
2.43823
2.4134
2.39449
2.39663
2.4167
2.46462
2.55806
2.69126
2.79695
2.85218
2.87504
2.87887
2.88235
2.88548
2.89521
2.90013
2.90503
2.90174
2.91823
2.92836
2.95529
2.96072
2.96847
2.96267
2.95112
2.93338
2.92161
2.9102
2.92472
0.997467
0.997541
0.997398
0.99719
0.996905
0.996547
0.996111
0.995595
0.995
0.994317
0.99356
0.992733
0.991764
0.990775
0.989795
0.988545
0.987334
0.986218
0.98478
0.983364
0.982168
0.980717
0.979049
0.977743
0.976497
0.974799
0.973174
0.971912
0.970608
0.968598
0.96668
0.965581
0.964907
0.964061
0.962134
0.958389
0.956161
0.955322
0.954523
0.957256
0.964894
1.21115
1.93638
2.02038
2.0254
2.02244
2.01898
2.01432
2.01334
2.00845
2.00334
1.99608
2.00849
2.02524
2.05829
2.12627
2.20326
2.32153
2.40386
2.52837
2.63449
2.6877
2.72808
2.75757
2.76183
2.77404
2.78105
2.79436
2.79428
2.79834
2.79499
2.80343
2.80897
2.80405
2.80508
2.80629
2.80999
2.81097
2.8077
2.80066
2.78984
2.77896
2.76282
2.7399
2.71132
2.67751
2.6391
2.60384
2.56512
2.5335
2.50842
2.4744
2.44486
2.43995
2.45708
2.50104
2.57734
2.68154
2.77911
2.84123
2.87115
2.87594
2.87954
2.88181
2.8896
2.8924
2.89607
2.89164
2.90555
2.91198
2.93765
2.94655
2.95877
2.95379
2.94268
2.92208
2.90996
2.89513
2.90865
0.99746
0.997534
0.997391
0.997181
0.996893
0.996531
0.996091
0.99557
0.994967
0.994276
0.993499
0.992672
0.991698
0.990642
0.98966
0.988435
0.987108
0.985964
0.984573
0.983006
0.981733
0.980366
0.978561
0.977043
0.975795
0.974221
0.972248
0.970763
0.969456
0.967819
0.965402
0.963779
0.962903
0.962168
0.960894
0.957741
0.95475
0.954293
0.954274
0.957331
0.975616
1.50361
1.96947
2.00715
2.00502
2.00259
2.00278
2.00252
2.00214
2.00031
1.99789
1.9976
2.00485
2.02981
2.12041
2.32355
2.50857
2.65857
2.69349
2.72947
2.74077
2.75341
2.75624
2.74919
2.74788
2.7421
2.74295
2.74149
2.74623
2.74859
2.75947
2.76652
2.77483
2.77703
2.78256
2.78467
2.79365
2.79985
2.8005
2.79707
2.79149
2.78455
2.77669
2.76384
2.7415
2.71331
2.68208
2.65282
2.62741
2.60112
2.57272
2.54309
2.51393
2.50418
2.51294
2.54142
2.59235
2.67371
2.76008
2.828
2.86417
2.87131
2.87531
2.87805
2.88509
2.88627
2.8882
2.88261
2.89312
2.89575
2.91925
2.93166
2.94802
2.94446
2.93366
2.91108
2.89787
2.87847
2.89312
0.997452
0.997527
0.997382
0.997171
0.996881
0.996515
0.99607
0.995543
0.994931
0.994233
0.993436
0.992593
0.991635
0.99053
0.989482
0.988318
0.98691
0.985663
0.984343
0.982679
0.981231
0.979922
0.978126
0.976323
0.97498
0.973563
0.971417
0.969563
0.968223
0.966831
0.964476
0.962003
0.960746
0.960033
0.959172
0.957166
0.952565
0.94994
0.950326
0.954818
1.00239
1.74858
2.02014
2.02811
2.02448
2.02156
2.01617
2.01049
2.00798
2.00729
2.00937
2.02008
2.0528
2.14465
2.36419
2.60998
2.7403
2.75249
2.75196
2.74945
2.74697
2.74262
2.73449
2.72759
2.72191
2.71344
2.70708
2.70766
2.7111
2.713
2.72207
2.73217
2.739
2.74633
2.7534
2.75041
2.76049
2.76818
2.77582
2.77997
2.7815
2.78043
2.77623
2.76853
2.75814
2.74166
2.71867
2.69217
2.66723
2.64442
2.62032
2.59294
2.56515
2.54621
2.54991
2.56948
2.60852
2.67028
2.74179
2.81447
2.85524
2.86459
2.86973
2.87334
2.88035
2.88006
2.88031
2.87353
2.88067
2.87922
2.90086
2.91618
2.93622
2.93411
2.92374
2.90156
2.88447
2.86169
2.88
0.997444
0.997519
0.997373
0.99716
0.996867
0.996498
0.996048
0.995514
0.994894
0.994189
0.99338
0.992506
0.991566
0.990439
0.989288
0.988178
0.986753
0.985333
0.984061
0.982414
0.980731
0.979357
0.977743
0.97569
0.974057
0.97267
0.970716
0.968406
0.966857
0.965539
0.963706
0.960565
0.958476
0.957519
0.957006
0.955376
0.951436
0.943738
0.944188
0.951217
1.14214
1.89462
2.02876
2.0411
2.03638
2.02934
2.0193
2.01063
2.00615
2.00563
2.01491
2.04487
2.13182
2.33802
2.60915
2.75421
2.75527
2.74298
2.73152
2.72976
2.72203
2.7121
2.70747
2.70134
2.69259
2.68402
2.68221
2.68057
2.68146
2.68574
2.68661
2.69425
2.69994
2.70851
2.7188
2.7226
2.72111
2.72931
2.74032
2.75116
2.75853
2.76053
2.76127
2.76041
2.75642
2.74966
2.73849
2.71989
2.69545
2.67364
2.65355
2.63196
2.60772
2.58337
2.58072
2.59436
2.62062
2.66779
2.72907
2.80051
2.84358
2.85465
2.86261
2.86859
2.8757
2.87413
2.87196
2.86333
2.86743
2.86278
2.88357
2.90147
2.92458
2.92363
2.91342
2.89038
2.87202
2.84493
2.86502
0.997435
0.99751
0.997363
0.997149
0.996853
0.99648
0.996024
0.995484
0.994855
0.994141
0.993323
0.992407
0.99148
0.990358
0.989107
0.987972
0.986612
0.985042
0.983697
0.982165
0.980292
0.978732
0.977276
0.975208
0.97315
0.97162
0.969994
0.967513
0.965386
0.963984
0.962497
0.959774
0.956573
0.955177
0.95498
0.954282
0.95252
0.948705
0.951589
0.967246
1.45523
1.95183
2.00132
2.00687
2.00649
2.00664
2.00648
2.00596
2.00742
2.01803
2.0493
2.13793
2.33424
2.60935
2.77575
2.76585
2.73389
2.72537
2.72087
2.70514
2.69646
2.69386
2.68846
2.68009
2.67252
2.66705
2.66114
2.65851
2.66027
2.66061
2.66041
2.66593
2.66935
2.67525
2.68468
2.69255
2.69448
2.696
2.70008
2.71054
2.72516
2.73764
2.74645
2.75102
2.75338
2.75084
2.74468
2.73466
2.7184
2.70011
2.68115
2.66526
2.64701
2.62507
2.61215
2.6159
2.63309
2.66893
2.72328
2.78937
2.82986
2.84213
2.85449
2.86409
2.87036
2.86824
2.8641
2.85308
2.85482
2.84834
2.86837
2.88691
2.9122
2.91207
2.90229
2.87811
2.85846
2.82846
2.85042
0.997425
0.9975
0.997353
0.997136
0.996838
0.996461
0.996
0.995453
0.994815
0.994089
0.993264
0.992318
0.991356
0.990275
0.988963
0.987727
0.986446
0.984798
0.983288
0.98186
0.979935
0.978103
0.976624
0.974803
0.972383
0.970525
0.968994
0.966908
0.964131
0.962241
0.960834
0.959065
0.955566
0.952612
0.9516
0.951379
0.950353
0.947773
0.951449
1.00494
1.72892
2.00997
2.02348
2.02055
2.01761
2.01597
2.01526
2.01621
2.02766
2.05993
2.14897
2.35117
2.6171
2.77364
2.77208
2.72929
2.71606
2.71324
2.70185
2.69147
2.68456
2.67663
2.66937
2.66526
2.66124
2.65285
2.64485
2.64323
2.64037
2.63911
2.64146
2.64445
2.64582
2.65026
2.65476
2.65893
2.66418
2.67012
2.67194
2.68062
2.6945
2.70953
2.72464
2.73522
2.74095
2.74078
2.73969
2.73899
2.73242
2.7194
2.70123
2.68637
2.67585
2.661
2.64238
2.63775
2.64599
2.67154
2.7163
2.77431
2.81256
2.82802
2.84686
2.85974
2.86475
2.86183
2.85576
2.8421
2.84185
2.83357
2.85362
2.8729
2.89952
2.90034
2.89104
2.86585
2.84496
2.8131
2.83553
0.997414
0.99749
0.997341
0.997123
0.996822
0.996441
0.995975
0.995421
0.994773
0.994033
0.993203
0.992241
0.99122
0.990171
0.988847
0.987472
0.986223
0.984603
0.982886
0.98144
0.979639
0.977537
0.97589
0.974269
0.971814
0.969471
0.967839
0.966146
0.96332
0.960521
0.958931
0.957576
0.955253
0.950894
0.948166
0.94707
0.945862
0.945067
0.952621
1.16446
1.89759
2.01886
2.03164
2.02977
2.02578
2.01997
2.01819
2.02685
2.05576
2.14561
2.35034
2.62094
2.76073
2.75707
2.74419
2.699
2.68894
2.6932
2.68799
2.67321
2.66395
2.65904
2.65628
2.65213
2.64575
2.6389
2.63526
2.62959
2.6246
2.62512
2.62443
2.62629
2.62905
2.62922
2.63037
2.63239
2.63759
2.64455
2.64711
2.65356
2.66138
2.67218
2.69122
2.71048
2.72497
2.736
2.73992
2.73903
2.73499
2.72625
2.71163
2.69661
2.69032
2.67886
2.66324
2.65832
2.66165
2.67769
2.71353
2.76151
2.79583
2.81598
2.84005
2.85434
2.85873
2.85505
2.84791
2.83242
2.83065
2.82168
2.84026
2.85821
2.88545
2.88733
2.87889
2.85295
2.83038
2.79702
2.82008
0.997402
0.997478
0.997329
0.997109
0.996805
0.996421
0.995948
0.995387
0.994731
0.993975
0.993137
0.992171
0.991083
0.99002
0.988749
0.987263
0.985928
0.984423
0.982562
0.980947
0.979323
0.977108
0.975118
0.9735
0.971401
0.9686
0.966575
0.964964
0.962795
0.959301
0.956926
0.955748
0.95435
0.951524
0.947911
0.947351
0.947896
0.952586
0.97447
1.49803
1.95745
2.00706
2.01111
2.01178
2.01361
2.01787
2.02978
2.06263
2.16025
2.36959
2.63069
2.77665
2.74761
2.72738
2.70954
2.67578
2.67068
2.67343
2.66747
2.65887
2.65119
2.64633
2.64199
2.63765
2.63289
2.62809
2.62204
2.61437
2.61063
2.60877
2.60798
2.61022
2.61122
2.60973
2.61059
2.61321
2.61665
2.62124
2.62278
2.62798
2.63401
2.64484
2.66407
2.68457
2.70536
2.72193
2.73063
2.73048
2.72995
2.72501
2.71703
2.70313
2.69601
2.68546
2.67563
2.67233
2.67598
2.68743
2.7154
2.75444
2.78396
2.80586
2.83308
2.84805
2.8519
2.84759
2.83885
2.8213
2.81828
2.80844
2.82714
2.84423
2.87106
2.87391
2.8666
2.84098
2.8168
2.78228
2.80478
0.99739
0.997466
0.997316
0.997095
0.996787
0.996399
0.995921
0.995352
0.994688
0.993919
0.993061
0.9921
0.990981
0.989837
0.988637
0.987108
0.985605
0.984195
0.98232
0.980451
0.978865
0.976799
0.974441
0.972647
0.970862
0.968083
0.965347
0.963575
0.961836
0.959036
0.95547
0.953395
0.952267
0.950763
0.94717
0.943061
0.943311
0.948986
1.01836
1.77301
2.02331
2.03781
2.03527
2.03121
2.03353
2.04908
2.08639
2.18393
2.40689
2.6695
2.77591
2.78544
2.7301
2.69842
2.68957
2.67032
2.65447
2.65402
2.65187
2.64626
2.63889
2.63588
2.63163
2.62436
2.61826
2.6131
2.60967
2.60361
2.59839
2.59376
2.59326
2.59415
2.59346
2.59467
2.59586
2.59822
2.59862
2.60029
2.59992
2.60353
2.60776
2.61833
2.63412