/*--------------------------------*- C++ -*----------------------------------*\
| =========                 |                                                 |
| \\      /  F ield         | OpenFOAM: The Open Source CFD Toolbox           |
|  \\    /   O peration     | Version:  2.2.x                                 |
|   \\  /    A nd           | Web:      www.OpenFOAM.org                      |
|    \\/     M anipulation  |                                                 |
\*---------------------------------------------------------------------------*/
FoamFile
{
    version     2.0;
    format      ascii;
    class       volScalarField;
    location    "1.15";
    object      Bz;
}
// * * * * * * * * * * * * * * * * * * * * * * * * * * * * * * * * * * * * * //

dimensions      [1 0 -2 0 0 -1 0];

internalField   nonuniform List<scalar> 
14161
(
1.99972e-19
2.0021e-19
2.00582e-19
1.99416e-19
1.99766e-19
1.98301e-19
2.00416e-19
1.99205e-19
2.00235e-19
1.99639e-19
2.00488e-19
2.00418e-19
2.0125e-19
2.02429e-19
2.03281e-19
2.04899e-19
2.05425e-19
2.06331e-19
2.07184e-19
2.07144e-19
2.07723e-19
2.08224e-19
2.08495e-19
2.08784e-19
2.08989e-19
2.09441e-19
2.10225e-19
2.10475e-19
2.10852e-19
2.11689e-19
2.11917e-19
2.12223e-19
2.122e-19
2.122e-19
2.1217e-19
2.12193e-19
2.12172e-19
2.12206e-19
2.13204e-19
2.11331e-19
2.15652e-19
2.05973e-19
2.27115e-19
1.76525e-19
2.78159e-19
1.02233e-19
3.65617e-19
-1.42729e-19
4.73539e-19
-3.17028e-19
2.69534e-18
1.16253e-17
1.13716e-17
8.45957e-18
5.19018e-18
2.91968e-18
6.50549e-19
3.25897e-19
-3.32638e-20
8.88049e-20
7.0461e-20
9.09926e-20
6.89637e-20
8.95677e-20
5.64319e-20
3.40048e-20
9.04425e-20
1.0867e-19
3.39475e-20
1.92146e-20
1.10159e-19
1.56116e-19
1.02914e-19
1.24265e-19
1.87522e-19
3.23978e-19
3.91573e-19
4.09471e-19
4.83285e-19
5.41707e-19
7.30403e-19
7.05325e-19
7.89612e-19
8.77804e-19
1.20898e-18
1.19253e-18
1.4514e-18
1.80091e-18
2.03408e-18
2.23901e-18
2.10947e-18
2.32056e-18
2.58274e-18
2.72305e-18
2.96307e-18
2.97856e-18
3.17902e-18
3.19692e-18
3.22018e-18
2.96129e-18
2.86474e-18
1.67153e-18
8.77874e-19
2.80898e-19
1.0053e-19
1.28314e-19
7.75811e-20
2.0203e-19
1.57653e-19
3.03855e-19
1.67581e-19
3.32385e-19
2.16006e-19
5.66879e-19
4.41257e-19
9.43142e-19
8.86385e-19
3.60477e-18
3.78633e-18
2.0112e-19
2.00775e-19
2.01129e-19
2.00104e-19
2.00091e-19
1.99929e-19
2.00724e-19
2.00722e-19
2.01738e-19
2.00568e-19
2.01244e-19
2.00842e-19
2.02589e-19
2.03384e-19
2.03902e-19
2.06096e-19
2.06296e-19
2.07279e-19
2.07688e-19
2.08459e-19
2.0883e-19
2.09306e-19
2.0972e-19
2.11518e-19
2.10555e-19
2.11025e-19
2.10933e-19
2.13287e-19
2.13045e-19
2.14044e-19
2.13238e-19
2.13797e-19
2.13628e-19
2.13493e-19
2.13441e-19
2.13651e-19
2.13588e-19
2.13244e-19
2.14221e-19
2.1285e-19
2.16203e-19
2.08695e-19
2.22941e-19
1.95198e-19
2.3957e-19
1.74008e-19
2.48335e-19
1.55971e-19
2.24135e-19
2.11186e-19
2.84175e-18
1.09483e-17
1.08797e-17
7.9627e-18
4.26175e-18
1.83795e-18
1.24607e-19
2.3164e-19
1.0319e-19
1.52782e-19
1.32313e-19
1.37295e-19
1.1031e-19
1.25233e-19
9.03753e-20
7.02259e-20
9.85893e-20
1.21477e-19
6.40756e-20
2.91823e-20
1.0737e-19
1.60321e-19
1.22343e-19
1.07479e-19
2.02679e-19
3.15248e-19
3.74111e-19
4.16954e-19
4.67594e-19
5.49564e-19
7.02972e-19
7.00095e-19
7.7675e-19
8.71893e-19
1.18153e-18
1.17635e-18
1.44998e-18
1.76206e-18
2.04186e-18
2.22301e-18
2.13962e-18
2.32851e-18
2.60418e-18
2.75198e-18
2.99262e-18
3.00125e-18
3.24079e-18
3.23298e-18
3.3243e-18
3.00568e-18
2.78032e-18
1.51291e-18
7.29808e-19
2.44465e-19
6.84666e-20
1.15635e-19
6.44574e-20
1.73837e-19
1.12376e-19
2.50713e-19
1.08794e-19
2.72397e-19
1.06533e-19
5.12609e-19
3.24414e-19
1.16225e-18
1.18432e-18
3.30776e-18
3.4293e-18
2.02133e-19
2.01558e-19
2.02002e-19
2.01471e-19
2.01176e-19
2.0173e-19
2.02811e-19
2.02858e-19
2.0431e-19
2.03188e-19
2.04985e-19
2.0286e-19
2.04621e-19
2.06376e-19
2.06105e-19
2.07977e-19
2.09605e-19
2.10082e-19
2.10333e-19
2.10763e-19
2.107e-19
2.11552e-19
2.11664e-19
2.1336e-19
2.12193e-19
2.12462e-19
2.14276e-19
2.16331e-19
2.15724e-19
2.16981e-19
2.16427e-19
2.16274e-19
2.15415e-19
2.15213e-19
2.15018e-19
2.15521e-19
2.15639e-19
2.15074e-19
2.15342e-19
2.14731e-19
2.16315e-19
2.13523e-19
2.17412e-19
2.12045e-19
2.18239e-19
2.16512e-19
2.11712e-19
2.1607e-19
2.18918e-19
4.24731e-19
2.82781e-18
1.10442e-17
1.12002e-17
8.05137e-18
4.44552e-18
2.26336e-18
4.63242e-19
3.30747e-19
1.42159e-19
1.47111e-19
1.04875e-19
1.15148e-19
6.15758e-20
8.69362e-20
7.87551e-20
5.56458e-20
6.92037e-20
9.56064e-20
7.43257e-20
2.21333e-20
8.5582e-20
1.42811e-19
1.29182e-19
9.89773e-20
1.85528e-19
3.02805e-19
3.58022e-19
4.04557e-19
4.58255e-19
5.53631e-19
6.72646e-19
6.87169e-19
7.77467e-19
8.79931e-19
1.14043e-18
1.15681e-18
1.46213e-18
1.74477e-18
2.03767e-18
2.22485e-18
2.17496e-18
2.35103e-18
2.65352e-18
2.77974e-18
3.02221e-18
3.1721e-18
3.31069e-18
3.29482e-18
3.35682e-18
2.9446e-18
2.48602e-18
1.40716e-18
6.81394e-19
2.27912e-19
5.73824e-20
1.21124e-19
2.58311e-20
1.39797e-19
5.64727e-20
2.13099e-19
-8.5678e-21
1.45907e-19
-1.45956e-20
3.60606e-19
2.17972e-19
1.08217e-18
1.12012e-18
2.68059e-18
2.75343e-18
2.04461e-19
2.04493e-19
2.04272e-19
2.0328e-19
2.03003e-19
2.065e-19
2.0464e-19
2.04857e-19
2.0655e-19
2.05893e-19
2.05711e-19
2.09976e-19
2.09426e-19
2.1139e-19
2.10321e-19
2.11016e-19
2.13904e-19
2.15182e-19
2.13921e-19
2.1615e-19
2.16797e-19
2.17144e-19
2.14805e-19
2.17168e-19
2.17343e-19
2.16693e-19
2.19324e-19
2.21272e-19
2.20448e-19
2.18727e-19
2.20553e-19
2.20102e-19
2.19463e-19
2.19955e-19
2.19469e-19
2.19691e-19
2.19293e-19
2.19407e-19
2.19187e-19
2.18965e-19
2.18857e-19
2.18518e-19
2.19181e-19
2.18713e-19
2.19689e-19
2.19404e-19
2.17887e-19
2.1926e-19
2.2382e-19
4.65746e-19
2.36701e-18
1.10708e-17
1.15083e-17
8.5997e-18
4.68741e-18
2.95982e-18
9.97544e-19
6.87837e-19
3.82161e-19
3.18507e-19
2.64769e-19
1.83026e-19
1.1278e-19
1.38281e-19
1.22932e-19
1.0707e-19
7.84475e-20
7.51906e-20
8.25407e-20
2.06088e-20
5.78244e-20
1.04462e-19
1.28136e-19
1.11721e-19
1.39841e-19
2.8643e-19
3.37112e-19
3.74485e-19
4.19729e-19
5.18217e-19
6.1198e-19
6.39776e-19
7.68305e-19
8.74927e-19
1.06779e-18
1.1073e-18
1.47317e-18
1.70866e-18
2.05259e-18
2.20965e-18
2.2623e-18
2.38156e-18
2.69645e-18
2.83437e-18
3.08709e-18
3.22606e-18
3.36911e-18
3.34313e-18
3.29007e-18
2.71501e-18
1.9957e-18
1.29314e-18
6.54555e-19
2.64817e-19
1.46399e-19
1.75456e-19
7.60812e-20
9.53336e-20
-4.95307e-21
9.64479e-20
-9.29981e-20
4.24592e-20
-1.43884e-19
2.10095e-19
9.90734e-20
6.8124e-19
6.68702e-19
2.14072e-18
2.19338e-18
2.08497e-19
2.08554e-19
2.09129e-19
2.09043e-19
2.06929e-19
2.09449e-19
2.06939e-19
2.08221e-19
2.08959e-19
2.08927e-19
2.07553e-19
2.14849e-19
2.13989e-19
2.18925e-19
2.13525e-19
2.20178e-19
2.19569e-19
2.2425e-19
2.21371e-19
2.18348e-19
2.219e-19
2.22417e-19
2.23802e-19
2.22476e-19
2.24684e-19
2.26541e-19
2.25043e-19
2.25528e-19
2.2646e-19
2.2867e-19
2.26888e-19
2.2467e-19
2.26227e-19
2.24396e-19
2.23514e-19
2.24763e-19
2.24288e-19
2.24026e-19
2.24299e-19
2.23471e-19
2.23352e-19
2.23381e-19
2.24221e-19
2.23959e-19
2.23592e-19
2.26106e-19
2.22766e-19
2.33106e-19
2.04971e-19
4.35606e-19
2.20639e-18
1.10829e-17
1.25266e-17
9.63012e-18
5.40395e-18
3.81516e-18
1.98211e-18
1.37032e-18
8.71462e-19
6.03518e-19
4.50519e-19
2.94556e-19
1.96975e-19
1.31931e-19
1.12715e-19
1.18896e-19
9.26528e-20
6.10758e-20
6.70029e-20
1.1131e-20
3.07947e-20
4.82845e-20
9.34522e-20
1.30367e-19
1.04722e-19
2.45624e-19
2.98288e-19
3.58801e-19
3.82277e-19
4.95885e-19
5.66927e-19
6.03019e-19
7.77743e-19
9.01111e-19
1.05281e-18
1.13207e-18
1.4493e-18
1.67543e-18
2.06774e-18
2.22819e-18
2.30395e-18
2.43385e-18
2.77584e-18
2.93643e-18
3.18827e-18
3.354e-18
3.4362e-18
3.32279e-18
2.96494e-18
2.27378e-18
1.62659e-18
1.15362e-18
6.11394e-19
3.70347e-19
2.83024e-19
2.33192e-19
2.06458e-19
1.17847e-19
3.68785e-20
4.09989e-20
4.07828e-20
9.70523e-21
-1.73774e-19
1.15655e-19
-1.81711e-19
5.44496e-19
4.78082e-19
1.17575e-18
1.2001e-18
2.12386e-19
2.12117e-19
2.12346e-19
2.11949e-19
2.13005e-19
2.14377e-19
2.12763e-19
2.18481e-19
2.1203e-19
2.13702e-19
2.16453e-19
2.17805e-19
2.20485e-19
2.26987e-19
2.23586e-19
2.26119e-19
2.23636e-19
2.32474e-19
2.28307e-19
2.32059e-19
2.30282e-19
2.31823e-19
2.34045e-19
2.33e-19
2.33152e-19
2.34523e-19
2.34442e-19
2.32921e-19
2.34082e-19
2.3211e-19
2.34235e-19
2.33835e-19
2.34612e-19
2.33091e-19
2.31945e-19
2.32428e-19
2.32454e-19
2.32195e-19
2.31823e-19
2.32033e-19
2.32848e-19
2.3249e-19
2.33296e-19
2.33498e-19
2.33736e-19
2.34261e-19
2.30494e-19
2.39777e-19
1.9492e-19
4.32216e-19
2.16889e-18
1.07478e-17
1.48881e-17
1.1823e-17
7.16782e-18
5.58866e-18
3.63146e-18
2.12342e-18
1.36035e-18
8.23008e-19
5.07452e-19
2.54432e-19
2.01113e-19
9.37004e-20
1.10999e-20
4.35412e-20
2.63855e-20
8.71567e-21
3.80255e-20
-3.02422e-20
-1.70869e-20
3.67795e-21
4.80929e-20
9.96332e-20
1.35941e-19
2.49671e-19
2.86193e-19
3.20468e-19
3.73584e-19
5.0075e-19
5.69852e-19
6.21425e-19
7.8228e-19
1.01723e-18
1.13018e-18
1.22346e-18
1.48704e-18
1.65091e-18
2.10734e-18
2.25203e-18
2.37846e-18
2.55711e-18
2.8854e-18
3.09097e-18
3.28803e-18
3.43264e-18
3.36412e-18
3.01809e-18
2.40832e-18
1.86465e-18
1.39971e-18
1.04253e-18
6.59816e-19
5.74434e-19
4.78928e-19
4.59284e-19
3.15314e-19
4.0117e-19
1.44712e-19
1.38083e-19
-5.09428e-20
2.72374e-20
-2.10985e-19
2.75315e-20
-1.56814e-19
2.37197e-19
6.27084e-20
1.00004e-18
1.038e-18
2.19086e-19
2.19309e-19
2.17817e-19
2.18095e-19
2.21674e-19
2.23592e-19
2.19887e-19
2.26711e-19
2.21117e-19
2.23873e-19
2.27933e-19
2.27239e-19
2.32314e-19
2.29495e-19
2.29411e-19
2.34494e-19
2.34588e-19
2.35421e-19
2.35247e-19
2.42597e-19
2.40142e-19
2.39862e-19
2.39762e-19
2.41836e-19
2.38189e-19
2.41925e-19
2.42737e-19
2.43816e-19
2.4115e-19
2.38975e-19
2.41012e-19
2.42011e-19
2.40852e-19
2.41249e-19
2.40404e-19
2.40894e-19
2.40754e-19
2.40246e-19
2.41227e-19
2.42026e-19
2.41931e-19
2.42095e-19
2.42505e-19
2.42138e-19
2.42235e-19
2.43591e-19
2.37744e-19
2.40485e-19
2.32835e-19
3.87352e-19
1.88784e-18
8.91142e-18
1.96821e-17
1.56134e-17
1.05961e-17
7.9796e-18
5.60728e-18
3.2747e-18
2.37536e-18
1.39323e-18
8.26767e-19
4.54982e-19
3.51438e-19
2.2699e-19
1.30469e-19
1.04489e-19
9.40012e-20
7.86249e-20
1.13749e-19
6.01592e-20
7.25731e-20
7.54215e-20
1.11556e-19
2.01645e-19
2.43599e-19
3.29026e-19
3.57076e-19
3.89213e-19
4.59283e-19
5.64352e-19
6.34335e-19
6.86045e-19
9.14592e-19
1.09854e-18
1.21553e-18
1.29983e-18
1.52601e-18
1.7154e-18
2.1612e-18
2.31588e-18
2.51526e-18
2.72101e-18
3.01565e-18
3.22076e-18
3.31093e-18
3.31504e-18
2.96505e-18
2.41022e-18
1.89084e-18
1.52466e-18
1.22773e-18
9.71697e-19
7.72247e-19
7.62713e-19
6.98113e-19
6.52911e-19
5.67992e-19
6.12907e-19
3.52741e-19
3.78811e-19
2.62331e-19
2.8253e-19
-1.31933e-19
-8.30597e-21
-1.53954e-19
-8.07355e-20
-2.11999e-19
-8.13082e-20
-8.70178e-20
2.24954e-19
2.26643e-19
2.26717e-19
2.30785e-19
2.31918e-19
2.34787e-19
2.39528e-19
2.34482e-19
2.38043e-19
2.3634e-19
2.42254e-19
2.40307e-19
2.48344e-19
2.50203e-19
2.48406e-19
2.43433e-19
2.44391e-19
2.42672e-19
2.47949e-19
2.51567e-19
2.4532e-19
2.47563e-19
2.50177e-19
2.49503e-19
2.51121e-19
2.50925e-19
2.489e-19
2.51181e-19
2.47526e-19
2.51696e-19
2.45499e-19
2.47671e-19
2.45841e-19
2.49056e-19
2.46163e-19
2.43127e-19
2.44547e-19
2.45681e-19
2.46723e-19
2.47695e-19
2.47584e-19
2.47807e-19
2.46202e-19
2.48099e-19
2.47553e-19
2.45738e-19
2.39914e-19
2.4783e-19
2.3802e-19
3.53231e-19
1.76954e-18
8.96129e-18
2.58629e-17
2.15679e-17
1.37943e-17
9.81585e-18
7.60485e-18
5.29876e-18
3.56735e-18
2.28519e-18
1.30665e-18
7.93148e-19
6.17109e-19
5.05921e-19
3.87774e-19
2.8946e-19
2.43992e-19
2.63373e-19
2.80958e-19
2.16817e-19
2.53257e-19
2.29269e-19
2.45396e-19
3.3754e-19
3.74598e-19
4.33148e-19
4.81674e-19
5.01486e-19
5.74455e-19
6.56231e-19
7.33733e-19
8.27267e-19
9.70575e-19
1.15606e-18
1.24254e-18
1.48156e-18
1.66817e-18
1.84417e-18
2.25909e-18
2.39734e-18
2.65377e-18
2.86339e-18
3.1089e-18
3.21429e-18
3.03433e-18
2.76835e-18
2.299e-18
1.8659e-18
1.57374e-18
1.32017e-18
1.14775e-18
9.73092e-19
9.26113e-19
9.08926e-19
9.44874e-19
8.79825e-19
7.61482e-19
7.94992e-19
6.63727e-19
5.48991e-19
4.56146e-19
4.58042e-19
4.35607e-19
4.23725e-19
2.76536e-19
-1.24127e-19
-2.24834e-19
-2.99524e-19
-3.41555e-19
2.39107e-19
2.41936e-19
2.42756e-19
2.54881e-19
2.53137e-19
2.52099e-19
2.5151e-19
2.49473e-19
2.55323e-19
2.55874e-19
2.58872e-19
2.60882e-19
2.60722e-19
2.54257e-19
2.61202e-19
2.5674e-19
2.50561e-19
2.60381e-19
2.59966e-19
2.55258e-19
2.57325e-19
2.59507e-19
2.59503e-19
2.5606e-19
2.52231e-19
2.58934e-19
2.56654e-19
2.5871e-19
2.51419e-19
2.59131e-19
2.51121e-19
2.5467e-19
2.51786e-19
2.53707e-19
2.49183e-19
2.50974e-19
2.52708e-19
2.52293e-19
2.52471e-19
2.52539e-19
2.52761e-19
2.52898e-19
2.49072e-19
2.49134e-19
2.48015e-19
2.51924e-19
2.46853e-19
2.54204e-19
2.36948e-19
2.77175e-19
8.68082e-19
3.52201e-18
2.29516e-17
2.73436e-17
1.58277e-17
1.16731e-17
8.80934e-18
5.9824e-18
3.93976e-18
2.61733e-18
1.51516e-18
9.25328e-19
7.3346e-19
5.63154e-19
4.57318e-19
3.5956e-19
3.17266e-19
3.5319e-19
2.99202e-19
2.52265e-19
2.82934e-19
2.90391e-19
3.01683e-19
3.87947e-19
3.95148e-19
4.85364e-19
5.72669e-19
5.35926e-19
6.24543e-19
6.88226e-19
7.78932e-19
9.6408e-19
1.02939e-18
1.2429e-18
1.35329e-18
1.56391e-18
1.77491e-18
1.9403e-18
2.35112e-18
2.47816e-18
2.72347e-18
2.86426e-18
2.91786e-18
2.82375e-18
2.43448e-18
2.06974e-18
1.71909e-18
1.46162e-18
1.2941e-18
1.18363e-18
1.05063e-18
9.86349e-19
9.82352e-19
1.13237e-18
1.03124e-18
1.12689e-18
1.03903e-18
1.04357e-18
8.11608e-19
7.7427e-19
7.1861e-19
8.5228e-19
6.62933e-19
8.15349e-19
4.67535e-19
1.92118e-20
-8.31047e-20
-6.66513e-20
-8.00967e-20
2.67903e-19
2.67963e-19
2.63972e-19
2.71096e-19
2.81746e-19
2.66494e-19
2.59698e-19
2.69596e-19
2.66916e-19
2.81625e-19
2.64036e-19
2.74221e-19
2.69616e-19
2.58265e-19
2.69818e-19
2.64278e-19
2.63473e-19
2.64721e-19
2.67753e-19
2.64287e-19
2.65103e-19
2.64005e-19
2.66446e-19
2.66822e-19
2.63116e-19
2.6547e-19
2.60231e-19
2.63334e-19
2.64157e-19
2.60574e-19
2.6014e-19
2.56786e-19
2.57145e-19
2.55956e-19
2.56288e-19
2.562e-19
2.56261e-19
2.55378e-19
2.55588e-19
2.54769e-19
2.55184e-19
2.52958e-19
2.51116e-19
2.47771e-19
2.49318e-19
2.48657e-19
2.49061e-19
2.48469e-19
2.39682e-19
2.69413e-19
5.31634e-19
3.27694e-18
1.67227e-17
2.38983e-17
1.81253e-17
1.23442e-17
9.39994e-18
5.88965e-18
4.20677e-18
2.81718e-18
1.77136e-18
1.10116e-18
8.20276e-19
6.55301e-19
5.06104e-19
3.90652e-19
3.54687e-19
3.42213e-19
2.85838e-19
2.64051e-19
2.84201e-19
2.94052e-19
3.16917e-19
3.77331e-19
4.19805e-19
4.74543e-19
5.5186e-19
5.67991e-19
6.17754e-19
6.84385e-19
8.54719e-19
1.03039e-18
1.09331e-18
1.30702e-18
1.43822e-18
1.58928e-18
1.88263e-18
2.05738e-18
2.4304e-18
2.49843e-18
2.58325e-18
2.52248e-18
2.38246e-18
2.1071e-18
1.75834e-18
1.58509e-18
1.36946e-18
1.19453e-18
1.10912e-18
1.02836e-18
1.01606e-18
9.99436e-19
1.07206e-18
1.10772e-18
1.25657e-18
1.324e-18
1.14456e-18
1.07051e-18
1.21748e-18
1.28215e-18
1.07057e-18
1.10641e-18
1.10128e-18
1.2868e-18
1.02593e-18
3.98283e-19
2.99839e-19
3.31234e-20
-2.15928e-20
2.86044e-19
2.83364e-19
2.87504e-19
2.83583e-19
2.75899e-19
2.74278e-19
2.8288e-19
2.77141e-19
2.71957e-19
2.76008e-19
2.75328e-19
2.74342e-19
2.75503e-19
2.66072e-19
2.64492e-19
2.71606e-19
2.70668e-19
2.69884e-19
2.6983e-19
2.76997e-19
2.72952e-19
2.74161e-19
2.73976e-19
2.67157e-19
2.67528e-19
2.62889e-19
2.67874e-19
2.67215e-19
2.64488e-19
2.67032e-19
2.61121e-19
2.62622e-19
2.5461e-19
2.58565e-19
2.56609e-19
2.55932e-19
2.56373e-19
2.55458e-19
2.54323e-19
2.53791e-19
2.53391e-19
2.47534e-19
2.44892e-19
2.46575e-19
2.50525e-19
2.44381e-19
2.49691e-19
2.47565e-19
2.43276e-19
2.67943e-19
4.46506e-19
1.18911e-18
1.22866e-17
1.76569e-17
1.67186e-17
1.35576e-17
9.96393e-18
5.31927e-18
3.46875e-18
2.26641e-18
1.39917e-18
7.71751e-19
5.69928e-19
4.55921e-19
2.68023e-19
2.25911e-19
2.17581e-19
1.87195e-19
1.96266e-19
1.87504e-19
2.24993e-19
2.36167e-19
2.88245e-19
3.43563e-19
3.83703e-19
4.47815e-19
4.98174e-19
5.78354e-19
6.08101e-19
7.29599e-19
9.16214e-19
1.03756e-18
1.14596e-18
1.40825e-18
1.49382e-18
1.64889e-18
1.97982e-18
2.06692e-18
2.29624e-18
2.23463e-18
2.13572e-18
1.90735e-18
1.7597e-18
1.48374e-18
1.29856e-18
1.22915e-18
1.09022e-18
1.01735e-18
9.55811e-19
9.54824e-19
9.11909e-19
9.48324e-19
1.03369e-18
1.17142e-18
1.27181e-18
1.3768e-18
1.06639e-18
1.02703e-18
1.21863e-18
1.20588e-18
1.58144e-18
1.62808e-18
1.55837e-18
1.29436e-18
1.50181e-18
1.04233e-18
1.13503e-18
9.74042e-19
9.65454e-19
2.84656e-19
2.84412e-19
2.90039e-19
2.72497e-19
2.76141e-19
2.68564e-19
2.83127e-19
2.6283e-19
2.79471e-19
2.84826e-19
2.81752e-19
2.73202e-19
2.79539e-19
2.69909e-19
2.79019e-19
2.77571e-19
2.77849e-19
2.77635e-19
2.80609e-19
2.74518e-19
2.7987e-19
2.74035e-19
2.71257e-19
2.67643e-19
2.70339e-19
2.69927e-19
2.65897e-19
2.62273e-19
2.69765e-19
2.62674e-19
2.63789e-19
2.60411e-19
2.54868e-19
2.5657e-19
2.52062e-19
2.51954e-19
2.49775e-19
2.47516e-19
2.47151e-19
2.4398e-19
2.41861e-19
2.40953e-19
2.41691e-19
2.40988e-19
2.40405e-19
2.33471e-19
2.3445e-19
2.29006e-19
2.30118e-19
2.76498e-19
6.61109e-19
3.02388e-18
6.52002e-18
9.05473e-18
1.28664e-17
1.32468e-17
1.02027e-17
6.17947e-18
3.31439e-18
1.80001e-18
1.14399e-18
6.46553e-19
4.88667e-19
3.78472e-19
2.0768e-19
1.88803e-19
2.2415e-19
1.48709e-19
1.71804e-19
1.55207e-19
2.26052e-19
2.4638e-19
2.67856e-19
3.41009e-19
4.07496e-19
4.49978e-19
5.3069e-19
5.82779e-19
6.50227e-19
7.31769e-19
9.93426e-19
1.11931e-18
1.2177e-18
1.48557e-18
1.52311e-18
1.65316e-18
1.87494e-18
1.80137e-18
1.87524e-18
1.75336e-18
1.50788e-18
1.32637e-18
1.25736e-18
1.0317e-18
1.04306e-18
1.00452e-18
9.34888e-19
8.39628e-19
8.2813e-19
8.22543e-19
8.07575e-19
9.10693e-19
1.00036e-18
1.12593e-18
1.23973e-18
1.13997e-18
9.70927e-19
9.10075e-19
1.22078e-18
1.03846e-18
1.76135e-18
1.68297e-18
1.8388e-18
1.62491e-18
1.81581e-18
1.88418e-18
1.88392e-18
1.76263e-18
1.80979e-18
2.83367e-19
2.84205e-19
2.89731e-19
2.72837e-19
2.74106e-19
2.73604e-19
2.79785e-19
2.74034e-19
2.88041e-19
2.81558e-19
2.85297e-19
2.90071e-19
2.78826e-19
2.96845e-19
2.98358e-19
2.86708e-19
2.85194e-19
2.87148e-19
2.88799e-19
2.82812e-19
2.83491e-19
2.67667e-19
2.73986e-19
2.69828e-19
2.72723e-19
2.74434e-19
2.68578e-19
2.67318e-19
2.5666e-19
2.53157e-19
2.54451e-19
2.54833e-19
2.4544e-19
2.48881e-19
2.44871e-19
2.44284e-19
2.44645e-19
2.38744e-19
2.39727e-19
2.30996e-19
2.34169e-19
2.31247e-19
2.29972e-19
2.29179e-19
2.26669e-19
2.24912e-19
2.19994e-19
2.18073e-19
2.2084e-19
2.72043e-19
7.28332e-19
2.2042e-18
3.13448e-18
4.15426e-18
6.90941e-18
1.00572e-17
9.71371e-18
7.1581e-18
4.13567e-18
1.78795e-18
1.01319e-18
5.9462e-19
4.19244e-19
3.41362e-19
2.41177e-19
1.96664e-19
2.2687e-19
1.73892e-19
1.97887e-19
2.15078e-19
1.95906e-19
2.5537e-19
3.18622e-19
3.64785e-19
4.57127e-19
4.61279e-19
5.51274e-19
6.41953e-19
7.61905e-19
8.39846e-19
1.04798e-18
1.18665e-18
1.29176e-18
1.46862e-18
1.36646e-18
1.42581e-18
1.5169e-18
1.37974e-18
1.38874e-18
1.26339e-18
1.06587e-18
1.01738e-18
8.5391e-19
7.99373e-19
8.23048e-19
7.69616e-19
7.3825e-19
6.91547e-19
6.80337e-19
6.90192e-19
7.09747e-19
7.97908e-19
8.48301e-19
1.03878e-18
1.20041e-18
1.00289e-18
8.95114e-19
8.35475e-19
8.71007e-19
9.77857e-19
1.44865e-18
1.29009e-18
1.72556e-18
1.84091e-18
1.66255e-18
1.48564e-18
1.56497e-18
1.85938e-18
1.96176e-18
2.94521e-19
2.95702e-19
2.99104e-19
2.98708e-19
2.83572e-19
3.04933e-19
2.76586e-19
3.05511e-19
3.20595e-19
3.06516e-19
3.0118e-19
3.11083e-19
2.91081e-19
3.32788e-19
3.18896e-19
3.09025e-19
3.00973e-19
2.95032e-19
2.97008e-19
2.9164e-19
2.83092e-19
2.76726e-19
2.74604e-19
2.7416e-19
2.74557e-19
2.68235e-19
2.62466e-19
2.54257e-19
2.48433e-19
2.41301e-19
2.44637e-19
2.37676e-19
2.33946e-19
2.32239e-19
2.3311e-19
2.25344e-19
2.31826e-19
2.18095e-19
2.30451e-19
2.16629e-19
2.26896e-19
2.14228e-19
2.18861e-19
2.10306e-19
2.07769e-19
2.10343e-19
2.02984e-19
1.98684e-19
2.04091e-19
2.68211e-19
8.08884e-19
1.75197e-18
2.14349e-18
2.46625e-18
3.70334e-18
5.5645e-18
7.02297e-18
6.95901e-18
4.5944e-18
2.14718e-18
8.85158e-19
4.83948e-19
3.08025e-19
2.18559e-19
1.76198e-19
2.46301e-19
2.18785e-19
1.72322e-19
1.45628e-19
4.02244e-19
2.77331e-19
2.84482e-19
3.34572e-19
4.06393e-19
4.83017e-19
5.41101e-19
6.05673e-19
7.03294e-19
8.62971e-19
9.00977e-19
1.10535e-18
1.07477e-18
1.17021e-18
1.18002e-18
1.10613e-18
1.0813e-18
1.03168e-18
9.99696e-19
9.83197e-19
9.56624e-19
8.57379e-19
7.50823e-19
7.60114e-19
6.09757e-19
5.54146e-19
6.21075e-19
6.58148e-19
6.29865e-19
6.14831e-19
6.428e-19
6.4928e-19
6.1131e-19
7.31288e-19
1.00469e-18
9.23065e-19
1.03658e-18
7.98066e-19
5.6402e-19
7.7866e-19
3.88851e-19
1.07682e-18
7.94232e-19
1.03731e-18
1.03117e-18
1.31145e-18
1.39909e-18
1.51039e-18
1.63376e-18
1.59597e-18
3.26786e-19
3.21071e-19
3.07258e-19
3.23052e-19
3.27722e-19
3.43625e-19
3.50725e-19
3.83581e-19
3.21058e-19
3.49542e-19
3.39461e-19
3.33461e-19
3.42787e-19
3.4151e-19
3.35133e-19
3.31897e-19
3.24793e-19
3.01328e-19
2.90548e-19
2.95744e-19
2.87993e-19
2.94633e-19
2.67994e-19
2.75315e-19
2.65548e-19
2.5791e-19
2.46328e-19
2.32112e-19
2.38119e-19
2.24124e-19
2.23758e-19
2.14431e-19
2.18135e-19
2.14033e-19
2.06598e-19
2.07085e-19
2.04649e-19
2.03783e-19
2.13659e-19
1.91272e-19
2.07963e-19
1.92389e-19
1.91674e-19
1.81362e-19
1.8427e-19
1.87496e-19
1.78487e-19
1.77129e-19
1.81929e-19
2.54075e-19
6.84352e-19
8.49737e-19
1.01358e-18
1.16269e-18
1.7352e-18
2.58726e-18
3.75841e-18
4.52442e-18
3.95696e-18
2.4235e-18
1.0868e-18
4.04698e-19
3.23146e-19
2.91186e-19
5.96159e-20
1.75887e-19
1.42446e-19
1.81946e-19
1.89154e-19
3.57749e-19
3.92822e-19
3.03512e-19
3.37979e-19
4.21224e-19
5.28952e-19
5.37254e-19
6.53786e-19
7.13719e-19
8.12437e-19
8.54574e-19
9.65243e-19
9.0279e-19
9.18286e-19
8.65001e-19
8.90591e-19
8.67866e-19
8.68994e-19
7.98817e-19
7.17148e-19
6.8695e-19
6.53512e-19
5.4501e-19
5.27621e-19
5.31214e-19
5.46626e-19
5.60057e-19
5.16648e-19
5.12778e-19
5.94649e-19
5.71691e-19
5.36176e-19
5.7612e-19
7.03451e-19
8.39646e-19
8.22053e-19
7.60116e-19
7.26899e-19
6.70929e-19
6.40803e-19
4.75222e-19
8.02232e-19
7.86073e-19
9.43098e-19
8.74442e-19
1.04197e-18
1.32475e-18
1.25412e-18
1.14427e-18
1.20267e-18
3.72607e-19
3.69e-19
3.63256e-19
3.67279e-19
3.82914e-19
3.92957e-19
3.92596e-19
4.08469e-19
3.79214e-19
3.80118e-19
3.23232e-19
3.54043e-19
3.88872e-19
3.37427e-19
3.50055e-19
3.31855e-19
3.27875e-19
3.01299e-19
2.93461e-19
2.9686e-19
2.74793e-19
2.73593e-19
2.57203e-19
2.56983e-19
2.32051e-19
2.38666e-19
2.14906e-19
2.17267e-19
2.1047e-19
1.93726e-19
1.9791e-19
1.87588e-19
1.93717e-19
1.78996e-19
1.80351e-19
1.67892e-19
1.81798e-19
1.54034e-19
1.73901e-19
1.5412e-19
1.75102e-19
1.52776e-19
1.56259e-19
1.45921e-19
1.55332e-19
1.44922e-19
1.42922e-19
1.42871e-19
1.5046e-19
2.06579e-19
3.57275e-19
3.2615e-19
2.7514e-19
3.17578e-19
6.32806e-19
1.00382e-18
1.58884e-18
2.05317e-18
2.3001e-18
1.98761e-18
9.62558e-19
4.72245e-19
2.6146e-19
1.11685e-19
-5.17983e-21
1.00861e-19
5.86379e-20
1.67112e-19
2.24981e-19
2.88065e-19
3.66976e-19
3.6713e-19
3.36783e-19
3.98683e-19
5.27934e-19
4.82671e-19
6.31218e-19
7.55359e-19
6.67531e-19
7.01395e-19
6.70218e-19
7.89045e-19
7.46185e-19
6.99275e-19
7.63613e-19
7.236e-19
6.2087e-19
6.62574e-19
6.56416e-19
5.83753e-19
5.23743e-19
4.49293e-19
4.36003e-19
4.2597e-19
4.28264e-19
4.36869e-19
3.86891e-19
4.48395e-19
5.52572e-19
5.38161e-19
5.81072e-19
5.5665e-19
6.06479e-19
7.11075e-19
5.48027e-19
8.96331e-19
9.50342e-19
8.7747e-19
4.08611e-19
5.16385e-19
7.47732e-19
6.80957e-19
6.04778e-19
1.09087e-18
1.32189e-18
1.3396e-18
1.22083e-18
1.54129e-18
1.64844e-18
4.23166e-19
4.33338e-19
4.21904e-19
3.96157e-19
3.96725e-19
3.91244e-19
3.98089e-19
3.89133e-19
3.91127e-19
3.88088e-19
3.69869e-19
3.70812e-19
3.59324e-19
3.54578e-19
3.2063e-19
3.24076e-19
3.02343e-19
3.04729e-19
2.81759e-19
2.58636e-19
2.33908e-19
2.47732e-19
2.25367e-19
2.27964e-19
2.01871e-19
2.04885e-19
1.92048e-19
1.80928e-19
1.66558e-19
1.55563e-19
1.67151e-19
1.49475e-19
1.41869e-19
1.40705e-19
1.4809e-19
1.29025e-19
1.44378e-19
1.19159e-19
1.28885e-19
1.12254e-19
1.331e-19
1.16767e-19
1.23382e-19
1.17598e-19
1.15431e-19
1.12875e-19
1.11961e-19
1.09641e-19
1.05122e-19
8.20123e-20
5.04532e-20
-6.35458e-20
-1.35408e-19
-2.01421e-19
-3.66831e-19
-3.27447e-19
-4.59762e-20
2.6694e-19
6.55855e-19
6.95258e-19
5.49314e-19
3.32949e-19
2.04062e-19
6.77451e-20
-2.41314e-21
9.03659e-20
1.33881e-19
2.13167e-19
3.09891e-19
2.65463e-19
3.66569e-19
3.18427e-19
3.23638e-19
2.87792e-19
5.27179e-19
4.19936e-19
5.93014e-19
5.82727e-19
5.43351e-19
5.35376e-19
4.13087e-19
5.55322e-19
6.92903e-19
5.58801e-19
6.15453e-19
5.80631e-19
5.17131e-19
4.86434e-19
5.17701e-19
5.12039e-19
4.01898e-19
3.11043e-19
3.8488e-19
3.04378e-19
3.63335e-19
3.63062e-19
3.42236e-19
4.81436e-19
5.32566e-19
3.84629e-19
5.16633e-19
4.35492e-19
6.09966e-19
8.96923e-19
6.10305e-19
8.05357e-19
1.1525e-18
1.23122e-18
4.23895e-19
2.69331e-19
7.39389e-19
7.2918e-19
5.82269e-19
2.48181e-19
1.95039e-19
1.52402e-19
1.9715e-19
2.07882e-19
8.56192e-20
4.05001e-19
4.15723e-19
4.3948e-19
4.04668e-19
4.44321e-19
4.16792e-19
4.2621e-19
3.89591e-19
3.72065e-19
3.63343e-19
3.80256e-19
3.48341e-19
3.20371e-19
3.28778e-19
3.01076e-19
2.89058e-19
2.60387e-19
2.60843e-19
2.36173e-19
2.31911e-19
1.84903e-19
1.94638e-19
1.66118e-19
1.71905e-19
1.51786e-19
1.51708e-19
1.33372e-19
1.3639e-19
1.20702e-19
1.25899e-19
1.20654e-19
1.06637e-19
9.50626e-20
1.1126e-19
1.01271e-19
8.83098e-20
9.50869e-20
7.7862e-20
9.38528e-20
7.2206e-20
8.19512e-20
7.80234e-20
8.83842e-20
7.63174e-20
7.10468e-20
7.70483e-20
7.39294e-20
6.75604e-20
2.94447e-20
-1.19728e-19
-3.54796e-19
-4.5895e-19
-5.00357e-19
-5.36298e-19
-6.40743e-19
-6.13862e-19
-5.99059e-19
-5.01729e-19
-3.71757e-19
-2.40818e-19
-2.07287e-19
-1.1337e-19
-3.47687e-20
-2.89636e-20
1.29214e-20
1.32489e-19
1.77014e-19
2.81999e-19
3.46445e-19
2.32223e-19
3.09688e-19
3.16545e-19
2.84465e-19
2.47984e-19
4.11971e-19
3.80095e-19
4.34065e-19
4.69883e-19
4.0567e-19
4.02796e-19
3.37949e-19
5.44224e-19
5.4688e-19
5.92994e-19
5.61315e-19
5.05914e-19
4.74785e-19
5.94636e-19
5.36907e-19
4.56898e-19
3.00883e-19
3.04897e-19
3.34894e-19
2.66674e-19
3.14962e-19
3.57537e-19
3.62791e-19
4.60716e-19
4.80445e-19
4.53297e-19
4.52237e-19
4.48741e-19
3.98099e-19
9.33331e-19
6.76965e-19
7.85713e-19
1.23604e-18
9.3073e-19
1.00445e-18
1.15748e-18
6.90616e-19
8.41219e-19
1.06054e-18
9.54854e-19
5.30514e-19
5.929e-19
6.52344e-19
6.38258e-19
6.56173e-19
4.42618e-19
4.39559e-19
4.33751e-19
4.02475e-19
4.39943e-19
4.31539e-19
3.80731e-19
3.58786e-19
3.32901e-19
3.54857e-19
3.19928e-19
3.18677e-19
3.07485e-19
2.59051e-19
2.37695e-19
2.25158e-19
2.02829e-19
1.69295e-19
1.75423e-19
1.36098e-19
1.35137e-19
1.27763e-19
1.16195e-19
1.0951e-19
9.41701e-20
9.31079e-20
8.62406e-20
8.23559e-20
8.65837e-20
8.52486e-20
6.53302e-20
7.19141e-20
7.59918e-20
6.10972e-20
6.85035e-20
6.27214e-20
5.75212e-20
5.55837e-20
6.51212e-20
5.43135e-20
6.20773e-20
5.21971e-20
6.24761e-20
4.97672e-20
5.83538e-20
5.06897e-20
4.77376e-20
2.79966e-20
-7.53751e-20
-4.76698e-19
-5.94626e-19
-6.61274e-19
-7.07194e-19
-7.50362e-19
-8.27344e-19
-8.12153e-19
-8.31197e-19
-8.35994e-19
-7.94201e-19
-7.45518e-19
-6.5466e-19
-5.09244e-19
-3.04036e-19
-1.87208e-19
-6.37497e-20
1.07986e-19
1.30321e-19
2.96125e-19
2.83726e-19
2.13471e-19
1.90843e-19
3.53405e-19
2.08855e-19
1.97994e-19
3.42582e-19
2.45544e-19
4.41555e-19
3.68287e-19
2.99652e-19
3.75567e-19
3.55641e-19
4.29598e-19
4.84985e-19
5.78238e-19
5.06881e-19
5.09286e-19
4.43322e-19
4.41076e-19
4.08989e-19
3.57878e-19
2.98934e-19
2.94174e-19
2.51582e-19
2.45203e-19
3.33954e-19
3.89041e-19
3.28736e-19
4.06893e-19
4.03736e-19
6.08603e-19
3.22782e-19
3.07279e-19
4.32442e-19
4.93486e-19
1.27435e-18
1.14794e-18
1.38822e-18
1.093e-18
7.71845e-19
1.45213e-18
1.776e-18
1.10041e-18
8.87793e-19
7.41176e-19
7.50789e-19
7.18361e-19
6.04265e-19
6.14788e-19
6.55206e-19
4.23795e-19
4.32665e-19
4.50262e-19
4.14228e-19
3.93495e-19
3.75918e-19
3.27848e-19
2.88613e-19
2.81461e-19
2.95245e-19
2.90949e-19
2.68874e-19
2.09993e-19
1.96844e-19
1.76428e-19
1.34894e-19
1.36299e-19
8.41157e-20
9.2412e-20
7.28363e-20
8.66954e-20
4.28492e-20
9.06748e-20
3.86938e-20
5.28542e-20
5.28003e-20
6.28965e-20
3.66968e-20
5.24122e-20
3.64782e-20
3.58266e-20
6.15098e-20
4.38755e-20
5.13835e-20
2.94501e-20
4.0999e-20
3.8077e-20
2.88804e-20
5.02086e-20
2.58281e-20
3.82022e-20
2.86385e-20
4.27375e-20
3.0923e-20
3.6893e-20
3.23503e-20
2.67196e-20
2.86363e-21
-2.49117e-19
-7.26532e-19
-9.28228e-19
-1.00695e-18
-1.07027e-18
-1.11618e-18
-1.16342e-18
-1.14384e-18
-1.24525e-18
-1.2645e-18
-1.2566e-18
-1.24563e-18
-1.06593e-18
-7.45439e-19
-4.33067e-19
-2.42811e-19
-1.45194e-19
1.23887e-19
4.24885e-20
2.41116e-19
1.1848e-19
6.86743e-20
1.69504e-19
3.10219e-19
1.25519e-19
2.14219e-19
2.74966e-19
2.50615e-19
2.58614e-19
2.86748e-19
3.41071e-19
3.92088e-19
3.53805e-19
4.20852e-19
4.74144e-19
5.41088e-19
5.41939e-19
3.92151e-19
3.64399e-19
2.49372e-19
3.79311e-19
3.93423e-19
2.39399e-19
2.14518e-19
2.17039e-19
2.94931e-19
3.49972e-19
3.67235e-19
2.98926e-19
3.90366e-19
3.69833e-19
5.0463e-19
3.81885e-19
2.39489e-19
3.38916e-19
8.5658e-19
9.90497e-19
7.64057e-19
9.66324e-19
1.67862e-18
6.77048e-19
1.28776e-18
1.28187e-18
1.04687e-18
1.03562e-18
7.51621e-19
5.90272e-19
2.51172e-19
1.16837e-19
1.05807e-19
9.96264e-20
3.08749e-19
3.45045e-19
3.89048e-19
4.42056e-19
3.54171e-19
2.75581e-19
3.07711e-19
2.36582e-19
2.52435e-19
1.8128e-19
2.19574e-19
9.84239e-20
1.26626e-19
3.27235e-20
9.56625e-20
6.31969e-20
3.85863e-20
4.44234e-20
1.45794e-20
2.98391e-20
5.16453e-20
2.62547e-20
1.56596e-20
2.51323e-20
1.37362e-20
3.23742e-20
1.1262e-20
2.38396e-20
2.34305e-20
3.0294e-20
3.60339e-20
4.37914e-20
1.86517e-20
5.0364e-20
2.59217e-20
4.58852e-20
3.03463e-20
3.43377e-20
2.56287e-20
1.50873e-20
3.92119e-20
2.44156e-20
2.52244e-20
2.47218e-20
2.52228e-20
2.26402e-20
9.94075e-21
-7.67854e-20
-5.47768e-19
-1.01727e-18
-1.09625e-18
-1.23204e-18
-1.28888e-18
-1.35294e-18
-1.35921e-18
-1.39928e-18
-1.60894e-18
-1.56715e-18
-1.45977e-18
-1.36108e-18