/*--------------------------------*- C++ -*----------------------------------*\
| =========                 |                                                 |
| \\      /  F ield         | OpenFOAM: The Open Source CFD Toolbox           |
|  \\    /   O peration     | Version:  2.2.x                                 |
|   \\  /    A nd           | Web:      www.OpenFOAM.org                      |
|    \\/     M anipulation  |                                                 |
\*---------------------------------------------------------------------------*/
FoamFile
{
    version     2.0;
    format      ascii;
    class       volScalarField;
    location    "1.15";
    object      divBf;
}
// * * * * * * * * * * * * * * * * * * * * * * * * * * * * * * * * * * * * * //

dimensions      [1 -3 -2 0 0 -1 0];

internalField   nonuniform List<scalar> 
14161
(
738.291
305.078
341.889
288.465
261.378
223.941
199.19
169.995
136.221
121.6
93.1349
63.8212
49.4234
28.5921
8.98296
-23.9365
-29.9065
-43.8556
-74.5034
-89.1398
-114.144
-129.84
-112.911
-177.546
-217.618
-210.303
-131.477
-211.512
-266.834
-284.815
-236.823
-273.506
-288.691
-259.722
-241.543
-148.347
-75.4719
43.6205
-81.3553
29.7653
167.82
104.25
275.325
190.645
604.54
-27171.4
-27619.9
-28529.6
-29996
-25563.9
-27084.9
-15686
-23055.5
-22427.7
-32901.6
-29711.4
-37105.8
-34307.9
-34687.3
-35191.1
-33287.9
-32731.7
-30367.4
-27725.9
-25853.3
-23497.6
-21142.6
-18285.9
-16242.9
-13288.3
-10512.4
-8924.69
-6776.85
-4945.14
-3010.29
-1113.58
396.919
1856.18
2833.46
5241.92
6842.15
7847.64
8824.28
10453.6
11547.5
12246
13151.6
13978.9
14293.5
15043.6
14318.9
14973.8
14422.6
14005.4
13590.4
12848.4
11890.6
10511.5
9847.8
7122.56
6201.5
-3595.56
-9303.3
-16322.5
-15473.4
-15422
-14314.9
-14225.2
-13019.2
-13085.6
-11257.3
-11600.2
-8573.88
-9233.8
-3823.45
-6756.27
5559.76
-7471.52
22984.6
489.668
58.5676
95.7581
41.8969
13.1324
-25.634
-54.0197
-87.3363
-123.112
-145.924
-177.93
-213.27
-236.865
-261.926
-297.763
-329.473
-350.002
-378.856
-413.037
-448.395
-489.626
-489.103
-528.362
-594.202
-645.613
-631.195
-631.05
-717.148
-766.505
-791.988
-791.445
-844.858
-874.507
-881.129
-902.728
-819.298
-845.484
-947.035
-771.546
-635.443
-679.11
-264.783
15.8137
484.591
1226.05
-22607.5
-23896.3
-24418
-25970.3
-23426.7
-26855.4
-1853.21
-21240.7
-19454.8
-32366.1
-29067.9
-38663.9
-33929.6
-33537.1
-32217.9
-29723.1
-27469.2
-24946
-22680.8
-20815.2
-18488.5
-16648.9
-14018.2
-11680.5
-9763.59
-7718.98
-5319.17
-4169.06
-2484.64
-748.897
1023.11
2347.35
3638.84
4996.75
6953.6
8054.35
9527.99
10522.5
11966
12909.5
13491.3
14426.1
15396.9
15693.9
16050
15712.8
16242.3
15770.1
15399.5
15283.2
14016.2
12984.5
11349.2
9275.38
5050.32
1761.12
-8592.01
-12190.8
-15222.7
-13703.4
-13910.8
-13130.1
-13111.3
-12048.9
-12221
-10484.6
-10756.2
-7847.62
-8678.44
-3393.9
-6574.82
5333.61
-7437.41
21753.9
244.477
-181.296
-143.086
-195.673
-224.504
-263.047
-294.139
-329.58
-365.803
-395.21
-429.255
-469.08
-498.441
-529.458
-573.132
-608.099
-641.228
-678.698
-714.723
-768.597
-817.715
-816.829
-889.252
-966.952
-1008.6
-1002.52
-1063.99
-1147.55
-1196.89
-1244.72
-1269.4
-1324.68
-1370.23
-1411.25
-1421.25
-1451.8
-1415.17
-1359.32
-1202.38
-1291.63
-1069.16
-912.087
-765.072
-579.649
-223.137
-20467.6
-21379.8
-21862.5
-22864.9
-22129.7
-24734.2
7929.38
-17114.4
-17590.6
-33796.3
-32164.2
-39735.5
-36072.5
-34787.7
-33200.3
-30920.2
-27943.5
-27407.5
-24039.5
-21434.9
-18658.4
-16729.7
-14045.3
-11656.1
-9585.33
-7354.51
-4728.98
-2715.84
-931.719
978.777
2500.2
3971.71
4938.51
6622.46
8570.27
9250.48
10967.2
11630.2
13339.1
13740.6
14814.6
15082.3
16246.3
16725.8
16650.5
16507.2
16618.6
16694.8
16182.7
16093.9
14567.3
14631.4
12830.6
11836.6
10716.5
3895.4
-13.6319
-5896.19
-7607.06
-8205.63
-8741.52
-9010.29
-9730.4
-9305.44
-9798.23
-8469.28
-9150.59
-6583.73
-7597.91
-2737.04
-6013.15
5203.65
-7145.39
20791.4
5.80433
-413.59
-373.18
-423.34
-450.961
-487.289
-520.162
-556.449
-591.015
-627.467
-661.146
-703.262
-737.596
-773.793
-821.991
-857.793
-904.836
-939.651
-988.705
-1057.56
-1094.17
-1128.97
-1201.92
-1275.44
-1319.67
-1357.53
-1421.96
-1517.92
-1559.45
-1633.74
-1689.86
-1713.82
-1824.23
-1871.26
-1894.82
-1927.32
-1920.69
-1893.14
-1887.75
-1867.5
-1699.43
-1692.36
-1409.2
-1020.94
-520.38
-17382.2
-17902.8
-18557.3
-19307.5
-18143.8
-22187.2
15232.7
-21835.5
-19633.3
-37476
-37376.1
-39336.5
-38668.6
-36479.5
-32855.3
-30398.2
-25612.5
-22990.2
-20866.8
-18367.9
-14619.5
-11987.8
-9537.28
-7978.43
-5880.53
-4388.17
-2314.33
-379.102
1415.97
2728.22
4159.08
5856.14
6743.81
7998.47
9650.68
10957.3
12509.6
12667.6
14602.5
14772.8
16389
15685.9
17470
17809.3
17465.6
18318.9
17976.5
18379.4
17249.4
17022
16874.2
15446.5
15353.1
13657.7
10700.7
6674.99
469.303
-892.074
-5293.43
-4201.84
-6157.01
-6544.97
-7528.66
-7357.04
-8092.98
-7035.33
-7845.77
-5551.5
-6767.51
-2240.68
-5623.72
4810.6
-6832.78
19458.3
-226.509
-636.822
-593.239
-640.012
-665.309
-698.327
-733.022
-767.701
-800.087
-841.135
-875.122
-916.046
-955.751
-995.784
-1045.22
-1085.18
-1138.83
-1176.66
-1234.24
-1306.95
-1338.49
-1392.6
-1477.69
-1557.76
-1579.79
-1663.25
-1743.16
-1820.03
-1898.84
-1955.82
-2032.95
-2085.33
-2179.47
-2243.12
-2291.02
-2329.55
-2306.14
-2326.68
-2320.2
-2183.89
-2086.62
-1918.74
-1558.79
-1151.75
-785.347
-14828
-15573.4
-15823.4
-16882.5
-16683.8
-19421.7
4103.35
-16351.7
-27842.1
-40340.8
-41910
-42231.9
-36097.4
-36883.3
-31497.6
-29920
-26325.4
-21785.1
-17368.9
-14994.8
-12682.8
-10034.8
-7764.11
-4875.22
-3441.3
-1779.16
-292.561
1950.59
3506.72
4663.55
5724.73
7423.9
8723.84
9327.86
11212.6
12046.3
13907.2
14082.5
15511.4
15795.9
17662.3
16989.4
18688.4
19006.2
18957
19485.6
18670.4
18424
18929.9
19613.3
19796
18890
21582.6
18751.8
13975.9
6744.35
4364.64
-632.465
-768.77
-2400.54
-3887.25
-4624.24
-5748.33
-5791.29
-6610.86
-5755.46
-6686.59
-4637.51
-5999
-1854.58
-5215.92
4374.12
-6590.02
18124.9
-450.595
-850.042
-802.433
-844.685
-866.92
-896.899
-930.639
-963.712
-993.841
-1037.12
-1071.67
-1108.34
-1154.71
-1198.32
-1244.06
-1289.39
-1344.27
-1395.73
-1453.93
-1519.73
-1563.61
-1632.13
-1727.62
-1787.19
-1825.25
-1922.14
-2018.86
-2101.74
-2169.72
-2257.08
-2314.6
-2417.04
-2508.01
-2579.42
-2606.23
-2628.51
-2681.2
-2680.58
-2639.94
-2545.27
-2367.75
-2106.21
-1855.92
-1558.38
-1177.91
-12488.7
-12890.5
-12943
-13121
-13542.3
-12590.7
-13446.6
-18742.9
-40132.7
-47489.3
-47489.6
-42410.8
-33624.4
-29414
-27428.6
-22970.7
-21839.6
-15799.6
-13392.9
-10103.7
-9636.72
-6198.2
-4702.36
-1195.2
-456.445
1026.82
2479.1
3765.63
5035.75
6386.53
7678.08
9086.72
10853.8
11135.1
12995
13255.3
15389.2
15812.5
16903.9
17015.5
19084.7
18687.7
20203.4
19893.9
19763.7
20002.9
20804.9
22192.8
22391.6
22639.8
24377.5
26160.3
26709.1
21607
12769.1
8686.93
3652.03
1272.76
699.61
-1243.57
-2324.31
-3224.64
-4338.87
-4518.03
-5375.15
-4742.79
-5727.09
-3951.4
-5399.2
-1630.11
-5025.78
3670.41
-6443.88
16554.2
-664.753
-1052.23
-1000
-1036.93
-1055.16
-1081.79
-1113.49
-1144.41
-1171.72
-1215.67
-1251.6
-1284.76
-1333.4
-1381.63
-1423.02
-1473.11
-1529.91
-1584.31
-1654.5
-1701.07
-1768.16
-1847.06
-1942.33
-1974.7
-2050.47
-2153.92
-2258.63
-2347.31
-2394.14
-2492.13
-2593.06
-2669.75
-2801.75
-2843.88
-2839.94
-2917.22
-2965.81
-2967.71
-2919.91
-2831.31
-2698.15
-2511.51
-2248.82
-1980.06
-1630.51
-10761.2
-11011
-12037.7
-12491.7
-15401.7
-15524.2
-43937.1
-25899
-53544.6
-51866
-40137.2
-32604.8
-30258.7
-26059.2
-22222.5
-16465.7
-13420.4
-11763.3
-11767.3
-7163.78
-5392.06
-2150.53
-1495.02
1066.39
2273.27
3525.05
5173.61
6192.14
6972.01
8007.38
9359.38
10227.7
12129.3
12724.9
14464.3
14579.7
16700.9
17804.5
18133
18631.6
20054.1
20671.5
20902.9
21289.7
22410
23917.2
24087.1
25163.8
27654.2
29985.9
33580
35619.3
27007.9
17002.5
11294.6
6635.44
3652.39
2636.53
954.913
-111.036
-1195.78
-2132.48
-3152.32
-3440.09
-4322.97
-3873.62
-4874.93
-3372.4
-4836.05
-1423.36
-4819.46
3268.47
-6189.63
15025.9
-868.26
-1242.42
-1184.93
-1216.07
-1229.84
-1252.84
-1281.22
-1309.58
-1335.45
-1376.47
-1414.84
-1443.8
-1493.2
-1544.93
-1583.13
-1637.33
-1694.73
-1753.97
-1829.1
-1847.45
-1947.79
-2051.53
-2115.92
-2137.2
-2252.37
-2356.13
-2463.24
-2560.04
-2581.54
-2681.16
-2813.95
-2958.67
-3043.56
-3032.61
-3069.49
-3161.86
-3212.7
-3235.03
-3183.62
-3068.78
-2941.72
-2761.78
-2428.42
-1954.94
-1448.95
-8192.63
-7933.09
-6736.42
-6350.41
-6821.45
-5179.74
-76520.8
-51471.3
-79422.3
-31489.7
-26481.8
-18359.1
-23250.6
-19734
-20186.1
-13070.9
-10290.5
-8611.7
-6440.78
-2557.96
-1659.37
1689.53
2985.71
2957.47
5862
6479.34
6585.35
7533.07
8255.28
9752.26
11148.8
11905.2
13504.1
14380.5
15844.5
16146.7
18187.5
19305.1
20227.2
19974.8
21659.1
22097.8
23672.6
24540
24445.7
27446.5
29470.4
32892.7
38252.2
43128.5
42204.5
30293.3
20088.7
13288.7
8971.38
6040.33
3168.49
3159.21
1309.87
729.878
-518.488
-1222.6
-2237.3
-2582.77
-3451.94
-3162.35
-4155.12
-2927.19
-4371.94
-1304.99
-4712.44
2811.68
-6150.32
13391.2
-1059.72
-1419.6
-1356.76
-1381.79
-1390.75
-1409.94
-1433.98
-1459.25
-1485.1
-1522.3
-1559.78
-1588.88
-1637.09
-1688.88
-1727.39
-1781.38
-1837.41
-1911.94
-1974.48
-2000.17
-2105.3
-2213.16
-2261.15
-2298.67
-2424.35
-2544.36
-2660.25
-2692.55
-2745.18
-2898.43
-3027.42
-3162.78
-3228.91
-3214.42
-3281.93
-3350.74
-3410.03
-3452.09
-3459.99
-3481.86
-3324.37
-3076.63
-2833.13
-2537.85
-2035.48
-7402.77
-7347.35
-7607.18
-7645.33
-9575.73
-21066.1
-81914.9
-172712
-85715.9
-9476.96
-881.568
1359.16
-5162.98
-8740.18
-13312.5
-12380.7
-5207.51
-3881.38
-363.246
209.022
3042.87
2567.1
6556.24
5634.61
7606.59
8843.71
8395.39
9105.36
9768.45
10945
12107.6
13511.9
14790.1
16561.6
17603.2
17898
19216.2
20939.5
21447.6
21928.1
24674.1
24754.4
26258.5
29449
30572.9
35913.5
40709.5
46278.8
51094
44255.1
30142.9
21337.7
14429.3
10046.4
7280.88
3694.82
4231.88
2317.71
1938.96
847.132
176.949
-552.162
-1440.18
-1848.97
-2680.53
-2550.2
-3509.12
-2529.79
-3929.4
-1165.32
-4531.51
2425.53
-5999.64
11893.5
-1238.25
-1583.21
-1514.95
-1533.67
-1537.5
-1553.33
-1571.91
-1594.42
-1620.38
-1653.09
-1687.92
-1719.89
-1766.55
-1813.97
-1858.17
-1906.43
-1966.77
-2044.49
-2086.81
-2147.22
-2250.44
-2338.94
-2378.85
-2462.46
-2566.54
-2688.72
-2790.81
-2835.17
-2943.11
-3064.2
-3197.94
-3307.59
-3350.91
-3395.41
-3463.73
-3525.65
-3592.21
-3680.24
-3773.01
-3665.55
-3367.21
-3085.94
-2931.84
-2446.05
-1959.66
-5244.86
-5089.48
-5250.55
-4721.55
-5900.83
-15780
-93544.3
-201474
-48826.9
-23834.9
-6063.81
-6051.09
-5182.23
-7039.98
-8100.47
-8130.34
-4082.16
-2488.19
2260.92
3900.11
6665.85
5658.57
7615.01
9419.66
8807.49
9924.55
10708.2
11616.3
12472.5
13208.5
14347
15399
16272.5
17633.5
18626.6
19691.7
20951.9
22660
24477.1
25252.3
28720.1
31218.9
33022.4
39068.8
42630.1
49994.6
56285.1
54851.3
40891.4
30092.9
20575.9
14164.7
10226
7564.09
4482.4
4532.6
2929.47
2764.02
1572.29
1230.44
490.543
-66.4284
-871.982
-1288.32
-2064.85
-2071.58
-2957.42
-2253.22
-3544.84
-1120.35
-4425.19
1964.65
-5976.14
10434.6
-1403.16
-1732.68
-1658.91
-1671.23
-1670.24
-1682.92
-1695.21
-1716.41
-1741.09
-1768.93
-1800.52
-1836.35
-1880.13
-1921.25
-1972.3
-2020.13
-2081.66
-2154.64
-2197.42
-2269.42
-2368.55
-2432.91
-2511.79
-2581.63
-2714.01
-2807.9
-2868.58
-2989.97
-3090.94
-3221.19
-3346.18
-3396.17
-3456.39
-3558.69
-3645.5
-3706.86
-3827.98
-3970.67
-3873.02
-3709.81
-3596.43
-3409.96
-3221.49
-2944
-2581.81
-4763.89
-4980.8
-5104.47
-5870.01
-9123.89
-32250.2
-139150
-53588.7
-64860.3
-50726.2
-24779.4
-11930.6
-8515.4
-6756.4
-2789.84
-4443.07
-5425.48
915.367
4352.53
6597.54
8545.3
9618.3
9015.81
10383.3
9855.45
10551.5
12120
12547
13112.8
14551.5
15241.7
16291.8
19006.8
19789.5
21485.6
23434.9
24213.6
26253.3
30866.1
32310.9
36155.6
42771.4
47445.9
53672.2
60815.5
60843.6
48330.9
36930.4
26295.9
18822
13230.2
9717.5
7182.71
5044.51
3928.19
3169.73
2653.21
2080.35
1701.12
1443.91
886.372
380.825
-331.438
-769.994
-1495.93
-1618.52
-2429.89
-1929.67
-3118.85
-1005.85
-4197.86
1641.29
-5786.6
9106.47
-1553.32
-1867.35
-1788.53
-1794.64
-1788.84
-1797.73
-1805.56
-1823.67
-1847.99
-1870.23
-1900.37
-1940.08
-1976.31
-2016.77
-2069.93
-2117.92
-2186.11
-2233.22
-2300.98
-2388.44
-2465.44
-2506.95
-2610.93
-2721.89
-2827.57
-2877.11
-2968.5
-3095.56
-3246.07
-3374.27
-3447.32
-3451.72
-3564.1
-3679.58
-3826.08
-3957.04
-4121.63
-3959.27
-3920.75
-3892.49
-3794.85
-3648.59
-3427.57
-3211.1
-2747.33
-3893.91
-3853.63
-3795.63
-4349.05
-8724.52
-58042.5
-99215.7
-16117
-38576.9
-81280.9
-57087.6
-31108.3
-14709.4
-2595.08
-704.495
-556.337
-874.343
4120.48
6935.99
8260.19
9804.79
10157.8
12964.1
12185
13000.9
12310.2
13786.1
13898.8
15260.9
16945.7
17503.4
18896.8
22092.7
22685.6
25213
29734.1
31865.1
34965.1
42464.1
46489.6
50653.9
59483.8
66352.3
61958.4
51787
39757.2
30366.6
22288.4
16369.1
11624.1
8566.88
6309.46
4879.03
3496.94
3196.58
2600.64
2228.76
1872.25
1653.78
1536.68
1101.85
675.223
36.1366
-416.986
-1073.66
-1294.66
-2017.27
-1731.19
-2808.09
-1062.07
-4082.22
1164.4
-5752.9
7812.04
-1688.41
-1986.88
-1903.57
-1903.88
-1893.44
-1897.92
-1902.75
-1916.96
-1940.62
-1958.2
-1986.69
-2030.76
-2058.56
-2099.84
-2153.59
-2202.57
-2270.8
-2304.54
-2386.12
-2485.36
-2531.52
-2590.2
-2697.13
-2827.57
-2904.03
-2932.33
-3070.66
-3199.3
-3359.67
-3472.03
-3470.75
-3590.55
-3687.87
-3829.01
-3948.04
-4117.69
-4093.95
-4086.58
-4125.63
-4119.8
-4047.73
-3900.43
-3781.66
-3635.17
-3254.57
-3019.64
-3074.01
-3123.67
-5350.88
-15623.9
-95621.5
-53897.8
-11383.3
-21436.1
-43192.5
-71464.5
-53811.3
-25622
-11758.2
-3966.75
-2829.49
1779.48
5746.15
7678.91
9376.81
10967.1
12620.4
13580
13488.4
14094.2
13450.2
14669.2
15558.7
18185.2
19469.9
21962.8
23525.2
28421
31690.8
34433.3
41414.1
47167.8
51525.5
58611.6
65719.4
70389.9
60732.7
51136.7
39757.6
31882
23921
18036
13313.1
9764.97
7236.8
5440.76
4215.33
2880.19
2898.65
2215.3
2075.42
1768.02
1723.87
1595.24
1625.26
1238.54
895.508
354.716
-63.8628
-669.396
-952.63
-1586.39
-1442.94
-2396.6
-932.626
-3750.86
943.899
-5414.57
6784.41
-1807.91
-2091.09
-2003.84
-1998.71
-1983.91
-1984.25
-1986.47
-1998.28
-2017.83
-2034.31
-2060.83
-2103.35
-2130.6
-2170.81
-2221.81
-2280.98
-2327.21
-2383.16
-2465.17
-2550.31
-2574.96
-2674.61
-2787.96
-2894.22
-2935.89
-3036.53
-3149.53
-3297.86
-3434.3
-3497.54
-3573.33
-3684.48
-3822
-3948.7
-4082.37
-4102.11
-4170.79
-4239.55
-4298.6
-4273.56
-4207.01
-4178.38
-4097.79
-3904.68
-3612.51
-2461.71
-2563.07
-2844.13
-4021.98
-21380.6
-106683
-10840.5
-5417.96
-8529.98
-19816.4
-35587.6
-60522.7
-53771.4
-27802.6
-14240.2
-7572.73
-1592.19
5792.5
7557.92
11240.7
12620.2
14365.9
14213.9
15076.8
16046.8
17326.3
17971.5
21676.8
23095.2
25797
32164.8
34246.4
40050.1
48379.9
52824.1
59197.3
67714.5
72232.9
65200.1
56083.6
47316.1
36703.2
31399.1
23739.2
18435.3
13761.4
10666.4
7722.06
5825.03
4415.14
3562.42
2416.41
2520.86
1859.41
1741.12
1562.19
1554.27
1607.87
1677.15
1703.63
1417.23
1099.84
599.827
182.573
-381.018
-706.22
-1277.29
-1267.65
-2170.15
-1045.2
-3610.38
482.456
-5296.23
5666.88
-1911.42
-2179.8
-2089.19
-2079.19
-2060.65
-2057.22
-2056.81
-2067.2
-2081.17
-2098.82
-2125.3
-2158.62
-2192.37
-2230.33
-2276.34
-2341.47
-2372.36
-2441.7
-2529.02
-2583.45
-2648.82
-2739.54
-2845.01
-2921.73
-3001.83
-3094.28
-3231.19
-3356.53
-3437.58
-3558.31
-3665.14
-3778.06
-3907.87
-4053
-4071.7
-4160.74
-4262.4
-4343.37
-4401.27
-4422.1
-4436.57
-4394.45
-4251.76
-3995.08
-3706.98
-1630.33
-1697.33
-1933.33
-6234.86
-44176.7
-75703.9
-6514.62
-5002.18
-4275.05
-10810.8
-17521.8
-30593.2
-51063.6
-61088.1
-36334
-17166.3
-2498.87
6136.34
10676.5
15685.7
16856
16780.5
14794.3
22248.5
19020.3
23220.7
26042.8
30552.9
35406.6
40267.9
49242.7
55245.6
61585.4
69894.4
75472.1
67267.9
59127.1
49601
41486.1
33253.8
28956.6
22082.8
17773.3
13588.2
10684
7894.78
5981.49
4651.48
3516.29
2730.92
1966.49
1913.4
1396.73
1376.8
1167.18
1256.97
1326.75
1538.06
1625.3
1665.85
1434.28
1211.45
787.879
423.949
-91.3255
-436.397
-911.963
-994.705
-1785.44
-897.907
-3183.67
265.836
-4941.13
4845.73
-1998.94
-2253.02
-2159.75
-2145.48
-2123.84
-2116.61
-2114.77
-2122.84
-2132.47
-2150.44
-2178.5
-2202.26
-2242.27
-2277.18
-2325.08
-2376.22
-2424.94
-2495.31
-2565.2
-2618.19
-2694.74
-2804.08
-2875.28
-2938.98
-3045.28
-3172.88
-3291.56
-3368.8
-3462.2
-3593.03
-3740.84
-3878.69
-4025.43
-4018.9
-4109.35
-4225.18
-4328.77
-4413.64
-4487.51
-4565.24
-4630.42
-4590.19
-4501.29
-4323.38
-4054.3
-1266.78
-1409.58
-3135.61
-10089.5
-74665.8
-54543.3
-2550.78
-2610.28
-720.351
-3476.51
-7377.83
-15415.8
-28840.3
-49632.4
-54657.8
-30200.2
-4321.06
7550.24
14526.2
19495.3
18793
23607
20628.5
28685.4
29704.1
38350
41720.5
48853.9
58175.2
65484.5
72578.9
76975.1
69868.2
59481.2
51087.8
43838.2
35192.1
30460
24370.2
19634.4
16217.4
13156.7
10156.4
7740.32
6181.66
4715.97
3584.33
2706.19
2139.23
1542.96
1483.23
1147.85
1079.25
988.073
987.153
1090.02
1271.78
1534.95
1714.69
1760.9
1582.36
1361.82
956.06
580.353
109.615
-228.387
-672.517
-846.583
-1615.89
-942.737
-3012.69
-64.2074
-4670.53
3958.11
-2070.28
-2310.79
-2215.61
-2197.72
-2173.66
-2163.32
-2160.55
-2165.1
-2172.82
-2191.93
-2216.22
-2237.4
-2278.22
-2313.27
-2363.33
-2400.73
-2460.26
-2537.78
-2568.66
-2653.28
-2751.71
-2835.11
-2862.82
-2982.45
-3093.24
-3219.61
-3309.29
-3359.7
-3498.58
-3631.65
-3807.35
-3958.16
-4000.03
-4051.7
-4159.06
-4267.3
-4374.98
-4489.46
-4578.7
-4687.41
-4736.24
-4640.21
-4571.73
-4439.72
-4177.15
-705.635
-769.532
-1938.41
-15637.3
-97835.9
-10242.2
1403.39
569.245
-420.555
-1946.35
-3870.96
-7717.88
-14032.2
-22511.3
-37482.8
-52821.5
-14650.1
8082.59
18359.3
24804.9
25898.5
37474.5
38020.8
44377.3
50441.2
59780.6
67133.6
74373.1
75890.4
70601.3
58985.1
50633.3
44466.3
36614.3
31333.9
26072.4
20683.6
17160.9
14106.2
12490.2
9579.48
7691.2
6224.87
4860.66
3708.23
2874.14
2144.29
1528.16
1020.6
930.067
651.322
624.58
566.336
648.603
774.553
978.793
1228.25
1456.16
1613.2
1638.08
1549.29
1371.15
1071.32
706.05
279.761
-18.0124
-463.313
-568.929
-1348.03
-754.205
-2650.07
-259.867
-4387.57
3354.85
-2125.59
-2353.32
-2257.09
-2236.25
-2210.09
-2197.84
-2194.01
-2194.7
-2202.29
-2222.88
-2240.69
-2265.5
-2299.89
-2342.96
-2379.07
-2425.69
-2492.65
-2553.68
-2590.09
-2676.72
-2777.5
-2837.62
-2895.64
-2998.84
-3123.97
-3231.48
-3290.4
-3406.57
-3524.93
-3683.69
-3817.38
-3937.79
-4015.96
-4090.93
-4216.16
-4321.75
-4422.17
-4540.86
-4630.77
-4680.47
-4715.09
-4710.42
-4632.53
-4433.22
-4155.89
-150.995
-659.939
-3673.16
-33093.1
-77623.7
-2865.72
816.509
1551.97
-4.24496
-764.287
-1408.48
-3357.73
-6183.79
-6944.21
-14345.4
-20263.4
-13868.7
13998.1
31340.6
38283.7
43291.3
54827.9
62661.3
69385.9
76508.4
72092.1
66630.1
58312.4
50370.5
44696.8
36362.8
31515.5
27243.7
22299.8
17553.1
15397.5
12948.3
10677.7
8647.52
7360.72
6027.08
4791.36
3831.3
3204.32
2322.6
1905.45
1444.61
874.299
655.448
366.756
517.668
427.005
450.991
507.016
646.78
901.146
1148.18
1442.5
1648.44
1718.38
1653.04
1482.34
1195.49
843.094
477.781
161.003
-223.556
-379.127
-1182.16
-697.577
-2444.37
-426.854
-4019.18
2675.73
-2165.1
-2380.9
-2284.56
-2261.52
-2233.69
-2220.27
-2214.86
-2213.61
-2221.58
-2239.8
-2255.61
-2283.45
-2311.45
-2359.99
-2388.4
-2437.58
-2507.15
-2546.12
-2610.48
-2698.54
-2769.87
-2833.87
-2912.4
-3027.55
-3123.46
-3197.5
-3315.63
-3411.22
-3560.84
-3681.32
-3801.31
-3893.88
-4031.83
-4143.04
-4232.03
-4347.68
-4467.08
-4566.62
-4665.05
-4672.14
-4657.37
-4625.84
-4570.67
-4423.21
-4129.44
524.233
119.174
-6541.5
-55949.3
-55241.9
1237.55
1279.17
2260.81
2288.36
3123.19
3177.49
2065.13
1928.87
5282.03
6874.58
8933.3
19119.6
34704.1
53781.8
61684.9
73473.8
69404.1
67079.1
61187.5
55381.2
49228.5
43294.4
36291.5
31685.2
27846.4
22708.3
18436.8
16381.7
14103.4
11416.5
9613.18
8093.95
7271.5
6025.61
5091.72
4187.4
3471.13
2633.55
2280.36
1415.48
1243.77
745.678
540.956
298.094
280.858
-29.5548
9.52275
109.835
322.892
506.577
740.838
1009.85
1303.97
1541.73
1655.18
1637.38
1463.88
1266.71
911.085
622.826
305.047
-74.7204
-198.389
-1033.06
-550.844
-2158.08
-508.497
-3696.58
2207.81
-2189.1
-2393.87
-2298.32
-2273.86
-2244.73
-2231.63
-2223.22
-2222.51
-2231.21
-2244.64
-2262.2
-2288.51
-2319.91
-2356.89
-2394.07
-2450.09
-2493.27
-2553.72
-2623.08
-2698.57
-2740.15
-2832.62
-2936.28
-3036.38
-3096.3
-3185.63
-3306.89
-3433.83
-3563.36
-3679.02
-3753.65
-3880.14
-4017.19
-4158.51
-4288.69
-4382.95
-4490.99
-4567.74
-4634.68
-4685.06
-4670.04
-4628.07
-4575
-4422.78
-4213.17
1024.42
-1116.42
-12720.3
-93943.2
-20080.3
4538.14
3790.32
3622.87
3407.04
4540.86
5611.31
5731.88
7958.75
14373.9
29113.9
57280.7
71608.9
76814
68009.2
62541.4
57328.3
49416
44490.7
40007.3
35927.7
31541.9
27972.3
23445
19324.6
17169.4
15701.3
12827.9
11102.9
9861.95
8563.17
7279.95
6132.9
4995.07
4126.08
3393.17
2866.76
2368.94
1906.44
1536.3
1179.53
727.285
537.14
326.909
174.527
36.1996
-17.3115
12.8412
39.598
122.294
331.864
593.448
853.389
1189.96
1430.45
1589.58
1600.03
1493.68
1338.73
1008.44
803.758
479.505
133.408
-29.5841
-840.994
-475.259
-1970.26
-612.971
-3337.05
1722.39
-2198.13
-2392.87
-2298.91
-2273.62
-2243.97
-2231.27
-2220.88
-2220.98
-2228.99
-2240.13
-2259.52
-2283.12
-2318.68
-2345.3
-2390
-2448.15
-2473.23
-2542.72
-2630.18
-2671.39
-2731.21
-2824.28
-2942.35
-3012.93
-3053.92
-3173.92
-3288.84
-3446.99
-3562.13
-3612.98
-3731.57
-3858.39
-3990.42
-4170.68
-4317.18
-4432.11
-4450.75
-4540.16
-4613.29
-4671.51
-4697.29
-4665.71
-4630.21
-4532.53
-4399.03
628.081
-1351.27
-25085.6
-85279.6
-1357.85
3013.14
3285.71
3219.53
3506
4428.68
6907.43
11331.6
18965.8
38283.5
72144.5
110226
116228
73931.5
55764.4
44072.2
37329.9
32722.1
29945.7
26148.1
22494.2
19781.7
18411.9
17229
14692.3
12549.9
11585.1
10151.8
8187.55
7261.84
6157.52
5474.7
4653.94
4180.04
3554.31
3140.63
2516.85
2157.04
1741.27
1178.53
1044.25
625.522
526.29
300.992
92.5025
-84.7535
-206.749
-220.927
-185.703
-31.8513
215.79
475.315
784.024
1149.12
1417.18
1601.66
1601.2
1532.09
1405.15
1112.86
953.715
559.281
268.329
92.7367
-733.472
-366.692
-1760.5
-601.276
-2956.61
1300.99
-2192.72
-2378.39
-2286.81
-2261.42
-2232.36
-2218.89
-2209.21
-2209.74
-2216.33
-2226.76
-2246.34
-2271.57
-2300.81
-2330.46
-2382.19
-2421.22
-2464.25
-2530.65
-2603.04
-2644.29
-2715.55
-2815.85
-2907.7
-2961.74
-3047.51
-3152.24
-3284.7
-3415.28
-3506.84
-3572.33
-3705.46
-3828.18
-3987.9
-4119.63
-4263.55
-4368.73
-4450.79
-4532.91
-4599.59
-4666.86
-4710.56
-4638.71
-4503.9
-4310.64
-4232.34
1242.29
-4786.59
-51802.4
-58132.3
2695.17
1717.51
3712.64
4381.33
5065.78
5933.19
12786.4
23851.1
40907.5
75513.9
129591
132906
83882.7
57447.2
41729.9
32431
26127.8
22371
19511.2
17790.9
15712.1
14288.4
13397.4
12837.6
12006.2
10333.2
9314.58
8548.74
7604.02
6672.85
5968.72
5067.92
4509.99
3894.5
3303.15
2702.85
2255.92
1808.08
1596.15
1155.44
964.45
699.399
460.58
249.061
83.474
-85.4645
-208.9
-260.587
-239.266
-134.723
75.4489
309.626
609.884
1017.22
1242.54
1481.71
1487.84
1464.03
1361.54
1113.28
1033.74
620.345
382.963
256.735
-544.938
-246.675
-1523.68
-658.637
-2664.19
979.367
-2173.62
-2351.09
-2262.64
-2237.84
-2210.28
-2195.46
-2187.86
-2188.48
-2193.16
-2205.7
-2224.97
-2249.54
-2275.39
-2309.86
-2355.99
-2392.94
-2442.28
-2511.44
-2555.83
-2623.47
-2698.17
-2785.26
-2849.52
-2940.18
-3015.38
-3137.59
-3248.31
-3335.6
-3447.34
-3547.84
-3674.05
-3817.64
-3955.92
-4064.78
-4184.17
-4321.43
-4432.84
-4528.9
-4601.51
-4652.88
-4689.72
-4708.98
-4632.69
-4630.29
-4729.32
7.01958
-12751.4
-98039.3
-20915.1
4625.6
4518.21
5376.75
7480.65
9402.94
11437.6
23304.6
46474
80981.5
129228
135663
88467.9
59456
42652.4
31635.1
24689.3
20430.4
17397.6
14983.7
13106.1
11989.5
10967.5
10276.5
9982.49
9682.83
9284.77
8314.61
7839.37
7043.07
6290.75
5712.2
5071.8
4592.34
3948.24
3395.32
2861.67
2301.43
1927.11
1526.16
1408.91
950.236
824.796
581.545
349.252
104.208
-59.3013
-211.977
-279.34
-276.771
-202.595
-8.89815
209.885
485.11
888.861
1146.08
1385.93
1411.02
1464.48
1415.03
1206.76
1169.11
717.585
520.773
359.631
-443.224
-181.802
-1377.17
-618.608
-2272.56
678.55
-2141.62
-2311.74
-2227.14
-2203.4
-2177.57
-2162.7
-2157.45
-2157.43
-2161.25
-2176.8
-2194.9
-2216.63
-2242.66
-2286.29
-2315.6
-2358.85
-2421.32
-2470.6
-2511.95
-2586.24
-2680.93
-2740.21
-2793.25
-2892.1
-3001.1
-3109.15
-3185.48
-3264.82
-3383.61
-3520
-3659.8
-3770.92
-3869.54
-3998.74
-4106.84
-4224.37
-4394.84
-4498
-4585.4
-4617.64
-4646.49
-4648.17
-4616.4
-4598.42
-4930.17
-974.003
-29022.6
-87586.2
-3478.23
4009.05
4279.66
4891.21
7215.28
14173.3
21565.9
41190
80487.3
137180
135117
89888.3
60587.8
42855.5
31133.2
23794.3
19050.8
16074.9
14144.1
12566
11184.5
10188
9663.47
9145.57
8865.65
8745.64
8601.4
8188.61
7767.73
7461.81
6778.82
6435.54
5474.1
4784.39
3922.93
3399.4
2890.48
2383.41
2012.19
1735.58
1271.33
1011.37
700.679
565.331
289.454
94.1047
-35.2179
-162.728
-296.527
-294.219
-233.527
-82.7195
123.114
421.558
794.567
1021.69
1297.28
1353.45
1439.24
1417.84
1234.27
1194.33
727.304
580.671
448.299
-309.61
-80.6061
-1085.22
-638.154
-1968.31
430.515
-2097.58
-2261.08
-2180.93
-2158.9
-2135
-2121.55
-2117.22
-2117.43
-2123
-2138.63
-2155.21
-2176.83
-2207.72
-2245.15
-2272.71
-2320.65
-2384.36
-2414.4
-2474.12
-2552.67
-2635.08
-2672.44
-2744.77
-2844.08
-2973.94
-3057.79
-3084.94
-3208.44
-3325.78
-3494.29
-3620
-3684.82
-3786.64
-3908.99
-4028.02
-4164.51
-4283.71
-4426.73
-4511.68
-4514.41
-4478.5
-4377.84
-4308.63
-4172.13
-4966.94
-4742.52
-61050.8
-58043.9
2787.58
1857.66
4946.14
6847.79
10735
23712.3
46461.4
80049.9
133345
131251
87790
59679.3
42413
30673.7
23237.5
18552.2
15594.3
13600.2
12150.6
10987.5
9955.14
9039.01
8525.47
8163.25
7954.46
7862.68
7853.85
8103.22
7372.79
7293.2
6466.19
5913.7
5351.01
4758.22
4161.82
3435.73
3065.67
2724.02
2098.42
1531.34
1233.2
942.517
709.216
623.608
383.318
103.634
-82.5517
-232.682
-305.551
-249.593
-164.968
-37.5576
115.305
364.609
674.092
952.157
1191.47
1262.9
1326.6
1287.05
1145.01
1201.99
771.498
734.567
575.788
-85.6283
-64.2867
-937.118
-596.416
-1652.31
273.253
-2042.46
-2199.95
-2124.89
-2105.05
-2083.12
-2072.47
-2067.39
-2069.98
-2077.59
-2090.36
-2109.52
-2130.58
-2163.21
-2194.56
-2227.24
-2279.02
-2327.63
-2365.84
-2426.88
-2506.17
-2563.07
-2621.33
-2698.36
-2803.15
-2888
-2968.81
-3040.32
-3150.3
-3287.75
-3400.61
-3490.6
-3605.84
-3719.26
-3841.44
-3978.16
-4106.13
-4190.13
-4282.15
-4379.64
-4467.27
-4530.19
-4629.02
-4748.22
-5151.77
-6824
-15752.4
-107181
-11443.3
4413.6
5672.24
8565.23
14141.4
19941.7
42783
87953.6
136156
127237
84479.3
57286.7
41226.1
30175.4
23015.6
18389.5
15392.5
13368.5
11949.1
10880.4
10032.5
9338.69
8682.68
8119.56
7749.21
7466.56
7196.63
7149.52
7425.72
6934.38
7018.51
6345.45
5748.79
5275.87
4729.52
4228.32
3493.16
2949.02
2630.32
2157.46
1629.45
1054.38
889.576
342.319
383.342
227.76
117.244
-86.751
-205.875
-307.673
-312.242
-286.747
-146.77
-82.3033
198.836
367.175
776.478
1005.42
1184.88
1252.83
1307.09
1195.03
1260.33
828.233
830.003
612.049
-0.781916
-45.4923
-628.321
-580.888
-1270.76
22.9372
-1977.26
-2129.28
-2059.78
-2042.54
-2022.84
-2015.44
-2010.04
-2015.68
-2023.75
-2035.53
-2057.23
-2079.26
-2108.49
-2139.86
-2176.86
-2225.85
-2263.76
-2311.91
-2383.61
-2436.55
-2493.72
-2557.12
-2658.93
-2739.87
-2787.79
-2893.98
-2989.15
-3113.81
-3208.52
-3274.68
-3397.67
-3502.31
-3650.87
-3796.32
-3904.82
-4004.43
-4078.13
-4136.45
-4227.61
-4332.26
-4342.38
-4307.71
-4308.76
-4529.16
-10379.5
-44501.4
-81226.2
2915.24
6379.2
8709.37
12382.4
24942.2
44391.7
81240.2
137296
123293
81773.5
55438.9
39769.1
29406
22586.3
18196.7
15359
13453.2
12077.9
11015.4
10144.9
9417.53
8849.11
8357.11
7772.82
7338.69
6999.73
6605.07
6331.16
6260.68
6269.72
6446.25
5909.95
5566.26
4917.66
4279.69
3923.6
3456.31
2766.61
2277.89
1912.2
1281.57
932.298
672.201
266.698
131.67
-34.8765
-184.469
-287.219
-334.641
-398.665
-302.373
-273.621
-110.451
-122.448
136.052
310.933
702.799
892.234
1098.81
1142.02
1186.72
1153.06
1138.43
815.103
868.948
701.283
233.648
30.7002
-413.116
-512.613
-1023.73
-54.7305
-1902.95
-2050.04
-1986.45
-1972.14
-1955.43
-1949.87
-1947.04
-1953.07
-1962.59
-1975.92
-1996.32
-2021.63
-2046.76
-2078.52
-2123.84
-2157.29
-2200.57
-2260.34
-2322.23
-2352.69
-2426.27
-2512.1
-2595.31
-2638.37
-2714.19
-2808.55
-2949.3
-3044.79
-3077.69
-3173.71
-3283.74
-3436.86
-3594.06
-3720.03
-3769.11
-3833.21
-3923.99
-4014.94
-4097.98
-4214.35
-4273.05
-4403.14
-4762.36
-7436.35
-20735.8
-95662.1
-30524.9
5293.81
8447.93
12909
22377.6
44580.4
87604.8
135502
120060
79882.5
53992
38572
28608.9
22236.8
18043
15255.8
13387.4
12034.1
10983.3
10114.1
9446.74
8851.26
8338.94
7937.37
7442.11
7091.23
6716.62
6254.96
5733.8
5422.3
5409.89
5589.05
5156.1
5138.61
4502.9
4057.35
3581.3
3289.6
2629.28
2012.83
1796.14
1148.26
949.726
585.605
-39.8443
8.95949
-224.66
-315.764
-485.857
-512.978
-591.144
-507.143
-436.438
-259.242
-174.122
33.1456
98.7972
361.861
510.703
825.763
924.163
1127.28
1093.57
1210.52
859.272
1049.84
693.351
345.594
-53.2448
-170.08
-393.459
-693.71
-244.366
-1820.62
-1963.16
-1905.78
-1894.66
-1881.31
-1877.32
-1878.09
-1883.83
-1895.66
-1911.07
-1929.19
-1957.58
-1980.67
-2014.67
-2058.47
-2085.8
-2134.7
-2199.85
-2238.35
-2285.86
-2357.94
-2447.88
-2497.51
-2555.08
-2641.98
-2753.22
-2846.32
-2918.93
-2990.21
-3085.36
-3218.04
-3354.91
-3452.61
-3547.43
-3640.85
-3711.13
-3851.77
-3990.08
-4119.27
-4221.99
-4329.12
-4530.43
-5185.67
-8397
-41712.4
-97119
-760.31
9259.11
12953.4
22405.9
44942.1
80236.2
137270
117602
77988.1
53045.7
37699.8
28004.2
21834.2
17794.6
15033.9
13125.6
11795.2
10810.3
10018.9
9326.24
8818.46
8338.83
7829.73
7453.38
7083.41
6766.34
6284.58
5903.46
5374.05
5039.78
4764.62
4738.25
4438.25
4447.74
4037.56
3677.48
3237.98
2826.37
2475.38
1854.16
1353.32
1195.63
629.319
83.2467
-144.297
-301.626
-449.655
-626.515
-686.38
-670.835
-740.249
-730.74
-711.47
-540.591
-427.921
-169.599
46.1953
324.789
544.837
842.531
949.766
1103.96
1022.03
1093
859.297
990.028
680.726
453.434
107.418
58.4492
-349.045
-502.249