/*--------------------------------*- C++ -*----------------------------------*\
| =========                 |                                                 |
| \\      /  F ield         | OpenFOAM: The Open Source CFD Toolbox           |
|  \\    /   O peration     | Version:  2.2.x                                 |
|   \\  /    A nd           | Web:      www.OpenFOAM.org                      |
|    \\/     M anipulation  |                                                 |
\*---------------------------------------------------------------------------*/
FoamFile
{
    version     2.0;
    format      ascii;
    class       volScalarField;
    location    "1.15";
    object      p;
}
// * * * * * * * * * * * * * * * * * * * * * * * * * * * * * * * * * * * * * //

dimensions      [1 -1 -2 0 0 0 0];

internalField   nonuniform List<scalar> 
14161
(
0.199222
0.199309
0.199252
0.199194
0.19911
0.199017
0.198894
0.198751
0.198604
0.19841
0.198204
0.197999
0.19775
0.197475
0.197203
0.196928
0.196601
0.196249
0.195935
0.195612
0.195251
0.194839
0.194468
0.194195
0.193929
0.193578
0.193176
0.192905
0.192705
0.192479
0.192063
0.191864
0.191781
0.191751
0.191777
0.191857
0.192035
0.192202
0.192521
0.192922
0.193474
0.194141
0.194958
0.195643
0.196684
0.197898
0.199891
0.201622
0.204598
0.204462
0.220135
1.10437
1.62348
1.68342
1.69521
1.65687
1.63624
1.5799
1.537
1.49062
1.44491
1.40091
1.35581
1.31375
1.27446
1.23569
1.20153
1.16984
1.14108
1.11554
1.09426
1.07726
1.06672
1.05932
1.05523
1.05356
1.0587
1.04731
1.04551
1.04499
1.06422
1.04286
1.04005
1.03825
1.04978
1.03263
1.02837
1.02478
1.02327
1.02902
1.01115
1.00517
1.00326
0.991305
0.985944
0.969641
0.959637
0.952354
0.965325
0.972997
1.10124
1.23654
1.4382
1.60674
1.72761
1.80619
1.86089
1.90136
1.93063
1.95488
1.97289
1.98921
2.00127
2.01301
2.02112
2.02952
2.03446
2.0374
2.04167
0.199222
0.199309
0.199252
0.199194
0.19911
0.199017
0.198894
0.198751
0.198602
0.198411
0.198204
0.197997
0.197751
0.197473
0.197206
0.196928
0.196595
0.196253
0.195934
0.195611
0.195253
0.194825
0.194468
0.194211
0.193938
0.193541
0.193162
0.192946
0.192732
0.192478
0.192041
0.19185
0.191755
0.19171
0.191723
0.19182
0.192009
0.192259
0.192497
0.192821
0.193326
0.193876
0.194573
0.19517
0.196099
0.197404
0.199365
0.201258
0.204229
0.206506
0.225035
1.10568
1.62198
1.68605
1.69336
1.64824
1.62566
1.5711
1.52955
1.48456
1.44055
1.39706
1.35373
1.31173
1.27311
1.23528
1.2012
1.1693
1.14036
1.11425
1.09274
1.07576
1.06439
1.05667
1.05221
1.05029
1.05538
1.04328
1.04132
1.0413
1.06078
1.03911
1.03617
1.03511
1.04619
1.02891
1.02444
1.0207
1.01934
1.02488
1.00702
1.00132
0.998947
0.986821
0.982281
0.968684
0.96438
0.961733
0.993532
1.03192
1.18938
1.3622
1.54611
1.68911
1.77876
1.83983
1.88383
1.91771
1.94295
1.96436
1.98042
1.99493
2.00557
2.01608
2.0231
2.02995
2.03408
2.03581
2.04154
0.199223
0.199309
0.199252
0.199194
0.199111
0.199016
0.198894
0.198752
0.1986
0.198412
0.198205
0.197996
0.197751
0.197474
0.197207
0.196926
0.196594
0.196259
0.195934
0.195611
0.195252
0.194815
0.194483
0.194222
0.19392
0.193498
0.19317
0.19298
0.192731
0.192452
0.192023
0.191826
0.191716
0.191646
0.191633
0.191793
0.191934
0.19211
0.192303
0.192607
0.193033
0.193574
0.194223
0.194869
0.195783
0.19716
0.199222
0.200851
0.204589
0.206271
0.225627
1.09749
1.62273
1.68614
1.68629
1.63591
1.60821
1.55214
1.5078
1.46455
1.4203
1.3783
1.33816
1.29766
1.26018
1.22359
1.19182
1.16029
1.13229
1.10754
1.08611
1.069
1.057
1.04992
1.04558
1.04375
1.05006
1.03785
1.03577
1.0362
1.05469
1.03451
1.03145
1.03094
1.0406
1.02476
1.02025
1.01618
1.01429
1.01921
1.00287
0.997459
0.994714
0.984468
0.982422
0.974665
0.979322
0.989672
1.04049
1.1386
1.30302
1.47289
1.62569
1.73356
1.80424
1.856
1.89486
1.9252
1.94853
1.96814
1.98282
1.99638
2.00578
2.01475
2.02117
2.02705
2.03093
2.03163
2.03828
0.199223
0.199309
0.199252
0.199195
0.199113
0.199014
0.198893
0.198754
0.198595
0.198414
0.198209
0.197995
0.197749
0.197477
0.19721
0.196921
0.196598
0.196264
0.195934
0.19561
0.195239
0.194824
0.194512
0.194218
0.193872
0.193475
0.193196
0.193003
0.192713
0.192398
0.192009
0.191788
0.191677
0.191606
0.191593
0.191702
0.191779
0.191855
0.191999
0.192232
0.192591
0.193083
0.193608
0.194211
0.194878
0.196054
0.19756
0.199429
0.202324
0.205422
0.216835
1.05502
1.62175
1.67925
1.66344
1.61207
1.57271
1.52336
1.47537
1.42857
1.38341
1.34224
1.30432
1.26511
1.23049
1.19503
1.16638
1.13615
1.11113
1.08963
1.06875
1.05364
1.04272
1.03628
1.03238
1.03065
1.03756
1.02643
1.0248
1.02559
1.04225
1.02495
1.02179
1.02138
1.02957
1.01612
1.01167
1.00705
1.00459
1.00835
0.995093
0.991377
0.991866
0.985781
0.988292
0.99374
1.01311
1.06157
1.16563
1.3288
1.48387
1.61362
1.69783
1.77085
1.82664
1.87279
1.90687
1.93359
1.9543
1.97191
1.98517
1.99655
2.00464
2.01227
2.01789
2.02261
2.02618
2.02628
2.03421
0.199224
0.199309
0.199253
0.199195
0.199115
0.199012
0.198894
0.198759
0.198593
0.198414
0.198216
0.197992
0.197745
0.197483
0.197214
0.196915
0.196598
0.196271
0.195939
0.195606
0.195219
0.19484
0.194534
0.19421
0.193825
0.19347
0.193233
0.192982
0.192683
0.192296
0.191976
0.191775
0.191659
0.191567
0.191495
0.191466
0.191451
0.191477
0.191582
0.191719
0.192003
0.192352
0.192737
0.193105
0.193635
0.194523
0.19535
0.19704
0.19907
0.202613
0.211628
0.959414
1.61463
1.67229
1.62241
1.57597
1.51344
1.46506
1.42108
1.37613
1.33583
1.29776
1.26467
1.22397
1.1962
1.16033
1.13658
1.10481
1.08283
1.06657
1.04552
1.03119
1.02141
1.01657
1.01382
1.01276
1.01915
1.01072
1.00949
1.01025
1.02513
1.01218
1.00864
1.00773
1.01447
1.00389
1.00012
0.995857
0.993715
0.998281
0.991328
0.989885
0.995994
0.997733
1.00744
1.04258
1.08607
1.20537
1.34965
1.50767
1.6212
1.68521
1.74269
1.79238
1.84185
1.88264
1.91322
1.93757
1.95685
1.97239
1.98443
1.99454
2.00195
2.00836
2.01333
2.01704
2.02031
2.02013
2.02941
0.199226
0.19931
0.199254
0.199196
0.199116
0.199012
0.198897
0.198763
0.198592
0.198417
0.198224
0.197989
0.197743
0.197493
0.197217
0.196908
0.196596
0.196281
0.195952
0.195591
0.1952
0.194873
0.194559
0.194177
0.193785
0.193476
0.193261
0.192955
0.19258
0.192219
0.191938
0.191793
0.191646
0.191497
0.191246
0.191132
0.191059
0.191042
0.19109
0.19117
0.191346
0.191492
0.191617
0.19175
0.1919
0.192071
0.192071
0.19227
0.192856
0.193352
0.205494
0.80443
1.58816
1.65511
1.55158
1.50398
1.42889
1.38497
1.35008
1.31389
1.28249
1.2413
1.21902
1.17467
1.1563
1.11985
1.10024
1.07199
1.04979
1.03649
1.0154
1.00358
0.994712
0.991275
0.989851
0.989579
0.994963
0.990014
0.988785
0.989269
1.00177
0.993863
0.990833
0.989553
0.996024
0.989539
0.987982
0.984598
0.988485
0.993664
0.99589
0.997097
1.01004
1.03573
1.05742
1.14154
1.24579
1.39953
1.53668
1.63766
1.68738
1.72551
1.76589
1.80559
1.85237
1.88805
1.91634
1.93827
1.95604
1.97044
1.98187
1.99105
1.99797
2.00337
2.00775
2.01066
2.01351
2.01333
2.02397
0.199227
0.199311
0.199255
0.199198
0.199117
0.199012
0.198899
0.198766
0.198592
0.198421
0.198231
0.197988
0.197748
0.197505
0.197218
0.196905
0.196598
0.196298
0.195967
0.19557
0.195199
0.194915
0.194577
0.194132
0.193751
0.193503
0.193266
0.19292
0.19246
0.192132
0.191928
0.19179
0.191648
0.191313
0.19096
0.190795
0.190672
0.190585
0.19055
0.19058
0.190583
0.190481
0.190274
0.189978
0.189674
0.189135
0.188111
0.187335
0.185903
0.182854
0.194612
0.520928
1.48811
1.65872
1.4587
1.41327
1.34275
1.30256
1.27873
1.24773
1.23109
1.18499
1.17478
1.13162
1.11747
1.08724
1.06377
1.04949
1.0201
1.00738
0.990551
0.978911
0.970352
0.96718
0.966668
0.967365
0.97208
0.969752
0.96902
0.969827
0.979604
0.977104
0.974905
0.976557
0.981807
0.98104
0.982803
0.977825
0.992569
0.995705
1.01294
1.02729
1.04889
1.11229
1.17657
1.31807
1.45013
1.5805
1.65715
1.69404
1.71796
1.74745
1.77795
1.81775
1.85691
1.89021
1.9159
1.93638
1.95322
1.96675
1.97776
1.98614
1.99266
1.99741
2.00128
2.0036
2.00616
2.00608
2.01766
0.19923
0.199313
0.199256
0.199199
0.199119
0.199014
0.198902
0.198768
0.198595
0.198423
0.198236
0.197989
0.197752
0.197514
0.197218
0.196905
0.196604
0.19632
0.195979
0.195541
0.195204
0.194946
0.19458
0.194091
0.193735
0.19353
0.19327
0.192858
0.192373
0.192041
0.191919
0.191796
0.191606
0.191045
0.190699
0.190477
0.190313
0.190168
0.190047
0.189892
0.189656
0.189268
0.188631
0.187906
0.187109
0.185876
0.183956
0.181638
0.17719
0.170449
0.168699
0.237604
1.23214
1.7133
1.40759
1.3353
1.27681
1.24081
1.21424
1.19366
1.17759
1.1424
1.1296
1.09885
1.07661
1.06594
1.02891
1.02293
0.993393
0.979513
0.970056
0.958163
0.949808
0.947392
0.947715
0.950271
0.953432
0.95414
0.955117
0.956102
0.964133
0.966049
0.964296
0.970588
0.975171
0.978537
0.984269
0.979621
1.01053
1.02069
1.05061
1.09069
1.14884
1.26791
1.38302
1.51432
1.62376
1.67875
1.70227
1.7173
1.7346
1.75889
1.78576
1.82528
1.86
1.89026
1.914
1.9332
1.94913
1.96187
1.97251
1.98023
1.98637
1.99071
1.99411
1.99598
1.99842
1.99847
2.01046
0.199232
0.199314
0.199258
0.199201
0.19912
0.199018
0.198903
0.198768
0.198599
0.198425
0.198238
0.197993
0.197758
0.197521
0.197221
0.196908
0.196611
0.19633
0.195984
0.195528
0.195227
0.194954
0.194563
0.194069
0.193747
0.193548
0.19326
0.192759
0.192302
0.192052
0.191906
0.191747
0.191418
0.190841
0.190492
0.190187
0.189963
0.189736
0.189562
0.189261
0.188751
0.188096
0.187384
0.186643
0.185684
0.184649
0.183113
0.182279
0.179915
0.177024
0.177928
0.206777
0.814206
1.66956
1.40613
1.32025
1.24827
1.20824
1.17579
1.15384
1.12964
1.10918
1.09046
1.0831
1.04445
1.04263
1.00192
0.994742
0.978229
0.957413
0.948579
0.939537
0.931764
0.930558
0.932824
0.937131
0.940222
0.943484
0.946651
0.947512
0.956362
0.961548
0.958598
0.972328
0.979447
0.984872
1.00071
1.00204
1.05085
1.08156
1.1439
1.24231
1.33809
1.46653
1.58124
1.66312
1.69712
1.71053
1.71765
1.72795
1.74547
1.76456
1.79347
1.8287
1.86116
1.88857
1.91067
1.92861
1.94368
1.95577
1.96607
1.97331
1.97912
1.98321
1.98626
1.98784
1.99027
1.99057
2.00265
0.199235
0.199316
0.199261
0.199204
0.199122
0.199023
0.198905
0.198767
0.198606
0.198429
0.198238
0.198001
0.197766
0.197523
0.197228
0.196913
0.196623
0.196334
0.195964
0.195549
0.195253
0.194944
0.194504
0.194093
0.19379
0.193522
0.19318
0.192676
0.192332
0.19211
0.191882
0.191581
0.191093
0.19063
0.190282
0.189985
0.189702
0.189417
0.189069
0.18851
0.187834
0.187113
0.186371
0.185502
0.184477
0.183234
0.181908
0.180507
0.177748
0.173326
0.171095
0.238661
0.499488
1.42965
1.37945
1.31092
1.2411
1.20119
1.1614
1.13123
1.0987
1.08521
1.06211
1.06664
1.01897
1.01292
0.994621
0.970504
0.964003
0.936486
0.931387
0.926723
0.920233
0.918969
0.923519
0.929541
0.934392
0.93911
0.944623
0.944488
0.95758
0.965494
0.961616
0.986796
1.00136
1.00711
1.05008
1.07479
1.15457
1.23327
1.32479
1.4459
1.54922
1.64225
1.69353
1.71132
1.71688
1.71933
1.72384
1.73576
1.74922
1.77055
1.79832
1.83119
1.86177
1.88674
1.90706
1.92387
1.938
1.94938
1.95921
1.96593
1.97136
1.97524
1.97797
1.97937
1.98186
1.98237
1.99403
0.199239
0.199319
0.199263
0.199206
0.199124
0.199028
0.198909
0.198768
0.198616
0.198435
0.198234
0.198014
0.197779
0.19752
0.197236
0.196928
0.196637
0.196337
0.195947
0.195597
0.19527
0.194911
0.19449
0.194167
0.193849
0.193456
0.193041
0.192658
0.192435
0.192168
0.191798
0.191255
0.190797
0.190429
0.190146
0.189928
0.189582
0.189125
0.18852
0.187919
0.18736
0.186751
0.186145
0.185458
0.184712
0.183856
0.18328
0.182464
0.181473
0.183013
0.192911
0.320763
0.623484
1.03262
1.23779
1.28246
1.23391
1.20518
1.159
1.12774
1.09173
1.0754
1.05035
1.03646
1.02132
0.990539
0.987591
0.952325
0.947241
0.931039
0.923094
0.917938
0.913158
0.913926
0.919169
0.927052
0.932622
0.939529
0.948266
0.949556
0.971074
0.985941
0.986845
1.03202
1.06533
1.08267
1.16997
1.23667
1.34052
1.44654
1.54023
1.635
1.69217
1.71496
1.7204
1.71937
1.71922
1.72124
1.72843
1.73893
1.75349
1.77548
1.80208
1.83238
1.86054
1.88337
1.90235
1.91824
1.93155
1.94234
1.9517
1.95796
1.96303
1.96673
1.96918
1.97055
1.97309
1.97383
1.98514
0.199242
0.199322
0.199266
0.199209
0.199128
0.199034
0.198912
0.198772
0.198626
0.198441
0.198236
0.198031
0.197795
0.197519
0.197244
0.196952
0.196652
0.196327
0.19597
0.195654
0.195283
0.19486
0.194516
0.194238
0.193869
0.193363
0.192939
0.192684
0.192497
0.192199
0.191624
0.191053
0.190616
0.190312
0.190129
0.189856
0.189485
0.188744
0.188177
0.187627
0.18713
0.18661
0.186113
0.185547
0.184905
0.184458
0.183853
0.182762
0.181228
0.182556
0.197041
0.534327
0.785875
0.86242
0.982405
1.16658
1.21735
1.19973
1.16137
1.14331
1.09843
1.07808
1.06047
1.02544
1.02489
0.979808
0.970715
0.950908
0.937841
0.927297
0.923127
0.916609
0.914301
0.917479
0.923583
0.934687
0.944354
0.954931
0.972828
0.97989
1.01429
1.04617
1.06556
1.13934
1.20519
1.25649
1.37547
1.46834
1.55686
1.64099
1.69428
1.71886
1.72529
1.72552
1.72062
1.71825
1.71811
1.72268
1.73091
1.7409
1.75749
1.77923
1.80532
1.8336
1.85922
1.87999
1.89756
1.91241
1.92479
1.93501
1.94385
1.94968
1.95438
1.9579
1.96011
1.96153
1.96415
1.9651
1.97551
0.199246
0.199325
0.19927
0.199213
0.199132
0.199039
0.198917
0.198779
0.198635
0.198445
0.198242
0.198047
0.197804
0.197524
0.197254
0.196977
0.196671
0.196308
0.195999
0.195699
0.195272
0.194836
0.194559
0.194281
0.193847
0.193288
0.192905
0.192715
0.192507
0.192174
0.191451
0.190969
0.190589
0.190293
0.190049
0.189686
0.189089
0.188505
0.188047
0.187605
0.187188
0.186754
0.186401
0.186036
0.185622
0.185245
0.184877
0.184616
0.184619
0.196859
0.238574
0.705455
0.821037
0.820798
0.855455
0.992401
1.10287
1.19021
1.16798
1.16071
1.12344
1.09108
1.07577
1.02931
1.03266
0.983034
0.968472
0.953933
0.939366
0.927222
0.930497
0.927998
0.930832
0.938134
0.941801
0.965283
0.982896
0.996783
1.03725
1.06576
1.11971
1.18549
1.24499
1.33447
1.42345
1.49822
1.59122
1.66109
1.70232
1.72135
1.72711
1.72812
1.71987
1.7159
1.71421
1.71469
1.71801
1.72435
1.73166
1.74374
1.76064
1.78202
1.80738
1.83364
1.85718
1.87644
1.89274
1.90655
1.91797
1.92757
1.93581
1.94122
1.94541
1.94877
1.95072
1.95229
1.95499
1.95606
1.9659
0.19925
0.199329
0.199274
0.199217
0.199137
0.199043
0.198922
0.198787
0.198643
0.198451
0.198252
0.198057
0.197813
0.197534
0.197269
0.197002
0.196676
0.196321
0.196036
0.195716
0.195242
0.194865
0.194603
0.194285
0.193781
0.193289
0.192938
0.192737
0.192451
0.192045
0.191404
0.191004
0.190633
0.19025
0.189853
0.189302
0.188801
0.188378
0.188017
0.187662
0.187399
0.187114
0.186759
0.186481
0.186186
0.186019
0.186069
0.186558
0.187937
0.206699
0.40566
0.830807
0.843562
0.829747
0.834305
0.889985
0.944167
1.10958
1.16847
1.18949
1.1625
1.10933
1.09863
1.04106
1.04969
0.988383
0.981857
0.961064
0.951831
0.940536
0.951649
0.955856
0.969283
0.986598
0.992989
1.04083
1.07929
1.10732
1.18267
1.24887
1.32247
1.40909
1.48558
1.55911
1.63044
1.68335
1.71256
1.72434
1.72995
1.72811
1.71856
1.71498
1.71272
1.71158
1.71161
1.71368
1.71839
1.72441
1.73343
1.74629
1.76307
1.78394
1.80796
1.83231
1.85375
1.87159
1.88697
1.89999
1.91063
1.91975
1.92741
1.93242
1.93611
1.9393
1.9411
1.94292
1.94572
1.94699
1.9558
0.199255
0.199333
0.199278
0.199222
0.199143
0.199047
0.198929
0.198796
0.198649
0.198461
0.198265
0.198063
0.197826
0.197554
0.197284
0.197019
0.196672
0.196353
0.196058
0.195708
0.195272
0.194936
0.194611
0.19424
0.193753
0.193364
0.192994
0.192651
0.192309
0.191902
0.191497
0.191122
0.190694
0.190064
0.189534
0.189065
0.188677
0.188352
0.188037
0.187835
0.187651
0.187306
0.186852
0.186369
0.185913
0.18559
0.185268
0.184877
0.185952
0.200159
0.615415
0.876977
0.873925
0.856896
0.850044
0.848343
0.869867
0.973197
1.08887
1.16029
1.1884
1.128
1.14124
1.06336
1.07743
0.985909
1.00904
0.985261
0.977333
0.981281
1.00621
1.02587
1.04893
1.09177
1.12469
1.19387
1.261
1.32388
1.40681
1.48509
1.55582
1.62019
1.67362
1.70222
1.71783
1.72556
1.73072
1.72422
1.71779
1.71328
1.71021
1.70812
1.7066
1.70689
1.70881
1.71249
1.71744
1.72461
1.73461
1.74802
1.76486
1.78531
1.80828
1.8314
1.85116
1.86769
1.88167
1.89359
1.90334
1.91187
1.91887
1.92343
1.92655
1.92967
1.93134
1.93345
1.93624
1.93757
1.94586
0.19926
0.199337
0.199283
0.199228
0.199149
0.199052
0.198937
0.198808
0.198653
0.198474
0.198286
0.198068
0.197838
0.197582
0.197304
0.197026
0.196698
0.196398
0.19607
0.195687
0.195351
0.195021
0.194604
0.194172
0.193799
0.19345
0.193008
0.192569
0.192159
0.191855
0.191586
0.191235
0.190656
0.189894
0.189363
0.188954
0.188633
0.188336
0.188061
0.187973
0.18774
0.187389
0.186906
0.18636
0.186128
0.186108
0.186161
0.185948
0.194769
0.237346
0.738484
0.88168
0.884419
0.872205
0.867729
0.854507
0.858408
0.887967
0.972847
1.06707
1.17426
1.17143
1.19558
1.09787
1.1174
1.01845
1.0449
1.05004
1.05156
1.07455
1.11928
1.167
1.20009
1.2823
1.35178
1.41845
1.49218
1.55987
1.61978
1.67203
1.70081
1.71567
1.72309
1.72612
1.72608
1.71757
1.71396
1.7104
1.70765
1.70488
1.70265
1.7016
1.70175
1.70368
1.70686
1.71131
1.71687
1.72503
1.73546
1.74896
1.76548
1.78479
1.80596
1.8276
1.84621
1.86207
1.87534
1.88658
1.89564
1.90366
1.90998
1.91414
1.91676
1.91985
1.92142
1.92383
1.92662
1.92819
1.93563
0.199266
0.199342
0.199288
0.199233
0.199156
0.199058
0.198949
0.198819
0.198659
0.198492
0.198307
0.198077
0.197853
0.197613
0.197332
0.197026
0.196739
0.196446
0.196059
0.195708
0.195426
0.195073
0.194566
0.194168
0.193854
0.193507
0.192979
0.192486
0.19211
0.191901
0.191635
0.191278
0.19057
0.189797
0.189303
0.188931
0.188613
0.18834
0.188095
0.188029
0.187785
0.187382
0.186925
0.18656
0.18652
0.186657
0.187069
0.187788
0.205337
0.366275
0.834712
0.892868
0.894233
0.893973
0.893593
0.878246
0.872563
0.868176
0.905606
0.971578
1.15106
1.20682
1.25368
1.1593
1.18326
1.09554
1.13894
1.17239
1.19004
1.24795
1.30912
1.37913
1.43374
1.50988
1.5741
1.62612
1.6701
1.6973
1.71139
1.72059
1.72544
1.7264
1.71876
1.71375
1.71126
1.70766
1.7044
1.70082
1.69824
1.69679
1.69584
1.69622
1.69795
1.70104
1.70486
1.70981
1.71612
1.72468
1.73535
1.74898
1.76536
1.78422
1.80459
1.82505
1.84225
1.85688
1.86898
1.87944
1.88779
1.89523
1.90082
1.90457
1.9068
1.90994
1.91149
1.91418
1.91688
1.91849
1.9255
0.199272
0.199348
0.199294
0.19924
0.199163
0.199066
0.198961
0.198828
0.198669
0.198512
0.198322
0.198092
0.197871
0.197644
0.197352
0.197044
0.196781
0.196479
0.196068
0.195762
0.195467
0.19508
0.194586
0.19421
0.193873
0.193501
0.192958
0.192518
0.192192
0.19194
0.19159
0.191204
0.190428
0.189828
0.189376
0.188978
0.18864
0.18835
0.188059
0.187925
0.187609
0.187198
0.186789
0.186346
0.186035
0.185729
0.185672
0.186595
0.206513
0.562532
0.912407
0.91575
0.909878
0.906141
0.899077
0.890348
0.882706
0.8767
0.879007
0.941965
1.11121
1.22562
1.31551
1.27138
1.29044
1.24506
1.30511
1.35748
1.39949
1.46394
1.52268
1.58515
1.63273
1.6694
1.69405
1.70628
1.7149
1.72074
1.72257
1.71699
1.71235
1.71099
1.70798
1.70428
1.70148
1.69722
1.69416
1.69149
1.69001
1.68988
1.69032
1.69208
1.6947
1.69814
1.7028
1.70784
1.71489
1.72333
1.73433
1.74748
1.76314
1.78084
1.80003
1.81965
1.83619
1.85031
1.86175
1.87166
1.87947
1.88644
1.89137
1.89484
1.89683
1.89997
1.90153
1.90439
1.90696
1.9088
1.91537
0.199278
0.199353
0.199301
0.199247
0.199171
0.199075
0.198973
0.198838
0.198683
0.19853
0.198337
0.198114
0.197894
0.197672
0.197371
0.19708
0.196811
0.196483
0.196133
0.195816
0.195484
0.195072
0.194694
0.194311
0.193871
0.193425
0.192989
0.192679
0.192332
0.191897
0.191464
0.19096
0.190448
0.190056
0.189639
0.189092
0.188661
0.188292
0.187959
0.187639
0.187355
0.186961
0.18654
0.186085
0.185474
0.184226
0.183364
0.18822
0.216326
0.725681
0.923154
0.928951
0.926344
0.921272
0.912265
0.905022
0.903951
0.898724
0.892893
0.97159
1.12721
1.27711
1.4186
1.43375
1.43636
1.46876
1.50886
1.54881
1.6
1.6392
1.66683
1.68826
1.69978
1.70771
1.71406
1.71573
1.71065
1.70754
1.70635
1.70506
1.70158
1.70064
1.69603
1.69362
1.69059
1.68792
1.68555
1.68387
1.68318
1.68445
1.68544
1.68828
1.69135
1.69545
1.70016
1.70598
1.71315
1.72212
1.73331
1.74649
1.76177
1.77869
1.79662
1.81501
1.83044
1.84374
1.8544
1.8637
1.87091
1.8774
1.88168
1.88492
1.88674
1.88984
1.89148
1.89454
1.89712
1.89908
1.90514
0.199285
0.199359
0.199308
0.199255
0.199179
0.199087
0.198983
0.198851
0.1987
0.198545
0.198357
0.19814
0.197919
0.197694
0.197409
0.197128
0.196831
0.196513
0.196222
0.195871
0.195461
0.195134
0.194813
0.194395
0.193849
0.193404
0.193112
0.192866
0.192478
0.191799
0.191286
0.190849
0.190532
0.190301
0.189931
0.189362
0.188702
0.188226
0.187862
0.187577
0.187299
0.187057
0.186899
0.186733
0.186571
0.186553
0.186744
0.203524
0.303438
0.832139
0.920662
0.929118
0.932196
0.933736
0.930835
0.929783
0.939981
0.940382
0.947819
1.0892
1.23675
1.4316
1.56992
1.60434
1.60798
1.64165
1.6565
1.66973
1.68126
1.68978
1.69742
1.70219
1.70532
1.70103
1.69945
1.6984
1.69885
1.69509
1.69393
1.69193
1.69019
1.68902
1.68595
1.68389
1.68122
1.67897
1.6771
1.67633
1.67636
1.67851
1.68028
1.68346
1.68701
1.69158
1.69688
1.70309
1.71058
1.71971
1.7304
1.74314
1.7578
1.77407
1.7912
1.80877
1.82355
1.83627
1.84638
1.85516
1.86192
1.86799
1.87176
1.87486
1.87662
1.87969
1.88144
1.88467
1.88721
1.88912
1.89505
0.199293
0.199366
0.199316
0.199263
0.199188
0.199099
0.198995
0.198866
0.198721
0.198559
0.19838
0.198169
0.197948
0.197717
0.197457
0.197182
0.196838
0.196565
0.196302
0.195899
0.195479
0.19522
0.19491
0.194422
0.193838
0.193442
0.193235
0.192974
0.192556
0.191731
0.191211
0.190835
0.19058
0.190423
0.190091
0.1896
0.188765
0.188272
0.187915
0.187658
0.187444
0.187222
0.187007
0.186996
0.187016
0.187421
0.188123
0.213929
0.483668
0.945852
0.932812
0.929879
0.932082
0.935941
0.936291
0.941067
0.971633
0.997386
1.03574
1.261
1.43466
1.63002
1.7093
1.71339
1.70467
1.70047
1.69813
1.69616
1.69661
1.68943
1.68665
1.68563
1.68615
1.68732
1.68465
1.68306
1.68327
1.68104
1.67983
1.6793
1.67717
1.67708
1.67463
1.67363
1.67178
1.67054
1.66963
1.67024
1.67081
1.67332
1.67528
1.67852
1.68246
1.68763
1.69352
1.70024
1.708
1.71722
1.7278
1.74023
1.75419
1.7696
1.78559
1.80214
1.81628
1.82846
1.83815
1.84651
1.85293
1.85856
1.86185
1.86475
1.86639
1.8694
1.87125
1.87458
1.87724
1.87945
1.88469
0.1993
0.199374
0.199324
0.199273
0.1992
0.199111
0.199009
0.198885
0.198741
0.198579
0.198407
0.198202
0.197978
0.19775
0.197505
0.197217
0.19689
0.196624
0.196347
0.195922
0.195578
0.195291
0.194954
0.194403
0.193925
0.193569
0.193332
0.193032
0.192545
0.191742
0.191252
0.190897
0.190607
0.190448
0.19011
0.189665
0.18897
0.188456
0.188056
0.187731
0.187466
0.187136
0.186711
0.186089
0.185458
0.184882
0.188352
0.212015
0.729141
0.946184
0.950082
0.947106
0.945685
0.94742
0.951029
0.954623
1.01797
1.10617
1.2067
1.47961
1.6555
1.75131
1.75734
1.73471
1.72305
1.71049
1.69942
1.68946
1.68201
1.67699
1.6731
1.67029
1.66835
1.66715
1.66672
1.66498
1.66633
1.66556
1.66525
1.66572
1.66492
1.66579
1.66456
1.66425
1.6631
1.66248
1.6618
1.66258
1.66316
1.66565
1.66779
1.67169
1.67623
1.68166
1.68794
1.69507
1.70325
1.71282
1.72373
1.73623
1.74991
1.76471
1.77984
1.79544
1.8089
1.82048
1.82972
1.83766
1.8437
1.84881
1.8517
1.85438
1.85595
1.85899
1.86099
1.86452
1.86729
1.86947
1.87417
0.199309
0.199382
0.199332
0.199283
0.199213
0.199123
0.199023
0.198906
0.198759
0.198603
0.198437
0.198234
0.198011
0.197796
0.197548
0.197253
0.196979
0.196689
0.196363
0.196017
0.195728
0.195357
0.194936
0.19448
0.194128
0.193757
0.193381
0.193023
0.19253
0.191941
0.191453
0.191031
0.190663
0.190327
0.190057
0.189703
0.189289
0.188941
0.18839
0.187943
0.187676
0.187518
0.187416
0.187501
0.187944
0.188405
0.205735
0.306011
0.841718
0.935545
0.944303
0.947573
0.946755
0.958006
0.978707
0.987661
1.09831
1.27934
1.45601
1.67674
1.76375
1.76784
1.73939
1.72553
1.70838
1.69574
1.68553
1.67687
1.66906
1.66212
1.65664
1.65222
1.64915
1.64766
1.64794
1.64777
1.64979
1.65084
1.65143
1.65324
1.65273
1.65282
1.6513
1.65107
1.65071
1.65137
1.65174
1.65376
1.65474
1.65822
1.66069
1.66474
1.66897
1.6746
1.6815
1.68943
1.69835
1.70836
1.71933
1.73151
1.74457
1.75852
1.77273
1.78759
1.80052
1.81161
1.82049
1.8281
1.83387
1.83869
1.84141
1.84396
1.84552
1.84855
1.85066
1.85424
1.85715
1.85941
1.86367
0.199318
0.19939
0.199342
0.199293
0.199226
0.199138
0.199041
0.198927
0.19878
0.198632
0.19847
0.198264
0.198054
0.197848
0.197582
0.197315
0.197073
0.196749
0.196394
0.196145
0.195871
0.195414
0.194945
0.194627
0.194353
0.193954
0.193425
0.192957
0.192631
0.192232
0.191789
0.191149
0.190667
0.19026
0.189943
0.189729
0.189521
0.189213
0.188838
0.188143
0.187776
0.187512
0.187314
0.187149
0.187325
0.187893
0.215635
0.507093
0.954032
0.944083
0.941395
0.949508
0.951878
0.974439
1.03515
1.07792
1.26091
1.49116
1.67362
1.76478
1.76757
1.73656
1.72202
1.70278
1.68883
1.67681
1.66645
1.6575
1.65025
1.64378
1.63852
1.63466
1.63166
1.62942
1.62982
1.63064
1.6318
1.63251
1.63314
1.63503
1.63565
1.63765
1.63842
1.63924
1.63989
1.64158
1.64192
1.64306
1.64408
1.64711
1.64971
1.65409
1.6596
1.66622
1.6736
1.6818
1.69108
1.70146
1.71289
1.72526
1.73825
1.7518
1.7654
1.77962
1.79204
1.80272
1.81123
1.81843
1.82382
1.8283
1.83087
1.83332
1.83487
1.83788
1.84018
1.84386
1.84698
1.84948
1.8532
0.199328
0.199399
0.199352
0.199305
0.19924
0.199155
0.199059
0.198948
0.198807
0.198662
0.198503
0.1983
0.198106
0.197899
0.197622
0.197395
0.197159
0.196787
0.196471
0.196263
0.195979
0.195442
0.19502
0.194767
0.194506
0.194058
0.193451
0.193037
0.192789
0.192456
0.192035
0.191254
0.190716
0.190306
0.189985
0.189714
0.189534
0.189212
0.188845
0.188076
0.187517
0.186962
0.186298
0.185446
0.184453
0.190885
0.22421
0.754037
0.946164
0.953399
0.952698
0.960642
0.97187
0.996051
1.13859
1.25154
1.48955
1.6803
1.76135
1.76217
1.72943
1.71428
1.694
1.67917
1.6666
1.65613
1.64746
1.6403
1.63427
1.62917
1.62439
1.62016
1.61644
1.61329
1.61232
1.61234
1.61427
1.6151
1.61718
1.61938
1.62119
1.62307
1.62421
1.62499
1.62536
1.627
1.62864
1.63154
1.63392
1.63768
1.64091
1.64498
1.65071
1.65749
1.6653
1.67423
1.68432
1.69534
1.70706
1.71921
1.73184
1.74491
1.75781
1.77134
1.78315
1.79341
1.80144
1.80824
1.8132
1.81742
1.82005
1.82252
1.82415
1.82718
1.82969
1.83339
1.83666
1.83918
1.84272
0.199339
0.199409
0.199364
0.199318
0.199254
0.199174
0.199078
0.198969
0.198839
0.198693
0.198536
0.198345
0.198154
0.197946
0.197689
0.197467
0.197225
0.19687
0.196591
0.196346
0.196043
0.195552
0.195198
0.194883
0.194579
0.194115
0.193648
0.193295
0.192927
0.19255
0.192062
0.19142
0.19095
0.190516
0.190135
0.189768
0.189396
0.189098
0.188716
0.188341
0.187999
0.187854
0.187857
0.188413
0.189731
0.209264
0.387079
0.881663
0.941211
0.947285
0.959393
0.977982
1.0288
1.06812
1.29927
1.48575
1.68401
1.75868
1.75463
1.72179
1.70465
1.68464
1.6689
1.65604
1.64562
1.63698
1.62972
1.62371
1.61871
1.61436
1.61023
1.60608
1.60263
1.59923
1.59728
1.59598
1.59745
1.5978
1.60127
1.60262
1.60506
1.60695
1.60999
1.61228
1.61364
1.61554
1.61772
1.6203
1.62194
1.62502
1.62816
1.63196
1.63795
1.64538
1.65417
1.66369
1.67393
1.68493
1.69696
1.7099
1.72331
1.7366
1.7493
1.76197
1.77339
1.78329
1.79115
1.79766
1.80235
1.80645
1.80923
1.81177
1.8134
1.8164
1.81902
1.82254
1.82618
1.82915
1.83256
0.19935
0.19942
0.199376
0.199332
0.199269
0.199196
0.1991
0.198994
0.198873
0.198726
0.198574
0.1984
0.198204
0.197999
0.197775
0.197541
0.197288
0.197001
0.196726
0.196428
0.196102
0.195755
0.195428
0.195019
0.194618
0.194264
0.193995
0.19362
0.193057
0.192561
0.192122
0.191773
0.191367
0.190882
0.190289
0.189788
0.189314
0.188887
0.188518
0.188233
0.187823
0.187259
0.185842
0.185056
0.186431
0.20782
0.647558
0.946941
0.960578
0.963718
0.981834
1.01018
1.14672
1.24121
1.51886
1.68679
1.75474
1.74583
1.71495
1.69566
1.67654
1.65944
1.64574
1.63489
1.62624
1.61912
1.61309
1.60807
1.60389
1.60032
1.59705
1.59313
1.59033
1.5869
1.58435
1.58187
1.58164
1.58134
1.58524
1.58669
1.59023
1.59206
1.59453
1.59689
1.5987
1.6004
1.60277
1.60655
1.60976
1.61417
1.61832
1.62186
1.62787
1.63544
1.64404
1.6534
1.66393
1.67544
1.68821
1.7016
1.71526
1.72831
1.74071
1.75266
1.76354
1.77315
1.78075
1.78693
1.79123
1.79508
1.79799
1.80063
1.80236
1.80535
1.80821
1.81178
1.81563
1.81897
1.82143
0.199363
0.199432
0.19939
0.199348
0.199286
0.199217
0.199124
0.19902
0.198906
0.198766
0.198616
0.198454
0.198261
0.198067
0.197865
0.197616
0.197373
0.197143
0.196857
0.196502
0.196237
0.195984
0.195628
0.195114
0.194736
0.194516
0.194273
0.19385
0.193156
0.192679
0.192372
0.192087
0.191706
0.19114
0.190406
0.189804
0.189302
0.188842
0.188445
0.188243
0.187911
0.187493
0.187389
0.187367
0.202285
0.27312
0.822693
0.954037
0.967537
0.984604
1.03182
1.08292
1.31372
1.49574
1.69245
1.75125
1.73931
1.70927
1.68873
1.66894
1.65127
1.63679
1.62527
1.61611
1.60877
1.60264
1.59742
1.59316
1.5896
1.5865
1.58411
1.58055
1.57807
1.57491
1.57257
1.56955
1.56782
1.56647
1.56904
1.57016
1.57432
1.57653
1.57959
1.58275
1.58645
1.58877
1.59105
1.59527
1.59763
1.60095
1.60474
1.60806
1.61418
1.62204
1.63148
1.64215
1.65349
1.66513
1.67745
1.69039
1.70383
1.71697
1.73003
1.74199
1.75285
1.7618
1.76907
1.77495
1.77914
1.78336
1.78676
1.7896
1.79152
1.79454
1.7973
1.80075
1.80483
1.80819
1.81107
0.199376
0.199444
0.199404
0.199364
0.199305
0.199239
0.199152
0.199049
0.198941
0.198813
0.198662
0.19851
0.198324
0.198142
0.197951
0.197696
0.197486
0.197274
0.196956
0.196636
0.196429
0.19618
0.195769
0.195305
0.195005
0.194768
0.194473
0.193982
0.193434
0.19305
0.192709
0.192304
0.191858
0.191196
0.190666
0.190219
0.189777
0.189229
0.188797
0.188448
0.188122
0.187852
0.188135
0.189058
0.219549
0.492135
0.974276
0.974095
0.994889
1.03474
1.14098
1.28227
1.52047
1.6935
1.75059
1.73481
1.70585
1.68366
1.66315
1.64519
1.63024
1.61809
1.60825
1.60031
1.59376
1.58826
1.58355
1.57971
1.57672
1.5737
1.57179
1.56869
1.56618
1.56325
1.56119
1.55799
1.55555
1.5532
1.55395
1.55449
1.55919
1.56149
1.56459
1.56728
1.57078
1.57291
1.57527
1.57937
1.58285
1.58828
1.59347
1.59772
1.60421
1.61207
1.62081
1.6301
1.64064
1.65256
1.66551
1.67911
1.69301
1.70657
1.72006
1.73179
1.74242
1.75069
1.75777
1.76339
1.76751
1.77183
1.77519
1.77815
1.7801
1.78313
1.78615
1.78969
1.79404
1.79808
1.80018
0.19939
0.199458
0.199419
0.199382
0.199325
0.199263
0.199181
0.199082
0.198978
0.19886
0.198714
0.198564
0.198398