/*--------------------------------*- C++ -*----------------------------------*\
| =========                 |                                                 |
| \\      /  F ield         | OpenFOAM: The Open Source CFD Toolbox           |
|  \\    /   O peration     | Version:  2.2.x                                 |
|   \\  /    A nd           | Web:      www.OpenFOAM.org                      |
|    \\/     M anipulation  |                                                 |
\*---------------------------------------------------------------------------*/
FoamFile
{
    version     2.0;
    format      ascii;
    class       surfaceScalarField;
    location    "1.15";
    object      phi;
}
// * * * * * * * * * * * * * * * * * * * * * * * * * * * * * * * * * * * * * //

dimensions      [1 0 -1 0 0 0 0];

internalField   nonuniform List<scalar> 
28084
(
0.000746227
0.000742998
0.000740227
0.000737896
0.000735987
0.000734469
0.000733325
0.000732546
0.00073207
0.000731894
0.000732008
0.000732343
0.000732886
0.000733645
0.000734567
0.00073559
0.000736736
0.000737999
0.000739306
0.00074063
0.000741965
0.000743355
0.000744754
0.000746112
0.000747345
0.000748531
0.00074973
0.000750822
0.000751769
0.000752421
0.000753162
0.000753849
0.000754416
0.000754892
0.000755374
0.000755603
0.000755579
0.000755385
0.000754994
0.000754405
0.000753601
0.000752472
0.000751448
0.000750493
0.000749439
0.000758873
0.000768428
0.000778119
0.000788152
0.000797922
0.000800176
0.000779361
0.000762336
0.000768669
0.000790743
0.000820244
0.000859646
0.000901324
0.000941342
0.000979308
0.00101521
0.00104715
0.00107584
0.00110158
0.00112251
0.00114138
0.0011581
0.0011727
0.00118531
0.00119643
0.00120548
0.00121149
0.00121613
0.00122007
0.00122256
0.00122396
0.00122472
0.00122498
0.00122496
0.00122398
0.0012224
0.00122028
0.00121772
0.00121397
0.00120914
0.00120439
0.00119898
0.00119319
0.0011869
0.0011805
0.00117486
0.0011691
0.00116374
0.00115929
0.00115564
0.00115309
0.00115135
0.00114702
0.00114381
0.00113576
0.00110433
0.00104675
0.00095073
0.000844238
0.000748613
0.000669033
0.00060274
0.000546581
0.000497071
0.000452154
0.000408962
0.000366629
0.000322489
0.000277695
0.000229495
0.000180717
0.000126625
7.25747e-05
3.71195e-06
3.23378e-06
0.000749744
2.77446e-06
0.000748794
2.33474e-06
0.000748273
1.91533e-06
0.000748166
1.51859e-06
0.000748454
1.14445e-06
0.000749109
7.96658e-07
0.000750115
4.72955e-07
0.000751458
1.74525e-07
0.000753079
-9.34347e-08
0.000754973
-3.34531e-07
0.000757127
-5.52424e-07
0.000759473
-7.42787e-07
0.00076199
-8.97648e-07
0.000764692
-1.03767e-06
0.000767512
-1.15453e-06
0.000770395
-1.23567e-06
0.00077336
-1.29487e-06
0.000776393
-1.33618e-06
0.000779423
-1.36537e-06
0.000782427
-1.38095e-06
0.000785378
-1.34773e-06
0.000788344
-1.30135e-06
0.000791268
-1.26087e-06
0.000794081
-1.23215e-06
0.0007967
-1.16717e-06
0.000799253
-1.04966e-06
0.000801738
-9.57463e-07
0.00080405
-8.6602e-07
0.000806161
-7.62743e-07
0.000807933
-6.43062e-07
0.000809745
-5.05822e-07
0.000811437
-3.79919e-07
0.000812964
-2.56511e-07
0.000814338
-1.08194e-07
0.000815657
3.58847e-08
0.000816639
1.74228e-07
0.000817345
3.2512e-07
0.000817807
4.76318e-07
0.000818071
6.23804e-07
0.000818136
7.70213e-07
0.000817922
9.17489e-07
0.000817357
1.08612e-06
0.000816812
1.2552e-06
0.000816273
-9.154e-06
0.000815643
-9.45443e-06
0.000824557
-9.7063e-06
0.000833395
-1.00529e-05
0.000842483
-9.59679e-06
0.000851683
-6.95699e-06
0.000860547
1.6659e-05
0.000857196
1.69996e-05
0.000833289
-6.78661e-06
0.000817185
-2.26276e-05
0.000822696
-3.00064e-05
0.000846453
-3.98589e-05
0.000879211
-4.1996e-05
0.000918449
-4.01236e-05
0.000958688
-3.8048e-05
0.000996817
-3.45853e-05
0.00103248
-3.1465e-05
0.001066
-2.7466e-05
0.00109678
-2.38649e-05
0.00112483
-2.04689e-05
0.00115098
-1.82287e-05
0.00117387
-1.64441e-05
0.00119398
-1.42535e-05
0.00121148
-1.1658e-05
0.0012269
-9.7664e-06
0.00124003
-8.09322e-06
0.00125096
-5.46863e-06
0.00126033
-4.14447e-06
0.00126739
-3.7423e-06
0.00127281
-2.86269e-06
0.00127637
-1.94773e-06
0.00127809
-1.31045e-06
0.00127845
-6.37261e-07
0.00127793
-1.68706e-07
0.00127738
8.15075e-07
0.00127633
1.90434e-06
0.00127439
2.29905e-06
0.00127144
2.67937e-06
0.00126868
3.9747e-06
0.001265
4.65006e-06
0.00126023
4.5399e-06
0.00125422
4.74746e-06
0.00124864
5.06803e-06
0.00124253
5.48768e-06
0.0012359
5.74638e-06
0.00122867
5.01498e-06
0.00122105
5.14218e-06
0.00121447
4.90551e-06
0.00120785
4.01824e-06
0.00120152
3.63829e-06
0.00119625
2.13585e-06
0.00119163
1.77973e-06
0.00118714
3.72907e-06
0.00118313
3.51245e-06
0.00117708
7.73962e-06
0.0011658
3.27398e-05
0.00114543
5.84688e-05
0.00109065
9.74748e-05
0.000995712
0.000107181
0.000880108
9.58195e-05
0.00077757
7.96526e-05
0.000693648
6.65814e-05
0.000623502
5.6771e-05
0.000563969
5.02327e-05
0.000512337
4.55116e-05
0.000466007
4.3469e-05
0.000423102
4.23373e-05
0.000381051
4.4075e-05
0.000339775
4.47677e-05
0.000297795
4.8325e-05
0.000255572
4.88995e-05
0.000210417
5.40726e-05
0.000164275
5.38497e-05
0.000113263
7.23306e-05
6.02829e-05
5.11196e-06
4.18847e-06
0.000754439
3.29862e-06
0.000755739
2.44621e-06
0.000757441
1.63287e-06
0.000759529
8.64182e-07
0.000761988
1.407e-07
0.000764792
-5.30335e-07
0.000767923
-1.1509e-06
0.000771361
-1.72102e-06
0.000775057
-2.22726e-06
0.000778998
-2.67859e-06
0.000783168
-3.08024e-06
0.000787501
-3.4242e-06
0.000791974
-3.69925e-06
0.000796597
-3.9366e-06
0.000801293
-4.12471e-06
0.000806014
-4.24505e-06
0.00081078
-4.31427e-06
0.000815563
-4.34545e-06
0.0008203
-4.35285e-06
0.000824963
-4.33261e-06
0.00082952
-4.20865e-06
0.000834049
-4.06468e-06
0.000838464
-3.93509e-06
0.000842701
-3.81424e-06
0.000846721
-3.6035e-06
0.000850629
-3.32647e-06
0.000854375
-3.09873e-06
0.000857892
-2.85507e-06
0.00086113
-2.59268e-06
0.000864038
-2.29155e-06
0.000866912
-1.96755e-06
0.000869618
-1.65065e-06
0.000872098
-1.32191e-06
0.000874353
-9.86015e-07
0.000876441
-6.54315e-07
0.000878147
-3.18968e-07
0.000879565
1.59359e-08
0.000880717
3.57218e-07
0.000881662
7.19991e-07
0.000882365
1.05672e-06
0.000882783
1.395e-06
0.000882828
1.7835e-06
0.000882649
2.15082e-06
0.000882437
-1.77579e-05
0.000882091
-1.83837e-05
0.00089031
-1.88941e-05
0.000898493
-1.93011e-05
0.000906731
-1.84492e-05
0.000915389
-8.72959e-06
0.000923819
3.62128e-05
0.000916902
3.34707e-05
0.000879927
-1.26751e-05
0.00086728
-4.68957e-05
0.000876299
-6.3545e-05
0.0009021
-7.976e-05
0.00094195
-8.27835e-05
0.000984056
-7.81135e-05
0.00102872
-7.35962e-05
0.00106946
-6.66758e-05
0.001106
-6.1349e-05
0.00113949
-5.53671e-05
0.00117017
-4.87797e-05
0.00119706
-4.25626e-05
0.00122199
-3.7698e-05
0.00124475
-3.38787e-05
0.00126522
-2.92644e-05
0.0012819
-2.46238e-05
0.00129499
-1.99826e-05
0.00130759
-1.64905e-05
0.00131649
-1.21813e-05
0.00132423
-8.85606e-06
0.00133042
-7.04826e-06
0.00133499
-4.87408e-06
0.00133805
-2.85124e-06
0.00133957
-1.60156e-06
0.00133952
-5.53514e-07
0.00133821
8.17861e-07
0.00133692
2.85439e-06
0.00133484
5.08504e-06
0.00133175
5.26844e-06
0.00132783
6.47283e-06
0.0013241
8.96507e-06
0.00131915
1.0425e-05
0.00131311
9.80848e-06
0.00130592
1.01401e-05
0.00129892
1.10319e-05
0.00129158
1.20614e-05
0.00128389
1.2745e-05
0.00127576
1.09789e-05
0.00126724
1.10776e-05
0.00125922
1.07351e-05
0.00125128
8.80256e-06
0.00124412
8.37729e-06
0.00123683
6.20167e-06
0.00123021
5.98499e-06
0.00122308
9.01114e-06
0.00121527
1.51814e-05
0.00120365
2.77636e-05
0.00117726
8.9406e-05
0.00112215
0.0001544
0.00102791
0.000214241
0.000900674
0.000210213
0.000794203
0.000179939
0.000710461
0.000149937
0.000641525
0.000126463
0.00058103
0.000109043
0.000527717
9.72966e-05
0.00047983
8.89902e-05
0.000435732
8.57827e-05
0.0003944
8.35832e-05
0.000354687
8.59892e-05
0.000315958
8.69725e-05
0.00027632
9.36165e-05
0.000236781
9.51884e-05
0.000194459
0.000105089
0.000150941
0.000106628
0.000103199
0.000132374
5.38434e-05
4.23041e-06
2.89279e-06
0.000760312
1.60081e-06
0.00076383
3.61811e-07
0.000767722
-8.20924e-07
0.000771976
-1.93755e-06
0.000776576
-2.9859e-06
0.000781501
-3.95577e-06
0.000786729
-4.84817e-06
0.000792231
-5.66156e-06
0.000797978
-6.37947e-06
0.000803942
-7.00954e-06
0.000810095
-7.56306e-06
0.000816391
-8.02245e-06
0.000822798
-8.38197e-06
0.000829314
-8.67265e-06
0.000835859
-8.8905e-06
0.000842404
-9.00958e-06
0.00084895
-9.03769e-06
0.000855454
-9.01623e-06
0.00086188
-8.94961e-06
0.000868175
-8.82748e-06
0.000874331
-8.54979e-06
0.00088039
-8.27506e-06
0.000886274
-8.01359e-06
0.000891915
-7.72763e-06
0.000897337
-7.29363e-06
0.00090258
-6.82513e-06
0.000907574
-6.40462e-06
0.000912269
-5.94564e-06
0.000916595
-5.48207e-06
0.00092067
-4.93797e-06
0.000924608
-4.36573e-06
0.00092831
-3.78475e-06
0.00093169
-3.21371e-06
0.000934766
-2.63199e-06
0.000937587
-2.07653e-06
0.000940039
-1.51326e-06
0.000942192
-9.45141e-07
0.000944085
-3.50976e-07
0.000945702
2.47967e-07
0.000947079
8.63188e-07
0.000948102
1.4709e-06
0.000948746
2.12418e-06
0.00094901
2.78703e-06
0.000949138
-2.58261e-05
0.000949111
-2.66796e-05
0.000956715
-2.74482e-05
0.00096413
-2.78693e-05
0.00097173
-2.68397e-05
0.000979953
-7.34499e-06
0.000987793
6.7524e-05
0.000988891
4.55532e-05
0.000940388
-2.17276e-05
0.000926298
-7.30113e-05
0.000939774
-0.000104389
0.000972404
-0.000122428
0.00101935
-0.000128401
0.00106324
-0.000117973
0.00110979
-0.000109218
0.00115486
-9.8457e-05
0.0011959
-9.10261e-05
0.00123148
-8.26146e-05
0.00126434
-7.40227e-05
0.00129135
-6.51465e-05
0.00131525
-5.6664e-05
0.00133586
-5.06293e-05
0.00135478
-4.25447e-05
0.00136953
-3.66798e-05
0.00137999
-2.94695e-05
0.00139035
-2.406e-05
0.00139625
-1.83545e-05
0.00140177
-1.2982e-05
0.00140605
-9.56088e-06
0.00140925
-6.37552e-06
0.00141091
-3.07903e-06
0.00141136
-1.12636e-06
0.00141091
1.04442e-07
0.0014089
2.65323e-06
0.00140637
6.17109e-06
0.00140275
9.36094e-06
0.00139826
9.57216e-06
0.00139349
1.16541e-05
0.00138841
1.51128e-05
0.00138208
1.72344e-05
0.00137447
1.64071e-05
0.00136593
1.66287e-05
0.00135743
1.80918e-05
0.00134828
1.98679e-05
0.00133886
2.07984e-05
0.00132956
1.84861e-05
0.00131966
1.83342e-05
0.00131009
1.74685e-05
0.00130024
1.56532e-05
0.0012914
1.51308e-05
0.00128275
1.28897e-05
0.00127293
1.44855e-05
0.0012613
1.97385e-05
0.001243
4.28827e-05
0.00121213
8.30351e-05
0.00115012
0.000185502
0.00103525
0.000282263
0.000895938
0.000321188
0.000789556
0.000294347
0.00071204
0.000249119
0.000646167
0.000210705
0.000589681
0.000180241
0.000539235
0.000157615
0.000492762
0.000142144
0.000449367
0.000130871
0.000408838
0.00012572
0.000370315
0.000122243
0.00033245
0.000125577
0.000295115
0.00012653
0.000257092
0.000136079
0.000219265
0.000138876
0.000179398
0.000152872
0.000138668
0.000155818
9.46837e-05
0.000185975
4.89065e-05
1.10092e-06
-6.20607e-07
0.000767366
-2.28732e-06
0.000773065
-3.88793e-06
0.000779113
-5.41614e-06
0.000785497
-6.85797e-06
0.000792204
-8.20795e-06
0.000799219
-9.45255e-06
0.000806508
-1.05919e-05
0.000814041
-1.16198e-05
0.000821814
-1.25227e-05
0.000829771
-1.33029e-05
0.000837875
-1.39748e-05
0.000846108
-1.45118e-05
0.000854428
-1.4921e-05
0.000862803
-1.52275e-05
0.00087117
-1.54309e-05
0.000879516
-1.55047e-05
0.000887819
-1.54403e-05
0.000896018
-1.53194e-05
0.000904099
-1.51463e-05
0.000912006
-1.48391e-05
0.000919745
-1.43878e-05
0.000927312
-1.39217e-05
0.000934637
-1.34713e-05
0.000941666
-1.29271e-05
0.000948484
-1.22289e-05
0.000955031
-1.15263e-05
0.000961256
-1.08497e-05
0.000967096
-1.01581e-05
0.000972548
-9.40838e-06
0.000977797
-8.56478e-06
0.000982757
-7.65002e-06
0.000987396
-6.78085e-06
0.000991651
-5.92054e-06
0.00099548
-5.07875e-06
0.000999045
-4.24707e-06
0.0010023
-3.40392e-06
0.00100522
-2.54126e-06
0.00100783
-1.65588e-06
0.00101014
-7.59788e-07
0.00101222
1.71692e-07
0.00101378
1.11454e-06
0.00101496
2.04981e-06
0.00101575
3.03825e-06
0.00101627
-3.33501e-05
0.00101637
-3.4453e-05
0.00102319
-3.55694e-05
0.00103001
-3.59542e-05
0.00103738
-3.44831e-05
0.00104538
-1.21149e-05
0.00105231
0.000110086
0.0010544
5.78785e-05
0.00101835
-3.54683e-05
0.00100349
-0.000105493
0.00102733
-0.000152117
0.00107069
-0.000166415
0.00112291
-0.000175976
0.00117653
-0.000163312
0.00122532
-0.000149251
0.00127
-0.000132644
0.00131271
-0.000123352
0.00135164
-0.000109768
0.00138584
-9.76884e-05
0.00141249
-8.61246e-05
0.00143713
-7.4033e-05
0.00145639
-6.52831e-05
0.00147253
-5.33343e-05
0.0014836
-4.64626e-05
0.00149253
-3.74756e-05
0.00150023
-2.95917e-05
0.00150241
-2.28485e-05
0.00150433
-1.62765e-05
0.00150519
-1.10973e-05
0.00150575
-6.93073e-06
0.00150483
-2.73542e-06
0.00150288
4.08804e-07
0.00150042
2.06419e-06
0.00149678
5.71296e-06
0.00149248
1.07062e-05
0.00148717
1.4924e-05
0.00148159
1.55578e-05
0.00147502
1.84208e-05
0.00146735
2.27059e-05
0.00145907
2.52884e-05
0.00145001
2.45935e-05
0.00143962
2.48505e-05
0.00142926
2.6872e-05
0.00141789
2.91378e-05
0.00140582
3.05389e-05
0.00139501
2.78575e-05
0.00138297
2.75378e-05
0.00137117
2.59441e-05
0.00135919
2.37882e-05
0.00134664
2.55037e-05
0.00133328
2.36917e-05
0.00131803
3.44025e-05
0.00129328
4.97294e-05
0.00125517
0.000106822
0.00117756
0.000198452
0.00104879
0.000325749
0.000885175
0.000389039
0.0007725
0.00039875
0.000692813
0.000360422
0.000637441
0.000305857
0.000590267
0.000261561
0.000543742
0.000227299
0.000500902
0.000201723
0.000460479
0.000183395
0.000422126
0.000169868
0.000385142
0.000163747
0.000348846
0.000159504
0.000313098
0.000163545
0.000277609
0.000164412
0.000241119
0.000176106
0.000204749
0.000179785
0.000166916
0.000196922
0.000128496
0.00020147
8.7672e-05
0.000234675
4.49565e-05
-4.23858e-06
-6.3157e-06
0.000775604
-8.33035e-06
0.000783444
-1.02687e-05
0.000791608
-1.21189e-05
0.000800085
-1.3865e-05
0.000808862
-1.54922e-05
0.000817928
-1.69884e-05
0.000827244
-1.83545e-05
0.00083678
-1.95689e-05
0.000846537
-2.06264e-05
0.000856456
-2.15315e-05
0.000866481
-2.2288e-05
0.000876617
-2.28693e-05
0.000886819
-2.32879e-05
0.000897017
-2.35735e-05
0.000907183
-2.37256e-05
0.000917307
-2.36992e-05
0.000927335
-2.35027e-05
0.000937201
-2.32421e-05
0.000946897
-2.29051e-05
0.000956396
-2.23562e-05
0.000965697
-2.16799e-05
0.000974742
-2.09879e-05
0.000983466
-2.02822e-05
0.000991895
-1.94107e-05
0.00100007
-1.84153e-05
0.0010079
-1.74059e-05
0.00101533
-1.64375e-05
0.00102227
-1.54601e-05
0.00102892
-1.43401e-05
0.00103528
-1.31168e-05
0.00104125
-1.18832e-05
0.00104681
-1.06374e-05
0.00105184
-9.47039e-06
0.00105642
-8.32141e-06
0.00106082
-7.15083e-06
0.00106488
-5.9521e-06
0.00106855
-4.74491e-06
0.00107185
-3.52604e-06
0.00107482
-2.25186e-06
0.00107753
-9.80756e-07
0.0010796
2.94304e-07
0.00108123
1.5886e-06
0.00108246
2.88867e-06
0.00108328
-4.05205e-05
0.0010836
-4.18096e-05
0.00108987
-4.30742e-05
0.00109666
-4.34068e-05
0.00110382
-4.15164e-05
0.00111105
-1.49219e-05
0.0011181
0.000136596
0.0011234
7.06369e-05
0.00111896
-5.90974e-05
0.00110175
-0.000148279
0.00114453
-0.000203573
0.0012053
-0.000217897
0.00126931
-0.000225086
0.00133977
-0.000209618
0.00139598
-0.000193355
0.00144063
-0.00017177
0.00147939
-0.000157302
0.00151041
-0.000137113
0.00154003
-0.000120198
0.00156159
-0.000104754
0.00158094
-8.87678e-05
0.00159573
-7.64121e-05
0.00160697
-6.36764e-05
0.00161385
-5.2541e-05
0.00161777
-4.24698e-05
0.00162156
-3.23562e-05
0.00161949
-2.41306e-05
0.00161822
-1.65748e-05
0.00161639
-1.03839e-05
0.00161433
-5.64435e-06
0.00161074
-8.69799e-07
0.00160625
3.53249e-06
0.00160169
5.96073e-06
0.00159592
1.04891e-05
0.00158916
1.63714e-05
0.00158183
2.24416e-05
0.00157418
2.37732e-05
0.0015654
2.7125e-05
0.0015551
3.15655e-05
0.00154404
3.52439e-05
0.00153273
3.50252e-05
0.00151979
3.56382e-05
0.00150648
3.84877e-05
0.00149244
4.00693e-05
0.00147787
4.27727e-05
0.00146414
3.96577e-05
0.00144962
3.89591e-05
0.00143514
3.86866e-05
0.00141933
3.63189e-05
0.00140161
4.23282e-05
0.0013794
4.7472e-05
0.00134917
7.46268e-05
0.00129211
0.000128408
0.00120414
0.000237633
0.00105026
0.000361943
0.000878966
0.000438458
0.000757757
0.000468789
0.000676463
0.000454131
0.00062007
0.000407691
0.000577868
0.0003527
0.000539603
0.000304899
0.000502636
0.000268331
0.000466326
0.000240735
0.00043078
0.000220987
0.000395949
0.000206564
0.000362076
0.00019962
0.000328302
0.000194948
0.000294581
0.000199982
0.000261012
0.00020083
0.000226407
0.000214089
0.00019176
0.000218378
0.000156079
0.000237847
0.000119827
0.00024413
8.18234e-05
0.000279498
4.17454e-05
-1.17469e-05
-1.41517e-05
0.000785032
-1.6489e-05
0.000794969
-1.87422e-05
0.000805205
-2.08926e-05
0.000815734
-2.29203e-05
0.00082654
-2.48043e-05
0.000837617
-2.65311e-05
0.000848921
-2.80957e-05
0.000860423
-2.94764e-05
0.000872125
-3.06602e-05
0.000883967
-3.16603e-05
0.000895881
-3.24696e-05
0.000907886
-3.30647e-05
0.000919928
-3.34569e-05
0.000931915
-3.36875e-05
0.00094385
-3.37424e-05
0.000955719
-3.35652e-05
0.000967433
-3.32024e-05
0.000978944
-3.2754e-05
0.000990221
-3.21872e-05
0.0010013
-3.13447e-05
0.00101212
-3.04081e-05
0.00102262
-2.94512e-05
0.0010327
-2.84122e-05
0.00104253
-2.71697e-05
0.00105204
-2.58345e-05
0.00106112
-2.44487e-05
0.00106969
-2.31535e-05
0.00107777
-2.17876e-05
0.0010856
-2.02549e-05
0.00109303
-1.86139e-05
0.00109999
-1.69875e-05
0.00110644
-1.53961e-05
0.00111208
-1.38691e-05
0.00111759
-1.23159e-05
0.00112284
-1.0728e-05
0.00112766
-9.1295e-06
0.00113204
-7.54631e-06
0.00113603
-5.90703e-06
0.0011397
-4.23671e-06
0.00114285
-2.60794e-06
0.00114541
-9.47961e-07
0.00114742
6.98989e-07
0.00114904
2.35082e-06
0.00115028
-4.72515e-05
0.001151
-4.87983e-05
0.00115717
-5.0188e-05
0.00116396
-5.05352e-05
0.00117063
-4.88175e-05
0.00117665
-2.04199e-05
0.0011837
0.000132869
0.00119545
8.51765e-05
0.00119341
-0.000102303
0.00121725
-0.000207957
0.00131223
-0.000266065
0.00140899
-0.000284556
0.00148456
-0.00028113
0.00154277
-0.000255595
0.00158707
-0.000234555
0.00162636
-0.000205717
0.00165579
-0.000184493
0.00167365
-0.000159691
0.00169469
-0.000137167
0.00170689
-0.000118452
0.00171826
-9.98761e-05
0.00172735
-8.23155e-05
0.00172984
-7.03362e-05
0.00173535
-5.45438e-05
0.00173046
-4.25815e-05
0.00173137
-3.18555e-05
0.00172708
-2.23927e-05
0.00172222
-1.388e-05
0.00171797
-7.19484e-06
0.00171374
-1.83277e-06
0.00170844
3.22093e-06
0.00170248
9.04269e-06
0.00169605
1.23674e-05
0.0016885
1.76767e-05
0.00167967
2.43537e-05
0.00167033
3.18516e-05
0.00166018
3.4559e-05
0.00164961
3.85409e-05
0.0016372
4.27515e-05
0.00162377
4.77767e-05
0.00160945
4.855e-05
0.00159446
4.92414e-05
0.00157799
5.29941e-05
0.00156079
5.40133e-05
0.00154398
5.74154e-05
0.00152674
5.45045e-05
0.00150878
5.42572e-05
0.00148968
5.77184e-05
0.00146786
5.76702e-05
0.00143919
7.49865e-05
0.00139302
0.00010414
0.00132783
0.000164853
0.00121384
0.000284318
0.00103737
0.000409716
0.000865242
0.000482913
0.000745173
0.000519656
0.000661644
0.000525084
0.000601846
0.00049626
0.000561875
0.000446057
0.000529702
0.00039004
0.000497996
0.000341724
0.00046745
0.000304427
0.000436041
0.00027612
0.000404525
0.000255418
0.000372899
0.000240738
0.000341529
0.000233456
0.000309853
0.000228482
0.000277974
0.000234527
0.000245903
0.000235492
0.000213053
0.000249889
0.000179972
0.000254805
0.000146253
0.000275985
0.000111973
0.000284243
7.62826e-05
0.000321185
3.85371e-05
-2.13786e-05
-2.40844e-05
0.000795657
-2.67202e-05
0.000807643
-2.92667e-05
0.000819905
-3.16962e-05
0.000832439
-3.3984e-05
0.00084523
-3.61042e-05
0.000858272
-3.80416e-05
0.000871521
-3.97807e-05
0.000884949
-4.13021e-05
0.000898553
-4.25908e-05
0.000912277
-4.36557e-05
0.000926042
-4.44829e-05
0.000939877
-4.50599e-05
0.000953719
-4.53983e-05
0.000967465
-4.55323e-05
0.000981131
-4.54387e-05
0.000994699
-4.50734e-05
0.00100806
-4.45118e-05
0.00102119
-4.38322e-05
0.00103402
-4.29531e-05
0.00104665
-4.18232e-05
0.00105894
-4.0566e-05
0.00107085
-3.92655e-05
0.00108229
-3.783e-05
0.00109349
-3.61637e-05
0.00110429
-3.4441e-05
0.00111459
-3.26916e-05
0.00112424
-3.09566e-05
0.00113348
-2.91263e-05
0.00114244
-2.71177e-05
0.00115093
-2.50697e-05
0.00115886
-2.29945e-05
0.00116611
-2.10271e-05
0.00117252
-1.90426e-05
0.0011789
-1.7016e-05
0.00118494
-1.49787e-05
0.00119053
-1.29385e-05
0.00119565
-1.09075e-05
0.00120029
-8.81934e-06
0.00120448
-6.75423e-06
0.00120802
-4.70332e-06
0.00121096
-2.64424e-06
0.00121346
-6.32749e-07
0.00121568
1.35998e-06
0.00121755
-5.34858e-05
0.001219
-5.53561e-05
0.00122521
-5.68779e-05
0.00123219
-5.73604e-05
0.00123834
-5.62652e-05
0.00124433
-3.21928e-05
0.00125223
0.00012728
0.00127914
5.65975e-05
0.00142973
-0.000197394
0.0015205
-0.000303455
0.00163041
-0.000340648
0.00167768
-0.000340209
0.00170015
-0.000324474
0.00171998
-0.000295441
0.00174369
-0.000263853
0.001771
-0.000227693
0.00179579
-0.000201265
0.00180801
-0.000173977
0.00181913
-0.000148958
0.00182932
-0.00012362
0.00182895
-0.000106681
0.00183663
-8.46446e-05
0.0018279
-6.93058e-05
0.00183162
-5.26697e-05
0.00182539
-3.85384e-05
0.00182239
-2.83705e-05
0.00181719
-1.80277e-05
0.00180866
-9.37221e-06
0.00180202
-2.25011e-06
0.00179621
3.82626e-06
0.00178975
9.41699e-06
0.00178279
1.6464e-05
0.00177458
2.10679e-05
0.00176579
2.72989e-05
0.00175548
3.49721e-05
0.00174451
4.30249e-05
0.00173251
4.75192e-05
0.00172056
5.25848e-05
0.0017064
5.71018e-05
0.00169054
6.22638e-05
0.0016743
6.48013e-05
0.00165713
6.57222e-05
0.00163816
7.0115e-05
0.00161849
7.15781e-05
0.00159949
7.48813e-05
0.00157879
7.46803e-05
0.00155547
7.584e-05
0.00152408
8.8764e-05
0.00148405
0.000103488
0.00142755
0.000142563
0.00133597
0.00021881
0.00119635
0.000343303
0.00100245
0.000457333
0.000839295
0.000529684
0.000724658
0.000566095
0.00064422
0.000579272
0.000586658
0.000564882
0.000546921
0.000528275
0.000516784
0.000477874
0.000489842
0.000420935
0.000464093
0.000373597
0.000437372
0.000336465
0.000409125
0.000308288
0.000380209
0.000287308
0.000351038
0.000272792
0.000321764
0.000265451
0.000292023
0.000260506
0.000261896
0.000267288
0.000231363
0.000268543
0.000200216
0.000283703
0.00016873
0.000289266
0.000136888
0.000311833
0.000104444
0.000322081
7.08683e-05
0.000359714
3.5412e-05
-3.30838e-05
-3.60655e-05
0.000807489
-3.89774e-05
0.00082147
-4.17961e-05
0.000835707
-4.4485e-05
0.000850195
-4.70127e-05
0.000864924
-4.93495e-05
0.000879881
-5.14778e-05
0.000895029
-5.33689e-05
0.000910338
-5.50066e-05
0.000925798
-5.63767e-05
0.000941356
-5.74799e-05
0.000956934
-5.8289e-05
0.000972553
-5.88183e-05
0.00098815
-5.90736e-05
0.00100362
-5.90641e-05
0.00101897
-5.87785e-05
0.0010342
-5.82071e-05
0.00104918
-5.7408e-05
0.00106388
-5.64333e-05
0.00107823
-5.51753e-05
0.00109236
-5.37263e-05
0.00110611
-5.21161e-05
0.00111937
-5.04099e-05
0.00113219
-4.84888e-05
0.00114471
-4.63942e-05
0.00115674
-4.42366e-05
0.0011682
-4.20579e-05
0.00117896
-3.98296e-05
0.00118937
-3.74399e-05
0.0011994
-3.49316e-05
0.00120887
-3.24064e-05
0.00121769
-2.99412e-05
0.00122568
-2.7473e-05
0.00123303
-2.49655e-05
0.00124029
-2.24175e-05
0.00124712
-1.99128e-05
0.00125345
-1.73547e-05
0.00125924
-1.48192e-05
0.00126441
-1.22784e-05
0.0012689
-9.77684e-06
0.00127279
-7.34835e-06
0.0012763
-4.89536e-06
0.00127938
-2.47128e-06
0.00128206
-3.12835e-08
0.00128443
-5.93805e-05
0.00128625
-6.16211e-05
0.00129212
-6.32626e-05
0.00129834
-6.47456e-05
0.00130375
-6.45511e-05
0.00130769
-5.92877e-05
0.00131453
-3.21027e-05
0.00133749
-4.36483e-05
0.001454
-0.000305223
0.00179064
-0.000349328
0.00187501
-0.000362066
0.00188265
-0.000358236
0.00187915
-0.000346941
0.0018792
-0.000323024
0.00188131
-0.00028511
0.00188842
-0.000245984
0.00190494
-0.000210464
0.00191474
-0.000178697
0.00191844
-0.000154206
0.00192831
-0.000125325
0.00191896
-0.000105474
0.00192329
-8.12425e-05
0.00191613
-6.36218e-05
0.00191717
-5.1044e-05
0.00191202
-3.27988e-05
0.0018991
-2.19586e-05
0.00189283
-1.21845e-05
0.00188407
-3.32014e-06
0.00187472
4.53768e-06
0.00186723
1.12733e-05
0.00185923
1.7845e-05
0.00185085
2.52881e-05
0.00184044
3.17034e-05
0.00182981
3.89912e-05
0.00181852
4.75175e-05
0.0018068
5.56466e-05
0.00179356
6.20033e-05
0.00177994
6.8874e-05
0.00176418
7.35279e-05
0.00174748
7.8302e-05
0.00173012
8.36187e-05
0.00171063
8.43501e-05
0.00168984
8.92511e-05
0.0016657
9.2928e-05
0.00164026
9.78315e-05
0.0016078
0.000108438
0.00156941
0.000115312
0.00151396
0.000148809
0.00143344
0.000196232
0.00132039
0.000283823
0.00114321
0.000413923
0.000948296
0.00050723
0.000803565
0.000571959
0.000699095
0.000609781
0.000625171
0.000623364
0.000572066
0.000618789
0.000531609
0.000594797
0.000502508
0.000555068
0.000478834
0.000503712
0.000456454
0.000447973
0.000435244
0.000402272
0.000411849
0.000365911
0.000386317
0.000338025
0.000359742
0.000317089
0.000332412
0.000302875
0.000304561
0.00029569
0.000276115
0.000290986
0.000247399
0.000298328
0.000218144
0.000299975
0.000188417
0.000315626
0.000158391
0.000321892
0.00012821
0.000345566
9.74575e-05
0.000357643
6.59079e-05
0.000395128
3.26494e-05
-4.6808e-05
-5.0042e-05
0.000820539
-5.32094e-05
0.000836459
-5.62802e-05
0.000852614
-5.92093e-05
0.000869003
-6.19588e-05
0.000885615
-6.44936e-05
0.000902435
-6.67924e-05
0.000919432
-6.88144e-05
0.000936576
-7.05451e-05
0.000953838
-7.19735e-05
0.000971177
-7.30864e-05
0.000988527
-7.38556e-05
0.00100588
-7.43035e-05
0.00102318
-7.44404e-05
0.00104033
-7.42491e-05
0.00105734
-7.37264e-05
0.00107417
-7.29171e-05
0.00109074
-7.18359e-05
0.00110695
-7.05038e-05
0.00112282
-6.88528e-05
0.00113839
-6.70216e-05
0.00115353
-6.5041e-05
0.00116814
-6.2834e-05
0.00118233
-6.03796e-05
0.00119608
-5.78028e-05
0.00120928
-5.52125e-05
0.00122186
-5.25705e-05
0.00123382
-4.97385e-05
0.00124537
-4.67114e-05
0.00125636
-4.36654e-05
0.00126671
-4.06372e-05
0.00127631
-3.77058e-05
0.00128517
-3.47258e-05
0.00129367
-3.16531e-05
0.00130175
-2.8545e-05
0.00130929
-2.54573e-05
0.00131621
-2.23383e-05
0.00132243
-1.93041e-05
0.001328
-1.63176e-05
0.00133296
-1.3402e-05
0.00133748
-1.04424e-05
0.00134164
-7.52302e-06
0.00134539
-4.59296e-06
0.00134861
-1.70431e-06
0.00135135
-6.46347e-05
0.00135389
-6.699e-05
0.00135949
-6.87334e-05
0.00136469
-7.05579e-05
0.00136925
-7.23144e-05
0.00137275
-8.29259e-05
0.00138096
-0.000151117
0.00140733
-0.00039616
0.00155502
-0.000384101
0.0018207
-0.000354185
0.00191716
-0.000357324
0.00195963
-0.000356555
0.00196724
-0.000348796
0.001968
-0.000330693
0.00196887
-0.000299811
0.00197231
-0.000256442
0.0019828
-0.000215838
0.00199259
-0.000181913
0.00199963
-0.00015206
0.00200235
-0.000120648
0.00199481
-9.88726e-05
0.00199972
-7.98098e-05
0.0019981
-5.73872e-05
0.00198325
-4.48408e-05
0.0019759
-2.50212e-05
0.00196315
-1.33594e-05
0.00195772
-3.70837e-06
0.00195032
5.59499e-06
0.00194052
1.35322e-05
0.00193247
2.08407e-05
0.00192307
2.82015e-05
0.00191324
3.58835e-05
0.00190145
4.36582e-05
0.00188903
5.18844e-05
0.00187675
6.1545e-05
0.00186414
6.99954e-05
0.00184964
7.79302e-05
0.00183442
8.59473e-05
0.0018167
9.09894e-05
0.00179645
9.61356e-05
0.0017748
0.000105416
0.00175066
0.000106526
0.00172384
0.000113638
0.00168829
0.000126324
0.00164828
0.000135932
0.00159126
0.000167041
0.00151454
0.000195934
0.00140871
0.000265794
0.00124459
0.000375094
0.00105056
0.000479663
0.000882556
0.000558918
0.000756391
0.000611636
0.000665096
0.000645654
0.0005991
0.000662605
0.000551917
0.000663555
0.000515868
0.000647652
0.000489421
0.000618216
0.000467956
0.000577289
0.000448105
0.000525023
0.000429648
0.000471702
0.000410575
0.00042823
0.00038877
0.000393024
0.000365104
0.000365916
0.000340349
0.000345408
0.000314621
0.000331629
0.000288123
0.000324524
0.000260978
0.000320199
0.000233498
0.000327949
0.000205404
0.000329946
0.000177013
0.000345877
0.000148316
0.000352809
0.000119591
0.000377245
9.03339e-05
0.000390989
6.06415e-05
0.000427764
2.96277e-05
-6.24925e-05
-6.59569e-05
0.000834821
-6.93602e-05
0.000852616
-7.26646e-05
0.00087063
-7.58165e-05
0.000888861
-7.87704e-05
0.000907298
-8.14865e-05
0.000925923
-8.39352e-05
0.000944714
-8.60677e-05
0.000963639
-8.78687e-05
0.000982649
-8.93344e-05
0.00100171
-9.04276e-05
0.0010208
-9.113e-05
0.00103983
-9.14672e-05
0.00105877
-9.14512e-05
0.00107757
-9.1046e-05
0.00109618
-9.02548e-05
0.00111456
-8.91596e-05
0.00113266
-8.77755e-05
0.00115035
-8.60008e-05
0.0011677
-8.39277e-05
0.00118465
-8.16957e-05
0.00120112
-7.92769e-05
0.0012171
-7.64822e-05
0.0012326
-7.34797e-05
0.00124754
-7.03998e-05
0.00126183
-6.73021e-05
0.00127555
-6.40959e-05
0.00128876
-6.05854e-05
0.00130134
-5.69646e-05
0.00131325
-5.33355e-05
0.00132434
-4.9798e-05
0.00133473
-4.6322e-05
0.00134472
-4.27178e-05
0.00135417
-3.90469e-05
0.00136304
-3.52993e-05
0.00137119
-3.16077e-05
0.00137857
-2.79408e-05
0.00138506
-2.44378e-05
0.00139114
-2.09785e-05
0.00139686
-1.7485e-05
0.0014021
-1.40211e-05
0.00140681
-1.05717e-05
0.00141103
-7.14217e-06
0.00141461
-3.72714e-06
0.00141781
-6.94315e-05
0.00142059
-7.18303e-05
0.00142519
-7.37565e-05
0.0014294
-7.60685e-05
0.00143277
-8.13854e-05
0.00143563
-0.000109813
0.00144295
-0.000301291
0.00148522
-0.000670542
0.00169921
-0.000482073
0.00174247
-0.000394462
0.00186155
-0.000363731
0.00194145
-0.000354394
0.0019849
-0.000349527
0.00201295
-0.000333869
0.00202455
-0.000309058
0.00203553
-0.000265638
0.00204779
-0.000225845
0.00205522
-0.000180513
0.00206179
-0.000146477
0.00206562
-0.000120457
0.00206961
-9.22911e-05
0.00205951
-7.34776e-05
0.00205588
-4.77626e-05
0.00204155
-3.1366e-05
0.00203717
-1.86666e-05
0.00202869
-3.91252e-06
0.00201435
6.56971e-06
0.00200417
1.52378e-05
0.00199518
2.36944e-05
0.00198629
3.16289e-05
0.0019772
3.97271e-05
0.00196697
4.82118e-05
0.00195433
5.66533e-05
0.00194097
6.59997e-05
0.00192743
7.65268e-05
0.0019136
8.58007e-05
0.00189716
9.50677e-05
0.00187837
0.000105841
0.00185712
0.000111978
0.0018325
0.000118823
0.00179962
0.000133998
0.00176415
0.000139742
0.00172122
0.000152294
0.00165578
0.000185679
0.00157266
0.000214104
0.00146202
0.000276518
0.00130545
0.00036123
0.00112121
0.000462149
0.000943846
0.00054355
0.000806567
0.000605713
0.00070539
0.000649802
0.000629906
0.000677224
0.000573527
0.000692581
0.000530995
0.000698441
0.000498102
0.000689819
0.000474613
0.000668915
0.000455761
0.000637816
0.000438625