/*--------------------------------*- C++ -*----------------------------------*\
| =========                 |                                                 |
| \\      /  F ield         | OpenFOAM: The Open Source CFD Toolbox           |
|  \\    /   O peration     | Version:  2.2.x                                 |
|   \\  /    A nd           | Web:      www.OpenFOAM.org                      |
|    \\/     M anipulation  |                                                 |
\*---------------------------------------------------------------------------*/
FoamFile
{
    version     2.0;
    format      ascii;
    class       volScalarField;
    location    "0.08";
    object      T;
}
// * * * * * * * * * * * * * * * * * * * * * * * * * * * * * * * * * * * * * //

dimensions      [0 0 0 1 0 0 0];

internalField   nonuniform List<scalar> 
1024
(
0.4
0.4
0.4
0.4
0.4
0.4
0.4
0.4
0.4
0.4
0.4
0.4
0.4
0.4
0.4
0.4
0.4
0.4
0.4
0.4
0.4
0.4
0.4
0.4
0.4
0.4
0.4
0.4
0.4
0.4
0.4
0.4
0.4
0.4
0.4
0.4
0.4
0.4
0.4
0.4
0.4
0.4
0.4
0.4
0.4
0.4
0.4
0.4
0.4
0.4
0.4
0.4
0.4
0.4
0.4
0.4
0.4
0.4
0.4
0.4
0.4
0.4
0.4
0.4
0.4
0.4
0.4
0.4
0.4
0.4
0.4
0.4
0.4
0.4
0.4
0.4
0.4
0.4
0.4
0.4
0.4
0.4
0.4
0.4
0.4
0.4
0.4
0.4
0.4
0.4
0.4
0.4
0.4
0.4
0.4
0.4
0.4
0.4
0.4
0.4
0.4
0.4
0.4
0.4
0.4
0.4
0.4
0.4
0.4
0.4
0.4
0.4
0.4
0.4
0.4
0.4
0.4
0.4
0.4
0.4
0.4
0.4
0.4
0.4
0.4
0.4
0.4
0.4
0.4
0.4
0.4
0.4
0.4
0.4
0.4
0.4
0.4
0.4
0.4
0.4
0.4
0.4
0.4
0.4
0.4
0.4
0.4
0.4
0.4
0.4
0.4
0.4
0.4
0.4
0.4
0.4
0.4
0.4
0.4
0.4
0.4
0.4
0.4
0.4
0.4
0.4
0.4
0.4
0.4
0.4
0.4
0.4
0.4
0.4
0.4
0.4
0.4
0.4
0.4
0.4
0.4
0.4
0.4
0.4
0.4
0.399999
0.399999
0.399999
0.399998
0.399997
0.399996
0.399993
0.39999
0.399986
0.39998
0.399971
0.39996
0.399944
0.399923
0.399894
0.399857
0.39981
0.399749
0.399672
0.399577
0.39946
0.39932
0.399153
0.398958
0.398732
0.398474
0.398184
0.397862
0.397509
0.397124
0.396711
0.39627
0.395804
0.395314
0.394825
0.394346
0.393875
0.393417
0.392962
0.392521
0.392081
0.391653
0.391227
0.390806
0.390391
0.389976
0.389566
0.389156
0.388747
0.388339
0.387931
0.387522
0.387113
0.386702
0.386288
0.385871
0.38545
0.385035
0.38462
0.384217
0.383813
0.383428
0.383049
0.382687
0.382346
0.382018
0.381725
0.381444
0.381201
0.380982
0.380789
0.380636
0.380496
0.380396
0.380314
0.380252
0.380215
0.380186
0.380173
0.380167
0.380166
0.380168
0.380179
0.380203
0.380247
0.380303
0.380354
0.380395
0.380429
0.380455
0.380476
0.380492
0.380504
0.380513
0.380518
0.380522
0.380524
0.380525
0.380526
0.380525
0.380524
0.380521
0.380515
0.380506
0.380492
0.380473
0.380454
0.380438
0.380425
0.380415
0.380407
0.380402
0.380399
0.380397
0.380396
0.380396
0.380396
0.380397
0.380399
0.3804
0.380401
0.380402
0.380402
0.380402
0.3804
0.380398
0.380394
0.380389
0.380385
0.380382
0.38038
0.380378
0.380376
0.380375
0.380374
0.380373
0.380372
0.38037
0.380368
0.380366
0.380362
0.380357
0.380352
0.380348
0.380345
0.380343
0.380341
0.38034
0.380339
0.380339
0.380338
0.380338
0.380337
0.380337
0.380336
0.380336
0.380335
0.380333
0.380331
0.380329
0.380326
0.380324
0.380322
0.38032
0.380318
0.380317
0.380316
0.380316
0.380315
0.380315
0.380316
0.380316
0.380316
0.380316
0.380316
0.380315
0.380313
0.380309
0.380305
0.380303
0.380301
0.3803
0.3803
0.3803
0.380301
0.380302
0.380303
0.380304
0.380304
0.380304
0.380302
0.380298
0.380294
0.380292
0.380291
0.380291
0.380292
0.380293
0.380297
0.3803
0.380301
0.380302
0.380302
0.3803
0.380295
0.380289
0.380285
0.380284
0.380284
0.380286
0.380291
0.3803
0.380357
0.380774
0.384586
0.426092
0.683238
0.869869
0.915499
0.926148
0.928888
0.929528
0.929652
0.929689
0.929683
0.929655
0.929636
0.929626
0.929613
0.92961
0.929618
0.929627
0.929627
0.929596
0.929555
0.929501
0.929439
0.92937
0.9293
0.929228
0.929167
0.929116
0.929075
0.929046
0.929016
0.929006
0.929013
0.929043
0.92911
0.929203
0.929312
0.929439
0.929588
0.929758
0.929977
0.930264
0.930687
0.931279
0.932156
0.933309
0.934239
0.934796
0.935
0.934972
0.934359
0.932348
0.927605
0.918102
0.90095
0.872586
0.829562
0.770068
0.69565
0.612239
0.542753
0.495633
0.463438
0.441393
0.426361
0.416205
0.409425
0.404956
0.402035
0.400123
0.398854
0.397988
0.397373
0.396913
0.39655
0.39625
0.395989
0.395754
0.395546
0.395364
0.395206
0.395074
0.394966
0.394865
0.394759
0.394641
0.394513
0.394383
0.394263
0.394158
0.394059
0.393955
0.393839
0.393701
0.393562
0.393429
0.39331
0.393219
0.393153
0.393086
0.393004
0.392906
0.392787
0.392657
0.392575
0.392518
0.392512
0.392566
0.392563
0.392526
0.392406
0.392186
0.392194
0.392394
0.392844
0.393649
0.394593
0.395822
0.397206
0.398634
0.40068
0.403247
0.406251
0.4097
0.413079
0.416357
0.418975
0.421244
0.424341
0.427884
0.43193
0.436337
0.439889
0.444295
0.449879
0.457007
0.45372
0.438765
0.400324
0.380292
0.374966
0.373776
0.373471
0.373326
0.373256
0.373197
0.373165
0.373152
0.373147
0.37314
0.373126
0.373106
0.37307
0.373006
0.37292
0.372817
0.372689
0.372548
0.372384
0.372179
0.371912
0.371531
0.371038
0.370608
0.370422
0.370389
0.37045
0.370548
0.370898
0.371344
0.372056
0.372957
0.374035
0.375232
0.376572
0.377975
0.379414
0.380903
0.382405
0.383908
0.385411
0.38693
0.388426
0.38993
0.391435
0.392932
0.394435
0.395939
0.397438
0.39895
0.400451
0.401968
0.403475
0.404997
0.406509
0.408037
0.409555
0.411087
0.412613
0.414147
0.41568
0.417219
0.418756
0.4203
0.421842
0.423388
0.424937
0.426486
0.428041
0.429595
0.431156
0.432713
0.43428
0.435841
0.437412
0.438979
0.440554
0.442126
0.443705
0.445282
0.446865
0.448446
0.450033
0.451618
0.453209
0.454799
0.456394
0.457987
0.459585
0.461182
0.462784
0.464384
0.465988
0.467591
0.469196
0.470801
0.472406
0.47401
0.475613
0.477211
0.478803
0.480378
0.481932
0.483464
0.484969
0.486443
0.487879
0.489268
0.490601
0.491866
0.493053
0.494152
0.495152
0.496046
0.496831
0.497505
0.498072
0.498538
0.498912
0.499206
0.499431
0.4996
0.499724
0.499812
0.499875
0.499918
0.499947
0.499966
0.499979
0.499987
0.499992
0.499995
0.499997
0.499998
0.499999
0.499999
0.5
0.5
0.5
0.5
0.5
0.5
0.5
0.5
0.5
0.5
0.5
0.5
0.5
0.5
0.5
0.5
0.5
0.5
0.5
0.5
0.5
0.5
0.5
0.5
0.5
0.5
0.5
0.5
0.5
0.5
0.5
0.5
0.5
0.5
0.5
0.5
0.5
0.5
0.5
0.5
0.5
0.5
0.5
0.5
0.5
0.5
0.5
0.5
0.5
0.5
0.5
0.5
0.5
0.5
0.5
0.5
0.5
0.5
0.5
0.5
0.5
0.5
0.5
0.5
0.5
0.5
0.5
0.5
0.5
0.5
0.5
0.5
0.5
0.5
0.5
0.5
0.5
0.5
0.5
0.5
0.5
0.5
0.5
0.5
0.5
0.5
0.5
0.5
0.5
0.5
0.5
0.5
0.5
0.5
0.5
0.5
0.5
0.5
0.5
0.5
0.5
0.5
0.5
0.5
0.5
0.5
0.5
0.5
0.5
0.5
0.5
0.5
0.5
0.5
0.5
0.5
0.5
0.5
0.5
0.5
0.5
0.5
0.5
0.5
0.5
0.5
0.5
0.5
0.5
0.5
0.5
0.5
0.5
0.5
0.5
0.5
0.5
0.5
0.5
0.5
0.5
0.5
0.5
0.5
0.5
0.5
0.5
0.5
0.5
0.5
0.5
0.5
0.5
0.5
0.5
0.5
0.5
0.5
0.5
0.5
0.5
0.5
0.5
0.5
0.5
0.5
0.5
0.5
0.5
0.5
0.5
0.5
0.5
0.5
0.5
0.5
0.5
0.5
0.5
0.5
0.5
0.5
0.5
0.5
0.5
0.5
0.5
0.5
0.5
0.5
0.5
0.5
0.5
0.5
0.5
0.5
0.5
0.5
0.5
0.5
0.5
0.5
0.5
0.5
0.5
0.5
0.5
0.5
0.5
0.5
0.5
0.5
0.5
0.5
0.5
0.5
0.5
0.5
0.5
0.5
0.5
0.5
0.5
0.5
0.5
0.5
0.5
0.5
0.5
0.5
0.5
0.5
0.5
0.5
0.5
0.5
0.5
0.5
0.5
0.5
0.5
0.5
0.5
0.5
0.5
0.5
0.5
0.5
0.5
0.5
0.5
0.5
0.5
0.5
0.5
0.5
0.5
0.5
0.5
0.5
0.5
0.5
0.5
0.5
0.5
0.5
0.5
0.5
0.5
0.5
0.5
0.5
0.5
0.5
0.5
0.5
0.5
0.5
0.5
0.5
0.5
0.5
0.5
0.5
0.5
0.5
0.5
0.5
0.5
0.5
0.5
0.5
0.5
0.5
0.5
0.5
0.5
0.5
0.5
0.5
0.5
0.5
0.5
0.5
0.5
0.5
0.5
0.5
0.5
0.5
0.5
0.5
0.5
0.5
0.5
0.5
0.5
0.5
0.5
0.5
0.5
0.5
0.5
0.5
0.5
0.5
0.5
0.5
0.5
0.5
0.5
0.5
0.5
0.5
0.5
0.5
0.5
0.5
0.5
0.5
0.5
0.5
0.5
0.5
0.5
0.5
0.5
0.5
0.5
)
;

boundaryField
{
    front-back
    {
        type            empty;
    }
    inlet-outlet
    {
        type            zeroGradient;
    }
    top-down
    {
        type            empty;
    }
}


// ************************************************************************* //
