/*--------------------------------*- C++ -*----------------------------------*\
| =========                 |                                                 |
| \\      /  F ield         | OpenFOAM: The Open Source CFD Toolbox           |
|  \\    /   O peration     | Version:  2.2.x                                 |
|   \\  /    A nd           | Web:      www.OpenFOAM.org                      |
|    \\/     M anipulation  |                                                 |
\*---------------------------------------------------------------------------*/
FoamFile
{
    version     2.0;
    format      ascii;
    class       volScalarField;
    location    "0.15";
    object      divBf;
}
// * * * * * * * * * * * * * * * * * * * * * * * * * * * * * * * * * * * * * //

dimensions      [1 -3 -2 0 0 -1 0];

internalField   nonuniform List<scalar> 
14161
(
399.219
350.812
304.633
260.414
217.912
176.918
137.247
98.7372
61.2505
24.6675
-11.1126
-46.167
-80.5592
-114.325
-147.482
-180.022
-211.907
-243.067
-273.395
-302.74
-330.898
-357.604
-382.52
-405.218
-425.165
-441.704
-454.019
-461.116
-461.781
-454.537
-437.598
-408.812
-365.591
-304.832
-222.828
-115.157
23.4799
199.315
419.974
694.217
1032.97
1448.83
1956.93
2576.4
3327.27
-24330.4
-24919.8
-25356.2
-25649.2
-25796.4
-25809.8
-25681.6
-25435.5
-25050.5
-24560.2
-23948.8
-23227
-22412.6
-21483.7
-20480.8
-19371.6
-18202.2
-16918.9
-15615.9
-14173
-12751.7
-11185.1
-9640.03
-7979.94
-6331.46
-4516.46
-2778.94
-908.361
796.107
2650.62
4421.03
6516.91
8701.6
12192.7
14638.6
15670.8
13793.4
16167.6
5323.24
8452.79
-119453
-13296.6
4624.1
19541.1
17486.4
18727
29074.2
10457.6
9094.18
6538.44
4886.01
2752.86
2093.41
1012.73
-835.544
-1844.84
-3407.2
-4775.22
-6933.65
-7460.74
-9530.01
-9585.64
-11700.6
-9678.5
-12112.5
-9375.13
-12600.5
-7385.88
-12275.7
-4094.82
-10891.1
340.415
-8928.22
4149.12
151.514
104.533
58.8804
14.3539
-29.2275
-72.0281
-114.193
-155.855
-197.133
-238.134
-278.949
-319.661
-360.334
-401.021
-441.756
-482.552
-523.402
-564.268
-605.081
-645.732
-686.067
-725.871
-764.865
-802.685
-838.869
-872.83
-903.841
-930.994
-953.174
-969.012
-976.84
-974.634
-959.946
-929.827
-880.735
-808.427
-707.824
-572.813
-396.212
-169.145
118.577
479.612
928.996
1484.04
2167.94
-21141.2
-21671.2
-22070.2
-22335.8
-22474.4
-22489.6
-22375
-22158.5
-21803.9
-21371.3
-20799.6
-20152.5
-19398.6
-18544
-17624.3
-16591.7
-15511.8
-14323.8
-13101.9
-11763
-10422.6
-8960.78
-7508.62
-5934.95
-4381.37
-2646.45
-1040.25
793.473
2404.87
4181.16
5881.7
7998.21
10196.7
13061.6
15400.4
17915.2
16714
16577.3
11292
-7365.65
-102026
-11284.9
6627.93
7286.85
16645.3
11255.3
23086.6
15091.2
14226.5
9343.4
7112.49
4522.32
3589.55
2875.61
867.243
17.8414
-2908.73
-3999.71
-6178.34
-6015.92
-7796.48
-7351.02
-9804.11
-8364.18
-10859
-8345.52
-11475.5
-6399.69
-11460
-3419.62
-10456
574.086
-8656.64
3653.18
-91.4704
-135.569
-179.253
-222.642
-265.848
-308.977
-352.132
-395.407
-438.894
-482.68
-526.846
-571.466
-616.61
-662.334
-708.683
-755.69
-803.365
-851.699
-900.65
-950.148
-1000.07
-1050.25
-1100.46
-1150.37
-1199.6
-1247.6
-1293.73
-1337.16
-1376.83
-1411.49
-1439.56
-1459.12
-1467.84
-1462.9
-1440.91
-1397.77
-1328.58
-1227.37
-1087.22
-899.408
-654.052
-338.632
61.5458
563.362
1190.02
-18377.6
-18848.8
-19206.3
-19438.7
-19564
-19564.5
-19467.3
-19248.5
-18938.6
-18518.1
-17999.1
-17399.9
-16690.6
-15908.4
-15046.3
-14082.7
-13076.1
-11964.7
-10809.4
-9578.71
-8300.34
-6906.44
-5593.82
-4048.53
-2606.18
-1018.66
571.314
2256.03
3874.01
5478.8
6990.61
8750.43
10397.3
12664.9
13829.5
15965.8
15655.9
19157.5
22390.2
-37812.1
-93648.3
7177.17
3218.17
13193.8
19781.3
11290.9
14772.8
21026.2
17902.3
14331.4
9121.2
7670.98
6439.99
3838.17
2422.59
495.266
-1633.21
-2210.47
-4415.15
-4584.56
-6914
-6114.94
-8243.01
-6893.84
-9703.77
-6616.62
-10347.3
-5651.74
-10713.2
-3320.14
-10285.8
180.746
-8779.79
3249.45
-328.258
-368.148
-408.566
-449.536
-491.092
-533.274
-576.128
-619.71
-664.076
-709.289
-755.413
-802.512
-850.649
-899.883
-950.268
-1001.84
-1054.64
-1108.66
-1163.89
-1220.28
-1277.75
-1336.17
-1395.33
-1454.96
-1514.72
-1574.12
-1632.57
-1689.29
-1743.32
-1793.46
-1838.22
-1875.77
-1903.9
-1919.88
-1920.45
-1901.64
-1858.67
-1785.83
-1676.16
-1521.42
-1311.65
-1034.55
-676.706
-218.403
356.804
-15961.2
-16381.4
-16688.4
-16894.3
-16990.3
-16984.8
-16882.1
-16669.3
-16380.7
-15973
-15497.4
-14923.6
-14264
-13527.3
-12717.4
-11815.9
-10865.8
-9820.14
-8734.34
-7559.83
-6356.48
-5055.32
-3763.32
-2346.27
-938.365
567.521
2093.51
3727.79
5324.07
7006.77
8687.41
10503.2
12263.6
13786.6
15622.3
17356.4
19739.3
20489.1
29313.1
-38084.7
-54473.1
27042.4
661.487
7340.1
21899.7
15358.1
12073.3
17703.8
12448.6
12509.5
10486.9
7943.49
7638.07
5956
5232.74
2198.29
583.02
-865.625
-2839.91
-3401.4
-5237.15
-5513.65
-7216.59
-5761.37
-8594.82
-5596.41
-9360.61
-4858.07
-9934.52
-2873.8
-9889.57
-5.67111
-8928.61
2615.45
-557.426
-591.942
-627.967
-665.418
-704.238
-744.396
-785.875
-828.681
-872.834
-918.364
-965.315
-1013.74
-1063.68
-1115.2
-1168.36
-1223.2
-1279.75
-1338.04
-1398.08
-1459.83
-1523.23
-1588.17
-1654.5
-1721.97
-1790.27
-1858.97
-1927.5
-1995.17
-2061.06
-2124.03
-2182.66
-2235.22
-2279.57
-2313.08
-2332.59
-2334.25
-2313.42
-2264.52
-2180.72
-2054.08
-1874.43
-1630.6
-1307.56
-889.189
-353.738
-13839.9
-14202.9
-14469
-14637.3
-14711.1
-14690
-14576.6
-14373.8
-14081
-13702.6
-13244.5
-12690.6
-12083.4
-11369.3
-10612.1
-9757.61
-8857.63
-7866.72
-6846.11
-5715.27
-4588.23
-3358.09
-2104.67
-800.515
552.469
2002.73
3400.59
4922.08
6438.44
7901.64
9562.61
10989.9
12373.7
12986
15028.4
16103.8
19192.9
14484.2
23922.1
-55335.7
-65128.5
38657.6
7845.91
13476.6
9506.43
9095.03
12949.5
14376.9
12416.8
15848.8
10729.4
9662.31
8783.2
7459.01
5234.59
3232.13
1252.97
551.514
-1051.04
-2089.32
-4025.45
-4369.59
-6231.79
-4978.45
-7889.54
-5009.79
-8813.35
-4486.21
-9378.36
-2845.52
-9528.8
-505.104
-8768.85
1924.35
-777.63
-805.784
-836.473
-869.494
-904.69
-941.946
-981.181
-1022.34
-1065.41
-1110.37
-1157.25
-1206.07
-1256.88
-1309.73
-1364.66
-1421.72
-1480.96
-1542.41
-1606.07
-1671.95
-1739.99
-1810.11
-1882.18
-1955.98
-2031.23
-2107.54
-2184.39
-2261.11
-2336.85
-2410.52
-2480.77
-2545.93
-2603.93
-2652.24
-2687.79
-2706.83
-2704.86
-2676.35
-2614.74
-2512.06
-2358.53
-2143.01
-1850.64
-1466.06
-966.473
-11963.7
-12274.4
-12499.7
-12632.9
-12681.5
-12644.1
-12518.9
-12315
-12024.2
-11659.6
-11212.7
-10690
-10101
-9427.01
-8700.32
-7888.98
-7030.42
-6088.94
-5109.62
-4047.72
-2957.25
-1785.31
-584.543
685.547
1980.61
3358.44
4766.82
6175.37
7773.42
9205.04
11050.3
12591.5
14546.5
15593.3
17466.2
18967.6
24252.9
26360.1
40342.3
-99127.4
-52341.3
45473.7
16850.5
35678.2
29692.6
16147
20587.3
6677.83
22552
17271.6
12964.6
12135.9
10120.4
7907.11
6579.65
4694.97
1966.37
1339.87
280.947
-1276.61
-2036.02
-3213.2
-4636.95
-4159.35
-6836.69
-4464.1
-8008.35
-3929.61
-8667.1
-2320.37
-9011.81
-659.905
-8613.37
1287.5
-987.603
-1008.61
-1033.21
-1061.09
-1091.97
-1125.64
-1161.95
-1200.79
-1242.09
-1285.8
-1331.91
-1380.43
-1431.37
-1484.78
-1540.7
-1599.18
-1660.25
-1723.97
-1790.34
-1859.36
-1931.02
-2005.23
-2081.89
-2160.81
-2241.73
-2324.29
-2408
-2492.25
-2576.2
-2658.84
-2738.86
-2814.65
-2884.21
-2945.1
-2994.31
-3028.21
-3042.36
-3031.41
-2988.89
-2906.89
-2776.14
-2584.9
-2319.76
-1963.69
-1496.92
-10295
-10559.1
-10741.9
-10844.9
-10865
-10811
-10673.2
-10465.5
-10174.3
-9819.55
-9379.84
-8882.21
-8305.97
-7667.02
-6963.49
-6189.21
-5366.23
-4467.01
-3527.77
-2515.67
-1468.69
-349.59
796.452
2025.08
3256.05
4546.42
5877.45
7148.05
8553.33
9911.28
11530.1
13004
14917.7
16329.2
16192.3
14709.1
15484
10646.1
25828.7
-143174
-10005.5
45398.8
30900.1
28647.2
20319.2
40360.2
24711.1
17065.4
22274.3
14630.5
12588.5
12446.9
10440.4
10009.6
7996.57
6351.36
2642.15
2223.73
699.523
-780.58
-1428.96
-2443.23
-3697.86
-3650.71
-6086.54
-3763.95
-7185.77
-3496.93
-7891.46
-2283.25
-8404.93
-1103.37
-8076.97
-0.263596
-1186.18
-1199.45
-1217.43
-1239.64
-1265.69
-1295.29
-1328.18
-1364.21
-1403.24
-1445.19
-1490.01
-1537.67
-1588.19
-1641.59
-1697.9
-1757.15
-1819.4
-1884.68
-1953.01
-2024.41
-2098.85
-2176.28
-2256.61
-2339.66
-2425.2
-2512.89
-2602.29
-2692.79
-2783.63
-2873.8
-2962.07
-3046.87
-3126.28
-3197.9
-3258.82
-3305.49
-3333.57
-3337.81
-3311.85
-3247.93
-3136.91
-2967.22
-2725.74
-2395.38
-1957.32
-8807.51
-9027.56
-9171.85
-9243.69
-9240.26
-9164.61
-9017.48
-8798.26
-8510.91
-8152.54
-7731.3
-7235.84
-6687.39
-6061.75
-5388.39
-4639.19
-3848.96
-2983.25
-2082.99
-1105.75
-98.151
977.177
2093.57
3260.86
4493.91
5730.52
7050.77
8298.94
9678.86
11076.9
12737.9
14327.3
16259
18066.9
20127.2
21062.6
21477.4
18724.5
21740.8
-33428.1
-233.934
-7900.56
20884.5
23148
9563.63
28800.5
17878.6
17810.9
15714.3
17305.6
16973.4
13751.6
11880.2
9044.65
6823.48
6284.05
4256.93
3473.69
1429.69
1498.37
-336.614
-1132.02
-2571.41
-3151.98
-4858.53
-3470.02
-6255.33
-3051.28
-7305.29
-2061.01
-7972.09
-1280.4
-7879.67
-554.527
-1372.29
-1377.47
-1388.48
-1404.69
-1425.6
-1450.78
-1479.94
-1512.82
-1549.23
-1589.06
-1632.21
-1678.63
-1728.32
-1781.26
-1837.49
-1897.04
-1959.94
-2026.23
-2095.94
-2169.09
-2245.65
-2325.59
-2408.82
-2495.2
-2584.49
-2676.4
-2770.5
-2866.21
-2962.81
-3059.33
-3154.58
-3247.04
-3334.84
-3415.66
-3486.65
-3544.34
-3584.48
-3601.92
-3590.42
-3542.4
-3448.66
-3298.14
-3077.44
-2770.22
-2357.11
-7476.13
-7654.25
-7763.74
-7803.92
-7778.69
-7681.96
-7525.12
-7292.91
-7010.02
-6642.07
-6237.55
-5747.59
-5210.34
-4606.97
-3952.24
-3227.59
-2464.62
-1624.85
-759.405
182.444
1152.48
2189.58
3261.72
4385.76
5558.41
6753.97
7967.53
9179.57
10440.3
11774.4
13138.1
14530.1
16297.3
17609.9
17181.3
16458.2
16884.9
16206.5
8011.04
-37492.5
15521.7
-8578.92
17680.3
21292
13695.6
25151.1
17993
17366.3
18490.6
16505.4
12317.6
13028.1
11395.8
11449.4
8479.26
7563.46
4379.88
4163.19
2033.07
1350.65
-113.009
-874.9
-2033.68
-2384.81
-4040.78
-2926.44
-5580.48
-2712
-6414.15
-2327.67
-7260.56
-1652.19
-7237.78
-1748.26
-1545
-1541.94
-1545.83
-1555.89
-1571.49
-1592.1
-1617.33
-1646.87
-1680.46
-1717.93
-1759.17
-1804.08
-1852.64
-1904.82
-1960.63
-2020.09
-2083.25
-2150.12
-2220.74
-2295.13
-2373.27
-2455.14
-2540.65
-2629.68
-2722.02
-2817.37
-2915.34
-3015.39
-3116.8
-3218.67
-3319.82
-3418.8
-3513.78
-3602.51
-3682.2
-3749.44
-3800.09
-3829.1
-3830.26
-3796.23
-3717.83
-3584.32
-3382.15
-3095.85
-2705.21
-6281.09
-6420.42
-6497.69
-6509.56
-6461.29
-6347.49
-6175.56
-5936.75
-5645.5
-5285.18
-4873.18
-4398.19
-3869.57
-3279.57
-2642.94
-1938.52
-1197.9
-384.616
458.307
1368.97
2309.4
3317.1
4349.38
5461.93
6558.72
7778.9
8912.22
10221.2
11416.2
12897.2
14208.6
16050.9
17522.2
19712.4
19622.9
21605.5
21730.4
25253
-11474.2
-34806.6
16615.3
23508.3
38097.3
23494.8
17718.3
30103.3
24491.6
11817.8
23128
13232.6
11872.8
14291.6
11510.7
11239.9
9378.23
6733
5497.42
4699.92
2520.17
2060.43
614.9
-301.515
-1287.11
-1754.03
-3122.96
-2325.27
-4591.56
-2372.41
-6065.14
-2298.64
-6912.4
-1725.96
-7145.77
-2184.86
-1703.48
-1692.23
-1689.04
-1692.97
-1703.26
-1719.28
-1740.54
-1766.66
-1797.33
-1832.33
-1871.51
-1914.75
-1961.98
-2013.16
-2068.31
-2127.41
-2190.51
-2257.62
-2328.78
-2404.01
-2483.29
-2566.6
-2653.88
-2744.99
-2839.77
-2937.92
-3039.07
-3142.7
-3248.13
-3354.48
-3460.62
-3565.14
-3666.26
-3761.77
-3848.96
-3924.51
-3984.33
-4023.45
-4035.85
-4014.16
-3949.51
-3831.12
-3645.83
-3378.13
-3008.36
-5205.13
-5309.59
-5355.3
-5343.12
-5269.08
-5143.62
-4951.24
-4712.87
-4405.19
-4054.91
-3637.17
-3171.49
-2650.7
-2070.63
-1449.36
-760.021
-38.8318
750.703
1571.23
2457.18
3366.97
4346.86
5336.11
6410.18
7462.42
8637.08
9741.3
10998.1
12146.9
13465.3
14593.6
16130.1
16975.3
18344
18292.7
20469.4
18963.8
21084.7
-78958.7
-51513.3
55741
27225.3
32198.1
24789.2
20834.2
20497.8
23156.5
13020.7
21440.5
15960.6
14221.6
13396
12631.6
9876.49
8839.11
8721.13
6643.64
6419.34
3656.7
2886.52
1336.95
351.497
-976.403
-1063.45
-2089.54
-1894.29
-4384.33
-2494.6
-5334.86
-2402.01
-6248.72
-1890.24
-6399.54
-3118.72
-1847.03
-1827.85
-1817.79
-1815.77
-1820.88
-1832.4
-1849.76
-1872.5
-1900.26
-1932.76
-1969.82
-2011.29
-2057.08
-2107.14
-2161.44
-2219.98
-2282.79
-2349.88
-2421.28
-2497
-2577.06
-2661.42
-2750.02
-2842.75
-2939.44
-3039.83
-3143.56
-3250.13
-3358.88
-3468.98
-3579.33
-3688.53
-3794.89
-3896.25
-3989.94
-4072.71
-4140.55
-4188.6
-4210.92
-4200.23
-4147.9
-4043.05
-3873.16
-3622.09
-3271.78
-4234.39
-4306.86
-4323.65
-4287.01
-4194.24
-4048.81
-3848.23
-3595.02
-3288.71
-2927.83
-2518.56
-2049.27
-1540.19
-966.833
-358.407
317.155
1020.35
1795.87
2588.71
3460.41
4336.69
5304.47
6252.44
7307.89
8333.77
9486.1
10565.1
11856.3
12957.5
14336.7
15439.1
16860.6
17905.5
19777.9
21740.8
25263.3
22551.4
39710.3
-91380.8
-20673.5
81963.1
46628
47069.5
35327.5
22105.6
16918.3
27502
14998.1
19644.2
15238
15601.2
13027.1
12396.9
11288.3
10031.2
8579.93
6728.78
6397.73
4212.54
3449.43
1653.92
591.989
-492.477
-609.121
-1649.05
-1683.52
-3490.65
-2236.52
-4685.71
-2411.26
-5973.72
-1981.45
-6925.49
-3034.95
-1975.1
-1948.41
-1931.85
-1924.18
-1924.38
-1931.62
-1945.24
-1964.71
-1989.64
-2019.7
-2054.66
-2094.34
-2138.64
-2187.48
-2240.83
-2298.66
-2361
-2427.86
-2499.26
-2575.22
-2655.74
-2740.81
-2830.36
-2924.3
-3022.46
-3124.61
-3230.39
-3339.33
-3450.81
-3564
-3677.85
-3791.02
-3901.82
-4008.17
-4107.45
-4196.5
-4271.36
-4327.28
-4358.39
-4357.58
-4316.23
-4223.8
-4067.73
-3832.26
-3499.37
-3357.2
-3399.71
-3390.91
-3329.95
-3221.18
-3055.23
-2848.37
-2579.18
-2270.8
-1905.22
-1493.4
-1031.91
-523.203
40.0004
640.927
1302.27
1992.75
2751.53
3526.36
4377.77
5231.52
6169.93
7094.99
8116.33
9107.39
10210.4
11242.2
12443.8
13506.6
14776.7
15950.2
17211.2
17966.4
18683.8
19717.3
21338.2
18447.8
17028.6
-74998.3
22778.8
27622.4
40850.2
32476.6
29545.1
25610.5
18405
27310.6
10152
16969.3
14194.3
13709.1
13323.2
10480
11546.9
8357.73
8837.02
6288.57
6385.51
4494.19
4479.45
2590.26
1548.87
734.451
184.726
-1264.7
-1410.21
-3248.66
-2250.4
-4229.65
-2410.25
-5067.64
-2301.17
-6318.32
-3396.35
-2087.26
-2053.65
-2031.11
-2018.22
-2013.86
-2017.11
-2027.24
-2043.66
-2065.9
-2093.62
-2126.55
-2164.49
-2207.29
-2254.88
-2307.2
-2364.23
-2425.97
-2492.43
-2563.64
-2639.61
-2720.34
-2805.83
-2896.01
-2990.8
-3090.05
-3193.53
-3300.9
-3411.72
-3525.38
-3641.1
-3757.84
-3874.31
-3988.87
-4099.47
-4203.59
-4298.08
-4379.1
-4441.96
-4480.89
-4488.95
-4457.52
-4376.4
-4232.86
-4011.95
-3694.9
-2563.19
-2577.6
-2545.38
-2463.06
-2335.65
-2156.94
-1933.97
-1661.18
-1342.08
-974.664
-561.608
-99.14
402.975
961.812
1553.39
2206.19
2882.97
3627.17
4384.72
5217.07
6052.79
6965.09
7873.4
8865.66
9838.96
10898.8
11951.3
13040.7
14206.9
15322.6
16620.9
17785.6
19800.7
21128.7
22914.8
21495.6
24590.3
-24163.2
-31727.4
15417.9
65468.5
26030.8
20111.3
23738.1
26221.6
13613.3
16649.9
17179.3
16778
10883.5
12795.9
12849.4
11013.5
10467.3
8646.19
9283.86
6706.32
6491.26
5043.13
4428.44
3216.38
1841.05
1043.96
475.325
-900.183
-1306.78
-2748.74
-1851.46
-3661.58
-2230.33
-4797.02
-2630.13
-6428.73
-3520.88
-2183.23
-2143.44
-2115.51
-2097.94
-2089.47
-2089.11
-2096.06
-2109.67
-2129.44
-2154.98
-2185.99
-2222.25
-2263.61
-2309.94
-2361.21
-2417.37
-2478.41
-2544.36
-2615.22
-2691
-2771.73
-2857.38
-2947.91
-3043.24
-3143.23
-3247.65
-3356.21
-3468.46
-3583.83
-3701.55
-3820.63
-3939.81
-4057.5
-4171.69
-4279.92
-4379.11
-4465.5
-4534.46
-4580.4
-4596.32
-4573.97
-4503.05
-4371.23
-4163.58
-3861.63
-1842.65
-1832.09
-1776.69
-1676.69
-1529.31
-1340.99
-1102.62
-823.151
-497.423
-124.847
286.582
753.297
1250.92
1806.9
2389.99
3033.37
3701.37
4430.2
5175.61
5987.62
6805.49
7693.23
8584.39
9531.94
10499.6
11486.1
12538.5
13543.1
14693.5
15696
17029.5
17839.8
19316.6
19937.7
22416.9
17082.1
21789.6
-67814.2
-15259.2
81451.5
40254.3
25641.6
31874.7
14539.3
18040.6
18618.8
9466.6
19144.2
15147.2
13686.9
13466.2
12604.8
11460
10576.8
8063.24
8707.9
5866.59
6568.4
5398.35
4267.82
3888.1
2831.36
1824.82
732.297
-794.058
-705.274
-2111.32
-1810.11
-2995.14
-2608.21
-4005.39
-3459.26
-5670.15
-3924.7
-2262.85
-2217.72
-2185.14
-2163.48
-2151.41
-2147.88
-2152.01
-2163.12
-2180.66
-2204.21
-2233.46
-2268.15
-2308.12
-2353.24
-2403.45
-2458.7
-2518.98
-2584.3
-2654.68
-2730.13
-2810.65
-2896.25
-2986.88
-3082.47
-3182.88
-3287.92
-3397.29
-3510.57
-3627.21
-3746.47
-3867.4
-3988.76
-4109
-4226.2
-4337.91
-4441.14
-4532.22
-4606.57
-4658.69
-4681.78
-4667.62
-4606.06
-4485.07
-4289.56
-4002.15
-1187.96
-1154.91
-1078.25
-960.361
-798.144
-593.975
-348.659
-56.7726
272.488
653.469
1064.05
1530.43
2026.7
2578.07
3157.42
3791.45
4450.02
5164.57
5900.2
6689.55
7496.41
8353.91
9232.19
10145.9
11093.9
12042.4
13081.4
14039.2
15224.7
16215.6
17519.3
18558.7
19583.1
19398.2
21690.8
21284
37500.4
-50286.4
23434.4
78781.8
40632.9
47828.8
26424.9
16224.9
14481.3
20327.7
9141.63
17225.8
16540.2
12759
13893.4
11888.6
11161.9
9784.96
7810.31
7870.61
6069.44
6204.21
5406.48
4478.72
4478.71
3221.61
2014.67
905.021
-152.571
-210.25
-1808.04
-1438.38
-2656.51
-2533.21
-3851.27
-3755.16
-5052.93
-4121.07
-2326.13
-2276.57
-2240.12
-2215.05
-2199.96
-2193.72
-2195.43
-2204.37
-2219.96
-2241.75
-2269.4
-2302.66
-2341.33
-2385.29
-2434.45
-2488.78
-2548.25
-2612.87
-2682.66
-2757.63
-2837.78
-2923.13
-3013.63
-3109.23
-3209.79
-3315.12
-3424.96
-3538.91
-3656.42
-3776.79
-3899.09
-4022.15
-4144.43
-4264.06
-4378.67
-4485.33
-4580.41
-4659.49
-4717.09
-4746.62
-4739.82
-4686.94
-4575.88
-4391.87
-4117.8
-592.837
-538.123
-443.438
-306.467
-133.412
87.5448
341.133
641.38
977.833
1358.84
1778.73
2239.92
2739.4
3284.46
3860.27
4487.68
5137.48
5840.5
6563.4
7334.8
8127.34
8958.51
9814.91
10704.4
11612.4
12549.2
13505.9
14466.2
15496.7
16478.1
17442.4
18476.3
19670.7
21596.2
20856.8
19993.2
4328.89
-21912.4
1481.39
45871.3
36663.8
23207.3
25483.9
20170.5
11682.8
23900.4
8950.26
16596.8
13282
12087.1
12105.3
11557.9
10501.3
10362.4
8357.44
8217.28
6451.8
6442.83
5383.65
4278.49
4029.71
3477.1
2158.57
1264.4
459.12
35.8263
-1285.23
-1233.24
-2217.59
-2652.63
-3483.86
-3924.02
-4057.42
-4545.72
-2373.18
-2320.2
-2280.71
-2252.93
-2235.41
-2226.98
-2226.7
-2233.82
-2247.75
-2268.02
-2294.27
-2326.23
-2363.71
-2406.57
-2454.73
-2508.13
-2566.76
-2630.62
-2699.72
-2774.08
-2853.72
-2938.64
-3028.81
-3124.18
-3224.62
-3329.98
-3439.97
-3554.23
-3672.24
-3793.33
-3916.59
-4040.88
-4164.73
-4286.3
-4403.27
-4512.8
-4611.33
-4694.53
-4757.01
-4792.25
-4792.26
-4747.24
-4645.43
-4472.33
-4210.42
-51.2529
23.8645
135.551
288.423
476.296
705.6
972.076
1279.31
1623.42
2007.09
2427.65
2896.48
3387.06
3937.47
4502.8
5124.49
5767.09
6457.46
7169.1
7923.74
8695.81
9516.07
10332.3
11214.4
12063.2
13006
13867.9
14894.6
15745.8
16907.4
17767.6
19367
19475.6
21569.3
21826.4
23485.1
-41740.1
272.742
75400.8
55323
21593.6
23182.4
18469.1
17395.8
9469.3
19293.2
11553.7
12381.5
10755.1
12702.2
10326.9
11877.9
10939.1
9583.93
7845.67
8063.63
6305.35
6060.99
4805.23
4543.46
4250.02
3132.04
2157.92
1821.87
1063.77
10.6553
-993.243
-830.292
-2056.58
-2508.97
-3316.9
-3828.05
-3433.06
-4435.25
-2404.28
-2348.88
-2307.21
-2277.45
-2258.12
-2248.02
-2246.19
-2251.87
-2264.44
-2283.43
-2308.48
-2339.31
-2375.71
-2417.55
-2464.74
-2517.23
-2574.99
-2638.03
-2706.37
-2780.02
-2859.01
-2943.34
-3032.99
-3127.91
-3228
-3333.09
-3442.95
-3557.2
-3675.37
-3796.8
-3920.61
-4045.71
-4170.67
-4293.69
-4412.52
-4524.37
-4625.79
-4712.49
-4779.24
-4819.57
-4825.7
-4787.96
-4694.6
-4531.82
-4281.48
442.647
535.939
664.544
830.194
1032.73
1272.51
1546.4
1864.75
2208.37
2607.19
3023.42
3490.98
3991.9
4524.86
5098.58
5708.61
6342.17
7025.88
7718.78
8465.29
9210.78
10019.7
10798.7
11664.6
12461.1
13394.1
14201.9
15245.4
16021.5
17030.7
17573.3
19020.5
19319.8
21101.2
17193.2
26097.6
-27481.8
10930.5
71556.1
39219.1
31287.4
25041
15729.5
13068.4
14609.5
9118.14
16922
10100.2
10905.6
11039.4
9905.6
11227.9
10338.8
9115.53
7934.63
8570
6873.48
6055.78
5263.03
4721.12
4194.93
2837.07
2606.92
2116.37
1321.05
207.517
-319.788
-836.896
-1768.09
-2405.1
-3129.88
-3187
-3024.52
-4425.72
-2419.8
-2363.01
-2320.04
-2289.03
-2268.5
-2257.26
-2254.32
-2258.92
-2270.45
-2288.42
-2312.47
-2342.32
-2377.77
-2418.67
-2464.94
-2516.53
-2573.41
-2635.6
-2703.1
-2775.94
-2854.15
-2937.74
-3026.69
-3120.96
-3220.47
-3325.06
-3434.49
-3548.44
-3666.44
-3787.85
-3911.85
-4037.35
-4162.99
-4287.02
-4407.25
-4520.94
-4624.73
-4714.42
-4784.88
-4829.81
-4841.42
-4810.38
-4724.96
-4571.52
-4332.71
893.578
1003.24
1147.05
1326.76
1539.87
1791.78
2074.11
2398.28
2752.6
3144.97
3576.51
4037.99
4537.94
5073.5
5637
6244.23
6869.42
7542.06
8218.28
8957.46
9672.45
10468
11221
12051.5
12835.2
13703.8
14504.5
15480.9
16236.1
17186.9
17984.4
18822.6
20421.8
22037.2
17664.9
16366
-18694.6
24769.6
49317
33771.3
28680.3
19109.5
14036.9
8969.42
17000.4
6463.67
15254.1
11209.8
9277.84
10596.6
10045
9847.32
9700.89
8546.44
7351.54
8362.83
6486.45
5676.68
5327.15
4418.04
4017.83
2649.8
2858.5
2210.09
1473.44
727.531
106.75
-773.237
-1914.33
-2117.31
-3271.81
-2042.01
-2911.32
-4131.26
-2420.25
-2363.08
-2319.65
-2288.11
-2267.01
-2255.13
-2251.53
-2255.42
-2266.21
-2283.41
-2306.67
-2335.71
-2370.32
-2410.37
-2455.77
-2506.47
-2562.47
-2623.75
-2690.36
-2762.3
-2839.61
-2922.32
-3010.4
-3103.84
-3202.54
-3306.38
-3415.14
-3528.5
-3646
-3767.06
-3890.88
-4016.4
-4142.31
-4266.9
-4388.05
-4503.1
-4608.73
-4700.87
-4774.48
-4823.35
-4839.92
-4814.79
-4736.96
-4592.06
-4364.19
1305.44
1430.18
1588.43
1779.59
2005.77
2263.48
2558.94
2884.81
3248.78
3644.37
4074.24
4541.45
5036.91
5574.09
6130.66
6735.36
7347.74
8013.56
8676.43
9394.99
10100.2
10862.8
11602
12386.5
13155.2
13967.5
14809.2
15617.3
16508.2
16913.2
17799.7
17996.4
19594.8
19428.7
26368.5
-7402.2
5446.38
66223.8
45465
25415.4
19547.2
18446.3
11836.8
10915.5
17065.1
8365.41
13557.7
9776.36
8591.62
10218.6
9872.9
8703.33
8709.48
7731.62
7518.87
8135.46
6539.84
5929.83
5715.52
4370.66
3740.05
2900.62
3009.52
1899.56
1882.64
695.59
405.244
-928.501
-1307.34
-2142.99
-1720.19
-2692.16
-2702.63
-3977.56
-2406.26
-2349.67
-2306.59
-2275.23
-2254.13
-2242.13
-2238.27
-2241.82
-2252.16
-2268.84
-2291.51
-2319.88
-2353.78
-2393.06
-2437.64
-2487.49
-2542.59
-2602.94
-2668.58
-2739.54
-2815.85
-2897.53
-2984.6
-3077.01
-3174.72
-3277.58
-3385.41
-3497.89
-3614.61
-3735
-3858.29
-3983.47
-4109.25
-4234
-4355.64
-4471.59
-4578.62
-4672.72
-4748.99
-4801.3
-4822.31
-4802.69
-4731.59
-4594.99
-4377.1
1681.51
1820.39
1991.83
2194.94
2430.87
2698.82
3000.05
3334.81
3700.45
4103.86
4533.16
5004.36
5495.78
6031.95
6583.96
7180.19
7786.78
8438.08
9091.03
9785.91
10484.9
11206.1
11950.4
12670.4
13460.3
14163.6
15002.5
15602.1
16549.8
17089.5
18576.3
19385.8
22441.6
17961.9
19946.8
-20252.7
15434.9
58472.5
30072.3
23012.2
15569.1
15680.9
12632.4
9581.39
13234.4
9643.26
8958.81
8044.66
9985.81
9091.08
9375.96
7688.95
8142.96
6750.49
6993.94
7837.72
6148.42
5817.17
5392.39
3949.82
3759.43
3270.42
2903.37
1861.25
1992.06
763.708
580.609
-669.337
-951.035
-1567.35
-1652.04
-2405.15
-2559.27
-3524.7
-2378.53
-2323.44
-2281.49
-2250.95
-2230.42
-2218.76
-2215.06
-2218.59
-2228.77
-2245.17
-2267.42
-2295.29
-2328.58
-2367.18
-2411
-2460.01
-2514.2
-2573.59
-2638.22
-2708.11
-2783.31
-2863.85
-2949.74
-3040.96
-3137.47
-3239.13
-3345.78
-3457.13
-3572.79
-3692.19
-3814.6
-3939.07
-4064.35
-4188.84
-4310.53
-4426.9
-4534.82
-4630.37
-4708.73
-4763.93
-4788.67
-4773.99
-4708.96
-4580.11
-4371.53
2025.48
2177.85
2360.7
2574.64
2819.68
3096.92
3403.66
3746.07
4114.67
4522.38
4953.09
5424.55
5915.93
6448.12
6996.73
7584.2
8185.55
8819.67
9468.12
10139.2
10828.6
11518.1
12229.3
12914.8
13655
14358
15221.3
15911.4
16837.7
17435
17348.9
17487.5
17164.7
15455
18429
-2804.95
38109.3
37917.1
37044.6
21780.8
17025.6
13009.7
9143.41
12252
9703.5
9775.72
7551.98
7124.69
8526.36
8543.39
8633.92
6979.36
7668.27
6460.17
6455.11
7282.86
5822.13
5663.6
5332.39
3925.49
3864.43
3347.05
2902.02
1781.24
2099.6
831.447
950.675
-550.937
-332.737
-1503.1
-1166.79
-2131.3
-2533.79
-3212.61
-2337.88
-2285.11
-2245.01
-2215.9
-2196.46
-2185.58
-2182.4
-2186.23
-2196.52
-2212.84
-2234.87
-2262.37
-2295.17
-2333.15
-2376.25
-2424.44
-2477.73
-2536.13
-2599.68
-2668.43
-2742.42
-2821.69
-2906.27
-2996.13
-3091.25
-3191.51
-3296.75
-3406.71
-3521.01
-3639.13
-3760.35
-3883.77
-4008.16
-4132
-4253.33
-4369.71
-4478.06
-4574.59
-4654.55
-4712.17
-4740.18
-4729.94
-4670.41
-4548.85
-4348.85
2339.57
2504.45
2698.28
2923.09
3175.71
3462.12
3774.89
4123.03
4496.22
4906.48
5339.32
5810.11
6300.58
6828.5
7372.83
7952.47
8544.11
9168.28
9797.21
10455.9
11107.2
11792.3
12459.3
13195.5
13871.6
14630.3
15232.7
15897.5
16064.8
16628.9
16835.7
19287.5
19973.9
30280.6
15801.4
-6735.96
60723.1
26334.9
22915
12595.2
18498.7
11546.6
7553.8
13055.1
7794.21
9792.68
8282.31
5549.02
7579.89
7944.4
7817.39
6423.31
6882.46
5873.9
5972.42
6837.32
5655.02
5506.14
5067.26
3975.76
4126.08
2919.97
2741.55
1939.36
2143.05
812.072
1152.02
-245.286
-22.1158
-1275.23
-910.009
-2036.29
-2168.44
-2617.84
-2285.2
-2235.51
-2197.88
-2170.75
-2152.85
-2143.16
-2140.85
-2145.27
-2155.9
-2172.35
-2194.32
-2221.58
-2253.98
-2291.42
-2333.84
-2381.24
-2433.6
-2490.98
-2553.41
-2620.94
-2693.63
-2771.52
-2854.64
-2942.99
-3036.53
-3135.19
-3238.79
-3347.12
-3459.79
-3576.32
-3696.04
-3818.05
-3941.2
-4063.98
-4184.53
-4300.44
-4408.74
-4505.72
-4586.76
-4646.14
-4676.85
-4670.25
-4615.71
-4500.51
-4308.6
2627.45
2803.93
3007.34
3241.71
3502.03
3795.53
4113.46
4466.93
4843.21
5256.07
5689.4
6160.09
6647.99
7173.35
7710.19
8285.21
8861.83
9478.33
10083.7
10736.9
11358.1
12058.9
12669.7
13386.4
13924.4
14578.8
15016.6
15990.6
16620.4
18445.2
19256.1
20799.3
15938
21025.8
-11834
17273.5
45899.8
18081.5
18971.5
11489.9
16608.7
8536.71
6772.9
11321.6
7434.52
7069.35
9105.7
6476.49
7791.15
7135
6482.32
5476.1
6086.33
5813.95
5797.27
6147.2
5155.34
5042.19
4629.51
4213.24
3995.75
2845.69
2781.31
2019.34
2210.74
1129.41
1254.18
109.27
239.112
-1017.68
-514.545
-1886.86
-1612.34
-2250.16
-2221.44
-2175.47
-2140.87
-2116.2
-2100.27
-2092.11
-2090.97
-2096.24
-2107.43
-2124.19
-2146.24
-2173.38
-2205.47
-2242.43
-2284.21
-2330.82
-2382.27
-2438.59
-2499.84
-2566.09
-2637.38
-2713.77
-2795.3
-2881.98
-2973.78
-3070.63
-3172.39
-3278.83
-3389.62
-3504.29
-3622.18
-3742.46
-3863.99
-3985.35
-4104.7
-4219.72
-4327.53
-4424.48
-4506.09
-4566.76
-4599.61
-4596.19
-4546.07
-4436.66
-4252.37
2890.32
3076.74
3290.12
3532.26
3801.17
4100.55
4425.23
4782
5162.26
5576.58
6010.63
6480.92
6964.7
7487.33
8014.44
8582.95
9145.32
9754.18
10338.7
10984.7
11571.3
12231
12798.4
13466.8
14053.4
14891.8
15592.8
16457.6
16879.9
16501.8
15718
14138.4
14179.6
18954.1
17971.5
34572.8
17384.2
35472.3
15210.2
15288.1
12320.7
8193.74
6170.88
9872
6171.75
3596.31
7502.97
6257.19
7001.48
5627.18
5404.17
4791.33
5128.77
5290.8
5148.71
5584.32
4849.91
4796.79
4319.69
4137.53
3784.81
2805.76
2687.96
2067.17
1918.31
1449.27
1139.07
419.661
532.934
-771.456
-289.327
-1712.13
-1092.39
-1852.27
-2147.62
-2105.9
-2074.81
-2053
-2039.38
-2033.07
-2033.37
-2039.7
-2051.65
-2068.87
-2091.13
-2118.25
-2150.1
-2186.64
-2227.81
-2273.64
-2324.15
-2379.39
-2439.42
-2504.3
-2574.11
-2648.9
-2728.71
-2813.57
-2903.46
-2998.31
-3098.01
-3202.34
-3310.99
-3423.51
-3539.28
-3657.48
-3777.05
-3896.58
-4014.31
-4127.99
-4234.79
-4331.19
-4412.78
-4474.12
-4508.47
-4507.49
-4461.08
-4356.63
-4179.24
3131.35
3327.12
3549.5
3798.79
4074.86
4378.35
4708.67
5068.17
5450.33
5866.42
6298.81
6768.1
7247.22
7765.32
8283.91
8846.03
9392.66
9990.8
10553.7
11170.8
11743.7
12378.9
12982.2
13659.4
14272.4
14859.3
15352.2
15352.6
15696.1
15920
18594.8
20223.7
32955.2
32575.8
-21354.2
58265.8
13034.4
17156.2
9756.77
17016.9
10392.4
8660.85
8185.93
7525.09
6472.16
3613.86
5165.15
5264.61
6661.29
4486.37
4726.21
4924.39
4682.42
4504.42
4782.51
4865.41
4468.64
4269.45
3777.57
3838.67
3475.16
2992.11
2485.41
2212.31
1964.21
1801.14
1210.58
714.842
848.431
-423.875
-204.372
-1278.93
-624.704
-1454.95
-2064.76
-2027.73
-2000.53
-1981.92
-1970.91
-1966.7
-1968.64
-1976.24
-1989.09
-2006.92
-2029.5
-2056.68
-2088.36
-2124.51
-2165.1
-2210.16
-2259.72
-2313.84
-2372.6
-2436.05
-2504.28
-2577.36
-2655.33
-2738.23
-2826.04
-2918.72
-3016.16
-3118.15
-3224.4
-3334.5
-3447.84
-3563.65
-3680.89
-3798.22
-3913.93
-4025.83
-4131.17
-4226.52
-4307.61
-4369.07
-4404.36
-4405.26
-4361.89
-4261.87
-4090.57
3350.56
3555.09
3785.33
4041.34
4323.42
4633.27
4966.23
5330.68
5713.87
6131.05
6562.06
7029.44
7502.89
8015.48
8524.09
9073.53
9609.83
10183.8
10741.2
11331.6
11910.3
12504.9
13106
13608.1
14181.9
14521.6
15295.5
15912.9
17945.1
18415.9
19852.9
15925.3
20563.6
1268.99
9003.09
41417.9
4695.47
15075.8
7122.34
10970.2
5957.41
6896.96
8002.01
7268.17
5953.77
3086.29
4382.93
3870.53
4891.23
3527.37
4657.22
3887.33
3894.72
3785.79
4296.04
4448.87
3978.37
3889.87
3488.1
3558.43
3216.12
2778.98
2393.64
2114.01
2348.31
1704.54
1542.84
864.871
1063.91
-188.671
168.435
-922.068
-237.211
-811.745
-1973.94
-1941.92
-1918.89
-1903.74
-1895.57
-1893.66
-1897.43
-1906.43
-1920.33
-1938.87
-1961.85
-1989.16
-2020.73
-2056.53
-2096.55
-2140.83
-2189.43
-2242.4
-2299.82
-2361.78
-2428.36
-2499.62
-2575.63
-2656.43
-2742.01
-2832.33
-2927.3
-3026.74
-3130.35
-3237.75
-3348.38
-3461.46
-3576.03
-3690.77
-3804.02
-3913.67
-4017.05
-4110.82
-4190.76
-4251.71
-4287.18
-4289.22
-4248.05
-4151.64
-3985.48
3551.48
3764.08
4001.09
4264.09
4550.78
4864.87
5200.54
5566.61
5949.89
6366.81
6794.79
7258.21
7726.51
8229.47
8731.94
9265.29
9793.36
10346.4
10894.6
11448.3
12016.4
12540.6
13114.7
13604.5
14344.9
14944.2
15825.2
16300.4
16117.3
15145.7
13861.7
12357
17775.8
19781.5
25100.4
12208.9
30169.9
15347.7
7816.22
9693.9
5002.57
3770.18
5843.95
5059.43
4900.26
4698.36
3878.38
2891.24
4128.38
3107.97
4097.43
3368.96
3319.91
3267.6
3767.62
3845.24
3521.15
3511.53
3235.82
3089.27
3089.7
2639.37
2571.59
2148.83
2423.43
1824.51
1658.46
1034.92
1140.16
-73.179
613.663
-765.118
190.135
-443.916
-1876.22
-1849.43
-1830.77
-1819.26
-1814.09
-1814.63