/*--------------------------------*- C++ -*----------------------------------*\
| =========                 |                                                 |
| \\      /  F ield         | OpenFOAM: The Open Source CFD Toolbox           |
|  \\    /   O peration     | Version:  2.2.x                                 |
|   \\  /    A nd           | Web:      www.OpenFOAM.org                      |
|    \\/     M anipulation  |                                                 |
\*---------------------------------------------------------------------------*/
FoamFile
{
    version     2.0;
    format      ascii;
    class       volScalarField;
    location    "0.7";
    object      Bz;
}
// * * * * * * * * * * * * * * * * * * * * * * * * * * * * * * * * * * * * * //

dimensions      [1 0 -2 0 0 -1 0];

internalField   nonuniform List<scalar> 
14161
(
1.01278e-19
1.00378e-19
9.93569e-20
9.72503e-20
9.75025e-20
9.70262e-20
9.7009e-20
9.5162e-20
9.56718e-20
9.36866e-20
9.3025e-20
9.29822e-20
9.28572e-20
9.33356e-20
9.249e-20
9.31791e-20
9.13114e-20
9.15015e-20
9.13785e-20
9.15982e-20
8.97002e-20
9.10711e-20
8.93376e-20
9.06397e-20
9.12426e-20
9.34613e-20
9.08356e-20
9.69173e-20
9.61235e-20
1.01261e-19
1.00166e-19
1.02884e-19
1.02081e-19
1.04605e-19
1.0422e-19
1.0636e-19
1.05411e-19
1.05845e-19
1.06684e-19
1.07011e-19
1.06853e-19
1.06881e-19
1.06818e-19
1.07014e-19
1.0614e-19
1.07298e-19
1.05722e-19
1.07195e-19
1.08103e-19
1.04552e-19
1.15307e-19
8.73899e-20
1.32264e-19
9.4748e-20
1.18742e-19
2.62156e-20
2.77595e-18
5.15716e-18
4.21589e-18
3.14157e-18
1.46542e-18
5.19393e-19
1.29025e-19
1.43714e-19
1.23993e-19
1.12576e-19
9.89325e-20
7.44577e-20
6.56294e-20
5.2533e-20
4.03081e-20
6.96655e-20
5.78433e-20
7.18575e-20
8.11893e-20
1.06347e-19
1.31361e-19
2.25477e-19
3.13218e-19
4.31785e-19
4.39319e-19
6.15306e-19
6.31382e-19
6.98131e-19
8.13506e-19
8.73563e-19
9.79146e-19
1.05106e-18
1.11412e-18
1.12137e-18
1.17092e-18
1.31017e-18
1.41687e-18
1.55538e-18
1.70707e-18
1.08424e-18
5.46419e-19
4.31971e-19
4.12811e-19
4.23128e-19
4.51342e-19
4.07664e-19
3.80109e-19
4.1661e-19
4.25692e-19
4.22236e-19
3.74505e-19
4.31679e-19
5.09117e-19
5.25319e-19
5.30372e-19
5.39656e-19
5.38193e-19
5.76209e-19
6.03958e-19
6.97069e-19
6.88866e-19
1.07235e-18
1.10154e-18
1.0424e-19
1.03431e-19
1.03891e-19
1.03916e-19
1.01613e-19
1.00066e-19
9.94509e-20
9.88362e-20
1.01458e-19
1.0055e-19
9.97087e-20
9.83672e-20
9.60779e-20
9.6043e-20
9.45511e-20
9.5691e-20
9.43372e-20
9.46322e-20
9.44668e-20
9.43519e-20
9.25474e-20
9.27827e-20
9.22743e-20
9.60338e-20
9.518e-20
9.80774e-20
9.96013e-20
1.02977e-19
1.07016e-19
1.06664e-19
1.08217e-19
1.0668e-19
1.07361e-19
1.11104e-19
1.07812e-19
1.10594e-19
1.09843e-19
1.09634e-19
1.10283e-19
1.10541e-19
1.10132e-19
1.0975e-19
1.09499e-19
1.08928e-19
1.08359e-19
1.08116e-19
1.09322e-19
1.09981e-19
1.09897e-19
1.10141e-19
1.11212e-19
1.07113e-19
1.07661e-19
1.17322e-19
9.79537e-20
3.3109e-19
2.86331e-18
5.34131e-18
4.65428e-18
3.43337e-18
8.39301e-19
5.8287e-19
3.61514e-19
2.47129e-19
2.01613e-19
1.89596e-19
1.53734e-19
1.26585e-19
1.13085e-19
9.71587e-20
8.61007e-20
1.06748e-19
9.48225e-20
1.01218e-19
1.07114e-19
1.27665e-19
1.43853e-19
2.36274e-19
3.28785e-19
4.29559e-19
4.72481e-19
6.137e-19
6.50006e-19
6.99786e-19
8.12101e-19
8.76758e-19
9.92079e-19
1.06432e-18
1.13499e-18
1.13092e-18
1.17548e-18
1.33256e-18
1.38773e-18
1.49801e-18
1.43565e-18
1.02997e-18
5.42943e-19
4.37326e-19
4.27976e-19
4.40141e-19
4.67576e-19
4.24858e-19
4.13138e-19
4.48218e-19
4.53026e-19
4.74185e-19
4.40877e-19
4.61564e-19
5.35152e-19
5.7993e-19
5.46781e-19
5.63838e-19
5.06968e-19
6.17991e-19
5.49004e-19
9.53636e-19
9.74812e-19
1.52803e-18
1.57305e-18
1.06305e-19
1.09046e-19
1.09759e-19
1.09201e-19
1.05042e-19
1.0294e-19
1.04345e-19
1.05921e-19
1.06896e-19
1.05643e-19
1.03966e-19
1.02396e-19
9.93094e-20
9.94329e-20
9.84789e-20
1.02789e-19
1.03508e-19
9.94808e-20
1.0103e-19
1.00111e-19
9.77662e-20
9.71087e-20
1.04534e-19
1.0483e-19
1.02803e-19
1.0862e-19
1.09654e-19
1.13449e-19
1.14837e-19
1.17626e-19
1.18751e-19
1.201e-19
1.198e-19
1.21347e-19
1.20195e-19
1.19231e-19
1.20989e-19
1.20583e-19
1.18844e-19
1.17535e-19
1.16688e-19
1.16516e-19
1.16741e-19
1.16834e-19
1.1714e-19
1.18781e-19
1.18734e-19
1.18729e-19
1.17634e-19
1.17374e-19
1.15483e-19
1.16782e-19
1.16269e-19
1.16238e-19
1.21762e-19
4.08369e-19
2.63766e-18
5.67718e-18
5.20311e-18
3.46453e-18
1.41135e-18
9.0266e-19
5.84732e-19
4.29506e-19
3.58844e-19
3.19846e-19
2.48599e-19
2.07098e-19
1.84913e-19
1.50541e-19
1.38091e-19
1.5889e-19
1.52994e-19
1.48235e-19
1.57671e-19
1.71258e-19
1.75529e-19
2.65092e-19
3.42822e-19
4.42666e-19
5.03088e-19
6.29886e-19
6.62688e-19
7.24108e-19
8.22622e-19
8.80409e-19
1.0084e-18
1.08418e-18
1.15166e-18
1.17104e-18
1.22178e-18
1.3571e-18
1.35967e-18
1.4162e-18
1.20327e-18
8.30492e-19
4.79874e-19
3.93741e-19
3.973e-19
4.35039e-19
4.60464e-19
4.39252e-19
3.85038e-19
4.48234e-19
4.12817e-19
4.80767e-19
3.58771e-19
4.05116e-19
4.90281e-19
6.68147e-19
4.14674e-19
4.26689e-19
3.92628e-19
4.76275e-19
4.60376e-19
8.53577e-19
8.85074e-19
1.31011e-18
1.3381e-18
1.24694e-19
1.21703e-19
1.20772e-19
1.19682e-19
1.20528e-19
1.21985e-19
1.21073e-19
1.17924e-19
1.1509e-19
1.14857e-19
1.13638e-19
1.1662e-19
1.17571e-19
1.21865e-19
1.21994e-19
1.20007e-19
1.18012e-19
1.20393e-19
1.17413e-19
1.24099e-19
1.21381e-19
1.20834e-19
1.24319e-19
1.23496e-19
1.17693e-19
1.22133e-19
1.27553e-19
1.302e-19
1.36432e-19
1.37776e-19
1.42505e-19
1.42107e-19
1.44591e-19
1.39771e-19
1.39719e-19
1.3962e-19
1.36477e-19
1.38705e-19
1.36267e-19
1.38054e-19
1.37555e-19
1.37733e-19
1.38195e-19
1.38206e-19
1.37188e-19
1.3739e-19
1.38746e-19
1.38099e-19
1.36682e-19
1.40776e-19
1.39585e-19
1.44541e-19
1.45089e-19
1.46715e-19
1.56948e-19
3.35076e-19
1.50404e-18
7.32297e-18
6.61347e-18
4.32304e-18
2.69759e-18
1.90413e-18
1.30555e-18
8.98323e-19
6.22541e-19
4.91364e-19
3.18668e-19
2.44831e-19
2.30135e-19
1.67783e-19
2.06657e-19
2.42827e-19
2.5649e-19
2.62155e-19
2.7468e-19
2.73134e-19
2.78471e-19
3.34042e-19
3.95981e-19
4.48317e-19
5.51846e-19
6.66248e-19
7.13287e-19
7.59821e-19
8.5676e-19
9.17023e-19
1.03117e-18
1.11755e-18
1.17604e-18
1.21395e-18
1.25325e-18
1.37968e-18
1.28783e-18
1.20999e-18
9.20213e-19
6.57292e-19
3.58493e-19
3.33619e-19
3.26221e-19
3.87246e-19
4.05852e-19
3.98661e-19
3.39197e-19
3.90123e-19
4.04518e-19
3.9817e-19
3.3943e-19
1.97856e-19
1.56256e-19
5.56413e-19
1.75997e-19
3.39122e-19
2.28997e-19
3.497e-19
4.00619e-19
4.6349e-19
4.99133e-19
1.25158e-18
1.28191e-18
1.36456e-19
1.36572e-19
1.36776e-19
1.37965e-19
1.37537e-19
1.36714e-19
1.35672e-19
1.36114e-19
1.4e-19
1.38798e-19
1.40737e-19
1.3983e-19
1.37349e-19
1.41415e-19
1.39502e-19
1.3976e-19
1.40543e-19
1.4786e-19
1.44767e-19
1.43778e-19
1.46818e-19
1.49399e-19
1.4843e-19
1.47487e-19
1.43574e-19
1.48282e-19
1.50517e-19
1.56302e-19
1.62047e-19
1.6142e-19
1.72656e-19
1.67616e-19
1.70104e-19
1.66955e-19
1.68246e-19
1.67824e-19
1.69389e-19
1.63044e-19
1.6607e-19
1.64916e-19
1.62352e-19
1.63258e-19
1.62314e-19
1.60965e-19
1.59452e-19
1.62158e-19
1.6371e-19
1.66771e-19
1.60366e-19
1.61866e-19
1.63985e-19
1.67468e-19
1.69914e-19
1.71699e-19
1.70382e-19
2.56361e-19
-5.51833e-20
1.01401e-17
9.25422e-18
6.10808e-18
4.46537e-18
2.91876e-18
1.91962e-18
1.21454e-18
7.82155e-19
5.90071e-19
3.81447e-19
2.69531e-19
2.50509e-19
1.72189e-19
2.01664e-19
2.41128e-19
2.37617e-19
2.75907e-19
2.77237e-19
2.98922e-19
3.11796e-19
3.99522e-19
4.26209e-19
4.71079e-19
5.59832e-19
6.91204e-19
7.61725e-19
7.87976e-19
9.12761e-19
9.79473e-19
1.07216e-18
1.16832e-18
1.22682e-18
1.29336e-18
1.26944e-18
1.33249e-18
1.12691e-18
9.04616e-19
6.79524e-19
4.7212e-19
2.85561e-19
2.58945e-19
2.68687e-19
2.80523e-19
3.52473e-19
2.69623e-19
2.54827e-19
2.37727e-19
3.08907e-19
1.5718e-19
2.88963e-19
6.22038e-20
2.55744e-20
1.66271e-19
4.099e-19
2.05909e-19
1.40924e-19
2.70013e-19
9.53779e-20
5.45345e-19
5.59515e-19
8.6912e-19
8.89091e-19
1.6397e-19
1.59968e-19
1.58653e-19
1.59063e-19
1.63672e-19
1.65378e-19
1.65953e-19
1.73732e-19
1.65389e-19
1.62861e-19
1.71031e-19
1.64244e-19
1.70985e-19
1.75624e-19
1.76416e-19
1.79539e-19
1.79067e-19
1.85111e-19
1.79989e-19
1.88326e-19
1.84627e-19
1.88844e-19
1.87381e-19
1.85353e-19
1.93254e-19
1.95028e-19
1.90484e-19
1.97956e-19
1.99348e-19
2.10863e-19
2.09898e-19
2.0808e-19
2.06158e-19
2.11387e-19
2.10644e-19
2.13473e-19
2.16326e-19
2.15763e-19
2.19292e-19
2.15946e-19
2.21574e-19
2.1544e-19
2.19982e-19
2.1722e-19
2.19881e-19
2.1668e-19
2.20766e-19
2.25397e-19
2.33637e-19
2.36648e-19
2.39315e-19
2.3554e-19
2.44988e-19
2.43363e-19
2.44829e-19
3.59237e-19
1.60437e-18
1.11204e-17
1.17174e-17
8.42929e-18
6.64345e-18
3.63518e-18
2.62426e-18
1.87929e-18
1.14523e-18
8.35158e-19
5.67976e-19
4.05568e-19
3.85075e-19
2.58408e-19
2.62778e-19
2.97251e-19
2.55003e-19
2.89212e-19
3.17894e-19
3.36687e-19
3.65311e-19
4.4043e-19
4.72516e-19
5.14274e-19
6.25436e-19
7.21924e-19
8.01434e-19
8.47324e-19
9.88987e-19
1.05637e-18
1.12831e-18
1.24307e-18
1.26242e-18
1.32376e-18
1.2154e-18
1.11873e-18
8.74735e-19
6.66378e-19
5.13758e-19
3.22865e-19
2.46654e-19
2.33772e-19
2.07389e-19
2.44284e-19
2.82867e-19
1.21944e-19
1.81226e-19
1.69755e-19
1.59304e-19
2.37051e-19
4.09919e-20
3.48332e-19
1.2661e-19
-4.59186e-21
1.65555e-19
7.06622e-20
-3.70783e-21
2.12748e-19
1.88786e-19
4.61723e-19
3.67831e-19
1.06405e-18
1.10823e-18
2.00371e-19
2.02381e-19
2.01739e-19
1.99478e-19
2.03173e-19
2.02703e-19
2.00391e-19
2.08685e-19
1.98364e-19
2.07119e-19
2.09419e-19
2.1393e-19
2.18489e-19
2.17679e-19
2.17882e-19
2.20125e-19
2.28108e-19
2.27905e-19
2.27186e-19
2.32344e-19
2.32037e-19
2.35413e-19
2.32536e-19
2.30508e-19
2.34874e-19
2.42981e-19
2.44998e-19
2.50512e-19
2.46671e-19
2.5246e-19
2.46859e-19
2.52749e-19
2.50109e-19
2.56204e-19
2.58594e-19
2.55909e-19
2.57691e-19
2.60544e-19
2.59026e-19
2.59717e-19
2.57986e-19
2.57357e-19
2.56182e-19
2.56456e-19
2.55264e-19
2.56296e-19
2.56546e-19
2.54822e-19
2.56851e-19
2.57377e-19
2.61683e-19
2.65326e-19
2.63782e-19
2.75998e-19
2.487e-19
3.19917e-19
1.59022e-18
1.08781e-17
1.64342e-17
1.16992e-17
7.92535e-18
5.30936e-18
3.4328e-18
2.40268e-18
1.3754e-18
9.72833e-19
6.87075e-19
4.78153e-19
4.30693e-19
3.23979e-19
2.96777e-19
3.05498e-19
2.76333e-19
2.88409e-19
2.90458e-19
3.25774e-19
3.85216e-19
4.647e-19
5.10976e-19
5.60989e-19
6.27314e-19
7.79323e-19
8.47851e-19
9.23989e-19
1.08794e-18
1.12077e-18
1.17859e-18
1.3078e-18
1.27487e-18
1.24709e-18
1.029e-18
8.32198e-19
6.57294e-19
5.27971e-19
3.99798e-19
2.89676e-19
2.39855e-19
1.74895e-19
1.36721e-19
1.95553e-19
1.28983e-19
1.03938e-19
9.90968e-20
1.59023e-19
1.17636e-19
3.11497e-20
7.11465e-21
2.53082e-19
5.9137e-20
-1.49056e-20
2.20157e-19
2.42197e-19
-1.19886e-19
8.45573e-20
9.9419e-20
2.63504e-19
2.29916e-19
3.18287e-19
3.27187e-19
2.28257e-19
2.31988e-19
2.33418e-19
2.37895e-19
2.36894e-19
2.41859e-19
2.47729e-19
2.47228e-19
2.54657e-19
2.56543e-19
2.59055e-19
2.63321e-19
2.74478e-19
2.7621e-19
2.74635e-19
2.75144e-19
2.7495e-19
2.77659e-19
2.80851e-19
2.85045e-19
2.83597e-19
2.89368e-19
2.85447e-19
2.99887e-19
2.98525e-19
2.93044e-19
2.92306e-19
2.97187e-19
2.87718e-19
2.89046e-19
2.84029e-19
2.90502e-19
2.9142e-19
2.93902e-19
2.91438e-19
2.94449e-19
2.96199e-19
2.9644e-19
2.94386e-19
2.98218e-19
2.9589e-19
3.01962e-19
2.98765e-19
3.01288e-19
3.00984e-19
3.03515e-19
3.06029e-19
3.12121e-19
3.08719e-19
3.16548e-19
3.15812e-19
3.17264e-19
3.18212e-19
3.17107e-19
3.1959e-19
3.84693e-19
8.76181e-19
7.61331e-18
1.78448e-17
1.42758e-17
9.57939e-18
5.80283e-18
3.65305e-18
2.43833e-18
1.3038e-18
9.20341e-19
6.40721e-19
4.35782e-19
3.98941e-19
2.96436e-19
2.7761e-19
2.77725e-19
2.42047e-19
2.82934e-19
2.6719e-19
3.0197e-19
3.72356e-19
5.08301e-19
5.62226e-19
6.15907e-19
6.67368e-19
8.46226e-19
9.06733e-19
9.79839e-19
1.15083e-18
1.17411e-18
1.22926e-18
1.24929e-18
1.18485e-18
9.64999e-19
7.49641e-19
6.58015e-19
4.91398e-19
4.22405e-19
2.97985e-19
2.54316e-19
2.32793e-19
1.51553e-19
2.04391e-19
1.31396e-19
1.52342e-19
-1.26031e-20
5.1056e-20
1.63434e-19
1.7406e-19
5.92559e-20
-8.39105e-20
5.68779e-20
2.99173e-19
-1.95839e-19
-6.2684e-20
7.17882e-20
1.7862e-19
2.83224e-19
3.07457e-19
4.12569e-20
4.26898e-20
3.16912e-20
7.96954e-21
2.72338e-19
2.75768e-19
2.76802e-19
2.89829e-19
2.8678e-19
2.9408e-19
2.91602e-19
2.91977e-19
2.98517e-19
3.02908e-19
3.07118e-19
3.12582e-19
3.15372e-19
3.14363e-19
3.24657e-19
3.2432e-19
3.17106e-19
3.29958e-19
3.28153e-19
3.2967e-19
3.36657e-19
3.40106e-19
3.36262e-19
3.37854e-19
3.2561e-19
3.37319e-19
3.28824e-19
3.28094e-19
3.17754e-19
3.24365e-19
3.09304e-19
3.18665e-19
3.12381e-19
3.15253e-19
3.12634e-19
3.14574e-19
3.16077e-19
3.15139e-19
3.16342e-19
3.17939e-19
3.17549e-19
3.2044e-19
3.17651e-19
3.18909e-19
3.1771e-19
3.2288e-19
3.21626e-19
3.21654e-19
3.19081e-19
3.17713e-19
3.17464e-19
3.18001e-19
3.16506e-19
3.16709e-19
3.16352e-19
4.05008e-19
1.13541e-18
5.20263e-18
1.33571e-17
1.29792e-17
1.01116e-17
6.50063e-18
3.78952e-18
2.31559e-18
1.2452e-18
9.11482e-19
6.37523e-19
4.76032e-19
3.6903e-19
2.83105e-19
2.77338e-19
2.65022e-19
2.567e-19
2.95423e-19
2.82535e-19
3.33482e-19
4.21595e-19
5.16554e-19
6.10056e-19
6.79467e-19
7.50853e-19
9.37122e-19
1.0094e-18
1.07329e-18
1.16514e-18
1.17271e-18
1.14399e-18
1.0772e-18
9.49653e-19
7.53517e-19
5.98674e-19
5.3722e-19
4.70125e-19
3.76475e-19
2.79118e-19
2.86312e-19
2.24673e-19
1.67495e-19
1.41146e-19
1.34526e-19
3.39715e-20
1.40854e-20
-4.8791e-20
1.75979e-19
3.24537e-20
9.43575e-20
7.96044e-21
-8.48318e-20
-2.85249e-20
-2.04711e-19
-3.19248e-19
-9.00173e-20
-2.36958e-19
2.03065e-19
-6.26976e-20
-2.25476e-19
-2.54746e-19
-7.12017e-20
-7.08555e-20
3.1667e-19
3.17861e-19
3.16659e-19
3.21718e-19
3.41294e-19
3.30172e-19
3.16815e-19
3.24516e-19
3.30075e-19
3.42957e-19
3.27655e-19
3.45607e-19
3.39282e-19
3.33311e-19
3.46846e-19
3.45365e-19
3.491e-19
3.44655e-19
3.50684e-19
3.51799e-19
3.51098e-19
3.52704e-19
3.55057e-19
3.53464e-19
3.47401e-19
3.578e-19
3.43377e-19
3.44561e-19
3.37809e-19
3.30059e-19
3.24535e-19
3.21679e-19
3.1838e-19
3.19195e-19
3.19853e-19
3.17641e-19
3.16512e-19
3.1706e-19
3.1904e-19
3.17404e-19
3.19311e-19
3.1601e-19
3.18579e-19
3.1656e-19
3.18571e-19
3.18676e-19
3.16651e-19
3.15799e-19
3.14414e-19
3.14594e-19
3.15865e-19
3.14654e-19
3.14843e-19
3.12068e-19
3.19085e-19
4.16006e-19
1.06264e-18
3.7711e-18
8.03745e-18
8.75833e-18
9.65089e-18
7.2766e-18
4.33673e-18
2.34674e-18
1.38348e-18
9.61878e-19
6.9197e-19
4.96391e-19
4.02243e-19
3.3783e-19
3.14415e-19
2.83068e-19
2.84748e-19
3.66029e-19
3.85809e-19
4.34268e-19
4.97453e-19
6.01971e-19
6.92048e-19
7.66302e-19
8.65958e-19
1.03056e-18
1.05063e-18
1.08366e-18
1.10906e-18
9.93127e-19
9.61955e-19
8.44806e-19
7.31434e-19
5.79501e-19
5.22182e-19
4.63848e-19
4.46634e-19
3.80396e-19
3.28096e-19
3.59542e-19
2.79957e-19
1.07787e-19
1.39606e-19
-9.06922e-21
-2.16489e-20
-5.36945e-20
1.10173e-19
-1.63274e-20
8.21383e-20
2.46291e-19
-2.533e-20
-3.1973e-19
6.23891e-20
4.82865e-20
-3.85353e-19
-3.46009e-19
-4.26848e-19
-3.82711e-20
-2.93204e-19
-6.40026e-19
-7.04583e-19
-8.0541e-19
-8.62065e-19
3.31404e-19
3.28443e-19
3.326e-19
3.38642e-19
3.21545e-19
3.21765e-19
3.40524e-19
3.32983e-19
3.18868e-19
3.23424e-19
3.2788e-19
3.3111e-19
3.33619e-19
3.22864e-19
3.1641e-19
3.22011e-19
3.25752e-19
3.26101e-19
3.29559e-19
3.37185e-19
3.40232e-19
3.46733e-19
3.44113e-19
3.3215e-19
3.3694e-19
3.2649e-19
3.27946e-19
3.30576e-19
3.19708e-19
3.2168e-19
3.0989e-19
3.13132e-19
3.07369e-19
3.08676e-19
3.0426e-19
3.03279e-19
3.05531e-19
3.03892e-19
3.04479e-19
3.03962e-19
3.04173e-19
3.0236e-19
3.03373e-19
3.05249e-19
3.09192e-19
2.9965e-19
3.01466e-19
3.06337e-19
2.97023e-19
3.04346e-19
2.99775e-19
3.01939e-19
2.97767e-19
2.93313e-19
3.07104e-19
4.62984e-19
1.6217e-18
3.47513e-18
4.52802e-18
5.60867e-18
7.82369e-18
7.46122e-18
5.30034e-18
2.80704e-18
1.60585e-18
1.06191e-18
7.55099e-19
5.0428e-19
4.04268e-19
3.56716e-19
2.78182e-19
2.96945e-19
3.34745e-19
4.39138e-19
4.67027e-19
5.10407e-19
5.73093e-19
6.65799e-19
7.52285e-19
8.50547e-19
9.29337e-19
9.8036e-19
9.49769e-19
9.53723e-19
8.6813e-19
8.02932e-19
7.83248e-19
6.91831e-19
6.57022e-19
5.62129e-19
5.18938e-19
4.66299e-19
5.10136e-19
4.55656e-19
4.04134e-19
4.67991e-19
2.83937e-19
1.81194e-19
5.56588e-20
7.06154e-20
-1.35688e-19
-9.86843e-20
-6.99324e-20
8.77874e-20
1.39581e-20
-5.79991e-20
-2.84303e-19
-4.65331e-19
-6.63096e-20
-4.20784e-19
-3.37503e-19
-2.39975e-19
-4.30118e-19
-7.47368e-19
-5.73303e-19
-7.6345e-19
-6.78555e-19
-7.52621e-19
-7.85941e-19
2.96625e-19
2.98378e-19
2.99184e-19
2.80421e-19
2.83423e-19
2.86577e-19
3.04126e-19
2.7091e-19
2.82685e-19
3.02171e-19
2.95837e-19
2.79424e-19
2.87862e-19
2.78445e-19
2.87176e-19
2.82602e-19
2.87435e-19
2.90646e-19
2.98053e-19
2.86574e-19
2.96801e-19
2.90778e-19
2.83939e-19
2.84035e-19
2.85923e-19
2.8595e-19
2.89799e-19
2.82893e-19
2.94816e-19
2.89371e-19
2.93926e-19
2.91312e-19
2.87474e-19
2.88613e-19
2.83415e-19
2.84342e-19
2.83979e-19
2.82668e-19
2.80488e-19
2.80513e-19
2.81138e-19
2.8333e-19
2.81032e-19
2.81193e-19
2.80084e-19
2.83031e-19
2.78732e-19
2.8644e-19
2.77963e-19
2.85076e-19
2.80086e-19
2.83676e-19
2.71734e-19
2.70969e-19
2.97501e-19
5.28929e-19
1.70291e-18
2.23518e-18
2.71093e-18
3.43338e-18
5.0103e-18
5.99659e-18
5.80435e-18
3.63581e-18
2.04543e-18
1.11951e-18
8.16135e-19
5.23782e-19
4.57207e-19
3.92593e-19
3.86207e-19
3.34028e-19
3.69046e-19
4.26756e-19
5.11221e-19
5.52726e-19
6.37895e-19
6.70546e-19
7.45337e-19
7.58637e-19
8.6193e-19
8.56664e-19
7.82304e-19
7.55505e-19
7.24758e-19
6.53157e-19
6.57712e-19
5.70507e-19
5.97659e-19
5.72259e-19
5.15526e-19
4.89742e-19
5.04799e-19
4.30822e-19
5.09633e-19
5.42763e-19
4.28506e-19
1.19436e-19
8.4951e-20
-6.02167e-20
-2.61615e-19
3.00521e-20
-4.04816e-20
-4.54538e-20
1.28707e-19
-3.28626e-19
-5.15491e-19
-5.68139e-19
-1.37714e-19
-5.88279e-19
-2.56846e-19
-3.56835e-19
-3.86513e-19
-8.52389e-19
-7.66041e-19
-5.71389e-19
-6.18267e-19
-6.88751e-19
-6.80319e-19
2.57035e-19
2.58978e-19
2.64685e-19
2.43404e-19
2.42815e-19
2.4676e-19
2.5794e-19
2.43623e-19
2.514e-19
2.33989e-19
2.43063e-19
2.55608e-19
2.48899e-19
2.58003e-19
2.66429e-19
2.47326e-19
2.54208e-19
2.66415e-19
2.66441e-19
2.54547e-19
2.58343e-19
2.4394e-19
2.51016e-19
2.44661e-19
2.52915e-19
2.66035e-19
2.65451e-19
2.68431e-19
2.6065e-19
2.61428e-19
2.68705e-19
2.72599e-19
2.63363e-19
2.68448e-19
2.63214e-19
2.65899e-19
2.65255e-19
2.57328e-19
2.58855e-19
2.56676e-19
2.57336e-19
2.57473e-19
2.5046e-19
2.55883e-19
2.53186e-19
2.55211e-19
2.49901e-19
2.55414e-19
2.45549e-19
2.38704e-19
2.30361e-19
2.28588e-19
2.24647e-19
2.29166e-19
2.65308e-19
5.73491e-19
1.44039e-18
1.65846e-18
1.75367e-18
2.17549e-18
3.01651e-18
3.82025e-18
4.45077e-18
3.75298e-18
2.43528e-18
1.25449e-18
8.51498e-19
4.70919e-19
4.01512e-19
4.20177e-19
2.89515e-19
2.79636e-19
3.61845e-19
4.24261e-19
5.4721e-19
5.37112e-19
5.88642e-19
6.05178e-19
6.69482e-19
6.25761e-19
6.73711e-19
6.80062e-19
6.42811e-19
6.06255e-19
5.56626e-19
5.92888e-19
6.08492e-19
5.79121e-19
6.1798e-19
5.94096e-19
5.61299e-19
5.81136e-19
4.94579e-19
4.94829e-19
5.63437e-19
5.65585e-19
4.64509e-19
1.62792e-19
3.30227e-20
-1.14463e-20
-1.94306e-19
-8.18368e-20
-1.60798e-19
-7.79135e-20
-7.87946e-20
-4.44888e-19
-5.24193e-19
-7.18776e-19
-5.61696e-19
-6.90033e-19
-5.57046e-19
-7.27073e-19
-5.36414e-19
-6.12338e-19
-9.86355e-19
-1.19993e-18
-1.22153e-18
-9.58841e-19
-9.09304e-19
2.37945e-19
2.40879e-19
2.56047e-19
2.40821e-19
2.36534e-19
2.3847e-19
1.83508e-19
2.47448e-19
2.68548e-19
2.46902e-19
2.47796e-19
2.4745e-19
2.30063e-19
2.97182e-19
2.71413e-19
2.67506e-19
2.50121e-19
2.44077e-19
2.62106e-19
2.61983e-19
2.60435e-19
2.49267e-19
2.50592e-19
2.50321e-19
2.68365e-19
2.62128e-19
2.6819e-19
2.5567e-19
2.5481e-19
2.47888e-19
2.56267e-19
2.52789e-19
2.4747e-19
2.44057e-19
2.44287e-19
2.36331e-19
2.39263e-19
2.22514e-19
2.3352e-19
2.25324e-19
2.30776e-19
2.24546e-19
2.22456e-19
2.23849e-19
2.20238e-19
2.27847e-19
2.21264e-19
2.17935e-19
2.15864e-19
2.11249e-19
1.97344e-19
1.93327e-19
1.89126e-19
1.92018e-19
2.31061e-19
5.50989e-19
1.12196e-18
1.12061e-18
1.10294e-18
1.10748e-18
1.42534e-18
2.09462e-18
2.62984e-18
2.9476e-18
2.42126e-18
1.44577e-18
9.69078e-19
4.76973e-19
3.63903e-19
4.37756e-19
2.31757e-19
2.17789e-19
2.88156e-19
3.80993e-19
4.67654e-19
4.50738e-19
4.67706e-19
4.87447e-19
5.13388e-19
4.68589e-19
5.48831e-19
5.04155e-19
5.65471e-19
4.61559e-19
4.4501e-19
4.9306e-19
5.27882e-19
5.96122e-19
6.31425e-19
6.197e-19
6.00344e-19
5.6717e-19
5.91327e-19
5.25773e-19
4.4374e-19
5.87925e-19
6.6524e-19
4.92194e-19
2.23681e-19
6.50231e-20
2.17027e-20
-1.57995e-19
-4.7831e-20
1.44581e-19
-1.84336e-19
-3.09378e-19
-5.3735e-19
-8.78103e-19
-5.70886e-19
-1.1532e-18
-8.0396e-19
-1.06472e-18
-9.75734e-19
-1.27483e-18
-1.1348e-18
-1.27215e-18
-1.27771e-18
-1.29343e-18
-1.38559e-18
2.71095e-19
2.55691e-19
2.36906e-19
2.66872e-19
2.70116e-19
2.78414e-19
2.99869e-19
3.1344e-19
2.48005e-19
2.83169e-19
2.90242e-19
2.76332e-19
2.82765e-19
2.82665e-19
2.82176e-19
2.93954e-19
3.08531e-19
2.77826e-19
2.53673e-19
2.7011e-19
2.75654e-19
2.87529e-19
2.71548e-19
2.83621e-19
2.82157e-19
2.79104e-19
2.68182e-19
2.42465e-19
2.53152e-19
2.32481e-19
2.42548e-19
2.19e-19
2.23446e-19
2.12672e-19
2.03577e-19
1.95411e-19
1.97507e-19
1.83746e-19
1.95971e-19
1.7291e-19
1.80387e-19
1.73163e-19
1.7128e-19
1.66938e-19
1.66981e-19
1.75138e-19
1.59592e-19
1.73089e-19
1.47414e-19
1.47513e-19
1.3375e-19
1.28745e-19
1.23097e-19
1.26652e-19
1.68958e-19
4.62443e-19
5.54044e-19
5.9912e-19
6.25192e-19
7.20007e-19
8.67306e-19
1.24549e-18
1.5899e-18
1.94015e-18
1.9948e-18
1.43347e-18
9.31308e-19
5.90967e-19
2.65476e-19
3.8008e-19
2.37246e-19
1.38336e-19
1.76253e-19
3.10069e-19
3.9118e-19
3.2652e-19
3.5336e-19
3.42953e-19
3.76046e-19
4.05363e-19
4.20712e-19
3.86487e-19
4.96191e-19
4.99331e-19
5.09586e-19
5.3934e-19
5.82797e-19
6.07712e-19
6.22696e-19
5.93099e-19
5.7573e-19
5.50241e-19
5.75107e-19
6.02977e-19
6.68831e-19
7.89697e-19
6.11662e-19
4.88812e-19
7.27278e-19
2.72173e-19
3.73498e-20
-9.29634e-20
1.21956e-19
5.07932e-20
-1.4518e-19
-2.81789e-19
-5.346e-19
-6.30307e-19
-5.56498e-19
-8.58766e-19
-7.00872e-19
-6.30837e-19
-4.90439e-19
-7.09789e-19
-6.80613e-19
-5.82612e-19
-7.98988e-19
-1.14025e-18
-1.13232e-18
3.35332e-19
3.26369e-19
3.1378e-19
3.32747e-19
3.42039e-19
3.5451e-19
3.60866e-19
3.69623e-19
3.63313e-19
3.54941e-19
2.53441e-19
3.04302e-19
3.51176e-19
2.89987e-19
3.11014e-19
2.95786e-19
2.9348e-19
2.44196e-19
2.36957e-19
2.75622e-19
2.61115e-19
2.6844e-19
2.51719e-19
2.61056e-19
2.38878e-19
2.47986e-19
2.13006e-19
2.13975e-19
2.06849e-19
1.86034e-19
1.78624e-19
1.59469e-19
1.5811e-19
1.42738e-19
1.46949e-19
1.24023e-19
1.39781e-19
1.13335e-19
1.27697e-19
9.03794e-20
1.20151e-19
8.96467e-20
9.88674e-20
8.35259e-20
9.50074e-20
8.02229e-20
7.94701e-20
6.24734e-20
7.03472e-20
6.52965e-20
5.27242e-20
5.0957e-20
4.76538e-20
4.76193e-20
5.05656e-20
1.00753e-19
2.62365e-19
3.2505e-19
3.95931e-19
4.67859e-19
5.44717e-19
8.96601e-19
1.08344e-18
1.25753e-18
1.33941e-18
9.70338e-19
6.5688e-19
4.4029e-19
1.97852e-19
2.08427e-19
1.41865e-19
1.4957e-19
6.00192e-20
2.07895e-19
2.4795e-19
2.20542e-19
2.91377e-19
3.4124e-19
2.71972e-19
3.5426e-19
3.8141e-19
4.09936e-19
4.16054e-19
4.87076e-19
5.60863e-19
5.59722e-19
5.07764e-19
5.56816e-19
6.14449e-19
6.10811e-19
5.77799e-19
5.22908e-19
5.94381e-19
7.10259e-19
6.05504e-19
6.89195e-19
5.67986e-19
7.8132e-19
8.63277e-19
4.30578e-19
5.65716e-19
2.30876e-19
3.23291e-19
2.90054e-19
-2.08033e-19
1.02833e-19
1.48187e-19
-1.13726e-19
-6.33725e-19
-3.9177e-19
-7.27435e-20
-2.66676e-20
-8.34822e-20
6.84727e-19
9.20494e-19
5.92129e-19
3.88603e-19
5.04864e-19
5.84195e-19
4.22087e-19
4.36854e-19
4.20417e-19
3.83899e-19
3.39975e-19
3.36602e-19
3.41851e-19
3.43132e-19
3.57209e-19
3.57014e-19
3.50471e-19
3.31141e-19
3.11823e-19
3.01955e-19
2.54985e-19
2.65968e-19
2.32036e-19
2.7482e-19
2.54038e-19
1.99941e-19
1.78711e-19
1.97456e-19
1.73138e-19
1.82756e-19
1.46663e-19
1.34529e-19
1.35404e-19
1.17819e-19
1.01064e-19
6.18477e-20
7.83125e-20
4.3728e-20
4.97603e-20
4.06734e-20
4.03409e-20
2.4318e-20
3.99768e-20
8.79191e-21
3.48443e-20
1.51102e-21
2.70154e-20
1.98647e-21
2.62324e-21
-3.92394e-21
-8.06949e-21
-1.36455e-20
-2.41259e-20
-2.59157e-20
-2.8949e-20
-2.83321e-20
-2.77929e-20
-2.67626e-20
-2.35758e-20
-3.77898e-20
-1.49352e-19
-2.54795e-19
-2.45517e-19
-1.40351e-19
7.39919e-20
1.59387e-19
2.5094e-19
4.18505e-19
5.38624e-19
6.93143e-19
7.67534e-19
6.00252e-19
3.63774e-19
2.61947e-19
1.01119e-19
4.69626e-20
2.06067e-20
1.60106e-21
-4.04875e-22
4.07764e-20
2.20301e-19
1.29009e-19
2.91202e-19
2.54857e-19
2.18868e-19
2.4282e-19
2.40235e-19
3.79731e-19
4.30581e-19
4.2849e-19
4.71265e-19
4.57675e-19
4.47293e-19
5.09008e-19
5.82858e-19
6.01081e-19
5.27771e-19
4.61889e-19
6.3974e-19
5.33849e-19
6.76938e-19
7.03267e-19
5.89223e-19
1.40273e-18
1.30571e-18
3.30184e-19
7.8741e-19
2.13198e-19
6.35165e-19
9.92444e-19
3.79306e-19
4.38125e-19
6.7189e-19
7.00237e-19
-2.19801e-19
-2.76039e-19
4.29369e-19
7.40477e-19
8.18058e-19
7.51293e-19
7.77877e-19
6.08942e-19
6.46271e-19
4.99303e-19
3.77477e-19
3.53261e-19
3.70878e-19
3.91683e-19
3.5753e-19
4.451e-19
4.12917e-19
4.2647e-19
3.72728e-19
3.40323e-19
3.05632e-19
3.30512e-19
2.84798e-19
2.47836e-19
2.43346e-19
2.26281e-19
2.17876e-19
1.91586e-19
2.1763e-19
1.77734e-19
1.83765e-19
1.0844e-19
1.06303e-19
6.18176e-20
4.45892e-20
4.81747e-21
2.61745e-20
-1.03899e-20
-2.32261e-20
-5.01438e-20
-4.70971e-20
-4.99972e-20
-6.34399e-20
-7.04627e-20
-6.85362e-20
-6.8945e-20
-9.31976e-20
-6.92158e-20
-9.10642e-20
-7.00597e-20
-9.1835e-20
-7.61769e-20
-9.5921e-20
-7.25286e-20
-8.11101e-20
-8.80395e-20
-8.36347e-20
-8.66196e-20
-8.59914e-20
-9.77863e-20
-7.97531e-20
-7.94866e-20
-8.32108e-20
-9.55395e-20
-1.45687e-19
-4.30509e-19
-5.3635e-19
-4.74037e-19
-2.28817e-19
-1.04934e-19
2.35794e-20
7.6934e-20
3.0664e-19
4.4052e-19
5.09815e-19
5.30221e-19
4.51298e-19
2.76862e-19
2.29149e-19
1.17561e-19
2.24402e-20
2.39419e-20
-9.78209e-21
-2.0725e-20
-2.65315e-20
1.06903e-19
1.28932e-19
1.85066e-19
2.30373e-19
1.59281e-19
1.42408e-19
1.69078e-19
3.84088e-19
3.97039e-19
4.29966e-19
5.11934e-19
4.68367e-19
4.2144e-19
5.7554e-19
6.5029e-19
6.03168e-19
4.15711e-19
4.53364e-19
6.78358e-19
5.19844e-19
6.3788e-19
7.56202e-19
7.46822e-19
1.2813e-18
1.26592e-18
9.45428e-19
8.89921e-19
7.57677e-19
6.24266e-19
1.54033e-18
9.62016e-19
8.80854e-19
1.42184e-18
7.63596e-19
9.94461e-19
1.17722e-18
1.10219e-18
1.50303e-18
1.95709e-18
2.2846e-18
1.9426e-18
2.06141e-18
2.17747e-18
2.08381e-18
2.1113e-18
4.09354e-19
3.92236e-19
3.76033e-19
3.20146e-19
3.89666e-19
3.9394e-19
3.44553e-19
3.07458e-19
2.67808e-19
2.89496e-19
2.50069e-19
2.46457e-19
2.77468e-19
2.3552e-19
1.89888e-19
1.62253e-19
1.65779e-19
1.12212e-19
9.23571e-20
3.76521e-20
1.77045e-20
-1.48677e-20
-5.36154e-20
-6.89187e-20
-8.22766e-20
-9.06264e-20
-1.28202e-19
-1.26203e-19
-1.33373e-19
-1.20648e-19
-1.49626e-19
-1.47568e-19
-1.32738e-19
-1.55677e-19
-1.42011e-19
-1.44333e-19
-1.39358e-19
-1.48895e-19
-1.24123e-19
-1.45187e-19
-1.21777e-19
-1.33272e-19
-1.1415e-19
-1.3729e-19
-1.14956e-19
-1.16576e-19
-1.15052e-19
-1.18229e-19
-1.08081e-19
-1.05533e-19
-1.02886e-19
-1.02657e-19
-1.21371e-19
-2.29242e-19
-6.71236e-19
-6.91453e-19
-5.43798e-19
-4.73037e-19
-3.57442e-19
-2.77598e-19
-1.39344e-19
4.23488e-20
1.77975e-19
1.83696e-19
2.28635e-19
1.94523e-19
1.87752e-19
1.4672e-19
1.08155e-19
3.68549e-20
-6.58896e-21
8.89626e-20
-6.83434e-20
-1.13953e-19
5.78258e-20
-4.3182e-21
2.20398e-19
9.45367e-20
2.65937e-20
1.28154e-19
1.86748e-19
2.55312e-19
3.29714e-19
4.824e-19
3.92167e-19
5.53867e-19
4.44391e-19
4.69997e-19
4.82817e-19
4.83683e-19
4.24332e-19
4.42363e-19
4.72257e-19
4.45458e-19
7.09077e-19
9.24176e-19
5.83349e-19
1.15984e-18
1.18424e-18
2.09303e-18
8.40442e-19
8.87596e-19
1.29663e-18
1.29119e-18
2.3288e-18
1.90242e-18
2.16675e-18
1.73089e-18
1.39564e-18
2.1042e-18
2.54111e-18
2.1419e-18
2.00939e-18
2.28787e-18
2.3962e-18
2.69674e-18
2.65841e-18
2.73334e-18
2.80827e-18
3.18015e-19
3.2416e-19
3.42571e-19
3.09706e-19
2.65486e-19
3.00548e-19
2.24857e-19
1.31919e-19
1.33442e-19
2.0285e-19
2.28188e-19
2.59713e-19
1.30015e-19
1.84649e-19
1.4207e-19
6.60886e-20
6.66788e-20
-6.99733e-20
-4.14994e-20
-7.1328e-20
-1.07909e-19
-1.64168e-19
-9.01982e-20
-1.59961e-19
-1.4438e-19
-1.66316e-19
-1.29409e-19
-1.5277e-19
-1.33721e-19
-1.52333e-19
-1.51587e-19
-1.16549e-19
-1.42255e-19
-1.28988e-19
-1.40983e-19
-1.30493e-19
-1.20034e-19
-1.37914e-19
-1.04623e-19
-1.36768e-19
-1.10538e-19
-1.21572e-19
-1.01065e-19
-1.19704e-19
-1.03243e-19
-9.88789e-20
-1.09463e-19
-8.89027e-20
-8.72129e-20
-8.64978e-20
-8.69719e-20
-9.19085e-20
-1.205e-19
-3.36554e-19
-7.38544e-19
-7.12447e-19
-6.58007e-19
-5.49652e-19
-4.41681e-19
-3.30766e-19
-2.15789e-19
-7.78828e-20
9.23582e-20
9.33162e-20
8.26049e-20
1.57387e-19
7.6974e-20
1.31842e-19
-3.58698e-21
-1.00409e-20
4.15499e-20
1.09644e-19
-9.64414e-20
-6.65386e-20
2.48935e-20
-2.36549e-20
2.4705e-20
1.18924e-20
1.66805e-19
2.43281e-19
1.52076e-19
2.85644e-19
3.62053e-19
4.4728e-19
5.27734e-19
2.76954e-19
2.78156e-19
8.14957e-20
5.53127e-19
5.8529e-19
3.91236e-19
3.06974e-19
4.07349e-19
5.54908e-19
6.9434e-19
6.96497e-19
3.10006e-19
1.14537e-18
8.48286e-19
1.42967e-18
1.16946e-18
8.37262e-19
1.20862e-18
2.05773e-18
2.09478e-18
1.89346e-18
2.16729e-18
2.81075e-18
1.74231e-18
2.12708e-18
2.13123e-18
1.96008e-18
2.00651e-18
1.4603e-18
1.45953e-18
1.01149e-18
9.98018e-19
1.12777e-18
1.13894e-18
1.52783e-19
1.76498e-19
2.14535e-19
3.35832e-19
2.34926e-19
4.06597e-20
1.48951e-19
1.41954e-19
1.47465e-19
8.98269e-20
1.14838e-19
-6.07842e-20
3.40677e-20
-1.77185e-19
-8.44464e-20
-8.34974e-20
-1.33072e-19
-7.92686e-20
-1.44451e-19
-1.095e-19
-6.55781e-20
-7.95125e-20
-1.10063e-19
-7.08385e-20
-9.49222e-20
-5.10799e-20
-8.84787e-20
-6.22145e-20
-7.03705e-20
-4.38403e-20
-4.56371e-20
-2.38844e-20
-6.5773e-20
-2.54938e-20
-4.61193e-20
-2.47009e-20
-4.14246e-20
-3.27586e-20
-4.00276e-20
-5.13161e-20
-2.98836e-20
-4.43739e-20
-4.44187e-20
-4.92139e-20
-5.09091e-20
-3.93328e-20