/*--------------------------------*- C++ -*----------------------------------*\
| =========                 |                                                 |
| \\      /  F ield         | OpenFOAM: The Open Source CFD Toolbox           |
|  \\    /   O peration     | Version:  2.2.x                                 |
|   \\  /    A nd           | Web:      www.OpenFOAM.org                      |
|    \\/     M anipulation  |                                                 |
\*---------------------------------------------------------------------------*/
FoamFile
{
    version     2.0;
    format      ascii;
    class       volVectorField;
    location    "0.7";
    object      U;
}
// * * * * * * * * * * * * * * * * * * * * * * * * * * * * * * * * * * * * * //

dimensions      [0 1 -1 0 0 0 0];

internalField   nonuniform List<vector> 
14161
(
(1.5001 -2.83847e-08 -5.8807e-24)
(1.5001 -8.19634e-08 -5.37028e-22)
(1.50012 -2.38904e-08 -8.24641e-23)
(1.50014 -2.97898e-08 -1.55342e-21)
(1.50017 -3.86093e-08 -1.48371e-21)
(1.50021 -1.74373e-08 -2.50776e-21)
(1.50027 9.37911e-09 -1.44531e-21)
(1.50034 -7.80166e-09 -3.61484e-21)
(1.50043 -1.65605e-08 -2.32393e-21)
(1.50053 5.3822e-09 -3.97403e-21)
(1.50066 2.18826e-09 -3.77666e-21)
(1.50081 -4.48687e-08 -4.56316e-21)
(1.50098 -1.62568e-07 -6.02877e-21)
(1.50118 -1.38057e-07 -5.73818e-21)
(1.50141 7.68853e-08 -6.58675e-21)
(1.50167 1.32999e-07 -5.90938e-21)
(1.50197 1.78511e-08 -5.61696e-21)
(1.50229 6.36693e-08 -6.26991e-21)
(1.50264 -1.0734e-07 -5.50926e-21)
(1.50303 -2.47988e-08 -7.01743e-21)
(1.50344 -6.48729e-07 -6.3958e-21)
(1.50389 -8.22729e-08 -6.72028e-21)
(1.50434 7.87925e-07 -6.81403e-21)
(1.50482 1.19795e-06 -5.45543e-21)
(1.50535 1.44414e-06 -4.45163e-21)
(1.50587 1.24783e-06 -4.11739e-21)
(1.50635 -2.94543e-07 -2.69428e-21)
(1.50691 -1.41362e-06 -5.59451e-22)
(1.50747 4.21391e-06 -7.50274e-22)
(1.50797 4.34732e-06 1.71884e-21)
(1.50843 9.74397e-07 3.1403e-21)
(1.50898 7.88128e-07 3.7175e-21)
(1.50951 3.50162e-06 3.80035e-21)
(1.50997 7.33139e-06 4.17622e-21)
(1.51038 2.96768e-06 4.60546e-21)
(1.51079 5.54106e-06 4.91988e-21)
(1.51116 8.75384e-06 5.04567e-21)
(1.51148 9.66969e-06 6.00718e-21)
(1.51178 9.95565e-06 6.36304e-21)
(1.5121 3.78204e-06 6.2749e-21)
(1.51236 2.08054e-05 5.8932e-21)
(1.51248 2.41084e-05 5.82574e-21)
(1.51245 2.81627e-05 5.76376e-21)
(1.51231 3.2722e-05 5.64581e-21)
(1.51212 3.10362e-05 5.45265e-21)
(1.51189 3.8541e-05 5.95426e-21)
(1.5116 6.24046e-05 5.15707e-21)
(1.51119 0.00011618 7.57348e-21)
(1.5105 0.000206725 5.40343e-21)
(1.50934 0.000227352 1.11888e-20)
(1.50739 0.000244789 -5.87626e-21)
(1.50471 0.000258023 3.69482e-20)
(1.50115 0.000341673 -3.0636e-20)
(1.49866 0.000272521 3.08385e-20)
(1.49417 0.000513419 -2.37601e-20)
(1.49188 0.00396309 5.53386e-19)
(1.13057 0.0136499 2.88721e-18)
(0.569948 0.015929 3.05482e-18)
(0.47919 0.00547424 2.70924e-18)
(0.478354 -0.00651178 1.60357e-18)
(0.502439 -0.0127133 8.88678e-19)
(0.53146 -0.0191028 8.83372e-20)
(0.574816 -0.0198932 -1.00814e-19)
(0.613003 -0.0178772 -1.14603e-19)
(0.649193 -0.0153811 -1.15352e-19)
(0.684088 -0.0135629 -1.20668e-19)
(0.71765 -0.013104 -1.16977e-19)
(0.748774 -0.0120288 -1.192e-19)
(0.779032 -0.0111243 -1.23241e-19)
(0.806208 -0.0101901 -1.27244e-19)
(0.831655 -0.0088474 -1.15732e-19)
(0.8538 -0.00680785 -1.3555e-19)
(0.873067 -0.00524769 -1.21382e-19)
(0.888515 -0.00419522 -1.43277e-19)
(0.90061 -0.00342431 -1.19886e-19)
(0.90824 -0.0027619 -1.15813e-19)
(0.913936 -0.00259526 -8.20591e-20)
(0.917848 -0.00256206 -3.41026e-20)
(0.919971 -0.0025281 1.49397e-20)
(0.914546 -0.00235033 8.87515e-20)
(0.92484 -0.00228139 1.43399e-19)
(0.927475 -0.00218087 2.63843e-19)
(0.928771 -0.00314453 2.72231e-19)
(0.932376 -0.00242923 2.99349e-19)
(0.93318 -0.00228654 3.66605e-19)
(0.944002 -0.00286649 4.09851e-19)
(0.948086 -0.00311254 4.65996e-19)
(0.950853 -0.0027904 5.2064e-19)
(0.950518 -0.00231295 5.81009e-19)
(0.962852 -0.0033906 5.96662e-19)
(0.972936 -0.00102754 6.83878e-19)
(0.976952 0.000288899 7.74271e-19)
(0.97891 0.00523947 8.35292e-19)
(0.958955 0.0142926 9.4623e-19)
(0.854467 0.030759 9.7176e-19)
(0.704839 0.0433358 5.24742e-19)
(0.580474 0.0384934 2.21394e-19)
(0.492962 0.0290072 1.4505e-19)
(0.435784 0.0215005 1.21079e-19)
(0.392119 0.0170982 1.0109e-19)
(0.35797 0.0138254 8.9525e-20)
(0.329615 0.0114448 1.0174e-19)
(0.305228 0.0096926 1.3027e-19)
(0.283866 0.00867198 1.22471e-19)
(0.263998 0.0082262 1.23021e-19)
(0.245295 0.00798757 1.46363e-19)
(0.227515 0.00786561 1.61132e-19)
(0.210229 0.00780508 1.99086e-19)
(0.193659 0.0078414 1.96378e-19)
(0.177537 0.0078794 1.48397e-19)
(0.161409 0.00809353 1.66084e-19)
(0.145146 0.00827077 1.16681e-19)
(0.128188 0.00879255 1.49304e-19)
(0.110424 0.00914613 1.96012e-19)
(0.0915299 0.0100403 2.5456e-19)
(0.0720443 0.0102951 2.69947e-19)
(0.0523607 0.0107882 3.35094e-19)
(0.0326782 0.0100823 2.92063e-19)
(0.0142443 0.0147481 7.68437e-19)
(1.5001 -2.86943e-09 -3.61583e-23)
(1.5001 -8.46994e-08 -9.56416e-23)
(1.50012 -5.26432e-08 3.37227e-22)
(1.50014 -7.61582e-08 -1.36055e-21)
(1.50017 -3.28206e-08 -1.47143e-21)
(1.50021 -2.4306e-09 -2.45799e-21)
(1.50027 -1.25731e-08 -2.11325e-21)
(1.50034 -5.11028e-08 -3.31127e-21)
(1.50043 -6.88721e-08 -2.01249e-21)
(1.50053 1.21019e-12 -3.67009e-21)
(1.50066 -3.42344e-08 -3.84771e-21)
(1.50081 -3.00891e-08 -4.97557e-21)
(1.50098 -2.28514e-08 -6.24114e-21)
(1.50118 -4.2139e-08 -6.10684e-21)
(1.50141 1.85737e-07 -6.24192e-21)
(1.50167 9.83942e-08 -5.49551e-21)
(1.50197 -3.1579e-07 -5.3728e-21)
(1.50229 3.76089e-07 -5.82793e-21)
(1.50264 8.55217e-08 -5.17676e-21)
(1.50303 -1.18567e-07 -7.1643e-21)
(1.50344 3.63372e-07 -6.3429e-21)
(1.50389 -3.32512e-07 -6.42852e-21)
(1.50434 1.61601e-06 -6.38187e-21)
(1.50482 1.72848e-06 -4.87418e-21)
(1.50535 1.12643e-06 -2.92761e-21)
(1.50586 3.0605e-06 -2.24208e-21)
(1.50635 1.79258e-06 -1.93463e-21)
(1.50691 -1.11127e-06 -1.77001e-22)
(1.50746 4.51196e-06 -5.49579e-22)
(1.50796 5.00652e-06 2.14497e-21)
(1.50844 3.74595e-06 3.27915e-21)
(1.50899 -1.03889e-06 4.23967e-21)
(1.50951 2.99422e-06 4.84951e-21)
(1.50997 7.351e-06 4.28729e-21)
(1.51039 5.19589e-06 4.57986e-21)
(1.5108 1.00984e-05 6.02807e-21)
(1.51115 1.87601e-05 5.14309e-21)
(1.51147 1.65319e-05 5.92774e-21)
(1.51178 8.40866e-06 6.43316e-21)
(1.51212 9.82537e-06 6.23158e-21)
(1.51244 2.35926e-05 5.91609e-21)
(1.51255 1.99819e-05 5.87842e-21)
(1.51257 4.97758e-05 5.48826e-21)
(1.51243 6.88766e-05 5.3175e-21)
(1.5122 7.0351e-05 5.2485e-21)
(1.5119 0.000117828 4.78196e-21)
(1.51146 0.000119475 5.67282e-21)
(1.51097 0.000145404 7.57741e-21)
(1.51025 0.000197449 5.09276e-21)
(1.5092 0.000249253 7.32293e-21)
(1.50801 0.000305028 4.29851e-21)
(1.50606 0.000376372 1.19915e-20)
(1.50362 0.000417832 -1.27579e-21)
(1.50075 0.000497829 4.29478e-21)
(1.49606 0.00153352 1.06776e-20)
(1.49256 0.0139576 7.96249e-19)
(1.12288 0.0445423 3.22042e-18)
(0.5671 0.0490919 3.23791e-18)
(0.484664 0.0134026 3.12991e-18)
(0.483406 -0.0203771 1.56634e-18)
(0.51578 -0.0369902 4.69939e-19)
(0.549025 -0.0482464 1.9136e-19)
(0.592001 -0.0489862 4.66831e-20)
(0.630991 -0.041657 -5.05751e-20)
(0.667725 -0.034874 -8.80669e-20)
(0.702494 -0.0291191 -1.04297e-19)
(0.735132 -0.0240246 -1.2368e-19)
(0.763005 -0.0194212 -1.31497e-19)
(0.791554 -0.0162423 -1.47774e-19)
(0.81593 -0.0131155 -1.51325e-19)
(0.838285 -0.00906162 -1.3983e-19)
(0.858395 -0.00643994 -1.54377e-19)
(0.876797 -0.00468423 -1.43497e-19)
(0.89193 -0.003572 -1.60605e-19)
(0.903797 -0.00283582 -1.36128e-19)
(0.911131 -0.00250112 -1.24695e-19)
(0.916879 -0.0026915 -8.90602e-20)
(0.921012 -0.0029272 -3.91831e-20)
(0.92326 -0.00280025 1.02083e-20)
(0.917683 -0.0024641 8.44847e-20)
(0.92795 -0.0028118 1.40251e-19)
(0.931024 -0.00299571 2.54541e-19)
(0.932539 -0.00432416 2.65345e-19)
(0.935637 -0.00300377 3.08514e-19)
(0.936829 -0.00270797 3.72534e-19)
(0.94748 -0.00424966 4.22271e-19)
(0.951979 -0.00449586 4.84859e-19)
(0.95428 -0.00397953 5.28749e-19)
(0.95274 -0.00322562 5.8347e-19)
(0.963458 -0.00382208 6.08535e-19)
(0.970315 -0.000809369 6.69671e-19)
(0.968733 -4.8256e-05 7.71009e-19)
(0.967889 0.0104498 8.07047e-19)
(0.918535 0.024057 8.59212e-19)
(0.829553 0.0771193 7.53133e-19)
(0.693168 0.109602 4.65056e-19)
(0.584525 0.104451 1.91453e-19)
(0.507429 0.0794588 1.21998e-19)
(0.448345 0.0611627 1.09675e-19)
(0.40213 0.0489816 8.79174e-20)
(0.365181 0.0405735 7.67149e-20)
(0.334241 0.0348102 8.62129e-20)
(0.30675 0.0307843 1.29278e-19)
(0.282442 0.0276052 1.31937e-19)
(0.260411 0.0253207 1.28121e-19)
(0.240427 0.023578 1.61205e-19)
(0.221911 0.0225352 1.92531e-19)
(0.204206 0.0218602 2.10093e-19)
(0.187366 0.0216805 2.1065e-19)
(0.17113 0.021678 1.67234e-19)
(0.154903 0.022267 1.7459e-19)
(0.138606 0.0227315 1.1513e-19)
(0.121763 0.0245382 1.56761e-19)
(0.104272 0.0255529 2.08443e-19)
(0.0861922 0.027891 3.03273e-19)
(0.0675814 0.0286261 3.1599e-19)
(0.048855 0.0305266 5.64954e-19)
(0.0295551 0.0300032 5.23242e-19)
(0.0116201 0.0363228 8.62447e-19)
(1.5001 7.68809e-09 9.86768e-23)
(1.5001 -1.46e-07 -5.24936e-22)
(1.50012 -1.15429e-07 -4.64789e-22)
(1.50014 -1.11141e-07 -3.05773e-22)
(1.50017 -3.56181e-08 -1.21588e-21)
(1.50021 -4.59213e-08 -2.49209e-21)
(1.50027 -4.2369e-08 -2.2613e-21)
(1.50034 -3.00041e-08 -3.18005e-21)
(1.50043 -6.50268e-08 -2.19363e-21)
(1.50053 1.43053e-08 -3.6805e-21)
(1.50066 -6.23918e-08 -4.15809e-21)
(1.50081 -1.05492e-09 -5.38818e-21)
(1.50098 2.88629e-08 -6.39277e-21)
(1.50118 -3.99754e-08 -5.05877e-21)
(1.50141 2.83127e-08 -4.52562e-21)
(1.50167 1.41069e-07 -4.3832e-21)
(1.50196 -2.95976e-07 -5.46459e-21)
(1.50229 4.68919e-07 -4.36454e-21)
(1.50264 8.39827e-08 -4.11206e-21)
(1.50303 -3.03294e-07 -5.71356e-21)
(1.50344 1.21283e-06 -6.36557e-21)
(1.50388 -1.44675e-06 -4.69776e-21)
(1.50434 2.76395e-06 -4.24266e-21)
(1.50483 3.83093e-06 -5.58502e-21)
(1.50534 2.13234e-06 -2.80218e-21)
(1.50586 2.10992e-06 -1.05828e-21)
(1.50637 3.02365e-06 1.59126e-22)
(1.50691 -1.51226e-06 1.92475e-21)
(1.50745 6.90972e-06 2.38287e-21)
(1.50796 8.50248e-06 5.55182e-21)
(1.50846 6.06466e-06 6.56259e-21)
(1.509 3.42785e-06 6.17491e-21)
(1.50951 1.12836e-05 4.99613e-21)
(1.50997 1.07166e-05 5.78252e-21)
(1.5104 9.11767e-06 5.84931e-21)
(1.51081 1.9832e-05 7.40709e-21)
(1.51118 3.00888e-05 9.26554e-21)
(1.51151 3.25287e-05 7.73371e-21)
(1.51185 1.90699e-05 6.75132e-21)
(1.51218 2.57723e-05 5.70184e-21)
(1.51249 3.89141e-05 5.19152e-21)
(1.51263 5.85468e-05 5.86645e-21)
(1.51266 0.000101699 5.53431e-21)
(1.51256 0.000106422 5.84137e-21)
(1.51238 0.000146831 5.9198e-21)
(1.51216 0.000174196 7.49985e-21)
(1.51182 0.000209464 8.03938e-21)
(1.51142 0.000239635 8.88455e-21)
(1.51083 0.000300897 8.1417e-21)
(1.51015 0.000404834 7.94856e-21)
(1.50902 0.000489173 6.32847e-21)
(1.50779 0.00086198 8.04747e-21)
(1.50582 0.00119045 7.52061e-21)
(1.50315 0.00141878 3.37727e-21)
(1.49812 0.00342435 3.53192e-20)
(1.49268 0.0253361 7.68652e-19)
(1.14756 0.0866052 3.5817e-18)
(0.56957 0.0770218 3.67075e-18)
(0.498078 0.0183874 3.26104e-18)
(0.500934 -0.0384234 1.96096e-18)
(0.539692 -0.0725467 7.78402e-19)
(0.574704 -0.0888676 3.49261e-19)
(0.616314 -0.0896899 1.09001e-19)
(0.653838 -0.0787007 -2.59913e-20)
(0.691857 -0.0667559 -8.99676e-20)
(0.724981 -0.0568844 -1.20122e-19)
(0.756093 -0.0484546 -1.36678e-19)
(0.780869 -0.0393119 -1.4979e-19)
(0.809846 -0.033842 -1.69776e-19)
(0.831235 -0.028422 -1.79269e-19)
(0.852845 -0.0218722 -1.77084e-19)
(0.871187 -0.0177597 -1.88951e-19)
(0.887891 -0.0146416 -1.79684e-19)
(0.901617 -0.0122201 -1.92507e-19)
(0.913055 -0.00987244 -1.68509e-19)
(0.919782 -0.00846997 -1.4144e-19)
(0.924887 -0.00843773 -1.0742e-19)
(0.928991 -0.00851364 -5.11337e-20)
(0.931301 -0.00814709 4.75548e-21)
(0.925746 -0.00708646 6.97759e-20)
(0.935325 -0.00794491 1.38192e-19)
(0.938614 -0.00818481 2.34669e-19)
(0.940315 -0.00918404 2.6547e-19)
(0.943632 -0.00739115 3.26237e-19)
(0.944893 -0.00705319 3.82969e-19)
(0.953396 -0.00940582 4.30812e-19)
(0.957752 -0.00908959 5.08551e-19)
(0.959848 -0.00789486 5.30736e-19)
(0.955609 -0.00586078 5.85348e-19)
(0.961588 -0.0071855 6.1335e-19)
(0.965801 -0.000961251 6.55353e-19)
(0.945943 0.00350421 7.59799e-19)
(0.929415 0.0246039 7.57436e-19)
(0.837586 0.0584701 7.71468e-19)
(0.737022 0.121038 5.61464e-19)
(0.630036 0.166045 3.33972e-19)
(0.545887 0.160314 1.6038e-19)
(0.4852 0.129479 9.65505e-20)
(0.432905 0.103066 8.99004e-20)
(0.391069 0.0836763 7.13895e-20)
(0.356816 0.069659 7.71212e-20)
(0.327238 0.0599422 8.2051e-20)
(0.301056 0.0529587 1.36696e-19)
(0.277861 0.0478063 1.0496e-19)
(0.256408 0.0440064 1.33152e-19)
(0.236319 0.0410242 1.23761e-19)
(0.217169 0.0389534 1.8352e-19)
(0.198893 0.0375124 1.25035e-19)
(0.181643 0.0369169 2.00888e-19)
(0.165181 0.0367641 1.96878e-19)
(0.148869 0.0376246 1.30517e-19)
(0.13258 0.0381714 3.86076e-20)
(0.116095 0.0408367 9.39032e-20)
(0.0990607 0.042287 1.79355e-19)
(0.0818219 0.0457641 2.17241e-19)
(0.06406 0.0469576 3.95465e-19)
(0.0464997 0.0500583 5.4337e-19)
(0.0281677 0.0496208 5.58974e-19)
(0.0117139 0.0574761 8.48916e-19)
(1.5001 -1.53277e-09 -5.85294e-22)
(1.5001 -1.83409e-07 2.41539e-22)
(1.50012 -1.57993e-07 -9.36235e-22)
(1.50014 -1.42752e-07 5.59796e-22)
(1.50017 -7.06075e-08 -5.7786e-22)
(1.50021 -7.75588e-08 -1.516e-21)
(1.50027 -5.64326e-08 -2.88238e-21)
(1.50034 -9.4659e-09 -3.85557e-21)
(1.50043 -4.56543e-08 -2.73317e-21)
(1.50053 -1.65395e-08 -3.97849e-21)
(1.50066 -1.37304e-07 -5.37562e-21)
(1.50081 -5.87207e-08 -3.75546e-21)
(1.50098 -5.19575e-08 -5.86087e-21)
(1.50118 -7.73746e-08 -3.72784e-21)
(1.50141 -1.45073e-07 -3.69284e-21)
(1.50167 1.5734e-07 -2.91341e-21)
(1.50196 -8.92052e-08 -5.05568e-21)
(1.50229 5.06989e-07 -9.48528e-22)
(1.50264 3.80689e-07 -6.86939e-21)
(1.50302 -1.80472e-08 -2.25891e-21)
(1.50344 1.60922e-06 -1.47466e-21)
(1.50388 1.26277e-07 2.16574e-21)
(1.50434 1.75928e-06 -2.77583e-21)
(1.50483 3.70135e-06 -4.15615e-21)
(1.50532 3.23568e-06 -7.13934e-22)
(1.50585 2.65089e-06 -2.55778e-22)
(1.50639 1.12689e-06 3.95257e-21)
(1.5069 2.12696e-06 8.24368e-21)
(1.50744 8.52784e-06 9.56866e-21)
(1.50797 6.98496e-06 1.00961e-20)
(1.50849 3.48238e-06 9.18034e-21)
(1.50899 7.39088e-06 8.08184e-21)
(1.50951 1.56219e-05 7.73019e-21)
(1.50999 9.88932e-06 8.05376e-21)
(1.51043 1.37254e-05 8.95775e-21)
(1.51084 2.90729e-05 8.04615e-21)
(1.51123 4.17835e-05 9.97315e-21)
(1.51159 4.3251e-05 1.00799e-20)
(1.51194 3.40092e-05 9.69825e-21)
(1.51227 3.31578e-05 9.92384e-21)
(1.51258 6.04731e-05 9.35612e-21)
(1.51276 0.000101108 8.44606e-21)
(1.51287 0.000126177 8.953e-21)
(1.51287 0.000159522 7.7757e-21)
(1.5128 0.00016388 7.81749e-21)
(1.51266 0.000233101 6.135e-21)
(1.51246 0.000263053 7.73312e-21)
(1.51207 0.000354071 5.14883e-21)
(1.51183 0.000486568 5.4277e-21)
(1.51118 0.000589916 7.24389e-21)
(1.51063 0.000800554 6.92377e-21)
(1.51006 0.00102411 9.95318e-21)
(1.50886 0.00148616 1.02258e-20)
(1.50704 0.00208201 9.53425e-21)
(1.50442 0.00434981 3.63331e-20)
(1.49724 0.031822 3.43826e-19)
(1.2365 0.128526 4.43546e-18)
(0.602488 0.106055 4.67158e-18)
(0.514889 0.0150424 3.93091e-18)
(0.539249 -0.0641429 2.45701e-18)
(0.581894 -0.106175 1.39028e-18)
(0.624082 -0.121367 8.96361e-19)
(0.663124 -0.120146 4.24061e-19)
(0.698509 -0.106242 2.52215e-19)
(0.731811 -0.0902859 5.40602e-20)
(0.764842 -0.0736113 -1.25582e-20)
(0.793888 -0.0607337 -6.06108e-20)
(0.816528 -0.0452534 -9.14875e-20)
(0.844169 -0.0355285 -1.2713e-19)
(0.861454 -0.0269549 -1.59687e-19)
(0.881767 -0.0186356 -1.7155e-19)
(0.898685 -0.0128104 -2.01537e-19)
(0.911221 -0.0096231 -1.96865e-19)
(0.922497 -0.00721659 -2.07432e-19)
(0.932692 -0.00473768 -1.99034e-19)
(0.93822 -0.00483404 -1.6965e-19)
(0.941714 -0.00601117 -1.32139e-19)
(0.945144 -0.00762713 -5.41663e-20)
(0.947861 -0.00765629 -3.61779e-21)
(0.942344 -0.00666555 5.63559e-20)
(0.949935 -0.00823629 1.40405e-19)
(0.953422 -0.00866856 2.20162e-19)
(0.954866 -0.00889465 2.6251e-19)
(0.958759 -0.00746783 3.46379e-19)
(0.958304 -0.00832914 3.93682e-19)
(0.963265 -0.00996018 4.40198e-19)
(0.96584 -0.00988288 4.98207e-19)
(0.96428 -0.0092085 5.52258e-19)
(0.958981 -0.00480338 5.92494e-19)
(0.951106 -0.00482215 6.18245e-19)
(0.946009 0.00569164 6.55479e-19)
(0.895441 0.0206171 7.24746e-19)
(0.84014 0.0543931 6.45143e-19)
(0.726578 0.121146 5.64652e-19)
(0.622658 0.181372 3.53517e-19)
(0.545131 0.209805 1.93069e-19)
(0.486146 0.198917 7.318e-20)
(0.443232 0.164164 2.52034e-20)
(0.400717 0.132945 2.9653e-20)
(0.365841 0.109435 8.8058e-21)
(0.336806 0.0927928 3.50679e-20)
(0.311034 0.0811492 5.14989e-20)
(0.287909 0.0725183 9.9125e-20)
(0.26689 0.0660652 7.55027e-20)
(0.247046 0.0611618 8.67935e-20)
(0.228274 0.0573495 1.20209e-19)
(0.210365 0.0548911 9.41836e-20)
(0.19307 0.0530844 8.57278e-20)
(0.176412 0.0522467 -1.24179e-19)
(0.160413 0.0520499 2.02391e-19)
(0.144413 0.053065 -1.22604e-19)
(0.128231 0.0536282 3.79216e-21)
(0.112059 0.0569884 -5.8529e-20)
(0.0952848 0.0586795 4.21673e-20)
(0.0786667 0.0628882 1.15034e-19)
(0.0615454 0.0642825 4.52885e-20)
(0.0451605 0.068368 4.19745e-19)
(0.0278538 0.0680494 4.1713e-19)
(0.0130382 0.0767501 5.41922e-19)
(1.5001 -1.25637e-08 -4.32116e-22)
(1.5001 -2.16186e-07 1.80421e-21)
(1.50011 -2.065e-07 -2.07504e-21)
(1.50014 -1.86853e-07 2.1124e-22)
(1.50017 -1.07118e-07 3.44742e-22)
(1.50021 -1.0451e-07 1.43777e-21)
(1.50027 -3.98588e-08 -3.58249e-21)
(1.50034 -4.60463e-08 -1.71471e-21)
(1.50043 -6.17109e-08 -2.22429e-21)
(1.50053 -6.2311e-08 -3.92875e-21)
(1.50066 -1.9953e-07 -6.01556e-21)
(1.5008 -8.84897e-08 -1.76767e-21)
(1.50098 -1.54935e-07 -6.61891e-21)
(1.50118 -7.33701e-08 -2.10499e-21)
(1.50141 -1.41599e-07 -6.14869e-21)
(1.50167 1.76609e-07 -1.06555e-21)
(1.50196 -3.84839e-08 -2.2662e-21)
(1.50228 7.05633e-07 3.2577e-21)
(1.50264 4.29359e-07 1.09423e-21)
(1.50302 4.74008e-07 -4.31196e-21)
(1.50343 1.40708e-06 9.21575e-22)
(1.50387 1.17556e-06 3.22679e-21)
(1.50435 2.3139e-06 1.43035e-22)
(1.50483 4.66319e-06 -9.17956e-22)
(1.50531 4.65422e-06 1.57017e-21)
(1.50585 3.1943e-06 3.67225e-21)
(1.50639 3.51322e-06 7.58906e-21)
(1.50689 6.24329e-06 1.01432e-20)
(1.50743 9.26005e-06 1.20108e-20)
(1.50798 5.83388e-06 1.61088e-20)
(1.5085 9.33111e-06 1.23804e-20)
(1.50899 1.37193e-05 9.26503e-21)
(1.50952 2.11414e-05 1.23387e-20)
(1.51003 9.53212e-06 1.15779e-20)
(1.51046 2.13834e-05 1.19378e-20)
(1.51086 3.29767e-05 1.33696e-20)
(1.51129 4.64731e-05 1.10465e-20)
(1.51171 4.58169e-05 1.04685e-20)
(1.51207 4.97689e-05 1.33063e-20)
(1.5124 5.00329e-05 1.20101e-20)
(1.51272 7.03312e-05 1.05331e-20)
(1.51298 0.000116649 8.97374e-21)
(1.51314 0.000147511 9.65846e-21)
(1.51326 0.000173255 6.70012e-21)
(1.5133 0.000188853 7.00657e-21)
(1.51331 0.00022159 8.82733e-21)
(1.51327 0.000293139 9.6817e-21)
(1.51327 0.000445501 1.02637e-20)
(1.51324 0.000491292 8.58462e-21)
(1.51309 0.000631311 8.4849e-21)
(1.51307 0.000744294 1.01638e-20)
(1.51328 0.000942451 1.33766e-20)
(1.51298 0.00119974 1.50944e-20)
(1.51269 0.00137029 1.11824e-20)
(1.51249 0.00387141 3.91312e-20)
(1.5089 0.0234343 -1.49255e-19)
(1.40472 0.123926 5.24376e-18)
(0.673054 0.131106 6.38122e-18)
(0.537574 -0.00757477 4.94992e-18)
(0.592502 -0.105791 3.1981e-18)
(0.63799 -0.152743 2.08941e-18)
(0.688768 -0.163225 1.4117e-18)
(0.726299 -0.152886 8.14485e-19)
(0.758993 -0.134313 5.53781e-19)
(0.779822 -0.11145 2.1735e-19)
(0.81731 -0.0937604 1.14402e-19)
(0.833929 -0.0765955 1.77556e-20)
(0.862 -0.058282 -2.9693e-20)
(0.884572 -0.0448631 -9.35965e-20)
(0.897487 -0.0333006 -1.12228e-19)
(0.9165 -0.0250613 -1.34936e-19)
(0.929113 -0.0190218 -1.94338e-19)
(0.942484 -0.0142097 -1.7982e-19)
(0.949597 -0.0122906 -1.77082e-19)
(0.959701 -0.00953869 -1.8004e-19)
(0.963925 -0.00939083 -1.58319e-19)
(0.965351 -0.0107364 -1.29137e-19)
(0.966774 -0.0130291 -3.76033e-20)
(0.968844 -0.013582 1.05492e-20)
(0.962341 -0.0117937 7.17178e-20)
(0.967185 -0.0127432 1.37724e-19)
(0.968791 -0.0136472 2.3022e-19)
(0.968461 -0.0128582 2.68592e-19)
(0.971727 -0.0108511 3.51966e-19)
(0.967696 -0.0111182 4.05327e-19)
(0.968569 -0.0129641 4.38219e-19)
(0.968635 -0.0114124 4.93213e-19)
(0.955661 -0.00975842 5.55068e-19)
(0.94697 4.03475e-05 5.87162e-19)
(0.916886 0.00716905 6.22723e-19)
(0.885631 0.0258636 6.09437e-19)
(0.799068 0.0619332 6.32102e-19)
(0.702519 0.121121 4.73448e-19)
(0.595239 0.189108 3.39987e-19)
(0.520884 0.231259 1.7253e-19)
(0.474569 0.245267 9.2438e-20)
(0.437102 0.229198 8.83962e-21)
(0.407215 0.196465 -2.83409e-20)
(0.372638 0.16243 -3.45879e-20)
(0.343471 0.134829 -4.90869e-20)
(0.318192 0.115278 -2.50264e-20)
(0.295061 0.101295 2.89766e-20)
(0.274167 0.0908334 2.34948e-20)
(0.254839 0.0832174 4.24616e-20)
(0.236544 0.0775205 2.49711e-21)
(0.2191 0.0730316 7.51462e-20)
(0.202092 0.0699628 3.25198e-20)
(0.185738 0.0677249 6.85791e-20)
(0.17013 0.0668364 -1.8581e-19)
(0.15494 0.0665633 -5.86762e-20)
(0.139783 0.068052 5.10331e-20)
(0.12431 0.0688753 -1.48797e-19)
(0.108953 0.0727926 3.14165e-20)
(0.0928562 0.0748187 -3.20117e-20)
(0.0770627 0.0796117 1.0247e-19)
(0.0606332 0.0810389 -1.15901e-19)
(0.045095 0.0857615 3.12525e-19)
(0.0285035 0.0856003 4.11471e-19)
(0.0149955 0.0949525 5.44249e-19)
(1.5001 -2.44706e-08 3.3512e-22)
(1.5001 -2.47473e-07 -1.01201e-21)
(1.50011 -2.2449e-07 5.27815e-22)
(1.50014 -1.90598e-07 -2.46758e-21)
(1.50017 -1.43122e-07 -7.526e-21)
(1.50021 -1.19684e-07 -7.91185e-21)
(1.50027 -2.92829e-08 -6.65681e-21)
(1.50034 -1.19485e-07 6.07751e-21)
(1.50042 -2.74098e-08 -6.02183e-21)
(1.50053 -1.06377e-07 -5.30705e-21)
(1.50065 -1.33797e-07 -3.19289e-22)
(1.5008 -9.62549e-08 -5.23995e-21)
(1.50098 -1.7166e-07 -8.495e-21)
(1.50118 -1.04366e-07 2.80441e-21)
(1.50141 -8.02467e-08 -1.12903e-21)
(1.50167 9.07774e-08 1.62127e-21)
(1.50196 -1.51495e-07 -4.90098e-21)
(1.50228 6.36779e-07 1.03576e-20)
(1.50263 5.16969e-07 -7.76172e-22)
(1.50302 5.70865e-07 6.70001e-22)
(1.50343 1.13255e-06 5.94164e-21)
(1.50386 1.90974e-06 3.76062e-21)
(1.50434 1.77854e-06 5.20317e-21)
(1.50482 5.81555e-06 7.47589e-21)
(1.50531 5.44008e-06 8.1022e-21)
(1.50585 3.89842e-06 7.32877e-21)
(1.50639 7.0091e-06 1.06138e-20)
(1.50688 9.25369e-06 1.24859e-20)
(1.50743 7.81764e-06 1.37833e-20)
(1.50798 7.74074e-06 1.37712e-20)
(1.5085 1.48056e-05 1.12153e-20)
(1.50899 1.87159e-05 1.02729e-20)
(1.50954 1.57903e-05 1.55771e-20)
(1.51005 1.60472e-05 1.68024e-20)
(1.51049 3.38729e-05 1.67109e-20)
(1.51091 3.75104e-05 1.7223e-20)
(1.51137 4.67069e-05 1.63328e-20)
(1.51182 4.90953e-05 1.69399e-20)
(1.51222 6.19011e-05 1.49644e-20)
(1.51257 6.76512e-05 1.48848e-20)
(1.51292 9.02534e-05 1.48114e-20)
(1.51324 0.000122612 1.4262e-20)
(1.5135 0.000152598 1.78903e-20)
(1.51368 0.000178262 1.683e-20)
(1.51382 0.000202699 1.9068e-20)
(1.51397 0.000257051 1.52497e-20)
(1.51413 0.000317989 1.65079e-20)
(1.51466 0.000456406 2.16898e-20)
(1.51495 0.000547744 2.56839e-20)
(1.51548 0.000657004 2.33725e-20)
(1.51608 0.000856188 2.28231e-20)
(1.51686 0.000889413 1.38015e-20)
(1.5173 0.00116892 1.98897e-20)
(1.51784 0.00133796 1.35818e-20)
(1.52077 0.00241004 3.57222e-20)
(1.52147 0.0101951 1.2401e-19)
(1.52552 0.0507503 3.88881e-18)
(0.852291 0.149049 8.44846e-18)
(0.587067 -0.0315335 6.80757e-18)
(0.663088 -0.148512 4.65324e-18)
(0.71223 -0.192094 3.6602e-18)
(0.760951 -0.197101 2.16952e-18)
(0.791178 -0.181789 1.51272e-18)
(0.819865 -0.154604 1.07046e-18)
(0.830799 -0.125097 4.83658e-19)
(0.868692 -0.104874 2.49811e-19)
(0.872159 -0.0828203 9.33779e-20)
(0.902138 -0.0651063 1.66029e-21)
(0.918275 -0.0455837 -8.20582e-20)
(0.928282 -0.0336992 -1.06089e-19)
(0.944219 -0.0242661 -1.14379e-19)
(0.95073 -0.0167813 -2.05029e-19)
(0.968867 -0.0111899 -1.66924e-19)
(0.972624 -0.00836888 -1.35324e-19)
(0.981185 -0.0072463 -1.4211e-19)
(0.985157 -0.00765942 -1.20156e-19)
(0.985679 -0.00919168 -8.78814e-20)
(0.985139 -0.0118992 -3.0609e-20)
(0.984753 -0.0135302 3.69043e-20)
(0.977767 -0.0125121 1.107e-19)
(0.979162 -0.012698 1.43864e-19)
(0.976368 -0.0136095 2.17511e-19)
(0.973476 -0.0125228 2.63945e-19)
(0.975236 -0.0111097 3.45779e-19)
(0.96433 -0.01217 4.14927e-19)
(0.957888 -0.0113504 4.62954e-19)
(0.953675 -0.00511401 5.08762e-19)
(0.924205 0.00179645 5.65931e-19)
(0.899959 0.0182295 5.69938e-19)
(0.837934 0.0383654 5.87456e-19)
(0.760616 0.0683194 5.05751e-19)
(0.659904 0.140458 4.20346e-19)
(0.559538 0.199199 2.7233e-19)
(0.489248 0.24558 1.40012e-19)
(0.448175 0.266856 5.11078e-20)
(0.417689 0.267896 -1.29825e-20)
(0.396229 0.249999 -5.32657e-20)
(0.371978 0.218908 -1.02268e-19)
(0.347418 0.184424 -9.61123e-20)
(0.323216 0.155856 -1.29729e-19)
(0.301225 0.134701 -7.0669e-20)
(0.280547 0.119459 -6.48157e-20)
(0.261601 0.107929 -5.65114e-20)
(0.243626 0.0995393 -4.43575e-20)
(0.226523 0.0929646 -8.32943e-20)
(0.210173 0.0879015 4.75946e-21)
(0.194118 0.0844707 -1.00758e-20)
(0.178687 0.0819752 8.33955e-21)
(0.163715 0.0808477 4.7485e-20)
(0.149142 0.0805732 -2.84983e-19)
(0.13463 0.0823122 7.0571e-20)
(0.119827 0.083291 -2.62693e-19)
(0.105407 0.0877677 -1.28893e-19)
(0.0901755 0.0901903 3.14788e-20)
(0.0754207 0.0955308 -8.79453e-21)
(0.0598582 0.0971478 1.12169e-19)
(0.0452868 0.102406 1.91978e-19)
(0.0294698 0.102481 2.89012e-19)
(0.0172698 0.112259 3.84796e-19)
(1.5001 -2.80773e-08 3.74852e-21)
(1.5001 -2.75952e-07 -1.52732e-22)
(1.50011 -2.79588e-07 -1.26449e-21)
(1.50014 -2.53711e-07 -7.84613e-21)
(1.50017 -1.77024e-07 2.69909e-21)
(1.50021 -1.21463e-07 3.70916e-21)
(1.50027 -5.1887e-08 -6.44928e-21)
(1.50034 -1.39268e-07 1.22799e-20)
(1.50042 2.5416e-09 -2.77581e-21)
(1.50053 -2.1065e-07 -3.5428e-21)
(1.50065 -6.55828e-08 7.60759e-22)
(1.5008 -1.92884e-07 -2.87042e-22)
(1.50097 -1.81825e-07 1.30432e-20)
(1.50117 -2.48047e-07 2.01953e-21)
(1.5014 -7.87971e-08 1.85911e-22)
(1.50166 2.37982e-08 4.20794e-21)
(1.50195 -9.68487e-08 1.07308e-20)
(1.50227 2.65057e-07 8.47876e-21)
(1.50263 6.34426e-07 1.60858e-21)
(1.50301 6.97872e-07 1.64777e-20)
(1.50342 1.3353e-06 1.3009e-20)
(1.50386 2.87537e-06 7.06934e-21)
(1.50433 2.32684e-06 9.21999e-21)
(1.50481 6.9424e-06 1.40841e-20)
(1.5053 5.98266e-06 1.06214e-20)
(1.50584 4.85095e-06 1.28236e-20)
(1.50637 8.15934e-06 1.47532e-20)
(1.50688 9.53798e-06 1.36423e-20)
(1.50744 7.93128e-06 1.35173e-20)
(1.50798 1.16855e-05 1.09719e-20)
(1.50849 1.84944e-05 1.34001e-20)
(1.509 1.84174e-05 1.68604e-20)
(1.50956 1.29498e-05 1.94194e-20)
(1.51007 2.42887e-05 2.02278e-20)
(1.51053 4.8599e-05 1.66742e-20)
(1.51098 4.83851e-05 1.67636e-20)
(1.51148 3.86094e-05 1.81203e-20)
(1.51193 3.79396e-05 1.76643e-20)
(1.51236 6.33332e-05 1.7054e-20)
(1.51275 8.60544e-05 1.72363e-20)
(1.51318 0.000120123 1.71943e-20)
(1.5136 0.000135523 1.69992e-20)
(1.51392 0.000132709 1.74367e-20)
(1.5142 0.000151028 1.83233e-20)
(1.5144 0.00020304 1.86597e-20)
(1.51468 0.000237377 1.8951e-20)
(1.51514 0.000302054 1.55962e-20)
(1.51593 0.000364777 1.24905e-20)
(1.51683 0.000445431 1.13423e-20)
(1.5177 0.000530951 1.15078e-20)
(1.51928 0.000549738 1.52875e-20)
(1.5202 0.000528805 1.45562e-20)
(1.52119 0.000954127 2.02016e-20)
(1.52192 0.00120882 1.65256e-20)
(1.52569 0.000847108 2.35065e-20)
(1.52674 -0.000131193 1.93914e-19)
(1.52753 -0.0127803 2.17146e-18)
(1.16431 -0.00758368 1.01256e-17)
(0.661472 -0.112502 8.98457e-18)
(0.729885 -0.180251 6.08918e-18)
(0.772202 -0.208611 4.66992e-18)
(0.815244 -0.212155 3.07499e-18)
(0.834955 -0.199798 1.90037e-18)
(0.862653 -0.171204 1.29202e-18)
(0.868323 -0.137512 5.83477e-19)
(0.896878 -0.111571 3.07366e-19)
(0.904078 -0.0842218 1.39925e-19)
(0.923735 -0.0661026 2.16111e-20)
(0.940262 -0.0469841 -5.57727e-20)
(0.945199 -0.0349157 -9.79662e-20)
(0.963685 -0.0237717 -1.20465e-19)
(0.966956 -0.0154302 -1.73742e-19)
(0.985616 -0.0115548 -1.68675e-19)
(0.987178 -0.00906729 -1.00858e-19)
(0.993103 -0.00977378 -8.93158e-20)
(0.996703 -0.0103732 -6.86419e-20)
(0.996864 -0.0122294 -4.83307e-20)
(0.993929 -0.0143209 3.68236e-20)
(0.991016 -0.0161222 9.09172e-20)
(0.98426 -0.0146824 1.35691e-19)
(0.983044 -0.0135663 1.6924e-19)
(0.975228 -0.0139742 2.59084e-19)
(0.967675 -0.0121404 2.97116e-19)
(0.966005 -0.00831509 3.49462e-19)
(0.946536 -0.00401813 4.67776e-19)
(0.927552 -0.000570411 4.86519e-19)
(0.910816 0.01269 5.13755e-19)
(0.852515 0.0275826 5.72066e-19)
(0.793073 0.0514588 5.22844e-19)
(0.704607 0.0966262 4.97195e-19)
(0.606676 0.15872 3.44722e-19)
(0.515705 0.217331 2.55749e-19)
(0.454808 0.258751 1.19598e-19)
(0.418539 0.282527 2.53494e-20)
(0.394982 0.291897 -2.23443e-20)
(0.374627 0.28445 -7.18973e-20)
(0.361748 0.263771 -5.57637e-20)
(0.342007 0.235382 -1.49263e-19)
(0.324753 0.201607 -1.58125e-19)
(0.304981 0.173218 -1.24085e-19)
(0.285873 0.151914 -1.4203e-19)
(0.267479 0.13615 -4.26486e-20)
(0.250085 0.123928 -7.59024e-20)
(0.233194 0.114847 -4.02335e-20)
(0.217142 0.107427 -4.43296e-20)
(0.201564 0.101893 -7.1662e-20)
(0.186288 0.0981925 -7.87287e-20)
(0.171687 0.0956046 -1.0926e-21)
(0.15749 0.0945016 -9.49443e-20)
(0.143582 0.0941859 -2.26172e-19)
(0.129751 0.0962162 -1.39632e-19)
(0.115525 0.0972193 4.93711e-20)
(0.10189 0.102089 -2.53806e-19)
(0.0874242 0.104855 -6.88117e-20)
(0.0736729 0.110637 1.11826e-19)
(0.0590171 0.112511 -8.68636e-20)
(0.0455841 0.11821 4.45502e-20)
(0.0307238 0.118611 1.29095e-19)
(0.019915 0.128562 3.69653e-19)
(1.5001 -5.52684e-08 -8.04525e-21)
(1.5001 -2.91348e-07 -2.34615e-21)
(1.50011 -3.13921e-07 -9.44869e-22)
(1.50014 -3.01087e-07 -1.16394e-20)
(1.50017 -1.9425e-07 -8.83316e-21)
(1.50021 -1.26103e-07 1.77866e-21)
(1.50027 -1.2437e-07 1.08667e-20)
(1.50034 -1.35119e-07 -1.08387e-20)
(1.50042 -8.49083e-08 -5.381e-22)
(1.50053 -2.41706e-07 -1.54893e-21)
(1.50065 -1.29949e-07 4.86377e-21)
(1.5008 -2.36236e-07 2.06275e-21)
(1.50097 -1.2639e-07 1.93789e-20)
(1.50117 -3.12997e-07 3.09676e-20)
(1.5014 -2.51921e-08 2.70753e-20)
(1.50166 -1.89212e-07 1.78897e-20)
(1.50195 2.38381e-07 2.14897e-20)
(1.50227 8.18691e-08 1.07955e-20)
(1.50262 8.11588e-07 2.00119e-20)
(1.503 8.6514e-07 2.90297e-20)
(1.50341 1.52613e-06 1.67861e-20)
(1.50385 3.51676e-06 1.24759e-20)
(1.50431 3.41412e-06 2.16701e-20)
(1.5048 5.80301e-06 2.31901e-20)
(1.50531 5.54008e-06 2.42181e-20)
(1.50581 7.23491e-06 1.89901e-20)