/*--------------------------------*- C++ -*----------------------------------*\
| =========                 |                                                 |
| \\      /  F ield         | OpenFOAM: The Open Source CFD Toolbox           |
|  \\    /   O peration     | Version:  2.2.x                                 |
|   \\  /    A nd           | Web:      www.OpenFOAM.org                      |
|    \\/     M anipulation  |                                                 |
\*---------------------------------------------------------------------------*/
FoamFile
{
    version     2.0;
    format      ascii;
    class       volScalarField;
    location    "0.8";
    object      p;
}
// * * * * * * * * * * * * * * * * * * * * * * * * * * * * * * * * * * * * * //

dimensions      [1 -1 -2 0 0 0 0];

internalField   nonuniform List<scalar> 
14161
(
0.2
0.2
0.2
0.2
0.2
0.2
0.2
0.2
0.2
0.2
0.2
0.2
0.2
0.2
0.2
0.2
0.2
0.2
0.2
0.2
0.2
0.2
0.2
0.2
0.2
0.2
0.2
0.578488
1.72988
1.7329
1.74097
1.7504
1.75976
1.76882
1.7775
1.78577
1.79357
1.80089
1.80773
1.81409
1.82001
1.82553
1.83069
1.83553
1.8401
1.84389
1.84785
1.85171
1.85554
1.85935
1.86316
1.86696
1.87075
1.87453
1.87829
1.88204
1.88577
1.88949
1.89318
1.89685
1.9005
1.90412
1.90773
1.91133
1.91491
1.91849
1.92208
1.92568
1.92927
1.93285
1.93643
1.94002
1.94363
1.94725
1.9509
1.95456
1.95826
1.96198
1.96573
1.96951
1.97332
1.97715
1.98101
1.98489
1.98879
1.9927
1.99662
2.00055
2.00448
2.00841
2.01233
2.01623
2.02011
2.02397
2.02778
2.03156
2.03528
2.03894
2.04253
2.04604
2.04945
2.05276
2.05595
2.05901
2.06194
2.06474
2.06739
2.0699
2.07228
2.07453
2.07667
2.0787
2.08062
2.0824
2.08397
2.08522
2.08596
2.08601
2.12865
0.2
0.2
0.2
0.2
0.2
0.2
0.2
0.2
0.2
0.2
0.2
0.2
0.2
0.2
0.2
0.2
0.2
0.2
0.2
0.2
0.2
0.2
0.2
0.2
0.2
0.2
0.2
0.652469
1.70413
1.72247
1.73591
1.74844
1.76034
1.77149
1.78177
1.79114
1.7996
1.80723
1.81412
1.82036
1.82605
1.8313
1.83619
1.84079
1.84517
1.84908
1.85287
1.85666
1.86047
1.86431
1.86819
1.87209
1.87603
1.87998
1.88396
1.88794
1.89193
1.8959
1.89985
1.90377
1.90765
1.91146
1.91522
1.91894
1.9226
1.92621
1.92976
1.93326
1.93675
1.94023
1.94371
1.9472
1.9507
1.95422
1.95776
1.96134
1.96494
1.96858
1.97226
1.97598
1.97973
1.98353
1.98736
1.99122
1.99512
1.99905
2.003
2.00698
2.01097
2.01498
2.019
2.02301
2.02703
2.03103
2.03502
2.03899
2.04292
2.04681
2.05065
2.05442
2.05812
2.06172
2.06522
2.0686
2.07186
2.07497
2.07794
2.08077
2.08347
2.08607
2.08859
2.09109
2.09361
2.09619
2.09884
2.10153
2.10412
2.10643
2.14081
0.2
0.2
0.2
0.2
0.2
0.2
0.2
0.2
0.2
0.2
0.2
0.2
0.2
0.2
0.2
0.2
0.2
0.2
0.2
0.2
0.2
0.2
0.2
0.2
0.2
0.2
0.2
0.603899
1.71409
1.7314
1.74299
1.75341
1.7633
1.7728
1.78186
1.79045
1.7985
1.80599
1.81295
1.81938
1.82531
1.83078
1.8358
1.84039
1.84455
1.84845
1.85218
1.85602
1.85988
1.86376
1.86764
1.87153
1.87543
1.87933
1.88324
1.88715
1.89106
1.89497
1.89887
1.90276
1.90664
1.91052
1.9144
1.91827
1.92213
1.92597
1.92981
1.93364
1.93746
1.94127
1.94507
1.94887
1.95266
1.95645
1.96025
1.96405
1.96787
1.97169
1.97553
1.97938
1.98325
1.98713
1.99103
1.99493
1.99884
2.00276
2.00669
2.01061
2.01453
2.01846
2.02237
2.02628
2.03018
2.03406
2.03793
2.04177
2.04558
2.04935
2.05307
2.05673
2.06033
2.06384
2.06726
2.07057
2.07375
2.07679
2.07968
2.08241
2.08496
2.08734
2.08953
2.09154
2.09338
2.09502
2.09646
2.09765
2.09849
2.09888
2.11694
0.2
0.2
0.2
0.2
0.2
0.2
0.2
0.2
0.2
0.2
0.2
0.2
0.2
0.2
0.2
0.2
0.2
0.2
0.2
0.2
0.2
0.2
0.2
0.2
0.2
0.2
0.2
0.563801
1.72507
1.73844
1.74795
1.75662
1.76495
1.77321
1.78137
1.78937
1.79708
1.80444
1.8114
1.81794
1.82406
1.82977
1.83509
1.84003
1.84461
1.84872
1.8528
1.85684
1.86084
1.86479
1.86872
1.87261
1.87647
1.88031
1.88413
1.88794
1.89174
1.89553
1.89932
1.90313
1.90697
1.9108
1.91463
1.91845
1.92226
1.92606
1.92985
1.93365
1.93745
1.94124
1.94504
1.94885
1.95266
1.95649
1.96032
1.96418
1.96805
1.97194
1.97585
1.97978
1.98373
1.98769
1.99167
1.99566
1.99965
2.00366
2.00766
2.01166
2.01566
2.01964
2.02362
2.02758
2.03153
2.03545
2.03935
2.04321
2.04704
2.05082
2.05454
2.0582
2.06179
2.06528
2.06867
2.07194
2.07507
2.07805
2.08086
2.08348
2.0859
2.0881
2.09007
2.0918
2.09328
2.0945
2.09543
2.09604
2.09626
2.09602
2.11003
0.2
0.2
0.2
0.2
0.2
0.2
0.2
0.2
0.2
0.2
0.2
0.2
0.2
0.2
0.2
0.2
0.2
0.2
0.2
0.2
0.2
0.2
0.2
0.2
0.2
0.2
0.2
0.614385
1.71397
1.72765
1.73942
1.75067
1.76138
1.77151
1.78102
1.78988
1.79808
1.80565
1.81262
1.81905
1.82501
1.83054
1.83571
1.84058
1.84522
1.84924
1.85318
1.85703
1.86084
1.86465
1.86845
1.87225
1.87605
1.87986
1.88368
1.88749
1.89129
1.89508
1.89885
1.90259
1.90629
1.90999
1.91367
1.91734
1.92099
1.92465
1.9283
1.93195
1.93561
1.93928
1.94296
1.94667
1.9504
1.95416
1.95795
1.96178
1.96564
1.96954
1.97348
1.97745
1.98146
1.9855
1.98958
1.99367
1.99779
2.00191
2.00605
2.01019
2.01433
2.01847
2.02259
2.02669
2.03077
2.03482
2.03884
2.04283
2.04676
2.05064
2.05445
2.05819
2.06183
2.06538
2.0688
2.07209
2.07523
2.07819
2.08097
2.08354
2.08588
2.08797
2.08981
2.09138
2.09266
2.09365
2.09431
2.09462
2.09453
2.09398
2.10691
0.2
0.2
0.2
0.2
0.2
0.2
0.2
0.2
0.2
0.2
0.2
0.2
0.2
0.2
0.2
0.2
0.2
0.2
0.2
0.2
0.2
0.2
0.2
0.2
0.2
0.2
0.2
0.586344
1.71849
1.73306
1.74368
1.75374
1.76345
1.77283
1.78183
1.79037
1.79839
1.80589
1.81285
1.8193
1.82528
1.83081
1.83594
1.84069
1.8451
1.84897
1.85287
1.85675
1.86061
1.86445
1.86828
1.8721
1.87592
1.87974
1.88356
1.88737
1.89119
1.89501
1.89882
1.90263
1.90643
1.91021
1.91398
1.91772
1.92145
1.92515
1.92884
1.93252
1.93618
1.93984
1.9435
1.94716
1.95082
1.9545
1.95821
1.96194
1.96569
1.96949
1.97332
1.97718
1.98109
1.98504
1.98902
1.99304
1.99709
2.00117
2.00526
2.00937
2.0135
2.01762
2.02175
2.02587
2.02997
2.03405
2.03811
2.04212
2.04609
2.05001
2.05386
2.05762
2.0613
2.06486
2.0683
2.07159
2.07472
2.07767
2.08041
2.08293
2.08521
2.08722
2.08895
2.0904
2.09153
2.09234
2.09282
2.09292
2.0926
2.09182
2.10439
0.2
0.2
0.2
0.2
0.2
0.2
0.2
0.2
0.2
0.2
0.2
0.2
0.2
0.2
0.2
0.2
0.2
0.2
0.2
0.2
0.2
0.2
0.2
0.2
0.2
0.2
0.2
0.585187
1.71786
1.73176
1.74256
1.75295
1.76296
1.77257
1.78171
1.79033
1.79839
1.80589
1.81284
1.81927
1.82522
1.83073
1.83585
1.84062
1.84506
1.84897
1.85286
1.85672
1.86055
1.86436
1.86816
1.87196
1.87575
1.87954
1.88333
1.88712
1.89091
1.89469
1.89847
1.90223
1.90599
1.90974
1.91347
1.91719
1.92089
1.92458
1.92826
1.93193
1.93559
1.93925
1.94291
1.94657
1.95024
1.95392
1.95762
1.96135
1.9651
1.96889
1.9727
1.97656
1.98044
1.98437
1.98833
1.99233
1.99635
2.0004
2.00448
2.00857
2.01267
2.01679
2.0209
2.02501
2.02911
2.03319
2.03725
2.04127
2.04524
2.04916
2.05301
2.05678
2.06045
2.064
2.06742
2.0707
2.0738
2.07671
2.0794
2.08186
2.08407
2.086
2.08763
2.08895
2.08995
2.09061
2.0909
2.09081
2.09029
2.08929
2.10161
0.2
0.2
0.2
0.2
0.2
0.2
0.2
0.2
0.2
0.2
0.2
0.2
0.2
0.2
0.2
0.2
0.2
0.2
0.2
0.2
0.2
0.2
0.2
0.2
0.2
0.2
0.2
0.577302
1.71761
1.7317
1.74253
1.75297
1.76304
1.77269
1.78185
1.79045
1.79848
1.80593
1.81283
1.81921
1.82511
1.83058
1.83566
1.84038
1.84479
1.84868
1.85254
1.85637
1.86018
1.86397
1.86775
1.87153
1.8753
1.87908
1.88285
1.88662
1.89039
1.89416
1.89792
1.90167
1.90542
1.90915
1.91287
1.91657
1.92026
1.92393
1.92759
1.93124
1.93488
1.93852
1.94216
1.94581
1.94946
1.95313
1.95681
1.96052
1.96426
1.96803
1.97183
1.97567
1.97955
1.98346
1.98741
1.99139
1.9954
1.99944
2.00351
2.00759
2.01169
2.01579
2.0199
2.024
2.02809
2.03217
2.03622
2.04023
2.0442
2.0481
2.05194
2.05569
2.05933
2.06286
2.06625
2.06949
2.07254
2.0754
2.07803
2.08042
2.08255
2.08438
2.0859
2.0871
2.08795
2.08845
2.08856
2.08827
2.08752
2.08629
2.09831
0.2
0.2
0.2
0.2
0.2
0.2
0.2
0.2
0.2
0.2
0.2
0.2
0.2
0.2
0.2
0.2
0.2
0.2
0.2
0.2
0.2
0.2
0.2
0.2
0.2
0.2
0.2
0.565632
1.71761
1.73185
1.74266
1.75311
1.7632
1.77284
1.78197
1.79052
1.79849
1.80587
1.8127
1.81901
1.82485
1.83027
1.8353
1.83998
1.84435
1.8482
1.85204
1.85585
1.85964
1.86341
1.86717
1.87093
1.87468
1.87844
1.88219
1.88594
1.8897
1.89344
1.89719
1.90092
1.90465
1.90836
1.91206
1.91575
1.91942
1.92307
1.92672
1.93035
1.93398
1.9376
1.94122
1.94484
1.94847
1.95212
1.95579
1.95948
1.9632
1.96695
1.97074
1.97456
1.97842
1.98232
1.98626
1.99023
1.99423
1.99827
2.00232
2.0064
2.01049
2.01459
2.01869
2.02279
2.02687
2.03094
2.03498
2.03898
2.04293
2.04682
2.05063
2.05435
2.05797
2.06146
2.06481
2.06799
2.07099
2.07378
2.07634
2.07864
2.08067
2.08239
2.0838
2.08486
2.08555
2.08587
2.08578
2.08527
2.08429
2.0828
2.09441
0.2
0.2
0.2
0.2
0.2
0.2
0.2
0.2
0.2
0.2
0.2
0.2
0.2
0.2
0.2
0.2
0.2
0.2
0.2
0.2
0.2
0.2
0.2
0.2
0.2
0.2
0.2
0.551708
1.71736
1.73185
1.7427
1.75321
1.76333
1.77297
1.78206
1.79054
1.79842
1.80571
1.81245
1.81868
1.82445
1.8298
1.83477
1.83941
1.84374
1.84757
1.85138
1.85517
1.85893
1.86267
1.86641
1.87013
1.87386
1.87759
1.88132
1.88504
1.88877
1.89249
1.89621
1.89992
1.90362
1.90731
1.91098
1.91465
1.91829
1.92193
1.92555
1.92916
1.93276
1.93636
1.93996
1.94357
1.94718
1.95081
1.95446
1.95814
1.96184
1.96558
1.96935
1.97316
1.97701
1.9809
1.98483
1.98879
1.99279
1.99682
2.00087
2.00494
2.00903
2.01313
2.01723
2.02133
2.02541
2.02947
2.0335
2.03749
2.04142
2.04529
2.04908
2.05277
2.05634
2.05979
2.06308
2.0662
2.06913
2.07185
2.07432
2.07653
2.07845
2.08005
2.08132
2.08222
2.08274
2.08287
2.08257
2.08182
2.08057
2.07879
2.0899
0.2
0.2
0.2
0.2
0.2
0.2
0.2
0.2
0.2
0.2
0.2
0.2
0.2
0.2
0.2
0.2
0.2
0.2
0.2
0.2
0.2
0.2
0.2
0.2
0.2
0.2
0.2
0.533955
1.7171
1.73197
1.74286
1.7534
1.76352
1.77312
1.78211
1.79049
1.79824
1.80542
1.81205
1.81818
1.82386
1.82914
1.83405
1.83864
1.84293
1.84672
1.8505
1.85426
1.85799
1.86171
1.86542
1.86912
1.87282
1.87652
1.88022
1.88392
1.88762
1.89132
1.89501
1.89869
1.90236
1.90602
1.90967
1.9133
1.91692
1.92053
1.92412
1.92771
1.93128
1.93486
1.93843
1.94202
1.94561
1.94921
1.95284
1.9565
1.96018
1.9639
1.96766
1.97145
1.97529
1.97917
1.98309
1.98705
1.99105
1.99507
1.99913
2.0032
2.00729
2.01139
2.01549
2.01959
2.02367
2.02773
2.03175
2.03573
2.03965
2.04349
2.04725
2.05091
2.05444
2.05783
2.06107
2.06412
2.06697
2.0696
2.07197
2.07407
2.07587
2.07734
2.07846
2.0792
2.07953
2.07944
2.0789
2.07789
2.07636
2.07426
2.08474
0.2
0.2
0.2
0.2
0.2
0.2
0.2
0.2
0.2
0.2
0.2
0.2
0.2
0.2
0.2
0.2
0.2
0.2
0.2
0.2
0.2
0.2
0.2
0.2
0.2
0.2
0.2
0.511991
1.71683
1.73223
1.74314
1.75368
1.76375
1.77324
1.7821
1.79032
1.79792
1.80495
1.81146
1.81748
1.82307
1.82827
1.83312
1.83764
1.84188
1.84564
1.84939
1.85312
1.85682
1.86051
1.86419
1.86787
1.87154
1.87521
1.87888
1.88255
1.88622
1.88989
1.89355
1.8972
1.90084
1.90447
1.90809
1.91169
1.91528
1.91885
1.92242
1.92598
1.92952
1.93307
1.93662
1.94017
1.94374
1.94732
1.95093
1.95456
1.95822
1.96192
1.96566
1.96944
1.97326
1.97713
1.98105
1.985
1.98899
1.99302
1.99708
2.00115
2.00525
2.00935
2.01346
2.01756
2.02164
2.0257
2.02972
2.03368
2.03759
2.04141
2.04514
2.04875
2.05224
2.05558
2.05875
2.06173
2.0645
2.06703
2.0693
2.07128
2.07294
2.07427
2.07522
2.07577
2.0759
2.07558
2.07479
2.07349
2.07164
2.06919
2.07894
0.2
0.2
0.2
0.2
0.2
0.2
0.2
0.2
0.2
0.2
0.2
0.2
0.2
0.2
0.2
0.2
0.2
0.2
0.2
0.2
0.2
0.2
0.2
0.2
0.2
0.2
0.2
0.485798
1.7164
1.73261
1.7435
1.75399
1.76395
1.77328
1.78195
1.78998
1.7974
1.80426
1.81063
1.81654
1.82203
1.82715
1.83193
1.8364
1.84059
1.84431
1.84803
1.85172
1.8554
1.85906
1.86271
1.86636
1.87
1.87364
1.87728
1.88091
1.88455
1.88818
1.89181
1.89542
1.89903
1.90263
1.90621
1.90978
1.91334
1.91688
1.92042
1.92394
1.92746
1.93098
1.9345
1.93802
1.94156
1.94512
1.94869
1.9523
1.95594
1.95962
1.96334
1.9671
1.97092
1.97477
1.97868
1.98263
1.98662
1.99065
1.99471
1.99879
2.00289
2.00701
2.01112
2.01522
2.01931
2.02337
2.02738
2.03134
2.03523
2.03903
2.04272
2.0463
2.04974
2.05302
2.05612
2.05901
2.06169
2.06412
2.06627
2.06813
2.06965
2.07081
2.07158
2.07194
2.07185
2.07128
2.07021
2.0686
2.06641
2.06358
2.07249
0.2
0.2
0.2
0.2
0.2
0.2
0.2
0.2
0.2
0.2
0.2
0.2
0.2
0.2
0.2
0.2
0.2
0.2
0.2
0.2
0.2
0.2
0.2
0.2
0.2
0.2
0.2
0.454859
1.71571
1.73318
1.74398
1.75433
1.76409
1.77317
1.78159
1.78939
1.7966
1.8033
1.80953
1.81532
1.82072
1.82576
1.83048
1.83489
1.83903
1.84272
1.8464
1.85007
1.85371
1.85734
1.86096
1.86457
1.86818
1.87179
1.87539
1.87899
1.88259
1.88618
1.88977
1.89335
1.89692
1.90048
1.90403
1.90756
1.91108
1.91459
1.91809
1.92159
1.92507
1.92856
1.93205
1.93554
1.93905
1.94258
1.94613
1.94971
1.95333
1.95698
1.96068
1.96443
1.96823
1.97208
1.97597
1.97992
1.98391
1.98794
1.99201
1.9961
2.00021
2.00433
2.00845
2.01257
2.01666
2.02072
2.02473
2.02868
2.03255
2.03633
2.03999
2.04352
2.04691
2.05013
2.05315
2.05597
2.05854
2.06086
2.06289
2.0646
2.06597
2.06696
2.06755
2.06769
2.06736
2.06652
2.06515
2.06321
2.06065
2.05743
2.06539
0.2
0.2
0.2
0.2
0.2
0.2
0.2
0.2
0.2
0.2
0.2
0.2
0.2
0.2
0.2
0.2
0.2
0.2
0.2
0.2
0.2
0.2
0.2
0.2
0.2
0.2
0.2
0.419389
1.71446
1.73388
1.74448
1.75457
1.76402
1.77279
1.78092
1.78847
1.79549
1.80203
1.80812
1.81381
1.81912
1.82409
1.82874
1.8331
1.83719
1.84084
1.84449
1.84812
1.85173
1.85533
1.85891
1.86249
1.86606
1.86963
1.87319
1.87676
1.88032
1.88387
1.88742
1.89096
1.89449
1.89801
1.90151
1.90501
1.9085
1.91197
1.91543
1.91889
1.92234
1.9258
1.92925
1.93272
1.93619
1.93969
1.94321
1.94677
1.95036
1.95399
1.95768
1.96141
1.96519
1.96903
1.97292
1.97686
1.98086
1.98489
1.98896
1.99306
1.99718
2.00132
2.00545
2.00958
2.01368
2.01774
2.02175
2.02569
2.02954
2.0333
2.03693
2.04042
2.04375
2.0469
2.04984
2.05257
2.05504
2.05724
2.05914
2.0607
2.06191
2.06272
2.0631
2.06301
2.06242
2.0613
2.05962
2.05733
2.05437
2.05071
2.05763
0.2
0.2
0.2
0.2
0.2
0.2
0.2
0.2
0.2
0.2
0.2
0.2
0.2
0.2
0.2
0.2
0.2
0.2
0.2
0.2
0.2
0.2
0.2
0.2
0.2
0.2
0.2
0.379442
1.71224
1.73467
1.74488
1.75455
1.76358
1.772
1.77984
1.78716
1.794
1.8004
1.80639
1.81198
1.81722
1.82212
1.82671
1.83101
1.83506
1.83866
1.84229
1.84588
1.84946
1.85302
1.85657
1.86011
1.86364
1.86717
1.87069
1.87422
1.87773
1.88124
1.88475
1.88824
1.89173
1.8952
1.89867
1.90212
1.90557
1.909
1.91243
1.91585
1.91926
1.92268
1.9261
1.92953
1.93298
1.93645
1.93994
1.94347
1.94703
1.95065
1.95431
1.95802
1.96179
1.96562
1.96951
1.97345
1.97744
1.98148
1.98556
1.98968
1.99381
1.99796
2.00211
2.00624
2.01035
2.01442
2.01842
2.02236
2.0262
2.02992
2.03352
2.03696
2.04023
2.04331
2.04618
2.0488
2.05117
2.05324
2.055
2.05641
2.05744
2.05806
2.05822
2.05789
2.05703
2.05561
2.05359
2.05092
2.04756
2.04344
2.04922
0.2
0.2
0.2
0.2
0.2
0.2
0.2
0.2
0.2
0.2
0.2
0.2
0.2
0.2
0.2
0.2
0.2
0.2
0.2
0.2
0.2
0.2
0.2
0.2
0.2
0.2
0.2
0.336602
1.70806
1.73514
1.74481
1.75396
1.76257
1.77066
1.77827
1.78542
1.79214
1.79843
1.80432
1.80984
1.815
1.81984
1.82437
1.82862
1.83261
1.83618
1.83977
1.84333
1.84687
1.8504
1.85391
1.85741
1.8609
1.86439
1.86787
1.87134
1.87481
1.87828
1.88173
1.88518
1.88862
1.89205
1.89547
1.89888
1.90228
1.90567
1.90906
1.91244
1.91582
1.9192
1.92259
1.92598
1.9294
1.93283
1.9363
1.9398
1.94334
1.94693
1.95057
1.95426
1.95802
1.96184
1.96572
1.96967
1.97366
1.97771
1.9818
1.98593
1.99008
1.99424
1.9984
2.00255
2.00667
2.01074
2.01474
2.01867
2.02249
2.02619
2.02975
2.03315
2.03636
2.03936
2.04214
2.04467
2.04692
2.04886
2.05047
2.05172
2.05256
2.05297
2.0529
2.05232
2.05118
2.04944
2.04706
2.044
2.0402
2.03559
2.04016
0.2
0.2
0.2
0.2
0.2
0.2
0.2
0.2
0.2
0.2
0.2
0.2
0.2
0.2
0.2
0.2
0.2
0.2
0.2
0.2
0.2
0.2
0.2
0.2
0.2
0.2
0.2
0.293117
1.7005
1.73479
1.74387
1.75255
1.76085
1.76875
1.77623
1.78329
1.78992
1.79613
1.80195
1.80739
1.81248
1.81725
1.82171
1.82591
1.82985
1.83338
1.83693
1.84046
1.84397
1.84745
1.85093
1.85439
1.85784
1.86128
1.86471
1.86814
1.87156
1.87497
1.87838
1.88177
1.88516
1.88854
1.89191
1.89528
1.89863
1.90198
1.90532
1.90866
1.912
1.91534
1.91869
1.92206
1.92544
1.92884
1.93227
1.93574
1.93926
1.94283
1.94645
1.95013
1.95388
1.95769
1.96157
1.96551
1.96951
1.97356
1.97767
1.98181
1.98597
1.99015
1.99433
1.99849
2.00262
2.00669
2.0107
2.01461
2.01842
2.02209
2.02561
2.02895
2.0321
2.03503
2.03772
2.04014
2.04227
2.04407
2.04553
2.0466
2.04726
2.04745
2.04714
2.04629
2.04485
2.04278
2.04003
2.03655
2.03229
2.02718
2.03044
0.2
0.2
0.2
0.2
0.2
0.2
0.2
0.2
0.2
0.2
0.2
0.2
0.2
0.2
0.2
0.2
0.2
0.2
0.2
0.2
0.2
0.2
0.2
0.2
0.2
0.2
0.2
0.252757
1.68747
1.733
1.74175
1.75026
1.75849
1.76636
1.77381
1.78081
1.78738
1.79352
1.79926
1.80463
1.80964
1.81434
1.81875
1.82288
1.82677
1.83025
1.83377
1.83727
1.84074
1.84419
1.84762
1.85104
1.85444
1.85783
1.86122
1.86459
1.86796
1.87132
1.87467
1.87801
1.88135
1.88467
1.88799
1.8913
1.89461
1.89791
1.90121
1.90451
1.90781
1.91111
1.91442
1.91775
1.92109
1.92446
1.92787
1.93131
1.9348
1.93834
1.94194
1.94561
1.94934
1.95315
1.95702
1.96096
1.96497
1.96904
1.97315
1.97731
1.98149
1.98568
1.98988
1.99405
1.99819
2.00227
2.00627
2.01018
2.01396
2.01761
2.02109
2.02438
2.02746
2.03031
2.0329
2.03521
2.03721
2.03887
2.04017
2.04106
2.04151
2.04148
2.04092
2.03979
2.03804
2.03562
2.03248
2.02857
2.02383
2.01819
2.02008
0.2
0.2
0.2
0.2
0.2
0.2
0.2
0.2
0.2
0.2
0.2
0.2
0.2
0.2
0.2
0.2
0.2
0.2
0.2
0.2
0.2
0.2
0.2
0.2
0.2
0.2
0.2
0.220536
1.66646
1.72959
1.73865
1.74736
1.75573
1.76365
1.7711
1.77806
1.78456
1.79062
1.79627
1.80155
1.80649
1.81111
1.81545
1.81953
1.82336
1.8268
1.83029
1.83375
1.83718
1.84059
1.84398
1.84736
1.85071
1.85406
1.85739
1.86071
1.86401
1.86731
1.87061
1.87389
1.87717
1.88044
1.8837
1.88696
1.89022
1.89347
1.89672
1.89997
1.90323
1.90649
1.90977
1.91305
1.91636
1.9197
1.92307
1.92649
1.92995
1.93347
1.93705
1.9407
1.94442
1.94822
1.95209
1.95604
1.96005
1.96412
1.96825
1.97242
1.97662
1.98083
1.98504
1.98922
1.99337
1.99746
2.00146
2.00535
2.00912
2.01273
2.01616
2.0194
2.02241
2.02517
2.02767
2.02986
2.03173
2.03325
2.03438
2.03508
2.03533
2.03506
2.03424
2.03282
2.03074
2.02795
2.02441
2.02006
2.01482
2.00863
2.00909
0.2
0.2
0.2
0.2
0.2
0.2
0.2
0.2
0.2
0.2
0.2
0.2
0.2
0.2
0.2
0.2
0.2
0.2
0.2
0.2
0.2
0.2
0.2
0.2
0.2
0.2
0.2
0.202099
1.63492
1.72556
1.73528
1.74429
1.75278
1.76073
1.76814
1.77504
1.78145
1.78742
1.79298
1.79817
1.80302
1.80757
1.81184
1.81586
1.81964
1.82303
1.82649
1.82992
1.83331
1.83668
1.84003
1.84336
1.84666
1.84995
1.85322
1.85648
1.85973
1.86297
1.8662
1.86942
1.87263
1.87584
1.87904
1.88225
1.88545
1.88865
1.89185
1.89506
1.89827
1.90149
1.90472
1.90797
1.91124
1.91455
1.91789
1.92127
1.92471
1.9282
1.93177
1.9354
1.93911
1.9429
1.94677
1.95071
1.95473
1.95881
1.96295
1.96714
1.97135
1.97558
1.9798
1.984
1.98816
1.99224
1.99624
2.00012
2.00386
2.00744
2.01083
2.01401
2.01695
2.01962
2.02202
2.02409
2.02583
2.02719
2.02815
2.02866
2.02868
2.02817
2.02708
2.02535
2.02294
2.01978
2.01582
2.011
2.00525
1.99849
1.99746
0.2
0.2
0.2
0.2
0.2
0.2
0.2
0.2
0.2
0.2
0.2
0.2
0.2
0.2
0.2
0.2
0.2
0.2
0.2
0.2
0.2
0.2
0.2
0.2
0.2
0.2
0.2
0.20013
1.59144
1.72195
1.73201
1.74114
1.74967
1.7576
1.76494
1.77175
1.77806
1.78392
1.78937
1.79447
1.79924
1.80371
1.80792
1.81188
1.81561
1.81895
1.82238
1.82577
1.82914
1.83247
1.83577
1.83904
1.84229
1.84552
1.84874
1.85193
1.85511
1.85828
1.86144
1.86459
1.86774
1.87088
1.87402
1.87717
1.88031
1.88346
1.88661
1.88976
1.89293
1.8961
1.89929
1.9025
1.90574
1.90901
1.91231
1.91567
1.91908
1.92255
1.92609
1.92971
1.93341
1.93719
1.94105
1.945
1.94902
1.95311
1.95726
1.96145
1.96568
1.96992
1.97416
1.97837
1.98253
1.98662
1.99061
1.99448
1.99819
2.00173
2.00508
2.00819
2.01106
2.01365
2.01593
2.01789
2.01948
2.02069
2.02147
2.02177
2.02157
2.02081
2.01944
2.0174
2.01463
2.01109
2.00669
2.0014
1.99512
1.98778
1.9852
0.2
0.2
0.2
0.2
0.2
0.2
0.2
0.2
0.2
0.2
0.2
0.2
0.2
0.2
0.2
0.2
0.2
0.2
0.2
0.2
0.2
0.2
0.2
0.2
0.2
0.2
0.2
0.200009
1.5415
1.71831
1.72859
1.7378
1.74634
1.75422
1.76149
1.76818
1.77437
1.78012
1.78547
1.79047
1.79516
1.79957
1.80372
1.80762
1.8113
1.81459
1.81799
1.82136
1.82468
1.82797
1.83122
1.83444
1.83764
1.8408
1.84394
1.84707
1.85017
1.85327
1.85635
1.85943
1.86251
1.86558
1.86865
1.87173
1.87481
1.87789
1.88099
1.88409
1.8872
1.89033
1.89348
1.89665
1.89984
1.90308
1.90635
1.90967
1.91305
1.9165
1.92002
1.92362
1.92731
1.93108
1.93493
1.93888
1.9429
1.947
1.95116
1.95536
1.9596
1.96386
1.9681
1.97232
1.97649
1.98057
1.98456
1.9884
1.9921
1.9956
1.99889
2.00194
2.00473
2.00723
2.00941
2.01124
2.01269
2.01373
2.01432
2.01443
2.01399
2.01297
2.01131
2.00894
2.00582
2.00187
1.99704
1.99125
1.98443
1.9765
1.97234
0.2
0.2
0.2
0.2
0.2
0.2
0.2
0.2
0.2
0.2
0.2
0.2
0.2
0.2
0.2
0.2
0.2
0.2
0.2
0.2
0.2
0.2
0.2
0.2
0.2
0.2
0.2
0.200001
1.4852
1.7144
1.72497
1.73426
1.74281
1.75062
1.75777
1.76434
1.7704
1.77603
1.78128
1.78621
1.79083
1.79518
1.79927
1.80313
1.80676
1.81
1.81337
1.8167
1.81999
1.82323
1.82643
1.82959
1.83271
1.8358
1.83887
1.84192
1.84494
1.84795
1.85095
1.85395
1.85694
1.85994
1.86294
1.86594
1.86895
1.87197
1.875
1.87805
1.88111
1.88418
1.88728
1.89041
1.89356
1.89676
1.89999
1.90329
1.90664
1.91006
1.91356
1.91714
1.92081
1.92457
1.92842
1.93236
1.93638
1.94048
1.94464
1.94886
1.95311
1.95737
1.96163
1.96585
1.97002
1.9741
1.97807
1.9819
1.98556
1.98903
1.99227
1.99525
1.99796
2.00036
2.00243
2.00413
2.00544
2.00631
2.00672
2.00661
2.00593
2.00464
2.00268
1.99999
1.99649
1.99213
1.98684
1.98056
1.97319
1.96465
1.95888
0.2
0.2
0.2
0.2
0.2
0.2
0.2
0.2
0.2
0.2
0.2
0.2
0.2
0.2
0.2
0.2
0.2
0.2
0.2
0.2
0.2
0.2
0.2
0.2
0.2
0.2
0.2
0.2
1.42192
1.7102
1.72117
1.73057
1.73909
1.7468
1.75382
1.76024
1.76618
1.77171
1.77688
1.78174
1.78631
1.79061
1.79466
1.79847
1.80206
1.80523
1.80858
1.81187
1.8151
1.81829
1.82142
1.82451
1.82755
1.83056
1.83354
1.83649
1.83943
1.84234
1.84525
1.84815
1.85106
1.85396
1.85688
1.8598
1.86274
1.86568
1.86865
1.87163
1.87463
1.87765
1.8807
1.88378
1.88689
1.89005
1.89325
1.89651
1.89983
1.90323
1.9067
1.91026
1.91391
1.91766
1.9215
1.92543
1.92945
1.93355
1.93772
1.94194
1.94619
1.95046
1.95472
1.95894
1.96311
1.96719
1.97114
1.97495
1.97858
1.982
1.98519
1.98811
1.99074
1.99304
1.995
1.99657
1.99772
1.99843
1.99864
1.99831
1.99739
1.99583
1.99356
1.99052
1.98665
1.98187
1.97611
1.96932
1.96139
1.95224
1.94482
0.2
0.2
0.2
0.2
0.2
0.2
0.2
0.2
0.2
0.2
0.2
0.2
0.2
0.2
0.2
0.2
0.2
0.2
0.2
0.2
0.2
0.2
0.2
0.2
0.2
0.2
0.2
0.2
1.35069
1.70577
1.71727
1.72677
1.73524
1.74281
1.74967
1.75596
1.76179
1.76725
1.77237
1.77719
1.78173
1.78599
1.79
1.79376
1.79729
1.8004
1.80369
1.80693
1.8101
1.8132
1.81625
1.81925
1.82219
1.8251
1.82797
1.83081
1.83364
1.83644
1.83924
1.84204
1.84484
1.84765
1.85047
1.8533
1.85615
1.85902
1.86191
1.86483
1.86776
1.87073
1.87372
1.87675
1.87982
1.88294
1.88611
1.88933
1.89263
1.896
1.89945
1.90299
1.90662
1.91035
1.91418
1.9181
1.92211
1.92621
1.93037
1.93459
1.93885
1.94312
1.94738
1.9516
1.95576
1.95983
1.96377
1.96756
1.97115
1.97453
1.97766
1.98051
1.98306
1.98526
1.9871
1.98854
1.98954
1.99007
1.99008
1.98953
1.98836
1.98651
1.98393
1.98054
1.97628
1.97107
1.96485
1.95753
1.94904
1.93926
1.93019
0.2
0.2
0.2
0.2
0.2
0.2
0.2
0.2
0.2
0.2
0.2
0.2
0.2
0.2
0.2
0.2
0.2
0.2
0.2
0.2
0.2
0.2
0.2
0.2
0.2
0.2
0.2
0.2
1.27017
1.70135
1.71346
1.72302
1.73134
1.73874
1.74544
1.75163
1.75741
1.76284
1.76795
1.77275
1.77726
1.78149
1.78544
1.78913
1.79258
1.79558
1.7988
1.80194
1.805
1.808
1.81093
1.8138
1.81662
1.8194
1.82214
1.82485
1.82754
1.83022
1.8329
1.83558
1.83826
1.84096
1.84368
1.84642
1.84918
1.85196
1.85478
1.85762
1.8605
1.8634
1.86635
1.86933
1.87236
1.87543
1.87857
1.88176
1.88502
1.88837
1.89179
1.89531
1.89892
1.90263
1.90645
1.91036
1.91436
1.91844
1.9226
1.92682
1.93107
1.93534
1.9396
1.94382
1.94797
1.95202
1.95595
1.95971
1.96327
1.9666
1.96968
1.97246
1.97492
1.97702
1.97874
1.98004
1.98089
1.98124
1.98104
1.98026
1.97883
1.9767
1.9738
1.97005
1.9654
1.95975
1.95305
1.9452
1.93613
1.92574
1.915
0.2
0.2
0.2
0.2
0.2
0.2
0.2
0.2
0.2
0.2
0.2
0.2
0.2
0.2
0.2
0.2
0.2
0.2
0.2
0.2
0.2
0.2
0.2
0.2
0.2
0.2
0.2
0.2
1.17833
1.69743
1.71005
1.71951
1.72761
1.73481
1.74142
1.74758
1.75337
1.75881
1.76391
1.76869
1.77314
1.77728
1.78112
1.78469
1.78799
1.79082
1.79389
1.79688
1.79979
1.80262
1.80539
1.80809
1.81075
1.81336
1.81595
1.81851
1.82106
1.8236
1.82614
1.8287
1.83127
1.83386
1.83647
1.83911
1.84179
1.84449
1.84723
1.85001
1.85282
1.85567
1.85857
1.8615
1.86449
1.86753
1.87063
1.87379
1.87703
1.88034
1.88374
1.88723
1.89082
1.89452
1.89831
1.9022
1.90619
1.91026
1.91441
1.91862
1.92287
1.92713
1.93138
1.93559
1.93973
1.94377
1.94767
1.9514
1.95493
1.95822
1.96123
1.96394
1.96631
1.96832
1.96992
1.97108
1.97176
1.97193
1.97153
1.97051
1.96882
1.96639
1.96316
1.95905
1.95399
1.94791
1.94072
1.93234
1.92269
1.91167
1.89926
0.2
0.2
0.2
0.2
0.2
0.2
0.2
0.2
0.2
0.2
0.2
0.2
0.2
0.2
0.2
0.2
0.2
0.2
0.2
0.2
0.2
0.2
0.2
0.2
0.2
0.2
0.2
0.2
1.07207
1.69498
1.7076
1.71669
1.72448
1.73155
1.73814
1.74433
1.75014
1.75556
1.76058
1.76521
1.76948
1.7734
1.777
1.78032
1.78338
1.78594
1.78878
1.79154
1.79423
1.79684
1.79941
1.80192
1.80439
1.80683
1.80926
1.81167
1.81407
1.81649
1.81891
1.82135
1.82381
1.8263
1.82883
1.83138
1.83397
1.8366
1.83927
1.84199
1.84474
1.84754
1.85038
1.85328
1.85622
1.85923
1.86229
1.86542
1.86863
1.87192
1.87529
1.87876
1.88233
1.886
1.88977
1.89364
1.89761
1.90167
1.9058
1.91
1.91423
1.91848
1.92272
1.92692
1.93105
1.93507
1.93894
1.94265
1.94613
1.94937
1.95233
1.95496
1.95725
1.95915
1.96062
1.96164
1.96216
1.96214
1.96153
1.96027
1.95831
1.95558
1.95202
1.94754
1.94207
1.93554
1.92785
1.91894
1.90871
1.89706
1.88298
0.2
0.2
0.2
0.2
0.2
0.2
0.2
0.2
0.2
0.2
0.2
0.2
0.2
0.2
0.2
0.2
0.2
0.2
0.2
0.2
0.2
0.2
0.2
0.2
0.2
0.2
0.2
0.2
0.946599
1.69577
1.70711
1.71546
1.72288
1.72982
1.73636
1.74245
1.74807
1.75319
1.75785
1.76207
1.7659
1.76938
1.77257
1.7755
1.7782
1.78042
1.78298
1.78548
1.78792
1.79033
1.7927
1.79504
1.79735
1.79966
1.80195
1.80425
1.80655
1.80886
1.81119
1.81354
1.81591
1.81832
1.82076
1.82324
1.82576
1.82832
1.83092
1.83357
1.83627
1.83902
1.84181
1.84466
1.84757
1.85054
1.85357
1.85667
1.85985
1.86311
1.86646
1.8699
1.87344
1.87708
1.88083
1.88468
1.88863
1.89266
1.89678
1.90095
1.90517
1.9094
1.91363
1.91781
1.92192
1.92592
1.92977
1.93344
1.93689
1.94007
1.94297
1.94553
1.94772
1.94951
1.95086
1.95174
1.95209
1.95188
1.95105
1.94955
1.94731
1.94428
1.94037
1.93551
1.92963
1.92264
1.91447
1.90502
1.89421
1.88193
1.86619
0.2
0.2
0.2
0.2
0.2
0.2
0.2
0.2
0.2
0.2
0.2
0.2
0.2
0.2
0.2
0.2
0.2
0.2
0.2
0.2
0.2
0.2
0.2
0.2
0.2
0.2
0.2
0.2
0.795787
1.70215
1.71017
1.71714
1.72382
1.73022
1.73616
1.74156
1.74639
1.75071
1.75458
1.75807
1.76124
1.76415
1.76685
1.76936
1.77172
1.77367
1.77601
1.77833
1.78063
1.78291
1.78517
1.78742
1.78965
1.79188
1.7941
1.79633
1.79856
1.8008
1.80306
1.80534
1.80764
1.80997
1.81234
1.81474
1.81719
1.81968
1.82222
1.8248
1.82744
1.83013
1.83287
1.83568
1.83854
1.84147
1.84447
1.84754
1.85069
1.85392
1.85724
1.86065
1.86416
1.86778
1.8715
1.87532
1.87924
1.88325
1.88734
1.89149
1.89569
1.8999
1.90411
1.90827
1.91236
1.91633
1.92015
1.92379
1.92719
1.93033
1.93315
1.93564
1.93774
1.93942
1.94064
1.94137
1.94155
1.94114
1.94009
1.93834
1.93582
1.93247
1.92822
1.92298
1.91668
1.90924
1.90056
1.89058
1.87919
1.86628
1.8489
0.2
0.2
0.2
0.2
0.2
0.2
0.2
0.2
0.2
0.2
0.2
0.2
0.2
0.2
0.2
0.2
0.2
0.2
0.2
0.2
0.2
0.2
0.2
0.2
0.2
0.2
0.2
0.2
0.617142
1.71414
1.71719
1.72127
1.72594
1.7306
1.73494
1.73889
1.74247
1.74576
1.74881
1.75166
1.75435
1.7569
1.75932
1.76163
1.76384
1.76569
1.76801
1.77031
1.77259
1.77486
1.7771
1.77933
1.78154
1.78373
1.78591
1.78809
1.79027
1.79245
1.79464
1.79684
1.79907
1.80133
1.80361
1.80594
1.8083
1.81072
1.81318
1.81569
1.81826
1.82089
1.82358
1.82634
1.82915
1.83204
1.835
1.83804
1.84115
1.84435
1.84764
1.85103
1.85451
1.8581
1.86178
1.86558
1.86947
1.87345
1.87751
1.88163
1.8858
1.88999
1.89417
1.89831
1.90237
1.90632
1.91011
1.9137
1.91706
1.92014
1.9229
1.9253
1.92731
1.92888
1.92997
1.93054
1.93054
1.92993
1.92865
1.92664
1.92384
1.92018
1.91557
1.90995
1.90323
1.89532
1.88615
1.87562
1.86365
1.85013
1.83112
0.2
0.2
0.2
0.2
0.2
0.2
0.2
0.2
0.2
0.2
0.2
0.2
0.2
0.2
0.2
0.2
0.2
0.2
0.2
0.2
0.2
0.2
0.2
0.2
0.2
0.2
0.2
0.2
0.426366
1.71871
1.7203
1.72026
1.72229
1.72513
1.72823
1.73136
1.73444
1.73744
1.74034
1.74314
1.74581
1.74838
1.75083
1.75316
1.75539
1.75726
1.75966
1.76202
1.76434
1.76662
1.76887
1.77108
1.77327
1.77543
1.77756
1.77968
1.78179
1.7839
1.78601
1.78813
1.79027
1.79243
1.79462
1.79685
1.79913
1.80145
1.80382
1.80626
1.80876
1.81132
1.81394
1.81664
1.81941
1.82225
1.82517
1.82817
1.83126
1.83443
1.83769
1.84104
1.84449
1.84805
1.8517
1.85546
1.85932
1.86326
1.86729
1.87139
1.87553
1.87968
1.88384
1.88794
1.89197
1.89589
1.89964
1.90319
1.9065
1.90952
1.91221
1.91453
1.91644
1.91789
1.91884
1.91925
1.91908
1.91826
1.91675
1.91448
1.91139
1.9074
1.90244
1.89642
1.88927
1.8809
1.87123
1.86017
1.84762
1.83348
1.81288
0.2
0.2
0.2
0.2
0.2
0.2
0.2
0.2
0.2
0.2
0.2
0.2
0.2
0.2
0.2
0.2
0.2
0.2
0.2
0.2
0.2
0.2
0.2
0.2
0.2
0.2
0.2
0.2
0.265851
1.6809
1.70453
1.70604
1.70947
1.71344
1.71742
1.72123
1.72483
1.72822
1.73142
1.73443
1.73727
1.73995
1.74248
1.74488
1.74714
1.74901
1.75147
1.75386
1.75619
1.75847
1.76069
1.76286
1.765
1.76709
1.76915
1.77118
1.7732
1.7752
1.77721
1.77922
1.78124
1.78329
1.78537
1.78749
1.78965
1.79187
1.79415
1.7965
1.79891
1.8014
1.80396
1.8066
1.80932
1.81212
1.815
1.81796
1.82101
1.82415
1.82738
1.8307
1.83412
1.83764
1.84127
1.84499
1.84881
1.85272
1.85671
1.86077
1.86487
1.869
1.87311
1.87719
1.88118
1.88505
1.88877
1.89227
1.89552
1.89848
1.9011
1.90333
1.90513
1.90646
1.90728
1.90753
1.90716
1.90613
1.90438
1.90185
1.89846
1.89414
1.88882
1.88241
1.87483
1.86599
1.85582
1.84422
1.83111
1.81636
1.79419
0.2
0.2
0.2
0.2
0.2
0.2
0.2
0.2
0.2
0.2
0.2
0.2
0.2
0.2
0.2
0.2
0.2
0.2
0.2
0.2
0.2
0.2
0.2
0.2
0.2
0.2
0.2
0.2
0.203898
1.56954
1.68037
1.6894
1.69672
1.70274
1.70781
1.71224
1.71622
1.71987
1.72326
1.72642
1.72938
1.73215
1.73474
1.73717
1.73945
1.74127
1.74372
1.74608
1.74836
1.75056
1.7527
1.75477
1.75678
1.75875
1.76068
1.76258
1.76445
1.76632
1.76818
1.77004
1.77193
1.77384
1.77579
1.77779
1.77984
1.78195
1.78413
1.78639
1.78872
1.79114
1.79363
1.79621
1.79888
1.80164
1.80448
1.80741
1.81043
1.81354
1.81674
1.82003
1.82343
1.82692
1.8305
1.83419
1.83797
1.84184
1.84579
1.84981
1.85387
1.85795
1.86203
1.86606
1.87001
1.87384
1.8775
1.88095
1.88415
1.88704
1.88957
1.89171
1.89341
1.89461
1.89528
1.89536
1.8948
1.89356
1.89156
1.88875
1.88506
1.88041
1.87472
1.86791