/*--------------------------------*- C++ -*----------------------------------*\
| =========                 |                                                 |
| \\      /  F ield         | OpenFOAM: The Open Source CFD Toolbox           |
|  \\    /   O peration     | Version:  2.2.x                                 |
|   \\  /    A nd           | Web:      www.OpenFOAM.org                      |
|    \\/     M anipulation  |                                                 |
\*---------------------------------------------------------------------------*/
FoamFile
{
    version     2.0;
    format      ascii;
    class       surfaceScalarField;
    location    "0.2";
    object      phi;
}
// * * * * * * * * * * * * * * * * * * * * * * * * * * * * * * * * * * * * * //

dimensions      [1 0 -1 0 0 0 0];

internalField   nonuniform List<scalar> 
28084
(
0.00174119
0.00173364
0.00172716
0.00172171
0.00171724
0.0017137
0.00171103
0.00170917
0.00170807
0.00170766
0.00170788
0.00170867
0.00170996
0.00171169
0.0017138
0.00171622
0.0017189
0.00172179
0.00172482
0.00172796
0.00173114
0.00173433
0.00173749
0.00174057
0.00174355
0.00174639
0.00174907
0.00175155
0.00175382
0.00175585
0.00175764
0.00175915
0.00176039
0.00176133
0.00176197
0.00176229
0.00176229
0.00176197
0.00176131
0.00176031
0.00175896
0.00175727
0.00175521
0.00175279
0.00175
0.00177156
0.00179394
0.00181704
0.00184076
0.00186499
0.00188962
0.00191455
0.00193966
0.00196485
0.00199
0.002015
0.00203973
0.00206409
0.00208795
0.0021112
0.00213373
0.00215544
0.00217622
0.00219626
0.00213766
0.0020921
0.00208487
0.00209293
0.00206966
0.00202855
0.00199378
0.00197862
0.00197541
0.00197085
0.0019588
0.00193899
0.00191814
0.00188891
0.00185282
0.00181157
0.00177141
0.00173827
0.00171492
0.00169194
0.00166395
0.00163154
0.00159427
0.00155284
0.00150987
0.00146641
0.00142021
0.00137228
0.00131881
0.00126811
0.00122697
0.00119644
0.0011756
0.00115659
0.00113504
0.00110311
0.00106291
0.0010254
0.000995076
0.000973376
0.000958184
0.000946622
0.000937202
0.000928291
0.000917662
0.000903607
0.000880209
0.000846218
0.000809275
0.0007657
0.000718395
0.000651796
0.000528006
0.00031315
8.66109e-06
7.54863e-06
0.00174939
6.47668e-06
0.00174716
5.44921e-06
0.00174594
4.47006e-06
0.00174568
3.54277e-06
0.00174633
2.67052e-06
0.00174786
1.85605e-06
0.0017502
1.10164e-06
0.0017533
4.09011e-07
0.00175709
-2.20687e-07
0.00176151
-7.86861e-07
0.00176649
-1.2895e-06
0.00177197
-1.72913e-06
0.00177786
-2.10681e-06
0.00178412
-2.42407e-06
0.00179066
-2.68288e-06
0.00179743
-2.88556e-06
0.00180435
-3.03476e-06
0.00181137
-3.13337e-06
0.00181842
-3.18447e-06
0.00182546
-3.19125e-06
0.00183243
-3.15699e-06
0.00183929
-3.08497e-06
0.00184598
-2.97845e-06
0.00185247
-2.84059e-06
0.00185872
-2.67445e-06
0.0018647
-2.48295e-06
0.00187039
-2.26884e-06
0.00187574
-2.03466e-06
0.00188075
-1.78276e-06
0.00188539
-1.5153e-06
0.00188965
-1.23418e-06
0.0018935
-9.41099e-07
0.00189695
-6.37555e-07
0.00189998
-3.24805e-07
0.00190257
-3.92175e-09
0.00190474
3.24238e-07
0.00190646
6.58997e-07
0.00190773
9.99864e-07
0.00190855
1.34651e-06
0.00190892
1.69876e-06
0.00190884
2.05661e-06
0.00190829
2.42016e-06
0.00190729
2.78967e-06
0.00190582
-2.15602e-05
0.00190388
-2.23806e-05
0.00192428
-2.31001e-05
0.00194544
-2.37167e-05
0.00196727
-2.42283e-05
0.00198966
-2.4633e-05
0.0020125
-2.4929e-05
0.00203569
-2.51148e-05
0.00205913
-2.51891e-05
0.0020827
-2.51506e-05
0.00210629
-2.49987e-05
0.0021298
-2.47328e-05
0.0021531
-2.43529e-05
0.00217609
-2.38594e-05
0.00219866
-2.32531e-05
0.00222068
-2.25354e-05
0.00224207
-2.17082e-05
0.00226269
-2.0774e-05
0.00228245
-1.98053e-05
0.00230125
-0.000117329
0.00231942
1.11351e-05
0.00190974
1.19222e-05
0.00187788
2.589e-05
0.00189748
2.56573e-05
0.00193709
1.91543e-05
0.00193383
8.89302e-06
0.00189861
7.11592e-06
0.00182724
1.26424e-05
0.0017827
2.07258e-05
0.00176659
2.50562e-05
0.00176005
3.0668e-05
0.00176021
2.60599e-05
0.00174444
2.33517e-05
0.00170641
2.69525e-05
0.0016576
3.35295e-05
0.00161292
3.47188e-05
0.00157534
3.27294e-05
0.00154446
3.44413e-05
0.00151672
3.37664e-05
0.00148637
3.56866e-05
0.00145566
3.81458e-05
0.00142659
3.92752e-05
0.00139696
3.89889e-05
0.00136344
3.86243e-05
0.00132349
3.83359e-05
0.0012792
3.87701e-05
0.00123466
3.91817e-05
0.00118926
3.83836e-05
0.00114332
3.74329e-05
0.00109273
3.64096e-05
0.00104385
3.57717e-05
0.00100619
3.49066e-05
0.00097989
3.36898e-05
0.000964949
3.11862e-05
0.000952922
3.02631e-05
0.000939196
2.93296e-05
0.000917625
2.58549e-05
0.000877029
2.52858e-05
0.000829297
2.41033e-05
0.000789617
2.24751e-05
0.000758627
2.02409e-05
0.000733492
1.79107e-05
0.000710252
1.57837e-05
0.000686706
1.33131e-05
0.000661434
1.218e-05
0.000632366
1.3543e-05
0.000599066
1.62994e-05
0.000557752
1.89737e-05
0.000511429
2.65968e-05
0.000465303
4.41573e-05
0.000418904
7.76826e-05
0.000377973
0.00013774
0.000334779
0.000219112
0.000269874
0.000297233
0.000148105
1.19281e-05
9.77838e-06
0.00176035
7.7027e-06
0.00176337
5.71085e-06
0.00176733
3.81222e-06
0.00177219
2.01555e-06
0.00177791
3.28676e-07
0.00178445
-1.24153e-06
0.00179175
-2.68939e-06
0.00179974
-4.01043e-06
0.00180837
-5.20151e-06
0.00181756
-6.26081e-06
0.00182725
-7.1878e-06
0.00183736
-7.98325e-06
0.00184782
-8.6491e-06
0.00185855
-9.1884e-06
0.00186948
-9.60519e-06
0.00188053
-9.90436e-06
0.00189165
-1.00915e-05
0.00190276
-1.01728e-05
0.00191379
-1.01549e-05
0.0019247
-1.00447e-05
0.00193541
-9.84932e-06
0.00194589
-9.57582e-06
0.00195608
-9.2313e-06
0.00196594
-8.82267e-06
0.00197543
-8.35657e-06
0.00198452
-7.83937e-06
0.00199318
-7.27704e-06
0.00200138
-6.67513e-06
0.00200909
-6.03876e-06
0.00201631
-5.37258e-06
0.00202301
-4.68076e-06
0.00202919
-3.96698e-06
0.00203482
-3.23445e-06
0.00203991
-2.4859e-06
0.00204444
-1.72362e-06
0.00204842
-9.49449e-07
0.00205184
-1.64815e-07
0.00205469
6.29244e-07
0.00205698
1.43206e-06
0.0020587
2.24332e-06
0.00205986
3.06302e-06
0.00206046
3.89146e-06
0.00206049
4.72922e-06
0.00205996
-4.19603e-05
0.00205886
-4.35447e-05
0.00207808
-4.49276e-05
0.00209801
-4.61048e-05
0.00211855
-4.70727e-05
0.00213959
-4.78274e-05
0.00216103
-4.83657e-05
0.00218277
-4.86845e-05
0.00220469
-4.87814e-05
0.0022267
-4.86543e-05
0.00224867
-4.83017e-05
0.00227051
-4.77229e-05
0.0022921
-4.69181e-05
0.00231333
-4.5888e-05
0.00233409
-4.46345e-05
0.00235427
-4.31605e-05
0.00237376
-4.14701e-05
0.00239245
-3.95681e-05
0.00241025
-3.77759e-05
0.00242705
0.000114855
0.0024427
-4.7597e-06
0.00248029
1.99494e-05
0.00238435
2.32015e-05
0.00234969
2.7297e-05
0.00233405
3.1315e-05
0.00229504
3.29856e-05
0.00223829
3.61947e-05
0.00217472
4.50627e-05
0.00214148
5.08056e-05
0.00212839
5.46586e-05
0.00211684
5.7375e-05
0.00209805
5.86086e-05
0.00207052
5.7746e-05
0.00203521
5.97506e-05
0.00198721
6.40359e-05
0.00193386
6.77035e-05
0.00187953
6.81141e-05
0.00182621
6.94721e-05
0.00178223
6.99252e-05
0.00174229
7.22414e-05
0.00170105
7.52531e-05
0.00166005
7.71856e-05
0.00161818
7.73138e-05
0.00157362
7.71786e-05
0.00152542
7.68896e-05
0.00147302
7.66592e-05
0.00141807
7.58864e-05
0.0013608
7.40873e-05
0.00130272
7.18179e-05
0.00123967
6.93139e-05
0.00117683
6.71221e-05
0.00112411
6.42198e-05
0.00108175
6.05676e-05
0.00104887
5.39032e-05
0.00101726
5.07944e-05
0.000976662
5.83553e-05
0.00092409
6.12269e-05
0.000870428
5.92734e-05
0.000819843
5.73416e-05
0.000776286
5.48582e-05
0.000740363
5.21169e-05
0.000709722
4.96537e-05
0.000679975
4.72999e-05
0.000648339
4.44162e-05
0.000612924
4.25984e-05
0.000571657
4.26739e-05
0.000523791
4.34253e-05
0.000466264
4.80426e-05
0.000401543
5.86757e-05
0.000336066
8.43054e-05
0.00027342
0.00013331
0.000224757
0.000216245
0.000180055
0.000342967
0.000126459
0.00043005
6.60486e-05
9.87125e-06
6.75719e-06
0.00177405
3.74382e-06
0.00178225
8.48654e-07
0.00179132
-1.91163e-06
0.00180123
-4.52152e-06
0.00181195
-6.96697e-06
0.00182343
-9.23574e-06
0.00183562
-1.13175e-05
0.00184844
-1.32041e-05
0.00186184
-1.48895e-05
0.00187575
-1.63702e-05
0.00189008
-1.76445e-05
0.00190477
-1.87131e-05
0.00191973
-1.95789e-05
0.00193488
-2.02462e-05
0.00195014
-2.07213e-05
0.00196544
-2.1012e-05
0.00198069
-2.11271e-05
0.00199584
-2.10764e-05
0.00201081
-2.08707e-05
0.00202552
-2.05211e-05
0.00203994
-2.00389e-05
0.00205399
-1.94358e-05
0.00206764
-1.87232e-05
0.00208082
-1.79122e-05
0.00209351
-1.70137e-05
0.00210567
-1.60379e-05
0.00211726
-1.49946e-05
0.00212827
-1.38928e-05
0.00213866
-1.27407e-05
0.00214842
-1.15459e-05
0.00215754
-1.03151e-05
0.002166
-9.05429e-06
0.00217379
-7.76862e-06
0.00218091
-6.46247e-06
0.00218736
-5.13952e-06
0.00219313
-3.80269e-06
0.00219822
-2.45426e-06
0.00220263
-1.09583e-06
0.00220637
2.71567e-07
0.00220943
1.64748e-06
0.00221182
3.03197e-06
0.00221354
4.4256e-06
0.00221459
5.82936e-06
0.00221498
-6.1183e-05
0.00221471
-6.34747e-05
0.00223274
-6.54644e-05
0.00225142
-6.71463e-05
0.00227065
-6.85149e-05
0.00229033
-6.95648e-05
0.00231035
-7.02914e-05
0.00233062
-7.06903e-05
0.00235101
-7.07582e-05
0.00237144
-7.04921e-05
0.00239179
-6.98902e-05
0.00241194
-6.89516e-05
0.0024318
-6.76767e-05
0.00245125
-6.6067e-05
0.00247019
-6.41254e-05
0.0024885
-6.18567e-05
0.00250608
-5.92669e-05
0.00252283
-5.63641e-05
0.00253865
-5.32309e-05
0.00255343
-0.000115255
0.00256737
5.91935e-05
0.00217998
4.7836e-05
0.00213918
5.99846e-05
0.00215213
6.64508e-05
0.00218388
6.66779e-05
0.00217605
6.29688e-05
0.00214068
6.4292e-05
0.0020793
7.15638e-05
0.00204167
8.09937e-05
0.00202873
8.68532e-05
0.00202039
9.42314e-05
0.00201442
9.72144e-05
0.00200573
9.93505e-05
0.00197849
0.000104851
0.00194458
0.000111393
0.00191082
0.000115482
0.00187288
0.000116376
0.00183053
0.000119106
0.00179866
0.000120127
0.00176891
0.000122115
0.00173453
0.000123531
0.00169865
0.000124135
0.0016595
0.000124062
0.00161522
0.000125111
0.00156632
0.000125782
0.00151362
0.000125847
0.00145871
0.000125001
0.00140147
0.000122503
0.00134264
0.000120227
0.00127782
0.000117588
0.00121444
0.000114584
0.00116268
0.00011134
0.00112167
0.000107401
0.00108929
0.000104524
0.00105735
0.000100702
0.00101967
0.000101315
0.000969512
9.95767e-05
0.000912926
9.69342e-05
0.000856341
9.5281e-05
0.000805857
9.3099e-05
0.000763771
9.09047e-05
0.000727288
8.95621e-05
0.000691699
8.8721e-05
0.00065398
8.74983e-05
0.000612302
8.69399e-05
0.000564612
8.70281e-05
0.000510284
8.81916e-05
0.000446084
9.55074e-05
0.000375891
0.000109293
0.00030497
0.000133776
0.00023856
0.000191139
0.000184828
0.000283167
0.000139231
0.000402587
8.69503e-05
0.00048449
4.36237e-05
2.56937e-06
-1.43874e-06
0.00179051
-5.32607e-06
0.0018038
-9.06565e-06
0.0018179
-1.26318e-05
0.00183278
-1.60005e-05
0.00184842
-1.91502e-05
0.00186477
-2.2062e-05
0.00188176
-2.47196e-05
0.00189935
-2.71103e-05
0.00191745
-2.92245e-05
0.001936
-3.1056e-05
0.00195492
-3.26019e-05
0.00197411
-3.38625e-05
0.00199351
-3.48411e-05
0.00201301
-3.55437e-05
0.00203254
-3.59789e-05
0.00205202
-3.61575e-05
0.00207136
-3.60918e-05
0.00209048
-3.5796e-05
0.00210932
-3.52851e-05
0.0021278
-3.4575e-05
0.00214586
-3.3682e-05
0.00216344
-3.26226e-05
0.00218049
-3.14132e-05
0.00219695
-3.00698e-05
0.0022128
-2.8608e-05
0.00222798
-2.70424e-05
0.00224247
-2.53869e-05
0.00225623
-2.36545e-05
0.00226926
-2.18571e-05
0.00228153
-2.00053e-05
0.00229303
-1.81089e-05
0.00230374
-1.61762e-05
0.00231366
-1.42148e-05
0.00232278
-1.22307e-05
0.00233111
-1.02293e-05
0.00233865
-8.21463e-06
0.00234539
-6.18987e-06
0.00235133
-4.15729e-06
0.00235649
-2.11825e-06
0.00236087
-7.33513e-08
0.00236447
1.9776e-06
0.0023673
4.03546e-06
0.00236936
6.10174e-06
0.00237066
-7.92128e-05
0.0023712
-8.21548e-05
0.00238803
-8.46946e-05
0.00240544
-8.68249e-05
0.00242335
-8.85384e-05
0.00244166
-8.98287e-05
0.00246025
-9.06895e-05
0.00247902
-9.11158e-05
0.00249788
-9.1103e-05
0.00251671
-9.06478e-05
0.00253541
-8.97479e-05
0.00255387
-8.84027e-05
0.00257198
-8.66127e-05
0.00258964
-8.43803e-05
0.00260674
-8.171e-05
0.00262317
-7.8608e-05
0.00263884
-7.5083e-05
0.00265363
-7.11456e-05
0.00266746
-6.70007e-05
0.00268021
7.45536e-05
0.00269188
4.70878e-05
0.00253612
5.98934e-05
0.00245788
6.6357e-05
0.00245007
7.32931e-05
0.0024567
7.99327e-05
0.00242244
8.28797e-05
0.00236812
8.75991e-05
0.00230274
9.85903e-05
0.00224619
0.000108753
0.00221544
0.000116462
0.00218969
0.00012041
0.00216533
0.000123094
0.0021415
0.000123181
0.00209693
0.000127063
0.00203411
0.000140645
0.00197259
0.000152259
0.0019186
0.00015661
0.00187025
0.000159813
0.00183711
0.000162687
0.00180728
0.000166342
0.00177488
0.000169371
0.00174133
0.000171011
0.00170285
0.000171862
0.00165755
0.000173506
0.00160685
0.000174878
0.00155258
0.000175076
0.00149629
0.000174186
0.0014378
0.000170989
0.0013777
0.000167984
0.00131227
0.000164391
0.00124916
0.00016123
0.00119701
0.000158302
0.00115588
0.000155332
0.00112314
0.000152565
0.00109075
0.000148687
0.00105239
0.000146906
0.00100153
0.000144557
0.000942294
0.000141493
0.000882997
0.000139286
0.00082995
0.000137409
0.000785286
0.000135877
0.00074667
0.000135712
0.000709618
0.000136328
0.000670694
0.000136608
0.000627958
0.000136957
0.000579254
0.000137094
0.000523204
0.000138631
0.000456602
0.000148872
0.000383945
0.00016584
0.000310366
0.000189883
0.000241058
0.000248362
0.000181758
0.000347366
0.000132099
0.000444332
8.08515e-05
0.000520198
3.79838e-05
-9.88994e-06
-1.47245e-05
0.00180973
-1.94246e-05
0.00182801
-2.3952e-05
0.00184705
-2.82702e-05
0.00186682
-3.23454e-05
0.00188729
-3.61469e-05
0.00190842
-3.96477e-05
0.00193014
-4.28248e-05
0.00195241
-4.56597e-05
0.00197514
-4.81385e-05
0.00199825
-5.02519e-05
0.00202167
-5.19951e-05
0.0020453
-5.33677e-05
0.00206906
-5.43735e-05
0.00209285
-5.50202e-05
0.00211658
-5.53186e-05
0.00214017
-5.52829e-05
0.00216352
-5.49294e-05
0.00218656
-5.42767e-05
0.00220921
-5.33447e-05
0.00223139
-5.21548e-05
0.00225303
-5.07285e-05
0.00227408
-4.90879e-05
0.00229448
-4.72549e-05
0.00231417
-4.52509e-05
0.00233311
-4.30966e-05
0.00235126
-4.08116e-05
0.00236859
-3.84147e-05
0.00238508
-3.59229e-05
0.0024007
-3.33522e-05
0.00241543
-3.0717e-05
0.00242927
-2.80299e-05
0.00244219
-2.53025e-05
0.00245421
-2.25444e-05
0.0024653
-1.97639e-05
0.00247548
-1.69679e-05
0.00248475
-1.41618e-05
0.00249311
-1.13498e-05
0.00250057
-8.5349e-06
0.00250713
-5.71875e-06
0.0025128
-2.90206e-06
0.00251759
-8.44953e-08
0.00252151
2.73519e-06
0.00252456
5.55909e-06
0.00252675
-9.6036e-05
0.0025281
-9.95711e-05
0.0025437
-0.000102604
0.00255984
-0.000105126
0.00257642
-0.000107129
0.00259333
-0.000108605
0.00261048
-0.000109546
0.00262775
-0.000109947
0.00264506
-0.000109802
0.00266228
-0.000109107
0.00267932
-0.000107861
0.00269608
-0.000106062
0.00271243
-0.000103712
0.00272829
-0.000100815
0.00274354
-9.7375e-05
0.00275809
-9.34015e-05
0.00277182
-8.89053e-05
0.00278465
-8.39002e-05
0.00279647
-7.85173e-05
0.00280718
1.19711e-05
0.00281682
8.21044e-05
0.00262071
8.60826e-05
0.00254568
9.51703e-05
0.00253907
0.000102183
0.00254128
0.000108149
0.00249976
0.000113449
0.00243604
0.000122319
0.00237254
0.000137967
0.00234991
0.000149046
0.0023369
0.000158461
0.0023213
0.000163246
0.0022862
0.000170857
0.00225795
0.000175816
0.00222219
0.00017841
0.00217343
0.000186762
0.0021188
0.000194089
0.00206529
0.000198433
0.00200711
0.000200698
0.0019613
0.000203893
0.00192124
0.000208998
0.00187842
0.00021437
0.00183485
0.000218137
0.00178699
0.00022059
0.00173279
0.000222803
0.00167458
0.00022457
0.00161512
0.000224717
0.00155516
0.000223761
0.00149377
0.000219852
0.00143139
0.000216126
0.00136352
0.000212117
0.00129939
0.000209207
0.0012451
0.000206357
0.00120221
0.000204004
0.00116707
0.000201249
0.0011322
0.000197354
0.00109149
0.000195045
0.00103877
0.000192288
0.000978336
0.000188881
0.000918591
0.000186167
0.000864859
0.000184008
0.000818698
0.00018266
0.000777362
0.00018303
0.000737392
0.00018479
0.0006958
0.000186508
0.000651071
0.000187973
0.000601254
0.000188861
0.000544758
0.000192031
0.000477476
0.000205477
0.00040406
0.000226294
0.000329884
0.000252099
0.000259108
0.000309485
0.000195096
0.000408546
0.000142071
0.000486514
9.01093e-05
0.000554437
4.29173e-05
-2.74098e-05
-3.30063e-05
0.00183173
-3.84606e-05
0.00185491
-4.37216e-05
0.00187878
-4.87404e-05
0.00190333
-5.34718e-05
0.00192854
-5.78744e-05
0.00195435
-6.19121e-05
0.00198072
-6.55539e-05
0.00200758
-6.87748e-05
0.00203484
-7.15556e-05
0.00206244
-7.38833e-05
0.00209027
-7.57509e-05
0.00211826
-7.71572e-05
0.00214629
-7.81063e-05
0.00217429
-7.86072e-05
0.00220214
-7.86736e-05
0.00222976
-7.83231e-05
0.00225706
-7.75763e-05
0.00228394
-7.64567e-05
0.00231033
-7.49898e-05
0.00233614
-7.32024e-05
0.0023613
-7.11222e-05
0.00238575
-6.87774e-05
0.00240943
-6.61959e-05
0.00243229
-6.3405e-05
0.00245427
-6.04311e-05
0.00247534
-5.72994e-05
0.00249547
-5.40336e-05
0.00251462
-5.06558e-05
0.00253278
-4.7186e-05
0.00254993
-4.36428e-05
0.00256606
-4.00423e-05
0.00258116
-3.6399e-05
0.00259522
-3.27253e-05
0.00260825
-2.90318e-05
0.00262025
-2.5327e-05
0.00263121
-2.1618e-05
0.00264116
-1.79098e-05
0.0026501
-1.42062e-05
0.00265803
-1.05093e-05
0.00266497
-6.81975e-06
0.00267093
-3.13713e-06
0.00267592
5.40271e-07
0.00267994
4.21526e-06
0.00268301
-0.000111641
0.00268514
-0.000115712
0.00269952
-0.000119181
0.00271437
-0.000122039
0.00272961
-0.000124275
0.00274512
-0.000125881
0.00276081
-0.000126849
0.00277658
-0.000127171
0.00279232
-0.000126843
0.00280793
-0.000125859
0.0028233
-0.000124218
0.00283834
-0.00012192
0.00285293
-0.000118965
0.00286698
-0.00011536
0.00288038
-0.00011111
0.00289303
-0.000106227
0.00290482
-0.000100724
0.00291567
-9.46178e-05
0.00292548
-8.80287e-05
0.00293415
-2.56084e-05
0.00294173
0.000114466
0.00257558
0.000119765
0.00252272
0.000127759
0.00253437
0.000134757
0.00254504
0.000142201
0.00251428
0.000149415
0.00246261
0.000158866
0.00241144
0.000171769
0.0023927
0.000184132
0.00238275
0.000195401
0.00235949
0.000205785
0.00233523
0.000213014
0.00231758
0.000219356
0.00228096
0.000224777
0.00222935
0.0002344
0.00216971
0.000243475
0.00211066
0.000248958
0.0020518
0.000253582
0.00201053
0.000257622
0.00197462
0.00026255
0.00193315
0.000268701
0.00188868
0.000272465
0.00184016
0.000274288
0.00178514
0.00027543
0.00172659
0.000276398
0.00166589
0.000276123
0.00160379
0.000274572
0.0015387
0.000270583
0.00147066
0.00026679
0.00139687
0.000263225
0.00133148
0.000260849
0.00127775
0.000257907
0.00123716
0.000255061
0.00120239
0.000251399
0.0011669
0.000246991
0.00112411
0.000244052
0.00106906
0.000240622
0.00100691
0.000237395
0.00094632
0.000235119
0.000892377
0.000233373
0.000846055
0.00023234
0.000804258
0.00023301
0.000763994
0.000234901
0.000722823
0.000237045
0.000678669
0.000238995
0.000630446
0.000240996
0.000575734
0.000246925
0.00050937
0.000263618
0.000436514
0.000289043
0.000362391
0.000318447
0.00028836
0.000373805
0.000215899
0.00046971
0.000158127
0.000534272
0.00010357
0.000597169
4.93194e-05
-4.98839e-05
-5.61806e-05
0.00185652
-6.23335e-05
0.00188448
-6.82765e-05
0.00191308
-7.39469e-05
0.00194231
-7.92862e-05
0.00197215
-8.42414e-05
0.00200255
-8.87658e-05
0.00203345
-9.28193e-05
0.0020648
-9.63695e-05
0.0020965
-9.93914e-05
0.00212848
-0.000101868
0.00216065
-0.000103789
0.00219289
-0.000105152
0.00222512
-0.000105962
0.00225723
-0.000106229
0.00228913
-0.00010597
0.0023207
-0.000105206
0.00235185
-0.000103962
0.0023825
-0.000102267
0.00241254
-0.000100153
0.00244191
-9.76531e-05
0.00247052
-9.48006e-05
0.0024983
-9.16307e-05
0.00252519
-8.81779e-05
0.00255114
-8.4476e-05
0.0025761
-8.05577e-05
0.00260003
-7.64541e-05
0.00262289
-7.21944e-05
0.00264465
-6.7806e-05
0.0026653
-6.33138e-05
0.00268481
-5.87403e-05
0.00270319
-5.41058e-05
0.00272041
-4.94279e-05
0.00273648
-4.47221e-05
0.0027514
-4.00011e-05
0.00276517
-3.52757e-05
0.00277781
-3.05542e-05
0.00278931
-2.5843e-05
0.00279969
-2.11464e-05
0.00280897
-1.6467e-05
0.00281715
-1.18056e-05
0.00282425
-7.1615e-06
0.00283028
-2.53237e-06
0.00283526
2.08528e-06
0.00283919
-0.000126017
0.00284209
-0.000130566
0.00285523
-0.000134415
0.00286879
-0.000137552
0.00288268
-0.000139966
0.00289678
-0.000141648
0.00291101
-0.000142589
0.00292526
-0.000142781
0.00293943
-0.000142217
0.00295342
-0.000140895
0.00296712
-0.000138811
0.00298043
-0.000135966
0.00299326
-0.000132363
0.00300549
-0.000128007
0.00301703
-0.000122908
0.00302777
-0.000117077
0.00303763
-0.000110532
0.0030465
-0.000103292
0.00305429
-9.54989e-05
0.00306092
8.6481e-05
0.00306631
0.000137278
0.00281406
0.000146953
0.00274753
0.000149792
0.00275176
0.000157429
0.00273645
0.000166758
0.00268582
0.000175413
0.00262581
0.000185441
0.00256397
0.000200949
0.00252113
0.000217429
0.00248667
0.000233097
0.00243811
0.000244542
0.00240939
0.000253163
0.00238614
0.000260905
0.00234311
0.000270655
0.00228724
0.000283616
0.00222346
0.000293264
0.00216063
0.000300145
0.00210374
0.000306386
0.00206435
0.000311786
0.00202764
0.000317626
0.00198405
0.000323844
0.00193692
0.000326997
0.00188465
0.000328286
0.00182639
0.000329763
0.00176544
0.000330756
0.00170216
0.000330652
0.00163675
0.00032932
0.00156858
0.000324394
0.00149745
0.000319661
0.00142312
0.000315639
0.00135815
0.000312938
0.00130515
0.000309709
0.00126499
0.000306636
0.00122861
0.000302585
0.00119076
0.000297948
0.0011451
0.000294414
0.00108809
0.000290334
0.00102482
0.000286922
0.000964217
0.000284742
0.000910998
0.000283074
0.000865319
0.000282073
0.000823724
0.00028241
0.000783742
0.000283824
0.00074297
0.000285415
0.000698561
0.000287669
0.000649961
0.000292246
0.000594352
0.000301784
0.000526971
0.0003225
0.000454715
0.000355307
0.00038079
0.000391667
0.000308267
0.000441968
0.000236121
0.000532794
0.000174073
0.000590165
0.000115775
0.000648618
5.51412e-05
-7.71956e-05
-8.41346e-05
0.00188413
-9.09334e-05
0.00191674
-9.75096e-05
0.00194995
-0.000103785
0.00198374
-0.000109686
0.0020181
-0.000115148
0.00205297
-0.00012011
0.00208831
-0.000124525
0.00212404
-0.000128349
0.00216007
-0.000131553
0.00219634
-0.000134114
0.00223272
-0.000136019
0.00226913
-0.000137264
0.00230545
-0.000137854
0.00234159
-0.000137801
0.00237742
-0.000137125
0.00241285
-0.00013585
0.00244777
-0.000134008
0.00248209
-0.000131633
0.00251571
-0.000128762
0.00254855
-0.000125435
0.00258052
-0.000121694
0.00261156
-0.000117581
0.00264159
-0.000113136
0.00267056
-0.000108402
0.00269843
-0.000103417
0.00272514
-9.82185e-05
0.00275066
-9.28425e-05
0.00277498
-8.73216e-05
0.00279805
-8.16859e-05
0.00281987
-7.59627e-05
0.00284044
-7.01761e-05
0.00285973
-6.43475e-05
0.00287776
-5.84954e-05
0.00289453
-5.26351e-05
0.00291003
-4.67794e-05
0.00292429
-4.09385e-05
0.00293731
-3.51197e-05
0.00294911
-2.93282e-05
0.0029597
-2.3567e-05
0.00296909
-1.7837e-05
0.00297731
-1.2137e-05
0.00298436
-6.46431e-06
0.00299026
-8.14502e-07
0.00299503
-0.000139157
0.00299869
-0.000144127
0.00301058
-0.000148299
0.00302284
-0.000151658
0.00303537
-0.000154195
0.00304807
-0.000155899
0.00306083
-0.000156759
0.00307356
-0.000156768
0.00308615
-0.000155919
0.00309851
-0.000154209
0.00311054
-0.000151634
0.00312213
-0.000148197
0.00313318
-0.000143901
0.00314359
-0.000138753
0.00315326
-0.000132763
0.00316211
-0.000125948
0.00317002
-0.000118325
0.00317691
-0.000109918
0.00318269
-0.00010082
0.00318726
3.98031e-05
0.00319058
0.000180344
0.00286201
0.000190076
0.00282604
0.000188101
0.00285554
0.000196181
0.00284455
0.000204108
0.00279908
0.000215444
0.0027467
0.00023341
0.0027032
0.000250142
0.00266218
0.000265676
0.00261663
0.000278853
0.00255725
0.000288832
0.00252903
0.000297732
0.00250309
0.000306422
0.00245449
0.000319119
0.00239181
0.000333999
0.00231875
0.000344006
0.00224729
0.000352819
0.00218619
0.000360103
0.00214422
0.000367259
0.00210326
0.000374524
0.00205536
0.000381023
0.00200304
0.000383934
0.00194393
0.000384968
0.00188046
0.000386552
0.00181579
0.000387634
0.00174877
0.000387173
0.00167874
0.000385054
0.00160612
0.000379313
0.00152945
0.000373977
0.00145341
0.000369788
0.0013881
0.00036691
0.00133561
0.000363407
0.00129475
0.000359809
0.00125627
0.000355102
0.00121507
0.000349902
0.00116577
0.000345587
0.00110589
0.000340812
0.00104067
0.000336801
0.000979531
0.000334195
0.000926596
0.000332318
0.000880746
0.000331174
0.000838182
0.000331059
0.000797082
0.000332061
0.000754996
0.000333415
0.000708381
0.000336727
0.000657469
0.000344379
0.000599768
0.000357004
0.000530946
0.000382116
0.000460085
0.000420403
0.000387922
0.00046332
0.000318816
0.000512836
0.000250738
0.000598246
0.000186583
0.000653581
0.000124009
0.000707504
5.85674e-05
-0.000109218
-0.000116745
0.00191458
-0.00012414
0.00195171
-0.000131304
0.0019894
-0.00013814
0.00202763
-0.00014456
0.00206637
-0.000150483
0.0021056
-0.000155838
0.00214525
-0.000160564
0.00218524
-0.000164611
0.0022255
-0.000167939
0.00226593
-0.000170522
0.00230643
-0.000172343
0.00234689
-0.000173396
0.0023872
-0.000173688
0.00242725
-0.000173231
0.00246692
-0.000172048
0.00250611
-0.000170169
0.0025447
-0.000167629
0.0025826
-0.000164469
0.0026197
-0.000160733
0.00265592
-0.00015647
0.00269116
-0.000151727
0.00272536
-0.000146554
0.00275845
-0.000141
0.00279037
-0.000135114
0.00282106
-0.000128943
0.00285048
-0.00012253
0.0028786
-0.000115918
0.00290539
-0.000109146
0.00293083
-0.000102248
0.0029549
-9.52584e-05
0.00297759
-8.82046e-05
0.00299891
-8.11119e-05
0.00301884
-7.40021e-05
0.0030374
-6.68934e-05
0.00305459
-5.98007e-05
0.00307043
-5.27358e-05
0.00308493
-4.57076e-05
0.0030981
-3.87219e-05
0.00310997
-3.1782e-05
0.00312054
-2.4889e-05
0.00312984
-1.80413e-05
0.00313789
-1.12355e-05
0.00314469
-4.46635e-06
0.00315028
-0.000151056
0.00315467
-0.000156389
0.00316532
-0.000160826
0.00317628
-0.000164353
0.00318745
-0.000166957
0.00319873
-0.000168628
0.00321002
-0.000169354
0.00322122
-0.000169128
0.00323224
-0.000167944
0.00324297
-0.000165796
0.00325332
-0.000162684
0.00326318
-0.000158609
0.00327246
-0.000153577
0.00328105
-0.000147594
0.00328887
-0.000140676
0.00329581
-0.000132838
0.00330178
-0.000124102
0.00330669
-0.000114497
0.00331045
-0.000104088
0.00331299
2.73628e-05
0.0033142
0.00021786
0.00289955
0.000221718
0.00290572
0.000222312
0.0029487
0.000231806
0.00293889
0.000240104
0.00289652
0.00025756
0.00285263
0.000280672
0.00280593
0.000297545
0.00274731
0.00031256
0.0026843
0.00032703
0.0026316
0.000337993
0.00260863
0.000349691
0.00258085
0.000360956
0.00252998
0.000376512
0.00246541
0.00039107
0.0023905
0.000400122
0.00231814
0.000409738
0.00225929
0.000418244
0.00221755
0.000427138
0.00217353
0.000435793
0.00212265
0.000442483
0.00206596
0.000445122
0.00200147
0.000445937
0.00193553
0.000447405
0.00186989
0.000448317
0.00180085
0.000447192
0.00172708
0.000443731
0.00165031
0.000436808
0.00156818
0.000430888
0.00149007
0.000426497
0.00142358
0.000423459
0.00137112
0.000419463
0.00132835
0.000415046
0.00128668
0.000409525
0.00124116
0.000403479
0.00118749
0.000398077
0.00112376
0.000392422
0.00105568
0.000387664
0.000993387
0.000384413
0.000940185
0.000382169
0.000893396
0.000380821
0.000848821
0.000380467
0.000805375
0.000381377
0.00076073
0.000382967
0.000710983
0.000387521
0.000657178
0.000397578
0.000597304
0.000412581
0.000527262
0.000441059
0.000458129
0.000482791
0.000387778
0.000530502
0.000321436
0.000584014
0.000257045
0.000666212
0.00019313
0.000722318
0.000128264
0.000771325
5.9951e-05
-0.000145815
-0.000153878
0.0019479
-0.000161824
0.00198942
-0.000169532
0.00203144
-0.000176888
0.00207396
-0.000183786
0.00211697
-0.000190129
0.00216041
-0.000195832
0.00220424
-0.000200823
0.00224837
-0.00020504
0.00229273
-0.000208438
0.0023372
-0.000210982
0.00238169
-0.000212654
0.00242609
-0.000213445
0.00247027
-0.000213362
0.00251412
-0.000212419
0.00255752
-0.000210642
0.00260036
-0.000208065
0.00264251
-0.00020473
0.00268388
-0.000200684
0.00272436
-0.00019598
0.00276386
-0.000190671
0.00280228
-0.000184815
0.00283956
-0.000178469
0.00287561
-0.000171692
0.00291038
-0.000164538
0.00294382
-0.000157064
0.00297587
-0.00014932
0.00300651
-0.000141355
0.0030357
-0.000133215
0.00306343
-0.000124942
0.00308968
-0.000116571
0.00311444
-0.000108138
0.00313771
-9.96711e-05
0.00315949
-9.11953e-05
0.00317979
-8.2732e-05
0.00319862
-7.42985e-05
0.00321599
-6.59083e-05
0.00323192
-5.75715e-05
0.00324643
-4.9295e-05
0.00325953
-4.10824e-05
0.00327125
-3.29347e-05
0.0032816
-2.48501e-05
0.00329061
-1.68243e-05
0.0032983
-8.85111e-06
0.00330468
-0.000161708
0.00330978
-0.000167348
0.00331918
-0.000171994
0.00332884
-0.000175632
0.00333864
-0.000178249
0.00334851
-0.000179833
0.00335833
-0.000180373
0.00336801
-0.000179861
0.00337745
-0.00017829
0.00338656
-0.000175657
0.00339523
-0.000171961
0.00340337
-0.000167203
0.00341087
-0.000161391
0.00341765
-0.000154533
0.00342361
-0.000146646
0.00342865
-0.000137749
0.00343268
-0.000127867
0.00343562
-0.00011703
0.00343737
-0.000105286
0.00343787
3.57044e-05
0.00343702
0.00024749
0.00297123
0.000246941
0.00302719
0.000252967
0.00307131
0.000264945
0.00305732
0.000278125
0.00301884
0.000303409
0.00297572
0.000329438
0.00289401
0.000346271
0.00281974
0.000361689
0.00275763
0.000377961
0.00271493
0.000390275
0.00269469
0.000403513
0.00266215
0.000416032
0.00260584
0.000432905
0.00253479
0.000447831
0.0024562
0.000458108
0.00238366
0.000469405
0.00232848
0.000479597
0.00228629
0.000490383
0.00223868
0.000499754
0.00218291
0.000506303
0.00212065
0.000508388
0.0020517
0.000509164
0.0019851
0.000510802
0.00191944
0.000511596
0.0018482
0.000509998
0.00177032
0.000505286
0.00168908
0.000497495
0.00160314
0.000490946
0.00152402
0.000486542
0.0014587
0.000483188
0.00140834
0.000478664
0.00136416
0.000473067
0.00131976
0.000466433
0.00126999
0.000459326
0.0012112
0.000452712
0.00114307
0.000445962
0.00107134
0.000440451
0.00100769
0.000436615
0.000953644
0.000433882
0.000904951
0.000432332
0.000857936
0.000431794
0.000811402
0.000432563
0.000763431
0.000434547
0.000710339
0.000440129
0.000653206
0.000451926
0.000590345
0.000468777
0.000520118
0.000499418
0.000452202
0.000543464
0.000383341
0.000594512
0.000319029
0.000652709
0.000257166
0.000734572
0.000194668
0.000793456
0.000129303
0.000837561
6.06462e-05
-0.000186837
-0.00019539
0.00198413
-0.000203844