/*--------------------------------*- C++ -*----------------------------------*\
| =========                 |                                                 |
| \\      /  F ield         | OpenFOAM: The Open Source CFD Toolbox           |
|  \\    /   O peration     | Version:  2.2.x                                 |
|   \\  /    A nd           | Web:      www.OpenFOAM.org                      |
|    \\/     M anipulation  |                                                 |
\*---------------------------------------------------------------------------*/
FoamFile
{
    version     2.0;
    format      ascii;
    class       volScalarField;
    location    "2.3";
    object      p;
}
// * * * * * * * * * * * * * * * * * * * * * * * * * * * * * * * * * * * * * //

dimensions      [1 -1 -2 0 0 0 0];

internalField   nonuniform List<scalar> 
14161
(
0.197299
0.19753
0.197533
0.197559
0.197611
0.197695
0.197819
0.197992
0.198227
0.198534
0.198927
0.19942
0.200028
0.200763
0.20164
0.202671
0.203879
0.205255
0.206803
0.2086
0.210579
0.212757
0.215096
0.217618
0.220307
0.223216
0.226344
0.229578
0.232912
0.236321
0.239788
0.243122
0.246287
0.250269
0.255427
0.266448
0.300185
0.534079
1.06074
1.3961
1.5028
1.52347
1.49462
1.46277
1.43678
1.41486
1.39528
1.37833
1.36214
1.34833
1.33528
1.32332
1.31289
1.30256
1.29365
1.28532
1.27735
1.27046
1.26357
1.25711
1.25145
1.2461
1.24021
1.23496
1.22958
1.2246
1.22025
1.215
1.20821
1.20223
1.19666
1.1889
1.18153
1.17413
1.16709
1.16117
1.15397
1.14461
1.13567
1.12665
1.11689
1.10804
1.09997
1.09108
1.08198
1.07272
1.06189
1.0516
1.04145
1.0317
1.02205
1.01213
1.0009
0.989839
0.978365
0.966968
0.956612
0.947201
0.938444
0.931491
0.926419
0.922775
0.924514
0.933487
0.954336
0.997287
1.07404
1.19586
1.36264
1.52935
1.67535
1.78932
1.86905
1.92757
1.97103
2.00482
2.02943
2.04212
2.06482
0.197296
0.197527
0.19753
0.197557
0.197609
0.197693
0.197817
0.197992
0.198227
0.198534
0.198926
0.199418
0.200024
0.200762
0.201639
0.20267
0.203873
0.205256
0.206811
0.208597
0.210577
0.212754
0.215097
0.217619
0.220315
0.22322
0.226337
0.229571
0.232902
0.236323
0.239791
0.243089
0.246294
0.250253
0.255582
0.26665
0.299067
0.528184
1.05117
1.3832
1.48784
1.50677
1.47734
1.44652
1.42164
1.40083
1.38239
1.36622
1.35135
1.3379
1.32595
1.3145
1.30451
1.2949
1.28612
1.27821
1.27065
1.26381
1.25727
1.25073
1.24526
1.24017
1.23433
1.22911
1.22382
1.21869
1.21432
1.20933
1.20242
1.19627
1.19062
1.18359
1.1759
1.1682
1.16071
1.15445
1.14735
1.13806
1.1291
1.12026
1.111
1.10236
1.09425
1.0853
1.07645
1.06772
1.05748
1.047
1.03672
1.02645
1.01672
1.00691
0.995885
0.98489
0.973964
0.963655
0.955204
0.948066
0.941578
0.93729
0.93558
0.938265
0.949121
0.972562
1.01629
1.09129
1.20508
1.35721
1.52594
1.67507
1.78937
1.86984
1.92549
1.96794
1.99705
2.01988
2.03568
2.03827
2.06579
0.197289
0.197521
0.197524
0.197552
0.197605
0.197688
0.197812
0.197985
0.198219
0.198525
0.198916
0.199407
0.200013
0.200747
0.201622
0.202653
0.203861
0.205239
0.206796
0.208562
0.210547
0.212732
0.215085
0.217604
0.2203
0.223189
0.226293
0.229524
0.232861
0.236285
0.23977
0.24311
0.246308
0.250273
0.255574
0.266037
0.297353
0.524055
1.04673
1.37765
1.48138
1.49928
1.46976
1.4394
1.4148
1.39459
1.37711
1.36166
1.34766
1.33451
1.32304
1.31168
1.30155
1.29218
1.28318
1.2754
1.26788
1.26076
1.25428
1.24797
1.24244
1.23726
1.23139
1.22617
1.22109
1.21597
1.21119
1.20626
1.19964
1.19344
1.18748
1.18079
1.17295
1.16527
1.15791
1.15155
1.14467
1.13546
1.12638
1.1176
1.10856
1.10005
1.09219
1.08307
1.07393
1.06505
1.05482
1.04429
1.03401
1.02383
1.01415
1.00434
0.993976
0.984074
0.975289
0.966508
0.959687
0.955284
0.952728
0.952934
0.95909
0.97277
0.999373
1.04438
1.11545
1.22384
1.36079
1.51193
1.6535
1.76388
1.84601
1.90398
1.94693
1.97888
2.00217
2.01733
2.02817
2.02555
2.05411
0.197278
0.197511
0.197515
0.197545
0.197596
0.197679
0.197802
0.197974
0.198207
0.198511
0.198901
0.199389
0.199992
0.200724
0.201596
0.202623
0.203834
0.20521
0.206763
0.208516
0.210495
0.212673
0.21504
0.217575
0.220276
0.223147
0.226217
0.229446
0.232766
0.236195
0.239711
0.243139
0.246357
0.250371
0.255968
0.266736
0.299414
0.528502
1.05226
1.38311
1.48596
1.50312
1.4741
1.44422
1.41976
1.39967
1.38253
1.36728
1.35335
1.3403
1.32845
1.317
1.30633
1.29661
1.28732
1.27885
1.27108
1.26352
1.25687
1.25077
1.24465
1.23905
1.23329
1.22798
1.22308
1.21801
1.21259
1.20731
1.2011
1.19473
1.1888
1.18251
1.17487
1.16758
1.16043
1.15384
1.14705
1.13787
1.12841
1.1196
1.11072
1.10242
1.09428
1.08466
1.07516
1.06609
1.0559
1.04552
1.03554
1.02546
1.01555
1.00582
0.996263
0.987937
0.980977
0.9751
0.971889
0.971266
0.976754
0.98956
1.01306
1.05276
1.1151
1.20506
1.32367
1.46227
1.60076
1.71525
1.79122
1.84727
1.89786
1.93623
1.96546
1.98812
2.00301
2.01145
2.0173
2.01132
2.0396
0.197265
0.197498
0.197502
0.197532
0.197582
0.197664
0.197786
0.197956
0.198185
0.198486
0.198873
0.199358
0.199957
0.200684
0.201555
0.202585
0.203781
0.205154
0.206708
0.208455
0.210421
0.212589
0.21496
0.217508
0.22021
0.22308
0.226105
0.229302
0.232616
0.236069
0.239654
0.243146
0.24638
0.250492
0.256205
0.266829
0.298923
0.524839
1.04876
1.37971
1.48156
1.49799
1.47087
1.44391
1.42135
1.40339
1.38767
1.37325
1.35991
1.34731
1.3356
1.32454
1.3139
1.30408
1.29481
1.28584
1.2774
1.26954
1.26263
1.25654
1.25002
1.24389
1.238
1.23291
1.2278
1.22244
1.21691
1.21135
1.20576
1.1995
1.19342
1.18712
1.17977
1.17241
1.16486
1.15776
1.15069
1.14144
1.13154
1.12238
1.11344
1.10474
1.09535
1.08485
1.0747
1.06498
1.05506
1.04485
1.03548
1.02635
1.01749
1.00963
1.00241
0.99714
0.993978
0.993237
0.996633
1.00717
1.02772
1.06231
1.11605
1.19428
1.29656
1.42197
1.55065
1.67308
1.76134
1.81434
1.85233
1.88776
1.9225
1.95054
1.9748
1.98948
1.99898
2.00241
2.004
1.99734
2.02422
0.197249
0.197482
0.197486
0.197514
0.197564
0.197644
0.197763
0.197931
0.198158
0.198456
0.198839
0.199319
0.199912
0.200631
0.201504
0.202525
0.203714
0.205084
0.206638
0.208381
0.210327
0.212466
0.214832
0.217408
0.22013
0.222984
0.225955
0.229115
0.232415
0.23589
0.239564
0.243112
0.246353
0.250446
0.255758
0.265389
0.29535
0.516288
1.03995
1.37058
1.47191
1.48843
1.46339
1.43954
1.4182
1.40144
1.38659
1.3729
1.36018
1.34848
1.33711
1.32657
1.31634
1.30736
1.29863
1.29028
1.28232
1.27489
1.26847
1.2623
1.25572
1.24955
1.24369
1.23867
1.23368
1.22767
1.22197
1.21635
1.21086
1.20452
1.1981
1.19115
1.18368
1.17589
1.16751
1.15948
1.1514
1.1419
1.13168
1.12183
1.11243
1.10282
1.09241
1.08166
1.07125
1.06141
1.05252
1.04434
1.03708
1.03003
1.02362
1.01872
1.01575
1.01556
1.02038
1.03063
1.04839
1.07863
1.12652
1.19701
1.29038
1.40488
1.52456
1.64529
1.73951
1.79595
1.83236
1.85874
1.88169
1.90676
1.93213
1.95609
1.97546
1.98579
1.99263
1.99185
1.99074
1.98551
2.00837
0.197231
0.197464
0.197466
0.197492
0.19754
0.197617
0.197733
0.197896
0.198119
0.198412
0.198789
0.199262
0.19985
0.200566
0.201423
0.20244
0.203617
0.204972
0.206528
0.208272
0.210195
0.212317
0.214665
0.217259
0.219996
0.222845
0.225758
0.228883
0.23216
0.235668
0.239425
0.243022
0.246294
0.250527
0.256128
0.266814
0.299927
0.524756
1.04498
1.37128
1.47034
1.48665
1.46452
1.44265
1.4219
1.40567
1.39116
1.37768
1.3652
1.35353
1.34229
1.33143
1.32124
1.31162
1.30289
1.29393
1.28559
1.27779
1.27082
1.26457
1.25809
1.25222
1.24688
1.24143
1.23627
1.23047
1.2248
1.21912
1.21332
1.2065
1.19942
1.1918
1.18381
1.17557
1.16584
1.15614
1.14682
1.13735
1.12727
1.1171
1.10714
1.09728
1.08726
1.0777
1.06893
1.06054
1.05362
1.0477
1.04268
1.03899
1.03742
1.03688
1.04184
1.05273
1.07193
1.10145
1.14574
1.20906
1.29283
1.39651
1.50707
1.6196
1.71539
1.77592
1.81471
1.84022
1.85922
1.87594
1.89443
1.91471
1.93539
1.95537
1.97125
1.97924
1.98427
1.98064
1.97842
1.97495
1.99265
0.19721
0.197444
0.197443
0.197465
0.19751
0.197585
0.197697
0.197856
0.198074
0.19836
0.19873
0.199194
0.199777
0.200483
0.201327
0.202338
0.203499
0.204835
0.206402
0.208125
0.21003
0.212135
0.21446
0.217064
0.219814
0.222643
0.225501
0.228581
0.231825
0.235368
0.239186
0.24282
0.246147
0.250415
0.255973
0.267043
0.30252
0.53147
1.04832
1.3714
1.46918
1.48597
1.46729
1.44638
1.42666
1.41075
1.39628
1.38263
1.36994
1.35799
1.34653
1.33556
1.32503
1.31533
1.306
1.29722
1.28849
1.28067
1.27358
1.26651
1.2602
1.25406
1.24869
1.24315
1.23719
1.23157
1.22547
1.21941
1.213
1.20514
1.19741
1.1894
1.18135
1.17303
1.16223
1.15098
1.14011
1.13018
1.12042
1.11099
1.10122
1.09267
1.0845
1.07719
1.07034
1.06425
1.05967
1.05701
1.05681
1.05949
1.06598
1.07755
1.09651
1.126
1.17024
1.23045
1.30751
1.4026
1.50352
1.60744
1.69757
1.75764
1.79633
1.82222
1.84046
1.85485
1.86788
1.88209
1.89856
1.91519
1.93306
1.95072
1.96464
1.97097
1.97461
1.96987
1.96734
1.96509
1.97814
0.197184
0.197419
0.197416
0.197436
0.197477
0.197547
0.197655
0.197808
0.198019
0.198297
0.198658
0.199114
0.199686
0.200377
0.201211
0.202206
0.203344
0.20468
0.206237
0.207947
0.209827
0.211902
0.214198
0.216798
0.219559
0.222389
0.225212
0.22824
0.231433
0.234981
0.238832
0.242492
0.245843
0.250124
0.255462
0.266381
0.302112
0.528437
1.04434
1.36203
1.45755
1.4756
1.46109
1.44157
1.42354
1.40818
1.39403
1.38055
1.36782
1.35574
1.34425
1.33351
1.32318
1.31347
1.30398
1.29509
1.28692
1.2794
1.27242
1.26527
1.25846
1.25253
1.24642
1.24029
1.23428
1.22846
1.2226
1.21586
1.20768
1.19905
1.18996
1.18127
1.1729
1.16305
1.15103
1.13977
1.12904
1.12001
1.11174
1.10463
1.09787
1.09177
1.08606
1.08102
1.07725
1.07531
1.07529
1.07961
1.08862
1.10361
1.12491
1.15596
1.19972
1.25806
1.33165
1.41985
1.51076
1.60613
1.68978
1.74653
1.78232
1.80605
1.82279
1.83583
1.847
1.85726
1.86809
1.88109
1.89513
1.91034
1.92769
1.94331
1.95563
1.96113
1.96429
1.95951
1.95707
1.9552
1.96522
0.197156
0.197392
0.197386
0.197402
0.197439
0.197504
0.197605
0.19775
0.197952
0.19822
0.198571
0.199019
0.199571
0.200248
0.201068
0.202036
0.203158
0.204504
0.206027
0.207711
0.209567
0.211612
0.213895
0.216454
0.219215
0.222066
0.224888
0.227852
0.230962
0.234479
0.238343
0.242002
0.245388
0.249671
0.254828
0.265973
0.305465
0.536934
1.05139
1.36181
1.45473
1.47402
1.46285
1.44503
1.42846
1.41381
1.40019
1.38667
1.37374
1.36127
1.34915
1.33829
1.32764
1.3177
1.30763
1.29817
1.28921
1.28126
1.27343
1.26538
1.25756
1.2507
1.24377
1.23628
1.22884
1.22207
1.21572
1.20817
1.1987
1.18827
1.17814
1.1678
1.1584
1.14944
1.13874
1.12962
1.12109
1.11421
1.10842
1.10425
1.09985
1.09643
1.09439
1.09348
1.09524
1.10159
1.11243
1.1293
1.15431
1.18977
1.23583
1.29492
1.36662
1.44731
1.52976
1.61554
1.69002
1.74191
1.77544
1.79604
1.80965
1.81976
1.8291
1.83781
1.84498
1.85291
1.86307
1.87522
1.88857
1.9037
1.9198
1.9336
1.9447
1.95015
1.95324
1.94921
1.94701
1.94527
1.9541
0.197124
0.19736
0.197351
0.197365
0.197397
0.197454
0.197548
0.197684
0.197876
0.198134
0.198472
0.198904
0.19944
0.200101
0.200904
0.201839
0.202957
0.204271
0.205771
0.207429
0.209261
0.211292
0.213554
0.216042
0.218768
0.22164
0.22454
0.227409
0.230415
0.233883
0.237738
0.241405
0.244817
0.248983
0.254032
0.265916
0.31217
0.558484
1.06959
1.36972
1.45983
1.47997
1.47074
1.45468
1.43941
1.42539
1.41151
1.39781
1.38405
1.37044
1.35698
1.34438
1.33185
1.31975
1.30835
1.29733
1.28759
1.27813
1.2698
1.26116
1.25298
1.24484
1.23608
1.22763
1.21894
1.21115
1.20416
1.19567
1.18428
1.17255
1.16109
1.15104
1.14264
1.13688
1.13003
1.1243
1.11912
1.11497
1.11162
1.1099
1.10996
1.11133
1.116
1.12496
1.13902
1.1594
1.18811
1.22667
1.27637
1.33757
1.40851
1.48321
1.56045
1.63593
1.69943
1.74198
1.7711
1.79078
1.8028
1.81004
1.81602
1.82146
1.82624
1.83267
1.83908
1.84704
1.85677
1.86766
1.88015
1.89461
1.90909
1.92165
1.93198
1.93822
1.94168
1.93896
1.93721
1.93561
1.94412
0.197087
0.197324
0.19731
0.197322
0.197349
0.1974
0.197485
0.197612
0.197791
0.198034
0.198354
0.198772
0.199293
0.199933
0.200703
0.20161
0.202719
0.204005
0.205474
0.207108
0.208909
0.210909
0.21313
0.215556
0.218217
0.221149
0.224109
0.226933
0.229796
0.233193
0.236987
0.240711
0.244182
0.248281
0.253497
0.266686
0.31962
0.583626
1.08998
1.37862
1.46557
1.48629
1.47825
1.46202
1.44657
1.43344
1.41765
1.40352
1.38811
1.37286
1.3583
1.3439
1.33063
1.3172
1.30494
1.29292
1.28179
1.27139
1.26108
1.25158
1.24219
1.23389
1.22425
1.21457
1.20439
1.19445
1.18456
1.1746
1.16421
1.15516
1.14631
1.13889
1.13348
1.13003
1.12786
1.12644
1.12497
1.12393
1.12444
1.12857
1.13703
1.1498
1.16766
1.19318
1.22731
1.27041
1.32372
1.38608
1.45548
1.52487
1.59617
1.66112
1.71261
1.74742
1.7711
1.78734
1.79808
1.80476
1.80879
1.81167
1.81381
1.81571
1.82009
1.82607
1.8319
1.83932
1.84819
1.85869
1.8711
1.88486
1.89795
1.90955
1.91907
1.92624
1.93036
1.92866
1.92724
1.92575
1.93413
0.197045
0.197284
0.197265
0.197273
0.197295
0.197339
0.197411
0.197528
0.197693
0.19792
0.198222
0.198623
0.19912
0.199734
0.200476
0.201359
0.202445
0.20369
0.205093
0.206722
0.208498
0.210459
0.212622
0.214975
0.217604
0.220596
0.223578
0.22643
0.229123
0.232386
0.236071
0.239896
0.243497
0.247693
0.253208
0.267739
0.326372
0.60724
1.10935
1.38477
1.46567
1.48471
1.4771
1.46023
1.44478
1.43126
1.41464
1.40044
1.38393
1.36811
1.35246
1.33791
1.32351
1.31017
1.29739
1.28532
1.27307
1.26122
1.24973
1.23828
1.22789
1.21824
1.20799
1.19645
1.18453
1.17267
1.16201
1.15249
1.14595
1.14185
1.13773
1.13491
1.13326
1.13192
1.13255
1.13669
1.1419
1.14878
1.15894
1.17531
1.19896
1.23066
1.27054
1.32027
1.37737
1.44227
1.50625
1.57214
1.63569
1.69004
1.72867
1.75482
1.77333
1.78627
1.79471
1.80035
1.80444
1.80607
1.80589
1.80679
1.80842
1.80965
1.81243
1.81808
1.82403
1.83126
1.83977
1.85013
1.86202
1.87499
1.88684
1.89743
1.90615
1.91367
1.91849
1.91779
1.91683
1.91565
1.92399
0.197
0.197239
0.197215
0.197218
0.197233
0.197269
0.197331
0.197434
0.197584
0.197796
0.198081
0.198448
0.198922
0.199514
0.200226
0.201082
0.202121
0.203309
0.20466
0.206282
0.208058
0.209963
0.212053
0.214305
0.216911
0.219965
0.222967
0.225833
0.228398
0.231465
0.235082
0.238926
0.242704
0.247056
0.252843
0.268432
0.331263
0.624135
1.12219
1.38327
1.45826
1.47485
1.46724
1.45207
1.43877
1.42618
1.40869
1.39414
1.37624
1.35899
1.34187
1.32507
1.30937
1.2947
1.28148
1.26851
1.25598
1.24305
1.23007
1.21718
1.20422
1.19275
1.18228
1.17076
1.16038
1.15121
1.14339
1.1381
1.1353
1.13562
1.13743
1.13915
1.14114
1.14519
1.15269
1.16549
1.18341
1.20668
1.2359
1.2728
1.31983
1.37446
1.43665
1.4986
1.55908
1.62178
1.67535
1.71662
1.74536
1.7653
1.77891
1.78778
1.79329
1.79696
1.80012
1.80213
1.8013
1.79998
1.79976
1.80114
1.80225
1.80194
1.80439
1.80993
1.81642
1.82337
1.83171
1.84163
1.85234
1.86433
1.87472
1.88469
1.89286
1.9006
1.9063
1.90684
1.90627
1.90533
1.91327
0.196949
0.19719
0.197161
0.197156
0.197164
0.197191
0.197243
0.19733
0.197463
0.197655
0.197915
0.198251
0.198706
0.199262
0.199937
0.200763
0.201746
0.202879
0.204178
0.205753
0.207545
0.209403
0.21139
0.213533
0.216117
0.219214
0.222232
0.225105
0.227602
0.230521
0.234028
0.237717
0.241738
0.246301
0.252392
0.268863
0.335641
0.636539
1.12687
1.3739
1.44536
1.45964
1.45037
1.43569
1.4231
1.41126
1.39421
1.38025
1.36202
1.34565
1.32877
1.31185
1.29549
1.27906
1.26341
1.24861
1.23485
1.22022
1.20546
1.19017
1.17557
1.16273
1.15256
1.14551
1.13907
1.135
1.13183
1.13047
1.13356
1.1382
1.14593
1.15523
1.16678
1.18188
1.20518
1.23682
1.27576
1.32285
1.37549
1.43496
1.49591
1.55449
1.61592
1.66903
1.71073
1.73991
1.76023
1.77476
1.78479
1.79159
1.79543
1.79701
1.79777
1.79782
1.7975
1.79685
1.79515
1.79382
1.79338
1.7944
1.79519
1.79439
1.79702
1.8026
1.80895
1.81562
1.82342
1.8323
1.84169
1.85271
1.86161
1.87135
1.87925
1.88762
1.89395
1.89586
1.89554
1.89433
1.90205
0.196893
0.197136
0.197101
0.197086
0.197084
0.197102
0.197144
0.197214
0.197326
0.197494
0.197729
0.198038
0.198453
0.198969
0.199613
0.200399
0.201331
0.202407
0.203646
0.205137
0.206944
0.208796
0.210657
0.212694
0.21523
0.218315
0.221351
0.224227
0.226787
0.229576
0.232883
0.236394
0.240582
0.245379
0.252047
0.270373
0.34414
0.661453
1.14022
1.36879
1.43418
1.44439
1.43001
1.41351
1.39946
1.38719
1.37107
1.35801
1.33816
1.32123
1.3045
1.2866
1.26914
1.25063
1.23244
1.21506
1.19852
1.18375
1.16824
1.1545
1.14178
1.13223
1.12655
1.12317
1.12312
1.12386
1.12902
1.13463
1.14575
1.15857
1.17608
1.20016
1.23091
1.26912
1.31695
1.37244
1.43325
1.49572
1.55381
1.6139
1.66709
1.70877
1.73839
1.75913
1.77382
1.78445
1.79105
1.79463
1.79716
1.79893
1.79968
1.79739
1.79459
1.79295
1.7924
1.7913
1.78815
1.78697
1.78672
1.7872
1.78785
1.78736
1.79037
1.79586
1.80163
1.80753
1.81435
1.82212
1.83049
1.84081
1.8483
1.85792
1.86568
1.87466
1.88143
1.88459
1.88447
1.88316
1.89099
0.196832
0.197078
0.197036
0.197011
0.196996
0.197002
0.197031
0.197084
0.197173
0.197318
0.197526
0.197805
0.198167
0.198629
0.199266
0.200004
0.200864
0.201869
0.203041
0.204446
0.206242
0.208082
0.209846
0.211805
0.214233
0.217159
0.220265
0.2232
0.225962
0.228566
0.231696
0.235112
0.239204
0.244196
0.251554
0.272018
0.351983
0.69064
1.15496
1.36297
1.42199
1.42911
1.4115
1.39475
1.38053
1.368
1.35268
1.34046
1.31852
1.29861
1.27822
1.25733
1.23891
1.21653
1.1951
1.17488
1.15606
1.14026
1.12826
1.11857
1.11215
1.10782
1.10785
1.11028
1.11803
1.1276
1.14426
1.16238
1.18596
1.21625
1.25589
1.30487
1.36195
1.42447
1.49018
1.55143
1.61254
1.66666
1.70896
1.73914
1.76036
1.77511
1.78549
1.79213
1.79617
1.79881
1.80034
1.79991
1.79937
1.79953
1.7968
1.79349
1.79028
1.78798
1.78619
1.78482
1.78166
1.78036
1.77965
1.77947
1.78033
1.7804
1.78372
1.78875
1.79388
1.7988
1.80474
1.81169
1.81926
1.8289
1.83505
1.84442
1.85197
1.86166
1.86876
1.87269
1.87292
1.87199
1.87953
0.196764
0.197015
0.196967
0.196928
0.196901
0.196891
0.196904
0.196941
0.197009
0.197124
0.197298
0.197538
0.197853
0.198268
0.198852
0.199549
0.200336
0.201262
0.202357
0.203684
0.20541
0.207225
0.208958
0.21084
0.213085
0.215793
0.218971
0.222
0.224913
0.227523
0.23042
0.233784
0.237809
0.242759
0.250698
0.272872
0.357316
0.706921
1.15603
1.34597
1.3992
1.40216
1.38101
1.36207
1.34703
1.33361
1.31745
1.30492
1.28436
1.26391
1.23826
1.21265
1.19296
1.16625
1.14381
1.12429
1.10735
1.09881
1.09094
1.08907
1.08844
1.09613
1.10377
1.11801
1.13767
1.16386
1.19501
1.23453
1.28342
1.34315
1.40953
1.47929
1.54311
1.6062
1.66421
1.70925
1.7412
1.76264
1.77686
1.78707
1.79427
1.79849
1.80039
1.80179
1.80246
1.80134
1.80147
1.79974
1.79681
1.79511
1.79382
1.78913
1.78504
1.78219
1.77982
1.77839
1.77554
1.77341
1.77213
1.77151
1.77297
1.77336
1.77664
1.78118
1.78556
1.78955
1.79469
1.80105
1.80797
1.81677
1.82158
1.83064
1.83806
1.84876
1.85603
1.86023
1.86106
1.86088
1.868
0.196692
0.196946
0.196891
0.19684
0.196796
0.196767
0.196761
0.196779
0.196824
0.196904
0.197041
0.197241
0.197508
0.197873
0.19838
0.199033
0.199756
0.2006
0.20161
0.202847
0.204418
0.206207
0.20799
0.209763
0.211806
0.214338
0.21738
0.220522
0.223564
0.226455
0.229108
0.23226
0.236423
0.241266
0.249623
0.27394
0.364106
0.735839
1.1693
1.33987
1.38377
1.37807
1.35249
1.32863
1.30909
1.29167
1.27224
1.25716
1.23326
1.21215
1.18118
1.15261
1.12752
1.10111
1.08556
1.07336
1.06544
1.06642
1.06287
1.07467
1.08539
1.10742
1.1313
1.16451
1.2045
1.25418
1.31618
1.38511
1.4592
1.5287
1.59535
1.65763
1.70585
1.74032
1.76393
1.77941
1.78981
1.7967
1.80046
1.80181
1.80368
1.80447
1.80317
1.80244
1.80178
1.79891
1.79725
1.79693
1.79411
1.79052
1.78826
1.78471
1.77988
1.7765
1.77351
1.77156
1.76932
1.76639
1.7646
1.76381
1.76581
1.76606
1.76901
1.77296
1.77657
1.77978
1.78441
1.79048
1.79673
1.80434
1.80776
1.81654
1.82396
1.83564
1.84298
1.84751
1.84909
1.84963
1.85608
0.196611
0.19687
0.196808
0.196748
0.196684
0.196633
0.196602
0.196596
0.196617
0.196668
0.196763
0.196919
0.197136
0.197437
0.197859
0.198444
0.199117
0.199878
0.200801
0.201922
0.203302
0.205046
0.206818
0.208536
0.210471
0.212731
0.215488
0.21879
0.221981
0.225051
0.227708
0.230642
0.234878
0.239721
0.248404
0.274129
0.368733
0.747486
1.16401
1.31793
1.35463
1.34356
1.3179
1.29264
1.27055
1.24981
1.22645
1.20802
1.1783
1.14893
1.11221
1.08323
1.06122
1.04291
1.04065
1.03349
1.04416
1.05282
1.06413
1.09401
1.12434
1.16792
1.21924
1.28143
1.35229
1.43082
1.50683
1.57774
1.64615
1.69892
1.73666
1.76184
1.7788
1.79064
1.79906
1.80296
1.80391
1.80544
1.80635
1.8044
1.80353
1.80282
1.8002
1.79824
1.79752
1.79663
1.79311
1.79207
1.79023
1.78548
1.78243
1.77971
1.77475
1.77081
1.76716
1.76449
1.76279
1.75944
1.75729
1.75643
1.7584
1.75832
1.76077
1.76413
1.76715
1.76987
1.77413
1.7799
1.78532
1.79158
1.79385
1.80254
1.80988
1.82197
1.82954
1.83492
1.83723
1.83829
1.84475
0.196523
0.196785
0.196716
0.196651
0.196568
0.196491
0.196432
0.196397
0.196383
0.196404
0.196459
0.196561
0.196724
0.196955
0.197295
0.197789
0.198382
0.199064
0.199885
0.200878
0.202102
0.203679
0.205425
0.207178
0.208939
0.210955
0.213516
0.216659
0.220023
0.223186
0.226046
0.228942
0.233195
0.238183
0.247661
0.276123
0.376732
0.761818
1.14846
1.28269
1.31171
1.29403
1.26612
1.23588
1.20879
1.18039
1.14905
1.11941
1.08753
1.05643
1.03054
1.01271
1.00356
1.00321
1.01859
1.02842
1.05738
1.08222
1.12725
1.17704
1.24268
1.31468
1.39813
1.48025
1.55526
1.63068
1.68893
1.7305
1.75808
1.77691
1.78921
1.79744
1.80203
1.80499
1.80715
1.80767
1.80567
1.80479
1.80443
1.80131
1.79886
1.79771
1.79682
1.79367
1.79229
1.79178
1.78887
1.78638
1.78481
1.78068
1.77703
1.77443
1.76959
1.76509
1.76076
1.75746
1.75598
1.75258
1.75013
1.74885
1.75044
1.75007
1.75208
1.75489
1.75749
1.7599
1.76362
1.76873
1.77339
1.77861
1.78011
1.78892
1.79588
1.8076
1.81568
1.82218
1.82521
1.82678
1.83329
0.196426
0.196691
0.196615
0.196543
0.196446
0.196343
0.196252
0.196183
0.196126
0.196104
0.196117
0.196167
0.19627
0.196428
0.196684
0.197076
0.197561
0.198146
0.19887
0.199734
0.2008
0.202133
0.20383
0.205552
0.207213
0.209079
0.211314
0.214113
0.217576
0.220865
0.224018
0.22699
0.23133
0.236365
0.246803
0.279902
0.393046
0.793181
1.13687
1.25109
1.26968
1.24494
1.21406
1.175
1.14114
1.10142
1.06074
1.02566
0.997102
0.97568
0.963616
0.964141
0.981773
1.0098
1.03302
1.08045
1.12876
1.20155
1.27428
1.36282
1.4518
1.53307
1.61392
1.67754
1.723
1.75388
1.77427
1.787
1.79552
1.80094
1.80411
1.8054
1.80637
1.80629
1.8044
1.80419
1.80207
1.80014
1.79927
1.79763
1.79375
1.7917
1.79094
1.78865
1.78656
1.78608
1.78376
1.7807
1.77895
1.77582
1.7718
1.76878
1.76451
1.759
1.75416
1.75061
1.74915
1.74546
1.74248
1.7406
1.74194
1.74141
1.7431
1.74534
1.74767
1.74968
1.75252
1.75673
1.76089
1.76553
1.76652
1.77527
1.78169
1.79288
1.80176
1.80922
1.81306
1.81532
1.82187
0.19632
0.196589
0.196507
0.196424
0.196315
0.196186
0.196063
0.195957
0.195858
0.195776
0.195735
0.195731
0.195773
0.195863
0.196016
0.1963
0.196664
0.19711
0.197747
0.198481
0.199361
0.200471
0.201964
0.203625
0.205296
0.206962
0.208912
0.211449
0.214565
0.21802
0.221348
0.224514
0.228943
0.23411
0.245571
0.283919
0.410383
0.8069
1.11304
1.2033
1.21077
1.17862
1.14228
1.09278
1.0438
1.00073
0.963158
0.938324
0.921425
0.920252
0.932693
0.9658
1.01327
1.07082
1.15009
1.2267
1.32314
1.41881
1.50866
1.59624
1.66607
1.71692
1.75089
1.77248
1.78596
1.79465
1.7998
1.80262
1.8043
1.80505
1.80482
1.80281
1.8022
1.80178
1.79897
1.79798
1.79715
1.79414
1.79239
1.7912
1.78793
1.78531
1.78448
1.7827
1.78037
1.77962
1.7781
1.7748
1.77287
1.77011
1.76633
1.76243
1.75866
1.7527
1.74763
1.74399
1.74231
1.73829
1.73479
1.73236
1.73342
1.73258
1.7339
1.73561
1.73742
1.73873
1.74088
1.74445
1.74823
1.75219
1.75258
1.76091
1.76716
1.77821
1.78777
1.79592
1.80063
1.80368
1.80997
0.196204
0.19648
0.19639
0.196289
0.19617
0.196017
0.195863
0.195718
0.19558
0.195433
0.195322
0.195244
0.195216
0.195225
0.195287
0.195439
0.195686
0.195999
0.196461
0.197087
0.197789
0.198676
0.199864
0.201428
0.203003
0.204534
0.2063
0.208459
0.211158
0.214504
0.217945
0.221448
0.225776
0.231205
0.244064
0.288338
0.429182
0.812633
1.07155
1.13446
1.11822
1.07307
1.02199
0.969269
0.925799
0.897604
0.875186
0.873527
0.882501
0.922753
0.96682
1.04354
1.14755
1.25837
1.37435
1.47922
1.57836
1.65568
1.71167
1.74904
1.77216
1.78626
1.79523
1.80023
1.80256
1.80365
1.80417
1.80336
1.80164
1.79994
1.79835
1.79696
1.79534
1.79424
1.79155
1.79028
1.78974
1.78728
1.78502
1.78388
1.78124
1.77869
1.77761
1.77644
1.77385
1.7728
1.77162
1.76846
1.76668
1.7638
1.76034
1.7557
1.75218
1.74634
1.74108
1.73724
1.73537
1.73096
1.72697
1.72408
1.72488
1.72337
1.72392
1.72509
1.72629
1.72731
1.72913
1.73206
1.73533
1.73848
1.73855
1.74671
1.75296
1.76373
1.77373
1.7824
1.78841
1.79248
1.79865
0.196079
0.196362
0.196264
0.196142
0.196011
0.195834
0.195645
0.195463
0.195285
0.195073
0.194885
0.194722
0.194601
0.194516
0.194479
0.194501
0.194612
0.194791
0.195053
0.19553
0.196056
0.1967
0.197588
0.198893
0.200325
0.201788
0.20331
0.205159
0.207525
0.210356
0.213789
0.217475
0.221553
0.227695
0.243
0.296663
0.465403
0.837473
1.02965
1.06069
1.01111
0.946141
0.89653
0.862143
0.835581
0.828067
0.832989
0.870136
0.920823
1.00818
1.131
1.27206
1.41242
1.53832
1.64603
1.71156
1.75282
1.77537
1.78859
1.79664
1.80136
1.80322
1.80388
1.80388
1.80141
1.79946
1.79694
1.79515
1.7935
1.79189
1.79021
1.78883
1.78692
1.78542
1.78289
1.78148
1.78118
1.77914
1.77708
1.77606
1.7741
1.77144
1.77014
1.76924
1.76664
1.76508
1.76401
1.76155
1.75976
1.75693
1.75354
1.74884
1.74525
1.73993
1.73434
1.73026
1.72825
1.72341
1.71889
1.7154
1.71568
1.71344
1.71334
1.714
1.71474
1.71557
1.71697
1.71928
1.72214
1.72452
1.7246
1.73273
1.73875
1.74893
1.75936
1.76868
1.77618
1.78093
1.78666
0.195943
0.196235
0.196128
0.195986
0.195838
0.195638
0.195406
0.195181
0.194963
0.194705
0.194422
0.194168
0.193953
0.193761
0.193575
0.193465
0.193429
0.193448
0.193553
0.193775
0.194138
0.194535
0.195128
0.196048
0.197269
0.198547
0.19983
0.20141
0.203408
0.205836
0.208854
0.212511
0.216055
0.222522
0.239921
0.299823
0.499429
0.823387
0.944335
0.942251
0.886554
0.840213
0.810931
0.796161
0.793923
0.81714
0.870883
0.956192
1.09381
1.25858
1.42838
1.58092
1.69656
1.75853
1.78655
1.79917
1.80399
1.80588
1.80606
1.80476
1.80382
1.80067
1.79806
1.7953
1.79267
1.7905
1.78818
1.78631
1.78426
1.78251
1.78065
1.779
1.77706
1.77545
1.77345
1.77204
1.7716
1.76991
1.76826
1.76754
1.76631
1.76375
1.76221
1.76147
1.75914
1.75721
1.75629
1.75419
1.75216
1.74947
1.74613
1.74168
1.73797
1.73329
1.72739
1.72299
1.72073
1.71537
1.71025
1.70617
1.70581
1.70298
1.70246
1.70273
1.70284
1.70341
1.70415
1.70598
1.70871
1.71054
1.71099
1.71884
1.72451
1.73419
1.74502
1.7549
1.76384
1.76907
1.77507
0.195798
0.196097
0.19598
0.195818
0.195651
0.195428
0.195156
0.194876
0.194609
0.194306
0.193936
0.193586
0.193265
0.192964
0.19263
0.19234
0.192118
0.19195
0.191877
0.191896
0.192004
0.192159
0.192435
0.19293
0.193769
0.194769
0.195789
0.197012
0.198619
0.200595
0.203307
0.206241
0.209404
0.215895
0.235516
0.300142
0.526184
0.775121
0.842505
0.832105
0.801527
0.780107
0.774109
0.783757
0.829814
0.895046
1.03017
1.20317
1.40209
1.58597
1.72457
1.79209
1.81397
1.82029
1.81867
1.8155
1.81141
1.8071
1.8026
1.79852
1.79534
1.79263
1.78992
1.78715
1.78417
1.78133
1.77845
1.77619
1.77409
1.77229
1.7702
1.76834
1.76653
1.76479
1.76316
1.76178
1.76136
1.76017
1.75864
1.75801
1.75772
1.75549
1.75386
1.75334
1.7512
1.74908
1.74836
1.74643
1.74377
1.74123
1.738
1.73374
1.72988
1.72604
1.72037
1.71559
1.71293
1.70709
1.70144
1.69678
1.69548
1.69211
1.69113
1.69107
1.69054
1.691
1.69107
1.69232
1.69496
1.6962
1.69715
1.70419
1.70995
1.71959
1.73079
1.74171
1.75148
1.75685
1.76251
0.19564
0.195949
0.195821
0.19564
0.195445
0.195205
0.194891
0.194552
0.194222
0.193873
0.193425
0.192961
0.192521
0.192113
0.191656
0.191146
0.190722
0.190352
0.190015
0.189802
0.189623
0.189476
0.18948
0.189603
0.189872
0.190418
0.191107
0.191947
0.19308
0.194638
0.196569
0.198433
0.20145
0.207986
0.230004
0.301913
0.515199
0.705512
0.755184
0.763682
0.758165
0.763097
0.795362
0.846162
0.94949
1.11181
1.3202
1.53531
1.71518
1.81056
1.8371
1.84094
1.83259
1.82567
1.81779
1.81102
1.80497
1.79975
1.79511
1.79103
1.78757
1.78449
1.78139
1.77829
1.77509
1.77184
1.76869
1.76621
1.76396
1.76192
1.75979
1.75782
1.75599
1.75415
1.75255
1.75115
1.75053
1.74992
1.74828
1.74767
1.74805
1.7462
1.74453
1.74412
1.742
1.73985
1.73938
1.73765
1.73458
1.73215
1.72915
1.72519
1.72147
1.71813
1.71278
1.70765
1.70448
1.6985
1.69245
1.68725
1.68458
1.68094
1.67963
1.67929
1.67801
1.67834
1.67773
1.67813
1.68037
1.68088
1.68296
1.68953
1.69567
1.70511
1.71629
1.72799
1.73836
1.74478
1.75057
0.195471
0.19579
0.195653
0.195454
0.195223
0.194963
0.194609
0.194206
0.1938
0.193399
0.19289
0.192296
0.191728
0.191202
0.190611
0.189892
0.189219
0.188619
0.188025
0.187531
0.187106
0.186624
0.186189
0.185848
0.185637
0.185573
0.185741
0.186117
0.186669
0.187291
0.188273
0.189712
0.192558
0.198607
0.225868
0.293602
0.488565
0.633006
0.693524
0.731373
0.75728
0.804761
0.880506
1.01863
1.20565
1.43199
1.6493
1.79818
1.85085
1.85922
1.84969
1.83918
1.82827
1.81882
1.81099
1.80433
1.79834
1.79287
1.78787
1.78345
1.77964
1.77627
1.77297
1.76958
1.76602
1.76234
1.75886
1.75608
1.75379
1.75169
1.74958
1.74742
1.74539
1.74333
1.74143
1.73993
1.73891
1.73853
1.73707
1.73642
1.73709
1.73554
1.73393
1.73381
1.73186
1.72975
1.72912
1.72761
1.72467
1.72249
1.72009
1.71648
1.71298
1.70992
1.70475
1.69931
1.69542
1.68936
1.68303
1.67742
1.67343
1.6696
1.66795
1.66742
1.6652
1.66537
1.66396
1.66357
1.66517
1.66508
1.66833
1.67465
1.68144
1.69067
1.70216
1.71481
1.72586
1.73288
1.738
0.19529
0.195619
0.195473
0.195256
0.194987
0.194701
0.194311
0.193845
0.193358
0.192888
0.192314
0.191598
0.190881
0.190193
0.189484
0.188608
0.18762
0.186733
0.185863
0.185104
0.184435
0.183598
0.182672
0.181781
0.18097
0.180063
0.179554
0.179314
0.179135
0.178892
0.179264
0.180434
0.183297
0.189696
0.224358
0.285396
0.460696
0.592628
0.670437
0.737113
0.801252
0.912183
1.07932
1.29675
1.53605
1.74107
1.84655
1.87239
1.8702
1.85517
1.8437
1.83226
1.82171
1.81243
1.80441
1.79752
1.79147
1.78594
1.7808
1.77608
1.7718
1.76784
1.76411
1.76046
1.75681
1.75311
1.74961
1.74665
1.74425
1.74178
1.73943
1.73693
1.73456
1.7322
1.72997
1.72814
1.7268
1.72619
1.72521
1.7246
1.72533
1.72403
1.72254
1.72254
1.72087