/*--------------------------------*- C++ -*----------------------------------*\
| =========                 |                                                 |
| \\      /  F ield         | OpenFOAM: The Open Source CFD Toolbox           |
|  \\    /   O peration     | Version:  2.2.x                                 |
|   \\  /    A nd           | Web:      www.OpenFOAM.org                      |
|    \\/     M anipulation  |                                                 |
\*---------------------------------------------------------------------------*/
FoamFile
{
    version     2.0;
    format      ascii;
    class       surfaceScalarField;
    location    "2.3";
    object      phi;
}
// * * * * * * * * * * * * * * * * * * * * * * * * * * * * * * * * * * * * * //

dimensions      [1 0 -1 0 0 0 0];

internalField   nonuniform List<scalar> 
28084
(
0.000746225
0.000742992
0.000740219
0.00073789
0.000735978
0.000734464
0.000733326
0.000732541
0.000732081
0.000731918
0.000732027
0.000732375
0.000732939
0.000733696
0.000734614
0.000735662
0.000736823
0.000738078
0.000739401
0.000740753
0.000742118
0.00074348
0.000744827
0.000746142
0.00074744
0.000748687
0.000749839
0.000750895
0.000751856
0.000752726
0.000753425
0.000753988
0.000754524
0.000755039
0.000755736
0.000756568
0.000757276
0.000758674
0.000764855
0.000776837
0.000792184
0.000807317
0.000821126
0.000832803
0.00084223
0.000862282
0.000882021
0.000901083
0.00092002
0.000938771
0.000956696
0.000974983
0.000993045
0.00101024
0.00102785
0.0010448
0.00106131
0.00107829
0.00109424
0.00110979
0.00112618
0.00114172
0.00115617
0.00117071
0.00118468
0.00119797
0.00121251
0.00122466
0.00123505
0.00124574
0.00125656
0.0012649
0.00127219
0.00127959
0.00128608
0.00129317
0.0012967
0.00129728
0.00129758
0.00129831
0.00129819
0.00129766
0.00129689
0.00129353
0.0012894
0.00128424
0.00127756
0.00127109
0.00126611
0.00126066
0.00125454
0.00124873
0.00124245
0.00123678
0.00123284
0.00122992
0.00122771
0.00122594
0.00122406
0.0012228
0.00122342
0.00122624
0.00123196
0.00123711
0.0012398
0.00123776
0.00122376
0.00118693
0.0011174
0.00102005
0.000905409
0.000797829
0.000698607
0.000604065
0.000504561
0.000397539
0.000278563
0.000164993
3.7165e-06
3.23904e-06
0.000749742
2.77842e-06
0.000748788
2.33478e-06
0.000748266
1.91697e-06
0.000748159
1.51882e-06
0.000748445
1.14181e-06
0.000749104
7.89541e-07
0.000750115
4.62796e-07
0.000751452
1.63883e-07
0.000753089
-1.09183e-07
0.000754995
-3.51028e-07
0.000757143
-5.69631e-07
0.000759503
-7.6477e-07
0.000762044
-9.26959e-07
0.000764735
-1.05688e-06
0.000767552
-1.17502e-06
0.000770468
-1.27218e-06
0.000773452
-1.33439e-06
0.000776465
-1.36292e-06
0.000779516
-1.39362e-06
0.000782542
-1.40597e-06
0.000785531
-1.39541e-06
0.000788458
-1.36191e-06
0.000791318
-1.30661e-06
0.000794095
-1.23334e-06
0.0007968
-1.16118e-06
0.000799396
-1.08501e-06
0.000801842
-9.94194e-07
0.000804126
-9.09094e-07
0.000806254
-7.97889e-07
0.000808225
-6.78964e-07
0.000810002
-6.04136e-07
0.000811602
-5.43787e-07
0.000813038
-7.54087e-07
0.000814396
-1.14604e-06
0.000815776
-1.91521e-06
0.000817419
-4.55305e-06
0.00082016
-9.0379e-06
0.000825821
-1.2631e-05
0.000837624
-1.54237e-05
0.000854252
-1.50723e-05
0.00087226
-1.37372e-05
0.000889076
-1.16497e-05
0.000903949
-9.4918e-06
0.000916003
-2.02511e-05
0.000925726
-1.98197e-05
0.000945276
-1.955e-05
0.000964373
-1.91579e-05
0.000983054
-1.87514e-05
0.00100113
-1.86502e-05
0.00101932
-1.84645e-05
0.00103687
-1.8231e-05
0.00105435
-1.79185e-05
0.00107185
-1.75908e-05
0.00108832
-1.7467e-05
0.00110477
-1.72676e-05
0.00112145
-1.68429e-05
0.00113725
-1.63345e-05
0.00115289
-1.59071e-05
0.00116822
-1.5584e-05
0.00118312
-1.5345e-05
0.00119824
-1.47635e-05
0.00121325
-1.39452e-05
0.00122674
-1.33026e-05
0.00123985
-1.29089e-05
0.00125312
-1.23506e-05
0.00126593
-1.14604e-05
0.00127917
-1.04531e-05
0.00129072
-9.74422e-06
0.00130008
-9.37063e-06
0.00130927
-8.5361e-06
0.00131983
-7.25925e-06
0.00132747
-5.87775e-06
0.00133322
-4.84652e-06
0.00133945
-3.99014e-06
0.00134503
-3.20588e-06
0.00135134
-2.35815e-06
0.00135407
-1.46697e-06
0.00135332
-4.98412e-07
0.00135222
5.30847e-07
0.00135188
1.74347e-06
0.00135064
2.95727e-06
0.00134885
3.45437e-06
0.00134683
3.5241e-06
0.0013425
3.93406e-06
0.0013376
4.87241e-06
0.00133137
5.81344e-06
0.00132322
6.59991e-06
0.00131538
6.52834e-06
0.00130893
6.08974e-06
0.00130251
5.65146e-06
0.001296
5.62503e-06
0.00128924
5.42458e-06
0.0012818
5.03793e-06
0.00127496
3.83217e-06
0.00126991
2.57208e-06
0.00126531
1.65665e-06
0.00126137
1.01299e-06
0.0012582
5.52558e-07
0.00125429
-4.08702e-07
0.00125118
-1.83443e-06
0.00124966
-3.5446e-06
0.0012496
-3.94926e-06
0.00125035
-2.63399e-06
0.00124985
2.25585e-06
0.00124402
1.4631e-05
0.00122853
3.75897e-05
0.00119334
7.02679e-05
0.00112375
9.80334e-05
0.0010193
0.000115354
0.000905284
0.000107998
0.000799468
9.90119e-05
0.00070325
9.42991e-05
0.000613414
9.93891e-05
0.000525036
0.000107021
0.000430922
0.000118943
0.000337137
0.000113425
0.00023422
0.000164825
0.000125756
5.12075e-06
4.19872e-06
0.000754437
3.30641e-06
0.000755735
2.44685e-06
0.000757436
1.63626e-06
0.000759523
8.64679e-07
0.00076198
1.35699e-07
0.000764786
-5.44377e-07
0.000767921
-1.17147e-06
0.000771358
-1.74096e-06
0.000775068
-2.2575e-06
0.000779021
-2.70963e-06
0.000783187
-3.11492e-06
0.000787533
-3.46046e-06
0.000792029
-3.75175e-06
0.000796641
-3.98161e-06
0.000801342
-4.17543e-06
0.000806101
-4.30346e-06
0.000810875
-4.39143e-06
0.000815639
-4.39944e-06
0.000820396
-4.41334e-06
0.000825097
-4.37956e-06
0.000829696
-4.3061e-06
0.000834171
-4.18469e-06
0.000838529
-4.01979e-06
0.000842754
-3.82051e-06
0.000846837
-3.61481e-06
0.000850762
-3.39832e-06
0.000854486
-3.16052e-06
0.000857992
-2.92365e-06
0.000861286
-2.66989e-06
0.000864374
-2.40102e-06
0.0008672
-2.13394e-06
0.000869783
-1.94921e-06
0.000872139
-2.19813e-06
0.000874429
-3.12147e-06
0.000876819
-5.94854e-06
0.000879814
-1.36092e-05
0.000884925
-2.3922e-05
0.000893738
-2.99853e-05
0.00090927
-3.34905e-05
0.00092926
-3.18114e-05
0.000949605
-2.85227e-05
0.0009682
-2.36489e-05
0.000984479
-1.92288e-05
0.000997519
-3.99143e-05
0.00100817
-3.9071e-05
0.0010276
-3.85042e-05
0.00104647
-3.76953e-05
0.00106479
-3.70628e-05
0.00108262
-3.66324e-05
0.0011003
-3.63658e-05
0.00111761
-3.58188e-05
0.00113455
-3.49428e-05
0.0011515
-3.44785e-05
0.00116767
-3.41735e-05
0.00118358
-3.36995e-05
0.00119975
-3.29026e-05
0.00121485
-3.17549e-05
0.0012295
-3.09149e-05
0.00124436
-3.04025e-05
0.00125853
-2.97662e-05
0.00127245
-2.85174e-05
0.00128634
-2.69137e-05
0.00129884
-2.56563e-05
0.00131082
-2.49557e-05
0.00132327
-2.39209e-05
0.00133513
-2.20557e-05
0.00134663
-1.99443e-05
0.00135727
-1.84147e-05
0.00136553
-1.75036e-05
0.00137295
-1.60799e-05
0.00138247
-1.3616e-05
0.00138948
-1.094e-05
0.00139404
-8.81927e-06
0.00139883
-7.14666e-06
0.00140315
-5.46926e-06
0.00140841
-3.48108e-06
0.00141017
-1.55349e-06
0.00140804
3.1826e-07
0.00140559
2.36575e-06
0.00140406
4.61969e-06
0.00140198
6.84434e-06
0.00139953
8.01766e-06
0.00139601
8.51402e-06
0.00139014
9.37376e-06
0.00138398
1.10373e-05
0.00137723
1.26542e-05
0.00136847
1.38612e-05
0.00135947
1.37974e-05
0.00135173
1.3016e-05
0.00134401
1.24613e-05
0.00133619
1.24032e-05
0.00132841
1.19865e-05
0.00132012
1.09907e-05
0.00131203
9.02695e-06
0.00130566
6.87962e-06
0.00129928
5.0469e-06
0.00129333
4.44316e-06
0.00128728
3.0316e-06
0.00128143
7.26472e-07
0.00127634
-1.46714e-06
0.00127118
-2.89285e-06
0.00126528
-1.98291e-06
0.00125661
4.29358e-06
0.0012409
1.8762e-05
0.00121078
5.06166e-05
0.00116301
0.000107761
0.00107842
0.000175178
0.000962
0.000212393
0.000849369
0.000221697
0.000751112
0.000204481
0.000667634
0.000188735
0.000590505
0.000182469
0.000515021
0.00019334
0.000440419
0.000200772
0.000361648
0.000221831
0.000280786
0.000221807
0.000192256
0.000290423
9.82299e-05
4.24312e-06
2.90647e-06
0.000760312
1.61183e-06
0.000763828
3.64644e-07
0.000767719
-8.1521e-07
0.000771969
-1.93718e-06
0.000776567
-2.9946e-06
0.000781493
-3.97656e-06
0.000786722
-4.87881e-06
0.000792229
-5.69259e-06
0.000797986
-6.42374e-06
0.00080396
-7.05731e-06
0.000810118
-7.616e-06
0.000816425
-8.07828e-06
0.000822849
-8.46085e-06
0.000829357
-8.74998e-06
0.000835921
-8.96616e-06
0.000842496
-9.08806e-06
0.000849034
-9.15358e-06
0.000855536
-9.11038e-06
0.000861974
-9.03963e-06
0.000868334
-8.90426e-06
0.000874519
-8.71526e-06
0.000880537
-8.4569e-06
0.000886363
-8.13034e-06
0.000892006
-7.75035e-06
0.000897445
-7.34863e-06
0.000902686
-6.9307e-06
0.000907668
-6.48964e-06
0.000912386
-6.04856e-06
0.000916848
-5.58987e-06
0.000921051
-5.11859e-06
0.000924943
-4.61028e-06
0.000928467
-4.31326e-06
0.000931681
-4.67997e-06
0.000934777
-6.4832e-06
0.000938009
-1.24236e-05
0.000941699
-2.59891e-05
0.000947012
-4.273e-05
0.000955452
-5.0833e-05
0.000970779
-5.39019e-05
0.00099282
-5.03602e-05
0.00101526
-4.47647e-05
0.00103569
-3.66371e-05
0.00105398
-2.98125e-05
0.00106929
-5.93349e-05
0.00108161
-5.8029e-05
0.0011014
-5.69992e-05
0.00112042
-5.58701e-05
0.00113885
-5.48354e-05
0.00115684
-5.42757e-05
0.00117462
-5.37693e-05
0.00119203
-5.27931e-05
0.00120891
-5.15415e-05
0.0012256
-5.07643e-05
0.00124189
-5.02303e-05
0.00125779
-4.93377e-05
0.00127337
-4.79886e-05
0.00128808
-4.63932e-05
0.00130222
-4.52615e-05
0.00131684
-4.4375e-05
0.00133058
-4.30862e-05
0.00134336
-4.11666e-05
0.00135608
-3.89143e-05
0.00136775
-3.70816e-05
0.00137892
-3.62052e-05
0.00139044
-3.46087e-05
0.00140109
-3.15744e-05
0.0014106
-2.83847e-05
0.00142004
-2.61935e-05
0.00142756
-2.45773e-05
0.00143398
-2.25232e-05
0.00144155
-1.89535e-05
0.00144744
-1.50191e-05
0.00145085
-1.19316e-05
0.00145389
-9.43791e-06
0.00145664
-6.80499e-06
0.00146043
-3.54511e-06
0.00146141
-4.55401e-07
0.00145835
2.32056e-06
0.0014546
5.20668e-06
0.00145186
8.60543e-06
0.00144898
1.19602e-05
0.00144611
1.38237e-05
0.00144126
1.46938e-05
0.0014339
1.591e-05
0.00142649
1.83021e-05
0.00141944
2.06097e-05
0.00141039
2.21182e-05
0.00140067
2.19587e-05
0.00139182
2.10293e-05
0.00138278
2.04131e-05
0.00137371
2.02474e-05
0.0013651
1.98795e-05
0.00135592
1.8062e-05
0.00134734
1.56523e-05
0.00133905
1.32835e-05
0.00132956
1.16453e-05
0.00132002
1.0233e-05
0.00131158
7.84375e-06
0.00130323
5.64674e-06
0.0012931
4.23927e-06
0.00127955
5.94445e-06
0.00125967
1.42393e-05
0.00122818
3.54975e-05
0.00118151
6.79573e-05
0.00110485
0.000136527
0.00098537
0.000225032
0.000852382
0.000288234
0.000746997
0.000311108
0.000665355
0.000305788
0.00059783
0.000281754
0.000542032
0.000264026
0.000484093
0.00025691
0.000424607
0.000272006
0.000363407
0.000281575
0.000298085
0.000310319
0.000228853
0.000315799
0.000154336
0.00038852
7.59662e-05
1.11655e-06
-6.04386e-07
0.000767366
-2.273e-06
0.000773064
-3.88021e-06
0.00077911
-5.40848e-06
0.00078549
-6.85769e-06
0.000792197
-8.21956e-06
0.000799209
-9.47952e-06
0.000806502
-1.06323e-05
0.00081405
-1.16645e-05
0.000821823
-1.2583e-05
0.000829787
-1.33703e-05
0.000837909
-1.40472e-05
0.000846151
-1.45954e-05
0.000854481
-1.50348e-05
0.000862858
-1.53398e-05
0.000871244
-1.55202e-05
0.000879607
-1.56103e-05
0.000887905
-1.56044e-05
0.000896119
-1.5486e-05
0.000904221
-1.52518e-05
0.000912178
-1.49602e-05
0.000919932
-1.45948e-05
0.000927469
-1.41533e-05
0.000934772
-1.36216e-05
0.000941817
-1.30131e-05
0.000948595
-1.23438e-05
0.000955092
-1.16735e-05
0.000961315
-1.09732e-05
0.000967241
-1.0279e-05
0.000972878
-9.56227e-06
0.000978187
-8.80277e-06
0.000983099
-8.00899e-06
0.000987539
-7.54339e-06
0.00099161
-8.04234e-06
0.000995477
-1.05637e-05
0.000999404
-1.91431e-05
0.00100394
-3.80731e-05
0.00101093
-6.13743e-05
0.00102313
-7.38665e-05
0.00104232
-7.63923e-05
0.00106796
-7.06453e-05
0.00109268
-6.28774e-05
0.00111463
-5.17705e-05
0.00113307
-4.20227e-05
0.00114762
-7.90438e-05
0.00115926
-7.70449e-05
0.00117766
-7.5421e-05
0.00119539
-7.39583e-05
0.00121265
-7.26857e-05
0.00122974
-7.19693e-05
0.00124669
-7.10026e-05
0.00126341
-6.95324e-05
0.00127962
-6.79965e-05
0.00129579
-6.69152e-05
0.00131201
-6.58728e-05
0.00132784
-6.42704e-05
0.00134297
-6.22945e-05
0.00135742
-6.07109e-05
0.00137144
-5.92267e-05
0.00138573
-5.75495e-05
0.00139883
-5.55049e-05
0.00141077
-5.28996e-05
0.00142233
-5.00425e-05
0.00143319
-4.77705e-05
0.00144388
-4.63853e-05
0.00145432
-4.41045e-05
0.00146374
-4.02433e-05
0.00147184
-3.5997e-05
0.00147934
-3.29181e-05
0.0014861
-3.07145e-05
0.00149172
-2.7733e-05
0.00149726
-2.29402e-05
0.00150172
-1.78783e-05
0.00150414
-1.38362e-05
0.00150575
-1.07319e-05
0.00150726
-7.22713e-06
0.0015093
-2.56847e-06
0.0015094
1.89537e-06
0.00150599
5.51934e-06
0.0015014
9.01166e-06
0.00149751
1.3384e-05
0.00149436
1.78535e-05
0.00149063
2.06782e-05
0.0014844
2.21702e-05
0.00147595
2.37775e-05
0.00146727
2.65542e-05
0.00145959
2.91779e-05
0.00145103
3.06963e-05
0.00144132
3.06744e-05
0.0014319
2.99626e-05
0.00142135
2.94537e-05
0.00141029
2.92328e-05
0.00140013
2.83194e-05
0.0013897
2.65716e-05
0.00137899
2.48621e-05
0.00136704
2.29829e-05
0.00135447
2.09318e-05
0.00134155
1.95715e-05
0.0013277
1.86009e-05
0.00131166
1.94491e-05
0.00128957
2.41257e-05
0.00125677
3.73244e-05
0.00120965
6.07058e-05
0.00113667
0.000112461
0.00102445
0.000188391
0.000882418
0.000270801
0.000750991
0.000331259
0.000651047
0.000370217
0.000576466
0.000379132
0.000522135
0.000361725
0.000479236
0.000339281
0.000438205
0.00032355
0.000395741
0.000318278
0.00035013
0.000337356
0.000299994
0.000350656
0.000245288
0.000384684
0.00018707
0.000394137
0.00012624
0.000464385
6.06737e-05
-4.22044e-06
-6.2968e-06
0.000775603
-8.31325e-06
0.000783443
-1.02546e-05
0.000791605
-1.21101e-05
0.000800079
-1.38647e-05
0.000808857
-1.55085e-05
0.000817918
-1.70243e-05
0.00082724
-1.84033e-05
0.000836793
-1.96274e-05
0.000846548
-2.07061e-05
0.000856469
-2.16167e-05
0.000866521
-2.23828e-05
0.000876666
-2.29822e-05
0.00088687
-2.3432e-05
0.000897086
-2.37203e-05
0.000907265
-2.38412e-05
0.000917387
-2.38465e-05
0.000927416
-2.3726e-05
0.000937303
-2.3459e-05
0.000947037
-2.30305e-05
0.000956569
-2.25198e-05
0.000965871
-2.19429e-05
0.000974921
-2.12582e-05
0.000983682
-2.04675e-05
0.000992098
-1.95565e-05
0.00100016
-1.85889e-05
0.0010079
-1.76093e-05
0.00101535
-1.65898e-05
0.00102247
-1.55756e-05
0.00102925
-1.45404e-05
0.00103565
-1.3433e-05
0.00104156
-1.23292e-05
0.00104691
-1.16281e-05
0.00105188
-1.21548e-05
0.00105665
-1.5491e-05
0.00106168
-2.75467e-05
0.00106773
-5.40482e-05
0.00107837
-8.40372e-05
0.00109609
-0.00010065
0.00111957
-0.000101534
0.00114694
-9.27201e-05
0.00117241
-8.13455e-05
0.00119474
-6.63894e-05
0.00121288
-5.36455e-05
0.0012276
-9.74095e-05
0.0012397
-9.48042e-05
0.00125762
-9.27646e-05
0.00127504
-9.11186e-05
0.00129206
-8.986e-05
0.00130886
-8.88256e-05
0.0013252
-8.75154e-05
0.00134118
-8.56739e-05
0.00135661
-8.42768e-05
0.00137182
-8.29652e-05
0.00138702
-8.12693e-05
0.00140099
-7.87459e-05
0.00141445
-7.62973e-05
0.0014273
-7.46048e-05
0.00144007
-7.26243e-05
0.00145329
-7.00328e-05
0.00146517
-6.70639e-05
0.00147584
-6.3809e-05
0.00148625
-6.06946e-05
0.00149616
-5.78605e-05
0.00150618
-5.53492e-05
0.00151546
-5.21947e-05
0.00152315
-4.7575e-05
0.00153017
-4.26003e-05
0.00153683
-3.86951e-05
0.00154275
-3.56627e-05
0.00154739
-3.17186e-05
0.00155165
-2.5911e-05
0.00155481
-1.96996e-05
0.0015567
-1.46967e-05
0.00155807
-1.10488e-05
0.00155852
-6.82232e-06
0.00155875
-8.10207e-07
0.0015579
5.11778e-06
0.00155479
9.74655e-06
0.00155039
1.36954e-05
0.00154597
1.89031e-05
0.00154233
2.40653e-05
0.00153621
2.82004e-05
0.00152816
3.06347e-05
0.00151966
3.24177e-05
0.00151079
3.52091e-05
0.00150145
3.82138e-05
0.001492
3.9868e-05
0.00148175
4.06942e-05
0.00147075
4.06686e-05
0.00145858
4.00643e-05
0.00144548
3.98756e-05
0.00143202
3.92797e-05
0.00141823
3.82689e-05
0.0014044
3.67709e-05
0.0013893
3.54644e-05
0.00137167
3.52805e-05
0.00135079
3.69206e-05
0.00132448
4.21459e-05
0.00128929
5.32787e-05
0.00124093
7.18836e-05
0.00117201
0.00011051
0.00106803
0.000172809
0.000929066
0.000254657
0.000785663
0.000320583
0.000670507
0.000371524
0.000579818
0.000406256
0.000510964
0.000424584
0.00045983
0.000422024
0.000421579
0.000402331
0.000390264
0.000381604
0.000360186
0.000369575
0.000327078
0.000368685
0.000288923
0.000392097
0.000246085
0.000408632
0.000200805
0.000445308
0.00015258
0.000459724
0.000102969
0.000525013
4.82969e-05
-1.17258e-05
-1.41299e-05
0.000785031
-1.64691e-05
0.000794966
-1.87237e-05
0.000805201
-2.08823e-05
0.000815728
-2.29214e-05
0.000826536
-2.48259e-05
0.000837608
-2.65745e-05
0.000848919
-2.81563e-05
0.00086044
-2.95472e-05
0.00087214
-3.07586e-05
0.000883982
-3.17617e-05
0.00089593
-3.25875e-05
0.000907944
-3.32057e-05
0.000919979
-3.36205e-05
0.000931998
-3.38571e-05
0.000943951
-3.38956e-05
0.000955804
-3.3756e-05
0.000967522
-3.34767e-05
0.000979071
-3.3007e-05
0.000990396
-3.23593e-05
0.00100146
-3.15753e-05
0.00101228
-3.07304e-05
0.00102282
-2.9739e-05
0.001033
-2.86285e-05
0.00104278
-2.73817e-05
0.00105209
-2.60613e-05
0.00106104
-2.47168e-05
0.00106967
-2.33124e-05
0.00107796
-2.19106e-05
0.00108588
-2.0498e-05
0.00109336
-1.90142e-05
0.00110028
-1.76181e-05
0.00110654
-1.67268e-05
0.00111232
-1.74639e-05
0.00111784
-2.19998e-05
0.00112342
-3.96577e-05
0.00112976
-7.5681e-05
0.00113983
-0.000111087
0.00115817
-0.000129174
0.00118288
-0.000127469
0.00121364
-0.000115181
0.00124029
-9.95081e-05
0.00126369
-8.10362e-05
0.00128295
-6.56168e-05
0.00129874
-0.000115182
0.00131179
-0.000112033
0.00132958
-0.000109654
0.00134686
-0.000107748
0.00136382
-0.000106297
0.00138046
-0.000104844
0.00139657
-0.000102885
0.00141202
-0.000100976
0.00142729
-9.92923e-05
0.00144225
-9.75747e-05
0.00145695
-9.49624e-05
0.00147083
-9.16546e-05
0.00148369
-8.9212e-05
0.00149694
-8.71879e-05
0.00150958
-8.48181e-05
0.00152186
-8.12866e-05
0.00153322
-7.73622e-05
0.00154327
-7.40134e-05
0.00155332
-7.05576e-05
0.00156285
-6.7089e-05
0.00157103
-6.35621e-05
0.0015793
-5.92127e-05
0.00158583
-5.38496e-05
0.00159139
-4.81509e-05
0.001598
-4.35886e-05
0.00160324
-3.979e-05
0.00160675
-3.49533e-05
0.00161001
-2.83739e-05
0.00161259
-2.09587e-05
0.00161429
-1.48657e-05
0.00161586
-1.04218e-05
0.00161487
-5.64899e-06
0.00161273
1.27492e-06
0.00161022
8.41087e-06
0.00160637
1.41387e-05
0.00160128
1.9491e-05
0.00159574
2.54482e-05
0.0015894
3.13033e-05
0.00158199
3.61299e-05
0.00157337
3.9303e-05
0.00156398
4.20009e-05
0.00155363
4.51761e-05
0.0015424
4.8599e-05
0.00153113
5.10335e-05
0.00151997
5.23885e-05
0.00150731
5.32716e-05
0.00149204
5.395e-05
0.00147543
5.43774e-05
0.00145852
5.39203e-05
0.00144098
5.36219e-05
0.0014212
5.38285e-05
0.00139766
5.56888e-05
0.0013677
6.15253e-05
0.00132887
7.28264e-05
0.00127796
9.16951e-05
0.00120921
0.000123268
0.00111026
0.000176532
0.000976729
0.000249855
0.000831789
0.000316487
0.000707617
0.000370338
0.000607022
0.000411823
0.000527285
0.000440713
0.000464909
0.000457309
0.000416329
0.000462567
0.000379624
0.00045313
0.000351718
0.000432181
0.00032791
0.000414982
0.000302566
0.00040813
0.000273763
0.000411586
0.000240359
0.000437314
0.000203312
0.000456658
0.000164883
0.000494769
0.000124738
0.000514417
8.39989e-05
0.000573275
3.8763e-05
-2.13541e-05
-2.40586e-05
0.000795655
-2.66978e-05
0.000807639
-2.92455e-05
0.000819899
-3.16856e-05
0.000832433
-3.39886e-05
0.000845227
-3.61332e-05
0.000858265
-3.80931e-05
0.000871522
-3.98546e-05
0.000884968
-4.13887e-05
0.000898571
-4.27075e-05
0.000912293
-4.37771e-05
0.000926098
-4.46252e-05
0.000939941
-4.52309e-05
0.000953769
-4.55818e-05
0.00096755
-4.57255e-05
0.000981242
-4.56306e-05
0.000994784
-4.53245e-05
0.00100816
-4.48288e-05
0.00102134
-4.41049e-05
0.00103422
-4.31995e-05
0.0010468
-4.2112e-05
0.00105908
-4.09185e-05
0.00107106
-3.95746e-05
0.00108264
-3.80868e-05
0.00109376
-3.64595e-05
0.00110434
-3.47283e-05
0.00111446
-3.29616e-05
0.00112425
-3.11289e-05
0.00113367
-2.92801e-05
0.00114268
-2.74352e-05
0.00115125
-2.55345e-05
0.0011592
-2.37839e-05
0.00116634
-2.26127e-05
0.00117291
-2.34018e-05
0.00117921
-2.89146e-05
0.00118551
-5.14017e-05
0.00119245
-9.82458e-05
0.00120237
-0.000139602
0.00121816
-0.000160998
0.00124308
-0.00015439
0.001275
-0.000138544
0.00130236
-0.000118635
0.00132668
-9.65983e-05
0.00134733
-7.84592e-05
0.00136473
-0.000132776
0.00137876
-0.000129044
0.00139662
-0.000126285
0.00141379
-0.000124136
0.0014306
-0.000122301
0.00144709
-0.000120322
0.00146301
-0.000118077
0.00147844
-0.000115887
0.00149348
-0.000114018
0.00150847
-0.000111707
0.00152286
-0.000108263
0.00153654
-0.000104836
0.00154976
-0.000101945
0.00156216
-9.95524e-05
0.00157495
-9.60369e-05
0.00158602
-9.15392e-05
0.00159628
-8.73176e-05
0.00160652
-8.32414e-05
0.00161556
-7.93721e-05
0.00162509
-7.53792e-05
0.00163258
-7.0821e-05
0.00163874
-6.57071e-05
0.00164528
-5.94473e-05
0.00165097
-5.29467e-05
0.00165683
-4.78053e-05
0.00166149
-4.30701e-05
0.00166357
-3.76598e-05
0.0016655
-3.03536e-05
0.00166776
-2.19156e-05
0.00167013
-1.44898e-05
0.00167128
-8.68167e-06
0.00166818
-2.49331e-06
0.00166379
4.90379e-06
0.00165991
1.2962e-05
0.00165666
1.99944e-05
0.00165236
2.63662e-05
0.00164641
3.27473e-05
0.00163788
3.94694e-05
0.00162908
4.50553e-05
0.00161906
4.91158e-05
0.00160817
5.31215e-05
0.00159582
5.68308e-05
0.00158257
6.05751e-05
0.00156826
6.41802e-05
0.00155345
6.73782e-05
0.00153723
6.94872e-05
0.00151916
7.0789e-05
0.00149855
7.25023e-05
0.00147502
7.47019e-05
0.00144791
7.77933e-05
0.00141465
8.38918e-05
0.00137213
9.46814e-05
0.00131806
0.000112801
0.00124697
0.000142056
0.00114906
0.000191114
0.00101945
0.000256993
0.000877222
0.000321553
0.000750304
0.000374304
0.000645184
0.000417538
0.000559028
0.000450463
0.000489951
0.000474375
0.000434686
0.000489242
0.000390867
0.000493753
0.00035595
0.000490244
0.000327714
0.000476949
0.000304333
0.000457825
0.000282525
0.000444349
0.000259046
0.000441677
0.000232396
0.00044835
0.000202065
0.000475633
0.000169158
0.000496898
0.000136154
0.000535543
0.000101974
0.000559606
6.80804e-05
0.00061192
3.08144e-05
-3.3055e-05
-3.60357e-05
0.000807488
-3.89524e-05
0.000821466
-4.17741e-05
0.000835701
-4.44751e-05
0.00085019
-4.70221e-05
0.000864921
-4.93868e-05
0.000879876
-5.15369e-05
0.000895032
-5.34556e-05
0.000910356
-5.51107e-05
0.000925816
-5.65127e-05
0.000941374
-5.76224e-05
0.000956989
-5.84572e-05
0.000972619
-5.90181e-05
0.000988199
-5.92828e-05
0.00100371
-5.92836e-05
0.00101909
-5.9015e-05
0.00103428
-5.85192e-05
0.0010493
-5.77457e-05
0.00106404
-5.67284e-05
0.00107844
-5.55039e-05
0.0010925
-5.40786e-05
0.00110621
-5.24818e-05
0.0011196
-5.07366e-05
0.00113256
-4.88334e-05
0.001145
-4.67641e-05
0.00115682
-4.45931e-05
0.00116815
-4.234e-05
0.00117906
-4.0022e-05
0.00118956
-3.76924e-05
0.00119963
-3.5363e-05
0.00120923
-3.29703e-05
0.00121817
-3.07908e-05
0.00122622
-2.93379e-05
0.0012336
-3.01136e-05
0.00124069
-3.65401e-05
0.00124787
-6.31994e-05
0.00125611
-0.00011864
0.00126972
-0.000168578
0.00129254
-0.000194055
0.00132339
-0.000182022
0.0013552
-0.000162826
0.0013817
-0.000139142
0.0014048
-0.000113814
0.0014242
-9.23351e-05
0.00144112
-0.000150519
0.00145566
-0.000146027
0.00147308
-0.000142771
0.00149005
-0.00014036
0.0015067
-0.000138098
0.00152286
-0.000135657
0.00153846
-0.000133093
0.0015536
-0.000130763
0.00156825
-0.000128532
0.0015823
-0.000125587
0.00159557
-0.000121588
0.00160792
-0.000117524
0.00162041
-0.000114507
0.00163252
-0.000110985
0.00164398
-0.000106506
0.00165411
-0.000101383
0.00166293
-9.65979e-05
0.00167181
-9.22004e-05
0.00168128
-8.73376e-05
0.00168902
-8.24629e-05
0.00169594
-7.77542e-05
0.00170209
-7.17283e-05
0.00170759
-6.49309e-05
0.00171331
-5.7602e-05
0.00171829
-5.10144e-05
0.00172061
-4.5697e-05
0.00172188
-3.95656e-05
0.00172396
-3.15523e-05
0.00172636
-2.22537e-05
0.00173013
-1.33289e-05
0.00172986
-6.0449e-06
0.00172631
1.43577e-06
0.0017224
9.34623e-06
0.00171731
1.77123e-05
0.00171263
2.61698e-05
0.00170659
3.4244e-05
0.00169845
4.15912e-05
0.00168741
4.9104e-05
0.00167599
5.56692e-05
0.00166354
6.10039e-05
0.00165028
6.62373e-05
0.00163478
7.1494e-05
0.00161766
7.66601e-05
0.00159975
8.1365e-05
0.00158087
8.55117e-05
0.00155933
8.96595e-05
0.0015338
9.39243e-05
0.00150289
9.95997e-05
0.00146518
0.00010837
0.00141754
0.000120853
0.00135909
0.000138775
0.00128294
0.000167023
0.00118227
0.000211978
0.00105502
0.000272318
0.000917365
0.000333126
0.000791915
0.000383492
0.000686073
0.000426739
0.000597344
0.000460874
0.000524436
0.000486954
0.00046481
0.000505842
0.000416364
0.000518086
0.00037611
0.000523911
0.000342462
0.00052182
0.000314843
0.000513657
0.000291813
0.000498999
0.000271271
0.000481808
0.000250271
0.000471255
0.00022758
0.000471814
0.000201937
0.000480958
0.000172864
0.000508628
0.000142849
0.000531286
0.000113479
0.000569558
8.35119e-05
0.000596843
5.46369e-05
0.00064262
2.42479e-05
-4.67752e-05
-5.00083e-05
0.000820538
-5.31811e-05
0.000836455
-5.6258e-05
0.000852608
-5.92018e-05
0.000868997
-6.19736e-05
0.000885613
-6.45395e-05
0.000902434
-6.68584e-05
0.000919437
-6.89137e-05
0.000936591
-7.06682e-05
0.000953861
-7.21271e-05
0.000971207
-7.32552e-05
0.00098858
-7.40422e-05
0.00100594
-7.45276e-05
0.00102325
-7.46787e-05
0.00104043
-7.44958e-05
0.00105746
-7.40315e-05
0.00107428
-7.32762e-05
0.00109087
-7.21879e-05
0.00110711
-7.08408e-05
0.001123
-6.92483e-05
0.00113851
-6.74382e-05
0.00115365
-6.53982e-05
0.0011684
-6.31982e-05
0.00118268
-6.08292e-05
0.00119639
-5.83142e-05
0.00120948
-5.56247e-05
0.00122194
-5.28238e-05
0.00123392
-4.99744e-05
0.00124546
-4.7114e-05
0.00125655
-4.42588e-05
0.0012672
-4.13194e-05
0.00127712
-3.86458e-05
0.00128607
-3.68918e-05
0.00129424
-3.77444e-05
0.00130201
-4.55323e-05
0.00130979
-7.8904e-05
0.00131835
-0.000146323
0.00133135
-0.000203544
0.00135537
-0.000226933
0.00138647
-0.000208726
0.00141623
-0.0001858
0.0014418
-0.000158315
0.00146445
-0.000130536
0.00148435
-0.000106707
0.00150167
-0.000167799
0.00151707
-0.000162808
0.0015343
-0.000159147
0.00155136
-0.000156218
0.00156811
-0.000153409
0.00158438
-0.000150499
0.0016001
-0.000147677
0.00161547
-0.000144912
0.00163038
-0.00014198
0.00164424
-0.000138181
0.00165737
-0.000133943
0.00166939
-0.000129679
0.00168226
-0.000126042
0.00169455
-0.000121435
0.00170626
-0.000115659
0.00171654
-0.000110291
0.00172607
-0.000105593
0.0017357
-0.000100189
0.00174504
-9.44394e-05
0.00175266
-8.84565e-05
0.00175895
-8.31074e-05
0.00176558
-7.75295e-05
0.00177277
-6.97945e-05
0.00178068
-6.17007e-05
0.00178568
-5.42445e-05
0.00178697
-4.7555e-05
0.00178749
-4.09443e-05
0.00178876
-3.26992e-05
0.00179111
-2.29078e-05
0.00179434
-1.30268e-05
0.00179387
-3.79905e-06
0.00178818
5.74761e-06
0.00178194
1.50546e-05
0.00177399
2.48412e-05
0.00176581
3.47664e-05
0.0017571
4.41979e-05
0.00174733
5.25501e-05
0.00173468
6.10287e-05
0.00172019
6.88481e-05
0.00170402
7.64204e-05
0.00168649
8.34319e-05
0.00166735
8.99713e-05
0.00164552
9.68363e-05
0.00162061
0.000104185
0.00159218
0.000111506
0.00155824
0.000120349
0.00151636
0.000131323
0.00146341
0.000147027
0.00139921
0.000166709
0.00131707
0.000197265
0.00121036
0.000240318
0.00108224
0.000295666
0.000949092
0.000350915
0.000828696
0.000397841
0.000725662
0.000438208
0.000637174
0.000471951
0.000562935
0.00049994
0.00050085
0.000520918
0.000449569
0.000535579
0.000406043
0.000546041
0.000369302
0.000551588
0.000338579
0.000551371
0.000312228
0.000544812
0.00028927
0.00053438
0.000268272
0.000520349
0.000248037
0.000504754
0.000226917
0.000496582
0.000204499
0.000500489
0.000179501
0.000510934
0.000151705
0.000538155
0.000124116
0.000561428
9.76265e-05
0.000598572
7.12998e-05
0.000627261
4.63857e-05
0.000666843
2.10076e-05
-6.2456e-05
-6.59186e-05
0.000834818
-6.93279e-05
0.000852612
-7.26422e-05
0.000870623
-7.58122e-05
0.000888855
-7.87908e-05
0.000907296
-8.15396e-05
0.000925928
-8.401e-05
0.000944722
-8.61821e-05
0.000963652
-8.80138e-05
0.000982675
-8.95002e-05
0.00100176
-9.06223e-05
0.00102084
-9.13486e-05
0.00103989
-9.17198e-05
0.00105886
-9.17179e-05
0.00107767
-9.13353e-05
0.00109629
-9.06259e-05
0.0011147
-8.9546e-05
0.0011328
-8.81259e-05
0.00115054
-8.64102e-05
0.00116788
-8.44195e-05
0.00118481
-8.2169e-05
0.00120129
-7.9626e-05
0.00121732
-7.69144e-05
0.00123289
-7.40399e-05
0.00124785
-7.10206e-05
0.00126222
-6.7783e-05
0.00127582
-6.43822e-05
0.00128879
-6.0946e-05
0.00130129
-5.74792e-05
0.00131334
-5.40805e-05
0.00132503
-5.05464e-05
0.00133594
-4.73204e-05
0.00134579
-4.51946e-05
0.00135474
-4.60435e-05
0.00136316
-5.49545e-05
0.00137138
-9.41634e-05
0.00137974
-0.00017537
0.00138869
-0.000238795
0.00140597
-0.000257735
0.00142916
-0.0002345
0.00145553
-0.000208294
0.00148031
-0.000177958
0.00150412
-0.000147711
0.00152629
-0.000121988
0.00154599
-0.000184894
0.00156361
-0.000179715
0.00158202
-0.000175694
0.00160065
-0.000172133
0.00161871
-0.00016874
0.00163625
-0.000165363
0.00165355
-0.000162367
0.00167049
-0.000158926
0.0016873
-0.00015515
0.00170264
-0.000150861
0.0017177
-0.00014631
0.0017315
-0.000142086
0.00174507
-0.00013739
0.0017585
-0.000132227
0.00177039
-0.000125439
0.0017826
-0.000119976
0.00179302
-0.000114702
0.00180383
-0.000108584
0.00181301
-0.000101167
0.00182058
-9.44803e-05
0.00182814
-8.89135e-05
0.00183522
-8.30847e-05
0.00184233
-7.54884e-05
0.0018524
-6.62986e-05
0.0018574
-5.7338e-05
0.00185847
-4.91045e-05
0.00185907
-4.11578e-05
0.00185934
-3.22065e-05
0.00186
-2.21354e-05
0.00186
-1.06503e-05
0.00185714
6.13751e-07
0.00184982
1.24171e-05
0.00184058
2.36316e-05
0.00183009
3.47779e-05
0.00181877
4.54617e-05
0.00180636
5.61848e-05
0.00179269
6.65242e-05
0.00177667
7.67633e-05
0.00175817
8.62552e-05
0.00173729
9.57157e-05
0.00171324
0.000105371
0.00168512
0.000115349
0.00165171
0.000126314
0.00161221
0.000139278
0.00156392
0.000154061
0.0015062
0.000173495
0.00143418
0.000195515
0.00134371
0.000229083
0.0012294
0.000273357
0.00110013
0.000325575
0.000972843
0.000374119
0.000859047
0.000417159
0.000760297
0.000454483
0.000675161
0.000485843
0.000601881
0.000511936
0.000539102
0.000534164
0.000486298
0.000551673
0.00044138
0.00056482
0.000402442