/*--------------------------------*- C++ -*----------------------------------*\
| =========                 |                                                 |
| \\      /  F ield         | OpenFOAM: The Open Source CFD Toolbox           |
|  \\    /   O peration     | Version:  2.2.x                                 |
|   \\  /    A nd           | Web:      www.OpenFOAM.org                      |
|    \\/     M anipulation  |                                                 |
\*---------------------------------------------------------------------------*/
FoamFile
{
    version     2.0;
    format      ascii;
    class       volScalarField;
    location    "0.3";
    object      T;
}
// * * * * * * * * * * * * * * * * * * * * * * * * * * * * * * * * * * * * * //

dimensions      [0 0 0 1 0 0 0];

internalField   nonuniform List<scalar> 
14161
(
1
1
1
1
1
1
1
1
1
1
1
1
1
1
1
1
1
1
1
1
1
1
1
1
1
1
1
1
1
1
1
1
1
1
1
1
1
1
1
1
1
1
1
1
1
1
1
1
1
1
1
1
1
1
1.00003
0.977132
7.45943
12.9709
12.9603
12.9069
12.736
12.6159
12.6031
12.6337
12.687
12.7674
12.8583
12.9211
12.9559
12.9813
13.0069
13.0324
13.0288
12.9993
12.9431
12.9398
12.9761
13.0286
13.0771
13.1243
13.1592
13.184
13.194
13.181
13.1657
13.1793
13.2058
13.2416
13.2772
13.3085
13.3207
13.313
13.3108
13.3293
13.3576
13.3896
13.4166
13.4299
13.443
13.4461
13.4461
13.4494
13.4594
13.4841
13.5191
13.5518
13.5771
13.5936
13.5985
13.6037
13.6152
13.6285
13.6454
13.6684
13.6969
13.7256
13.7597
13.7955
13.9023
1
1
1
1
1
1
1
1
1
1
1
1
1
1
1
1
1
1
1
1
1
1
1
1
1
1
1
1
1
1
1
1
1
1
1
1
1
1
1
1
1
1
1
1
1
1
1
1
1
1
1
1
1
1
1.00004
0.969247
9.57635
13.5977
13.4836
13.0757
12.7311
12.6417
12.651
12.7261
12.8272
12.9712
13.1719
13.3909
13.4798
13.4814
13.4322
13.3088
13.1068
13.0367
13.0745
13.1583
13.3138
13.4472
13.4934
13.495
13.4353
13.3321
13.3226
13.3725
13.4339
13.4866
13.5109
13.5104
13.4857
13.4818
13.5008
13.5207
13.5338
13.5446
13.5554
13.5717
13.5942
13.6146
13.6286
13.6266
13.6179
13.6149
13.6231
13.6391
13.6675
13.6965
13.7196
13.7345
13.7399
13.7475
13.7609
13.7768
13.7971
13.822
13.8502
13.877
13.8944
13.9056
13.9487
1
1
1
1
1
1
1
1
1
1
1
1
1
1
1
1
1
1
1
1
1
1
1
1
1
1
1
1
1
1
1
1
1
1
1
1
1
1
1
1
1
1
1
1
1
1
1
1
1
1
1
1
1
1
1.00001
0.987095
6.25804
12.7401
12.8125
12.8128
12.7364
12.6355
12.6197
12.6441
12.6892
12.755
12.825
12.8646
12.8661
12.8869
12.9198
12.9532
12.9732
12.9754
12.962
12.9764
13.0231
13.0849
13.1402
13.1793
13.1991
13.2031
13.1935
13.2142
13.2568
13.3033
13.3446
13.3731
13.3933
13.3969
13.4111
13.4299
13.4528
13.4741
13.4965
13.5194
13.5439
13.5708
13.5931
13.5996
13.598
13.602
13.6172
13.6426
13.6774
13.712
13.7405
13.7595
13.7704
13.7839
13.802
13.8227
13.8483
13.8823
13.923
13.9672
13.9788
13.9645
13.9369
1
1
1
1
1
1
1
1
1
1
1
1
1
1
1
1
1
1
1
1
1
1
1
1
1
1
1
1
1
1
1
1
1
1
1
1
1
1
1
1
1
1
1
1
1
1
1
1
1
1
1
1
1
1
1.00002
0.977761
9.44961
13.5887
13.4528
13.0453
12.7146
12.6375
12.6533
12.7323
12.8321
12.9686
13.1501
13.3233
13.39
13.3944
13.3547
13.2592
13.0955
13.0072
13.0194
13.0735
13.1656
13.2743
13.333
13.3535
13.3354
13.2765
13.2118
13.2101
13.2534
13.3033
13.3466
13.3764
13.3903
13.3761
13.3743
13.3919
13.415
13.4393
13.4637
13.4865
13.5081
13.5333
13.5544
13.5638
13.5665
13.5748
13.5956
13.6293
13.6655
13.7
13.729
13.7489
13.7644
13.782
13.8043
13.8293
13.8607
13.903
13.9576
14.0274
14.0577
14.0441
13.9572
1
1
1
1
1
1
1
1
1
1
1
1
1
1
1
1
1
1
1
1
1
1
1
1
1
1
1
1
1
1
1
1
1
1
1
1
1
1
1
1
1
1
1
1
1
1
1
1
1
1
1
1
1
1
1.00001
0.989511
6.80733
12.9891
12.9509
12.8886
12.6999
12.6205
12.6322
12.6853
12.7527
12.8234
12.8941
12.9568
13.0165
13.0611
13.0844
13.0861
13.059
12.9878
12.9612
12.9963
13.063
13.1602
13.2439
13.294
13.3144
13.2962
13.2446
13.2479
13.2852
13.3301
13.3718
13.4003
13.4139
13.398
13.3891
13.4036
13.4252
13.4492
13.4727
13.4925
13.5096
13.5318
13.5499
13.5546
13.5544
13.5616
13.5827
13.6177
13.654
13.6871
13.7158
13.7361
13.7534
13.7723
13.7944
13.8196
13.8524
13.898
13.9633
14.0567
14.1261
14.1103
13.9743
1
1
1
1
1
1
1
1
1
1
1
1
1
1
1
1
1
1
1
1
1
1
1
1
1
1
1
1
1
1
1
1
1
1
1
1
1
1
1
1
1
1
1
1
1
1
1
1
1
1
1
1
1
1
1.00001
0.990204
7.30474
13.1673
13.031
12.8567
12.6325
12.5783
12.6056
12.6602
12.7516
12.8481
12.9159
12.9603
12.9876
13.0399
13.0937
13.1136
13.092
13.0164
12.9694
12.9893
13.0423
13.1128
13.1805
13.229
13.2655
13.2796
13.2455
13.2181
13.2374
13.2735
13.3214
13.3597
13.3861
13.3865
13.3792
13.3919
13.4137
13.4401
13.468
13.492
13.5097
13.5316
13.5493
13.5517
13.5494
13.5568
13.5763
13.6108
13.6461
13.6779
13.7033
13.7215
13.7388
13.759
13.7821
13.8073
13.8409
13.8881
13.9578
14.0592
14.1683
14.1567
13.9959
1
1
1
1
1
1
1
1
1
1
1
1
1
1
1
1
1
1
1
1
1
1
1
1
1
1
1
1
1
1
1
1
1
1
1
1
1
1
1
1
1
1
1
1
1
1
1
1
1
1
1
1
1
1
1.00001
0.989681
8.29853
13.4935
13.208
12.8121
12.635
12.614
12.6631
12.7424
12.8459
12.9609
13.0762
13.1695
13.2125
13.2454
13.2482
13.2
13.0866
12.9809
12.9691
13.006
13.0609
13.1497
13.2144
13.255
13.277
13.2756
13.2312
13.1966
13.2171
13.256
13.3034
13.3422
13.3723
13.3774
13.3685
13.3797
13.3987
13.4258
13.4537
13.4785
13.4958
13.5166
13.5332
13.5363
13.5382
13.5489
13.5716
13.6052
13.6395
13.6702
13.6936
13.7095
13.7256
13.7454
13.7673
13.7917
13.8259
13.8745
13.9474
14.051
14.1944
14.1917
14.0159
1
1
1
1
1
1
1
1
1
1
1
1
1
1
1
1
1
1
1
1
1
1
1
1
1
1
1
1
1
1
1
1
1
1
1
1
1
1
1
1
1
1
1
1
1
1
1
1
1
1
1
1
1
1
1
0.996104
5.56287
13.0789
12.8621
12.7023
12.5966
12.6022
12.6518
12.7239
12.8114
12.883
12.9304
12.9767
13.027
13.0798
13.1158
13.1034
13.0489
12.9564
12.9532
13.0016
13.0703
13.1648
13.236
13.279
13.2998
13.2915
13.2355
13.2052
13.2313
13.269
13.3155
13.3523
13.3777
13.377
13.3611
13.3692
13.3897
13.4173
13.4463
13.4704
13.4869
13.5067
13.5213
13.5246
13.5284
13.5409
13.5661
13.5998
13.6337
13.6628
13.6845
13.6991
13.7138
13.7327
13.7531
13.7758
13.8092
13.8587
13.9329
14.0375
14.2016
14.2155
14.0324
1
1
1
1
1
1
1
1
1
1
1
1
1
1
1
1
1
1
1
1
1
1
1
1
1
1
1
1
1
1
1
1
1
1
1
1
1
1
1
1
1
1
1
1
1
1
1
1
1
1
1
1
1
1
1
0.997228
5.51065
13.2276
12.7937
12.5823
12.5468
12.5991
12.6869
12.7746
12.8413
12.8802
12.9141
12.9657
13.0238
13.0742
13.0947
13.0879
13.0348
12.9508
12.9497
12.9857
13.0393
13.123
13.1955
13.2494
13.2758
13.2698
13.2198
13.1966
13.2249
13.2655
13.3172
13.356
13.3784
13.3747
13.3543
13.3618
13.3845
13.4138
13.4436
13.4661
13.4805
13.4985
13.5107
13.514
13.5189
13.5331
13.5607
13.5948
13.6276
13.6546
13.6747
13.6887
13.7029
13.7203
13.7388
13.7601
13.7918
13.8407
13.9148
14.0203
14.1974
14.2316
14.0452
1
1
1
1
1
1
1
1
1
1
1
1
1
1
1
1
1
1
1
1
1
1
1
1
1
1
1
1
1
1
1
1
1
1
1
1
1
1
1
1
1
1
1
1
1
1
1
1
1
1
1
1
1
1
1
0.99853
4.72176
13.1327
12.6856
12.5747
12.6067
12.6745
12.7533
12.8339
12.9221
12.9799
13.0317
13.084
13.1308
13.1539
13.1403
13.0868
12.9761
12.9183
12.9334
12.9691
13.0264
13.1084
13.1746
13.2294
13.2509
13.2446
13.193
13.1755
13.2075
13.2528
13.3086
13.3486
13.3687
13.3645
13.3449
13.3533
13.3773
13.4081
13.4385
13.4597
13.4729
13.4898
13.5001
13.5036
13.5104
13.5268
13.5561
13.5898
13.6204
13.6449
13.6635
13.6779
13.693
13.7089
13.7255
13.7449
13.7749
13.8229
13.8947
14.0005
14.1824
14.2413
14.0558
1
1
1
1
1
1
1
1
1
1
1
1
1
1
1
1
1
1
1
1
1
1
1
1
1
1
1
1
1
1
1
1
1
1
1
1
1
1
1
1
1
1
1
1
1
1
1
1
1
1
1
1
1
1
1
0.999902
1.65088
12.59
12.5566
12.5645
12.5965
12.6508
12.7243
12.8055
12.8604
12.8968
12.945
13.0028
13.0621
13.0952
13.0938
13.0446
12.9363
12.9076
12.9364
12.9794
13.0529
13.1442
13.2042
13.2514
13.2609
13.2418
13.1796
13.166
13.1997
13.2454
13.3008
13.3403
13.3587
13.3522
13.3323
13.3422
13.3675
13.4002
13.4319
13.4531
13.466
13.4819
13.4892
13.4941
13.5037
13.5228
13.553
13.5852
13.6123
13.6332
13.6502
13.6663
13.6833
13.6986
13.7129
13.7312
13.7593
13.8057
13.8736
13.9785
14.1609
14.2464
14.0656
1
1
1
1
1
1
1
1
1
1
1
1
1
1
1
1
1
1
1
1
1
1
1
1
1
1
1
1
1
1
1
1
1
1
1
1
1
1
1
1
1
1
1
1
1
1
1
1
1
1
1
1
1
1
1
1
0.970852
12.3699
12.5399
12.5648
12.6086
12.673
12.7604
12.8221
12.8627
12.8831
12.9297
12.989
13.0452
13.069
13.051
12.9774
12.8829
12.8859
12.9206
12.9708
13.0524
13.1389
13.196
13.2385
13.2449
13.2227
13.1627
13.159
13.1968
13.2441
13.3
13.3382
13.3533
13.3413
13.3201
13.3302
13.3558
13.3891
13.4216
13.4432
13.4568
13.4724
13.4789
13.4862
13.4987
13.5207
13.5508
13.5801
13.6031
13.6203
13.6361
13.6537
13.6722
13.6884
13.7011
13.718
13.7442
13.7875
13.8519
13.9541
14.1342
14.2476
14.0752
1
1
1
1
1
1
1
1
1
1
1
1
1
1
1
1
1
1
1
1
1
1
1
1
1
1
1
1
1
1
1
1
1
1
1
1
1
1
1
1
1
1
1
1
1
1
1
1
1
1
1
1
1
1
1
1
0.993692
12.1365
12.5336
12.5825
12.6369
12.7243
12.7917
12.836
12.8569
12.8984
12.9551
13.0177
13.0577
13.0534
13.0026
12.8917
12.8487
12.8753
12.9153
12.9714
13.0559
13.1301
13.1822
13.2173
13.2228
13.1937
13.1427
13.1527
13.1919
13.2403
13.2967
13.3336
13.346
13.3288
13.3069
13.3177
13.3432
13.3761
13.4078
13.429
13.444
13.4598
13.4676
13.4785
13.495
13.5197
13.5486
13.5743
13.5935
13.6074
13.6221
13.6407
13.6603
13.6769
13.6887
13.7048
13.7293
13.7689
13.8296
13.9284
14.1018
14.2437
14.0862
1
1
1
1
1
1
1
1
1
1
1
1
1
1
1
1
1
1
1
1
1
1
1
1
1
1
1
1
1
1
1
1
1
1
1
1
1
1
1
1
1
1
1
1
1
1
1
1
1
1
1
1
1
1
1
1
0.998351
11.8334
12.5359
12.6138
12.6941
12.7667
12.8017
12.8115
12.8487
12.9147
12.9852
13.0338
13.046
13.0094
12.9115
12.8328
12.842
12.8784
12.9242
12.9868
13.069
13.1287
13.175
13.2002
13.1993
13.1567
13.12
13.1443
13.185
13.2365
13.2894
13.3233
13.333
13.3118
13.2918
13.306
13.3326
13.3648
13.3936
13.4126
13.4276
13.4429
13.4544
13.4699
13.4907
13.517
13.5445
13.5669
13.5825
13.5938
13.6079
13.6274
13.6473
13.6637
13.6762
13.6917
13.7144
13.7503
13.8069
13.9017
14.0674
14.2343
14.1001
1
1
1
1
1
1
1
1
1
1
1
1
1
1
1
1
1
1
1
1
1
1
1
1
1
1
1
1
1
1
1
1
1
1
1
1
1
1
1
1
1
1
1
1
1
1
1
1
1
1
1
1
1
1
1
1
0.999994
11.4654
12.5696
12.6645
12.7563
12.79
12.7951
12.8119
12.8785
12.953
13.0066
13.0228
12.9926
12.9041
12.8164
12.8153
12.851
12.8918
12.9441
13.0131
13.0824
13.1315
13.1719
13.1849
13.1722
13.1155
13.0991
13.133
13.1784
13.2341
13.2812
13.3085
13.3142
13.2898
13.2768
13.2961
13.3244
13.3573
13.3809
13.3955
13.4091
13.4229
13.4393
13.4604
13.4858
13.5129
13.5384
13.5573
13.5692
13.5792
13.5937
13.6138
13.6339
13.6502
13.6638
13.6788
13.6997
13.7326
13.7848
13.8741
14.0317
14.2199
14.1139
1
1
1
1
1
1
1
1
1
1
1
1
1
1
1
1
1
1
1
1
1
1
1
1
1
1
1
1
1
1
1
1
1
1
1
1
1
1
1
1
1
1
1
1
1
1
1
1
1
1
1
1
1
1
1
1
1
11.0023
12.6529
12.745
12.7677
12.7621
12.7884
12.853
12.9296
12.9807
12.9937
12.9592
12.8674
12.7871
12.7874
12.8256
12.8677
12.9159
12.9732
13.0402
13.0913
13.1319
13.1627
13.1612
13.1269
13.0758
13.0809
13.123
13.1744
13.2327
13.2738
13.2902
13.2893
13.2612
13.2593
13.2851
13.3177
13.3506
13.367
13.3769
13.3869
13.4009
13.4228
13.4508
13.4788
13.5059
13.5291
13.5447
13.5533
13.5634
13.5787
13.5992
13.6191
13.6353
13.6499
13.6649
13.684
13.7142
13.7623
13.845
13.9947
14.2014
14.1251
1
1
1
1
1
1
1
1
1
1
1
1
1
1
1
1
1
1
1
1
1
1
1
1
1
1
1
1
1
1
1
1
1
1
1
1
1
1
1
1
1
1
1
1
1
1
1
1
1
1
1
1
1
1
1
1
1
10.5249
12.7884
12.7391
12.7144
12.7548
12.8286
12.9028
12.9461
12.9489
12.9031
12.8012
12.7446
12.7559
12.797
12.842
12.8918
12.9445
13.0011
13.0564
13.0961
13.1264
13.1396
13.1222
13.0686
13.0417
13.0675
13.1168
13.1737
13.2326
13.267
13.2729
13.2616
13.2322
13.241
13.273
13.3098
13.3417
13.3506
13.3559
13.3635
13.3809
13.4083
13.4408
13.469
13.4956
13.5163
13.528
13.536
13.5478
13.5637
13.5839
13.6028
13.6187
13.6338
13.649
13.667
13.6951
13.7392
13.8153
13.9566
14.177
14.1333
1
1
1
1
1
1
1
1
1
1
1
1
1
1
1
1
1
1
1
1
1
1
1
1
1
1
1
1
1
1
1
1
1
1
1
1
1
1
1
1
1
1
1
1
1
1
1
1
1
1
1
1
1
1
1
1
1
10.3313
12.6335
12.6818
12.7401
12.8331
12.8831
12.9016
12.8791
12.8019
12.7191
12.696
12.7233
12.7695
12.8191
12.8725
12.9262
12.974
13.0243
13.0674
13.0949
13.1094
13.0984
13.058
13.0119
13.0163
13.0603
13.1169
13.1788
13.235
13.259
13.2579
13.2323
13.2082
13.2262
13.2613
13.2992
13.3259
13.3283
13.3327
13.3428
13.3652
13.3975
13.4317
13.4574
13.481
13.498
13.5078
13.5178
13.5319
13.5495
13.5686
13.5848
13.6006
13.6166
13.6321
13.6498
13.6756
13.7157
13.7854
13.918
14.142
14.1419
1
1
1
1
1
1
1
1
1
1
1
1
1
1
1
1
1
1
1
1
1
1
1
1
1
1
1
1
1
1
1
1
1
1
1
1
1
1
1
1
1
1
1
1
1
1
1
1
1
1
1
1
1
1
1
1
1
9.73082
12.5656
12.7756
12.8269
12.8423
12.8184
12.7584
12.6829
12.6416
12.6452
12.6791
12.7325
12.7938
12.8549
12.9118
12.9614
13.0027
13.0385
13.0629
13.0731
13.0631
13.0299
12.9818
12.9733
13.003
13.055
13.1183
13.185
13.226
13.245
13.2379
13.2004
13.1878
13.2132
13.2463
13.2833
13.3003
13.3029
13.3085
13.3249
13.3545
13.3916
13.4223
13.4434
13.4619
13.4744
13.4857
13.4992
13.5159
13.5345
13.5526
13.5661
13.5808
13.5967
13.6124
13.6301
13.6536
13.6902
13.7545
13.8797
14.0999
14.1498
1
1
1
1
1
1
1
1
1
1
1
1
1
1
1
1
1
1
1
1
1
1
1
1
1
1
1
1
1
1
1
1
1
1
1
1
1
1
1
1
1
1
1
1
1
1
1
1
1
1
1
1
1
1
1
1
1
7.88841
12.8631
12.7509
12.717
12.6425
12.6029
12.6057
12.6225
12.6514
12.6932
12.7371
12.7842
12.8346
12.8871
12.9382
12.9817
13.0088
13.0255
13.0278
13.0144
12.9824
12.9358
12.9293
12.953
13.0014
13.0592
13.1245
13.1782
13.2123
13.2216
13.2042
13.1661
13.1707
13.1986
13.2335
13.2624
13.2725
13.2777
13.2843
13.311
13.3492
13.3872
13.4113
13.4262
13.4375
13.4497
13.4646
13.4809
13.4991
13.5172
13.5343
13.5472
13.5618
13.5768
13.5918
13.6084
13.6296
13.6635
13.7226
13.8373
14.0555
14.1601
1
1
1
1
1
1
1
1
1
1
1
1
1
1
1
1
1
1
1
1
1
1
1
1
1
1
1
1
1
1
1
1
1
1
1
1
1
1
1
1
1
1
1
1
1
1
1
1
1
1
1
1
1
1
1
1
1
1.73647
12.5448
12.4671
12.5352
12.5718
12.5667
12.5691
12.5989
12.6487
12.7153
12.7818
12.847
12.902
12.941
12.9669
12.9776
12.9776
12.972
12.9563
12.9185
12.8799
12.8796
12.9057
12.9486
13.0086
13.0745
13.1386
13.1783
13.1974
13.1918
13.1581
13.1355
13.1531
13.1848
13.2208
13.2435
13.2491
13.2516
13.2634
13.2995
13.3438
13.3784
13.3964
13.4048
13.4134
13.4284
13.4448
13.4621
13.4793
13.4964
13.514
13.5282
13.5435
13.5573
13.5704
13.5851
13.6045
13.6368
13.6909
13.7932
14.0075
14.1752
1
1
1
1
1
1
1
1
1
1
1
1
1
1
1
1
1
1
1
1
1
1
1
1
1
1
1
1
1
1
1
1
1
1
1
1
1
1
1
1
1
1
1
1
1
1
1
1
1
1
1
1
1
1
1
1
1
0.967502
12.199
12.4501
12.4799
12.5223
12.5685
12.6242
12.6882
12.7559
12.8261
12.8754
12.9022
12.9144
12.918
12.9214
12.917
12.9054
12.8827
12.8463
12.8258
12.8322
12.8558
12.8965
12.9544
13.0248
13.0962
13.1466
13.1717
13.1702
13.1447
13.1041
13.1023
13.1321
13.1702
13.2102
13.2284
13.2293
13.2267
13.2442
13.286
13.3311
13.363
13.3765
13.3835
13.3947
13.4113
13.4264
13.4413
13.4559
13.4726
13.4914
13.5094
13.5251
13.5376
13.5483
13.5604
13.577
13.6062
13.656
13.7471
13.9579
14.1898
1
1
1
1
1
1
1
1
1
1
1
1
1
1
1
1
1
1
1
1
1
1
1
1
1
1
1
1
1
1
1
1
1
1
1
1
1
1
1
1
1
1
1
1
1
1
1
1
1
1
1
1
1
1
1
1
1
0.999289
11.4618
12.5211
12.6013
12.683
12.746
12.7823
12.8114
12.8303
12.834
12.825
12.8225
12.8199
12.8174
12.8145
12.8083
12.7918
12.7773
12.7753
12.7879
12.8132
12.8497
12.9043
12.9733
13.0424
13.1009
13.138
13.1434
13.1237
13.0801
13.0528
13.0679
13.1046
13.1548
13.1977
13.2137
13.212
13.206
13.2273
13.2681
13.3117
13.3414
13.3542
13.3642
13.3798
13.3952
13.4071
13.4168
13.4293
13.4473
13.468
13.4889
13.5054
13.5167
13.5258
13.5357
13.5486
13.5742
13.6185
13.6998
13.9078
14.2019
1
1
1
1
1
1
1
1
1
1
1
1
1
1
1
1
1
1
1
1
1
1
1
1
1
1
1
1
1
1
1
1
1
1
1
1
1
1
1
1
1
1
1
1
1
1
1
1
1
1
1
1
1
1
1
1
1
1
10.5048
12.8365
12.8288
12.818
12.7967
12.7513
12.6986
12.6678
12.6518
12.6418
12.6416
12.6459
12.6524
12.6538
12.6647
12.6974
12.7408
12.7841
12.8248
12.8689
12.919
12.9766
13.0213
13.0548
13.0836
13.0979
13.0882
13.058
13.0244
13.0211
13.043
13.0837
13.14
13.184
13.2022
13.1947
13.1868
13.2092
13.2456
13.2861
13.3145
13.3308
13.3463
13.3641
13.378
13.3844
13.3903
13.4032
13.4215
13.4437
13.4658
13.4823
13.4941
13.5031
13.511
13.5202
13.5396
13.5795
13.6523
13.857
14.2108
1
1
1
1
1
1
1
1
1
1
1
1
1
1
1
1
1
1
1
1
1
1
1
1
1
1
1
1
1
1
1
1
1
1
1
1
1
1
1
1
1
1
1
1
1
1
1
1
1
1
1
1
1
1
1
1
1
1
8.41821
12.8686
12.6806
12.5323
12.45
12.4418
12.4568
12.479
12.4997
12.5289
12.5683
12.6087
12.6448
12.6713
12.6909
12.712
12.7453
12.7923
12.8447
12.9026
12.9523
12.98
12.9977
13.0111
13.021
13.0298
13.0101
12.9861
12.987
13.0031
13.0328
13.0835
13.1315
13.169
13.1815
13.1613
13.1627
13.1871
13.2212
13.2585
13.2848
13.3047
13.3256
13.3449
13.3573
13.3605
13.3654
13.3779
13.3959
13.4176
13.4384
13.4557
13.4704
13.4799
13.486
13.4911
13.5037
13.5395
13.6055
13.8092
14.2132
1
1
1
1
1
1
1
1
1
1
1
1
1
1
1
1
1
1
1
1
1
1
1
1
1
1
1
1
1
1
1
1
1
1
1
1
1
1
1
1
1
1
1
1
1
1
1
1
1
1
1
1
1
1
1
1
1
1
0.367043
12.1945
12.3459
12.4016
12.3917
12.381
12.3812
12.4014
12.4386
12.4923
12.5633
12.6331
12.6953
12.7448
12.7768
12.7949
12.8118
12.8317
12.8611
12.8901
12.9126
12.9284
12.9399
12.9463
12.9457
12.9446
12.9356
12.9339
12.9588
12.9898
13.0343
13.0875
13.1238
13.1472
13.1465
13.1252
13.1381
13.1652
13.1998
13.2325
13.2568
13.277
13.3002
13.3204
13.3328
13.3361
13.3415
13.3527
13.3688
13.388
13.4076
13.4267
13.4444
13.4542
13.4592
13.4599
13.467
13.4988
13.5592
13.7624
14.2085
1
1
1
1
1
1
1
1
1
1
1
1
1
1
1
1
1
1
1
1
1
1
1
1
1
1
1
1
1
1
1
1
1
1
1
1
1
1
1
1
1
1
1
1
1
1
1
1
1
1
1
1
1
1
1
1
1
1
0.998934
11.7617
12.3156
12.3511
12.4012
12.451
12.5086
12.572
12.6303
12.6861
12.733
12.7718
12.7898
12.7964
12.7913
12.7757
12.7683
12.7752
12.7945
12.818
12.8398
12.8555
12.8637
12.8685
12.8688
12.8671
12.8703
12.8917
12.9339
12.986
13.046
13.1006
13.1248
13.129
13.1062
13.0893
13.1106
13.1436
13.1787
13.2096
13.2317
13.248
13.2707
13.2913
13.304
13.3114
13.3179
13.3264
13.3392
13.3561
13.3753
13.3964
13.416
13.4259
13.4287
13.4249
13.4294
13.4588
13.5136
13.7114
14.2043
1
1
1
1
1
1
1
1
1
1
1
1
1
1
1
1
1
1
1
1
1
1
1
1
1
1
1
1
1
1
1
1
1
1
1
1
1
1
1
1
1
1
1
1
1
1
1
1
1
1
1
1
1
1
1
1
1
1
0.999951
10.6858
12.5906
12.6697
12.6825
12.6681
12.6507
12.6313
12.6241
12.6418
12.6669
12.6848
12.6995
12.7056
12.6978
12.6814
12.6705
12.6694
12.6758
12.6869
12.7032
12.7238
12.7492
12.7761
12.8033
12.8303
12.8615
12.8973
12.9418
12.9937
13.0466
13.0851
13.1029
13.0889
13.0559
13.0567
13.0835
13.1237
13.1576
13.1843
13.2031
13.2165
13.2392
13.2609
13.2752
13.2852
13.2927
13.2989
13.3088
13.3233
13.3426
13.365
13.3846
13.3932
13.3933
13.3874
13.3913
13.4189
13.4681
13.6589
14.1931
1
1
1
1
1
1
1
1
1
1
1
1
1
1
1
1
1
1
1
1
1
1
1
1
1
1
1
1
1
1
1
1
1
1
1
1
1
1
1
1
1
1
1
1
1
1
1
1
1
1
1
1
1
1
1
1
1
1
0.999997
8.7161
12.6233
12.5435
12.4276
12.3504
12.357
12.3806
12.4053
12.4395
12.4917
12.5407
12.5719
12.5872
12.5916
12.5914
12.5906
12.5976
12.6081
12.6252
12.6438
12.6643
12.6879
12.7197
12.7587
12.8051
12.8542
12.9078
12.9623
13.0012
13.0313
13.0519
13.0531
13.0326
13.013
13.0293
13.0621
13.1039
13.1321
13.1514
13.1668
13.1821
13.2071
13.2313
13.248
13.2597
13.2665
13.2697
13.2782
13.2911
13.3101
13.3317
13.3488
13.3545
13.3534
13.3487
13.3516
13.3773
13.4238
13.6115
14.1724
1
1
1
1
1
1
1
1
1
1
1
1
1
1
1
1
1
1
1
1
1
1
1
1
1
1
1
1
1
1
1
1
1
1
1
1
1
1
1
1
1
1
1
1
1
1
1
1
1
1
1
1
1
1
1
1
1
1
1
0.584879
11.6934
12.2432
12.2595
12.2428
12.258
12.2986
12.3359
12.3811
12.4222
12.457
12.495
12.5235
12.5394
12.5499
12.5571
12.5694
12.5895
12.613
12.6351
12.6575
12.684
12.7192
12.7646
12.8208
12.8723
12.913
12.9429
12.9652
12.9834
12.9948
12.9919
12.9736
12.9761
13.0011
13.041
13.0807
13.1021
13.1147
13.1299
13.1495
13.1779
13.2049
13.223
13.2349
13.24
13.2408
13.248
13.2592
13.2756
13.2929
13.3067
13.3108
13.3113
13.3082
13.3097
13.3307
13.3774
13.5669
14.1594
1
1
1
1
1
1
1
1
1
1
1
1
1
1
1
1
1
1
1
1
1
1
1
1
1
1
1
1
1
1
1
1
1
1
1
1
1
1
1
1
1
1
1
1
1
1
1
1
1
1
1
1
1
1
1
1
1
1
1
0.9927
11.1526
12.2637
12.3264
12.3883
12.433
12.4594
12.4653
12.4782
12.4914
12.5021
12.5143
12.5308
12.5464
12.5579
12.5743
12.5989
12.6245
12.6521
12.677
12.6943
12.715
12.737
12.7675
12.8058
12.8436
12.8718
12.889
12.9037
12.9157
12.9247
12.9213
12.9178
12.9415
12.9784
13.0253
13.0617
13.0779
13.0832
13.0983
13.1181
13.1463
13.1752
13.1954
13.2079
13.2121
13.2124
13.2174
13.2261
13.2385
13.2502
13.2606
13.2647
13.2666
13.2648
13.264
13.2803
13.3294
13.5191
14.1386
1
1
1
1
1
1
1
1
1
1
1
1
1
1
1
1
1
1
1
1
1
1
1
1
1
1
1
1
1
1
1
1
1
1
1
1
1
1
1
1
1
1
1
1
1
1
1
1
1
1
1
1
1
1
1
1
1
1
1
0.999931
9.61803
12.4866
12.4635
12.4354
12.3646
12.3232
12.334
12.3614
12.3879
12.4142
12.4372
12.4626
12.4899
12.5116
12.5375
12.5684
12.6009
12.6305
12.6527
12.6642
12.6786
12.6922
12.7147
12.7463
12.7804
12.8071
12.8249
12.8375
12.8503
12.862
12.8644
12.8766
12.9076
12.9527
13.0023
13.0346
13.0459
13.0445
13.0613
13.0849
13.1141
13.1424
13.1636
13.1771
13.1816
13.1816
13.1831
13.1879
13.1968
13.2049
13.2124
13.2178
13.2201
13.2172
13.2141
13.2295
13.2823
13.4686
14.0997
1
1
1
1
1
1
1
1
1
1
1
1
1
1
1
1
1
1
1
1
1
1
1
1
1
1
1
1
1
1
1
1
1
1
1
1
1
1
1
1
1
1
1
1
1
1
1
1
1
1
1
1
1
1
1
1
1
1
1
1.00001
0.882088
11.4613
12.06
12.1923
12.2062
12.2103
12.2253
12.2612
12.3005
12.3286
12.3592
12.3928
12.4215
12.4422
12.4675
12.5002
12.5337
12.5648
12.5898
12.6035
12.6123
12.6244
12.6416
12.6695
12.7033
12.7319
12.7562
12.771
12.7899
12.8079
12.8234
12.8512
12.8923
12.9467
12.9855
13.0058
13.0013
13.0018
13.0224
13.05
13.0796
13.106
13.1269
13.1412
13.1483
13.1499
13.1514
13.1526
13.1559
13.1595
13.1639
13.17
13.1714
13.1636
13.1613
13.1811
13.2349
13.4137
14.0643
1
1
1
1
1
1
1
1
1
1
1
1
1
1
1
1
1
1
1
1
1
1
1
1
1
1
1
1
1
1
1
1
1
1
1
1
1
1
1
1
1
1
1
1
1
1
1
1
1
1
1
1
1
1
1
1
1
1
1
1
0.898593
10.8964
12.2137
12.2625
12.2887
12.2914
12.2828
12.2903
12.2986
12.3098
12.3281
12.3515
12.3793
12.4027
12.4273
12.4593
12.4927
12.5239
12.5465
12.5597
12.5627
12.5633
12.5734
12.5961
12.6263
12.657
12.687
12.7076
12.7348
12.7667
12.7957
12.8356
12.8865
12.9277
12.9536
12.9594
12.9497
12.9562
12.9808
13.0116
13.043
13.0707
13.0947
13.1114
13.1166
13.1159
13.1117
13.1095
13.1118
13.1142
13.1167
13.1207
13.1187
13.1073
13.11
13.1334
13.1842
13.3479
14.0233
1
1
1
1
1
1
1
1
1
1
1
1
1
1
1
1
1
1
1
1
1
1
1
1
1
1
1
1
1
1
1
1
1
1
1
1
1
1
1
1
1
1
1
1
1
1
1
1
1
1
1
1
1
1
1
1
1
1
1
1
0.997961
8.86853
12.3731
12.2928
12.1954
12.1389
12.1511
12.1906
12.225
12.2481
12.2694
12.2925
12.3211
12.3553
12.3901
12.4243
12.4584
12.488
12.509
12.5217
12.5245
12.523
12.5328
12.5558
12.5809
12.6088
12.6372
12.6624
12.6991
12.7395
12.7806
12.8229
12.8612
12.8922
12.9118
12.9061
12.9041
12.913
12.9388
12.9689
12.9994
13.028
13.0545
13.0737
13.08
13.076
13.0697
13.068
13.0705
13.0718
13.0708
13.0693
13.0629
13.052
13.058
13.0839
13.1302
13.2929
13.9734
1
1
1
1
1
1
1
1
1
1
1
1
1
1
1
1
1
1
1
1
1
1
1
1
1
1
1
1
1
1
1
1
1
1
1
1
1
1
1
1
1
1
1
1
1
1
1
1
1
1
1
1
1
1
1
1
1
1
1
1
0.999953
0.821952
11.1862
12.0001
12.0269
12.0119
12.031
12.0845
12.1465
12.1814
12.2104
12.2377
12.269
12.299
12.3267
12.3554
12.388
12.4182
12.4439
12.4632
12.4746
12.4863
12.5029
12.5282
12.5536
12.5828
12.6132
12.6456
12.6865
12.7279
12.7614
12.7901
12.8186
12.8457
12.859
12.8544
12.8636
12.878
12.9066
12.9352
12.9619
12.988
13.0151
13.0319
13.0377
13.0335
13.0284
13.0266
13.0284
13.0272
13.0219
13.0143
13.004
12.9962
13.0038
13.0298
13.0734
13.2234
13.9115
1
1
1
1
1
1
1
1
1
1
1
1
1
1
1
1
1
1
1
1
1
1
1
1
1
1
1
1
1
1
1
1
1
1
1
1
1
1
1
1
1
1
1
1
1
1
1
1
1
1
1
1
1
1
1
1
1
1
1
1
0.999999
0.930044
10.0879
12.1923
12.1656
12.1048
12.0816
12.1018
12.1224
12.139
12.1579
12.1876
12.2211
12.2546
12.284
12.3094
12.3373
12.3622
12.382
12.3956
12.4091
12.4306
12.4602
12.4928
12.525
12.5598
12.5962
12.6314
12.67
12.6985
12.7162
12.7344
12.761
12.7886
12.8014
12.8064
12.8273
12.8495
12.8779
12.8982
12.9198
12.9418
12.9697
12.9851
12.9915
12.9892
12.9854
12.9844
12.985
12.9804
12.9698
12.9537
12.9432
12.9414
12.9494
12.9731
13.0136
13.1582
13.8443
1
1
1
1
1
1
1
1
1
1
1
1
1
1
1
1
1
1
1
1
1
1
1
1
1
1
1
1
1
1
1
1
1
1
1
1
1
1
1
1
1
1
1
1
1
1
1
1
1
1
1
1
1
1
1
1
1
1
1
1
1
0.997734
3.36116
11.677
11.7782
11.8633
11.9716
12.0292
12.0522
12.0698
12.0965
12.1349
12.1743
12.2067
12.232
12.2561
12.2818
12.3101
12.3364
12.3502
12.3602
12.3804
12.411
12.446
12.4857
12.5287
12.5702
12.6038
12.638
12.6545
12.6593
12.6697
12.6939
12.7206
12.737
12.7564
12.7869
12.8206
12.8455
12.8574
12.8753
12.8938
12.9208
12.9355
12.9429
12.9419
12.9407
12.9405
12.9378
12.9288
12.9137
12.8938
12.8872
12.8894
12.8962
12.9167
12.9499
13.0822
13.7638
1
1
1
1
1
1
1
1
1
1
1
1
1
1
1
1
1
1
1
1
1
1
1
1
1
1
1
1
1
1
1
1
1
1
1
1
1
1
1
1
1
1
1
1
1
1
1
1
1
1
1
1
1
1
1
1
1
1
1
1
1
0.999922
0.775162
10.7145
11.8419
11.8581
11.9442
12.012
12.0102
12.0123
12.0239
12.0583
12.0984
12.1338
12.1636
12.1943
12.2265
12.2574
12.2824
12.2972
12.3098
12.3345
12.3682
12.4056
12.4464
12.4875
12.5264
12.5575
12.5883
12.5975
12.5969
12.6071
12.6305
12.6583
12.6808
12.7142
12.7532
12.7936
12.8108
12.814
12.8268
12.8439
12.8694
12.8851
12.8947
12.8957
12.8957
12.894
12.8858
12.8719
12.8557
12.8397
12.8355
12.8385
12.8417
12.8564
12.8836
13.0089
13.6866
1
1
1
1
1
1
1
1
1
1
1
1
1
1
1
1
1
1
1
1
1
1
1
1
1
1
1
1
1
1
1
1
1
1
1
1
1
1
1
1
1
1
1
1
1
1
1
1
1
1
1
1
1
1
1
1
1
1
1
1
1
0.999992
0.990505
8.31853
12.0531
11.9599
11.9111
11.9055
11.9136
11.9325
11.9614
11.9958
12.0234
12.0536
12.0866
12.1207
12.1596
12.2011
12.2341
12.2513
12.2607
12.2829
12.3152
12.3522
12.3908
12.4291
12.4675
12.5005
12.5309
12.5396
12.5409
12.5529
12.576
12.604
12.633
12.6746
12.7219
12.7589
12.7656
12.7657
12.7739
12.7958
12.8206
12.8377
12.8468
12.8488
12.8476
12.8424
12.831
12.8158
12.8016
12.7895
12.7856
12.7878
12.7862
12.7929
12.813
12.9328
13.5993
1
1
1
1
1
1
1
1
1
1
1
1
1
1
1
1
1
1
1
1
1
1
1
1
1
1
1
1
1
1
1
1
1
1
1
1
1
1
1
1
1
1
1
1
1
1
1
1
1
1
1
1
1
1
1
1
1
1
1
1
1
1
0.999532
0.878654
10.6905
11.7631
11.7963
11.7981
11.819
11.8645
11.921
11.9529
11.9687
11.9861
12.0064
12.0378
12.0778
12.118
12.1541
12.1886
12.2146
12.2362
12.2655
12.2992
12.3337
12.3653
12.3992
12.4324
12.4639
12.4753
12.4835
12.5028
12.526
12.5541
12.5902
12.6409
12.6905
12.7125
12.7147
12.7136
12.7205
12.7443
12.7705
12.7885
12.797
12.7991
12.7963
12.7888
12.7771
12.7627
12.7497
12.7388
12.7343
12.7338
12.7262
12.7277
12.744
12.8583
13.5226
1
1
1
1
1
1
1
1
1
1
1
1
1
1
1
1
1
1
1
1
1
1
1
1
1
1
1
1
1
1
1
1
1
1
1
1
1
1
1
1
1
1
1
1
1
1
1
1
1
1
1
1
1
1
1
1
1
1
1
1
1
1
0.999936
0.890945
9.2487
11.9019
11.8572
11.8007
11.7972
11.8296
11.876
11.8999
11.9102
11.9218
11.9458
11.9786
12.0107
12.0477
12.0828
12.1187
12.1514
12.183
12.2158
12.2495
12.2819
12.3081
12.3333
12.3589
12.3937
12.4117
12.4301
12.4585
12.4853
12.5137
12.5527
12.6051
12.6429
12.6584
12.6593
12.658
12.6674
12.694
12.7202
12.7368
12.7457
12.7469
12.7425
12.7332
12.7223
12.7099
12.6976
12.6858
12.6782
12.674
12.6604
12.6573
12.6707
12.7867
13.4312
1
1
1
1
1
1
1
1
1
1
1
1
1
1
1
1
1
1
1
1
1
1
1
1
1
1
1
1
1
1
1
1
1
1
1
1
1
1
1
1
1
1
1
1
1
1
1
1
1
1
1
1
1
1
1
1
1
1
1
1
1
1
0.999995
0.992489
1.62764
10.8755
11.5411
11.6596
11.7243
11.7632
11.795
11.8198
11.8406
11.8599
11.8834
11.9164
11.9473
11.9764
12.014
12.05
12.0883
12.1301
12.1687
12.2023
12.2311
12.2549
12.2774
12.296
12.3327
12.357
12.3846
12.4199
12.4499
12.4808
12.5185
12.5612
12.5861
12.5978
12.6008
12.601
12.6137
12.6429
12.6683
12.6831
12.6916
12.6915
12.686
12.6768
12.6665
12.6547
12.6424
12.6305
12.6201
12.6126
12.5951
12.5925
12.6067
12.7118
13.3589
1
1
1
1
1
1
1
1
1
1
1
1
1
1
1
1
1
1
1
1
1
1
1
1
1
1
1
1
1
1
1
1
1
1
1
1
1
1
1
1
1
1
1
1
1
1
1
1
1
1
1
1
1
1
1
1
1
1
1
1
1
1
1
0.999523
0.832071
9.60985
11.5883
11.6659
11.7035
11.7213
11.7213
11.7413
11.7723
11.8039
11.8301
11.8545
11.8803
11.912
11.9478
11.9878
12.0278
12.0713
12.1108
12.1471
12.1781
12.2001
12.2204
12.242
12.2768
12.3073
12.3428
12.3827
12.4151
12.4429
12.4734
12.5056
12.5245
12.5362
12.5419
12.5461
12.5624
12.5933
12.6152
12.6273
12.6333
12.6324
12.6269
12.6191
12.6103
12.5997
12.5871
12.5733
12.5577
12.5439
12.5241
12.5212
12.5329
12.6441
13.2661
1
1
1
1
1
1
1
1
1
1
1
1
1
1
1
1
1
1
1
1
1
1
1
1
1
1
1
1
1
1
1
1
1
1
1
1
1
1
1
1
1
1
1
1
1
1
1
1
1
1
1
1
1
1
1
1
1
1
1
1
1
1
1
0.99995
0.983039
3.3738
11.2459
11.391
11.4993
11.5938
11.63
11.662
11.6994
11.7397
11.7715
11.7931
11.8148
11.8474
11.8838
11.9236
11.9638
12.008
12.0501
12.0907
12.1247
12.148
12.1693
12.1936
12.2241
12.2585
12.2996
12.3388
12.3699
12.3963
12.4228
12.4468
12.4611
12.4734
12.4823
12.4924
12.5124
12.5396
12.5565
12.5667
12.5731
12.5749
12.5716
12.5656
12.5563
12.5447
12.529
12.5112
12.4916
12.4771
12.4585
12.4576
12.4721
12.5699
13.1976
1
1
1
1
1
1
1
1
1
1
1
1
1
1
1
1
1
1
1
1
1
1
1
1
1
1
1
1
1
1
1
1
1
1
1
1
1
1
1
1
1
1
1
1
1
1
1
1
1
1
1
1
1
1
1
1
1
1
1
1
1
1
1
0.999994
0.998569
0.832779
10.0595
11.4384
11.4767
11.5427
11.5881
11.6143
11.6423
11.6762
11.7108
11.7367
11.7559
11.7863
11.8254
11.8635
11.9022
11.9449
11.9858
12.0271
12.0625
12.0895
12.115
12.1436
12.1718
12.2053
12.2493
12.2914
12.3197
12.3438
12.3682
12.3862
12.3981
12.4105
12.4252
12.442
12.4653
12.4861
12.4993
12.5091
12.5175
12.5218
12.5187
12.5108
12.4988
12.4851
12.4687
12.4483
12.4265
12.4097
12.3862
12.382
12.3908
12.5039
13.1004
1
1
1
1
1
1
1
1
1
1
1
1
1
1
1
1
1
1
1
1
1
1
1
1
1
1
1
1
1
1
1
1
1
1
1
1
1
1
1
1
1
1
1
1
1
1
1
1
1
1
1
1
1
1
1
1
1
1
1
1
1
1
1
1
0.999902
0.965188
6.42251
11.5559
11.4094
11.4263
11.4723
11.5282
11.5623
11.5933
11.626
11.6581
11.6885
11.7244
11.7701
11.8082
11.8431
11.8824
11.9206
11.9617
11.9998
12.0303
12.0598
12.0884
12.1186
12.1489
12.1914
12.2357
12.2629
12.2869
12.3105
12.3254
12.3355
12.3496
12.3701
12.3962
12.4179
12.431
12.4396
12.4492
12.4594
12.4646
12.4617
12.4539
12.4432
12.429
12.4113
12.3874
12.3597
12.3375
12.3129
12.3148
12.3351
12.4302
13.0381
1
1
1
1
1
1
1
1
1
1
1
1
1
1
1
1
1
1
1
1
1
1
1
1
1
1
1
1
1
1
1
1
1
1
1
1
1
1
1
1
1
1
1
1
1
1
1
1
1
1
1
1
1
1
1
1
1
1
1
1
1
1
1
1
0.999959
0.996455
0.724475
10.146
11.38
11.3948
11.411
11.4577
11.4927
11.5219
11.5537
11.59
11.6296
11.6711
11.7128
11.7531
11.7897
11.8247
11.8587
11.8971
11.9332
11.9656
11.9993
12.0302
12.063
12.0934
12.1345
12.1791
12.2046
12.2298
12.2537
12.2672
12.2758
12.2919
12.3197
12.3525
12.3667
12.3732
12.3779
12.3889
12.401
12.4089
12.4054
12.3951
12.3829
12.3656
12.3436
12.3208
12.2948
12.2736
12.2483
12.2414
12.2534
12.3654
12.9367
1
1
1
1
1
1
1
1
1
1
1
1
1
1
1
1
1
1
1
1
1
1
1
1
1
1
1
1
1
1
1
1
1
1
1
1
1
1
1
1
1
1
1
1
1
1
1
1
1
1
1
1
1
1
1
1
1
1
1
1
1
1
1
1
1
0.999679
0.847071
8.11489
11.6124
11.3944
11.3718
11.3792
11.4072
11.4419
11.477
11.5144
11.5554
11.5997
11.643
11.6848
11.7248
11.762
11.7931
11.8304
11.8661
11.9003
11.9358
11.9707
12.0022
12.0376
12.0752
12.1194
12.1439
12.1703
12.1954
12.2105
12.2207
12.2394
12.2758
12.3063
12.3159
12.3172
12.3185