/*--------------------------------*- C++ -*----------------------------------*\
| =========                 |                                                 |
| \\      /  F ield         | OpenFOAM: The Open Source CFD Toolbox           |
|  \\    /   O peration     | Version:  2.2.x                                 |
|   \\  /    A nd           | Web:      www.OpenFOAM.org                      |
|    \\/     M anipulation  |                                                 |
\*---------------------------------------------------------------------------*/
FoamFile
{
    version     2.0;
    format      ascii;
    class       volScalarField;
    location    "2.25";
    object      Bz;
}
// * * * * * * * * * * * * * * * * * * * * * * * * * * * * * * * * * * * * * //

dimensions      [1 0 -2 0 0 -1 0];

internalField   nonuniform List<scalar> 
14161
(
-3.34522e-20
-3.35849e-20
-3.34557e-20
-3.31896e-20
-3.23358e-20
-3.45843e-20
-3.17746e-20
-3.31602e-20
-3.24227e-20
-3.20652e-20
-3.35999e-20
-3.20464e-20
-3.37572e-20
-3.19748e-20
-3.27544e-20
-3.21262e-20
-3.25184e-20
-3.23667e-20
-3.22385e-20
-3.232e-20
-3.22604e-20
-3.16968e-20
-3.17971e-20
-3.14769e-20
-3.19243e-20
-3.16511e-20
-3.14048e-20
-3.14794e-20
-3.12075e-20
-3.1401e-20
-3.09314e-20
-3.10809e-20
-3.0878e-20
-3.09331e-20
-3.06053e-20
-3.06716e-20
-3.05106e-20
-3.03628e-20
-3.02396e-20
-3.04488e-20
-3.19354e-20
-3.08054e-20
-3.97851e-20
8.3122e-20
4.21092e-19
2.83802e-18
1.01889e-17
2.03746e-17
1.33013e-17
9.63605e-18
8.12612e-18
6.81345e-18
5.16817e-18
3.99019e-18
3.26671e-18
2.33938e-18
1.84379e-18
1.52985e-18
1.36592e-18
1.14279e-18
9.67516e-19
9.06659e-19
8.43475e-19
7.69564e-19
7.11948e-19
6.55915e-19
6.04299e-19
5.65754e-19
5.24604e-19
5.01757e-19
4.68074e-19
4.50028e-19
4.22829e-19
3.99283e-19
3.71383e-19
3.34333e-19
3.29286e-19
2.38878e-19
1.69961e-19
4.97911e-20
-1.01174e-19
-2.89031e-19
-6.75654e-19
-1.08546e-18
-1.4967e-18
-2.61034e-18
-3.25458e-18
-4.02112e-18
-4.78738e-18
-5.56635e-18
-6.07247e-18
-6.39528e-18
-6.47648e-18
-6.41625e-18
-6.37578e-18
-6.36175e-18
-6.59013e-18
-7.11663e-18
-7.90892e-18
-8.72808e-18
-9.90239e-18
-1.04121e-17
-1.21986e-17
-1.14722e-17
-1.24131e-17
-1.09232e-17
-1.09966e-17
-9.83249e-18
-9.02138e-18
-7.45155e-18
-6.24138e-18
-4.56621e-18
-3.07628e-18
-2.99297e-18
-1.91979e-18
-2.20282e-18
-5.7947e-18
-3.90696e-19
2.08149e-18
4.12675e-20
4.2126e-20
4.21768e-20
4.12951e-20
4.15539e-20
4.05425e-20
4.27768e-20
3.90265e-20
4.27494e-20
3.95942e-20
4.23068e-20
3.89743e-20
4.39254e-20
4.08195e-20
3.99684e-20
3.99947e-20
4.064e-20
4.00385e-20
4.06137e-20
4.01808e-20
4.06451e-20
4.09759e-20
4.05487e-20
4.03185e-20
4.10882e-20
4.1939e-20
4.07746e-20
4.19224e-20
4.03397e-20
4.2174e-20
4.08475e-20
4.16224e-20
4.16032e-20
4.1834e-20
4.11337e-20
4.17954e-20
4.13502e-20
4.14011e-20
4.1324e-20
4.12753e-20
4.13608e-20
4.36358e-20
5.57285e-20
9.47245e-20
3.41641e-19
1.68419e-18
1.00736e-17
1.5622e-17
1.14972e-17
6.37554e-18
5.08379e-18
1.79341e-18
1.0172e-18
8.87514e-19
7.8371e-19
6.83528e-19
5.97291e-19
5.31734e-19
4.37996e-19
4.20201e-19
3.72556e-19
3.2892e-19
3.53072e-19
2.8184e-19
2.48316e-19
2.71412e-19
1.36115e-19
1.95361e-19
-7.28905e-22
-5.19422e-20
-4.44201e-20
-3.46841e-19
-2.52923e-19
-5.42252e-19
-7.01833e-19
-1.02197e-18
-1.39048e-18
-1.86784e-18
-2.62733e-18
-3.18831e-18
-3.94668e-18
-5.28071e-18
-6.99765e-18
-8.42981e-18
-1.00432e-17
-1.06594e-17
-1.17027e-17
-1.12169e-17
-1.23184e-17
-1.29964e-17
-1.37416e-17
-1.3383e-17
-1.1651e-17
-1.42717e-17
-5.47476e-18
-9.03938e-18
-9.02159e-18
-6.47573e-18
-6.74568e-18
-1.70475e-17
-4.03483e-18
-7.0516e-18
-2.17737e-17
2.50244e-18
-8.20345e-18
8.65571e-18
-9.82743e-18
-4.95645e-17
-5.81277e-17
-5.90392e-17
-7.30856e-17
-6.24256e-17
-2.62463e-17
-1.01919e-17
-2.33832e-18
8.64679e-18
8.3851e-18
1.94229e-18
9.65902e-19
8.28759e-20
8.14707e-20
8.1366e-20
8.1721e-20
8.41134e-20
7.87172e-20
8.74547e-20
7.41334e-20
8.72667e-20
7.26078e-20
8.7219e-20
7.52668e-20
7.80433e-20
7.44734e-20
7.77835e-20
7.41809e-20
7.5519e-20
7.16258e-20
7.36455e-20
7.15137e-20
7.02006e-20
6.76039e-20
6.84887e-20
6.76595e-20
6.33716e-20
6.30881e-20
6.16431e-20
6.12677e-20
5.97914e-20
6.22934e-20
6.01761e-20
6.1914e-20
5.96677e-20
6.09746e-20
5.99345e-20
6.02604e-20
6.00027e-20
6.00536e-20
6.00062e-20
6.17157e-20
5.7427e-20
4.69021e-20
1.47365e-20
-1.09572e-19
2.20519e-19
9.03588e-19
7.96388e-18
6.98439e-18
3.38947e-18
1.77922e-18
1.0382e-18
4.93411e-19
3.79871e-19
3.62658e-19
3.49962e-19
2.89542e-19
3.6666e-19
2.94591e-19
3.19826e-19
3.32117e-19
2.02957e-19
2.83358e-19
1.6322e-19
1.9122e-19
-7.84194e-20
-4.27765e-21
-2.08007e-20
-2.53876e-19
-3.63775e-19
-5.80344e-19
-6.82635e-19
-9.43108e-19
-1.25221e-18
-1.49154e-18
-2.30043e-18
-3.08688e-18
-3.61514e-18
-4.71487e-18
-5.81434e-18
-6.97926e-18
-8.62854e-18
-1.14504e-17
-1.45752e-17
-1.60886e-17
-1.91843e-17
-1.95526e-17
-1.82777e-17
-1.97421e-17
-1.68122e-17
-2.6505e-17
1.34725e-17
-6.99669e-17
2.51304e-17
2.23721e-17
-7.56785e-17
6.06701e-17
-2.9619e-17
-3.91709e-17
4.15125e-17
-5.05571e-18
-3.55187e-17
6.77769e-17
-3.97493e-17
-8.09707e-17
-2.6163e-17
2.00582e-18
1.53922e-16
1.45921e-16
2.88011e-17
5.01865e-17
4.48996e-17
-3.22925e-17
-3.42091e-17
9.11983e-18
1.76216e-17
1.22726e-17
1.63126e-18
-1.226e-18
1.06672e-18
-2.97883e-20
-2.85601e-20
-2.73e-20
-2.70888e-20
-2.71557e-20
-2.85653e-20
-2.94311e-20
-2.59708e-20
-2.57669e-20
-2.28464e-20
-2.24643e-20
-2.18379e-20
-2.09247e-20
-1.92881e-20
-1.58019e-20
-5.27387e-21
-1.07667e-20
-3.45442e-21
-9.81909e-21
7.65784e-22
1.37135e-21
5.68695e-21
6.06358e-21
7.88897e-21
1.18779e-20
8.66992e-21
1.11693e-20
1.48133e-20
1.80879e-20
1.48232e-20
1.61719e-20
1.78348e-20
1.97149e-20
2.1318e-20
2.26225e-20
2.47807e-20
2.54771e-20
2.71173e-20
2.83142e-20
2.85555e-20
2.96911e-20
3.003e-20
4.04445e-20
9.40862e-20
5.38106e-19
2.74511e-18
7.2474e-18
6.04628e-18
3.38475e-18
1.19312e-18
-8.89412e-20
3.18143e-19
3.26916e-19
3.73844e-19
3.42702e-19
3.75022e-19
3.37719e-19
3.01646e-19
2.59972e-19
2.35442e-19
3.28509e-19
9.01414e-20
1.81005e-20
1.72937e-19
2.54167e-20
-2.37018e-19
-2.31211e-19
-4.9232e-19
-4.53563e-19
-6.01384e-19
-8.32943e-19
-8.97257e-19
-1.07823e-18
-1.32513e-18
-1.67912e-18
-1.60126e-18
-2.57771e-18
-3.22404e-18
-4.15189e-18
-6.58182e-18
-6.34409e-18
-1.50597e-17
-1.46984e-17
-1.50056e-17
-1.9107e-17
-1.78754e-17
-2.057e-17
-1.03175e-17
-3.64527e-17
4.23053e-17
-8.29877e-17
3.6935e-17
-1.67646e-17
-6.68556e-17
1.23267e-16
-1.03231e-16
-4.56348e-18
6.46116e-17
-1.97676e-17
-6.51705e-17
-8.54469e-17
3.02024e-17
6.17198e-17
-1.9246e-18
-8.0305e-17
-2.05908e-17
8.05691e-17
5.59164e-17
5.20195e-17
1.55486e-17
-3.4929e-17
-3.90611e-17
6.89614e-18
1.83337e-17
3.9703e-18
-3.36998e-18
-2.62018e-18
-1.59365e-19
7.51062e-19
6.35544e-20
6.60272e-20
6.57742e-20
6.72876e-20
6.23612e-20
8.3714e-20
7.4547e-20
9.03746e-20
7.46346e-20
1.04114e-19
7.55106e-20
9.82774e-20
9.86873e-20
1.03789e-19
1.08158e-19
9.83444e-20
1.14751e-19
1.13836e-19
1.21078e-19
1.15467e-19
1.17848e-19
1.2108e-19
1.19762e-19
1.20996e-19
1.23589e-19
1.27825e-19
1.2908e-19
1.2777e-19
1.28772e-19
1.34798e-19
1.37204e-19
1.36334e-19
1.37651e-19
1.39347e-19
1.37622e-19
1.40101e-19
1.40775e-19
1.39574e-19
1.40341e-19
1.40224e-19
1.39563e-19
1.45438e-19
1.63232e-19
2.67957e-19
9.61536e-19
4.96177e-18
8.30118e-18
6.8613e-18
2.41477e-18
2.65407e-19
9.92601e-20
2.83412e-19
1.86608e-19
2.28459e-19
2.92737e-19
3.72745e-19
3.68441e-19
3.91425e-19
2.75473e-19
2.09198e-19
2.30736e-19
1.77376e-19
1.46862e-19
4.04564e-20
9.5999e-20
1.59967e-20
-4.86212e-20
-7.8087e-20
-1.42992e-19
-2.69311e-19
-2.94957e-19
-5.09173e-19
-5.45761e-19
-8.27048e-19
-1.02026e-18
-1.37534e-18
-1.71156e-18
-2.2905e-18
-3.43488e-18
-5.43108e-18
-7.8651e-18
-1.01701e-17
-1.32089e-17
-1.54504e-17
-1.63101e-17
-1.63287e-17
-1.44666e-17
-1.62439e-17
-4.68901e-18
-1.84483e-17
-1.49684e-17
2.43803e-17
-7.59252e-17
1.34967e-16
-1.55927e-16
-1.51235e-17
2.44601e-16
-1.74223e-16
-1.60153e-16
1.92876e-16
8.2e-17
7.21022e-18
5.65847e-17
-1.68241e-17
-1.06267e-16
-5.75507e-17
1.08745e-17
1.77319e-17
-1.60542e-17
-4.51463e-17
-3.88207e-17
-2.65206e-18
1.55521e-17
2.13548e-18
-4.28293e-18
-3.24862e-18
-3.43321e-18
-9.74576e-19
4.07011e-19
2.47683e-19
2.46328e-19
2.47417e-19
2.45535e-19
2.45425e-19
2.34553e-19
2.17483e-19
2.4478e-19
2.16426e-19
2.24443e-19
2.22072e-19
2.30598e-19
1.90045e-19
2.30548e-19
1.99987e-19
2.3352e-19
1.96726e-19
2.18655e-19
2.07143e-19
2.04305e-19
2.06548e-19
2.04971e-19
2.09767e-19
2.10113e-19
2.15029e-19
2.15418e-19
2.17435e-19
2.1499e-19
2.15725e-19
2.1017e-19
2.11638e-19
2.08158e-19
2.08032e-19
2.05039e-19
2.03159e-19
2.01695e-19
2.00828e-19
2.00093e-19
2.00249e-19
1.97894e-19
1.94094e-19
2.05889e-19
2.27798e-19
3.78966e-19
1.33171e-18
6.90052e-18
1.13972e-17
7.95344e-18
1.31586e-18
6.51878e-19
9.51654e-20
3.66331e-19
3.94993e-19
3.51256e-19
5.62828e-19
4.48354e-19
4.67934e-19
4.02463e-19
3.75196e-19
2.34471e-19
1.47906e-19
1.95676e-19
2.82717e-19
1.32681e-19
1.31492e-19
2.92618e-19
2.30181e-19
1.66e-19
1.98993e-19
1.14867e-19
1.06827e-19
1.19957e-20
-9.81512e-20
-2.04821e-19
-3.19107e-19
-4.93401e-19
-8.47887e-19
-1.18104e-18
-2.16979e-18
-2.85912e-18
-5.94137e-18
-7.18111e-18
-1.01403e-17
-1.26544e-17
-1.323e-17
-1.34236e-17
-7.64474e-18
-2.47049e-17
1.84323e-17
-1.84449e-17
-3.16912e-17
8.90695e-18
1.20519e-17
-7.5748e-17
5.81247e-17
2.90752e-16
-5.30226e-16
-2.2178e-16
6.39728e-16
7.11301e-18
-4.26155e-16
-2.20344e-16
-4.80264e-18
-2.50577e-17
-7.52544e-17
-2.77341e-17
9.65309e-18
-3.60628e-18
-3.53777e-17
-3.11881e-17
-1.36391e-17
5.94031e-18
1.19751e-18
-6.04762e-18
-5.62772e-18
-3.54448e-18
-3.32274e-18
-1.05003e-18
5.75507e-19
2.13903e-19
2.0602e-19
2.01892e-19
2.00543e-19
2.03835e-19
2.00221e-19
1.84888e-19
1.85759e-19
1.8762e-19
1.56721e-19
1.73154e-19
1.46318e-19
1.73703e-19
1.44166e-19
1.37221e-19
1.17466e-19
1.3116e-19
1.25949e-19
1.20965e-19
1.30613e-19
1.29848e-19
1.29258e-19
1.26529e-19
1.31158e-19
1.19413e-19
1.17761e-19
1.1631e-19
1.18569e-19
1.18805e-19
1.14172e-19
1.16799e-19
1.19762e-19
1.22054e-19
1.25643e-19
1.27722e-19
1.3341e-19
1.33724e-19
1.40295e-19
1.41014e-19
1.417e-19
1.13401e-19
2.02161e-19
4.84741e-19
-1.35859e-19
-1.77355e-18
6.20165e-18
9.479e-18
7.58859e-18
2.73297e-19
9.72557e-19
9.96527e-19
1.07663e-18
1.0058e-18
9.15504e-19
8.43334e-19
8.3349e-19
8.57272e-19
7.7341e-19
8.26302e-19
9.30629e-19
1.02309e-18
1.08663e-18
1.00199e-18
9.9066e-19
1.01388e-18
8.48801e-19
7.44262e-19
8.5603e-19
8.82357e-19
7.88564e-19
7.30352e-19
6.72831e-19
6.62735e-19
6.56461e-19
6.22592e-19
6.09704e-19
4.93136e-19
3.61709e-19
7.07156e-20
-6.17282e-19
-1.0378e-18
-5.2285e-18
-1.45579e-18
-1.3736e-17
1.89342e-18
-1.82369e-17
-6.23989e-18
1.70665e-17
-6.65325e-17
3.12194e-17
-6.66661e-18
-2.02872e-17
9.6945e-18
6.0528e-17
-1.45192e-16
-2.26169e-16
2.89953e-16
1.10437e-15
-1.51981e-16
-1.3228e-15
-1.56959e-16
6.64833e-16
3.36031e-16
2.82174e-17
-1.93774e-17
1.26746e-17
2.14894e-17
-7.7681e-18
-3.21963e-17
-1.40763e-17
-5.48005e-19
4.38325e-18
-6.559e-18
-8.46872e-18
-5.96118e-18
-3.67327e-18
-3.04825e-18
-1.44609e-18
8.79047e-19
-5.35299e-20
-4.33893e-20
-4.0066e-20
-4.16197e-20
-4.11857e-20
-3.05332e-20
2.22012e-20
-9.60848e-21
3.12464e-20
5.96459e-21
4.76324e-20
3.53851e-20
6.04353e-20
7.64222e-20
1.26372e-19
1.01585e-19
1.2825e-19
1.16075e-19
1.27189e-19
1.45268e-19
1.37745e-19
1.37251e-19
1.44701e-19
1.4901e-19
1.70152e-19
1.7352e-19
1.76617e-19
1.84112e-19
1.8716e-19
1.99973e-19
1.96867e-19
2.05177e-19
2.02576e-19
2.12234e-19
2.1298e-19
2.14732e-19
2.18311e-19
2.23884e-19
2.25559e-19
2.33788e-19
2.29923e-19
2.42037e-19
2.55675e-19
4.48816e-19
1.63589e-18
7.04036e-18
1.12319e-17
8.5238e-18
3.94651e-18
2.38285e-18
2.26535e-18
2.55315e-18
2.42351e-18
2.34276e-18
2.15567e-18
2.10498e-18
1.87132e-18
1.74921e-18
1.42197e-18
1.32054e-18
1.21689e-18
1.33131e-18
1.41779e-18
1.40291e-18
1.28991e-18
1.15236e-18
1.04655e-18
1.04538e-18
1.19009e-18
1.24347e-18
1.2466e-18
1.22302e-18
1.16264e-18
1.1488e-18
1.1211e-18
1.09756e-18
1.08391e-18
1.0478e-18
1.0042e-18
1.22433e-18
-8.26452e-19
4.96073e-18
-1.12224e-17
6.47089e-18
-6.96904e-18
-9.48572e-18
2.39767e-17
-1.16956e-16
1.41762e-16
-7.7788e-17
5.85632e-17
-9.05352e-17
-1.4335e-17
5.10095e-17
2.28005e-16
1.97604e-16
-3.78969e-16
-1.11686e-15
-1.81349e-15
1.07816e-15
2.48884e-15
7.39436e-16
-3.5989e-16
-2.24172e-16
-1.86134e-17
2.85044e-17
4.41047e-17
1.42557e-17
-1.07122e-17
-6.74305e-19
3.40283e-18
-1.47728e-18
-8.75681e-18
-8.82931e-18
-6.46566e-18
-3.2401e-18
-7.62331e-19
-1.20024e-18
8.99557e-19
1.63468e-19
1.83896e-19
1.97843e-19
2.27484e-19
2.35102e-19
2.46871e-19
2.74588e-19
2.49072e-19
3.05651e-19
2.97578e-19
3.25934e-19
3.48474e-19
3.40484e-19
3.78092e-19
3.65562e-19
4.17466e-19
3.9332e-19
4.32999e-19
4.54993e-19
4.45304e-19
4.6807e-19
4.8813e-19
4.91031e-19
4.95812e-19
4.83947e-19
4.89623e-19
4.90576e-19
5.04711e-19
4.86341e-19
5.08297e-19
4.95021e-19
5.05783e-19
5.00124e-19
4.99231e-19
4.94836e-19
4.90956e-19
4.89525e-19
4.8318e-19
4.79523e-19
4.74114e-19
4.71155e-19
4.70621e-19
4.77033e-19
5.34019e-19
1.13149e-18
4.10055e-18
1.51353e-17
1.18612e-17
1.06569e-17
7.66692e-18
7.78433e-18
7.08685e-18
6.43189e-18
5.802e-18
4.70411e-18
3.93603e-18
3.43126e-18
2.73351e-18
2.30556e-18
2.03199e-18
1.58656e-18
1.66528e-18
1.61695e-18
1.56503e-18
1.55798e-18
1.44223e-18
1.27593e-18
1.13297e-18
1.1772e-18
1.25684e-18
1.30947e-18
1.31963e-18
1.30067e-18
1.25888e-18
1.21024e-18
1.19208e-18
1.18677e-18
1.09855e-18
1.11709e-18
7.2763e-19
1.56974e-18
6.51983e-19
1.04966e-18
4.4564e-18
-1.19565e-17
3.90341e-17
-8.64247e-17
1.03328e-16
-3.39319e-18
-1.04484e-16
-5.0292e-17
2.21505e-16
8.51506e-17
-4.9716e-16
-2.79392e-16
-3.06206e-16
6.96817e-16
1.33855e-15
1.54956e-15
1.91428e-15
-9.2284e-16
-3.2954e-15
-1.80362e-15
-8.61516e-17
1.17939e-16
-7.14345e-17
-8.4022e-17
-5.32531e-17
-2.13734e-17
5.50894e-18
4.01526e-18
-3.79977e-18
-1.01093e-17
-7.93134e-18
-8.0695e-18
-3.1276e-18
-6.26501e-19
5.58149e-19
1.35181e-18
5.53307e-19
5.44067e-19
5.4642e-19
5.37905e-19
5.47865e-19
5.68185e-19
4.80329e-19
5.53939e-19
4.70633e-19
5.81944e-19
5.34525e-19
5.44223e-19
5.63008e-19
4.97751e-19
5.53925e-19
5.22597e-19
5.3407e-19
5.22914e-19
5.26488e-19
5.31568e-19
5.1611e-19
4.98158e-19
4.94097e-19
4.93044e-19
4.89971e-19
5.01319e-19
4.94902e-19
4.8483e-19
4.99184e-19
4.73968e-19
4.86925e-19
4.73876e-19
4.78786e-19
4.76204e-19
4.7624e-19
4.78717e-19
4.77253e-19
4.75422e-19
4.74744e-19
4.74349e-19
4.72433e-19
4.68286e-19
4.62622e-19
4.30077e-19
1.01474e-18
3.87018e-18
2.90377e-17
4.91772e-17
3.96121e-17
2.96339e-17
2.37248e-17
1.89929e-17
1.49951e-17
1.10505e-17
8.68975e-18
6.36881e-18
5.20725e-18
3.45495e-18
2.87141e-18
2.35415e-18
1.88684e-18
1.81901e-18
1.90716e-18
1.95765e-18
2.04064e-18
1.83917e-18
1.63111e-18
1.42591e-18
1.25955e-18
1.3725e-18
1.57195e-18
1.65899e-18
1.63614e-18
1.63137e-18
1.57709e-18
1.42983e-18
1.39122e-18
1.35369e-18
1.33514e-18
6.97666e-19
2.01838e-18
-5.85221e-19
6.57008e-18
-1.46261e-17
3.60158e-17
-7.44366e-17
1.04787e-16
-3.33185e-17
-4.93975e-17
1.83804e-16
-8.09379e-17
-4.43038e-16
1.37329e-16
8.28395e-16
5.40596e-16
3.85255e-17
-5.54048e-16
-1.21771e-15
-1.24853e-15
-1.43741e-15
-2.73283e-15
-8.98272e-16
1.75892e-15
1.62546e-15
3.47721e-16
-1.64537e-16
-1.1533e-16
-6.87688e-17
-3.45507e-17
6.00942e-18
1.07996e-17
-1.96675e-18
-9.04842e-18
-8.4688e-18
-9.86522e-18
-2.74003e-18
-1.15909e-18
-4.4301e-19
9.26651e-19
5.52768e-19
5.45342e-19
5.42401e-19
5.48467e-19
5.33528e-19
5.17449e-19
5.25799e-19
5.45359e-19
5.3577e-19
5.03574e-19
4.70745e-19
4.99473e-19
4.69083e-19
4.91036e-19
4.40972e-19
4.64603e-19
4.31326e-19
4.35647e-19
4.12035e-19
4.37648e-19
4.20724e-19
4.31397e-19
4.45548e-19
4.44982e-19
4.55504e-19
4.45762e-19
4.4594e-19
4.69449e-19
4.50721e-19
4.74379e-19
4.6016e-19
4.70615e-19
4.67127e-19
4.76709e-19
4.7815e-19
4.79715e-19
4.83435e-19
4.89436e-19
4.90957e-19
4.98061e-19
5.20078e-19
4.55085e-19
3.37984e-19
6.93975e-19
1.31025e-18
6.43703e-18
2.41281e-17
7.07453e-17
5.54902e-17
3.65044e-17
3.07534e-17
2.41845e-17
1.80802e-17
1.30599e-17
8.73435e-18
6.62773e-18
5.31978e-18
4.17083e-18
3.37147e-18
2.69451e-18
2.01262e-18
1.95448e-18
2.09011e-18
2.1768e-18
2.65481e-18
2.11272e-18
1.74542e-18
1.43413e-18
9.79556e-19
1.1123e-18
1.63277e-18
1.84314e-18
2.02594e-18
1.99513e-18
1.80784e-18
1.69628e-18
1.5319e-18
1.75987e-18
1.06714e-18
2.10553e-18
3.40314e-19
3.02837e-18
5.5056e-21
1.2198e-17
-5.75849e-18
-3.80439e-18
9.34493e-17
5.35008e-18
-1.94578e-16
-7.50521e-17
2.63624e-16
7.69355e-17
-6.6785e-16
-1.13313e-15
-6.30655e-16
-2.43536e-16
3.31207e-16
2.59833e-16
2.78626e-16
6.04824e-16
9.44604e-16
2.83076e-15
2.79706e-15
5.00912e-16
-6.68128e-16
-3.3114e-16
7.11314e-17
8.81846e-17
1.42634e-17
-6.0705e-19
3.4437e-18
-3.75064e-18
-8.28006e-18
-9.55216e-18
-8.84656e-18
-5.46323e-18
4.18205e-19
7.79034e-19
3.67119e-19
5.19695e-19
5.19616e-19
5.20578e-19
5.06212e-19
5.22704e-19
4.84253e-19
5.58389e-19
4.66136e-19
4.96731e-19
4.70342e-19
5.59312e-19
4.76811e-19
5.28781e-19
4.75367e-19
5.11887e-19
4.92688e-19
5.38451e-19
5.16636e-19
5.59482e-19
5.38434e-19
5.53523e-19
5.74876e-19
5.68225e-19
5.69094e-19
5.77576e-19
5.82708e-19
5.95385e-19
5.64552e-19
5.99596e-19
5.84814e-19
6.01654e-19
6.01548e-19
6.00612e-19
6.03974e-19
6.04121e-19
6.0723e-19
6.04447e-19
6.04796e-19
6.04966e-19
6.05029e-19
6.04881e-19
6.05493e-19
6.02765e-19
5.86396e-19
7.97161e-19
2.44253e-18
1.88156e-17
6.8008e-17
5.1832e-17
3.71343e-17
2.84802e-17
2.32488e-17
1.72217e-17
1.12283e-17
7.91419e-18
5.7532e-18
4.83479e-18
4.05723e-18
3.30772e-18
2.41618e-18
1.53512e-18
1.76193e-18
1.80214e-18
2.27493e-18
3.12622e-18
2.16311e-18
1.27385e-18
4.96921e-19
1.75086e-19
1.35512e-19
1.3378e-18
1.95954e-18
2.07175e-18
1.89715e-18
1.72717e-18
1.50487e-18
1.64709e-18
1.18105e-18
1.5822e-18
1.51212e-18
-3.16371e-19
5.45578e-18
-5.09353e-18
1.05196e-17
1.29063e-17
2.69655e-17
-2.38373e-16
1.59853e-16
4.21589e-16
-4.93186e-16
-3.90864e-16
2.10361e-16
9.56333e-16
1.25576e-15
8.91331e-16
4.8531e-16
5.36816e-16
5.00511e-16
7.38157e-16
9.08325e-16
6.29382e-16
9.01603e-16
-2.04324e-16
-1.48908e-15
-9.9711e-16
-7.87185e-17
2.24866e-16
1.55238e-16
6.40942e-17
2.06157e-17
6.61375e-18
-2.54423e-18
-5.16721e-18
-8.07096e-18
-7.57001e-18
-3.33175e-18
-6.46173e-19
7.70512e-19
4.00279e-19
5.8557e-19
5.91064e-19
5.92147e-19
5.81095e-19
5.74525e-19
5.94036e-19
6.07538e-19
6.12015e-19
6.10924e-19
6.34273e-19
6.00622e-19
6.29108e-19
6.36087e-19
6.31251e-19
6.58624e-19
6.44022e-19
6.50733e-19
6.67828e-19
6.71744e-19
6.65565e-19
6.94316e-19
6.68874e-19
6.78253e-19
6.79855e-19
6.79841e-19
6.95908e-19
6.83883e-19
7.06156e-19
6.88426e-19
6.94071e-19
6.84682e-19
6.91187e-19
6.76914e-19
6.88833e-19
6.83032e-19
6.87744e-19
6.83113e-19
6.83949e-19
6.79774e-19
6.76443e-19
6.73675e-19
6.68306e-19
6.70199e-19
7.08115e-19
9.77656e-19
3.33429e-18
1.34893e-17
5.27895e-17
4.97012e-17
3.59116e-17
2.83978e-17
1.84994e-17
1.59413e-17
7.95945e-18
5.99735e-18
3.68623e-18
3.83403e-18
3.4804e-18
3.02887e-18
1.87825e-18
4.94897e-19
6.83796e-19
1.29413e-18
1.95118e-18
2.94799e-18
7.3975e-19
-1.9299e-19
-3.38338e-19
-2.14274e-18
-2.16278e-18
3.91671e-19
2.14689e-18
2.34551e-18
1.84279e-18
1.28792e-18
1.1383e-18
2.15297e-19
1.89367e-18
-1.15781e-18
-3.29661e-19
1.0494e-17
-2.56558e-17
5.80524e-17
-9.63603e-17
-1.28951e-17
2.89558e-16
-6.43998e-17
-3.79649e-16
1.09979e-16
1.36131e-15
1.97515e-17
-9.18592e-16
-1.24379e-15
-1.51111e-15
-1.16712e-15
-1.01021e-15
-8.56569e-16
-1.00253e-15
-9.65447e-16
-9.90361e-16
-1.37273e-15
-1.14624e-15
-1.66036e-15
-1.67192e-15
-4.81977e-16
2.72384e-16
2.86208e-16
1.16129e-16
5.26424e-17
4.98565e-17
3.98783e-17
1.15042e-17
-4.13631e-18
-7.08061e-18
-8.07e-18
-4.46143e-18
-4.16254e-18
-2.38535e-19
1.25846e-18
6.30565e-19
6.33436e-19
6.5609e-19
6.56403e-19
6.2606e-19
7.00836e-19
5.6042e-19
6.5322e-19
6.2422e-19
7.13968e-19
6.11648e-19
7.17584e-19
6.33312e-19
7.55279e-19
7.16353e-19
7.2617e-19
7.04537e-19
6.84609e-19
7.22403e-19
7.23553e-19
7.18439e-19
6.86739e-19
6.92353e-19
6.8767e-19
6.98283e-19
6.86236e-19
6.93628e-19
6.82341e-19
6.77831e-19
6.69978e-19
6.76522e-19
6.70256e-19
6.71462e-19
6.66614e-19
6.67628e-19
6.65069e-19
6.64505e-19
6.6188e-19
6.59302e-19
6.5726e-19
6.57139e-19
6.5131e-19
6.49917e-19
6.59718e-19
8.11536e-19
1.93515e-18
5.75466e-18
3.89105e-17
4.23554e-17
3.66333e-17
2.76291e-17
2.02098e-17
1.34888e-17
7.16301e-18
4.10846e-18
3.20904e-18
3.79366e-18
4.0169e-18
3.5862e-18
2.01353e-18
3.25136e-19
9.12309e-19
1.79717e-18
9.65746e-19
3.59656e-18
9.64144e-19
-1.49419e-18
-2.80522e-18
-4.05483e-18
-1.58917e-18
3.01097e-18
4.49818e-18
4.31863e-18
2.78584e-18
1.92202e-18
1.07845e-18
1.57578e-18
-9.22791e-20
1.11519e-18
3.29603e-18
-1.15315e-17
4.41547e-17
-1.53435e-16
4.21787e-16
-1.06926e-16
-1.25771e-16
4.668e-16
-6.73773e-16
-1.62494e-15
-1.45006e-15
4.40503e-16
2.32907e-15
1.71892e-15
1.07028e-15
7.70165e-16
4.74044e-16
4.8619e-16
1.49495e-16
2.8396e-16
2.46465e-16
-3.60124e-16
-3.67695e-16
-9.09475e-16
-6.52518e-16
5.27424e-16
7.54408e-16
2.0228e-16
-9.76528e-17
-8.4808e-17
-4.21972e-18
2.76338e-17
2.05079e-17
5.73844e-18
-5.43186e-18
-7.11149e-18
-5.33922e-18
-4.88789e-18
-1.2154e-18
6.29836e-19
6.38806e-19
6.33504e-19
6.1011e-19
6.17084e-19
6.20645e-19
6.17375e-19
6.54815e-19
7.42949e-19
6.71783e-19
6.18756e-19
7.2563e-19
7.18241e-19
7.20208e-19
7.41884e-19
7.03946e-19
7.56566e-19
7.38021e-19
7.70439e-19
7.24598e-19
7.26909e-19
6.98135e-19
7.54841e-19
7.33822e-19
7.44799e-19
7.43578e-19
7.32206e-19
7.28453e-19
6.97485e-19
7.07654e-19
6.94062e-19
7.01427e-19
6.83244e-19
6.75332e-19
6.73091e-19
6.49274e-19
6.58652e-19
6.34736e-19
6.38652e-19
6.39974e-19
6.26957e-19
6.23804e-19
6.18367e-19
6.20363e-19
6.51434e-19
8.94279e-19
2.85277e-18
1.11521e-17
1.83851e-17
2.50469e-17
3.15291e-17
3.34499e-17
2.73931e-17
1.5353e-17
7.66522e-18
5.22356e-18
5.43595e-18
6.45196e-18
6.64865e-18
5.98167e-18
2.49587e-18
2.89117e-19
1.97691e-18
-3.5137e-19
4.77175e-19
2.30582e-18
1.46874e-18
-2.35991e-18
-7.48174e-18
-2.84645e-18
2.62088e-18
7.47321e-18
7.03183e-18
5.3919e-18
3.92002e-18
2.37546e-18
1.64413e-18
-1.2507e-19
-9.29289e-19
2.48197e-18
-9.18446e-18
1.61654e-17
-5.48129e-17
1.26505e-16
-1.79269e-17
-9.11185e-16
-5.46537e-16
6.56372e-16
2.66303e-15
2.75609e-15
2.87498e-16
-7.3756e-16
-1.89492e-15
-5.40307e-16
2.33102e-16
5.63281e-16
3.8564e-16
4.44274e-16
3.83513e-16
5.76402e-16
4.89723e-16
3.22706e-16
5.93132e-16
3.40222e-16
6.5561e-16
1.31606e-15
5.81391e-16
-1.63381e-16
-2.40637e-16
-1.12077e-16
-2.97427e-17
-8.96132e-19
1.01328e-17
7.28254e-18
-2.42196e-18
-5.06405e-18
-3.51786e-18
-6.17949e-18
-2.37724e-18
-1.8836e-18
6.99444e-19
6.74361e-19
6.62313e-19
6.76308e-19
6.76285e-19
7.88554e-19
7.38149e-19
8.2705e-19
7.7765e-19
8.63601e-19
7.31187e-19
6.65014e-19
8.37916e-19
6.76674e-19
7.44584e-19
7.23655e-19
7.27167e-19
6.6758e-19
6.12025e-19
6.70744e-19
6.73743e-19
6.72213e-19
6.67092e-19
6.89328e-19
6.25971e-19
6.40731e-19
5.96299e-19
6.02625e-19
5.90542e-19
5.82435e-19
5.80007e-19
5.55937e-19
5.74684e-19
5.63208e-19
5.61782e-19
5.55832e-19
5.55725e-19
5.53202e-19
5.46498e-19
5.42169e-19
5.41775e-19
5.37903e-19
5.45095e-19
6.19934e-19
1.12394e-18
3.57351e-18
9.7943e-18
1.61496e-17
1.91691e-17
2.50888e-17
3.58152e-17
3.25545e-17
2.61177e-17
2.48153e-17
1.03148e-17
1.28443e-17
1.08454e-17
1.15304e-17
8.49419e-18
3.57328e-18
4.36074e-19
-6.158e-20
-3.43698e-18
-2.33994e-18
1.97086e-18
-4.17939e-19
-4.95731e-18
-5.17016e-18
1.96492e-18
8.1085e-18
1.01098e-17
1.0654e-17
8.84498e-18
3.75365e-18
1.32761e-18
-1.06754e-18
-2.53377e-18
-5.65297e-19
-7.95155e-18
5.68306e-18
-2.03985e-17
1.46483e-16
-5.82155e-16
1.29208e-15
3.23748e-15
-2.80957e-15
-5.28957e-15
-4.66297e-15
-3.34971e-15
-1.22754e-15
-1.62915e-16
-8.01165e-16
-1.83543e-15
-1.83439e-15
-1.78092e-15
-1.43102e-15
-8.62159e-16
-5.08141e-16
-5.78502e-17
3.02042e-16
5.40317e-16
1.10572e-15
9.32826e-16
1.1267e-15
9.20395e-16
-7.65133e-18
-3.59093e-16
-1.87887e-16
-4.35942e-17
-2.07987e-17
-2.53827e-17
-7.42684e-18
3.93651e-18
2.3918e-18
-2.06214e-18
-1.89578e-18
-7.1359e-18
-4.98701e-18
1.44785e-18
7.56894e-19
7.98614e-19
7.8719e-19
7.76171e-19
7.42465e-19
6.69747e-19
6.44149e-19
6.73056e-19
5.56367e-19
7.29321e-19
5.66555e-19
7.49763e-19
5.58874e-19
7.29142e-19
5.90769e-19
6.32779e-19
5.88268e-19
6.32122e-19
6.46692e-19
6.18109e-19
5.29159e-19
5.81446e-19
5.59528e-19
5.46607e-19
5.24008e-19
5.17111e-19
5.37033e-19
5.40097e-19
5.33529e-19
5.22413e-19
5.35928e-19
5.2633e-19
5.02e-19
5.03178e-19
4.93681e-19
4.94278e-19
4.87196e-19
4.7881e-19
4.6973e-19
4.60434e-19
4.58351e-19
4.55902e-19
4.7015e-19
6.02344e-19
1.89157e-18
4.62165e-18
1.14192e-17
1.94359e-17
1.8846e-17
2.12067e-17
2.93452e-17
3.60288e-17
5.25209e-17
3.90694e-17
3.12757e-17
2.19558e-17
2.2379e-17
1.9e-17
1.5975e-17
7.1546e-18
1.02477e-18
-2.76107e-18
-9.46989e-18
-3.84007e-18
3.10626e-19
-2.00431e-18
-2.64335e-18
4.19199e-18
9.62415e-18
1.10007e-17
1.30233e-17
1.28923e-17
1.20553e-17
7.17741e-18
2.80832e-18
-1.97285e-18
-1.3227e-18
-8.49624e-18
-7.9932e-18
5.32551e-17
-2.58011e-16
1.21842e-15
-1.06676e-15
-6.20018e-15
1.8826e-16
6.55443e-15
8.50029e-15
5.58422e-15
4.79737e-15
3.74753e-15
2.87253e-15
2.9118e-15
2.85363e-15
1.42931e-15
8.35629e-16
1.26013e-16
-9.15223e-17
-3.98772e-16
-5.76417e-16
-6.96048e-16
-5.51969e-16
7.39852e-18
7.47157e-17
3.44732e-16
1.11439e-16
-5.28798e-16
-4.79995e-16
-1.06744e-16
3.01755e-17
-6.12776e-18
-3.26094e-17
-1.70174e-17
-1.7026e-18
6.81311e-19
-1.49414e-18
-3.49933e-18
-6.46688e-18
-4.17336e-18
-5.12432e-18
6.86538e-19
6.69236e-19
6.9482e-19
7.00978e-19
8.02608e-19
6.87873e-19
8.8894e-19
6.66114e-19
8.48695e-19
6.52344e-19
7.99583e-19
7.0636e-19
6.24077e-19
6.7613e-19
5.8311e-19
6.85385e-19
5.43607e-19
7.04636e-19
5.76854e-19
7.00234e-19
5.84297e-19
6.58612e-19
6.05943e-19
6.33253e-19
5.91752e-19
6.12731e-19
5.56735e-19
5.44226e-19
4.8902e-19
4.85241e-19
4.8139e-19
4.80505e-19
4.41317e-19
4.59403e-19
4.37975e-19
4.10977e-19
4.04437e-19
3.89695e-19
3.88667e-19
3.70102e-19
3.62002e-19
3.69576e-19
4.02376e-19
5.98398e-19
3.39779e-18
3.13014e-18
1.82887e-17
2.94671e-17
2.04979e-17
2.2181e-17
2.56492e-17
2.53653e-17
7.98236e-17
3.43462e-17
4.1879e-17
4.72574e-17
5.92119e-17
4.55488e-17
2.72813e-17
6.79629e-18
-6.62708e-18
-1.86624e-17
-1.51728e-17
-4.06551e-18
-1.07012e-17
3.1812e-18
1.475e-17
1.78846e-17
1.4852e-17
1.66051e-17
2.55259e-17
2.95698e-17
2.22784e-17
1.09025e-17
-9.95479e-19
-3.40568e-18
-2.3679e-17
3.74308e-17
-1.0069e-16
4.27484e-16
-1.13905e-15
4.52201e-16
9.08767e-15
2.70666e-15
-5.35573e-15
-4.78241e-15
-7.14566e-15
-6.92933e-15
-5.0454e-15
-2.99741e-15
-9.55991e-16
-6.60198e-16
8.65453e-17
1.10741e-15
1.54858e-15
1.0245e-15
4.66451e-16
8.18986e-17
-2.25557e-16
-7.56094e-16
-1.04938e-15
-8.96722e-16
-1.00415e-15
-6.84748e-16
-6.89602e-16
-8.19198e-16
-2.93206e-16
1.14902e-16
1.19554e-16
3.01843e-17
-1.97095e-17
-2.15186e-17
-9.17473e-18
1.62886e-19
-2.9331e-19
-1.8273e-18
-4.41848e-18
-4.24443e-18
-6.55723e-18
7.42162e-19
7.44674e-19
6.98266e-19
6.64228e-19
6.71257e-19
7.46524e-19
7.37169e-19
6.37405e-19
7.13348e-19
5.77825e-19
6.88325e-19
4.26043e-19
7.8152e-19
5.04477e-19
7.15721e-19
4.67969e-19
6.5866e-19
4.66024e-19
5.73516e-19
4.3797e-19
4.68865e-19
4.64747e-19
3.69386e-19
3.61648e-19
3.31029e-19
3.15858e-19
2.7971e-19
2.74646e-19
2.74231e-19
2.97204e-19
2.4986e-19
2.37364e-19
2.46559e-19
2.19184e-19
2.37691e-19
2.50955e-19
2.63556e-19
2.73359e-19
2.8168e-19
2.90143e-19
3.02535e-19
3.20761e-19
3.92807e-19
7.33262e-19
2.14231e-18
-1.82592e-18
2.96077e-17
4.12956e-17
2.86221e-17
3.14276e-17
2.99388e-17
-6.79624e-18
1.27089e-16
-8.72678e-17
1.44946e-16
1.54404e-16
3.28567e-17
-2.20788e-17
-4.04293e-17
-3.20486e-17
-1.63723e-17
6.31676e-18
2.11458e-17
2.01214e-17
-1.21953e-18
1.72183e-17
2.48522e-17
1.08543e-17
5.50371e-18
1.12043e-17
2.4178e-17
3.0694e-17
2.5986e-17
2.16851e-17
1.8787e-17
1.92601e-17
1.54872e-17
5.78159e-17
-5.75791e-17
1.31222e-15
1.91253e-15
-1.44754e-14
-8.76586e-15
2.30671e-15
7.95059e-16
1.84027e-15
3.35879e-15
2.51796e-15
1.13537e-16
-2.42453e-15
-2.98047e-15
-2.82924e-15
-2.67077e-15
-1.60769e-15
-6.38989e-16
4.98099e-16
8.43244e-16
7.56677e-16
8.72438e-16
5.77706e-16
6.35033e-17
-3.40495e-16
-8.16353e-16
-6.12085e-16
-6.95554e-16
-5.34365e-16
8.85052e-17
2.57596e-16
1.34521e-16
4.31591e-17
-1.09138e-17
-2.6377e-17
-1.62269e-17
-1.95657e-18
2.88563e-18
1.27647e-18
-4.39189e-18
-4.46343e-18
-5.21257e-18
7.44224e-19
7.59012e-19
7.82604e-19
7.55681e-19
6.96409e-19
8.20231e-19
6.35286e-19
6.74411e-19
3.93961e-19
7.16202e-19
4.73923e-19
7.42277e-19
5.77066e-19
5.9412e-19
6.56106e-19
4.71126e-19
6.4751e-19
3.43875e-19
4.47588e-19
2.97297e-19
4.29337e-19
1.53742e-19
3.6175e-19
2.14181e-19
2.64237e-19
1.8757e-19
2.76784e-19
2.44462e-19
3.02217e-19
2.6077e-19
2.61494e-19
3.10538e-19
3.01974e-19
3.18355e-19
3.07235e-19
3.21289e-19
3.20669e-19
3.2661e-19
3.33789e-19
3.34489e-19
3.42563e-19
3.85189e-19
5.29473e-19
2.04607e-18
-3.06688e-18
-1.41258e-17
4.77791e-17
5.72544e-17
4.80993e-17
3.19131e-17
3.17783e-17
-5.26616e-17
2.03023e-16
-4.42222e-16
5.04596e-16
-1.64433e-16
-7.45589e-16
-3.13531e-16
6.73108e-17
1.5047e-16
5.56445e-17
5.21561e-17
-7.28669e-17
-1.29309e-16
-1.70114e-16
-1.6721e-16
-1.07007e-16
-1.26033e-17
7.29191e-17
1.20204e-16
1.70948e-16
1.92777e-16
1.91857e-16
1.51704e-16
9.6847e-17
1.09226e-16
-4.37216e-17
7.795e-16
-3.58945e-15
-7.83963e-15
1.57453e-14
1.62488e-14
5.33415e-15
5.90365e-15
4.15249e-15
2.63194e-15
4.02207e-15
4.22342e-15
4.39528e-15
4.42544e-15
2.86538e-15
7.95031e-16
-5.76962e-16
-1.3506e-15
-1.38632e-15
-1.4508e-15
-8.63241e-16
-1.36122e-16
6.18441e-16
9.83633e-16
1.10384e-15
8.03419e-16
3.07358e-16
2.87257e-16
-1.56421e-16
-1.91834e-17
4.29515e-16
2.75916e-16
7.03279e-17
1.33948e-17
-8.34692e-18
-1.6922e-17
-1.08215e-17
-1.81674e-18
2.47562e-18
-5.93199e-19
-4.21617e-18
-6.01714e-18
-8.70692e-18
4.61684e-19
5.22973e-19
5.80536e-19
6.91708e-19
7.76331e-19
3.42338e-19
6.1098e-19
4.01256e-19
6.54034e-19
4.01519e-19
6.68895e-19
3.5582e-19
3.94139e-19
3.38379e-19
1.72995e-19