/*--------------------------------*- C++ -*----------------------------------*\
| =========                 |                                                 |
| \\      /  F ield         | OpenFOAM: The Open Source CFD Toolbox           |
|  \\    /   O peration     | Version:  2.2.x                                 |
|   \\  /    A nd           | Web:      www.OpenFOAM.org                      |
|    \\/     M anipulation  |                                                 |
\*---------------------------------------------------------------------------*/
FoamFile
{
    version     2.0;
    format      ascii;
    class       volScalarField;
    location    "2.25";
    object      pB;
}
// * * * * * * * * * * * * * * * * * * * * * * * * * * * * * * * * * * * * * //

dimensions      [1 1 -3 0 0 -1 0];

internalField   nonuniform List<scalar> 
14161
(
-0.0156197
0.00373591
-0.00110687
0.000101073
-0.000317875
-0.000215666
-0.000283872
-0.000266319
-0.000276012
-0.000265123
-0.00026461
-0.000246464
-0.000238588
-0.000220712
-0.000200051
-0.000175242
-0.000145383
-0.0001202
-7.58014e-05
-5.83615e-05
-5.37328e-07
3.43844e-05
0.000101137
0.000145971
0.00020434
0.000289342
0.000328805
0.000447866
0.000486372
0.000561797
0.000645723
0.000712018
0.000797903
0.000872928
0.000882021
0.000904351
0.000833648
0.000750399
0.000317151
-0.000127459
-0.000696286
-0.00233748
-0.000251871
-0.0126802
0.0127915
-0.0580513
0.311201
-0.000392543
-0.0374632
-0.0338129
-0.0108998
-0.0109398
-0.00415447
-0.00447212
-0.00395648
-0.00206455
0.00151785
-0.000803415
-0.00454974
-0.00119526
0.000552792
-0.000730959
-0.00185847
-0.00166778
-0.000410463
-0.000191133
-0.000314339
-0.000139462
0.000129387
0.000251659
0.000420749
-3.77337e-05
-0.000571436
-0.000730318
0.000314982
-0.000289165
-0.000863715
-0.000397134
-0.000188723
-0.000814064
6.17396e-06
0.00139221
0.00475015
0.00536774
0.00181298
-0.00120014
0.00332113
0.0038023
0.000360288
-0.00246658
-0.00130603
-7.67605e-05
-0.00448916
-0.00353772
-0.00932616
-0.00540495
-0.00900989
0.00108268
-0.0010981
0.0132257
-0.00580226
0.0148866
-0.0086321
0.00803697
-0.00561504
0.00370513
-0.0060325
0.00458817
-0.00533798
0.00504661
-0.0049068
0.00489777
-0.00518537
0.00518364
-0.00505631
0.00503389
-0.00621279
0.00584171
-0.00825465
-0.0156339
0.00374661
-0.00110787
0.000101352
-0.000317905
-0.000215245
-0.000284583
-0.000267133
-0.000276597
-0.000265539
-0.000264737
-0.000247278
-0.000239721
-0.000220304
-0.000200525
-0.000175868
-0.000146716
-0.000120263
-7.65328e-05
-5.80558e-05
3.55079e-06
3.79665e-05
9.81056e-05
0.000144926
0.000222865
0.000253059
0.000362589
0.000404523
0.000522094
0.000550497
0.000633744
0.000702128
0.000772719
0.000819628
0.000841845
0.000843342
0.000726199
0.000617209
0.000246235
-0.000239649
-0.000579348
-0.00265388
-4.03703e-05
-0.0123082
0.00765325
-0.0491013
0.163686
-0.0454282
0.0114246
-0.00481714
0.0129874
0.00387158
0.00262259
-0.0005717
-0.00096175
-0.00294175
-0.00159445
0.000617153
-0.00157604
-0.00238174
0.000506835
0.000513371
0.000309341
0.000472328
0.00136845
0.000448465
-0.00171322
-0.00224425
-0.00151455
4.20856e-05
0.00143032
0.00219785
0.00251569
0.00185432
-0.00120683
-0.00225833
-0.00200068
-0.00019846
0.00259231
0.00609471
0.00560955
-0.000669517
-0.00821014
-0.0144378
-0.00844368
0.000452021
0.00682574
0.00911653
0.00712242
0.006072
-0.00787417
-0.00950946
-0.0353498
-0.0145571
-0.0176325
0.00433703
0.00149966
0.0225505
0.00456465
0.0123142
-0.00651454
0.000746404
-0.0143328
0.000173355
-0.0011928
0.00925567
-0.0019233
0.00696474
-0.00481322
0.00461361
-0.00369493
0.00546443
-0.00378821
0.00435357
-0.00380157
0.00591759
-0.0054323
0.00719416
-0.0059273
-0.0156232
0.00373826
-0.00110765
0.000100168
-0.000318619
-0.000215166
-0.000284438
-0.000266678
-0.000276931
-0.000264839
-0.000263784
-0.00024805
-0.000238837
-0.000220334
-0.000200241
-0.000175737
-0.000146689
-0.000119993
-7.55755e-05
-5.5761e-05
-2.67618e-06
3.76395e-05
8.32863e-05
0.000147002
0.000211771
0.000262532
0.000367558
0.000397274
0.000491769
0.000591904
0.000639879
0.000741168
0.000831494
0.000864836
0.000975648
0.00105757
0.00106817
0.00112824
0.00103674
0.000998134
0.000735387
0.000936654
-0.000792941
0.00347474
-0.00295197
0.0392504
0.0807345
0.0239829
0.0161874
-0.0132054
0.00697788
-0.00349163
-0.00208106
-0.000660792
0.00217915
-0.0070019
-0.00104034
0.00090345
-0.000197248
-0.00142061
-0.00148795
-0.000521228
-0.000905709
-0.0024149
-0.000674394
0.000959444
0.00227802
0.00219517
0.00203799
-0.00032422
-0.00315591
-0.00444293
-0.00310358
-0.00167018
0.000779617
0.00184785
0.00320759
0.00179767
-0.00504004
-0.00744684
-0.00774731
-0.00216569
0.0130618
0.0139559
0.00968721
0.00116129
-0.0116642
-0.022892
-0.0232472
-0.0124906
0.0276937
0.0531049
0.0628086
0.070712
0.0306313
0.00273409
-0.0269717
-0.0276556
-0.0303786
-0.00266431
0.000222538
0.0165079
0.0141498
0.00925566
-0.00480755
-0.00699052
-0.0097672
0.0034204
-0.00299743
0.00721417
-0.00553488
0.00538791
-0.0072269
0.00724392
-0.00809098
0.00479105
-0.00643723
0.00442193
-0.00618921
-0.0156196
0.00373031
-0.00110619
9.93064e-05
-0.00031944
-0.000216353
-0.000285784
-0.000268012
-0.000276396
-0.000267082
-0.000263645
-0.000249454
-0.000240838
-0.000221259
-0.000202571
-0.000176362
-0.000149011
-0.000121143
-8.06256e-05
-6.14789e-05
-8.0345e-06
2.65273e-05
9.04715e-05
0.000142112
0.000204304
0.000277207
0.000313319
0.000431766
0.00047597
0.000575964
0.000633688
0.000699886
0.000726187
0.000747511
0.000793703
0.000813912
0.000739591
0.000781506
0.000538272
0.000854863
-0.0002898
0.00126015
-0.00379553
0.00785906
-0.034201
0.123496
-0.0162227
0.0216932
0.0115306
-0.00480189
0.00422287
-0.000306934
-0.00273077
0.000943121
0.00507857
-0.00333567
-0.00359851
0.000755899
0.000435812
-0.00169244
-0.00359784
0.000699227
0.00222626
0.00138643
0.000409764
-0.00248564
-0.00409628
-0.00250972
-0.000284279
0.00189971
0.00377009
0.00524891
0.00466362
0.00151677
-0.0051988
-0.00689667
-0.00352631
-0.00062603
0.0036945
0.0101198
0.010199
0.0021338
-0.00665749
-0.0189393
-0.0116169
0.00348307
0.0301763
0.0414195
0.0510268
0.0331299
-0.0631704
-0.038636
-0.0685746
-0.0407557
-0.0126439
0.0229932
0.0413416
0.0502904
0.00437763
-0.00836849
-0.0193597
-0.0130763
-0.0195969
0.00741006
0.00217352
0.0184705
0.000145018
0.00231259
-0.00781852
0.00265365
-0.00406214
0.00634884
-0.00341399
0.00372279
-0.00419353
0.00486961
-0.00455949
0.00511178
-0.00424729
-0.0155953
0.00371058
-0.00110521
9.66461e-05
-0.000320594
-0.000217711
-0.000284821
-0.000267913
-0.000276117
-0.000266786
-0.000263817
-0.000250822
-0.000240481
-0.000221974
-0.000202697
-0.000176546
-0.000150417
-0.000121829
-8.22598e-05
-5.9639e-05
-1.1997e-05
3.27598e-05
9.98717e-05
0.000140002
0.000190388
0.00027852
0.000331931
0.000406468
0.000500989
0.00056437
0.000667453
0.000718729
0.000811741
0.000876366
0.00110452
0.00132059
0.00152007
0.00169506
0.00189834
0.00283781
0.00208387
0.00605895
0.000579086
0.015922
-0.0133834
0.0854326
0.025159
0.00566877
0.0130735
-0.00673103
0.00259909
0.00300647
-7.61271e-05
-0.0047595
0.00521813
0.000942082
-0.00344487
-0.00120617
0.000155647
0.00170213
-0.00320393
-0.00103259
-0.00114636
-0.00356275
-0.00278448
-0.000830281
0.000808561
0.00144614
0.00120222
-0.000636407
-0.0030526
-0.00588391
-0.00505696
-0.00200809
0.00456796
0.00671953
0.00937188
0.00557087
-0.007194
-0.0125238
-0.0142467
-0.00806516
0.0164286
0.0207279
0.0207333
-0.000358443
-0.0274215
-0.053316
-0.0380818
-0.0208337
0.0138773
0.0541229
0.0295906
0.0546883
0.00238441
-0.00612952
-0.0307083
-0.0340205
-0.0151046
0.0109772
0.00833678
0.0253048
0.00644004
0.00109588
-0.0170537
-0.00357995
-0.00655628
0.0123017
0.000500333
0.00650791
-0.00528952
0.000998025
-0.00440952
0.00470574
-0.00538487
0.00477774
-0.004053
0.00470476
-0.00490577
-0.0155854
0.00369579
-0.00110362
9.47136e-05
-0.000321627
-0.000218446
-0.000286392
-0.000269475
-0.000276644
-0.000269841
-0.000263544
-0.000253496
-0.000242141
-0.00022451
-0.000205429
-0.000179845
-0.000154057
-0.00012486
-8.72534e-05
-6.08682e-05
-1.29281e-05
2.91574e-05
7.8525e-05
0.00012777
0.000199588
0.000247441
0.000335828
0.000384949
0.000486881
0.000542091
0.000609644
0.000650741
0.00070344
0.000697251
0.000773935
0.000777416
0.000889774
0.00101568
0.0013088
0.00163836
0.00104869
0.00420896
-0.00154685
0.0130509
-0.0146101
0.0567043
0.0545781
-0.00743025
0.0191437
-0.00991621
0.00298285
0.00184986
0.00564209
-0.00330692
-0.00408035
0.00295721
0.00224491
-0.00343115
-0.00380856
0.0018933
-0.0037798
-0.00109242
-0.000644836
0.000267776
0.000856418
0.00178013
-0.000846558
-0.00276849
-0.00345529
-0.00137677
0.000674944
0.00297804
0.00551611
0.00495149
-0.000478148
-0.00626457
-0.00701424
-0.00602024
0.000876509
0.0136885
0.0166089
0.00334144
-0.00812214
-0.0235018
-0.025686
-0.00870323
0.0298286
0.0518447
0.0458044
0.0463434
0.0222067
-0.0490196
-0.00215439
-0.0521525
-0.0175717
-0.00332328
0.00898725
0.041862
0.0177341
0.00601112
-0.0109672
-0.00744145
-0.0163218
0.00821063
0.00546392
0.0162643
-0.00192839
-0.001612
-0.0115592
0.0017437
-0.00325135
0.00913657
-0.00592297
0.00439251
-0.00211402
0.004582
-0.00508774
0.00539661
-0.00448423
-0.015552
0.00366918
-0.00110281
9.09873e-05
-0.000323444
-0.00021894
-0.000286497
-0.000269881
-0.000276467
-0.000269831
-0.000263963
-0.000255036
-0.00024102
-0.000225721
-0.000205816
-0.000180988
-0.000155349
-0.000129048
-9.00916e-05
-6.21988e-05
-1.96914e-05
2.20014e-05
6.90531e-05
0.000132494
0.000189222
0.000243918
0.000332774
0.000391489
0.000460906
0.000550595
0.000609636
0.000693069
0.000803635
0.00104577
0.00126553
0.0014655
0.00168237
0.00195259
0.00269435
0.00343632
0.00424266
0.00713145
0.00407013
0.0174357
-0.00171483
0.0468779
0.0528102
-0.00446175
0.0183698
-0.00635424
0.00584657
-0.00330639
0.00251843
-0.00248389
0.00173781
-0.00269579
-0.000637724
-0.00252098
-0.00253725
0.00206342
-0.00100323
0.000493998
-0.00189414
-0.00261509
-0.00188407
-0.000592349
0.000925677
0.0013893
0.00358097
0.00254542
-0.00170519
-0.00796597
-0.00475045
-0.00441559
0.00123333
0.00491666
0.010055
0.00633947
-0.00177958
-0.017283
-0.0153307
-0.00506971
0.0156071
0.0348317
0.0363553
0.019722
-0.0199974
-0.0321892
-0.0251731
-0.0409665
-0.00308778
-0.00195352
0.0307047
0.00110209
0.0275602
-0.000296369
-0.00591273
-0.0254193
-0.0180955
-0.0012207
0.00300337
0.0203858
0.00490116
0.00401172
-0.0144447
-0.00876166
-0.0116796
0.00842679
-0.000292768
0.00830267
-0.00586341
0.00160605
-0.00566963
0.00722622
-0.00751415
0.00486283
-0.00541268
0.00426045
-0.00475499
-0.0155381
0.00365093
-0.00110202
8.82943e-05
-0.000324228
-0.000221065
-0.000288047
-0.000271374
-0.000277131
-0.000273318
-0.00026484
-0.000257346
-0.000243909
-0.000229834
-0.000209071
-0.000186517
-0.000160353
-0.000131213
-9.65847e-05
-6.50695e-05
-3.21205e-05
1.18316e-05
6.74059e-05
0.000115272
0.000172575
0.000240448
0.000293675
0.000371253
0.000442591
0.00050611
0.000571868
0.000630993
0.000674062
0.000691727
0.000689171
0.000721088
0.000783753
0.000801077
0.000968421
0.00133168
0.00116295
0.00414427
-0.000860381
0.012965
-0.0122165
0.0964949
-0.00782222
0.0277882
-0.0164837
-0.000746946
-0.00447337
-0.00248981
-0.00127947
-0.00313375
0.00360928
-0.00183148
0.00150539
0.000802558
-0.000512764
0.00280726
-0.00344657
0.00200143
-0.00253512
0.00232708
-0.000749838
0.000701148
0.000262976
-0.00147392
-0.00267984
-0.00183445
9.44681e-05
0.00205857
0.00528388
0.00386693
0.00138271
-0.00553122
-0.00731904
-0.00747596
0.000748314
0.0118818
0.0163061
0.0143985
-0.00557514
-0.0179315
-0.022639
-0.0159145
-0.000150698
0.0177767
0.00928383
0.00827398
0.0259605
0.00162838
0.00231093
-0.00712417
-0.000481878
-0.00541111
-0.00433079
0.0188659
-0.000728803
0.0139284
-0.00894297
-0.00936384
-0.00748985
0.00147099
0.00116855
0.0176349
0.00236866
0.00268217
-0.00772483
0.00156044
-0.0057451
0.0094906
-0.00486161
0.0036029
-0.00358496
0.00546319
-0.00536095
0.00563375
-0.00461928
-0.0155009
0.00362297
-0.00110169
8.36814e-05
-0.000327585
-0.000221679
-0.000287133
-0.000272242
-0.000277738
-0.000273887
-0.000265452
-0.000258935
-0.000243439
-0.00023146
-0.000210216
-0.000189403
-0.000162738
-0.000136212
-0.000101412
-6.80581e-05
-3.9514e-05
1.15332e-05
5.81733e-05
0.000106902
0.000166977
0.000228729
0.000289536
0.000363286
0.000431077
0.000510507
0.000581068
0.000704939
0.000827729
0.000955166
0.00107069
0.00123712
0.00163056
0.002041
0.00225597
0.00334611
0.00234949
0.0057798
-0.000207247
0.0158874
-0.0205996
0.0983755
0.0292377
0.0317518
0.00569891
-0.000955446
0.00546467
0.00257075
0.000583409
-0.00289184
0.00110259
-0.00754493
0.0037576
-0.00539098
0.000568199
-0.00314662
-0.00419478
0.00297106
-0.00331825
-0.00175374
-0.00275703
-0.00206699
-0.00220462
-0.00183943
0.000774857
0.000319979
0.000115491
-0.00244322
-0.00287158
-0.00458548
-0.00244333
0.00149816
0.00668798
0.0052914
0.00380555
-0.00429794
-0.0132613
-0.0113312
-0.000248801
0.00633463
0.0285111
0.0140986
0.0083816
0.00420055
0.00060093
-0.00388798
-0.00837919
-0.00586806
-0.000819706
0.00625338
-0.0105979
0.0152068
-0.0103635
3.53574e-05
-0.00788113
-0.000237201
-0.00826561
0.00912533
0.000207552
0.00743544
-0.00596266
-0.00477002
-0.00794241
0.00391403
-0.00358493
0.00642044
-0.00472172
0.00127306
-0.00642428
0.00763818
-0.00595831
0.00449816
-0.00411442
0.00454363
-0.0048363
-0.0154847
0.00360297
-0.00110199
8.08477e-05
-0.000328573
-0.000224598
-0.000289328
-0.000274213
-0.000279078
-0.000277708
-0.000267906
-0.000262254
-0.000248308
-0.000235871
-0.000215694
-0.000196134
-0.000169661
-0.000143629
-0.000111103
-7.71143e-05
-4.62728e-05
-7.14439e-06
4.25296e-05
8.77079e-05
0.000150938
0.000199233
0.00026824
0.000328584
0.000400331
0.000461621
0.000510011
0.000537461
0.000569081
0.000541686
0.0005072
0.000435551
0.000260644
5.92828e-05
-0.00037277
-0.00058045
-0.00138975
-0.00236573
-0.00309355
-0.00897932
-0.00897437
-0.0210529
0.0755481
0.0616812
-0.0533407
0.000567425
-0.00939595
0.0118769
-0.00186331
0.0042696
0.00368682
-0.00361177
0.00607758
-0.00315157
0.00257405
-0.00019886
-0.000207244
0.00079563
0.000308907
0.000313427
0.000364481
0.00079104
0.00176473
-0.000131922
9.09011e-06
0.000523989
-0.000479879
0.000449329
0.000996116
0.00103323
0.000230456
-0.0012447
-0.0028755
-0.0043495
-0.00122278
0.00205107
0.00795863
0.00316265
0.00599118
-0.00322751
-0.0072055
-0.0062761
0.00114586
6.98301e-05
0.00108091
0.00294581
-0.00449508
-6.2309e-05
-0.00284551
0.000502237
-0.00463292
0.00504476
0.00103008
0.00440486
-0.00122473
0.00806103
-0.00681829
0.00145413
-0.00634575
0.00229242
-0.00224651
0.00900261
-0.00237341
0.00528884
-0.00521774
0.00234286
-0.00693957
0.00853912
-0.00401102
0.00301653
-0.0066815
0.00707132
-0.00580313
0.00506593
-0.00446754
-0.0154474
0.00357707
-0.00110193
7.56853e-05
-0.000332348
-0.000225389
-0.000289629
-0.000274872
-0.000280374
-0.00027819
-0.000268949
-0.000263033
-0.000249263
-0.000237352
-0.000218137
-0.000198971
-0.000174073
-0.000147669
-0.0001169
-8.41534e-05
-5.25182e-05
-1.39974e-05
3.40232e-05
7.92577e-05
0.000133477
0.000192333
0.000248868
0.000317864
0.000393153
0.000453433
0.000525889
0.000572325
0.000697998
0.00081189
0.00101551
0.00121639
0.00135354
0.0014927
0.00135747
0.00152977
0.000929687
0.000617804
0.00109086
-0.00524417
0.0115425
-0.0350477
0.18829
-0.00592352
0.00963279
-0.0402182
-0.018252
-0.0165982
-0.0105723
-0.0071192
-0.00542391
-0.00444241
-0.00296741
-0.00230293
-0.00375721
-0.000835281
-0.00343357
0.000779412
-0.00381731
-0.00151324
-0.00314836
-0.00304502
-0.00295819
-0.00204207
-0.00142752
-0.000992183
-0.000770492
-0.000972383
-0.00120141
-0.00187974
-0.00135533
-0.00221401
-0.000441836
0.000370464
0.00220302
0.000237526
-0.00224031
-0.00508139
-0.00560643
0.000382041
0.0122199
0.00263168
-0.00100203
0.00406
-0.00230569
-0.00138758
0.00271577
0.00332823
0.000413898
-0.0002367
0.00154082
-0.00704721
0.001659
-0.011907
-0.000774223
-0.00195472
-0.00411358
0.00499636
-0.0042052
0.00422787
-0.00429168
0.00137804
-0.00425602
0.00206978
-0.00331412
0.00548611
-0.00414902
0.00155579
-0.0063403
0.00611653
-0.00255617
0.00341184
-0.00580564
0.00517679
-0.00508069
-0.0154305
0.003557
-0.00110315
7.26418e-05
-0.000333636
-0.000227118
-0.000292094
-0.000276513
-0.000282497
-0.000280297
-0.000272608
-0.000266509
-0.000255298
-0.000243084
-0.00022554
-0.000207411
-0.00018327
-0.000158806
-0.000129934
-9.85101e-05
-6.25999e-05
-3.25804e-05
1.0019e-05
5.68769e-05
0.000109007
0.000160416
0.000222838
0.000274016
0.000335303
0.000377553
0.000412176
0.000453957
0.000442147
0.000393984
0.000285339
0.000197689
1.90716e-05
-9.92584e-05
-0.000616137
-0.00106607
-0.00189667
-0.00223862
-0.00256583
-0.00293123
-0.00269515
0.0185248
0.0403291
0.126992
-0.0531837
0.0239199
-0.0127418
0.0116574
-0.00748344
0.000263593
0.00074795
-0.00329178
0.00185796
-0.00293181
0.00155226
-0.00396934
0.00135418
-0.00197831
0.00130211
-0.000827344
-0.000904609
0.00153108
0.000277191
0.000187328
0.000809376
0.000544961
-0.000127867
-0.000383465
-0.000232846
6.61499e-05
0.000471515
-0.000316832
-0.0015058
-0.000766992
-0.00149893
-2.61581e-05
-0.00430483
0.00392178
0.00144642
0.00426203
0.00603335
-0.00181638
-0.00326419
0.000196817
-0.00853378
-0.00351701
-0.00434245
0.00255137
-0.00276784
-0.00275935
0.00178617
-0.00564974
0.0108778
0.00382948
-0.00216132
0.00946716
-0.00477133
0.00268529
-0.00161462
0.00253713
-0.00335569
0.00400128
-0.00263086
0.00473893
-0.0023902
0.00315437
-0.00387832
0.00796244
-0.00328599
0.00497138
-0.00748742
0.00534938
-0.00443703
0.00621244
-0.00537572
-0.0153961
0.00353448
-0.00110315
6.69378e-05
-0.000337568
-0.00022892
-0.000292746
-0.000277309
-0.00028449
-0.000281758
-0.000274546
-0.000268022
-0.000257169
-0.000245389
-0.000229294
-0.000211468
-0.000189066
-0.00016528
-0.000137941
-0.000107591
-7.40264e-05
-4.2817e-05
-1.85682e-06
4.11404e-05
9.07262e-05
0.000140869
0.000199465
0.000256027
0.000314164
0.000365527
0.000436117
0.000528884
0.00062541
0.000698061
0.00084418
0.00101379
0.00119862
0.00150964
0.00177186
0.00232454
0.00280229
0.00397957
0.00495895
0.00519958
0.0156676
0.00272734
0.0921908
0.0465991
0.00318667
-0.00201923
-0.0187845
-0.00359022
-0.0102828
-0.009804
-0.000999742
-0.00899285
-0.000197132
-0.00497334
-0.00176469
-0.00416
-0.00213915
-0.00297629
-0.000866592
-0.00398919
-0.00171371
-0.00159869
-0.00177915
-0.00015086
-0.000238995
-0.000753757
-0.000657138
-0.00086785
-0.000463881
-4.21078e-05
-0.00103625
-0.00232096
-0.00338297
-0.00163495
0.000676004
-0.00103392
0.00074971
-0.0031648
0.00612049
-0.00316358
0.00285449
0.00294156
-0.000552723
0.00443309
0.00319662
-0.00382754
-0.000283084
1.64119e-05
-0.00110851
0.00248074
0.00116309
-0.00270017
-0.00317895
-0.00502508
-0.0156442
0.00245543
-0.00946405
0.00259027
-0.00390638
0.00190741
-0.00416619
0.00157901
-0.00307677
0.00181008
-0.00430754
0.0027419
-0.00525616
0.00160488
-0.00873975
0.00520857
-0.00493113
0.00609174
-0.00687842
0.00517466
-0.00626489
-0.0153794
0.00351616
-0.00110491
6.42143e-05
-0.000338947
-0.000232023
-0.0002958
-0.000279529
-0.000287472
-0.000283819
-0.000279082
-0.000272736
-0.000263189
-0.00025295
-0.000238164
-0.000221564
-0.000200886
-0.000179668
-0.000154193
-0.000123487
-9.43464e-05
-6.13056e-05
-2.86092e-05
1.43282e-05
5.69832e-05
0.000107113
0.000153589
0.000209505
0.000247525
0.000284934
0.000337072
0.000365811
0.000330817
0.000267796
0.00017967
9.30114e-05
-1.43753e-05
-0.000287698
-0.000778946
-0.0007658
-0.00129932
-0.00131143
-0.00283888
-0.00178857
-0.0108397
0.0306893
0.0441054
0.0439176
0.00767483
0.0453508
-0.00948182
0.019043
-0.00520329
0.00903123
-0.0028651
0.00517384
-0.00334266
0.00423569
-0.0026968
-0.000667397
-1.29955e-06
0.000188073
0.00218328
-0.00113247
0.00112877
-0.000766211
0.000763904
-0.000266298
-0.000271491
-4.52963e-05
-0.000775841
-0.00066385
0.000650453
0.000662386
0.00062666
-0.00118108
-0.000987913
0.00107068
0.000202029
-0.00525771
-0.0032147
-0.00961072
0.00803776
0.00250136
-0.00784692
0.00782899
-0.0105499
0.00264162
-8.11405e-05
0.00487747
0.00844201
-0.0088385
0.00208488
-0.00202924
0.00239808
0.00184504
0.000449985
0.00136682
0.000703355
0.00386434
-0.0029052
0.00623023
-0.00331328
0.00318661
-0.000845751
0.00345968
-0.00239216
0.0034069
-0.00219992
0.00202796
-0.00230381
0.00467992
-0.00167124
0.00658507
-0.00437586
0.00536361
-0.00373638
0.00613254
-0.00496267
-0.0153504
0.0034969
-0.00110507
5.85666e-05
-0.000342861
-0.000231923
-0.000296828
-0.000280764
-0.000289132
-0.0002852
-0.000281301
-0.000275356
-0.000266144
-0.000256223
-0.000243917
-0.000226989
-0.000207871
-0.000187608
-0.000165724
-0.000136308
-0.000108887
-7.79794e-05
-4.29063e-05
-8.45754e-06
3.45524e-05
7.59688e-05
0.000130498
0.000178345
0.000223821
0.000279193
0.000341608
0.000417773
0.000485057
0.000633373
0.000787836
0.000941032
0.00111117
0.00136836
0.0015974
0.00235989
0.00168054
0.0041122
-0.000118882
0.0108027
-0.0117582
0.0756719
0.0310707
-0.00669152
-0.00229299
0.0216692
-0.00565661
0.014481
-0.0189312
0.00434822
-0.0123416
0.00197622
-0.00864601
0.00267935
-0.00633905
-0.00235605
-0.00221346
-0.000305319
-0.00367523
-0.00176882
-0.00158019
-8.25301e-05
-0.0014134
-0.000730062
-0.00124087
-0.00203462
-0.00166051
-0.00104817
8.52767e-05
0.000356113
-0.000713109
-0.00225231
-0.00274526
-0.00079283
-0.0022608
-0.00566671
-0.00476868
0.00534346
0.0227764
0.00751249
-0.005831
0.0124659
-0.00232616
-0.0040463
0.00284704
-0.00730483
0.0039601
0.000904792
-0.0014892
-0.00197212
-0.00305466
-0.00486847
-0.00492365
-0.010518
0.00402376
-0.00609465
-0.00104006
0.00024453
-0.005731
0.00128099
-0.00555938
-2.91125e-06
-0.00247372
0.0016554
-0.00281072
0.00168743
-0.0025525
0.00224617
-0.00453424
0.00371907
-0.00746133
0.00650799
-0.00753979
0.0052425
-0.00606227
-0.0153351
0.00348175
-0.00110686
5.65226e-05
-0.000344619
-0.000235651
-0.000300123
-0.000282688
-0.000292301
-0.000288585
-0.000285772
-0.000282218
-0.000273265
-0.000264764
-0.0002548
-0.000239468
-0.000222308
-0.000203956
-0.000185169
-0.000159762
-0.000132723
-0.000105394
-7.40789e-05
-3.8615e-05
-2.80346e-06
3.57891e-05
8.09527e-05
0.000120193
0.000155457
0.000193954
0.000216975
0.000229605
0.000232508
0.000218663
0.000145564
3.46266e-05
-6.65425e-05
-0.000159043
-0.000209843
-0.000328741
-0.000609913
-0.000129911
-0.00202925
0.00650471
-0.0103363
0.0919393
0.00768178
-0.00126466
0.00678006
0.015604
0.0197462
0.0225137
0.0086848
0.00976205
-0.00902257
0.0164449
-0.00781682
0.0112502
-0.00639126
0.00363083
-0.00167516
0.00344109
-0.00240434
-0.00160914
9.08297e-05
0.000664509
-0.000739745
-0.000250994
0.00114477
0.000213437
-0.000254592
-0.000933655
-0.000137556
-7.96516e-05
-0.000767311
-0.00346845
0.00187902
0.00645094
0.00149991
-0.0111268
0.00185039
0.00761244
-0.000885106
0.00164291
-0.00111305
-0.00898729
-0.00123643
-0.00504152
0.00511933
0.00579653
-0.00307138
-0.0018175
-0.00370872
0.00268992
-0.00182928
0.00452692
0.006162
0.00492417
0.00934165
-0.00715123
0.00555133
0.00342072
-0.00315862
0.00279228
0.000727424
0.00286746
-0.00112724
0.00217673
-0.00196126
0.00148306
-0.00236606
0.00263631
-0.00349862
0.00487667
-0.00411486
0.00506322
-0.00611368
0.00720236
-0.00671186
-0.0153125
0.0034661
-0.0011069
5.12486e-05
-0.000348553
-0.000235735
-0.000301138
-0.00028546
-0.000293973
-0.000290798
-0.000289038
-0.000284396
-0.000278334
-0.0002685
-0.000260989
-0.000247385
-0.00023159
-0.000214358
-0.000198103
-0.000177121
-0.000150921
-0.00012534
-9.78333e-05
-6.74927e-05
-3.28804e-05
2.88122e-06
4.14967e-05
8.0661e-05
0.000119823
0.000174528
0.000229405
0.000304279
0.000377988
0.000505737
0.000627319
0.000852451
0.00100436
0.00123362
0.00160341
0.00180242
0.00224051
0.00222181
0.00217057
0.00690035
-0.000950327
0.0803479
0.00185564
-0.00569508
-0.00827619
-0.000851948
0.00277625
0.0081731
0.0143902
-0.00528418
0.00489614
-0.00764308
-0.00208707
-0.00640659
2.68648e-05
-0.0016937
-0.000671664
-0.00324325
0.000950562
-0.0016253
-0.00115722
-0.00117534
3.13204e-05
6.17315e-06
-0.000244519
-0.000581534
-0.00246125
-0.00173869
-0.000648079
0.000984696
-2.42902e-05
-0.00246847
-0.00250434
-0.00195328
-0.00557483
-0.00495493
0.00424134
0.0199325
0.000106662
0.0177896
0.00458921
-0.00163302
0.00111166
-0.00906842
0.00658782
0.00280141
-0.00407823
0.00424752
0.00229263
0.00201403
0.00413852
0.000936899
-0.000153644
-0.005578
0.000378136
-0.00382259
-0.00245875
-0.000769243
-0.00471895
-0.000119697
-0.00432646
0.000733985
-0.00199596
0.00116511
-0.00204129
0.00183543
-0.00196327
0.00187502
-0.00251379
0.00299295
-0.00503184
0.00533569
-0.00485478
0.00631915
-0.00671006
-0.0153007
0.00345523
-0.00110823
5.03267e-05
-0.000350246
-0.000239199
-0.000304278
-0.0002868
-0.000298032
-0.000294339
-0.000293552
-0.000290873
-0.000288398
-0.000276659
-0.000273219
-0.000264668
-0.000247765
-0.000233658
-0.000220402
-0.000205507
-0.000179844
-0.000157214
-0.00013519
-0.000108635
-7.67022e-05
-4.57305e-05
-1.45973e-05
1.92394e-05
5.00576e-05
7.54862e-05
9.43549e-05
0.000106754
0.00010486
8.27826e-05
2.57383e-05
-7.93224e-05
-0.000144998
-0.000284411
-0.000586352
-0.00144826
-0.00139711
-0.00445374
0.000497194
-0.015065
0.0474542
0.046075
0.0122272
0.00689144
0.00336463
0.00977205
-0.00173908
0.00766991
0.0102641
0.0381799
-0.0216231
0.0298213
-0.0176799
0.0125041
-0.0107249
0.00576372
-0.00427729
0.00360852
-0.00424108
-0.00063539
-0.000418501
0.00166817
0.000700833
-0.000613049
-0.0010792
-0.0023286
-0.000121894
0.00184558
0.0050502
0.00300862
-0.00280553
-0.00797281
0.000772345
0.00455627
0.00675798
-0.000979493
0.0101181
-0.00143901
-0.00562724
-0.0145342
0.00213842
-0.00535297
0.00412339
0.00841012
-0.00253805
-0.00163177
-0.00763288
-0.00085028
-0.000548721
-0.00389143
-0.00621391
0.00204523
0.00018318
0.00521208
-0.000406744
0.001738
-0.000370279
0.00416682
-0.000648506
0.00418459
0.00124925
0.0031347
-0.000600586
0.00231254
-0.00155222
0.00220572
-0.00165018
0.00254125
-0.00237985
0.00381735
-0.00437142
0.00560076
-0.00709937
0.00582222
-0.00726232
-0.015281
0.00344317
-0.00110823
4.57623e-05
-0.00035418
-0.000240185
-0.000305862
-0.000288943
-0.000300318
-0.000297041
-0.000297782
-0.000294295
-0.00029311
-0.000283814
-0.000280142
-0.000273959
-0.000260324
-0.000246959
-0.000235482
-0.000223734
-0.000205129
-0.000181968
-0.000163931
-0.000142014
-0.000116986
-8.63968e-05
-6.06482e-05
-3.10151e-05
3.3313e-06
4.36503e-05
9.19274e-05
0.000160863
0.000245226
0.000366299
0.000463437
0.000632319
0.000770589
0.000968036
0.00173286
0.000968318
0.00392468
-0.00158247
0.0132645
-0.023679
0.104224
0.0329197
-0.01198
-0.000772546
-0.00554865
0.000447346
0.00206107
0.00595586
0.00268993
0.0120701
2.15713e-08
0.0307589
-0.0159514
0.0126295
-0.0120623
0.00105107
-0.00507678
0.00233597
-0.00350169
-0.00222248
-0.000237193
-0.00111434
0.000584738
0.000647084
0.000213674
0.00133547
0.0014269
0.00189888
0.00146676
-0.00290227
-0.00914043
-0.00472194
0.010133
0.00872726
-0.00813101
0.0141765
0.0100053
-0.00358173
-0.00480045
0.011324
-0.00946997
0.00722186
-0.00135104
-0.00111753
0.00342915
0.0019314
0.00343469
0.00186807
0.00271655
0.00254056
-0.0014053
-0.00185841
-0.00109841
-0.00111831
-0.00383577
-0.000849196
-0.00449947
8.90958e-05
-0.00244377
0.000660002
-0.00229627
9.90828e-05
-0.00283069
0.000472368
-0.00191098
0.00146895
-0.00137922
0.00150897
-0.00209166
0.00181664
-0.00399052
0.00472679
-0.00543923
0.00741955
-0.00707036
-0.015279
0.00343703
-0.00110909
4.49802e-05
-0.000355567
-0.000242668
-0.000308805
-0.000290561
-0.000304343
-0.000301753
-0.000302742
-0.000301151
-0.000303879
-0.000296142
-0.000290689
-0.000291271
-0.000284637
-0.000266077
-0.000263163
-0.000254678
-0.0002386
-0.000220081
-0.000205694
-0.000191347
-0.000173712
-0.000141885
-0.000123379
-0.000100647
-7.92489e-05
-5.48951e-05
-2.92795e-05
-7.44987e-06
1.08511e-05
2.41671e-05
4.89977e-05
8.77259e-05
5.60092e-05
7.66954e-06
-0.000126051
-5.25685e-05
0.000753267
-0.00013845
0.00610323
-0.00867565
0.0769413
0.0190565
-0.0061799
-0.000702967
-0.00521968
-0.00685831
-0.00776378
0.0100187
0.0148024
0.00994154
-0.0143588
0.0422839
0.00488165
0.012767
-0.00765723
0.00810999
-0.00682747
0.00411952
-0.00230444
-0.000765917
0.000551121
0.00033766
0.00295862
0.00136495
0.00165522
-0.000854462
-0.000606692
-0.00125695
0.00338265
0.00187102
-0.00396631
0.00698183
0.0167272
-0.0107727
0.00192408
0.0150511
-0.00405991
0.00140611
-0.00337188
-0.00896196
0.00398679
-0.00239552
-0.000343433
-0.00104033
-0.0017164
-0.0041604
-0.000826096
-0.00178598
-0.000878674
-0.0023639
0.00282759
-0.00108286
0.00570407
0.000668211
0.00690362
-0.00222708
0.00491147
0.000224848
0.00175333
0.000818571
0.000660822
0.00148029
0.000280716
0.00176629
-0.000519511
0.00125115
-0.000612146
0.00145615
-0.00139218
0.00241222
-0.0025939
0.00456312
-0.00609444
0.0059488
-0.00780107
-0.0152642
0.00342835
-0.00110868
4.30115e-05
-0.000358515
-0.000244477
-0.000310733
-0.000292794
-0.000305919
-0.000305663
-0.000307428
-0.00030446
-0.000310263
-0.000306343
-0.00030054
-0.00030015
-0.000299919
-0.000287062
-0.000279129
-0.000275055
-0.000267929
-0.000253248
-0.000238499
-0.000229293
-0.000219453
-0.000198797
-0.000174979
-0.000165559
-0.000145924
-0.000110024
-7.55999e-05
-2.36528e-05
1.55873e-05
6.0741e-05
8.47557e-05
0.000198204
0.000435545
0.00101364
0.00106619
0.00165807
0.00174628
0.00169803
0.00725055
-0.00163305
0.0738278
0.0184003
-0.000350702
-0.00224673
0.000192481
0.00150788
-0.00293699
-0.00955869
-0.00497426
0.000766215
0.0078308
0.00266074
0.0234245
-0.00493724
0.0144812
-0.0107805
0.00559036
-0.00439131
0.00370457
0.000883566
-0.000949222
0.00100364
0.000299085
0.0017068
0.00266419
0.00179362
-0.00183714
0.00427021
0.0153976
-0.00036749
0.000657979
0.00742254
-0.00252701
0.00473518
0.00275885
-0.00389112
-0.00168366
0.00817276
-0.000700061
0.00489794
-0.00177866
0.00386313
-0.00211042
0.00130313
0.0019394
0.00337064
0.00244091
0.00532196
0.000105157
-0.000176249
-0.000415532
-0.000557534
-0.00132756
-0.000665531
2.05301e-05
-0.000403682
0.00127506
0.00057663
0.00143236
-0.000514082
-6.2726e-05