/*--------------------------------*- C++ -*----------------------------------*\
| =========                 |                                                 |
| \\      /  F ield         | OpenFOAM: The Open Source CFD Toolbox           |
|  \\    /   O peration     | Version:  2.2.x                                 |
|   \\  /    A nd           | Web:      www.OpenFOAM.org                      |
|    \\/     M anipulation  |                                                 |
\*---------------------------------------------------------------------------*/
FoamFile
{
    version     2.0;
    format      ascii;
    class       volScalarField;
    location    "2.25";
    object      rho;
}
// * * * * * * * * * * * * * * * * * * * * * * * * * * * * * * * * * * * * * //

dimensions      [1 -3 0 0 0 0 0];

internalField   nonuniform List<scalar> 
14161
(
0.991869
0.99186
0.991801
0.991738
0.991614
0.991489
0.991348
0.991205
0.991065
0.990932
0.9908
0.990665
0.990555
0.990449
0.990355
0.990261
0.990216
0.990183
0.990151
0.990127
0.990136
0.990154
0.990193
0.990256
0.990347
0.99046
0.990602
0.990778
0.990936
0.991111
0.991259
0.991413
0.99164
0.991965
0.992203
0.992403
0.992565
0.992655
0.992759
0.992576
0.992742
0.991512
0.992522
0.98807
0.999519
1.03003
1.4985
2.75457
2.56694
2.41717
2.38369
2.42525
2.44571
2.46167
2.48165
2.49734
2.50689
2.50472
2.5001
2.49464
2.48092
2.46209
2.44475
2.43078
2.41859
2.4068
2.39588
2.3865
2.37806
2.37022
2.36215
2.3534
2.34346
2.33212
2.32037
2.30665
2.29098
2.27455
2.25727
2.24385
2.23472
2.23719
2.25167
2.28238
2.31214
2.33094
2.34157
2.34748
2.35542
2.36713
2.3868
2.41224
2.43537
2.44215
2.44221
2.43923
2.43455
2.44892
2.48208
2.52172
2.56748
2.63676
2.70058
2.77192
2.83028
2.88914
2.93285
2.97538
3.00652
3.04005
3.06405
3.08965
3.10633
3.12655
3.14163
3.16091
3.17651
3.18808
3.19732
0.991877
0.991854
0.991783
0.99172
0.991611
0.991495
0.991348
0.991192
0.991048
0.990917
0.990799
0.990665
0.990547
0.990437
0.990342
0.990249
0.990207
0.990177
0.990145
0.990118
0.990125
0.990146
0.990188
0.990249
0.990335
0.990449
0.990601
0.990769
0.990924
0.991076
0.991241
0.991405
0.99162
0.991915
0.992149
0.992336
0.992475
0.992545
0.992516
0.99251
0.992309
0.991683
0.991933
0.989486
0.994782
1.02057
1.64498
2.48695
2.48041
2.40744
2.39786
2.4328
2.44648
2.45207
2.45247
2.44649
2.44231
2.43044
2.41258
2.39488
2.37708
2.3588
2.34102
2.32518
2.3135
2.30264
2.29305
2.28617
2.28067
2.27566
2.27086
2.26515
2.25809
2.24934
2.23877
2.22627
2.21305
2.19887
2.18493
2.17383
2.16897
2.17087
2.18679
2.22127
2.26007
2.28764
2.30338
2.3126
2.32072
2.33376
2.35325
2.39916
2.45299
2.50921
2.56851
2.61933
2.65864
2.69862
2.74039
2.78257
2.81346
2.8467
2.87898
2.91276
2.94322
2.97312
2.99917
3.02631
3.04966
3.07387
3.09314
3.11466
3.13135
3.15244
3.16609
3.18595
3.19406
3.20254
3.20667
0.991886
0.991851
0.991785
0.991727
0.991603
0.991476
0.991335
0.991192
0.991059
0.990926
0.990789
0.990653
0.990543
0.990443
0.990346
0.990248
0.990203
0.99017
0.990137
0.990109
0.990116
0.990133
0.99017
0.990239
0.990321
0.990425
0.990593
0.99075
0.990914
0.99106
0.991215
0.991419
0.991645
0.991915
0.992204
0.992469
0.992691
0.992907
0.993092
0.993266
0.993364
0.993558
0.993396
0.99558
0.994859
1.11384
1.98761
2.47049
2.6005
2.58765
2.59201
2.61125
2.6128
2.60186
2.58499
2.55979
2.54648
2.52435
2.49447
2.46786
2.44355
2.41969
2.39435
2.37167
2.35641
2.34251
2.33084
2.32178
2.31361
2.3056
2.29643
2.28806
2.2788
2.26753
2.25569
2.24265
2.22772
2.21126
2.19426
2.18048
2.17322
2.17898
2.21069
2.25475
2.29183
2.31219
2.32514
2.33724
2.36132
2.40765
2.47973
2.5886
2.70596
2.78154
2.83716
2.87698
2.90906
2.93421
2.96619
2.98017
2.98927
2.99389
2.99769
3.00376
3.00979
3.02098
3.03185
3.04277
3.05445
3.06835
3.08274
3.09991
3.11592
3.13641
3.15588
3.17297
3.18331
3.18588
3.19982
0.991893
0.991848
0.991775
0.991716
0.991595
0.991474
0.991338
0.991193
0.991047
0.990904
0.990774
0.990646
0.990536
0.990431
0.990331
0.990234
0.990187
0.990157
0.990127
0.990096
0.990099
0.990118
0.990159
0.990225
0.990311
0.990417
0.990557
0.990726
0.990883
0.991057
0.991193
0.991355
0.991561
0.991813
0.992048
0.992274
0.99244
0.992564
0.992653
0.992727
0.992512
0.993001
0.991847
0.995408
0.98781
1.26673
2.19178
2.55432
2.68979
2.67304
2.65668
2.63613
2.60806
2.58707
2.55818
2.52747
2.50657
2.4843
2.45309
2.42436
2.40126
2.37921
2.35433
2.33231
2.31422
2.3003
2.29059
2.28134
2.27405
2.26756
2.26094
2.25307
2.24451
2.23439
2.22226
2.21059
2.19836
2.18502
2.17206
2.16383
2.16286
2.16915
2.18919
2.22729
2.27397
2.31804
2.35255
2.38978
2.442
2.52034
2.6136
2.7191
2.80512
2.86494
2.91336
2.95046
2.97851
2.98951
2.99795
3.0056
3.01067
3.01056
3.00894
3.0073
3.01046
3.01832
3.02819
3.03916
3.05105
3.06436
3.07801
3.09568
3.11273
3.13354
3.1493
3.16483
3.17166
3.17523
3.18682
0.991911
0.991852
0.99177
0.991712
0.991591
0.99147
0.991333
0.991188
0.991042
0.9909
0.990771
0.990643
0.990532
0.990424
0.990323
0.990229
0.99018
0.990149
0.990115
0.990078
0.990079
0.990098
0.990144
0.990205
0.99028
0.990396
0.990542
0.990713
0.990865
0.991005
0.991157
0.991342
0.9916
0.991881
0.992191
0.992543
0.99285
0.993184
0.993435
0.993982
0.994132
0.995918
0.994969
1.00048
0.987225
1.41681
2.30798
2.61224
2.72977
2.72248
2.68789
2.65306
2.61125
2.58283
2.55652
2.51746
2.48367
2.45876
2.42444
2.39105
2.35934
2.33896
2.31351
2.28916
2.27322
2.261
2.25074
2.24252
2.23594
2.22907
2.21989
2.20996
2.20145
2.19104
2.18175
2.17191
2.1589
2.14355
2.12578
2.118
2.11433
2.12248
2.16674
2.21666
2.27236
2.31454
2.34438
2.38395
2.46964
2.58144
2.67167
2.72956
2.79751
2.85547
2.90396
2.93565
2.95915
2.9738
2.99221
3.00503
3.01571
3.01862
3.01941
3.0136
3.01203
3.01479
3.02167
3.03123
3.04566
3.06128
3.07558
3.09444
3.11052
3.12901
3.14387
3.15819
3.16484
3.17235
3.17866
0.991915
0.991851
0.991761
0.991705
0.991585
0.991468
0.991329
0.99118
0.991029
0.990887
0.990757
0.990634
0.990525
0.990421
0.990316
0.990216
0.990164
0.990131
0.990095
0.990057
0.990057
0.990072
0.990109
0.990166
0.990253
0.990365
0.990499
0.990649
0.990817
0.990958
0.991088
0.991268
0.991485
0.991681
0.991903
0.992181
0.992404
0.992685
0.99282
0.993203
0.993021
0.994388
0.993345
0.997336
0.98179
1.48353
2.44544
2.62818
2.76583
2.75693
2.70624
2.6679
2.61585
2.57196
2.54727
2.50968
2.46703
2.42973
2.39985
2.37309
2.34089
2.31961
2.29587
2.27257
2.25669
2.24447
2.23226
2.22115
2.21289
2.20822
2.20351
2.19856
2.1916
2.18119
2.16957
2.15619
2.14313
2.12904
2.11855
2.1148
2.11622
2.11896
2.13796
2.18772
2.24073
2.31198
2.37872
2.44942
2.52385
2.60671
2.6562
2.69343
2.73901
2.76741
2.82998
2.88142
2.93538
2.95574
2.97429
2.98381
2.99307
2.99882
3.00645
3.00823
3.01111
3.01358
3.02121
3.03214
3.04742
3.06011
3.07393
3.09228
3.1073
3.12536
3.14057
3.15593
3.16335
3.17278
3.17792
0.991937
0.991858
0.991756
0.991703
0.991584
0.99146
0.991321
0.991174
0.991022
0.990884
0.990757
0.990634
0.99052
0.990409
0.9903
0.990199
0.990143
0.990108
0.990073
0.990036
0.990041
0.990054
0.990089
0.990146
0.99022
0.990325
0.990477
0.990627
0.990767
0.990887
0.99102
0.991242
0.99148
0.991728
0.992009
0.992434
0.992828
0.993308
0.993699
0.994437
0.994698
0.996752
0.996356
1.00017
0.976721
1.55125
2.43226
2.68489
2.74094
2.70578
2.65724
2.62405
2.58206
2.53781
2.51002
2.47496
2.44971
2.4224
2.38851
2.366
2.34009
2.31663
2.2974
2.27768
2.25902
2.24553
2.23901
2.22919
2.22084
2.21422
2.20654
2.20022
2.19543
2.18617
2.17822
2.17035
2.15921
2.14582
2.1298
2.11733
2.11464
2.12388
2.14161
2.20149
2.2713
2.33925
2.39933
2.4698
2.51689
2.56689
2.60192
2.63963
2.66504
2.69249
2.74634
2.79763
2.85673
2.89408
2.92898
2.95362
2.97529
2.98651
2.99658
2.9989
3.00282
3.00695
3.01596
3.02846
3.04465
3.05676
3.07028
3.08751
3.10392
3.12381
3.13971
3.15558
3.16323
3.17442
3.17966
0.99194
0.991859
0.991752
0.991697
0.991579
0.991455
0.991316
0.991167
0.991015
0.990874
0.990744
0.990619
0.990501
0.990393
0.990286
0.990188
0.990129
0.99009
0.990051
0.990008
0.990002
0.990015
0.990047
0.990098
0.990167
0.990266
0.990412
0.990568
0.990694
0.990791
0.990921
0.991139
0.991333
0.99148
0.991629
0.991899
0.992167
0.992466
0.992561
0.992877
0.992717
0.994502
0.993834
0.999287
0.98523
1.45721
2.32654
2.6786
2.73274
2.66717
2.61517
2.58494
2.54909
2.51341
2.49153
2.46339
2.44606
2.42488
2.39083
2.3708
2.34622
2.32408
2.30914
2.29082
2.2784
2.25778
2.2501
2.24078
2.23416
2.22902
2.22462
2.2198
2.21374
2.20591
2.19761
2.1862
2.17366
2.16019
2.14711
2.14216
2.14558
2.14341
2.15765
2.18204
2.25763
2.33847
2.41803
2.49789
2.52059
2.55078
2.55665
2.57147
2.58263
2.60538
2.64583
2.70195
2.76186
2.82312
2.87482
2.91056
2.93704
2.95579
2.97177
2.98135
2.99192
2.99799
3.00667
3.01861
3.036
3.051
3.06781
3.08544
3.10392
3.1242
3.14028
3.15681
3.16559
3.17822
3.18402
0.991961
0.991866
0.991747
0.991692
0.991574
0.99145
0.991313
0.991166
0.991012
0.990867
0.990731
0.990602
0.990485
0.990381
0.990277
0.990178
0.990113
0.99007
0.990028
0.989979
0.989969
0.989979
0.990006
0.990056
0.990117
0.990213
0.990359
0.990508
0.990622
0.990714
0.990848
0.991088
0.991324
0.991529
0.991727
0.99205
0.992517
0.99291
0.993292
0.993808
0.994052
0.995232
0.995101
0.998752
0.99291
1.21293
2.13414
2.58421
2.63425
2.53367
2.49393
2.475
2.45291
2.42465
2.41644
2.38881
2.37818
2.36435
2.33932
2.32642
2.28573
2.27939
2.26899
2.24629
2.23501
2.21661
2.21144
2.20009
2.19731
2.19363
2.18933
2.18463
2.17911
2.17269
2.16711
2.16207
2.15509
2.14553
2.12924
2.1193
2.1191
2.12085
2.14315
2.17435
2.26436
2.33689
2.41479
2.48048
2.50655
2.50921
2.5032
2.50781
2.51958
2.53504
2.56339
2.61306
2.66036
2.73366
2.80148
2.85623
2.89971
2.92873
2.95091
2.96382
2.97461
2.98289
2.99329
3.00589
3.02312
3.04096
3.06155
3.08218
3.10391
3.12509
3.14143
3.15918
3.16935
3.18439
3.1885
0.991966
0.991868
0.991745
0.99169
0.99157
0.991444
0.991304
0.991157
0.991004
0.99086
0.990723
0.990593
0.990472
0.990363
0.990254
0.990156
0.990086
0.99004
0.989994
0.989939
0.989921
0.989929
0.989952
0.989993
0.990054
0.99014
0.990281
0.990411
0.990517
0.990598
0.990708
0.990911
0.991071
0.991184
0.991292
0.991488
0.991649
0.991693
0.99155
0.991503
0.990973
0.990717
0.990064
0.990288
0.991581
1.04828
1.65734
2.52494
2.53648
2.45298
2.39461
2.38126
2.36344
2.34157
2.34442
2.3186
2.31914
2.31291
2.28934
2.27428
2.24311
2.23547
2.22306
2.20973
2.18749
2.17837
2.16812
2.16382
2.15346
2.15261
2.15023
2.14561
2.14181
2.13692
2.13153
2.12452
2.11534
2.10743
2.09602
2.08308
2.08516
2.0945
2.10711
2.15858
2.23448
2.32803
2.40203
2.43126
2.47168
2.47886
2.48992
2.47751
2.47784
2.48769
2.50861
2.53778
2.57119
2.62712
2.70503
2.786
2.85312
2.89167
2.92336
2.94063
2.95715
2.96634
2.9764
2.98762
3.00237
3.02254
3.04933
3.07626
3.10271
3.12521
3.14426
3.16341
3.17485
3.1917
3.19404
0.991983
0.991876
0.991744
0.991685
0.991564
0.991442
0.991299
0.99115
0.990999
0.990853
0.990713
0.990581
0.990456
0.990345
0.990233
0.990134
0.99006
0.990016
0.989968
0.989908
0.989877
0.989883
0.989903
0.989937
0.98999
0.990074
0.990194
0.990313
0.990408
0.990486
0.990617
0.990813
0.990987
0.991119
0.991311
0.991648
0.991987
0.992207
0.992368
0.992469
0.992535
0.99216
0.99235
0.990445
0.995198
1.01139
1.29945
2.3846
2.59344
2.50336
2.41056
2.36071
2.32235
2.30076
2.29726
2.2805
2.28421
2.27168
2.25806
2.22506
2.20935
2.19322
2.18658
2.16341
2.14908
2.13356
2.13097
2.12441
2.11944
2.11761
2.11528
2.11078
2.10689
2.10128
2.09521
2.08959
2.08163
2.07392
2.06371
2.0493
2.03947
2.05404
2.07562
2.12234
2.23673
2.32424
2.3488
2.38898
2.43752
2.46845
2.46641
2.46344
2.46322
2.46679
2.47501
2.48893
2.51507
2.55659
2.62571
2.70793
2.79187
2.85082
2.89474
2.91719
2.93791
2.94562
2.95356
2.96095
2.97354
2.99372
3.02702
3.06275
3.09783
3.1251
3.14545
3.16807
3.18238
3.20148
3.20168
0.991988
0.991879
0.991743
0.991683
0.99156
0.991432
0.991289
0.991143
0.99099
0.990841
0.990701
0.990568
0.990438
0.990324
0.990207
0.990104
0.990029
0.989978
0.989927
0.989864
0.989823
0.989817
0.989831
0.98986
0.989904
0.989977
0.990081
0.990177
0.990251
0.990318
0.990445
0.990592
0.990679
0.990744
0.99082
0.990983
0.991044
0.991037
0.990948
0.990756
0.990457
0.990013
0.990221
0.990144
0.993925
1.02461
1.38337
2.4002
2.51857
2.44742
2.35838
2.31261
2.27973
2.2549
2.25185
2.25218
2.24056
2.24518
2.22416
2.2057
2.17265
2.17446
2.16072
2.15141
2.11764
2.11846
2.11851
2.11166
2.10538
2.10364
2.10176
2.0977
2.09295
2.08729
2.08071
2.07361
2.06348
2.05292
2.04232
2.02375
2.01269
2.01125
2.0556
2.11139
2.23786
2.30055
2.34603
2.36193
2.38296
2.38902
2.4115
2.43434
2.43155
2.43989
2.44888
2.45994
2.47532
2.49612
2.53964
2.6131
2.69896
2.7917
2.85737
2.89197
2.92408
2.9367
2.94572
2.95181
2.96069
2.97634
3.00444
3.04356
3.08574
3.12131
3.14926
3.17506
3.18982
3.20811
3.21212
0.992002
0.991885
0.991742
0.991679
0.991553
0.991426
0.991283
0.991136
0.990983
0.990832
0.990688
0.990553
0.990423
0.990307
0.990186
0.990079
0.989999
0.989942
0.989885
0.98982
0.98977
0.989752
0.989761
0.989781
0.989822
0.98989
0.989973
0.990041
0.990091
0.99017
0.990316
0.990448
0.990542
0.990646
0.990829
0.991132
0.99134
0.991559
0.991795
0.992083
0.992432
0.993006
0.994051
0.995754
1.00034
1.02593
1.63326
2.29687
2.38934
2.40043
2.36643
2.3346
2.30227
2.26706
2.2656
2.26325
2.25065
2.25756
2.23454
2.21433
2.17936
2.18059
2.16827
2.15782
2.12158
2.12589
2.11667
2.11344
2.11206
2.10926
2.10634
2.10291
2.098
2.09258
2.08641
2.07913
2.07039
2.05772
2.04419
2.02142
2.01175
2.00796
2.05302
2.16014
2.27744
2.29883
2.30462
2.35017
2.37106
2.34806
2.35745
2.39809
2.42199
2.41981
2.41627
2.42317
2.44379
2.46769
2.49891
2.55451
2.62476
2.7247
2.81641
2.86756
2.90921
2.92077
2.92968
2.93558
2.94398
2.95745
2.97876
3.01396
3.05866
3.10621
3.14528
3.18132
3.1991
3.20952
3.21603
0.992007
0.991889
0.991742
0.991677
0.991549
0.99142
0.991275
0.991126
0.990972
0.990821
0.990674
0.990536
0.990402
0.990282
0.99016
0.990048
0.989962
0.989896
0.989832
0.98976
0.9897
0.989672
0.989671
0.989685
0.989713
0.98977
0.989829
0.989874
0.989901
0.989971
0.9901
0.990183
0.990223
0.990255
0.990318
0.990438
0.99045
0.990395
0.990245
0.990243
0.99001
0.990008
0.989243
0.989899
0.994493
1.05935
1.80449
2.14228
2.25805
2.38621
2.38641
2.36953
2.3444
2.30587
2.29773
2.28361
2.28362
2.26818
2.25681
2.21331
2.1935
2.17544
2.17976
2.15773
2.13373
2.12599
2.12579
2.12412
2.11733
2.11613
2.11504
2.11081
2.10605
2.09944
2.09223
2.08371
2.07102
2.05927
2.03909
2.01205
2.00705
2.0268
2.08684
2.22321
2.30132
2.33312
2.29617
2.29276
2.33393
2.3595
2.36013
2.36293
2.37353
2.38763
2.4074
2.42747
2.44895
2.46672
2.48401
2.51561
2.5688
2.65101
2.75117
2.82928
2.89167
2.91308
2.92591
2.92796
2.93068
2.93612
2.94879
2.9783
3.02516
3.08234
3.13869
3.1787
3.20634
3.21075
3.21823
0.992015
0.991892
0.991741
0.991673
0.991543
0.991413
0.991266
0.991116
0.990961
0.990808
0.990659
0.99052
0.990383
0.990258
0.990133
0.990018
0.989926
0.989853
0.989781
0.989703
0.989633
0.989593
0.989584
0.98959
0.989604
0.989634
0.989682
0.989714
0.989729
0.989778
0.989896
0.989985
0.990043
0.990131
0.990297
0.990527
0.990689
0.990875
0.991047
0.991499
0.991667
0.992408
0.991869
0.994441
1.00184
1.24735
1.92802
2.04505
2.11362
2.22126
2.30058
2.36544
2.35491
2.33729
2.31756
2.29617
2.29325
2.27032
2.26183
2.21294
2.19795
2.18056
2.18523
2.15552
2.13658
2.13068
2.13204
2.12633
2.12405
2.12057
2.11842
2.11397
2.10854
2.10187
2.0938
2.08401
2.07129
2.05566
2.03695
2.01009
2.00629
2.058
2.19545
2.2756
2.3069
2.37908
2.36599
2.29918
2.29029
2.32264
2.35439
2.36023
2.34176
2.36595
2.40433
2.42137
2.42664
2.42938
2.44391
2.46809
2.51526
2.58349
2.68374
2.78895
2.86698
2.89992
2.91827
2.9234
2.92912
2.93269
2.93849
2.95621
2.99259
3.05171
3.12188
3.17305
3.20512
3.2094
3.21917
0.992018
0.991895
0.991741
0.991671
0.991538
0.991405
0.991257
0.991106
0.990948
0.990793
0.990643
0.990501
0.990362
0.990229
0.990099
0.989979
0.989879
0.989797
0.989717
0.989634
0.989553
0.9895
0.989473
0.989469
0.989466
0.989473
0.989499
0.989518
0.98952
0.989541
0.989615
0.989669
0.989696
0.989716
0.989771
0.989833
0.98983
0.989828
0.989824
0.989919
0.989912
0.990322
0.990002
0.993197
1.00991
1.53458
1.95837
2.01178
2.04154
2.09133
2.1967
2.3104
2.3754
2.37129
2.33254
2.33034
2.31615
2.29946
2.28239
2.24031
2.22416
2.20813
2.20572
2.17356
2.15759
2.15127
2.15242
2.14468
2.1431
2.13866
2.13312
2.12749
2.12118
2.11301
2.10338
2.09145
2.07797
2.06069
2.03745
2.00807
2.027
2.14758
2.30159
2.32449
2.31502
2.33305
2.34194
2.32654
2.31036
2.30372
2.32232
2.33144
2.33015
2.35059
2.37893
2.39031
2.39708
2.40391
2.42067
2.43823
2.47882
2.5404
2.62995
2.73581
2.8407
2.88354
2.90988
2.91782
2.9235
2.92645
2.92773
2.93712
2.96146
3.01756
3.09477
3.15791
3.19953
3.20532
3.21557
0.992023
0.991896
0.991739
0.991666
0.991531
0.991398
0.991248
0.991094
0.990936
0.990779
0.990626
0.990482
0.99034
0.990201
0.990067
0.989944
0.989833
0.989742
0.989653
0.989564
0.989476
0.989407
0.989364
0.989342
0.989321
0.98931
0.989308
0.989311
0.98931
0.989314
0.98936
0.989425
0.989473
0.989524
0.989624
0.989784
0.989958
0.990084
0.990313
0.990487
0.990822
0.990834
0.991423
0.995093
1.02452
1.76925
2.01127
2.0294
2.038
2.05031
2.0899
2.18908
2.30045
2.32602
2.33796
2.33791
2.33139
2.32285
2.29401
2.27062
2.2358
2.22401
2.20419
2.18831
2.16589
2.16233
2.15469
2.15291
2.14854
2.14454
2.13868
2.13424
2.12769
2.11915
2.11004
2.09687
2.07937
2.05838
2.03476
2.03526
2.11594
2.27569
2.33459
2.40196
2.3927
2.31826
2.28729
2.30753
2.32498
2.32314
2.31298
2.31002
2.33034
2.35515
2.3652
2.37051
2.37808
2.39084
2.40599
2.42283
2.45238
2.49916
2.56894
2.66603
2.78462
2.8514
2.8933
2.90886
2.91904
2.92064
2.91901
2.92162
2.93833
2.98435
3.05799
3.13452
3.18967
3.19844
3.21162
0.992023
0.991897
0.991738
0.991663
0.991524
0.991388
0.991237
0.991082
0.990922
0.990764
0.990607
0.990456
0.990312
0.99017
0.990029
0.989903
0.989783
0.989677
0.989577
0.989478
0.989383
0.989298
0.989235
0.989192
0.989155
0.989121
0.989095
0.989071
0.989052
0.989037
0.989039
0.98906
0.989071
0.989072
0.989065
0.989037
0.989043
0.988941
0.988915
0.988533
0.988695
0.987171
0.988715
0.994172
1.1279
1.9253
2.05306
2.05586
2.05103
2.05148
2.05454
2.0925
2.16937
2.26495
2.31373
2.36559
2.36417
2.34461
2.32193
2.27462
2.25445
2.22373
2.21053
2.17623
2.16876
2.1631
2.16004
2.15321
2.15071
2.14429
2.1403
2.13641
2.13019
2.12218
2.11071
2.0946
2.0796
2.05999
2.06484
2.13003
2.27305
2.39342
2.32008
2.31836
2.36092
2.35068
2.30827
2.2942
2.31024
2.31588
2.3094
2.30572
2.32422
2.33934
2.34406
2.35598
2.37408
2.38933
2.39681
2.41331
2.43444
2.47434
2.53265
2.6219
2.7278
2.81043
2.87126
2.89638
2.9121
2.91341
2.91108
2.90935
2.91735
2.95108
3.01691
3.10174
3.17152
3.18446
3.20195
0.992025
0.991896
0.991735
0.991658
0.991515
0.991379
0.991225
0.991068
0.990908
0.990749
0.990589
0.990432
0.990285
0.99014
0.989991
0.989857
0.989733
0.989609
0.989498
0.989392
0.989288
0.989188
0.989102
0.989038
0.988983
0.98893
0.988879
0.988833
0.988792
0.988763
0.98874
0.988748
0.98878
0.98883
0.988894
0.988969
0.98912
0.989197
0.989535
0.989509
0.990313
0.989324
0.992291
0.998702
1.39259
2.01238
2.0411
2.04194
2.0381
2.03892
2.0428
2.05568
2.08925
2.15215
2.25947
2.37454
2.37058
2.35774
2.34682
2.29826
2.27501
2.2366
2.22073
2.17764
2.17717
2.17092
2.16321
2.15871
2.15737
2.15136
2.14433
2.13615
2.12984
2.12279
2.1109
2.09914
2.0998
2.1053
2.18538
2.31388
2.35298
2.42877
2.42328
2.33914
2.33386
2.34817
2.33211
2.30759
2.31212
2.30827
2.30114
2.30574
2.32151
2.32403
2.32965
2.34391
2.36685
2.37699
2.38398
2.39857
2.41816
2.44893
2.49588
2.57056
2.67304
2.77439
2.84866
2.88295
2.90215
2.90445
2.90307
2.90064
2.90509
2.92785
2.98089
3.06528
3.15048
3.17153
3.19745
0.99202
0.991893
0.991732
0.991653
0.991508
0.991369
0.991214
0.991054
0.990891
0.990731
0.990569
0.990404
0.990251
0.990107
0.989949
0.989798
0.989669
0.989541
0.989407
0.989287
0.989175
0.989059
0.988947
0.98886
0.988789
0.988721
0.988647
0.988565
0.988505
0.988446
0.988384
0.988332
0.988309
0.988305
0.988309
0.988312
0.988322
0.988285
0.988315
0.988242
0.988759
0.988322
0.991322
1.00654
1.65941
2.06485
2.07683
2.07001
2.05877
2.05269
2.05346
2.05745
2.06701
2.0854
2.14591
2.26131
2.32465
2.35727
2.35725
2.31508
2.28712
2.24024
2.22586
2.19291
2.18683
2.17558
2.17197
2.16995
2.16926
2.16264
2.15561
2.14811
2.15156
2.15462
2.15153
2.16539
2.23379
2.31357
2.41005
2.5105
2.4299
2.38774
2.39114
2.36555
2.32533
2.32997
2.33307
2.3219
2.31028
2.30216
2.29383
2.30492
2.31862
2.318
2.32335
2.34199
2.35563
2.3645
2.37972
2.39384
2.41493
2.43565
2.47488
2.53987
2.63379
2.73561
2.82433
2.86796
2.89357
2.89893
2.8984
2.89463
2.89507
2.9081
2.94745
3.02665
3.1238
3.15452
3.18782
0.992019
0.991889
0.991726
0.991646
0.991499
0.991359
0.991201
0.99104
0.990875
0.990711
0.990548
0.990378
0.990216
0.990069
0.989909
0.989745
0.989601
0.989468
0.989321
0.989179
0.989055
0.988931
0.988791
0.988674
0.988581
0.988498
0.988407
0.98829
0.988198
0.988126
0.988054
0.987962
0.987906
0.987903
0.987916
0.98796
0.988057
0.988218
0.98822
0.988469
0.988651
0.988962
0.991961
1.01941
1.85601
2.11685
2.12977
2.12193
2.11206
2.10112
2.08654
2.07109
2.06292
2.05957
2.07421
2.12895
2.22026
2.27524
2.30624
2.31174
2.2809
2.2536
2.21453
2.20838
2.18278
2.17702
2.17348
2.18147
2.18642
2.18847
2.19141
2.20291
2.25795
2.30941
2.37056
2.46131
2.54836
2.63212
2.5807
2.54681
2.50727
2.42037
2.38806
2.36767
2.33894
2.32485
2.32071
2.31074
2.31079
2.31008
2.30434
2.31078
2.3179
2.31872
2.31831
2.33189
2.34376
2.35536
2.37098
2.3834
2.40083
2.42116
2.45364
2.50839
2.59273
2.69124
2.79361
2.84784
2.8825
2.89249
2.89287
2.88814
2.88398
2.89102
2.92194
2.99372
3.09569
3.13953
3.18157
0.992008
0.991881
0.99172
0.991639
0.99149
0.991347
0.991187
0.991024
0.990857
0.990689
0.990527
0.990351
0.990176
0.990022
0.989862
0.989685
0.989525
0.989382
0.989228
0.989061
0.988919
0.988786
0.988631
0.988475
0.988357
0.988253
0.988139
0.987998
0.987859
0.987758
0.987666
0.987547
0.987401
0.987333
0.987275
0.987256
0.98722
0.987232
0.986802
0.986807
0.985543
0.986332
0.990441
1.09829
1.97848
2.13938
2.15957
2.15345
2.14223
2.1295
2.11357
2.09548
2.07716
2.0631
2.05118
2.06926
2.10932
2.2044
2.26547
2.27229
2.29091
2.23926
2.22864
2.22265
2.22002
2.20946
2.23514
2.2906
2.3403
2.39084
2.45134
2.51742
2.59024
2.67022
2.71474
2.7573
2.72748
2.68344
2.63417
2.57715
2.53771
2.47331
2.41863
2.38704
2.35327
2.32552
2.31438
2.31045
2.31428
2.32015
2.31751
2.31992
2.31965
2.31844
2.32041
2.3294
2.33826
2.35091
2.36541
2.38119
2.39249
2.41134
2.43868
2.48608
2.56248
2.65863
2.76215
2.82805
2.87235
2.88849
2.89013
2.88521
2.87676
2.87916
2.90205
2.96233
3.06332
3.11862
3.16864
0.992004
0.991874
0.991711
0.99163
0.991479
0.991334
0.991172
0.991007
0.990837
0.990666
0.990501
0.990326
0.990139
0.989973
0.989811
0.989626
0.989448
0.989292
0.98913
0.988947
0.988776
0.988626
0.988468
0.988281
0.988128
0.988002
0.98787
0.987701
0.987505
0.987371
0.987254
0.987133
0.986939
0.986804
0.986652
0.986615
0.986471
0.986533
0.986142
0.986438
0.985248
0.987401
0.992158
1.29185
2.08157
2.12938
2.13978
2.14063
2.13528
2.12523
2.11395
2.10794
2.09719
2.08248
2.06227
2.04384
2.05065
2.11683
2.2081
2.30044
2.32017
2.28755
2.3581
2.38528
2.41997
2.48797
2.54769
2.63043
2.70335
2.76156
2.80439
2.83588
2.83363
2.84866
2.83354
2.81352
2.77302
2.72157
2.66839
2.61439
2.57385
2.52272
2.46533
2.43232
2.39542
2.3576
2.33283
2.32107
2.31749
2.31972
2.31803
2.31739
2.31765
2.31968
2.32485
2.33063
2.33868
2.34927
2.36088
2.37649
2.3889
2.4061
2.42962
2.47016
2.53608
2.62788
2.72931
2.8065
2.86054
2.88272
2.88568
2.88052
2.86817
2.86542
2.88212
2.93165
3.0301
3.09729
3.15787
0.991988
0.991863
0.991701
0.991619
0.991468
0.99132
0.991156
0.990989
0.990817
0.990639
0.99047
0.990298
0.990102
0.989918
0.989751
0.989565
0.989364
0.989193
0.989026
0.988824
0.988624
0.988455
0.988284
0.988071
0.987872
0.987723
0.987585
0.987406
0.987151
0.986956
0.986803
0.986674
0.986485
0.986276
0.986073
0.986047
0.986017
0.986148
0.986033
0.986695
0.986059
0.989493
1.0011
1.53857
2.0803
2.11336
2.11674
2.12467
2.12648
2.12396
2.11592
2.10972
2.10798
2.10268
2.08414
2.06648
2.07091
2.10641
2.21611
2.35107
2.47103
2.54152
2.6219
2.69727
2.76439
2.79828
2.82167
2.84294
2.86688
2.87583
2.87295
2.86681
2.84461
2.84474
2.83399
2.81646
2.79095
2.75543
2.71271
2.66698
2.62774
2.58537
2.53305
2.47847
2.41966
2.37377
2.34897
2.34091
2.3348
2.33134
2.32723
2.32382
2.32349
2.3251
2.32744
2.33109
2.336
2.34338
2.35627
2.37031
2.38915
2.40819
2.43126
2.46373
2.51798
2.60386
2.69958
2.78424
2.84624
2.87497
2.88056
2.87556
2.86194
2.85431
2.86769
2.90769
2.9988
3.07567
3.14522
0.99198
0.991851
0.991688
0.991608
0.991455
0.991305
0.991138
0.990971
0.990797
0.99061
0.990436
0.990267
0.990068
0.989867
0.989689
0.9895
0.989285
0.989089
0.988913
0.988705
0.988473
0.988281
0.988095
0.987868
0.98762
0.98743
0.987273
0.987092
0.986818
0.986526
0.986334
0.986171
0.985988
0.985716
0.985395
0.98523
0.985205
0.98518
0.985358
0.985372
0.985637
0.989557
1.01986
1.74562
2.07728
2.1089
2.11321
2.11559
2.11547
2.11507
2.11622
2.1205
2.12371
2.12336
2.11935
2.12303
2.16362
2.25349
2.43189
2.68189
2.747
2.80766
2.8292
2.84918
2.86174
2.86012
2.8611
2.85537
2.85991
2.85546
2.85021
2.84596
2.83366
2.8299
2.82292
2.81274
2.79895
2.77887
2.75055
2.71611
2.6795
2.63898
2.58998
2.53527
2.47704
2.42823
2.39276
2.36518
2.34451
2.3322
2.32659
2.32328
2.32554
2.32886
2.33232
2.33281
2.33459
2.34011
2.34946
2.36126
2.38005
2.39833
2.42008
2.44797
2.49591
2.5755
2.67145
2.76219
2.82968
2.86417
2.87278
2.86851
2.85551
2.84308
2.8528
2.88526
2.9703
3.05379
3.13142
0.991958
0.991835
0.991673
0.991594
0.991442
0.991289
0.991118
0.990949
0.990779
0.990583
0.990394
0.990226
0.990032
0.989814
0.989619
0.98943
0.989205
0.988979
0.988785
0.988577
0.988316
0.988084
0.987887
0.98766
0.987362
0.987115
0.986929
0.986746
0.986488
0.986113
0.985847
0.985651
0.985479
0.985218
0.984739
0.984241
0.984049
0.983635
0.983586
0.982364
0.983641
0.990012
1.11262
1.91495
2.07509
2.10205
2.10943
2.1079
2.10484
2.10405
2.10654
2.11127
2.11673
2.12326
2.13863
2.18891
2.29587
2.49903
2.72394
2.82421
2.83666
2.83325
2.84221
2.8395
2.84619
2.8409
2.84154
2.83686
2.83516
2.8338
2.83377
2.83512
2.82997
2.82542
2.81933
2.8111
2.8007
2.78844
2.77117
2.74714
2.71644
2.68102
2.6394
2.59038
2.53405
2.47461
2.42197
2.37955
2.35755
2.34798
2.34232
2.33736
2.33412
2.32901
2.32995
2.33008
2.33086
2.33401
2.3384
2.3516
2.36628
2.38432
2.40493
2.43276
2.47894
2.55371
2.64951
2.74203
2.81187
2.85147
2.86411
2.86105
2.84958
2.83356
2.84022
2.86364
2.94261
3.03161
3.11811
0.991943
0.991819
0.991656
0.991578
0.991426
0.991273
0.991099
0.990925
0.990757
0.990562
0.990357
0.990181
0.989992
0.989762
0.989548
0.989353
0.989127
0.988874
0.988656
0.988437
0.988168
0.987892
0.987668
0.987439
0.987128
0.986804
0.986571
0.986371
0.986128
0.985722
0.98532
0.985055
0.984861
0.98457
0.984124
0.983505
0.983426
0.983345
0.983726
0.983298
0.986777
0.997595
1.42642
2.00987
2.04976
2.05815
2.06622
2.07507
2.07884
2.08259
2.09065
2.10112
2.11449
2.13546
2.1946
2.3314
2.5502
2.7653
2.85229
2.84287
2.82574
2.82346
2.81917
2.81594
2.81409
2.80796
2.80892
2.80665
2.80767
2.81056
2.80965
2.81337
2.81468
2.81415
2.81126
2.80663
2.79979
2.79035
2.77963
2.76475
2.74373
2.71561
2.68157
2.64006
2.58604
2.52854
2.46946
2.41755
2.38425
2.36558
2.35143
2.34079
2.33562
2.33327
2.33324
2.3323
2.33135
2.33162
2.33574
2.34584
2.35844
2.37514
2.39537
2.42422
2.46782
2.53558
2.63185
2.72335
2.79289
2.83636
2.85414
2.85304
2.84316
2.82446
2.82742
2.8426
2.91661
3.00918
3.10293
0.991917
0.991798
0.991637
0.99156
0.991408
0.991255
0.991079
0.990898
0.990727
0.990537
0.99032
0.990128
0.989946
0.989712
0.989472
0.989266
0.989045
0.988769
0.988512
0.988286
0.988015
0.987694
0.987431
0.987198
0.986898
0.986497
0.986194
0.985968
0.985741
0.985405
0.984896
0.984548
0.9843
0.984084
0.983723
0.983238
0.982776
0.982509
0.982474
0.982925
0.987357
1.02563
1.73562
2.04127
2.06281
2.06711
2.06833
2.06988
2.07308
2.07781
2.08951
2.10903
2.13471
2.20406
2.3737
2.60726
2.79603
2.84787
2.83455
2.81474
2.80996
2.8048
2.79932
2.7963
2.79342
2.78956
2.78742
2.78573
2.7864
2.78616
2.78622
2.78754
2.79197
2.79284
2.79522
2.79354
2.79059
2.78629
2.77941
2.76919
2.7563
2.73863
2.7133
2.67951
2.63646
2.58213
2.52112
2.45634
2.4063
2.37473
2.35807
2.34776
2.3415
2.33709
2.33307
2.33043
2.32863
2.32819
2.33163
2.33874
2.35021
2.36593
2.38608
2.41552
2.45727
2.51951
2.61261
2.70319
2.7724
2.81884
2.84227
2.8436
2.83528
2.81471
2.81363
2.82279
2.89245
2.98756
3.08932
0.991896
0.991776
0.991615
0.99154
0.991389
0.991237
0.991059
0.990872
0.990695
0.990511
0.99029
0.990079
0.989889
0.989665
0.989402
0.989174
0.988954
0.988676
0.988379
0.98813
0.987862
0.987516
0.987204
0.986945
0.98666
0.986236
0.985831
0.985549
0.985324
0.985044
0.984548
0.983991
0.983621
0.983333
0.982881
0.982268
0.981285
0.980896
0.979723
0.981238
0.989886
1.15264
1.92265
2.0539
2.07389
2.07779
2.07522
2.07347
2.07374
2.07865
2.09916
2.13826
2.21781
2.4049
2.65742
2.80518
2.83266
2.83136
2.80009
2.79073
2.79242
2.78565
2.77988
2.77895
2.77762
2.77452
2.77223
2.76986
2.76839
2.76783
2.76731
2.76641
2.76713
2.76278
2.76872
2.77134
2.77528
2.77505
2.77263
2.76763
2.75906
2.74764
2.73088
2.70702
2.67397
2.63137
2.57266
2.50556
2.4443
2.40296
2.37646
2.36094
2.34853
2.34046
2.33676
2.33373
2.33119
2.33041
2.33357
2.33696
2.34444
2.35772
2.37798
2.40623
2.44611
2.50502
2.59275
2.68266
2.7516
2.80044
2.82946
2.83375
2.82643
2.80483
2.79899
2.80317
2.8683
2.9637
3.07045
0.991865
0.99175
0.991593
0.991518
0.991367
0.991216
0.991039
0.990846
0.990656
0.990479
0.990261
0.990029
0.989828
0.989612
0.989335
0.989077
0.988851
0.988582
0.988248
0.987961
0.987692
0.987341
0.986971
0.986679
0.986395
0.985975
0.985473
0.985125
0.984874
0.984653
0.984281
0.983651
0.983212
0.982947
0.982667
0.982456
0.982055
0.981956
0.982108
0.985801
1.00358
1.50525
1.99113
2.04009
2.05217
2.05875
2.06431
2.06475
2.06743
2.0848
2.13967
2.25447
2.44536
2.68628
2.81741
2.80179
2.80266
2.79545
2.76787
2.76441
2.76827
2.76315
2.75853
2.75907
2.75993
2.75829
2.75628
2.75383
2.75208
2.7504
2.74877