/*--------------------------------*- C++ -*----------------------------------*\
| =========                 |                                                 |
| \\      /  F ield         | OpenFOAM: The Open Source CFD Toolbox           |
|  \\    /   O peration     | Version:  2.2.x                                 |
|   \\  /    A nd           | Web:      www.OpenFOAM.org                      |
|    \\/     M anipulation  |                                                 |
\*---------------------------------------------------------------------------*/
FoamFile
{
    version     2.0;
    format      ascii;
    class       volVectorField;
    location    "2.25";
    object      U;
}
// * * * * * * * * * * * * * * * * * * * * * * * * * * * * * * * * * * * * * //

dimensions      [0 1 -1 0 0 0 0];

internalField   nonuniform List<vector> 
14161
(
(1.51231 8.39713e-06 -1.62116e-22)
(1.51239 -1.70824e-05 -4.19987e-22)
(1.51248 6.60031e-07 -2.60251e-22)
(1.51258 6.38493e-07 -1.36784e-22)
(1.51277 2.03108e-06 6.62856e-22)
(1.51296 2.41353e-06 -1.50577e-21)
(1.51319 9.80952e-07 1.86168e-21)
(1.51342 2.48875e-08 -7.41289e-23)
(1.51365 -1.04237e-06 1.25595e-21)
(1.51387 -1.39818e-06 2.74758e-22)
(1.51408 2.52506e-06 1.05205e-22)
(1.51429 -8.60679e-08 6.87031e-22)
(1.51447 -4.72845e-07 -4.99759e-22)
(1.51464 7.39984e-08 1.25303e-21)
(1.51479 2.28906e-07 7.60111e-22)
(1.51494 -1.80882e-07 8.38338e-22)
(1.51502 -1.13283e-06 3.58258e-22)
(1.51509 1.49095e-07 3.81679e-22)
(1.51513 -1.87541e-07 5.55944e-22)
(1.51516 -2.38252e-07 -3.82657e-23)
(1.51515 1.09329e-06 -8.51093e-23)
(1.5151 1.45849e-06 2.7027e-22)
(1.51503 2.52361e-06 1.12753e-22)
(1.51494 1.33804e-06 1.49293e-22)
(1.51481 2.90832e-06 -1.55737e-22)
(1.51463 4.76146e-06 8.62101e-23)
(1.51445 9.24623e-06 1.37589e-22)
(1.51417 2.99848e-06 2.32048e-22)
(1.51392 5.72842e-06 3.4676e-22)
(1.51364 -8.35995e-07 3.22455e-22)
(1.51335 -4.76497e-06 6.91519e-22)
(1.51307 3.38314e-06 7.07884e-22)
(1.51277 6.53299e-06 7.72712e-22)
(1.51237 1.78664e-05 9.3461e-22)
(1.51198 1.84137e-05 1.06578e-21)
(1.51166 6.2343e-06 1.0959e-21)
(1.51141 1.08214e-05 1.24577e-21)
(1.51131 -1.08137e-05 1.22457e-21)
(1.51124 -3.08443e-05 1.65753e-21)
(1.51169 -5.61474e-05 3.06411e-22)
(1.51178 -0.00018157 1.82895e-21)
(1.51454 -0.000424633 -7.86005e-21)
(1.51426 -0.000867893 1.49656e-20)
(1.52579 -0.00305336 1.11904e-19)
(1.5224 -0.0124803 5.5403e-19)
(1.56635 -0.103379 3.56599e-18)
(1.5976 -0.289695 1.25043e-17)
(0.866889 -0.0994869 1.12447e-17)
(0.908244 -0.00804105 8.24398e-18)
(0.943996 0.0040351 6.60923e-18)
(0.951095 0.00463609 5.07922e-18)
(0.927587 0.00736903 4.4497e-18)
(0.912245 0.00855858 3.65358e-18)
(0.898431 0.00987279 2.72062e-18)
(0.884853 0.00943247 2.03294e-18)
(0.874185 0.00756303 1.68647e-18)
(0.865012 0.00588192 1.46626e-18)
(0.858339 0.00587605 1.15244e-18)
(0.856641 0.00473689 9.8634e-19)
(0.856127 0.00290011 9.13798e-19)
(0.857295 0.00188515 8.50865e-19)
(0.859692 0.00124859 7.72379e-19)
(0.863311 0.00145674 7.13551e-19)
(0.866984 0.00124599 6.69245e-19)
(0.870063 0.000781508 6.31329e-19)
(0.872387 0.000608804 5.9401e-19)
(0.874231 0.000657134 5.64911e-19)
(0.875764 0.00061141 5.40071e-19)
(0.877255 0.000560039 5.16359e-19)
(0.878645 0.000377733 4.92604e-19)
(0.880137 0.000312655 4.81372e-19)
(0.881995 0.000111322 4.66212e-19)
(0.884425 -0.000155932 4.42967e-19)
(0.88729 -0.000349164 4.21255e-19)
(0.890411 -0.000408136 3.94015e-19)
(0.8947 -0.000328865 3.90451e-19)
(0.899978 -0.000221763 3.20889e-19)
(0.905506 -0.000404217 3.48753e-19)
(0.911356 -0.000128928 2.57704e-19)
(0.915797 -0.000501874 1.95373e-19)
(0.918548 -0.000122871 4.9146e-20)
(0.91589 0.000298499 3.55577e-20)
(0.907919 0.000330306 -2.96683e-19)
(0.894237 0.00124383 -6.57291e-19)
(0.881389 0.00219534 -1.01519e-18)
(0.871806 0.00238209 -1.45375e-18)
(0.864754 0.0017995 -1.89118e-18)
(0.860128 0.00139499 -2.42791e-18)
(0.856311 0.00135642 -3.04553e-18)
(0.849501 0.00152118 -3.52273e-18)
(0.838094 0.00149357 -3.94399e-18)
(0.828171 0.00148049 -3.99504e-18)
(0.820717 0.000241485 -3.96498e-18)
(0.817314 0.000334932 -3.93382e-18)
(0.816859 0.000160745 -3.94228e-18)
(0.816733 -0.000614972 -4.05034e-18)
(0.815971 0.000341558 -4.14987e-18)
(0.806051 0.00506743 -4.49625e-18)
(0.783314 0.012795 -4.93056e-18)
(0.753707 0.0203488 -5.38064e-18)
(0.719082 0.0274523 -6.02079e-18)
(0.674207 0.0311681 -6.51104e-18)
(0.630271 0.0353725 -7.21221e-18)
(0.580657 0.0360941 -6.87193e-18)
(0.533095 0.0375493 -7.21271e-18)
(0.485658 0.0351805 -6.38892e-18)
(0.441489 0.0352763 -6.22594e-18)
(0.399479 0.0331721 -5.58124e-18)
(0.36021 0.0339718 -5.44919e-18)
(0.32231 0.0322331 -4.4144e-18)
(0.286044 0.0331598 -4.49373e-18)
(0.250811 0.031343 -3.35471e-18)
(0.216727 0.0324702 -3.65114e-18)
(0.183136 0.0307142 -1.97036e-18)
(0.150205 0.0309166 -2.11795e-18)
(0.117416 0.0294048 -2.47124e-19)
(0.0850679 0.0264752 1.85921e-18)
(0.0516114 0.0257716 -2.74109e-19)
(0.0191058 0.0264444 -9.11296e-19)
(1.51229 3.97552e-08 6.6625e-22)
(1.51238 -1.4722e-05 2.73986e-21)
(1.51249 2.64779e-06 3.19116e-21)
(1.51259 2.42463e-06 2.41576e-21)
(1.51279 2.61016e-06 2.05581e-21)
(1.51297 3.14653e-06 2.76946e-21)
(1.51319 -2.08555e-07 1.95323e-21)
(1.51343 -5.10313e-07 1.80762e-21)
(1.51366 -8.16781e-07 2.91668e-21)
(1.51388 -1.35552e-06 2.20298e-21)
(1.51409 1.96427e-06 1.91732e-21)
(1.51429 -1.58315e-06 2.28154e-21)
(1.51448 -3.43293e-07 3.09312e-21)
(1.51465 -7.69474e-08 1.24255e-21)
(1.5148 7.71968e-07 -9.16699e-22)
(1.51495 6.67569e-07 -1.54145e-22)
(1.51503 1.77167e-07 1.16177e-21)
(1.51509 1.20234e-06 -8.57247e-22)
(1.51513 1.36581e-06 -2.06253e-22)
(1.51517 1.99566e-06 -2.42014e-21)
(1.51515 1.57959e-06 -1.78785e-21)
(1.51511 4.95114e-06 -2.34089e-21)
(1.51505 4.64772e-06 -3.30316e-21)
(1.51494 6.17935e-06 -3.49835e-21)
(1.51481 4.59718e-06 -1.77628e-21)
(1.51466 3.638e-06 -1.69304e-21)
(1.51444 1.01884e-05 -2.54128e-21)
(1.5142 6.90298e-06 -2.4421e-21)
(1.51392 1.28209e-05 -3.2162e-21)
(1.51367 1.65937e-05 -2.08038e-21)
(1.51339 3.9814e-06 -3.16557e-21)
(1.51309 5.38798e-06 -2.5481e-21)
(1.5128 7.19649e-06 -2.52624e-21)
(1.51242 7.7403e-06 -3.11043e-21)
(1.51206 -2.23629e-06 -3.14554e-21)
(1.51176 -3.14422e-05 -2.87537e-21)
(1.51151 -6.77041e-05 -3.29748e-21)
(1.5114 -0.000123919 -3.19827e-21)
(1.51149 -0.000206885 -3.1744e-21)
(1.51177 -0.000387437 -3.62202e-21)
(1.51219 -0.000808169 -2.46812e-21)
(1.51467 -0.0016166 -2.07933e-21)
(1.51412 -0.00253876 1.45033e-20)
(1.51991 -0.00743935 4.8775e-20)
(1.51565 -0.0206021 3.01673e-19)
(1.51892 -0.149688 3.18737e-18)
(1.09615 -0.365793 9.14553e-18)
(0.709144 -0.0887488 7.69761e-18)
(0.727188 0.0112519 7.50489e-18)
(0.75006 0.0107237 4.66538e-18)
(0.751376 0.0075016 2.63557e-18)
(0.737105 0.0104754 1.16861e-18)
(0.727276 0.0112116 6.42655e-19)
(0.723363 0.0107715 5.12928e-19)
(0.723584 0.0108478 4.98279e-19)
(0.727271 0.00918872 4.42735e-19)
(0.731512 0.00610132 4.07716e-19)
(0.738659 0.00580883 3.73478e-19)
(0.74611 0.00492828 3.34998e-19)
(0.753638 0.00323516 3.09696e-19)
(0.762759 0.00162989 3.2046e-19)
(0.771629 0.00072396 2.65952e-19)
(0.779127 0.00167668 2.55269e-19)
(0.786392 0.00189391 2.53543e-19)
(0.792126 0.00111452 2.26548e-19)
(0.797392 0.000654702 1.84694e-19)
(0.802046 0.000772674 2.03194e-19)
(0.805688 0.000607886 2.35277e-20)
(0.808072 0.000537529 1.21641e-19)
(0.809944 0.000303712 -8.2198e-20)
(0.811842 0.000288322 -5.35572e-21)
(0.814118 0.000236623 -1.29182e-19)
(0.817115 0.000132537 -1.64275e-19)
(0.821218 2.32775e-06 -3.6043e-19)
(0.826532 -6.9423e-05 -4.21903e-19)
(0.832238 -0.000245492 -6.72081e-19)
(0.838442 -0.00049083 -9.15613e-19)
(0.844313 -0.000606329 -1.31766e-18)
(0.849153 -0.000207959 -1.65719e-18)
(0.853022 0.000174673 -2.16554e-18)
(0.85533 0.00130141 -3.09338e-18)
(0.854562 0.00166028 -3.38407e-18)
(0.847626 0.00117317 -4.81702e-18)
(0.831794 0.00143354 -5.48862e-18)
(0.813315 0.00188544 -6.43463e-18)
(0.799159 0.00239003 -7.13926e-18)
(0.791041 0.00168477 -7.13246e-18)
(0.786655 0.00206987 -8.03086e-18)
(0.782881 0.00135931 -7.72277e-18)
(0.774554 -0.000159704 -8.53825e-18)
(0.766745 0.00192883 -7.54443e-18)
(0.744498 0.00272516 -1.03361e-17)
(0.716407 0.00148137 -7.92775e-18)
(0.685932 0.00262412 -4.66956e-18)
(0.65025 0.00411484 -8.26569e-18)
(0.612686 -0.00183566 -4.08208e-18)
(0.577895 0.00422744 -4.97388e-18)
(0.538497 0.0181575 -5.56219e-18)
(0.503711 0.0349599 -5.44576e-18)
(0.470302 0.0396573 9.4044e-19)
(0.439389 0.0424125 -8.66145e-18)
(0.410009 0.0452098 -5.113e-18)
(0.382011 0.0496926 3.8303e-19)
(0.354059 0.0511232 -1.34114e-17)
(0.326953 0.0515339 -6.88053e-18)
(0.301939 0.0480487 -1.41017e-17)
(0.278359 0.0466938 -3.26202e-18)
(0.255385 0.0433269 1.96638e-17)
(0.232358 0.0436473 2.43039e-17)
(0.20952 0.0417543 2.65707e-17)
(0.186734 0.0428323 3.55136e-17)
(0.164254 0.0409404 3.01548e-17)
(0.142061 0.0428733 1.06298e-17)
(0.120028 0.0417573 3.10538e-18)
(0.0983049 0.0431262 -1.41231e-18)
(0.0763385 0.0421528 -6.60824e-18)
(0.0544492 0.0452807 -4.49231e-18)
(0.0326724 0.0458827 -7.35489e-19)
(0.0133798 0.0494187 -7.33744e-19)
(1.51227 7.29412e-07 9.56273e-22)
(1.51237 -2.31151e-05 -1.43867e-21)
(1.51248 3.05081e-06 -2.54616e-21)
(1.51258 3.34726e-06 -2.26729e-22)
(1.51277 3.64523e-06 -1.47007e-21)
(1.51297 4.69262e-06 -8.28774e-22)
(1.51319 -1.39249e-08 -1.25488e-21)
(1.51343 -2.427e-06 -2.2673e-21)
(1.51366 -9.36471e-07 3.93665e-22)
(1.51388 -1.6582e-06 -2.40675e-21)
(1.51408 1.07282e-06 7.47984e-22)
(1.5143 -1.277e-06 -3.08777e-21)
(1.51447 5.74463e-07 -3.40432e-21)
(1.51464 1.33949e-07 -2.95705e-21)
(1.51479 8.1965e-07 -2.10105e-21)
(1.51495 1.3224e-06 -1.75622e-21)
(1.51503 2.01594e-06 -2.18832e-21)
(1.51509 2.60825e-06 -2.19817e-21)
(1.51513 2.45386e-06 -4.69516e-22)
(1.51517 1.98375e-06 -2.47038e-21)
(1.51515 2.08312e-06 -4.79646e-21)
(1.51511 6.38623e-06 -8.88221e-21)
(1.51506 7.16117e-06 -6.5314e-21)
(1.51495 7.05982e-06 -9.00799e-21)
(1.51482 9.67502e-06 -1.26032e-20)
(1.51467 1.17077e-05 -1.2131e-20)
(1.51445 1.26011e-05 -1.30696e-20)
(1.5142 1.77167e-05 -1.39928e-20)
(1.51393 1.31111e-05 -1.35646e-20)
(1.51365 1.93611e-05 -1.20581e-20)
(1.5134 1.78095e-05 -1.231e-20)
(1.51309 1.95679e-05 -1.21286e-20)
(1.51276 1.93711e-05 -1.27371e-20)
(1.5124 2.81988e-05 -1.18552e-20)
(1.51198 7.09847e-06 -1.28938e-20)
(1.51155 -9.60102e-06 -1.25568e-20)
(1.51123 -3.91691e-05 -1.23394e-20)
(1.5109 -0.000127209 -1.24813e-20)
(1.51066 -0.000211413 -1.19578e-20)
(1.51038 -0.000489882 -1.17186e-20)
(1.5105 -0.00102506 -1.62611e-20)
(1.50997 -0.00187497 -2.32447e-20)
(1.51119 -0.00271924 -8.43987e-20)
(1.50976 -0.00770971 -3.16086e-20)
(1.51147 -0.0294849 1.39426e-19)
(1.50595 -0.231995 2.7495e-18)
(0.816157 -0.381014 5.50653e-18)
(0.674168 -0.102998 3.87172e-18)
(0.63467 0.0183103 1.68139e-18)
(0.633552 0.0289124 7.96934e-19)
(0.631883 0.0220504 3.12588e-19)
(0.622444 0.0178735 8.9218e-20)
(0.622736 0.0118391 2.45435e-21)
(0.629323 0.00559893 1.03469e-20)
(0.636397 0.00365405 -1.55362e-20)
(0.647028 0.00153622 -1.62643e-20)
(0.657336 -0.00321593 -3.52839e-20)
(0.67135 -0.00270397 -1.7726e-20)
(0.682085 -0.00310869 -2.42482e-20)
(0.693054 -0.00513901 -7.61534e-20)
(0.706326 -0.00548182 -4.75698e-20)
(0.718471 -0.005584 -8.64449e-20)
(0.729023 -0.00485936 -1.16451e-19)
(0.738468 -0.00357628 -2.75153e-19)
(0.74612 -0.00357193 -7.80296e-20)
(0.752168 -0.00247078 -2.84542e-19)
(0.757064 -0.00196631 -3.23492e-19)
(0.761214 -0.00147471 -3.9627e-19)
(0.764895 -0.00158707 -4.75345e-19)
(0.768747 -0.0018799 -6.07836e-19)
(0.77311 -0.00207177 -6.89711e-19)
(0.777543 -0.00223307 -8.96796e-19)
(0.781535 -0.0024348 -9.45786e-19)
(0.786025 -0.00248493 -1.49461e-18)
(0.791035 -0.00243416 -1.57071e-18)
(0.796871 -0.00228353 -2.28475e-18)
(0.80372 -0.00222421 -2.71026e-18)
(0.811714 -0.00192234 -3.41399e-18)
(0.821367 -0.00155608 -3.9491e-18)
(0.827329 -0.000272607 -5.2284e-18)
(0.829868 0.00213785 -6.20003e-18)
(0.824606 0.00497977 -8.05293e-18)
(0.805781 0.00709679 -9.49307e-18)
(0.782974 0.00890019 -1.27175e-17)
(0.76542 0.00798288 -1.12283e-17)
(0.755981 0.00420164 -1.28903e-17)
(0.752185 0.00287426 -1.3128e-17)
(0.747123 0.00373331 -1.26006e-17)
(0.733013 0.00713663 -1.49858e-17)
(0.699514 0.0134699 -4.01247e-18)
(0.643643 0.0215959 -3.53366e-17)
(0.572344 0.0350843 3.70737e-17)
(0.495681 0.0415749 -3.10911e-17)
(0.436153 0.0429446 -1.79894e-17)
(0.383992 0.0403397 3.44001e-17)
(0.346863 0.0420486 -4.67812e-17)
(0.311318 0.0431534 1.31478e-17)
(0.276413 0.0462726 1.70516e-17)
(0.245541 0.0514464 -3.14755e-17)
(0.219594 0.0527397 -1.6726e-18)
(0.200032 0.0559703 9.55196e-18)
(0.181992 0.055688 -4.83e-17)
(0.165742 0.0558333 1.88038e-17)
(0.151384 0.0551526 3.7775e-17)
(0.137795 0.0551418 2.01492e-18)
(0.125554 0.0535251 -1.13485e-17)
(0.113822 0.0529782 -9.81557e-17)
(0.102924 0.0503638 -9.10813e-17)
(0.0918064 0.0512965 -2.19794e-17)
(0.0812104 0.0492981 -3.38687e-17)
(0.0708441 0.0516617 -3.03342e-17)
(0.0608003 0.0492183 1.5964e-17)
(0.0515663 0.0511019 1.66421e-17)
(0.0432268 0.0475562 -6.54152e-18)
(0.0360521 0.0517554 -1.14703e-17)
(0.0278736 0.0508539 -7.13324e-18)
(0.0232146 0.0580251 -8.3327e-20)
(0.0161054 0.0585041 8.48209e-19)
(0.0143491 0.0691534 -2.87859e-19)
(1.51226 2.05257e-06 -7.74649e-22)
(1.51236 -2.5359e-05 7.19685e-22)
(1.51248 2.60664e-06 1.86908e-21)
(1.51258 3.43586e-06 2.61191e-21)
(1.51278 5.40018e-06 8.31119e-22)
(1.51298 6.14169e-06 -2.62013e-21)
(1.51319 -1.31777e-07 -1.93221e-21)
(1.51342 -4.16735e-06 -7.25482e-22)
(1.51365 -1.21187e-06 -7.3721e-22)
(1.51388 -2.45088e-06 1.33797e-21)
(1.51409 1.99672e-06 -1.13319e-22)
(1.51431 -2.6377e-06 -4.19341e-21)
(1.51448 1.32519e-06 4.03712e-22)
(1.51466 -5.38624e-08 6.21551e-22)
(1.51481 1.76261e-07 6.68513e-21)
(1.51496 1.43462e-06 6.04406e-21)
(1.51504 1.86601e-06 1.15456e-20)
(1.51511 1.8349e-06 8.63489e-21)
(1.51515 2.72426e-06 2.61614e-21)
(1.51519 3.84841e-06 1.01226e-20)
(1.51517 8.22368e-06 1.40411e-20)
(1.51514 9.33779e-06 1.78019e-20)
(1.51508 1.20358e-05 1.79364e-20)
(1.51498 1.34968e-05 2.17712e-20)
(1.51485 1.39293e-05 2.22222e-20)
(1.51468 1.92093e-05 1.8813e-20)
(1.51451 1.96552e-05 2.28615e-20)
(1.51423 2.66513e-05 2.74152e-20)
(1.51399 2.97356e-05 2.63497e-20)
(1.5137 2.32713e-05 2.27603e-20)
(1.51341 2.48536e-05 2.37755e-20)
(1.51317 2.55578e-05 2.46053e-20)
(1.51288 2.70085e-05 2.53191e-20)
(1.51255 2.50262e-05 2.61563e-20)
(1.51219 3.89084e-06 2.76033e-20)
(1.5118 -2.84647e-05 2.85946e-20)
(1.51154 -9.63355e-05 2.87159e-20)
(1.51127 -0.000198943 2.96085e-20)
(1.51117 -0.000357305 2.99672e-20)
(1.51088 -0.000681998 2.99547e-20)
(1.51137 -0.00120972 3.04228e-20)
(1.51018 -0.00217722 3.17666e-20)
(1.51298 -0.00342128 4.60171e-20)
(1.5039 -0.00908566 1.04954e-19)
(1.51983 -0.0472707 7.27233e-19)
(1.33061 -0.289528 3.63723e-18)
(0.632546 -0.292432 4.87277e-18)
(0.543031 -0.103025 3.59804e-18)
(0.504923 0.00187821 1.74453e-18)
(0.52159 0.0160044 6.87222e-19)
(0.537816 0.0166338 -1.48542e-19)
(0.552881 0.0103904 1.25834e-19)
(0.569941 0.00248851 1.15536e-19)
(0.587877 -0.0030335 1.23713e-19)
(0.604466 -0.00579807 1.0556e-19)
(0.620507 -0.00625023 1.0331e-19)
(0.63704 -0.0102668 3.0569e-20)
(0.656501 -0.00990693 1.87359e-20)
(0.669083 -0.00984811 2.4556e-20)
(0.682745 -0.0126412 3.34271e-21)
(0.69861 -0.0126822 -6.46981e-20)
(0.711949 -0.0122488 -2.22458e-20)
(0.722045 -0.0104414 -2.27097e-20)
(0.731145 -0.00825463 -1.62816e-19)
(0.740098 -0.00643544 -1.88544e-19)
(0.748119 -0.00477638 -1.50063e-19)
(0.75446 -0.00388627 -3.38227e-19)
(0.758439 -0.00362954 -3.32999e-19)
(0.761259 -0.00323531 -6.07703e-19)
(0.764092 -0.00326258 -5.58541e-19)
(0.766931 -0.0034633 -6.56776e-19)
(0.770455 -0.00337738 -7.55722e-19)
(0.774765 -0.0035986 -8.7583e-19)
(0.781033 -0.00381239 -1.06427e-18)
(0.788665 -0.00452618 -1.10613e-18)
(0.796141 -0.00515228 -1.7592e-18)
(0.802491 -0.00523852 -1.5084e-18)
(0.80891 -0.00458818 -2.30571e-18)
(0.813361 -0.00347326 -3.17534e-18)
(0.816378 -0.000900989 -3.90757e-18)
(0.81823 0.00427129 -8.08249e-18)
(0.815667 0.0107487 -5.04733e-18)
(0.805011 0.0148176 -1.22279e-17)
(0.78616 0.0187703 -1.14228e-17)
(0.764438 0.0164567 -1.25053e-17)
(0.739055 0.011469 -1.19328e-17)
(0.715171 0.00989707 -1.12157e-17)
(0.690208 0.0167902 -1.53968e-17)
(0.651538 0.0316533 3.71948e-18)
(0.602186 0.0537042 -5.15147e-17)
(0.546917 0.0783359 4.87384e-17)
(0.471913 0.0938069 -5.34682e-17)
(0.408982 0.102258 1.40797e-17)
(0.347442 0.0966329 2.93668e-17)
(0.297346 0.0866742 -7.51537e-17)
(0.249544 0.0772418 6.13583e-17)
(0.210867 0.0719953 -7.59481e-18)
(0.182625 0.0684505 -4.32377e-17)
(0.159 0.0663749 8.77425e-18)
(0.137132 0.0651411 3.45164e-17)
(0.118257 0.067313 3.81005e-17)
(0.102187 0.065717 -2.54705e-17)
(0.0880261 0.0658172 -3.98786e-17)
(0.0759052 0.0630596 -5.6862e-18)
(0.0661198 0.0623274 4.32009e-17)
(0.0581637 0.0592005 7.661e-18)
(0.0502204 0.0583431 -5.26705e-17)
(0.0431855 0.0557383 -3.83007e-17)
(0.0358443 0.0566429 -3.49955e-17)
(0.0295573 0.0539031 -1.23184e-17)
(0.0240763 0.0554529 1.62775e-17)
(0.0200297 0.05244 1.89864e-17)
(0.0168401 0.0547329 -5.52136e-18)
(0.0139053 0.0500675 -1.17052e-17)
(0.0118105 0.0551273 -2.71916e-18)
(0.00945258 0.0522849 1.84072e-18)
(0.00860297 0.060143 2.03533e-18)
(0.00729123 0.059967 3.93222e-19)
(0.00807487 0.0782993 -1.4541e-19)
(1.51223 4.91553e-06 2.07004e-22)
(1.51235 -2.84338e-05 1.7363e-21)
(1.51248 2.31096e-06 -1.89801e-21)
(1.51258 3.11733e-06 1.98217e-21)
(1.51277 5.11138e-06 -5.3641e-23)
(1.51297 6.80623e-06 9.25995e-21)
(1.51319 -1.93248e-08 1.99065e-20)
(1.51342 -1.31611e-06 7.84266e-21)
(1.51365 -5.74195e-07 1.1643e-20)
(1.51388 -3.15822e-06 2.44827e-20)
(1.51409 5.92168e-07 -5.28351e-21)
(1.51431 -4.71996e-06 1.30138e-20)
(1.51449 3.83996e-06 1.45222e-20)
(1.51466 -5.97659e-08 1.567e-20)
(1.51481 7.92406e-07 8.38302e-21)
(1.51496 1.7352e-06 7.99629e-21)
(1.51505 3.61026e-06 1.44033e-20)
(1.51511 3.29994e-06 1.44514e-20)
(1.51515 4.60218e-06 2.03087e-20)
(1.5152 4.92389e-06 7.46674e-21)
(1.51519 1.215e-05 5.67813e-21)
(1.51516 1.3926e-05 3.96199e-21)
(1.51509 1.60149e-05 -4.33329e-22)
(1.515 1.90311e-05 -1.14808e-21)
(1.51487 2.00262e-05 6.87101e-22)
(1.51472 2.14292e-05 3.11506e-21)
(1.51452 3.06779e-05 1.3879e-21)
(1.51426 3.19525e-05 -1.39029e-21)
(1.514 3.95696e-05 -1.21677e-21)
(1.51374 3.54898e-05 5.08037e-21)
(1.51344 4.21628e-05 3.7082e-21)
(1.51317 4.05717e-05 2.10571e-21)
(1.51284 4.05447e-05 3.92287e-21)
(1.51246 4.10944e-05 2.38167e-23)
(1.51196 3.76509e-05 -1.22278e-21)
(1.51143 1.37632e-05 7.59493e-22)
(1.51094 -5.34612e-05 -7.28931e-23)
(1.51026 -9.90891e-05 -1.46376e-21)
(1.50976 -0.000291645 -6.83971e-22)
(1.50852 -0.000452158 -1.97161e-21)
(1.50813 -0.000772541 -1.8193e-21)
(1.50527 -0.00159351 3.73311e-22)
(1.50617 -0.00236216 1.88921e-20)
(1.49611 -0.00656155 1.41514e-19)
(1.50376 -0.0442278 1.29453e-18)
(1.12231 -0.210532 4.89914e-18)
(0.554199 -0.196566 5.07916e-18)
(0.468744 -0.0953852 3.74056e-18)
(0.442435 -0.022442 1.04073e-18)
(0.46014 -0.0046933 -8.84831e-20)
(0.489956 -0.00526666 -1.64001e-19)
(0.515038 -0.0153049 -5.78541e-20)
(0.540927 -0.01804 -1.00694e-19)
(0.566157 -0.0229579 -1.7788e-19)
(0.588522 -0.0285001 -1.86086e-19)
(0.607221 -0.0258035 -2.35971e-19)
(0.627767 -0.0296867 -2.03987e-19)
(0.65122 -0.0292895 -2.34624e-19)
(0.66929 -0.0266634 -1.89628e-19)
(0.685104 -0.0261292 -1.8408e-19)
(0.701174 -0.0220179 -1.79496e-19)
(0.716755 -0.0215854 -1.3994e-19)
(0.728209 -0.0178325 -1.83554e-19)
(0.739583 -0.0135894 -1.8317e-19)
(0.748444 -0.0112176 -2.4887e-19)
(0.75484 -0.00889078 -2.7647e-19)
(0.760342 -0.00722168 -2.93944e-19)
(0.764942 -0.00614172 -3.73732e-19)
(0.769016 -0.00561487 -4.31631e-19)
(0.773666 -0.00515702 -5.01493e-19)
(0.778228 -0.00507397 -5.8791e-19)
(0.783599 -0.00551186 -6.60003e-19)
(0.788831 -0.00647415 -8.13771e-19)
(0.792436 -0.00741423 -9.16644e-19)
(0.796417 -0.00844537 -1.13139e-18)
(0.801181 -0.00847228 -1.3223e-18)
(0.807782 -0.00773065 -1.62795e-18)
(0.816028 -0.00598136 -2.00385e-18)
(0.827007 -0.00436762 -2.91116e-18)
(0.832695 -0.000673604 -4.04213e-18)
(0.833665 0.00587605 -6.05001e-18)
(0.829727 0.0162516 -7.54447e-18)
(0.801937 0.0258277 -9.4772e-18)
(0.772224 0.0281505 -1.03426e-17)
(0.746206 0.025926 -1.10685e-17)
(0.726112 0.0244546 -1.05662e-17)
(0.70975 0.0306939 -1.14008e-17)
(0.685031 0.0506367 -7.06319e-18)
(0.632545 0.0846479 -1.50035e-17)
(0.558969 0.119047 2.49368e-18)
(0.486923 0.13561 -8.91131e-18)
(0.436056 0.14802 -1.45471e-17)
(0.381168 0.148146 3.48439e-17)
(0.330014 0.146176 -8.95207e-17)
(0.286944 0.13902 9.51408e-17)
(0.247621 0.127006 -4.38003e-18)
(0.212324 0.117708 -1.43966e-16)
(0.180102 0.107001 1.09385e-16)
(0.148822 0.0992775 6.95941e-17)
(0.123812 0.0902025 -1.21241e-16)
(0.10214 0.0859808 -4.75004e-17)
(0.0844834 0.0805505 -8.10424e-18)
(0.0709221 0.0788277 -3.76015e-17)
(0.059494 0.0744477 8.40594e-18)
(0.0486506 0.0719603 6.05142e-17)
(0.0396449 0.0670928 2.85026e-17)
(0.0311149 0.0639385 -1.38931e-17)
(0.0250224 0.0591755 -1.68121e-17)
(0.0193313 0.0603082 4.67592e-18)
(0.0152889 0.0570339 2.12714e-17)
(0.011723 0.0583377 1.79892e-17)
(0.00893416 0.0542018 -1.65061e-18)
(0.00696974 0.0563845 -1.01799e-17)
(0.00487442 0.0508675 -1.77147e-18)
(0.00391329 0.0562099 2.30651e-18)
(0.00290796 0.0521485 1.66249e-18)
(0.00335057 0.0602723 2.67141e-18)
(0.00352584 0.0591536 1.28215e-18)
(0.00521171 0.0799739 4.36645e-19)
(1.51222 6.79068e-06 2.09648e-21)
(1.51234 -2.99959e-05 3.41754e-22)
(1.51249 1.26437e-06 5.27597e-21)
(1.51258 2.87452e-06 -4.73515e-21)
(1.51278 6.45825e-06 -1.95108e-21)
(1.51298 6.68016e-06 -2.80966e-20)
(1.51319 1.62091e-06 -3.13966e-20)
(1.51343 -1.13894e-06 -2.22926e-20)
(1.51366 -8.10253e-07 -3.03885e-20)
(1.51389 -3.54317e-06 -4.58951e-20)
(1.51411 2.20537e-07 -1.73987e-20)
(1.51431 -5.2029e-06 -4.15448e-20)
(1.5145 5.47391e-06 -4.46369e-20)
(1.51467 -1.34531e-06 -3.70392e-20)
(1.51482 1.01197e-06 -3.59543e-20)
(1.51498 6.70967e-07 -3.69644e-20)
(1.51507 5.90267e-06 -5.85652e-20)
(1.51513 3.06942e-06 -4.37994e-20)
(1.51518 7.07407e-06 -4.93408e-20)
(1.51523 7.25e-06 -5.35471e-20)
(1.51521 1.29918e-05 -5.02127e-20)
(1.51519 1.4164e-05 -4.73706e-20)
(1.51513 1.70073e-05 -4.23126e-20)
(1.51504 2.17704e-05 -4.20845e-20)
(1.51492 2.72088e-05 -3.72772e-20)
(1.51477 3.0629e-05 -3.13854e-20)
(1.51456 3.26687e-05 -2.95659e-20)
(1.51435 3.82822e-05 -2.92658e-20)
(1.51408 4.24625e-05 -2.93895e-20)
(1.51382 5.25159e-05 -3.08637e-20)
(1.51356 5.34444e-05 -3.09744e-20)
(1.51331 4.84989e-05 -3.27135e-20)
(1.513 5.35206e-05 -3.34877e-20)
(1.51268 5.50808e-05 -3.51226e-20)
(1.51237 4.36405e-05 -3.57443e-20)
(1.51196 2.16135e-05 -3.59081e-20)
(1.51159 -2.6909e-05 -3.59666e-20)
(1.51104 -6.21652e-05 -3.56875e-20)
(1.5107 -0.000203459 -3.58658e-20)
(1.50964 -0.000239847 -3.73305e-20)
(1.50956 -0.000554563 -3.86559e-20)
(1.50726 -0.0011458 -2.70285e-20)
(1.5083 -0.00152568 -9.56868e-21)
(1.50108 -0.00368206 1.80605e-19)
(1.50596 -0.0292678 2.077e-18)
(1.05403 -0.102823 6.51461e-18)
(0.541404 -0.0911124 6.53693e-18)
(0.429539 -0.0569797 4.62863e-18)
(0.410716 -0.0379801 6.62956e-19)
(0.425943 -0.0358644 2.1281e-19)
(0.45948 -0.0437507 -4.14717e-20)
(0.493155 -0.0537629 5.70078e-22)
(0.525072 -0.050515 -7.31617e-20)
(0.554953 -0.052217 -1.64191e-19)
(0.584171 -0.0565275 -1.62354e-19)
(0.609841 -0.0520361 -1.53149e-19)
(0.633334 -0.0528352 -1.65075e-19)
(0.656344 -0.0475488 -1.30811e-19)
(0.679491 -0.0421035 -1.45458e-19)
(0.699146 -0.0393806 -8.74077e-20)
(0.715098 -0.0323982 -1.09269e-19)
(0.730813 -0.0304845 -1.4229e-19)
(0.742139 -0.0248856 -1.42122e-19)
(0.755308 -0.020757 -1.12298e-19)
(0.765596 -0.0166099 -1.53522e-19)
(0.773168 -0.013393 -2.49703e-19)
(0.780263 -0.0102357 -2.38983e-19)
(0.786167 -0.00874852 -2.14857e-19)
(0.790888 -0.00757593 -3.19076e-19)
(0.794589 -0.00741318 -3.41486e-19)
(0.797131 -0.00794821 -3.77362e-19)
(0.799967 -0.00873789 -4.42692e-19)
(0.802773 -0.00955673 -4.79697e-19)
(0.807573 -0.0102887 -5.24355e-19)
(0.814161 -0.0114268 -6.15545e-19)
(0.822035 -0.011899 -8.27073e-19)
(0.829374 -0.0116632 -8.9536e-19)
(0.835721 -0.00977851 -1.22769e-18)
(0.838755 -0.00639182 -1.81779e-18)
(0.837926 1.1294e-05 -2.74185e-18)
(0.835188 0.00904597 -3.83393e-18)
(0.834132 0.0242734 -6.29281e-18)
(0.828876 0.0396663 -7.22929e-18)
(0.799127 0.0430915 -8.60857e-18)
(0.768706 0.0406847 -8.41603e-18)
(0.72528 0.0431388 -9.11067e-18)
(0.676508 0.0575415 -9.73085e-18)
(0.628967 0.084362 2.67752e-18)
(0.576639 0.124154 -2.49535e-17)
(0.522057 0.161194 5.04695e-18)
(0.482598 0.185506 8.69047e-18)
(0.456625 0.203644 -1.84649e-17)
(0.412578 0.198513 -1.2121e-17)
(0.374019 0.196312 4.119e-17)
(0.32407 0.185578 -4.26095e-17)
(0.278046 0.173698 -1.45137e-16)
(0.234729 0.1581 2.89784e-16)
(0.195738 0.143897 1.2105e-16)
(0.16535 0.131439 -3.71399e-16)
(0.140527 0.117962 1.72451e-18)
(0.115931 0.109425 2.51662e-16)
(0.0949391 0.0999882 1.33266e-16)
(0.0769612 0.0952318 6.3892e-18)
(0.060715 0.0900183 1.01746e-17)
(0.0478734 0.0856598 3.42732e-17)
(0.0376368 0.0794731 9.14457e-18)
(0.0288437 0.0741669 -1.13509e-17)
(0.022523 0.0674554 -2.81334e-18)
(0.0161037 0.0654456 1.39846e-17)
(0.0127814 0.0605307 1.19958e-17)
(0.00929124 0.0615491 3.24791e-18)
(0.00639478 0.056235 -6.63804e-18)
(0.00443845 0.0586205 -3.35039e-18)
(0.00211866 0.0517672 2.92947e-18)
(0.00145668 0.0571409 3.171e-18)
(0.000689715 0.0518433 3.24155e-18)
(0.00161823 0.059864 2.23573e-18)
(0.00229006 0.0568341 1.73912e-18)
(0.00457213 0.0789525 7.27898e-19)
(1.51219 1.07397e-05 7.58124e-21)
(1.51232 -2.90987e-05 6.61299e-21)
(1.51249 6.40678e-07 7.57432e-21)
(1.51259 1.14854e-06 2.8088e-21)
(1.51278 6.10498e-06 1.86327e-20)
(1.51298 7.2312e-06 4.01693e-20)
(1.5132 2.70301e-06 1.75646e-21)
(1.51343 -2.31217e-07 3.88911e-20)
(1.51367 -1.01394e-06 1.87046e-20)
(1.51389 -3.99871e-06 2.65927e-20)
(1.51411 2.79286e-07 1.18948e-20)
(1.51431 -3.52908e-06 2.81827e-20)
(1.5145 3.3002e-06 3.41851e-20)
(1.51467 -1.42302e-06 9.74775e-21)
(1.51483 1.44022e-06 -7.2251e-21)
(1.51499 6.18343e-07 -7.04144e-21)
(1.51509 6.7613e-06 8.56674e-21)
(1.51515 3.75295e-06 2.84908e-21)
(1.5152 8.32214e-06 2.37292e-21)
(1.51525 8.98919e-06 1.60449e-20)
(1.51524 1.57735e-05 1.93134e-20)
(1.51521 1.7681e-05 2.19212e-20)
(1.51516 2.16078e-05 2.43625e-20)
(1.51507 2.55154e-05 2.4798e-20)
(1.51496 3.09269e-05 1.60378e-20)
(1.51482 3.75136e-05 1.47939e-20)
(1.51462 3.94357e-05 1.4513e-20)
(1.51437 4.60253e-05 1.67287e-20)
(1.51413 4.99141e-05 1.54774e-20)
(1.51386 6.32451e-05 1.03461e-20)
(1.51365 6.79417e-05 1.32075e-20)
(1.51335 6.75068e-05 1.64028e-20)
(1.51297 7.07706e-05 1.90624e-20)
(1.51253 8.25827e-05 2.21934e-20)
(1.51212 8.60796e-05 2.42977e-20)
(1.5116 7.89557e-05 2.75429e-20)
(1.51097 5.92876e-05 3.10102e-20)
(1.51018 5.56167e-05 3.36012e-20)
(1.50937 8.46741e-05 3.57379e-20)
(1.50795 7.13164e-05 4.74784e-20)
(1.50705 -3.4268e-05 -1.02684e-20)
(1.50327 4.28655e-05 1.42016e-19)
(1.50301 -0.000117443 2.78155e-19)
(1.49595 0.000219935 -4.74899e-19)
(1.50402 0.00396478 -3.40315e-19)
(0.939425 0.0322129 5.79286e-18)
(0.501186 0.0127426 5.94881e-18)
(0.398311 -0.0295842 4.701e-18)
(0.39105 -0.0634238 -8.74626e-20)
(0.420473 -0.0830696 3.72681e-19)
(0.45816 -0.0966931 3.01614e-19)
(0.496423 -0.104167 2.81713e-19)
(0.531859 -0.0948693 2.15666e-19)
(0.565654 -0.0935989 1.98249e-19)
(0.596145 -0.0914817 1.50993e-19)
(0.623892 -0.0836646 1.23298e-19)
(0.652983 -0.0832947 1.25049e-19)
(0.677066 -0.070321 5.41777e-20)
(0.69981 -0.0607988 2.58612e-20)
(0.721564 -0.056062 -5.92573e-21)
(0.737301 -0.046266 -7.62825e-20)
(0.755838 -0.042395 -6.34992e-20)
(0.769866 -0.0344623 -6.62757e-20)
(0.786978 -0.0294595 -1.34272e-19)
(0.797599 -0.0221946 -1.49947e-19)
(0.807237 -0.0167037 -1.09722e-19)
(0.815139 -0.0124676 -7.26294e-20)
(0.820495 -0.0101665 -1.76088e-19)
(0.825709 -0.00912272 -2.00778e-19)
(0.83022 -0.00882486 -1.76812e-19)
(0.835945 -0.00911362 -1.76508e-19)
(0.842384 -0.00957013 -1.57421e-19)
(0.846048 -0.00976187 -2.09808e-19)
(0.849267 -0.010189 -2.01435e-19)
(0.851917 -0.0109715 -2.47143e-19)
(0.854633 -0.0115454 -3.00649e-19)
(0.858575 -0.0115024 -3.11801e-19)
(0.864301 -0.00984867 -4.83741e-19)
(0.872573 -0.00615072 -4.99873e-19)
(0.880994 0.001061 -1.30837e-18)
(0.881519 0.0116307 -1.70923e-18)
(0.867509 0.0270094 -2.47869e-18)
(0.851742 0.0470762 -6.01003e-18)
(0.816612 0.0634656 -5.09686e-19)
(0.774243 0.0705922 -1.42688e-17)
(0.72815 0.0769086 2.59935e-18)
(0.690791 0.097772 -1.01213e-17)
(0.640196 0.13301 -1.36163e-17)
(0.593072 0.178403 3.30252e-17)
(0.553308 0.206593 -3.3687e-17)
(0.507391 0.229066 -2.74953e-18)
(0.472852 0.240829 1.58046e-18)
(0.439754 0.241196 -1.50807e-17)
(0.406963 0.241884 -3.21056e-17)
(0.370979 0.228779 9.41721e-17)
(0.332282 0.22134 1.33354e-16)
(0.29093 0.202258 -1.84999e-16)
(0.246314 0.18377 -6.86738e-16)
(0.205871 0.16485 1.19956e-16)
(0.171891 0.143875 7.55399e-16)
(0.142017 0.13011 2.58453e-17)
(0.118487 0.116693 -4.04079e-16)
(0.097963 0.109935 -1.9768e-16)
(0.0800854 0.102786 -2.05393e-17)
(0.0642927 0.0972909 6.00291e-18)
(0.0500596 0.0900513 -1.30257e-17)
(0.0377826 0.083175 -1.71943e-17)
(0.0282678 0.0752301 3.34097e-19)
(0.0199934 0.0709165 1.13777e-17)
(0.0150867 0.0644921 2.28294e-18)
(0.0103562 0.0654697 -4.95639e-18)
(0.00685442 0.0590358 -4.5942e-18)
(0.00454229 0.0613185 3.67661e-19)
(0.00184584 0.0536849 3.47829e-18)
(0.00103787 0.0588882 3.52786e-18)
(-5.81703e-05 0.0515867 2.79025e-18)
(0.000788299 0.0592243 1.97426e-18)
(0.00128593 0.0547993 1.39987e-18)
(0.00380979 0.0763344 1.33454e-18)
(1.51218 1.43226e-05 -4.65538e-21)
(1.51231 -2.81827e-05 -2.61649e-21)
(1.51249 1.01025e-07 -4.40853e-21)
(1.51258 3.45369e-07 -6.81137e-21)
(1.51278 6.08171e-06 -3.03906e-20)
(1.51298 7.47285e-06 -1.71586e-20)
(1.51321 2.93628e-06 2.07728e-20)
(1.51343 -8.39901e-08 -9.14503e-21)
(1.51367 -5.34752e-07 -3.37233e-21)
(1.5139 -4.70301e-06 -8.45364e-21)
(1.51412 4.72416e-08 -8.81394e-21)
(1.51433 -4.35865e-06 1.98795e-21)
(1.51452 2.38742e-06 2.58678e-20)
(1.51469 -1.03455e-06 5.86528e-20)
(1.51485 1.28617e-06 6.71193e-20)
(1.51501 -7.56875e-07 6.80516e-20)