/*--------------------------------*- C++ -*----------------------------------*\
| =========                 |                                                 |
| \\      /  F ield         | OpenFOAM: The Open Source CFD Toolbox           |
|  \\    /   O peration     | Version:  2.2.x                                 |
|   \\  /    A nd           | Web:      www.OpenFOAM.org                      |
|    \\/     M anipulation  |                                                 |
\*---------------------------------------------------------------------------*/
FoamFile
{
    version     2.0;
    format      ascii;
    class       volScalarField;
    location    "0.85";
    object      By;
}
// * * * * * * * * * * * * * * * * * * * * * * * * * * * * * * * * * * * * * //

dimensions      [1 0 -2 0 0 -1 0];

internalField   nonuniform List<scalar> 
14161
(
-8.85406e-06
1.22717e-07
-3.94762e-07
1.05554e-08
-1.34952e-06
-1.10094e-06
-3.92029e-07
2.81806e-06
-1.50721e-06
-1.89694e-06
1.92871e-06
-1.56331e-06
1.54373e-06
-8.43254e-07
-4.10315e-06
2.07847e-06
4.11845e-06
6.24204e-06
-2.24271e-06
1.962e-06
2.27941e-06
-1.13794e-07
4.43921e-06
6.60725e-06
9.927e-06
8.91284e-06
9.83876e-06
1.40874e-05
1.10333e-05
2.45756e-05
3.27436e-05
4.87477e-05
6.54323e-05
9.45254e-05
0.00012368
0.000163859
0.000207845
0.000259296
0.000319904
0.000366931
0.000476705
0.000503894
0.000647999
0.00063323
0.000836872
0.000615803
0.000189954
-0.000742711
-0.00135699
-0.00436419
-0.0043422
-0.0477361
-0.137218
-0.0636771
-0.00016248
-0.0008805
0.002441
0.000280943
0.00160364
0.00505053
0.00787668
0.00917823
0.00677807
0.00616436
0.00629968
0.00547107
0.00479628
0.00316402
0.00380335
0.00250441
0.000207848
-0.00215341
0.00129764
0.00646433
0.00503657
-0.00602148
-0.0106252
0.00648835
0.0336452
0.0615763
0.0984858
0.131914
0.0849106
0.0596499
0.0398466
0.0330839
0.0280712
0.0350438
0.0276604
0.0197935
0.00801009
-0.00130408
-0.00529846
-0.00927881
-0.0102542
-0.00954164
-0.00681506
-0.00308037
-0.00113791
-0.000780429
-0.00137033
-0.00113296
-0.00096755
-0.00153082
-0.00162311
-0.000238062
0.000967219
0.00260748
0.00369184
0.00590429
0.0052094
0.00997696
0.0101248
0.0133476
0.0137106
0.0161648
0.016862
0.0168105
0.0254484
-1.50406e-05
3.00589e-07
-1.31634e-06
1.65769e-07
-1.48429e-06
-1.13712e-06
1.29363e-06
9.02674e-07
-1.21503e-06
2.20451e-06
1.75274e-06
-4.32273e-06
4.97996e-06
6.21688e-06
6.12434e-06
-2.76799e-06
3.8256e-06
5.58895e-06
2.91642e-07
1.07952e-05
1.77673e-05
1.7828e-05
1.17349e-05
9.96564e-06
1.12153e-05
1.70743e-05
2.25813e-05
2.5779e-05
2.44466e-05
2.5543e-05
2.3485e-05
2.1418e-05
8.21858e-06
-5.19077e-07
-2.59774e-05
-3.92515e-05
-7.09617e-05
-0.000102734
-0.000113871
-0.000131376
-0.000125543
-0.000158391
-0.000177485
-0.000335763
-0.000321668
-0.00072966
-0.000524408
-0.00136377
-0.0017304
-0.00706414
-0.00833874
-0.0586652
-0.197554
-0.0236881
0.00397167
-0.00782573
-0.00833148
-0.00664368
-0.0115023
-0.00380945
-0.00243642
-0.000685364
-0.00728983
-0.00663307
-0.00413189
-0.00329381
-0.00108479
3.83331e-05
0.000877475
0.00247115
0.00478326
0.0110735
0.0189028
0.0159081
0.0150019
0.0269773
0.0347065
0.032818
0.0655779
0.134971
0.190715
0.236419
0.237585
0.233879
0.171361
0.138034
0.104426
0.0780235
0.0494407
0.0330097
0.0155831
0.00308367
-0.00711681
-0.0109989
-0.0124174
-0.0125169
-0.0106411
-0.0101256
-0.00943254
-0.00825554
-0.00605284
-0.00459923
-0.00338501
-0.00230031
-0.00190784
-9.68692e-05
0.00105467
0.00400178
0.00573483
0.0105302
0.0137846
0.0211003
0.0243953
0.0317746
0.035926
0.0434538
0.0477134
0.0521111
0.0719151
-2.63522e-05
-7.11484e-07
-2.31549e-06
-8.88115e-07
-1.84422e-06
-1.94951e-06
-4.02574e-07
2.64138e-06
-2.03574e-06
2.66891e-07
5.28193e-06
-2.41132e-06
-1.93481e-07
8.5961e-06
1.2281e-06
3.6625e-06
8.89687e-06
1.19204e-05
-1.8815e-06
1.82981e-05
2.29368e-05
2.46509e-05
2.00083e-05
1.84516e-05
2.95668e-05
3.72982e-05
4.82458e-05
5.69784e-05
5.74121e-05
8.05941e-05
9.36835e-05
0.000118016
0.00014615
0.000176912
0.000228949
0.000277802
0.000338413
0.000405491
0.000496548
0.000596641
0.000724076
0.000835668
0.00101673
0.00103775
0.00114484
0.000970698
0.000627147
-0.000310788
-0.000998051
-0.00535267
-0.00669657
-0.0303668
-0.0839831
-0.0748291
-0.0353168
-0.0616548
-0.056699
-0.0526751
-0.057119
-0.0433341
-0.0443342
-0.03647
-0.0445389
-0.031591
-0.0203463
-0.0138204
-0.00864768
-0.00596178
-0.00479529
-0.000705316
0.0100509
0.021512
0.025907
0.0394111
0.0665172
0.0799081
0.0975032
0.120052
0.177026
0.246771
0.299386
0.326965
0.346677
0.318375
0.272107
0.22656
0.162049
0.123356
0.0846508
0.0587999
0.0324653
0.0165444
0.000961777
-0.0113428
-0.0198918
-0.0209823
-0.0216456
-0.018452
-0.0157878
-0.0133851
-0.0107541
-0.00842757
-0.0066835
-0.0041224
-0.00187514
0.00117205
0.00459857
0.0100484
0.0141918
0.0229558
0.0266019
0.0369553
0.0411884
0.05307
0.0599465
0.0728689
0.083006
0.0917879
0.121591
-2.97845e-05
-1.799e-06
-3.6327e-06
-1.11602e-06
-1.74821e-06
-1.75552e-06
-3.14007e-07
3.28911e-06
-4.40441e-06
2.44673e-06
7.96921e-06
-4.97795e-06
-2.64628e-06
2.08411e-05
-6.09517e-07
4.03243e-06
2.03764e-05
1.58994e-05
3.78813e-06
2.33692e-05
3.22795e-05
3.35959e-05
3.25992e-05
3.22627e-05
3.9512e-05
4.86954e-05
6.13737e-05
6.93335e-05
7.06712e-05
8.04517e-05
8.50085e-05
9.66427e-05
9.85255e-05
0.000101669
0.000101865
0.000103639
9.85597e-05
0.000103011
0.000100111
0.000151075
0.000228265
0.0002664
0.000381657
0.00046855
0.000568821
0.000862412
0.0012609
0.00160186
0.00238467
0.00217527
0.00541811
0.023002
0.104704
-0.0199894
-0.0999045
-0.158125
-0.179789
-0.148317
-0.149998
-0.12203
-0.115097
-0.099487
-0.0937903
-0.0668104
-0.0443262
-0.032326
-0.0241437
-0.0199443
-0.0111965
-0.000257211
0.0114357
0.0236331
0.0468156
0.0839565
0.112491
0.126151
0.164678
0.22155
0.283986
0.321656
0.370339
0.413046
0.419614
0.416476
0.38321
0.322296
0.264757
0.189307
0.138957
0.09572
0.0563594
0.0263387
0.00153064
-0.0127054
-0.0200038
-0.0209869
-0.0229324
-0.0213975
-0.0212789
-0.0175998
-0.0147778
-0.0106334
-0.00731568
-0.00314409
0.000206173
0.00327482
0.00725942
0.0129407
0.0188571
0.0289081
0.0362447
0.0505435
0.0588486
0.0748722
0.0850353
0.102523
0.115046
0.132562
0.167503
-3.69798e-05
-2.78486e-06
-4.45395e-06
-1.9131e-06
-2.18653e-06
-2.08659e-06
-2.35591e-06
5.53392e-06
-3.63964e-06
2.24142e-06
8.57276e-06
-6.26392e-06
4.45588e-06
1.65917e-05
3.15564e-06
1.73941e-06
2.00943e-05
1.729e-05
4.04993e-06
2.51736e-05
4.07087e-05
4.4215e-05
4.3597e-05
4.00231e-05
5.68983e-05
6.33361e-05
8.68969e-05
9.6039e-05
0.000106144
0.000135951
0.000155763
0.000187436
0.00022658
0.00026279
0.00031895
0.000376266
0.000455656
0.000531419
0.000671098
0.000767751
0.00092864
0.00106012
0.00118725
0.00126873
0.00163235
0.00199344
0.00268713
0.00365796
0.00492622
0.00857571
0.0125403
0.0604929
0.224253
0.0397355
-0.157684
-0.236306
-0.250384
-0.216448
-0.196147
-0.165767
-0.14257
-0.127028
-0.113117
-0.0843167
-0.0547435
-0.042082
-0.0324522
-0.0260134
-0.01609
-0.00557903
0.00756697
0.0275073
0.0596637
0.0945435
0.133314
0.174364
0.238318
0.287859
0.338737
0.383459
0.424047
0.442227
0.454576
0.465469
0.447926
0.416979
0.36282
0.289893
0.218135
0.14999
0.0923968
0.0497519
0.0173605
-0.00815332
-0.0242415
-0.030387
-0.0314203
-0.0301381
-0.0269012
-0.0232329
-0.0184982
-0.0124112
-0.00740795
-0.00286941
0.00267289
0.00658733
0.0134334
0.0214194
0.0300041
0.0436136
0.0532378
0.071472
0.0812679
0.101515
0.113324
0.133982
0.150431
0.172194
0.210461
-3.78891e-05
-3.93612e-06
-5.45361e-06
-2.13311e-06
-2.27684e-06
-2.57321e-06
2.05071e-07
2.93216e-06
-3.38967e-06
1.49566e-06
9.75825e-06
-7.22775e-06
3.00106e-06
1.65843e-05
1.19028e-05
4.09505e-07
2.30041e-05
3.00424e-05
1.15042e-05
3.20324e-05
5.09118e-05
5.41501e-05
5.30879e-05
5.71369e-05
6.99934e-05
8.65184e-05
9.69655e-05
0.000113229
0.000119489
0.000142753
0.000157107
0.000182425
0.000204562
0.000223116
0.000238577
0.00026923
0.000294926
0.000338197
0.000381808
0.000430371
0.000510369
0.000606199
0.000798538
0.0012012
0.001593
0.00201524
0.00267853
0.00344026
0.00518625
0.0103166
0.0185059
0.0758056
0.286304
0.0967832
-0.27222
-0.322242
-0.304839
-0.262889
-0.225052
-0.190974
-0.164178
-0.146865
-0.117316
-0.086301
-0.0628636
-0.0371337
-0.0302313
-0.0233749
-0.0152036
-0.00618859
0.0122059
0.0327566
0.061307
0.104425
0.159282
0.211794
0.273484
0.331515
0.395654
0.441511
0.467342
0.499104
0.523598
0.536329
0.533463
0.515647
0.464218
0.408012
0.333619
0.23002
0.147544
0.0814904
0.0301492
-0.00553118
-0.0246353
-0.0321621
-0.0342984
-0.0336516
-0.0290423
-0.0241731
-0.0182376
-0.0126222
-0.00565991
-0.000508068
0.00654401
0.0100559
0.0198672
0.0288511
0.0421178
0.0579256
0.0712661
0.0923165
0.104101
0.127736
0.140668
0.165713
0.184625
0.209729
0.251936
-4.21997e-05
-4.78632e-06
-6.17408e-06
-2.76255e-06
-2.36026e-06
-2.798e-06
-1.05884e-06
3.40262e-06
-2.23715e-06
1.98128e-07
1.14479e-05
-2.34256e-06
4.16864e-07
2.20321e-05
1.04356e-05
3.08121e-06
2.35322e-05
3.16892e-05
1.85547e-05
3.23406e-05
5.7371e-05
6.57445e-05
6.56505e-05
6.42064e-05
8.37974e-05
0.000100039
0.000117594
0.000136559
0.000155632
0.00018359
0.000227857
0.000261635
0.000309306
0.000351946
0.000406964
0.000464789
0.000545817
0.00062082
0.00074978
0.000823
0.000980679
0.00112962
0.00137201
0.00163653
0.00191643
0.00227589
0.00274456
0.0030412
0.00368927
0.004061
0.0063702
0.0219937
0.120163
-0.013115
-0.274541
-0.325569
-0.321055
-0.295152
-0.255307
-0.214257
-0.183084
-0.153793
-0.12097
-0.0905455
-0.0621424
-0.0432329
-0.0287806
-0.0208346
-0.0129678
-0.00197406
0.0140834
0.0348385
0.0640434
0.111961
0.171803
0.245455
0.321567
0.380065
0.443208
0.481982
0.514163
0.546768
0.561174
0.574124
0.577543
0.571679
0.557995
0.529234
0.460591
0.351784
0.237759
0.135197
0.0649038
0.0137782
-0.0139069
-0.0309501
-0.0350677
-0.0349827
-0.0319097
-0.0274039
-0.0189132
-0.0130134
-0.00334481
0.00264988
0.0137494
0.0178189
0.0318096
0.0407566
0.0565166
0.075149
0.0912997
0.115897
0.129003
0.155268
0.168679
0.196689
0.216243
0.246338
0.288075
-4.10353e-05
-5.7742e-06
-6.92414e-06
-3.03777e-06
-2.49508e-06
-2.02433e-06
-1.22369e-06
4.77795e-06
-2.89777e-06
1.59868e-06
8.17922e-06
-8.94285e-07
2.44393e-06
2.22353e-05
1.44496e-05
5.41038e-06
2.45943e-05
4.14857e-05
3.0172e-05
3.81591e-05
6.85409e-05
7.38826e-05
7.90538e-05
8.36636e-05
0.000105582
0.000124967
0.000137024
0.000160995
0.00017667
0.000204947
0.000240172
0.000271413
0.000308941
0.000350152
0.000391819
0.000427244
0.000479246
0.000527642
0.000597498
0.000662788
0.000729375
0.000810511
0.000886143
0.000998685
0.00113379
0.00119199
0.00124709
0.000856175
0.000373647
-0.00128961
-0.00159073
-0.0144608
-0.0674247
-0.354679
-0.340148
-0.311835
-0.289556
-0.276911
-0.248356
-0.217441
-0.18365
-0.154325
-0.117743
-0.0879649
-0.0593248
-0.0430287
-0.0265141
-0.0160441
-0.00806431
0.00170333
0.0160173
0.0385391
0.0698517
0.120934
0.194023
0.289943
0.371099
0.438022
0.496352
0.538603
0.557755
0.592803
0.616279
0.625402
0.63313
0.633129
0.629378
0.602425
0.56201
0.494831
0.370256
0.229368
0.1161
0.0367763
-0.00961858
-0.0288299
-0.0362738
-0.0336359
-0.0277671
-0.0242786
-0.0150053
-0.00820137
0.00396513
0.0107355
0.0236583
0.0304207
0.0463681
0.0559897
0.0729356
0.0927019
0.110412
0.13751
0.153048
0.182825
0.197042
0.228398
0.248898
0.280766
0.32135
-4.32556e-05
-6.13513e-06
-7.44751e-06
-3.62364e-06
-3.02247e-06
-1.88908e-06
-2.37395e-06
4.43912e-06
-1.47604e-06
1.30927e-06
9.91741e-06
7.56249e-07
3.64198e-06
1.70642e-05
1.96339e-05
1.17067e-05
2.39e-05
3.8208e-05
3.50417e-05
4.27175e-05
7.16775e-05
7.68398e-05
8.77312e-05
9.01439e-05
0.000117514
0.000134211
0.000160594
0.000175364
0.000210478
0.000239357
0.000286721
0.000333824
0.000385531
0.000429308
0.000486058
0.000535407
0.000615262
0.000688329
0.000781635
0.000875296
0.00100855
0.00112714
0.00124395
0.00129835
0.00137108
0.00135527
0.001423
0.00151254
0.0012854
0.00147019
-0.00342924
-0.0267437
-0.257015
-0.631936
-0.46142
-0.318515
-0.292807
-0.271061
-0.245605
-0.217734
-0.181109
-0.149036
-0.112164
-0.0800796
-0.0600267
-0.0384818
-0.0259041
-0.0129422
-0.00298025
0.00735229
0.0211282
0.0431371
0.0762277
0.133387
0.227553
0.339159
0.415931
0.483778
0.526027
0.574501
0.598534
0.622723
0.649612
0.663992
0.671383
0.669096
0.668541
0.650783
0.629183
0.59029
0.514693
0.370841
0.20516
0.0823945
0.0125946
-0.0194929
-0.0264821
-0.0267756
-0.0180825
-0.014743
-0.00276657
0.00229101
0.0163828
0.0230542
0.0388477
0.0450685
0.0618183
0.0726509
0.0917077
0.112504
0.131871
0.160651
0.178242
0.208425
0.225608
0.259036
0.280351
0.310637
0.355154
-4.07795e-05
-6.43531e-06
-7.84106e-06
-3.73687e-06
-2.99946e-06
-1.93939e-06
-1.70723e-06
2.64732e-06
-2.56026e-07
7.82119e-07
6.66557e-06
7.49615e-06
2.49464e-06
1.72506e-05
2.28612e-05
1.46276e-05
3.00394e-05
4.57366e-05
5.25863e-05
4.89746e-05
8.05181e-05
8.98985e-05
0.000104774
0.000108643
0.000143842
0.000162923
0.000188644
0.000205196
0.000240474
0.000268028
0.000312078
0.000361808
0.000405378
0.00045516
0.000503565
0.000553588
0.000615043
0.000678682
0.000748696
0.000790349
0.000872186
0.000910058
0.000924644
0.000846077
0.000729113
0.00055477
0.00033355
4.44323e-05
-0.000738629
-0.00304795
-0.0119385
-0.0663228
-0.434381
-0.754917
-0.604938
-0.414029
-0.334206
-0.300533
-0.269551
-0.236903
-0.200714
-0.157831
-0.113666
-0.0773999
-0.0552498
-0.039789
-0.023706
-0.0116979
0.000540773
0.0116402
0.0222473
0.0463382
0.0867792
0.15141
0.27645
0.385149
0.460449
0.534685
0.562677
0.598786
0.64002
0.655211
0.671993
0.691186
0.70482
0.703763
0.699756
0.689526
0.6736
0.649733
0.604827
0.507815
0.337578
0.157436
0.0456229
-0.00655103
-0.0198143
-0.0176836
-0.00268441
0.000353364
0.013205
0.0165935
0.0311925
0.0378539
0.0552203
0.0623074
0.0822052
0.0931672
0.111247
0.133133
0.153085
0.184434
0.201479
0.235717
0.253002
0.288483
0.309095
0.341921
0.382017
-4.14022e-05
-6.36297e-06
-8.02308e-06
-4.09361e-06
-3.29599e-06
-1.18757e-06
-2.20861e-06
1.51245e-06
9.61744e-07
8.36665e-07
5.92728e-06
8.85404e-06
4.40424e-06
1.7979e-05
2.05272e-05
2.58262e-05
2.51523e-05
4.41027e-05
5.41683e-05
6.03616e-05
7.89705e-05
9.32936e-05
0.000107922
0.000116705
0.00014794
0.000177321
0.000201292
0.000223736
0.000251189
0.000299255
0.000341567
0.000389847
0.000441804
0.000493938
0.000551556
0.000607134
0.000668438
0.000733172
0.000814282
0.000891524
0.000985713
0.00102072
0.00113022
0.00118563
0.00137718
0.00146388
0.00169053
0.0017954
0.00223104
0.000680843
-0.00885301
-0.105103
-0.565285
-0.778288
-0.730047
-0.563578
-0.445496
-0.343097
-0.301711
-0.247272
-0.207426
-0.156176
-0.112223
-0.074588
-0.0534564
-0.0394877
-0.0234251
-0.00992171
0.00298077
0.013399
0.025063
0.0560883
0.10659
0.194597
0.328232
0.442841
0.497598
0.559469
0.605846
0.630568
0.656622
0.682632
0.703066
0.710155
0.722294
0.721995
0.719699
0.716667
0.709797
0.691445
0.660123
0.596255
0.47672
0.264387
0.102329
0.0194659
-0.000168832
0.00361192
0.0204501
0.0225838
0.0363242
0.0406066
0.0566207
0.0634316
0.0793065
0.0856203
0.101671
0.111827
0.132884
0.155913
0.176804
0.207403
0.226549
0.262132
0.281136
0.319515
0.339627
0.371552
0.412242
-3.81505e-05
-6.02388e-06
-8.08203e-06
-4.22155e-06
-3.50087e-06
-5.50301e-07
-2.15768e-06
-3.30128e-07
3.32489e-06
1.37804e-06
5.30096e-06
1.24247e-05
6.42382e-06
1.29491e-05
2.79925e-05
2.87787e-05
2.78026e-05
4.95344e-05
6.72148e-05
6.73141e-05
8.11022e-05
0.000110531
0.000126561
0.000135976
0.000170584
0.000205406
0.000237594
0.000259138
0.00029533
0.000329125
0.000375619
0.000422311
0.000482108
0.000535786
0.000591264
0.000654567
0.000722669
0.000781915
0.000850226
0.000902606
0.000964429
0.00100304
0.00104433
0.00103294
0.00113222
0.00108563
0.00122878
0.000947093
0.00118843
-0.00242702
-0.0191171
-0.188297
-0.700648
-0.808799
-0.780378
-0.688758
-0.558851
-0.418638
-0.350233
-0.267988
-0.216449
-0.155248
-0.110995
-0.0775088
-0.0537371
-0.038582
-0.0242974
-0.00942598
0.00605968
0.0149739
0.0314802
0.0624039
0.139275
0.259465
0.396529
0.486062
0.546945
0.588971
0.631775
0.660939
0.683992
0.697456
0.716569
0.727184
0.732773
0.734524
0.729848
0.727147
0.720657
0.709728
0.685536
0.6446
0.557851
0.385704
0.177581
0.0638565
0.0344808
0.0408462
0.0581997
0.0631588
0.0737072
0.0738298
0.0850128
0.0866438
0.104028
0.109321
0.125662
0.135091
0.155914
0.178546
0.199546
0.229353
0.250633
0.285856
0.309306
0.347918
0.368104
0.401324
0.439795
-3.75252e-05
-5.45568e-06
-7.87109e-06
-4.24856e-06
-3.87327e-06
-5.40666e-07
-2.66917e-06
-1.89765e-06
4.68747e-06
1.6599e-06
2.53864e-06
1.46137e-05
7.01071e-06
1.03816e-05
2.84714e-05
3.97153e-05
2.28034e-05
4.75448e-05
7.08295e-05
7.92005e-05
8.30251e-05
0.000111441
0.000133119
0.000143899
0.000173617
0.00020953
0.000250802
0.000273112
0.000300002
0.000342427
0.000386218
0.000437656
0.000486691
0.000535124
0.00059171
0.000659843
0.000717945
0.000787433
0.000832144
0.000904239
0.0009579
0.00105921
0.00114264
0.00128208
0.00141943
0.00133779
0.00138734
0.00110104
0.000884086
-0.00498598
-0.037401
-0.331782
-0.78868
-0.814894
-0.804601
-0.768546
-0.675093
-0.545082
-0.414558
-0.309935
-0.224694
-0.158388
-0.103112
-0.0692085
-0.049045
-0.0345472
-0.0192297
-0.00458333
0.00901993
0.0238266
0.0447904
0.0869223
0.1819
0.340251
0.468032
0.542591
0.597395
0.629373
0.655168
0.687187
0.702822
0.720399
0.726617
0.733994
0.738166
0.74018
0.73859
0.735857
0.731268
0.722138
0.702572
0.673121
0.609197
0.481927
0.282933
0.142036
0.0986403
0.0970173
0.106203
0.105204
0.112158
0.108965
0.120444
0.122885
0.137729
0.142546
0.154747
0.16203
0.179243
0.201962
0.220987
0.252892
0.271236
0.310513
0.333487
0.376098
0.395127
0.430164
0.465379
-3.39283e-05
-4.59507e-06
-7.54273e-06
-4.1423e-06
-4.01741e-06
-4.06585e-07
-8.05361e-07
-4.95848e-06
7.96707e-06
1.55917e-06
1.26037e-06
1.34351e-05
1.8622e-05
5.97032e-06
2.96489e-05
4.30012e-05
3.55964e-05
5.03773e-05
7.89541e-05
8.84978e-05
8.78863e-05
0.000117031
0.000153137
0.000167136
0.000190591
0.000238591
0.000279739
0.000308851
0.000342805
0.0003774
0.000432158
0.000483434
0.000545451
0.000597807
0.000646285
0.00070536
0.00079463
0.000878147
0.00093612
0.00100907
0.00105206
0.00109606
0.00114496
0.00128119
0.00123383
0.00142258
0.00134597
0.00142615
-0.000146746
-0.00816363
-0.0755758
-0.493861
-0.799046
-0.828666
-0.824693
-0.807246
-0.756724
-0.667564
-0.509161
-0.393025
-0.251168
-0.184514
-0.113868
-0.0669591
-0.0507699
-0.035241
-0.0237956
-0.00773824
0.00134786
0.0195524
0.0545123
0.133623
0.279846
0.435752
0.52273
0.588616
0.637688
0.667957
0.692222
0.709714
0.723349
0.728586
0.732327
0.738219
0.740632
0.739993
0.739266
0.738056
0.735318
0.730475
0.71977
0.707231
0.66507
0.565733
0.392054
0.238431
0.185614
0.169904
0.173853
0.165081
0.171645
0.16386
0.169949
0.162584
0.169093
0.170476
0.183109
0.190765
0.206641
0.224571
0.244116
0.273181
0.295278
0.334858
0.357746
0.404305
0.421994
0.458529
0.490716
-3.2292e-05
-3.68291e-06
-6.95745e-06
-4.03506e-06
-3.84782e-06
-5.67784e-07
-1.05411e-06
-5.90158e-06
6.84994e-06
4.03081e-06
2.44075e-07
1.53016e-05
1.62375e-05
4.52576e-06
2.85418e-05
4.54808e-05
3.53089e-05
4.98709e-05
8.12887e-05
9.46754e-05
9.87357e-05
0.000116446
0.000155249
0.000182813
0.000197355
0.000238193
0.000277312
0.000324444
0.000339083
0.000370802
0.000422254
0.000482774
0.000538048
0.000597753
0.000618647
0.000675356
0.000737736
0.000806718
0.000869913
0.000943896
0.000961389
0.00103166
0.00113123
0.00132302
0.00143615
0.00169544
0.00168934
0.00204548
0.000157368
-0.0109766
-0.118636
-0.603915
-0.818333
-0.83917
-0.834637
-0.820113
-0.797765
-0.754052
-0.646
-0.50229
-0.335507
-0.225155
-0.129056
-0.0657354
-0.0450273
-0.0218428
-0.0175421
0.000965192
0.0293733
0.0644901
0.130298
0.25566
0.417236
0.533965
0.581918
0.624719
0.655049
0.674764
0.697959
0.714326
0.724856
0.732643
0.737033
0.738637
0.740444
0.743476
0.745248
0.747195
0.746943
0.744181
0.744935
0.738945
0.710397
0.635856
0.49818
0.350718
0.278861
0.247212
0.234034
0.221493
0.21917
0.210804
0.213213
0.206057
0.205398
0.203661
0.208076
0.21461
0.228559
0.247466
0.264415
0.293857
0.316121
0.35579
0.381978
0.429959
0.446855
0.486879
0.515524
-2.8569e-05
-2.28998e-06
-6.23916e-06
-3.78099e-06
-3.6871e-06
-3.62026e-07
-1.15225e-07
-6.17479e-06
5.40594e-06
7.1704e-06
-3.56597e-06
1.65003e-05
2.2386e-05
8.41383e-06
2.58479e-05
5.05255e-05
4.97124e-05
4.8846e-05
8.63688e-05
0.000104681
0.000107951
0.000121693
0.000165539
0.000200453
0.000212711
0.000251851
0.000305091
0.000345046
0.000380217
0.000417264
0.000454657
0.000519512
0.000588532
0.000657895
0.000694094
0.000753278
0.000833428
0.000929574
0.000984211
0.00104962
0.00110623
0.001183
0.0011406
0.00132543
0.00123876
0.00139872
0.00102191
0.00158205
-0.00226156
-0.0209614
-0.215115
-0.740699
-0.823541
-0.833783
-0.834243
-0.828304
-0.814019
-0.7848
-0.736959
-0.632785
-0.45
-0.27887
-0.127136
-0.0576408
-0.0413984
-0.012651
0.00972156
0.0442686
0.114634
0.234745
0.314205
0.425164
0.496507
0.568781
0.605813
0.64119
0.668853
0.689123
0.707167
0.715777
0.722811
0.726343
0.73244
0.738137
0.742102
0.750132
0.756627
0.764234
0.774268
0.780519
0.796238
0.785701
0.759035
0.690889
0.573298
0.447104
0.378446
0.330929
0.300322
0.27375
0.263433
0.252065
0.252793
0.24728
0.242237
0.236544
0.235722
0.240491
0.251865
0.269342
0.284596
0.313154
0.334121
0.377179
0.402743
0.457001
0.471227
0.517843
0.535195
-2.63989e-05
-1.15768e-06
-5.34363e-06
-3.48377e-06
-3.62951e-06
-7.49649e-07
-8.36807e-07
-4.66002e-06
3.3768e-06
6.69387e-06
-1.90374e-06
1.09709e-05
2.03306e-05
1.44237e-05
2.11427e-05
4.59638e-05
4.80158e-05
5.5365e-05
8.10951e-05
0.000106694
0.000114458
0.000130981
0.000164807
0.000204147
0.000231748
0.000254742
0.000296065
0.000341874
0.000383535
0.000414881
0.000442428
0.000501934
0.000573397
0.000619363
0.000664161
0.000664585
0.000718807
0.000764179
0.000808913
0.000821041
0.000842736
0.000866522
0.00080314
0.000745739
0.000586365
0.000491595
7.65739e-05
-0.00062668
-0.0073682
-0.045504
-0.361867
-0.800359
-0.825022
-0.833141
-0.832091
-0.829687
-0.823475
-0.809809
-0.780458
-0.709661
-0.567789
-0.343669
-0.128826
-0.0202557
0.0711876
0.149245
0.20964
0.253695
0.315552
0.395742
0.440312
0.49783
0.535894
0.576295
0.605698
0.627813
0.647355
0.66423
0.679852
0.693037
0.706524
0.72285
0.738473
0.7488
0.761473
0.775242
0.792391
0.811072
0.831117
0.846703
0.851099
0.843249
0.813576
0.749278
0.640469
0.519999
0.439921
0.384353
0.355741
0.325727
0.318491
0.301838
0.297726
0.281446
0.275171
0.266104
0.266871
0.268263
0.278879
0.291938
0.306576
0.329732
0.354841
0.39446
0.425856
0.478266
0.496214
0.541388
0.55604
-2.27007e-05
6.36383e-07
-4.24758e-06
-2.97355e-06
-2.95668e-06
-1.06765e-06
9.65629e-08
-3.84138e-06
1.77084e-06
7.25735e-06
1.81389e-06
8.14296e-06
2.57073e-05
1.82222e-05
2.21375e-05
4.77523e-05
6.12941e-05
5.79674e-05
8.53212e-05
0.000115465
0.000123935
0.000135362
0.000169984
0.000213665
0.000240344
0.000263247
0.000302458
0.000360617
0.000412646
0.000454767
0.00049086
0.00054259
0.000608309
0.000672092
0.000751722
0.000774117
0.000847861
0.000910668
0.00102698
0.00108825
0.00119238
0.00117077
0.00130133
0.00123636
0.00127194
0.00109045
0.00116754
-0.000555778
-0.0090237
-0.0820232
-0.515682
-0.807407
-0.844201
-0.848042
-0.846187
-0.843533
-0.839472
-0.830827
-0.810325
-0.747354
-0.613715
-0.331619
-0.0136772
0.160339
0.287766
0.33681
0.381928
0.41398
0.437373
0.484543
0.504968
0.539166
0.563608
0.587293
0.609811
0.628028
0.644467
0.662617
0.680606
0.697975
0.714558
0.732913
0.749265
0.767965
0.787511
0.811194
0.835175
0.854621
0.868513
0.882719
0.884867
0.870127
0.833755
0.770877
0.673392
0.57173
0.49295
0.44171
0.399072
0.368776
0.352269
0.337952
0.327178
0.314884
0.304067
0.299148
0.293462
0.296337
0.30011
0.314212
0.325378
0.348324
0.372879
0.41081
0.446809
0.498241
0.519462
0.562563
0.578252
-2.0167e-05
1.79596e-06
-3.28276e-06
-2.54235e-06
-2.94972e-06
-1.49815e-06
-6.96503e-07
-2.20182e-06
-1.14942e-06
5.96328e-06
4.53128e-06
4.37219e-06
1.97265e-05
2.21647e-05
2.25888e-05
4.03936e-05
5.99967e-05
6.44065e-05
7.72704e-05
0.000108567
0.000131498
0.000140571
0.000173645
0.000214958
0.00025319
0.000275081
0.000291866
0.000346776
0.000404827
0.000456897
0.000477444
0.000513505
0.000575812
0.000617139
0.000673351
0.00066545
0.000683709
0.000680888
0.000808605
0.000812264
0.000833534
0.000834166
0.000945459
0.000874637
0.00112095
0.00108284
0.00147993
-0.000545771
-0.0123618
-0.133148
-0.639706
-0.827615
-0.852224
-0.85311
-0.849505
-0.84278
-0.839344
-0.83173
-0.799077
-0.70479
-0.479846
-0.0763505
0.198466
0.354612
0.408236
0.457501
0.477257
0.507144
0.514671
0.542009
0.558385
0.576018
0.593817
0.611117
0.627268
0.638669
0.6505
0.665477
0.678617
0.692916
0.712167
0.733026
0.753274
0.773881
0.792723
0.814102
0.834777
0.855336
0.870116
0.878891
0.876844
0.857488
0.824109
0.766922
0.687534
0.598637
0.528465
0.480958
0.443489
0.414782
0.39056
0.3725
0.3585
0.346413
0.334725
0.328551
0.321043
0.322841
0.323755
0.337503
0.344654
0.368659
0.388288
0.429407
0.46225
0.519612
0.538158
0.586262
0.598102
-1.67643e-05
3.83057e-06
-1.86476e-06
-1.76341e-06
-2.19435e-06
-1.99236e-06
-5.78117e-07
4.85037e-08
-3.49317e-06
6.76678e-06
6.75701e-06
3.45797e-06
2.09063e-05
2.8904e-05
2.36994e-05
4.3126e-05
6.65484e-05
6.85602e-05
8.09412e-05
0.000115514
0.000139884
0.000143343
0.00016885
0.000218127
0.000256189
0.000278308
0.00029379
0.000344173
0.000409232
0.000478658
0.0005243
0.000556426
0.000602825
0.00065004
0.000744547
0.000762377
0.000829763
0.000813733
0.000990948
0.0010233
0.00125115
0.00135438
0.00171281
0.00182137
0.00217898
0.00194003
0.00234317
-0.00278548
-0.0267965
-0.261009
-0.776939
-0.829397
-0.836625
-0.837949
-0.837351
-0.830966
-0.821957
-0.799683
-0.728655
-0.545296
-0.160723
0.196049
0.34518
0.435539
0.483195
0.507208
0.534158
0.553798
0.571066
0.589245
0.600964
0.607718
0.622329
0.634403
0.645769
0.656412
0.667107
0.677032
0.688203
0.702043
0.716411
0.731625
0.748592
0.766923
0.786292
0.806368
0.825779
0.838386
0.850817
0.858349
0.854078
0.837096
0.809529
0.763535
0.699513
0.625599
0.56103
0.507714
0.475994
0.442932
0.424889
0.399652
0.389703
0.371052
0.364105
0.353217
0.348708
0.345513
0.348816
0.356271
0.367117
0.384744
0.406738
0.444983
0.479243
0.539848
0.555537
0.611707
0.612603
-1.39938e-05
5.00621e-06
-9.57611e-07
-1.28432e-06
-1.87282e-06
-2.54875e-06
-1.60429e-06
3.33872e-07
-3.86135e-06
3.78065e-06
8.15257e-06
1.18172e-06
1.41202e-05
3.08729e-05
2.29089e-05
3.21083e-05
6.58479e-05
7.36177e-05
7.3221e-05
0.000105431
0.000145543
0.000152348
0.000170741
0.00021115
0.000260093
0.000292853
0.000296349
0.000320631
0.000393642
0.000469518
0.000518729
0.000540041
0.000569017
0.00063994
0.000686848
0.00072035
0.000713534
0.000727294
0.000706956
0.000764717
0.000682082
0.000600115
0.000323058
4.87065e-05
-0.00040981
-0.00112661
-0.00343892
-0.0120321
-0.0659391
-0.441616
-0.813612
-0.838439
-0.842421
-0.84138
-0.837003
-0.824893
-0.800545
-0.739128
-0.576958
-0.2086
0.162068
0.347218
0.442563
0.503607
0.528374
0.548908
0.561497
0.578115
0.594104
0.610539
0.626908
0.633038
0.64483
0.656264
0.662179
0.673421
0.681095
0.688187
0.697962
0.707263
0.718247
0.731014
0.745701
0.760459
0.775788
0.791806
0.808181
0.818828
0.828134
0.834054
0.830717
0.817908
0.795363
0.757358
0.703367
0.641356
0.58263
0.538952
0.503676
0.475296
0.450819
0.429069
0.414193
0.398492
0.387619
0.379863
0.371407
0.370751
0.369342
0.378813
0.386384
0.402332
0.425201
0.460292
0.496697
0.554909
0.576642
0.627808
0.631016
-1.07377e-05
7.02708e-06
5.57735e-07
-2.9546e-07
-1.05534e-06
-3.05306e-06
-1.08587e-06
7.00862e-07
-4.76776e-06
1.247e-06
1.27638e-05
8.02426e-07
1.40595e-05
3.47988e-05
3.22217e-05
3.41052e-05
6.2784e-05
7.86456e-05
8.115e-05
0.000103092
0.000143484
0.000159446
0.000169362
0.000205176
0.000249196
0.000285152
0.00029696
0.000314828
0.000359855
0.00045663
0.000520125
0.000557162
0.000574389
0.000598058
0.000657466
0.000688667
0.000720824
0.000728182
0.000662217
0.000739046
0.000809553
0.00102197
0.00125793
0.00168173
0.00182122
0.00238931
0.000640057
-0.00915527
-0.116999
-0.595064
-0.826695
-0.851375
-0.852161
-0.846779
-0.832999
-0.807114
-0.747613
-0.592206
-0.240983
0.138814
0.328236
0.439946
0.507017
0.53787
0.556474
0.571943
0.587087
0.600647
0.615036
0.627275
0.639319
0.651502
0.665678
0.679501
0.684551
0.694258
0.700715
0.704153
0.709915
0.713797
0.723174
0.733463
0.744489
0.755161
0.767439
0.780109
0.793431
0.801876
0.810178
0.813796
0.812203
0.803342
0.785913
0.754926
0.709623
0.65565
0.59936
0.558832
0.526
0.501583
0.476452
0.45671
0.439309
0.423979
0.412447
0.404563
0.395592
0.393911
0.390042
0.400672
0.403349
0.422117
0.44007
0.47582
0.510683
0.570402
0.59347
0.644371
0.648308
-8.13566e-06
8.24763e-06
1.39772e-06
1.23002e-07
-6.32097e-07
-3.25826e-06
-2.58006e-06
1.42697e-06
-5.21134e-06
-1.89085e-06
1.05207e-05
3.88427e-07
6.44913e-06
3.09854e-05
3.40686e-05
2.72077e-05
5.52554e-05
8.33823e-05
7.63245e-05
9.28301e-05
0.000138208
0.00016626
0.00016997
0.000197653
0.000252689
0.00028955
0.000309993
0.000309242
0.000340669
0.000422015
0.000500076
0.000549892
0.000562147
0.000606203
0.000669123
0.000782351
0.000809624
0.000908898
0.000858378
0.00110159
0.00128302
0.00153827
0.00150035
0.00182701
0.00141421
0.00158845
-0.00294002
-0.0279227
-0.248165
-0.763293
-0.831997
-0.837372
-0.837147
-0.831519
-0.801966
-0.744263
-0.601368
-0.268109
0.112452
0.342431
0.431726
0.498825
0.542444
0.558584
0.575496
0.591981
0.609151
0.619599
0.631481
0.641023
0.651304
0.663419
0.675252
0.68984
0.698681
0.70848
0.716532
0.717315
0.72445
0.725993
0.728376
0.732619
0.741023
0.751241
0.762609
0.771004
0.78024
0.789285
0.796473
0.800006
0.79874
0.791876
0.777074
0.750781
0.712279
0.665754
0.61943
0.579738
0.549407
0.521593
0.500319
0.477402
0.463442
0.444738
0.436463
0.426071
0.419092
0.414095
0.412701
0.418412
0.423916
0.439131
0.456681
0.49151
0.524157
0.585814
0.60831
0.662676
0.664166
-4.90363e-06
1.00599e-05
2.81361e-06
1.13236e-06
2.42276e-07
-2.9424e-06
-2.77903e-06
2.19488e-06
-5.43314e-06
-3.90925e-06
1.01652e-05
7.43253e-06
4.96852e-06
2.67276e-05