/*--------------------------------*- C++ -*----------------------------------*\
| =========                 |                                                 |
| \\      /  F ield         | OpenFOAM: The Open Source CFD Toolbox           |
|  \\    /   O peration     | Version:  2.2.x                                 |
|   \\  /    A nd           | Web:      www.OpenFOAM.org                      |
|    \\/     M anipulation  |                                                 |
\*---------------------------------------------------------------------------*/
FoamFile
{
    version     2.0;
    format      ascii;
    class       volScalarField;
    location    "0.85";
    object      p;
}
// * * * * * * * * * * * * * * * * * * * * * * * * * * * * * * * * * * * * * //

dimensions      [1 -1 -2 0 0 0 0];

internalField   nonuniform List<scalar> 
14161
(
0.196517
0.197122
0.196895
0.196881
0.196751
0.196597
0.19642
0.196221
0.196002
0.195754
0.195516
0.195254
0.194972
0.194706
0.194445
0.19414
0.193862
0.193603
0.193322
0.193057
0.192826
0.192628
0.192411
0.192182
0.192005
0.191853
0.191742
0.191652
0.191565
0.191502
0.191506
0.191534
0.19158
0.19165
0.191771
0.191933
0.192112
0.192338
0.19262
0.19295
0.193305
0.193671
0.194028
0.194323
0.194684
0.195078
0.195478
0.19506
0.195169
0.191061
0.193541
0.1883
0.417255
1.44153
1.37324
1.34356
1.31633
1.29723
1.28367
1.2674
1.25702
1.24866
1.24105
1.21827
1.19444
1.17432
1.15523
1.13663
1.12051
1.10353
1.09273
1.08644
1.09494
1.11763
1.14052
1.1626
1.18703
1.22069
1.24169
1.29559
1.4597
1.59251
1.73289
1.84082
1.90063
1.9473
1.97056
1.98274
1.99334
2.00188
2.00854
2.01145
2.01523
2.01475
2.01249
2.01033
2.00767
2.00417
2.00141
1.9987
1.99701
1.99591
1.99465
1.99296
1.98992
1.98686
1.98425
1.9823
1.98186
1.98191
1.98545
1.98713
1.99359
1.99605
2.00247
2.00372
2.00832
2.00778
2.00852
0.196521
0.197123
0.196896
0.19688
0.19675
0.196603
0.196419
0.196224
0.195997
0.195754
0.195515
0.195258
0.194966
0.194701
0.194442
0.194151
0.193865
0.193596
0.193312
0.193054
0.192825
0.19263
0.192421
0.192184
0.191994
0.191836
0.191723
0.19163
0.191547
0.19149
0.191484
0.191504
0.19154
0.191606
0.191699
0.191853
0.192015
0.192217
0.192466
0.192743
0.193058
0.193379
0.193746
0.194103
0.194738
0.195633
0.197123
0.197557
0.198115
0.196718
0.197793
0.203018
0.83249
1.52541
1.59437
1.59509
1.54448
1.5106
1.47449
1.43318
1.39464
1.35488
1.31988
1.27509
1.23827
1.20413
1.17262
1.143
1.12364
1.11483
1.10705
1.09408
1.08973
1.12832
1.21652
1.27074
1.26871
1.3036
1.44496
1.53203
1.56008
1.67533
1.76692
1.82908
1.88947
1.94047
1.96737
1.98595
1.99892
2.00562
2.01027
2.0123
2.01247
2.01203
2.01101
2.0102
2.00821
2.00509
2.00203
1.99934
1.99757
1.99642
1.99526
1.99392
1.99207
1.98971
1.98776
1.98618
1.98626
1.98637
1.98943
1.99142
1.99683
1.99962
2.00545
2.00695
2.011
2.01091
2.01321
0.196525
0.197124
0.196898
0.196882
0.196751
0.196605
0.196422
0.196225
0.196
0.195756
0.195514
0.195262
0.194973
0.194701
0.194438
0.194136
0.193861
0.193605
0.193331
0.193059
0.192821
0.192613
0.192397
0.192176
0.191999
0.191848
0.191735
0.191643
0.191559
0.191502
0.191506
0.191538
0.191594
0.191684
0.191803
0.191985
0.192178
0.192413
0.1927
0.192993
0.19335
0.193782
0.194264
0.194708
0.194978
0.195072
0.195217
0.195219
0.196676
0.199398
0.205101
0.219657
1.13225
1.62974
1.72409
1.70771
1.63098
1.57818
1.52994
1.47304
1.42539
1.37873
1.33609
1.27836
1.23066
1.18811
1.15468
1.13266
1.11446
1.09678
1.0725
1.06052
1.10127
1.15599
1.15731
1.21263
1.3689
1.46906
1.47505
1.53128
1.64078
1.67831
1.69827
1.76943
1.8218
1.87739
1.92741
1.9552
1.97658
1.98889
1.99757
2.00194
2.005
2.00585
2.00478
2.00298
2.00145
1.99816
1.99509
1.99206
1.99017
1.9885
1.98711
1.98532
1.984
1.98183
1.98003
1.97848
1.97865
1.97849
1.98227
1.98388
1.98953
1.9921
1.99816
1.9997
2.004
2.00364
2.00502
0.196528
0.197123
0.196899
0.196883
0.196752
0.196605
0.196422
0.196223
0.196001
0.195753
0.195517
0.195254
0.194973
0.194702
0.19444
0.194144
0.193859
0.193594
0.193323
0.193056
0.192819
0.192608
0.192389
0.192163
0.191982
0.191833
0.191718
0.191625
0.191535
0.191465
0.191438
0.191438
0.191457
0.1915
0.191564
0.191669
0.191799
0.191956
0.19214
0.192351
0.192574
0.192863
0.193238
0.193759
0.19463
0.19586
0.19734
0.199115
0.201949
0.207557
0.212092
0.223698
1.11324
1.63406
1.69958
1.69834
1.61921
1.56943
1.51463
1.46035
1.40148
1.35766
1.31696
1.27643
1.2332
1.19411
1.16632
1.14085
1.11808
1.0922
1.07677
1.08632
1.09744
1.08564
1.15854
1.28213
1.32277
1.34408
1.446
1.52681
1.52368
1.55719
1.61225
1.64471
1.70229
1.7952
1.85682
1.91283
1.94811
1.96686
1.98111
1.98865
1.99324
1.99641
1.99693
1.99633
1.9952
1.99233
1.99
1.98719
1.9857
1.98389
1.98337
1.98206
1.98069
1.97908
1.97782
1.97643
1.97669
1.97705
1.98037
1.9824
1.98765
1.99093
1.99666
1.99831
2.00204
2.00036
2.00152
0.196535
0.197124
0.196901
0.196884
0.196754
0.196607
0.196423
0.196225
0.196003
0.19576
0.195512
0.195256
0.194971
0.194702
0.194435
0.194143
0.193853
0.193584
0.193322
0.193054
0.192815
0.192599
0.192381
0.192159
0.19198
0.191831
0.191714
0.191607
0.191522
0.191464
0.191471
0.191499
0.191554
0.191649
0.191766
0.191951
0.192156
0.192387
0.192612
0.192843
0.19307
0.193472
0.194039
0.19442
0.194437
0.193875
0.193431
0.193588
0.194858
0.196961
0.201957
0.203146
0.978085
1.56856
1.65606
1.59316
1.53373
1.47535
1.4186
1.37687
1.32375
1.28882
1.25578
1.23467
1.18137
1.14737
1.12341
1.09942
1.08266
1.05871
1.04708
1.03973
1.03126
1.06826
1.11791
1.17907
1.23179
1.31692
1.3475
1.39036
1.42641
1.45793
1.48147
1.51652
1.58248
1.64936
1.73019
1.82288
1.88848
1.93146
1.95799
1.973
1.98136
1.98571
1.98751
1.98697
1.98617
1.98375
1.98155
1.97913
1.97779
1.97646
1.97654
1.97585
1.97505
1.97358
1.97255
1.97164
1.97235
1.9728
1.97626
1.97844
1.98333
1.98694
1.9921
1.99354
1.99587
1.99196
1.99121
0.196538
0.197125
0.196901
0.196885
0.196754
0.196607
0.196423
0.196226
0.195999
0.195762
0.195512
0.195258
0.194974
0.194698
0.194431
0.194146
0.193849
0.193576
0.193313
0.193052
0.192802
0.192583
0.192362
0.192141
0.191962
0.191806
0.191683
0.191567
0.19147
0.191383
0.191332
0.191308
0.191308
0.191322
0.191356
0.191418
0.191497
0.191585
0.191696
0.191835
0.192017
0.192241
0.192499
0.192773
0.193306
0.193821
0.194497
0.195309
0.196134
0.196354
0.195236
0.208749
0.555191
1.41715
1.50306
1.41039
1.34858
1.31577
1.2691
1.25534
1.20513
1.18178
1.16589
1.15823
1.09465
1.07046
1.05076
1.04404
1.02045
1.00774
0.981019
0.986045
0.976576
1.0173
1.01997
1.11685
1.16287
1.23009
1.23623
1.27881
1.30991
1.33635
1.36115
1.39044
1.43483
1.49665
1.57797
1.67213
1.78546
1.86937
1.92102
1.95002
1.96534
1.97346
1.97656
1.97832
1.97864
1.97763
1.97766
1.97622
1.97477
1.97373
1.9736
1.97284
1.97271
1.97221
1.97203
1.97143
1.97266
1.97298
1.97603
1.97824
1.98261
1.98515
1.98872
1.98911
1.99008
1.98431
1.98215
0.196546
0.197127
0.196903
0.196886
0.196756
0.196609
0.196425
0.196224
0.196001
0.195764
0.19551
0.195251
0.194983
0.194696
0.194418
0.194141
0.193847
0.193567
0.193305
0.19305
0.192792
0.192564
0.192344
0.192127
0.191941
0.191787
0.191662
0.191549
0.191458
0.191387
0.191371
0.191396
0.191437
0.191514
0.191641
0.191801
0.191973
0.192164
0.192329
0.192545
0.192721
0.192904
0.192993
0.192938
0.192832
0.192753
0.192305
0.190798
0.188266
0.182292
0.17706
0.173302
0.196196
0.991629
1.42362
1.28252
1.23319
1.19325
1.17466
1.14599
1.13835
1.11224
1.12371
1.07671
1.06054
1.007
0.997885
0.99718
0.978462
0.967984
0.932868
0.944735
0.92721
0.969494
0.97358
1.08129
1.11139
1.15103
1.16813
1.20057
1.22605
1.24386
1.27429
1.29727
1.33337
1.38266
1.43473
1.50658
1.61647
1.74233
1.8503
1.90919
1.93996
1.95783
1.96542
1.96851
1.97044
1.97018
1.97053
1.97018
1.96993
1.96942
1.96895
1.96852
1.96919
1.96924
1.97023
1.97031
1.97266
1.97277
1.97608
1.97686
1.98053
1.98233
1.98462
1.9839
1.98378
1.97608
1.97277
0.196549
0.197128
0.196904
0.196887
0.196756
0.196609
0.196426
0.196222
0.196
0.195766
0.195509
0.195244
0.194983
0.194691
0.194411
0.194139
0.193852
0.193559
0.193295
0.193042
0.192787
0.19254
0.19231
0.19209
0.191901
0.19174
0.19161
0.191488
0.191375
0.191275
0.191195
0.191137
0.191104
0.191074
0.191073
0.191094
0.191114
0.191149
0.191182
0.191223
0.191267
0.191296
0.191281
0.191206
0.191271
0.191478
0.19199
0.19234
0.192531
0.192446
0.195376
0.20571
0.235019
1.10217
1.35934
1.28531
1.20884
1.17543
1.14065
1.12392
1.09716
1.10943
1.07943
1.07701
1.02098
0.993862
0.983447
0.970877
0.965428
0.945417
0.923035
0.914348
0.929351
0.920714
0.996371
1.04648
1.09723
1.10459
1.12635
1.13322
1.16976
1.16841
1.18249
1.20994
1.24155
1.28205
1.32262
1.37484
1.45141
1.55931
1.70674
1.83019
1.89861
1.93092
1.94648
1.95154
1.95613
1.95871
1.96005
1.96135
1.96264
1.96396
1.96422
1.96522
1.96652
1.96773
1.96993
1.97079
1.97406
1.9734
1.97636
1.9755
1.97856
1.97784
1.97925
1.97707
1.97522
1.96651
1.96372
0.196557
0.19713
0.196905
0.196888
0.196757
0.19661
0.196426
0.196221
0.195995
0.195767
0.195504
0.195241
0.194983
0.194685
0.194402
0.194133
0.193848
0.193549
0.193282
0.193031
0.192769
0.192516
0.192286
0.192065
0.191871
0.191708
0.191572
0.191455
0.191347
0.191262
0.191206
0.191214
0.191235
0.191288
0.191379
0.191508
0.191631
0.19177
0.191937
0.192104
0.192221
0.192285
0.192254
0.192081
0.192061
0.192036
0.192009
0.19159
0.190446
0.187372
0.18524
0.190677
0.269937
1.00899
1.23666
1.28956
1.22927
1.20581
1.16191
1.13127
1.10986
1.0952
1.10375
1.05
1.0354
0.983027
0.987299
0.965734
0.958698
0.946408
0.92337
0.914054
0.932492
0.925382
1.01246
1.06099
1.10113
1.094
1.1195
1.10493
1.12873
1.13665
1.13723
1.15232
1.17739
1.20977
1.23916
1.2754
1.32502
1.40801
1.51616
1.67599
1.81978
1.88618
1.91888
1.93317
1.94091
1.94583
1.95051
1.95474
1.95677
1.95963
1.96152
1.96373
1.96546
1.96733
1.96958
1.97056
1.9739
1.97226
1.97467
1.97302
1.97517
1.97381
1.97458
1.96996
1.96708
1.95628
1.95329
0.19656
0.197132
0.196906
0.196889
0.196757
0.19661
0.196425
0.196221
0.195993
0.195767
0.1955
0.195237
0.19498
0.194683
0.194398
0.194125
0.193839
0.193534
0.193265
0.193016
0.192748
0.192485
0.19225
0.192025
0.19182
0.191647
0.191499
0.191366
0.191239
0.191113
0.191005
0.190912
0.190834
0.190763
0.19072
0.190681
0.190653
0.190603
0.190542
0.190458
0.190421
0.190455
0.190495
0.190446
0.190371
0.190366
0.190455
0.190807
0.191547
0.192597
0.1932
0.210824
0.386394
0.977487
1.14928
1.28574
1.25933
1.23708
1.18513
1.15245
1.13185
1.11317
1.12328
1.05708
1.04688
0.994467
0.991638
0.98316
0.966025
0.956848
0.932536
0.925383
0.938742
0.969228
1.04474
1.09391
1.11597
1.08478
1.11166
1.11019
1.09782
1.11074
1.12025
1.119
1.12712
1.1469
1.16669
1.19235
1.22563
1.28024
1.35745
1.48013
1.66032
1.80851
1.8738
1.90162
1.91757
1.92826
1.93567
1.94228
1.94794
1.95499
1.95757
1.96056
1.96396
1.96699
1.96966
1.97155
1.97535
1.97251
1.97431
1.97124
1.97293
1.96929
1.96903
1.9633
1.95987
1.94646
1.94534
0.196567
0.197135
0.196908
0.19689
0.196758
0.19661
0.196425
0.196219
0.195992
0.195766
0.195496
0.195232
0.194975
0.194679
0.194388
0.194113
0.193828
0.193519
0.193244
0.19299
0.19272
0.192453
0.192215
0.191989
0.191779
0.191594
0.191442
0.191316
0.191196
0.191087
0.190997
0.190942
0.190917
0.190933
0.190985
0.19107
0.191162
0.191255
0.191361
0.191481
0.191594
0.191733
0.191862
0.192028
0.192127
0.192072
0.192023
0.192118
0.192421
0.193661
0.196422
0.217769
0.641713
0.907768
1.02829
1.17669
1.23662
1.25658
1.19832
1.16963
1.14364
1.1283
1.13309
1.06432
1.04519
1.00478
0.999637
0.978669
0.975873
0.950932
0.940124
0.925246
0.932928
1.0239
1.09891
1.11496
1.12941
1.1014
1.0962
1.10304
1.09809
1.08745
1.08902
1.09502
1.09561
1.10387
1.1156
1.13153
1.15029
1.17881
1.23125
1.31714
1.45973
1.65221
1.7932
1.84897
1.88065
1.90043
1.91506
1.9286
1.9376
1.94555
1.95106
1.95625
1.96105
1.9645
1.96865
1.97091
1.97489
1.97159
1.97332
1.96974
1.97033
1.96447
1.96343
1.95501
1.95067
1.93779
1.9358
0.196571
0.197136
0.196909
0.19689
0.196758
0.196609
0.196425
0.196219
0.195989
0.195763
0.195495
0.195227
0.194971
0.194674
0.194377
0.194102
0.193817
0.193503
0.193223
0.192968
0.192694
0.192414
0.192166
0.191939
0.191719
0.191518
0.191346
0.191199
0.191048
0.190897
0.190751
0.19062
0.1905
0.190384
0.190279
0.190177
0.190087
0.189995
0.189886
0.18978
0.189681
0.189625
0.189539
0.189344
0.188955
0.188779
0.188708
0.188897
0.188673
0.188063
0.188316
0.206964
0.756887
0.870691
0.940892
1.02336
1.10507
1.22233
1.18129
1.18669
1.13157
1.16187
1.09723
1.08478
1.02725
1.01631
0.999257
0.996492
0.969329
0.966209
0.948575
0.944363
0.95817
1.08977
1.10414
1.13563
1.11382
1.11661
1.09551
1.09644
1.08822
1.08521
1.07739
1.07689
1.07396
1.07466
1.07872
1.0824
1.08856
1.10338
1.13668
1.19353
1.29818
1.48686
1.67197
1.77792
1.83345
1.87068
1.89234
1.91013
1.92431
1.93747
1.94542
1.95189
1.95792
1.96273
1.96803
1.97052
1.9754
1.97137
1.97279
1.9684
1.9672
1.96083
1.95687
1.94679
1.94216
1.92802
1.92571
0.196576
0.197139
0.196911
0.196891
0.196758
0.196609
0.196424
0.196217
0.195986
0.19576
0.195491
0.195223
0.194961
0.194671
0.194366
0.194082
0.193802
0.193484
0.193197
0.192931
0.192661
0.192372
0.192119
0.191889
0.191664
0.19145
0.191266
0.191106
0.190958
0.190818
0.190696
0.19061
0.190535
0.190492
0.190479
0.190502
0.190556
0.190593
0.19066
0.190726
0.190843
0.190998
0.191151
0.191319
0.191413
0.191512
0.191552
0.192154
0.1921
0.192157
0.205944
0.29984
0.856587
0.888449
0.907966
0.929295
0.993909
1.11127
1.15574
1.1989
1.14598
1.16189
1.09371
1.0827
1.02474
1.02031
1.00049
0.99752
0.963128
0.958868
0.951185
0.965124
1.04469
1.09947
1.12314
1.12291
1.10719
1.10577
1.10236
1.08985
1.09032
1.07527
1.07239
1.06668
1.06298
1.06007
1.05831
1.05438
1.05207
1.05968
1.07858
1.10996
1.18609
1.35131
1.5584
1.70373
1.78319
1.83133
1.86188
1.88745
1.90983
1.92591
1.94007
1.94923
1.95692
1.96205
1.96695
1.96995
1.97579
1.97085
1.97224
1.96609
1.96504
1.95599
1.95128
1.93909
1.93406
1.91878
1.91664
0.19658
0.19714
0.196911
0.196891
0.196758
0.196609
0.196423
0.196217
0.195984
0.195756
0.195491
0.195219
0.194948
0.194667
0.194353
0.194063
0.193779
0.193469
0.193173
0.192896
0.192626
0.192335
0.192064
0.191821
0.191592
0.19136
0.191145
0.190954
0.190779
0.190601
0.190418
0.190253
0.190094
0.189931
0.189803
0.189658
0.189515
0.189333
0.189142
0.188977
0.188806
0.188616
0.188388
0.188184
0.187846
0.18778
0.187431
0.187388
0.186673
0.185558
0.206242
0.556169
0.885741
0.900453
0.90056
0.900543
0.932847
0.981958
1.14409
1.15822
1.21075
1.14233
1.14594
1.05812
1.04103
1.02739
1.02884
0.996583
0.984384
0.981009
1.00025
1.02123
1.15325
1.15978
1.1793
1.14633
1.12998
1.11642
1.11478
1.10264
1.09252
1.0841
1.07625
1.06585
1.05903
1.05476
1.04915
1.04225
1.04027
1.0477
1.06217
1.08577
1.14995
1.29094
1.49585
1.66318
1.75911
1.81717
1.85179
1.87955
1.8985
1.91501
1.93099
1.94406
1.9558
1.96091
1.96623
1.96954
1.97401
1.96958
1.97086
1.9639
1.96132
1.95047
1.94612
1.92967
1.92588
1.90886
1.90781
0.196584
0.197142
0.196913
0.196892
0.196758
0.196608
0.196421
0.196217
0.195984
0.195749
0.19549
0.19521
0.194936
0.19466
0.194342
0.194044
0.193757
0.193452
0.193138
0.192849
0.192578
0.192289
0.192003
0.191748
0.191514
0.191273
0.191039
0.190839
0.190659
0.190497
0.190336
0.190186
0.190066
0.189963
0.189903
0.189867
0.189829
0.189759
0.189758
0.189805
0.189878
0.189937
0.190021
0.190092
0.190251
0.190319
0.190395
0.190735
0.19156
0.191312
0.213921
0.754471
0.919217
0.917314
0.910823
0.911132
0.917259
0.924648
1.02086
1.07465
1.17763
1.12231
1.16581
1.04551
1.03869
1.03048
1.04051
1.02778
1.02229
1.10106
1.17507
1.25293
1.30758
1.29308
1.27689
1.24107
1.21372
1.19871
1.17784
1.15696
1.13801
1.12349
1.10781
1.09553
1.08414
1.0722
1.06068
1.05145
1.05175
1.06508
1.07753
1.11346
1.18614
1.3162
1.49494
1.65569
1.75605
1.81309
1.85196
1.87917
1.89833
1.91309
1.92554
1.93602
1.94873
1.95545
1.96264
1.96639
1.97103
1.96694
1.96864
1.96103
1.95766
1.94591
1.93826
1.92103
1.91783
1.89806
1.898
0.196587
0.197143
0.196913
0.196892
0.196758
0.196607
0.196419
0.196216
0.195985
0.195739
0.195491
0.195205
0.194923
0.194646
0.194336
0.194025
0.193728
0.19343
0.193106
0.192808
0.192528
0.192241
0.191939
0.191665
0.191416
0.191169
0.190906
0.190667
0.190451
0.19026
0.190062
0.189831
0.189622
0.189418
0.189246
0.189087
0.188879
0.188544
0.188313
0.188124
0.187916
0.187491
0.18693
0.186633
0.186438
0.186181
0.185615
0.18352
0.180996
0.185628
0.214319
0.834288
0.929687
0.927452
0.919048
0.916237
0.928348
0.935016
0.927786
0.968368
1.12531
1.10933
1.18335
1.06333
1.11126
1.13753
1.20264
1.26375
1.33459
1.41991
1.51167
1.53384
1.52973
1.49103
1.45828
1.41565
1.38366
1.34994
1.31403
1.28281
1.25012
1.22683
1.2007
1.17942
1.1632
1.14555
1.13171
1.12418
1.12396
1.14221
1.15898
1.21346
1.28725
1.39393
1.53471
1.66432
1.74899
1.79961
1.84502
1.87431
1.89785
1.91344
1.92745
1.93457
1.94678
1.95309
1.96152
1.96491
1.96873
1.96455
1.96701
1.95858
1.95501
1.94022
1.93268
1.91194
1.90851
1.88463
1.88914
0.19659
0.197145
0.196914
0.196892
0.196757
0.196606
0.196416
0.196215
0.195982
0.19573
0.195484
0.195203
0.194912
0.194627
0.194329
0.194005
0.193701
0.193404
0.193074
0.19276
0.192469
0.192182
0.191866
0.191577
0.191315
0.191059
0.190778
0.190521
0.190298
0.190094
0.18992
0.189725
0.189526
0.189368
0.189246
0.189135
0.188994
0.188802
0.188707
0.188659
0.188653
0.188652
0.18872
0.188801
0.189016
0.188898
0.189208
0.188628
0.188424
0.205791
0.342245
0.935184
0.949791
0.95076
0.948272
0.950571
0.947552
0.930221
0.920669
0.953306
1.06759
1.13429
1.2409
1.21804
1.34525
1.44249
1.54837
1.61886
1.65899
1.67903
1.69045
1.68566
1.67276
1.64936
1.62724
1.60078
1.57898
1.55196
1.52243
1.49276
1.46197
1.4326
1.4023
1.37384
1.35004
1.32768
1.31047
1.29958
1.29363
1.29741
1.32139
1.3537
1.39807
1.47022
1.57889
1.68444
1.7573
1.80798
1.83891
1.86461
1.88374
1.8988
1.9141
1.92678
1.94098
1.94871
1.95789
1.96223
1.96456
1.96168
1.96403
1.95586
1.95097
1.93536
1.92651
1.90427
1.89822
1.8759
1.88007
0.196592
0.197145
0.196914
0.196892
0.196757
0.196605
0.196414
0.196212
0.195979
0.195724
0.195474
0.195202
0.194901
0.19461
0.194316
0.193983
0.19367
0.193372
0.19304
0.19271
0.192407
0.192118
0.191797
0.191484
0.191197
0.190928
0.190635
0.190338
0.190071
0.189824
0.189617
0.189385
0.189099
0.18886
0.18865
0.188463
0.188253
0.18796
0.187603
0.187295
0.187
0.186647
0.18641
0.186136
0.186009
0.18572
0.185611
0.185003
0.184714
0.209382
0.629096
0.942775
0.951582
0.951674
0.955299
0.961629
0.962533
0.941068
0.931571
0.994691
1.1238
1.29938
1.47116
1.57761
1.61875
1.66544
1.69196
1.70989
1.71912
1.72242
1.71963
1.71208
1.70732
1.69903
1.6881
1.68069
1.6736
1.66203
1.64818
1.63588
1.61816
1.5989
1.58035
1.56036
1.5392
1.5154
1.49287
1.47106
1.45495
1.44368
1.4449
1.45205
1.48227
1.5327
1.61601
1.69393
1.76134
1.79972
1.83533
1.8607
1.88011
1.8941
1.90889
1.91932
1.93268
1.94046
1.95094
1.95511
1.95802
1.95624
1.95907
1.95164
1.94635
1.93084
1.91893
1.8961
1.8883
1.86535
1.86756
0.196594
0.197146
0.196915
0.196892
0.196756
0.196604
0.196412
0.196206
0.195977
0.195718
0.195464
0.195195
0.194886
0.194591
0.194299
0.193963
0.19364
0.193333
0.193001
0.192656
0.192339
0.192046
0.19172
0.191381
0.191074
0.190798
0.190503
0.190177
0.189891
0.189638
0.189421
0.189206
0.188945
0.188694
0.188474
0.188269
0.188123
0.187919
0.187699
0.187427
0.187292
0.187227
0.187269
0.18752
0.187769
0.187922
0.187799
0.18757
0.189021
0.216071
0.797446
0.949607
0.949706
0.949343
0.963962
0.977302
0.981125
0.96935
0.992882
1.12853
1.33281
1.55817
1.68961
1.69668
1.69734
1.7006
1.70804
1.70562
1.71141
1.71261
1.71366
1.71581
1.71399
1.70744
1.69945
1.70196
1.69862
1.69019
1.68612
1.68167
1.67039
1.65703
1.64246
1.62703
1.61045
1.59092
1.56998
1.54764
1.52613
1.51235
1.51009
1.51505
1.53636
1.57513
1.6365
1.70465
1.76131
1.79562
1.82876
1.85009
1.87459
1.88714
1.90431
1.91256
1.92662
1.93282
1.94423
1.94755
1.95198
1.94968
1.95509
1.94586
1.94236
1.92539
1.91412
1.88694
1.87991
1.8518
1.85625
0.196595
0.197146
0.196915
0.196891
0.196755
0.196602
0.19641
0.196201
0.195974
0.195714
0.195455
0.195188
0.194874
0.194573
0.194281
0.193941
0.193608
0.193292
0.192961
0.1926
0.19227
0.191969
0.191642
0.191276
0.190948
0.19064
0.190341
0.190002
0.189663
0.189363
0.189092
0.188858
0.188563
0.188231
0.187964
0.18768
0.187448
0.187205
0.186897
0.186435
0.185987
0.185567
0.185294
0.185106
0.184701
0.18386
0.18139
0.179
0.18916
0.230693
0.85973
0.952137
0.957144
0.958466
0.968223
0.981877
0.986487
0.991528
1.08128
1.30217
1.55669
1.70239
1.71388
1.70407
1.70204
1.70121
1.69415
1.68968
1.68518
1.68371
1.68539
1.68832
1.68995
1.69482
1.69964
1.69836
1.69458
1.69405
1.69226
1.68523
1.67795
1.66926
1.65792
1.6466
1.6321
1.61561
1.59842
1.58293
1.56525
1.55273
1.54963
1.55328
1.57071
1.60085
1.65002
1.70701
1.75556
1.7956
1.82174
1.84466
1.86377
1.87897
1.89441
1.90548
1.91735
1.92446
1.93551
1.94088
1.94482
1.94437
1.94765
1.94042
1.93741
1.91973
1.90762
1.8773
1.87061
1.83764
1.84586
0.196595
0.197146
0.196914
0.19689
0.196754
0.1966
0.196408
0.196196
0.19597
0.195709
0.195444
0.195179
0.194861
0.194553
0.194257
0.193922
0.193574
0.193246
0.192918
0.192544
0.192198
0.191879
0.191553
0.191173
0.190816
0.19048
0.190184
0.189858
0.189479
0.18915
0.188852
0.188603
0.188324
0.187972
0.187679
0.187409
0.187121
0.186937
0.186631
0.186306
0.185794
0.18541
0.185109
0.18514
0.185152
0.185284
0.184894
0.183289
0.204859
0.445925
0.935195
0.953276
0.953658
0.95601
0.969671
0.992641
1.01734
1.06531
1.26272
1.5429
1.69597
1.71699
1.7052
1.69032
1.68431
1.67872
1.67731
1.67521
1.67213
1.66678
1.66277
1.66282
1.66425
1.66619
1.66979
1.67364
1.67877
1.6806
1.68065
1.68006
1.67643
1.66961
1.6605
1.65106
1.63958
1.62638
1.61227
1.60139
1.58938
1.58007
1.57466
1.57772
1.59115
1.61617
1.65836
1.70628
1.75164
1.78456
1.81117
1.83382
1.85356
1.87008
1.88561
1.89715
1.90858
1.91523
1.92732
1.93208
1.93651
1.93612
1.94003
1.93532
1.93033
1.91375
1.89954
1.86918
1.85775
1.82728
1.83332
0.196594
0.197145
0.196914
0.196889
0.196753
0.196599
0.196406
0.196192
0.195965
0.195705
0.195434
0.195168
0.194854
0.194537
0.194229
0.193904
0.193539
0.193196
0.192867
0.192492
0.192124
0.191781
0.191453
0.191072
0.190678
0.19032
0.189982
0.189666
0.189289
0.188886
0.188531
0.188207
0.187895
0.187523
0.18715
0.186838
0.186501
0.186313
0.186031
0.18578
0.185527
0.185357
0.185273
0.185442
0.18601
0.186385
0.186662
0.187178
0.21528
0.746016
0.949622
0.952264
0.94903
0.953121
0.978791
1.01847
1.06661
1.22813
1.5241
1.69723
1.7213
1.70349
1.6818
1.672
1.66628
1.66185
1.65893
1.6576
1.65347
1.65059
1.6448
1.64223
1.6378
1.63652
1.63755
1.63885
1.64437
1.65099
1.65656
1.66084
1.66021
1.65744
1.65314
1.64806
1.63981
1.62963
1.61755
1.60854
1.60072
1.59435
1.58999
1.59329
1.60402
1.62464
1.65922
1.70169
1.74647
1.77765
1.80395
1.82264
1.84416
1.85832
1.87616
1.88648
1.89911
1.90497
1.9187
1.92283
1.92914
1.92726
1.93447
1.92685
1.92376
1.90724
1.89215
1.85987
1.84703
1.81515
1.81995
0.196594
0.197144
0.196913
0.196888
0.196751
0.196597
0.196404
0.196188
0.19596
0.195701
0.195424
0.195152
0.194848
0.194517
0.194198
0.193879
0.193505
0.193149
0.19281
0.192445
0.19205
0.191685
0.191351
0.190967
0.190534
0.190159
0.18979
0.189498
0.189142
0.188692
0.188297
0.187944
0.187639
0.18732
0.186925
0.186586
0.186227
0.185898
0.185663
0.185315
0.184645
0.183603
0.182986
0.18238
0.181965
0.180023
0.177366
0.183175
0.232661
0.841623
0.949058
0.957682
0.951783
0.957522
1.00116
1.08324
1.20382
1.49072
1.69509
1.7125
1.70459
1.68305
1.66619
1.66489
1.65809
1.64824
1.64077
1.63871
1.63579
1.63475
1.63215
1.62809
1.62289
1.6171
1.61445
1.61289
1.61482
1.62015
1.6245
1.63191
1.63783
1.64102
1.64006
1.63598
1.6305
1.62606
1.61964
1.61234
1.60609
1.60066
1.59857
1.60146
1.61129
1.62999
1.66043
1.69748
1.73497
1.76746
1.79355
1.81438
1.83386
1.84953
1.86544
1.87712
1.88828
1.895
1.90798
1.91389
1.91949
1.91892
1.92553
1.91841
1.91705
1.89964
1.88501
1.84984
1.83662
1.80066
1.80587
0.196591
0.197142
0.196912
0.196887
0.196749
0.196595
0.196402
0.196184
0.195952
0.195699
0.195415
0.195134
0.194841
0.194499
0.194167
0.193846
0.193478
0.193104
0.192746
0.192389
0.191976
0.191592
0.191238
0.190856
0.190392
0.189983
0.189594
0.189253
0.188924
0.18849
0.187973
0.187533
0.187102
0.18672
0.18629
0.185793
0.185376
0.184998
0.184772
0.184454
0.18407
0.183344
0.183515
0.1838
0.184679
0.185044
0.18471
0.204893
0.489314
0.917711
0.956547
0.962548
0.955293
0.972901
1.06666
1.23389
1.47134
1.6865
1.7052
1.67809
1.6792
1.66725
1.64783
1.64167
1.64022
1.63592
1.62888
1.62366
1.62058
1.61745
1.61561
1.61196
1.61032
1.60336
1.59728
1.59267
1.59077
1.59281
1.59632
1.60372
1.61069
1.61598
1.61974
1.62109
1.62075
1.61756
1.61511
1.6117
1.60795
1.60438
1.60312
1.60596
1.61524
1.63198
1.65954
1.69351
1.72858
1.75906
1.78256
1.8044
1.82174
1.83825
1.85374
1.86716
1.87827
1.88501
1.89853
1.90439
1.90997
1.9101
1.91585
1.91233
1.90828
1.89193
1.87615
1.84051
1.82485
1.78703
1.7925
0.19659
0.197141
0.19691
0.196886
0.196747
0.196592
0.196399
0.196179
0.195942
0.195695
0.195406
0.195117
0.19483
0.194484
0.194143
0.19381
0.193453
0.193057
0.192685
0.192325
0.191914
0.191504
0.191124
0.190739
0.190274
0.189819
0.189416
0.189023
0.188749
0.188343
0.18779
0.187328
0.18696
0.186638
0.186349
0.186022
0.185737
0.185498
0.18539
0.185314
0.185203
0.18455
0.184152
0.183927
0.184155
0.184718
0.185775
0.212343
0.771638
0.949351
0.975896
0.986019
0.976855
1.011
1.2035
1.4632
1.66378
1.71977
1.69147
1.66625
1.66217
1.65492
1.64096
1.6301
1.6283
1.62552
1.61942
1.61211
1.60811
1.6037
1.60257
1.59894
1.59659
1.59179
1.58622
1.57933
1.57501
1.57396
1.57454
1.57816
1.58524
1.59158
1.59979
1.60526
1.60782
1.60766
1.6058
1.60273
1.60398
1.60345
1.60406
1.60673
1.61513
1.63151
1.65542
1.68557
1.71925
1.74889
1.77428
1.79422
1.812
1.82656
1.84302
1.85576
1.86803
1.87438
1.88864
1.8941
1.90078
1.89986
1.90721
1.90247
1.89878
1.88377
1.86668
1.83049
1.81214
1.77311
1.77768
0.196586
0.197138
0.196908
0.196884
0.196745
0.19659
0.196396
0.196176
0.195934
0.195691
0.195397
0.195101
0.19481
0.194474
0.194117
0.193774
0.193421
0.19301
0.192623
0.192255
0.191851
0.19141
0.191
0.190617
0.190161
0.189653
0.189215
0.188794
0.188484
0.188119
0.187598
0.186931
0.18639
0.185869
0.18534
0.184809
0.184159
0.183379
0.182653
0.182168
0.181495
0.180632
0.179096
0.178365
0.177897
0.178503
0.19256
0.264691
0.870521
0.942659
0.979904
1.0082
1.03265
1.1481
1.45326
1.65128
1.69491
1.69613
1.67359
1.64858
1.64245
1.64284
1.63557
1.6221
1.61654
1.61328
1.60688
1.59911
1.5959
1.59276
1.59219
1.58859
1.58506
1.58152
1.57694
1.57247
1.5655
1.56091
1.5571
1.55799
1.56189
1.5675
1.57578
1.58402
1.58904
1.59223
1.59461
1.59779
1.60047
1.60267
1.60244
1.60675
1.61475
1.62872
1.64987
1.67668
1.7078
1.73679
1.76311
1.78312
1.80149
1.81571
1.83174
1.84468
1.85657
1.86347
1.87732
1.88397
1.89109
1.89021
1.89847
1.89222
1.89041
1.87364
1.85768
1.81924
1.8009
1.75858
1.76365
0.196583
0.197136
0.196906
0.196882
0.196743
0.196587
0.196392
0.196173
0.195926
0.195684
0.19539
0.195088
0.19479
0.194463
0.194093
0.193739
0.193388
0.192975
0.192571
0.192185
0.19179
0.191326
0.190893
0.190493
0.190056
0.189509
0.189034
0.188606
0.188216
0.187937
0.187492
0.186956
0.186397
0.185949
0.185591
0.185368
0.185235
0.185208
0.185356
0.185975
0.186468
0.186712
0.186987
0.187329
0.188296
0.189463
0.220755
0.612386
0.903977
0.942607
0.976026
1.05087
1.1613
1.40536
1.65165
1.70189
1.67281
1.65644
1.64983
1.63261
1.61847
1.61522
1.61068
1.60329
1.59683
1.59344
1.58913
1.58324
1.58012
1.57815
1.57563
1.57228
1.56792
1.5657
1.56251
1.56074
1.55459
1.54944
1.54379
1.54247
1.54293
1.54779
1.55275
1.56315
1.57032
1.5792
1.58352
1.5871
1.5877
1.59431
1.59629
1.60278
1.61098
1.62462
1.64389
1.66877
1.69627
1.72523
1.751
1.77207
1.79006
1.80562
1.82115
1.83429
1.84548
1.85226
1.86602
1.87353
1.88037
1.88108
1.888
1.88375
1.88066
1.86392
1.84728
1.80849
1.78888
1.74443
1.74885
0.196578
0.197132
0.196903
0.19688
0.19674
0.196584
0.196389
0.19617
0.19592
0.195673
0.195387
0.195075
0.194769
0.194448
0.194068
0.193702
0.193348
0.19294
0.192515
0.192112
0.191716
0.191245
0.190787
0.19036
0.189926
0.189393
0.188861
0.188395
0.187943
0.187648
0.18721
0.186669
0.185844
0.185167
0.18447
0.183772
0.183013
0.182247
0.181136
0.18032
0.179285
0.177982
0.176249
0.172488
0.170381
0.178924
0.23571
0.808973
0.936479
0.95899
0.992792
1.1289
1.38448
1.61857
1.68511
1.68663
1.65211
1.62842
1.62878
1.6214
1.60572
1.59663
1.59362
1.58839
1.58249
1.57881
1.5757
1.57169
1.56901
1.56793
1.56414
1.56104
1.55555
1.55263
1.54858
1.54665
1.54226
1.53793
1.53229
1.52923
1.52887
1.53098
1.53371
1.54076
1.54801
1.55701
1.56578
1.57249
1.57822
1.58282
1.59063
1.59589
1.60714
1.61944
1.63669
1.65822
1.68489
1.71299
1.7386
1.75996
1.77845
1.79377
1.80955
1.82231
1.83368
1.84012
1.85428
1.86231
1.86956
1.86966
1.87691
1.87517
1.86994
1.85463
1.8366
1.79839
1.77668
1.73012
1.73397
0.196573
0.197129
0.196901
0.196877
0.196738
0.196581
0.196385
0.196167
0.195916
0.195662
0.195383
0.195063
0.194749
0.194432
0.19405
0.193673
0.19331
0.19291
0.192466
0.192046
0.191645
0.191178
0.190691
0.190232
0.189809
0.189301
0.188716
0.18822
0.187755
0.187417
0.187076
0.186593
0.185894
0.185258
0.184791
0.184499
0.184441
0.184537
0.184871
0.185434
0.186469
0.187287
0.188575
0.189147
0.188823
0.215367
0.538694
0.923839
0.971446
1.00613
1.1178
1.35215
1.60847
1.67095
1.65644
1.64716
1.62606
1.60363
1.5945
1.59519
1.58965
1.57986
1.57559
1.56996
1.56406
1.5604
1.55782
1.55597
1.55331
1.55268
1.54968
1.54817
1.54375
1.54106
1.53651
1.53373
1.52972
1.526
1.52144
1.51712
1.51576
1.5153
1.51855
1.52033
1.52845
1.53489
1.54887
1.55744
1.56631
1.57011
1.57865
1.58741
1.59707
1.61089
1.62767
1.64861
1.67322
1.70051
1.72626
1.74806
1.7668
1.78208
1.79772
1.81039
1.82172
1.82834
1.84246
1.85098
1.85913
1.85864
1.86704
1.86321
1.85939
1.84462
1.82567
1.78641
1.76304
1.71486
1.71968
0.196567
0.197125
0.196897
0.196874
0.196735
0.196578
0.196381
0.196165
0.195913
0.195652
0.195378
0.195052
0.19473
0.194412
0.194032
0.193644
0.19327
0.192875
0.192414
0.19198
0.191572
0.191113
0.190591
0.190115
0.189674
0.189185
0.188575
0.188048
0.187551
0.187122
0.186764