/*--------------------------------*- C++ -*----------------------------------*\
| =========                 |                                                 |
| \\      /  F ield         | OpenFOAM: The Open Source CFD Toolbox           |
|  \\    /   O peration     | Version:  2.2.x                                 |
|   \\  /    A nd           | Web:      www.OpenFOAM.org                      |
|    \\/     M anipulation  |                                                 |
\*---------------------------------------------------------------------------*/
FoamFile
{
    version     2.0;
    format      ascii;
    class       volScalarField;
    location    "0.85";
    object      pB;
}
// * * * * * * * * * * * * * * * * * * * * * * * * * * * * * * * * * * * * * //

dimensions      [1 1 -3 0 0 -1 0];

internalField   nonuniform List<scalar> 
14161
(
-0.0050841
0.00116475
-0.000418656
-2.69446e-05
-0.000281997
-0.000238007
-0.000315704
-0.000327375
-0.000367715
-0.000404068
-0.000415066
-0.000451006
-0.000476209
-0.00049934
-0.000502681
-0.000531442
-0.000546542
-0.000535166
-0.000549555
-0.000553569
-0.000546266
-0.000529553
-0.000513067
-0.000491938
-0.000465232
-0.000432351
-0.000390325
-0.000334954
-0.00028114
-0.000199471
-0.000141221
-2.95641e-05
4.02858e-05
0.000155755
0.000251753
0.000424749
0.000550283
0.000716902
0.0010012
0.00120535
0.00156355
0.00171631
0.00186221
0.00202454
0.00214744
0.00186638
0.00266643
0.000655619
0.00485512
-0.00705978
0.0203383
-0.0575393
0.196969
0.00228911
-0.0244529
-0.000235604
-0.00914424
0.000445994
-0.00102857
-0.00242586
0.00113618
-0.000789494
-0.000933789
-0.0028372
-0.00216616
0.000817243
0.00217062
0.000255755
-0.00144353
-0.00459178
-0.00377819
-0.00268396
0.00350876
0.00501423
-0.00267424
-0.012774
-0.00904224
0.0162479
0.00996005
-0.0367716
-0.0080113
0.0390009
-0.013624
0.0105674
0.00981825
-0.00242075
-0.00158748
0.00462488
0.00112766
-0.000158462
-0.000736564
0.000417766
-0.000461138
0.00232808
-0.00138958
0.000974459
-0.00162241
0.000750196
-0.00148206
0.00155031
-0.00141739
0.000876538
-0.00174785
0.00113526
-0.00189612
0.0016951
-0.00218205
0.00174387
-0.00344465
0.00310161
-0.00556575
0.00573066
-0.00897343
0.00897173
-0.0131029
0.0132478
-0.0166385
0.0169346
-0.0183987
-0.00508897
0.00116922
-0.000419792
-2.73396e-05
-0.000281945
-0.000238374
-0.000317559
-0.000325597
-0.000371764
-0.000394542
-0.000427231
-0.000438571
-0.000482885
-0.000494319
-0.000507938
-0.000527819
-0.000548214
-0.000541403
-0.000549129
-0.000551898
-0.00054584
-0.000536548
-0.000512709
-0.000496796
-0.000467067
-0.000434966
-0.00039428
-0.00033923
-0.000281728
-0.000210418
-0.000156033
-5.47775e-05
3.48022e-06
0.000111999
0.000197223
0.000353749
0.000485681
0.000658932
0.000897223
0.0011159
0.00138737
0.00156582
0.00177401
0.00199667
0.0025739
0.00337391
0.00532613
0.00437737
0.00717857
0.00153356
0.00636066
-0.00979561
0.0361341
0.046439
0.00412671
0.0172163
-0.00485884
0.0100893
0.00290191
0.000684391
0.00205245
-0.00269762
-0.00216893
-0.00110003
0.000977023
0.00247563
0.00172243
-0.00334366
-0.00375222
0.0051895
0.0105125
0.00086863
-0.0175748
-0.0131334
0.037335
0.0312893
-0.015074
-0.0646567
0.0458136
0.0685658
-0.0238427
-0.0252488
0.0194927
-0.0175187
0.00560325
-0.0130396
0.00107212
0.000851821
-0.00101604
2.48815e-05
-0.000701389
0.000344533
-0.00199005
0.000759927
-0.000334984
0.00165937
-0.00223859
0.000929456
-0.00204036
0.00164365
-0.00139906
0.00132765
-0.00183012
0.0013322
-0.00172377
0.001611
-0.00205186
0.0021584
-0.00331828
0.00339622
-0.00543727
0.0053605
-0.00857467
0.00859126
-0.0127302
0.012601
-0.0175142
0.0163725
-0.0194669
-0.00508561
0.00116683
-0.000419769
-2.77223e-05
-0.000282079
-0.000238492
-0.000316585
-0.000325625
-0.000371886
-0.000396728
-0.000426743
-0.000440026
-0.000482711
-0.000495569
-0.000506602
-0.000533324
-0.000545485
-0.000542144
-0.000547818
-0.000555809
-0.000546607
-0.000532471
-0.00051293
-0.000491987
-0.000467842
-0.000436744
-0.000394006
-0.000336982
-0.000275728
-0.000196071
-0.000131687
-1.07661e-05
5.97307e-05
0.000197261
0.000289478
0.000469447
0.000598877
0.000768302
0.00100512
0.00117669
0.00149898
0.00171587
0.00212133
0.00239323
0.00235216
0.00183865
0.0014505
0.000459817
0.00167853
0.00283166
0.0125874
0.00469921
0.0368346
0.0417869
-0.00632942
0.00608876
-0.00420682
0.00070972
0.000286886
-0.00395933
-0.00175172
-0.00286427
0.00371855
-0.00296239
-0.00359835
-0.00233214
-0.00484772
-0.00230684
0.00290937
0.000625424
-0.0102211
-0.0179126
0.00817056
0.0311238
-0.0241641
-0.0618241
0.0114875
0.0699677
-0.0118191
-0.0778402
0.0362962
0.0256379
-0.0332895
0.0206196
0.0129886
-0.0136636
0.0115813
0.000317975
-0.000483711
0.00211651
0.000405653
0.00191059
-0.00116643
0.0005602
0.00056296
-0.000584872
-0.000198538
0.000352458
-0.00133648
0.00128807
-0.00231083
0.00163833
-0.00188206
0.00139555
-0.00175888
0.00146259
-0.00226385
0.00157029
-0.00279079
0.00306712
-0.00513239
0.00555432
-0.00905389
0.00876199
-0.0127826
0.0132639
-0.0148695
0.0173144
-0.0168609
-0.00508431
0.00116494
-0.00042013
-2.84473e-05
-0.000282089
-0.000238997
-0.00031658
-0.000328668
-0.000367784
-0.000400351
-0.000418927
-0.000451006
-0.000474678
-0.000499718
-0.000506627
-0.000533273
-0.000543654
-0.000548501
-0.000546758
-0.000554283
-0.000547067
-0.000534817
-0.000520382
-0.000501262
-0.000475484
-0.000440822
-0.000399869
-0.000345114
-0.000291375
-0.00022714
-0.000180455
-0.000103984
-5.11071e-05
3.76365e-05
0.000108775
0.00023532
0.000369518
0.000509903
0.000701557
0.0008649
0.00105986
0.0012471
0.00164294
0.00211426
0.00335568
0.00475292
0.00721196
0.00818161
0.0110408
0.0164955
0.0166756
0.0337152
-0.0303137
0.0900881
-0.0207506
0.0247723
-0.010584
0.0101812
0.000218989
0.000150671
0.000562863
-0.0037093
0.00121017
-0.00245873
-0.000900424
-0.00168532
-0.00122225
0.0018685
0.000772021
-0.00248502
-0.00294688
0.0141699
0.0185073
-0.0240249
-0.0238221
0.0586085
0.0245482
-0.0442884
-0.00781433
0.0341656
-0.00317362
-0.017573
0.0187421
0.00140692
-0.0248746
0.0119922
-0.0011622
-0.00262652
-0.00287156
0.00104979
-0.00163087
0.00120327
0.000508245
-0.000411912
-0.000445181
-0.000540279
-0.000332822
-0.000909369
-0.00019981
0.000734063
-0.00165294
0.000953119
-0.00215429
0.0016866
-0.00188467
0.00152978
-0.00219115
0.00235134
-0.00338312
0.00327372
-0.00489351
0.00531651
-0.00795358
0.00869026
-0.012365
0.011962
-0.0176855
0.0151018
-0.0182418
-0.00507699
0.00115909
-0.000419935
-2.91354e-05
-0.000282147
-0.000239648
-0.000316422
-0.000327819
-0.000371084
-0.000396786
-0.000426425
-0.000444951
-0.000478376
-0.000496959
-0.000512867
-0.000528304
-0.000543078
-0.000553159
-0.000546606
-0.000556375
-0.000547468
-0.000537473
-0.000517776
-0.000499377
-0.000474388
-0.000439596
-0.000396271
-0.000346382
-0.000278138
-0.000201839
-0.000126098
-1.81352e-05
6.04236e-05
0.000202616
0.000303493
0.000477376
0.000629525
0.000772883
0.000929838
0.000984752
0.00108918
0.0013864
0.00186853
0.0021267
0.00166374
0.000450926
-0.000513077
-0.00118961
0.000127425
0.00291208
0.00706829
0.0105312
0.0033883
0.075575
0.00106939
0.00334273
0.00579205
-0.00464779
0.00163403
-0.00502869
0.00104758
-0.00437668
0.00244568
-0.00627421
-0.000530113
0.000568228
0.000140731
-0.00115151
-0.00203519
-0.00176103
0.00449257
0.000136049
-0.00666764
-0.00182823
0.0194808
-0.000434665
-0.0257489
0.0150296
0.0100866
-0.0138797
-0.00421541
0.00527855
-0.000268389
-0.0136474
0.00841788
0.00659618
-0.00775796
0.0070353
0.00034851
0.00202022
-0.000729059
0.000162327
-0.000193601
0.00114588
-0.000656189
0.0018181
-0.00185088
0.00117081
-0.00100786
0.000809296
-0.00102399
0.00105409
-0.00193785
0.00072437
-0.00173233
0.0014505
-0.00195432
0.00247242
-0.00324272
0.00315834
-0.00564742
0.0051679
-0.00925448
0.00863082
-0.0119993
0.0123534
-0.0151205
0.0166783
-0.0188191
-0.00507334
0.00115494
-0.000419924
-3.02091e-05
-0.000282295
-0.000239923
-0.000317554
-0.000326193
-0.000376315
-0.000388683
-0.000432544
-0.000443108
-0.000479399
-0.000498379
-0.000513158
-0.000530085
-0.000545163
-0.000554942
-0.000550029
-0.000555818
-0.000554286
-0.000541753
-0.000527498
-0.000508998
-0.000483954
-0.0004522
-0.000411716
-0.000367513
-0.000315027
-0.000264209
-0.000219418
-0.000170609
-0.000126212
-6.5451e-05
-8.64411e-06
7.82747e-05
0.000180644
0.000274483
0.000405302
0.000525721
0.000778945
0.0009766
0.00127833
0.00145991
0.00231391
0.00259326
0.00369122
0.00390971
0.00626113
0.00467895
0.013584
-0.0123437
0.077985
0.0945976
-0.0544957
0.0111826
-0.00643315
0.0110954
0.00188636
0.00304969
0.00127835
0.000693461
0.00484478
-0.00293896
-0.00442752
0.00157677
-0.00222991
-0.00163364
-0.000649065
0.00116034
-0.00242004
-0.00359403
0.000501856
0.00288983
-0.0079172
0.00887774
-0.00724749
0.0121704
-0.00462535
0.002155
-0.000405247
0.000715276
-0.00246152
-0.00108839
-0.00668742
-0.00231706
0.00518027
-0.012778
0.00198474
0.00140877
-1.58001e-05
-0.000816543
-0.00147187
0.000842698
-0.00102433
0.000922105
-0.0013577
0.000707253
-0.00189544
0.00158625
-0.00211943
0.000600331
-0.000992476
0.00194595
-0.00255122
0.00230152
-0.00265151
0.00201231
-0.00384013
0.003561
-0.0054558
0.00542831
-0.00830998
0.0090788
-0.0127727
0.0124536
-0.0143506
0.014872
-0.0138631
-0.00506292
0.00114651
-0.000419595
-3.11058e-05
-0.000282873
-0.000240483
-0.000316222
-0.000330098
-0.0003732
-0.000393663
-0.000427436
-0.000449371
-0.000476915
-0.000496472
-0.000520323
-0.000528073
-0.000543372
-0.000561295
-0.000558088
-0.000556561
-0.000557385
-0.000545242
-0.000528966
-0.00050866
-0.000486502
-0.000451793
-0.000408
-0.000356518
-0.000295376
-0.000225356
-0.000151459
-5.21331e-05
3.17492e-05
0.000163816
0.000277178
0.000424706
0.000581346
0.000687015
0.000815922
0.000863997
0.000928173
0.000928428
0.000810218
0.000457446
0.000128348
-0.000269654
-0.000538998
-0.00296004
-0.00540238
-0.013955
-0.00692639
-0.052943
0.0867907
0.0259563
0.0215964
-0.0439286
-0.00548666
-0.0105575
-0.00270891
0.000651242
-0.00444368
0.00315206
-0.00544119
-0.000781061
-0.00162945
-0.00614651
0.00207864
-0.00397711
-0.000297413
-0.00145364
-0.000140712
-0.000492385
0.00106474
-0.00383971
0.00379957
0.00418166
7.51933e-05
-0.00613543
0.00288953
-0.00811334
0.00434991
-0.003685
0.00205121
-0.00320308
-0.00194798
0.00546708
0.00755354
-0.0105934
0.00817057
-0.00189865
0.00166649
0.00312029
-0.000574044
-0.000750066
-0.000101185
-4.28678e-05
-0.000220768
0.000701094
-0.0011739
6.11303e-05
-0.000868957
0.00167886
-0.00177926
0.00153808
-0.00218553
0.0024525
-0.00343095
0.00302413
-0.00398792
0.00380771
-0.00630384
0.00499038
-0.00873319
0.00722837
-0.0116013
0.0120146
-0.0167866
0.0142347
-0.0183563
-0.00505759
0.00114096
-0.000419496
-3.23245e-05
-0.000283158
-0.000241278
-0.000315869
-0.00033184
-0.000371518
-0.000393899
-0.000427196
-0.000455924
-0.000472014
-0.000500771
-0.000520237
-0.000530813
-0.000543978
-0.000561814
-0.000561009
-0.000559133
-0.000561742
-0.000552657
-0.000540037
-0.00052226
-0.000501863
-0.000470543
-0.000434527
-0.00039656
-0.000351979
-0.000317837
-0.000282099
-0.000254372
-0.000224855
-0.000197782
-0.000152636
-9.59532e-05
-2.10852e-05
2.78659e-05
0.000120265
0.000158923
0.00025873
0.000242316
0.00027363
0.000146516
0.000235439
0.000386336
0.00134305
0.00139753
0.00274911
0.00196893
0.00707619
0.0165935
0.050919
0.179066
-0.0369266
0.00940472
-0.0139642
0.00240758
-0.00709398
-0.00308704
-0.00156422
-0.00402042
0.00163705
-0.00465956
-0.0039742
0.00167772
-0.00320632
0.00230559
-0.00269206
-0.00147302
-0.00430024
0.00144448
-0.00535293
0.00278784
-0.00366494
0.0068928
-0.01097
0.0101603
-0.00177045
-0.00629202
-0.00323298
-0.00113232
-0.0017829
-0.00477177
-0.00204639
0.00104597
8.55619e-05
-0.00887315
-0.00227572
0.00290013
-0.00149271
-0.00104678
0.000183249
0.00081256
-0.00158288
0.000620799
-0.00385095
0.00230541
-0.00108868
0.000699328
-0.00272541
0.0025771
-0.00210885
0.0014894
-0.00300896
0.00235098
-0.00429737
0.00422919
-0.0039686
0.00465037
-0.00564129
0.00700215
-0.00954168
0.00995345
-0.0120909
0.011335
-0.0131836
0.0153192
-0.0161359
-0.00504577
0.00113194
-0.000419317
-3.33868e-05
-0.000283603
-0.000242555
-0.000315999
-0.000333279
-0.000374584
-0.000390873
-0.000430634
-0.000456794
-0.000471853
-0.000501018
-0.000530832
-0.000530948
-0.000545203
-0.000563071
-0.000569125
-0.000559124
-0.000566243
-0.000556254
-0.00054315
-0.000524295
-0.000504321
-0.000471156
-0.000433874
-0.000385982
-0.00033582
-0.000270598
-0.000201878
-0.000115578
-3.45715e-05
8.38614e-05
0.000198013
0.000348436
0.000467744
0.000581917
0.000689197
0.000755788
0.000794
0.000685147
0.000441307
1.04414e-05
-0.000122677
-0.000252126
-8.05516e-05
-0.000556525
-0.00196394
-0.00626387
-0.00878567
-0.00971337
0.0275096
0.0899921
0.0310453
-0.00813525
-0.00748637
0.00534583
-0.0118246
0.00857699
-0.0163402
0.0128787
-0.0136517
0.00590437
-0.00355993
-0.000291508
-0.00197545
-0.00277713
-0.000338595
-0.00463893
-0.00189299
-0.00180972
-0.000167148
-0.000584936
0.00206148
0.00801524
-0.00620669
0.00136646
0.000515984
-0.00653381
0.00705352
-0.00476708
-0.00203016
-0.00211445
-0.00371295
0.00463637
0.00261722
-0.000464282
-0.00966857
0.0073338
0.00381276
-0.00519437
0.00361173
0.00104897
-0.000638862
0.000591013
-0.000377891
-0.00115286
-0.00145205
0.00240481
-0.00149687
0.000529523
-0.00352648
0.00278352
-0.00265469
0.00250969
-0.0026053
0.00378435
-0.00504234
0.00451602
-0.00596106
0.00511719
-0.00662533
0.00746582
-0.0102997
0.0114398
-0.0126552
0.0116472
-0.0122296
-0.00503926
0.00112556
-0.00041922
-3.47353e-05
-0.000284165
-0.000242708
-0.000317071
-0.000330773
-0.000376492
-0.000387835
-0.000434177
-0.000456686
-0.000474385
-0.000499526
-0.0005282
-0.000532488
-0.000549835
-0.000567628
-0.000577671
-0.000563361
-0.000575122
-0.000570573
-0.000559444
-0.000542556
-0.000523958
-0.000499095
-0.000469932
-0.00043669
-0.000406383
-0.000379128
-0.000357524
-0.000348668
-0.000341714
-0.000331512
-0.000311568
-0.000275805
-0.000251355
-0.000264335
-0.000274974
-0.00033236
-0.000314634
-0.000198299
-4.09808e-05
-1.46041e-05
8.07292e-07
-0.000280212
-3.73749e-05
-0.000243572
0.00181712
-0.000748355
0.0119174
-0.014253
0.10035
0.0588269
-0.0173418
0.0365014
-0.0121793
-0.00158821
-0.00917521
0.00302023
-0.0131084
0.00871182
-0.0129601
0.00103079
-0.00298801
-0.00329341
0.0039582
-0.000695992
-0.000575911
-0.00107167
-0.00293936
0.00559237
0.00053327
-0.00473854
0.00658423
0.00399698
-0.00847941
0.00422768
-0.00242746
-0.00637304
-0.000112714
0.00195569
-0.00123282
-0.00333508
-0.00597793
0.00119833
-0.00309466
0.0028679
-0.00813413
-0.00170393
0.00330135
0.000354865
0.0018523
0.000925841
-0.00049834
-0.000658095
-0.000539912
0.00258478
-0.00188722
9.83713e-05
-0.00518676
0.00308044
-0.00177549
0.0025945
-0.00520883
0.00486331
-0.00483859
0.00368347
-0.00565503
0.00483792
-0.00712382
0.00549842
-0.00902995
0.00732802
-0.0103605
0.00893932
-0.0135956
0.0133249
-0.0152189
-0.00502728
0.00111714
-0.00041926
-3.58106e-05
-0.000284947
-0.000243761
-0.000317101
-0.000333737
-0.000376682
-0.000388666
-0.000433153
-0.000462135
-0.000473951
-0.000501168
-0.000532663
-0.000536532
-0.000554556
-0.000568755
-0.000585447
-0.000573318
-0.00057755
-0.000575043
-0.000564092
-0.000549462
-0.000527727
-0.000504614
-0.000470133
-0.000430446
-0.000379807
-0.000327546
-0.000269173
-0.000210322
-0.000137557
-4.62601e-05
7.43811e-05
0.000225459
0.000334863
0.000431552
0.000535495
0.000633257
0.000675026
0.000734412
0.000789599
0.000927311
0.000806512
0.000834614
0.000716755
0.00110802
0.000934005
0.00166087
0.00924561
0.00296466
0.0968934
0.0169351
0.0141613
0.00847977
0.0133653
-0.00226297
-0.00458812
0.0077538
-0.0101883
0.0125976
-0.0110744
0.00131913
-0.00348013
-0.0033153
-0.00339836
-0.00352591
-0.00341339
-0.00347954
0.00380062
-0.00311401
0.00258762
-0.00555441
-0.00338913
0.0158012
-0.00457887
-0.00499977
0.0016579
-0.00571972
0.000457873
-0.00027882
-0.00188138
-0.00117263
-0.00537707
0.000301304
-0.00322554
0.00323531
-0.00180306
-0.00484211
-0.000380866
0.00637401
-0.00062525
0.00334587
0.00270841
0.00151225
-0.00119135
-0.000963457
-0.00491573
0.00416791
0.000106832
0.00203829
-0.00383434
0.00256502
-0.00223339
0.00250451
-0.00496947
0.00444638
-0.00410681
0.00476711
-0.00454961
0.00603821
-0.00692767
0.00827883
-0.0100977
0.0110662
-0.0103695
0.0109275
-0.0119899
-0.00502001
0.0011105
-0.000419275
-3.7138e-05
-0.000285551
-0.000244931
-0.000317432
-0.000333373
-0.00037627
-0.000392196
-0.000431291
-0.000464025
-0.000473474
-0.000504032
-0.000534362
-0.000540216
-0.000556982
-0.000573011
-0.000589126
-0.000578884
-0.000584266
-0.000591593
-0.000586949
-0.000571283
-0.000552258
-0.000536484
-0.000513863
-0.000490645
-0.000474379
-0.000453125
-0.000447084
-0.000447677
-0.000460463
-0.000473513
-0.000497478
-0.000493218
-0.000502956
-0.000502979
-0.000556515
-0.000608023
-0.000607028
-0.000541025
-0.000506737
-0.000672559
-0.00115522
-0.00129296
-0.00158319
-0.00128455
-0.00137145
-0.00131336
-0.00496792
0.00617341
0.0674016
0.00233014
0.0149936
0.0136809
0.0299269
-0.00204995
0.02144
-0.0183655
0.00606833
-0.0108546
0.00337659
-0.00641514
3.31548e-05
-0.00232855
0.00334571
-0.00312647
0.00172805
0.00101979
-0.000900422
-0.00224427
0.00774867
0.00662714
0.00545298
-0.00423629
-0.00462853
-0.00509217
-0.00600169
-0.00191372
-0.00506206
-0.000527895
-0.00122634
-0.00226623
-0.00265344
-0.00300965
-0.00234977
-0.00151437
-0.00217855
-0.00477684
-0.000803189
0.00146139
-0.00215883
0.00763037
0.000114529
0.00169759
-0.00327648
0.0024694
-0.000766564
0.00127522
-0.0033224
0.00103766
-0.00210994
0.00316211
-0.0046778
0.00334798
-0.00402973
0.00497304
-0.00578428
0.00469709
-0.00668962
0.00528934
-0.00674279
0.00559493
-0.0074896
0.00826026
-0.0105487
0.0100091
-0.0107671
-0.00500883
0.00110322
-0.000419327
-3.8343e-05
-0.000286589
-0.000245604
-0.000318104
-0.000334695
-0.000377906
-0.000393984
-0.000433327
-0.000463997
-0.00047936
-0.00050542
-0.000531818
-0.000554933
-0.000554008
-0.000582365
-0.000595733
-0.00059753
-0.000591599
-0.000599548
-0.000594245
-0.000579898
-0.000562385
-0.000544347
-0.000522483
-0.000494854
-0.00045895
-0.000414012
-0.000365766
-0.000315325
-0.000267399
-0.000204032
-0.000114728
7.05052e-06
0.000160831
0.000266667
0.000340178
0.000424462
0.000556706
0.000736789
0.000820689
0.00107662
0.000780612
0.0013973
0.000794734
0.00352664
-0.000568671
0.011611
-0.0134201
0.0819996
0.028795
0.00323058
-0.00378891
-0.00315787
0.0207652
0.0118932
0.0139787
-0.0134313
0.0138441
-0.00932672
0.00318956
-0.00658347
-0.0035605
-0.000664146
-0.00220457
-0.000669099
-0.00438855
0.0017178
-0.0013824
0.00410435
0.00286116
0.00653888
-0.011242
-0.00475978
-0.00563996
-0.000719711
0.000273477
-0.0063979
-0.00303445
-0.000166888
0.00080513
-0.00180059
0.00121971
-0.00148127
0.00014109
-0.00242075
-0.00512521
-0.00247759
0.00487
-0.0011843
-0.00494503
0.00966613
0.0036359
0.00325637
-0.00114515
0.00073406
-0.00182651
0.00197867
-0.00432993
0.00494648
-0.00354606
0.00320917
-0.00509789
0.00432609
-0.00460572
0.00403568
-0.00549468
0.00642211
-0.00755403
0.00664646
-0.00898699
0.00742849
-0.00978584
0.00731114
-0.0106511
0.0107061
-0.0119381
-0.00500112
0.00109693
-0.000419503
-3.96517e-05
-0.000287395
-0.000245857
-0.000320051
-0.00033227
-0.00037921
-0.000394722
-0.000435177
-0.000460337
-0.000490157
-0.000502964
-0.00053801
-0.000557337
-0.000567063
-0.000582925
-0.000599132
-0.000604386
-0.000603831
-0.000609488
-0.000615048
-0.000609647
-0.000593134
-0.000583547
-0.000576747
-0.000569745
-0.000545242
-0.00054827
-0.000542349
-0.000553663
-0.000575551
-0.000621357
-0.000665254
-0.000677667
-0.000698562
-0.000722871
-0.00082649
-0.000892704
-0.000983675
-0.00104113
-0.00127646
-0.00128294
-0.00164359
-0.00105182
-0.00235163
-0.00106334
-0.00519464
0.00259085
-0.0193249
0.094588
0.0132221
0.00134139
-0.00656014
-0.0012249
-0.011826
0.0258653
0.0168319
0.0291609
-0.0189473
0.014109
-0.00824052
-0.00341577
0.00486102
0.0017429
0.0021993
-5.56761e-05
0.00412761
0.00174448
0.00188231
0.00197176
0.0053907
0.0168873
-0.00780736
-0.00363281
0.001554
-0.000946366
-0.00476611
-0.0022131
-0.00116547
0.00168531
-0.000846775
-0.00289467
-0.000911934
-0.000355413
-0.00163679
-0.00518152
-0.00739889
-0.00518517
0.00430665
-0.0082255
-0.00545459
0.00938133
0.00301018
0.0023274
-0.00204786
-0.000100182
5.41673e-05
0.000522609
0.00034793
0.000390969
-0.00239256
0.00458818
-0.0016492
0.00340437
-0.0044348
0.00342356
-0.00369339
0.00429759
-0.00403176
0.00477119
-0.00498893
0.00598281
-0.00720912
0.00852586
-0.00817271
0.00881123
-0.0107935
-0.00499143
0.0010907
-0.000419448
-4.08569e-05
-0.00028884
-0.00024602
-0.000322321
-0.000332751
-0.000378936
-0.000400142
-0.00043375
-0.000463983
-0.000493547
-0.000504777
-0.000539609
-0.000563393
-0.000572341
-0.000588321
-0.000610387
-0.000620854
-0.000622009
-0.000620188
-0.000628923
-0.000624124
-0.000606639
-0.000599444
-0.00059031
-0.000572487
-0.000547076
-0.000516254
-0.000470917
-0.000435308
-0.000404167
-0.000373738
-0.000298309
-0.000222304
-0.000126497
-4.86395e-05
5.39522e-05
0.000170946
0.000319226
0.000482309
0.000497503
0.000604513
0.000730839
0.000975567
0.00133742
0.00234996
0.00192361
0.00994365
-0.0076705
0.0852347
0.00478551
-0.00232398
-0.00546065
0.000679158
0.00310393
-3.12848e-05
0.000796875
0.0351681
-0.0166946
0.0164434
-0.0103934
-0.00986042
0.0059529
-0.0110801
0.00711026
-0.00854319
0.0111902
0.00380002
0.000780591
0.00872839
0.00217928
0.00516699
-0.00757907
0.000449126
0.00793163
0.00226933
0.00154031
0.00133668
0.00356153
-8.33012e-05
-0.000303234
0.000695575
0.00310065
0.00284888
0.00165733
-0.00131246
-0.00108201
0.00966084
0.0125654
0.00207831
0.00801896
0.0141528
0.00329983
0.00767057
0.00196718
0.00507742
-0.00215556
0.00312603
-0.00401451
0.00436194
-0.0036791
0.00265324
-0.00443304
0.0040948
-0.00495742
0.00610747
-0.0064195
0.00481708
-0.00562282
0.00399264
-0.00487241
0.00288266
-0.00301223
0.00433739
-0.00685981
0.00613172
-0.0078766
-0.00498389
0.00108522
-0.000419738
-4.2029e-05
-0.000289664
-0.000246687
-0.000322156
-0.000333503
-0.000378221
-0.000404525
-0.000431397
-0.000465127
-0.000495623
-0.0005131
-0.000540203
-0.000566656
-0.00058651
-0.000591796
-0.000617736
-0.000630344
-0.000634048
-0.000638659
-0.000646266
-0.000654674
-0.000645444
-0.000636255
-0.000640692
-0.000644857
-0.000647044
-0.000632966
-0.00064202
-0.000672036
-0.000695538
-0.000753701
-0.000783179
-0.000807674
-0.000873037
-0.00102046
-0.00104465
-0.00109924
-0.00111557
-0.00147953
-0.00208035
-0.00255615
-0.002149
-0.00205664
-0.00256222
-0.00467795
-0.00646244
-0.0142372
0.0265262
0.0606111
0.0146085
9.86816e-05
-0.0131004
-0.0131926
0.00145927
0.0190732
-0.00861914
0.00384732
0.0211772
0.0173044
-0.0113243
-0.0088246
0.0253332
-0.0094137
0.0236942
-0.000551975
0.00983691
0.00141834
0.00163463
0.00157056
0.000975494
0.00452304
0.000954404
0.00279935
0.00094466
0.000108671
-0.000657625
0.00178893
0.00137257
0.000892822
0.00136888
0.000737962
0.00379941
0.00382373
0.00482261
0.00359298
0.00399941
0.0150856
0.00164828
0.00954029
0.00720857
0.00703297
-0.000492918
-0.00109894
-0.000736451
0.00322356
-0.00245822
0.00361367
-0.00214105
0.00208485
-0.00420558
0.00638452
-0.00453717
0.00452169
-0.00422751
0.00395918
-0.00549493
0.00563314
-0.00653021
0.00576541
-0.00602982
0.00581278
-0.00591004
0.0043239
-0.00527778
0.00485035
-0.00750576
-0.00497522
0.00108017
-0.000419594
-4.32011e-05
-0.000291242
-0.000246656
-0.0003246
-0.000333654
-0.000377429
-0.000410321
-0.00043403
-0.000461491
-0.000502465
-0.000518644
-0.000540944
-0.000572387
-0.000593775
-0.000602323
-0.000622412
-0.000645974
-0.000651863
-0.000657104
-0.000665837
-0.000674431
-0.000668902
-0.000659777
-0.00066368
-0.000663992
-0.000652246
-0.000638655
-0.000615961
-0.000588545
-0.000570225
-0.000541798
-0.000520043
-0.000448363
-0.000470031
-0.000436486
-0.000325615
-0.000200051
-0.000112241
3.0904e-05
0.000100618
0.000228972
0.000701093
4.62875e-05
0.00255668
-0.00236406
0.00978482
-0.0181353
0.0929945
0.0398174
-0.0115318
-0.00808472
-0.00851106
0.00324773
0.00578581
-0.000571921
-0.016657
0.00221319
0.013046
0.00360694
0.0035656
0.00827383
0.0273737
-0.0149402
0.0141436
0.00159549
0.00365718
0.00738649
0.00134514
0.00157333
0.00425841
0.00541107
0.00467189
0.00420355
0.00562018
0.00750316
0.00728529
0.00991616
0.0106548
0.00966249
0.0120009
0.010567
0.0105135
0.00986059
0.00761686
0.00837388
0.00604872
0.00663373
0.00505055
0.00709922
0.00338715
0.00624816
0.00329209
0.00732441
0.0046638
-0.00143822
0.00390939
-0.00229545
0.00083412
0.00048655
0.000567916
-0.0017294
-0.000594051
0.00113978
-0.00150186
0.00198279
-0.00192174
0.00257614
-0.00227349
0.00335162
-0.00318085
0.0036671
-0.00405534
0.0051096
-0.00636558
0.00450824
-0.00432897
-0.00496846
0.00107579
-0.000419917
-4.41472e-05
-0.000291972
-0.000246848
-0.000325023
-0.000333939
-0.00037944
-0.00040935
-0.00043904
-0.000462489
-0.000501659
-0.00052525
-0.000545852
-0.000577253
-0.000606126
-0.000609651
-0.000635706
-0.000658588
-0.00067003
-0.000674115
-0.000687442
-0.000699013
-0.000710569
-0.000705091
-0.000715046
-0.000734384
-0.000754933
-0.000766598
-0.000775087
-0.000791995
-0.000825585
-0.000842128
-0.000876076
-0.000868963
-0.000943802
-0.00101045
-0.0011379
-0.00119626
-0.00132912
-0.00163107
-0.00158302
-0.00199622
-0.00138234
-0.00215099
-0.00124875
-0.00477188
0.00222707
-0.013633
0.0913901
0.0215738
-0.0124095
-0.00814529
-0.00201864
0.00988378
0.00863273
-0.0096807
-0.0343584
-0.00425781
0.0449402
0.00809757
0.00537602
0.0156223
0.000911506
0.0051085
-0.00432801
-0.00107479
-0.00207904
0.0035476
0.00413553
0.00145918
-0.001068
-0.00129413
0.000204095
0.00106608
0.00288419
0.00164718
-0.000206032
0.00184138
0.00222358
0.0021051
0.00260099
0.00239038
0.00288208
0.00390059
0.00440363
0.00581164
0.00509842
0.00533541
0.00277951
0.00201488
0.0024238
0.000608174
0.00149591
0.000793934
-0.00367661
0.00613286
-0.00474791
0.00519927
-0.00325835
0.00489993
-0.00383143
0.00519715
-0.00508112
0.00440035
-0.00577013
0.00650716
-0.0058657
0.00600915
-0.00523138
0.00336458
-0.0042108
0.00365596
-0.00410286
0.00413253
-0.00644951
0.00742466
-0.00686663
-0.0049611
0.00107191
-0.000419695
-4.50173e-05
-0.000293244
-0.00024757
-0.000325466
-0.000335872
-0.000380058
-0.000412342
-0.000442656
-0.000462655
-0.000508368
-0.000531253
-0.000552548
-0.000580082
-0.000613316
-0.000624341
-0.000644375
-0.000672112
-0.000691298
-0.000694662
-0.00071124
-0.000725494
-0.000740354
-0.000738199
-0.000746353
-0.00075535
-0.000770473
-0.000773019
-0.00075806
-0.000753986
-0.00074386
-0.000739763
-0.000751286
-0.000771814
-0.000832341
-0.000716226
-0.000677472
-0.000673539
-0.00071182
-0.000464155
-0.000447978
0.000167483
0.000384539
0.00099951
0.000876028
0.000652008
0.00472494
-0.00172124
0.0845558
0.0122432
-0.00871987
-0.00978566
0.000505837
0.0192052
0.0135411
-0.00743947
-0.036851
0.0243838
0.0481009
-0.0244595
0.0161741
-0.00144525
0.00188833
0.00377112
0.00265199
0.00227733
-0.00187302
-0.000643138
-0.00200873
0.00335725
0.00785112
0.00557724
-0.00547341
-0.00111505
0.00845949
0.00469256
-0.00117258
0.00120864
0.00157406
0.00134032
0.00186209
0.00135599
0.0014845
0.00119769
-0.000278161
0.0007295
0.000384028
0.000608272
-0.000805115
0.00120968
0.00197957
0.00108858
0.00330003
0.00152517
0.000187377
0.00205619
-0.00133243
0.0029461
-0.00379288
0.00474464
-0.00360179
0.00385203
-0.00266212
0.00418264
-0.00237301
0.00384188
-0.00502889
0.00494572
-0.00726079
0.0070068
-0.00598535
0.00471629
-0.00610573
0.00435507
-0.00526454
0.00585779
-0.00634588
-0.00495548
0.00106885
-0.000419785
-4.57525e-05
-0.000293886
-0.000248006
-0.000326344
-0.000337072
-0.000380954
-0.000413375
-0.000444132
-0.000465454
-0.000509302
-0.000537191
-0.00055674
-0.000587205
-0.000623603
-0.000636271
-0.00065837
-0.000684341
-0.000711327
-0.000715839
-0.000736658
-0.000751805
-0.000774512
-0.000789919
-0.000802415
-0.000825136
-0.000865156
-0.000896161
-0.000910089
-0.000913303
-0.000931212
-0.000965404
-0.000975986
-0.00106362
-0.00113504
-0.00115213
-0.00123593
-0.00129634
-0.0015764
-0.00176225
-0.00218295
-0.00151318
-0.00193462
-0.00230603
-0.00568826
-0.00349759
-0.0196841
0.0488514
0.0527414
0.017337
0.00375167
-0.00410425
0.00185479
0.0178469
0.00970635
-0.0190826
-0.0197673
0.0349438
0.0178815
0.00258675
0.00842008
-0.00184568
-0.00418071
0.000660459
-0.00349958
0.000228648
0.00186278
0.00114251
0.000689441
-0.00460963
-0.00478223
0.00121958
0.00530809
0.0021886
-0.00521381
-0.00254544
0.00324007
0.000131803
-0.000793418
0.000606457
-0.000212727
-0.00125124
-7.90975e-05
-0.000551927
-0.000693147
-0.000172026
-0.000849529
0.000783685
-0.000879597
0.0010362
0.000614594
0.000387453
0.000499033
-0.000338874
0.00229639
-0.00149194
0.001379
-0.00204332
0.00225453
-0.00215239
0.00107141
-0.000632068
-6.53379e-05
0.000548766
-0.00122188
0.000809856
-0.000936527
0.00156159
0.000152793
0.00187888
-0.00281888
0.00220588
-0.00187385
0.0017606
0.000191495
-0.00237612
-0.00192757
-0.00494933
0.00106604
-0.000419477
-4.62838e-05
-0.000294493
-0.000248953
-0.000326969
-0.000337366
-0.00038463
-0.000413364
-0.000449172
-0.000470256
-0.000508281
-0.000549149
-0.000562701
-0.000591563
-0.000630712
-0.000651969
-0.0006702
-0.00069589
-0.000730677
-0.000744378
-0.000759891
-0.000783362
-0.000805947
-0.000830344
-0.000838756
-0.000856956
-0.000884082
-0.000912471
-0.000926638
-0.000918393
-0.000917312
-0.000934319
-0.000950586
-0.000989571
-0.00105301
-0.00111184
-0.00114733
-0.00106518
-0.00133877
-0.00140832
-0.00200108
-0.000886512
-0.00155893
0.000448792
-0.00419011
0.00776939
-0.0257872
0.110736
0.0362703
-0.015119
-0.00874928
-0.013746
0.000351421
0.0131363
0.0132016
-0.016083
-0.000924127
0.0381953
0.00446494
-0.00173889
-0.00156455
-0.00233402
0.00273886
0.00071852
0.000838453
-0.000776613
0.000341109
-7.05986e-05
0.000583383
0.000476472
0.00238218
-0.0012799
-0.00159498
-0.00119563
0.000522725
0.00197145
-0.000894637
-0.00071036
-4.53789e-05
0.00012056
2.65573e-05
0.000549448
0.000557133