/*--------------------------------*- C++ -*----------------------------------*\
| =========                 |                                                 |
| \\      /  F ield         | OpenFOAM: The Open Source CFD Toolbox           |
|  \\    /   O peration     | Version:  2.2.x                                 |
|   \\  /    A nd           | Web:      www.OpenFOAM.org                      |
|    \\/     M anipulation  |                                                 |
\*---------------------------------------------------------------------------*/
FoamFile
{
    version     2.0;
    format      ascii;
    class       volScalarField;
    location    "0.75";
    object      By;
}
// * * * * * * * * * * * * * * * * * * * * * * * * * * * * * * * * * * * * * //

dimensions      [1 0 -2 0 0 -1 0];

internalField   nonuniform List<scalar> 
14161
(
-1.02771e-07
-3.17982e-08
-1.52374e-07
7.87188e-08
-2.92252e-07
-2.74548e-07
1.4356e-07
3.74164e-07
-3.66377e-07
-4.28423e-07
-4.49857e-07
5.13572e-07
-5.37188e-07
-1.38692e-06
4.85585e-07
1.00081e-06
-1.41835e-07
-4.95164e-07
1.41171e-07
1.45006e-07
7.83051e-07
1.61313e-06
-1.57598e-06
7.88394e-07
-1.26298e-06
2.77981e-06
3.57178e-06
6.27759e-06
3.58282e-06
-1.34986e-06
1.55554e-06
4.24715e-06
7.59286e-06
1.18319e-05
1.50278e-05
1.95268e-05
2.49652e-05
3.33286e-05
3.85355e-05
4.20731e-05
5.18487e-05
7.27935e-05
6.99471e-05
9.58151e-05
0.000114863
0.000137648
0.000170626
0.000260766
0.000167795
0.00076507
0.000363996
0.0055404
0.0226104
-0.0147703
-0.0366831
-0.0367091
-0.0280652
-0.0197543
-0.0149524
-0.0128443
-0.0110668
-0.00961131
-0.0080741
-0.00558595
-0.00374563
-0.00308449
-0.00216112
-0.00146424
-0.00137632
-0.00136473
-0.0011811
-0.000916999
-0.00118416
-0.00170631
-0.00195944
-0.00179717
-0.00191486
-0.00323857
-0.00263105
-0.0025458
-0.00265137
-0.00249093
-0.00139784
-0.000441259
-0.000256098
-0.000950943
-0.00644042
-0.00403304
-0.00227372
0.000216286
0.00219089
-0.00375417
-0.00365523
0.00609979
0.0140832
0.0446367
0.07028
0.0759235
0.0712427
0.0633452
0.0568844
0.0501199
0.0440087
0.0382786
0.0317548
0.0274386
0.0253677
0.0231382
0.0210487
0.0185763
0.0160313
0.0137689
0.0122849
0.0116128
0.0124084
0.0140615
0.0155218
0.0170616
0.016888
-3.4187e-07
-5.22649e-08
-1.62348e-07
-1.3356e-07
-1.54587e-07
-2.76947e-07
-5.01166e-08
-5.75081e-09
-2.02535e-07
-5.30147e-07
-8.58136e-07
-4.11477e-08
-3.84763e-07
-1.27215e-06
5.2044e-08
5.56927e-07
8.2277e-07
-1.5976e-06
-4.73547e-08
3.81436e-07
2.42721e-06
1.91439e-06
-2.1049e-06
4.13389e-07
2.27056e-06
5.0876e-06
1.02931e-05
1.51476e-05
6.8587e-06
-1.59843e-07
6.15479e-06
1.45452e-05
2.58178e-05
3.87522e-05
4.73736e-05
6.14164e-05
7.73755e-05
9.91366e-05
0.000119478
0.000135937
0.000171216
0.000229585
0.0002372
0.00034229
0.00039326
0.000494677
0.000607671
0.000696755
0.000870889
0.00165687
0.0016641
0.00540196
0.019291
-0.0142568
-0.0381159
-0.0530972
-0.0555591
-0.0491462
-0.0413899
-0.0376266
-0.0343055
-0.0317391
-0.0286642
-0.0223122
-0.0161344
-0.0132126
-0.0104731
-0.00767563
-0.00666734
-0.00627028
-0.00546956
-0.00472804
-0.00486482
-0.00624383
-0.00678431
-0.0066203
-0.00644139
-0.00975256
-0.0089753
-0.00853576
-0.0092984
-0.00891096
-0.00608222
-0.00277111
-0.00208413
-0.0027901
-0.0134931
-0.0120635
-0.00800623
-0.00297214
0.00333146
-0.00432169
-0.000648915
0.0286795
0.0553545
0.110173
0.144734
0.14382
0.134118
0.123919
0.117102
0.112101
0.107547
0.102459
0.0953286
0.0867709
0.0779451
0.0689352
0.0610378
0.0533915
0.0462867
0.0403157
0.0364499
0.0348515
0.0372947
0.0421008
0.0448544
0.046821
0.0461673
-5.9311e-07
-1.48779e-07
-3.48192e-07
-2.57584e-07
-1.58968e-07
-1.9835e-07
-5.18265e-07
-1.63037e-07
5.76401e-08
-8.39309e-07
-1.48018e-06
-3.92667e-07
-4.50324e-07
-1.73512e-06
-1.28317e-06
1.26967e-06
4.12724e-07
-2.34104e-06
5.63072e-07
1.32917e-06
3.82584e-06
-3.83021e-07
-2.84367e-06
1.61889e-06
6.79118e-06
1.21229e-05
1.61132e-05
1.63604e-05
1.25729e-05
3.71528e-06
1.47694e-05
3.00638e-05
4.74554e-05
6.48963e-05
8.19314e-05
0.000105911
0.000127467
0.000153314
0.000190319
0.000222544
0.000277018
0.000341345
0.000437727
0.000518815
0.000637028
0.000724835
0.000883389
0.000773031
0.00114921
0.000817374
0.00155448
-0.000976843
-0.00565407
-0.0226177
-0.0452839
-0.0726703
-0.0888038
-0.0872046
-0.0767773
-0.0710577
-0.0635461
-0.0604993
-0.0527386
-0.0396589
-0.0286901
-0.0237869
-0.0190275
-0.0137397
-0.0118492
-0.0108743
-0.00950807
-0.00846472
-0.00819755
-0.0101615
-0.0101645
-0.00990734
-0.0101636
-0.0143894
-0.0136058
-0.0126524
-0.0149276
-0.013502
-0.00951815
-0.00407607
-0.00463826
-0.00643252
-0.0197809
-0.0182383
-0.0140549
-0.00523262
0.0083628
0.00302723
0.0254932
0.129319
0.187165
0.2203
0.2286
0.216927
0.199063
0.181983
0.169596
0.160781
0.152725
0.145194
0.139102
0.131843
0.122625
0.110991
0.0998305
0.0887027
0.0782497
0.0692347
0.0628197
0.0597655
0.0634199
0.0705523
0.0738634
0.0765979
0.076016
-7.09825e-07
-1.81685e-07
-5.05934e-07
-1.77906e-07
-2.87287e-07
-4.96117e-07
-5.67036e-07
-1.60132e-07
-3.77549e-07
-1.13224e-06
-1.28593e-06
-5.17906e-07
-1.00525e-06
-1.80219e-06
-2.03286e-06
5.23512e-07
3.48995e-07
-1.7268e-06
1.59082e-06
2.03166e-06
2.56434e-06
-7.35343e-08
-9.55418e-07
3.57979e-06
1.32289e-05
1.52822e-05
1.4819e-05
1.63608e-05
1.95883e-05
1.4935e-05
2.57739e-05
4.09699e-05
6.26025e-05
8.30781e-05
0.000108271
0.000129885
0.000176282
0.000214425
0.000269288
0.000319198
0.000383331
0.000471862
0.000618964
0.000716803
0.0008891
0.00104069
0.00133734
0.00140688
0.00175029
0.000916913
0.00159002
-0.00466887
-0.0117293
-0.032793
-0.0586571
-0.0990299
-0.128658
-0.133808
-0.116779
-0.106065
-0.0978853
-0.0895561
-0.0774355
-0.0575737
-0.0353364
-0.0320322
-0.0259322
-0.0168206
-0.0138112
-0.0134017
-0.0125118
-0.0122771
-0.0121044
-0.0138944
-0.0142897
-0.0139798
-0.0148106
-0.0190433
-0.0189098
-0.0178134
-0.021489
-0.0178589
-0.0119853
-0.00483192
-0.0101307
-0.0116195
-0.0253986
-0.0273534
-0.0199355
-0.00572503
0.0149519
0.0454155
0.174952
0.285706
0.315893
0.31267
0.289616
0.261923
0.23951
0.220712
0.20608
0.194965
0.186436
0.178155
0.171442
0.164429
0.156282
0.144545
0.13261
0.120362
0.108738
0.0980644
0.0896077
0.0849668
0.0889863
0.0978488
0.100293
0.103629
0.102964
-9.5591e-07
-2.96661e-07
-4.07507e-07
-3.44992e-07
-4.63024e-07
-7.23149e-07
-6.92104e-07
-3.04886e-07
-5.97012e-07
-1.39782e-06
-1.95491e-06
-6.25441e-07
-9.97626e-07
-1.90083e-06
-2.67911e-06
-1.92911e-07
1.60359e-07
-1.89461e-06
2.28126e-06
3.9132e-06
7.55219e-07
-2.6323e-06
1.06051e-06
6.46111e-06
1.76099e-05
1.66838e-05
1.71174e-05
1.67186e-05
3.3842e-05
3.23767e-05
3.65867e-05
5.10958e-05
8.21757e-05
0.000109697
0.000132821
0.000162648
0.000218382
0.000262953
0.000312553
0.000383754
0.000476662
0.00059041
0.000729874
0.000926901
0.00114004
0.00141303
0.00182491
0.00245132
0.00262396
0.00354961
0.00365024
0.00386338
0.0273763
-0.03251
-0.107846
-0.165118
-0.19939
-0.196777
-0.166489
-0.149076
-0.133635
-0.118609
-0.0948951
-0.067589
-0.0420665
-0.039048
-0.0311008
-0.017239
-0.0154517
-0.0158325
-0.0154976
-0.0156963
-0.0151809
-0.0163195
-0.0163173
-0.0155962
-0.0168181
-0.022696
-0.0233276
-0.0215877
-0.0267071
-0.021231
-0.0107788
-0.00753559
-0.0161597
-0.0160576
-0.0321952
-0.0349076
-0.0243734
-0.000737006
0.0429883
0.192129
0.393854
0.464296
0.43805
0.395667
0.353104
0.313072
0.281443
0.257737
0.239912
0.22586
0.2155
0.206536
0.199322
0.190501
0.181398
0.170476
0.159591
0.147395
0.135862
0.125058
0.115793
0.11036
0.113668
0.122826
0.124472
0.128595
0.128159
-1.13164e-06
-4.32096e-07
-4.0582e-07
-3.99554e-07
-7.44432e-07
-6.97019e-07
-7.24481e-07
-6.76326e-07
-6.25585e-07
-1.83966e-06
-2.13728e-06
-6.36798e-07
-1.18149e-06
-2.29016e-06
-2.69603e-06
-4.17926e-08
-6.87799e-07
-1.86401e-06
1.82619e-06
6.60509e-06
-6.1684e-07
-3.37496e-06
2.69138e-06
9.3334e-06
1.99321e-05
1.76075e-05
1.6403e-05
2.17343e-05
5.09263e-05
4.88055e-05
4.25527e-05
6.3741e-05
9.93431e-05
0.000113636
0.000143742
0.000185776
0.000258951
0.000294904
0.000349733
0.000436091
0.000534831
0.000661095
0.000824359
0.00103518
0.00128057
0.00162613
0.00212624
0.00290007
0.00385289
0.00640916
0.00738056
0.0143672
0.07952
-0.024371
-0.182614
-0.24651
-0.277585
-0.263378
-0.218431
-0.191884
-0.170095
-0.148752
-0.117467
-0.0823908
-0.0541735
-0.0478847
-0.0381268
-0.0237432
-0.0160685
-0.0154165
-0.0166464
-0.0174742
-0.0176824
-0.0204375
-0.0204628
-0.0188182
-0.0196034
-0.0259854
-0.0274979
-0.0252546
-0.0297888
-0.0249981
-0.0156399
-0.0102136
-0.0200019
-0.0226912
-0.0381923
-0.0362871
-0.0244232
0.0124926
0.137261
0.42384
0.601229
0.622759
0.556989
0.470617
0.401223
0.353235
0.319167
0.291957
0.270547
0.253668
0.241427
0.230769
0.222805
0.213596
0.204435
0.193005
0.182169
0.170144
0.159125
0.148308
0.139051
0.133568
0.135576
0.143907
0.145838
0.150917
0.151328
-1.30511e-06
-4.12484e-07
-5.02256e-07
-5.70298e-07
-6.16482e-07
-8.90526e-07
-9.16665e-07
-1.17874e-06
-9.10559e-07
-2.09488e-06
-1.8647e-06
-1.2768e-06
-2.09528e-06
-2.61596e-06
-1.89832e-06
-1.06149e-06
-1.35334e-06
-1.4477e-06
1.80604e-06
5.03335e-06
-5.23857e-07
4.03554e-07
2.39898e-06
1.07409e-05
1.93601e-05
2.4589e-05
1.27632e-05
2.98236e-05
5.85466e-05
7.13785e-05
5.39936e-05
7.40059e-05
0.000109047
0.000133415
0.00015453
0.000204602
0.000280965
0.000306823
0.000384979
0.000453838
0.000552424
0.000669972
0.000803679
0.000995478
0.00123048
0.0015977
0.00193579
0.00267347
0.00318487
0.00493078
0.00544495
0.00962088
0.0820149
-0.0154457
-0.278617
-0.325102
-0.33785
-0.322855
-0.271224
-0.225395
-0.19955
-0.173427
-0.128093
-0.0964107
-0.0621179
-0.0452535
-0.0388504
-0.0329785
-0.0206442
-0.0186887
-0.019769
-0.0192306
-0.0193564
-0.0223695
-0.0217585
-0.0185732
-0.0192489
-0.0270981
-0.0281256
-0.0258829
-0.0321269
-0.0280239
-0.0188778
-0.0121128
-0.019579
-0.0228994
-0.0368281
-0.0339457
-0.0107215
0.0912643
0.360099
0.624944
0.746834
0.747057
0.670481
0.559942
0.463662
0.396907
0.35394
0.324968
0.302519
0.284207
0.269727
0.256154
0.246003
0.23537
0.226005
0.214986
0.204419
0.192229
0.181273
0.169828
0.160021
0.154262
0.154477
0.161684
0.163789
0.170258
0.172166
-1.39579e-06
-5.54878e-07
-6.908e-07
-8.19682e-07
-5.72353e-07
-1.07679e-06
-1.1145e-06
-1.4824e-06
-1.04706e-06
-2.07955e-06
-2.39687e-06
-1.67485e-06
-1.66813e-06
-3.79608e-06
-1.55417e-06
-1.08006e-06
-2.26452e-06
-2.25203e-06
7.30362e-07
3.36742e-06
2.63148e-06
2.01995e-06
-1.04902e-06
1.60797e-05
2.26284e-05
2.6768e-05
1.54761e-05
2.65742e-05
6.69258e-05
8.3932e-05
7.01722e-05
7.88826e-05
0.000119597
0.000144559
0.00016491
0.000215598
0.000252876
0.000318238
0.000361379
0.000456539
0.000516843
0.000633084
0.00075047
0.000921584
0.00112584
0.00140378
0.00176781
0.0021058
0.00282755
0.00305621
0.00426013
0.00328252
0.0423973
-0.15629
-0.376315
-0.361064
-0.352611
-0.35397
-0.299858
-0.248088
-0.21172
-0.181533
-0.124192
-0.0931525
-0.0715644
-0.0430529
-0.0346265
-0.0286366
-0.0190959
-0.0196967
-0.0217043
-0.0217391
-0.0234334
-0.0268367
-0.0260857
-0.0222494
-0.0216246
-0.0279801
-0.0296779
-0.0275816
-0.031582
-0.0267438
-0.0180809
-0.0093828
-0.0135609
-0.0144644
-0.0228982
-0.0056631
0.0825566
0.312001
0.593195
0.771552
0.833956
0.82301
0.757399
0.654684
0.531293
0.447615
0.394117
0.358234
0.332638
0.313063
0.29701
0.281713
0.269579
0.257124
0.247417
0.23582
0.225488
0.213406
0.20249
0.190479
0.180374
0.173898
0.172245
0.177802
0.179671
0.187111
0.19125
-1.47453e-06
-6.05975e-07
-9.29758e-07
-6.40238e-07
-9.04015e-07
-1.25217e-06
-1.12769e-06
-1.46586e-06
-1.88677e-06
-2.17961e-06
-2.51542e-06
-2.5525e-06
-1.68372e-06
-2.9454e-06
-2.72123e-06
-2.49887e-06
-3.18967e-06
-1.5306e-06
-3.76378e-07
2.78133e-06
4.46545e-06
1.30428e-06
1.11617e-06
1.96904e-05
2.49582e-05
2.4819e-05
2.19385e-05
3.27684e-05
6.99314e-05
7.86876e-05
8.97595e-05
9.99457e-05
0.00012434
0.000166397
0.000184838
0.000214849
0.000252947
0.000291624
0.000373009
0.000393389
0.000476161
0.000488771
0.000553594
0.000598585
0.000681449
0.000700704
0.000752862
0.0010234
0.000503387
0.0013516
-0.00197782
0.0021128
-0.031452
-0.50372
-0.46698
-0.374198
-0.34841
-0.358744
-0.312122
-0.264188
-0.220334
-0.177255
-0.121633
-0.0788013
-0.0659358
-0.0421052
-0.028588
-0.0207087
-0.0186068
-0.0192888
-0.0224917
-0.0232982
-0.0251063
-0.0277909
-0.0269317
-0.0234146
-0.0210918
-0.0265785
-0.0286865
-0.025374
-0.0284648
-0.0210168
-0.0103822
0.00542363
0.00901738
0.0264041
0.0564652
0.152334
0.321493
0.54566
0.717705
0.829598
0.872561
0.867041
0.816127
0.723423
0.596142
0.499716
0.435162
0.393848
0.3652
0.343829
0.32572
0.308491
0.294473
0.280303
0.269623
0.256635
0.245922
0.233453
0.222507
0.209878
0.199376
0.192148
0.189018
0.193218
0.195166
0.203706
0.208904
-1.63173e-06
-7.35419e-07
-9.65629e-07
-8.78608e-07
-1.01023e-06
-1.14565e-06
-1.48948e-06
-1.67416e-06
-2.27751e-06
-1.99047e-06
-2.56341e-06
-3.35559e-06
-2.58169e-06
-2.81946e-06
-2.68015e-06
-2.69077e-06
-4.72637e-06
-1.14818e-06
-1.58469e-06
1.76235e-06
7.15616e-06
-4.82391e-07
7.10423e-07
2.43267e-05
3.06275e-05
2.35862e-05
3.38032e-05
3.96013e-05
6.55122e-05
7.78772e-05
8.95417e-05
0.000106198
0.000129649
0.000162197
0.000196173
0.000213368
0.000221011
0.000270175
0.000313495
0.00034149
0.000353777
0.000344563
0.000333402
0.000253841
0.00014745
-0.000172682
-0.000486912
-0.00119379
-0.00226457
-0.0038666
-0.00699729
-0.00773184
-0.179486
-0.73113
-0.618578
-0.436485
-0.399359
-0.380502
-0.327646
-0.27687
-0.227125
-0.170002
-0.116062
-0.0699123
-0.0499773
-0.0308143
-0.0185908
-0.0142034
-0.0152757
-0.0170358
-0.0219454
-0.0226115
-0.0253276
-0.0273586
-0.0264066
-0.0224334
-0.018487
-0.0220014
-0.0229164
-0.0154918
-0.0165051
0.00331748
0.0279583
0.0746861
0.115868
0.191663
0.275747
0.375989
0.526379
0.679416
0.792376
0.86197
0.876448
0.873013
0.839023
0.763643
0.645631
0.541045
0.471503
0.426646
0.39552
0.37279
0.353638
0.335795
0.320447
0.305081
0.293378
0.278853
0.267439
0.253777
0.242041
0.228299
0.217107
0.209043
0.205019
0.208244
0.210762
0.220221
0.22605
-1.72508e-06
-7.99238e-07
-1.09309e-06
-9.68061e-07
-1.11636e-06
-1.4475e-06
-1.58942e-06
-1.86142e-06
-2.2793e-06
-2.05793e-06
-3.23171e-06
-4.4374e-06
-2.69283e-06
-3.73403e-06
-3.2766e-06
-2.85325e-06
-5.53915e-06
-7.19811e-07
-3.22326e-06
6.04777e-07
8.62731e-06
2.15366e-06
2.94e-06
2.17033e-05
2.48645e-05
2.66092e-05
4.12385e-05
5.70208e-05
6.49011e-05
6.81288e-05
8.89386e-05
0.00011163
0.000132882
0.000169308
0.000209221
0.00021762
0.000210071
0.000226703
0.000257501
0.00029372
0.000284224
0.000231805
0.000170478
6.7291e-05
1.86769e-05
-0.000190486
-0.000172641
-0.000512526
-0.000470529
-0.0014973
8.10404e-05
-0.00746153
-0.403497
-0.786866
-0.726559
-0.594703
-0.501797
-0.420407
-0.348556
-0.297953
-0.229242
-0.167166
-0.106075
-0.0724576
-0.0361761
-0.0151447
-0.0116144
-0.00807012
-0.010971
-0.0149861
-0.0206482
-0.0211052
-0.0232777
-0.0257935
-0.0223489
-0.0177781
-0.00937053
-0.0041599
0.00599412
0.0314048
0.0596256
0.11242
0.191699
0.275058
0.320867
0.383476
0.469705
0.551503
0.639016
0.735763
0.811672
0.862572
0.881572
0.875557
0.844626
0.778921
0.675152
0.570644
0.4998
0.45349
0.421296
0.397887
0.378646
0.361299
0.345739
0.329888
0.31735
0.301451
0.289353
0.274367
0.261658
0.246603
0.234659
0.225603
0.220724
0.223102
0.226286
0.236537
0.242795
-1.86805e-06
-8.93918e-07
-1.15394e-06
-1.18199e-06
-1.29367e-06
-1.48991e-06
-1.45378e-06
-2.19051e-06
-2.95152e-06
-2.42718e-06
-3.74482e-06
-5.3367e-06
-2.65895e-06
-3.48585e-06
-3.50975e-06
-3.5394e-06
-7.09567e-06
-1.52001e-06
-3.30607e-06
-8.28335e-08
6.22807e-06
6.61264e-06
5.5126e-06
1.80628e-05
2.27193e-05
2.86212e-05
4.15482e-05
6.96855e-05
6.80221e-05
6.18617e-05
8.53094e-05
0.000111975
0.000133655
0.000162631
0.000219703
0.000223827
0.000186964
0.000163509
0.000190779
0.000228864
0.000249261
0.000183727
0.000148992
2.22964e-05
2.46493e-05
-0.000158782
-5.46309e-05
-0.000348603
-7.59437e-05
-0.00129792
0.00378182
-0.0281713
-0.583891
-0.811123
-0.784383
-0.730726
-0.64267
-0.512251
-0.396994
-0.314064
-0.23647
-0.181636
-0.102523
-0.0825746
-0.0246194
-3.69595e-06
-0.00994518
-0.00460396
-0.00884231
-0.014047
-0.0193104
-0.0168215
-0.0163442
-0.0158415
-0.00483178
0.0158005
0.0456072
0.0775857
0.130678
0.203285
0.263912
0.315757
0.371512
0.442101
0.490303
0.534028
0.58143
0.636631
0.696994
0.761048
0.814889
0.852936
0.869196
0.863706
0.834266
0.777276
0.688782
0.59216
0.521437
0.474784
0.442569
0.419259
0.400587
0.384204
0.369514
0.354448
0.341336
0.324491
0.311763
0.29519
0.281327
0.264874
0.252064
0.242031
0.236644
0.238331
0.24207
0.252867
0.259454
-1.95748e-06
-9.72873e-07
-1.23333e-06
-1.39098e-06
-1.26169e-06
-1.65126e-06
-1.84065e-06
-2.33282e-06
-3.41943e-06
-2.94543e-06
-4.00987e-06
-4.60121e-06
-3.66384e-06
-4.43598e-06
-4.09678e-06
-4.64405e-06
-5.27418e-06
-4.89127e-06
-2.83142e-06
-1.68759e-06
2.53756e-06
1.09835e-05
1.26941e-05
8.59655e-06
1.9403e-05
3.04371e-05
4.98574e-05
8.11482e-05
7.15421e-05
5.16216e-05
7.25974e-05
0.00011487
0.000140669
0.000169751
0.000210139
0.000224285
0.000180075
0.000154197
0.000151467
0.000155257
0.000210551
0.000164443
0.00012919
4.86251e-05
-3.29605e-05
-0.000176558
-0.000430723
-0.00094081
-0.00126224
-0.00304697
-0.00207081
-0.149083
-0.714236
-0.826528
-0.806338
-0.782788
-0.734733
-0.638688
-0.508334
-0.363369
-0.268441
-0.187825
-0.102556
-0.0859739
-0.013627
0.0124992
-0.00250619
0.00525527
-1.42944e-05
-0.00612283
-0.00554947
0.00596319
0.0234707
0.0465424
0.0864678
0.154104
0.230806
0.2812
0.322579
0.3796
0.441043
0.485028
0.517969
0.551656
0.577227
0.609491
0.642681
0.680852
0.723276
0.768234
0.807562
0.836648
0.8491
0.843866
0.817859
0.768876
0.692407
0.606193
0.537603
0.491596
0.460173
0.437585
0.419911
0.40473
0.391156
0.377362
0.364297
0.347586
0.334313
0.316164
0.300909
0.282991
0.269331
0.25849
0.25269
0.253739
0.25783
0.268926
0.275728
-2.06714e-06
-1.04719e-06
-1.31352e-06
-1.44602e-06
-1.55158e-06
-1.72368e-06
-2.30609e-06
-2.4805e-06
-3.04146e-06
-3.75303e-06
-5.17763e-06
-3.98363e-06
-4.99931e-06
-5.13361e-06
-5.05314e-06
-5.79493e-06
-4.52545e-06
-6.64671e-06
-2.72337e-06
-3.61024e-06
-2.3771e-06
1.58652e-05
2.00165e-05
1.34154e-06
1.30198e-05
3.619e-05
5.46467e-05
7.39911e-05
7.35423e-05
5.0506e-05
6.41032e-05
0.000107364
0.000165938
0.000179792
0.000173025
0.000184379
0.000169279
0.000177324
0.000139203
0.000132147
0.000171639
0.000233839
0.000263036
0.000249684
0.000229766
0.000228401
0.000135673
0.000340552
-0.000181073
0.000590258
-0.000364761
-0.318739
-0.78914
-0.831435
-0.819451
-0.810672
-0.786842
-0.740161
-0.64223
-0.485454
-0.323801
-0.197072
-0.103023
-0.0622176
-0.0125177
0.0196142
0.0123112
0.0256461
0.0371407
0.0461785
0.0715226
0.115522
0.179036
0.235473
0.279032
0.331321
0.397321
0.450705
0.484421
0.514567
0.542721
0.568382
0.588323
0.611883
0.629518
0.651359
0.675284
0.703153
0.734473
0.768175
0.797531
0.818071
0.827049
0.820925
0.797316
0.755547
0.690295
0.614851
0.549602
0.504776
0.474511
0.453111
0.436658
0.422897
0.410856
0.398556
0.386091
0.370381
0.35678
0.337378
0.320579
0.301199
0.286745
0.275167
0.26904
0.269506
0.273815
0.285009
0.292009
-2.10974e-06
-1.10195e-06
-1.37321e-06
-1.46585e-06
-1.88622e-06
-1.95395e-06
-2.36805e-06
-3.18554e-06
-2.90701e-06
-4.24327e-06
-5.1773e-06
-4.63048e-06
-6.7655e-06
-5.95462e-06
-4.58156e-06
-6.90937e-06
-5.15577e-06
-8.094e-06
-3.9102e-06
-2.79683e-06
-6.19943e-06
1.35696e-05
2.40589e-05
1.62229e-06
2.61129e-06
4.25734e-05
6.63378e-05
6.21089e-05
6.5008e-05
5.66162e-05
6.18206e-05
9.89618e-05
0.000165461
0.000200539
0.000152287
0.000149042
0.000169933
0.000192091
0.000180401
0.000156138
0.000139524
0.000234743
0.000386393
0.000560248
0.000632572
0.000866694
0.00113395
0.00217789
0.00232838
0.00587878
0.00187771
-0.489724
-0.829965
-0.84085
-0.835409
-0.82888
-0.814815
-0.790532
-0.736006
-0.624011
-0.428953
-0.228196
-0.113183
-0.021995
0.0260427
0.0559943
0.0694316
0.100076
0.164974
0.218342
0.252012
0.29071
0.342575
0.40234
0.444066
0.48099
0.513674
0.541788
0.565345
0.585327
0.601415
0.61193
0.626675
0.642898
0.657927
0.674626
0.693399
0.71497
0.739023
0.763955
0.785047
0.799827
0.804566
0.796573
0.776716
0.7409
0.686003
0.619867
0.558983
0.51589
0.486815
0.466567
0.451254
0.439021
0.428499
0.41777
0.406342
0.391955
0.378305
0.358474
0.340268
0.319338
0.304057
0.291813
0.285331
0.28523
0.289619
0.300699
0.307865
-2.20907e-06
-1.1658e-06
-1.44319e-06
-1.7054e-06
-2.04346e-06
-2.29295e-06
-2.38827e-06
-3.26775e-06
-3.45377e-06
-4.74383e-06
-5.64881e-06
-5.14579e-06
-6.91999e-06
-6.3475e-06
-6.89946e-06
-8.77914e-06
-5.42494e-06
-6.81216e-06
-5.72617e-06
-4.00571e-06
-5.63185e-06
5.75575e-06
2.02389e-05
1.2249e-05
2.75806e-06
3.43134e-05
5.94433e-05
4.94504e-05
5.92238e-05
7.13943e-05
7.06055e-05
9.71588e-05
0.000152672
0.000177404
0.000153121
0.00012271
0.000140863
0.00018567
0.000206158
0.000202384
0.000144277
0.000196677
0.000239131
0.000317479
0.000249046
0.000345921
-3.72051e-05
0.000503149
-0.0010908
0.00239606
-0.0339094
-0.648973
-0.849405
-0.847603
-0.84491
-0.840237
-0.834061
-0.822801
-0.794746
-0.725589
-0.532587
-0.281052
-0.0715015
0.0462968
0.115688
0.18531
0.230603
0.261044
0.318071
0.3694
0.413658
0.445534
0.477224
0.507285
0.531496
0.557171
0.578518
0.596296
0.609237
0.621772
0.631273
0.637883
0.648756
0.66247
0.675574
0.689711
0.705007
0.721957
0.740364
0.758822
0.772676
0.78138
0.783136
0.775387
0.757686
0.726678
0.679944
0.62201
0.566375
0.525607
0.497666
0.478215
0.464016
0.453306
0.44412
0.435119
0.42514
0.412284
0.398973
0.379301
0.360271
0.337804
0.321686
0.308713
0.301851
0.301223
0.305599
0.316502
0.323802
-2.28159e-06
-1.23508e-06
-1.61166e-06
-1.97645e-06
-1.9331e-06
-2.31458e-06
-2.92913e-06
-3.42462e-06
-3.75173e-06
-4.97518e-06
-5.60905e-06
-5.83758e-06
-8.08492e-06
-7.28612e-06
-7.78784e-06
-1.03708e-05
-8.92796e-06
-4.51377e-06
-8.77651e-06
-4.97633e-06
-3.29798e-06
5.19862e-07
1.05955e-05
1.80007e-05
1.22433e-05
2.84838e-05
5.34078e-05
4.18438e-05
4.38957e-05
7.85492e-05
0.000103795
9.4255e-05
0.000116015
0.000150017
0.00014962
0.000142311
0.000119052
0.000162493
0.000200402
0.000212981
0.000212961
0.000170412
9.16236e-05
4.86741e-05
-0.000101683
-0.000413642
-0.000974116
-0.00170375
-0.0028751
-0.00254361
-0.178043
-0.743732
-0.849212
-0.846972
-0.84797
-0.846712
-0.845104
-0.83668
-0.820993
-0.757374
-0.555232
-0.215196
0.0449298
0.180968
0.255409
0.322421
0.377697
0.417177
0.454358
0.482279
0.505566
0.52944
0.552158
0.571683
0.585512
0.601672
0.617051
0.629424
0.639448
0.648213
0.654392
0.659001
0.666684
0.677142
0.688297
0.699899
0.712132
0.725309
0.739171
0.752103
0.760915
0.766124
0.766358
0.757966
0.740619
0.713098
0.673522
0.622838
0.573148
0.53478
0.507666
0.488695
0.475556
0.466154
0.4581
0.450761
0.442335
0.430956
0.418273
0.399185
0.380069
0.356397
0.33921
0.325421
0.318165
0.317044
0.321275
0.331892
0.339244
-2.3874e-06
-1.33965e-06
-1.738e-06
-1.87165e-06
-2.29129e-06
-2.53481e-06
-2.97408e-06
-3.64152e-06
-4.21115e-06
-5.54597e-06
-6.0516e-06
-6.70475e-06
-8.01372e-06
-8.02907e-06
-1.04174e-05
-9.93361e-06
-9.68341e-06
-7.81509e-06
-1.23179e-05
-7.87851e-06
7.81401e-07
6.11427e-07
8.53472e-07
1.36813e-05
1.40117e-05
2.02803e-05
4.73822e-05
4.7791e-05
3.71533e-05
6.52372e-05
0.000115144
0.000109362
9.04811e-05
0.00011758
0.00015785
0.00016192
0.00014526
0.000130891
0.000186844
0.00021632
0.000285421
0.000222983
0.000214607
0.000210547
0.000233346
0.000166468
0.000354145
1.42051e-06
0.000900698
2.4489e-06
-0.340476
-0.810821
-0.854066
-0.852728
-0.85462
-0.853918
-0.847832
-0.831042
-0.801842
-0.694265
-0.402541
-0.035807
0.194867
0.315814
0.389308
0.439169
0.476571
0.505437
0.535259
0.560093
0.580069
0.593635
0.607086
0.617983
0.627182
0.635203
0.644792
0.653192
0.660985
0.666042
0.668795
0.673139
0.678155
0.685893
0.695231
0.705638
0.716678
0.727691
0.736957
0.744891
0.749951
0.752909
0.752708
0.74392
0.727161
0.702212
0.66759
0.622982
0.579032
0.543108
0.516843
0.49833
0.486083
0.477724
0.470699
0.465002
0.458128
0.448235
0.436575
0.418359
0.399824
0.375379
0.357026
0.342421
0.334801
0.333104
0.337134
0.347437
0.354784
-2.4929e-06
-1.4086e-06
-1.83406e-06
-2.07593e-06
-2.30471e-06
-2.63177e-06
-3.44647e-06
-3.88797e-06
-4.63053e-06
-5.63813e-06
-6.2733e-06
-7.41923e-06
-9.08887e-06
-9.1028e-06
-1.10105e-05
-1.18175e-05
-1.11636e-05
-1.12624e-05
-1.12494e-05
-1.33035e-05
-1.55303e-06
8.38246e-07
-6.20795e-06
1.02247e-05
1.86764e-05
9.67944e-06
3.24536e-05
5.51799e-05
4.92733e-05
4.7533e-05
0.000101286
0.000117944
9.19255e-05
9.63705e-05
0.000146364
0.000176963
0.000184856
0.000147804
0.000173945
0.000264131
0.000363884
0.000390993
0.000459868
0.00058331
0.000824527
0.00113489
0.00202368
0.00224957
0.00509442
0.00020172
-0.516257
-0.843857
-0.856871
-0.856216
-0.857321
-0.857456
-0.849696
-0.808014
-0.72489
-0.504491
-0.136772
0.158746
0.318579
0.408128
0.464744
0.503793
0.535923
0.560417
0.584791
0.605202
0.622522
0.634106
0.644194
0.648254
0.655231
0.657004
0.661077
0.666293
0.674002
0.678714
0.682556
0.687528
0.691287
0.697162
0.70462
0.712843
0.721077
0.728176
0.734508
0.738986
0.742101
0.743032
0.741461
0.733046
0.717422
0.693996
0.662535
0.623309
0.584171
0.550795
0.525683
0.507574
0.495892
0.488314
0.482286
0.478069
0.472582
0.464072
0.453482
0.436379
0.418809
0.394055
0.374548
0.359186
0.351097
0.348807
0.352582
0.362462
0.369715
-2.60519e-06
-1.49356e-06
-1.90655e-06
-2.03226e-06
-2.58763e-06
-2.94477e-06
-3.51694e-06
-4.17099e-06
-5.01408e-06
-6.19332e-06
-6.93043e-06
-8.39252e-06
-9.0836e-06
-1.03523e-05
-1.25535e-05
-1.23786e-05
-1.25382e-05
-1.56783e-05
-1.25905e-05
-1.20654e-05
-7.60985e-06
-3.02432e-06
-1.24789e-05
1.01406e-06
2.148e-05
1.14388e-05
1.12504e-05
4.54508e-05
7.26493e-05
4.60265e-05
6.37311e-05
0.000102743
0.000121764
0.000102241
0.000130884
0.000166823
0.000203213
0.000174358
0.000176903
0.000168491
0.000256617
0.000214178
0.000234649
9.81706e-05
0.000135782
-0.000280975
0.000139776
-0.00148413
0.0010578
-0.0452513
-0.672512
-0.858633
-0.857207
-0.854713
-0.849983
-0.850213
-0.834726
-0.747985
-0.560091
-0.199147
0.120674
0.30428
0.41276
0.479162
0.522671
0.552834
0.575676
0.595498
0.612953
0.629654
0.644341
0.655318
0.666773
0.672121
0.678295
0.680417
0.679154
0.683824
0.691427
0.696944
0.699804
0.701669
0.70299
0.705728
0.710803
0.71712
0.72402
0.729858
0.735189
0.738212
0.738581
0.737214
0.733867
0.725672
0.710628
0.688061
0.65908
0.624256
0.588597
0.557995
0.534008
0.516524
0.505245
0.498212
0.493126
0.490182
0.485896
0.478731
0.469349
0.453632
0.437266
0.412768
0.392338
0.376277
0.367711
0.364811
0.368256
0.377683
0.384784
-2.71477e-06
-1.57323e-06
-1.98394e-06
-2.20936e-06
-2.62587e-06
-3.0293e-06
-3.9325e-06
-4.48902e-06
-5.41273e-06
-6.35087e-06
-7.39129e-06
-9.14134e-06
-1.02689e-05
-1.12828e-05
-1.36859e-05
-1.43973e-05
-1.48726e-05
-1.66675e-05
-1.62828e-05
-1.27317e-05
-1.6196e-05
-7.32107e-06
-9.26541e-06
-8.91235e-06
9.76394e-06
1.69945e-05
7.84742e-06
2.64827e-05
6.98631e-05
6.45651e-05
4.77457e-05
7.23763e-05
0.000132267
0.000139967
0.000131079
0.000166247
0.000188142
0.000221395
0.000184428
0.000173555
0.000185606
0.000201232
0.000187903
5.22177e-05
-9.76546e-05
-0.000383921
-0.000731461
-0.0015239
-0.0012419
-0.214407
-0.761852
-0.852787
-0.853414
-0.85195
-0.839293
-0.823872
-0.780173
-0.59319
-0.258505
0.0821744
0.285763
0.405414
0.481966
0.529604
0.561674
0.585216
0.603621
0.619498
0.632245
0.645538
0.65743
0.67037
0.68299
0.691017
0.698768
0.702844
0.703207
0.705477
0.710967
0.715314
0.71651
0.717471
0.719905
0.721166
0.723837
0.727715
0.731571
0.735402
0.737921
0.737244
0.735986
0.733895
0.729418
0.721148
0.706853
0.685287
0.65781
0.625632
0.592993
0.564925
0.542182
0.525341
0.514331
0.507495
0.5033
0.501336
0.498013
0.492125
0.483965
0.469766
0.454579
0.430891
0.40983
0.392998
0.3838
0.380247
0.383334
0.392221
0.399081
-2.83112e-06
-1.66388e-06
-2.06752e-06
-2.22101e-06
-2.88595e-06
-3.3565e-06
-4.03345e-06
-4.73095e-06
-5.92932e-06
-6.93e-06
-8.26411e-06
-9.73498e-06
-1.07801e-05
-1.28811e-05
-1.49314e-05
-1.53401e-05
-1.75682e-05
-1.84133e-05
-1.92843e-05
-1.70706e-05
-2.18743e-05
-1.76344e-05
-6.33181e-06
-1.25034e-05
-6.52779e-06
1.02143e-05
1.11481e-05
1.33066e-05
4.82501e-05
6.24107e-05
5.85333e-05
5.75273e-05
0.000120962
0.000170322
0.000159423
0.0001789
0.000166684
0.000237064
0.000204274
0.000253428
0.000248724
0.000429053
0.000431366
0.000657375
0.000663827
0.00118617
0.00102316
0.00317647
-0.000888915
-0.400856
-0.828438
-0.853735
-0.852841
-0.851284
-0.828257
-0.768684
-0.64014
-0.304971
0.0476989
0.265158
0.395928
0.477807
0.530872
0.56631
0.591042
0.609846
0.625455
0.638653
0.648417
0.658965
0.66868
0.680609
0.693061
0.703544
0.713295
0.718948
0.723548
0.727172
0.730439
0.733936
0.73322
0.734786
0.736592
0.735053
0.734596
0.736158
0.737355
0.740025
0.740823
0.741707
0.74001
0.735754
0.728971
0.719794
0.705802
0.685414
0.659221
0.628408
0.597886
0.571922
0.550251
0.534089
0.523001
0.516364
0.513065
0.511803
0.509347
0.504713
0.49788
0.485323
0.471277
0.448782
0.427499
0.409936
0.400116
0.395967
0.398678
0.406996
0.413545
-2.94625e-06
-1.75658e-06
-2.17154e-06
-2.41928e-06
-2.94169e-06
-3.47247e-06
-4.42704e-06
-5.145e-06
-6.13746e-06
-7.30738e-06
-8.68713e-06
-1.06893e-05
-1.20824e-05
-1.40233e-05
-1.6258e-05
-1.82862e-05
-1.98104e-05
-2.06572e-05
-2.25648e-05
-2.27539e-05
-2.25858e-05
-2.6431e-05
-1.58498e-05
-1.43408e-05
-2.18306e-05
-1.52424e-06
1.7276e-05
8.54945e-06
2.42178e-05
3.72664e-05
5.85579e-05
6.78467e-05
0.000119566
0.000168865
0.000180774
0.000179834
0.000188967
0.000235336
0.000239235
0.000331863
0.00029753
0.000409817
0.000362332
0.000493189
0.000198131
0.000630408
-0.000384821
0.00232332
-0.0304236
-0.620838
-0.850788
-0.852255
-0.848162
-0.836924
-0.799482
-0.640817
-0.345642
0.0100656
0.2491
0.38672
0.474171
0.52907
0.566156
0.592859
0.61308
0.629076
0.642231
0.653586
0.66327
0.672929
0.681478
0.691878
0.702439
0.713103
0.723841
0.732489
0.740089
0.745118
0.749955
0.752125
0.751196
0.752281
0.752531
0.753661
0.752122
0.751175
0.750221
0.750529
0.750642
0.748738
0.744398
0.737805
0.729771
0.719926
0.706235