/*--------------------------------*- C++ -*----------------------------------*\
| =========                 |                                                 |
| \\      /  F ield         | OpenFOAM: The Open Source CFD Toolbox           |
|  \\    /   O peration     | Version:  2.2.x                                 |
|   \\  /    A nd           | Web:      www.OpenFOAM.org                      |
|    \\/     M anipulation  |                                                 |
\*---------------------------------------------------------------------------*/
FoamFile
{
    version     2.0;
    format      ascii;
    class       volScalarField;
    location    "0.02";
    object      Ma;
}
// * * * * * * * * * * * * * * * * * * * * * * * * * * * * * * * * * * * * * //

dimensions      [0 0 0 0 0 0 0];

internalField   nonuniform List<scalar> 
1024
(
0
0
0
0
0
0
0
0
0
0
0
0
0
0
0
0
0
0
0
0
0
0
0
0
0
0
0
0
0
0
0
0
0
0
0
0
0
0
0
0
0
0
0
0
0
0
0
0
0
0
0
0
0
0
0
0
0
0
0
0
0
0
0
0
0
0
0
0
0
0
0
0
0
0
0
0
0
0
0
0
0
0
0
0
0
0
0
0
0
0
0
0
0
0
0
0
0
0
0
0
0
0
0
0
0
0
0
0
0
0
0
0
0
0
0
0
0
0
0
0
0
0
0
0
0
0
0
0
0
0
0
0
0
0
0
0
0
0
0
0
0
0
0
0
0
0
0
0
0
0
0
0
0
0
0
0
0
0
0
0
0
0
0
0
0
0
0
0
0
0
0
0
0
0
0
0
0
0
0
0
0
0
0
0
0
0
0
0
0
0
0
0
0
0
0
0
0
0
0
0
0
0
0
0
0
0
0
0
0
0
0
0
0
0
0
0
0
0
0
0
0
0
0
0
0
0
0
0
0
0
0
0
0
0
0
0
0
0
0
0
0
0
0
0
0
0
0
0
0
0
0
0
0
0
0
0
0
0
0
0
0
0
0
0
0
0
0
0
0
0
0
0
0
0
0
0
0
0
0
0
0
0
0
0
0
0
0
0
0
0
0
0
0
0
0
0
0
0
0
0
0
0
0
0
0
0
0
0
0
0
0
0
0
0
0
0
0
0
0
0
0
0
0
0
0
0
0
0
0
0
0
0
0
0
0
0
0
0
0
0
0
0
0
0
0
0
0
0
0
0
0
0
0
0
0
0
0
0
0
0
0
0
0
0
0
0
0
0
0
0
0
0
0
0
0
0
0
0
0
0
0
0
0
0
0
0
0
0
0
0
0
0
0
0
0
0
1.6648e-17
1.0214e-15
1.1954e-14
6.61897e-14
2.43938e-13
7.55009e-13
2.08009e-12
5.38825e-12
1.35971e-11
3.36236e-11
8.18348e-11
1.96569e-10
4.65892e-10
1.08986e-09
2.51587e-09
5.73039e-09
1.28794e-08
2.84103e-08
4.86993e-08
5.91871e-08
5.89753e-08
2.90948e-08
1.04644e-07
4.89143e-07
1.4669e-06
3.75107e-06
8.79115e-06
1.94359e-05
4.11112e-05
8.38415e-05
0.000165593
0.000317591
0.000592417
0.00107575
0.00190251
0.00327771
0.00550165
0.00899863
0.0143485
0.0223233
0.0339437
0.0505603
0.0697993
0.0884803
0.10097
0.116036
0.129873
0.144458
0.157533
0.172241
0.185779
0.200123
0.213264
0.227172
0.241191
0.254823
0.268696
0.278625
0.290784
0.296955
0.305774
0.308869
0.315506
0.31701
0.321844
0.321802
0.323882
0.322952
0.322657
0.319099
0.314581
0.310204
0.304044
0.301053
0.296072
0.294822
0.291754
0.291235
0.289633
0.289888
0.289316
0.290157
0.292164
0.294476
0.298465
0.300398
0.308915
0.551475
0.84914
0.97341
0.961536
0.992437
0.993598
0.982831
0.986271
0.9819
0.98179
0.983435
0.985775
0.996827
1.02198
1.07433
1.16914
1.29324
1.38473
1.44117
1.47264
1.48949
1.49855
1.50399
1.51157
1.51282
1.5128
1.51022
1.49956
1.47929
1.44051
1.38853
1.32443
1.2363
1.16005
0.988707
0.759045
0.692401
0.687108
0.68333
0.677411
0.667795
0.654655
0.637567
0.615172
0.589037
0.561731
0.532908
0.501964
0.469657
0.437944
0.407005
0.376185
0.344628
0.313038
0.282148
0.251737
0.222047
0.192907
0.164183
0.136585
0.111307
0.0885325
0.068442
0.0512267
0.0369954
0.0257091
0.0171584
0.0109867
0.00674794
0.00397767
0.00225278
0.00122765
0.000644779
0.000326939
0.00016031
7.61325e-05
3.50684e-05
1.56881e-05
6.82413e-06
2.88949e-06
1.19212e-06
4.7966e-07
1.88375e-07
7.22638e-08
2.70976e-08
9.9389e-09
3.5679e-09
1.25429e-09
4.32043e-10
1.45881e-10
4.82993e-11
1.5682e-11
4.99813e-12
1.56491e-12
4.74867e-13
1.31862e-13
3.35692e-14
5.3605e-15
3.94815e-16
3.70071e-17
0
0
0
0
0
0
0
0
0
0
0
0
0
0
0
0
0
0
0
0
0
0
0
0
0
0
0
0
0
0
0
0
0
0
0
0
0
0
0
0
0
0
0
0
0
0
0
0
0
0
0
0
0
0
0
0
0
0
0
0
0
0
0
0
0
0
0
0
0
0
0
0
0
0
0
0
0
0
0
0
0
0
0
0
0
0
0
0
0
0
0
0
0
0
0
0
0
0
0
0
0
0
0
0
0
0
0
0
0
0
0
0
0
0
0
0
0
0
0
0
0
0
0
0
0
0
0
0
0
0
0
0
0
0
0
0
0
0
0
0
0
0
0
0
0
0
0
0
0
0
0
0
0
0
0
0
0
0
0
0
0
0
0
0
0
0
0
0
0
0
0
0
0
0
0
0
0
0
0
0
0
0
0
0
0
0
0
0
0
0
0
0
0
0
0
0
0
0
0
0
0
0
0
0
0
0
0
0
0
0
0
0
0
0
0
0
0
0
0
0
0
0
0
0
0
0
0
0
0
0
0
0
0
0
0
0
0
0
0
0
0
0
0
0
0
0
0
0
0
0
0
0
0
0
0
0
0
0
0
0
0
0
0
0
0
0
0
0
0
0
0
0
0
0
0
0
0
0
0
0
0
0
0
0
0
0
0
0
0
0
0
0
0
0
0
0
0
0
0
0
0
0
0
0
0
0
0
0
0
0
0
0
0
0
0
0
0
0
0
0
0
0
0
0
0
0
0
0
0
0
0
0
0
0
0
0
0
0
0
0
0
0
0
0
0
0
0
0
0
0
0
0
0
0
0
0
0
0
0
0
0
0
0
0
0
0
0
0
0
0
0
0
0
0
0
0
0
0
0
0
0
0
0
0
0
0
0
0
0
0
0
0
0
0
0
0
0
0
0
0
0
0
0
0
0
0
0
0
0
0
0
0
0
0
0
0
0
0
0
0
0
0
0
0
0
0
0
0
0
0
0
0
0
0
0
0
0
0
0
0
0
)
;

boundaryField
{
    front-back
    {
        type            empty;
    }
    inlet-outlet
    {
        type            calculated;
        value           uniform 0;
    }
    top-down
    {
        type            empty;
    }
}


// ************************************************************************* //
