/*--------------------------------*- C++ -*----------------------------------*\
| =========                 |                                                 |
| \\      /  F ield         | OpenFOAM: The Open Source CFD Toolbox           |
|  \\    /   O peration     | Version:  2.2.x                                 |
|   \\  /    A nd           | Web:      www.OpenFOAM.org                      |
|    \\/     M anipulation  |                                                 |
\*---------------------------------------------------------------------------*/
FoamFile
{
    version     2.0;
    format      ascii;
    class       volVectorField;
    location    "0.6";
    object      U;
}
// * * * * * * * * * * * * * * * * * * * * * * * * * * * * * * * * * * * * * //

dimensions      [0 1 -1 0 0 0 0];

internalField   nonuniform List<vector> 
14161
(
(1.5 -1.19566e-16 -2.64985e-37)
(1.5 -1.31442e-16 -1.10849e-22)
(1.5 -1.88438e-16 -1.10849e-22)
(1.5 -1.82585e-16 -1.10849e-22)
(1.5 2.27613e-16 -1.10849e-22)
(1.5 -3.13712e-16 -2.23243e-22)
(1.5 -2.26199e-16 5.83238e-23)
(1.5 3.14716e-16 -5.44789e-23)
(1.5 2.57017e-16 3.0215e-23)
(1.5 7.47247e-17 -9.69078e-23)
(1.5 3.69323e-17 -1.03919e-22)
(1.5 4.65289e-17 -1.03731e-22)
(1.5 2.68737e-16 -1.59781e-22)
(1.5 3.6972e-17 -4.68308e-23)
(1.5 -7.85431e-17 -1.03245e-22)
(1.5 -3.3761e-16 -1.03208e-22)
(1.5 4.55823e-17 -1.59309e-22)
(1.5 4.69129e-16 -1.59526e-22)
(1.5 5.47925e-16 -1.59747e-22)
(1.5 8.8385e-16 -2.16203e-22)
(1.5 9.95612e-16 -2.16615e-22)
(1.5 5.06607e-16 -1.61482e-22)
(1.5 5.47725e-16 -1.90142e-22)
(1.5 5.18524e-16 -1.9096e-22)
(1.5 3.7176e-16 -2.46748e-22)
(1.5 5.14302e-16 -2.19453e-22)
(1.5 3.26884e-16 -2.19974e-22)
(1.5 8.1874e-17 -2.20463e-22)
(1.5 6.07304e-17 -2.21013e-22)
(1.5 3.50612e-17 -2.21389e-22)
(1.5 9.28445e-17 -1.80671e-22)
(1.5 1.90408e-16 -1.94748e-22)
(0.806392 -0.0149844 -2.19414e-22)
(0.517279 -0.00342218 -2.23445e-22)
(0.514447 0.00045347 -1.61809e-22)
(0.50891 0.00257914 -2.22689e-22)
(0.501583 0.00382713 -1.55608e-22)
(0.493685 0.00436377 -1.52784e-22)
(0.486108 0.00434929 -1.51493e-22)
(0.479359 0.00399315 -8.5165e-23)
(0.473612 0.00349351 -8.65611e-23)
(0.468821 0.00299657 -8.86915e-23)
(0.464828 0.00258964 -9.10347e-23)
(0.461432 0.00231343 4.6665e-23)
(0.458437 0.00218029 -1.67407e-22)
(0.45552 0.00229514 1.02089e-21)
(0.452641 0.00238143 1.01106e-21)
(0.449761 0.00251114 2.10304e-21)
(0.44681 0.00268086 3.1585e-21)
(0.443752 0.00287314 3.11018e-21)
(0.440568 0.00306971 4.20467e-21)
(0.437257 0.00325501 5.20594e-21)
(0.433828 0.00341735 6.22453e-21)
(0.430301 0.00354929 6.14795e-21)
(0.426697 0.00364763 6.07217e-21)
(0.423041 0.003713 6.01402e-21)
(0.419356 0.00374916 5.9543e-21)
(0.415664 0.00376218 5.894e-21)
(0.411979 0.00375945 5.69296e-21)
(0.40831 0.00374878 5.76105e-21)
(0.404661 0.00373754 5.70661e-21)
(0.40103 0.00373239 5.65848e-21)
(0.397409 0.00373816 4.27291e-21)
(0.393787 0.00375747 4.53279e-21)
(0.390151 0.00379404 4.5322e-21)
(0.38648 0.00385025 3.45115e-21)
(0.382758 0.00392113 3.45785e-21)
(0.378985 0.00399779 3.46241e-21)
(0.375157 0.004075 3.74035e-21)
(0.371276 0.00414984 3.18739e-21)
(0.367341 0.00422106 3.46383e-21)
(0.363353 0.00428845 4.02314e-21)
(0.359312 0.00435237 4.58968e-21)
(0.355221 0.00441337 3.44445e-21)
(0.351078 0.00447187 4.31204e-21)
(0.346885 0.00452807 3.72789e-21)
(0.342643 0.00458191 3.74666e-21)
(0.338353 0.00463319 3.74722e-21)
(0.334017 0.00468159 3.74786e-21)
(0.329638 0.00472676 4.36827e-21)
(0.325219 0.00476841 4.37024e-21)
(0.320762 0.00480625 3.73061e-21)
(0.316268 0.00484007 3.73101e-21)
(0.31174 0.00486953 3.73142e-21)
(0.307178 0.0048943 3.73162e-21)
(0.302581 0.004914 2.34632e-21)
(0.297949 0.0049282 1.63551e-21)
(0.29328 0.00493641 2.35978e-21)
(0.288572 0.00493805 8.72563e-22)
(0.283823 0.00493249 2.38956e-21)
(0.279033 0.00491903 2.38431e-21)
(0.274202 0.00489691 2.37904e-21)
(0.269334 0.00486531 7.24833e-22)
(0.264433 0.00482346 2.40703e-21)
(0.259507 0.00477064 2.40034e-21)
(0.254569 0.00470628 2.39334e-21)
(0.249632 0.00463013 2.38553e-21)
(0.244713 0.00454241 2.37648e-21)
(0.239831 0.00444407 2.36568e-21)
(0.235003 0.00433709 8.67037e-22)
(0.230245 0.00422491 4.89376e-21)
(0.225571 0.00411291 4.87874e-21)
(0.220985 0.00400901 2.73985e-21)
(0.216481 0.0039244 2.69453e-21)
(0.212038 0.00387435 2.63396e-21)
(0.207613 0.00387918 4.77654e-21)
(0.203139 0.00396521 -2.07432e-21)
(0.198512 0.00416585 -4.49666e-21)
(0.193591 0.00452259 -2.36043e-21)
(0.188189 0.00508583 -2.56769e-21)
(0.182063 0.00591525 -4.41104e-22)
(0.174917 0.00707935 -3.13623e-21)
(0.166396 0.00865344 -3.4551e-21)
(0.156094 0.0107151 -1.39503e-20)
(0.143568 0.0133359 -3.70112e-21)
(0.128361 0.0165667 -4.13538e-21)
(0.110046 0.0204145 -2.97089e-20)
(0.0883064 0.0248181 -3.00575e-20)
(0.076089 0.0797545 -3.03321e-20)
(1.5 -1.75439e-16 -4.1209e-38)
(1.5 -2.73183e-16 4.38944e-22)
(1.5 -1.50776e-16 5.46975e-22)
(1.5 -1.46913e-16 3.24521e-22)
(1.5 -9.1483e-17 3.23409e-22)
(1.5 -2.49316e-16 3.77452e-22)
(1.5 -8.93187e-17 3.14945e-22)
(1.5 1.52772e-16 3.14147e-22)
(1.5 2.11816e-16 3.95719e-22)
(1.5 -9.78476e-17 2.98593e-22)
(1.5 -2.16673e-16 3.0546e-22)
(1.5 -7.17112e-17 3.03218e-22)
(1.5 1.49127e-16 4.09536e-22)
(1.5 -1.07478e-16 2.92814e-23)
(1.5 -4.2212e-16 -1.31536e-22)
(1.5 -5.17906e-16 -7.69243e-23)
(1.5 -1.75079e-16 -7.62017e-23)
(1.5 5.30101e-16 -2.88821e-22)
(1.5 5.72241e-16 -2.85365e-22)
(1.5 7.01032e-16 -4.94173e-22)
(1.5 7.99334e-16 -4.4038e-22)
(1.5 5.07138e-16 -4.94237e-22)
(1.5 5.07017e-16 -6.50607e-22)
(1.5 5.27175e-16 -6.51572e-22)
(1.5 4.14263e-16 -4.47968e-22)
(1.5 6.75959e-16 -4.52427e-22)
(1.5 3.78278e-16 -5.60227e-22)
(1.5 2.11607e-16 -5.6473e-22)
(1.5 1.37901e-16 -6.45489e-22)
(1.5 1.07014e-16 -5.45768e-22)
(1.5 -8.27654e-18 -6.76043e-22)
(1.5 1.42191e-16 -6.01534e-22)
(0.717687 0.00159324 -6.01534e-22)
(0.437625 0.00286274 -1.15822e-21)
(0.426653 0.00318758 -1.20942e-21)
(0.421134 0.00374063 -8.70711e-22)
(0.418041 0.00423999 -1.40116e-21)
(0.416003 0.00451554 -1.12551e-21)
(0.414146 0.0045528 -1.08237e-21)
(0.412013 0.00442718 -8.29559e-22)
(0.409444 0.00423404 -1.09118e-21)
(0.406459 0.00404963 -9.11413e-22)
(0.403168 0.00392128 -8.79533e-22)
(0.399703 0.00387338 -9.97332e-22)
(0.396187 0.00391812 -9.63219e-22)
(0.392656 0.00345519 -2.29367e-21)
(0.389072 0.00345094 -2.04449e-23)
(0.385456 0.00356259 -8.39602e-22)
(0.381853 0.00371415 -4.41683e-21)
(0.378285 0.00388329 -4.24173e-21)
(0.374755 0.00405891 -5.32247e-21)
(0.371251 0.00423286 -8.20575e-21)
(0.367752 0.0043986 -1.04615e-20)
(0.364233 0.00455125 -9.63869e-21)
(0.360668 0.00468783 -1.00661e-20)
(0.357035 0.00480739 -6.24463e-21)
(0.353316 0.00491089 -6.15302e-21)
(0.349501 0.00500085 -6.10209e-21)
(0.345586 0.00508077 -7.92333e-21)
(0.341575 0.00515432 -1.03725e-20)
(0.337478 0.00522448 -9.1022e-21)
(0.333313 0.0052934 -1.16041e-20)
(0.329112 0.00536486 -1.03392e-20)
(0.324881 0.0054445 -7.80022e-21)
(0.320636 0.00553555 -1.16251e-20)
(0.316399 0.0056397 -6.46815e-21)
(0.312185 0.00575399 -6.44008e-21)
(0.307995 0.00587256 -5.09036e-21)
(0.30383 0.00599187 -7.68793e-21)
(0.299692 0.00610993 -8.29325e-21)
(0.295579 0.00622592 -8.8895e-21)
(0.291491 0.00633982 -8.11103e-21)
(0.287425 0.00645197 -8.68327e-21)
(0.283379 0.00656275 -8.56197e-21)
(0.27935 0.00667232 -8.06717e-21)
(0.275335 0.00678056 -7.91962e-21)
(0.271332 0.00688707 -7.96203e-21)
(0.267337 0.00699126 -7.78713e-21)
(0.263346 0.00709245 -7.60025e-21)
(0.259358 0.00718996 -5.88164e-21)
(0.255367 0.00728309 -7.22731e-21)
(0.25137 0.00737128 -7.00684e-21)
(0.247359 0.00745395 -3.56169e-21)
(0.243327 0.00753042 -3.39321e-21)
(0.239266 0.00760008 -6.57283e-21)
(0.235166 0.00766231 -1.21169e-21)
(0.231013 0.00771648 -8.16244e-21)
(0.226794 0.00776198 -4.27873e-21)
(0.222494 0.00779814 5.07008e-21)
(0.218097 0.00782431 -6.91591e-22)
(0.213587 0.00783978 -5.98367e-22)
(0.208946 0.00784383 -4.77009e-22)
(0.204159 0.00783566 -8.75125e-21)
(0.199211 0.00781448 -8.43166e-21)
(0.194088 0.00777946 7.69325e-22)
(0.188777 0.00772979 -3.77107e-21)
(0.18327 0.0076648 -3.58669e-21)
(0.177558 0.00758398 -8.37987e-21)
(0.171635 0.00748725 2.24769e-21)
(0.165499 0.00737518 1.57044e-21)
(0.159149 0.00724936 1.68762e-21)
(0.15259 0.00711293 -1.58749e-20)
(0.145828 0.00697131 -1.54872e-20)
(0.138874 0.00683308 -5.35694e-21)
(0.131744 0.00671121 -1.206e-20)
(0.124456 0.00662457 -4.48186e-21)
(0.117032 0.00659961 3.12575e-21)
(0.109491 0.00667244 1.89943e-20)
(0.101852 0.00689087 1.8762e-20)
(0.0941223 0.0073165 5.13112e-22)
(0.0862965 0.00802605 1.97199e-20)
(0.0783451 0.00911172 3.87742e-20)
(0.0702087 0.010679 3.6151e-20)
(0.0617915 0.0128408 5.41174e-20)
(0.0529575 0.015706 4.6022e-20)
(0.0435343 0.0193598 8.71657e-21)
(0.0333242 0.023832 5.24306e-20)
(0.022146 0.0290651 1.57865e-20)
(0.0204333 0.0896743 -2.2841e-20)
(1.5 -1.20319e-16 2.18062e-22)
(1.5 -1.22945e-16 -2.16865e-22)
(1.5 -2.5787e-16 -3.22521e-22)
(1.5 -1.00853e-16 -3.20437e-22)
(1.5 -2.98498e-16 -2.1026e-22)
(1.5 -3.51325e-17 -2.64423e-22)
(1.5 -1.1496e-16 -2.58427e-22)
(1.5 -3.15795e-16 -2.59483e-22)
(1.5 -1.36063e-16 -1.00727e-22)
(1.5 -2.05783e-16 -1.037e-22)
(1.5 -1.85161e-16 3.11859e-22)
(1.5 -4.8566e-17 -3.29442e-22)
(1.5 -1.26986e-16 -2.32927e-22)
(1.5 -3.71401e-16 -3.45562e-23)
(1.5 -6.67113e-16 1.68623e-22)
(1.5 -5.16017e-16 6.30788e-23)
(1.5 -3.04158e-16 5.90355e-23)
(1.5 2.72025e-16 -4.86676e-23)
(1.5 3.88321e-16 3.3502e-22)
(1.5 5.60162e-16 1.26606e-22)
(1.5 2.38595e-16 -2.73589e-22)
(1.5 3.32785e-16 -7.11806e-22)
(1.5 1.9501e-16 -4.57311e-22)
(1.5 2.01367e-16 -8.375e-22)
(1.5 3.01435e-16 -1.40653e-21)
(1.5 4.04648e-16 -1.39183e-21)
(1.5 2.04699e-16 -1.51817e-21)
(1.5 1.97383e-16 -1.63921e-21)
(1.5 9.70026e-17 -1.56982e-21)
(1.5 -9.38115e-17 -1.36338e-21)
(1.5 -2.01976e-17 -1.39801e-21)
(1.5 -1.08436e-16 -1.33873e-21)
(0.797878 0.0155662 -1.6268e-21)
(0.501534 0.00866558 -8.55609e-22)
(0.494169 0.00695255 -1.75621e-21)
(0.487467 0.00654372 -1.31398e-21)
(0.480853 0.00651868 -1.34385e-21)
(0.474506 0.00659943 -1.4274e-21)
(0.468509 0.00668635 -1.44993e-21)
(0.462887 0.00675768 -1.46583e-21)
(0.457644 0.00682081 -1.46632e-21)
(0.452783 0.00688598 -1.11563e-21)
(0.448308 0.00695804 -1.36974e-21)
(0.444234 0.0070377 -1.37676e-21)
(0.44058 0.007125 -1.13221e-21)
(0.43741 0.00760834 2.8652e-21)
(0.43431 0.00789568 5.30563e-21)
(0.431248 0.00814434 8.61978e-21)
(0.428226 0.0083861 1.03704e-20)
(0.425229 0.00862766 1.06148e-20)
(0.422235 0.00887005 8.83526e-21)
(0.419224 0.00911225 1.16208e-20)
(0.416177 0.00935204 1.13661e-20)
(0.413077 0.00958642 1.11811e-20)
(0.409913 0.00981231 1.20038e-20)
(0.406676 0.0100271 5.97375e-21)
(0.403363 0.0102294 5.98198e-21)
(0.399972 0.0104187 1.01884e-21)
(0.396501 0.0105959 3.06968e-21)
(0.392947 0.0107625 3.09346e-21)
(0.389303 0.0109194 -2.92288e-21)
(0.385555 0.0110671 3.16268e-21)
(0.381681 0.0112051 3.16692e-21)
(0.377689 0.0113365 -4.96013e-21)
(0.373577 0.0114618 -4.98459e-21)
(0.369345 0.0115806 -4.97222e-21)
(0.364992 0.0116929 -4.97407e-21)
(0.360519 0.0117978 -2.90033e-21)
(0.355926 0.0118943 -8.53628e-22)
(0.351213 0.0119821 1.2221e-22)
(0.346382 0.0120621 -1.06965e-21)
(0.341433 0.0121357 9.91858e-22)
(0.336369 0.0122047 3.57536e-21)
(0.331193 0.012271 1.13219e-21)
(0.325909 0.012336 1.08247e-21)
(0.320522 0.0124011 5.33522e-21)
(0.315039 0.0124669 4.94706e-22)
(0.309466 0.0125342 2.76028e-22)
(0.30381 0.0126033 -1.15046e-21)
(0.29808 0.0126747 3.67304e-21)
(0.292281 0.0127486 -4.82854e-22)
(0.286421 0.012825 -7.03595e-22)
(0.280505 0.0129039 -8.13113e-22)
(0.274537 0.0129851 4.56184e-21)
(0.268519 0.0130684 -1.4956e-21)
(0.26245 0.0131532 -7.22994e-21)
(0.256329 0.013239 -1.35576e-21)
(0.250151 0.0133249 -1.3752e-20)
(0.243909 0.01341 -9.69205e-21)
(0.237595 0.0134935 -9.27076e-21)
(0.231201 0.0135742 -1.55943e-20)
(0.224715 0.013651 -4.26159e-21)
(0.218128 0.0137229 -1.1904e-20)
(0.211429 0.0137887 3.52641e-21)
(0.204608 0.0138471 -4.55523e-21)
(0.197656 0.013897 -8.70266e-21)
(0.190566 0.0139372 2.1713e-22)
(0.183328 0.0139668 -4.77375e-21)
(0.175938 0.0139849 -9.05728e-21)
(0.168388 0.0139914 -8.43725e-21)
(0.160676 0.0139867 2.62412e-21)
(0.152797 0.0139725 1.45452e-21)
(0.144749 0.0139524 3.663e-22)
(0.136532 0.0139328 -3.21654e-21)
(0.128148 0.0139245 -1.67543e-20)
(0.119604 0.0139437 -2.28757e-20)
(0.11091 0.0140148 -2.11611e-20)
(0.102082 0.0141729 -4.98009e-20)
(0.093141 0.0144666 -1.07868e-20)
(0.0841167 0.0149615 8.33068e-21)
(0.0750426 0.0157432 4.89546e-20)
(0.0659565 0.01692 5.02482e-21)
(0.0568955 0.018622 1.01497e-20)
(0.0478894 0.0209972 1.97506e-20)
(0.0389524 0.0241992 -2.71744e-20)
(0.0300724 0.0283648 1.59284e-19)
(0.0212016 0.033573 1.64752e-19)
(0.0122634 0.0397982 8.86516e-22)
(0.0103639 0.101876 -2.13504e-20)
(1.5 3.66386e-17 -2.16065e-22)
(1.5 -1.70826e-16 8.70116e-25)
(1.5 -4.56859e-16 3.22183e-22)
(1.5 -9.01794e-17 3.22359e-22)
(1.5 -9.49248e-18 -9.99784e-23)
(1.5 3.96573e-16 -5.04464e-22)
(1.5 2.58809e-16 -4.81234e-22)
(1.5 -2.17853e-16 -4.64404e-22)
(1.5 -1.96192e-16 -4.35843e-22)
(1.5 -8.24466e-17 -5.10914e-22)
(1.5 -1.39625e-16 -8.11741e-22)
(1.5 7.20321e-17 -1.17033e-21)
(1.5 -2.38779e-16 -1.12133e-21)
(1.5 -4.27901e-16 -1.07475e-21)
(1.5 -3.49009e-16 -2.60396e-22)
(1.5 -1.55035e-16 -1.49481e-22)
(1.5 -7.06235e-17 -3.07904e-22)
(1.5 -2.90831e-17 -5.5923e-22)
(1.5 2.69781e-17 -1.65156e-21)
(1.5 2.47743e-16 -4.82749e-22)
(1.5 2.53199e-17 -1.88272e-22)
(1.5 3.05489e-17 2.8266e-22)
(1.5 2.90401e-16 1.76383e-22)
(1.5 3.0519e-17 6.21398e-22)
(1.5 1.41892e-16 6.9638e-22)
(1.5 5.39049e-17 2.29267e-22)
(1.5 4.96066e-17 7.61956e-22)
(1.5 4.94654e-17 1.37004e-21)
(1.5 -1.38714e-18 1.25523e-21)
(1.5 -1.85353e-16 7.05309e-22)
(1.5 -1.70954e-16 6.97138e-22)
(1.5 -2.14166e-16 6.88562e-22)
(0.799085 0.00793409 6.3951e-22)
(0.498043 0.0100983 6.14995e-22)
(0.490576 0.0101733 1.40961e-21)
(0.483545 0.0102885 1.36459e-21)
(0.47685 0.0104 8.88147e-22)
(0.470671 0.0104718 1.70543e-21)
(0.465003 0.0105105 1.63974e-21)
(0.459779 0.0105379 1.3582e-21)
(0.454934 0.0105711 1.28702e-21)
(0.450414 0.0106156 1.12625e-21)
(0.446181 0.0106677 1.52924e-21)
(0.442201 0.0107194 1.01309e-21)
(0.438442 0.0107613 5.0315e-22)
(0.434778 0.0111027 -2.76302e-21)
(0.431167 0.0113746 -2.68758e-21)
(0.427602 0.0116323 -1.01163e-20)
(0.424066 0.0118916 -1.09339e-20)
(0.420547 0.012158 -9.84324e-21)
(0.417032 0.0124335 -1.25307e-20)
(0.413506 0.0127178 -9.47005e-21)
(0.409955 0.0130088 -1.30541e-20)
(0.406366 0.0133025 -9.08088e-21)
(0.402727 0.0135943 -1.08844e-20)
(0.399033 0.0138794 -1.25662e-21)
(0.39528 0.0141547 2.57925e-21)
(0.391469 0.0144189 4.49456e-21)
(0.387604 0.0146731 6.43438e-21)
(0.383691 0.0149208 8.36043e-21)
(0.379733 0.0151656 1.42401e-20)
(0.375744 0.0154114 1.8157e-20)
(0.371729 0.0156604 1.61186e-20)
(0.367691 0.015911 2.5923e-20)
(0.363628 0.0161623 2.56996e-20)
(0.35954 0.0164126 2.94111e-20)
(0.355424 0.0166603 2.9011e-20)
(0.351276 0.0169034 2.65374e-20)
(0.347091 0.0171397 2.81537e-20)
(0.342866 0.0173679 1.72843e-20)
(0.338593 0.0175875 1.79371e-20)
(0.334267 0.0177987 1.75209e-20)
(0.329882 0.0180016 2.14108e-20)
(0.325432 0.0181969 1.65035e-20)
(0.320912 0.0183846 1.58296e-20)
(0.316317 0.0185648 1.559e-20)
(0.311643 0.0187374 1.50032e-20)
(0.306887 0.0189023 1.43832e-20)
(0.302046 0.0190595 1.4833e-20)
(0.297117 0.0192094 1.0767e-20)
(0.292099 0.0193525 1.01814e-20)
(0.28699 0.0194894 9.58149e-21)
(0.281787 0.0196207 8.9762e-21)
(0.276488 0.0197474 8.68714e-21)
(0.271088 0.01987 8.0345e-21)
(0.265582 0.0199894 1.77639e-20)
(0.259965 0.0201063 5.37289e-21)
(0.254229 0.0202211 3.96037e-21)
(0.248366 0.0203346 2.65381e-20)
(0.242367 0.0204472 1.7837e-20)
(0.236223 0.0205592 2.77386e-20)
(0.229925 0.0206709 2.52035e-20)
(0.223464 0.0207826 1.9833e-21)
(0.216831 0.0208943 9.16265e-21)
(0.210021 0.0210059 -6.62007e-21)
(0.203026 0.0211174 -1.81267e-20)
(0.195842 0.0212285 -1.65252e-20)
(0.188465 0.0213389 -1.13841e-20)
(0.180892 0.0214486 -1.11933e-20)
(0.17312 0.0215575 -1.09622e-20)
(0.165148 0.0216664 -1.20287e-20)
(0.156974 0.0217765 -1.13356e-20)
(0.1486 0.0218907 -1.01892e-20)
(0.140025 0.0220143 -1.50731e-20)
(0.131256 0.0221557 -2.1225e-20)
(0.122298 0.0223284 -8.96539e-21)
(0.113166 0.0225531 -1.05019e-20)
(0.103878 0.0228598 -1.29305e-21)
(0.0944607 0.0232915 -6.45008e-20)
(0.0849492 0.0239079 1.32915e-20)
(0.0753888 0.0247889 -8.77735e-20)
(0.0658327 0.0260391 -2.96579e-20)
(0.0563407 0.0277898 -1.05048e-19)
(0.0469729 0.0301971 -1.1198e-19)
(0.0377817 0.0334337 -3.09028e-20)
(0.0287991 0.037668 -9.33688e-20)
(0.0200227 0.0430226 6.40253e-20)
(0.0114093 0.0495174 -9.35807e-20)
(0.00974748 0.108369 -8.02036e-20)
(1.5 1.09495e-16 -2.14595e-22)
(1.5 -5.02471e-16 2.14399e-22)
(1.5 -1.29606e-16 -4.19987e-22)
(1.5 1.76441e-17 4.17187e-22)
(1.5 4.19682e-16 7.95214e-22)
(1.5 7.49161e-16 1.94085e-21)
(1.5 6.6818e-16 1.73064e-21)
(1.5 1.18937e-16 9.35912e-22)
(1.5 2.80554e-16 1.69986e-21)
(1.5 3.71421e-16 1.45288e-21)
(1.5 7.8415e-17 -3.0705e-22)
(1.5 8.27016e-17 1.86533e-21)
(1.5 -4.74779e-18 1.74121e-21)
(1.5 -1.51177e-16 1.56636e-21)
(1.5 -2.95269e-17 6.46469e-22)
(1.5 -1.12005e-16 5.05791e-22)
(1.5 -1.7598e-16 1.76686e-21)
(1.5 -4.02826e-16 1.68723e-21)
(1.5 -2.68156e-16 2.11622e-21)
(1.5 -4.19741e-16 4.7122e-22)
(1.5 1.38439e-16 3.0611e-22)
(1.5 1.31212e-16 1.56233e-22)
(1.5 2.41295e-16 -5.74274e-22)
(1.5 3.63964e-17 -7.55436e-22)
(1.5 1.16313e-16 -4.80968e-22)
(1.5 1.02905e-16 -1.9847e-22)
(1.5 1.62314e-17 -5.09917e-22)
(1.5 -3.29783e-16 -9.81156e-22)
(1.5 -3.14076e-16 -7.67523e-22)
(1.5 -3.10303e-16 -5.70746e-23)
(1.5 -3.72176e-16 -1.05997e-22)
(1.5 -2.24753e-16 -2.36373e-22)
(0.773967 0.00980553 3.86823e-22)
(0.478037 0.0132517 -1.83719e-21)
(0.470638 0.0136843 -2.55923e-21)
(0.464818 0.0137798 9.14515e-22)
(0.459762 0.0137347 1.42631e-22)
(0.455289 0.0136683 -9.94979e-22)
(0.451183 0.0136528 4.12571e-22)
(0.447282 0.0137124 -1.15502e-22)
(0.443498 0.0138388 -4.27424e-22)
(0.4398 0.014009 5.43127e-22)
(0.436187 0.0141989 1.50853e-21)
(0.432673 0.0143899 -2.90543e-22)
(0.429271 0.0145714 -2.10396e-22)
(0.425902 0.0147371 3.35505e-21)
(0.422538 0.0150204 4.23347e-21)
(0.419184 0.0153259 7.88612e-21)
(0.415842 0.0156362 6.85134e-22)
(0.412511 0.0159528 8.42156e-22)
(0.409185 0.0162807 2.76514e-21)
(0.40585 0.0166232 8.18808e-21)
(0.402493 0.0169807 1.17942e-20)
(0.399099 0.0173498 7.9736e-21)
(0.395657 0.0177247 7.86244e-21)
(0.392158 0.0180983 4.06227e-21)
(0.388598 0.0184641 3.99333e-21)
(0.384979 0.0188176 7.63407e-21)
(0.381305 0.0191573 7.61339e-21)
(0.377587 0.0194853 3.79588e-21)
(0.373828 0.0198059 -4.97685e-23)
(0.37003 0.0201226 3.77148e-21)
(0.366195 0.0204388 -5.01813e-23)
(0.362324 0.0207561 -3.71777e-21)
(0.358416 0.0210743 -3.45022e-21)
(0.35447 0.0213923 -6.90956e-21)
(0.350486 0.0217084 -6.35349e-21)
(0.346461 0.0220206 -5.74294e-21)
(0.342395 0.0223272 -3.02712e-21)
(0.338285 0.0226274 -4.53825e-21)
(0.334129 0.0229208 2.13542e-21)
(0.329924 0.0232079 -1.44481e-21)
(0.32567 0.0234892 3.49178e-21)
(0.321362 0.0237652 1.23359e-20)
(0.316999 0.0240358 4.10678e-21)
(0.312578 0.0243009 4.64991e-21)
(0.308097 0.0245597 -3.47842e-21)
(0.303553 0.0248118 1.72575e-20)
(0.298945 0.0250568 1.04161e-20)
(0.294269 0.0252943 8.18348e-21)
(0.289524 0.0255244 -9.40439e-22)
(0.284704 0.0257472 4.54384e-21)
(0.279806 0.0259631 1.92804e-20)
(0.274825 0.0261724 -1.2292e-21)
(0.269753 0.0263757 4.5866e-21)
(0.264582 0.0265737 5.63906e-22)
(0.259304 0.0267671 1.15492e-20)
(0.253906 0.0269567 1.08301e-20)
(0.248377 0.0271437 1.23179e-20)
(0.242706 0.027329 1.8447e-20)
(0.23688 0.0275139 1.34656e-20)
(0.230887 0.0276995 3.91138e-20)
(0.224715 0.0278871 3.50526e-20)
(0.218354 0.0280779 3.86547e-20)
(0.211795 0.0282732 3.34211e-20)
(0.205031 0.0284741 4.13713e-20)
(0.198054 0.0286817 3.43258e-20)
(0.19086 0.028897 2.86076e-20)
(0.183445 0.0291211 2.74848e-20)
(0.175806 0.029355 5.50228e-21)
(0.167941 0.0296001 5.2443e-21)
(0.159849 0.029858 2.32422e-20)
(0.15153 0.0301316 1.84535e-20)
(0.142986 0.0304252 1.3481e-20)
(0.134221 0.0307458 1.8965e-20)
(0.125244 0.0311043 -8.74794e-21)
(0.116066 0.0315174 1.56343e-20)
(0.106707 0.0320101 1.29939e-20)
(0.0971932 0.0326188 -5.78031e-20)
(0.0875608 0.033395 -7.24054e-20)
(0.0778556 0.0344102 -1.2086e-20)
(0.0681338 0.0357608 -1.68458e-20)
(0.0584598 0.0375723 3.06053e-20)
(0.0489019 0.0400011 -2.34769e-20)
(0.0395242 0.0432302 -2.68761e-20)
(0.0303748 0.0474515 -2.42122e-19)
(0.0214707 0.0528249 -4.20394e-20)
(0.0127899 0.0594135 -8.25114e-20)
(0.0114268 0.114262 -7.98256e-20)
(1.5 3.78307e-17 2.36375e-22)
(1.5 -3.14732e-16 -5.16261e-23)
(1.5 -1.16926e-16 2.87921e-22)
(1.5 2.45054e-16 -5.08691e-22)
(1.5 8.90912e-16 -2.00609e-21)
(1.5 7.27547e-16 -4.19576e-21)
(1.5 6.75219e-16 -3.77435e-21)
(1.5 2.3955e-16 -2.7067e-21)
(1.5 5.07932e-16 -4.98044e-21)
(1.5 8.73955e-16 -4.69157e-21)
(1.5 6.17053e-16 -2.92622e-21)
(1.5 1.80898e-16 -5.80384e-21)
(1.5 2.3869e-16 -6.68333e-21)
(1.5 3.8979e-17 -4.96494e-21)
(1.5 2.54465e-16 -5.01226e-21)
(1.5 1.85103e-16 -4.69111e-21)
(1.5 2.05345e-17 -7.27885e-21)
(1.5 -3.71029e-16 -4.78786e-21)
(1.5 -3.43722e-16 -6.15349e-21)
(1.5 -4.07703e-16 -6.56133e-21)
(1.5 -6.83377e-17 -6.27976e-21)
(1.5 3.67078e-16 -6.01036e-21)
(1.5 -1.24938e-16 -5.09536e-21)
(1.5 -1.6362e-16 -4.87075e-21)
(1.5 -3.80909e-16 -4.05818e-21)
(1.5 -1.79001e-16 -3.4454e-21)
(1.5 -4.51002e-16 -3.17532e-21)
(1.5 -7.88223e-16 -3.22787e-21)
(1.5 -6.996e-16 -3.29316e-21)
(1.5 -5.29485e-16 -3.53355e-21)
(1.5 -4.31033e-16 -3.45262e-21)
(1.5 -3.79111e-16 -3.68551e-21)
(0.797631 0.0140661 -3.60398e-21)
(0.49254 0.0172539 -5.00485e-21)
(0.484783 0.0176188 -4.92655e-21)
(0.478057 0.0175382 -4.71912e-21)
(0.47178 0.0172655 -4.53472e-21)
(0.465998 0.0170354 -4.36317e-21)
(0.460653 0.0169653 -4.90964e-21)
(0.455676 0.0170675 -5.45145e-21)
(0.451013 0.0172979 -5.60249e-21)
(0.446637 0.0175979 -5.33652e-21)
(0.442534 0.0179166 -3.46041e-21)
(0.438701 0.0182193 -4.81706e-21)
(0.435139 0.0184875 -2.78003e-21)
(0.431803 0.0190204 -9.30744e-21)
(0.428482 0.0194524 -4.13941e-21)
(0.425193 0.019845 2.54589e-21)
(0.421933 0.0202203 9.11873e-21)
(0.418692 0.0205927 1.05123e-20)
(0.415456 0.0209742 8.51879e-21)
(0.412207 0.0213729 -1.9159e-21)
(0.408931 0.0217918 4.77156e-21)
(0.405613 0.0222284 -5.54145e-21)
(0.40224 0.0226759 -5.5752e-21)
(0.398805 0.0231256 -9.0663e-21)
(0.395301 0.0235684 -1.2494e-20)
(0.391726 0.0239975 -1.24985e-20)
(0.388076 0.0244087 -9.00829e-21)
(0.38435 0.0248014 -5.45385e-21)
(0.380556 0.02518 -8.96573e-21)
(0.376697 0.0255497 -1.94937e-20)
(0.372775 0.0259151 -1.5724e-20)
(0.368794 0.026279 -1.55288e-20)
(0.364755 0.026642 -1.89201e-20)
(0.360656 0.0270033 -1.86718e-20)
(0.356499 0.0273608 -1.83772e-20)
(0.352283 0.0277126 -1.80335e-20)
(0.348009 0.028057 -1.19936e-20)
(0.343675 0.0283934 -2.10712e-20)
(0.339283 0.028722 -1.07615e-20)
(0.334831 0.0290436 -1.89532e-20)
(0.330322 0.0293595 -2.5186e-20)
(0.325755 0.0296707 -1.5757e-20)
(0.321131 0.0299778 -1.46877e-20)
(0.31645 0.030281 -1.15705e-20)
(0.311715 0.0305803 -1.30904e-20)
(0.306925 0.0308754 -1.51482e-20)
(0.302082 0.0311661 -2.38103e-20)
(0.297186 0.0314525 -8.53978e-21)
(0.292237 0.0317346 -7.913e-21)
(0.287232 0.0320125 -2.41781e-21)
(0.28217 0.0322866 -1.40485e-20)
(0.277046 0.0325572 5.76406e-21)
(0.271853 0.0328245 1.03882e-20)
(0.266585 0.0330892 1.90933e-20)
(0.261232 0.0333519 1.82753e-20)
(0.255782 0.0336133 1.74455e-20)
(0.250223 0.0338744 6.30181e-21)
(0.244542 0.0341365 -2.89445e-21)
(0.238724 0.034401 -1.19287e-20)
(0.232756 0.0346696 -2.82533e-20)
(0.226625 0.034944 -1.98274e-20)
(0.220319 0.0352263 -1.18257e-20)
(0.213826 0.0355185 -5.46006e-21)
(0.207136 0.0358228 -1.85128e-20)
(0.200241 0.0361413 -1.06823e-20)
(0.193134 0.0364761 -4.71246e-21)
(0.185809 0.0368294 1.54219e-20)
(0.178262 0.0372033 -1.77753e-20)
(0.170488 0.0375998 3.55998e-20)
(0.162485 0.0380213 -2.26658e-21)
(0.154251 0.0384708 1.31939e-21)
(0.145786 0.038952 -1.24661e-21)
(0.137092 0.0394709 -3.79639e-20)
(0.128176 0.040036 1.0609e-20)
(0.119047 0.0406609 -1.07305e-20)
(0.109722 0.0413655 1.83218e-20)
(0.100224 0.04218 7.58791e-20)
(0.0905862 0.0431478 -1.66354e-20)
(0.0808509 0.0443312 4.32828e-20)
(0.0710716 0.0458171 -9.99096e-20)
(0.0613114 0.0477231 -5.19073e-20)
(0.0516393 0.0502026 3.13631e-20)
(0.0421237 0.0534448 -7.30178e-20)
(0.0328204 0.0576613 6.43588e-20)
(0.0237584 0.0630443 -1.73102e-19)
(0.0149319 0.0696906 -1.7299e-20)
(0.0138115 0.12067 2.54117e-20)
(1.5 -1.19323e-17 1.60876e-21)
(1.5 -1.10768e-16 1.7002e-21)
(1.5 -1.13339e-16 1.37137e-21)
(1.5 3.96529e-16 1.15384e-21)
(1.5 1.03974e-15 4.00053e-21)
(1.5 1.02567e-15 5.14891e-21)
(1.5 5.87858e-16 3.45149e-21)
(1.5 3.69449e-16 5.63835e-21)
(1.5 3.81913e-16 3.85141e-21)
(1.5 3.98606e-16 3.60447e-21)
(1.5 6.9395e-16 3.21549e-21)
(1.5 6.53186e-16 4.27568e-21)
(1.5 4.03485e-16 5.24124e-21)
(1.5 4.08488e-16 1.09147e-21)
(1.5 5.37625e-16 -1.33783e-21)
(1.5 6.57303e-16 -9.54675e-22)
(1.5 3.38133e-16 8.31743e-22)
(1.5 5.70928e-17 -5.01178e-23)
(1.5 -2.64098e-16 1.38845e-22)
(1.5 -1.63927e-16 1.84948e-21)
(1.5 -9.70606e-17 2.09875e-21)
(1.5 4.8806e-16 2.28127e-21)
(1.5 2.2476e-16 2.45091e-21)
(1.5 -1.98559e-16 2.62226e-21)
(1.5 -6.21656e-16 1.02295e-21)
(1.5 -5.75205e-16 8.38887e-22)
(1.5 -7.13628e-16 9.4496e-22)
(1.5 -6.5393e-16 1.33684e-21)
(1.5 -6.69834e-16 9.68942e-22)
(1.5 -5.01591e-16 3.14358e-22)
(1.5 -4.34212e-16 6.90598e-22)
(1.5 -5.16457e-16 1.04118e-21)
(0.790581 0.015664 1.15532e-21)
(0.484704 0.020859 9.675e-22)
(0.477052 0.0215971 8.00712e-22)
(0.470858 0.0215066 2.10532e-21)
(0.465282 0.0211075 3.39808e-21)
(0.460222 0.0207768 4.66058e-21)
(0.455541 0.0206835 6.5885e-21)
(0.451132 0.0208347 8.43278e-21)
(0.446934 0.0211598 8.01454e-21)
(0.442922 0.0215724 6.12165e-21)
(0.439086 0.0220011 5.83831e-21)
(0.435428 0.0223985 5.54825e-21)
(0.431946 0.0227401 5.11996e-21)
(0.428556 0.0231929 5.10748e-21)
(0.425181 0.0236414 -1.27296e-21)
(0.421827 0.0240652 -1.08291e-20)
(0.418491 0.0244706 -1.39724e-20)
(0.415163 0.0248727 -2.01633e-20)
(0.411834 0.0252872 -1.98779e-20)
(0.408489 0.0257255 -2.28417e-20)
(0.405115 0.0261926 -1.93012e-20)
(0.4017 0.0266862 -1.26023e-20)
(0.398237 0.0271981 -1.58387e-20)
(0.39472 0.0277173 -1.91097e-20)
(0.391152 0.0282332 -5.80019e-21)
(0.387536 0.0287379 -9.13907e-21)
(0.383878 0.0292278 -1.25251e-20)
(0.380181 0.0297024 -1.25005e-20)
(0.376449 0.0301646 -1.24954e-20)
(0.372685 0.0306196 -2.40645e-21)
(0.36889 0.0310723 4.17989e-21)
(0.365063 0.0315259 3.757e-21)
(0.361203 0.0319809 1.01351e-20)
(0.357308 0.0324356 5.79787e-21)
(0.353373 0.0328872 4.98126e-21)
(0.349396 0.0333324 4.09714e-21)
(0.345372 0.0337685 1.60495e-21)
(0.341298 0.0341937 5.30506e-22)
(0.337171 0.0346077 -2.80943e-21)
(0.332987 0.0350108 -2.83581e-21)
(0.328744 0.0354038 -1.20375e-20)
(0.324439 0.0357876 -4.63642e-21)
(0.32007 0.0361628 -6.31652e-21)
(0.315635 0.0365298 -6.75715e-21)
(0.311134 0.0368886 -5.36571e-21)
(0.306566 0.0372394 -4.25218e-21)
(0.301931 0.0375825 -9.9758e-21)
(0.297229 0.0379186 -9.87421e-21)
(0.292458 0.0382483 -9.70335e-21)
(0.287618 0.0385725 -8.96935e-21)
(0.282707 0.0388923 -9.51671e-21)
(0.27772 0.0392086 -7.79461e-21)
(0.272654 0.0395224 2.13818e-20)
(0.267502 0.0398348 3.95437e-20)
(0.262255 0.0401471 1.78348e-20)
(0.256904 0.0404607 4.68753e-20)
(0.251438 0.0407771 2.12911e-20)
(0.245845 0.0410981 6.92286e-20)
(0.240113 0.0414259 5.71452e-20)
(0.234229 0.0417627 5.50638e-20)
(0.228181 0.042111 4.33799e-20)
(0.221957 0.0424736 3.45119e-20)
(0.215548 0.0428534 2.79028e-20)
(0.208945 0.0432536 1.97464e-20)
(0.202138 0.0436771 7.97168e-20)
(0.195122 0.0441272 5.08897e-20)
(0.187891 0.0446069 1.59175e-20)
(0.180439 0.0451193 3.9135e-20)
(0.172763 0.0456674 -2.93375e-22)
(0.164859 0.0462539 3.17212e-20)
(0.156725 0.0468821 2.53884e-20)
(0.14836 0.0475556 2.84677e-20)
(0.139765 0.0482792 1.35574e-20)
(0.130943 0.04906 3.06744e-21)
(0.121903 0.0499084 -2.15993e-20)
(0.112657 0.0508403 5.51463e-20)
(0.103226 0.0518797 1.52394e-20)
(0.0936374 0.0530628 4.97545e-21)
(0.08393 0.0544428 1.78151e-20)
(0.0741523 0.0560967 1.4231e-19)
(0.0643637 0.0581332 -1.15678e-19)
(0.0546316 0.0607007 -1.10709e-19)
(0.0450257 0.0639922 -2.35968e-20)
(0.0356072 0.0682366 -4.00007e-20)
(0.0264141 0.0736551 -2.05432e-19)
(0.0174539 0.0803687 -1.25552e-19)
(0.0165216 0.127835 2.60546e-19)
(1.5 1.48713e-16 -1.94899e-21)
(1.5 3.89558e-16 -2.18966e-21)
(1.5 6.64813e-16 -2.22101e-21)
(1.5 7.75924e-16 -4.83193e-21)
(1.5 8.75547e-16 -6.25133e-21)
(1.5 8.41682e-16 -5.8672e-21)
(1.5 5.09037e-16 -3.85188e-21)
(1.5 4.15078e-16 -6.44616e-21)
(1.5 2.68233e-16 -5.68626e-21)
(1.5 4.84418e-17 -5.61525e-21)
(1.5 2.90941e-16 -4.85626e-21)
(1.5 3.60381e-16 -4.28503e-21)
(1.5 2.96314e-16 -1.08707e-21)
(1.5 7.5615e-16 4.49404e-21)
(1.5 1.09663e-15 7.10204e-21)
(1.5 9.38036e-16 6.98812e-21)
(1.5 7.2583e-16 9.279e-21)
(1.5 6.83934e-16 6.71481e-21)
(1.5 3.45263e-16 8.00325e-21)
(1.5 1.08624e-16 1.02978e-20)
(1.5 2.85428e-17 7.91318e-21)
(1.5 3.641e-16 6.69476e-21)
(1.5 2.79501e-16 6.71993e-21)
(1.5 -1.2025e-16 7.12801e-21)
(1.5 -3.00274e-16 9.44025e-21)
(1.5 -6.21866e-16 9.20007e-21)
(1.5 -7.89193e-16 8.99611e-21)
(1.5 -7.21948e-16 9.07896e-21)
(1.5 -7.38177e-16 9.54214e-21)
(1.5 -5.6964e-16 1.00213e-20)
(1.5 -4.6936e-16 9.74658e-21)
(1.5 -5.96866e-16 9.7849e-21)
(0.799793 0.0202033 8.79452e-21)
(0.487093 0.0253991 1.21448e-20)
(0.479198 0.0259455 7.71058e-21)
(0.472797 0.0256234 6.10818e-21)
(0.466998 0.025007 5.96585e-21)
(0.461697 0.0245548 3.09864e-21)
(0.456774 0.024454 3.11717e-21)
(0.452143 0.0246861 4.57715e-21)
(0.447755 0.0251418 4.58976e-21)
(0.443591 0.0257015 4.54589e-21)
(0.439646 0.0262715 2.36672e-21)
(0.435921 0.0267932 5.26681e-21)
(0.432417 0.0272382 5.18006e-21)
(0.429076 0.0278254 -8.4712e-22)
(0.425751 0.0283569 -8.17151e-22)
(0.422449 0.0288412 -7.4232e-22)
(0.419166 0.0292956 -9.75668e-21)
(0.41589 0.0297427 5.69772e-21)
(0.41261 0.0302037 5.7872e-21)
(0.409309 0.0306938 1.20374e-20)
(0.405974 0.0312194 1.52111e-20)
(0.402593 0.0317772 1.21784e-20)
(0.399157 0.0323572 1.22839e-20)
(0.395662 0.0329451 2.49826e-20)