/*--------------------------------*- C++ -*----------------------------------*\
| =========                 |                                                 |
| \\      /  F ield         | OpenFOAM: The Open Source CFD Toolbox           |
|  \\    /   O peration     | Version:  2.2.x                                 |
|   \\  /    A nd           | Web:      www.OpenFOAM.org                      |
|    \\/     M anipulation  |                                                 |
\*---------------------------------------------------------------------------*/
FoamFile
{
    version     2.0;
    format      ascii;
    class       volScalarField;
    location    "3.14";
    object      divBf;
}
// * * * * * * * * * * * * * * * * * * * * * * * * * * * * * * * * * * * * * //

dimensions      [1 -3 -2 0 0 -1 0];

internalField   nonuniform List<scalar> 
40000
(
1.37602
-6.25512
4.03448
-2.91997
2.33158
-3.40819
1.72222
3.36974
-11.7226
10.2473
3.65242
3.1362
-7.28027
2.98928
-0.0773859
0.698239
2.10966
-0.00706045
-4.45566
1.00247
4.19954
-11.597
2.04923
5.00376
-6.96694
7.44787
3.7561
-2.57479
-1.28833
-3.52686
2.26126
6.34149
-0.16386
1.30705
0.37387
-0.139538
-0.274618
-1.8608
-3.98295
3.33928
-1.52304
3.72795
-0.974793
-10.2705
-0.166842
-0.480712
0.0984478
-5.60506
2.53397
1.45181
-7.02788
3.30514
4.57365
3.52788
-5.02326
-2.7088
1.56622
-3.21129
27.4459
0.69885
-50.3644
10.4538
21.2201
3.79426
1.29758
29.7906
-17.8891
25.1703
-8.17443
9.52816
-53.5522
16.4123
-91.6769
82.1656
-16.1876
-20.082
-27.3445
45.2676
-10.8017
-4.81681
-6.29783
-10.1668
3.46609
12.8026
-16.8946
-13.5287
21.4495
23.3473
14.0596
-3.45293
-23.4259
-54.5122
-19.4232
-2.743
-93.3919
-162.092
-37.0235
244.51
130.001
199.181
-35.6393
-39.3593
132.351
-28.6321
-199.038
-55.2597
-20.8187
36.0572
-44.9403
-66.9842
3.69154
6.93416
13.2351
7.49445
7.81442
-2.1706
-2.17271
19.8963
3.24497
-5.40292
-15.6276
-12.2212
40.8835
-22.8124
16.8448
-52.5706
31.4218
-60.2128
14.6949
21.4608
18.5049
12.6947
32.8798
1.27253
36.23
2.65635
8.87329
1.22904
18.6113
33.4754
-31.4991
-22.9926
7.49827
7.31789
-0.698343
0.373633
-0.312484
3.32547
-6.97906
4.92045
8.34442
-10.842
-7.54861
12.6654
12.4797
-5.02642
-6.11641
5.76067
4.4717
-17.7982
14.6186
9.78393
-14.8889
2.551
1.31048
-10.5392
5.08233
3.33778
-6.56159
6.04204
-8.00661
9.85695
5.9485
-3.69991
8.03874
-8.79002
4.64599
5.16137
-9.19208
4.43291
-3.68943
1.51875
-3.41569
2.2662
1.70125
-4.91023
4.89841
-6.46783
2.40254
-3.18454
-2.557
0.874077
0.704474
-6.92873
-2.5356
8.59817
2.33262
-9.04081
4.81744
3.7662
5.18997
-1.23348
4.56894
-6.413
2.75264
-1.02312
2.92097
-4.86535
1.358
-2.44948
9.13919
-11.1774
2.54045
0.483858
3.03558
-3.55831
1.05519
3.67817
-8.45685
4.88608
6.96688
-6.15457
4.24998
0.189627
-2.87805
-0.898127
-3.12582
1.78762
0.984768
-4.03738
-1.98656
3.84327
-0.87905
-0.175673
2.41135
-5.16344
0.546859
-3.70618
1.08135
-1.52606
-4.045
0.874991
8.23019
-5.2103
0.0500394
4.02106
-5.93995
-0.0771948
5.81326
-0.456248
-2.02446
0.448146
0.668567
-0.733222
-13.5427
-0.181883
15.1693
-1.29628
-11.2761
7.91639
19.3328
-5.79048
-8.0859
-11.2822
14.2141
-0.802216
-16.3012
-29.9531
-23.2459
-42.0612
33.713
17.2938
-37.7397
28.8512
-8.21768
41.5582
-39.6406
8.86842
36.2165
-45.3721
-9.5706
14.3512
-7.24967
23.3047
-4.89173
-13.8543
-5.89138
5.09503
-13.454
-44.9494
-54.8142
-21.4672
37.8819
40.0985
28.5551
52.1785
116.145
358.914
6.62453
-34.7915
-327.527
-213.44
51.2669
85.9439
-60.0363
-101.125
38.7908
52.4403
1.53725
-13.1696
14.2582
8.14358
9.3034
8.61395
0.604336
-0.363392
-13.2694
17.525
3.85751
-22.877
-12.2928
-6.83706
35.6101
25.8259
-85.7397
27.4176
25.7492
59.0816
49.4962
21.6054
-8.67302
6.67775
3.38179
21.4513
-75.0902
-3.13986
-30.6387
-4.14881
-1.23861
-25.0227
3.86689
21.9046
5.38009
-2.41763
-2.96017
0.935551
2.16366
-1.6428
-6.05246
4.62905
12.6124
-12.136
-11.5853
11.4941
10.6756
-9.91601
2.91808
1.80001
3.54457
-17.2707
-3.6716
4.21578
-4.84438
7.13326
4.0581
-12.5043
11.4898
-2.69177
-0.948808
6.68011
-10.8357
6.67377
-5.91445
-2.96162
3.16835
-12.6826
0.232413
-1.01716
-1.23802
4.17995
0.88685
4.02741
-0.794633
1.95292
5.45746
-3.82787
3.72006
2.88782
-11.6865
6.11364
-1.31831
-5.74004
-0.286027
6.23025
8.0574
-15.4222
-0.61714
-1.40237
-2.89714
-0.151343
-0.662646
-2.08584
-0.468479
7.17637
-0.103681
-4.65644
-4.48285
0.240987
12.6618
-5.11133
0.123549
-8.82704
7.10585
0.0999086
4.5115
-6.44548
1.25116
6.81174
-9.93474
3.26348
5.9081
-10.2098
6.13823
4.93803
-7.07943
4.39235
-0.583048
-4.15327
4.27031
-1.16934
0.0703708
2.24048
-3.20764
-2.849
1.76401
-1.72648
4.15529
1.82382
1.17497
0.58144
-4.22467
5.34364
4.58331
-7.4749
0.425277
6.32798
-1.28529
-5.48635
1.70688
4.44408
-0.680137
-6.14533
1.33535
6.48151
-4.28192
-4.24216
-2.81089
5.40469
-5.41155
-13.8923
15.8628
6.0253
-7.85434
-6.48284
2.88582
-23.0675
-15.6199
-14.6906
64.1168
-25.3426
92.8929
-129.633
39.9632
49.0763
-10.5293
-14.7027
8.74775
-38.4321
42.9855
13.3044
-20.638
2.3582
49.0262
-14.7548
-5.91256
14.507
-21.8469
1.58572
19.4856
-9.27699
-27.2207
48.212
56.1692
191.691
29.261
-142.093
-126.478
-180.27
-107.004
67.9015
-144.044
110.514
145.205
48.657
21.3755
-16.226
49.8619
32.9013
7.09112
17.2975
13.8752
8.5905
-13.5236
-15.383
-7.36259
-6.91883
-4.53013
21.1445
-4.41394
-32.9046
-20.1448
31.722
2.67094
77.813
-64.507
7.93391
40.9077
-25.266
-61.1143
-25.5845
-4.79029
-0.308616
-17.6205
-3.14411
4.87181
3.39508
-9.55153
-13.9403
14.8166
22.6492
1.25258
-7.47343
1.30292
-2.74072
1.01137
1.25068
5.18326
-6.05858
-1.99189
11.8596
5.27261
-2.37554
-6.60825
3.60829
5.85586
-17.8187
18.639
3.48125
-2.71307
16.7992
12.7591
-1.06735
-6.53795
13.9477
9.32825
-9.96396
7.51119
-9.0656
-1.67182
0.182249
-10.6113
1.44421
-7.10845
6.3562
3.4569
-3.96406
4.0231
-4.86757
2.78451
-4.08961
3.1451
1.39943
-2.99716
2.42426
-0.419852
1.36115
-11.0291
13.6936
-10.9769
11.3103
-11.4601
5.79185
8.9033
-3.97803
3.89373
3.86618
-0.649334
2.02927
-4.50456
-0.475095
-6.23044
-3.15689
2.67923
4.87329
-5.48629
-0.755309
-3.43964
5.03925
-1.0539
-2.86887
-1.29019
1.4673
-3.51065
0.726838
1.78455
-5.28903
4.79811
2.5561
-8.89088
2.45748
4.12219
-8.71838
2.86966
3.48231
-5.70569
4.66182
-4.25606
-3.16379
1.08212
-1.74249
-1.89386
-0.288948
1.8575
-0.106901
0.0822957
1.69529
-4.04461
5.24967
2.84267
-5.81563
-2.37861
3.50393
-5.03956
-5.4734
7.64217
4.32587
-5.82299
-0.720308
1.65557
0.778344
-4.21542
-2.24111
7.28014
9.37649
-3.64187
-1.68363
-1.29437
-0.054143
4.70172
1.93661
12.1996
-4.64502
-20.4577
6.61748
1.80228
11.2734
-12.827
64.3656
-65.6463
35.9179
52.4248
-44.1949
24.9674
-5.52832
20.9159
-58.7155
16.8787
31.942
-38.9911
13.5444
9.76135
-35.7179
12.1299
22.3267
-37.3084
-10.5278
12.9429
24.3163
21.8958
31.2791
18.6536
-15.0043
-20.9732
-1.04875
-289.899
-252.06
2.30871
146.629
140.54
-2.76279
0.79151
49.5861
68.7243
48.5437
-14.2905
-53.6972
-0.534743
21.1309
-7.44259
-14.1216
-15.9899
-3.1973
-12.7474
-0.563197
24.5032
2.84558
-18.5689
9.24061
30.8895
-36.0058
-13.3302
32.9962
31.8296
-2.9602
-74.8455
-14.5112
-26.5277
-29.4119
-16.5069
-29.6263
-16.6054
-15.5425
3.30465
-6.33579
11.5585
25.2933
35.2048
6.30662
2.43489
0.586206
-20.602
-0.506665
7.53746
2.17797
-7.9632
2.81995
-7.67915
1.29142
-7.51582
5.92632
8.17904
-19.3595
3.31053
11.8876
-12.2058
-12.7805
21.8214
2.40677
-15.4755
2.04738
-8.58754
11.3348
-16.0228
-6.08153
-4.38503
-14.9014
3.15822
-7.23749
3.61591
1.72457
1.31963
6.16993
-1.92117
8.1152
1.87583
3.40819
4.12648
-0.650977
2.28615
-5.27465
5.2243
-8.85995
-0.465815
3.69693
-10.7058
7.73532
-9.31084
5.64045
1.72712
7.76296
0.345198
1.86284
1.58615
-2.20126
-10.4499
9.3148
-4.52773
0.900615
2.05209
0.251122
-5.07803
1.31167
0.16945
-0.781404
0.306861
1.56136
-2.6069
4.96946
-4.16876
2.72898
-1.87869
5.69278
-5.57448
6.0615
-0.20984
-4.88086
3.75747
3.58117
-7.77474
2.74912
3.12787
0.261365
-2.39884
1.79066
-2.5408
0.722046
0.115234
5.49227
1.209
0.051976
-0.654494
0.504521
-0.193408
-0.841252
1.74795
1.50042
-6.65148
7.28631
1.58723
-8.03239
5.57291
1.272
-7.78571
3.45527
4.72758
0.261915
-0.250396
0.487265
-0.0155108
0.00993889
-1.64141
-0.0696759
2.42951
-0.449298
0.512082
4.10417
5.07112
-6.66007
-5.24899
1.70765
-5.51813
-3.49427
5.9431
-4.79086
28.5685
-25.655
20.3221
44.6549
-104.198
44.532
3.6048
-13.1226
-22.0796
-19.937
44.4382
6.60946
-44.6017
36.8857
3.46165
-53.7756
8.23325
28.8405
-19.6091
-5.83499
0.932363
-27.6926
-9.06869
23.0018
42.1046
-13.6847
-45.152
-154.281
-23.3107
217.721
160.854
-71.5958
197.093
26.5219
122.66
-126.887
-103.575
-74.8882
62.8996
-10.0469
-20.0232
-92.4084
-18.7826
23.253
1.3682
-21.9518
-23.0063
2.9991
14.5609
7.19776
9.91734
2.7001
-18.5983
-0.40911
29.6369
2.40142
-1.83703
-61.7342
54.8352
23.5859
-62.9505
-16.2021
11.1032
17.9144
18.3998
31.3611
26.6047
29.1919
-2.39888
7.3224
0.96681
-9.49728
-33.2019
-0.133662
-18.334
1.99158
27.3293
-8.33825
-3.58209
2.32563
0.607135
8.0933
3.38842
-14.5233
0.451353
4.98692
1.10074
-13.5609
-1.38101
9.55534
2.95165
-25.5635
-5.63182
-12.3331
-20.4419
-5.03559
-12.3546
2.8043
-12.4726
7.02658
6.43747
7.69018
13.238
-3.9639
7.47822
0.733825
5.19502
1.31373
-0.533331
2.44046
-4.78734
-0.393253
-3.09898
0.627058
0.102773
-0.567322
2.60336
-6.3951
-2.34402
6.37966
-2.71206
-0.119957
16.1548
-18.4762
5.23835
-5.92589
8.62084
-8.31064
-8.75357
1.72298
-4.3106
3.59341
2.02098
-3.72296
3.27235
5.23906
-3.66978
0.855281
-3.52516
-0.545387
2.49195
2.16611
-1.83435
1.21942
-1.83594
3.40437
-0.732476
0.879119
-4.92754
4.47681
4.55552
-5.53718
1.0984
1.3029
1.48208
-5.05254
0.446346
7.3426
-6.7316
4.26354
-0.55028
0.092509
2.4533
1.01073
0.805038
-0.257358
-0.731543
1.06878
-0.330298
-2.75595
7.70008
-6.091
0.686206
3.38059
-6.64482
0.58947
9.339
3.37816
-5.3699
-0.493301
-1.41947
-1.41026
-2.84899
1.22592
6.99783
5.77783
-7.35929
-10.2269
5.84305
-0.326579
-3.78051
-0.778386
-0.278876
0.458469
-7.63561
4.12901
8.29685
4.70517
-2.9831
-12.5733
45.2091
-75.996
36.888
1.31346
-8.07591
29.0287
-36.004
4.91672
11.2343
10.6657
-23.3251
33.3988
-7.3131
-42.5577
32.176
19.3994
-42.0434
8.19646
25.5557
-9.16213
12.2336
1.90771
-20.5083
-23.9589
-34.1436
-1.98248
-17.3155
6.8344
167.97
206.064
188.112
-41.9468
-182.539
-152.64
151.855
-124.337
-92.9246
-2.52293
3.01767
61.8483
-28.9015
-85.0898
11.0062
54.8721
6.5385
-0.107669
4.48624
2.75951
0.609716
7.20829
-2.43621
-10.0516
-11.9628
12.9977
6.03543
6.8367
-38.5194
-40.6934
12.3111
80.3586
17.5664
25.8858
46.4841
28.1052
-5.75661
-5.56246
-2.3914
-8.07918
2.91003
-5.01575
2.35673
6.08856
-1.30342
5.26332
-7.02397
-6.10512
9.09507
-8.70302
-7.4925
2.19119
0.510948
-0.524473
12.3033
-1.67699
1.30566
15.628
3.15426
-2.68154
4.121
15.3078
3.27036
1.78137
18.3397
9.83635
13.1873
12.7039
10.8415
11.5887
1.08844
13.9968
2.1793
3.33657
-3.13672
-2.64029
-1.1106
-4.82006
-0.032089
-6.51075
-2.21158
-1.76199
-3.14207
-1.41193
-2.99648
1.27673
-1.66602
4.88906
2.08328
0.519389
-1.40098
3.8087
10.983
-18.1476
16.1329
-15.0878
9.45436
-6.24028
3.26089
-7.42348
2.36652
-0.133911
5.8097
-4.24591
7.36558
-12.4663
7.63586
6.56837
0.280855
1.36553
-1.1774
-0.383186
-0.615984
3.29568
0.525025
-1.76881
-0.664133
-3.23697
-1.93249
1.35424
-0.72324
-3.63575
5.62386
-1.5308
-4.63925
-0.334314
7.84016
-8.02291
3.9077
3.82567
-1.92116
2.90141
-2.81574
0.894563
-0.1581
-4.01263
-0.692658
2.10712
-1.55793
0.576031
-0.603774
3.45232
0.537428
-1.78908
6.35498
-0.13022
-12.5244
5.9244
6.397
-6.06278
-2.27722
2.18611
0.122809
-4.09266
0.382653
-0.745597
-0.931188
5.51203
7.83199
1.86288
-2.31403
-3.22971
-0.906328
0.00181598
4.43419
-0.550567
2.97295
7.84345
-17.058
38.5413
-66.9159
36.2062
9.7379
-12.3389
19.0336
-14.6009
-5.43893
11.1672
12.1164
-6.48394
-16.7385
17.9043
12.8446
-25.2877
9.06634
0.748451
-11.1938
46.3832
1.16475
-44.3839
23.4479
31.4526
1.68415
-13.5107
-1.59537
-3.47666
35.7841
101.144
48.8233
-41.7363
-161.68
-140.757
-235.083
10.3443
10.8326
55.5096
64.1119
45.6191
-93.9809
32.2259
56.6804
98.2654
-46.1362
-40.1197
48.4626
41.074
-8.04991
-8.36413
6.75476
-3.63738
-17.6726
-0.644287
28.5353
0.67835
-38.8436
9.83573
18.5614
20.2841
-48.0172
-15.078
17.1124
22.06
4.69101
22.2913
-2.72711
-14.8335
-19.4371
-16.1706
0.428713
-13.7229
7.04271
8.61262
-0.284482
-4.64173
2.51995
-14.8547
-2.64146
5.39303
7.4133
-4.04712
0.483169
-0.971153
-1.3628
-1.51258
0.570772
-4.48724
-0.530153
0.257757
-0.904995
-12.0025
6.17238
4.38502
7.05732
-4.60371
14.3205
5.90944
0.503444
1.05361
2.00411
6.29942
-2.96003
-5.56273
-13.4286
-3.70834
-7.87807
-0.714809
-0.892729
-1.50777
0.771524
-3.05435
0.967346
-0.688173
-2.05574
-1.40069
-0.233302
1.69459
-2.171
4.7349
-3.41252
3.87113
3.72031
-8.29386
13.1761
-6.46984
-13.6886
9.03892
-0.478613
5.68527
-3.04431
7.91346
-1.17711
-6.4861
11.202
-5.5058
7.69352
-1.96036
-1.40419
3.53073
-1.97058
-1.93136
5.21769
-1.20685
-0.27655
-1.7159
3.37622
0.533536
2.39184
-9.43504
1.60452
2.77349
4.17491
-5.79567
2.52946
-1.68162
-1.63864
1.72924
7.44796
-9.31867
2.20274
-4.10223
4.16604
-0.587833
-2.4966
3.36732
-1.65398
0.794802
-4.81032
-0.0752068
3.46216
-9.2109
1.61471
7.01169
-10.9712
8.2046
5.24096
-9.16223
0.61974
1.9496
-1.88639
-2.41038
1.22041
6.46796
3.4324
3.396
-8.33979
-12.4352
-3.7821
-2.60195
-2.40709
5.37649
2.57266
-1.42767
2.10186
2.18383
-1.51629
2.24456
-12.9007
-11.513
11.6977
26.1176
-33.1167
19.7506
-9.3305
4.24363
22.351
-18.2153
-0.273895
11.0999
11.499
-5.40401
-2.01583
0.679935
17.2628
-21.5676
-12.428
40.7276
-2.2504
-5.50171
6.6917
-13.0706
-5.12746
18.1696
12.6867
2.53606
17.8256
-3.08628
10.395
66.0624
-101.354
-284.561
-190.532
71.6279
200.391
-28.1687
-226.971
287.094
101.733
52.9647
-131.454
54.2375
68.0701
-3.18039
-22.8794
-5.68052
25.746
19.5796
-19.2664
-28.6818
11.5248
4.1782
-11.945
2.48994
16.9382
-4.36637
-44.667
11.3654
64.012
25.6969
-2.15081
-64.8937
-64.2564
36.7928
-16.9926
-4.59935
-46.1053
-38.0793
-18.2082
27.3426
1.00825
11.3544
12.8506
-7.32588
-12.7043
-4.29388
3.58323
0.336646
-1.03204
12.5258
13.2246
4.49622
-5.22651
3.49763
8.64124
3.33852
-4.40918
-4.54381
1.39199
1.52177
-3.03015
-5.29876
-12.8743
9.29387
-0.555258
-14.4599
-11.7221
-19.9983
-12.9914
-11.571
-2.21343
-11.0449
-10.5167
-9.27605
-4.281
2.77549
-2.24094
1.75165
2.38762
2.77369
3.25769
3.18543
7.74612
3.34774
0.138954
-0.461143
1.3318
1.4822
2.52614
2.93087
-9.46659
1.6572
0.75458
-4.08072
-2.71467
7.2119
-15.8652
17.6995
-10.5576
8.99966
-7.50491
7.94589
0.106468
-3.30374
-2.02113
-1.98553
-4.00993
4.41489
-15.7337
2.1644
-0.925598
-8.02006
-0.60345
2.6493
4.50483
-6.95586
2.26106
-5.09149
2.7505
-2.29075
2.69023
-1.16956
5.23832
1.07
-1.45981
-1.41377
-1.60826
1.13003
-0.0886789
-1.51441
-2.63305
-2.17994
4.77493
-5.66055
3.81539
-1.25232
1.32867
3.23067
-4.74973
-0.0899262
3.21953
-5.77442
4.80759
-2.5353
-7.04294
6.26855
1.16211
-4.67452
0.40516
-0.0467393
0.430467
2.25443
1.61956
-1.33437
2.47928
8.2646
10.4718
3.9286
1.73562
-2.44191
-4.08577
-1.24701
-0.151189
6.92168
-5.57672
-0.206539
2.44391
-2.88628
24.5879
-47.9619
25.0161
-6.88409
-1.19917
10.2891
-25.2107
9.05871
10.2217
-8.76813
-2.07337
6.8309
-4.47138
-0.357943
-0.411385
0.489681
7.05884
-6.89421
-27.973
10.0362
27.9517
-38.3177
-44.2945
28.9579
-17.994
-14.6368
6.33979
14.0538
-46.3427
-62.4866
-80.0143
31.7544
85.3569
122.077
96.0353
189.726
149.938
-277.237
-108.896
69.3638
126.201
-62.2916
-52.3692
-1.83925
7.71141
2.4711
0.934267
-42.2024
1.62772
29.6074
-17.7708
-33.3928
14.6436
26.0745
-8.80909
13.2032
8.8701
7.67845
-39.5018
-22.785
16.699
28.2165
25.4704
-14.7844
-12.8631
-9.97765
-38.8099
-25.8712
17.2174
23.4153
8.92369
5.58565
11.9753
-6.95978
3.72833
-5.35005
-8.44706
-8.74216
5.71407
26.1251
-1.31519
-1.77694
0.729845
-0.778821
-9.79591
-2.75759
3.77326
-1.77108
-8.8565
-6.66068
0.408807
-0.743194
6.40593
9.80609
-28.2124
11.0474
-2.75141
-1.3117
-0.0835332
2.38133
3.76948
-2.17312
0.246853
-3.48372
3.95494
6.71215
5.24509
3.78418
0.133077
1.66212
0.579393
1.90647
-0.0608071
0.582062
1.76522
-0.394618
-1.22345
-1.46867
-0.117328
-0.346497
2.01984
0.221532
0.0627292
-8.32482
0.656301
4.65623
-13.2227
14.8917
-6.17103
-2.64497
1.48939
-1.56544
-2.05357
-1.57366
6.49387
-1.26926
-8.0955
10.1083
-10.7262
7.92864
-5.16936
4.32298
8.14112
-9.64107
3.09659
0.574993
5.67545
-3.50317
-1.04147
-6.0645
4.94295
0.0734249
1.09736
-2.14034
0.864489
-0.540878
0.353542
0.721451
-4.11349
4.6505
-4.29647
6.37619
-2.90234
4.56593
-1.01729
-0.0479979
2.21025
-2.02042
0.588388
-0.945437
1.48194
1.45501
-2.99649
6.78518
5.67774
-7.94149
0.373878
3.2274
-3.52702
1.77453
3.52946
3.50195
-4.27978
-6.23687
-1.69029
-0.405015
-5.0508
-7.21816
4.19967
8.54128
7.05878
1.16634
-0.891754
-3.04258
7.59489
-3.40214
1.44339
-2.13033
-17.934
22.7041
20.8441
-22.7159
28.5667
-21.1056
7.53422
12.803
-17.771
0.141948
0.0551534
-3.97182
1.95761
5.63825
-3.9556
-2.92551
1.10088
5.14843
-4.70557
-5.84244
-3.74963
-11.6113
18.3219
0.598433
-11.6897
-5.04939
17.8288
-16.5359
-22.1602
14.3011
-11.6909
-48.2632
-8.16273
138.891
195.563
157.558
-96.5362
-62.9112
257.819
-296.297
-78.0953
35.9559
117.449
-135.424
-13.5853
-62.4305
17.0662
-13.8696
1.23014
-8.29576
-6.66835
12.594
-4.8719
5.46871
11.5474
-7.68456
-9.29718
10.6746
-4.99262
-5.32663
14.4181
-26.3733
-43.025
58.534
29.5856
-50.6004
46.7597
9.04582
16.5307
5.28156
10.6177
29.4624
27.4121
-18.414
-38.6657
-13.2221
-2.05311
-19.6571
37.9681
-1.04125
-1.94153
36.3855
15.3347
-9.16668
-8.01754
-16.138
-24.5535
-7.90674
-0.00123282
-2.15909
-14.145
-3.95638
-0.682916
-2.50425
2.76858
-4.84481
-6.59378
5.29739
0.0953807
7.54042
6.56519
3.60097
1.09762
4.12009
2.92685
6.20731
14.8953
4.75536
4.28431
0.86063
-0.440099
-1.7175
-0.0965598
-0.426911
-1.73518
-2.25981
-2.82587
-2.34247
-3.14632
-2.20323
-1.69975
-0.76202
0.329917
-1.2804
5.57517
-3.73074
1.88712
6.42126
-8.13532
2.97555
13.6228
-19.1538
9.57211
-8.39116
8.70152
-9.28632
-0.771913
5.86005
4.88229
2.95589
-1.55628
2.91804
10.204
1.43185
10.6175
-7.24189
1.71103
1.26304
-3.21044
1.94297
1.49083
-0.417065
0.031865
0.796299
-3.25438
-1.40841
-3.68017
-2.05456
3.23712
2.83089
-3.33707
2.96524
-0.107963
0.538992
5.6682
-5.14313
-1.47678
0.345907
-2.23293
1.75814
-0.642181
-1.6753
2.34068
-0.726358
-3.50262
6.37694
-0.459857
-3.65388
3.27319
0.818788
-2.01708
0.606591
4.58165
-1.18872
-3.17511
2.89328
6.86411
0.301245
-9.83549
-6.23168
-9.06779
-5.91359
2.74712
-1.55594
-2.24161
2.1405
-2.85294
4.79649
1.56032
9.44661
-13.8757
8.35054
-33.6033
29.8144
6.453
-14.789
12.0525
1.63727
-5.65966
12.3774
-0.0484159
-8.46851
2.82432
6.64207
-10.0802
-9.33088
10.3071
11.6117
-10.8136
-7.27506
18.2542
3.88118
-5.73291
17.1698
14.0944
6.60236
10.1908
3.39026
9.88577
56.0383
37.1816
-12.7816
39.3265
-13.0788
-138.031
-294.564
-175.6
337.523
-72.5379
-114.003
-12.2292
72.5412
23.5469
-44.7887
-4.50043
24.9664
1.3342
13.0866
-5.00125
3.54915
0.809986
0.361103
-6.34365
6.61123
19.5478
-3.83472
-43.6068
4.33743
13.0744
-1.83937
3.1361
11.8806
-28.4113
-44.6743
80.8808
24.2539
-47.0601
45.5465
41.8012
-34.9631
-11.6861
1.81852
24.3412
28.556
3.06368
-8.24997
2.24351
-0.290115
0.733388
7.03714
-11.529
-4.83656
11.5026
-25.1006
-12.1944
-5.33061
-6.51587
4.92049
15.4554
11.0198
0.363536
0.549637
7.74483
1.92249
3.82435
-0.849558
4.22547
1.00217
0.783529
1.48696
-4.94766
-5.86155
7.04473
12.4613
4.04215
3.26704
-0.642989
-3.93389
-2.17425
-0.2668
-1.92447
-1.27242
0.410181
-0.726661
-1.884
-0.444738
-1.01083
1.70415
2.80176
1.22207
0.747023
-0.244249
-1.44295
-0.892258
0.771871
0.0656255
-1.41628
4.15426
12.3048
-14.1449
7.77304
4.49692
-3.0873
-0.818381
0.787119
3.93507
-0.222585
-0.608467
-1.01529
-10.3381
5.95017
-5.01579
1.49333
-16.106
3.62262
-5.63337
-4.8481
6.90902
-7.19068
2.2113
-3.781
10.4199
-4.45076
8.74481
-9.37803
6.84081
-6.43944
3.44619
1.29045
4.59899
-5.36578
0.742432
-0.825945
-2.18502
-0.865107
-1.20432
3.46544
-2.65527
1.64289
-1.34746
1.37158
1.2066
-1.16427
-2.52832
1.26088
1.78719
-5.6929
1.40102
2.24511
0.596904
0.893491
-1.43002
-2.0282
5.63898
2.11025
-0.673833
4.53842
3.54756
8.06552
8.40283
0.871584
1.45909
-0.42462
0.193466
0.28704
-0.390286
2.38276
-2.73872
-1.61823
-6.03685
3.05964
7.43851
-16.8315
6.29007
4.39904
-2.0141
4.00821
-10.6722
6.31439
12.6889
-10.5515
-4.44475
6.56223
3.64899
-9.10119
-6.84997
11.1102
8.69798
-5.4422
-5.21185
13.2926
21.0917
-3.26046
-2.35579
16.6965
22.6543
-13.4843
-8.3345
6.16762
60.6069
26.3082
-79.149
-141.547
-132.109
4.73617
40.3811
-186.608
366.382
-70.6996
-31.6568
-55.3083
98.6213
-18.7276
18.2326
-11.2603
59.9299
-8.44127
25.7451
-16.0568
17.7303
-1.23767
-8.47893
-3.01672
-17.7656
9.57382
26.634
-22.0975
-29.3303
39.2076
48.9369
-23.2874
-6.22978
44.8647
-76.5839
-34.6842
104.133
-51.482
-41.584
-2.49448
-17.1102
-7.51244
-7.01459
25.6056
0.927918
-34.8065
50.8568
-8.53771
31.9123
13.029
-12.1311
-43.5582
-39.5996
-3.20853
-17.8694
-21.2523
16.3897
23.1857
19.8985
21.3328
15.865
1.26948
4.14484
14.5733
8.89195
6.45735
-4.2137
10.0727
8.1859
1.58934
-4.66056
-4.04866
0.511222
3.15566
-2.70576
-0.435048
-6.03198
-8.09766
-8.97123
-6.35155
-4.71106
-3.37567
-1.62998
2.5827
2.4523
1.70385
2.10503
-1.01777
0.502145
1.44334
2.48274
1.53318
2.72891
2.67773
-2.40633
-0.969111
0.537331
-4.62676
-1.66179
13.0174
-6.88721
-16.8574
18.5775
-2.96673
3.57923
-8.25735
3.94338
2.60567
-4.70336
-3.73738
-0.43472
2.10443
2.44162
-2.60797
-3.93975
4.99561
13.9818
-10.9602
10.7383
-0.976558
-1.73071
-10.7852
5.87709
-3.2054
9.88093
-6.83259
2.64654
-7.33554
6.65436
0.966519
0.950208
-10.0907
1.79706
-3.33071
9.12637
-11.0902
11.7857
-8.39566
3.43089
3.41714
-3.81883
2.17887
1.82381
-3.15103
1.63539
3.35044
0.241449
-2.28924
0.57528
-0.55711
-1.84706
-0.303345
3.44908
2.83614
-4.59647
-9.1704
-3.78407
1.36801
0.97442
-3.87027
-0.266374
-1.55193
0.330546
3.72428
-3.31558
4.94861
-3.19517
7.62252
-5.04216
4.79421
-14.2449
19.358
5.87922
-8.42813
3.40988
-15.3201
-2.4633
4.31968
-6.5468
4.16483
3.90072
-13.7249
-2.94756
9.36869
-0.636938
-1.8886
2.38779
11.1538
-4.91785
-9.58083
-4.06945
1.77909
3.18966
-8.85272
-18.7588
-6.87803
-0.727532
-10.668
-36.9315
-29.299
12.4337
-20.2054
-1.29641
58.0944
170.605
192.697
-146.011
-95.906
208.143
10.3598
-51.6079
7.94437
54.511
-11.5324
-13.2409
-4.18082
3.17517
-19.7297
-19.0559
3.44055
10.7454
1.09367
-8.03316
-1.81448
9.67811
-6.95865
3.42517
16.1548
-40.5508
-21.9303
48.6995
6.78118
-76.5417
54.4113
56.3149
-122.749
-27.0764
53.3585
-15.8694
-3.56338
7.41975
-9.52292
2.98462
-10.8208
3.93996
-47.9754
-83.3015
12.6628
-27.483
12.5092
34.8463
8.5805
-43.42
46.6529
13.9997
6.71966
45.4767
54.8052
-5.72896
-11.9607
-0.0364105
-1.14783
-5.31789
3.70214
7.03349
0.211741
-7.22888
15.3169
6.45992
-1.1462
-2.55985
-1.43208
-2.09319
-14.024
-4.11249
2.48565
1.25017
0.440544
-2.89666
-1.94847
-4.42966
0.905551
0.436298
5.9493
2.08479
2.14588
3.18981
-0.776712
-1.26934
-1.39177
-1.48274
-3.64008
-0.0331909
1.60367
2.97902
-1.31002
-2.79693
0.609846
-1.79032
-5.07796
9.33868
-8.41729
-4.72302
1.33653
-1.30687
0.108471
-0.499632
2.25763
-1.18963
-3.49882
1.72106
-2.16932
15.3405
-4.80267
-7.10586
1.95384
0.240402
-9.65734
9.79864
4.84145
-0.0604765
-9.83079
-4.8315
3.7711
2.11299
6.75926
-6.53973
-4.55409
-2.83659
6.6256
3.32606
9.53316
-4.68473
-1.58824
1.76256
4.44257
-0.486125
-4.52978
1.35533
-2.07359
-1.66069
0.0255008
-0.479142
-0.0461993
2.62332
0.741473
-0.316562
0.142581
-0.00333928
-2.84519
-1.8592
-3.94874
-4.21474
-0.908379
8.99979
2.4751
-4.03011
-2.75182
-3.02419
2.54401
-4.0622
-0.913324
4.74115
-3.60765
6.19769
-6.98314
5.85142
-9.88146
8.21488
4.6004
-11.5219
12.9618
-2.89687
0.848039
9.82538
-10.6469
-3.03689
6.69473
-6.99391
-0.964039
4.54482
-3.79789
0.0354027
6.89218
-1.72663
-3.99193
2.80518
11.61
-5.58061
-17.8078
-0.990447
-0.484608
-15.7127
-20.0158
-12.4523
-9.60575
4.90633
-18.9583
-40.5527
-20.0009
29.5819
28.4644
110.197
149.04
-14.0253
85.4804
-240.814
54.0736
-22.4355
52.4137
-79.3373
17.665
5.24263
7.43836
-28.7275
9.90732
5.17059
-4.50624
-17.4951
13.3152
-9.55277
8.07002
-6.91833
-7.70481
12.1683
25.7608
-12.9057
7.50295
31.3738
-36.7861
-43.5979
88.6046
-3.69173
-122.347
108.408
46.0795
-116.022
56.7581
44.699
-29.279
-1.37674
8.53755
18.9585
-1.46836
-16.2635
18.8081
33.2194
50.8397
-69.721
-4.39504
5.76186
25.0184
1.86571
74.2451
70.9813
-32.6058
-2.6998
3.74313
-22.5896
-27.387
-13.9155
-1.14154
-10.5379
-13.4458
5.55998
0.0276734
-8.72197
7.01633
4.68465
0.129462
1.74784
0.69225
-3.58819
-12.8489
-2.80694
3.36421
5.57146
6.19876
2.7089
0.0875644
-1.4441
3.57568
1.60353
1.24822
-2.07631
-1.75145
0.21846
-1.15362
-1.59407
-0.387359
0.62429
-0.925651
-2.43646
-1.82317
1.96763
0.606037
-0.796539
-1.56213
4.70288
-5.83952
0.614471
7.34918
-2.76672
2.34127
1.68164
1.88168
1.04891
2.06731
1.22469
2.50322
1.86128
0.906792
-4.27226
-4.51101
4.40832
-7.33574
4.08897
-11.6086
-1.88877
8.0227
0.761245
-1.40315
-2.89121
-6.14865
3.27208
0.342979
-2.62569
4.21046
-11.1058
5.37081
5.04194
3.72305
-7.30488
2.96219
-1.45535
0.0562727
2.78741
1.09574
0.54158
-5.62809
-0.941299
-0.969193
-0.84283
2.07616
-0.0676105
-1.59386
0.190618
2.67699
1.2077
2.46557
4.00462
-0.812291
4.02242
1.95762
-0.781631
0.9063
8.29687
2.44015
-0.156489
1.99608
-0.110878
2.05145
-4.30939
4.91879
-0.291034
0.288828
-1.73938
-3.1286
5.04352
-5.94319
6.98012
0.37462
-2.19417
9.02191
-5.5062
-1.66189
7.37795
3.63003
-7.76633
2.64798
2.73069
-1.27313
0.89718
5.41148
-3.47749
-7.42952
1.45665
2.75708
-1.73433
-3.54505
0.892772
12.6527
5.09945
-2.50773
-0.148322
23.7159
30.803
8.51586
-18.7087
6.94705
37.703
-67.326
-153.275
-316.692
77.0303
78.0403
-192.496
86.643
22.3549
-10.7513
-65.8539
8.51908
-13.7556
-5.68294
-33.9172
16.1914
5.54589
12.2389
1.95043
5.19321
6.95073
-5.23352
-8.38349
-6.19402
-4.59846
17.9983
3.04838
-43.4269
30.0705
30.6675
-37.1754
-63.9389
117.075
0.573216
-75.9866
67.5728
20.6268
-31.3838
-11.6156
10.9651
8.34601
7.95952
-2.78012
13.1625
-15.0994
27.0019
0.178827
45.7103
45.7224
-9.06322
-12.3173
-36.0204
-20.6912
8.12082
31.3067
-62.4475
-44.3406
-38.1906
-25.9166
-39.6898
-7.1299
-0.863532
-14.9551
-18.0762
1.43768
-6.94623
-20.8974
-6.94583
-2.3787
-4.7936
-7.28031
7.44274
3.4066
-1.18246
2.04435
1.30646
3.58774
0.789391
-1.51779
-0.34532
1.47078
2.80791
-0.214458
-2.98749
-0.999344
-1.1751
0.811752
0.159111
-0.194693
0.173009
1.63454
1.65785
-0.0140322
-1.38213
0.494392
-0.12822
4.83056
-5.15365
2.84784
6.91143
-7.18357
-0.530821
4.95947
1.465
2.37836
-4.86945
-3.648
3.94178
-2.01072
-6.65352
-0.86248
5.07739
1.06655
1.04737
-1.86376
1.77344
5.36332
2.90517
-9.51985
1.58141
4.35177
-0.282488
-8.34449
-1.30521
9.468
0.806477
-8.63433
2.24649
-5.86759
-2.20634
2.33599
3.45823
-8.6432
11.5639
-15.811
5.76021
6.87264
-2.01853
-2.86297
-2.68984
1.62182
-1.82715
1.24149
2.69231
-1.63435
-1.48116
0.575217
0.486014
-0.356937
4.50841
7.43883
3.66616
-1.24113
-5.52759
-2.25425
-2.27883
1.33274
-2.39079
-0.686252
2.11266
0.308008
0.045482
0.556005
0.723727
-3.52023
8.13896
-3.46061
-2.25548
3.31076
-3.2397
2.03018
2.33854
-13.3589
3.42942
-5.55972
3.05282
11.5977
-8.91201
-1.78023
9.66628
-6.9881
0.917943
7.27121
-0.148444
-7.6832
0.785746
7.65783
-2.56554
-2.27431
8.46467
12.6343
9.72414
16.5156
6.7847
0.703146
15.9227
27.4537
30.4301
-14.7115
-25.1885
-59.855
-70.6874
128.987
9.40885
152.278
-119.95
-32.6307
28.6477
57.299
-32.1411
13.1081
-2.02143
11.5884
-6.2143
9.01247
4.54485
-1.9246
-2.9186
4.51732
-8.10054
4.06149
-2.22206
12.7988
-1.47359
-6.82402
-20.8681
38.1368
-6.59282
-89.0725
22.8965
82.8872
-62.7483
-61.1435
114.546
-42.9706
-39.371
61.21
-21.1633
-25.3112
14.2466
5.74948
3.68857
-13.6307
-6.50053
-3.86827
-16.8156
-11.886
-12.5782
-96.5245
33.8044
-8.48266
-13.7205
29.8931
-31.2532
12.3936
-43.8652
-110.657
9.26735
27.5883
-42.9321
-5.97609
13.2527
6.55558
-19.9216
4.22833
-1.41223
-15.6736
-10.0095
-1.02096
-5.28589
-5.16231
7.49384
6.03462
-0.587999
-3.46821
-1.25616
0.479857
0.314149
3.01102
2.41429
0.329741
-4.06147
-2.83517
-1.24836
6.69641
-0.0130062
-0.226059
2.3738
1.39436
0.133615
1.03794
2.00903
-1.62797
-0.728312
-3.0083
-2.19264
5.01187
-3.72048
-0.281148
13.0694
-4.91495
-13.1134
1.72906
2.53515
-3.44495
-1.0104
-2.58288
3.53097
-4.31089
-4.07278
4.70808
2.43718
-1.87603
-7.44328
8.24083
-1.98912
-5.19422
4.09283
-13.9248
7.23431
4.65747
6.89613
-14.8018
8.16756
2.69691
12.1206
-7.08089
0.794059
0.38111
-6.49855
3.13815
-0.256645
-0.277724
9.09312
-22.0229
13.8878
1.46372
-2.96679
0.0349722
0.547054
-0.295935
-2.16338
0.951454
1.42489
-1.31112
-0.419264
-3.11586
-6.44835
-7.98531
-4.78084
-5.58784
1.27027
5.73064
6.96974
-4.96571
4.38607
0.426514
-3.99897
2.3387
-0.924939
6.18324
-2.66752
1.5299
-3.61746
0.893651
2.27922
-7.22505
6.3472
-2.10216
0.259943
3.92843
-2.28212
-1.60624
-3.44098
-0.853417
3.13965
2.33129
-8.5388
5.70991
6.41456
-9.32638
-1.79275
10.5742
1.80448
-3.46256
3.71735
10.7528
6.01641
-2.10207
1.96036
7.77047
0.482766
-2.84159
13.144
-4.45944
-20.0544
-9.35134
1.01682
15.704
44.953
103.681
197.561
-1.29919
-73.083
243.741
-111.167
-15.4536
-15.715
56.2786
-7.19906
23.68
-5.59571
22.9711
7.11405
6.92136
0.174502
1.44957
-2.13971
-2.65524
-2.15022
-4.84068
0.020574
2.02579
12.7155
4.05167
-30.3518
-11.2621
72.6813
-8.21836
-67.7607
27.7298
74.5398
-107.79
-37.6737
96.3645
-76.5412
32.9846
25.7601
-17.0967
-5.296
-15.0702
12.266
-3.70368
-14.0451
30.2637
-9.35413
-6.91585
-21.9659
38.1983
-6.68554
-0.0569279
-8.31988
22.7918
13.2781
0.379231
46.0825
-80.9923
79.8416
95.6782
42.5203
41.0001
54.4938
32.5529
19.6824
20.6185
26.5564
15.086
9.82254
11.705
0.642124
-1.69402
2.88633
6.78368
5.33253
-8.53532
-9.03523
-1.30129
-0.0232848
-0.739879
1.0498
-13.0207
-3.66923
4.28222
5.07186
3.58548
-1.09368
-2.45463
-0.701606
-0.935486
-1.97173
0.471884
1.70756
-0.80681
-0.332093
1.77767
-2.92489
3.11787
-3.72481
-9.05585
6.47255
5.23799
-2.72734
-5.81978
0.495404
2.35091
1.18035
-3.78096
1.21884
-0.28275
0.983063
1.40348
0.311805
-3.18237
-7.07943
-1.6471
7.16139
-5.87044
4.40407
-1.94776
4.04009
0.122032
8.24738
-3.31932
-7.37198
3.33851
9.55401
5.71003
-2.61501
7.02559
-11.7571
5.02255
3.17037
5.1941
-11.4047
-1.38339
11.459
-4.37984
-3.49606