/*--------------------------------*- C++ -*----------------------------------*\
| =========                 |                                                 |
| \\      /  F ield         | OpenFOAM: The Open Source CFD Toolbox           |
|  \\    /   O peration     | Version:  2.2.x                                 |
|   \\  /    A nd           | Web:      www.OpenFOAM.org                      |
|    \\/     M anipulation  |                                                 |
\*---------------------------------------------------------------------------*/
FoamFile
{
    version     2.0;
    format      ascii;
    class       volScalarField;
    location    "3.14";
    object      pB;
}
// * * * * * * * * * * * * * * * * * * * * * * * * * * * * * * * * * * * * * //

dimensions      [1 1 -3 0 0 -1 0];

internalField   nonuniform List<scalar> 
40000
(
-0.00191783
0.0122982
-0.0100487
0.0171913
-0.00990302
0.0120982
-0.003015
0.000360822
0.0212244
-0.0192639
-0.00445419
-0.00784576
0.0116442
-0.0102946
-0.000210248
-0.00760711
-0.000971987
-0.00617674
0.00680738
-0.000588702
-0.00876661
0.0159347
-0.00100193
-0.0110943
0.00850163
-0.0245928
-0.0060056
0.00429535
-0.00974899
0.00777206
-0.00191654
-0.0182944
-0.00116862
-0.0101009
-0.00193474
-0.00303836
-0.00707133
0.00282251
0.00924126
-0.0131866
0.00333134
-0.00987846
0.00376127
0.022697
-0.000106029
-0.00622449
-0.00434594
0.0135829
-0.00450808
-0.00915741
0.00861609
-0.00353658
-0.0111455
-0.0118761
0.0100408
-0.00581764
-0.00168122
-0.00664758
-0.0419667
-0.0248187
0.0990213
-0.0153635
-0.0335927
-0.0227123
-0.0122466
-0.0667368
0.0259109
-0.0792273
0.0136472
-0.0409339
0.0951117
0.0291724
0.135086
-0.209864
0.0979629
0.0507031
0.0530575
-0.0784468
-0.0140898
0.0523276
0.00629538
0.0133233
-0.00104746
-0.037037
0.0416138
0.0170633
-0.0246649
-0.0673762
-0.0382615
0.014964
0.0494712
0.122058
0.0307044
-0.0518829
0.181459
0.289476
0.190248
-0.429287
-0.304923
-0.415113
0.21527
0.0467057
-0.201245
0.160567
0.359715
0.112096
0.00554113
-0.0516851
0.0965796
0.127978
-0.0261859
-0.00769865
-0.0214901
-0.0100167
-0.0270384
-0.00407426
-0.00561017
-0.0360392
0.00221391
0.02089
0.0300387
0.021412
-0.0735271
0.0129783
-0.022818
0.120538
-0.0812569
0.0983306
-0.0264349
-0.0562777
-0.0446978
-0.0255181
-0.0803765
-0.0129819
-0.100283
0.0193119
-0.0482983
-0.00184449
-0.0647373
-0.0621445
0.0441662
0.0402497
-0.0121257
-0.00312432
-0.000355443
-0.00396396
-0.00212875
-0.00789907
0.0108893
-0.00783864
-0.0184892
0.0220955
0.00919278
-0.0212444
-0.0269612
0.0120508
0.00536734
-0.0158242
-0.00863477
0.0355669
-0.0227026
-0.0150935
0.0265773
-0.00707914
0.00298186
0.0232852
-0.01664
-0.00730179
0.0109578
-0.0266569
0.0162152
-0.0233792
0.0018955
0.0127995
-0.0149984
0.0223793
-0.00415696
0.00455176
0.0185326
-0.00173638
0.0137109
0.000299042
0.0124641
-0.00256553
-0.00232445
0.0112451
-0.00842632
0.0145469
0.00109705
-0.00139802
0.00956918
-0.00342366
0.00616562
0.000586858
0.016032
-0.0194604
0.00148544
0.00857656
-0.00127381
-0.00530527
-0.0143541
0.0105928
-0.012593
0.0164666
-0.00999128
0.00804434
-0.0119075
0.0147469
-0.00998482
0.0146779
-0.0229472
0.0308032
-0.00629811
0.00339411
-0.0018895
0.00978852
0.0104806
-0.00201193
0.0190905
-0.00459328
-0.00405213
0.0111609
-0.00665142
0.00297185
0.0116093
0.00213648
0.00847655
0.00484991
-0.00721116
0.00999717
0.00592578
-0.00979281
0.000446012
0.000686447
-0.00420745
0.00736432
-0.00202855
0.00569347
-0.000769425
0.00540184
0.00491582
-0.00283214
-0.00921061
0.00353359
0.00365076
-0.0138814
0.00862288
0.00304157
-0.00857775
-0.00388798
0.00968862
-0.00445984
0.00224468
-0.00662411
0.0230565
0.00535525
-0.0260983
-0.000682998
0.0382921
-0.0269075
-0.044499
-0.0131822
0.0257905
0.00560148
-0.0338471
-0.0288048
0.029185
0.040967
0.0433931
0.0560732
-0.114213
-0.00920713
0.0833922
-0.084875
0.0298469
-0.0594662
0.0704781
0.00393372
-0.0694062
0.0525261
0.052563
-0.0164885
-0.0132595
-0.0369261
0.0158324
0.0180289
0.0297627
-0.00155164
0.029216
0.0824053
0.0982304
0.0760087
-0.0740043
-0.0943086
-0.0159633
-0.0442324
-0.366763
-0.739522
-0.0377382
0.0674159
0.597795
0.280231
-0.0758005
-0.149441
0.138782
0.19822
-0.0731859
-0.132197
0.00320662
0.0274326
-0.0234326
-0.0206777
-0.0124667
-0.00543408
-0.00351646
-0.00998244
0.0453041
-0.0330463
-0.00779135
0.0370803
0.0317301
0.0259149
-0.0768891
-0.0647016
0.159872
0.00410614
-0.0718968
-0.126141
-0.127336
-0.0536822
0.0120324
-0.0165298
-0.0137562
-0.0198716
0.109443
0.0254262
0.0355925
0.000605629
0.0161538
0.0511364
0.00514093
-0.0466602
-0.0224729
-1.83244e-05
0.00575556
-0.00643714
-0.00972767
-0.00174075
0.00255495
-0.00529828
-0.0280444
0.0182701
0.012651
-0.0137502
-0.0223661
0.0127389
-0.011191
0.00272093
-0.00044614
0.0255583
0.00830306
-0.00327466
0.00750107
-0.0253898
-0.0140483
0.0149863
-0.0335633
0.0109505
0.00441463
-0.0079559
0.025053
-0.0143511
0.0176063
0.00522858
-0.00316706
0.0185023
-0.00709572
0.00496342
-0.00771802
-0.00575834
-0.00963029
-0.00741672
-0.00116983
-0.00808695
-0.0114967
0.00792759
-0.00499755
-0.00995682
0.0245143
-0.0165917
0.00853886
0.0080497
0.00166893
-0.0124935
-0.00715802
0.0164584
-0.00267162
0.00719976
0.00655055
0.00246444
-0.00380903
0.0108412
-0.00680312
-0.00591642
-0.0012765
0.0159414
0.00842729
0.00377897
-0.0260454
0.0149481
-0.00476842
0.0208466
-0.0126924
-0.00530225
-0.00760781
0.00988361
-0.00200932
-0.0153592
0.0131825
-0.00742391
-0.0105706
0.00891743
-0.00694669
-0.012896
0.0122898
-0.0116304
0.00343658
0.00796453
-0.0104344
0.00147603
-0.00134852
-0.00893674
0.00817084
0.00378638
-0.00665904
0.00163493
-0.00850077
-0.00593497
-0.00440166
-0.00452869
0.00709616
-0.0112803
-0.00898222
0.0106487
-0.00113296
-0.0158779
0.00409304
0.00692853
-0.00349045
-0.00980668
0.0024403
0.00961808
-0.00706554
-0.0124704
0.00400792
0.00737668
0.00351649
-0.006832
-0.00435969
0.0200025
-0.0218522
-0.0112488
-0.00557529
0.00252525
-0.00817114
0.0282479
0.0408578
-0.0131293
-0.115113
0.0665145
-0.219032
0.285488
-0.0700061
-0.0686763
-0.0109785
0.0607443
-0.012497
-0.0117681
0.0104455
-0.0388426
0.0153883
0.0104035
-0.0825446
-0.00284182
0.0245303
-0.00777894
0.0272817
-0.0105291
-0.021014
0.00779588
0.0540842
-0.0203746
-0.106049
-0.427556
-0.128177
0.36225
0.354819
0.260214
0.098023
-0.0250605
0.370909
-0.311831
-0.309455
-0.171791
-0.0123156
0.0579176
-0.127443
-0.0989941
-0.0184283
-0.0100131
-0.0264602
-0.0166223
0.0282149
0.0227881
0.0130861
0.0218153
0.00514586
-0.0230371
0.00267774
0.0522542
0.0400807
-0.0386203
0.0221391
-0.183444
0.111993
0.0083423
-0.0808937
0.0747456
0.139891
0.0700628
0.022263
0.00170957
0.0196033
0.0147094
-0.0336961
-0.000605904
-0.00267817
0.0408047
-0.038386
-0.0675234
-0.0107502
0.0139799
-0.00949306
0.00499234
-0.00284827
-0.00509281
-0.0115915
0.0103149
-0.000814154
-0.0258731
-0.0123123
0.0134727
-0.00273624
-0.0191792
0.000127526
0.0194334
-0.042901
-0.00717883
-0.00939266
-0.031863
-0.0348441
-0.0198484
0.0114233
-0.0255657
-0.0066191
0.0246515
-0.0134634
0.0285296
0.00174475
0.0045983
0.0213991
-0.00973054
0.0155367
-0.0156892
-0.00695838
0.0090302
-0.00854654
0.0148317
-0.00437786
0.0169963
-0.00469408
0.0042608
0.0107133
0.00070359
0.00268894
-0.0104276
0.0280415
-0.0260327
0.0274509
-0.0261428
0.0239747
-0.0207615
-0.010627
0.00881567
-0.00532109
-0.00565653
0.00315715
0.00574594
0.00466016
0.00628144
0.00768621
0.0138598
-0.0104934
-0.0025825
0.0114481
0.001861
0.00999675
-0.00662843
0.00219057
0.00605166
0.00635222
0.00457789
0.00729327
0.00673124
-0.00579587
0.0118111
-0.00651712
0.00284472
0.0153883
-0.00191012
-0.00373245
0.0154612
0.000608085
-0.0128629
0.013855
-0.00927742
0.00624842
0.007395
-0.00303391
0.00323477
0.00320412
-0.0023574
-0.00432701
-0.0030254
-0.000378436
-0.00733525
0.00695436
-0.0121883
-0.00284254
0.00223287
0.0109214
-0.00910268
0.00441969
0.0123476
-0.0128624
-0.00925262
0.00648005
0.00260246
-0.00353907
-0.00250779
0.00644262
0.00238011
-0.0122695
-0.0202384
0.00885513
0.00576494
-0.00988167
0.0026457
0.00581636
-0.0117142
-0.0306506
0.00465784
0.0355926
-0.0112392
-0.0114964
-0.0231658
0.0321904
-0.160506
0.102722
-0.097364
-0.0580682
0.0861871
-0.0744167
0.00205709
-0.0442914
0.0825141
0.00394472
-0.0477008
0.0293595
0.0451214
-0.0259049
0.022401
0.00876531
-0.0598193
0.0548158
0.0203759
-0.00314616
-0.0587817
-0.0332675
-0.0737601
-0.0201896
0.059684
0.0326332
0.00516477
0.548317
0.532317
0.209684
-0.31015
-0.320738
-0.0152174
0.0276837
-0.121398
-0.150689
-0.110377
0.0648132
0.122297
0.020463
-0.056917
0.0306351
0.0317168
0.0306931
0.0114343
0.030553
0.00974993
-0.0404927
-0.00868538
0.0372809
-0.0311207
-0.0537753
0.0539493
0.0330685
-0.0416289
-0.0323773
-0.0369475
0.141122
0.0938774
0.0652632
0.0547714
0.0200399
0.0276198
0.0424348
0.0285152
-0.0203097
0.0222806
-0.032948
-0.0418877
-0.0806845
-0.0291345
0.00199927
-0.00285619
0.0302685
0.00140297
-0.00717944
-0.00828196
0.0112385
-0.00633339
0.0150142
-0.00584949
0.0108757
-0.0158731
-0.0255418
0.0501087
-0.00900546
-0.0317047
0.0266164
0.0236267
-0.0380336
0.00196297
0.0152033
0.00470722
0.0338207
-0.0231713
0.0502805
0.0100964
0.017549
0.0300623
-0.0145266
0.0129646
-0.0142162
0.00397237
-0.00383616
-0.0118615
0.00047893
-0.020511
-0.0010529
-0.00980878
-0.00655744
-0.000671208
-0.0083431
0.0123094
-0.018385
0.020184
-0.00207147
-0.00922146
0.0223451
-0.0184613
0.0136048
-0.00908481
0.00856586
-0.0218307
0.000112957
-0.00304388
0.000139004
-0.000691173
0.0172869
-0.0200249
0.00968568
0.00542708
-0.0107329
0.00800327
0.00766243
-0.000850968
-0.00186353
0.00484214
0.00307178
-0.00460264
0.00930551
-0.0158793
0.0134738
-0.0095148
0.00891293
-0.017798
0.00893033
-0.0105091
0.00233923
0.00234086
-0.00979039
-0.000243815
0.00945011
-0.00646438
-0.00863068
8.1004e-05
0.00585033
-0.00928043
0.00802854
-0.00302963
-6.0042e-05
-0.00780679
-0.00321438
-0.000986428
-0.00144674
-0.0015936
-0.00289996
-0.00131785
-0.000618554
-0.00467478
0.0116455
-0.0168089
0.00135362
0.0120596
-0.0109714
-0.00255331
0.00706975
-0.00235187
-0.0114291
-0.00489767
-0.00039612
0.00229264
-0.00230226
-0.00434431
0.00242444
0.00329171
-0.0107461
-0.00914567
-0.0115668
-0.00494276
-0.0174821
0.0110126
0.000423651
-0.00819259
0.0109647
-0.00882693
-0.0209026
0.00375865
-0.0847151
0.00438776
-0.0498449
-0.0407279
0.2084
-0.139013
0.0177062
0.0304581
-0.00236658
0.00431652
-0.0173541
-0.035185
0.0583201
0.00230251
-0.0565755
0.0499933
0.0435044
-0.0535936
-0.00832416
0.0349498
-0.0122109
0.0319541
0.0342414
-0.0438692
-0.0699635
0.01366
0.0839308
0.287019
0.0308064
-0.386509
-0.320613
0.0324377
-0.525895
0.00520145
-0.246638
0.42544
0.132812
0.105447
-0.0973231
0.0280267
0.103852
0.116784
0.0403363
-0.0235024
0.00936992
0.0353278
0.0421223
0.00469131
-0.0184578
-0.00999432
-0.0418125
-0.000793968
0.0457812
-0.0026919
-0.0622962
0.00376099
0.0243707
0.11369
-0.091951
-0.0236365
0.0703083
0.0244288
-0.0741841
-0.034711
-0.014626
-0.0448334
-0.0475631
-0.0383251
0.00427075
-0.0174009
0.00483995
-0.00990595
0.0626131
2.97679e-05
0.0440293
-0.0197411
-0.0402274
0.00770652
0.00589667
-0.00623459
-0.00215965
-0.0235656
-0.0051151
0.0225746
-0.00134804
-0.0145825
0.0042555
0.0156908
0.00275667
-0.02447
-0.000773262
0.0434619
0.0167428
0.0412852
0.0367702
0.0174812
0.0195933
-0.0140262
0.0181775
-0.0308139
-0.0143545
-0.024159
-0.0272766
0.000994451
-0.0159617
0.0037216
-0.0133817
0.00292073
0.0015421
-0.00447948
0.0114805
0.00279995
0.0143278
0.000630559
0.00730086
0.00204288
-0.000947232
0.0105627
0.00732337
-0.0100104
0.00368682
0.0115754
-0.0290061
0.0321139
-0.00990062
0.00676778
-0.0139045
0.0175113
0.0225209
-0.00771071
0.0136113
-0.00706991
-0.00382351
0.00621787
-0.00764264
-0.00709242
0.0122665
-0.00431972
0.00836773
-0.000779866
0.00539155
-0.00922259
0.0110199
-0.00956702
0.0150524
-0.00852186
0.00914483
-0.00192519
0.0078947
-0.00107427
-0.00232856
0.00786456
-0.00349955
-0.00509944
0.00367679
0.00307296
-0.000681591
-0.0148266
0.0151128
-0.0130459
0.00110755
-0.000656482
-0.00494685
-0.0023564
0.00251529
0.0014195
0.000617025
-0.00214525
-0.00197258
0.00181012
-0.01316
0.00408463
0.00163581
-0.00770264
0.00555237
0.00592593
-0.0252551
-0.00291242
0.00963699
0.00186813
0.00202429
0.00168809
0.00659875
-0.00734497
-0.0137877
-0.0162608
0.0102527
0.017687
-0.00646288
-0.000919575
0.00933997
0.00275775
0.00303852
-0.013439
0.030316
-0.0180094
-0.0134096
-0.016597
0.00801855
0.0148321
-0.049075
0.12469
-0.10042
-0.00635905
0.0376484
-0.0943272
0.0645546
-0.0159203
-0.0016608
-0.0368471
0.00559646
0.000521045
-0.0196511
0.040511
-0.00561739
-0.060039
0.0501959
0.0121981
-0.0594296
-0.000208151
0.00311784
0.0023739
0.0394165
0.0524902
0.0599032
-0.0157093
0.00890913
-0.0207283
-0.351069
-0.417923
-0.483245
0.201448
0.564384
0.100918
-0.244761
0.373915
0.211893
-0.052902
-0.0143171
-0.119819
0.0790745
0.153326
-0.0247028
-0.115344
-0.00355861
0.00465742
-0.00895216
-0.00956113
0.00211337
-0.00839774
-0.00946116
0.0123572
0.0398184
-0.0210553
-0.0354371
-0.0315074
0.0726441
0.0991932
0.0273204
-0.218285
-0.0289727
-0.0460063
-0.0757183
-0.0501254
0.000857477
0.0110922
-0.00913689
0.00192624
-0.0111972
0.0106004
-0.00753931
-0.0124411
0.0076283
-0.0186605
0.0206161
-0.00301807
-0.00394164
0.00122258
0.00826098
-0.00595451
0.00310884
-0.00159823
-0.0298066
0.00421328
-0.0123094
-0.0326435
-0.00581167
-0.0102827
-0.00819708
-0.0361727
-0.0161766
0.000116592
-0.0529358
-0.0148219
-0.0501605
-0.028971
-0.0325248
-0.0272227
-0.0046674
-0.0326402
0.0030377
-0.00944774
0.0150361
0.009834
0.0104669
0.0140424
0.00178527
0.0171617
0.0041247
0.0050407
0.00662423
0.00403861
0.00761302
-0.00397435
0.00395763
-0.0145912
-0.00541565
-0.00574613
0.0069489
-0.00988617
-0.0296678
0.0344709
-0.0195491
0.0210989
-0.0232241
0.0133547
-0.00260357
0.0084958
-0.00264469
-0.000528945
-0.00916146
0.0070478
-0.0172677
0.0295284
-0.0129419
-0.0124598
0.00787607
-0.00772691
0.00958891
-0.00415833
0.0107866
-0.0103945
0.00488155
-0.00463692
0.00768162
0.00189488
0.00564821
-0.00378261
0.00340889
0.00396681
-0.0110926
0.00949915
0.00920965
-0.000396845
-0.00899538
0.0129293
-0.0031589
-0.00931808
0.0097265
-0.00728276
0.00904984
0.000251982
0.00553885
0.00721488
0.00272379
-0.00494994
0.00190212
-0.00414324
-0.000787841
-0.00827178
0.000175019
0.00105472
-0.00953609
-0.000708641
0.0208609
-0.0100915
-0.0099419
0.00706838
0.00552454
-0.00456651
-0.00692809
0.0021974
-0.00645392
0.00624464
0.000391833
-0.0137967
-0.0160934
-0.0052157
-0.000782729
-0.00544061
0.0080701
-0.00949301
-0.0196168
-0.00333509
-0.0229453
-0.0160675
0.0185482
-0.0636748
0.10885
-0.100737
-0.00335121
0.0151679
-0.0704164
0.0392233
-0.00611392
-0.0191612
-0.0255781
-0.000723177
0.0230079
-0.020931
-0.0434487
0.0425808
0.00462235
-0.0296493
0.018967
-0.0587752
-0.00659076
0.0411261
-0.00862678
-0.0766374
-0.0157192
0.00300561
0.0313319
0.0186398
-0.0789369
-0.21423
-0.118482
0.203542
0.466284
0.192299
0.356531
-0.131055
0.143263
-0.311529
-0.191306
0.00501944
0.140295
-0.0379887
-0.117685
-0.257394
0.0905315
0.130093
-0.101938
-0.124376
0.0143704
0.0350895
-0.0128368
0.0115114
0.0235447
0.00807193
-0.0631164
0.0132004
0.0560994
0.0126454
-0.0459324
-0.0173078
0.0949509
0.0253038
0.0246205
-0.0148159
-0.0126554
-0.0521198
-0.0230329
0.0306531
0.0327978
0.0300097
0.0010084
0.0415457
-0.00764376
-0.019764
0.00702248
0.00870557
-0.0045141
0.0134556
0.0203573
-0.0221641
-0.00910929
0.0134184
0.00372847
-0.00177952
0.00443323
0.00124483
0.00174993
0.0107859
0.0063604
0.00942702
0.00745357
0.0304504
-0.00814259
-0.00553272
-0.0133982
0.0137217
-0.0195383
0.00650663
-0.00475438
0.0121057
-0.00766289
0.00139545
0.00130077
0.0189167
0.024044
0.00803056
0.0183999
-0.000891077
0.00646878
-0.000397743
-0.00234434
0.00446531
-0.00361249
0.00264957
0.00443198
0.00567018
0.00495841
-0.00169117
0.00923508
-0.0127627
0.00936252
-0.00495129
-0.00414283
0.0151738
-0.0164129
0.0112936
0.0227972
-0.0113271
0.00716032
-0.00744095
0.00480051
-0.0160048
0.00397182
0.0136782
-0.0167414
0.0128687
-0.0212493
0.00748988
0.00121991
-0.0125792
0.0128033
0.00332596
-0.00091175
-0.00354707
0.00232177
0.00454977
-0.00129946
0.003062
-0.00271243
0.0177776
-0.00324365
-0.00219087
-0.00385528
0.010141
-0.00426354
0.00540511
0.00316664
-0.00527563
-0.0145794
0.0134409
-0.00402303
0.00417252
-0.00587728
0.00149193
0.00460852
-0.00793135
0.00381197
0.00160788
0.00759329
-0.00107162
-0.00465937
0.00928856
0.000544447
-0.0129523
0.0119517
-0.0118221
-0.00613518
0.0116911
0.00371516
-0.00655374
0.000731219
0.00335063
-0.00380521
-0.0127406
-0.0091172
-0.00198584
0.0112784
0.0180074
0.00484872
0.00148949
-4.38185e-05
-0.0101581
-0.0126972
0.00742596
-0.0150849
0.000135618
-0.00862722
-0.00543802
0.024801
0.0303577
-0.0349393
-0.0245406
0.0742499
-0.0927317
0.0179614
-0.0214545
-0.0426696
0.0236638
-0.0145135
-0.0298266
-0.0151035
-0.00442665
-0.010344
-0.00223444
-0.0213879
0.0336139
0.0218795
-0.0569788
-0.0363383
0.0267947
0.00390863
0.00247011
0.0242046
-0.0178197
-0.0347572
-0.0295591
-0.0328539
0.0212337
-0.0183145
-0.0514775
0.174306
0.427172
0.377109
0.0583251
-0.331571
0.0512197
0.396458
-0.524136
-0.259172
-0.109392
0.271484
-0.106411
-0.136289
-0.01026
0.0439874
-0.00414344
-0.0475187
-0.0390999
0.0485642
0.0601365
-0.0241764
-0.00683645
0.0263103
-0.0112176
-0.0392304
0.043805
0.0524982
0.00418807
-0.104903
-0.0750451
-0.00188674
0.145625
0.0915751
-0.0518915
0.0555071
0.0285801
0.11675
0.0889479
0.0401727
-0.0287817
-0.0162159
-0.0308369
-0.0282158
0.0147711
0.0133348
0.0058254
-0.0103151
-0.0125763
0.0083532
-0.0432942
-0.0162302
-0.011234
0.0120815
-0.0142453
-0.0165581
-0.00328092
0.0107356
0.00581066
-0.00927656
-0.0111654
-0.00255739
0.00614679
0.00363769
-0.0301923
0.0039084
0.0288757
0.0353899
0.0542457
0.0198108
0.0334579
0.000548722
0.0306809
0.0140698
0.027118
0.00617711
-0.00497752
0.00606505
-0.00347346
-0.000723612
-0.00874375
-0.0079157
-0.00900364
-0.018208
-0.00961421
-0.00218417
0.00205123
-0.00147067
-0.00303654
-0.00726932
-0.00804404
0.0160944
-0.00118264
-0.0038695
0.0104212
0.00795393
-0.0265752
0.0364646
-0.033583
0.0195814
-0.0244045
0.0115292
-0.0159379
-0.00159058
0.00697222
-0.00454614
0.008447
0.00340686
-0.00444568
0.0375397
-0.0113366
0.0103896
0.0184485
0.00315536
-0.00163003
-0.0060708
0.0144963
-0.00491093
0.0133946
-0.00977409
0.0124678
-0.011035
0.00583023
-0.0106394
0.00230296
0.000956296
0.00308667
0.00592129
0.00181858
0.00114533
0.00634939
0.00364608
0.00789564
-0.00923967
0.0107426
-0.00341492
-0.00153691
0.00169774
-0.0059634
0.010037
-0.00290953
-0.00699809
0.0101239
-0.0127028
0.00177633
0.0170681
-0.020279
-0.00224857
0.00456708
-0.000748517
-0.00375405
-0.00199477
-0.00441879
-0.00800934
-0.00461767
-0.00916714
-0.0212188
-0.0268899
-0.0114106
-0.00866907
0.00123682
0.00926488
0.000747264
0.000241971
-0.0215441
0.0152543
-0.0163396
0.00320064
-0.0056863
-0.0317445
0.0729149
-0.0672117
0.0112901
0.000687422
-0.0255359
0.0385933
-0.0252139
-0.0105924
0.0252617
-0.010279
-0.0134311
0.00973018
0.00991329
-0.00598841
-0.0112295
-0.00293407
0.0141224
0.0311533
-0.00367209
-0.0412886
0.0184432
0.0914902
-0.0277148
0.00263329
-0.00476863
0.0222986
-0.0319339
0.109164
0.110273
0.159816
-0.136737
-0.105032
-0.242598
-0.248201
-0.455855
-0.329808
0.728486
0.167118
-0.206079
-0.29645
0.214156
0.114159
-0.0285102
-0.0190238
0.0187594
0.00943146
0.0553829
-0.00804948
-0.0233661
0.0416147
0.0595703
-0.0398357
-0.040344
0.0139526
-0.0161795
-0.031621
-0.0172166
0.0979562
0.0208263
-0.0237989
-0.0578637
-0.0504682
0.0808729
-0.0120995
0.020661
0.0709276
0.0350246
-0.048481
-0.0374534
-0.0403471
-0.00845369
-0.0291621
0.0297061
-0.0125992
0.0313159
0.000532858
0.0386309
-0.0148071
-0.052002
-0.00759926
-0.00449063
-0.00165488
0.00257546
0.018929
-0.000747881
-0.005678
0.00105868
0.0181693
0.0155122
-0.00527422
0.00765715
-0.00879178
-0.00361937
0.0347789
-0.0376392
0.00280067
-0.00450472
0.0107658
-0.0240327
-0.0183451
-0.00925506
-0.00881806
0.00897401
-0.0148759
-0.0169186
-0.0187426
-0.00654014
0.00109116
-0.000538907
0.00268695
-0.00495309
0.00137922
-0.000666012
0.000162707
0.00304552
0.00727269
0.00788322
0.00422263
0.0027655
-0.00259757
0.000271197
0.000348596
0.0184452
0.00400503
-0.0140148
0.0249545
-0.02468
0.0148421
-0.000567105
0.00886553
-0.00580031
0.0124304
-0.00162227
-0.0102939
0.00289659
0.0151842
-0.0147973
0.028893
-0.0179644
0.0161171
-0.0124585
-0.014855
0.0254748
-0.0117768
0.00416181
-0.00868478
0.0169841
-0.0046726
0.0219588
-0.0137692
0.0138775
-0.00682602
0.00733996
-0.0059447
0.00718778
-0.00242488
-0.00115628
0.00603174
-0.00937638
0.000399132
-0.00964471
-0.00327531
-0.00638059
-0.00365966
-0.00158967
-0.00439603
0.00468993
-0.000765259
-0.00168929
-0.000251938
-0.0053008
0.00264729
-0.0128654
-0.0111213
0.00905315
0.0025122
-0.0103741
0.00264171
8.9846e-05
-0.00860161
-0.00431551
0.00488656
0.00577931
0.00117111
-0.00443463
0.00904505
0.009509
-0.00856048
-0.0176236
-0.01754
-0.00965904
0.00303469
0.00140771
-0.0185429
0.00651097
-0.0144529
0.0172547
0.0139572
-0.0558209
-0.0185769
0.054753
-0.0836423
0.0320907
-0.0155444
-0.00547892
0.0246333
-0.0161236
-0.00144432
0.00601076
-0.00679304
-0.0138314
0.00536516
0.00214674
-0.00722523
-0.0121616
0.010343
0.0164556
-0.00296255
0.01431
-0.00821165
-0.00394577
0.00890972
0.00872316
0.00642642
0.0214868
0.0334229
-0.0292844
0.000748704
0.124585
0.0355042
-0.395892
-0.394843
-0.246446
0.426369
-0.0278825
-0.523142
0.743945
0.130257
-0.112898
-0.263499
0.323132
0.0617039
0.0899412
-0.0266188
0.0422267
0.013442
-0.0123596
0.0211019
-0.0332613
0.00480288
0.00661797
-0.0278022
0.0154725
0.0208225
0.000860432
0.0127493
-0.0320497
0.011671
0.087945
0.043924
-0.116102
-0.0627905
0.0772245
-0.026
-0.0541677
-0.0221547
-9.67997e-05
-0.022223
-0.0512788
-0.043054
0.0431252
0.048692
0.0234935
-0.00872235
0.0151421
-0.0561545
-0.0199864
0.00357403
-0.0738244
-0.0319169
0.0118443
0.0224041
0.039398
0.048104
0.0225219
0.00221769
0.0106536
0.0349451
0.0185459
-0.00494792
0.0152293
-0.0108587
0.0217326
0.00163673
-0.0137235
-0.00601586
-0.0045084
0.00163762
-0.00577891
-0.00166505
-0.0100486
-0.0121441
-0.0157766
-0.0285544
-0.00549471
-0.0122765
0.00206329
0.00710568
0.00879209
0.0027672
0.00194327
0.00262565
0.00235514
0.00258234
0.00311335
0.00732483
0.00570481
0.00422727
0.00139795
-0.0061407
0.00633306
-0.0221693
0.0183964
-0.00312471
-0.0158826
0.0167636
-2.89312e-05
-0.0337588
0.0370409
-0.0155477
0.0162827
-0.0136697
0.0145773
0.00252798
-0.0121127
-0.00861997
-0.00829303
0.00131016
-0.0121287
-0.0188438
-0.00910715
-0.0241774
0.0274727
-0.00915173
0.00203986
0.00822221
0.00829539
-0.00342404
0.00234397
-0.00565952
0.00601479
0.00704868
0.00644794
0.00501296
0.00718052
-0.00401735
-0.00184671
0.00651548
-0.00842945
0.0032327
0.00377635
-0.0158968
0.0161805
0.00728966
0.00303625
0.00583264
-0.000298412
0.00430241
0.000699463
-0.0030136
4.47042e-05
0.00861192
-0.0147694
0.00150038
0.00481131
-0.00830119
-0.00262507
0.00288766
-0.0055927
-0.00785055
-0.00201283
0.00354821
-0.00659884
-0.0156431
-0.00682128
0.0108036
0.00839768
0.0128297
0.0111632
-0.0094944
0.0077124
-0.00661357
-0.000870505
-0.00746158
-0.0135223
-0.00722332
-0.0110686
0.041697
-0.0392795
0.0560974
-0.0439998
-0.0118208
0.0370766
-0.0290483
-0.000620493
0.00248695
-0.024131
-0.00280837
0.010796
-0.00991519
-0.00979458
0.0140001
0.0105006
-0.0229707
-0.0209749
0.0146231
0.00757744
-0.0297652
-0.0163525
0.00565918
-0.0201437
-0.0425953
-0.0317399
0.00166495
0.0019496
-0.0233428
-0.132362
-0.110118
-0.0044502
0.00889765
0.120964
0.238518
0.489975
0.237809
-0.686841
0.0879567
0.271516
0.0490041
-0.251539
-0.0271078
0.0772475
0.00925681
-0.0737742
0.000728857
-0.0308985
-0.00638298
0.0174358
-0.000904029
4.77529e-05
0.00583818
-0.00609417
-0.0362279
6.38838e-05
0.0606708
0.0230388
-0.0200437
0.00343985
-0.0606276
0.0331454
0.0875948
0.0402813
-0.140406
-0.0476873
0.0576901
-0.0554347
-0.116409
0.0679143
0.0351215
0.00540796
-0.0540459
-0.052149
-0.0177972
0.0565054
-0.000736987
0.00430175
-0.0316226
0.0127585
-0.015691
0.025673
-0.0355654
0.0470447
0.0267647
0.0195293
0.00973364
-0.0115393
-0.0260136
-0.0154301
-0.00548213
0.00272925
-0.0188899
0.00501548
-0.0119288
0.016933
-0.0275559
-0.00334975
0.00238697
0.0210375
0.0156202
0.0162143
-0.0131533
-0.0306917
-0.005868
-0.00204053
0.0035926
0.00309319
0.0053193
0.00433397
0.00739017
0.00762964
-0.000131734
0.0031881
0.003039
-0.000218823
-0.000542317
-0.00449393
-0.00504851
-0.00190714
0.000704498
0.0020197
0.00395841
0.00143415
-0.00284585
0.00260002
0.00433627
-0.00790881
-0.0293357
0.029532
-0.013199
-0.000411636
-0.00597548
0.00610197
-0.00180584
-0.00941122
-0.000341445
0.00129762
0.00631176
0.0200781
-0.00759092
0.017225
-0.000443008
0.0389177
-0.0205785
0.0310081
0.00292535
-0.0121137
0.0126754
0.00171907
0.0157546
-0.0191333
0.0165851
-0.018573
0.0239125
-0.0113576
0.015538
-0.0085284
-0.0015379
-0.00325123
0.00958802
-0.00113702
0.00726194
-0.000153374
0.00419946
0.00282787
-0.0108239
0.00869162
-0.00143668
0.00352735
-0.00276201
-0.00157195
-0.000624457
0.00202173
-0.000642093
-0.00517661
0.00986383
-0.00307414
-0.00655658
-0.00463347
-0.0012013
-0.00083568
0.000724177
-0.012395
-0.00469691
-0.00424414
-0.0100995
-0.0110356
-0.0160578
-0.0176742
-0.00530886
-0.00896001
0.00160902
-0.00956643
0.0058445
-0.0121851
0.000653566
0.00374449
-0.00749043
0.0028028
-0.00204819
-0.018151
0.036479
-0.0310727
0.0175429
0.0116052
-0.0140205
0.0096758
-0.0172148
-0.0289594
0.0184845
-5.02968e-05
-0.0155219
-0.0117938
0.0138261
0.00682742
-0.0246609
-0.0184686
0.00908305
0.00410249
-0.0138412
-0.0392018
-0.00959905
-0.00301354
-0.0102898
-0.0513581
0.00580831
0.0230549
-0.0102034
-0.125433
-0.00906353
0.191072
0.249384
0.235301
0.0373021
0.0318704
0.321196
-0.674039
0.120705
0.0329187
0.124015
-0.204167
0.0688254
-0.0223841
0.0527891
-0.135601
0.0264681
-0.0561836
0.0400265
-0.0378124
0.00716986
0.0184954
0.010214
0.0203906
-0.0241912
-0.0270589
0.0571598
0.00026961
-0.0541081
-0.055413
0.0246751
-0.0676576
-0.0288443
0.173807
0.0574982
-0.1508
0.0991802
0.0828241
0.0385387
0.0203535
0.0274123
0.0112361
-0.0345034
0.00234599
0.0810148
-0.10328
0.0222776
-0.0712158
-0.000733421
-0.0138757
0.0987768
0.0880906
0.00866021
0.0740968
0.0597029
-0.0281812
-0.0381622
-0.0409791
-0.0340882
-0.031381
-0.00648203
-0.0205649
-0.0373183
-0.0179199
-0.0252295
0.00980638
-0.0361754
-0.0136315
-0.0127805
0.024231
0.0295144
0.0257727
0.00297376
0.00497162
0.00342736
0.0120621
0.0160454
0.0184241
0.0166094
0.0149037
0.00846191
0.00835197
-0.00547978
-0.000551899
-0.0068917
-0.0048819
-0.00116606
-0.00234854
-0.00159904
-0.00313952
-0.00171466
-0.00687785
-0.00713708
0.00810919
-0.00305424
0.00700706
0.00895228
0.00549203
-0.0226119
0.00578622
0.0281713
-0.0250692
0.00451243
-0.00941938
0.0144038
-0.0108609
-0.00439637
0.0072082
0.00461943
0.00267255
-0.00738672
-0.00715475
-0.00036729
0.0131423
-0.0183686
-0.0133856
0.0237102
-0.0241437
0.0147865
0.00260303
0.0346764
-0.0186267
0.0124932
-0.0292451
0.0250973
-0.0125826
0.0226104
-0.0156028
0.00804945
-0.0110696
0.0275567
-0.0116407
0.0244132
-0.0291705
0.0308808
-0.018171
0.0305033
-0.00506758
0.00173387
0.00366795
-0.00387871
-0.00496693
0.00187672
-0.00184389
-0.00887193
-0.00239367
0.00627789
-0.00371678
-0.00187448
0.0031447
-0.00118579
-0.00861266
-0.00934858
0.00411144
0.00994418
0.00481549
-0.0125333
-0.00767804
0.000319602
-0.00391549
0.00133907
-0.00232229
-0.0134637
0.00887076
-0.0176971
0.00847074
-0.0219697
0.0193003
-0.0170184
0.0211722
-0.0379032
-0.0076475
0.0189254
-0.00973222
0.0256067
0.00702695
-0.00598413
0.00801601
-0.0181758
-0.0127365
0.0231535
-0.00234021
-0.0222592
-0.00693319
0.0020232
-0.00911037
-0.0269862
0.00167316
0.0218617
-0.000948675
-0.0138122
0.00853039
0.0191232
0.0246586
0.00308525
0.000855909
0.0178386
0.0735701
0.0822309
-0.0429685
-0.00959821
0.00728598
-0.042922
-0.429704
-0.461524
0.42498
-0.0470626
-0.430599
0.0942091
0.128103
-0.0550956
-0.155057
0.0228847
0.0111294
0.00978515
-0.0156015
0.0213036
0.0421322
-0.0118754
-0.0213684
0.00121836
0.0263341
-0.00024276
-0.0160173
-0.00241211
-0.0187168
-0.0154103
0.123725
-0.0127328
-0.0671169
0.0447515
0.104224
-0.141534
-0.0316358
0.187617
0.0323591
-0.0947764
0.0170011
0.00816716
-0.00649456
0.0133727
0.0131004
0.00765173
0.00500867
0.098483
0.157767
-0.0217847
0.0533698
-0.0741739
-0.0299598
-0.0344662
0.0933063
-0.109593
-0.00749984
-0.0464208
-0.0812712
-0.0996242
0.00184073
-0.00214463
-0.00961657
-0.0126303
-0.00277296
-0.0228104
-0.0173923
-0.0172664
-0.000169106
-0.0500561
-0.0183547
-0.0118826
0.010867
0.0222631
0.00929666
0.0150601
0.00152398
-0.00522491
-0.00494959
-0.00315126
0.00562256
0.0077499
0.0140551
-0.000584729
0.00319805
-0.0119056
-0.000828745
-0.00703099
-0.00650079
-0.000391405
0.00110221
0.00479283
0.00517202
0.00933994
0.000542378
6.58518e-05
-0.00558541
0.00589071
0.00400332
0.00569424
-0.00661576
0.0102166
-0.0211223
0.0226806
-0.00164868
0.00680716
-0.000497429
0.00348295
0.000758832
-0.00170837
0.00670495
0.0144634
0.00329248
0.00820868
-0.0306471
0.0129072
0.019242
-0.00611025
0.00284515
0.0233735
-0.029545
0.00756242
-0.0036258
0.0280272
-6.44316e-05
0.0142926
-0.0183729
0.0101593
0.00578428
0.0134208
0.000446329
-0.00533647
-0.0139784
-0.016666
0.00379242
0.0216024
-0.0135845
0.00440244
-0.00702821
0.0149432
0.00295294
0.0105809
0.00506554
-0.000809897
-0.00279232
-0.00194997
-0.00588573
-0.00398406
-8.21037e-05
4.91581e-05
-0.00135449
0.000402259
-0.00221555
0.00393755
0.00282852
0.000683856
-0.0194555
-0.00636091
0.00281935
0.00389808
0.0034153
-0.00648646
0.00555169
-0.00436699
-0.0126159
0.00571035
-0.0220467
0.0155999
-0.0113563
0.0151937
-0.0173313
-0.00274105
0.0235503
-0.0401705
0.00451432
0.00594124
-0.00518461
0.0317532
-0.00593992
-0.0108526
-0.000318353
-0.00612267
-0.0126429
0.00305072
-0.0130676
-0.0200011
-0.00217599
0.00304877
-0.0109497
-0.026748
0.0056059
0.0306354
0.00579289
-0.00134361
0.0113277
0.0472483
0.0290489
0.00368307
-0.016789
0.0406039
0.075063
0.0417
-0.0322387