/*--------------------------------*- C++ -*----------------------------------*\
| =========                 |                                                 |
| \\      /  F ield         | OpenFOAM: The Open Source CFD Toolbox           |
|  \\    /   O peration     | Version:  2.2.x                                 |
|   \\  /    A nd           | Web:      www.OpenFOAM.org                      |
|    \\/     M anipulation  |                                                 |
\*---------------------------------------------------------------------------*/
FoamFile
{
    version     2.0;
    format      ascii;
    class       volScalarField;
    location    "2.7";
    object      By;
}
// * * * * * * * * * * * * * * * * * * * * * * * * * * * * * * * * * * * * * //

dimensions      [1 0 -2 0 0 -1 0];

internalField   nonuniform List<scalar> 
14161
(
-0.0283799
0.0119234
0.00944365
0.00923451
0.00619997
-0.00294096
-0.0133873
-0.0118466
-0.00659224
0.00163166
0.00591783
0.00735235
0.00473514
0.00160184
-0.0030636
-0.00505053
-0.00507609
-0.00547365
-0.00685575
-0.00673821
-0.00512653
-0.00341911
-0.00202556
-0.00323782
-0.013099
-0.106696
-0.017117
0.00929038
0.0253654
0.0428246
0.0540641
0.0538426
0.0551429
0.0554547
0.0522074
0.0486509
0.0442715
0.042196
0.0377789
0.0371351
0.0396437
0.0411978
0.0431798
0.0466006
0.0502239
0.0634623
0.0690425
0.0703475
0.0695999
0.0641224
0.0568929
0.0441804
0.0167138
0.00273109
-0.00853022
-0.0198784
-0.0212603
-0.0175695
-0.0174917
-0.0173964
-0.0150164
-0.0133755
-0.011036
-0.00439597
-0.000468946
-0.00170849
-0.0043475
-0.00274852
-0.000644656
0.00184795
0.00105997
-0.00142387
-0.00506299
-0.00690045
-0.00625334
-0.0060783
-0.00600627
-0.0049018
-0.00136519
0.00108808
0.00799922
0.0134347
0.0208351
0.0262884
0.0346014
0.03632
0.0404222
0.0360486
0.0286045
0.0283669
0.0252307
0.0234386
0.0165497
0.0111699
0.0101602
0.00701268
0.00156892
-0.00331859
-0.00509908
-0.00319748
0.00219329
0.00978494
0.0206359
0.0269003
0.0362697
0.0448716
0.0466018
0.0361344
0.0292604
0.0244559
0.0261133
0.0476294
0.0636389
0.0558915
0.0477472
0.0543559
0.0163588
0.0244625
0.0527094
0.0349386
-0.0131917
-0.0185652
-0.0162644
-0.008711
0.00936133
0.0219491
0.0165506
0.0104918
-0.00128256
-0.0117232
-0.00991264
-0.00595599
-0.00260612
0.0035165
0.00299093
0.00257355
0.00258657
0.00192046
-0.000621725
-0.00341232
-0.00633029
-0.0108862
-0.016622
-0.0477669
-0.154459
-0.0291042
-0.010237
-0.0522273
-0.0738391
-0.0793133
-0.0751884
-0.0669079
-0.0540657
-0.0414419
-0.0327544
-0.0245024
-0.0254141
-0.0277732
-0.0346496
-0.0409981
-0.0496857
-0.0493613
-0.0441837
-0.0334732
-0.0245116
-0.00229787
0.0128702
0.0294495
0.043109
0.0533929
0.0567971
0.0499142
0.046437
0.0344438
0.0208991
0.0111096
0.00423806
-0.00326646
-0.00651274
-0.00804344
-0.00782776
-0.00722744
-0.00351927
0.00240529
0.00899706
0.0139895
0.0213699
0.0308084
0.0374152
0.0373819
0.0331448
0.0265734
0.0146306
0.00201379
-0.00578613
-0.0115527
-0.0127572
-0.0117539
-0.0102641
-0.00590235
0.00273957
0.00808093
0.0176431
0.02418
0.0272413
0.0356048
0.0314017
0.0386183
0.0375238
0.036796
0.0340592
0.0254388
0.0164818
0.0102482
0.00853313
0.00680984
0.00545284
0.00433428
0.00740432
0.0130899
0.0239337
0.0309255
0.037718
0.0429249
0.0489104
0.0446463
0.0409942
0.0454756
0.0499236
0.0654039
0.0777098
0.0821923
0.0772859
0.0721583
0.0653793
0.0211854
0.0469454
0.0583101
-0.0233021
0.00823079
0.0133763
0.00754561
0.00455287
-0.00242338
-0.0110276
-0.00884432
-0.00350273
0.00311438
0.00762686
0.00692238
0.00352961
0.000971816
-0.0032222
-0.00530775
-0.00512917
-0.00653698
-0.00868345
-0.0111801
-0.010543
-0.0128549
-0.0183691
-0.0274929
-0.0597429
-0.179814
0.0203497
0.105535
0.0880095
0.0696804
0.0565689
0.0440802
0.0356565
0.0320317
0.0303478
0.0258945
0.0323583
0.0381367
0.0444181
0.0565892
0.0686461
0.0731128
0.0707479
0.0632375
0.0412472
-0.0047546
-0.0366229
-0.0571339
-0.0598472
-0.054726
-0.0469339
-0.0498596
-0.0573419
-0.0604674
-0.0591641
-0.0593181
-0.0553936
-0.0492621
-0.0420146
-0.0346632
-0.0276521
-0.0198584
-0.0124406
-0.0059105
-0.00250955
6.48164e-06
0.00275441
0.00801228
0.0132949
0.0170683
0.0175943
0.0176547
0.019232
0.0222707
0.0252827
0.0248873
0.0270741
0.0301332
0.0359991
0.0409244
0.0508724
0.0586193
0.068814
0.0694998
0.0782356
0.0776638
0.0848575
0.0714389
0.0676993
0.0541585
0.0453069
0.0443801
0.0403235
0.0377551
0.0341163
0.0296569
0.0262061
0.024073
0.0223391
0.0227386
0.0268855
0.0302767
0.0374418
0.0392035
0.0470054
0.0472228
0.0527076
0.053256
0.0576053
0.0574197
0.0658689
0.072696
0.083195
0.0886667
0.0867009
0.0794199
0.0289813
0.0758449
0.079904
0.0172825
-0.00449473
-0.00985163
-0.0151519
-0.0099235
0.0026053
0.0136105
0.0139695
0.0112304
0.00522043
-0.00319662
-0.00814777
-0.00534134
-0.00529308
-0.00258361
-0.00214566
-0.00275337
-0.00650466
-0.00997151
-0.0128792
-0.0136046
-0.015584
-0.0174167
-0.0166087
-0.00770642
-0.00414671
0.0990023
0.140006
0.0834703
0.0390697
0.00852426
-0.00641944
-0.0187764
-0.0328235
-0.0414105
-0.0514384
-0.0574678
-0.057209
-0.0510376
-0.0405533
-0.0371512
-0.0384508
-0.0372969
-0.0424842
-0.0538805
-0.0722942
-0.0663612
-0.0554425
-0.0467055
-0.0371333
-0.0315313
-0.0338143
-0.0353569
-0.0368494
-0.0368418
-0.0346733
-0.0309569
-0.025713
-0.0192305
-0.0114485
-0.00406251
0.00428271
0.0112157
0.0190317
0.0248832
0.0331895
0.0421223
0.0508032
0.0575531
0.0595357
0.0620024
0.0607302
0.0599956
0.0572879
0.0571878
0.0531037
0.0555295
0.0556984
0.0640292
0.0693217
0.0823202
0.0940249
0.110897
0.122688
0.138497
0.136754
0.147821
0.130676
0.133081
0.114157
0.0942217
0.0867677
0.0691767
0.0547943
0.042055
0.0351765
0.0290047
0.0249247
0.0217373
0.0268095
0.0361861
0.0517241
0.0526206
0.0561311
0.0597281
0.0600841
0.0598493
0.0607292
0.0688946
0.0719979
0.0774961
0.0768544
0.0800227
0.0734326
0.0741499
0.0632407
0.0301187
0.0869822
0.0807847
-0.0107451
0.00113762
0.00744387
0.00374036
0.00376409
0.00328333
-0.00277447
-0.00187919
0.00134004
0.00270734
0.00536001
0.00383739
0.00160773
-0.00103127
-0.0024728
-0.00256355
-0.00353466
-0.00801065
-0.00920979
-0.0140453
-0.0171983
-0.0243801
-0.0251033
-0.0245239
0.0139641
0.169795
0.126662
0.152417
0.108992
0.0527532
0.022719
0.00654853
-0.00836907
-0.0147778
-0.0192012
-0.0259697
-0.0298811
-0.0302641
-0.0283827
-0.0272989
-0.0250831
-0.0294578
-0.0344487
-0.0442528
-0.0572661
-0.0788486
-0.0800579
-0.0753688
-0.0703004
-0.0610581
-0.0544656
-0.0527605
-0.0538485
-0.0547966
-0.0553288
-0.0526403
-0.04864
-0.0447869
-0.0392892
-0.0317017
-0.0235085
-0.0139501
-0.00466444
0.00585132
0.0146628
0.0259375
0.035349
0.0465738
0.0552257
0.0611328
0.0642476
0.0646313
0.0666872
0.0666533
0.0721841
0.0718028
0.0816234
0.0776569
0.0850892
0.0866622
0.0969421
0.106569
0.125161
0.139365
0.162009
0.167393
0.190157
0.18136
0.193539
0.176862
0.152437
0.140187
0.111353
0.0902646
0.066332
0.0482938
0.0334064
0.0278057
0.0238255
0.0330218
0.0508736
0.066623
0.0722602
0.0759381
0.0793279
0.0749051
0.0721894
0.0701431
0.07671
0.0763799
0.0816756
0.0789138
0.0819689
0.0733952
0.0720379
0.0520484
0.0432041
0.0886371
0.0769876
0.00544195
0.000858842
-0.00349667
-0.00990606
-0.00762688
-0.000246114
0.00614495
0.00911748
0.00873231
0.00768711
0.00382282
-0.00396492
-0.00432849
-0.00426088
-0.00529729
-0.00591166
-0.00824674
-0.0130034
-0.0183988
-0.0226107
-0.0271921
-0.0305902
-0.0337495
-0.0296276
0.0144021
0.255416
0.260631
0.265406
0.177755
0.0688695
0.00558223
-0.0168452
-0.0276316
-0.0413813
-0.0541289
-0.0648836
-0.0733117
-0.0813311
-0.0875919
-0.093235
-0.0966738
-0.102618
-0.101012
-0.104725
-0.10594
-0.120031
-0.115312
-0.102578
-0.0932958
-0.0809746
-0.0728816
-0.0661582
-0.0652088
-0.063258
-0.0638037
-0.0588164
-0.0562977
-0.0497757
-0.0422931
-0.0299327
-0.0239386
-0.0143434
-0.00650398
0.00581742
0.0143079
0.0276582
0.0374432
0.0510153
0.0620702
0.0741355
0.0855364
0.0959522
0.107037
0.112722
0.12124
0.12278
0.132169
0.128821
0.137128
0.131649
0.141895
0.142757
0.159686
0.173654
0.205986
0.218832
0.2486
0.244532
0.262664
0.255493
0.223224
0.1959
0.156751
0.128973
0.0923451
0.0657737
0.0432077
0.0300378
0.0221585
0.0314268
0.0509939
0.0733532
0.0900138
0.0935187
0.102035
0.0987115
0.0834947
0.0785248
0.0837527
0.0805263
0.0864706
0.081828
0.0850679
0.0727017
0.0691997
0.0523057
0.0524113
0.081471
0.0682972
-0.000115527
-0.00417528
-0.000357797
0.000580647
0.00417236
0.00862841
0.00239231
0.0057091
0.00612244
0.00231365
0.00295629
-0.00132692
-0.00138995
-0.000794185
-0.00233736
-0.00517946
-0.00861513
-0.00897425
-0.0112299
-0.0204315
-0.0352576
-0.038416
-0.0416699
-0.0464261
-0.00129179
0.261685
0.366575
0.323442
0.204032
0.0901168
0.0261734
-0.00860117
-0.0244124
-0.0337118
-0.0439204
-0.0537695
-0.0647369
-0.0791071
-0.0930975
-0.104913
-0.10883
-0.115461
-0.11528
-0.120841
-0.121049
-0.134882
-0.136829
-0.12834
-0.128475
-0.121685
-0.121101
-0.116198
-0.116431
-0.110811
-0.108016
-0.093669
-0.0858412
-0.0715585
-0.0611856
-0.0498128
-0.0425279
-0.0281553
-0.0179395
-0.0049189
0.00232965
0.0160196
0.0275517
0.0426173
0.0538399
0.0671314
0.0729543
0.082207
0.0892468
0.098456
0.110665
0.120276
0.135703
0.138015
0.15513
0.157568
0.179121
0.182146
0.214515
0.229573
0.27004
0.278568
0.307496
0.307918
0.327856
0.323896
0.302384
0.280451
0.233933
0.186132
0.132194
0.0874207
0.0516114
0.0284612
0.0177398
0.0200686
0.0355847
0.0620426
0.0837457
0.102135
0.120585
0.118452
0.116928
0.0973132
0.100738
0.0896934
0.096341
0.0867337
0.0911893
0.0736306
0.0746329
0.0596133
0.0677901
0.0716766
0.0612137
-0.00187302
0.0042443
-0.000633943
-0.00352746
-0.00096164
0.00145983
0.00129013
0.00492064
0.00456191
0.00581824
0.00827428
0.000471083
-0.00208205
-0.00158995
-0.00690845
-0.0058044
-0.0107742
-0.016704
-0.0230607
-0.0301738
-0.0383648
-0.0457588
-0.0507788
-0.05268
-0.024608
0.234918
0.489613
0.428423
0.278744
0.146489
0.0701951
0.0264925
0.00427694
-0.0179793
-0.0465039
-0.0709121
-0.0931762
-0.116924
-0.140389
-0.163652
-0.179784
-0.191528
-0.197139
-0.199377
-0.200066
-0.202173
-0.193678
-0.171191
-0.153609
-0.137884
-0.129425
-0.123839
-0.125362
-0.121959
-0.118049
-0.106893
-0.0989853
-0.0834539
-0.0714744
-0.0559415
-0.0448853
-0.0335745
-0.02442
-0.0120558
0.000364468
0.0141397
0.0247577
0.0378768
0.0452151
0.059901
0.0740634
0.0916356
0.107108
0.123278
0.142704
0.159436
0.179775
0.192549
0.215314
0.229313
0.260365
0.27292
0.30933
0.307362
0.337121
0.323342
0.351148
0.339252
0.364535
0.383515
0.378764
0.371555
0.330646
0.270496
0.197108
0.13111
0.0780014
0.0328589
0.0120867
0.00736705
0.0132981
0.0349091
0.0594562
0.0924039
0.132271
0.174901
0.169803
0.152167
0.138333
0.117582
0.115579
0.0998673
0.101427
0.0800443
0.0838412
0.0696175
0.0754087
0.0660495
0.059175
0.0102687
-0.0066888
-0.00766276
-0.00214531
0.00477705
0.0120248
0.00481607
0.0108148
0.0090957
0.00241718
-0.00158443
-0.00595926
-0.00425773
-0.00312772
-0.00353155
-0.00799224
-0.0132511
-0.0199788
-0.0267719
-0.0369645
-0.0473928
-0.0502498
-0.0525359
-0.054743
-0.0311991
0.186182
0.519175
0.451657
0.308486
0.158738
0.0826841
0.0406267
0.0164401
-0.0093545
-0.0352306
-0.0540701
-0.071227
-0.0986738
-0.12194
-0.153959
-0.170382
-0.184007
-0.191015
-0.19272
-0.189527
-0.180025
-0.178929
-0.169848
-0.168935
-0.163373
-0.162225
-0.154433
-0.152894
-0.146215
-0.137412
-0.121866
-0.105717
-0.0850867
-0.0709535
-0.0522283
-0.0398384
-0.0258264
-0.0160185
-0.00440566
0.00368358
0.0137399
0.02302
0.0338335
0.0466936
0.0584258
0.0728111
0.0854213
0.10203
0.117883
0.13938
0.158824
0.18452
0.208166
0.23928
0.263299
0.300723
0.323707
0.364563
0.380165
0.42302
0.417924
0.45856
0.440761
0.470719
0.492335
0.488976
0.495906
0.461958
0.389702
0.293026
0.19663
0.112923
0.0471215
0.00757651
-0.00678291
-0.00749592
0.00423665
0.0242536
0.059355
0.107293
0.15559
0.20618
0.218122
0.203508
0.173551
0.150266
0.122284
0.12018
0.0929842
0.100822
0.078524
0.0883199
0.0574642
0.0599762
-0.00812901
0.00409002
0.00092994
0.00643266
0.00934119
0.00611014
-0.00140111
0.000626576
0.00055892
0.0031755
0.00703837
0.00431777
0.000226966
-0.00148562
-0.00527156
-0.00745247
-0.0138144
-0.0250823
-0.03411
-0.0435908
-0.0528341
-0.0629479
-0.0679193
-0.0768484
-0.0555082
0.127207
0.521896
0.489811
0.327493
0.173981
0.0929579
0.0576459
0.0337135
0.00964568
-0.0280848
-0.0712232
-0.103977
-0.148488
-0.17877
-0.214814
-0.224293
-0.231851
-0.2323
-0.225065
-0.212218
-0.195862
-0.189763
-0.177375
-0.17256
-0.162088
-0.157722
-0.154789
-0.152213
-0.146819
-0.137012
-0.126031
-0.110369
-0.0934537
-0.0779745
-0.0625613
-0.0454456
-0.0332779
-0.0190827
-0.00662553
0.00763755
0.020143
0.0325867
0.0429009
0.0546722
0.0675283
0.0814531
0.0972826
0.115649
0.135286
0.157905
0.180658
0.206674
0.230701
0.262484
0.292205
0.333005
0.366451
0.416824
0.44688
0.502564
0.515344
0.560106
0.543547
0.559193
0.571935
0.546838
0.549005
0.513969
0.458518
0.374064
0.288374
0.17478
0.0846773
0.020646
-0.0085348
-0.0198686
-0.0208897
-0.0112559
0.0152223
0.0669852
0.127202
0.182644
0.233691
0.260424
0.254535
0.215413
0.175009
0.156904
0.124507
0.122443
0.0945831
0.104879
0.0553393
0.0601205
0.0208829
-0.00798839
-0.0119476
-0.00425715
0.00304978
0.0122127
0.00509483
0.0117684
0.0082322
0.00191887
-0.0070903
-0.00905361
-0.00631233
-0.00636339
-0.00826709
-0.0126763
-0.0180696
-0.0276743
-0.0392596
-0.0471721
-0.0553683
-0.0636872
-0.0654395
-0.0635729
-0.0544429
0.066575
0.466281
0.501031
0.290206
0.146986
0.0863314
0.0628504
0.0318246
-0.0128786
-0.0409902
-0.0807772
-0.106891
-0.147838
-0.184114
-0.217133
-0.23431
-0.238905
-0.238029
-0.230465
-0.2174
-0.201458
-0.193591
-0.187377
-0.179639
-0.169705
-0.161276
-0.152463
-0.143213
-0.135295
-0.124248
-0.113917
-0.0988384
-0.0829492
-0.0643355
-0.0504057
-0.0359269
-0.0239305
-0.00916677
0.00325322
0.0164699
0.0264104
0.0373673
0.0448107
0.0562153
0.0664991
0.0811066
0.0978696
0.117471
0.139229
0.162903
0.188276
0.217019
0.245738
0.281558
0.317716
0.365812
0.41428
0.470778
0.513058
0.567026
0.586967
0.621969
0.605163
0.628444
0.660203
0.626942
0.634986
0.607068
0.565842
0.500972
0.418383
0.272637
0.142276
0.0620347
0.0155225
-0.0118384
-0.0203035
-0.0177435
0.000326627
0.0393025
0.0953178
0.142763
0.215503
0.271727
0.310538
0.310885
0.251333
0.218625
0.160486
0.149609
0.111003
0.126624
0.057968
0.0649957
-0.0154633
0.00109553
0.00816825
0.0194124
0.0174894
0.00955673
-0.00186182
-0.00220193
-0.00139986
0.0015065
0.00276865
0.00316898
2.76937e-05
-0.00392132
-0.00722118
-0.0142852
-0.0235611
-0.0337822
-0.0444954
-0.0537974
-0.0628087
-0.0715678
-0.077135
-0.0800913
-0.0859752
0.0147882
0.34923
0.499706
0.317947
0.150615
0.0813264
0.0547225
0.0334546
-0.00155081
-0.0488212
-0.096393
-0.142423
-0.171561
-0.199776
-0.220551
-0.237536
-0.246568
-0.248114
-0.242554
-0.227358
-0.208109
-0.195723
-0.184177
-0.174531
-0.162949
-0.151642
-0.139596
-0.129775
-0.121705
-0.108499
-0.0991615
-0.0811412
-0.0681061
-0.0503934
-0.0373005
-0.0228538
-0.0098367
0.0048428
0.0164031
0.0290191
0.0393817
0.0508764
0.0574301
0.0675514
0.0763278
0.0896062
0.106076
0.125434
0.14801
0.172565
0.199325
0.229936
0.262198
0.301159
0.340666
0.391145
0.443254
0.500581
0.550257
0.596766
0.632776
0.675218
0.66997
0.700855
0.74084
0.708938
0.711088
0.682204
0.648634
0.599745
0.525333
0.383081
0.237065
0.111641
0.0387978
-0.00596228
-0.0219868
-0.0187841
-0.00639794
0.0195489
0.0511595
0.0997672
0.170001
0.257127
0.321735
0.358335
0.346623
0.294237
0.218027
0.191827
0.138857
0.153981
0.0683373
0.0731377
0.0302782
-0.00643839
-0.0145604
-0.00473713
-0.000412261
0.000228765
0.00766906
0.0100894
0.00513275
-0.000149395
-0.00811691
-0.00846197
-0.0082134
-0.0074311
-0.0102832
-0.0172844
-0.0257513
-0.0377343
-0.0487659
-0.0587259
-0.0680349
-0.0735505
-0.075326
-0.0768228
-0.070993
-0.0169372
0.185695
0.406233
0.281793
0.12859
0.0886904
0.0689263
0.0344971
-0.00516657
-0.0442458
-0.0923063
-0.133184
-0.168342
-0.189682
-0.21933
-0.23847
-0.247554
-0.248981
-0.243619
-0.231408
-0.214828
-0.199927
-0.184862
-0.173755
-0.161078
-0.147127
-0.131839
-0.117214
-0.102759
-0.0842935
-0.0698884
-0.0498152
-0.0398139
-0.0268446
-0.0132553
0.00150915
0.0201885
0.0296823
0.0435673
0.0480828
0.0574466
0.0651101
0.0732241
0.0802408
0.0872763
0.100156
0.114316
0.133634
0.155928
0.180512
0.208371
0.239805
0.280479
0.324924
0.371199
0.419496
0.471275
0.527587
0.582753
0.643032
0.686322
0.744464
0.758385
0.799557
0.835557
0.814192
0.840813
0.820162
0.779645
0.71399
0.616943
0.474233
0.30568
0.172753
0.0941908
0.0439647
0.0115505
0.0071243
0.0201578
0.0365881
0.0588938
0.0879811
0.141528
0.219725
0.314862
0.375086
0.403009
0.386424
0.295351
0.247433
0.167039
0.183948
0.0812937
0.088653
-0.0187731
0.00289521
0.0149909
0.0311527
0.0242895
0.00998084
0.000523549
-0.00655508
-0.00656603
-0.00559894
-0.00226953
-0.00132028
-0.00518408
-0.00561642
-0.0113235
-0.0201515
-0.0320227
-0.0428786
-0.0537411
-0.0632412
-0.0724371
-0.0771607
-0.0787493
-0.0797217
-0.0718966
-0.0720706
0.0106178
0.191032
0.214652
0.176843
0.12724
0.0780826
0.040595
0.0118102
-0.0322106
-0.0680844
-0.107907
-0.145332
-0.174453
-0.199564
-0.215971
-0.226152
-0.233826
-0.231672
-0.222213
-0.203351
-0.189919
-0.169818
-0.159818
-0.143116
-0.129717
-0.112183
-0.0918702
-0.0730672
-0.0512351
-0.0257355
-0.0088958
0.00699462
0.013316
0.0206245
0.0160007
0.0177326
0.0254742
0.0327597
0.0418546
0.046178
0.0495874
0.0540253
0.0576285
0.0674591
0.0814763
0.100194
0.125738
0.146441
0.176564
0.206993
0.246419
0.290491
0.342092
0.392717
0.44401
0.499121
0.564258
0.632497
0.703594
0.746405
0.821295
0.862517
0.89735
0.911637
0.892546
0.940357
0.930566
0.896837
0.830804
0.732409
0.585598
0.398415
0.23271
0.135863
0.0768866
0.0324206
0.0196278
0.0282507
0.0431901
0.0627222
0.0922737
0.136149
0.204099
0.280632
0.375373
0.425444
0.449274
0.383506
0.31573
0.203756
0.220924
0.106593
0.111523
0.0241394
-4.40739e-05
-0.0168565
-0.00625699
0.00127153
0.00372997
0.0101722
0.00704987
0.00232853
-0.00217939
-0.00759564
-0.00778582
-0.00796006
-0.0101846
-0.0157987
-0.0230266
-0.0375666
-0.0502764
-0.0601671
-0.0679418
-0.0744492
-0.0804548
-0.0845796
-0.083006
-0.082715
-0.0913316
-0.140927
-0.0393547
0.18797
0.224535
0.175072
0.113897
0.0639528
0.0229793
-0.0150133
-0.0410607
-0.0747254
-0.108031
-0.130985
-0.153964
-0.169071
-0.180108
-0.184636
-0.181633
-0.177207
-0.161406
-0.146292
-0.134668
-0.125659
-0.115803
-0.101954
-0.0878044
-0.0763626
-0.0603424
-0.0489525
-0.0424355
-0.0348394
-0.0223327
-0.00693426
0.00885
0.0266528
0.0401135
0.0539115
0.0595209
0.0666499
0.0689093
0.0738255
0.0757484
0.0816328
0.0889907
0.0984471
0.112385
0.130303
0.151373
0.181102
0.217841
0.265667
0.315972
0.373063
0.420283
0.476448
0.540494
0.599775
0.66646
0.747373
0.834007
0.878814
0.974263
1.00395
0.98061
0.960219
0.982571
0.960434
0.935159
0.887763
0.809233
0.659868
0.478094
0.288177
0.190676
0.137663
0.0774791
0.0586469
0.0650751
0.0766151
0.0934137
0.117933
0.153186
0.202963
0.274881
0.359686
0.438232
0.466753
0.450042
0.398
0.255867
0.258535
0.132377
0.133377
-0.00878676
0.00186743
0.0121939
0.0248709
0.0204464
0.0114074
0.00352306
-0.0070568
-0.00938303
-0.00904623
-0.0068564
-0.00627592
-0.00913584
-0.0117171
-0.0184713
-0.0302013
-0.0407523
-0.0544587
-0.0619614
-0.0709678
-0.0777906
-0.0836713
-0.085966
-0.0865122
-0.0793812
-0.127871
-0.306857
-0.154337
0.101748
0.113467
0.093827
0.0664888
0.0204347
-0.0227227
-0.0514071
-0.0749512
-0.104651
-0.129421
-0.159002
-0.189292
-0.205089
-0.215916
-0.215558
-0.20488
-0.19964
-0.193461
-0.175898
-0.14874
-0.127668
-0.113953
-0.106627
-0.0949798
-0.0820679
-0.0654986
-0.045519
-0.0245741
-0.00732084
0.00619081
0.017383
0.0271007
0.0351987
0.0417313
0.0482225
0.0517191
0.0553063
0.0610699
0.0636468
0.0701379
0.0747006
0.0838445
0.0936541
0.109472
0.126657
0.150445
0.183162
0.22708
0.281752
0.338204
0.397404
0.45455
0.523369
0.596763
0.680306
0.776715
0.855489
0.953395
0.989334
1.0286
1.08501
1.10265
1.07795
1.08699
1.05868
1.02959
0.971683
0.88072
0.715986
0.522179
0.300633
0.213933
0.157555
0.0907569
0.0760886
0.0831243
0.0906313
0.10478
0.129139
0.164386
0.212369
0.267085
0.339451
0.422297
0.478637
0.48862
0.463729
0.317956
0.297082
0.16065
0.157909
0.00568307
-0.00246656
-0.00469106
-0.00480303
0.00533578
0.00670043
0.0133844
0.00660514
0.000819679
-0.00506679
-0.00874046
-0.00963889
-0.0122325
-0.0182506
-0.022239
-0.0333513
-0.0462395
-0.0573588
-0.0694066
-0.0774933
-0.0843648
-0.0861278
-0.0886217
-0.0909393
-0.0938233
-0.163012
-0.422522
-0.141218
0.0958573
0.145201
0.101582
0.0615259
0.0353768
0.00218024
-0.0214492
-0.0541872
-0.0764151
-0.0916194
-0.110883
-0.114986
-0.120674
-0.127119
-0.123697
-0.125429
-0.127842
-0.130893
-0.128897
-0.116522
-0.108149
-0.100468
-0.095595
-0.0887587
-0.0802544
-0.0696979
-0.0586921
-0.0458455
-0.0368089
-0.0284593
-0.0217035
-0.0135918
-0.0052736
0.00814401
0.0235651
0.0434224
0.0606246
0.0802331
0.0931784
0.111126
0.123594
0.138674
0.148783
0.167096
0.185409
0.211726
0.243152
0.283202
0.325801
0.374332
0.426983
0.486525
0.555974
0.636789
0.727546
0.814168
0.892812
0.976156
1.0574
1.13509
1.12507
1.1183
1.10296
1.112
1.09291
1.07441
1.02343
0.940641
0.772321
0.569609
0.331245
0.249196
0.176981
0.109909
0.0990525
0.101417
0.107686
0.121389
0.14691
0.183248
0.227128
0.277062
0.331535
0.402074
0.481753
0.511054
0.518597
0.382574
0.340826
0.194344
0.188928
0.00330117
0.00294341
0.00771739
0.0100873
0.0130801
0.0102168
0.00534247
-0.00250354
-0.00834876
-0.00869126
-0.00873929
-0.00993637
-0.0145404
-0.0225675
-0.0285863
-0.038814
-0.0495491
-0.0631544
-0.0708426
-0.0794767
-0.0878842
-0.0883887
-0.0908266
-0.089082
-0.0969307
-0.193579
-0.464598
-0.189724
0.0393235
0.0901543
0.0866444
0.0398044
-0.00991606
-0.0416408
-0.0654896
-0.0876499
-0.102696
-0.117308
-0.133006
-0.136384
-0.140944
-0.142777
-0.139948
-0.139488
-0.137113
-0.132135
-0.122669
-0.110701
-0.105143
-0.0988724
-0.0949229
-0.0896475
-0.0833825
-0.0742701
-0.0634475
-0.0537335
-0.0435663
-0.0323046
-0.021245
-0.00792261
0.00725586
0.0242409
0.0452192
0.0647082
0.0866062
0.100954
0.118626
0.131522
0.146912
0.159199
0.173557
0.190945
0.211372
0.238057
0.269294
0.307636
0.349451
0.39405
0.44435
0.50122
0.568349
0.652295
0.748403
0.858712
0.958777
1.03653
1.10581
1.1427
1.17985
1.17665
1.17559
1.18641
1.17215
1.14326
1.0848
0.996315
0.81932
0.604197
0.355462
0.276651
0.186259
0.126072
0.115876
0.112114
0.114333
0.126358
0.152459
0.190344
0.235438
0.28139
0.329817
0.383786
0.472846
0.523883
0.554547
0.441201
0.383664
0.231799
0.225525
-0.00402446
0.00174261
0.00287504
-2.30774e-05
0.00610969
0.00842511
0.0115493
0.0048637
-0.00157491
-0.00661155
-0.00903733
-0.0124168
-0.0181026
-0.0274015
-0.0327608
-0.0468205
-0.0602932
-0.067506
-0.0762495
-0.0824583
-0.0889955
-0.0908175
-0.0908645
-0.0900724
-0.0941187
-0.185059
-0.38622
-0.13287
-0.00165074
0.0672148
0.068474
0.0453665
0.0112794
-0.0202738
-0.0460902
-0.0672921
-0.0802547
-0.0933874
-0.104044
-0.108081
-0.110036
-0.109427
-0.104106
-0.102104
-0.0977723
-0.0960907
-0.0901552
-0.0845938
-0.083092
-0.0803747
-0.0780228
-0.0746802
-0.0710694
-0.0647644
-0.0568157
-0.0469224
-0.0365229
-0.0234525
-0.00824391
0.00867872
0.0279749
0.0491421
0.0718829
0.0950329
0.114803
0.135186
0.151955
0.170386
0.184511
0.200537
0.213644
0.232473
0.251961
0.277462
0.304766
0.33574
0.36954
0.406222
0.451221
0.50218
0.56506
0.639679
0.729446
0.842047
0.960209
1.06021
1.12541
1.16861
1.18884
1.19872
1.19663
1.1918
1.18391
1.16081
1.11469
1.03346
0.864109
0.636647
0.390086
0.305282
0.199117
0.14123
0.130778
0.124833
0.127324
0.141441
0.16752
0.20424
0.245948
0.287285
0.330519
0.373871
0.455587
0.535546
0.575328
0.48951
0.430564
0.274854
0.268742
0.00836753
0.00309965
0.00505988
0.00322746
0.00472512
0.00616978
0.00495095
0.00213162
-0.0037314
-0.0072444
-0.0092056
-0.0118026
-0.0210199
-0.0296322
-0.0372081
-0.0526668
-0.0666007
-0.0740707
-0.0792361
-0.0861908
-0.0908315
-0.0900849
-0.0896363
-0.0875354
-0.09251
-0.169066
-0.225461
-0.0531289
0.00736832
0.0229447
0.0180615
-0.0219925
-0.0431579
-0.0635003
-0.0812033
-0.0904645
-0.0996346
-0.108588
-0.113048
-0.111652
-0.109912
-0.106392
-0.101166
-0.0978448
-0.0934798
-0.0904454
-0.0819214
-0.0726441
-0.0699278
-0.066107
-0.0645752
-0.0628611
-0.0612895
-0.0574363
-0.051043
-0.0421953
-0.031045
-0.0167386
0.000321026
0.0193903
0.0398389
0.0621699
0.0860461
0.110163
0.131802
0.150866
0.170718
0.189919
0.208939
0.224068
0.239116
0.256559
0.275629
0.298329
0.324512
0.352933
0.383509
0.414376
0.451929
0.494215
0.551101
0.616509
0.701193
0.80267
0.913938
1.01724
1.09628
1.15242
1.18341
1.20128
1.20895
1.21225
1.205
1.18516
1.14398
1.06237
0.89316
0.654846
0.418909
0.324611
0.215071
0.160597
0.148772
0.137877
0.140165
0.153753
0.179747
0.214984
0.254528
0.293084
0.332798
0.370784
0.446843
0.530667
0.589747
0.533568
0.477688
0.317736
0.313091
-0.00457469
0.00878997
0.00814721
0.00450531
0.00265
0.00441163
0.00552715
0.00335429
-0.00146786
-0.0054513
-0.00964233
-0.0139091
-0.0241673
-0.0342325
-0.0430658
-0.0607456
-0.0711383
-0.0812321
-0.0869275
-0.0922944
-0.0938161
-0.0931933
-0.0915675
-0.0896935
-0.0919441
-0.136847
-0.011975
0.0485819
0.040569
0.0571929
0.0651144
0.0409574
-0.00580335
-0.0481624
-0.0784435
-0.0913203
-0.100805
-0.107262
-0.107734
-0.104323
-0.0987627
-0.0914035
-0.0834154
-0.0777069
-0.0717991
-0.069515
-0.0588978
-0.0511833
-0.0525476
-0.0510424
-0.0523928
-0.0547514
-0.0537747
-0.0498074
-0.04324
-0.0335703
-0.0215921
-0.00663225
0.0100777
0.027606
0.0453001
0.0638407
0.084799
0.107212
0.128315
0.149955
0.172541
0.196102
0.218754
0.240529
0.258976
0.277621
0.2986
0.321161
0.34512
0.369241
0.394648
0.422359
0.45575
0.492908
0.540419
0.596372
0.666436
0.74816
0.84371
0.959167
1.05184
1.12081
1.16617
1.1935
1.20978
1.21204
1.20895
1.18628
1.14291
1.05674
0.894388
0.670884
0.448833
0.345694
0.233432
0.178048
0.163264
0.150513
0.153071
0.167667
0.19351
0.226176
0.263176
0.298619
0.335298
0.371459
0.440031
0.523444
0.600358
0.567344
0.526753
0.362927
0.360083
0.0062
0.00542049
0.00488847
0.00413728
0.00198847
0.00295083
0.0030749
0.00147501
-0.0012765
-0.00536426
-0.00826102
-0.014426
-0.024994
-0.0368399
-0.0472381
-0.0659781
-0.07481
-0.0857891
-0.0905539
-0.0937076
-0.0948093
-0.0939988
-0.0914134
-0.0877575
-0.0889055
-0.0257154
0.154607
0.0891279
0.0621158
0.0662719
0.0458777
-0.00235832
-0.0579775
-0.0847348
-0.0985215
-0.0987938
-0.100054
-0.0979212
-0.0900288
-0.0788001
-0.0694475
-0.0634754
-0.0547693
-0.0496399
-0.0425096
-0.0404858
-0.0281232
-0.0190503
-0.0203787
-0.0223856
-0.028245
-0.033791
-0.0360807
-0.0341887
-0.0289886
-0.0208478
-0.0104386
0.00159912
0.0148939
0.0284276
0.0420377
0.0570442
0.0756449
0.096704
0.11754
0.140226
0.165045
0.191231
0.217824
0.245423
0.273477
0.299564
0.32213
0.343502
0.364748
0.386103
0.409072
0.433762
0.461707
0.493913
0.53072
0.571029
0.627659
0.693275
0.776203
0.88319
0.98871
1.07329
1.13152
1.16409
1.18986
1.19904
1.19098
1.16023
1.11788
1.03608
0.890193
0.679816
0.470226
0.368117
0.261558
0.20309
0.187662
0.169578
0.16973
0.18453
0.209493
0.238981
0.272687
0.304695
0.339727
0.376127
0.441197
0.516436
0.609208
0.598305
0.574759
0.400016
0.405638
0.00388193
0.00804214
0.0078817
0.00508224
0.000249327
0.000996772
0.0020819
0.00125088
-0.0012747
-0.0046399
-0.00995187
-0.0165647
-0.0297004
-0.0435314
-0.0537182
-0.0713048
-0.0786221
-0.0886867
-0.0925539
-0.0949367
-0.0949823
-0.0949243
-0.0907525
-0.0855812
-0.0780051
0.08427
0.384286
0.236027
0.124327
0.0774592
0.057166
0.0140692
-0.0204153
-0.0462616
-0.0451249
-0.0490292
-0.0541897
-0.059816
-0.0564991
-0.0514267
-0.044593
-0.0383554
-0.0305417
-0.0242875
-0.015806
-0.012012
-3.92488e-05
0.0122403
0.0157596
0.0105509
0.00389603
-0.00148492
-0.00331052
-0.00421366
-0.00166731
0.00435816
0.0117383
0.01851
0.0253983
0.0322297
0.0397219
0.0499665
0.0636438
0.080535
0.100361
0.122167
0.145457
0.170805
0.198297
0.228387
0.259081
0.290362
0.319892
0.347051
0.372455
0.393746
0.415512
0.438355
0.4642
0.492748
0.52374
0.555022
0.595369
0.644208
0.71425
0.79552
0.901458
1.00215
1.07101
1.10707
1.13361
1.13994
1.14015
1.12306
1.06614
0.973455
0.840396
0.67997
0.510114
0.408907
0.303431
0.239255
0.22099
0.196179
0.193956
0.206496
0.230682
0.25517
0.284003
0.312458
0.346274
0.38344
0.44584
0.515092
0.6185
0.622092
0.619401
0.437198
0.447401
0.00553637
0.00848661
0.00695049
0.00465342
0.00117338
0.000244669
4.6632e-05
-0.000255644
-0.00229655
-0.00597229
-0.0107708
-0.0190219
-0.0332855
-0.0509303
-0.0623871
-0.078884
-0.0849577
-0.0932112
-0.0964751
-0.0971047
-0.0975898
-0.0968233
-0.0921667
-0.0924483
-0.0864121
0.00493195
0.315505
0.349044
0.292239
0.280645
0.240923
0.15904
0.0892779
0.0469667
0.0198044
0.00909136
0.00565862
-0.00327428
-0.00855463
-0.00404727
0.00216631
0.0110538
0.0170657
0.0259077
0.0288227
0.0260547
0.0303645
0.035903
0.0450874
0.0459435
0.0433086
0.0405457
0.0361022
0.0363028
0.0379211
0.0392261
0.0411063
0.0430691
0.046404
0.0531606
0.0621117
0.0708358
0.0776353
0.0854154
0.0959952
0.110396
0.12883
0.148356
0.170296
0.196255
0.226144
0.259756
0.2966
0.335467
0.37292
0.405754
0.433929
0.455479
0.474535
0.497705
0.522504
0.545668
0.57426
0.608811
0.657048
0.716091
0.803281
0.89803
0.972034
1.0312
1.0802
1.09718
1.07096
1.02493
1.01433
0.947347
0.830263
0.698647
0.542961
0.450549
0.354806
0.293332
0.271073
0.240419
0.230896
0.238285
0.259034
0.27516
0.297875
0.322795
0.354908
0.392239
0.453232
0.517981
0.627912
0.639613
0.662758
0.471226
0.48368
0.00546706
0.00922428
0.00728745
0.00451799
0.000976666
-0.000151553
-0.00073566
-0.00110516
-0.00326267
-0.00768368
-0.011763
-0.0204312
-0.0348209
-0.0541396
-0.0654643
-0.0801677
-0.0865951
-0.0933951
-0.0968181
-0.0973562
-0.0974952
-0.0954661
-0.0938273
-0.0913434
-0.0903934
-0.0302929
0.236042
0.385939
0.320213
0.337851
0.302947
0.234944
0.185973
0.144265
0.1183
0.11062
0.0917886
0.0686925
0.0648581
0.0753242
0.0864181
0.0935907
0.0967945
0.0996955
0.102058
0.0974229
0.103512
0.107603
0.115542
0.125097
0.1224
0.112595
0.102012
0.0871276
0.082018