/*--------------------------------*- C++ -*----------------------------------*\
| =========                 |                                                 |
| \\      /  F ield         | OpenFOAM: The Open Source CFD Toolbox           |
|  \\    /   O peration     | Version:  2.2.x                                 |
|   \\  /    A nd           | Web:      www.OpenFOAM.org                      |
|    \\/     M anipulation  |                                                 |
\*---------------------------------------------------------------------------*/
FoamFile
{
    version     2.0;
    format      ascii;
    class       surfaceScalarField;
    location    "2.7";
    object      cfmax;
}
// * * * * * * * * * * * * * * * * * * * * * * * * * * * * * * * * * * * * * //

dimensions      [0 3 -1 0 0 0 0];

internalField   nonuniform List<scalar> 
28084
(
0.00123182
0.00116666
0.00115266
0.00114813
0.00116275
0.00117178
0.00118464
0.00118695
0.00116981
0.00115547
0.00114636
0.00114254
0.00114874
0.00115665
0.00116752
0.00117815
0.00118933
0.00119852
0.00120176
0.00120867
0.00121731
0.00122837
0.0012449
0.00127838
0.00135936
0.00112994
0.00112095
0.00119819
0.00120671
0.00121363
0.00123087
0.00124639
0.00125514
0.00126507
0.00126445
0.00125784
0.00123971
0.00122555
0.00121735
0.00121269
0.00121217
0.00121436
0.00121627
0.00120923
0.00118982
0.00117993
0.00115198
0.00109968
0.00106239
0.00101971
0.000984415
0.000955771
0.000936377
0.000934341
0.000937635
0.000946284
0.000956974
0.000968223
0.000981749
0.0009964
0.00100967
0.00102701
0.00104535
0.00106382
0.0010832
0.00110039
0.00111455
0.0011293
0.00114142
0.00115336
0.00116742
0.00117754
0.00118601
0.00119205
0.00119479
0.00119435
0.00119203
0.00118797
0.00118055
0.00117009
0.00115636
0.00114144
0.00112366
0.00110331
0.00108134
0.00105897
0.0010368
0.00101665
0.000996309
0.000981692
0.000965842
0.000949899
0.000932657
0.00091746
0.00090569
0.000898478
0.000892756
0.000887564
0.000886199
0.000883245
0.000878634
0.000873071
0.000865954
0.000856599
0.000846363
0.00083676
0.000826125
0.000814636
0.000800976
0.000784579
0.000763512
0.000754495
0.000749161
0.000746299
0.000741376
0.000741728
0.000749522
0.000771191
0.00298293
0.00340867
0.00102723
0.00336923
0.00122716
0.00336439
0.00124634
0.00337747
0.00123828
0.00333513
0.00120983
0.00314841
0.00112981
0.00304742
0.00110229
0.00303533
0.00110592
0.00305332
0.00113086
0.00306385
0.00118154
0.00299887
0.00120781
0.00293754
0.00121046
0.00287038
0.00120788
0.00277806
0.00119281
0.00267226
0.00118555
0.00257409
0.00118057
0.00248309
0.00118019
0.00240202
0.00118387
0.00232649
0.0011897
0.00226267
0.00119975
0.00220823
0.00121682
0.00216534
0.00123843
0.00213662
0.00126886
0.00215469
0.00131387
0.00210825
0.00136604
0.00180006
0.00101599
0.00162957
0.000908711
0.00142069
0.000815073
0.00128484
0.000766875
0.00119463
0.000747505
0.00111428
0.000741106
0.00103944
0.000738207
0.000970145
0.000729571
0.000898602
0.000719662
0.000836769
0.000712091
0.000786188
0.000707261
0.000746596
0.000703343
0.000708451
0.000703424
0.000675158
0.000703735
0.000644415
0.000704396
0.000610418
0.000705711
0.000572268
0.000705199
0.000535206
0.000702919
0.00050277
0.000697262
0.000498326
0.000691729
0.000494342
0.000693223
0.000502812
0.00071136
0.000513866
0.000734516
0.000526148
0.00075812
0.000537666
0.000781463
0.000550175
0.000805227
0.000562325
0.00083023
0.000570296
0.000855836
0.000579353
0.000877912
0.000586159
0.00089758
0.000592413
0.00091424
0.000597069
0.000928838
0.000601277
0.000942791
0.000604886
0.000955928
0.00060653
0.000967544
0.000606338
0.00097863
0.000607579
0.000989038
0.000610718
0.000998601
0.000612766
0.00100499
0.000613772
0.00101086
0.000614612
0.00101654
0.000615949
0.00102059
0.000617226
0.00102215
0.000618674
0.00102262
0.000621979
0.00102233
0.000622545
0.00102195
0.000623815
0.00102024
0.000627015
0.00101777
0.00062671
0.0010146
0.000625041
0.00101085
0.000622288
0.00100599
0.000618904
0.000999021
0.000615067
0.000989026
0.000611525
0.00097626
0.000608289
0.000960886
0.000606188
0.000943625
0.000605082
0.000924963
0.000605267
0.000906403
0.000606621
0.00088793
0.000606576
0.00087077
0.000605067
0.000854029
0.00060038
0.000837824
0.000599292
0.000822696
0.000593943
0.000808512
0.000591615
0.000794152
0.000593144
0.000782838
0.000596192
0.000771614
0.000600021
0.000762432
0.000601987
0.000754898
0.000602076
0.0007469
0.000606256
0.000738787
0.000611001
0.000731799
0.000613929
0.000726598
0.000615658
0.000722076
0.000617791
0.000717653
0.000621115
0.000713061
0.000626001
0.000709298
0.000630517
0.000705405
0.000635868
0.000701024
0.000640682
0.000696623
0.00064676
0.000690799
0.000653061
0.000686012
0.000657295
0.000683002
0.000658571
0.000680544
0.000657626
0.000678718
0.00065209
0.000679979
0.000656026
0.000682657
0.000663956
0.000685796
0.000671196
0.000690902
0.00067235
0.000699529
0.000676528
0.00070968
0.000678929
0.000725664
0.00072964
0.000746792
0.00305631
0.00343101
0.00133296
0.00314958
0.00109947
0.00312003
0.00107545
0.00317324
0.00109966
0.00337336
0.00116752
0.00321066
0.00128876
0.00306935
0.00133628
0.00303009
0.00133095
0.00306094
0.0012958
0.00309466
0.00123103
0.00295925
0.00119916
0.00290383
0.00120694
0.00285264
0.00122847
0.00277186
0.00126161
0.00266634
0.00130233
0.00256984
0.00132469
0.00248351
0.00133701
0.00240647
0.00135529
0.00233428
0.00137688
0.00227382
0.00138871
0.0022225
0.00139395
0.00218283
0.00139488
0.00215002
0.00138997
0.00209342
0.00137864
0.00194121
0.00130303
0.00138707
0.000820136
0.00127138
0.000706818
0.00114269
0.000651734
0.00106888
0.000637011
0.00102103
0.000639453
0.000980247
0.000647432
0.000932049
0.000656363
0.000880738
0.000663609
0.000833705
0.0006742
0.000791241
0.000685788
0.000752668
0.000696085
0.000713767
0.000705239
0.000675693
0.000712386
0.000640091
0.000717377
0.00060569
0.00072007
0.000572105
0.000721127
0.000537571
0.000721487
0.000505266
0.000722033
0.000479741
0.000722703
0.000478977
0.000726464
0.000491623
0.000743007
0.000500788
0.000755579
0.000507466
0.00076812
0.000515262
0.00078205
0.000523892
0.000797276
0.000531229
0.000812483
0.000538107
0.000827754
0.00054312
0.000842099
0.000545672
0.00085435
0.000549383
0.0008671
0.000553312
0.00087858
0.000555986
0.000888651
0.000558396
0.000897923
0.000560192
0.000905937
0.000561152
0.000912221
0.000561223
0.00091679
0.000560618
0.00091973
0.000559826
0.000920982
0.000558135
0.000920692
0.000555867
0.00091944
0.000553095
0.000917365
0.000550207
0.000914155
0.000548238
0.00091065
0.000548402
0.000907648
0.000550762
0.000904283
0.000553682
0.000900674
0.000555093
0.000897495
0.000556821
0.000894529
0.000558591
0.000891956
0.000560376
0.000889177
0.000561962
0.000885364
0.0005632
0.000879561
0.000564594
0.000871434
0.000565878
0.000860865
0.000568269
0.000849151
0.000570994
0.00083661
0.000573798
0.000824088
0.000576581
0.000812072
0.000577281
0.000798942
0.000575215
0.00078289
0.000574478
0.000766278
0.000570494
0.000748866
0.000569076
0.00073069
0.000565078
0.000711509
0.000563552
0.00069526
0.000565944
0.000680414
0.000567483
0.000667325
0.000570864
0.000656636
0.000574107
0.000647542
0.00057759
0.000639535
0.000582246
0.000632868
0.000587405
0.000627491
0.000591698
0.000623767
0.000595829
0.000621427
0.000600706
0.000619876
0.000605073
0.000618204
0.000610634
0.000616106
0.000615776
0.000613978
0.000621417
0.000612129
0.000627592
0.00061033
0.000635277
0.000608248
0.000641362
0.000609297
0.000646718
0.000612274
0.000651595
0.000617991
0.00065654
0.000624637
0.000662957
0.00063304
0.000668675
0.000641013
0.00067295
0.000647666
0.000679453
0.000659942
0.000684473
0.000675522
0.000692125
0.000693423
0.000691023
0.00071336
0.000750322
0.000733667
0.00275496
0.00347075
0.000991671
0.00316985
0.00134317
0.00309292
0.00137174
0.00318802
0.00134688
0.00337926
0.00129102
0.00303889
0.00114298
0.00286088
0.00108117
0.0028411
0.0010942
0.00300399
0.00113491
0.00308167
0.00126652
0.00293415
0.00133011
0.00290421
0.00134369
0.0028745
0.00133521
0.0028118
0.00131296
0.00268154
0.00129147
0.00256566
0.00127759
0.00247251
0.00128001
0.00240507
0.00128931
0.00233585
0.00130385
0.00227802
0.00131825
0.00223356
0.00134482
0.00217639
0.0013792
0.00208891
0.00138345
0.0019518
0.00137024
0.00150333
0.00112486
0.00132213
0.000723003
0.00125845
0.00065505
0.00114148
0.000625959
0.00106948
0.000616454
0.00102138
0.000617709
0.000977191
0.000627433
0.000926536
0.000641973
0.000887704
0.000657465
0.000850791
0.000672997
0.000812627
0.000688075
0.000775565
0.000702213
0.000738339
0.000714685
0.000701162
0.000725208
0.000663497
0.000735233
0.00062538
0.000745792
0.000590213
0.000756293
0.00055823
0.000767322
0.0005278
0.000778026
0.00049711
0.000788022
0.00051058
0.000798113
0.000518786
0.000814203
0.000523219
0.000828038
0.000527897
0.000840972
0.000531179
0.000854011
0.000535936
0.000867092
0.000540518
0.000880063
0.000543992
0.000892299
0.000547791
0.000903654
0.000550566
0.00091453
0.000551208
0.000925208
0.000553254
0.000937496
0.000554702
0.000949624
0.000555585
0.000960889
0.000556132
0.000971519
0.000556501
0.000981792
0.000556301
0.000991845
0.000555714
0.00100064
0.000554748
0.00100799
0.000552959
0.00101367
0.000550812
0.00101807
0.00054831
0.00102061
0.000549031
0.00102111
0.000550891
0.00101927
0.000553645
0.0010152
0.000554608
0.00100975
0.000556349
0.0010029
0.00055682
0.000995031
0.00055785
0.000985937
0.000559362
0.000975916
0.000561364
0.000964923
0.000563487
0.000953057
0.000565176
0.000939454
0.00056721
0.000924408
0.000568649
0.000907548
0.000570797
0.000889699
0.00057268
0.000871093
0.000574121
0.000852065
0.000575741
0.000832516
0.00057755
0.000812432
0.000576444
0.000794929
0.000577283
0.000777536
0.000574016
0.000759242
0.000574593
0.000740935
0.00057169
0.000720886
0.000571479
0.000702043
0.000573797
0.000685143
0.000574098
0.000669746
0.000575936
0.000656566
0.000577249
0.000644553
0.000580201
0.000633913
0.00058501
0.00062595
0.000590609
0.000619723
0.000596728
0.000614863
0.000604184
0.000610644
0.000610884
0.000606084
0.00061587
0.00060152
0.000621089
0.000601199
0.00062498
0.000600644
0.000629643
0.000600875
0.000635619
0.000601821
0.000642016
0.000604027
0.000648017
0.000607055
0.000654684
0.000609847
0.000661177
0.000614055
0.000667455
0.000619616
0.00067144
0.000627321
0.00067793
0.000636999
0.000681098
0.000648693
0.000689341
0.000662927
0.00069587
0.000678465
0.000701195
0.000693513
0.000694508
0.000707956
0.000757817
0.000730655
0.00277394
0.00346476
0.00139202
0.00301369
0.00107442
0.00293892
0.0010348
0.00302372
0.00107297
0.00339128
0.00117388
0.00309723
0.0013689
0.00288888
0.00146727
0.00283729
0.00144378
0.00299967
0.00139673
0.00307342
0.00130777
0.00289433
0.00123508
0.00286333
0.00125737
0.0028312
0.00129537
0.00279422
0.00134716
0.00266116
0.0014047
0.00255289
0.00143776
0.00246822
0.00144642
0.00240479
0.00145945
0.00233865
0.00147267
0.00228676
0.0014872
0.00225173
0.00149963
0.00219294
0.00151174
0.00209235
0.00153633
0.00189018
0.00155265
0.00151745
0.00151084
0.00137608
0.000934179
0.00129402
0.000786979
0.00118149
0.000722506
0.00110172
0.000698087
0.00103696
0.00070284
0.000984816
0.000716198
0.000947933
0.00073136
0.000912465
0.000744883
0.000876295
0.000754129
0.00083873
0.000762602
0.00080137
0.00077168
0.000762569
0.000780106
0.000721977
0.000789136
0.000683955
0.000799678
0.000648959
0.00081165
0.00061777
0.000823434
0.000587403
0.000834455
0.000557384
0.00084487
0.000529241
0.000855482
0.000544503
0.000864752
0.000549447
0.000879449
0.000550399
0.000894534
0.000550576
0.000908465
0.000550315
0.000922669
0.000551403
0.000936821
0.000552591
0.000950989
0.000554614
0.000965272
0.000556209
0.000979677
0.000557996
0.000993789
0.000559549
0.00100836
0.000560827
0.00102332
0.000561701
0.00103797
0.000563097
0.00105147
0.000564586
0.00106394
0.000566218
0.00107587
0.000567317
0.00108664
0.0005681
0.00109662
0.000568432
0.00110552
0.000568576
0.00111364
0.00056762
0.00112002
0.000568659
0.00112585
0.000575626
0.00113072
0.000579467
0.00113542
0.000583436
0.00113946
0.000585493
0.00114206
0.000587901
0.00114304
0.000588275
0.0011413
0.00058884
0.00113611
0.0005884
0.0011275
0.000587674
0.00111483
0.000587356
0.00109757
0.000586119
0.00107681
0.000586559
0.00105237
0.000586019
0.00102681
0.000587287
0.00100071
0.000588523
0.000974119
0.00059019
0.000948056
0.000591913
0.000921304
0.000592268
0.000894898
0.000589598
0.000867079
0.00059126
0.000840546
0.000587063
0.000813194
0.00058929
0.000787011
0.000585707
0.0007601
0.000582989
0.000732711
0.000583802
0.000710003
0.000582616
0.000689083
0.000583741
0.000671506
0.0005853
0.000656673
0.000588547
0.000645355
0.000593642
0.000637305
0.000599001
0.000630817
0.000604541
0.000625516
0.000609525
0.000620438
0.00061438
0.000617945
0.000618079
0.000616421
0.000623093
0.000615776
0.000626822
0.000615105
0.000632037
0.000615168
0.000638471
0.000616163
0.000644456
0.000618494
0.000649441
0.00062178
0.000655969
0.000625375
0.000662178
0.000630073
0.000670165
0.000636055
0.000674475
0.000643612
0.000682356
0.000652926
0.000685919
0.000664108
0.000693412
0.000676643
0.000697072
0.000689937
0.00070066
0.000702298
0.000694473
0.00071123
0.000760043
0.000731627
0.00270216
0.00348408
0.000994785
0.00303481
0.00143656
0.00290434
0.00147644
0.00304603
0.00145087
0.00342509
0.00136837
0.00304972
0.00119989
0.00280737
0.00112354
0.00272728
0.00113356
0.00294253
0.00115947
0.00304318
0.00133815
0.00285232
0.00145044
0.00285257
0.00147075
0.00284819
0.00146283
0.00285994
0.00144838
0.00272821
0.00142468
0.00262507
0.00141515
0.0025506
0.00142613
0.00248132
0.00144717
0.0024143
0.00146512
0.00236944
0.00148977
0.00232998
0.00153402
0.00227548
0.00157405
0.0022014
0.00160689
0.00204843
0.00163271
0.00189868
0.0016641
0.0015413
0.00111216
0.00138374
0.000903368
0.00122603
0.000805039
0.00111605
0.000760325
0.00104526
0.00075453
0.00100636
0.000764703
0.000965039
0.00077723
0.000924888
0.00078834
0.000885489
0.000797259
0.000845491
0.000805968
0.000806985
0.000814664
0.000768008
0.00082408
0.00073049
0.000836073
0.000694303
0.000850245
0.000658728
0.000865576
0.000626614
0.000880586
0.000594584
0.000895399
0.000564481
0.000909411
0.000535526
0.000922783
0.000552381
0.00093473
0.000555577
0.000952909
0.000556138
0.000973877
0.000556907
0.000993919
0.000557125
0.00101411
0.000558146
0.00103433
0.000559462
0.00105502
0.000562054
0.00107658
0.000564386
0.00109786
0.000567408
0.0011183
0.000568852
0.00113794
0.000570004
0.00115579
0.000570784
0.00117078
0.000571936
0.00118406
0.000572648
0.00119572
0.000573698
0.00120731
0.000573647
0.00121668
0.000573877
0.0012254
0.000573082
0.00123325
0.000572659
0.00124125
0.000570654
0.00124816
0.000569827
0.00125579
0.000575612
0.00126259
0.000584935
0.00126968
0.000594444
0.00127594
0.000602448
0.00128144
0.000610161
0.00128579
0.000616061
0.0012881
0.000621065
0.00128819
0.000626253
0.00128589
0.000628739
0.00128057
0.000631952
0.00127043
0.000630625
0.00125718
0.000630994
0.00123749
0.000629789
0.00121406
0.000630247
0.00118548
0.000630356
0.00115257
0.000632052
0.00111739
0.000632586
0.00107916
0.000633061
0.00104009
0.000626993
0.000996346
0.000626934
0.000952199
0.000617621
0.000909555
0.000617666
0.000870449
0.000610441
0.00083285
0.000603473
0.000795831
0.000601665
0.000763655
0.000596452
0.000733963
0.000595091
0.000707728
0.000594283
0.000684869
0.000595324
0.000668196
0.000599083
0.000656495
0.000602185
0.000648249
0.000605966
0.000641437
0.000609336
0.000634438
0.000614448
0.000629095
0.000618802
0.000625957
0.000624221
0.000623633
0.000628188
0.000621115
0.000633823
0.00061916
0.000638719
0.000620347
0.000643772
0.000622655
0.000648911
0.000626098
0.000656135
0.000630725
0.000662621
0.000636572
0.000671254
0.000642706
0.000676124
0.000650787
0.000685034
0.000660162
0.000687201
0.000671111
0.000694259
0.000682452
0.000694959
0.0006943
0.000696896
0.000704918
0.000695562
0.000715235
0.000759534
0.000734504
0.00268269
0.00349491
0.00145128
0.00300508
0.00109374
0.00284508
0.00103947
0.00293874
0.001091
0.00332916
0.001171
0.00304867
0.0014201
0.00279785
0.00157262
0.00272567
0.00153823
0.0029654
0.00149915
0.00308433
0.00140342
0.00287376
0.0012996
0.00284547
0.00132252
0.00282047
0.001367
0.00281729
0.00142918
0.00272102
0.00149465
0.00262379
0.0015315
0.00255566
0.00155126
0.00249237
0.00157343
0.00243291
0.00158831
0.00239203
0.00160492
0.00236644
0.00161611
0.00231181
0.00166244
0.0022281
0.00172422
0.00206816
0.00180523
0.00212496
0.00189245
0.00174149
0.00134215
0.0014964
0.00109754
0.00127305
0.000984277
0.00113089
0.000918341
0.00104161
0.000894963
0.00101277
0.0008959
0.000972143
0.000900732
0.000929633
0.000905154
0.000890825
0.000909944
0.00084885
0.000916514
0.000809855
0.000926048
0.000773229
0.000937727
0.000738271
0.000950646
0.000703695
0.000965381
0.000669158
0.000982636
0.000637961
0.00100131
0.00060644
0.00102031
0.000576567
0.00103958
0.000545828
0.00105703
0.00056724
0.00107231
0.000572033
0.00109252
0.000573132
0.00111448
0.00057553
0.00113468
0.00057609
0.00115403
0.000579837
0.00117472
0.000584133
0.00119689
0.000589257
0.00121937
0.000593975
0.00124177
0.000600307
0.00126346
0.00060398
0.00128384
0.000606774
0.00130502
0.000608473
0.00132336
0.000611342
0.00134128
0.000612546
0.00135691
0.000614362
0.00137216
0.000615061
0.00138586
0.000616659
0.00139738
0.000616692
0.00140802
0.00061822
0.00141738
0.000617727
0.00142467
0.000618946
0.00143174
0.00062126
0.00143697
0.000631632
0.00144258
0.000641418
0.00144728
0.000651613
0.00145283
0.000661251
0.00145717
0.000669227
0.00145989
0.000676553
0.00145948
0.000684269
0.00145728
0.000689642
0.0014509
0.00069558
0.00144101
0.000696139
0.00142711
0.000699203
0.00140583
0.000698244
0.00138161
0.000699275
0.00134938
0.000697222
0.001314
0.000697559
0.00126979
0.000695221
0.00122441
0.00069648
0.001178
0.000687352
0.00113039
0.000684053
0.00108446
0.000669386
0.00103468
0.000665719
0.000986451
0.000653174
0.000938723
0.000638841
0.000890376
0.000630685
0.000841617
0.000620373
0.000795286
0.000614938
0.000753829
0.000607843
0.000719779
0.00060445
0.000696492
0.000604891
0.000680569
0.000605062
0.00067062
0.000606945
0.000663092
0.00060855
0.000657349
0.00061433
0.000652747
0.000620147
0.000652261
0.000626629
0.000652718
0.000631308
0.000653353
0.000637716
0.00065286
0.000642577
0.000649914
0.000647074
0.000644525
0.000649873
0.000637572
0.000654917
0.000631467
0.000660804
0.000632554
0.000672021
0.00064133
0.0006773
0.000650997
0.000687063
0.000661217
0.0006881
0.000672644
0.000694863
0.000682932
0.000692627
0.000692887
0.000693332
0.000702569
0.000698435
0.000718115
0.000755515
0.000736538
0.002721
0.00346986
0.00101881
0.00299235
0.00150687
0.00280519
0.0015735
0.00293805
0.00155224
0.00337769
0.00147669
0.00316301
0.00130839
0.00285665
0.00119065
0.00274927
0.00119248
0.00290059
0.00123371
0.00301771
0.00140854
0.00280113
0.00156868
0.00282829
0.00160009
0.0028295
0.00159469
0.00284457
0.00159953
0.00284323
0.0015955
0.00275192
0.00161091
0.00268248
0.00163665
0.0026155
0.00167384
0.00256224
0.001719
0.00249646
0.0017847
0.00243013
0.00184345
0.0024
0.00188679
0.002374
0.0019222
0.00223406
0.00194206
0.00229621
0.00196405
0.00192786
0.00159169
0.00169435
0.00129367
0.00143025
0.00121154
0.00122954
0.00114531
0.00110312
0.00111229
0.0010489
0.00109987
0.00100872
0.00109631
0.000963867
0.00109059
0.000920888
0.00109197
0.000878079
0.00109642
0.000837928
0.00110366
0.000800029
0.00111208
0.000764551
0.00112065
0.000730376
0.00113188
0.000695733
0.00114487
0.000663859
0.00116026
0.000630121
0.00117437
0.000598159
0.00119023
0.000565635
0.00120259
0.000591017
0.00121497
0.000594931
0.00123139
0.00059614
0.00125121
0.000600706
0.00127311
0.000606025
0.00129556
0.000614651
0.00131976
0.000623095
0.00134433
0.000632976
0.00137019
0.000641551
0.00139737
0.000650114
0.00142119
0.000654533
0.00144109
0.000659921
0.00146258
0.000663852
0.00148408
0.000668247
0.00150135
0.000670295
0.0015144
0.000672457
0.00152574
0.000671156
0.00153539
0.000671006
0.00154422
0.000669112
0.00155084
0.000669717
0.00155902
0.000667569
0.00156774
0.00066788
0.00157694
0.00066616
0.0015865
0.000677931
0.00159429
0.000688983
0.00160302
0.000702011
0.00160984
0.000713108
0.00161353
0.00072602
0.00161569
0.000736177
0.00161614
0.000749264
0.00161327
0.000758199
0.0016112
0.000768851
0.00160687
0.000771243
0.00159617
0.000776675
0.00157621
0.000773948
0.00155139
0.000776669
0.00151625
0.000768688
0.00147549
0.000767157
0.00142629
0.000759714
0.00137765
0.00075988
0.00133162
0.000749953
0.00128325
0.000749745
0.00123741
0.000733929
0.0011854
0.000727901
0.00112845
0.000715083
0.00107227
0.000697126
0.00101264
0.000680544
0.000949808
0.000659937
0.000886097
0.000643981
0.000823122
0.000626604
0.000772494
0.000616966
0.000736703
0.000611488
0.000712632
0.000607574
0.000696404
0.000606984
0.000686119
0.000607992
0.000680955
0.000612227
0.000677396
0.00061886
0.000678361
0.000626484
0.000681423
0.000634158
0.000685505
0.000645337
0.00068823
0.000653592
0.000689387
0.000656824
0.000685646
0.00065771
0.000679237
0.000661982
0.000669641
0.000665745
0.000659769
0.000672614
0.000653192
0.000677173
0.000649412
0.000689437
0.000655238
0.000688241
0.000667225
0.000694592
0.000678262
0.000690676
0.000688217
0.000694111
0.000700418
0.000702866
0.000715753
0.000749221
0.000734684
0.00266145
0.0035163
0.00152071
0.00310247
0.00116578
0.0028506
0.00107951
0.00289091
0.00113638
0.00321217
0.00118069
0.00308514
0.00146021
0.00279664
0.00167997
0.00272872
0.00164578
0.00296803
0.00160908
0.0031519
0.00153037
0.00294639
0.00142549
0.00290875
0.00144141
0.00290321
0.00149414
0.00289998
0.00156406
0.00286992
0.00163973
0.00278552
0.00169896
0.00273009
0.00172858
0.00269791
0.00175865
0.00264799
0.00178676
0.00259512
0.00181467
0.0025544
0.00185603
0.00250392
0.00191945
0.00244508
0.00199281
0.00227572
0.00207326
0.00236934
0.00216317
0.00213579
0.00204191
0.00185257
0.00150519
0.00158742
0.00141472
0.00135979
0.00135445
0.00120531
0.00134555
0.00111162
0.00134368
0.00106138
0.00133667
0.00101875
0.00133213
0.000982115
0.0013332
0.000945199
0.00133338
0.000909201
0.0013426
0.000871494
0.00135496
0.000835288
0.00136985
0.000799907
0.00139342
0.000765324
0.00141752
0.000733097
0.00144373
0.000699754
0.00146301
0.000666958
0.00147754
0.000633515
0.00148534
0.00066681
0.00148719
0.000671902
0.00149478
0.000674774
0.00150672
0.000680955
0.00151895
0.000686725
0.00153565
0.000694448
0.00155224
0.000701289
0.00156951
0.000711434
0.0015877
0.000719083
0.00160535
0.000723626
0.00162011
0.000725195
0.00163219
0.000729875
0.00164516
0.00072801
0.0016577
0.000728918
0.00167075
0.000724823
0.00168439
0.000723886
0.00169573
0.000718692
0.00170753
0.000716908
0.00171733
0.000711873
0.00172708
0.000710529
0.00173493
0.000706084
0.00174418
0.000706845
0.00175262
0.000704469
0.00175848
0.000713768
0.00176219
0.000724414
0.00176309
0.000738825
0.00175976
0.000749641
0.00175722
0.000764779
0.00175119
0.000774828
0.00174697
0.000790935
0.00173847
0.000801121
0.00173393
0.000817081
0.00172336
0.000825739
0.00171632
0.000839471
0.00170576
0.000843398
0.00168828
0.000854388
0.00166683
0.000852374
0.00163961
0.000856673
0.00159799
0.000844326
0.00155151
0.000845505
0.00149715
0.000828271
0.00144082
0.000824623
0.00138383
0.000802922
0.00132003
0.000795479
0.00124466
0.000783939
0.00117711
0.000764527
0.00110758
0.000747801
0.0010407
0.00072058
0.000973957
0.000688471
0.00090469
0.000655721
0.000839534
0.000635902
0.000786456
0.00062179
0.000748926
0.000611707
0.00072452
0.00060697
0.00071043
0.000605705
0.000702523
0.00060787
0.000698602
0.000613231
0.000699072
0.000621937
0.000701959
0.000632877
0.000706635
0.00064928
0.000711404
0.000663403
0.000716673
0.000673003
0.000719949
0.000676335
0.000718676
0.000677693
0.000713099
0.000676828
0.000704086
0.000681842
0.000691256
0.000683316
0.000679299
0.000692193
0.00067427
0.00068944
0.000673296
0.000696517
0.000675546
0.000693896
0.000683647
0.000698215
0.000697542
0.000707346
0.000713223
0.000744613
0.0007309
0.0028027
0.00345804
0.00106869
0.00302362
0.0015708
0.0027986
0.00169658
0.00286631
0.00168196
0.00330249
0.00161318
0.0033264
0.0014637
0.00299303
0.00130452
0.00288387
0.00131624
0.00300474
0.00136931
0.00307124
0.00150593
0.00286677
0.00169955
0.00288157
0.00174708
0.00290693
0.00176437
0.0029144
0.00177603
0.00290037
0.0018
0.00284683
0.00183933
0.00278427
0.00187503
0.0027245
0.00192936
0.00266062
0.00199559
0.00259949
0.00206931
0.00255884
0.00213583
0.00252102
0.00221112
0.0024847
0.00229988
0.00240808
0.00237107
0.00237853
0.00240399
0.00235146
0.00233234
0.00197981
0.00169117
0.00170284
0.00155996
0.00147184
0.0015128
0.00134338
0.00151721
0.00125293
0.00154771
0.00119735
0.0015593
0.00115416
0.00156498
0.00110773
0.0015815
0.00105982
0.00158995
0.00102498
0.00160649
0.00098724
0.00163148
0.000963519
0.0016547
0.0009338
0.00169386
0.00090385
0.00172326
0.000864201
0.00174869
0.000821094
0.00176578
0.0007763
0.00177593
0.000728277
0.00177764
0.000765986
0.00177167
0.000768146
0.00177344
0.000767354
0.0017779
0.000770997
0.00178347
0.00077287
0.00179033
0.000777191
0.00179646
0.000779677
0.00180373
0.000783926
0.00180812
0.000784495
0.0018105
0.000783489
0.00180857
0.000779607
0.00180628
0.000777037
0.00180227
0.000770776
0.00180242
0.000770364
0.0018062
0.000763146
0.00181275
0.000760665
0.00181401
0.000752656
0.00181464
0.000749815
0.00181743
0.000743015
0.00182129
0.000740875
0.00182347
0.00073546
0.00182847
0.00073329
0.00183097
0.000726777
0.00183529
0.000737094
0.00183633
0.000746426
0.00183949
0.000760328
0.00183826
0.000770854
0.0018391
0.000787016
0.00183458
0.000797928
0.00183373
0.000815391
0.00182791
0.00082685
0.00182743
0.000845828
0.00182203
0.000857804
0.00181945
0.000877641
0.00181007
0.000888008
0.00179929
0.000909341
0.00178332
0.00091517
0.00176333
0.000930924
0.00172799
0.00092723
0.00169273
0.000935616
0.00164709
0.000920182
0.00159939
0.000919903
0.00154455
0.000892329
0.00148393
0.000878044
0.00140703
0.000860774
0.00134148
0.000834875
0.00126523
0.000817626
0.00119059
0.00078661
0.00111438
0.00074576
0.00103419
0.000698765
0.000952208
0.000665763
0.000873277
0.000641098
0.000811696
0.000621242
0.00077179
0.000610199
0.000747935
0.000604188
0.000734096
0.000603984
0.000726402
0.000608824
0.00072125
0.000613333
0.000720163
0.00062584
0.000721755
0.00064454
0.000726579
0.000664187
0.000734214
0.000681746
0.000742324
0.000692928
0.000749033
0.000700244
0.000751377
0.000699804
0.000746179
0.0006993
0.000735249
0.000695945
0.000718621
0.000701991
0.000705465
0.000698598
0.00069549
0.000704698
0.000690876
0.00070083
0.000691199
0.000705292
0.000697442
0.000713754
0.00071156
0.000741866
0.000728548
0.0026894
0.0035645
0.00159405
0.00327415
0.00128874
0.00293448
0.00114344
0.00294381
0.00119798
0.00322308
0.00124366
0.00317575
0.00153644
0.00286257
0.00179981
0.00285397
0.00178243
0.00302683
0.00174177
0.0032568
0.00168582
0.00311506
0.00161363
0.0030865
0.00162116
0.00309275
0.00169392
0.00308887
0.00177473
0.0030662
0.00185845
0.00299127
0.00194731
0.00294246
0.0020095
0.00291618
0.00204834
0.00287638
0.00208563
0.00280552
0.00211679
0.00274477
0.00214954
0.00268506
0.00220461
0.00262845
0.00226316
0.00253304
0.00233097
0.00236956
0.00243053
0.00245964
0.00268331
0.00203399
0.00194501
0.00173383
0.00170533
0.00151287
0.00167164
0.00141634
0.00169599
0.00133925
0.00175188
0.00129162
0.00179619
0.00125647
0.0018174
0.00122341
0.00183277
0.00118336
0.00185696
0.0011519
0.0018734
0.0011129
0.00190404
0.00108211
0.00193506
0.00104034
0.00196442
0.000998272
0.00197979
0.000950671
0.0020002
0.000900812
0.00201153
0.000849648
0.00201921
0.000795305
0.00202201
0.000841756
0.00201567
0.000841996
0.0020136
0.00084
0.00201996
0.000840768
0.00202059
0.000838236
0.002017
0.000838094
0.00201665
0.000835032
0.00201108
0.000833509
0.00200408
0.00082932
0.00199561
0.000824031
0.00198275
0.000815872
0.00197279
0.000807563
0.00195397
0.000798207
0.00194512
0.000793404
0.00194083
0.000781901
0.00193708
0.000776798
0.00193377
0.000765841
0.0019345
0.000760657
0.0019314
0.000750443
0.0019327
0.000746087
0.00193031
0.000736742
0.00193119
0.000733661
0.00192753
0.00072887
0.00192684
0.000740423
0.00192062
0.000749756
0.00191593
0.000764195
0.00191045
0.000775712
0.00190923
0.000793918
0.00190328
0.000807293
0.00190301
0.000827961
0.00189756
0.000842531
0.00189884
0.000865001
0.00189377
0.000879055
0.00189354
0.000903977
0.00188317
0.000918406
0.0018789
0.000947989
0.00186778
0.000958546
0.00185456
0.00098279
0.00182947
0.000990755
0.00180142
0.00101219
0.0017794
0.00101314
0.00175182
0.00102105
0.0017176
0.000996477
0.00166962
0.000983847
0.00160659
0.000969462
0.00154825
0.000939283
0.00147744
0.000917933
0.00139191
0.000880744
0.00130872
0.000834301
0.00121429
0.000774085
0.00111185
0.000721534
0.00100434
0.000675141
0.000904917
0.000641193
0.000834825
0.000621161
0.000794953
0.000608421
0.000771252
0.000607349
0.000758108
0.000613815
0.00075
0.000618727
0.000744035
0.000619772
0.000740605
0.000633359
0.000740261
0.000655195
0.000743757
0.000678777
0.000753288
0.000699434
0.000766129
0.000716474
0.000774753
0.00072381
0.000776954
0.00072604
0.000769893
0.000719128
0.000755648
0.000719339
0.000734876
0.000712933
0.000716487
0.000716136
0.000705984
0.000710246
0.000702853
0.000714162
0.000706348
0.000720807
0.00071263
0.000742245
0.000725767
0.0030041
0.00353754
0.0011468
0.00312046
0.00161236
0.00282643
0.00184389
0.00287742
0.00183806
0.00331238
0.00178028
0.00361116
0.00168116
0.00328471
0.00153085
0.00318054
0.00153688
0.00318548
0.00158867
0.00324313
0.00169582
0.00306316
0.00184636
0.00306056
0.00191389
0.00309393
0.00196159
0.00310599
0.00199189
0.00312051
0.00202623
0.00310172
0.0020772
0.00304866
0.00212735
0.0029815
0.00219685
0.00291131
0.00227722
0.00282289
0.00236111
0.0027455
0.00246233
0.00267194
0.00257657
0.00260056
0.00270644
0.00250892
0.00288309
0.0023688
0.00304901
0.00252154
0.00294824
0.00215101
0.0023012
0.00180001
0.00190613
0.00156328
0.00180332
0.0014866