/*--------------------------------*- C++ -*----------------------------------*\
| =========                 |                                                 |
| \\      /  F ield         | OpenFOAM: The Open Source CFD Toolbox           |
|  \\    /   O peration     | Version:  2.2.x                                 |
|   \\  /    A nd           | Web:      www.OpenFOAM.org                      |
|    \\/     M anipulation  |                                                 |
\*---------------------------------------------------------------------------*/
FoamFile
{
    version     2.0;
    format      ascii;
    class       volScalarField;
    location    "2.7";
    object      pB;
}
// * * * * * * * * * * * * * * * * * * * * * * * * * * * * * * * * * * * * * //

dimensions      [1 1 -3 0 0 -1 0];

internalField   nonuniform List<scalar> 
14161
(
-0.0021249
0.0101433
0.00454866
0.000931027
-0.00346576
-0.00488228
-0.00358581
-0.00104148
0.00282106
0.0031034
0.00255869
0.000821692
-0.00115566
-0.00168382
-0.00230483
-0.00194664
-0.00178773
-0.00138119
-0.00065384
-0.000462399
-0.00024211
-0.000410228
-0.00148933
-0.00561057
-0.0152035
0.0372868
-0.0170479
-0.0187575
-0.0089108
-0.00561464
-0.00474706
-0.00532232
-0.00462372
-0.00372667
-0.00360097
-0.00103003
0.000739838
0.00198538
0.00187486
0.00166053
0.00117982
0.00212799
0.00131689
0.0012546
0.00505294
0.00468105
0.0115343
0.0175102
0.0215952
0.0224665
0.0211431
0.0177279
0.0152581
0.0123096
0.00884539
0.00721923
0.00403103
0.00169036
0.000572669
0.000236644
7.14568e-05
-0.000299629
-0.00101218
-0.00159372
-0.00153005
-0.00293853
-0.00125207
-0.00196027
-0.00135827
-0.00238223
-0.00327215
-0.00299735
-0.0023782
-0.00449921
-0.00450038
-0.00484955
-0.00437499
-0.00396627
-0.00324212
-0.00175494
-0.000842229
0.000395969
0.00123941
0.00358959
0.00348949
0.00577788
0.00288762
0.00425016
0.00357072
0.00357583
0.00294306
0.00198926
0.00162503
0.000850668
0.000655779
0.000747001
-0.000545419
-0.000743132
-0.000321434
-0.00027762
0.000603213
0.000789611
0.00193393
0.00239485
0.00243215
0.00329975
0.00194321
0.000967651
0.000619638
0.00120227
-0.000192727
0.000103365
0.000157845
0.00142553
4.59717e-05
0.000620016
-0.00263377
0.00175809
-0.00592286
0.0336374
-0.0319947
-0.0101852
0.000426233
0.00613613
0.0160359
0.010084
0.000198704
-0.00418357
-0.0111448
-0.00749242
-0.000813209
0.00105255
0.0036043
0.00412359
0.00248936
0.000853145
0.000348092
-0.00025032
-0.000890015
-0.00278008
-0.00334823
-0.00431702
-0.00700397
-0.00675422
0.0263644
-0.000372913
0.00758548
0.00945207
0.00520228
0.00811292
0.00962745
0.00895365
0.00859254
0.00808066
0.00631099
0.00483398
0.00129456
0.000568379
-0.000653859
0.000243598
0.00227449
0.00295261
0.000859028
-0.00390797
-0.0115217
-0.0178502
-0.0173582
-0.0142797
-0.011714
-0.00836611
-0.00844128
-0.00901907
-0.0104466
-0.0090619
-0.00585576
-0.00391641
-0.00322289
-0.00242256
-0.00178299
-0.00107194
-0.00108055
-0.000781376
-0.000562114
-0.000328034
-0.00018911
0.000714267
0.000680242
0.00106592
0.000789035
0.000883212
0.000601883
0.000702618
0.00108248
0.00159315
0.00227208
0.00197789
0.00268253
0.00178706
0.00219976
0.000885098
0.000781722
-0.000830676
-0.000796981
-0.00193069
-0.000190326
-0.000738802
0.000801991
0.000560574
0.000365381
0.000245058
-0.000480753
-0.00061162
7.10505e-05
0.000590391
0.000760014
0.000309924
0.000972381
0.00145912
0.00155643
0.00066207
0.000519899
-0.000538901
-0.000173438
-0.000281527
-0.000406563
-0.00025552
0.000367368
0.000531278
0.000837068
0.000821075
-0.000677523
0.00023001
5.865e-05
0.000126605
0.000216463
-0.000656368
0.00124806
-0.00110735
-0.0315299
0.0493625
0.0140378
0.00010077
-0.0113461
-0.0256485
-0.0140067
-0.000759282
0.00659316
0.0168129
0.0107296
0.00102906
-0.00249134
-0.00584551
-0.00777533
-0.00533013
-0.00334043
-0.00207719
-0.00163579
0.000430125
0.00216475
0.00277951
0.00302999
0.00251609
0.00460978
-0.00806861
0.0300798
0.00545005
0.00204195
-0.00224204
-0.00479445
-0.00684716
-0.00548116
-0.00656155
-0.00659761
-0.00697787
-0.0057517
-0.00304043
-0.00181223
-0.00102349
0.000153847
-0.000981092
-0.00124123
-0.000514963
-0.000124546
0.00578712
0.00753669
0.00464929
0.00169822
-0.000380774
-5.52311e-05
0.000438732
0.00342787
0.00487262
0.00597028
0.00599749
0.00444682
0.00347842
0.00256777
0.00223156
0.00180269
0.00155697
0.00146991
0.00118844
0.000844388
0.000149525
-5.0268e-05
-0.000494262
-0.000397947
4.23664e-05
0.000187846
0.000782169
0.000955642
0.000508933
-0.000161174
-0.00048235
-0.000788101
-0.00038422
-0.000862752
-2.30339e-05
-0.000382989
0.00095164
0.000731586
0.00254481
0.00224993
0.00208668
-0.000961964
0.000823208
-0.000808946
-0.000485021
-0.000148966
-0.000104762
0.000392626
0.000293934
0.000342489
-0.000169317
4.73416e-05
-0.000308829
2.9748e-05
-0.000611282
-0.000648752
-0.000993871
-0.000742402
-0.000596398
-0.000690464
-0.000278536
-0.000523119
-0.000469026
-0.000725039
-0.000395581
-0.000859001
0.000132777
-0.000523491
0.000519002
-0.000794202
0.000387433
-0.00116279
0.00133732
-0.0018392
0.0573592
-0.0635966
-0.0188517
0.000125837
0.012429
0.0323999
0.0226202
0.00100574
-0.00757012
-0.0230131
-0.0162349
-0.00168857
0.00173365
0.00649313
0.0085301
0.00430067
0.00146267
0.000565262
-0.00127321
-0.00120017
-0.00349633
-0.00445183
0.000414362
0.00178382
0.0101824
0.00408838
0.00546535
-8.72905e-05
0.0062204
0.00405062
0.00731629
0.00581881
0.00508105
0.0044719
0.00345922
0.00294992
0.00284455
0.00180782
0.00166858
0.00114628
0.000808259
-0.000179606
-0.000671152
-0.00113273
-0.00117958
-0.00143096
-0.0042892
-0.00520874
-0.00507913
-0.00471177
-0.00386822
-0.00377816
-0.00327332
-0.00307537
-0.00332514
-0.00332573
-0.00227672
-0.00173236
-0.00131969
-0.000976998
-0.000915426
-0.000952976
-0.000579872
-0.00059489
-0.000154117
-0.000200463
0.000573424
0.000634801
0.000760094
0.000323902
8.81322e-05
-0.000209078
-0.000446117
-0.000318115
-0.000659289
0.000123558
-0.00027055
0.000338949
-0.00033299
-0.000256929
-0.00119106
-0.00139718
-0.00289914
-0.00276442
-0.00438555
-0.000187462
-0.00222905
0.00122486
-0.00069131
0.000331283
0.000221263
0.000157267
0.000207866
0.000253246
0.000197874
0.000280482
0.000131555
0.000332618
0.000214926
0.000430967
0.000585116
0.000450274
-0.000241794
0.000424186
-0.000574444
0.000336142
-0.000509573
0.000648832
-4.55257e-06
0.000698752
-0.000223057
0.000300683
-0.000422855
0.000336317
-0.000297644
0.000410894
-0.000324139
0.000874457
-0.000612449
-0.0483251
0.0706463
0.025232
0.000198239
-0.0157324
-0.0389755
-0.0239846
-0.00190426
0.00779927
0.0248479
0.0196771
0.00191414
-0.00270271
-0.0080874
-0.010244
-0.00624419
-0.00271622
-0.00149143
-0.000187697
0.000903108
0.00238316
0.00243822
0.000688794
0.000142879
0.000225479
-0.00345147
0.0280267
0.0029507
0.0018817
-0.000495249
-0.000834296
-0.00399363
-0.00307754
-0.00422077
-0.00363694
-0.00412528
-0.00342378
-0.00296413
-0.00269277
-0.00236226
-0.00218224
-0.00189128
-0.00176954
-0.00160812
-0.000908684
-0.000479796
-0.000832369
-0.000213955
-0.000788979
-0.000995965
-0.000499711
-0.000147575
0.000913997
0.00082448
0.00170303
0.00165124
0.00199276
0.0014975
0.00177163
0.000933213
0.0010773
0.000510997
0.000728087
-0.000164809
9.60976e-05
-0.000839421
-0.000877604
-0.00155643
-0.00142106
-0.00115394
-0.00116559
-0.00048522
-0.000573489
0.000258261
-0.000142288
0.000463676
-0.000600973
0.000526597
-0.00041028
-1.52259e-05
8.88168e-05
0.000167765
6.43158e-05
0.000947275
-0.000706702
0.00174345
-0.0018343
0.00176196
-0.00109167
0.000342785
-0.000176114
-5.7576e-05
0.000105276
-5.87109e-05
9.91353e-05
-0.000130716
6.20549e-05
-0.000356991
-7.43379e-05
-0.000754563
-0.000988672
-0.0010129
-0.000936069
-0.000862126
-0.00085939
-0.000509496
-0.000718758
-0.000326682
-0.0012035
-0.000252363
-0.00109494
0.000256618
-0.000763745
0.000591852
-0.000886711
0.000727328
-0.00123944
0.0013498
-0.00121194
0.0682593
-0.0784129
-0.0267393
-0.00163023
0.013973
0.0404661
0.0327438
0.00317042
-0.00690031
-0.0282777
-0.0234152
-0.00406521
0.0013186
0.00661183
0.00787006
0.00501277
0.00187267
-0.000963515
-0.00140238
-0.00225174
-0.00442431
-0.00469821
-0.00219972
0.00147803
0.000767758
0.001607
0.0200407
0.00383595
0.00757356
0.00689503
0.00387393
0.00332013
0.00213945
0.0018989
0.00132989
0.000929291
0.000254734
-0.000292497
-0.000612036
-0.000790722
-0.000804901
-0.00075332
-0.00123159
-0.00131833
-0.0017334
-0.00118477
-0.00213545
-0.00173566
-0.00152274
-0.00108421
-0.001713
-0.00185297
-0.00157654
-0.00177749
-0.00107586
-0.00143675
-0.000682787
-0.000770864
0.000235428
8.41447e-05
0.00107157
0.000328124
0.00113843
1.87895e-05
0.00100302
-0.000210304
0.00103042
9.96745e-05
0.000722586
-0.000257794
-0.00017283
-0.000532479
-0.00121505
-0.000543715
-0.00182605
-0.000808973
-0.002024
-0.000869297
-0.0023887
-0.00105622
-0.00194321
-0.00180871
-0.00357463
-0.00193918
-0.00412962
5.5894e-05
-0.00408683
0.00071891
-0.00175917
-0.000427803
-7.37413e-05
0.000107082
0.00023311
6.61335e-05
1.51314e-05
-6.66421e-05
-0.000110264
-0.000160268
2.39721e-06
-0.000162299
-0.000144244
0.000485503
-0.000541495
0.000364065
-0.000734677
0.000610561
-0.000673044
0.000689438
-0.000522032
0.000745517
-0.000599754
0.000580515
-0.000697297
0.000527383
-0.000512275
0.000448293
-0.000418632
0.000451297
-0.000200866
-0.056677
0.078546
0.0352557
0.00247591
-0.0150711
-0.044368
-0.0325343
-0.00406166
0.00627585
0.0257406
0.0264182
0.00369853
-0.00176022
-0.0073333
-0.00911524
-0.00541748
-0.00226669
-0.000377529
0.00112668
0.00184115
0.00269936
0.000617102
-0.00339831
-0.00761171
-0.00855087
0.0235475
0.0191687
-0.000113319
0.000891236
-0.00165835
-0.00124489
-0.00221915
-0.00222324
-0.00285068
-0.00247061
-0.0023341
-0.0018521
-0.00151073
-0.00170255
-0.0016992
-0.00203553
-0.00190998
-0.00181994
-0.000855741
-0.00157398
0.000307263
-0.00115175
0.000477844
-0.000357678
-0.000415373
-0.000739405
-0.000606043
-0.000544293
-0.00101496
-0.000551195
-0.00119883
-0.000356664
-0.001382
-0.000788621
-0.00133319
-0.00123628
-0.00181025
-0.000738145
-0.00146324
-0.000141706
-0.00046736
0.00048671
0.000173218
0.000224902
-0.000220938
-0.000835818
-0.00156237
-0.0016026
-0.00161133
-0.00196786
-5.26062e-05
-0.00188843
0.000490166
-0.00109702
0.00188293
-0.000716045
0.00240827
0.00201911
0.00281985
0.00044201
0.00308759
-0.000985322
0.00339066
0.000126716
0.000707179
0.000926836
0.000492248
0.00110729
0.000390472
0.000417694
-5.66333e-05
0.000121715
-0.000646678
-0.000147574
-0.00104953
-0.000699489
-0.00137061
-0.000712879
-0.000476767
-0.000640176
-0.000496985
-0.000648658
0.000120121
-0.000901176
0.000301218
-0.00111437
0.000638991
-0.000974474
0.000918076
-0.00102133
0.000945939
-0.00108326
0.00100261
-0.0010149
0.0710601
-0.0815697
-0.0341527
-0.00395805
0.0121109
0.0411296
0.0389901
0.00565504
-0.00496144
-0.0256996
-0.0274608
-0.00667888
0.000793656
0.00582538
0.0057283
0.00161761
0.000395984
-0.00121813
-0.00311561
-0.00525545
-0.00578528
-0.0040399
-0.00222029
0.000560632
0.000858887
0.0334668
-0.00759637
0.00625372
0.00454433
0.00396195
0.00252949
0.00158916
0.000630091
0.00105692
0.00119478
0.000736583
0.00105369
0.00204656
0.00159554
0.00338927
0.00205089
0.00257389
0.0015591
0.00157615
-0.0011185
0.00111079
-0.0018875
-0.00174014
-0.00116425
-0.00125617
-0.000389569
-0.00128967
-0.00143873
-0.00174729
-0.000555473
-0.000710174
0.000655293
-0.00105638
0.000772717
0.00035983
0.00196479
0.00125498
0.00162728
0.0019915
0.00138505
0.0013526
-0.000918132
-0.000360202
-0.00264269
-0.00212936
-0.00208111
-0.00163024
-0.00158184
-0.00104198
-0.00181642
-0.000585297
-0.00237687
0.000403835
-0.00204651
0.000747056
-0.00147332
0.00141741
-0.00459505
0.00163095
-0.0032356
0.00192958
-0.000595022
0.000910545
5.2877e-05
-0.00235916
-0.0013828
-0.00265812
0.000458374
-0.000428614
-0.000286592
-0.000270047
-0.000328179
-0.000383268
-0.000204165
-0.000240328
-0.000173323
0.000249198
-0.000667949
0.000149345
-0.000939789
0.00107216
-0.00138721
0.000709145
-0.000747649
0.000606354
-0.000726565
0.000826017
-0.000926014
0.000823129
-0.000923319
0.00066625
-0.000904581
0.000666934
-0.000692715
-0.0595475
0.075456
0.0445704
0.00529875
-0.010014
-0.0439621
-0.0390099
-0.00642771
0.00408164
0.0210842
0.0263579
0.0063216
-0.000679415
-0.00547208
-0.00744569
-0.00491229
-0.00198705
0.000241617
0.0015937
0.00223632
0.0014773
-0.000103928
-0.00332787
-0.00485745
-0.00818807
0.0169464
0.00306283
0.00424572
0.00139269
0.00074233
-0.000803392
0.000415885
0.000648522
-0.000952606
-3.55632e-05
-0.000529294
-0.00172565
0.00119215
-0.00144375
0.00186106
-0.00177291
-0.000208111
-0.000995615
-0.000500558
-0.00164838
0.00146835
-0.00102337
0.00152384
-0.000230443
0.000583095
6.17625e-05
6.75723e-05
-0.000920423
-0.00125516
-0.000688789
-0.0010817
-0.000436375
-0.00131878
-0.00204665
-0.00180617
-0.00188164
-0.00211475
-0.00248186
-0.00235867
-0.00229537
-0.00169394
-0.00129506
0.000355702
0.000657066
0.00116624
0.00108394
0.000799389
0.000519408
0.000618914
-0.000297197
1.44242e-05
-0.000577965
-0.000396662
-0.00107117
-0.000304361
-0.00165591
0.00093713
-0.00301458
0.00206163
-0.00525672
0.00389039
-0.00237153
0.00413695
0.0025471
0.000723163
0.00552996
0.00161162
0.00423974
0.00124167
0.00146368
0.000257569
6.54822e-05
-0.000350133
-0.000320281
-0.000586
-0.000461073
-0.000833147
-0.000883666
-0.00104139
-0.000857953
-0.000381238
0.00016927
0.000302336
-0.000532502
0.000285571
-0.0007622
0.000688725
-0.000987704
0.000973804
-0.00132244
0.00111008
-0.00139671
0.00130444
-0.00126895
0.066986
-0.0760377
-0.0404199
-0.00646974
0.00916198
0.0374154
0.0406954
0.00741195
-0.00268157
-0.0192931
-0.0250852
-0.00812357
-2.49616e-06
0.00354283
0.00456853
0.0020365
0.000838035
-0.00131726
-0.00319696
-0.00580275
-0.00627605
-0.00602428
-0.00854452
-0.00733422
-0.0022012
0.0205691
0.0217436
0.0171259
0.0149781
0.00357294
-0.00131431
0.000647963
8.71812e-05
-0.000902941
0.00187172
0.00152135
0.000151378
0.00234545
-0.00159968
0.00228778
-0.000438491
0.00071755
0.000962752
0.00165467
0.00212204
0.00352845
0.00191393
0.00278524
0.00123078
0.00175945
0.000377644
0.000181771
0.000779009
0.00119137
-0.000154649
0.000350418
0.000402527
-0.00074737
-0.000186069
0.00027379
0.00070145
0.000921926
9.43273e-05
0.000666278
-0.000259097
-0.000338222
-0.00113807
-0.000990794
-0.00146614
-0.000828188
-0.000750123
-0.000118018
-0.000188976
-0.000182693
-0.000858733
-0.000721779
-0.00163916
-0.00120291
-0.00187292
-0.00120368
-0.00276588
0.000301461
-0.00267724
0.00182908
-0.00462379
0.00308848
-0.00555666
0.00411468
-0.00187442
-0.00338816
0.000163777
-0.00357157
-0.00145927
-0.00303035
-0.000317762
-0.00144635
-0.000728575
-0.000896742
-0.000808406
-0.000676261
-0.000494351
-0.000378296
-0.000130445
0.000346099
4.28287e-05
0.000559452
-0.00150406
0.000464968
-0.000877776
-0.00051708
-0.000413128
0.000360913
-0.00093756
0.000713278
-0.00115874
0.000818633
-0.001333
0.00117897
-0.00127444
-0.0559481
0.0634177
0.0497585
0.00979912
-0.0062778
-0.0371528
-0.0406794
-0.00893987
0.00254218
0.0148698
0.0196505
0.00716948
0.000528565
-0.00353884
-0.00476113
-0.00490312
-0.00216825
0.000133814
0.00134161
0.00242333
0.00258193
0.0020283
0.00175261
-0.000288178
0.00141934
-0.0143425
0.0253192
0.000240991
0.00631011
0.00167241
-0.00146176
-0.00159256
-0.00232865
-0.001304
-0.00316638
-0.00236828
-0.00185248
-0.00324825
-0.00167737
-0.000785276
0.000267201
6.95027e-05
0.000320493
0.000760595
0.00101928
0.0016419
0.00124549
0.00113665
0.00103463
0.00108344
0.000400615
0.00175808
0.000980148
0.00154183
0.000781756
0.00104862
0.000264271
-0.000403084
0.000655916
-0.000808407
-0.000863222
-0.000375298
-0.000703555
-0.000638857
-0.000733081
-0.000494437
-0.000615706
5.83612e-05
0.000190187
0.000293456
5.85451e-05
-0.000121488
-0.000179761
-0.000368299
-0.000638741
-0.000502914
-0.00118007
8.82001e-06
-0.00118238
-0.00116263
-0.00186713
-0.00049181
-0.000937417
-0.000551512
-0.00344725
-0.00103062
-0.0115363
0.000402346
-0.0024593
-0.00984103
0.000416294
-0.00500473
-0.00221307
-0.00406182
-0.0010257
-0.00245981
-0.00100898
-0.000571976
-0.000441595
-0.00039051
-0.000541876
-0.000552672
-0.000550784
-0.00121235
-0.000496275
-0.000506522
5.69693e-05
-0.000888014
0.00076135
-0.000263554
-0.000508691
0.000470749
-0.000359696
0.00101255
-0.000943145
0.00121246
-0.00147012
0.0016087
-0.00167583
0.0515663
-0.0589028
-0.0446354
-0.00818214
0.00630584
0.0299049
0.0331109
0.00937077
-0.000254947
-0.0111024
-0.0163802
-0.00731723
-0.000711799
0.00111719
0.00349411
0.00248902
0.00121332
-0.00170984
-0.00368818
-0.00494842
-0.00758029
-0.0107778
-0.0144267
-0.0213733
-0.0236769
0.00294165
0.0703438
0.0250429
0.0263636
0.00208948
-0.0070844
-0.00394717
-0.0016256
0.00180009
0.00123432
-0.000738732
0.000815686
0.00266826
0.0029788
0.00159158
0.00164869
0.00112185
0.00114695
0.000318115
0.000708169
0.0016312
0.000584834
0.00139565
0.000977491
0.000286747
0.00106276
0.000467736
0.000968093
0.00107579
0.000155965
0.00127819
-0.000144407
-0.000725984
-0.000447696
-0.00280584
-0.00174226
-0.00175635
-0.00075953
-0.0015082
-0.000640934
-0.000423133
0.000100158
9.47471e-05
0.000139877
0.000216494
0.000123909
-0.000231262
-0.00032408
-0.000417894
-0.000524457
-6.93506e-05
-0.000207061
-0.000222942
-0.00145035
-0.00112517
-0.00204801
-0.00199011
-0.00212304
-0.00646815
-0.00709681
-0.00617987
-0.015213
0.00327233
-0.00042478
-0.0134666
0.0042813
-0.00256745
0.0036317
0.00034445
0.00225741
-0.00146908
0.000787245
0.000517837
-0.00140762
-0.00129211
-0.000392289
-0.000338155
-0.00021309
-4.2495e-05
-0.00039733
-0.000275014
-0.000947445
0.000504268
-0.00168791
0.00184646
-0.00245681
0.000605594
-0.000886413
0.000311661
-0.00101729
0.000728182
-0.00165232
0.00146626
-0.00173308
-0.0445988
0.0426784
0.0483177
0.0131888
-0.00409179
-0.0284269
-0.033253
-0.0107293
0.0013047
0.00720076
0.0104681
0.00478956
0.00134835
-0.00192506
-0.00315374
-0.00274399
-0.001624
2.10479e-05
0.000862997
0.00102601
0.00228295
0.00286767
0.004935
0.00842905
0.00962673
0.0173092
-0.00357837
0.00808401
-0.0376321
-0.0187699
-0.00702586
0.000860625
0.000383851
-0.0015058
0.000521423
0.00151152
0.00121241
3.66025e-05
-0.000159443
0.000601728
7.50206e-05
0.00068621
0.000275541
0.000182794
-0.00010026
5.83025e-05
-0.00160797
-0.0007739
0.000125139
0.00010269
0.000750878
0.000329477
0.000982621
0.000147332
0.000709077
-0.000133681
-0.000507992
0.00170417
0.00111856
0.00250676
0.00058322
0.000904719
0.000471936
0.000100791
3.4206e-05
0.000601798
-0.000502756
-0.000744663
-0.000291453
-0.00121277
-0.000111331
-0.00200592
0.00134244
-0.00248342
-0.000137441
0.000145443
-0.000136171
-0.00098215
-0.00185152
-0.00288916
-0.00235207
-0.00345568
-0.00678773
-0.00280946
-0.00739424
-0.00162499
-0.0097136
0.000660925
-0.00166857
-0.00557655
0.00201008
-0.00256903
0.000228603
-0.00244508
0.0019093
0.000206722
0.00167119
0.00226357
-0.00048492
-0.00024631
-0.000706204
-0.000687087
-0.00112152
-0.000736345
-0.00028707
-0.000638076
0.000202786
-0.000666125
0.000210703
-7.51491e-05
0.00215349
-0.00126675
-0.000997483
0.000196416
-0.000579169
0.00137732
-0.00169653
0.00220937
-0.00231825
0.0184481
-0.0264403
-0.0417852
-0.00994071
0.00404747
0.023914
0.0256277
0.00920641
0.00066693
-0.00438594
-0.0076442
-0.00441251
-0.00143017
0.000686226
0.00147149
0.0010133
0.000750148
-0.0019449
-0.00245781
-0.00428068
-0.00676888
-0.0093393
-0.0134773
-0.0204314
-0.0273763
-0.0240463
0.0289588
0.065196
0.017679
0.0224045
0.00294196
-0.00233023
-0.00110147
0.00123599
0.00488379
0.00436147
0.00280925
0.00210166
-0.000171177
-0.000720524
-0.00204104
-0.00187803
-0.00310318
-0.00156293
-0.00139143
-0.000237773
0.0024544
0.000500265
0.00170022
0.000380539
0.00126554
-0.000459244
0.00104549
0.00182378
0.00116716
0.00136387
0.00102164
0.000489362
0.00144152
-0.00186178
0.00068564
-0.000800909
-7.16048e-05
-0.000809147
-0.000968766
0.000113817
5.53073e-06
0.000115412
0.000193735
0.000850266
-0.00178224
0.000141674
-0.00217621
-0.000511594
-0.000517427
0.000479825
0.00489001
-0.00344545
0.00294542
-0.00380631
-0.00112133
-0.00256864
-0.00446239
-0.00428296
-0.00354935
-0.00106273
-0.000481112
0.00394033
0.0016231
0.00959617
0.00321788
0.00766089
0.00711731
0.00173866
0.00394519
0.00165687
-0.000213317
0.00407163
0.00114451
0.000223669
0.000889714
0.000753546
0.000203063
0.000819252
0.000485233
0.00109443
0.000447454
0.000478987
-0.0010495
0.00112375
-0.00121096
0.00263731
-0.00308377
0.000905604
-0.000215272
0.00158599
-0.00280052
0.00225022
-0.00265935
-0.023034
0.01404
0.0275125
0.0129798
-0.00138743
-0.0166605
-0.0222245
-0.00851229
-4.23211e-05
0.00271146
0.00458877
0.00218244
0.000652664
-0.00028311
-0.00154533
-0.00169746
-0.00107668
0.000130825
-0.000149788
4.50433e-05
-0.000717513
-0.00115057
-0.00124407
-0.00288321
-0.00656638
-0.0081603
0.0402098
0.0388123
-0.0205778
-0.0196958
-0.00837152
0.00232728
0.00154214
-0.00120431
-0.00292428
-0.00194414
-0.00246404
-0.00146889
-0.00103435
-0.00080451
-0.00102971
-0.00111661
-0.000957671
-0.000792089
-0.00109852
-0.00306555
-0.00126889
-0.0011218
0.000871471
0.000325507
-0.000191877
-8.1238e-06
-0.00109894
-0.00139468
-0.00188136
-0.00155164
-0.00274085
-0.00289669
-0.00111885
-0.00313287
-0.00328178
-0.00210602
-0.00240793
-0.00109368
-0.00147236
-0.000428485
-0.000756294
0.000385962
0.00016048
-0.000167187
-0.000422869
0.00155576
-0.000439734
0.000387005
0.000883767
0.00160257
0.00130736
-0.00127482
-0.00152884
-0.00238336
9.74786e-05
-0.00551117
0.00650081
-0.00157448
0.0016065
-0.000535011
0.00670386
0.00140291
0.00413809
0.00985966
0.00318912
0.00270551
0.00458636
-0.000128876
-0.000278179
-0.00131781
0.00190533
0.000396773
0.00125568
-0.00151702
0.000140674
7.22619e-05
-0.00109148
-4.34947e-05
-0.00023111
-0.000473549
-0.000203999
-0.000432001
0.00032976
-0.00181082
-0.000664467
0.000234662
-0.00202415
0.00120365
-0.00110563
0.00140194
-0.00307121
0.00324956
-0.00346431
-0.00551804
-0.00256698
-0.0182341
-0.0070275
0.00198556
0.013192
0.0173498
0.00515807
0.000329571
-0.00147308
-0.00305374
-0.00248193
-0.001464
-0.000499249
-4.11744e-05
0.000111601
-0.00138382
-0.00113641
-0.00125803
-0.00151912
-0.00303296
-0.0049971
-0.0071872
-0.0108636
-0.011027
-0.0054555
0.0397629
0.0324476
0.0150155
0.00434125
0.00566558
-0.00508987
0.000784289
0.0016955
0.000582168
0.000147222
-0.00110338
0.00102951
-0.00173372
0.000584772
-1.63206e-05
-0.00167771
-0.00115459
-0.000590898
0.00164282
-0.00115111
-0.000831376
-0.00211552
-0.0023879
-0.00255644
-0.00252208
-0.00225606
-0.00231824
-0.00204353
-0.00275847
-0.00210443
-0.00273181
-0.00127153
-0.00103418
3.87676e-05
-0.000353011
-0.000379401
-0.000107301
-0.000202572
0.00101116
8.00537e-05
0.00146045
0.000168693
0.00170192
0.000852759
0.00170482
0.00144537
0.00167978
0.0011059
0.00303016
0.00155019
0.00209322
0.00124975
0.00123497
0.000570081
0.000988106
-0.000570925
0.00329761
-0.00166842
0.0074344
0.00156743
0.0113793
0.000191258
0.00578732
0.00377116
0.0076454
0.00427599
0.00388826
0.00287861
0.00543308
0.00373523
0.00478644
0.00229579
0.00265876
-0.000730726
0.000793931
0.00160586
-0.000469817
0.000628601
-1.99911e-05
0.000131681
0.000114847
0.000459119
-0.000483604
-0.00017754
-0.00108042
0.000380612
-6.44715e-05
0.000375378
-0.00143754
0.00109188
-0.00228613
0.00333053
-0.00371237
-0.0017132
-0.00120399
0.00809908
0.00641284
-0.000205711
-0.00618849
-0.0106905
-0.00429349
-0.000515444
0.000733345
0.00173657
0.000949186
0.00039679
-0.000461848
-0.000543957
-0.00054174
-0.000883973
-0.000663048
-0.000379919
-0.000934537
-0.00150577
-0.00307474
-0.00375141
-0.0065048
-0.00475356
-8.87253e-05
0.0323887
0.0160428
-0.0030831
-0.00509409
0.00456736
0.00406107
0.00115157
0.00194626
0.000345836
-0.000561927
0.000716399
-0.000367347
-0.00136691
0.00086722
-0.0012626
-0.000747426
0.00039729
1.00925e-05
0.00105014
-0.00110932
0.000279772
-0.00057478
-0.000650206
-0.000812899
-0.000813818
-0.000718272
-0.000786222
-0.000310828
-0.000312806
-3.10669e-05
-0.000341663
-7.1575e-05
-7.64805e-05
-0.000285075
-0.000356518
-6.8277e-05
0.000347046
0.000401804
0.00138881
0.000145145
0.00114273
0.000613523
0.00135503
0.00132227
0.00160457
0.00203806
0.00187738
0.00212171
0.00207495
0.002379
0.00233482
0.00259688
0.00355344
0.00403171
0.00401102
0.00593568
0.00396001
0.00642044
0.00528212
0.00683932
0.000930264
-0.000602142
0.0064766
0.00474708
0.00275729
0.00158293
0.000215899
-0.00248132
-0.00106461
-0.00113061
0.000900728
9.29196e-05
0.00260195
-0.000813638
0.000249104
0.00106121
-0.000431007
0.00048587
-8.18234e-05
-0.000107983
-2.67156e-05
0.000110292
1.37266e-05
-4.45855e-05
-0.000566152
-0.000675658
-0.000224356
0.00179977
-0.00343949
0.00115459
-0.00231865
0.00340936
-0.0042249
-0.0213874
0.00607185
-0.00196642
-0.00267383
0.00154326
0.00619428
0.00785664
0.00239094
0.000306057
-0.00149014
-0.00176913
-0.00167556
-0.00154391
6.34021e-05
0.000724148
0.000539154
0.000199995
-2.4888e-05
-0.00128895
-0.00142896
-0.00175071
-0.00274874
-0.00308412
-0.00251428
-0.00277117
0.00730289
0.0151517
0.0381552
0.00931205
0.00030276
-0.0037514
-7.56121e-05
-0.000306362
0.000263667
0.000560081
-0.00065188
0.00140494
0.000281318
0.000708008
0.00173788
0.000385222
0.000380593
0.000375805
2.52445e-05
0.000943919
-0.000505374
-5.18539e-05
-0.000911278
-0.000699257
-0.000923172
-0.00100713
-0.000905099
-0.000900146
-0.000853556
-0.00086237
-0.000564126
-0.000642065
-8.79191e-05
-1.30029e-05
0.000393607
0.000666014
0.000908848
0.00140849
0.000993119
0.000752561
0.000687112
0.000420628
0.000738717
0.000476657
0.000780433
0.000429586
0.000832491
0.000597764
0.00119912
0.00102111
0.00160345
0.00140892
0.00199408
0.00210482
0.00191517
0.00162924
-4.28014e-05
-0.00137432
-0.0018784
-0.00142862
-0.00161477
-0.000979133
0.000227255
-0.00186364
-0.0018521
-0.00222108
-0.00204498
0.00076016
0.0013504
0.00180926
0.00113453
0.00208658
0.00167641
0.00159178
-0.000176242
0.000363249
0.00121012
-0.000307109
0.000548025
6.42073e-08
7.82463e-05
-0.000123225
0.000141826
-0.000349114
-1.93512e-05
-0.000675163
-0.000558902
-0.000772634
0.00199535
-0.00375702
0.001717
-0.00173128
0.00343908
-0.00435721
-0.00350103
-0.00502424
0.000381553
0.00240979
0.000919663
-0.00189302
-0.00281903
-0.00146481
-0.000297297
0.000464534
0.000375687
0.000458981
-0.000257966
-0.000961911
-0.000257251
2.26144e-05
-8.75898e-05
-8.12523e-05
0.000452372
-0.000965293
-0.00153988
-0.00225542
-0.00283413
-0.00183443
-0.00304298
0.0136498
0.00178272
0.0325595
0.0115961
0.00636505
0.00320573
0.00187124
0.00118869
0.00185875
0.000662753
-2.23635e-06
-0.000550455
-0.000604001
-0.000614134
-0.000701502
-0.00114913
-0.000836073
-0.000631938
-0.000587977
-1.20736e-05
-0.000974857
-0.000174396
-0.000833194
-0.000531738
-0.000533729
-0.000506946
-0.00034479
-0.000344428
-0.000172426
-0.00024123
-9.72776e-05
-0.000113379
-1.33066e-05
-8.12311e-06
-0.000173849
-0.000184867
-0.000253067
-0.000334193
-0.000469581
-0.000352749
-0.000480102
-0.000383085
-0.000472533
-0.000272662
-0.000272236
-0.000280805
-9.19868e-05
-2.45056e-05
-2.18439e-05
-6.22855e-05
-6.17e-05
-0.000169245
-6.44778e-05
0.00010221
-2.88115e-07
0.000184223
-0.00053562
-0.000127081
-0.000735396
-0.000436138
-0.00146392
0.000352518
0.000267237
0.000933718
2.6017e-05
-0.000188621
0.00142808
0.000368705
0.00055937
0.000586774
0.000571035
0.000227001
0.00267375
-0.00018068
0.000898415
0.000682862
0.000243521
-0.000218134
0.000507883
-0.000290888
0.000132096
-0.0001121
0.000250934
-0.000185489
0.00017875
-0.000615141
-0.000411945
-0.000881714
0.00108436
-0.00316664
0.00160434
-0.00161509
0.00307058
-0.00468204
-0.0187449
0.00655475
0.000951846
-0.00043619
0.00150931
0.00160706
0.00247876
0.000977928
-6.41759e-05
-0.000858573
-0.000886553
-0.00108532
-0.0010929
-0.000785546
0.000169722
0.000661928
0.000733425
0.00123327
0.000199805
3.42633e-05
-0.00064636
5.54203e-05
0.000333594
0.00113036
-0.000311384
0.0141943
0.00928258
0.0126335
0.00299552
0.00333879
2.18131e-05
0.003277
0.00157064
0.0013079
0.000631851
-3.2492e-05
-6.14043e-06
0.000338477
0.000194949
0.000560872
0.000353479
0.000655908
0.000733883
0.000768887
0.00114577
0.000580344
0.00117473
0.000399025
0.00071127
0.000384155
0.00028651
0.000261904
0.00014717
9.91731e-05
2.723e-05
0.000160512
0.00013976
0.000268147
0.000275691
0.000345333
0.000354259
0.000356478
0.000306006
0.000276328
8.3965e-05
7.9142e-05
-0.000201796
-9.88071e-05
-0.00040232
-0.000253184
-0.000575585
-0.00049547
-0.000615775
-0.000467617
-0.000678203
-0.000383724
-0.000676779
-0.000252038
-0.000456068
-8.42755e-05
-0.000242903
-0.000202522
0.000155356
-8.08692e-05
0.000195741
0.00101529
0.000291164
-0.0013641
-0.00180252
-0.00115476
-0.000999447
-0.0011074
0.000914865
0.000516709
0.00139437
0.000337676
0.00112089
0.00365059
-0.00130259
0.000951216
0.0011588
-0.000103664
-1.33941e-05
0.000380476
-0.000593276
-0.000101371
-0.000423824
-0.000162318
-0.000492303
-5.0836e-05
-0.00069714
-0.000204838
-0.000713012
0.000565405
-0.00272479
0.00161969
-0.00177948
0.003084
-0.00454331
-0.00887207
-0.00259861
-0.000125791
0.00102725
0.000756097
0.000213204
-0.000303113
-0.000210683
-0.000450645
-0.000297939
-0.000291348
-0.000447273
-0.00116678
-0.000583643
-2.07869e-05
0.000449238
2.79557e-06
0.000480308
-0.000128215
-0.000666165
-0.000706865
-0.000723619
-0.00191112
-0.00409987
-0.00931371
-0.00109311
0.0201529
0.0112636
0.0103167
0.0084771
0.0066088
0.00371742
0.00251824
0.000916506
0.000827505
0.000756174
0.00134741
0.000796559
0.00110818
0.000551106
0.00032767
0.000196284
-7.33492e-05
-0.000262313
-0.00025
-0.000504462
-0.000141418
-0.000892149
-0.000444766
-0.000607676
-0.000681787
-0.000579616
-0.000539227
-0.000554397
-0.000580942
-0.000483261
-0.000481671
-0.000539017
-0.000544791
-0.000619022
-0.000666614
-0.000714803
-0.000726239
-0.00076256
-0.000735372
-0.000655286
-0.000584739
-0.000428422
-0.000416466
-0.000120247
-0.000329672
4.42404e-06
8.56884e-05
0.000144438
-9.92426e-05
0.00016686
-3.50792e-05
0.000262989
-7.16079e-05
0.000181426
0.000110104
2.15646e-05
4.80019e-05
-0.000262051
0.000740123
-0.00173931
-0.000692852