/*--------------------------------*- C++ -*----------------------------------*\
| =========                 |                                                 |
| \\      /  F ield         | OpenFOAM: The Open Source CFD Toolbox           |
|  \\    /   O peration     | Version:  2.2.x                                 |
|   \\  /    A nd           | Web:      www.OpenFOAM.org                      |
|    \\/     M anipulation  |                                                 |
\*---------------------------------------------------------------------------*/
FoamFile
{
    version     2.0;
    format      ascii;
    class       volScalarField;
    location    "0.45";
    object      Bx;
}
// * * * * * * * * * * * * * * * * * * * * * * * * * * * * * * * * * * * * * //

dimensions      [1 0 -2 0 0 -1 0];

internalField   nonuniform List<scalar> 
14161
(
1
1
1
1
1
1.00001
1.00001
1.00001
1.00002
1.00003
1.00004
1.00006
1.00009
1.00013
1.00017
1.00023
1.00031
1.0004
1.00052
1.00065
1.00081
1.001
1.00122
1.00146
1.00173
1.00203
1.00235
1.00271
1.00307
1.00347
1.00387
1.00429
1.00473
1.00517
1.00562
1.00606
1.00652
1.00696
1.00737
1.00777
1.00817
1.00856
1.00894
1.00928
1.00961
1.00995
1.01025
1.01052
1.01077
1.01108
1.01139
1.01163
1.0117
1.01171
1.01148
1.01073
1.00981
1.00962
1.00923
1.00855
1.00554
1.00061
0.990931
0.980263
0.944184
0.940206
0.980156
1.031
1.09411
1.15977
1.21174
1.24811
1.27681
1.29902
1.3132
1.32333
1.32982
1.33522
1.33937
1.34248
1.34609
1.35227
1.35937
1.36588
1.37234
1.38011
1.38009
1.36759
1.31317
1.2067
1.08344
0.971797
0.886931
0.821002
0.766015
0.718709
0.676041
0.637613
0.602622
0.570399
0.540096
0.511324
0.483538
0.456573
0.430267
0.404618
0.379407
0.354255
0.328965
0.303222
0.276577
0.248662
0.219095
0.188283
0.154058
0.121427
0.0811003
0.05476
0.0114284
1
1
1
1
1
1.00001
1.00001
1.00001
1.00002
1.00003
1.00004
1.00006
1.00009
1.00013
1.00017
1.00023
1.00031
1.0004
1.00052
1.00065
1.00081
1.001
1.00122
1.00146
1.00173
1.00203
1.00235
1.0027
1.00307
1.00347
1.00387
1.00429
1.00472
1.00517
1.00562
1.00607
1.00652
1.00696
1.00737
1.00778
1.00817
1.00856
1.00893
1.00929
1.00964
1.00997
1.01025
1.01052
1.01077
1.01103
1.01131
1.01153
1.01176
1.01189
1.01196
1.01167
1.01102
1.01042
1.00939
1.00779
1.00545
1.00305
0.994615
0.992689
0.96154
0.95572
1.01271
1.07422
1.13403
1.19315
1.23858
1.27095
1.29437
1.30797
1.31739
1.32428
1.33094
1.33608
1.33973
1.34353
1.34794
1.35364
1.36022
1.36518
1.37082
1.37431
1.37261
1.35731
1.32313
1.23161
1.12193
1.01905
0.927128
0.851771
0.78782
0.732977
0.685739
0.644488
0.607185
0.572893
0.540944
0.510828
0.482053
0.45436
0.427516
0.401462
0.375893
0.350439
0.324879
0.298879
0.272003
0.243814
0.213844
0.182605
0.148569
0.117398
0.0789098
0.0542525
0.0132128
1
1
1
1
1
1.00001
1.00001
1.00001
1.00002
1.00003
1.00004
1.00006
1.00009
1.00013
1.00017
1.00023
1.00031
1.0004
1.00051
1.00065
1.00081
1.001
1.00121
1.00146
1.00173
1.00203
1.00235
1.0027
1.00307
1.00346
1.00387
1.00429
1.00473
1.00517
1.00561
1.00606
1.00652
1.00695
1.00737
1.00778
1.00818
1.00857
1.00894
1.00931
1.00967
1.01
1.01029
1.01058
1.01088
1.01114
1.01136
1.01164
1.01191
1.0122
1.01238
1.01248
1.01233
1.01186
1.01093
1.00985
1.00802
1.00681
1.00207
1.00606
0.992161
0.986593
1.04895
1.13552
1.20218
1.2539
1.2854
1.31211
1.32773
1.3315
1.33595
1.33711
1.34113
1.34287
1.34558
1.34973
1.35391
1.35878
1.36188
1.36405
1.36567
1.36206
1.35593
1.31237
1.26617
1.18209
1.08488
1.00316
0.921113
0.848871
0.788621
0.737527
0.69171
0.650042
0.611164
0.575026
0.541413
0.510267
0.481013
0.453012
0.425831
0.399315
0.373121
0.346974
0.320701
0.294056
0.266623
0.238063
0.208067
0.177392
0.144221
0.114342
0.0773715
0.0536221
0.014053
1
1
1
1
1
1.00001
1.00001
1.00001
1.00002
1.00003
1.00004
1.00006
1.00009
1.00013
1.00017
1.00023
1.00031
1.0004
1.00051
1.00065
1.00081
1.001
1.00121
1.00145
1.00173
1.00202
1.00235
1.0027
1.00307
1.00346
1.00386
1.00429
1.00472
1.00516
1.0056
1.00606
1.00651
1.00694
1.00737
1.00779
1.0082
1.00858
1.00896
1.00935
1.00971
1.01004
1.01036
1.01069
1.01098
1.01124
1.01148
1.01178
1.01212
1.01252
1.0129
1.01328
1.01356
1.01352
1.01338
1.01307
1.01314
1.01311
1.01605
1.02214
1.04357
1.06511
1.13988
1.22133
1.26911
1.30306
1.32112
1.33854
1.3493
1.35119
1.35218
1.35048
1.34953
1.34889
1.34963
1.35176
1.35283
1.35574
1.35778
1.35618
1.34939
1.33471
1.29827
1.23375
1.15311
1.07966
1.00847
0.950139
0.885924
0.825356
0.772318
0.724286
0.680581
0.640163
0.60275
0.568202
0.535829
0.505422
0.476317
0.44826
0.420914
0.394258
0.367882
0.341534
0.315019
0.288101
0.260597
0.232376
0.202998
0.173361
0.141265
0.112802
0.0774893
0.0545668
0.0168076
1
1
1
1
1
1.00001
1.00001
1.00001
1.00002
1.00003
1.00004
1.00006
1.00009
1.00013
1.00017
1.00023
1.00031
1.0004
1.00051
1.00065
1.00081
1.001
1.00121
1.00145
1.00172
1.00202
1.00234
1.00269
1.00306
1.00345
1.00386
1.00428
1.00471
1.00514
1.0056
1.00606
1.00649
1.00693
1.00737
1.0078
1.0082
1.00859
1.00899
1.00939
1.00976
1.01009
1.01044
1.01079
1.01111
1.01141
1.01172
1.01206
1.01245
1.01295
1.01362
1.01435
1.01505
1.01545
1.01606
1.01708
1.01829
1.01853
1.02056
1.02543
1.09398
1.17176
1.26471
1.30375
1.32651
1.34578
1.36171
1.36817
1.36977
1.37015
1.36785
1.36361
1.35911
1.35467
1.35067
1.35079
1.35026
1.3488
1.34572
1.33665
1.3134
1.27314
1.19691
1.10661
1.02648
0.979024
0.935211
0.903548
0.857304
0.813532
0.765459
0.722279
0.680871
0.641627
0.604672
0.570131
0.537328
0.506095
0.475896
0.446662
0.418243
0.390723
0.363642
0.336785
0.309905
0.28277
0.255312
0.227419
0.198819
0.17041
0.139494
0.112371
0.0787555
0.0567059
0.0208776
1
1
1
1
1
1.00001
1.00001
1.00001
1.00002
1.00003
1.00004
1.00006
1.00009
1.00012
1.00017
1.00023
1.0003
1.0004
1.00051
1.00065
1.0008
1.00099
1.0012
1.00144
1.00171
1.00201
1.00233
1.00268
1.00305
1.00344
1.00385
1.00427
1.00469
1.00514
1.0056
1.00604
1.00647
1.00692
1.00737
1.0078
1.00821
1.00863
1.00904
1.00944
1.00979
1.01014
1.01051
1.01088
1.01124
1.0116
1.012
1.01239
1.01284
1.0134
1.01423
1.01519
1.01622
1.01736
1.01872
1.02109
1.02369
1.02522
1.02618
1.03508
1.09122
1.27892
1.36036
1.36076
1.38389
1.37973
1.38967
1.38909
1.388
1.3853
1.38183
1.37473
1.36871
1.36088
1.35449
1.35092
1.34369
1.33254
1.31377
1.2862
1.23115
1.15067
1.04464
0.956094
0.912979
0.877993
0.855282
0.832772
0.802859
0.772472
0.734199
0.698371
0.661875
0.626761
0.592824
0.560349
0.52886
0.498499
0.468899
0.440134
0.411993
0.384419
0.356847
0.329374
0.302123
0.275048
0.24808
0.220988
0.193529
0.166729
0.137248
0.111848
0.0802553
0.0590806
0.0252666
1
1
1
1
1
1.00001
1.00001
1.00001
1.00002
1.00003
1.00004
1.00006
1.00009
1.00012
1.00017
1.00023
1.0003
1.00039
1.00051
1.00064
1.0008
1.00099
1.0012
1.00144
1.0017
1.002
1.00232
1.00267
1.00303
1.00342
1.00383
1.00424
1.00468
1.00513
1.00558
1.00601
1.00646
1.00691
1.00735
1.00778
1.00821
1.00866
1.0091
1.00948
1.00984
1.01021
1.01059
1.01096
1.01134
1.01174
1.01219
1.01268
1.01324
1.01396
1.01486
1.01606
1.01728
1.01875
1.0201
1.02155
1.02401
1.02817
1.03589
1.06122
1.1288
1.27924
1.35596
1.37709
1.38874
1.39559
1.39827
1.40101
1.39562
1.39177
1.38576
1.37586
1.36726
1.35604
1.34697
1.33442
1.31692
1.292
1.24883
1.18683
1.09033
0.979067
0.896851
0.845718
0.817469
0.795206
0.782844
0.764848
0.747191
0.722785
0.693892
0.663517
0.632222
0.601214
0.570581
0.540621
0.511335
0.482896
0.454816
0.427309
0.400284
0.373764
0.34724
0.320921
0.294723
0.268524
0.242417
0.216197
0.189724
0.164368
0.136209
0.112596
0.083043
0.0627743
0.0310672
1
1
1
1
1
1.00001
1.00001
1.00001
1.00002
1.00003
1.00004
1.00006
1.00009
1.00012
1.00017
1.00023
1.0003
1.00039
1.0005
1.00064
1.00079
1.00098
1.00119
1.00143
1.00169
1.00199
1.0023
1.00265
1.00301
1.0034
1.00381
1.00422
1.00466
1.00511
1.00555
1.00599
1.00645
1.00689
1.00732
1.00776
1.00822
1.00868
1.00912
1.00953
1.00991
1.0103
1.01069
1.01104
1.01142
1.01184
1.01231
1.01282
1.01342
1.01413
1.01496
1.01592
1.0172
1.0185
1.02015
1.02244
1.02559
1.03173
1.03912
1.07228
1.13047
1.21048
1.27186
1.32374
1.38059
1.39063
1.3957
1.40101
1.39505
1.38812
1.37747
1.36345
1.35192
1.33736
1.31952
1.29677
1.25652
1.20387
1.11529
1.01075
0.907038
0.834212
0.786067
0.758101
0.739211
0.728117
0.719952
0.709664
0.697317
0.679282
0.656583
0.630936
0.604032
0.576461
0.548562
0.52081
0.493464
0.466778
0.440123
0.413902
0.387981
0.362404
0.336787
0.311443
0.286226
0.261011
0.235991
0.21093
0.185669
0.162038
0.135409
0.113798
0.0863208
0.0668591
0.0373081
1
1
1
1
1
1.00001
1.00001
1.00001
1.00002
1.00003
1.00004
1.00006
1.00009
1.00012
1.00017
1.00022
1.0003
1.00039
1.0005
1.00063
1.00079
1.00097
1.00118
1.00141
1.00168
1.00197
1.00228
1.00263
1.00299
1.00338
1.00378
1.0042
1.00463
1.00507
1.00552
1.00597
1.00642
1.00685
1.00728
1.00774
1.00821
1.00868
1.00913
1.00955
1.00997
1.01037
1.01075
1.01112
1.01151
1.01191
1.01234
1.01281
1.01334
1.01402
1.01485
1.01587
1.01693
1.01794
1.01905
1.02037
1.02123
1.02169
1.01586
1.0615
1.13157
1.15248
1.18927
1.26704
1.3563
1.3786
1.38809
1.38429
1.38137
1.36811
1.36063
1.34183
1.31754
1.29258
1.24958
1.2005
1.12151
1.02528
0.917557
0.835171
0.775707
0.735274
0.709819
0.692581
0.680879
0.675507
0.668188
0.662089
0.651839
0.638543
0.620043
0.598448
0.575695
0.551755
0.527185
0.502323
0.477334
0.452378
0.426955
0.401894
0.376965
0.352205
0.327346
0.302788
0.278348
0.253974
0.229927
0.206004
0.181935
0.160023
0.135054
0.115383
0.0901409
0.0715906
0.0441203
1
1
1
1
1
1.00001
1.00001
1.00001
1.00002
1.00003
1.00004
1.00006
1.00009
1.00012
1.00016
1.00022
1.00029
1.00038
1.00049
1.00062
1.00078
1.00096
1.00116
1.0014
1.00166
1.00195
1.00226
1.0026
1.00296
1.00334
1.00374
1.00416
1.00459
1.00503
1.00549
1.00594
1.00637
1.0068
1.00725
1.00771
1.00817
1.00863
1.00911
1.00959
1.01004
1.01045
1.01081
1.01119
1.01158
1.01197
1.01236
1.01279
1.01328
1.01386
1.01456
1.01538
1.01621
1.017
1.01771
1.01883
1.02058
1.02352
1.02763
1.07344
1.11516
1.1165
1.14117
1.17868
1.26624
1.32252
1.35561
1.34118
1.34139
1.32234
1.30425
1.28187
1.23801
1.18652
1.11599
1.02241
0.920671
0.836825
0.772231
0.724053
0.691645
0.669276
0.654738
0.643873
0.63846
0.633269
0.62851
0.622734
0.614155
0.602591
0.586598
0.568115
0.548381
0.52714
0.505387
0.483296
0.460741
0.437704
0.413826
0.390185
0.366352
0.342602
0.318725
0.295198
0.27174
0.248379
0.225415
0.202683
0.179757
0.159165
0.135519
0.117268
0.0939567
0.0767201
0.0516299
1
1
1
1
1
1.00001
1.00001
1.00001
1.00002
1.00003
1.00004
1.00006
1.00009
1.00012
1.00016
1.00022
1.00029
1.00038
1.00049
1.00061
1.00077
1.00094
1.00115
1.00138
1.00164
1.00192
1.00223
1.00257
1.00292
1.0033
1.0037
1.00412
1.00455
1.00499
1.00544
1.00589
1.00632
1.00676
1.00721
1.00765
1.0081
1.00857
1.00906
1.00955
1.01001
1.01046
1.0109
1.0113
1.01169
1.01206
1.01242
1.01282
1.01325
1.01373
1.01422
1.01484
1.01555
1.01644
1.01741
1.01898
1.02182
1.02675
1.03939
1.09532
1.11592
1.11541
1.12964
1.14226
1.18726
1.2389
1.29296
1.2832
1.27009
1.25015
1.20111
1.1535
1.08899
0.994456
0.912219
0.835361
0.773317
0.723738
0.6872
0.660821
0.641361
0.628014
0.617222
0.610523
0.605069
0.600532
0.595335
0.589728
0.581487
0.57105
0.556726
0.540891
0.523535
0.504677
0.485103
0.464846
0.443726
0.421929
0.399228
0.376802
0.353963
0.331161
0.308258
0.285785
0.263391
0.241197
0.219513
0.19823
0.176715
0.157842
0.135931
0.119572
0.0983844
0.0825196
0.0595364
1
1
1
1
1
1.00001
1.00001
1.00001
1.00002
1.00003
1.00004
1.00006
1.00008
1.00012
1.00016
1.00022
1.00029
1.00037
1.00048
1.0006
1.00075
1.00093
1.00113
1.00136
1.00161
1.00189
1.0022
1.00253
1.00288
1.00326
1.00365
1.00406
1.00449
1.00493
1.00538
1.00583
1.00627
1.00671
1.00714
1.00757
1.00802
1.0085
1.00899
1.00947
1.00992
1.01036
1.01081
1.01128
1.01174
1.01215
1.01254
1.01292
1.01329
1.01367
1.01409
1.0146
1.01513
1.0156
1.01605
1.0161
1.01715
1.01563
1.04856
1.11212
1.11272
1.11447
1.12036
1.1271
1.14223
1.1652
1.1983
1.1953
1.14848
1.10941
1.04282
0.959174
0.894038
0.825799
0.770212
0.724283
0.689507
0.662688
0.640859
0.625287
0.612081
0.601793
0.594011
0.587821
0.581773
0.57642
0.570301
0.563652
0.554884
0.544652
0.531479
0.517484
0.50171
0.484872
0.467064
0.4483
0.428336
0.407639
0.386247
0.365309
0.343632
0.321952
0.30017
0.278807
0.257414
0.23629
0.215737
0.195711
0.175404
0.15782
0.137359
0.122435
0.103095
0.088379
0.0676652
1
1
1
1
1
1
1.00001
1.00001
1.00002
1.00003
1.00004
1.00006
1.00008
1.00011
1.00016
1.00021
1.00028
1.00037
1.00047
1.00059
1.00074
1.00091
1.00111
1.00133
1.00158
1.00185
1.00216
1.00248
1.00283
1.0032
1.00359
1.004
1.00442
1.00486
1.00531
1.00576
1.0062
1.00663
1.00706
1.00749
1.00794
1.0084
1.00887
1.00933
1.00979
1.01023
1.01069
1.01118
1.01165
1.01208
1.0125
1.01289
1.01324
1.01363
1.01403
1.01441
1.01476
1.01505
1.01527
1.01511
1.01553
1.01732
1.04915
1.09404
1.09182
1.09636
1.09509
1.09632
1.08789
1.08212
1.08277
1.0544
0.985954
0.922439
0.866015
0.813523
0.76809
0.727892
0.695243
0.668355
0.64636
0.630852
0.616659
0.606416
0.595976
0.587202
0.57979
0.572441
0.565519
0.558586
0.55116
0.543359
0.533702
0.523057
0.510383
0.4973
0.482464
0.466964
0.45015
0.43234
0.413153
0.39325
0.372902
0.352994
0.33216
0.311515
0.29082
0.270599
0.250356
0.230472
0.21128
0.192755
0.173926
0.158005
0.139237
0.125837
0.108359
0.0948589
0.0760566
1
1
1
1
1
1
1.00001
1.00001
1.00002
1.00003
1.00004
1.00006
1.00008
1.00011
1.00015
1.00021
1.00027
1.00036
1.00046
1.00058
1.00072
1.00089
1.00108
1.0013
1.00155
1.00182
1.00211
1.00243
1.00278
1.00314
1.00352
1.00392
1.00434
1.00477
1.00522
1.00567
1.00612
1.00655
1.00698
1.00741
1.00784
1.00828
1.00872
1.00917
1.00964
1.01009
1.01055
1.01101
1.01148
1.01194
1.0124
1.01281
1.01321
1.01363
1.01408
1.01455
1.01503
1.01542
1.01617
1.01757
1.02118
1.03339
1.07306
1.09452
1.08694
1.08632
1.07972
1.07597
1.04815
1.0106
0.951771
0.890561
0.845864
0.797838
0.761548
0.728052
0.701744
0.676415
0.656085
0.640002
0.625346
0.614483
0.604473
0.595934
0.587359
0.579651
0.571568
0.563954
0.55548
0.547356
0.537976
0.528919
0.518155
0.507149
0.4943
0.481444
0.466925
0.45216
0.435862
0.418819
0.400476
0.381746
0.362794
0.344025
0.324088
0.304498
0.284741
0.265367
0.245958
0.226997
0.208807
0.191517
0.173962
0.159329
0.142022
0.129789
0.113908
0.101367
0.0844727
1
1
1
1
1
1
1.00001
1.00001
1.00002
1.00003
1.00004
1.00006
1.00008
1.00011
1.00015
1.0002
1.00027
1.00035
1.00045
1.00057
1.0007
1.00087
1.00105
1.00127
1.00151
1.00177
1.00206
1.00237
1.00271
1.00306
1.00344
1.00383
1.00424
1.00467
1.00511
1.00556
1.00601
1.00645
1.00688
1.00731
1.00772
1.00815
1.00857
1.00901
1.00946
1.00991
1.01035
1.0108
1.01128
1.01176
1.01224
1.01271
1.01316
1.01363
1.01415
1.01479
1.01538
1.01568
1.01554
1.01537
1.01348
1.03875
1.08726
1.09295
1.08629
1.0857
1.07178
1.04729
0.996709
0.926062
0.84373
0.796523
0.76013
0.7313
0.706199
0.685724
0.669238
0.655772
0.642249
0.630988
0.621032
0.611107
0.602262
0.593572
0.585153
0.577521
0.568754
0.560525
0.550614
0.541407
0.530181
0.519555
0.507256
0.49523
0.481971
0.468736
0.45417
0.439569
0.423325
0.406609
0.388602
0.370498
0.352248
0.334151
0.315179
0.296744
0.278071
0.259808
0.241563
0.223774
0.206759
0.190752
0.174509
0.161182
0.145295
0.134236
0.119933
0.108475
0.0932906
1
1
1
1
1
1
1.00001
1.00001
1.00002
1.00003
1.00004
1.00005
1.00008
1.00011
1.00015
1.0002
1.00026
1.00034
1.00043
1.00055
1.00068
1.00084
1.00102
1.00123
1.00146
1.00172
1.002
1.0023
1.00263
1.00298
1.00335
1.00373
1.00413
1.00454
1.00498
1.00543
1.00588
1.00632
1.00676
1.00718
1.0076
1.00802
1.00843
1.00886
1.00928
1.00971
1.01015
1.0106
1.01107
1.01156
1.01204
1.01254
1.01299
1.01345
1.0139
1.01433
1.01467
1.01487
1.01446
1.01408
1.0145
1.04351
1.09068
1.08609
1.08813
1.07845
1.06312
1.01047
0.929051
0.837467
0.778007
0.74179
0.714927
0.695747
0.680174
0.666571
0.65496
0.644626
0.635391
0.625065
0.616972
0.607515
0.599424
0.591177
0.5833
0.575309
0.566434
0.557545
0.547506
0.537141
0.525059
0.513264
0.499986
0.486896
0.473006
0.459333
0.444725
0.430158
0.414113
0.397922
0.380517
0.363428
0.345897
0.328222
0.309819
0.292063
0.273925
0.256295
0.23879
0.221877
0.205827
0.190983
0.176049
0.164002
0.149504
0.139466
0.126535
0.115909
0.102206
1
1
1
1
1
1
1.00001
1.00001
1.00002
1.00002
1.00004
1.00005
1.00007
1.0001
1.00014
1.00019
1.00025
1.00033
1.00042
1.00053
1.00066
1.00081
1.00099
1.00119
1.00141
1.00166
1.00193
1.00223
1.00254
1.00288
1.00324
1.00362
1.004
1.00441
1.00483
1.00527
1.00571
1.00616
1.0066
1.00703
1.00745
1.00787
1.00828
1.0087
1.00911
1.00953
1.00997
1.01042
1.01088
1.01135
1.01184
1.01232
1.01279
1.01327
1.01378
1.01432
1.01475
1.0155
1.01715
1.02137
1.03227
1.06707
1.08767
1.07331
1.0711
1.04896
1.01428
0.941628
0.851412
0.783738
0.744577
0.717377
0.698723
0.683697
0.671785
0.661881
0.653554
0.645236
0.63838
0.630089
0.622861
0.613698
0.605043
0.596223
0.587828
0.579072
0.570239
0.560492
0.550282
0.53882
0.526151
0.512704
0.498182
0.483329
0.468072
0.453143
0.437621
0.422254
0.405784
0.389528
0.372556
0.356407
0.339619
0.322828
0.305472
0.288736
0.27143
0.254671
0.237991
0.221874
0.206597
0.192669
0.178746
0.167714
0.154361
0.145159
0.133443
0.123671
0.111438
1
1
1
1
1
1
1.00001
1.00001
1.00002
1.00002
1.00004
1.00005
1.00007
1.0001
1.00014
1.00018
1.00024
1.00031
1.0004
1.00051
1.00064
1.00078
1.00095
1.00114
1.00136
1.00159
1.00185
1.00213
1.00244
1.00277
1.00311
1.00348
1.00386
1.00425
1.00466
1.00508
1.00552
1.00596
1.00641
1.00684
1.00727
1.00769
1.0081
1.00852
1.00895
1.00938
1.00982
1.01027
1.01072
1.0112
1.01168
1.01219
1.01271
1.0133
1.01403
1.01482
1.01532
1.01539
1.01505
1.01308
1.03258
1.07739
1.08124
1.07513
1.0637
1.03142
0.967073
0.875408
0.801119
0.753519
0.724261
0.704018
0.691201
0.680447
0.671599
0.662929
0.655708
0.648076
0.641867
0.634686
0.628087
0.619834
0.610915
0.601447
0.592506
0.582674
0.573559
0.563392
0.552996
0.540953
0.527686
0.513069
0.497632
0.482032
0.466184
0.450657
0.434578
0.418733
0.402054
0.385751
0.368906
0.352919
0.335948
0.319277
0.302282
0.286014
0.269226
0.253194
0.237337
0.222143
0.207773
0.19486
0.182051
0.172097
0.159966
0.151645
0.141099
0.13209
0.12106
1
1
1
1
1
1
1.00001
1.00001
1.00002
1.00002
1.00003
1.00005
1.00007
1.0001
1.00013
1.00018
1.00023
1.0003
1.00039
1.00049
1.00061
1.00075
1.00091
1.00109
1.00129
1.00152
1.00177
1.00203
1.00233
1.00264
1.00298
1.00332
1.00369
1.00407
1.00446
1.00487
1.00529
1.00573
1.00617
1.00661
1.00704
1.00746
1.00789
1.00832
1.00875
1.00919
1.00964
1.01011
1.0106
1.01111
1.0116
1.01209
1.01258
1.013
1.0134
1.01381
1.01408
1.01377
1.01372
1.01499
1.03742
1.07856
1.07036
1.06981
1.03763
0.982075
0.899799
0.820706
0.770741
0.73852
0.714665
0.698488
0.686868
0.67835
0.671333
0.664414
0.658023
0.651598
0.645953
0.639985
0.634187
0.627212
0.618687
0.609485
0.599628
0.589561
0.579458
0.568838
0.557552
0.545205
0.531233
0.51596
0.499694
0.483458
0.466805
0.450602
0.43383
0.417447
0.4006
0.384484
0.367964
0.352238
0.335478
0.319276
0.30262
0.286699
0.270271
0.254736
0.239411
0.224833
0.211041
0.198808
0.186795
0.177621
0.166473
0.158765
0.149169
0.140804
0.130943
1
1
1
1
1
1
1.00001
1.00001
1.00001
1.00002
1.00003
1.00005
1.00007
1.00009
1.00012
1.00017
1.00022
1.00029
1.00037
1.00046
1.00058
1.00071
1.00086
1.00103
1.00122
1.00144
1.00167
1.00193
1.0022
1.0025
1.00282
1.00315
1.0035
1.00386
1.00424
1.00463
1.00504
1.00546
1.00589
1.00632
1.00675
1.00719
1.00763
1.00807
1.0085
1.00893
1.00938
1.00987
1.01038
1.01092
1.01147
1.01205
1.01265
1.0133
1.01407
1.01476
1.01605
1.01947
1.0253
1.03688
1.07283
1.08017
1.05632
1.04107
0.993559
0.911056
0.828702
0.778866
0.746568
0.725398
0.70964
0.697841
0.688573
0.681482
0.675753
0.670395
0.665029
0.659169
0.65306
0.647132
0.640695
0.634612
0.626915
0.618335
0.608752
0.5983
0.587182
0.575538
0.563039
0.549594
0.535063
0.519294
0.502537
0.485528
0.467973
0.450992
0.43365
0.416875
0.39992
0.383808
0.367361
0.35176
0.335074
0.319179
0.302874
0.287326
0.271317
0.256336
0.241599
0.227726
0.214651
0.203213
0.192066
0.183667
0.1735
0.166433
0.157744
0.150015
0.14119
1
1
1
1
1
1
1.00001
1.00001
1.00001
1.00002
1.00003
1.00004
1.00006
1.00009
1.00012
1.00016
1.00021
1.00027
1.00035
1.00044
1.00054
1.00066
1.00081
1.00097
1.00115
1.00135
1.00156
1.00181
1.00206
1.00234
1.00263
1.00295
1.00328
1.00363
1.00399
1.00436
1.00475
1.00515
1.00556
1.00598
1.00641
1.00685
1.00729
1.00773
1.00818
1.00862
1.00907
1.00957
1.01008
1.01065
1.01127
1.01206
1.01302
1.01442
1.01562
1.01616
1.01588
1.01406
1.00921
1.03107
1.0865
1.05906
1.04696
1.00546
0.929925
0.854042
0.792993
0.757183
0.730681
0.714951
0.703282
0.694771
0.68756
0.681314
0.676419
0.672094
0.667636
0.663013
0.657835
0.652794
0.646903
0.641386
0.63475
0.626961
0.618464
0.60873
0.597762
0.585446
0.572477
0.558358
0.543589
0.527323
0.510419
0.492937
0.474812
0.456983
0.43897
0.421402
0.404009
0.3874
0.370669
0.354601
0.337799
0.322064
0.305872
0.290585
0.274975
0.260497
0.246257
0.232922
0.220371
0.209444
0.1988
0.1908
0.181386
0.174827
0.166857
0.159659
0.151824
1
1
1
1
1
1
1.00001
1.00001
1.00001
1.00002
1.00003
1.00004
1.00006
1.00008
1.00011
1.00015
1.0002
1.00025
1.00032
1.00041
1.00051
1.00062
1.00075
1.0009
1.00107
1.00125
1.00145
1.00167
1.00191
1.00217
1.00243
1.00273
1.00303
1.00336
1.00369
1.00404
1.00441
1.00478
1.00517
1.00557
1.006
1.00642
1.00685
1.00729
1.00775
1.00825
1.00877
1.00928
1.00977
1.0103
1.01088
1.01156
1.01224
1.01296
1.01356
1.01395
1.01397
1.0161
1.01785
1.04683
1.06746
1.03447
1.00742
0.935412
0.859015
0.799774
0.765015
0.740509
0.723639
0.711621
0.703127
0.697133
0.691989
0.68707
0.682226
0.677872
0.673561
0.669387
0.664797
0.66046
0.654868
0.649625
0.643444
0.63602
0.627784
0.618257
0.607508
0.595241
0.581891
0.566895
0.551487
0.534375
0.517039
0.498764
0.48052
0.462114
0.444182
0.426345
0.408984
0.392123
0.375248
0.358956
0.342213
0.326582
0.310428
0.295263
0.279772
0.265512
0.251488
0.238446
0.226213
0.215654
0.205489
0.197943
0.189333
0.183448
0.176189
0.169601
0.162686
1
1
1
1
1
1
1.00001
1.00001
1.00001
1.00002
1.00003
1.00004
1.00005
1.00008
1.0001
1.00014
1.00018
1.00023
1.0003
1.00038
1.00047
1.00057
1.00069
1.00082
1.00098
1.00114
1.00133
1.00152
1.00174
1.00197
1.00221
1.00248
1.00275
1.00305
1.00335
1.00368
1.00401
1.00436
1.00472
1.0051
1.0055
1.00589
1.00629
1.00668
1.00712
1.0076
1.00815
1.00869
1.00924
1.00978
1.01037
1.01112
1.01209
1.01357
1.01592
1.01965
1.02519
1.03061
1.04188
1.07587
1.05397
1.02105
0.968273
0.876507
0.820531
0.775649
0.753852
0.735378
0.724651
0.714931
0.707677
0.700859
0.695252
0.690363
0.685891
0.681699
0.677638
0.673765
0.669639
0.665769
0.660631
0.65569
0.650217
0.64321
0.635366
0.626486
0.616154
0.604612
0.591629
0.576888
0.561107
0.543604
0.525885
0.506834
0.488612
0.469494
0.451809
0.433279
0.415999
0.398516
0.381475
0.364701
0.347901
0.332075
0.315815
0.300695
0.28534
0.271338
0.257586
0.244984
0.233202
0.22313
0.21351
0.206343
0.198328
0.192937
0.186147
0.180017
0.173912
1
1
1
1
1
1
1
1.00001
1.00001
1.00002
1.00003
1.00004
1.00005
1.00007
1.0001
1.00013
1.00017
1.00022
1.00027
1.00034
1.00042
1.00052
1.00062
1.00075
1.00088
1.00103
1.00119
1.00136
1.00156
1.00176
1.00198
1.0022
1.00245
1.0027
1.00298
1.00326
1.00355
1.00386
1.00418
1.00455
1.00491
1.00525
1.00558
1.00593
1.00632
1.00679
1.00739
1.0081
1.00886
1.00941
1.00995
1.01032
1.0106
1.01088
1.01084
1.00921
1.0096
1.00399
1.0305
1.04738
1.00262
0.962634
0.885888
0.830698
0.787763
0.763547
0.74483
0.733284
0.723787
0.716653
0.710646
0.705567
0.700714
0.696437
0.692278
0.688383
0.684504
0.680706
0.67664
0.673006
0.668224
0.66335
0.658682
0.652321
0.64501
0.636656
0.626887
0.615857
0.603075
0.588693
0.572878
0.555255
0.53699
0.517383
0.498674
0.478779
0.461127
0.441734
0.424698
0.406218
0.38926
0.371794
0.354922
0.338736
0.322414
0.307347
0.292099
0.278289
0.264711
0.252343
0.240794
0.230905
0.221595
0.214631
0.207189
0.202364
0.196095
0.190559
0.185292
1
1
1
1
1
1
1
1.00001
1.00001
1.00002
1.00002
1.00003
1.00005
1.00006
1.00009
1.00012
1.00015
1.00019
1.00025
1.00031
1.00038
1.00046
1.00056
1.00066
1.00078
1.00091
1.00104
1.0012
1.00136
1.00153
1.00171
1.0019
1.00211
1.00232
1.00255
1.00278
1.00303
1.00327
1.00356
1.00387
1.00418
1.00445
1.00473
1.00503
1.00537
1.00579
1.00631
1.00687
1.00745
1.0079
1.00843
1.00896
1.00989
1.01169
1.01466
1.01923
1.02464
1.03661
1.05886
1.02817
0.962539
0.921167
0.839898
0.8092
0.778109
0.763091
0.749006
0.740058
0.731423
0.724749
0.718426
0.71309
0.708136
0.703857
0.699868
0.696216
0.692351
0.688517
0.684273
0.680323
0.675882
0.670776
0.666241
0.660463
0.653589
0.645489
0.636286
0.625608
0.613308
0.599413
0.583955
0.566686
0.548243
0.528296
0.509242
0.488995
0.471135
0.451414
0.434469
0.415176
0.398412
0.379884
0.363041
0.346314
0.329884
0.314683
0.299418
0.285689
0.272212
0.260102
0.248868
0.239325
0.230586
0.224037
0.217115
0.212586
0.206683
0.201666
0.197041
1
1
1
1
1
1
1
1.00001
1.00001
1.00001
1.00002
1.00003
1.00004
1.00006
1.00008
1.0001
1.00013
1.00017
1.00022
1.00027
1.00033
1.00041
1.00049
1.00057
1.00067
1.00078
1.00089
1.00101
1.00114
1.00128
1.00143
1.00158
1.00174
1.00191
1.00208
1.00226
1.00244
1.00263
1.00285
1.00308
1.00331
1.00352
1.00374
1.004
1.0043
1.00466
1.00504
1.0054
1.00568
1.00603
1.00636
1.00676
1.00711
1.00724
1.00665
1.00595
0.999462
1.0209
1.02263
0.968697
0.921771
0.860287
0.819413
0.790765
0.771526
0.756794
0.74589
0.738048
0.731456
0.726245
0.721476
0.717438
0.71354
0.710155
0.706845
0.7037
0.700194
0.696526
0.692398
0.688205
0.684108
0.67912
0.674496
0.669306
0.662792
0.655217
0.646553
0.636319
0.624601
0.611149
0.595908
0.578823
0.560213
0.540267
0.520329
0.500213
0.481406
0.462002
0.4443
0.42483
0.407822
0.388715
0.372326
0.35468
0.338355
0.322917
0.307675
0.294047
0.280718
0.268872
0.257841
0.248449
0.239942
0.233594
0.226989
0.222699
0.217284
0.212813
0.208857
1
1
1
1
1
1
1
1.00001
1.00001
1.00001
1.00002
1.00003
1.00004
1.00005
1.00007
1.00009
1.00012
1.00015
1.00019
1.00023
1.00029
1.00034
1.00041
1.00048
1.00056
1.00064
1.00073
1.00082
1.00092
1.00102
1.00113
1.00123
1.00134
1.00146
1.00157
1.00169
1.0018
1.00192
1.00205
1.00218
1.00232
1.00246
1.00262
1.00281
1.00301
1.00319
1.00336
1.00351
1.00362
1.00386
1.00427
1.00506
1.00628
1.00809
1.01073
1.01172
1.02106
1.02555
0.992687
0.914449
0.886867
0.821074
0.80553
0.780744
0.77091
0.759281
0.751766
0.744973
0.73986
0.735323
0.731075
0.727229
0.723583
0.720129
0.716827
0.713596
0.710256
0.706553
0.702523
0.697915
0.69362
0.688689
0.683605
0.678489
0.672289
0.66506
0.656758
0.647003
0.635878
0.622911
0.608175
0.591571
0.573289
0.553423
0.532742
0.51278
0.492952
0.474001
0.455035
0.435793
0.418028
0.398843
0.38249
0.364256
0.348351
0.332171
0.316905
0.303117
0.289737
0.27799
0.267106
0.257912
0.24983
0.243813
0.237588
0.233507
0.228573
0.224479
0.221059
1
1
1
1
1
1
1
1
1.00001
1.00001
1.00002
1.00002
1.00003
1.00004
1.00006
1.00008
1.0001
1.00013
1.00016
1.0002
1.00024
1.00028
1.00033
1.00039
1.00044
1.0005
1.00056
1.00062
1.00069
1.00075
1.00082
1.00087
1.00093
1.00098
1.00104
1.00108
1.00113
1.00117
1.00121
1.00124
1.00128
1.00133
1.00139
1.00146
1.00151
1.00155
1.00156
1.00156
1.0016
1.00164
1.00164
1.00147
1.00082
0.999079
0.998884
0.996508
1.00836
0.995989
0.934904
0.900495
0.851636
0.824043
0.802956
0.786595
0.774448
0.764484
0.756681
0.750102
0.744995
0.740606
0.736863
0.733412
0.730291
0.727187
0.724152
0.720858
0.717563
0.713802
0.709948
0.705384
0.70091
0.696282
0.691261
0.686302
0.680597
0.673767
0.665902
0.657006
0.646726
0.634586
0.620514
0.604404
0.586506
0.566768
0.545796
0.525592
0.504817
0.485877
0.466148
0.447266
0.428488
0.409594
0.392833
0.374462
0.358787
0.341905
0.326969
0.312839
0.299557
0.288043
0.277337
0.268372
0.260533
0.254646
0.248424
0.244343
0.239756
0.236118
0.233323
1
1
1
1
1
1
1
1
1.00001
1.00001
1.00001
1.00002
1.00003
1.00004
1.00005
1.00006
1.00008
1.0001
1.00013
1.00016
1.00019
1.00022
1.00025
1.00029
1.00033
1.00036
1.00039
1.00043
1.00045
1.00048
1.0005
1.00051
1.00051
1.00051
1.00049
1.00047
1.00044
1.0004
1.00036
1.0003
1.00024
1.00018
1.00013
1.00009
1.00003
0.999956
0.99988
0.999835
0.999914
1.00003
0.999961
0.999666
0.998794
0.99838
0.995018
1.01135
1.00621
0.964903
0.897804
0.871609
0.825639
0.812366
0.791005
0.782641
0.771898
0.766143
0.759921
0.755779
0.751725
0.748536
0.745536
0.742596
0.739782
0.736917
0.734064
0.730786
0.727499
0.723764
0.719835
0.715393
0.710698
0.706147
0.701247
0.6962
0.690702
0.684161
0.676465
0.667987
0.658155
0.646675
0.633336
0.617958
0.600578
0.581366
0.560142
0.53925
0.517775
0.498401
0.47829
0.459554
0.440095
0.421607
0.403898
0.385709
0.369956
0.35287
0.338442
0.323539
0.310303
0.298549
0.287771
0.278776
0.271117
0.265445
0.259632
0.25593
0.251539
0.248403
0.24604
1
1
1
1
1
1
1
1
1
1.00001
1.00001
1.00002
1.00002
1.00003
1.00004
1.00005
1.00006
1.00008
1.0001
1.00012
1.00014
1.00016
1.00018
1.00019
1.00021
1.00022
1.00023
1.00023
1.00022
1.0002
1.00018
1.00015
1.0001
1.00004
0.999971
0.99988
0.999777
0.999662
0.999535
0.999395
0.999222
0.999052
0.998888
0.998742
0.99856
0.998368
0.998108
0.997856
0.997666
0.997442
0.997224
0.996925
0.996534
0.997764
0.998027
1.00414
0.973827
0.902423
0.88886
0.842816
0.826736
0.806721
0.796882
0.787392
0.780651
0.774271
0.768846
0.763931
0.759902
0.756241
0.753163
0.749984
0.747161
0.74429
0.741614
0.738759
0.73584
0.732454
0.72865
0.724364
0.719505
0.714817
0.710146
0.705123
0.699913
0.693775
0.686471
0.678503
0.669104
0.658288
0.645656
0.63101
0.61421
0.595541
0.574427
0.553238
0.531134
0.511174
0.490638
0.47196
0.452298
0.434042
0.415603
0.397583
0.381271
0.364155
0.349672
0.334368
0.321386
0.309395
0.298877
0.290224
0.282745
0.277222
0.271557
0.267838
0.263434
0.260565
0.258634
1
1
1
1
1
1
1
1
1
1.00001
1.00001
1.00001
1.00002
1.00002
1.00003
1.00004
1.00005
1.00006
1.00007
1.00008
1.00009
1.00009
1.0001
1.0001
1.00009
1.00008
1.00006
1.00004
0.999997
0.999947
0.99988
0.999804
0.999707
0.999601
0.999469
0.999328
0.999162
0.998992
0.998803
0.998598
0.998357
0.998092
0.997817
0.997516
0.997188
0.996783
0.996323
0.995834
0.995414
0.994973
0.99471
0.994223
0.994149
0.992175
1.00184
0.981478
0.935
0.90006
0.863858
0.835452
0.818437
0.804804
0.795925
0.78861
0.783122
0.777827