/*--------------------------------*- C++ -*----------------------------------*\
| =========                 |                                                 |
| \\      /  F ield         | OpenFOAM: The Open Source CFD Toolbox           |
|  \\    /   O peration     | Version:  2.2.x                                 |
|   \\  /    A nd           | Web:      www.OpenFOAM.org                      |
|    \\/     M anipulation  |                                                 |
\*---------------------------------------------------------------------------*/
FoamFile
{
    version     2.0;
    format      ascii;
    class       surfaceScalarField;
    location    "0.45";
    object      cfmax;
}
// * * * * * * * * * * * * * * * * * * * * * * * * * * * * * * * * * * * * * //

dimensions      [0 3 -1 0 0 0 0];

internalField   nonuniform List<scalar> 
28084
(
0.000746224
0.000742989
0.000740213
0.000737879
0.000735964
0.000734447
0.000733304
0.000732511
0.000732043
0.000731874
0.000731977
0.000732326
0.000732895
0.000733658
0.000734589
0.000735663
0.000736859
0.000738152
0.000739521
0.000740946
0.000742409
0.000743889
0.000745373
0.000746841
0.000748283
0.000749681
0.000751024
0.000752301
0.000753496
0.000754609
0.000755619
0.000756526
0.000757325
0.000757983
0.000758522
0.000758956
0.000759228
0.000759327
0.000759311
0.000759148
0.000758796
0.000758277
0.000757597
0.000756831
0.000755845
0.000765349
0.000775169
0.000785314
0.000795844
0.000806554
0.000817392
0.00082835
0.000839349
0.000850302
0.000861115
0.000871527
0.000881963
0.000892216
0.000902403
0.000912239
0.00092055
0.000926265
0.000932747
0.000769101
0.000500609
0.000476917
0.000489578
0.000507645
0.000523124
0.000540463
0.000555957
0.000570241
0.000581481
0.000590509
0.000598493
0.000603853
0.000611466
0.000621442
0.000627835
0.000629881
0.000630563
0.000629854
0.000629993
0.000625039
0.00063327
0.00063292
0.000630232
0.000626416
0.000558765
0.000520494
0.000487983
0.000465852
0.000449792
0.00043667
0.000425531
0.00041606
0.000407902
0.000401047
0.000395193
0.000390276
0.000386153
0.000382815
0.000380082
0.000378059
0.000376789
0.000376185
0.000376393
0.000377494
0.000379495
0.000382381
0.000386016
0.000390311
0.000395308
0.000401105
0.00040787
0.000416342
0.000425038
0.000434022
0.00144509
0.00144284
0.000749741
0.00143752
0.000748785
0.0014292
0.00074826
0.00141793
0.000748148
0.00140381
0.000748431
0.00138696
0.000749087
0.00136751
0.000750093
0.00134561
0.000751423
0.00132144
0.000753052
0.00129527
0.000754952
0.00126735
0.000757096
0.00123771
0.000759454
0.00120654
0.000761999
0.00117406
0.000764702
0.00114046
0.000767535
0.00110597
0.000770472
0.00107076
0.000773487
0.00103504
0.000776554
0.000998981
0.000779652
0.000962762
0.000782756
0.000926541
0.000785848
0.000890469
0.000788905
0.00085468
0.000791913
0.000819299
0.000794853
0.000784437
0.000797709
0.000750191
0.000800469
0.000716651
0.000803115
0.000683883
0.000805641
0.000651958
0.00080803
0.000620922
0.000810279
0.000590818
0.00081237
0.00056168
0.000814303
0.000533527
0.000816075
0.00050639
0.000817649
0.000480265
0.000819056
0.000455152
0.000820301
0.000431191
0.00082134
0.000408243
0.000822141
0.000386287
0.000822795
0.000365313
0.000823239
0.000345295
0.000823456
0.000326221
0.000823443
0.000308064
0.000823259
0.000290793
0.000822911
0.000294974
0.0008223
0.000295253
0.000831311
0.000295567
0.000840676
0.0002959
0.000850324
0.000296245
0.0008602
0.000296626
0.000870288
0.000297037
0.000880538
0.000297457
0.000890892
0.000297877
0.000901287
0.000298309
0.000911627
0.000298721
0.000921841
0.000299071
0.00093183
0.000299441
0.000941515
0.000299899
0.000950856
0.000300238
0.000959845
0.000300365
0.000968479
0.000300409
0.000976178
0.000297699
0.000981907
0.000293168
0.000987857
0.000306217
0.000834837
0.000306785
0.000535213
0.000320895
0.000507267
0.000328114
0.000522379
0.0003359
0.000541924
0.000341328
0.0005569
0.000344508
0.000572582
0.000347683
0.000585581
0.000349811
0.000598582
0.000351384
0.000607984
0.000353288
0.000615259
0.000355062
0.000623183
0.000357093
0.000628234
0.000359214
0.000637267
0.000361269
0.000646992
0.000364299
0.000653128
0.000366767
0.000655157
0.00036925
0.000655418
0.000372277
0.000654749
0.00037527
0.00065361
0.000378629
0.000647487
0.000382319
0.000652493
0.000386463
0.000650266
0.000389867
0.000647683
0.000395646
0.000637855
0.0003917
0.000581976
0.000377781
0.00054222
0.000366504
0.000509226
0.000358631
0.000484622
0.000353892
0.000465894
0.000350685
0.000450854
0.000348718
0.000438172
0.000347724
0.000427419
0.000347426
0.000418326
0.000347718
0.000410767
0.000348451
0.000404285
0.000349571
0.000398755
0.000350947
0.000394041
0.000352523
0.000390167
0.000354142
0.000386927
0.000355947
0.000384439
0.000357842
0.000382726
0.000359846
0.000381689
0.000362008
0.000381482
0.000364471
0.000382161
0.000367275
0.000383725
0.000370431
0.000386158
0.000373822
0.000389321
0.000377547
0.000393125
0.000381597
0.000397587
0.000386396
0.000402886
0.000391717
0.000409258
0.00039734
0.000417338
0.000402109
0.000425434
0.000408502
0.00043371
0.00144566
0.00144319
0.000754435
0.00143766
0.00075573
0.00142913
0.000757427
0.00141766
0.000759512
0.00140336
0.000761966
0.00138633
0.000764768
0.00136725
0.000767897
0.00134583
0.000771326
0.00132209
0.000775029
0.00129622
0.000778975
0.00126841
0.000783137
0.00123886
0.000787482
0.00120777
0.000791981
0.00117535
0.000796603
0.00114181
0.000801318
0.00110735
0.000806097
0.00107217
0.000810912
0.00103646
0.000815735
0.0010004
0.000820542
0.000964172
0.000825308
0.000927929
0.000830011
0.000891826
0.000834629
0.000855997
0.000839145
0.000820568
0.000843539
0.000785652
0.000847796
0.000751345
0.000851901
0.000717737
0.000855839
0.000684899
0.0008596
0.000652897
0.00086317
0.000621781
0.000866541
0.000591594
0.000869703
0.000562372
0.000872654
0.000534133
0.000875384
0.000506904
0.000877862
0.000480688
0.000880137
0.000455479
0.000882181
0.000431286
0.000883951
0.0004081
0.000885473
0.000386175
0.000886791
0.000365301
0.000887828
0.000345385
0.000888599
0.000326414
0.000889114
0.000308355
0.000889427
0.000291188
0.000889473
0.000299543
0.000889228
0.000299997
0.000897758
0.000300454
0.000906678
0.000300904
0.000915783
0.000301349
0.00092504
0.000301822
0.000934494
0.000302283
0.000944231
0.000302735
0.000953987
0.000303172
0.000963701
0.000303599
0.000973359
0.00030402
0.000982954
0.000304353
0.000992476
0.000304656
0.00100168
0.000304918
0.00101038
0.000305105
0.00101868
0.000305126
0.00102632
0.000305046
0.00103334
0.000301844
0.00103973
0.000299325
0.00104616
0.000313943
0.000952325
0.000311262
0.00058093
0.000333528
0.000543634
0.000343354
0.000565144
0.000350342
0.000586425
0.000354591
0.000600873
0.000353477
0.000610575
0.00035361
0.000621754
0.000352497
0.00063249
0.000352284
0.000638849
0.000353227
0.000645129
0.000354178
0.000651754
0.000355879
0.000658148
0.000357751
0.000666789
0.000360495
0.000675916
0.00036376
0.000684049
0.000366599
0.000685915
0.000369194
0.000686286
0.000372352
0.000682276
0.000375345
0.000679325
0.000378411
0.000669968
0.000382229
0.000671377
0.000387356
0.000661195
0.0003918
0.000655645
0.000403261
0.000630181
0.000403904
0.000589877
0.000393946
0.000555337
0.000380183
0.000524636
0.00037022
0.000499638
0.000363254
0.000479862
0.000358826
0.000464108
0.000355934
0.000451008
0.000354104
0.000439852
0.00035314
0.000430181
0.000352998
0.000421858
0.000353338
0.000414554
0.000354098
0.000408201
0.000355121
0.00040271
0.00035645
0.000398108
0.000357813
0.000394219
0.000359437
0.00039116
0.000361187
0.000388893
0.000363108
0.000387319
0.000365212
0.000386603
0.000367749
0.000386777
0.000370692
0.000387814
0.000374119
0.000389692
0.000377839
0.000392288
0.000382121
0.000395545
0.000386609
0.000399528
0.0003921
0.000404412
0.000397901
0.000410443
0.000404215
0.00041828
0.000409302
0.00042606
0.000416584
0.000434101
0.00144511
0.00144243
0.000760309
0.0014367
0.000763821
0.00142798
0.000767709
0.00141715
0.000771958
0.00140379
0.000776553
0.00138765
0.000781474
0.00136886
0.000786698
0.00134758
0.000792198
0.00132397
0.000797946
0.0012982
0.000803913
0.00127049
0.000810066
0.00124101
0.000816373
0.00120998
0.000822802
0.00117761
0.000829319
0.0011441
0.000835892
0.00110965
0.00084249
0.00107447
0.000849082
0.00103875
0.00085564
0.00100267
0.000862134
0.000966398
0.000868541
0.000930107
0.000874836
0.000893946
0.000880996
0.000858048
0.000887
0.000822545
0.000892831
0.000787544
0.000898471
0.000753148
0.000903904
0.000719443
0.000909117
0.000686506
0.000914097
0.000654398
0.000918833
0.000623174
0.000923313
0.000592877
0.000927534
0.00056354
0.000931491
0.000535189
0.000935147
0.000507843
0.000938543
0.000481506
0.000941672
0.000456176
0.000944497
0.000431867
0.000946994
0.000408563
0.00094924
0.000386246
0.000951195
0.000365024
0.000952834
0.000345237
0.000954141
0.000326387
0.000955204
0.00030845
0.00095597
0.000291414
0.000956417
0.000303952
0.000956534
0.000304572
0.000964615
0.000305159
0.000973045
0.000305727
0.00098159
0.000306273
0.000990237
0.000306811
0.00099911
0.000307311
0.00100827
0.000307785
0.0010174
0.000308226
0.00102649
0.000308654
0.00103547
0.000309058
0.00104448
0.000309408
0.00105357
0.000309671
0.00106225
0.000309842
0.00107057
0.000309908
0.00107849
0.000310017
0.00108594
0.000309922
0.00109307
0.000308982
0.00110055
0.00030792
0.00110772
0.000319077
0.00109887
0.000320861
0.000654165
0.000350797
0.000591806
0.000364686
0.000618163
0.000368771
0.000640857
0.000366812
0.000652812
0.000362125
0.000658065
0.000359444
0.000664723
0.000354536
0.000672087
0.000352739
0.000675161
0.000352013
0.00067929
0.000352056
0.000690364
0.000352863
0.000698677
0.00035389
0.000705414
0.000357465
0.0007118
0.000360713
0.000719789
0.000364059
0.000718877
0.000366576
0.000717195
0.000370382
0.000709247
0.0003735
0.00070482
0.000376897
0.000689689
0.000380594
0.000681301
0.00038525
0.00066204
0.000394916
0.000650094
0.000409847
0.000617124
0.000414228
0.000585819
0.000407918
0.000559226
0.000394607
0.000535031
0.000382214
0.0005121
0.00037319
0.000491643
0.000367251
0.000475412
0.000363164
0.000462083
0.000360548
0.000450682
0.000358986
0.000440626
0.000358399
0.000431762
0.000358356
0.000423962
0.000358838
0.000417242
0.000359555
0.000411433
0.000360542
0.000406496
0.000361621
0.000402187
0.000363083
0.000398637
0.000364723
0.000395811
0.000366607
0.000393678
0.000368709
0.000392398
0.000371364
0.000392003
0.00037447
0.000392459
0.000378176
0.000393731
0.000382214
0.000395691
0.00038698
0.000398364
0.000391873
0.000401805
0.000397997
0.000406205
0.00040422
0.000411923
0.000411243
0.000419443
0.000416681
0.000427008
0.00042462
0.000434799
0.00144346
0.0014412
0.000767362
0.00143695
0.000773056
0.00142965
0.000779099
0.00141936
0.000785479
0.00140617
0.000792182
0.00139018
0.000799189
0.00137153
0.000806475
0.00135037
0.000814015
0.00132687
0.000821779
0.0013012
0.000829736
0.00127356
0.000837852
0.00124415
0.000846093
0.00121316
0.000854423
0.00118082
0.000862808
0.00114731
0.000871213
0.00111286
0.000879603
0.00107766
0.000887948
0.0010419
0.000896214
0.00100577
0.000904373
0.000969437
0.000912397
0.000933072
0.000920259
0.000896824
0.000927938
0.000860831
0.00093541
0.000825224
0.000942657
0.00079011
0.00094966
0.000755597
0.000956402
0.000721766
0.000962872
0.0006887
0.000969052
0.000656459
0.000974937
0.000625099
0.000980511
0.000594661
0.000985778
0.000565183
0.000990709
0.000536691
0.000995304
0.000509201
0.000999603
0.000482713
0.00100356
0.000457244
0.00100713
0.000432793
0.00101038
0.000409344
0.00101333
0.000386879
0.00101591
0.000365394
0.00101811
0.000344873
0.00101999
0.000326145
0.00102159
0.000308354
0.0010228
0.000291467
0.00102365
0.000308193
0.00102414
0.00030896
0.00103177
0.000309667
0.00103964
0.000310346
0.00104764
0.000310981
0.00105575
0.000311587
0.00106409
0.00031212
0.00107263
0.0003126
0.00108111
0.000313052
0.00108959
0.000313481
0.00109799
0.000313884
0.00110658
0.00031423
0.00111511
0.000314422
0.00112321
0.000314571
0.00113117
0.000314632
0.00113892
0.000314742
0.00114643
0.000314773
0.00115358
0.000314568
0.00116072
0.000314179
0.00116671
0.000318456
0.00116932
0.00034164
0.000800378
0.000372606
0.000649339
0.000384719
0.000673081
0.000383981
0.000695801
0.000378101
0.000703259
0.000368631
0.000705026
0.00036316
0.000705363
0.000356102
0.000705801
0.000352572
0.000710905
0.000351095
0.000721944
0.000350141
0.000734716
0.000350172
0.000740391
0.000353297
0.000742841
0.00035677
0.000745436
0.000358987
0.000752632
0.000361566
0.000745024
0.000364094
0.000739583
0.000368278
0.000724452
0.000371935
0.000714939
0.000374476
0.000686639
0.000378552
0.000679745
0.000385124
0.00065763
0.000397667
0.000629929
0.000411593
0.000600746
0.000417652
0.000576272
0.000415742
0.000559471
0.000405647
0.000543208
0.000393658
0.000526455
0.000383198
0.000505175
0.000375876
0.000489251
0.00037092
0.000475334
0.000367694
0.000463146
0.00036549
0.000452245
0.000364265
0.000442557
0.000363653
0.000434024
0.000363706
0.000426635
0.000363992
0.00042022
0.000364695
0.000414676
0.000365526
0.000409766
0.000366859
0.00040562
0.000368417
0.000402213
0.000370294
0.000399572
0.00037243
0.000397777
0.000375228
0.000396871
0.000378544
0.000396805
0.000382552
0.00039756
0.000386858
0.000398978
0.000392087
0.000401161
0.000397401
0.000404186
0.000404072
0.000408214
0.00041069
0.000413674
0.000418344
0.000420853
0.000424193
0.000428194
0.000432741
0.000435734
0.00144497
0.00144399
0.0007756
0.00143992
0.000783435
0.00143279
0.000791594
0.00142266
0.000800067
0.00140962
0.000808841
0.00139377
0.000817897
0.00137525
0.000827211
0.0013542
0.000836756
0.0013308
0.000846502
0.00130521
0.000856416
0.00127763
0.000866462
0.00124826
0.000876604
0.0012173
0.000886805
0.00118497
0.000897027
0.00115146
0.000907233
0.00111698
0.000917387
0.00108173
0.000927455
0.00104591
0.000937402
0.0010097
0.000947197
0.000973283
0.000956812
0.000936817
0.000966217
0.000900455
0.000975391
0.00086434
0.000984305
0.0008286
0.000992944
0.000793346
0.00100129
0.000758686
0.00100932
0.000724701
0.00101702
0.000691477
0.00102438
0.000659074
0.0010314
0.000627549
0.00103805
0.000596943
0.00104434
0.000567298
0.00105023
0.000538637
0.00105576
0.000510973
0.00106093
0.000484316
0.00106569
0.00045868
0.00107003
0.000434057
0.00107403
0.000410437
0.00107764
0.000387805
0.00108083
0.000366159
0.00108361
0.000345475
0.00108607
0.000325719
0.00108816
0.000308074
0.00108982
0.000291344
0.00109105
0.00031225
0.00109193
0.000313155
0.00109908
0.000313981
0.0011064
0.000314756
0.00111387
0.000315476
0.00112147
0.000316129
0.00112928
0.000316694
0.00113717
0.000317191
0.00114502
0.000317636
0.00115289
0.00031805
0.00116081
0.000318408
0.00116884
0.000318695
0.00117677
0.00031894
0.00118433
0.000319116
0.00119195
0.000319401
0.00119969
0.000319709
0.00120758
0.000319671
0.00121533
0.000320229
0.00122127
0.000330782
0.00122668
0.000344675
0.0012217
0.000390007
0.000976372
0.000393749
0.000720727
0.000392927
0.000718258
0.000390443
0.000736758
0.000382897
0.000743323
0.000372916
0.000743517
0.000363199
0.000746632
0.000355977
0.000730699
0.000351682
0.000744073
0.000349398
0.000760758
0.00034975
0.000771617
0.000353102
0.000775401
0.000355751
0.00077401
0.000358044
0.00077408
0.000359038
0.000779426
0.000361372
0.000761562
0.000363234
0.000750453
0.000366141
0.00072437
0.000369719
0.000711085
0.000372502
0.000686073
0.000378331
0.000667929
0.000386869
0.000636066
0.000401976
0.0006071
0.000413061
0.000585278
0.000417353
0.000568788
0.000416225
0.00055562
0.000409476
0.000543233
0.000399603
0.000529479
0.000390139
0.000512476
0.000382761
0.000498101
0.000377487
0.000484596
0.000373838
0.00047245
0.000371236
0.000461515
0.000369661
0.000451678
0.000368674
0.000442847
0.000368381
0.000435012
0.000368341
0.000428062
0.000368744
0.000421951
0.00036932
0.000416497
0.000370553
0.000411817
0.000372062
0.000407936
0.000373984
0.000404878
0.000376201
0.000402667
0.000379178
0.000401306
0.000382718
0.000400741
0.000387046
0.000400971
0.000391637
0.000401911
0.000397347
0.000403709
0.000403083
0.000406397
0.000410273
0.000410115
0.000417295
0.000415376
0.000425529
0.000422276
0.000431836
0.000429427
0.000440931
0.000436748
0.0014487
0.00144789
0.000785028
0.00144398
0.00079496
0.001437
0.000805192
0.00142703
0.000815716
0.00141413
0.00082652
0.00139841
0.000837584
0.00138001
0.000848887
0.00135907
0.000860399
0.00133575
0.000872089
0.00131023
0.000883923
0.00128269
0.000895863
0.00125335
0.000907871
0.0012224
0.000919908
0.00119006
0.000931933
0.00115651
0.000943908
0.00112199
0.000955793
0.00108667
0.000967552
0.00105077
0.000979148
0.00101447
0.00099055
0.000977931
0.00100173
0.000941338
0.00101264
0.000904836
0.00102328
0.000868571
0.00103361
0.000832669
0.00104362
0.000797247
0.00105328
0.00076241
0.00106257
0.000728245
0.00107149
0.000694834
0.00108001
0.00066224
0.00108813
0.000630523
0.00109584
0.000599722
0.00110312
0.000569881
0.00110998
0.000541022
0.00111643
0.000513156
0.00112244
0.000486309
0.00112797
0.000460477
0.0011331
0.000435659
0.00113781
0.000411839
0.00114206
0.000389024
0.00114584
0.000367193
0.00114924
0.00034632
0.00115226
0.000326377
0.00115481
0.000307606
0.0011569
0.000291057
0.00115853
0.000316114
0.00115985
0.000317142
0.00116647
0.000318083
0.00117323
0.000318943
0.00118011
0.000319724
0.00118724
0.000320408
0.00119447
0.000321008
0.0012017
0.00032153
0.00120894
0.000321974
0.00121629
0.000322351
0.00122371
0.000322659
0.0012311
0.000322857
0.00123841
0.000323091
0.00124525
0.000323173
0.00125243
0.000323224
0.00125939
0.000323283
0.00126595
0.000323681
0.00127335
0.000326537
0.00128108
0.000356859
0.0012895
0.000420816
0.00128864
0.000452375
0.000999737
0.000414574
0.000798646
0.000402578
0.000773296
0.000393037
0.000764115
0.000385109
0.000771278
0.000376274
0.000769998
0.000363512
0.000779912
0.000355741
0.000757058
0.000351102
0.000776279
0.000348626
0.000791117
0.000353653
0.00079995
0.000357242
0.0008003
0.000359351
0.000796054
0.000360416
0.00079347
0.000360602
0.000794808
0.00036198
0.000764113
0.00036372
0.000746478
0.000365965
0.000719414
0.000370168
0.000705984
0.000373376
0.00067217
0.000382879
0.000642697
0.000396025
0.00061452
0.000406575
0.000592725
0.000413309
0.000576984
0.000416036
0.000564599
0.000414938
0.000553797
0.000410172
0.000543115
0.000403956
0.000530138
0.000395777
0.000517225
0.000388817
0.000504193
0.000383505
0.000491416
0.000379642
0.000479685
0.000376877
0.000468961
0.000375118
0.000459133
0.000373884
0.000450134
0.000373341
0.000441983
0.000373023
0.000434646
0.000373153
0.000428106
0.000373456
0.000422224
0.000374564
0.000417114
0.000375997
0.000412813
0.000377927
0.000409399
0.000380236
0.00040685
0.000383418
0.000405135
0.000387158
0.000404241
0.000391745
0.000404128
0.000396608
0.000404772
0.000402733
0.000406289
0.000408895
0.000408684
0.000416561
0.000412194
0.000423987
0.000417284
0.000432755
0.000423926
0.000439544
0.000430878
0.000449123
0.000437924
0.00145354
0.00145288
0.000795653
0.00144912
0.000807634
0.0014423
0.000819891
0.00143246
0.00083242
0.00141969
0.000845209
0.0014041
0.000858239
0.00138581
0.000871487
0.00136495
0.000884924
0.0013417
0.000898517
0.00131624
0.00091223
0.00128874
0.000926025
0.00125941
0.00093986
0.00122845
0.000953694
0.00119608
0.000967484
0.00116249
0.00098119
0.00112789
0.00099477
0.00109249
0.00100818
0.00105648
0.0010214
0.00102005
0.00103437
0.000983375
0.00104707
0.000946628
0.00105948
0.000909959
0.00107155
0.000873517
0.00108327
0.000837426
0.00109461
0.000801809
0.00110555
0.000766766
0.00111608
0.000732391
0.00112618
0.000698765
0.00113584
0.000665953
0.00114504
0.000634012
0.00115378
0.000602992
0.00116205
0.000572926
0.00116985
0.000543841
0.00117717
0.000515755
0.00118399
0.000488685
0.00119033
0.000462633
0.00119623
0.000437585
0.00120161
0.000413555
0.00120647
0.000390529
0.00121089
0.000368485
0.00121489
0.0003474
0.00121839
0.000327252
0.0012214
0.000308027
0.00122392
0.000290613
0.00122605
0.000319781
0.00122774
0.000320924
0.00123378
0.000321959
0.00123998
0.000322895
0.00124635
0.000323716
0.00125296
0.000324423
0.00125956
0.00032503
0.00126614
0.00032554
0.00127274
0.000325935
0.00127948
0.00032623
0.00128618
0.000326417
0.00129269
0.000326501
0.00129932
0.000326579
0.00130547
0.00032654
0.00131175
0.000326457
0.00131841
0.000326441
0.00132475
0.000327585
0.0013316
0.000334736
0.00133913
0.00038881
0.00134887
0.000501924
0.00131131
0.000477842
0.000931167
0.000436044
0.000857803
0.000411505
0.000831275
0.000397298
0.000803129
0.000387713
0.00079708
0.000376816
0.000791905
0.0003641
0.000802941
0.000355199
0.000780483
0.000349204
0.000804208
0.000354206
0.000812975
0.000358164
0.000818499
0.000361703
0.000813744
0.000363498
0.000802717
0.000363243
0.000795305
0.000363691
0.000792869
0.000364244
0.000758255
0.000366177
0.000744182
0.000367202
0.000712122
0.000372247
0.000679344
0.000382672
0.000647547
0.000394366
0.000621814
0.000403279
0.000601964
0.000409669
0.000587008
0.000413608
0.000574434
0.000415013
0.000563774
0.000413798
0.000553437
0.000410523
0.000543376
0.000405273
0.000531889
0.000399233
0.000520826
0.000393466
0.000508881
0.000388536
0.000497644
0.00038496
0.000486609
0.000382345
0.000476229
0.00038057
0.000466493
0.000379189
0.000457382
0.000378385
0.000448943
0.000377781
0.000441234
0.000377667
0.000434322
0.000377804
0.000428124
0.000378823
0.000422702
0.000380155
0.000418086
0.000382079
0.000414339
0.000384452
0.000411417
0.000387772
0.000409285
0.000391637
0.000407967
0.000396466
0.000407425
0.000401594
0.000407669
0.000408122
0.000408862
0.00041473
0.000410994
0.000422848
0.000414325
0.000430691
0.000419256
0.000439968
0.000425622
0.000447282
0.000432328
0.000457319
0.000439084
0.00145947
0.00145895
0.000807485
0.00145533
0.000821461
0.00144865
0.000835693
0.00143895
0.000850177
0.0014263
0.000864902
0.00141082
0.000879849
0.00139262
0.000894995
0.00137185
0.000910311
0.00134866
0.000925762
0.00132323
0.00094131
0.00129576
0.000956915
0.00126643
0.000972534
0.00123544
0.000988123
0.00120302
0.00100364
0.00116936
0.00101903
0.00113467
0.00103427
0.00109916
0.0010493
0.00106302
0.00106409
0.00102645
0.0010786
0.000989609
0.0010928
0.000952682
0.00110665
0.00091582
0.00112012
0.000879173
0.00113319
0.000842866
0.00114583
0.000807024
0.00115803
0.000771748
0.00116977
0.000737136
0.00118102
0.000703265
0.00119179
0.000670207
0.00120205
0.000638018
0.00121179
0.000606746
0.00122102
0.000576429
0.00122973
0.000547092
0.00123791
0.00051876
0.00124555
0.000491442
0.00125268
0.000465137
0.00125928
0.000439849
0.00126531
0.00041558
0.00127082
0.000392314
0.00127588
0.000370032
0.00128039
0.000348712
0.00128438
0.000328348
0.00128783
0.000308905
0.00129086
0.000290344
0.00129342
0.000323241
0.00129542
0.000324481
0.00130092
0.000325602
0.00130658
0.000326592
0.0013125
0.000327443
0.00131845
0.000328157
0.00132442
0.000328744
0.00133037
0.000329208
0.00133631
0.000329542
0.00134228
0.000329741
0.00134823
0.000329801
0.0013541
0.000329786
0.00135993
0.000329647
0.00136531
0.000329403
0.00137064
0.000329177
0.00137583
0.000329027
0.00138037
0.000330575
0.00138437
0.0003443
0.00138575
0.000435278
0.00138007
0.000514555
0.00119855
0.000500971
0.000935721
0.000479193
0.000912548
0.000440469
0.000905026
0.000410452
0.000854582
0.000391651
0.000830329
0.000378038
0.000816134
0.000363459
0.000814679
0.000352718
0.000801433
0.000349034
0.000825119
0.000359306
0.000829335
0.000362643
0.000839674
0.000365001
0.000819424
0.000367216
0.00080726
0.000365273
0.000800312
0.000366346
0.000780023
0.000366399
0.000750428
0.000369695
0.000715938
0.000375443
0.0006833
0.000385712
0.000653764
0.000394907
0.000630594
0.000402624
0.000613088
0.000408456
0.00059903
0.000412284
0.000586803
0.000414416
0.000575749
0.000414886
0.000565345
0.000413514
0.000555606
0.000410795
0.000545266
0.000405996
0.000534755
0.00040109
0.000523782
0.000396633
0.000513012
0.000392632
0.000502618
0.000389614
0.000492403
0.000387303
0.00048248
0.000385627
0.00047298
0.000384209
0.000463912
0.000383315
0.000455283
0.000382527
0.000447332
0.000382209
0.00044009
0.000382243
0.000433534
0.000383232
0.000427737
0.000384508
0.000422772
0.000386439
0.00041871
0.000388873
0.000415462
0.000392298
0.000412973
0.000396252
0.000411283
0.000401303
0.000410418
0.00040659
0.000410326
0.000413512
0.000411261
0.000420568
0.000413183
0.000429122
0.000416384
0.000437401
0.000421203
0.000447157
0.000427313
0.000455008
0.000433776
0.000465434
0.000440262
0.00146648
0.00146609
0.000820535
0.0014626
0.00083645
0.00145605
0.0008526
0.00144647
0.000868984
0.00143394
0.000885591
0.00141856
0.000902404
0.00140045
0.000919397
0.00137975
0.000936541
0.00135661
0.000953801
0.00133121
0.000971136
0.00130374
0.000988504
0.00127439
0.00100586
0.00124337
0.00102316
0.00121088
0.00104035
0.00117713
0.0010574
0.00114234
0.00107424
0.00110669
0.00109085
0.0010704
0.00110717
0.00103365
0.00112318
0.000996626
0.00113883
0.000959492
0.00115408
0.000922412
0.00116892
0.000885531
0.00118331
0.00084898
0.00119722
0.000812887
0.00121064
0.00077735
0.00122355
0.000742473
0.00123593
0.000708329
0.00124778
0.000674997
0.00125906
0.000642531
0.00126979
0.000610981
0.00127995
0.000580384
0.00128954
0.000550773
0.00129855
0.000522166
0.001307
0.000494571
0.00131488
0.000467992
0.00132216
0.000442442
0.00132884
0.000417907
0.00133502
0.000394377
0.00134062
0.00037183
0.00134564
0.000350271
0.00135007
0.000329658
0.00135406
0.000309966
0.00135758
0.000291166
0.0013605
0.000326479
0.00136281
0.000327807
0.00136776
0.000329005
0.00137297
0.000330032
0.00137833
0.000330901
0.00138366
0.000331612
0.00138898
0.000332166
0.00139435
0.000332556
0.00139963
0.000332791
0.00140484
0.000332895
0.00140991
0.000332857
0.00141498
0.000332668
0.00142
0.000332308
0.0014246
0.000331747
0.00142879
0.00033109
0.00143268
0.000330613
0.0014368
0.00033289
0.00144068
0.000359316
0.00144364
0.000468336
0.00142849
0.000504991
0.00106552
0.000501441
0.000948619
0.000495901
0.000946917
0.00047545
0.000947616
0.000429679
0.000909798
0.000398714
0.00086474
0.000374901
0.000836236
0.000360449
0.000824852
0.000347529
0.000819734
0.000352998
0.000840483
0.000360417
0.000834292
0.000364577
0.000841081
0.00036685
0.000814965
0.000368698
0.000797655
0.000367199
0.000780726
0.000368791
0.000749131
0.000372507
0.000714421
0.000381012
0.000684782
0.000389772
0.000661125
0.000397258
0.000642175
0.00040368
0.000626581
0.000408814
0.000613324
0.00041239
0.000601508
0.000414662
0.000590251
0.000415742
0.000579739
0.00041563
0.00056977
0.000414237
0.000559732
0.000411492
0.000549547
0.000407237
0.000539084
0.000402986
0.000528263
0.00039929
0.000517889
0.000396073
0.00050786
0.000393705
0.000497984
0.000391721
0.00048836
0.000390304
0.000479075
0.000389083
0.000470149
0.000388233
0.000461609
0.00038739
0.000453677
0.000386965
0.000446349
0.000386935
0.000439636
0.000387864
0.000433603
0.000389046
0.000428345
0.000390958
0.000423936
0.00039343
0.000420281
0.000396909
0.000417329
0.000400889
0.000415154
0.000406133
0.000413841
0.000411608
0.00041332
0.000418886
0.000413918
0.000426376
0.000415562
0.000435342
0.000418568
0.000444055
0.000423231
0.000454247
0.00042906
0.000462643
0.000435221
0.000473418
0.000441421
0.00147454
0.00147427
0.000834816
0.00147091
0.000852607
0.00146448
0.000870616
0.00145502
0.000888842
0.0014426
0.000907274
0.00142731
0.000925895
0.00140928
0.00094468
0.00138863
0.000963598
0.00136553
0.000982612
0.00134015
0.00100168
0.00131267
0.00102076
0.00128329
0.0010398
0.00125221
0.00105876
0.00121964
0.00107759
0.00118579
0.00109623
0.00115086
0.00111464
0.00111507
0.00113277
0.0010786
0.00115059
0.00104166
0.00116805
0.00100442
0.0011851
0.000967051
0.00120173
0.000929726
0.00121788
0.000892585
0.00123355
0.000855765
0.0012487
0.00081939
0.0012633
0.000783565
0.00127735
0.000748394
0.00129082
0.000713951
0.0013037
0.000680317
0.00131598
0.000647545
0.00132766
0.00061569
0.00133873
0.000584789
0.00134917
0.000554875
0.001359
0.000525965
0.00136821
0.00049807
0.00137681
0.0004712
0.00138477
0.000445357
0.00139212
0.000420531
0.00139889
0.000396706
0.00140502
0.000373891
0.00141051
0.000352053
0.00141548
0.00033117
0.00141998
0.000311217
0.00142385
0.000292137
0.00142708
0.000329484
0.0014297
0.000330916
0.00143426
0.000332156
0.00143905
0.000333214
0.00144381
0.00033408
0.00144848
0.000334774
0.00145317
0.000335277
0.00145794
0.000335595
0.00146255
0.000335728
0.00146697
0.000335691
0.00147129
0.000335492
0.00147554
0.000335097
0.00147964
0.000334502
0.00148339
0.000333731
0.00148683
0.000332967
0.00148996
0.000332624
0.00149373
0.000337588
0.00149713
0.000382267
0.00150038
0.000479816
0.00146374
0.000500027
0.00103822
0.000499222
0.000978069
0.000497586
0.000978619
0.000486848
0.00097975
0.000458467
0.000952674
0.000408941
0.000903179
0.000370834
0.000851932
0.000352449
0.000828802
0.000341203
0.000828154
0.000353996
0.00084006
0.000358508
0.000841886
0.000365287
0.000813221
0.000367438
0.00079901
0.000366523
0.000768039
0.000371272
0.000740859
0.000377657
0.000713657
0.000385811
0.00069013
0.000393092
0.000671229
0.000400061
0.000655648
0.000405589
0.000642093
0.000409976
0.000629902
0.000413387
0.000618432
0.000415651
0.000607289
0.000416952
0.00059655
0.000417373
0.000586319
0.000417031
0.000576237
0.000415511
0.000566035
0.000412767
0.000555613
0.00040898
0.000544788
0.000405396
0.000533948
0.000402334
0.000523569
0.000399707
0.000513511
0.000397784
0.000503583
0.000396078
0.000493913
0.000394923
0.000484522
0.00039384
0.000475464
0.000393002
0.000466899
0.00039208
0.000458853
0.000391598
0.000451353
0.000391574
0.000444427
0.000392498
0.000438156
0.000393607
0.000432647
0.000395538
0.000427974
0.000398055
0.000424026
0.000401576
0.000420765
0.000405545
0.000418253
0.000410939
0.000416656
0.000416618
0.000415878
0.000424227
0.000416296
0.000432123
0.000417756
0.000441485
0.000420641
0.000450616
0.000425218
0.00046121
0.000430771
0.000470129
0.000436632
0.000481199
0.000442558
0.00148365
0.00148349
0.000850344
0.00148025
0.000869945
0.00147393
0.000889747
0.00146458