/*--------------------------------*- C++ -*----------------------------------*\
| =========                 |                                                 |
| \\      /  F ield         | OpenFOAM: The Open Source CFD Toolbox           |
|  \\    /   O peration     | Version:  2.2.x                                 |
|   \\  /    A nd           | Web:      www.OpenFOAM.org                      |
|    \\/     M anipulation  |                                                 |
\*---------------------------------------------------------------------------*/
FoamFile
{
    version     2.0;
    format      ascii;
    class       surfaceScalarField;
    location    "1.75";
    object      phi;
}
// * * * * * * * * * * * * * * * * * * * * * * * * * * * * * * * * * * * * * //

dimensions      [1 0 -1 0 0 0 0];

internalField   nonuniform List<scalar> 
28084
(
0.000746228
0.000742993
0.000740219
0.000737888
0.000735983
0.000734479
0.000733329
0.000732525
0.000732057
0.000731898
0.000731985
0.00073232
0.000732887
0.000733632
0.000734523
0.000735573
0.000736738
0.000737958
0.000739242
0.000740588
0.000741939
0.000743313
0.000744677
0.000746003
0.000747267
0.000748489
0.000749651
0.000750733
0.000751724
0.000752592
0.000753339
0.000753962
0.000754459
0.000754836
0.000755033
0.000754998
0.000754951
0.000754877
0.000754641
0.00075417
0.000753624
0.000752942
0.000751813
0.000750389
0.000748821
0.000756275
0.000721931
0.000729533
0.000755044
0.000784466
0.000816943
0.000846864
0.00087558
0.000902522
0.00092929
0.000955287
0.000979327
0.00100157
0.00102315
0.00104353
0.00106175
0.00107785
0.00109234
0.00110536
0.00111728
0.00112833
0.00113802
0.00114622
0.00115307
0.00115868
0.00116334
0.00116693
0.00117009
0.0011725
0.00117412
0.00117491
0.00117451
0.00117322
0.00117207
0.00117027
0.00116769
0.00116503
0.001162
0.0011585
0.00115399
0.00114861
0.00114314
0.00113813
0.00113258
0.00112669
0.0011207
0.00111511
0.00110916
0.00110434
0.00110372
0.00110309
0.00110391
0.00110525
0.00110283
0.00110198
0.00110266
0.00110838
0.00112248
0.00114087
0.00118217
0.0011471
0.0010746
0.000993354
0.000923101
0.000868624
0.000822401
0.000780675
0.000737619
0.000690661
0.000627112
0.000543045
0.000415209
0.000257437
3.70889e-06
3.23775e-06
0.000749754
2.77887e-06
0.000748801
2.33878e-06
0.000748285
1.90983e-06
0.000748182
1.50657e-06
0.000748454
1.15298e-06
0.000749089
8.07061e-07
0.000750113
4.70423e-07
0.000751472
1.65042e-07
0.000753085
-8.47129e-08
0.000754956
-3.3302e-07
0.000757109
-5.55975e-07
0.000759481
-7.38054e-07
0.000762005
-8.99707e-07
0.000764685
-1.03937e-06
0.000767489
-1.14194e-06
0.000770397
-1.23384e-06
0.000773378
-1.303e-06
0.000776374
-1.33673e-06
0.000779376
-1.36309e-06
0.000782394
-1.36998e-06
0.000785371
-1.34333e-06
0.000788313
-1.31156e-06
0.00079119
-1.27079e-06
0.000793975
-1.21647e-06
0.000796644
-1.14156e-06
0.000799214
-1.05545e-06
0.000801666
-9.64305e-07
0.000803983
-8.63345e-07
0.000806146
-7.5087e-07
0.00080813
-6.35504e-07
0.000809934
-5.07123e-07
0.000811561
-3.81717e-07
0.000813007
-2.54507e-07
0.000814268
-1.13824e-07
0.0008153
1.37037e-08
0.000816056
1.48995e-07
0.000816698
3.38443e-07
0.00081732
4.7641e-07
0.000817785
6.24796e-07
0.000817907
7.65259e-07
0.000817931
1.02207e-06
0.000817703
1.3122e-06
0.000817227
1.45922e-06
0.000816619
-7.48696e-06
0.000816045
3.27768e-05
0.000825313
-8.21773e-06
0.000828584
-2.62684e-05
0.000852232
-3.02997e-05
0.000880993
-3.34476e-05
0.000911022
-3.07709e-05
0.000943542
-2.93813e-05
0.000976918
-2.77878e-05
0.00100858
-2.74717e-05
0.00103785
-2.6185e-05
0.00106716
-2.46794e-05
0.00109365
-2.27726e-05
0.00111773
-2.15189e-05
0.00114109
-2.03714e-05
0.00116249
-1.83612e-05
0.00118256
-1.60091e-05
0.00120053
-1.43731e-05
0.00121596
-1.32235e-05
0.00123008
-1.19975e-05
0.00124291
-1.11504e-05
0.00125474
-1.01132e-05
0.00126548
-8.84795e-06
0.00127455
-7.44688e-06
0.00128217
-6.11697e-06
0.00128869
-4.99085e-06
0.00129433
-3.93764e-06
0.00129917
-3.35722e-06
0.00130314
-2.48553e-06
0.00130618
-1.65146e-06
0.00130851
-8.12455e-07
0.00131008
4.35582e-07
0.00131092
1.05313e-06
0.00131067
8.02833e-07
0.00130977
1.91489e-06
0.00130831
2.69357e-06
0.00130633
2.42852e-06
0.0013037
2.94851e-06
0.00130013
3.69335e-06
0.00129595
4.58317e-06
0.00129125
5.35052e-06
0.00128557
5.28062e-06
0.00127918
4.69017e-06
0.00127264
4.96206e-06
0.00126661
5.52543e-06
0.00126005
5.69707e-06
0.00125312
5.42577e-06
0.00124591
5.73045e-06
0.00123858
4.7159e-06
0.00123178
2.54039e-07
0.00122611
4.79017e-07
0.00122352
-8.89471e-07
0.00122146
1.4256e-07
0.00121946
2.56203e-06
0.00121701
4.09672e-08
0.00121232
-1.65731e-06
0.00120636
-6.3096e-06
0.0012034
-1.472e-05
0.00120634
-1.8574e-05
0.00122126
-3.66636e-05
0.00124984
3.61866e-05
0.00117153
7.36927e-05
0.00104198
8.27333e-05
0.00089231
7.14966e-05
0.000777476
5.46687e-05
0.000692585
4.62869e-05
0.000630714
4.29722e-05
0.000580514
4.54636e-05
0.000537835
4.84385e-05
0.00049478
6.39809e-05
0.000450624
8.34669e-05
0.000401692
0.000127393
0.000342109
0.000157926
0.000267426
0.000257582
0.000162277
5.1042e-06
4.19574e-06
0.00075444
3.29739e-06
0.00075574
2.4435e-06
0.000757434
1.63951e-06
0.000759515
8.75549e-07
0.000761984
1.3315e-07
0.00076481
-5.47627e-07
0.00076792
-1.14002e-06
0.000771317
-1.7006e-06
0.000775042
-2.23533e-06
0.000779019
-2.70798e-06
0.000783154
-3.07169e-06
0.000787452
-3.40947e-06
0.000791958
-3.70792e-06
0.000796585
-3.93031e-06
0.00080126
-4.10142e-06
0.000806003
-4.24334e-06
0.000810776
-4.32663e-06
0.000815528
-4.34924e-06
0.000820234
-4.35024e-06
0.000824903
-4.3069e-06
0.000829497
-4.20098e-06
0.000833991
-4.08236e-06
0.000838364
-3.94492e-06
0.000842591
-3.77754e-06
0.000846656
-3.57157e-06
0.000850559
-3.34109e-06
0.000854283
-3.10341e-06
0.000857815
-2.84577e-06
0.00086113
-2.56115e-06
0.000864217
-2.27323e-06
0.000867068
-1.96807e-06
0.000869692
-1.65392e-06
0.000872086
-1.34009e-06
0.000874249
-1.01937e-06
0.000876131
-6.97887e-07
0.00087768
-3.66526e-07
0.000879003
-1.42953e-08
0.00088033
3.4747e-07
0.000881332
6.83652e-07
0.000882011
1.01815e-06
0.000882587
1.39302e-06
0.000882759
1.80794e-06
0.000882558
1.96326e-06
0.000882174
-1.67193e-05
0.00088105
2.71285e-05
0.000890277
-3.298e-05
0.00100144
-5.59898e-05
0.0010287
-6.13413e-05
0.0010452
-6.66237e-05
0.00106297
-6.46725e-05
0.00108288
-6.12193e-05
0.00110559
-5.76148e-05
0.00112825
-5.67783e-05
0.00115134
-5.26886e-05
0.0011741
-4.91915e-05
0.0011957
-4.56288e-05
0.00121625
-4.26354e-05
0.00123548
-4.00623e-05
0.00125281
-3.60637e-05
0.0012689
-3.13044e-05
0.00128375
-2.81314e-05
0.00129652
-2.5662e-05
0.0013074
-2.31718e-05
0.00131665
-2.14435e-05
0.00132525
-1.92301e-05
0.00133356
-1.67722e-05
0.00134058
-1.41498e-05
0.00134626
-1.18396e-05
0.00135107
-9.63021e-06
0.001355
-7.68551e-06
0.00135835
-6.04e-06
0.00136078
-4.43797e-06
0.00136238
-2.83938e-06
0.0013633
-1.28365e-06
0.00136358
1.16598e-06
0.00136315
2.42284e-06
0.00136196
2.38597e-06
0.00135995
4.44657e-06
0.00135695
5.93155e-06
0.00135373
6.17502e-06
0.00134982
7.32473e-06
0.00134474
8.85019e-06
0.00133947
1.07638e-05
0.00133362
1.22615e-05
0.00132699
1.22689e-05
0.00132006
1.10102e-05
0.00131222
1.15724e-05
0.00130477
1.24737e-05
0.00129688
1.28603e-05
0.00128851
1.27689e-05
0.0012799
1.26574e-05
0.00127155
1.0823e-05
0.00126364
2.86261e-06
0.00125697
2.60874e-06
0.00125086
1.32225e-06
0.00124707
3.04252e-06
0.00124164
7.08068e-06
0.00123689
6.03081e-06
0.00123065
8.60682e-07
0.00122228
-9.99377e-06
0.00121922
-3.04809e-05
0.00122175
-4.67871e-05
0.00123751
4.41382e-05
0.00115064
0.000168731
0.000994647
0.000224863
0.000831613
0.000198183
0.000703389
0.000155955
0.000596537
0.000116344
0.000502049
9.7155e-05
0.000423041
8.61363e-05
0.00035782
8.8686e-05
0.000307924
9.22292e-05
0.000266416
0.000112592
0.000232317
0.000143046
0.000200614
0.000202493
0.000164988
0.000263821
0.000122286
0.000419894
7.59024e-05
4.22124e-06
2.8978e-06
0.00076032
1.60697e-06
0.000763834
3.66285e-07
0.000767731
-8.24819e-07
0.000771991
-1.9461e-06
0.000776575
-2.97317e-06
0.000781473
-3.94034e-06
0.000786719
-4.86141e-06
0.000792251
-5.67313e-06
0.000797976
-6.36483e-06
0.000803905
-7.00523e-06
0.000810077
-7.57104e-06
0.000816405
-8.03015e-06
0.000822797
-8.38396e-06
0.000829265
-8.66415e-06
0.000835827
-8.86064e-06
0.000842404
-9.0053e-06
0.00084894
-9.05443e-06
0.000855426
-9.01296e-06
0.00086182
-8.9453e-06
0.000868129
-8.79194e-06
0.000874309
-8.55779e-06
0.000880336
-8.29909e-06
0.000886186
-8.01161e-06
0.000891837
-7.67121e-06
0.00089728
-7.2783e-06
0.000902502
-6.84609e-06
0.000907482
-6.40093e-06
0.000912207
-5.93032e-06
0.000916661
-5.41811e-06
0.000920835
-4.90818e-06
0.000924725
-4.37268e-06
0.000928327
-3.82254e-06
0.000931641
-3.26477e-06
0.000934663
-2.70025e-06
0.000937357
-2.13571e-06
0.000939667
-1.5707e-06
0.000941798
-9.45863e-07
0.000943744
-3.265e-07
0.000945442
2.45652e-07
0.000946868
8.95403e-07
0.000948037
1.53453e-06
0.000948837
2.04791e-06
0.000949482
2.95193e-06
0.000950054
-2.59177e-05
0.000950627
-8.79707e-05
0.000960515
-6.01597e-05
0.00097585
-7.18574e-05
0.000992496
-7.8273e-05
0.00101062
-8.55456e-05
0.00103078
-8.67393e-05
0.00105383
-8.32364e-05
0.00107799
-8.01117e-05
0.00110264
-7.89181e-05
0.00112705
-7.36905e-05
0.00115187
-6.93434e-05
0.00117484
-6.41596e-05
0.00119725
-5.95083e-05
0.00121812
-5.55512e-05
0.00123801
-5.00639e-05
0.00125432
-4.34066e-05
0.00127078
-3.85963e-05
0.00128349
-3.47951e-05
0.00129464
-3.14632e-05
0.00130485
-2.91148e-05
0.00131422
-2.5924e-05
0.00132212
-2.25032e-05
0.00132819
-1.89185e-05
0.00133312
-1.56803e-05
0.00133726
-1.28182e-05
0.00134034
-9.82468e-06
0.00134233
-7.31838e-06
0.00134321
-5.05839e-06
0.00134339
-2.79083e-06
0.0013427
-4.08937e-07
0.00134142
2.86299e-06
0.00133965
5.03886e-06
0.00133747
5.54005e-06
0.00133493
7.89656e-06
0.00133095
1.00945e-05
0.00132719
1.13598e-05
0.00132303
1.2813e-05
0.00131758
1.50483e-05
0.00131183
1.77016e-05
0.0013056
1.96413e-05
0.00129891
2.0536e-05
0.00129202
1.86804e-05
0.00128536
1.93934e-05
0.00127866
2.07668e-05
0.00127169
2.13419e-05
0.00126415
2.10968e-05
0.00125656
2.0551e-05
0.00124878
1.79904e-05
0.00124179
8.75713e-06
0.00123632
6.37193e-06
0.0012319
6.37218e-06
0.00122864
7.54933e-06
0.00122471
1.32951e-05
0.00122261
1.4137e-05
0.00121548
2.75853e-06
0.00120508
-1.30119e-05
0.00120281
-4.62423e-05
0.00121106
4.18827e-05
0.00110006
0.000202464
0.000883305
0.000331926
0.000718051
0.000354
0.000623462
0.000305255
0.000562274
0.000250602
0.00050205
0.000195501
0.000430074
0.000161989
0.000346707
0.000135026
0.000274825
0.000129119
0.000220696
0.000125701
0.000175031
0.000144327
0.000136768
0.000179199
0.00010434
0.00024613
7.8893e-05
0.000311042
5.70091e-05
0.000495637
3.49352e-05
1.08559e-06
-6.12884e-07
0.000767367
-2.28833e-06
0.000773068
-3.88994e-06
0.000779105
-5.40452e-06
0.000785479
-6.8395e-06
0.0007922
-8.21406e-06
0.000799234
-9.46693e-06
0.000806502
-1.05838e-05
0.000814007
-1.15989e-05
0.000821795
-1.25331e-05
0.000829783
-1.33311e-05
0.00083787
-1.3959e-05
0.000846064
-1.44906e-05
0.000854404
-1.49423e-05
0.000862797
-1.52372e-05
0.00087116
-1.53873e-05
0.000879486
-1.54902e-05
0.000887784
-1.54614e-05
0.000895988
-1.53271e-05
0.000904059
-1.51198e-05
0.000911961
-1.48061e-05
0.000919704
-1.43962e-05
0.000927239
-1.39414e-05
0.000934541
-1.34452e-05
0.0009416
-1.28774e-05
0.000948399
-1.22393e-05
0.000954922
-1.15543e-05
0.000961144
-1.0843e-05
0.000967046
-1.01033e-05
0.000972625
-9.31931e-06
0.000977869
-8.52468e-06
0.000982784
-7.69699e-06
0.000987357
-6.86323e-06
0.000991592
-6.01525e-06
0.000995459
-5.14379e-06
0.000998916
-4.29194e-06
0.00100209
-3.4287e-06
0.00100502
-2.54755e-06
0.00100756
-1.66119e-06
0.00100968
-7.60501e-07
0.00101135
7.36904e-08
0.00101289
7.79851e-07
0.00101407
1.31746e-06
0.00101448
2.26669e-06
0.001014
-3.58254e-05
0.00101259
-0.00010708
0.00101794
-7.78671e-05
0.000984901
-9.05347e-05
0.000991927
-9.87468e-05
0.00101781
-0.000108715
0.00104604
-0.000111018
0.00107725
-0.000107941
0.00110799
-0.000104578
0.00113829
-0.000103684
0.00116842
-9.66278e-05
0.00119868
-9.17754e-05
0.00122722
-8.48189e-05
0.00125323
-7.96671e-05
0.00127872
-7.17016e-05
0.00130204
-6.54778e-05
0.00132156
-5.56864e-05
0.00133317
-5.05063e-05
0.00134591
-4.53022e-05
0.0013578
-4.05645e-05
0.00136725
-3.68642e-05
0.00137446
-3.22315e-05
0.00138052
-2.78617e-05
0.00138573
-2.3101e-05
0.00139072
-1.8748e-05
0.0013945
-1.4711e-05
0.00139694
-1.04889e-05
0.00139804
-7.3141e-06
0.00139809
-4.42215e-06
0.00139693
-1.54056e-06
0.00139521
1.50443e-06
0.00139278
5.17411e-06
0.00138985
7.89332e-06
0.0013862
9.55117e-06
0.00138145
1.16382e-05
0.00137562
1.42189e-05
0.0013699
1.67735e-05
0.00136396
1.85974e-05
0.00135716
2.14673e-05
0.00134949
2.43323e-05
0.00134156
2.66703e-05
0.00133313
2.75631e-05
0.00132435
2.56278e-05
0.00131548
2.64748e-05
0.00130659
2.82547e-05
0.00129752
2.8804e-05
0.00128805
2.88873e-05
0.00127849
2.77379e-05
0.00126876
2.39391e-05
0.00126006
1.29404e-05
0.00125249
9.42837e-06
0.00124422
1.00356e-05
0.00124013
9.49002e-06
0.00123665
2.08373e-05
0.00123369
2.46585e-05
0.00122441
4.55055e-06
0.00121475
-2.08272e-05
0.00121015
6.63419e-05
0.00109717
0.000260254
0.000846193
0.000369384
0.000659974
0.000426733
0.000546666
0.00041606
0.000489023
0.000366755
0.000456096
0.000323342
0.00042425
0.000277993
0.000383233
0.000232592
0.000332705
0.00018779
0.000267696
0.000173842
0.000203742
0.000163743
0.00015263
0.000177295
0.000113811
0.000205435
7.99794e-05
0.00026861
5.72472e-05
0.000333324
4.01361e-05
0.000530137
2.26333e-05
-4.25396e-06
-6.31083e-06
0.00077561
-8.32125e-06
0.000783446
-1.02601e-05
0.000791616
-1.21217e-05
0.000800103
-1.38685e-05
0.000808866
-1.54783e-05
0.000817897
-1.69688e-05
0.000827235
-1.83686e-05
0.000836812
-1.95834e-05
0.000846538
-2.06156e-05
0.000856413
-2.15202e-05
0.000866478
-2.22953e-05
0.000876643
-2.28779e-05
0.000886811
-2.32963e-05
0.000896989
-2.35605e-05
0.000907181
-2.36849e-05
0.00091731
-2.36871e-05
0.000927309
-2.35361e-05
0.000937187
-2.32449e-05
0.000946892
-2.28511e-05
0.000956374
-2.23362e-05
0.000965658
-2.17039e-05
0.000974689
-2.09934e-05
0.000983412
-2.02242e-05
0.000991854
-1.9376e-05
0.000999985
-1.84437e-05
0.00100778
-1.74509e-05
0.00101523
-1.64199e-05
0.00102229
-1.53533e-05
0.00102896
-1.42491e-05
0.00103525
-1.31112e-05
0.00104116
-1.19409e-05
0.00104667
-1.07563e-05
0.0010518
-9.56908e-06
0.00105653
-8.37031e-06
0.00106081
-7.16713e-06
0.00106471
-5.91069e-06
0.00106833
-4.66289e-06
0.0010716
-3.38908e-06
0.00107446
-2.15407e-06
0.00107699
-9.21683e-07
0.00107931
3.71886e-07
0.0010811
1.67131e-06
0.0010825
3.56959e-06
0.00108375
-4.12305e-05
0.00108541
-7.76031e-05
0.00109276
-8.52519e-05
0.00106084
-0.000116732
0.00105824
-0.000127129
0.00108365
-0.000139872
0.00111785
-0.000141705
0.00115261
-0.000138187
0.00118588
-0.000134565
0.00121617
-0.00013363
0.00124646
-0.000124621
0.001277
-0.000117815
0.0013047
-0.000109927
0.0013316
-0.000102563
0.00135519
-9.12972e-05
0.00137711
-7.77577e-05
0.00139546
-6.85605e-05
0.00141163
-6.16921e-05
0.00142346
-5.46572e-05
0.00143346
-4.86143e-05
0.00144149
-4.3981e-05
0.00144872
-3.82019e-05
0.0014549
-3.26456e-05
0.00145919
-2.6677e-05
0.00146157
-2.12341e-05
0.0014637
-1.58624e-05
0.00146565
-1.03533e-05
0.00146699
-6.12269e-06
0.0014678
-2.38933e-06
0.00146677
1.06835e-06
0.00146422
4.60961e-06
0.00146076
8.78115e-06
0.00145653
1.25898e-05
0.00145202
1.53225e-05
0.00144662
1.70445e-05
0.00144035
2.00861e-05
0.0014334
2.36453e-05
0.00142657
2.62817e-05
0.00141875
2.95003e-05
0.00140978
3.2642e-05
0.00140043
3.55097e-05
0.00139094
3.68944e-05
0.00138092
3.48674e-05
0.00137003
3.57377e-05
0.00135932
3.76593e-05
0.00134832
3.82596e-05
0.00133675
3.85838e-05
0.00132503
3.6479e-05
0.00131404
3.1796e-05
0.00130475
2.09397e-05
0.00129614
1.25781e-05
0.00128717
1.28405e-05
0.00128151
1.36554e-05
0.0012756
3.0915e-05
0.00126943
3.40314e-05
0.00125482
8.92437e-06
0.00124913
9.33702e-05
0.00116477
0.00031885
0.000918514
0.000447137
0.000728779
0.000483998
0.00059282
0.000485163
0.000493521
0.000450361
0.000435607
0.000400055
0.000402372
0.000364924
0.00037511
0.000327601
0.000344912
0.000296198
0.00031001
0.000250326
0.000267383
0.000224488
0.000215744
0.000202645
0.000165649
0.000211945
0.000125168
0.000228979
8.82832e-05
0.000285874
6.01458e-05
0.00035036
3.85135e-05
0.000552186
2.03697e-05
-1.17676e-05
-1.41452e-05
0.000785033
-1.64896e-05
0.000794973
-1.87416e-05
0.000805204
-2.08782e-05
0.000815727
-2.28932e-05
0.000826541
-2.4811e-05
0.000837627
-2.65422e-05
0.000848923
-2.80913e-05
0.000860418
-2.94567e-05
0.000872116
-3.06763e-05
0.000883972
-3.16808e-05
0.000895894
-3.2466e-05
0.000907873
-3.30483e-05
0.000919896
-3.34748e-05
0.000931914
-3.36856e-05
0.000943864
-3.36843e-05
0.000955693
-3.3553e-05
0.000967386
-3.32436e-05
0.00097892
-3.27568e-05
0.000990232
-3.21152e-05
0.00100126
-3.13467e-05
0.00101205
-3.04418e-05
0.00102255
-2.94257e-05
0.00103267
-2.83275e-05
0.00104246
-2.714e-05
0.00105191
-2.58642e-05
0.00106098
-2.45164e-05
0.00106963
-2.31108e-05
0.00107783
-2.16604e-05
0.00108558
-2.01768e-05
0.00109289
-1.86411e-05
0.00109975
-1.70813e-05
0.00110619
-1.55023e-05
0.00111222
-1.39193e-05
0.0011178
-1.23333e-05
0.0011229
-1.07188e-05
0.00112751
-9.10588e-06
0.00113176
-7.49239e-06
0.00113558
-5.87906e-06
0.00113888
-4.25914e-06
0.00114166
-2.67179e-06
0.00114419
-1.14739e-06
0.00114613
2.76975e-07
0.00114731
1.80998e-06
0.00114753
-4.86102e-05
0.0011473
-4.9143e-05
0.0011514
-8.28358e-05
0.00107665
-0.000142201
0.00107519
-0.000160952
0.00110934
-0.000174333
0.00114716
-0.000174526
0.00118711
-0.000168543
0.00122789
-0.000164858
0.00126458
-0.000163792
0.00130115
-0.000151987
0.00133661
-0.000144293
0.00136998
-0.000133281
0.00140369
-0.000126058
0.00143417
-0.000109607
0.00146096
-9.25279e-05
0.0014807
-8.05862e-05
0.00150571
-7.16704e-05
0.00152004
-6.28807e-05
0.00153365
-5.66237e-05
0.0015443
-5.09375e-05
0.00155408
-4.3837e-05
0.00156184
-3.64589e-05
0.00156446
-2.91123e-05
0.00156592
-2.30516e-05
0.00156828
-1.68006e-05
0.00157052
-1.03873e-05
0.00157232
-4.32323e-06
0.00157296
3.9916e-07
0.00157271
4.18454e-06
0.00156859
8.5603e-06
0.00156353
1.28619e-05
0.00155666
1.76802e-05
0.00154967
2.17336e-05
0.00154172
2.3762e-05
0.00153247
2.69249e-05
0.00152272
3.13309e-05
0.00151262
3.51504e-05
0.00150227
3.86511e-05
0.00149106
4.20527e-05
0.00147905
4.57692e-05
0.00146609
4.81015e-05
0.00145317
4.56587e-05
0.00144042
4.67721e-05
0.0014276
4.89539e-05
0.0014147
4.97452e-05
0.00140114
4.95919e-05
0.00138817
4.58451e-05
0.00137399
4.05706e-05
0.00136191
2.9837e-05
0.00135043
1.75715e-05
0.00133907
1.8238e-05
0.00133152
2.02946e-05
0.00132317
4.54379e-05
0.0013062
4.04249e-05
0.00130125
9.54253e-05
0.00124284
0.000341205
0.00100377
0.000508123
0.000793515
0.000582746
0.000650557
0.000583807
0.000551216
0.000544086
0.000479275
0.000485129
0.000428158
0.000428854
0.000393729
0.00039532
0.000365859
0.000361467
0.00033786
0.000337466
0.000307978
0.000300954
0.000273863
0.000274098
0.000233404
0.000243266
0.000186156
0.000249799
0.000143686
0.000257869
0.000104294
0.000307543
7.20574e-05
0.000367776
4.50473e-05
0.000571761
2.36506e-05
-2.13988e-05
-2.40814e-05
0.000795658
-2.6716e-05
0.000807643
-2.92609e-05
0.000819908
-3.16885e-05
0.00083244
-3.39746e-05
0.000845236
-3.61034e-05
0.000858281
-3.80329e-05
0.000871525
-3.97847e-05
0.000884966
-4.13119e-05
0.000898562
-4.25955e-05
0.00091226
-4.36535e-05
0.000926052
-4.44929e-05
0.000939892
-4.50536e-05
0.00095369
-4.54076e-05
0.000967456
-4.55175e-05
0.000981145
-4.53894e-05
0.000994678
-4.50621e-05
0.00100801
-4.45469e-05
0.00102116
-4.38216e-05
0.00103405
-4.28912e-05
0.00104659
-4.18152e-05
0.00105886
-4.05896e-05
0.00107078
-3.92209e-05
0.00108228
-3.77386e-05
0.0010934
-3.61577e-05
0.00110413
-3.4478e-05
0.00111443
-3.27205e-05
0.00112428
-3.0889e-05
0.00113361
-2.90028e-05
0.00114241
-2.70783e-05
0.00115072
-2.51124e-05
0.00115851
-2.31081e-05
0.00116585
-2.10858e-05
0.00117273
-1.90452e-05
0.00117913
-1.69935e-05
0.00118505
-1.49419e-05
0.00119045
-1.28711e-05
0.00119538
-1.07796e-05
0.00119988
-8.68195e-06
0.00120402
-6.59992e-06
0.00120762
-4.39871e-06
0.00121075
-2.28951e-06
0.00121354
3.17807e-08
0.00121618
2.01482e-06
0.00121849
-5.27584e-05
0.00122119
2.07174e-05
0.00122776
-8.19744e-05
0.00121559
-0.000177121
0.00120207
-0.000198715
0.00122985
-0.000214082
0.00126471
-0.000214637
0.00131306
-0.000204872
0.00136391
-0.000201001
0.0014093
-0.000198812
0.00145647
-0.000184609
0.00150096
-0.000177307
0.00154461
-0.000163465
0.00158703
-0.000152676
0.00162752
-0.000129833
0.0016559
-0.000116146
0.00167798
-9.53646e-05
0.00170285
-8.49854e-05
0.00171973
-7.30966e-05
0.0017325
-6.59578e-05
0.00174232
-5.92455e-05
0.00175264
-5.00206e-05
0.00175743
-4.07735e-05
0.0017584
-3.21763e-05
0.00175755
-2.50858e-05
0.00175772
-1.69465e-05
0.00175768
-1.01705e-05
0.00175687
-2.88572e-06
0.00175534
4.13898e-06
0.00175345
8.9574e-06
0.00175095
1.46448e-05
0.00174456
1.90454e-05
0.00173632
2.43849e-05
0.00172653
2.98397e-05
0.00171513
3.26789e-05
0.00170263
3.65024e-05
0.00168952
4.09383e-05
0.00167473
4.56541e-05
0.00165802
5.00346e-05
0.00164116
5.46729e-05
0.00162237
5.84025e-05
0.00160362
6.13183e-05
0.0015844
5.89882e-05
0.00156444
6.00924e-05
0.00154668
6.27954e-05
0.00152816
6.30401e-05
0.00150932
6.42198e-05
0.00149122
5.80083e-05
0.00147281
5.19284e-05
0.00145716
4.09342e-05
0.00144297
2.46807e-05
0.00142854
2.61272e-05
0.00141761
3.72205e-05
0.00140733
5.05578e-05
0.00139545
0.000100515
0.00135087
0.000335634
0.00112681
0.000552464
0.000896323
0.000651024
0.000757891
0.000681946
0.000651144
0.00065595
0.000568439
0.00059608
0.000501489
0.000520995
0.000446461
0.000458263
0.000403291
0.000423373
0.000368609
0.000390381
0.000338142
0.000370519
0.00030806
0.000340654
0.000274453
0.000320975
0.000236714
0.000286075
0.000194612
0.000290323
0.000154843
0.000290783
0.000117194
0.00033454
8.35098e-05
0.000388487
5.00113e-05
0.000594687
2.47854e-05
-3.31067e-05
-3.60605e-05
0.000807493
-3.89745e-05
0.000821473
-4.1789e-05
0.000835713
-4.44815e-05
0.000850207
-4.70151e-05
0.000864925
-4.93432e-05
0.000879856
-5.14691e-05
0.000895016
-5.33746e-05
0.000910352
-5.50086e-05
0.000925797
-5.6383e-05
0.00094134
-5.74789e-05
0.000956936
-5.82994e-05
0.000972556
-5.88222e-05
0.000988115
-5.90681e-05
0.0010036
-5.90462e-05
0.00101898
-5.87469e-05
0.00103417
-5.8186e-05
0.00104912
-5.74205e-05
0.00106384
-5.64088e-05
0.00107826
-5.51499e-05
0.0010923
-5.37081e-05
0.001106
-5.21127e-05
0.00111931
-5.03501e-05
0.00113216
-4.84288e-05
0.00114457
-4.63967e-05
0.00115654
-4.42654e-05
0.00116805
-4.20446e-05
0.00117906
-3.97363e-05
0.0011895
-3.73633e-05
0.00119934
-3.494e-05
0.00120857
-3.24817e-05
0.00121734
-2.99981e-05
0.00122562
-2.74936e-05
0.00123334
-2.49725e-05
0.00124051
-2.24324e-05
0.00124711
-1.98776e-05
0.00125312
-1.73426e-05
0.0012587
-1.4824e-05
0.00126375
-1.22669e-05
0.00126822
-9.74481e-06
0.00127221
-7.1813e-06
0.00127558
-4.87882e-06
0.00127825
-2.20642e-06
0.00128011
-5.82401e-07
0.00128106
-5.9323e-05
0.0012806
2.82626e-05
0.00128239
-6.84441e-05
0.00117149
-0.000204101
0.00117971
-0.000233326
0.00125954
-0.000262002
0.00136732
-0.000265198
0.0014688
-0.000249439
0.00154952
-0.000246688
0.0016185
-0.000242477
0.0016845
-0.00022604
0.00173716
-0.000216818
0.0017798
-0.000202463
0.00181822
-0.000181075
0.00184358
-0.000152485
0.00186079
-0.000138689
0.00187723
-0.000109828
0.00188437
-9.67682e-05
0.00189823
-8.32631e-05
0.00190207
-7.44669e-05
0.00190958
-6.42731e-05
0.00191246
-5.33636e-05
0.00191334
-4.35225e-05
0.0019122
-3.3719e-05
0.00190797
-2.59723e-05
0.00190465
-1.49335e-05
0.00190108
-8.15742e-06
0.00189784
-1.35148e-07
0.00189303
7.74431e-06
0.00188771
1.58996e-05
0.00188186
2.30741e-05
0.00187538
2.83966e-05
0.00186681
3.4746e-05
0.00185573
4.16894e-05
0.0018442
4.57005e-05
0.00183244
5.08821e-05
0.00181879
5.64725e-05
0.00180457
6.08846e-05
0.00178911
6.66614e-05
0.00177152
7.20203e-05
0.00175427
7.67296e-05
0.00173596
8.14019e-05
0.00171632
7.78011e-05
0.00169602
7.93762e-05
0.0016759
8.21408e-05
0.00165604
8.19601e-05
0.00163638
8.35535e-05
0.00161787
7.4154e-05
0.00159814
6.63865e-05
0.00157786
5.54997e-05
0.0015601
3.54337e-05
0.00153994
3.55823e-05
0.00152481
4.96975e-05
0.00151532
9.70078e-05
0.00147663
0.000325488
0.00127567
0.0005654
0.000996214
0.000690945
0.000791469
0.000758034
0.000677882
0.000764711
0.000597552
0.000723193
0.000537844
0.000651839
0.000482991
0.000565174
0.000431626
0.000494252
0.000389283
0.000454147
0.000354756
0.000419965
0.000324944
0.000403395
0.000295028
0.000377785
0.000263113
0.000362942
0.000229223
0.000326373
0.000192466
0.000328957
0.000156084
0.000325005
0.00011975
0.000367902
8.7334e-05
0.000413124
5.27422e-05
0.000618806
2.69339e-05
-4.68335e-05
-5.00378e-05
0.000820543
-5.32103e-05
0.000836462
-5.6278e-05
0.000852614
-5.91953e-05
0.000869
-6.19405e-05
0.000885617
-6.44989e-05
0.000902451
-6.68014e-05
0.000919437
-6.88128e-05
0.000936559
-7.05518e-05
0.00095383
-7.19761e-05
0.000971168
-7.30826e-05
0.000988527
-7.38674e-05
0.00100589
-7.43073e-05
0.00102316
-7.44186e-05
0.00104032
-7.42285e-05
0.00105734
-7.37208e-05
0.00107414
-7.28909e-05
0.00109066
-7.18183e-05
0.00110692
-7.04765e-05
0.00112282
-6.88536e-05
0.00113833
-6.69967e-05
0.00115342
-6.49813e-05
0.00116807
-6.27693e-05
0.00118225
-6.03695e-05
0.00119592
-5.78348e-05
0.00120909
-5.51896e-05
0.00122175
-5.24564e-05
0.00123386
-4.96223e-05
0.00124539
-4.67121e-05
0.00125625
-4.37328e-05
0.00126642
-4.07467e-05
0.00127614
-3.7722e-05
0.00128529
-3.46733e-05
0.00129388
-3.1625e-05
0.00130187
-2.85504e-05
0.00130921
-2.54513e-05
0.00131589
-2.23526e-05
0.00132202
-1.92596e-05
0.00132776
-1.61904e-05
0.00133306
-1.30435e-05
0.00133791
-9.78171e-06
0.00134231
-6.67914e-06
0.00134628
-3.00717e-06
0.00135007
-1.57243e-08
0.00135443
-6.09653e-05
0.00135908
0.000135713
0.00136728
-7.89008e-05
0.00152067
-0.000285515
0.00165859
-0.000342921
0.00174564
-0.000364443
0.00181227
-0.000345842
0.00184777
-0.000318055
0.00187991
-0.000311265
0.00190714
-0.000292933
0.00193864
-0.00026582
0.00195993
-0.000251181
0.00197917
-0.000224516
0.00199362
-0.000197533
0.00199392
-0.000169237
0.00201089
-0.000142216
0.00201705
-0.000125064
0.00202434
-9.75479e-05
0.00201635
-9.11753e-05
0.0020188
-7.80628e-05
0.00201314
-6.57271e-05
0.00201143
-5.31904e-05
0.00200985
-4.20158e-05
0.00200628
-3.15237e-05
0.00200022
-2.33794e-05
0.00199535
-1.11343e-05
0.00199071
-3.27404e-06
0.00198624
5.46211e-06
0.00198067
1.41728e-05
0.00197433
2.324e-05
0.00196765
3.25393e-05
0.00195999
3.92762e-05
0.00195052
4.56193e-05
0.00193906
5.36838e-05
0.00192579
5.84413e-05
0.0019122
6.47438e-05
0.00189764
7.14413e-05
0.0018831
7.63471e-05
0.00186615
8.2451e-05
0.0018492
8.96264e-05
0.00183108
9.52602e-05
0.00181299
0.000101415
0.00179478
9.81721e-05
0.00177491
9.9949e-05
0.00175453
0.00010253
0.00173483
0.000102019
0.00171497
0.00010426
0.00169747
9.51029e-05
0.00167857
8.46266e-05
0.00166072
7.63027e-05
0.00164576
5.04066e-05
0.00163392
4.50714e-05
0.00161983
9.08927e-05
0.00156237
0.000297384
0.00136179
0.000604352
0.00107722
0.000769472
0.000906383
0.000804287
0.000781034
0.000838503
0.000676481
0.000824588
0.000601333
0.000778486
0.000541141
0.000703879
0.00048926
0.000608237
0.000439414
0.000529802
0.000391344
0.000484509
0.000352026
0.000449909
0.000319587
0.000434936
0.000288648
0.000411297
0.000257123
0.000399847
0.000224256
0.000363436
0.000189292
0.000366103
0.000153754
0.000357899
0.000118416
0.000402499
8.83848e-05
0.000438591
5.59086e-05
0.000645283
2.8908e-05
-6.25208e-05
-6.59535e-05
0.000834823
-6.93582e-05
0.000852619
-7.26591e-05
0.000870631
-7.58061e-05
0.00088886
-7.8769e-05
0.000907307
-8.14806e-05
0.000925924
-8.39194e-05
0.000944714
-8.60763e-05
0.000963648
-8.78942e-05
0.000982655
-8.93352e-05
0.00100171
-9.04195e-05
0.00102078
-9.11401e-05
0.00103983
-9.14758e-05
0.00105877
-9.14179e-05
0.00107754
-9.10219e-05
0.00109617
-9.02634e-05
0.00111453
-8.91328e-05
0.00113258
-8.77051e-05
0.00115032
-8.59932e-05
0.00116768
-8.39592e-05
0.00118461
-8.16435e-05
0.00120105
-7.91536e-05
0.00121701
-7.64503e-05
0.00123246
-7.35272e-05
0.00124737
-7.04322e-05
0.00126169
-6.72258e-05
0.00127546
-6.39274e-05
0.00128864
-6.05226e-05
0.00130119
-5.70203e-05
0.00131306
-5.34585e-05
0.00132417
-4.98793e-05
0.00133477
-4.62683e-05
0.00134478
-4.26385e-05
0.00135418
-3.9019e-05
0.00136297
-3.53884e-05
0.00137104
-3.17353e-05
0.00137838
-2.80757e-05
0.00138483
-2.44705e-05
0.001391
-2.09066e-05
0.00139669
-1.73623e-05
0.00140172
-1.38623e-05
0.00140602
-1.0576e-05
0.0014094
-7.13015e-06
0.00141238
-4.49807e-06
0.00141517
-6.91595e-05
0.00141662
-2.29341e-05
0.00142191
-0.000224114
0.00156531
-0.00037268
0.00192629
-0.00041
0.00200499
-0.0003993
0.00201676
-0.000377307
0.00203496
-0.000344016
0.00204855
-0.000338517
0.00206537
-0.000310647
0.00207682
-0.000284072
0.00207982
-0.000264226
0.00209278
-0.000223241
0.00208903
-0.000213406
0.00209063
-0.000175145
0.00208856
-0.000144925
0.00208231
-0.000124325
0.00208112
-9.88347e-05
0.00206787
-8.60617e-05
0.00206297
-7.79039e-05
0.00205976
-6.39529e-05
0.00205308
-5.09466e-05
0.00204995
-3.85354e-05
0.00204448
-2.75631e-05
0.00203666
-1.85065e-05
0.00203017
-6.37261e-06
0.00202503
2.52041e-06
0.00201987
1.27849e-05
0.00201403
2.25775e-05
0.00200788
3.23192e-05
0.00200089
4.32194e-05
0.00199251
5.07784e-05
0.00198252
5.85112e-05
0.00197065
6.70284e-05
0.00195773
7.21678e-05
0.0019462
7.95796e-05
0.00193237
8.76121e-05
0.00191783
9.20126e-05
0.00190372
9.91937e-05
0.0018873
0.000106651
0.00187
0.000112537
0.0018506
0.000120454
0.00183109
0.000117785
0.00181133
0.00011948
0.00179143
0.000122724
0.00177284
0.00012023
0.00175494
0.000123794
0.00173761
0.000113742
0.00172021
0.000100513
0.00170159
8.90249e-05
0.00167813
6.4707e-05
0.00164142
0.000104999
0.00153694
0.000292749
0.00131672
0.00058186
0.00104958
0.000773914
0.000860569
0.000893503
0.000746106
0.000908421
0.000664308
0.000913586
0.000589391
0.000884882
0.000534349