/*--------------------------------*- C++ -*----------------------------------*\
| =========                 |                                                 |
| \\      /  F ield         | OpenFOAM: The Open Source CFD Toolbox           |
|  \\    /   O peration     | Version:  2.2.x                                 |
|   \\  /    A nd           | Web:      www.OpenFOAM.org                      |
|    \\/     M anipulation  |                                                 |
\*---------------------------------------------------------------------------*/
FoamFile
{
    version     2.0;
    format      ascii;
    class       volScalarField;
    location    "0.05";
    object      By;
}
// * * * * * * * * * * * * * * * * * * * * * * * * * * * * * * * * * * * * * //

dimensions      [1 0 -2 0 0 -1 0];

internalField   nonuniform List<scalar> 
1024
(
-1
-1
-1
-1
-1
-1
-1
-1
-1
-1
-1
-1
-1
-1
-1
-1
-1
-1
-1
-1
-1
-1
-1
-1
-1
-1
-1
-1
-1
-1
-1
-1
-1
-1
-1
-1
-1
-1
-1
-1
-1
-1
-1
-1
-1
-1
-1
-1
-1
-1
-1
-1
-1
-1
-1
-1
-1
-1
-1
-1
-1
-1
-1
-1
-1
-1
-1
-1
-1
-1
-1
-1
-1
-1
-1
-1
-1
-1
-1
-1
-1
-1
-1
-1
-1
-1
-1
-1
-1
-1
-1
-1
-1
-1
-1
-1
-1
-1
-1
-1
-1
-1
-1
-1
-1
-1
-1
-1
-1
-1
-1
-1
-1
-1
-1
-1
-1
-1
-1
-1
-1
-1
-1
-1
-1
-1
-1
-1
-1
-1
-1
-1
-1
-1
-1
-1
-1
-1
-1
-1
-1
-1
-1
-1
-1
-1
-1
-1
-1
-1
-1
-1
-1
-1
-1
-1
-1
-1
-1
-1
-1
-1
-1
-1
-1
-1
-1
-1
-1
-1
-1
-1
-1
-1
-1
-1
-1
-1
-1
-1
-1
-1
-1
-1
-1
-1
-1
-1
-1
-1
-1
-1
-1
-1
-1
-1
-1
-1
-1
-1
-1
-1
-1
-1
-1
-1
-1
-1
-1
-1
-1
-1
-1
-1
-1
-1
-1
-1
-1
-1
-1
-1
-1
-1
-1
-1
-1
-1
-1
-1
-1
-1
-1
-1
-1
-1
-1
-1
-1
-1
-1
-1
-1
-1
-1
-1
-1
-1
-1
-1
-1
-1
-1
-1
-1
-1
-1
-1
-1
-1
-1
-1
-1
-1
-1
-1
-1
-1
-1
-1
-1
-1
-1
-1
-1
-1
-1
-1
-1
-1
-1
-1
-1
-1
-1
-1
-1
-1
-1
-1
-1
-1
-1
-1
-1
-1
-1
-1
-0.999999
-0.999999
-0.999998
-0.999997
-0.999994
-0.999991
-0.999985
-0.999976
-0.999962
-0.999941
-0.999908
-0.999859
-0.999787
-0.999682
-0.999533
-0.999322
-0.999031
-0.998635
-0.998107
-0.997414
-0.996523
-0.995398
-0.994007
-0.992317
-0.990304
-0.98795
-0.985244
-0.982183
-0.978773
-0.97502
-0.971015
-0.967091
-0.963319
-0.959646
-0.956158
-0.952697
-0.949434
-0.946169
-0.943036
-0.939922
-0.936852
-0.933815
-0.930773
-0.927735
-0.924692
-0.92163
-0.918528
-0.915408
-0.912316
-0.909307
-0.906336
-0.903551
-0.900838
-0.898366
-0.896073
-0.893994
-0.892219
-0.89062
-0.889371
-0.888305
-0.887519
-0.886944
-0.886534
-0.886311
-0.886171
-0.886132
-0.886127
-0.886173
-0.886337
-0.886678
-0.887208
-0.887699
-0.888086
-0.888391
-0.888611
-0.888775
-0.888888
-0.888963
-0.889019
-0.889052
-0.889078
-0.889095
-0.889106
-0.889116
-0.88912
-0.889121
-0.889122
-0.889119
-0.889111
-0.889092
-0.889054
-0.888988
-0.888882
-0.888722
-0.888548
-0.888406
-0.888299
-0.888225
-0.888179
-0.888156
-0.888148
-0.888148
-0.888161
-0.888201
-0.888279
-0.888351
-0.888401
-0.888431
-0.888445
-0.888448
-0.888444
-0.888422
-0.888367
-0.888274
-0.888194
-0.88814
-0.888107
-0.888092
-0.888089
-0.888092
-0.888115
-0.888158
-0.888192
-0.88821
-0.888216
-0.888215
-0.8882
-0.888153
-0.888064
-0.887976
-0.887914
-0.88788
-0.887864
-0.887861
-0.887866
-0.887892
-0.887933
-0.887962
-0.887979
-0.887979
-0.887909
-0.887366
-0.883099
-0.851664
-0.727366
-0.601352
-0.55488
-0.541346
-0.537617
-0.53677
-0.536553
-0.536411
-0.536404
-0.53647
-0.536553
-0.536586
-0.536601
-0.536597
-0.536565
-0.53652
-0.536491
-0.536479
-0.536476
-0.536469
-0.53647
-0.536496
-0.53655
-0.536625
-0.536694
-0.536746
-0.536767
-0.53676
-0.536751
-0.536727
-0.536697
-0.536692
-0.536717
-0.536783
-0.536865
-0.53693
-0.536979
-0.537008
-0.537005
-0.536973
-0.536945
-0.536941
-0.536987
-0.537077
-0.537197
-0.53731
-0.53737
-0.537366
-0.537286
-0.537185
-0.537151
-0.53722
-0.537439
-0.537725
-0.537924
-0.537971
-0.537803
-0.537506
-0.537345
-0.537324
-0.537522
-0.537956
-0.538134
-0.538173
-0.53815
-0.537982
-0.538061
-0.537736
-0.537176
-0.535787
-0.533106
-0.52858
-0.520883
-0.509374
-0.494703
-0.476062
-0.45454
-0.432701
-0.411978
-0.390104
-0.353498
-0.302236
-0.241658
-0.180916
-0.0459908
0.177371
0.413742
0.500869
0.523922
0.528829
0.529723
0.529808
0.5297
0.529494
0.529114
0.528332
0.526931
0.524654
0.52148
0.519451
0.518961
0.519114
0.51991
0.521833
0.525152
0.529738
0.535634
0.542649
0.550251
0.55835
0.566882
0.575453
0.584139
0.592883
0.601605
0.61035
0.619115
0.627859
0.636626
0.645442
0.654228
0.663073
0.67192
0.680782
0.689678
0.698549
0.70748
0.716397
0.725367
0.734333
0.743334
0.75236
0.761392
0.770467
0.779539
0.788662
0.797779
0.806946
0.816108
0.825321
0.834526
0.843778
0.853027
0.86232
0.871606
0.880925
0.890242
0.899553
0.908828
0.917949
0.926851
0.935501
0.943843
0.951807
0.959309
0.966261
0.972578
0.97819
0.983048
0.987141
0.990487
0.993141
0.99518
0.996699
0.997796
0.998564
0.999087
0.999433
0.999655
0.999795
0.999881
0.999932
0.999962
0.999979
0.999989
0.999994
0.999997
0.999998
0.999999
1
1
1
1
1
1
1
1
1
1
1
1
1
1
1
1
1
1
1
1
1
1
1
1
1
1
1
1
1
1
1
1
1
1
1
1
1
1
1
1
1
1
1
1
1
1
1
1
1
1
1
1
1
1
1
1
1
1
1
1
1
1
1
1
1
1
1
1
1
1
1
1
1
1
1
1
1
1
1
1
1
1
1
1
1
1
1
1
1
1
1
1
1
1
1
1
1
1
1
1
1
1
1
1
1
1
1
1
1
1
1
1
1
1
1
1
1
1
1
1
1
1
1
1
1
1
1
1
1
1
1
1
1
1
1
1
1
1
1
1
1
1
1
1
1
1
1
1
1
1
1
1
1
1
1
1
1
1
1
1
1
1
1
1
1
1
1
1
1
1
1
1
1
1
1
1
1
1
1
1
1
1
1
1
1
1
1
1
1
1
1
1
1
1
1
1
1
1
1
1
1
1
1
1
1
1
1
1
1
1
1
1
1
1
1
1
1
1
1
1
1
1
1
1
1
1
1
1
1
1
1
1
1
1
1
1
1
1
1
1
1
1
1
1
1
1
1
1
1
1
1
1
1
1
1
1
1
1
1
1
1
1
1
1
1
1
1
1
1
1
1
1
1
1
1
1
1
1
1
1
1
1
1
1
1
1
1
1
1
1
1
1
1
1
1
1
1
1
1
1
1
1
1
1
1
1
1
1
1
1
1
1
1
1
1
1
1
1
1
1
1
1
1
1
1
1
1
1
1
1
1
1
1
1
1
1
1
1
1
1
1
1
1
1
1
1
1
1
1
1
1
1
1
1
1
1
1
1
1
1
1
1
1
1
1
1
1
1
1
1
1
1
1
1
1
1
1
1
1
1
1
1
1
1
1
1
1
1
1
1
1
1
1
1
1
1
1
1
1
1
1
1
1
)
;

boundaryField
{
    front-back
    {
        type            empty;
    }
    inlet-outlet
    {
        type            zeroGradient;
    }
    top-down
    {
        type            empty;
    }
}


// ************************************************************************* //
