/*--------------------------------*- C++ -*----------------------------------*\
| =========                 |                                                 |
| \\      /  F ield         | OpenFOAM: The Open Source CFD Toolbox           |
|  \\    /   O peration     | Version:  2.2.x                                 |
|   \\  /    A nd           | Web:      www.OpenFOAM.org                      |
|    \\/     M anipulation  |                                                 |
\*---------------------------------------------------------------------------*/
FoamFile
{
    version     2.0;
    format      ascii;
    class       surfaceScalarField;
    location    "0.05";
    object      cfmax;
}
// * * * * * * * * * * * * * * * * * * * * * * * * * * * * * * * * * * * * * //

dimensions      [0 3 -1 0 0 0 0];

internalField   nonuniform List<scalar> 
1023
(
3.65856
3.65856
3.65856
3.65856
3.65856
3.65856
3.65856
3.65856
3.65856
3.65856
3.65856
3.65856
3.65856
3.65856
3.65856
3.65856
3.65856
3.65856
3.65856
3.65856
3.65856
3.65856
3.65856
3.65856
3.65856
3.65856
3.65856
3.65856
3.65856
3.65856
3.65856
3.65856
3.65856
3.65856
3.65856
3.65856
3.65856
3.65856
3.65856
3.65856
3.65856
3.65856
3.65856
3.65856
3.65856
3.65856
3.65856
3.65856
3.65856
3.65856
3.65856
3.65856
3.65856
3.65856
3.65856
3.65856
3.65856
3.65856
3.65856
3.65856
3.65856
3.65856
3.65856
3.65856
3.65856
3.65856
3.65856
3.65856
3.65856
3.65856
3.65856
3.65856
3.65856
3.65856
3.65856
3.65856
3.65856
3.65856
3.65856
3.65856
3.65856
3.65856
3.65856
3.65856
3.65856
3.65856
3.65856
3.65856
3.65856
3.65856
3.65856
3.65856
3.65856
3.65856
3.65856
3.65856
3.65856
3.65856
3.65856
3.65856
3.65856
3.65856
3.65856
3.65856
3.65856
3.65856
3.65856
3.65856
3.65856
3.65856
3.65856
3.65856
3.65856
3.65856
3.65856
3.65856
3.65856
3.65856
3.65856
3.65856
3.65856
3.65856
3.65856
3.65856
3.65856
3.65856
3.65856
3.65856
3.65856
3.65856
3.65856
3.65856
3.65856
3.65856
3.65856
3.65856
3.65856
3.65856
3.65856
3.65856
3.65856
3.65856
3.65856
3.65856
3.65856
3.65856
3.65856
3.65856
3.65856
3.65856
3.65856
3.65856
3.65856
3.65856
3.65856
3.65856
3.65856
3.65856
3.65856
3.65856
3.65856
3.65856
3.65856
3.65856
3.65856
3.65856
3.65856
3.65856
3.65856
3.65856
3.65856
3.65856
3.65856
3.65856
3.65856
3.65856
3.65856
3.65856
3.65856
3.65856
3.65856
3.65856
3.65856
3.65856
3.65856
3.65856
3.65856
3.65856
3.65856
3.65856
3.65856
3.65856
3.65856
3.65856
3.65856
3.65856
3.65856
3.65856
3.65856
3.65856
3.65856
3.65856
3.65856
3.65856
3.65856
3.65856
3.65856
3.65856
3.65856
3.65856
3.65856
3.65856
3.65856
3.65856
3.65856
3.65856
3.65856
3.65856
3.65856
3.65856
3.65856
3.65856
3.65856
3.65856
3.65856
3.65856
3.65856
3.65856
3.65856
3.65856
3.65856
3.65856
3.65856
3.65856
3.65856
3.65856
3.65856
3.65856
3.65856
3.65856
3.65856
3.65856
3.65856
3.65856
3.65856
3.65856
3.65856
3.65856
3.65856
3.65856
3.65856
3.65856
3.65856
3.65856
3.65856
3.65856
3.65856
3.65856
3.65856
3.65856
3.65856
3.65856
3.65856
3.65856
3.65856
3.65856
3.65856
3.65856
3.65856
3.65856
3.65856
3.65856
3.65856
3.65856
3.65856
3.65856
3.65856
3.65856
3.65856
3.65856
3.65856
3.65856
3.65856
3.65856
3.65856
3.65856
3.65856
3.65856
3.65856
3.65856
3.65856
3.65856
3.65856
3.65856
3.65856
3.65856
3.65856
3.65856
3.65856
3.65856
3.65856
3.65857
3.65857
3.65858
3.65858
3.6586
3.65862
3.65865
3.65869
3.65876
3.65887
3.65901
3.65922
3.65951
3.65991
3.66046
3.66117
3.66211
3.6633
3.6648
3.66664
3.66886
3.67149
3.67455
3.67804
3.68197
3.68634
3.69115
3.69612
3.70102
3.70549
3.71025
3.71432
3.71875
3.72262
3.72669
3.73051
3.73432
3.73817
3.74191
3.74566
3.74943
3.75321
3.75703
3.76092
3.76474
3.76869
3.77224
3.77609
3.77929
3.78271
3.78571
3.78832
3.79105
3.79286
3.79497
3.79625
3.7975
3.79842
3.79894
3.79947
3.79959
3.79974
3.79975
3.79975
3.79969
3.79945
3.79896
3.79822
3.79765
3.7972
3.79686
3.7966
3.79643
3.7963
3.79621
3.79616
3.79611
3.79609
3.79606
3.79605
3.79604
3.79603
3.79603
3.79603
3.79604
3.79605
3.79608
3.79614
3.79624
3.79639
3.79661
3.79681
3.79697
3.79709
3.79716
3.79721
3.79722
3.79722
3.79722
3.79721
3.79715
3.79703
3.79695
3.79689
3.79686
3.79684
3.79684
3.79685
3.79689
3.79698
3.79709
3.79718
3.79724
3.79726
3.79727
3.79727
3.79726
3.79723
3.79716
3.79712
3.7971
3.7971
3.7971
3.79713
3.7972
3.79733
3.79742
3.79748
3.7975
3.79751
3.79751
3.7975
3.79745
3.79739
3.79737
3.79731
3.79722
3.79634
3.78868
3.72332
3.29305
2.88386
2.87764
2.8729
2.87009
2.86947
2.86892
2.86894
2.86895
2.86902
2.86923
2.86945
2.86967
2.86978
2.86984
2.86985
2.86984
2.86988
2.87004
2.87035
2.87084
2.87151
2.87241
2.87362
2.87522
2.87735
2.87889
2.87953
2.87946
2.87934
2.87741
2.87125
2.85681
2.82782
2.77608
2.69361
2.5773
2.43317
2.31432
2.2404
2.19069
2.15781
2.13657
2.12331
2.1153
2.11059
2.10781
2.10605
2.10476
2.10359
2.10263
2.10196
2.10165
2.10168
2.10167
2.10152
2.10116
2.10047
2.09971
2.09928
2.09913
2.09957
2.10017
2.10044
2.10041
2.10031
2.09881
2.09815
2.09724
2.09581
2.09421
2.08869
2.07952
2.06354
2.03933
2.01445
1.98739
1.95979
1.93519
1.91206
1.88216
1.84163
1.8008
1.76168
1.72622
1.73125
1.88152
2.03098
2.08635
2.10149
2.10531
2.10629
2.10661
2.10676
2.10704
2.10759
2.10856
2.11023
2.11323
2.11564
2.11628
2.11628
2.11616
2.11484
2.11299
2.10938
2.10461
2.09876
2.09257
2.08524
2.07777
2.07048
2.06264
2.05494
2.04729
2.03955
2.03183
2.02418
2.01641
2.00867
2.00103
1.9932
1.98545
1.97772
1.96987
1.9622
1.95434
1.94662
1.93881
1.93105
1.92323
1.91542
1.90766
1.89979
1.89204
1.88415
1.87641
1.86852
1.86077
1.85288
1.84512
1.83725
1.82948
1.82161
1.81385
1.806
1.79823
1.79043
1.78266
1.77499
1.76755
1.76033
1.75336
1.7467
1.7404
1.73454
1.72919
1.72439
1.7202
1.71662
1.71367
1.71129
1.70944
1.70805
1.70702
1.70629
1.70579
1.70545
1.70523
1.70509
1.70501
1.70496
1.70492
1.70491
1.7049
1.70489
1.70489
1.70489
1.70488
1.70488
1.70488
1.70488
1.70488
1.70488
1.70488
1.70488
1.70488
1.70488
1.70488
1.70488
1.70488
1.70488
1.70488
1.70488
1.70488
1.70488
1.70488
1.70488
1.70488
1.70488
1.70488
1.70488
1.70488
1.70488
1.70488
1.70488
1.70488
1.70488
1.70488
1.70488
1.70488
1.70488
1.70488
1.70488
1.70488
1.70488
1.70488
1.70488
1.70488
1.70488
1.70488
1.70488
1.70488
1.70488
1.70488
1.70488
1.70488
1.70488
1.70488
1.70488
1.70488
1.70488
1.70488
1.70488
1.70488
1.70488
1.70488
1.70488
1.70488
1.70488
1.70488
1.70488
1.70488
1.70488
1.70488
1.70488
1.70488
1.70488
1.70488
1.70488
1.70488
1.70488
1.70488
1.70488
1.70488
1.70488
1.70488
1.70488
1.70488
1.70488
1.70488
1.70488
1.70488
1.70488
1.70488
1.70488
1.70488
1.70488
1.70488
1.70488
1.70488
1.70488
1.70488
1.70488
1.70488
1.70488
1.70488
1.70488
1.70488
1.70488
1.70488
1.70488
1.70488
1.70488
1.70488
1.70488
1.70488
1.70488
1.70488
1.70488
1.70488
1.70488
1.70488
1.70488
1.70488
1.70488
1.70488
1.70488
1.70488
1.70488
1.70488
1.70488
1.70488
1.70488
1.70488
1.70488
1.70488
1.70488
1.70488
1.70488
1.70488
1.70488
1.70488
1.70488
1.70488
1.70488
1.70488
1.70488
1.70488
1.70488
1.70488
1.70488
1.70488
1.70488
1.70488
1.70488
1.70488
1.70488
1.70488
1.70488
1.70488
1.70488
1.70488
1.70488
1.70488
1.70488
1.70488
1.70488
1.70488
1.70488
1.70488
1.70488
1.70488
1.70488
1.70488
1.70488
1.70488
1.70488
1.70488
1.70488
1.70488
1.70488
1.70488
1.70488
1.70488
1.70488
1.70488
1.70488
1.70488
1.70488
1.70488
1.70488
1.70488
1.70488
1.70488
1.70488
1.70488
1.70488
1.70488
1.70488
1.70488
1.70488
1.70488
1.70488
1.70488
1.70488
1.70488
1.70488
1.70488
1.70488
1.70488
1.70488
1.70488
1.70488
1.70488
1.70488
1.70488
1.70488
1.70488
1.70488
1.70488
1.70488
1.70488
1.70488
1.70488
1.70488
1.70488
1.70488
1.70488
1.70488
1.70488
1.70488
1.70488
1.70488
1.70488
1.70488
1.70488
1.70488
1.70488
1.70488
1.70488
1.70488
1.70488
1.70488
1.70488
1.70488
1.70488
1.70488
1.70488
1.70488
1.70488
1.70488
1.70488
1.70488
1.70488
1.70488
1.70488
1.70488
1.70488
1.70488
1.70488
1.70488
1.70488
1.70488
1.70488
1.70488
1.70488
1.70488
1.70488
1.70488
1.70488
1.70488
1.70488
1.70488
1.70488
1.70488
1.70488
1.70488
1.70488
1.70488
1.70488
1.70488
1.70488
1.70488
1.70488
1.70488
1.70488
1.70488
1.70488
1.70488
1.70488
1.70488
1.70488
1.70488
1.70488
1.70488
1.70488
1.70488
1.70488
1.70488
1.70488
1.70488
1.70488
1.70488
1.70488
1.70488
1.70488
1.70488
1.70488
1.70488
1.70488
1.70488
1.70488
1.70488
1.70488
1.70488
1.70488
1.70488
1.70488
1.70488
1.70488
1.70488
1.70488
1.70488
1.70488
1.70488
1.70488
1.70488
1.70488
1.70488
1.70488
1.70488
1.70488
1.70488
1.70488
1.70488
1.70488
1.70488
1.70488
1.70488
1.70488
1.70488
1.70488
1.70488
1.70488
1.70488
1.70488
1.70488
1.70488
1.70488
1.70488
1.70488
1.70488
1.70488
1.70488
1.70488
1.70488
1.70488
1.70488
1.70488
1.70488
1.70488
1.70488
1.70488
1.70488
1.70488
1.70488
1.70488
1.70488
1.70488
1.70488
1.70488
1.70488
1.70488
1.70488
1.70488
1.70488
1.70488
1.70488
1.70488
1.70488
1.70488
1.70488
1.70488
1.70488
1.70488
1.70488
1.70488
1.70488
1.70488
1.70488
1.70488
1.70488
1.70488
1.70488
1.70488
1.70488
1.70488
1.70488
1.70488
1.70488
1.70488
1.70488
1.70488
1.70488
1.70488
1.70488
1.70488
1.70488
1.70488
1.70488
1.70488
)
;

boundaryField
{
    front-back
    {
        type            empty;
        value           nonuniform 0();
    }
    inlet-outlet
    {
        type            calculated;
        value           nonuniform List<scalar> 2(1.70488 3.65856);
    }
    top-down
    {
        type            empty;
        value           nonuniform 0();
    }
}


// ************************************************************************* //
