/*--------------------------------*- C++ -*----------------------------------*\
| =========                 |                                                 |
| \\      /  F ield         | OpenFOAM: The Open Source CFD Toolbox           |
|  \\    /   O peration     | Version:  2.2.x                                 |
|   \\  /    A nd           | Web:      www.OpenFOAM.org                      |
|    \\/     M anipulation  |                                                 |
\*---------------------------------------------------------------------------*/
FoamFile
{
    version     2.0;
    format      ascii;
    class       surfaceScalarField;
    location    "1.75";
    object      phi;
}
// * * * * * * * * * * * * * * * * * * * * * * * * * * * * * * * * * * * * * //

dimensions      [1 0 -1 0 0 0 0];

internalField   nonuniform List<scalar> 
28084
(
0.000746226
0.000742997
0.000740225
0.000737894
0.000735984
0.000734467
0.000733321
0.000732528
0.000732069
0.000731885
0.000731977
0.000732327
0.000732868
0.000733604
0.000734529
0.000735577
0.000736663
0.000737945
0.000739283
0.000740615
0.000741855
0.000743285
0.000744726
0.000746119
0.000747298
0.000748248
0.000749435
0.00075058
0.000751655
0.00075269
0.000753466
0.000754074
0.000754395
0.000754543
0.00075458
0.000754644
0.000754693
0.000754701
0.000754657
0.000754121
0.000753332
0.000752426
0.000751367
0.00074999
0.000748697
0.000757183
0.000761158
0.000745851
0.000739172
0.000750148
0.000771447
0.000801351
0.000834465
0.000870313
0.000904928
0.000937947
0.000968257
0.000996675
0.00102224
0.00104574
0.00106815
0.00108854
0.00110735
0.00112429
0.00113944
0.00115293
0.00116481
0.00117521
0.00118457
0.00119338
0.00120065
0.00120652
0.00121162
0.00121616
0.00122001
0.00122265
0.0012242
0.00122509
0.00122467
0.00122351
0.00122197
0.00122001
0.00121738
0.00121367
0.00120925
0.00120475
0.00119968
0.00119373
0.0011872
0.00118054
0.00117453
0.00116835
0.0011624
0.00115758
0.00115284
0.00114876
0.0011454
0.00114297
0.00114179
0.00114243
0.00114506
0.00114819
0.00115388
0.00115984
0.00116475
0.00115318
0.00109683
0.00100093
0.000880247
0.000764534
0.000665089
0.000579325
0.000499549
0.00042446
0.000346368
0.000269631
0.00018686
0.000107678
3.71224e-06
3.23226e-06
0.000749743
2.77447e-06
0.000748792
2.33422e-06
0.000748272
1.91348e-06
0.000748164
1.51957e-06
0.000748451
1.14451e-06
0.000749107
7.95053e-07
0.00075011
4.76155e-07
0.000751442
1.74557e-07
0.000753078
-9.33654e-08
0.000754964
-3.2661e-07
0.000757097
-5.60856e-07
0.000759454
-7.48064e-07
0.000761971
-8.73869e-07
0.000764648
-1.0336e-06
0.000767472
-1.17113e-06
0.000770378
-1.23778e-06
0.000773289
-1.26864e-06
0.000776342
-1.33457e-06
0.000779397
-1.38411e-06
0.000782399
-1.40071e-06
0.000785271
-1.31566e-06
0.000788277
-1.26614e-06
0.000791241
-1.25707e-06
0.000794064
-1.25142e-06
0.000796623
-1.18031e-06
0.000798962
-1.05342e-06
0.000801442
-9.51596e-07
0.000803825
-8.40743e-07
0.000806073
-7.20837e-07
0.000808205
-6.17808e-07
0.000810038
-5.1248e-07
0.000811632
-3.71692e-07
0.000812894
-2.59965e-07
0.000813953
-1.07235e-07
0.000814814
5.44539e-08
0.000815679
2.10452e-07
0.000816481
4.01561e-07
0.000817222
5.48982e-07
0.000817852
7.10676e-07
0.000817889
8.56777e-07
0.000817635
1.04627e-06
0.000817225
1.12271e-06
0.000816538
1.20569e-06
0.000815422
-8.26888e-06
0.000814199
-7.35461e-06
0.000821262
1.19151e-05
0.000814893
6.39258e-06
0.000792348
-1.09653e-05
0.000787862
-2.10187e-05
0.000802904
-3.05296e-05
0.000828588
-3.20895e-05
0.000860641
-3.59603e-05
0.000892797
-3.41014e-05
0.000926727
-3.23553e-05
0.000960325
-3.01449e-05
0.000992257
-2.79458e-05
0.00102234
-2.55939e-05
0.00105111
-2.3435e-05
0.00107744
-2.18168e-05
0.0011015
-1.99935e-05
0.00112435
-1.83644e-05
0.00114525
-1.6927e-05
0.00116458
-1.53772e-05
0.00118207
-1.36079e-05
0.00119712
-1.20848e-05
0.00121019
-1.04781e-05
0.00122184
-9.12915e-06
0.00123215
-8.06743e-06
0.00124135
-6.80046e-06
0.00124955
-5.37152e-06
0.00125676
-4.54808e-06
0.00126314
-3.98703e-06
0.00126869
-3.42856e-06
0.00127275
-2.33979e-06
0.00127534
-1.58576e-06
0.00127675
-9.69942e-07
0.00127717
8.33869e-08
0.00127704
9.64661e-07
0.00127554
1.61066e-06
0.00127335
2.17593e-06
0.00127102
2.9671e-06
0.00126813
4.17714e-06
0.00126407
4.78131e-06
0.00125906
4.73067e-06
0.00125361
5.1793e-06
0.00124857
5.63752e-06
0.00124259
6.30574e-06
0.00123544
6.57069e-06
0.00122788
5.77167e-06
0.00122012
6.24621e-06
0.00121292
6.37814e-06
0.00120588
5.15478e-06
0.001199
4.98115e-06
0.00119327
4.17779e-06
0.00118769
2.82662e-06
0.00118284
2.10803e-06
0.00117878
7.47913e-07
0.00117531
-4.79671e-07
0.00117316
-2.43424e-06
0.00117236
-3.08649e-06
0.00117348
-5.61172e-06
0.0011743
-5.50195e-06
0.00117735
-3.89246e-06
0.00117833
1.25746e-05
0.00116873
5.86241e-05
0.00112724
9.73745e-05
0.00103201
0.000121614
0.000900183
0.000116285
0.000779945
9.97885e-05
0.000680541
8.60805e-05
0.00059439
7.97722e-05
0.00051731
7.4955e-05
0.000445094
7.79499e-05
0.00037763
7.65707e-05
0.000307446
8.27505e-05
0.000238614
7.93442e-05
0.000163967
0.000108082
8.74532e-05
5.11259e-06
4.18581e-06
0.000754438
3.29811e-06
0.000755738
2.44514e-06
0.000757439
1.62953e-06
0.000759528
8.65836e-07
0.000761985
1.40111e-07
0.000764788
-5.32856e-07
0.000767916
-1.14683e-06
0.000771351
-1.72053e-06
0.000775053
-2.22769e-06
0.000778988
-2.66358e-06
0.000783139
-3.09501e-06
0.00078748
-3.43311e-06
0.000791952
-3.65393e-06
0.00079655
-3.92667e-06
0.000801248
-4.16384e-06
0.000805994
-4.24598e-06
0.000810718
-4.26145e-06
0.000815512
-4.33948e-06
0.000820257
-4.4055e-06
0.000824911
-4.35718e-06
0.000829427
-4.15344e-06
0.000833966
-4.00146e-06
0.000838389
-3.92151e-06
0.000842627
-3.85287e-06
0.000846614
-3.6484e-06
0.000850375
-3.34212e-06
0.000854129
-3.06988e-06
0.000857722
-2.78456e-06
0.000861096
-2.50142e-06
0.000864265
-2.23845e-06
0.000867134
-1.97513e-06
0.000869706
-1.65959e-06
0.000871946
-1.35625e-06
0.000873973
-1.01066e-06
0.000875723
-6.43388e-07
0.000877382
-2.86933e-07
0.000878855
1.11752e-07
0.000880194
5.03067e-07
0.000881327
9.05888e-07
0.000881933
1.28823e-06
0.000882266
1.69846e-06
0.000882385
1.93932e-06
0.0008821
2.41769e-06
0.000881117
-1.51856e-05
0.000880136
-4.98495e-06
0.000885908
3.12219e-05
0.000866153
1.05506e-05
0.000839577
-2.59109e-05
0.000838153
-4.63497e-05
0.000854731
-6.25961e-05
0.000883832
-6.39961e-05
0.000919758
-6.9791e-05
0.000957501
-6.72071e-05
0.000994517
-6.3749e-05
0.00103045
-5.99142e-05
0.00106377
-5.59195e-05
0.0010942
-5.16722e-05
0.00112252
-4.75441e-05
0.00114852
-4.4148e-05
0.00117229
-4.0621e-05
0.00119511
-3.69466e-05
0.00121568
-3.42324e-05
0.00123451
-3.11241e-05
0.00125204
-2.71839e-05
0.0012658
-2.39443e-05
0.00127763
-2.08968e-05
0.00128815
-1.80872e-05
0.0012974
-1.57916e-05
0.00130569
-1.34955e-05
0.001313
-1.11647e-05
0.00131923
-9.25632e-06
0.00132481
-7.24053e-06
0.00132976
-5.51099e-06
0.00133346
-3.39837e-06
0.00133569
-2.07629e-06
0.00133635
-9.41288e-07
0.00133579
1.20637e-06
0.00133463
2.85044e-06
0.00133217
3.83076e-06
0.00132893
5.17935e-06
0.00132546
7.2467e-06
0.00132132
9.50898e-06
0.00131605
1.05578e-05
0.00130991
9.90468e-06
0.00130346
1.12621e-05
0.00129678
1.24657e-05
0.00128962
1.36247e-05
0.00128146
1.42107e-05
0.00127292
1.27221e-05
0.00126414
1.33521e-05
0.00125531
1.36582e-05
0.00124723
1.12019e-05
0.00123947
1.08472e-05
0.00123208
9.1854e-06
0.00122544
6.50843e-06
0.00121995
5.24087e-06
0.00121491
2.53435e-06
0.00121013
4.92112e-07
0.00120651
-3.48558e-06
0.0012034
-3.8166e-06
0.00120243
-8.46943e-06
0.00120128
-5.8931e-06
0.00119702
6.92955e-06
0.00118481
5.53137e-05
0.00113804
0.000155903
0.00103732
0.000230294
0.000900381
0.000242527
0.000777344
0.000216226
0.000680123
0.000186329
0.000599325
0.000163466
0.000526621
0.000152015
0.000460634
0.000142303
0.000397941
0.000148005
0.000337843
0.000145264
0.000275076
0.000157439
0.0002125
0.00015609
0.000144673
0.000195978
7.52346e-05
4.23077e-06
2.88847e-06
0.000760311
1.59924e-06
0.000763829
3.60128e-07
0.000767721
-8.24681e-07
0.000771975
-1.93616e-06
0.000776572
-2.98654e-06
0.000781492
-3.95952e-06
0.000786719
-4.84289e-06
0.000792225
-5.66071e-06
0.000797966
-6.37901e-06
0.000803927
-6.99112e-06
0.000810071
-7.58177e-06
0.000816368
-8.03617e-06
0.000822772
-8.32768e-06
0.000829267
-8.65871e-06
0.000835812
-8.94942e-06
0.000842371
-9.00667e-06
0.000848897
-8.9656e-06
0.000855402
-9.00593e-06
0.000861809
-9.04201e-06
0.000868109
-8.84555e-06
0.000874251
-8.48882e-06
0.000880295
-8.19096e-06
0.000886141
-7.99057e-06
0.000891789
-7.79636e-06
0.000897211
-7.38727e-06
0.000902405
-6.85236e-06
0.00090741
-6.33732e-06
0.000912151
-5.81885e-06
0.000916581
-5.33694e-06
0.000920753
-4.86267e-06
0.000924654
-4.38575e-06
0.000928246
-3.83707e-06
0.000931525
-3.26648e-06
0.000934534
-2.71519e-06
0.000937242
-2.08409e-06
0.000939599
-1.4346e-06
0.000941708
-7.52394e-07
0.000943635
-9.41088e-08
0.00094523
5.54823e-07
0.000946374
1.19072e-06
0.000947369
1.81806e-06
0.000947969
2.4855e-06
0.000947919
3.26285e-06
0.000947562
-2.08536e-05
0.000947398
1.00088e-05
0.000953262
5.47744e-05
0.000930076
1.22705e-05
0.000905763
-4.20724e-05
0.000903017
-7.4791e-05
0.000923286
-9.84543e-05
0.000955689
-0.000102102
0.000994861
-0.00010664
0.00103552
-0.000102536
0.00107572
-9.62983e-05
0.00111421
-9.00517e-05
0.00114942
-8.32789e-05
0.00118057
-7.7347e-05
0.00120861
-7.16829e-05
0.00123486
-6.6081e-05
0.0012581
-6.06367e-05
0.00128014
-5.51403e-05
0.00129986
-5.06677e-05
0.00131782
-4.54152e-05
0.00133414
-3.97541e-05
0.00134569
-3.50771e-05
0.00135619
-3.06176e-05
0.00136485
-2.64403e-05
0.00137222
-2.28563e-05
0.0013791
-1.94877e-05
0.00138515
-1.62959e-05
0.00139025
-1.34719e-05
0.00139469
-1.01349e-05
0.00139847
-6.92006e-06
0.00140122
-3.6643e-06
0.00140291
-1.75281e-06
0.001403
5.90017e-08
0.00140132
3.37277e-06
0.00139907
5.73215e-06
0.00139563
7.06232e-06
0.00139115
9.35462e-06
0.00138618
1.2629e-05
0.00138054
1.58523e-05
0.00137403
1.74033e-05
0.00136659
1.66678e-05
0.00135899
1.83939e-05
0.00135082
2.02588e-05
0.00134203
2.18864e-05
0.00133266
2.28208e-05
0.00132291
2.12485e-05
0.00131298
2.1501e-05
0.00130278
2.17768e-05
0.00129329
1.89502e-05
0.00128449
1.77497e-05
0.00127542
1.48771e-05
0.00126715
1.14542e-05
0.0012605
9.64907e-06
0.00125397
5.64367e-06
0.00124738
3.52312e-06
0.00124262
-2.72865e-06
0.00123714
-2.74826e-06
0.00123208
-3.60148e-06
0.00122389
6.99138e-06
0.00119935
5.51899e-05
0.00114576
0.000157208
0.00103161
0.000294259
0.000868922
0.000353868
0.000751806
0.00034025
0.000664868
0.000297511
0.000593341
0.000259499
0.000529861
0.000229844
0.00047046
0.000214805
0.000413097
0.000202283
0.000357096
0.000210659
0.000302048
0.00020776
0.000245334
0.000225367
0.000188488
0.000225833
0.000127956
0.000271702
6.5449e-05
1.10142e-06
-6.25926e-07
0.000767365
-2.29005e-06
0.000773063
-3.89051e-06
0.00077911
-5.41903e-06
0.000785496
-6.85708e-06
0.000792201
-8.20881e-06
0.000799206
-9.45628e-06
0.000806499
-1.05867e-05
0.000814044
-1.16214e-05
0.000821795
-1.25175e-05
0.00082975
-1.32833e-05
0.000837862
-1.39914e-05
0.000846081
-1.4527e-05
0.000854394
-1.48692e-05
0.00086276
-1.52082e-05
0.000871118
-1.54934e-05
0.000879476
-1.54819e-05
0.000887772
-1.53708e-05
0.000895983
-1.53181e-05
0.000904004
-1.52307e-05
0.000911938
-1.48468e-05
0.000919675
-1.43251e-05
0.000927217
-1.38351e-05
0.000934444
-1.34369e-05
0.0009415
-1.3018e-05
0.000948354
-1.23561e-05
0.000954926
-1.15466e-05
0.000961192
-1.07758e-05
0.000967099
-9.95844e-06
0.000972452
-9.23395e-06
0.000977652
-8.48913e-06
0.000982605
-7.72979e-06
0.000987216
-6.87431e-06
0.000991495
-6.00949e-06
0.000995505
-5.1286e-06
0.000999076
-4.20422e-06
0.00100223
-3.25524e-06
0.00100498
-2.26836e-06
0.00100738
-1.24689e-06
0.00100932
-3.55363e-07
0.00101111
6.16449e-07
0.00101274
1.50566e-06
0.00101394
2.46524e-06
0.00101442
3.85497e-06
0.00101482
-2.63849e-05
0.00101523
2.84041e-05
0.00102174
7.57335e-05
0.00101392
1.54408e-05
0.000982897
-6.18037e-05
0.000983179
-0.000106703
0.00100786
-0.000137285
0.00104537
-0.000143175
0.00108961
-0.00014638
0.00113255
-0.000140508
0.00117498
-0.000130198
0.00121387
-0.000121269
0.00124964
-0.000111163
0.0012816
-0.00010352
0.00130953
-9.56366e-05
0.00133675
-8.74494e-05
0.00135958
-7.95737e-05
0.00138146
-7.17658e-05
0.00139994
-6.53686e-05
0.00141767
-5.75011e-05
0.00143258
-5.06459e-05
0.00144155
-4.47182e-05
0.00145181
-3.89422e-05
0.00145911
-3.35148e-05
0.00146409
-2.88475e-05
0.00146923
-2.46081e-05
0.0014739
-2.0629e-05
0.00147734
-1.67774e-05
0.00147994
-1.23606e-05
0.00148196
-7.72802e-06
0.0014831
-3.20514e-06
0.00148344
-3.07938e-07
0.0014828
2.15564e-06
0.00148018
6.55816e-06
0.00147646
9.80668e-06
0.00147148
1.16363e-05
0.00146525
1.49893e-05
0.00145835
1.91862e-05
0.0014509
2.33298e-05
0.00144265
2.54423e-05
0.00143362
2.49887e-05
0.00142424
2.70022e-05
0.00141421
2.91683e-05
0.00140359
3.13338e-05
0.00139248
3.24954e-05
0.00138105
3.10527e-05
0.00136985
3.10731e-05
0.00135787
3.07933e-05
0.00134674
2.8345e-05
0.00133593
2.63788e-05
0.00132554
2.18066e-05
0.00131572
1.82731e-05
0.00130663
1.60744e-05
0.00129924
9.79457e-06
0.00129032
8.60816e-06
0.00128249
2.01898e-06
0.00127348
5.30826e-06
0.00125665
2.22419e-05
0.00122776
6.12933e-05
0.00115836
0.000170806
0.00102331
0.000320662
0.000842139
0.00041204
0.000713281
0.000441107
0.000626536
0.000412136
0.000567472
0.00036136
0.000518383
0.000319397
0.000468684
0.000287606
0.000420617
0.00027092
0.000371517
0.000257235
0.000322209
0.000267272
0.000272199
0.00026461
0.000220916
0.00028603
0.000169235
0.000288605
0.000115081
0.000337618
5.82968e-05
-4.23794e-06
-6.32141e-06
0.000775603
-8.33467e-06
0.000783442
-1.02724e-05
0.000791606
-1.21211e-05
0.000800083
-1.38635e-05
0.000808859
-1.54947e-05
0.000817914
-1.69929e-05
0.000827238
-1.83457e-05
0.000836784
-1.95714e-05
0.000846515
-2.06172e-05
0.00085643
-2.15099e-05
0.000866478
-2.22991e-05
0.000876589
-2.28775e-05
0.00088678
-2.32491e-05
0.000896987
-2.35558e-05
0.000907123
-2.37647e-05
0.000917255
-2.36691e-05
0.000927284
-2.34473e-05
0.000937168
-2.32378e-05
0.000946788
-2.29431e-05
0.000956341
-2.23504e-05
0.000965635
-2.16326e-05
0.000974668
-2.09219e-05
0.000983238
-2.02309e-05
0.000991676
-1.94882e-05
0.000999908
-1.85337e-05
0.00100782
-1.74489e-05
0.00101537
-1.63219e-05
0.00102244
-1.52196e-05
0.00102869
-1.41713e-05
0.00103494
-1.30775e-05
0.00104093
-1.19575e-05
0.00104652
-1.07807e-05
0.00105178
-9.54972e-06
0.00105674
-8.30362e-06
0.0010611
-7.02023e-06
0.00106502
-5.72995e-06
0.00106846
-4.4417e-06
0.00107135
-3.11106e-06
0.00107376
-1.83807e-06
0.00107611
-4.92395e-07
0.00107828
7.07721e-07
0.00108013
2.04717e-06
0.00108127
4.07341e-06
0.00108219
-3.28955e-05
0.00108314
3.17896e-05
0.00109054
0.000102984
0.00109146
1.56679e-05
0.00106024
-8.58012e-05
0.00107178
-0.000143837
0.00110788
-0.000180865
0.00115161
-0.000185862
0.00120004
-0.000187789
0.00125107
-0.00017923
0.00129753
-0.000165569
0.00133717
-0.000153351
0.00137331
-0.00013964
0.00140566
-0.000131052
0.00143788
-0.000119086
0.00146634
-0.00010857
0.00148718
-9.79278e-05
0.00150908
-8.72944e-05
0.00152487
-7.88742e-05
0.00154195
-6.87231e-05
0.00155582
-6.06335e-05
0.00156218
-5.29153e-05
0.0015709
-4.55511e-05
0.00157746
-3.88433e-05
0.00157981
-3.3105e-05
0.00158281
-2.79612e-05
0.00158563
-2.32179e-05
0.00158726
-1.85485e-05
0.00158778
-1.33154e-05
0.00158731
-7.61213e-06
0.00158582
-1.90897e-06
0.0015836
2.61719e-06
0.00158066
5.82781e-06
0.00157621
1.12365e-05
0.00156979
1.55531e-05
0.00156257
1.80227e-05
0.00155429
2.23685e-05
0.00154465
2.74111e-05
0.00153467
3.2272e-05
0.00152418
3.52361e-05
0.00151301
3.52401e-05
0.00150127
3.74464e-05
0.00148885
3.98773e-05
0.001476
4.23964e-05
0.00146291
4.34903e-05
0.00144944
4.2633e-05
0.00143555
4.22741e-05
0.00142153
4.1663e-05
0.0014079
3.89522e-05
0.00139398
3.66433e-05
0.00138165
3.12117e-05
0.00136995
2.61652e-05
0.00135871
2.50886e-05
0.00134843
1.70555e-05
0.00133595
1.68558e-05
0.00132151
1.86973e-05
0.00130005
3.4184e-05
0.00125285
9.33246e-05
0.00116924
0.000197061
0.00101709
0.000352642
0.000821037
0.000450011
0.000686429
0.000499219
0.000596646
0.000500448
0.000534312
0.000461438
0.000491643
0.000411449
0.000455074
0.000368012
0.000416543
0.000337134
0.000376187
0.000320395
0.000333412
0.000307196
0.000289879
0.000318455
0.000244825
0.000316331
0.000198825
0.000340335
0.000152054
0.000345676
0.000103435
0.000396348
5.17631e-05
-1.17462e-05
-1.41581e-05
0.000785031
-1.64947e-05
0.000794967
-1.87467e-05
0.000805203
-2.08949e-05
0.000815731
-2.29188e-05
0.000826538
-2.48063e-05
0.000837604
-2.6533e-05
0.000848915
-2.80879e-05
0.000860426
-2.9477e-05
0.000872101
-3.06508e-05
0.000883937
-3.16384e-05
0.000895884
-3.24739e-05
0.000907854
-3.30582e-05
0.000919882
-3.3431e-05
0.000931899
-3.3669e-05
0.000943785
-3.37394e-05
0.000955655
-3.35434e-05
0.000967387
-3.31803e-05
0.000978907
-3.27528e-05
0.000990103
-3.21723e-05
0.00100123
-3.13497e-05
0.00101207
-3.03913e-05
0.00102256
-2.94011e-05
0.00103246
-2.83533e-05
0.00104227
-2.72259e-05
0.00105183
-2.59154e-05
0.00106101
-2.45123e-05
0.00106982
-2.30073e-05
0.00107801
-2.15741e-05
0.00108523
-2.01122e-05
0.00109253
-1.85984e-05
0.00109951
-1.70787e-05
0.00110607
-1.55049e-05
0.00111225
-1.38671e-05
0.00111809
-1.22363e-05
0.00112326
-1.05707e-05
0.00112792
-8.91161e-06
0.00113201
-7.25373e-06
0.00113528
-5.57659e-06
0.00113848
-3.92292e-06
0.00114146
-2.17666e-06
0.00114405
-4.45692e-07
0.00114625
1.20632e-06
0.00114793
3.53e-06
0.00114937
-4.01303e-05
0.00115055
2.56092e-05
0.00115952
0.000130502
0.00119476
4.53593e-06
0.00116454
-0.000121247
0.00118806
-0.00018774
0.00124271
-0.000228679
0.00129441
-0.000236183
0.00134912
-0.000232819
0.00140769
-0.000218046
0.00145748
-0.000203565
0.00149854
-0.000186449
0.00153444
-0.00017045
0.00156376
-0.000159509
0.00159705
-0.000141523
0.00162136
-0.000128901
0.00163605
-0.000114878
0.00165492
-0.000101812
0.00166565
-9.08753e-05
0.00168017
-7.97106e-05
0.00168884
-6.90993e-05
0.00169113
-5.92058e-05
0.00169742
-5.03311e-05
0.00170158
-4.24637e-05
0.00170156
-3.51633e-05
0.00170223
-2.89337e-05
0.0017026
-2.34165e-05
0.00170157
-1.78851e-05
0.00169937
-1.17722e-05
0.0016964
-5.24343e-06
0.00169261
1.58713e-06
0.00168797
7.76809e-06
0.00168252
1.21703e-05
0.00167561
1.80718e-05
0.00166687
2.34027e-05
0.00165743
2.69884e-05
0.00164695
3.20868e-05
0.00163481
3.77127e-05
0.0016222
4.32081e-05
0.00160914
4.72495e-05
0.00159569
4.7962e-05
0.00158173
5.03359e-05
0.00156663
5.27899e-05
0.00155131
5.56118e-05
0.00153599
5.71465e-05
0.00152017
5.63068e-05
0.00150311
5.57991e-05
0.00148685
5.56304e-05
0.00147096
5.15224e-05
0.00145466
4.83398e-05
0.00144006
4.29294e-05
0.00142512
3.68838e-05
0.00140895
3.79933e-05
0.00139326
3.13865e-05
0.00137353
3.79032e-05
0.00133738
6.68177e-05
0.00128276
0.00011811
0.00117857
0.000247133
0.000998312
0.000393526
0.000804417
0.000487638
0.000667282
0.00054025
0.000572612
0.000561902
0.000508443
0.000543367
0.000466616
0.000498235
0.000434462
0.000450344
0.000403426
0.000408875
0.000372365
0.000380343
0.000338173
0.000364134
0.000301233
0.000352258
0.000262448
0.000364397
0.000221545
0.000363118
0.000179696
0.000389119
0.000136938
0.000397634
9.28803e-05
0.000448467
4.57951e-05
-2.13782e-05
-2.40914e-05
0.000795656
-2.67271e-05
0.000807641
-2.92718e-05
0.000819903
-3.16991e-05
0.000832435
-3.39835e-05
0.000845226
-3.61045e-05
0.000858261
-3.80397e-05
0.000871514
-3.97761e-05
0.000884948
-4.13038e-05
0.000898529
-4.25806e-05
0.000912246
-4.36364e-05
0.000926047
-4.44807e-05
0.000939842
-4.50452e-05
0.000953668
-4.53856e-05
0.000967451
-4.55167e-05
0.000981062
-4.53876e-05
0.00099463
-4.50556e-05
0.00100802
-4.45321e-05
0.00102114
-4.38329e-05
0.00103391
-4.28984e-05
0.00104657
-4.18062e-05
0.00105889
-4.05706e-05
0.00107078
-3.92452e-05
0.00108205
-3.77789e-05
0.00109322
-3.62141e-05
0.00110406
-3.44891e-05
0.0011145
-3.26991e-05
0.00112448
-3.0841e-05
0.00113372
-2.89703e-05
0.00114198
-2.70343e-05
0.00115032
-2.50537e-05
0.00115828
-2.30614e-05
0.00116577
-2.10434e-05
0.00117281
-1.89577e-05
0.00117947
-1.69048e-05
0.00118544
-1.48214e-05
0.00119081
-1.27507e-05
0.00119543
-1.06925e-05
0.00119945
-8.63469e-06
0.00120341
-6.50632e-06
0.00120702
-4.36026e-06
0.00121023
-2.10508e-06
0.0012128
-6.21676e-08
0.00121467
2.67206e-06
0.00121643
-4.85278e-05
0.00121803
-1.34833e-05
0.0012258
0.000155433
0.00124481
-1.87692e-05
0.00128092
-0.000175355
0.0013212
-0.000240285
0.00140193
-0.000283383
0.00147891
-0.000293986
0.00154786
-0.00028132
0.00159861
-0.000257746
0.00164
-0.000240898
0.00167624
-0.000218215
0.00170675
-0.000199437
0.00172917
-0.000182487
0.00175271
-0.000160311
0.00177207
-0.000145528
0.00178027
-0.000128654
0.00179328
-0.000113326
0.00179639
-9.89902e-05
0.00180482
-8.60531e-05
0.00180745
-7.43694e-05
0.00180612
-6.25936e-05
0.001809
-5.20781e-05
0.00180958
-4.32945e-05
0.00180744
-3.48502e-05
0.00180534
-2.77289e-05
0.00180287
-2.11973e-05
0.00179898
-1.48333e-05
0.0017944
-7.78725e-06
0.00178915
-4.04045e-07
0.00178338
7.48513e-06
0.00177676
1.49529e-05
0.00176925
2.07097e-05
0.00176011
2.72054e-05
0.00174926
3.35968e-05
0.00173767
3.8366e-05
0.00172507
4.43042e-05
0.00171058
5.0497e-05
0.00169601
5.64175e-05
0.00168088
6.15008e-05
0.0016656
6.34051e-05
0.00164993
6.58341e-05
0.00163312
6.81428e-05
0.00161554
7.13321e-05
0.00159813
7.39048e-05
0.00158066
7.22901e-05
0.00156171
7.14178e-05
0.00154374
7.21762e-05
0.0015258
6.66069e-05
0.00150724
6.24516e-05
0.00148926
6.02357e-05
0.0014698
5.28789e-05
0.00144715
5.81615e-05
0.00141544
6.78886e-05
0.00137347
9.28477e-05
0.00129412
0.000172711
0.00116723
0.000298522
0.000969469
0.000441726
0.000777596
0.000531023
0.000645645
0.000582721
0.000554003
0.000604943
0.000490406
0.000604141
0.000443694
0.000575792
0.000412951
0.000529586
0.00038769
0.000481789
0.000361729
0.000443528
0.000334617
0.000417691
0.000304188
0.000403148
0.000271399
0.000393199
0.000236642
0.000406231
0.000199575
0.000405914
0.000161672
0.00043335
0.000122487
0.000444987
8.24844e-05
0.000494634
3.99711e-05
-3.30838e-05
-3.60727e-05
0.000807488
-3.89851e-05
0.000821468
-4.18013e-05
0.000835704
-4.44882e-05
0.000850191
-4.70138e-05
0.000864919
-4.93501e-05
0.000879874
-5.14718e-05
0.000895022
-5.33653e-05
0.000910331
-5.50074e-05
0.000925776
-5.63659e-05
0.000941331
-5.74628e-05
0.000956933
-5.82786e-05
0.000972517
-5.8804e-05
0.0009881
-5.90792e-05
0.0010036
-5.90584e-05
0.00101891
-5.87017e-05
0.00103412
-5.81735e-05
0.00104912
-5.74426e-05
0.00106381
-5.6434e-05
0.00107815
-5.51127e-05
0.00109228
-5.3675e-05
0.00110602
-5.21197e-05
0.00111927
-5.04265e-05
0.00113196
-4.84848e-05
0.00114444
-4.64135e-05
0.00115654
-4.42328e-05
0.00116818
-4.19803e-05
0.0011792
-3.97263e-05
0.00118946
-3.73971e-05
0.00119892
-3.49359e-05
0.00120827
-3.242e-05
0.00121717
-2.99041e-05
0.00122557
-2.73553e-05
0.00123342
-2.48154e-05
0.00124077
-2.22749e-05
0.00124746
-1.97355e-05
0.00125345
-1.72315e-05
0.00125872
-1.47227e-05
0.00126375
-1.22105e-05
0.00126845
-9.66695e-06
0.00127284
-7.12177e-06
0.00127673
-4.46369e-06
0.00127957
-1.746e-06
0.00128133
1.51988e-06
0.00128325
-5.57476e-05
0.00128616
-3.23839e-05
0.00129401
0.000112404
0.00132496
-5.7036e-05
0.00141822
-0.000254831
0.00154335
-0.000318986
0.00163969
-0.000352401
0.00170363
-0.000343732
0.00173573
-0.000321529
0.00176765
-0.000293934
0.00179845
-0.000269869
0.00182773
-0.000244571
0.00185449
-0.000218992
0.00186862
-0.000196802
0.00187704
-0.000174472
0.00189486
-0.000154666
0.00189802
-0.000137563
0.00190567
-0.000119382
0.00190041
-0.000103083
0.00190551
-8.71226e-05
0.00190353
-7.41449e-05
0.00190163
-6.21779e-05
0.00190152
-5.07591e-05
0.00189697
-4.14585e-05
0.00189355
-3.22837e-05
0.00188969
-2.40827e-05
0.00188575
-1.64909e-05
0.00188035
-9.3021e-06
0.00187376
-1.64917e-06
0.00186625
6.61969e-06
0.00185851
1.53319e-05
0.00185014
2.40708e-05
0.0018408
3.12668e-05
0.0018299
3.86064e-05
0.00181748
4.60267e-05
0.00180419
5.2072e-05
0.00179005
5.8379e-05
0.0017742
6.52486e-05
0.00175827
7.18068e-05
0.00174174
7.74381e-05
0.0017251
8.04132e-05
0.0017078
8.37112e-05
0.00168961
8.58538e-05
0.00167045
8.88634e-05
0.00165163
9.26226e-05
0.00163239
9.01082e-05
0.00161245
8.91026e-05
0.00159249
9.12103e-05
0.00157169
8.50818e-05
0.00154974
8.07243e-05
0.00152314
8.47161e-05
0.00149195
8.41251e-05
0.00145192
9.99094e-05
0.00138685
0.000147863
0.00129025
0.000220357
0.00113176
0.000371948
0.000914181
0.000490576
0.000742946
0.000573929
0.000619396
0.000623036
0.000533789
0.000646712
0.000472297
0.000652082
0.000426665
0.000635266
0.000395565
0.000601314
0.000372194
0.000555887
0.000350335
0.000509271
0.000328581
0.000474307
0.000304538
0.000450788
0.000277196
0.000438071
0.000247333
0.000430236
0.00021521
0.000444087
0.000180831
0.000445193
0.000145915
0.000473562
0.000109813
0.000487802
7.3498e-05
0.000534937
3.52366e-05
-4.68081e-05
-5.00497e-05
0.000820538
-5.32176e-05
0.000836457
-5.62851e-05
0.000852611
-5.92131e-05
0.000868999
-6.19625e-05
0.000885609
-6.44946e-05
0.000902429
-6.67844e-05
0.000919423
-6.88141e-05
0.00093656
-7.05407e-05
0.000953821
-7.19627e-05
0.000971159
-7.30745e-05
0.000988509
-7.38241e-05
0.00100585
-7.42876e-05
0.00102314
-7.44561e-05
0.0010403
-7.42361e-05
0.00105728
-7.36402e-05
0.00107409
-7.28789e-05
0.00109064
-7.18962e-05
0.00110687
-7.04953e-05
0.00112276
-6.87808e-05
0.0011383
-6.69419e-05
0.00115339
-6.50206e-05
0.00116798
-6.28905e-05
0.00118213
-6.04261e-05
0.00119588
-5.78101e-05
0.00120914
-5.50929e-05
0.0012218
-5.23656e-05
0.00123383
-4.96548e-05
0.0012452
-4.68131e-05
0.00125598
-4.3798e-05
0.00126636
-4.07014e-05
0.00127615
-3.76005e-05
0.00128531
-3.44569e-05
0.00129375
-3.14152e-05
0.00130171
-2.83763e-05
0.00130912
-2.53734e-05
0.00131589
-2.23433e-05
0.0013221
-1.93028e-05
0.00132792
-1.62926e-05
0.00133342
-1.33103e-05
0.00133864
-1.02948e-05
0.00134338
-7.28388e-06
0.00134674
-4.1398e-06
0.00134877
-1.23816e-06
0.00135017
-6.31721e-05
0.00135346
-6.32508e-05
0.00136314
1.18727e-05
0.00140069
-0.000184063
0.00163177
-0.000351263
0.001868
-0.000383706
0.00191183
-0.000384113
0.00191621
-0.000374393
0.0019227
-0.000351296
0.00192914
-0.000323793
0.0019379
-0.000290871
0.00195151
-0.000261242
0.00196913
-0.000231113
0.00198099
-0.000205892
0.00198171
-0.000182315
0.00199362
-0.000158091
0.00199097
-0.000140713
0.00199432
-0.000119504
0.00198826
-0.00010207
0.00199196
-8.70479e-05
0.00198962
-7.10289e-05
0.00198342
-5.90947e-05
0.00198077
-4.75475e-05
0.00197331
-3.68269e-05
0.00196898
-2.75121e-05
0.00196362
-1.84612e-05
0.00195803
-1.01726e-05
0.00195107
-2.22976e-06
0.00194264
6.04791e-06
0.00193312
1.52623e-05
0.00192356
2.47096e-05
0.00191364
3.47446e-05
0.00190264
4.34329e-05
0.00189039
5.18934e-05
0.00187671
6.01163e-05
0.00186249
6.7431e-05
0.00184739
7.4072e-05
0.00183045
8.12877e-05
0.00181344
8.88724e-05
0.00179542
9.48607e-05
0.00177761
9.87287e-05
0.00175911
0.000103334
0.0017395
0.000105276
0.00171941
0.00010829
0.00169901
0.000112342
0.00167779
0.000110215
0.00165453
0.000109663
0.00162779
0.000113567
0.00159997
0.000112137
0.00156937
0.000110771
0.00152384
0.000128221
0.00146613
0.000149021
0.0013853
0.000195923
0.00125251
0.000307193
0.00105559
0.000438278
0.0008512
0.000543882
0.000696699
0.000614397
0.000588069
0.000659812
0.000508887
0.000684817
0.0004528
0.000692649
0.000410528
0.00068346
0.000379341
0.0006589
0.000356423
0.000623486
0.000336905
0.000577974
0.000318303
0.000533603
0.00029891
0.000501897
0.000276344
0.000480897
0.000251138
0.000470326
0.00022371
0.000464606
0.000194135
0.000478948
0.000162598
0.00048135
0.000130855
0.000510018
9.79165e-05
0.000526279
6.5195e-05
0.000570466
3.0893e-05
-6.24926e-05
-6.59648e-05
0.000834819
-6.93685e-05
0.000852614
-7.26692e-05
0.000870627
-7.58205e-05
0.000888856
-7.87759e-05
0.000907291
-8.14855e-05
0.000925919
-8.39276e-05
0.000944703
-8.60725e-05
0.000963616
-8.78537e-05
0.000982638
-8.93165e-05
0.00100171
-9.04268e-05
0.00102076
-9.10832e-05
0.00103979
-9.14495e-05
0.00105874
-9.14759e-05
0.00107753
-9.10018e-05
0.00109612
-9.01648e-05
0.00111449
-8.91322e-05
0.00113253
-8.7816e-05
0.00115029
-8.59746e-05
0.00116765
-8.38587e-05
0.0011846
-8.15996e-05
0.00120094
-7.92611e-05
0.00121691
-7.65844e-05
0.00123244
-7.35469e-05
0.0012474
-7.03596e-05
0.00126176
-6.70938e-05
0.00127534
-6.38631e-05
0.00128844
-6.06003e-05
0.00130102
-5.71587e-05
0.00131301
-5.35473e-05
0.00132443
-4.98367e-05
0.00133509
-4.61039e-05
0.00134494
-4.23802e-05
0.0013537
-3.87972e-05
0.00136234
-3.52164e-05
0.00137051
-3.16561e-05
0.00137814
-2.80796e-05
0.00138521
-2.45103e-05
0.00139169
-2.09851e-05
0.00139776
-1.74761e-05
0.00140348
-1.39491e-05
0.00140863
-1.05056e-05
0.00141245
-7.01904e-06
0.00141499
-4.33769e-06
0.00141595
-7.27129e-05
0.00141839
-0.00010029
0.00142813
-0.000224331
0.00147421
-0.000424995
0.00171237
-0.000396016
0.00192811
-0.000390649
0.00201226
-0.000390749
0.00202663
-0.000379032
0.00202457
-0.000359098
0.00202647
-0.000337112
0.00203098
-0.000305047
0.00204019
-0.000271313
0.00205161
-0.000238717
0.00206342
-0.000210592
0.00206374
-0.00018595
0.00206992
-0.000156104
0.00206549
-0.000137461
0.00207075
-0.000117207
0.00206682
-9.89802e-05
0.00206006
-8.552e-05
0.00206058
-6.7018e-05
0.00205005
-5.29324e-05
0.00204628
-4.15232e-05
0.00203815
-3.02297e-05
0.00203189
-2.10684e-05
0.00202584
-1.18855e-05
0.00202018
-2.89339e-06
0.00201265
6.05173e-06
0.00200337
1.51566e-05
0.00199345
2.54612e-05
0.0019829
3.56655e-05
0.00197187
4.67149e-05
0.00195997
5.69291e-05
0.00194661
6.63328e-05
0.00193135
7.52271e-05
0.00191628
8.4196e-05
0.00189967
9.10335e-05
0.00188184
9.88966e-05
0.0018639
0.000107301
0.00184487
0.000113486
0.00182514
0.000118443
0.00180388
0.000123905
0.00178206
0.00012655
0.00175894
0.00012978
0.00173354
0.000135308
0.00170706
0.000137653
0.00167786
0.000137393
0.00163844
0.000144279
0.00159451
0.000157899
0.00153794
0.000168228
0.00145036
0.00021278
0.00132944
0.000281772
0.00116069
0.000392764
0.000952368
0.000512203
0.000772557
0.000593002
0.000644934
0.000652688
0.000547912