/*--------------------------------*- C++ -*----------------------------------*\
| =========                 |                                                 |
| \\      /  F ield         | OpenFOAM: The Open Source CFD Toolbox           |
|  \\    /   O peration     | Version:  2.2.x                                 |
|   \\  /    A nd           | Web:      www.OpenFOAM.org                      |
|    \\/     M anipulation  |                                                 |
\*---------------------------------------------------------------------------*/
FoamFile
{
    version     2.0;
    format      ascii;
    class       volScalarField;
    location    "0.05";
    object      By;
}
// * * * * * * * * * * * * * * * * * * * * * * * * * * * * * * * * * * * * * //

dimensions      [1 0 -2 0 0 -1 0];

internalField   nonuniform List<scalar> 
1024
(
1.41047
1.41047
1.41047
1.41047
1.41047
1.41047
1.41047
1.41047
1.41047
1.41047
1.41047
1.41047
1.41047
1.41047
1.41047
1.41047
1.41047
1.41047
1.41047
1.41047
1.41047
1.41047
1.41047
1.41047
1.41047
1.41047
1.41047
1.41047
1.41047
1.41047
1.41047
1.41047
1.41047
1.41047
1.41047
1.41047
1.41047
1.41047
1.41047
1.41047
1.41047
1.41047
1.41047
1.41047
1.41047
1.41047
1.41047
1.41047
1.41047
1.41047
1.41047
1.41047
1.41047
1.41047
1.41047
1.41047
1.41047
1.41047
1.41047
1.41047
1.41047
1.41047
1.41047
1.41047
1.41047
1.41047
1.41047
1.41047
1.41047
1.41047
1.41047
1.41047
1.41047
1.41047
1.41047
1.41047
1.41047
1.41047
1.41047
1.41047
1.41047
1.41047
1.41047
1.41047
1.41047
1.41047
1.41047
1.41047
1.41047
1.41047
1.41047
1.41047
1.41047
1.41047
1.41047
1.41047
1.41047
1.41047
1.41047
1.41047
1.41047
1.41047
1.41047
1.41047
1.41047
1.41047
1.41047
1.41047
1.41047
1.41047
1.41047
1.41047
1.41047
1.41047
1.41047
1.41047
1.41047
1.41047
1.41047
1.41047
1.41047
1.41047
1.41047
1.41047
1.41047
1.41047
1.41047
1.41047
1.41047
1.41047
1.41047
1.41047
1.41047
1.41047
1.41047
1.41047
1.41047
1.41047
1.41047
1.41047
1.41047
1.41047
1.41047
1.41047
1.41047
1.41047
1.41047
1.41047
1.41047
1.41047
1.41047
1.41047
1.41047
1.41047
1.41047
1.41047
1.41047
1.41047
1.41047
1.41047
1.41047
1.41047
1.41047
1.41047
1.41047
1.41047
1.41047
1.41047
1.41047
1.41047
1.41047
1.41047
1.41047
1.41047
1.41047
1.41047
1.41047
1.41047
1.41047
1.41047
1.41047
1.41047
1.41047
1.41047
1.41047
1.41047
1.41047
1.41047
1.41047
1.41047
1.41047
1.41047
1.41047
1.41047
1.41047
1.41047
1.41047
1.41047
1.41047
1.41047
1.41047
1.41047
1.41047
1.41047
1.41047
1.41047
1.41047
1.41047
1.41047
1.41047
1.41047
1.41047
1.41047
1.41047
1.41047
1.41047
1.41047
1.41047
1.41047
1.41047
1.41047
1.41047
1.41047
1.41047
1.41047
1.41047
1.41047
1.41047
1.41047
1.41047
1.41047
1.41047
1.41047
1.41047
1.41047
1.41047
1.41047
1.41047
1.41047
1.41047
1.41047
1.41047
1.41047
1.41047
1.41047
1.41047
1.41047
1.41047
1.41047
1.41047
1.41047
1.41047
1.41047
1.41047
1.41047
1.41047
1.41047
1.41047
1.41047
1.41047
1.41047
1.41047
1.41047
1.41047
1.41047
1.41047
1.41047
1.41047
1.41047
1.41047
1.41047
1.41047
1.41047
1.41047
1.41047
1.58999
4.26874
5.34701
5.42125
5.42541
5.42757
5.42646
5.42854
5.42573
5.43042
5.42475
5.42779
5.42648
5.42771
5.42685
5.42739
5.42585
5.42887
5.4264
5.42777
5.4263
5.42713
5.42676
5.4268
5.42739
5.42712
5.4288
5.42625
5.42726
5.42578
5.42746
5.42679
5.4278
5.42718
5.42808
5.42671
5.42737
5.4264
5.42733
5.42664
5.42709
5.42684
5.42744
5.42764
5.42721
5.42735
5.42642
5.42728
5.42667
5.42764
5.42723
5.42784
5.42696
5.42708
5.42648
5.42716
5.42687
5.42743
5.42708
5.42754
5.42729
5.42732
5.42697
5.42683
5.42701
5.42685
5.42737
5.42727
5.42765
5.42719
5.42706
5.42664
5.42694
5.42676
5.42729
5.42722
5.42761
5.42732
5.42736
5.42686
5.42693
5.42689
5.42708
5.42718
5.42729
5.4274
5.42718
5.42704
5.42682
5.427
5.4268
5.42708
5.42714
5.42734
5.42715
5.42725
5.42684
5.42694
5.42691
5.42707
5.42708
5.42729
5.4273
5.42719
5.42712
5.42697
5.42696
5.42694
5.42712
5.4272
5.42733
5.4273
5.42723
5.42698
5.42689
5.42686
5.42686
5.42704
5.42712
5.42721
5.42715
5.42711
5.42692
5.427
5.42696
5.42709
5.42714
5.4272
5.4271
5.42708
5.42687
5.42687
5.42689
5.42702
5.4271
5.4273
5.42735
5.42736
5.42719
5.42709
5.427
5.42695
5.42696
5.42696
5.42693
5.42669
5.42655
5.42634
5.42627
5.42625
5.42642
5.42663
5.42679
5.42688
5.4268
5.42644
5.42565
5.42346
5.41801
5.40783
5.3818
5.33167
5.226
5.02518
4.70793
4.46753
4.29848
4.18908
4.11802
4.07688
4.05293
4.04353
4.03952
4.0384
4.03787
4.03801
4.03854
4.03771
4.03661
4.036
4.03656
4.03875
4.04017
4.04031
4.03995
4.03751
4.03607
4.03561
4.03615
4.03908
4.042
4.04236
4.04002
4.03415
4.03271
4.03828
4.04371
4.04072
4.03512
4.03678
4.03953
4.03841
4.03755
4.03805
4.03827
4.03809
4.03802
4.03803
4.03791
4.03772
4.03759
4.03752
4.03747
4.03752
4.03765
4.03776
4.03801
4.03809
4.03826
4.0383
4.03836
4.03839
4.03839
4.03822
4.03846
4.03894
4.03908
4.03891
4.03913
4.03989
4.04047
4.03911
4.03722
4.03836
4.04041
4.0343
4.0219
4.02076
4.01927
3.99167
3.95742
3.93565
3.88931
3.85988
3.84325
3.83544
3.83272
3.83232
3.83274
3.83429
3.83594
3.8374
3.83819
3.83869
3.83898
3.83911
3.83919
3.83918
3.83919
3.83913
3.8391
3.83898
3.83901
3.83886
3.83896
3.83879
3.83894
3.83875
3.83894
3.83871
3.83893
3.83867
3.83894
3.83864
3.83896
3.83863
3.83899
3.83864
3.83904
3.83865
3.83907
3.83864
3.83909
3.83861
3.83908
3.83856
3.83907
3.83852
3.83908
3.83849
3.8391
3.83847
3.83913
3.83845
3.83915
3.83842
3.83917
3.83837
3.83919
3.83834
3.83922
3.8383
3.83925
3.83826
3.83929
3.83822
3.83932
3.83818
3.83937
3.83814
3.83943
3.8381
3.83948
3.83804
3.83952
3.83797
3.83957
3.83791
3.83965
3.83787
3.83974
3.83783
3.83983
3.83776
3.83991
3.83767
3.83997
3.83755
3.84004
3.83745
3.84014
3.83736
3.84025
3.83726
3.84038
3.83715
3.8405
3.83702
3.84064
3.83689
3.84079
3.83675
3.84094
3.83657
3.84108
3.83637
3.84124
3.83618
3.84144
3.83601
3.84168
3.83582
3.84192
3.8356
3.84215
3.83533
3.84238
3.83503
3.84263
3.83473
3.84294
3.83446
3.8433
3.83415
3.84366
3.83379
3.84401
3.83338
3.84439
3.83293
3.84479
3.83248
3.84527
3.83204
3.84583
3.83156
3.84638
3.83099
3.84694
3.83035
3.84755
3.82969
3.84823
3.82899
3.84897
3.82823
3.84975
3.8274
3.8506
3.82653
3.85152
3.82561
3.85254
3.82464
3.85363
3.82353
3.8547
3.82228
3.85587
3.82098
3.85719
3.81964
3.85864
3.81822
3.86022
3.81668
3.86186
3.81493
3.86357
3.81302
3.86544
3.81106
3.86756
3.80901
3.8698
3.80669
3.87215
3.80422
3.87476
3.80156
3.87749
3.79858
3.88044
3.79548
3.88378
3.79214
3.88726
3.78849
3.89097
3.78455
3.89497
3.78042
3.89941
3.77599
3.90407
3.771
3.90902
3.76586
3.9145
3.76023
3.92017
3.75407
3.92648
3.74776
3.9335
3.74074
3.94053
3.73311
3.94829
3.72498
3.95663
3.71623
3.96586
3.70684
3.97563
3.69652
3.98601
3.68599
3.99737
3.67394
4.00939
3.66134
4.02298
3.64777
4.03686
3.63236
4.05235
3.61688
4.07027
3.59926
4.08694
3.57825
4.10532
3.55913
4.13105
3.54047
4.16028
3.50204
4.18178
3.44875
4.22793
3.44291
3.7513
1.74878
1.41047
1.41047
1.41047
1.41047
1.41047
1.41047
1.41047
1.41047
1.41047
1.41047
1.41047
1.41047
1.41047
1.41047
1.41047
1.41047
1.41047
1.41047
1.41047
1.41047
1.41047
1.41047
1.41047
1.41047
1.41047
1.41047
1.41047
1.41047
1.41047
1.41047
1.41047
1.41047
1.41047
1.41047
1.41047
1.41047
1.41047
1.41047
1.41047
1.41047
1.41047
1.41047
1.41047
1.41047
1.41047
1.41047
1.41047
1.41047
1.41047
1.41047
1.41047
1.41047
1.41047
1.41047
1.41047
1.41047
1.41047
1.41047
1.41047
1.41047
1.41047
1.41047
1.41047
1.41047
1.41047
1.41047
1.41047
1.41047
1.41047
1.41047
1.41047
1.41047
1.41047
1.41047
1.41047
1.41047
1.41047
1.41047
1.41047
1.41047
1.41047
1.41047
1.41047
1.41047
1.41047
1.41047
1.41047
1.41047
1.41047
1.41047
1.41047
1.41047
1.41047
1.41047
1.41047
1.41047
1.41047
1.41047
1.41047
1.41047
1.41047
1.41047
1.41047
1.41047
1.41047
1.41047
1.41047
1.41047
1.41047
1.41047
1.41047
1.41047
1.41047
1.41047
1.41047
1.41047
1.41047
1.41047
1.41047
1.41047
1.41047
1.41047
1.41047
1.41047
1.41047
1.41047
1.41047
1.41047
1.41047
1.41047
1.41047
1.41047
1.41047
1.41047
1.41047
1.41047
1.41047
1.41047
1.41047
1.41047
1.41047
1.41047
1.41047
1.41047
1.41047
1.41047
1.41047
1.41047
1.41047
1.41047
1.41047
1.41047
1.41047
1.41047
1.41047
1.41047
1.41047
1.41047
1.41047
1.41047
1.41047
1.41047
1.41047
1.41047
1.41047
1.41047
1.41047
1.41047
1.41047
1.41047
1.41047
1.41047
1.41047
1.41047
1.41047
1.41047
1.41047
1.41047
1.41047
1.41047
1.41047
1.41047
1.41047
1.41047
1.41047
1.41047
1.41047
1.41047
1.41047
1.41047
1.41047
1.41047
1.41047
1.41047
1.41047
1.41047
1.41047
1.41047
1.41047
1.41047
1.41047
1.41047
1.41047
1.41047
1.41047
1.41047
1.41047
1.41047
1.41047
1.41047
1.41047
1.41047
1.41047
1.41047
1.41047
1.41047
1.41047
1.41047
1.41047
1.41047
1.41047
1.41047
1.41047
1.41047
1.41047
1.41047
1.41047
1.41047
1.41047
1.41047
1.41047
1.41047
1.41047
1.41047
1.41047
1.41047
1.41047
1.41047
1.41047
1.41047
1.41047
1.41047
1.41047
1.41047
1.41047
1.41047
1.41047
1.41047
1.41047
1.41047
1.41047
1.41047
1.41047
1.41047
1.41047
1.41047
1.41047
1.41047
1.41047
1.41047
1.41047
1.41047
1.41047
1.41047
1.41047
)
;

boundaryField
{
    front-back
    {
        type            empty;
    }
    inlet-outlet
    {
        type            zeroGradient;
    }
    top-down
    {
        type            empty;
    }
}


// ************************************************************************* //
