/*--------------------------------*- C++ -*----------------------------------*\
| =========                 |                                                 |
| \\      /  F ield         | OpenFOAM: The Open Source CFD Toolbox           |
|  \\    /   O peration     | Version:  2.2.x                                 |
|   \\  /    A nd           | Web:      www.OpenFOAM.org                      |
|    \\/     M anipulation  |                                                 |
\*---------------------------------------------------------------------------*/
FoamFile
{
    version     2.0;
    format      ascii;
    class       volScalarField;
    location    "2.2";
    object      Ma;
}
// * * * * * * * * * * * * * * * * * * * * * * * * * * * * * * * * * * * * * //

dimensions      [0 0 0 0 0 0 0];

internalField   nonuniform List<scalar> 
14161
(
6.06218
6.06218
6.06218
6.06218
6.06218
6.06218
6.06218
6.06218
6.06218
6.06218
6.06218
6.06218
6.06218
6.06218
6.06218
6.06218
6.06218
6.06218
6.06218
6.06218
6.06218
6.06218
6.06218
6.06218
6.06218
6.06218
6.06218
6.06218
6.06218
6.06218
6.06218
6.06218
6.06218
6.06218
6.06218
6.06218
6.06218
6.06218
6.06218
6.06203
6.05971
6.01953
5.26101
1.70775
0.707571
0.507071
0.46671
0.455111
0.448409
0.443273
0.43867
0.434352
0.430041
0.425531
0.420499
0.415169
0.410254
0.405802
0.401775
0.397615
0.393029
0.387804
0.382496
0.377681
0.373437
0.369532
0.365315
0.360401
0.354829
0.349574
0.344921
0.340893
0.336825
0.3322
0.326588
0.320977
0.315909
0.311508
0.30724
0.30251
0.296755
0.290792
0.28534
0.280538
0.27586
0.270702
0.264562
0.258383
0.252666
0.247503
0.242266
0.236292
0.229657
0.223211
0.217291
0.211567
0.205397
0.198378
0.191305
0.184585
0.178158
0.171383
0.163777
0.155989
0.148406
0.141025
0.133232
0.124682
0.115926
0.107265
0.0985867
0.0892803
0.0793333
0.0690908
0.0586853
0.0477957
0.035978
0.0234931
0.0140379
6.06218
6.06218
6.06218
6.06218
6.06218
6.06218
6.06218
6.06218
6.06218
6.06218
6.06218
6.06218
6.06218
6.06218
6.06218
6.06218
6.06218
6.06218
6.06218
6.06218
6.06218
6.06218
6.06218
6.06218
6.06218
6.06218
6.06218
6.06218
6.06218
6.06218
6.06218
6.06218
6.06218
6.06218
6.06218
6.06218
6.06218
6.06218
6.06218
6.06203
6.05971
6.01947
5.25862
1.70816
0.706666
0.505147
0.464512
0.452891
0.446266
0.441242
0.436741
0.432491
0.42821
0.423709
0.418641
0.413298
0.408412
0.40399
0.399982
0.395801
0.391175
0.385882
0.380571
0.375761
0.371554
0.36766
0.363426
0.358463
0.35286
0.347616
0.342991
0.338985
0.334905
0.330236
0.324576
0.318976
0.313935
0.309566
0.305308
0.300542
0.29474
0.2888
0.28338
0.278626
0.273976
0.268797
0.262636
0.25648
0.2508
0.245679
0.240473
0.234504
0.227885
0.221464
0.215555
0.209853
0.20371
0.196727
0.189682
0.18298
0.176563
0.169809
0.162237
0.154491
0.146958
0.139629
0.1319
0.123442
0.114802
0.106285
0.0977457
0.0886054
0.0789023
0.0689816
0.0590515
0.0488884
0.038642
0.0289835
0.0260175
6.06218
6.06218
6.06218
6.06218
6.06218
6.06218
6.06218
6.06218
6.06218
6.06218
6.06218
6.06218
6.06218
6.06218
6.06218
6.06218
6.06218
6.06218
6.06218
6.06218
6.06218
6.06218
6.06218
6.06218
6.06218
6.06218
6.06218
6.06218
6.06218
6.06218
6.06218
6.06218
6.06218
6.06218
6.06218
6.06218
6.06218
6.06218
6.06218
6.06203
6.05981
6.02121
5.2861
1.71815
0.708059
0.505152
0.464196
0.452432
0.445777
0.440782
0.436308
0.432071
0.427777
0.423241
0.418117
0.412788
0.407938
0.403572
0.399573
0.395366
0.390693
0.385347
0.380056
0.375269
0.37111
0.367217
0.362951
0.357933
0.352312
0.347085
0.342487
0.338492
0.334377
0.329638
0.323932
0.318328
0.313311
0.308971
0.304698
0.299886
0.294034
0.288115
0.282729
0.278019
0.273378
0.268161
0.261973
0.255819
0.25017
0.245067
0.239858
0.233864
0.227241
0.220836
0.214937
0.209237
0.203084
0.196105
0.189065
0.182351
0.175908
0.16913
0.161559
0.153823
0.14629
0.138948
0.131221
0.122814
0.114271
0.105907
0.097559
0.088709
0.0795048
0.0703332
0.0615744
0.0530786
0.0456846
0.0397695
0.0402247
6.06218
6.06218
6.06218
6.06218
6.06218
6.06218
6.06218
6.06218
6.06218
6.06218
6.06218
6.06218
6.06218
6.06218
6.06218
6.06218
6.06218
6.06218
6.06218
6.06218
6.06218
6.06218
6.06218
6.06218
6.06218
6.06218
6.06218
6.06218
6.06218
6.06218
6.06218
6.06218
6.06218
6.06218
6.06218
6.06218
6.06218
6.06218
6.06218
6.06203
6.05997
6.02487
5.34636
1.73868
0.712011
0.507399
0.466136
0.454195
0.447415
0.442347
0.43782
0.43353
0.429174
0.424565
0.419374
0.414084
0.409278
0.405001
0.401028
0.396797
0.392072
0.386697
0.381468
0.376739
0.37266
0.368759
0.364455
0.359358
0.353745
0.348576
0.344039
0.340047
0.335884
0.331044
0.325289
0.319715
0.314758
0.31046
0.306157
0.30128
0.295376
0.289505
0.284188
0.279525
0.274875
0.269606
0.263389
0.257245
0.251634
0.246536
0.241299
0.235252
0.228617
0.222211
0.21631
0.210558
0.204318
0.197283
0.19019
0.183412
0.176874
0.170005
0.162376
0.15461
0.14706
0.139696
0.131961
0.123618
0.115197
0.107027
0.0989399
0.0904868
0.0819298
0.073684
0.0662865
0.0596034
0.0549043
0.0519201
0.0538336
6.06218
6.06218
6.06218
6.06218
6.06218
6.06218
6.06218
6.06218
6.06218
6.06218
6.06218
6.06218
6.06218
6.06218
6.06218
6.06218
6.06218
6.06218
6.06218
6.06218
6.06218
6.06218
6.06218
6.06218
6.06218
6.06218
6.06218
6.06218
6.06218
6.06218
6.06218
6.06218
6.06218
6.06218
6.06218
6.06218
6.06218
6.06218
6.06218
6.06205
6.06019
6.02898
5.41633
1.76379
0.716256
0.50918
0.467507
0.455484
0.448755
0.443802
0.439392
0.435195
0.43091
0.426328
0.421118
0.415894
0.411149
0.406975
0.40307
0.398865
0.394101
0.388705
0.383536
0.378912
0.374967
0.371112
0.366797
0.361596
0.356021
0.350966
0.34656
0.342639
0.338477
0.333554
0.327774
0.322275
0.317455
0.313263
0.308981
0.304046
0.298118
0.292316
0.287125
0.282557
0.277924
0.272614
0.266393
0.260305
0.254775
0.249706
0.244447
0.238354
0.23172
0.225319
0.219403
0.213554
0.207176
0.200045
0.192889
0.186051
0.179382
0.172353
0.164639
0.156851
0.149309
0.141934
0.134212
0.125973
0.11773
0.109825
0.102091
0.0941419
0.0863455
0.0791147
0.0730851
0.068053
0.0654651
0.0646108
0.0670787
6.06218
6.06218
6.06218
6.06218
6.06218
6.06218
6.06218
6.06218
6.06218
6.06218
6.06218
6.06218
6.06218
6.06218
6.06218
6.06218
6.06218
6.06218
6.06218
6.06218
6.06218
6.06218
6.06218
6.06218
6.06218
6.06218
6.06218
6.06218
6.06218
6.06218
6.06218
6.06218
6.06218
6.06218
6.06218
6.06218
6.06218
6.06218
6.06218
6.06208
6.06039
6.03322
5.4923
1.79399
0.720692
0.510166
0.467825
0.455475
0.448668
0.443723
0.439316
0.435062
0.430647
0.42583
0.420411
0.415171
0.410418
0.40624
0.402233
0.397871
0.39294
0.387462
0.382345
0.37783
0.373963
0.370068
0.365653
0.360322
0.354786
0.349842
0.345577
0.341732
0.337546
0.33251
0.326711
0.321311
0.316641
0.31257
0.308354
0.303383
0.297468
0.291783
0.286772
0.282361
0.277836
0.272526
0.266389
0.260489
0.255217
0.250368
0.245265
0.23924
0.232805
0.226691
0.221116
0.215553
0.209361
0.202427
0.195506
0.188945
0.182512
0.175618
0.168031
0.160353
0.152914
0.145567
0.137861
0.129737
0.121714
0.114103
0.10676
0.0993613
0.0923565
0.0861309
0.0813775
0.0777893
0.0768421
0.0776021
0.0802233
6.06218
6.06218
6.06218
6.06218
6.06218
6.06218
6.06218
6.06218
6.06218
6.06218
6.06218
6.06218
6.06218
6.06218
6.06218
6.06218
6.06218
6.06218
6.06218
6.06218
6.06218
6.06218
6.06218
6.06218
6.06218
6.06218
6.06218
6.06218
6.06218
6.06218
6.06218
6.06218
6.06218
6.06218
6.06218
6.06218
6.06218
6.06218
6.06218
6.06208
6.06064
6.03811
5.58425
1.83351
0.726188
0.51092
0.467496
0.454757
0.447886
0.443015
0.438696
0.434505
0.430135
0.425307
0.419922
0.414824
0.410223
0.406182
0.402196
0.397803
0.392776
0.3873
0.382261
0.377819
0.373962
0.369986
0.365451
0.359982
0.354501
0.349611
0.345417
0.341523
0.337248
0.332034
0.326193
0.320839
0.31622
0.312131
0.307842
0.302719
0.296759
0.29112
0.286172
0.281767
0.277194
0.271762
0.265642
0.259864
0.254747
0.249977
0.244893
0.238852
0.232583
0.226723
0.221428
0.216103
0.210077
0.203449
0.196933
0.190848
0.184825
0.17824
0.170998
0.163719
0.156734
0.149827
0.142448
0.13464
0.12694
0.119615
0.112674
0.105824
0.0995713
0.0942551
0.0906191
0.0882774
0.0886837
0.0908387
0.0934368
6.06218
6.06218
6.06218
6.06218
6.06218
6.06218
6.06218
6.06218
6.06218
6.06218
6.06218
6.06218
6.06218
6.06218
6.06218
6.06218
6.06218
6.06218
6.06218
6.06218
6.06218
6.06218
6.06218
6.06218
6.06218
6.06218
6.06218
6.06218
6.06218
6.06218
6.06218
6.06218
6.06218
6.06218
6.06218
6.06218
6.06218
6.06218
6.06218
6.06208
6.06097
6.04466
5.71468
1.89237
0.73476
0.513336
0.468664
0.455611
0.448758
0.443954
0.439702
0.435528
0.431156
0.426289
0.420959
0.416003
0.411541
0.407597
0.403606
0.399181
0.394074
0.388659
0.383731
0.379383
0.375545
0.371497
0.36684
0.361313
0.355926
0.351122
0.346991
0.343046
0.33869
0.33335
0.327566
0.322318
0.317771
0.313655
0.309278
0.304017
0.29807
0.292515
0.287634
0.283174
0.278476
0.27287
0.266724
0.260967
0.255859
0.250984
0.245715
0.239514
0.233252
0.227441
0.222157
0.216783
0.21065
0.204107
0.197835
0.192092
0.186376
0.180044
0.173185
0.166408
0.16002
0.15367
0.146825
0.139652
0.132655
0.126033
0.119698
0.113421
0.107835
0.103301
0.100601
0.0993458
0.100878
0.104239
0.106711
6.06218
6.06218
6.06218
6.06218
6.06218
6.06218
6.06218
6.06218
6.06218
6.06218
6.06218
6.06218
6.06218
6.06218
6.06218
6.06218
6.06218
6.06218
6.06218
6.06218
6.06218
6.06218
6.06218
6.06218
6.06218
6.06218
6.06218
6.06218
6.06218
6.06218
6.06218
6.06218
6.06218
6.06218
6.06218
6.06218
6.06218
6.06218
6.06218
6.06213
6.06136
6.05221
5.87694
1.97359
0.746537
0.517305
0.471253
0.457961
0.451199
0.446515
0.442338
0.438194
0.433824
0.428868
0.423552
0.418705
0.414386
0.410533
0.40653
0.402048
0.396842
0.391499
0.386685
0.382459
0.378641
0.374544
0.369789
0.364247
0.358961
0.354304
0.350294
0.34635
0.341952
0.336558
0.330896
0.325821
0.321424
0.317348
0.312948
0.307607
0.301723
0.296288
0.291532
0.287082
0.282288
0.276522
0.27034
0.264548
0.259382
0.254315
0.248723
0.242225
0.235758
0.229793
0.224312
0.218709
0.212344
0.20577
0.199565
0.193919
0.188251
0.181957
0.175339
0.168976
0.163097
0.157229
0.150908
0.144407
0.138223
0.132497
0.127043
0.121653
0.116928
0.113127
0.111178
0.110916
0.11343
0.117713
0.120061
6.06218
6.06218
6.06218
6.06218
6.06218
6.06218
6.06218
6.06218
6.06218
6.06218
6.06218
6.06218
6.06218
6.06218
6.06218
6.06218
6.06218
6.06218
6.06218
6.06218
6.06218
6.06218
6.06218
6.06218
6.06218
6.06218
6.06218
6.06218
6.06218
6.06218
6.06218
6.06218
6.06218
6.06218
6.06218
6.06218
6.06218
6.06218
6.06218
6.06213
6.06171
6.05895
6.03921
2.07242
0.75939
0.520475
0.472437
0.458771
0.452008
0.447304
0.443059
0.438809
0.434322
0.429272
0.424057
0.419334
0.415079
0.411233
0.407212
0.402747
0.39762
0.392505
0.387863
0.38375
0.379921
0.375782
0.370981
0.365546
0.36041
0.35584
0.351826
0.347774
0.343215
0.337746
0.332231
0.327257
0.322928
0.31877
0.314231
0.308745
0.303007
0.297774
0.293168
0.288759
0.283952
0.278147
0.272154
0.266636
0.261718
0.25684
0.251362
0.245029
0.238766
0.232977
0.227541
0.221833
0.215286
0.208622
0.202393
0.196706
0.190984
0.184668
0.178244
0.172176
0.166619
0.161054
0.155127
0.149259
0.143884
0.139027
0.134421
0.129984
0.126322
0.123481
0.122256
0.122914
0.126299
0.131227
0.133441
6.06218
6.06218
6.06218
6.06218
6.06218
6.06218
6.06218
6.06218
6.06218
6.06218
6.06218
6.06218
6.06218
6.06218
6.06218
6.06218
6.06218
6.06218
6.06218
6.06218
6.06218
6.06218
6.06218
6.06218
6.06218
6.06218
6.06218
6.06218
6.06218
6.06218
6.06218
6.06218
6.06218
6.06218
6.06218
6.06218
6.06218
6.06218
6.06218
6.06218
6.06222
6.06785
6.22225
2.21305
0.776849
0.52514
0.474415
0.460276
0.453608
0.449024
0.444873
0.440701
0.436284
0.431318
0.426342
0.421791
0.417714
0.413858
0.40978
0.405293
0.400238
0.395289
0.390752
0.386753
0.382851
0.378548
0.373548
0.368127
0.363081
0.358531
0.354406
0.350114
0.345231
0.339642
0.334267
0.329396
0.325086
0.3208
0.31605
0.310423
0.304822
0.299693
0.295142
0.290653
0.285671
0.279792
0.273949
0.268575
0.263728
0.258858
0.253344
0.247126
0.241093
0.235572
0.230326
0.224754
0.218373
0.211898
0.205802
0.200099
0.194318
0.188017
0.18177
0.175977
0.170648
0.165291
0.159715
0.154432
0.149808
0.1457
0.14186
0.138352
0.135748
0.134
0.133639
0.135249
0.139409
0.144796
0.14683
6.06218
6.06218
6.06218
6.06218
6.06218
6.06218
6.06218
6.06218
6.06218
6.06218
6.06218
6.06218
6.06218
6.06218
6.06218
6.06218
6.06218
6.06218
6.06218
6.06218
6.06218
6.06218
6.06218
6.06218
6.06218
6.06218
6.06218
6.06218
6.06218
6.06218
6.06218
6.06218
6.06218
6.06218
6.06218
6.06218
6.06218
6.06218
6.06218
6.0621
6.06203
6.07244
6.38819
2.40241
0.798473
0.530963
0.476977
0.462289
0.455843
0.451362
0.447179
0.442895
0.438267
0.433372
0.428737
0.424436
0.420475
0.416476
0.412165
0.407429
0.402444
0.397783
0.393502
0.389579
0.385481
0.380916
0.375779
0.370703
0.366001
0.361745
0.357671
0.353318
0.348322
0.34287
0.337728
0.333034
0.328737
0.324292
0.319313
0.31362
0.308082
0.302988
0.298343
0.293637
0.288406
0.282466
0.276685
0.271368
0.266454
0.261419
0.255722
0.249568
0.243698
0.2383
0.233071
0.227477
0.221206
0.214972
0.209131
0.203583
0.197855
0.191653
0.185626
0.180111
0.174999
0.169845
0.164674
0.159958
0.156017
0.152534
0.149413
0.146836
0.145282
0.144593
0.145163
0.147749
0.152722
0.158426
0.16026
6.06218
6.06218
6.06218
6.06218
6.06218
6.06218
6.06218
6.06218
6.06218
6.06218
6.06218
6.06218
6.06218
6.06218
6.06218
6.06218
6.06218
6.06218
6.06218
6.06218
6.06218
6.06218
6.06218
6.06218
6.06218
6.06218
6.06218
6.06218
6.06218
6.06218
6.06218
6.06218
6.06218
6.06218
6.06218
6.06218
6.06218
6.06218
6.06207
6.06083
6.04801
5.99757
6.58405
2.66628
0.823917
0.536656
0.478635
0.463374
0.45712
0.452662
0.448421
0.44403
0.439375
0.434837
0.430544
0.426569
0.42265
0.418506
0.414061
0.409282
0.404666
0.400375
0.396478
0.392506
0.388192
0.383411
0.378483
0.373858
0.369553
0.365539
0.361323
0.356671
0.351548
0.346487
0.341723
0.337328
0.332959
0.328248
0.322909
0.317335
0.312078
0.307191
0.302488
0.297551
0.291977
0.28605
0.28042
0.275216
0.270167
0.264853
0.258874
0.252781
0.247057
0.241753
0.236426
0.230622
0.224409
0.218389
0.212829
0.207421
0.201726
0.195711
0.189969
0.184787
0.179921
0.174996
0.170263
0.166111
0.162749
0.159809
0.157386
0.155685
0.155109
0.15537
0.156829
0.160385
0.166182
0.172105
0.173736
6.06218
6.06218
6.06218
6.06218
6.06218
6.06218
6.06218
6.06218
6.06218
6.06218
6.06218
6.06218
6.06218
6.06218
6.06218
6.06218
6.06218
6.06218
6.06218
6.06218
6.06218
6.06218
6.06218
6.06218
6.06218
6.06218
6.06218
6.06218
6.06218
6.06218
6.06218
6.06218
6.06218
6.06218
6.06218
6.06218
6.06218
6.06218
6.06215
6.0617
6.05326
6.0441
6.89227
3.07514
0.857731
0.545126
0.482228
0.466826
0.461098
0.456818
0.452583
0.448143
0.443775
0.439583
0.435659
0.431755
0.427588
0.42307
0.418292
0.413734
0.409478
0.405662
0.401768
0.397391
0.39247
0.387545
0.382906
0.378678
0.374815
0.37069
0.365885
0.360592
0.355483
0.350734
0.346465
0.342269
0.337568
0.332103
0.326503
0.321214
0.316355
0.311813
0.307029
0.30158
0.295684
0.289986
0.284718
0.279786
0.274686
0.269007
0.262867
0.25693
0.251478
0.246249
0.240788
0.234719
0.228574
0.222815
0.217487
0.212163
0.206431
0.200611
0.195198
0.190334
0.185693
0.180984
0.176664
0.17303
0.170145
0.167678
0.165901
0.164972
0.165191
0.166318
0.168615
0.173137
0.179717
0.185796
0.18724
6.06218
6.06218
6.06218
6.06218
6.06218
6.06218
6.06218
6.06218
6.06218
6.06218
6.06218
6.06218
6.06218
6.06218
6.06218
6.06218
6.06218
6.06218
6.06218
6.06218
6.06218
6.06218
6.06218
6.06218
6.06218
6.06218
6.06218
6.06218
6.06218
6.06218
6.06218
6.06218
6.06218
6.06218
6.06218
6.06218
6.06218
6.06218
6.06221
6.06283
6.07178
6.1616
7.12426
3.68773
0.903706
0.559878
0.48964
0.473956
0.468394
0.464079
0.459673
0.455277
0.451055
0.447164
0.44339
0.439316
0.434789
0.429699
0.424817
0.420438
0.416738
0.413136
0.408996
0.404084
0.398637
0.393576
0.389148
0.385395
0.38161
0.377182
0.371644
0.365887
0.360717
0.356242
0.352296
0.348127
0.343026
0.336962
0.331166
0.326114
0.321667
0.317278
0.312256
0.306211
0.300158
0.294661
0.289738
0.28494
0.279663
0.273557
0.267438
0.261798
0.256671
0.251532
0.245855
0.23967
0.233691
0.22825
0.223094
0.217746
0.211944
0.206311
0.201217
0.196605
0.192109
0.1876
0.183647
0.180464
0.177986
0.175954
0.174776
0.174535
0.175447
0.177376
0.180554
0.186001
0.193264
0.199457
0.200721
6.06218
6.06218
6.06218
6.06218
6.06218
6.06218
6.06218
6.06218
6.06218
6.06218
6.06218
6.06218
6.06218
6.06218
6.06218
6.06218
6.06218
6.06218
6.06218
6.06218
6.06218
6.06218
6.06218
6.06218
6.06218
6.06218
6.06218
6.06218
6.06218
6.06218
6.06218
6.06218
6.06218
6.06218
6.06218
6.06218
6.06218
6.06218
6.06207
6.06024
6.0538
6.10843
6.81939
4.98832
0.969265
0.579327
0.497806
0.481017
0.475063
0.470207
0.465792
0.461466
0.457503
0.453846
0.450049
0.445805
0.440897
0.43577
0.431201
0.427216
0.423771
0.420158
0.415932
0.410936
0.405568
0.400718
0.396624
0.393097
0.389399
0.384979
0.379163
0.373336
0.368261
0.363974
0.359929
0.355527
0.349882
0.343371
0.337457
0.332435
0.328003
0.323459
0.318036
0.31159
0.305468
0.300186
0.295432
0.290586
0.284923
0.278554
0.272528
0.267189
0.262218
0.257056
0.251109
0.244968
0.239284
0.234163
0.229141
0.223695
0.217939
0.212535
0.207759
0.203338
0.198917
0.194638
0.19105
0.188285
0.186199
0.1846
0.184008
0.184389
0.185977
0.188649
0.192701
0.199025
0.206788
0.213104
0.214219
6.06218
6.06218
6.06218
6.06218
6.06218
6.06218
6.06218
6.06218
6.06218
6.06218
6.06218
6.06218
6.06218
6.06218
6.06218
6.06218
6.06218
6.06218
6.06218
6.06218
6.06218
6.06218
6.06218
6.06218
6.06218
6.06218
6.06218
6.06218
6.06218
6.06218
6.06218
6.06218
6.06218
6.06218
6.06218
6.06218
6.06218
6.06218
6.06202
6.06002
6.05169
6.08864
6.6278
5.35993
1.0563
0.601212
0.503629
0.483457
0.47714
0.472364
0.467646
0.463056
0.458731
0.454762
0.451179
0.447638
0.443757
0.439372
0.434725
0.430523
0.426708
0.42335
0.419979
0.416073
0.411456
0.406969
0.402928
0.39923
0.39562
0.391647
0.386701
0.381405
0.376555
0.372327
0.368195
0.363569
0.357921
0.351636
0.345875
0.340868
0.336043
0.33094
0.324875
0.318148
0.312004
0.306751
0.301885
0.296787
0.290652
0.284178
0.278314
0.273128
0.268158
0.262771
0.256631
0.250652
0.245287
0.240387
0.235411
0.229871
0.224321
0.219301
0.214878
0.210629
0.20627
0.202254
0.199046
0.19664
0.194901
0.193698
0.193664
0.194596
0.196765
0.200189
0.205018
0.212241
0.220306
0.226786
0.227783
6.06218
6.06218
6.06218
6.06218
6.06218
6.06218
6.06218
6.06218
6.06218
6.06218
6.06218
6.06218
6.06218
6.06218
6.06218
6.06218
6.06218
6.06218
6.06218
6.06218
6.06218
6.06218
6.06218
6.06218
6.06218
6.06218
6.06218
6.06218
6.06218
6.06218
6.06218
6.06218
6.06218
6.06218
6.06218
6.06218
6.06218
6.06218
6.06219
6.06207
6.06195
6.06613
6.18414
4.70234
1.15175
0.626563
0.506417
0.481189
0.473835
0.468818
0.464063
0.459432
0.455218
0.451463
0.448185
0.444868
0.441262
0.437097
0.432657
0.42873
0.425325
0.422467
0.419517
0.416089
0.411939
0.407781
0.404078
0.40086
0.397958
0.394798
0.390913
0.386454
0.382189
0.378106
0.37423
0.370162
0.36537
0.35995
0.354661
0.349761
0.344838
0.339425
0.333053
0.326355
0.320178
0.314637
0.309255
0.303605
0.297053
0.290621
0.284827
0.279635
0.274515
0.268775
0.26257
0.256814
0.25171
0.246915
0.241858
0.23633
0.231108
0.226519
0.222407
0.218313
0.21412
0.210446
0.207616
0.205492
0.204024
0.203212
0.203655
0.205167
0.207769
0.212002
0.217485
0.225613
0.233841
0.240502
0.241429
6.06218
6.06218
6.06218
6.06218
6.06218
6.06218
6.06218
6.06218
6.06218
6.06218
6.06218
6.06218
6.06218
6.06218
6.06218
6.06218
6.06218
6.06218
6.06218
6.06218
6.06218
6.06218
6.06218
6.06218
6.06218
6.06218
6.06218
6.06218
6.06218
6.06218
6.06218
6.06218
6.06218
6.06218
6.06218
6.06218
6.06218
6.06218
6.06218
6.06218
6.06191
6.05787
5.97636
4.57987
1.31899
0.660186
0.513049
0.482641
0.473921
0.468418
0.463384
0.458594
0.454269
0.450442
0.447066
0.443644
0.439929
0.435704
0.431312
0.427446
0.424169
0.421318
0.418279
0.414757
0.410603
0.406657
0.403212
0.400335
0.397684
0.394763
0.391195
0.387148
0.383444
0.38021
0.377382
0.374356
0.370632
0.366071
0.361353
0.356676
0.352101
0.347378
0.341868
0.33583
0.329793
0.323918
0.317892
0.311541
0.304682
0.298173
0.292238
0.286793
0.281319
0.275226
0.269101
0.263554
0.258581
0.253763
0.24855
0.243176
0.238323
0.234108
0.230202
0.226204
0.222338
0.2191
0.216697
0.214808
0.213591
0.213152
0.213996
0.216118
0.219011
0.224059
0.230105
0.239114
0.247413
0.254238
0.255174
6.06218
6.06218
6.06218
6.06218
6.06218
6.06218
6.06218
6.06218
6.06218
6.06218
6.06218
6.06218
6.06218
6.06218
6.06218
6.06218
6.06218
6.06218
6.06218
6.06218
6.06218
6.06218
6.06218
6.06218
6.06218
6.06218
6.06218
6.06218
6.06218
6.06218
6.06218
6.06218
6.06218
6.06218
6.06218
6.06218
6.06218
6.06218
6.06218
6.06218
6.06203
6.06002
6.02355
5.12741
1.56533
0.706911
0.527867
0.491426
0.480751
0.474288
0.468678
0.463678
0.459138
0.455118
0.451408
0.447603
0.443511
0.438975
0.434561
0.430607
0.427187
0.423998
0.420578
0.416691
0.412341
0.408317
0.404833
0.401948
0.399125
0.395949
0.39205
0.38799
0.384449
0.381453
0.37886
0.376082
0.372668
0.368517
0.364466
0.360764
0.357395
0.353796
0.349413
0.344189
0.338628
0.332904
0.327009
0.320816
0.314097
0.307407
0.301006
0.294864
0.288746
0.282393
0.276396
0.270911
0.265877
0.260864
0.255524
0.250405
0.245898
0.241919
0.238103
0.234226
0.23077
0.228002
0.226032
0.224342
0.22347
0.223474
0.224592
0.227362
0.230469
0.236303
0.24289
0.252689
0.261033
0.267999
0.269004
6.06218
6.06218
6.06218
6.06218
6.06218
6.06218
6.06218
6.06218
6.06218
6.06218
6.06218
6.06218
6.06218
6.06218
6.06218
6.06218
6.06218
6.06218
6.06218
6.06218
6.06218
6.06218
6.06218
6.06218
6.06218
6.06218
6.06218
6.06218
6.06218
6.06218
6.06218
6.06218
6.06218
6.06218
6.06218
6.06218
6.06218
6.06218
6.06218
6.06218
6.06205
6.06108
6.05967
5.92175
1.9311
0.764319
0.544503
0.501555
0.489942
0.483556
0.478264
0.473623
0.469249
0.465221
0.461252
0.457083
0.452604
0.447821
0.44334
0.43925
0.435562
0.43187
0.427881
0.423476
0.418821
0.414543
0.410756
0.407411
0.404003
0.400253
0.395891
0.391687
0.387988
0.384831
0.381868
0.378666
0.374796
0.370643
0.36694
0.3638
0.361078
0.358052
0.354264
0.349562
0.344638
0.339867
0.335196
0.330165
0.324282
0.317771
0.311021
0.304194
0.297467
0.29085
0.284717
0.279039
0.273672
0.268312
0.262966
0.258111
0.253842
0.24995
0.246136
0.242489
0.239476
0.237124
0.235498
0.234039
0.233526
0.234123
0.235397
0.238806
0.242123
0.248709
0.25587
0.266272
0.274693
0.28177
0.282881
6.06218
6.06218
6.06218
6.06218
6.06218
6.06218
6.06218
6.06218
6.06218
6.06218
6.06218
6.06218
6.06218
6.06218
6.06218
6.06218
6.06218
6.06218
6.06218
6.06218
6.06218
6.06218
6.06218
6.06218
6.06218
6.06218
6.06218
6.06218
6.06218
6.06218
6.06218
6.06218
6.06218
6.06218
6.06218
6.06218
6.06218
6.06218
6.06218
6.0621
6.06096
6.04866
6.0053
6.52302
2.59123
0.840521
0.564098
0.512899
0.500747
0.495182
0.490949
0.486986
0.482964
0.478915
0.474732
0.470369
0.465741
0.461094
0.456726
0.452549
0.44844
0.444121
0.439502
0.434593
0.429761
0.425233
0.420919
0.416725
0.412389
0.407838
0.40301
0.398503
0.394472
0.390898
0.38735
0.3835
0.379115
0.374921
0.371223
0.368053
0.365016
0.361668
0.35756
0.353192
0.349236
0.345695
0.342168
0.338017
0.332879
0.326879
0.320473
0.313984
0.307448
0.30093
0.294418
0.288152
0.282186
0.27644
0.271154
0.266424
0.262191
0.258205
0.254406
0.251087
0.248487
0.246444
0.245024
0.243938
0.243739
0.24501
0.246371
0.250368
0.253992
0.261257
0.269
0.279859
0.288391
0.295557
0.296814
6.06218
6.06218
6.06218
6.06218
6.06218
6.06218
6.06218
6.06218
6.06218
6.06218
6.06218
6.06218
6.06218
6.06218
6.06218
6.06218
6.06218
6.06218
6.06218
6.06218
6.06218
6.06218
6.06218
6.06218
6.06218
6.06218
6.06218
6.06218
6.06218
6.06218
6.06218
6.06218
6.06218
6.06218
6.06218
6.06218
6.06218
6.06218
6.06218
6.06218
6.0624
6.06608
6.11334
6.87007
4.50906
0.947079
0.587827
0.523228
0.508981
0.503777
0.500252
0.49672
0.492984
0.48902
0.484801
0.480532
0.476384
0.47245
0.468643
0.46475
0.460589
0.456127
0.451549
0.446995
0.442533
0.438185
0.433824
0.4292
0.424228
0.418917
0.413643
0.408716
0.404035
0.39954
0.395064
0.390394
0.385602
0.381228
0.377355
0.373875
0.370311
0.366317
0.361866
0.357749
0.35422
0.351181
0.347976
0.344047
0.339095
0.33376
0.328522
0.323372
0.317925
0.311808
0.305064
0.298202
0.291697
0.285705
0.280368
0.275563
0.271085
0.26689
0.263186
0.260163
0.257887
0.256
0.254723
0.254137
0.254198
0.256113
0.257569
0.262045
0.266096
0.273941
0.282257
0.293465
0.302107
0.309349
0.310762
6.06218
6.06218
6.06218
6.06218
6.06218
6.06218
6.06218
6.06218
6.06218
6.06218
6.06218
6.06218
6.06218
6.06218
6.06218
6.06218
6.06218
6.06218
6.06218
6.06218
6.06218
6.06218
6.06218
6.06218
6.06218
6.06218
6.06218
6.06218
6.06218
6.06218
6.06218
6.06218
6.06218
6.06218
6.06218
6.06218
6.06218
6.06218
6.06218
6.0621
6.06097
6.05516
6.06347
6.37402
5.59924
1.11532
0.627437
0.534655
0.514032
0.506799
0.502309
0.498123
0.494032
0.490046
0.486278
0.482729
0.479378
0.476039
0.472573
0.468813
0.464929
0.461221
0.457674
0.454282
0.450826
0.447042
0.44283
0.438302
0.433748
0.429216
0.42474
0.420225
0.415465
0.41035
0.404949
0.399467
0.394281
0.389514
0.385204
0.381058
0.376789
0.372172
0.367699
0.363721
0.360287
0.357034
0.353454
0.34912
0.344503
0.340225
0.336265
0.332217
0.327504
0.321799
0.315187
0.308378
0.301925
0.296018
0.2906
0.285394
0.280496
0.27616
0.272576
0.269759
0.267621
0.265782
0.264693
0.264646
0.264926
0.267387
0.268979
0.273891
0.278393
0.286775
0.295634
0.307092
0.315853
0.323165
0.32477
6.06218
6.06218
6.06218
6.06218
6.06218
6.06218
6.06218
6.06218
6.06218
6.06218
6.06218
6.06218
6.06218
6.06218
6.06218
6.06218
6.06218
6.06218
6.06218
6.06218
6.06218
6.06218
6.06218
6.06218
6.06218
6.06218
6.06218
6.06218
6.06218
6.06218
6.06218
6.06218
6.06218
6.06218
6.06218
6.06218
6.06218
6.06218
6.06218
6.06218
6.06213
6.06194
6.06041
6.03286
5.18671
1.36998
0.680716
0.543707
0.515363
0.507195
0.503051
0.499419
0.495854
0.492448
0.489228
0.486209
0.483252
0.480167
0.476846
0.473195
0.469598
0.466213
0.463066
0.459984
0.456687
0.453005
0.448931
0.444875
0.440966
0.437237
0.433518
0.42948
0.42493
0.419964
0.414854
0.409708
0.404654
0.399688
0.394762
0.389714
0.384516
0.379497
0.374934
0.370888
0.367214
0.363416
0.359176
0.354666
0.350577
0.347071
0.343824
0.340232
0.335732
0.330173
0.324236
0.318465
0.312874
0.307355
0.301665
0.295829
0.290556
0.286156
0.28269
0.279889
0.277686
0.275898
0.275013
0.2755
0.275935
0.278819
0.280614
0.285959
0.290862
0.299761
0.309127
0.320756
0.329635
0.337007
0.33879
6.06218
6.06218
6.06218
6.06218
6.06218
6.06218
6.06218
6.06218
6.06218
6.06218
6.06218
6.06218
6.06218
6.06218
6.06218
6.06218
6.06218
6.06218
6.06218
6.06218
6.06218
6.06218
6.06218
6.06218
6.06218
6.06218
6.06218
6.06218
6.06218
6.06218
6.06218
6.06218
6.06218
6.06218
6.06218
6.06218
6.06218
6.06218
6.06218
6.06218
6.06218
6.06218
6.06263
6.08835
6.07039
1.84233
0.764169
0.566006
0.527715
0.51766
0.512794
0.508825
0.505066
0.501517
0.498129
0.494907
0.491703
0.488367
0.484807
0.481026
0.477407
0.473982
0.47077
0.467544
0.464098
0.460323
0.456366
0.45259
0.448979
0.445479
0.441854
0.437851
0.43333
0.428657
0.424067
0.419538
0.41503
0.410316
0.405153
0.39947
0.393743
0.388433
0.383622
0.379297
0.375021
0.370477
0.365708
0.361285
0.357499
0.35425
0.351002
0.347186
0.342537
0.337717
0.33316
0.328716
0.324017
0.318711
0.31268
0.306568
0.301205
0.296919
0.293469
0.29046
0.288071
0.286399
0.285712
0.286677
0.287179
0.290436
0.292481
0.298242
0.30349
0.312898
0.322728
0.334478
0.343476
0.350924
0.352888
6.06218
6.06218
6.06218
6.06218
6.06218
6.06218
6.06218
6.06218
6.06218
6.06218
6.06218
6.06218
6.06218
6.06218
6.06218
6.06218
6.06218
6.06218
6.06218
6.06218
6.06218
6.06218
6.06218
6.06218
6.06218
6.06218
6.06218
6.06218
6.06218
6.06218
6.06218
6.06218
6.06218
6.06218
6.06218
6.06218
6.06218
6.06218
6.06218
6.06218
6.06218
6.062
6.05746
6.12504
7.07517
3.03602
0.881172
0.597183
0.546006
0.533772
0.52813
0.523777
0.519856
0.516003
0.512245
0.508516
0.504745
0.500891
0.496898
0.49292
0.489123
0.48545
0.481841
0.478121
0.474222
0.470153
0.466163
0.462328
0.458609
0.454874
0.45092
0.446642
0.442139
0.437714
0.433385
0.429055
0.424668
0.419944
0.414703
0.409078
0.403535
0.398315
0.393412
0.388635
0.383706
0.378469
0.373497
0.369168
0.365482
0.361992
0.358199
0.353859
0.349556
0.345746
0.342287
0.338685
0.334402
0.329101
0.323116
0.317434
0.312572
0.308461
0.304847
0.301408
0.298872
0.297442
0.296833
0.298166
0.298676
0.302292
0.3046
0.310712
0.316291
0.326187
0.336442
0.348258
0.357355
0.364878
0.367013
6.06218
6.06218
6.06218
6.06218
6.06218
6.06218
6.06218
6.06218
6.06218
6.06218
6.06218
6.06218
6.06218
6.06218
6.06218
6.06218
6.06218
6.06218
6.06218
6.06218
6.06218
6.06218
6.06218
6.06218
6.06218
6.06218
6.06218
6.06218
6.06218
6.06218
6.06218
6.06218
6.06218
6.06218
6.06218
6.06218
6.06218
6.06218
6.06218
6.06218
6.06218
6.06223
6.06315
6.08621
6.48453
9.04868
1.06379
0.633765
0.558317
0.543188
0.537985
0.534236
0.530784
0.527318
0.523768
0.520143
0.516417
0.512659
0.508948
0.505277
0.501697
0.498101
0.494357
0.490437
0.48633
0.482225
0.478251
0.474437
0.470641
0.466675
0.462416
0.457843
0.453252
0.448802
0.444385
0.43992
0.435227
0.43016
0.424739
0.419252
0.413912
0.408629
0.403407
0.398162
0.392616
0.387079
0.382151
0.377844
0.373928
0.36993
0.365513
0.361097
0.357325
0.354202
0.351245
0.347817
0.343473
0.338372
0.333352
0.328804
0.324569
0.320501
0.316361
0.312611
0.310127
0.309044
0.308354
0.309892
0.310427
0.314432
0.316963
0.323358
0.3293
0.339637
0.350252
0.362102
0.371307
0.378968
0.38132
6.06218
6.06218
6.06218
6.06218
6.06218
6.06218
6.06218
6.06218
6.06218
6.06218
6.06218
6.06218
6.06218
6.06218
6.06218
6.06218
6.06218
6.06218
6.06218
6.06218
6.06218
6.06218
6.06218
6.06218
6.06218
6.06218
6.06218
6.06218
6.06218
6.06218
6.06218
6.06218
6.06218
6.06218
6.06218
6.06218
6.06218
6.06218
6.06218
6.06218
6.06218
6.06218
6.06218
6.0615
6.0476
5.38163
1.35353
0.688727
0.568516
0.544675
0.537677
0.534428
0.531885
0.529324
0.526608
0.523714
0.520727
0.517729
0.514731
0.511721
0.508617
0.50534
0.50192
0.498375
0.494806
0.491293
0.487813
0.484292
0.480593
0.476644
0.472434