/*--------------------------------*- C++ -*----------------------------------*\
| =========                 |                                                 |
| \\      /  F ield         | OpenFOAM: The Open Source CFD Toolbox           |
|  \\    /   O peration     | Version:  2.2.x                                 |
|   \\  /    A nd           | Web:      www.OpenFOAM.org                      |
|    \\/     M anipulation  |                                                 |
\*---------------------------------------------------------------------------*/
FoamFile
{
    version     2.0;
    format      ascii;
    class       volScalarField;
    location    "2.75";
    object      pB;
}
// * * * * * * * * * * * * * * * * * * * * * * * * * * * * * * * * * * * * * //

dimensions      [1 1 -3 0 0 -1 0];

internalField   nonuniform List<scalar> 
14161
(
9.62266e-05
0.00961923
0.00117242
-0.0019568
-0.00561861
-0.00370059
4.69242e-05
0.00243515
0.00257827
0.00184234
-0.000107166
-0.000739792
-0.0015585
-0.0024037
-0.00252239
-0.00181302
-0.000425088
0.000441902
0.000174935
-0.000251607
-0.00262146
-0.0054336
-0.0100022
0.00133848
0.0312117
-0.0224064
-0.0156254
-0.00467915
-0.00319949
-0.0025608
-0.00214491
-0.00475762
-0.00636753
-0.00492722
-0.00323174
-0.00291652
0.00159669
0.00545441
0.00450214
0.00280312
0.00343465
0.00345026
0.00244915
0.00566967
0.00644157
0.00554102
0.0124722
0.0158068
0.0189779
0.020466
0.0216596
0.0199134
0.0156779
0.0121182
0.00922139
0.00548204
0.00466215
0.00190089
0.000678435
-0.000397174
-0.000450037
-0.00100066
-0.000871672
-0.00160243
-0.00217597
-0.00338804
-0.00417132
-0.00402072
-0.00554957
-0.00589818
-0.00504448
-0.00569739
-0.00501587
-0.00447117
-0.00342045
-0.00271942
-0.00165208
-0.00123329
-0.000159279
-0.000356256
0.00109951
0.00180856
0.0014761
0.00343899
0.00208081
0.00326928
0.00267037
0.00285463
0.00176513
0.00309572
0.00268169
0.00251863
0.00191262
0.00171312
0.00137431
0.0013534
0.000767588
0.000534541
0.000529813
6.47566e-05
0.000399012
0.00012069
0.000641469
0.00151957
0.00146264
0.00209781
0.00205984
0.00245894
0.00044408
0.00124379
0.000677893
-0.000554514
0.000661977
0.000409449
0.000326038
0.000491781
-0.00206728
0.00131351
-0.0046803
0.0203025
-0.0243118
-0.00146072
0.00675073
0.0161072
0.00604762
-0.000734474
-0.00571076
-0.0103074
-0.00544004
-0.000888944
0.00143518
0.00251559
0.00513803
0.00311726
0.0003886
-0.000631507
-0.00250685
-0.00408947
-0.00185749
-0.00103212
-0.00198511
-0.00472762
0.00909871
-0.00381068
0.021774
0.0118117
0.00303759
0.00309914
0.00544852
0.0063663
0.00895761
0.00980231
0.00904092
0.00804038
0.00630749
0.000346793
-0.00223398
-0.000592025
-0.00106455
0.000713992
0.00303373
-0.000868527
-0.00291912
-0.00761854
-0.0100536
-0.0163476
-0.0151014
-0.0132068
-0.0120201
-0.0100146
-0.00960658
-0.00827327
-0.00978264
-0.0085793
-0.00568731
-0.00334523
-0.00289907
-0.00254669
-0.0021472
-0.00167908
-0.00129614
-0.000840585
-0.000270895
-0.000185667
-0.000608992
0.000214181
0.000920115
0.00222318
0.00158377
0.00344329
0.00345649
0.00228469
0.00151801
0.000710329
0.000803555
0.000673276
0.00124647
0.000749539
0.000814396
8.9245e-05
0.000376001
-0.000527648
0.000455525
-0.00109862
0.00156073
-0.000626491
0.0023361
0.000773002
0.00151332
0.00140177
0.000290178
-0.000552873
-0.000651498
0.000389645
0.000617828
0.000608726
0.000743397
0.000332924
0.0009304
0.000743185
0.00148389
0.000905871
0.000220496
4.47542e-05
-0.000553295
-0.000629021
-0.000791883
-0.000485419
-5.59755e-05
-8.21741e-05
0.000184757
-7.45454e-05
-0.000482302
-0.000202245
-8.05659e-05
-0.000379808
0.000777306
-0.000697497
-0.0134549
0.0378505
0.00220967
-0.011049
-0.0261013
-0.0097571
0.000300233
0.00826121
0.0154527
0.00779088
0.000770804
-0.0031985
-0.00637537
-0.00834428
-0.00745701
-0.00262927
0.00160878
0.0030207
0.0028662
0.000684949
-0.00380729
-0.00549765
-0.00165874
-0.00252041
0.0273961
0.0137611
0.00449621
0.000453826
-0.00246612
-0.00162464
-0.00466256
-0.00425132
-0.00546373
-0.0058099
-0.00711327
-0.00620358
-0.00258038
-0.00149201
-0.000683255
-0.000471579
-0.000701782
-0.00194743
0.000896084
0.00188447
0.00288713
0.00540062
0.00731866
0.00578096
0.00242491
0.000748174
-0.000568346
0.00188746
0.00200083
0.00406697
0.00472223
0.00430509
0.00389327
0.00253063
0.00224798
0.00166883
0.00142118
0.00108941
0.000845568
0.000554522
0.000736843
-0.000131157
0.000700708
0.000767072
0.000648565
0.00039826
-0.000548742
-0.000781125
-0.00110831
-0.00100701
-0.00126998
-0.00103227
-0.00123798
-0.000939157
-0.00111778
-0.000737787
-0.000679632
0.000671284
0.000920144
0.002228
-0.000441591
5.39906e-05
-0.00140421
-0.000229739
-0.000884061
-0.000230699
-0.000246592
9.33667e-06
-0.000287405
-1.19187e-05
-0.000394746
-0.000310473
-0.00060358
-0.00049608
-0.000575013
-0.000591009
-0.000861605
-0.000875916
-0.000964945
-0.000430127
-0.000659147
5.01714e-05
-0.000308616
0.000443264
-0.000251053
0.000562178
-0.000455046
0.000292057
-0.000365396
0.000526291
-0.000693858
0.000711984
-0.00119822
0.00100592
-0.00135683
0.0302069
-0.0488967
-0.00176507
0.0138863
0.031146
0.0155235
-0.00103047
-0.0105334
-0.0211172
-0.012199
-0.00150675
0.00239373
0.00653915
0.00953632
0.00527425
0.000881628
-0.000719728
-0.00611391
-0.00714043
-0.000825746
0.00167543
0.00690307
0.013062
0.0065138
-0.00504553
0.00364843
0.00640884
0.00460826
0.00403278
0.00352683
0.00478417
0.00397563
0.00434033
0.00383941
0.00345587
0.00333605
0.00113899
0.00113177
0.000445723
0.000239605
-0.000691055
-0.00147965
-0.00161318
-0.00189574
-0.00132318
-0.00133083
-0.00398495
-0.00455847
-0.00553587
-0.00480783
-0.00428925
-0.00315362
-0.00295633
-0.003027
-0.00268809
-0.00273265
-0.00239903
-0.00160706
-0.00112315
-0.00079869
-0.000507262
-0.000356146
-0.000110374
-5.84804e-05
0.000304891
-0.000321138
0.000409639
9.16004e-06
0.000568999
0.000277737
0.000603484
0.000571242
0.000278579
0.000311136
-0.000397863
0.000267257
-0.000493618
0.000243889
-0.000929032
-0.000369411
-0.00147445
-0.00159605
-0.00346563
-0.00158767
-0.00109371
0.00122256
-0.000596467
0.00149686
-0.000212225
0.000208492
0.000655639
0.000320316
0.000558517
0.000502018
0.00045951
0.000553241
0.000353171
0.000524952
0.000372526
0.000475818
0.000470442
0.0003676
0.000160701
-2.83561e-05
-0.000355005
-6.67483e-05
-0.000623143
-3.20947e-05
-0.000791822
3.16537e-05
-0.000646619
-1.98824e-05
-0.000412534
0.000123745
-0.000283511
0.000133369
-0.000458902
0.000781744
-0.000374245
-0.0188764
0.0570585
0.00306527
-0.017519
-0.0384468
-0.0168284
0.000114545
0.0106441
0.023563
0.0145368
0.00080128
-0.00297582
-0.00750369
-0.0120772
-0.00705103
-0.00161654
0.00210693
0.0047004
0.00317408
-0.000614859
-0.00409504
-0.00570081
-0.000809819
-0.000565286
0.0256167
0.00978128
0.00281473
-0.000644151
-0.0010219
-0.00207935
-0.00273704
-0.00271639
-0.00331368
-0.00333883
-0.00378134
-0.00353712
-0.00293869
-0.00267836
-0.00233585
-0.00169176
-0.00171105
-0.00147719
-0.000646855
-0.00119832
-0.000626975
-0.00091565
-0.000960118
-0.00106866
-2.98119e-05
-0.000442167
0.000269061
0.000729954
0.000845562
0.00111489
0.00153419
0.00151496
0.0015767
0.001163
0.00102235
0.000601171
0.000430083
-1.87629e-05
-0.000227769
-0.000661459
-0.00102922
-0.00149038
-0.00209083
-0.00214369
-0.002012
-0.00202877
-0.00213911
-0.00160556
-0.000846841
-0.000385552
-0.000159352
0.000557605
-0.000183662
0.000510955
-0.00103962
0.000169552
-0.000611399
0.000392944
-3.83046e-05
0.000666565
-0.000377725
0.00109922
-0.00047098
0.00095529
-0.000534211
-0.00022337
9.94366e-05
-0.000253192
-0.000277262
-0.000160459
-0.00044631
-0.000136904
-0.000591564
-0.000360333
-0.00072628
-0.000511367
-0.00102628
-0.000662215
-0.00107235
-0.000386868
-0.0007539
-0.000109256
-0.000575823
0.000231638
-0.000492929
0.000426241
-0.00063245
0.000551122
-0.000597625
0.000654646
-0.000714787
0.000891235
-0.00121391
0.00137825
-0.00134144
0.0325679
-0.0631427
-0.00258657
0.0165983
0.0400943
0.0237456
0.000381052
-0.0109932
-0.0272279
-0.0182124
-0.00287912
0.00190669
0.00653348
0.00840914
0.00457122
0.000513863
-0.00275242
-0.00577611
-0.00813911
-0.00240267
-0.00179756
0.000153671
0.00174403
0.0164866
-0.00526044
0.0136305
0.00737175
0.00685719
0.00603474
0.00436201
0.00298615
0.00188021
0.00149122
0.00112553
0.00073418
0.000673787
-0.000399368
-0.00058242
-0.000871318
-0.000953432
-0.00106556
-0.000972625
-0.000657734
-0.000715601
-0.000335058
0.000235401
-0.000839867
-0.000379079
-0.00124255
-0.00150105
-0.00173033
-0.00158288
-0.00147466
-0.00163546
-0.00120013
-0.00101919
-0.00064677
-0.000910359
-0.000393305
-0.000596103
8.58133e-05
-0.000178265
0.000456191
0.00036399
0.000893951
0.00032422
0.000790091
-0.000669993
3.86238e-05
-0.000671323
0.000441682
-9.1157e-05
-0.000379018
0.000437796
-0.000341998
-0.000179685
-0.00161578
-0.000728852
-0.00262372
-0.000656723
-0.00272149
-0.00141899
-0.0033497
-0.000724948
-0.00292077
-0.000865584
-0.00202561
-0.0011069
-0.000669569
-0.00134172
0.00217027
-0.000208494
0.00108157
0.000444352
0.000307599
0.000281286
0.000103956
0.000465247
7.10807e-05
0.000128166
5.32204e-05
-1.095e-05
-0.000252133
-0.000411716
-0.000575566
-7.38629e-05
-0.000548756
0.000109955
-0.000733461
0.00034213
-0.000737244
0.000358452
-0.000688513
0.00032892
-0.000694232
0.000356774
-0.000331643
0.000374076
-0.000260255
-0.021555
0.0691836
0.00518492
-0.0191377
-0.0448485
-0.0230003
-0.00128561
0.0100185
0.0257339
0.0192457
0.00198338
-0.00177907
-0.00677154
-0.00885239
-0.00450373
-0.00175815
0.00234871
0.00480187
0.00458377
0.00380555
0.00106803
-0.00210337
-0.0054685
0.00215435
0.00266902
0.0138726
0.0032821
-0.00103893
-0.0026727
-0.00201378
-0.00193619
-0.00111222
-0.0018531
-0.00173874
-0.00197213
-0.00155471
-0.00126315
-0.00122908
-0.000163328
-0.000359515
0.000671311
-7.14292e-05
0.000326358
0.000301742
-0.000976806
0.000416822
-0.00105013
-9.19662e-05
-0.000342181
-0.00100183
-0.000938403
-0.0010842
-0.00111029
-0.00177575
-0.000728436
-0.000505682
-0.000142518
-0.000957099
-0.000172592
6.02697e-05
0.000177607
0.00034418
4.12004e-05
0.000777886
-0.000153084
0.000232436
0.000165827
0.000207696
1.40418e-05
-0.000303833
-0.00132676
-0.00143092
-0.00185714
-0.00241291
-0.00194821
-0.00131144
-0.00234509
0.000887928
-0.00247038
0.0025459
-0.00112657
0.00329931
0.000837902
0.00440486
0.00236264
0.00275249
0.000888948
0.000668637
3.75407e-05
-0.00245177
0.00254771
-0.000963912
0.00159549
6.80076e-05
1.68078e-05
-7.98621e-05
-0.000578887
-0.000475707
-0.0010236
-0.000689757
-0.000982001
-0.000505513
-0.000620239
0.000757128
-0.00018763
-0.000164834
-0.000107298
0.00024253
-0.000753564
0.000641965
-0.000879824
0.000780319
-0.000866661
0.000971716
-0.000876649
0.00121629
-0.00113606
0.000943084
-0.000880354
0.031428
-0.071145
-0.00370258
0.0159852
0.0418292
0.0290268
0.00207605
-0.00928825
-0.0259692
-0.0209399
-0.0050245
0.000936726
0.00509567
0.00464922
0.00101744
0.00066873
-0.00212355
-0.00532655
-0.00697456
-0.00596858
-0.00715085
-0.00667381
-3.54764e-05
0.0089293
0.0311615
0.0158687
0.00634536
0.00116507
-0.000280226
0.00183229
0.00239192
0.00178613
0.000101801
0.000675915
0.000426984
0.00105179
0.00138455
0.000177061
0.00161951
-0.000496004
0.000611652
-6.12088e-05
0.000290646
0.000149578
-0.00119726
0.00169215
-0.000907635
0.000209367
-0.000623939
-0.000730989
-0.000630846
-0.00108664
-0.000858591
-0.00177981
-0.000479329
-0.000817562
-0.00033156
-0.000764144
0.000632235
0.000485153
0.000733099
0.00090714
0.000713384
0.000877888
0.000788724
0.000369525
-0.000532256
-0.00073613
-0.00244487
-0.00106735
-0.00203863
-0.00122142
-0.00218641
-0.00129838
-0.00225587
-0.00109979
-0.00194128
-0.000356806
-0.00221695
0.00105641
-0.00380674
0.00090066
-0.00660871
0.00197622
-0.00442902
0.00178366
0.0012436
0.000259285
0.00235058
-0.00738005
0.00394966
-0.00462292
0.00289606
-0.00126968
0.000224433
-0.000120118
-5.02625e-06
0.00015357
0.000161869
-0.000537516
-0.000450441
-0.000879599
-0.00068212
-0.000777567
-0.000728147
-0.000466439
0.000189087
-0.000600475
-0.000330859
0.00040955
-0.000725899
0.000630127
-0.000928495
0.000722991
-0.00097558
0.000718212
-0.000958718
0.000645959
-0.000596621
-0.0236334
0.0759259
0.00729574
-0.0175629
-0.0437898
-0.0278557
-0.00234061
0.00746483
0.0222188
0.018591
0.00425316
-0.000922738
-0.0048077
-0.00707624
-0.00412421
-0.00109451
0.00179139
0.00362503
0.00411232
0.00423942
0.00446413
0.00188771
0.00137048
-0.0154133
0.0253464
-0.00913267
-0.0045843
-0.00415782
-0.00390839
0.000371542
0.000220916
-0.00110577
-0.000295039
-0.000913709
-0.000517073
-0.00262634
0.000989087
-0.0017154
0.00142583
-0.00018003
0.000724137
0.000661593
0.000614124
-0.000238594
-0.000343602
0.00171783
-0.000798096
0.000682365
0.000504892
2.42863e-05
0.000136491
-0.000563973
0.000375962
-0.000952871
0.000225524
-0.000329845
-0.000162603
-0.000895679
-0.000331136
-0.000842161
-0.000655535
-0.00100586
-0.00224069
-0.000983285
-0.000859148
-0.000173256
0.000449394
0.00021354
0.0013018
0.00104893
0.000758117
0.00165509
0.00121838
0.000897951
2.52453e-05
-0.000748932
-0.00248393
-0.00113272
-0.00185554
-0.000433591
-0.00307837
0.000893339
-0.00511052
0.00302203
-0.00672789
0.00623604
-0.000503558
0.00194058
0.00164728
-0.00158011
0.00699391
-0.00241799
0.00432953
-0.00151135
0.000242682
-0.00023573
-0.000729077
-0.000521274
-0.00101032
-0.000465645
-0.000727733
0.000247301
0.000184611
0.000431728
-0.000584033
-4.86222e-05
-0.000594721
0.000534333
-0.00167777
0.000638395
-0.000722576
0.00076023
-0.000842015
0.00108868
-0.00122954
0.00140888
-0.00150113
0.00148346
-0.00136353
0.0271465
-0.073535
-0.00459908
0.014193
0.0383206
0.0287919
0.00346342
-0.00683432
-0.0186602
-0.0183249
-0.00635617
0.000229265
0.00317317
0.00340992
0.00161089
0.000566711
-0.00294327
-0.0048626
-0.00686464
-0.00947329
-0.0142195
-0.0186896
-0.0192026
-0.00175692
0.0735726
0.0148139
0.0135965
0.00674156
-0.000748855
0.0017405
-0.00155925
-0.00153672
0.000639282
-0.00140571
0.00164307
-0.000335649
0.00049477
-0.0021692
-0.000264072
-0.000939425
-0.000652504
0.000717525
0.000942743
0.00100937
0.000155982
0.00278646
0.000314043
0.0024276
0.000239473
0.000935084
0.000497492
0.000596694
0.00109423
0.00135557
0.000759487
0.000755317
0.000136926
0.000882236
9.71247e-06
0.00115866
0.000108542
0.000558506
4.16336e-05
0.00128815
0.000351091
0.00074466
0.000593464
-0.000709386
0.00024917
-0.000864104
-0.00070767
-0.000198282
-0.000690995
-0.000272551
-0.000698332
-0.000782333
-0.001509
-0.000461213
-0.00115181
0.000327197
-0.00141826
0.000457848
-0.00288988
-0.000198959
-0.0085324
0.00494082
-0.00148253
0.000173631
-0.000700811
-0.00302992
-0.000590906
-0.00676544
0.00277103
-0.00374933
0.00073544
-0.00058964
-0.000276657
-0.000385245
-0.000202634
-0.000606911
-0.000237528
-0.00142613
-0.000462875
-0.00100307
-0.000226006
-0.000411669
-0.000969002
-0.000638757
6.64459e-06
-0.000587418
0.000375073
0.000315059
-0.000661041
0.000666869
-0.000998847
0.000730531
-0.00130309
0.0010994
-0.0012599
-0.0240319
0.075079
0.00809962
-0.0141357
-0.0373865
-0.028169
-0.00310102
0.00380078
0.0146951
0.0143129
0.00461259
0.000151215
-0.00339078
-0.00456152
-0.00389712
-0.00118799
0.00120186
0.00254916
0.0040718
0.00631216
0.00911217
0.0139304
0.0129457
0.00984468
-0.0296223
0.0160109
-0.0142685
-0.00317297
-0.00469287
-0.00225712
0.00193414
0.00084528
-0.000377278
-0.000623832
0.00106292
-0.00109307
-0.00249687
-0.00071428
-0.000307844
0.000523963
0.000109729
0.000155907
0.000309521
0.000755656
0.000695739
0.00107601
0.000695384
0.000705114
-0.000428062
0.000904954
0.000136416
0.000777842
0.000479164
0.00057564
0.000204384
0.000247071
-0.000383434
-0.00018171
0.000379262
0.000347314
0.000574725
0.00108695
0.00111682
0.000118901
-5.4735e-05
-0.000690386
0.000158874
-0.000961514
0.000613354
-0.000798765
0.000766181
-0.000407956
9.30707e-05
-0.000649144
-0.000829065
-0.00054141
-0.00122458
-0.000342213
-0.00172233
-0.00114434
-0.00162338
-0.00221371
-0.00244824
-0.00231823
-0.00973036
7.33171e-05
-0.00245585
-0.0064987
-0.00494671
-0.00688153
-0.00160141
-0.00735897
0.00457285
-0.00449321
-0.000588967
0.000450307
-0.0012228
-0.000299733
-0.00042439
-0.000813643
-0.000251298
-0.000123698
-2.59749e-05
0.000351124
-0.000497203
0.000518249
-2.63711e-06
-0.000281243
0.000223174
-0.00019207
-0.00117983
9.61747e-05
-0.000896925
0.000572149
-0.000988986
0.00120014
-0.00153889
0.00170306
-0.00179925
0.0153438
-0.064609
-0.00538632
0.011984
0.0315082
0.025487
0.00408993
-0.00219904
-0.0104348
-0.0119358
-0.00584157
-0.000535518
0.00133843
0.00265032
0.00197461
4.10192e-06
-0.00212331
-0.00513816
-0.0066685
-0.0108963
-0.0182203
-0.0283276
-0.0428707
-0.0289153
0.0266185
0.0744522
0.0400072
0.0106102
-0.00241261
-0.0036481
-0.000404373
-0.00283301
-0.00281307
-0.00404833
-0.00212717
0.00241896
0.00344542
0.00285004
0.00290248
0.00323079
0.00222663
0.0020649
0.000932268
2.49841e-05
-0.000359807
-0.000205652
0.000237451
0.000889051
0.00110172
0.00119898
0.00148265
0.00127979
0.000924196
0.000911146
0.000926189
0.000495916
0.00108517
-3.84704e-05
-0.000990998
7.04646e-06
-0.000299619
-0.000134932
-0.000722713
-0.000681625
-0.000733342
-0.00165288
-0.00253247
-0.00224606
0.00135676
0.000478259
0.00171771
0.00012552
0.00112395
-0.000313027
0.000164019
8.95917e-05
-0.000338917
8.99238e-05
-0.000987854
0.000276361
-0.00230303
0.000950468
-0.00109026
-0.00486643
-0.00799137
0.001728
-0.00333879
-0.0137954
5.84049e-05
-0.00672799
0.00156816
-0.00113201
0.00495069
-0.000343768
0.00149908
0.00138983
-0.000348557
-0.000138405
-0.00134351
-0.000923165
-0.000292222
-0.000657959
-0.000368483
-0.000807984
-0.000274146
-0.000550888
-0.00107007
-1.78632e-05
-0.00158171
0.0012395
-0.00011309
-0.000253231
0.000284375
0.000478885
-0.000133378
0.000708172
-0.00128227
0.00127648
-0.00176511
-0.0158396
0.056596
0.00609063
-0.00834027
-0.0274678
-0.0229299
-0.00483192
0.00171834
0.00772344
0.00681874
0.00258255
0.00124816
-0.002177
-0.00272435
-0.00288571
-0.00101221
0.000386423
0.00104387
0.00192665
0.00329967
0.0068817
0.0142255
0.0283235
0.0463024
0.0419094
-0.017307
-0.0445962
-0.0317884
-0.0155509
-0.00662114
-0.00403841
-0.00143654
0.00283915
0.00414567
0.0032831
0.00276248
0.00217089
0.00132184
0.000644863
-0.00119584
-0.00182543
-0.00185595
0.000964914
0.00130388
-4.82439e-05
0.000472334
0.00073689
0.000717563
0.000727976
0.000332332
0.000852944
4.92484e-05
0.000729641
4.96349e-05
0.000290616
-0.000199079
-0.000508618
0.000991921
-0.00061897
-0.000646454
-0.0015026
-0.00120732
-0.00104891
-0.00100613
0.00163135
-4.16253e-05
0.000649188
0.0022187
0.000510637
0.000574858
0.00096118
-0.000657178
0.00144018
-0.000783419
0.000634568
0.00126122
-0.000519821
-0.000961923
-0.00204623
-0.00404071
-0.00542057
-0.00621244
-0.00653405
-0.00634659
-0.0108774
0.00507769
-0.00307274
-0.0102375
0.0042354
0.000150684
0.00164363
-0.00501472
0.000852747
-0.000698108
0.00137096
0.00413359
0.000296336
0.000832759
-0.000743108
0.00046468
0.000569328
0.000468077
-0.000507001
-0.000235028
0.000681806
0.000401645
0.000462466
-9.9953e-05
0.000446873
0.000805129
0.000301255
-3.92428e-05
-0.00247666
0.000249804
-0.000877696
0.000879033
-0.00195487
0.00153134
-0.0022153
-0.00449601
-0.0388503
-0.00394799
0.00839496
0.0236291
0.0163993
0.00356942
-0.000142511
-0.00468148
-0.00601879
-0.00362282
-0.00126916
0.000774118
0.00138026
0.000311941
0.000160015
-0.00199251
-0.00278821
-0.00467299
-0.00802298
-0.0117922
-0.0196932
-0.0336263
-0.0433706
-0.0148911
0.0677958
0.0638357
0.0393437
0.00563788
0.00077054
-0.000753773
0.00873278
0.00780071
0.00554085
0.00332761
0.00212282
0.000519345
3.53492e-05
-6.91813e-05
-0.00039634
0.000411682
0.000902006
-0.000464986
-0.00135067
-0.00072298
-0.000594385
0.00110661
-0.000167187
0.000532423
0.000711815
0.000829018
0.00148835
0.00198245
0.00120122
0.00133957
0.000591959
0.000796149
0.000443746
0.000644472
-0.00196454
0.000943393
0.00032851
0.000238013
-0.000105648
-0.000478554
-7.03166e-05
0.000973773
-0.000366923
-0.000472278
-0.000519608
0.000300816
-0.00146571
0.00088384
0.000354782
0.00203358
0.00310213
0.00155079
-0.000399828
0.000166581
-0.00255322
-0.00296364
-0.0047046
-0.00422547
-0.00195194
-0.00753653
0.00682706
-0.000325539
-0.00798139
0.00445147
0.00513983
0.00177096
0.00367197
0.00678206
0.00332365
0.00379918
0.00211167
0.000547932
0.00306888
0.00136356
-0.00105526
-0.00147447
0.000458865
0.000679299
-0.000197101
-0.0008753
-0.000315304
-0.000559445
0.000139335
-0.000851918
-0.00072191
-0.00071819
0.00231184
-0.00236337
0.00102338
-0.000176152
0.00162156
-0.00207955
0.00191601
-0.00231333
-0.00120262
0.022631
0.00147991
-0.0044916
-0.0162167
-0.013399
-0.00408199
0.000629423
0.00259736
0.00331728
0.00155356
0.000393403
-0.00120561
-0.00167315
-0.00169796
-0.000314199
0.000375796
0.000503492
-0.00135086
-0.00264971
-0.00311188
-0.00437927
-0.0110538
-0.00881096
-0.0112776
0.0452539
-0.0399961
-0.0286215
1.79902e-05
0.0149482
0.00916004
-0.00162894
-0.00640313
-0.00310285
-0.00132183
-0.00160206
-0.00097988
-0.00127138
-0.00152387
-0.00299135
-0.00307403
-0.00232343
-0.00224085
-0.000852808
0.000769667
-4.79486e-05
0.00141976
0.000759713
0.00054639
0.000410911
-0.000632823
-0.00118362
-0.00169795
-0.00157239
-0.00206609
-0.00259763
-0.00316414
-0.00246111
-0.00326265
-0.00317751
-0.00120766
-0.00177533
-0.000383212
0.000212099
0.00122377
0.000455016
0.000974342
0.000322346
0.000596511
-0.000589639
-0.000668655
-0.001225
1.11724e-05
-0.000372984
0.00255265
-0.000329482
-0.000528788
-0.00288771
-0.00085219
-0.00763605
0.00485973
-0.00360554
-0.00108187
-0.000312287
-0.000372694
0.0069941
0.00451219
0.000401044
0.00154735
0.0135417
0.00883095
0.00583497
-0.00107343
0.000569114
0.00157972
0.000969603
0.00150843
0.000718949
0.000338062
0.000325819
-0.000686456
0.000615526
-0.000394482
-0.000327845
0.00011879
0.000215316
0.000180967
-1.2355e-05
-0.000109433
-0.000567525
-0.000893915
0.000174898
-0.00148753
0.000531591
-0.0010797
0.000128398
-0.00221658
0.00194123
-0.00295353
-0.0208236
-0.00511909
-0.000504157
0.00540528
0.0131165
0.00994286
0.00244697
0.000141182
-0.00228858
-0.00201972
-0.00196852
-0.00156791
-0.000829543
1.52356e-05
0.000228451
6.81229e-05
-0.00171737
-0.00193722
-0.00265301
-0.00409339
-0.00617924
-0.0097572
-0.0104606
-0.00772349
0.045336
0.0293549
0.0395656
0.0174756
-0.00814639
-0.00673205
-0.00267262
-0.000232346
0.00321114
0.00167716
0.00157421
0.00073308
-0.00026026
-0.000241448
-7.41258e-05
-0.000537296
0.000263655
-0.000617151
-0.000436022
-0.00020655
0.000716707
-0.00318231
-0.00142466
-0.00271066
-0.00224437
-0.00271492
-0.00232855
-0.00287636
-0.00290382
-0.00266359
-0.00248984
-0.00237266
-0.00108634
-0.000901412
-0.00123844
-0.00130009
-0.001028
-0.00144869
-0.00137545
-0.00133233
-3.46547e-05
-0.00109411
0.000463991
0.00039447
0.00171277
0.00171568
0.00203298
0.00213773
0.00302548
0.00275383
0.00311732
0.00353001
0.00377483
0.00373534
0.00325229
0.00307607
0.00479913
0.000804585
0.00700147
0.0035201
0.0088082
0.00223591
0.00741396
0.00681582
0.00516944
-0.00263895
0.00602124
0.00362437
0.00318207
0.000251073
0.00645404
0.000392454
0.00367711
0.00119245
0.00251488
-0.000501773
-0.000105437
0.00126818
-0.000124163
0.000348874
-0.000120897
0.00017793
0.000105523
0.000588163
-0.000179298
-9.87518e-05
-0.00109223
8.19488e-05
0.000267848
0.000870813
-0.00185095
0.000782443
-0.00174158
0.00221569
-0.00294476
0.00098978
0.00353769
0.000465835
-0.00234218
-0.00627532
-0.00588543
-0.00207644
-0.000226427
0.000894824
0.00129324
0.000457322
-0.000746101
-0.000359692
-0.000165168
-0.000523781
-0.0010445
0.00100595
0.000408568
-0.00127112
-0.00277487
-0.00435606
-0.00628722
-0.00571604
-0.00827097
0.0297552
0.0189173
0.00613357
0.00144958
-0.000170227
-0.00124816
0.00312336
0.00411551
0.00298981
0.000781324
-0.000338943
-0.000634166
-0.000656473
0.000296762
-0.00106043
0.000735946
-0.000668433
-6.35683e-05
-0.000385166
-0.000533391
0.000265013
-0.00229938
-0.00118184
-0.00195232
-0.00193873
-0.00192521
-0.00179895
-0.00154553
-0.00103943
-0.000717878
-0.000638148
-0.000166262
-0.000465413
0.000222597
5.99334e-05
0.000438457
0.000766538
0.00104627
0.00183679
0.00182198
0.00191094
0.00172584
0.00177795
0.0017662
0.00176379
0.00177152
0.00152223
0.00174944
0.00154734
0.00192155
0.00158872
0.00188371
0.00207285
0.00213795
0.00340593
0.00252619
0.00342477
0.0035157
0.00324442
0.00300074
0.00311215
-0.000532623
0.00125974
0.00295865
0.00713791
0.00347593
0.00465347
0.00208361
0.00122283
-0.000285403
0.00100536
-0.00053036
0.00133924
0.0018689
0.00129285
-0.00121434
-0.000329568
0.000916809
-0.000276065
0.000152455
-0.000113399
0.000125276
-6.4324e-05
0.000177371
-0.000305498
-7.93993e-05
-0.000779756
-0.000530093
-0.000713518
0.00156363
-0.00369602
0.00112854
-0.00166204
0.00200165
-0.0035367
-0.0194603
0.00265072
0.000923774
0.00296074
0.00533436
0.00446832
0.000993355
-0.00018934
-0.00105611
-0.00129826
-0.00131058
1.76277e-05
-0.000523235
6.62407e-05
-0.000277015
0.000100197
-0.00014243
-0.000324939
-0.00134128
-0.00195576
-0.00288312
-0.00397975
-0.00272717
-0.0051778
0.0186745
0.0279817
0.00966234
0.00261226
-0.000389345
0.000259034
0.000758468
0.000478961
0.000748951
0.00193498
0.00225257
0.00184105
0.000967284
0.00105932
0.000369329
0.00163662
8.11015e-05
0.000550338
0.00048201
0.000115337
0.00112871
-0.000611253
0.000765954
-0.000317351
6.67531e-05
-0.00013863
-0.000165951
-0.000103403
-0.000221414
-8.85739e-05
-3.18827e-05
-9.40943e-06
0.000176837
0.000222023
0.00033983
0.000406616
0.000431962
0.00040862
-6.77093e-05
-0.00022054
-0.000640501
-0.000609686
-0.00110092
-0.000633262
-0.00111375
-0.000502232
-0.000707266
-4.35243e-05
-0.000151173
0.000678965
0.000378024
0.0013211
0.00113941
0.00154871
0.00144549
0.000928207
0.00131749
-0.000490788
-0.000310441
-0.000742021
-0.00139294
0.00121655
0.000698896
-0.00101786
-0.00160433
-0.00092321
-0.00205446
0.000750581
0.000622603
0.00200172
0.00295203
0.00198785
0.00125758
0.00195309
0.00143278
-0.000222638
0.000609763
0.0011226
5.87372e-05
0.000502785
2.4323e-05
7.80143e-05
-2.19436e-05
0.000107943
-0.000279376
1.2455e-05
-0.000545623
-0.000437721
-0.000903487
0.00170421
-0.00328849
0.00152648
-0.00125817
0.00167999
-0.00337174
-0.0049031
-0.00127129
-0.000316884
-9.96871e-05
-0.00116218
-0.00169668
-0.000515945
-0.000203175
0.000166914
0.00035509
0.000116969
-0.000962751
-0.000946484
-0.000946565
-0.000617711
-0.000182946
-0.000201598
-0.000553926
-0.00136082
-0.00210871
-0.00242504
-0.00173841
-0.00214841
-0.00100805
0.00694344
0.0395434
0.0115032
0.00627031
0.00393244
0.00289625
0.00221235
0.00149452
0.00153814
0.00036994
1.9165e-06
-9.19217e-05
-0.00131807
-0.000917346
-0.0010951
-0.000682869
-0.0014112
-0.00136468
-0.00112368
-0.00165626
-0.00113826
-0.00203784
-0.00099881
-0.00167972
-0.00128539
-0.00132733
-0.00115441
-0.00110148
-0.00087194
-0.000827052
-0.000719855
-0.000654294
-0.000617019
-0.000410968
-0.000369978
-0.000154278
-0.000123662
9.51122e-06
4.32629e-05
3.33237e-05
0.000189474
0.000211183
0.000371314
0.000386254
0.000443126
0.000283033
0.000181668
6.63406e-06
-0.000105634
-0.000200892
-0.000352888
-0.000343567
-0.000310339
-0.000113555
1.15531e-05
2.65053e-05
0.000247133
-0.00023923
6.14911e-05
-0.00140395
-0.000936853
-0.000269003
-0.00188685
-0.000485382
0.000534686
-0.000578774
-0.000704576
-0.000440025
0.00146885
0.000564943
0.000274981
0.000494369
0.000798864
0.0013372
-0.000819596
-0.000339378
-0.000309215
0.00021468
-0.000589989
0.000245384
-0.000369078
-3.13152e-05
-0.000192169
8.92215e-05
-0.000314055
3.22738e-05
-0.000857246
-0.000360443
-0.000837715
0.000305864
-0.00280548
0.00127182
-0.0012033
0.00154821
-0.00294043
-0.013413
0.00222274
0.000794377
0.00126223
0.00167213
0.00143415
0.000709533
-0.000177163
-0.000612657
-0.0012143
-0.00126602
-0.00109059
0.000413685
0.00121627
0.00106132
0.000851173
4.79311e-05
-0.000487145
-0.00111855
-0.000893554
-7.71636e-05
0.000337368
0.00320426
0.00634446
-0.00406327
0.0256547
0.00805862
0.00338872
0.0014251
0.00145755
0.00140066
0.00180454
0.00148723
0.00135024
0.00161685
0.00125205
0.00159672
0.00190736
0.00229603
0.00245299
0.00230302
0.00210139
0.00227444
0.0016582
0.0021683
0.00149519
0.00208125
0.0012906
0.00139266
0.00106895
0.000925121
0.000768466
0.000547393
0.000444472
0.000263182
0.000163395
7.2355e-05
2.1311e-07
-3.37942e-05
-8.45056e-05
-0.000185628
-0.000281555
-0.000425579
-0.000508852
-0.000755424
-0.000832622
-0.0011511
-0.00122205
-0.00145573
-0.00128089
-0.00132215
-0.00100276
-0.00102392
-0.000641404
-0.00071049
-0.000314626
-0.000501281
-0.00022842
-0.000501775
-0.000374149
-0.000388312
-0.000380941
-0.000206188
-0.000319806
0.0011296
-0.000866013
-0.000135157
-0.00115465
-0.00183487
-0.00215667
-0.00135118
-0.0021491
-0.00159504
-0.00113488
-0.000549771
0.0022028
0.00137084
0.00361845
-0.000467627
0.000924463
0.000985954
0.000466167
-0.000106454
0.000321539
-4.9415e-05
-7.54166e-05
-0.00019303
-1.26246e-05
-0.000457735
7.0573e-05
-0.000220779
0.00011855
-0.00122402
0.000347617
-0.0023911
0.00150916
-0.00168817
0.00150261
-0.00293862
-0.0089308
-0.00108955
-0.000473439
0.00045044
0.00024603
9.43852e-05
-7.25144e-06
-0.000125417
-0.000313093
-0.000211886
-0.000350344
-0.000968178
-0.000196641
0.000653575
0.000649226
0.000379181
0.000120283
-0.00064561
-0.000934943
-0.00137548
-0.00123129
-0.00118707
-0.00185597
-0.00408216
0.000631081
0.0300253
0.0099822
0.00833925
0.00628532
0.00499878
0.00328016
0.00220492
0.00122622
0.00123
0.00148955
-0.000103506
-0.000211793
-0.000172231
-0.000339524
-0.000913317
-0.0010746
-0.00167574
-0.00155961
-0.00223518
-0.00189588
-0.00251922
-0.00188942
-0.00218019
-0.00180547
-0.0017776
-0.00140428
-0.00142806
-0.00107539
-0.00105366
-0.000968295
-0.000885978
-0.000885559
-0.000806106
-0.000765637
-0.000720517
-0.000731612
-0.000744502
-0.000745654
-0.000710016
-0.00061536
-0.000458289
-0.000277191
6.16146e-05
0.000218283
0.000531797
0.000610504
0.000652393
0.000721507
0.000705367
0.000573073
0.000426136
0.000288236
0.000138168
-0.000157381
-0.000244164
-0.00095954
-0.000227607
-0.000961555
-0.000360851