/*--------------------------------*- C++ -*----------------------------------*\
| =========                 |                                                 |
| \\      /  F ield         | OpenFOAM: The Open Source CFD Toolbox           |
|  \\    /   O peration     | Version:  2.2.x                                 |
|   \\  /    A nd           | Web:      www.OpenFOAM.org                      |
|    \\/     M anipulation  |                                                 |
\*---------------------------------------------------------------------------*/
FoamFile
{
    version     2.0;
    format      ascii;
    class       volScalarField;
    location    "2.75";
    object      T;
}
// * * * * * * * * * * * * * * * * * * * * * * * * * * * * * * * * * * * * * //

dimensions      [0 0 0 1 0 0 0];

internalField   nonuniform List<scalar> 
14161
(
1.06205
1.21501
1.23113
1.20114
1.11958
1.04672
1.07304
1.10563
1.15046
1.17408
1.16034
1.15188
1.13793
1.11492
1.08743
1.06383
1.05531
1.06236
1.07911
1.08963
1.08386
1.04192
0.861468
0.926367
1.79002
1.78569
1.61427
1.53889
1.50725
1.50705
1.49918
1.48998
1.46007
1.45784
1.47335
1.4991
1.5572
1.62235
1.66383
1.67425
1.67404
1.69036
1.69603
1.72122
1.76001
1.81722
1.88235
1.97475
2.09394
2.22497
2.35713
2.47794
2.60478
2.74919
2.84492
2.90096
2.91717
2.90911
2.89297
2.86472
2.82471
2.77774
2.7214
2.6564
2.60299
2.55992
2.52692
2.48658
2.45716
2.43917
2.42839
2.43041
2.44835
2.47485
2.50137
2.52684
2.53916
2.54455
2.55868
2.56979
2.5798
2.59526
2.61903
2.64579
2.67906
2.7227
2.76361
2.80751
2.85205
2.89259
2.91508
2.91927
2.91767
2.89186
2.84144
2.78383
2.77205
2.79526
2.8254
2.87037
2.93894
2.98362
3.00216
3.01113
3.00841
2.99916
3.00507
3.03188
3.06484
3.08956
3.08196
3.05007
3.07815
3.12171
3.15217
3.15652
3.16262
3.18722
3.21706
1.29289
1.09018
1.15492
1.17757
1.31249
1.36434
1.31646
1.2533
1.17106
1.10882
1.11927
1.14677
1.17673
1.23033
1.27375
1.27536
1.27958
1.26806
1.25522
1.25514
1.25693
1.2492
1.11418
1.25048
2.70393
2.97443
3.1992
3.20711
3.15213
3.18624
3.27103
3.34856
3.37066
3.3544
3.31904
3.27102
3.26081
3.27482
3.31174
3.36472
3.45155
3.44454
3.41379
3.37465
3.31483
3.24469
3.18861
3.1798
3.17287
3.17346
3.17729
3.163
3.15172
3.15847
3.15928
3.16038
3.15622
3.14603
3.13716
3.13094
3.12355
3.11812
3.11727
3.12046
3.1229
3.13114
3.14771
3.15921
3.16407
3.17201
3.17744
3.17416
3.16209
3.15352
3.14999
3.15317
3.16482
3.1816
3.2012
3.21983
3.23569
3.24838
3.25816
3.2644
3.28304
3.30342
3.31462
3.31835
3.30306
3.27664
3.23508
3.21697
3.21552
3.2267
3.2428
3.25993
3.27276
3.2785
3.27599
3.26365
3.24809
3.24214
3.24404
3.2504
3.25576
3.25413
3.24295
3.23267
3.22006
3.20874
3.20232
3.20353
3.20785
3.2055
3.19606
3.19021
3.202
3.25168
3.25017
0.865526
1.43113
1.1984
1.12528
0.883106
0.745252
0.860194
0.98215
1.15087
1.2542
1.20551
1.1501
1.09208
1.02381
0.951031
0.911921
0.937077
0.952005
0.97025
0.977013
0.963309
0.943062
0.871022
1.77477
3.00144
3.30489
3.33508
3.26033
3.28413
3.33847
3.37171
3.38482
3.37138
3.37175
3.36858
3.36743
3.36786
3.36921
3.37178
3.3671
3.34959
3.34677
3.33906
3.32759
3.32165
3.32209
3.31861
3.30076
3.29338
3.28535
3.28348
3.28326
3.28285
3.28668
3.2928
3.29502
3.29614
3.29631
3.29745
3.3025
3.30585
3.31111
3.32003
3.32977
3.34007
3.35018
3.36054
3.37073
3.37599
3.37706
3.37924
3.37734
3.37561
3.37427
3.37668
3.38423
3.39452
3.4061
3.41638
3.4243
3.43176
3.44348
3.45276
3.4643
3.47636
3.48727
3.48389
3.47539
3.46322
3.45844
3.45844
3.45682
3.45453
3.44552
3.43697
3.43109
3.42843
3.4288
3.43161
3.43352
3.43442
3.43617
3.4354
3.43047
3.41291
3.38829
3.35992
3.33578
3.31316
3.29887
3.28555
3.27284
3.24916
3.22384
3.20661
3.21035
3.23734
3.30897
3.26616
1.33043
0.903633
0.989574
1.22907
1.43005
1.51484
1.39384
1.27868
1.14237
1.02947
1.07236
1.13163
1.19846
1.29746
1.36899
1.34494
1.33753
1.29331
1.24051
1.23142
1.31611
1.40122
1.47771
3.14314
3.67139
3.68319
3.52978
3.49101
3.47807
3.47371
3.48134
3.4917
3.50239
3.51445
3.52617
3.53326
3.53367
3.528
3.51881
3.50893
3.48993
3.47388
3.4564
3.44213
3.43167
3.41629
3.39096
3.37456
3.3608
3.35682
3.35295
3.34167
3.3252
3.30948
3.29898
3.2892
3.28249
3.27695
3.27129
3.26488
3.25976
3.25728
3.25804
3.25877
3.26077
3.26286
3.26781
3.27442
3.28035
3.28497
3.2891
3.2935
3.29896
3.30426
3.31057
3.31978
3.3342
3.35079
3.36506
3.37985
3.39089
3.40359
3.41203
3.42408
3.43185
3.43695
3.43365
3.42908
3.42853
3.43886
3.4476
3.44894
3.4483
3.44798
3.45248
3.46372
3.48141
3.50424
3.52727
3.53704
3.53544
3.52924
3.51665
3.50075
3.47853
3.45391
3.42754
3.40808
3.38787
3.36982
3.34206
3.31484
3.28058
3.2648
3.25878
3.2771
3.30415
3.31259
3.29224
0.764082
1.55913
1.20741
1.11575
0.784023
0.585854
0.719845
0.923458
1.19294
1.36088
1.29506
1.21419
1.13405
1.03274
0.960459
0.95505
0.98988
1.03581
1.0464
1.04826
1.02527
0.981387
0.904472
1.74932
3.0685
3.41627
3.46719
3.46652
3.49799
3.53437
3.53498
3.53409
3.53725
3.54291
3.54789
3.54723
3.54173
3.53238
3.51821
3.5015
3.48368
3.46675
3.44867
3.42984
3.41458
3.3911
3.36102
3.34036
3.3233
3.3146
3.30494
3.29489
3.28584
3.27981
3.27467
3.27058
3.26462
3.25961
3.25446
3.25028
3.24441
3.24145
3.23555
3.23277
3.22625
3.22087
3.20985
3.19982
3.18926
3.18151
3.17735
3.17908
3.18488
3.19525
3.21227
3.2311
3.25379
3.28116
3.3055
3.32999
3.34762
3.36972
3.38567
3.39843
3.40248
3.4107
3.40775
3.40647
3.40515
3.41447
3.42391
3.42633
3.42857
3.43957
3.45818
3.48361
3.51601
3.54566
3.56327
3.56067
3.54928
3.53845
3.52613
3.51015
3.49379
3.47918
3.46278
3.44658
3.42649
3.40757
3.38083
3.35669
3.32844
3.31992
3.31458
3.31809
3.31232
3.29665
3.30752
1.30441
0.746446
0.827943
1.13866
1.41688
1.56753
1.42279
1.27453
1.11644
0.957034
0.998655
1.05838
1.13687
1.22476
1.26776
1.25222
1.22795
1.17674
1.10061
1.10005
1.07838
1.10979
1.12479
1.37918
2.94139
3.24417
3.3604
3.43601
3.48199
3.51454
3.52267
3.52564
3.52843
3.5286
3.52438
3.51306
3.50414
3.49038
3.47322
3.45231
3.43269
3.40841
3.38446
3.36299
3.34341
3.32186
3.2958
3.27791
3.25908
3.24409
3.22736
3.20794
3.18944
3.17571
3.16193
3.15019
3.1379
3.12817
3.11867
3.11105
3.101
3.09315
3.08565
3.08132
3.07351
3.06855
3.05406
3.0465
3.02927
3.02619
3.01128
3.00917
3.00912
3.00555
3.01471
3.02891
3.05224
3.08742
3.12622
3.17225
3.21023
3.25094
3.28115
3.31358
3.33605
3.36565
3.37571
3.38723
3.3866
3.38973
3.39992
3.40698
3.41741
3.43192
3.45465
3.48402
3.5245
3.55584
3.56392
3.55233
3.5367
3.52657
3.52181
3.51457
3.5014
3.48565
3.4709
3.45737
3.44018
3.42175
3.39857
3.37773
3.35415
3.33981
3.32499
3.31538
3.29539
3.27559
3.31057
0.699732
1.62214
1.22109
1.14246
0.780514
0.533617
0.693337
0.914623
1.22414
1.41823
1.3602
1.2406
1.1888
1.1026
1.0653
1.05538
1.08255
1.13703
1.17295
1.18346
1.15954
1.13469
0.978541
0.81355
2.74911
3.10666
3.22518
3.32408
3.35663
3.36858
3.38477
3.4003
3.40833
3.4119
3.40752
3.3938
3.38439
3.37171
3.35598
3.33573
3.31498
3.28987
3.26404
3.23837
3.2167
3.19495
3.16431
3.13912
3.11136
3.08542
3.05766
3.03125
3.0017
2.98264
2.95992
2.94205
2.92528
2.92122
2.90981
2.90441
2.90156
2.90502
2.90223
2.89965
2.89172
2.88655
2.87437
2.86891
2.85211
2.84726
2.83115
2.81946
2.81025
2.80565
2.80534
2.80997
2.81433
2.84208
2.86547
2.91292
2.9629
3.03599
3.09833
3.16957
3.20768
3.2595
3.2871
3.31877
3.33644
3.35296
3.37489
3.37616
3.39495
3.41327
3.44072
3.47161
3.50926
3.54336
3.55114
3.53993
3.52017
3.5086
3.50325
3.49593
3.48882
3.47977
3.47437
3.45771
3.43862
3.41952
3.40357
3.38299
3.36173
3.34124
3.31904
3.29237
3.26737
3.26732
3.31166
1.26801
0.618405
0.647648
0.992367
1.31064
1.5441
1.40837
1.26856
1.09984
0.907174
0.890103
0.925686
0.998324
1.05468
1.04795
1.03618
1.00181
0.942419
0.877154
0.834494
0.746268
0.680645
0.544771
0.686068
2.31564
2.83989
2.93856
3.02372
3.05941
3.08483
3.1086
3.11487
3.14908
3.16151
3.18481
3.19604
3.19244
3.1807
3.17212
3.15251
3.12432
3.09311
3.06099
3.02814
2.99787
2.97454
2.93936
2.91339
2.88009
2.8519
2.82018
2.79755
2.76538
2.74473
2.71795
2.70243
2.68257
2.68032
2.66466
2.65665
2.65081
2.65032
2.65354
2.65602
2.65566
2.65332
2.64435
2.64412
2.63069
2.63786
2.62831
2.64168
2.62907
2.64588
2.63965
2.66183
2.66714
2.69718
2.711
2.76051
2.78293
2.83948
2.87936
2.95058
3.00521
3.09382
3.14681
3.21347
3.24306
3.27078
3.32195
3.33328
3.36968
3.38824
3.41831
3.45351
3.48575
3.51834
3.52928
3.52583
3.51285
3.49704
3.48887
3.48346
3.48012
3.46697
3.46189
3.45502
3.44065
3.4181
3.3971
3.37626
3.36421
3.3341
3.30159
3.25597
3.23599
3.25853
3.30621
0.623866
1.62467
1.21012
1.17317
0.819091
0.566207
0.690358
0.879289
1.18397
1.35382
1.2989
1.20181
1.13607
1.0541
1.01559
1.0108
1.039
1.08063
1.11677
1.14252
1.14146
1.11885
1.04444
0.633842
2.07592
2.79442
2.82038
2.90305
2.87169
2.84569
2.84999
2.8381
2.86527
2.86856
2.90691
2.9073
2.93456
2.93225
2.935
2.90813
2.88308
2.86031
2.83756
2.81696
2.79286
2.77839
2.74251
2.72239
2.69
2.66741
2.6325
2.61854
2.58743
2.571
2.5397
2.53344
2.50311
2.49828
2.4701
2.46597
2.44365
2.43462
2.42292
2.41558
2.41348
2.41389
2.41166
2.41088
2.40265
2.40628
2.39948
2.42493
2.42389
2.45315
2.44761
2.47768
2.46942
2.5021
2.50893
2.56952
2.59229
2.66981
2.71247
2.78745
2.82529
2.91734
2.97486
3.0712
3.12624
3.17097
3.22965
3.25356
3.31138
3.34734
3.38614
3.42475
3.45417
3.48138
3.49845
3.50517
3.50322
3.49544
3.48428
3.47393
3.46755
3.46249
3.44611
3.4366
3.43201
3.41943
3.39657
3.36836
3.35172
3.31519
3.2795
3.23691
3.22202
3.24309
3.29124
1.21261
0.492699
0.440391
0.811331
1.11432
1.42409
1.33566
1.20624
1.05398
0.84497
0.807874
0.803151
0.840606
0.867709
0.866954
0.86532
0.823714
0.7749
0.715844
0.609857
0.449592
0.227517
-0.100484
-0.246247
0.95903
2.31216
2.42197
2.57133
2.56642
2.54727
2.54825
2.54836
2.6072
2.62461
2.66456
2.64895
2.67146
2.6341
2.5957
2.56398
2.53976
2.52488
2.51591
2.51422
2.49404
2.49779
2.46234
2.4465
2.42116
2.40835
2.38635
2.37674
2.36663
2.3742
2.35608
2.36188
2.33716
2.34582
2.32191
2.3246
2.30237
2.30713
2.29616
2.3001
2.30618
2.31058
2.31125
2.30586
2.28863
2.29097
2.27512
2.29004
2.28194
2.30884
2.30045
2.33511
2.3242
2.36458
2.35855
2.41472
2.42079
2.48979
2.51401
2.5892
2.64714
2.74483
2.78491
2.87003
2.95042
3.0203
3.1031
3.14586
3.21107
3.278
3.3434
3.39444
3.43173
3.45391
3.47227
3.48124
3.48724
3.48599
3.48183
3.47442
3.46639
3.45697
3.44486
3.43327
3.41481
3.40941
3.39981
3.36962
3.3481
3.3083
3.26529
3.23541
3.22007
3.22675
3.26646
0.571324
1.558
1.18503
1.18496
0.897133
0.610285
0.710281
0.86919
1.02077
1.20092
1.14929
1.05321
0.965024
0.951856
0.862583
0.84875
0.873415
0.908367
0.961855
1.01108
1.07958
1.17044
1.28853
1.07001
1.37434
2.46091
2.62222
2.61231
2.59316
2.54694
2.56146
2.54735
2.53758
2.48352
2.44385
2.37603
2.31126
2.26323
2.22954
2.21024
2.19489
2.18599
2.18278
2.18293
2.18012
2.19116
2.17243
2.16772
2.16677
2.17437
2.18834
2.19141
2.21917
2.21449
2.23921
2.22351
2.23419
2.21959
2.2325
2.21482
2.21561
2.2112
2.20246
2.19301
2.19556
2.19555
2.20969
2.22355
2.22818
2.23192
2.21964
2.23644
2.22376
2.24769
2.22659
2.25775
2.23878
2.27613
2.2539
2.30671
2.29055
2.34719
2.34605
2.39197
2.41518
2.5032
2.55447
2.62676
2.7175
2.77599
2.87726
2.95215
3.06081
3.15859
3.24916
3.33034
3.39415
3.42329
3.45225
3.46034
3.47083
3.47606
3.47533
3.47116
3.46374
3.45561
3.44629
3.43197
3.41904
3.396
3.39179
3.37888
3.35167
3.31279
3.26984
3.23883
3.22123
3.21933
3.24224
1.11745
0.357386
0.224429
0.602859
0.884174
1.18014
1.1686
1.06316
0.949834
0.780695
0.734659
0.706811
0.711299
0.734293
0.738352
0.75857
0.717552
0.664514
0.590165
0.46273
0.235722
-0.119133
-0.676364
-1.41087
-0.721403
1.21562
1.85423
1.97534
1.86707
1.80354
1.81216
1.82581
1.79293
1.83295
1.83915
1.8749
1.93039
1.99263
2.00829
2.0253
2.02511
2.02356
2.01883
2.01273
2.00879
2.0128
2.01024
2.01474
2.03922
2.05536
2.09167
2.11172
2.14301
2.15433
2.17853
2.17706
2.18389
2.19772
2.18956
2.18985
2.18382
2.16849
2.15785
2.13136
2.12248
2.1163
2.13155
2.1692
2.18265
2.19172
2.18191
2.196
2.18643
2.21506
2.19803
2.23848
2.21609
2.25026
2.21268
2.24111
2.21479
2.24506
2.21025
2.24365
2.24359
2.32761
2.3455
2.39914
2.51287
2.57651
2.70207
2.78733
2.90453
3.02502
3.14677
3.25412
3.3254
3.35962
3.40149
3.41702
3.43035
3.43974
3.44361
3.44679
3.45065
3.44924
3.44423
3.43413
3.41721
3.40083
3.37789
3.37533
3.35928
3.32384
3.27808
3.2462
3.22499
3.22115
3.22311
0.701635
1.39166
1.21583
1.16509
0.931801
0.703119
0.739556
0.799594
0.890059
0.964027
0.951264
0.893079
0.813979
0.794294
0.743251
0.752068
0.746583
0.780894
0.799648
0.826035
0.875583
0.991285
1.21682
1.7931
1.56878
2.22259
2.52314
2.31873
2.20641
2.0749
1.97217
1.92951
1.89835
1.92798
1.96013
1.96735
1.99932
2.03092
2.022
2.01808
1.99835
1.98143
1.97945
1.98115
1.96656
1.95699
1.97577
1.97506
2.00739
2.02657
2.06579
2.09706
2.13157
2.15105
2.16933
2.17822
2.17863
2.20104
2.22146
2.21703
2.21142
2.20083
2.19497
2.17788
2.18549
2.20068
2.18787
2.18581
2.2031
2.22208
2.22206
2.22572
2.22207
2.24221
2.22499
2.26145
2.23295
2.26518
2.20943
2.23516
2.16803
2.19432
2.1191
2.14151
2.104
2.18015
2.20746
2.26745
2.37048
2.42947
2.52346
2.60014
2.73942
2.89588
3.05427
3.2135
3.30746
3.35651
3.38819
3.39819
3.40244
3.4077
3.41211
3.42306
3.43207
3.43804
3.43632
3.43011
3.42034
3.40618
3.38918
3.3621
3.3567
3.34124
3.29519
3.25883
3.23202
3.22773
3.22065
0.818669
0.311264
0.26132
0.506359
0.76393
0.988744
0.997332
0.926023
0.864886
0.773687
0.727793
0.712915
0.707379
0.733488
0.735898
0.71341
0.700902
0.667283
0.618605
0.508107
0.350242
0.0869256
-0.387473
-1.12338
-1.50975
-0.362656
1.15536
1.5979
1.65802
1.55357
1.51817
1.57575
1.62292
1.67296
1.73038
1.78927
1.85589
1.90255
1.92291
1.93043
1.94661
1.97242
1.98983
2.00428
2.01559
2.00857
2.06918
2.10315
2.15461
2.19241
2.2495
2.28958
2.34418
2.3859
2.42194
2.44979
2.47044
2.49337
2.50984
2.52797
2.52855
2.5453
2.53597
2.53929
2.53137
2.53354
2.52255
2.50797
2.49722
2.48736
2.45936
2.44175
2.41559
2.42354
2.39604
2.41418
2.35515
2.37128
2.30013
2.30484
2.22003
2.22468
2.14115
2.16125
2.09851
2.13647
2.18141
2.24306
2.37021
2.47701
2.56782
2.62523
2.72182
2.83328
2.95536
3.1166
3.23767
3.34163
3.40364
3.3922
3.38166
3.40264
3.41368
3.41099
3.40675
3.41095
3.41491
3.41648
3.41263
3.40317
3.39272
3.36953
3.34814
3.34644
3.3135
3.27176
3.2366
3.23635
3.22164
0.985351
1.20202
1.15065
1.08621
0.902432
0.755219
0.770977
0.796069
0.83843
0.840099
0.824338
0.796001
0.760327
0.747938
0.721415
0.701099
0.714665
0.733071
0.702285
0.65175
0.60602
0.523799
0.292919
0.00922545
0.113514
2.01205
2.4525
2.21466
2.28968
2.33969
2.49104
2.52725
2.50336
2.50749
2.54987
2.56129
2.59602
2.58526
2.58198
2.589
2.59206
2.60128
2.61195
2.62433
2.64143
2.65729
2.69549
2.72546
2.76073
2.78897
2.8101
2.82995
2.8439
2.85095
2.85458
2.85229
2.84656
2.83785
2.84543
2.8259
2.83208
2.81869
2.82083
2.81959
2.82339
2.81905
2.82311
2.81202
2.81181
2.78705
2.77586
2.74314
2.7366
2.7039
2.7106
2.65035
2.63489
2.55807
2.52968
2.45027
2.38709
2.34872
2.25988
2.28202
2.20727
2.16733
2.20919
2.20447
2.26597
2.3799
2.53035
2.67881
2.79846
2.9076
3.01269
3.13259
3.22198
3.33342
3.40989
3.39219
3.38719
3.39298
3.39801
3.40361
3.40854
3.41201
3.41225
3.41097
3.4068
3.39957
3.3915
3.37524
3.35583
3.347
3.32232
3.29146
3.24553
3.24488
3.22558
0.551857
0.465756
0.501195
0.632491
0.76732
0.886967
0.911114
0.884358
0.838317
0.801973
0.761157
0.731602
0.716383
0.722714
0.696164
0.739335
0.721158
0.695938
0.66922
0.601658
0.529775
0.402377
0.173414
0.0735229
0.777646
2.76689
2.90306
2.8451
2.75767
2.73734
2.7737
2.80349
2.84493
2.86509
2.87043
2.88671
2.88154
2.89524
2.90333
2.90087
2.91134
2.91842
2.92546
2.92926
2.93147
2.94056
2.95397
2.96513
2.9799
2.98328
2.99577
3.00036
3.00816
3.00953
3.01717
3.01398
3.01578
3.0106
3.00978
3.00752
3.00782
3.00473
3.01267
3.01513
3.02738
3.03452
3.04906
3.0569
3.07171
3.07342
3.08243
3.07805
3.08328
3.06664
3.06681
3.02126
2.99422
2.91182
2.85633
2.75006
2.68141
2.56945
2.51709
2.41816
2.40665
2.33868
2.39592
2.37281
2.33879
2.37898
2.48431
2.59451
2.70768
2.82756
2.96798
3.11333
3.23057
3.36058
3.40862
3.40166
3.39644
3.39857
3.40084
3.4081
3.41266
3.4132
3.41152
3.40885
3.40579
3.40045
3.39492
3.38591
3.36353
3.34283
3.32834
3.31482
3.25257
3.24944
3.22626
0.948912
0.950925
0.930269
0.904622
0.843856
0.777341
0.780069
0.797822
0.793496
0.795838
0.777645
0.7548
0.753798
0.72777
0.693062
0.717954
0.75308
0.740301
0.712921
0.664383
0.625151
0.534855
0.393527
0.298522
1.61168
2.89977
3.08313
3.06168
3.00637
2.97384
2.98055
3.00646
3.05253
3.08869
3.11594
3.1315
3.12666
3.13146
3.12857
3.13328
3.14221
3.1543
3.16221
3.17123
3.17494
3.18381
3.1962
3.20281
3.21126
3.21702
3.22494
3.23166
3.23821
3.24124
3.24763
3.24658
3.24955
3.24939
3.25375
3.25477
3.25969
3.26174
3.26794
3.27013
3.2746
3.27324
3.27952
3.27935
3.28628
3.28655
3.29049
3.28944
3.2916
3.28947
3.29105
3.27847
3.26712
3.23472
3.19897
3.11327
3.04053
2.90931
2.80913
2.66283
2.55476
2.45499
2.37709
2.34334
2.40009
2.43139
2.50745
2.59901
2.70621
2.81618
2.91881
3.05457
3.19755
3.35255
3.3983
3.40817
3.39772
3.40017
3.40603
3.40902
3.41045
3.40971
3.40796
3.40599
3.40517
3.40226
3.39739
3.39144
3.37404
3.34724
3.32678
3.3246
3.26488
3.25719
3.22586
0.565019
0.603862
0.644255
0.71691
0.781573
0.838339
0.842569
0.841094
0.806468
0.782602
0.746994
0.736826
0.741322
0.719127
0.698735
0.749491
0.762775
0.742481
0.717983
0.697205
0.676563
0.618443
0.558601
0.485983
2.38655
3.04998
3.25258
3.2374
3.20959
3.19011
3.21068
3.23361
3.25531
3.25995
3.25064
3.24374
3.23667
3.24067
3.25326
3.26801
3.27995
3.29041
3.29584
3.29891
3.29956
3.3024
3.31212
3.31395
3.32097
3.32217
3.32647
3.32893
3.33281
3.33565
3.33947
3.34167
3.34528
3.34693
3.34855
3.35037
3.35178
3.35317
3.35252
3.35353
3.35516
3.35954
3.36343
3.36866
3.37283
3.37659
3.37783
3.37691
3.37493
3.37133
3.36416
3.35068
3.33429
3.31489
3.29277
3.25175
3.19806
3.11053
2.9996
2.84108
2.71402
2.58944
2.52237
2.46699
2.43177
2.44287
2.45059
2.49962
2.59876
2.73133
2.87242
3.02098
3.17424
3.32989
3.39108
3.40026
3.39549
3.40374
3.40811
3.40558
3.40418
3.40252
3.4022
3.40318
3.40533
3.40509
3.40017
3.39375
3.38279
3.34963
3.32708
3.33016
3.27567
3.25965
3.21989
0.86514
0.768061
0.773027
0.788855
0.790283
0.778196
0.786658
0.779723
0.778702
0.768279
0.745797
0.722035
0.725676
0.692952
0.679134
0.734337
0.757013
0.742085
0.723182
0.710926
0.700594
0.686538
0.701492
0.709587
2.83533
3.16733
3.38668
3.35156
3.31861
3.31822
3.32706
3.33298
3.32515
3.31703
3.31008
3.30996
3.31777
3.33053
3.34225
3.35383
3.35865
3.36143
3.36103
3.36211
3.36229
3.36252
3.3659
3.36781
3.36956
3.36944
3.37189
3.37363
3.37732
3.38021
3.384
3.38626
3.38843
3.3894
3.39038
3.39121
3.39201
3.39147
3.39169
3.3908
3.38988
3.38619
3.38462
3.37921
3.37555
3.37022
3.36662
3.36297
3.36191
3.36119
3.36062
3.35725
3.35146
3.33988
3.32051
3.28858
3.24818
3.18275
3.09031
2.95822
2.80316
2.65531
2.55228
2.48303
2.45074
2.45782
2.47343
2.48739
2.55304
2.65629
2.7926
2.95748
3.13354
3.29732
3.37667
3.3867
3.39537
3.40351
3.40035
3.3943
3.39319
3.39367
3.39671
3.39987
3.40398
3.40563
3.40277
3.39712
3.38609
3.35711
3.32914
3.32737
3.28309
3.26254
3.21314
0.67012
0.717732
0.73011
0.750113
0.776972
0.795159
0.804463
0.792934
0.77323
0.747005
0.705854
0.691988
0.728848
0.729323
0.730609
0.788378
0.800185
0.780513
0.758604
0.75828
0.754853
0.768021
0.820203
0.892887
3.01861
3.15369
3.36076
3.3634
3.3281
3.31839
3.32571
3.3403
3.35017
3.35689
3.36323
3.37277
3.38306
3.39219
3.39437
3.39672
3.3931
3.39174
3.38949
3.38911
3.38698
3.38337
3.37847
3.37806
3.37825
3.37859
3.38319
3.38935
3.39536
3.40204
3.40932
3.41362
3.41603
3.41616
3.4159
3.41411
3.41154
3.40844
3.40324
3.39837
3.39453
3.39109
3.38729
3.38263
3.37825
3.37374
3.36994
3.36551
3.3604
3.3549
3.352
3.35097
3.35199
3.35134
3.3446
3.32517
3.28954
3.23637
3.16196
3.06119
2.92321
2.77278
2.64756
2.54834
2.49755
2.46427
2.45095
2.46239
2.49852
2.58195
2.71177
2.89602
3.09657
3.26899
3.36482
3.37552
3.39163
3.4019
3.39349
3.38654
3.38894
3.39108
3.39458
3.39818
3.40346
3.40508
3.4038
3.39932
3.38804
3.36357
3.33202
3.32908
3.28756
3.26492
3.20394
0.744868
0.730994
0.73163
0.741604
0.752326
0.769947
0.773354
0.771381
0.75922
0.746941
0.718442
0.709154
0.742966
0.736006
0.733145
0.797553
0.812821
0.791541
0.776307
0.767511
0.755991
0.761036
0.761593
0.947218
3.08487
3.1691
3.31444
3.35557
3.35682
3.36229
3.36995
3.38378
3.3926
3.39749
3.40076
3.40324
3.4063
3.40725
3.39961
3.39064
3.37981
3.37619
3.37628
3.37514
3.37493
3.37383
3.37251
3.37494
3.37777
3.38245
3.38893
3.39693
3.40522
3.41479
3.42582
3.43206
3.43396
3.43297
3.42786
3.42077
3.41184
3.40593
3.40163
3.39738
3.39356
3.39192
3.39221
3.39221
3.39214
3.38881
3.38439
3.37898
3.37346
3.36532
3.35722
3.3488
3.34307
3.33951
3.33779
3.3305
3.31315
3.27731
3.21953
3.14227
3.02914
2.87758
2.73745
2.60294
2.53229
2.47245
2.44025
2.446
2.47544
2.53967
2.65107
2.82263
3.03042
3.2212
3.34255
3.35841
3.38
3.39871
3.39026
3.38265
3.38704
3.38916
3.39168
3.39629
3.40138
3.40294
3.40305
3.3991
3.38885
3.36881
3.33336
3.32217
3.28907
3.26666
3.19421
0.706226
0.746305
0.750873
0.754482
0.764065
0.775216
0.776436
0.771191
0.758176
0.740105
0.716859
0.69238
0.741865
0.741871
0.730951
0.790505
0.804067
0.785593
0.783697
0.788857
0.802696
0.862076
0.97963
1.44111
3.29426
3.50012
3.52107
3.56104
3.57863
3.56223
3.5299
3.48428
3.43324
3.40002
3.39128
3.39169
3.39603
3.40066
3.39704
3.38866
3.37456
3.36773
3.36576
3.36706
3.368
3.37083
3.3722
3.37391
3.37691
3.38133
3.38609
3.39234
3.4001
3.41111
3.425
3.43271
3.43377
3.43039
3.42258
3.41023
3.40062
3.395
3.39142
3.38803
3.38608
3.38624
3.38945
3.39323
3.39316
3.39025
3.38504
3.37879
3.37314
3.36616
3.35889
3.35146
3.34423
3.33814
3.33196
3.32364
3.31308
3.29681
3.26052
3.19996
3.11591
2.98016
2.83533
2.6731
2.58074
2.4992
2.44203
2.41988
2.43757
2.49753
2.62082
2.79606
2.98894
3.16042
3.29975
3.33143
3.35537
3.38896
3.38563
3.37775
3.38308
3.38506
3.38794
3.39286
3.39923
3.40077
3.40066
3.39651
3.38815
3.37357
3.33496
3.31937
3.28425
3.26607
3.18133
0.71582
0.735344
0.746707
0.751302
0.756094
0.76153
0.761773
0.753373
0.742165
0.733689
0.698255
0.718782
0.792397
0.796651
0.781432
0.819623
0.825941
0.799536
0.775861
0.748187
0.720809
0.645318
0.452905
0.159295
2.31346
2.96105
3.10736
3.19131
3.28472
3.33181
3.34279
3.314
3.26977
3.25621
3.27068
3.29805
3.33057
3.35071
3.36414
3.36922
3.36235
3.34536
3.33088
3.33107
3.33588
3.34516
3.35291
3.35707
3.35968
3.36206
3.36459
3.36868
3.375
3.38478
3.39826
3.41306
3.41921
3.41914
3.41431
3.40311
3.3886
3.38065
3.37581
3.3717
3.36874
3.36713
3.36894
3.37553
3.38184
3.38118
3.37696
3.36986
3.36384
3.35773
3.35093
3.34418
3.33932
3.33557
3.33132
3.32151
3.30735
3.29494
3.27819
3.24266
3.18199
3.08377
2.94824
2.76953
2.64757
2.54119
2.46977
2.45786
2.49834
2.49641
2.57209
2.71086
2.88115
3.05248
3.21514
3.28314
3.31632
3.36943
3.37783
3.37281
3.37894
3.37903
3.38173
3.38848
3.39522
3.39693
3.39652
3.39329
3.38564
3.37467
3.33542
3.31172
3.27265
3.26404
3.17215
0.731384
0.760012
0.759753
0.758066
0.754906
0.757023
0.759439
0.750805
0.735977
0.738177
0.71804
0.729944
0.80958
0.819665
0.802035
0.828656
0.830093
0.803623
0.776192
0.753082
0.730393
0.713745
0.699248
0.730053
1.4193
2.4998
2.84316
2.92973
3.05837
3.12763
3.19828
3.22204
3.22441
3.19007
3.18284
3.19977
3.22938
3.25262
3.27188
3.28712
3.28972
3.27765
3.25843
3.24766
3.24605
3.26035
3.27771
3.30187
3.32102
3.32939
3.33017
3.32877
3.32829
3.33134
3.33976
3.35374
3.36151
3.36366
3.36161
3.35325
3.34073
3.33332
3.32931
3.32743
3.32873
3.32882
3.33125
3.33643
3.34384
3.35076
3.35425
3.35168
3.34737
3.34192
3.33757
3.33455
3.33104
3.32487
3.31704
3.31189
3.30497
3.29371
3.27455
3.25946
3.23025
3.17469
3.06783
2.90882
2.77931
2.64307
2.51789
2.44613
2.45608
2.54237
2.57823
2.68654
2.81138
2.95103
3.10746
3.21165
3.26017
3.3341
3.36288
3.36491
3.37362
3.37242
3.37465
3.38182
3.39036
3.39253
3.3914
3.38752
3.38126
3.36932
3.33664
3.30243
3.2596
3.26261
3.16359
0.743011
0.768957
0.767914
0.763347
0.75946
0.755886
0.750615
0.741153
0.719027
0.721799
0.719728
0.712838
0.793832
0.826953
0.810745
0.82709
0.826575
0.797559
0.763026
0.727284
0.679498
0.599603
0.405952
0.201094
0.12422
2.38987
2.63771
2.79946
2.75911
2.80199
2.78248
2.78869
2.79568
2.82361
2.84941
2.88438
2.92144
2.95891
2.98546
3.00565
3.01228
3.01306
3.0082
3.00425
3.02605
3.05973
3.09618
3.14041
3.1923
3.23234
3.26665
3.29329
3.31065
3.31444
3.29648
3.26492
3.22404
3.21001
3.22961
3.26694
3.30394
3.32986
3.34123
3.34171
3.33071
3.31728
3.30255
3.28548
3.28285
3.28475
3.28867
3.29374
3.29787
3.30023
3.30175
3.30215
3.30354
3.30652
3.29912
3.29259
3.28686
3.28217
3.27592
3.26259
3.2395
3.21436
3.16205
3.06118
2.93427
2.7952
2.68502
2.58125
2.52689
2.53786
2.59211
2.66183
2.76125
2.88444
3.00567
3.09954
3.17055
3.27243
3.33054
3.34804
3.36504
3.36538
3.3678
3.3744
3.38428
3.38672
3.38705
3.38246
3.37592
3.36426
3.33296
3.29212
3.24652
3.25784
3.1562
0.759019
0.773601
0.771183
0.765272
0.762674
0.754565
0.748883
0.74182
0.731338
0.751954
0.763005
0.764348
0.832162
0.86968
0.848111
0.862287
0.839826
0.804764
0.759778
0.724613
0.694718
0.690157
0.739307
1.00127
1.51838
2.58921
2.37132
1.91841
2.01068
2.24145
2.13898
2.07368
1.98813
1.916
1.88194
1.88689
1.91408
1.92717
1.94
1.95938
1.98829
2.03017
2.07214
2.11332
2.13372
2.1494
2.16658
2.19267
2.21952
2.24904
2.28034
2.31451
2.35326
2.40873
2.48647
2.57334
2.67472
2.77478
2.86767
2.94697
3.00551
3.05215
3.10974
3.17555
3.23748
3.27618
3.30104
3.31837
3.3153
3.30133
3.2824
3.25089
3.23532
3.24437
3.24722
3.24711
3.24646
3.25202
3.25664
3.25942
3.25442
3.25537
3.25329
3.25311
3.24838
3.22887
3.19252
3.13535
3.0494
2.91792
2.80521
2.70438
2.63129
2.59717
2.62145
2.67118
2.7405
2.8356
2.93007
3.00428
3.07241
3.18366
3.26795
3.31536
3.34643
3.35519
3.3575
3.366
3.37751
3.38034
3.38001
3.37636
3.36977
3.35964
3.32716
3.28138
3.23061
3.25324
3.14883
0.765512
0.777412
0.777648
0.77388
0.769163
0.755687
0.748819
0.739731
0.727666
0.759515
0.776844
0.784107
0.84351
0.87371
0.868097
0.862504
0.838559
0.800751
0.745441
0.691921
0.59605
0.439824
0.0705676
-0.862063
-3.16627
-3.93844
-2.0441
-0.749577
0.669184
1.07078
1.13535
1.17246
1.24073
1.28159
1.32879
1.33924
1.34809
1.3861
1.42883
1.47446
1.51524
1.56707
1.62805
1.67169
1.69022
1.72322
1.74597
1.76264
1.76526
1.76716
1.78951
1.82803
1.87677
1.92776
2.00952
2.07575
2.13633
2.19128
2.24332
2.30124
2.35281
2.41475
2.47381
2.52265
2.56878
2.62478
2.67678
2.74706
2.82931
2.90223
2.98153
3.03812
3.06238
3.10961
3.13369
3.15271
3.15606
3.16165
3.17545
3.18791
3.19566
3.20102
3.19828
3.20435
3.21346
3.21086
3.2007
3.17615
3.12938
3.05246
2.95986
2.85455
2.74181
2.65673
2.63903
2.67742
2.73859
2.8066
2.87934
2.94216
2.99423
3.09142
3.18468
3.25857
3.3134
3.34012
3.34531
3.3565
3.36931
3.37251
3.3716
3.36868
3.3624
3.35257
3.31921
3.27038
3.21316
3.2464
3.14366
0.775172
0.785618
0.785252
0.782011
0.77323
0.759556
0.749662
0.734814
0.705919
0.729621
0.778641
0.798628
0.828705
0.856387
0.870896
0.862668
0.831228
0.793407
0.741851
0.679657
0.597788
0.448274
0.214903
-0.368046
-0.482337
1.35194
2.72009
2.58555
2.08678
1.84825
1.75225
1.68972
1.71347
1.72087
1.76025
1.85624
1.96306
1.94264
1.94429
1.92242
1.89101
1.85869
1.84835
1.8411
1.8642
1.88579
1.90518
1.93126
1.95386
1.98071
2.00627
2.0303
2.05988
2.08575
2.10334
2.11877
2.13445
2.13592
2.14197
2.14608
2.15928
2.17709
2.19319
2.20646
2.21234
2.21996
2.22828
2.23772
2.27148
2.30248
2.346
2.42813
2.51792
2.64116
2.75767
2.86559
2.92299
2.95606
2.99537
3.03591
3.06948
3.09412
3.11952
3.15445
3.17299
3.1672
3.15104
3.13503
3.10992
3.07377
3.03062
2.95517
2.86029
2.74825
2.68049
2.67668
2.7079
2.75851
2.81967
2.88757
2.94425
3.02046
3.1084
3.18727
3.26586
3.31581
3.32862
3.34372
3.35901
3.36315
3.36172
3.35773
3.3522
3.34139
3.30846
3.2587
3.19377
3.2387
3.1369
0.784175
0.7946
0.794037
0.787042
0.776716
0.756077
0.747146
0.733389
0.715715
0.765937
0.829221
0.855078
0.875793
0.890248
0.886383
0.871788
0.833583
0.796355
0.744595
0.681161
0.591139
0.480662
0.186375
-0.0972374
-0.1215
2.52976
2.99937
3.03459
2.95207
2.86521
2.82507
2.77429
2.7158
2.636
2.52245
2.39215
2.26202
2.16536
2.19694
2.20576
2.21647
2.22274
2.19623
2.16215
2.14939
2.12707
2.12016
2.11436
2.1204
2.13182
2.14051
2.14619
2.15743
2.17059
2.17723
2.18552
2.18723
2.1933
2.19606
2.19085
2.18734
2.18794
2.1816
2.16925
2.14887
2.13253
2.1161
2.11174
2.07567
2.08297
2.05659
2.06127
2.06949
2.11769
2.19337
2.30702
2.43395
2.55366
2.66339
2.77454
2.88004
2.953
2.98585
3.02162
3.04906
3.08197
3.10733
3.10533
3.0858
3.04866
3.01741
2.96885
2.91363
2.8323
2.74663
2.7032
2.70303
2.72652
2.76735
2.83278
2.89101
2.96219
3.03908
3.11402
3.19864
3.27116
3.30124
3.32361
3.34138
3.34954
3.35002
3.34638
3.34092
3.32917
3.29507
3.24411
3.17214
3.22742
3.12979
0.794523
0.802809
0.803843
0.791592
0.779418
0.756635
0.748383
0.752596
0.731023
0.771199
0.839532
0.863085
0.882579
0.902968
0.897618
0.872277
0.840192
0.794284
0.733301
0.673941
0.589876
0.506002
0.208081
0.0762205
0.103672
2.66908
2.92538
2.96789
2.92847
2.90943
2.86752
2.82602
2.76456
2.71748
2.68793
2.66736
2.64782
2.64563
2.59263
2.51951
2.44287
2.37767
2.33957
2.31265
2.29527
2.28216
2.26992
2.26436
2.25567
2.25474
2.25432
2.25118
2.2386
2.22462
2.21108
2.19834
2.18881
2.17646
2.17013
2.17261
2.17163
2.1658
2.15893
2.14561
2.11394
2.09271
2.06515
2.07304
2.03561
2.0657
2.05169
2.05496
2.04777
2.06439
2.08165
2.12104
2.17985
2.2461
2.31758
2.4056
2.5257
2.67706
2.81296
2.91967
2.97773
3.01974
3.05242
3.06476
3.06597
3.0487
3.01686
2.97753
2.92285
2.85504
2.7935
2.74262
2.72116
2.72303
2.74279
2.78991
2.83917
2.90972
2.98116
3.053
3.13157
3.20991
3.27099
3.30078
3.32258
3.33569
3.33726
3.33189
3.32605
3.31539
3.28095
3.22848
3.14463
3.20959
3.12851
0.801399
0.808573
0.811086
0.797049
0.780239
0.758872
0.741218
0.752657
0.735588
0.769502
0.837556
0.854742
0.891302
0.901633
0.9003
0.873025
0.843028
0.795976
0.738473
0.681708
0.618828
0.519869
0.286316
0.186476
0.230496
2.80607
3.00024
3.02136
3.01333
2.9857
2.98555
2.94292
2.88727
2.83882
2.77573
2.73264
2.68484
2.65716
2.62753
2.61397
2.60353
2.59175
2.57973
2.56286
2.54095
2.5136