/*--------------------------------*- C++ -*----------------------------------*\
| =========                 |                                                 |
| \\      /  F ield         | OpenFOAM: The Open Source CFD Toolbox           |
|  \\    /   O peration     | Version:  2.2.x                                 |
|   \\  /    A nd           | Web:      www.OpenFOAM.org                      |
|    \\/     M anipulation  |                                                 |
\*---------------------------------------------------------------------------*/
FoamFile
{
    version     2.0;
    format      ascii;
    class       volScalarField;
    location    "1.65";
    object      By;
}
// * * * * * * * * * * * * * * * * * * * * * * * * * * * * * * * * * * * * * //

dimensions      [1 0 -2 0 0 -1 0];

internalField   nonuniform List<scalar> 
14161
(
-0.0186173
-0.00207433
0.00260937
0.00375331
0.00319014
0.00241134
0.00164585
0.000813139
-0.000378684
-0.00216032
-0.00341081
-0.00382894
-0.00343217
-0.00272566
-0.00188826
-0.0010367
-0.00084225
-0.000666662
-0.000727416
-0.000811671
-0.000814664
-0.000699625
-0.000450657
-0.000112701
0.00037522
0.000771791
0.00103081
0.00115924
0.00106587
0.000779889
0.000137816
-0.00067406
-0.00212585
-0.003395
-0.00483405
-0.00559062
-0.00648815
-0.00738335
-0.00747662
-0.0107252
-0.0126442
-0.090959
-0.170911
-0.00611428
0.0366801
0.0278454
0.0249888
0.0217309
0.0184402
0.0161557
0.0135072
0.0132637
0.0123123
0.0107832
0.00963054
0.0106441
0.011925
0.0133734
0.0160139
0.0183594
0.0187502
0.016695
0.0129736
0.00949202
0.00626237
0.00488111
0.00259961
0.000100584
-0.00232105
-0.000842532
0.000293807
-0.00367833
-0.0073898
-0.00277111
0.000299455
-0.00676709
-0.00117944
0.00620599
0.0118959
0.0199864
0.0326627
0.0367304
0.0283924
0.0197069
0.00827646
0.0003874
-0.00502595
-0.00172897
0.000877351
-0.0076637
-0.0020647
0.0119751
0.0222136
0.0433644
0.0704993
0.0866138
0.0739834
0.0564217
0.04238
0.0292971
0.0220689
0.018749
0.016605
0.0154826
0.0164216
0.0146276
0.0146727
0.0166177
0.0184863
0.0200051
0.0240101
0.025388
0.030359
0.0347865
0.0453767
0.0446402
0.0313098
0.0301077
0.0131434
0.0203003
0.00166537
-0.00381881
-0.00411989
-0.00332303
-0.00242415
-0.00158582
-0.000744303
0.000540667
0.00229069
0.00393479
0.00407605
0.00358755
0.00264007
0.00168199
0.000794139
0.000603276
0.000614927
0.000643272
0.000892525
0.000813779
0.000671085
0.000435154
8.63632e-05
-0.000358255
-0.000897298
-0.00118006
-0.00131116
-0.00126221
-0.000923096
-0.000329716
0.00073007
0.00210585
0.00349237
0.00503651
0.00561769
0.00633551
0.0054373
0.00339787
-0.00309571
-0.0167314
-0.129558
-0.193641
0.0218946
0.0119612
-0.00632359
-0.0104189
-0.0162512
-0.018112
-0.01818
-0.0150188
-0.0140625
-0.0112129
-0.0150177
-0.0187778
-0.0168474
-0.0134753
-0.00934423
-0.00420698
-0.000948187
0.00168144
0.000773689
0.00180421
0.000766835
0.000696716
-0.000244018
-0.000952012
-0.000632038
-0.000362056
-0.00307831
-0.00623032
-0.00356508
3.093e-06
-0.00777437
-0.0105448
-0.00252938
0.00509378
-0.00638585
0.000442828
0.00951285
0.0208474
0.026764
0.0233703
0.0134315
0.00530994
0.00171364
0.00263309
-0.00780172
-0.00481201
0.0102037
0.0157568
0.0202024
0.0452585
0.0681038
0.0981292
0.11329
0.0971355
0.0768159
0.0586072
0.0475312
0.0379714
0.0326761
0.0304991
0.0290541
0.0260978
0.0268391
0.0292743
0.0262153
0.0304268
0.0317852
0.0386835
0.0376406
0.050824
0.054983
0.0612217
0.0746481
0.067993
0.0743574
0.0396895
-0.0179147
-0.0019199
0.00265014
0.00340517
0.00266438
0.00214107
0.00154152
0.000854217
-0.00015766
-0.00153175
-0.00298728
-0.00342234
-0.00289836
-0.00235766
-0.00184581
-0.00097975
-0.000790301
-0.000692237
-0.000686831
-0.0007272
-0.000725406
-0.000493164
-0.000331963
-7.44006e-05
0.000290394
0.000778063
0.00100814
0.0012635
0.00136152
0.00118053
0.000799627
0.000183662
-0.000972805
-0.00186947
-0.00332896
-0.00429553
-0.00486732
-0.00594858
-0.008263
-0.0117908
-0.0326857
-0.143802
-0.0630321
0.0393802
0.0392916
0.00789894
-0.0144228
-0.0271436
-0.0375526
-0.0422228
-0.0430817
-0.0368515
-0.0325074
-0.0193294
-0.0115191
-0.0114649
-0.010138
-0.0101509
-0.00851177
-0.00963427
-0.00992591
-0.0110236
-0.0102927
-0.00831306
-0.00733778
-0.00565845
-0.00293161
-0.000590096
0.00148678
0.00348565
0.00781099
0.013154
0.0188049
0.0230008
0.0302161
0.0433396
0.0548708
0.0635282
0.0752199
0.0675774
0.0583025
0.0403143
0.0188765
0.00444857
0.000391595
-0.00207088
0.00416
0.0242228
0.0491175
0.0664635
0.0876338
0.116154
0.128049
0.141638
0.152492
0.143896
0.120265
0.0933419
0.0702257
0.053779
0.0456116
0.038915
0.0338425
0.0342784
0.0355011
0.0335434
0.0394874
0.0444962
0.0530296
0.0552652
0.0669646
0.069205
0.0858956
0.0888799
0.0976184
0.100501
0.0918033
0.0961098
0.0556518
0.0168282
0.00265993
-0.00250352
-0.00308709
-0.00257358
-0.00214735
-0.0015924
-0.000882529
9.4873e-05
0.00115774
0.00259576
0.00311392
0.00279049
0.00241998
0.00159733
0.000922808
0.000630474
0.000605174
0.000470869
0.000475843
0.000530994
0.000518576
0.000361825
0.000109997
-0.00026427
-0.000580106
-0.00111361
-0.00146279
-0.00143449
-0.00138741
-0.00109148
-0.00058337
0.000161692
0.000716735
0.00201144
0.0021211
0.00281346
0.00237903
0.00251533
0.00206642
0.00381285
0.0297323
0.0679634
0.0229192
-0.0293021
-0.0851357
-0.0938039
-0.102309
-0.10291
-0.0990553
-0.0905106
-0.0738926
-0.0583293
-0.0488015
-0.0415016
-0.0418573
-0.0377137
-0.0383443
-0.0351357
-0.0331332
-0.0295301
-0.0275449
-0.023161
-0.0192045
-0.014096
-0.00867177
-0.00332485
0.000668766
0.00435457
0.0120389
0.0201969
0.0237979
0.030397
0.0494848
0.0634874
0.0712609
0.0885653
0.120743
0.124928
0.111287
0.0838701
0.0534804
0.0282181
0.016234
0.0133404
0.0202271
0.0436732
0.0830993
0.114585
0.141947
0.179942
0.201625
0.204761
0.20648
0.198584
0.176572
0.143289
0.110567
0.0862745
0.0666302
0.0551913
0.0479244
0.0455854
0.0417351
0.046991
0.05345
0.0595674
0.0650003
0.0772472
0.0819357
0.0910142
0.0919102
0.10638
0.103843
0.113152
0.117207
0.105433
0.104612
0.0695358
-0.0137051
-0.0020117
0.00140104
0.00167449
0.00165933
0.00145554
0.00117052
0.000893086
0.000421307
-0.000256934
-0.00130576
-0.00183307
-0.00163724
-0.00166902
-0.00119916
-0.000930815
-0.00066672
-0.000495247
-0.000399044
-0.000394907
-0.000265367
-0.000142769
-9.94764e-05
7.97894e-05
0.000339985
0.000572907
0.000971571
0.00128247
0.00145334
0.00169905
0.00186396
0.00174203
0.00133869
0.00082583
0.00109987
-7.49399e-05
0.000862636
0.00083174
0.00280182
0.00705379
0.0284752
0.145407
0.163429
0.0156082
-0.107678
-0.145743
-0.157975
-0.160878
-0.162619
-0.154359
-0.141896
-0.119838
-0.105955
-0.0874221
-0.07619
-0.0689711
-0.0613253
-0.0570337
-0.0480797
-0.0437233
-0.0382961
-0.0348183
-0.0294012
-0.0243138
-0.0178848
-0.0118102
-0.00524776
0.00164658
0.0104986
0.0181836
0.0242802
0.0369805
0.0508112
0.0635343
0.0782
0.105397
0.129787
0.149322
0.151321
0.143842
0.11907
0.0787478
0.0451189
0.0237364
0.0199299
0.0400383
0.0743713
0.114149
0.164258
0.231532
0.264527
0.277095
0.290721
0.27089
0.254132
0.218001
0.177272
0.137905
0.107352
0.0842777
0.0705533
0.0599229
0.0560129
0.0580112
0.061454
0.0713849
0.0798089
0.0906193
0.101212
0.110782
0.118733
0.121508
0.128866
0.120577
0.12801
0.127713
0.114632
0.110624
0.0808965
0.0108653
0.00311335
-0.000148349
-0.00123277
-0.00160025
-0.00139142
-0.00128743
-0.000931367
-0.0005738
-0.000225984
0.000538677
0.00106733
0.00140094
0.00138999
0.00104899
0.000817692
0.000603518
0.000317824
8.20062e-05
6.08388e-05
0.000134312
0.000146743
8.42856e-05
-5.56629e-05
-0.000152175
-0.000312914
-0.000651632
-0.00122112
-0.00157488
-0.00152826
-0.00180258
-0.00148762
-0.00199891
-0.00175853
-0.00203249
-0.00171728
-0.00123688
-0.000827424
-0.000449968
0.00252636
0.011107
0.123041
0.294461
0.058446
-0.0697032
-0.1233
-0.146882
-0.155836
-0.157206
-0.150888
-0.137478
-0.123574
-0.111538
-0.100195
-0.0907219
-0.083368
-0.0733358
-0.0698478
-0.0611352
-0.0552117
-0.0470322
-0.0407924
-0.0327917
-0.0270773
-0.0200233
-0.0129836
-0.00493058
0.00290493
0.0127479
0.023595
0.034501
0.0461716
0.0571353
0.0734922
0.0933734
0.118338
0.140913
0.160768
0.17425
0.168675
0.153217
0.121351
0.0781019
0.043515
0.0438761
0.0613174
0.0968572
0.15429
0.226293
0.279407
0.31575
0.348339
0.34259
0.324816
0.305919
0.258029
0.208183
0.165564
0.131708
0.106398
0.0907015
0.0781972
0.0740062
0.0788494
0.0854146
0.0945088
0.105215
0.123539
0.130122
0.141117
0.14736
0.149326
0.152335
0.137662
0.142639
0.135193
0.124186
0.11478
0.0928649
-0.00704085
-0.00188892
-0.000408269
-0.000115154
0.000399085
0.000496307
0.000637146
0.000803528
0.000868071
0.000924956
0.000660981
0.000339989
-5.069e-05
-0.000294915
-0.00038396
-0.00040328
-0.000278846
-0.000175737
-1.40977e-05
0.000119636
0.000211599
0.000215454
0.00026828
0.000239061
0.000303321
0.000340368
0.000534508
0.00102404
0.00151558
0.00192249
0.00217535
0.00205407
0.00263765
0.00284782
0.0029443
0.00355493
0.00348156
0.00383021
0.00432568
0.00711294
0.0129857
0.106296
0.311173
-0.0255056
-0.183481
-0.214676
-0.219936
-0.216531
-0.208119
-0.194923
-0.177422
-0.158765
-0.140667
-0.122765
-0.111789
-0.0994826
-0.0912832
-0.081994
-0.0725691
-0.0667632
-0.0566875
-0.0495895
-0.0392895
-0.0325132
-0.0236201
-0.016998
-0.00846369
-0.00122462
0.0085128
0.0184177
0.0311593
0.0453693
0.0604063
0.0814008
0.102194
0.129797
0.156842
0.176271
0.184729
0.181411
0.168956
0.145788
0.104688
0.0694797
0.0576317
0.0745026
0.12167
0.185945
0.25791
0.326117
0.373993
0.39739
0.416626
0.410755
0.387081
0.334728
0.273886
0.216047
0.170031
0.129823
0.107788
0.0943505
0.0929082
0.0943486
0.101725
0.11924
0.130118
0.147981
0.153448
0.172635
0.172619
0.175845
0.178115
0.156416
0.157684
0.14216
0.134952
0.120164
0.106299
0.00321415
0.00263121
0.00179707
0.000736854
-0.00030837
-0.000522379
-0.00081456
-0.000835695
-0.000866611
-0.00122606
-0.00133075
-0.000939699
-0.000203274
1.47949e-05
0.000373805
0.000373888
0.000248422
2.62288e-05
-8.83958e-05
-0.000217799
-0.000137531
-0.00010599
-1.88218e-05
-3.70291e-05
1.62286e-05
8.08246e-05
-4.56812e-05
-4.50484e-05
-0.000355632
-0.000500586
-0.000632452
-0.00172649
-0.00229857
-0.00251186
-0.00379784
-0.00341983
-0.00330376
-0.00290058
-0.00288942
-0.000278168
0.00321761
0.0415924
0.108015
-0.0170167
-0.110519
-0.149191
-0.163687
-0.173526
-0.174683
-0.170499
-0.160625
-0.149044
-0.133573
-0.121782
-0.108832
-0.100408
-0.0916449
-0.0837642
-0.0739954
-0.0693693
-0.0599712
-0.0530581
-0.0428678
-0.0360272
-0.0270034
-0.0204587
-0.0110885
-0.00128616
0.0099561
0.0223245
0.0351703
0.0514668
0.0684832
0.0903386
0.114326
0.142293
0.164609
0.181683
0.187931
0.187229
0.180823
0.165294
0.137375
0.106041
0.0923449
0.111889
0.164465
0.242314
0.315332
0.376518
0.426038
0.455775
0.476462
0.469816
0.450789
0.41083
0.35018
0.273102
0.211219
0.159535
0.136322
0.117298
0.113149
0.116152
0.124369
0.137558
0.149424
0.173272
0.181231
0.202111
0.199883
0.209194
0.205038
0.180625
0.174198
0.153469
0.147571
0.129096
0.121144
0.00138734
-0.0013801
-0.00202944
-0.00162206
-0.00098596
-0.000296546
0.000179911
0.00047728
0.000914707
0.0014755
0.00201759
0.00193494
0.00129003
0.00086226
0.000457699
7.93143e-05
5.73646e-05
0.000135955
0.000206344
0.000337288
0.000406361
0.0003749
0.000338212
0.000231834
4.43182e-05
8.25208e-06
-0.000258871
-0.000223719
-8.13102e-05
0.000211264
0.000590151
0.00103183
0.0014235
0.00193279
0.00211317
0.00203465
0.0013677
0.00121456
0.000321482
-0.00211036
-0.00415748
-0.0287403
-0.142156
-0.0874704
-0.113881
-0.128064
-0.152034
-0.171348
-0.180378
-0.179757
-0.17178
-0.159748
-0.143643
-0.130835
-0.118078
-0.111242
-0.100994
-0.093907
-0.0839845
-0.075339
-0.0642998
-0.0566951
-0.0461637
-0.0371406
-0.0279375
-0.0219666
-0.0118945
-0.0012884
0.0110832
0.0244382
0.0392521
0.0577482
0.0771372
0.10254
0.127017
0.152872
0.173992
0.186112
0.189844
0.190524
0.186168
0.181909
0.169161
0.149329
0.136185
0.158885
0.213152
0.306538
0.372153
0.425551
0.471032
0.501069
0.516725
0.523097
0.510358
0.483466
0.439828
0.36085
0.275455
0.204536
0.166229
0.139954
0.13463
0.133448
0.139015
0.154379
0.169558
0.192769
0.206204
0.231773
0.231122
0.24379
0.236918
0.211505
0.195494
0.167755
0.16278
0.14053
0.137769
-0.00444014
0.00139427
0.00296959
0.00203048
0.000877713
0.000350956
-2.49071e-05
-0.000689005
-0.000740576
-0.00156006
-0.00216004
-0.00210533
-0.00122085
-0.000886226
-0.000311944
-2.87587e-05
1.41482e-05
6.02219e-05
6.32873e-05
2.03968e-05
3.75184e-05
9.29845e-05
0.000211757
0.000367105
0.000520964
0.000781386
0.00104662
0.00112418
0.0013003
0.00109261
0.000392861
0.000157813
-0.000525928
-0.000997257
-0.00190294
-0.00317471
-0.00381061
-0.00478704
-0.00552834
-0.00763874
-0.0117497
-0.0631633
-0.24719
-0.136088
-0.122307
-0.147539
-0.169243
-0.183877
-0.191104
-0.189496
-0.181213
-0.173325
-0.157023
-0.144487
-0.130376
-0.123088
-0.110353
-0.102539
-0.0903986
-0.0839766
-0.0740122
-0.0667897
-0.0552549
-0.0466984
-0.0355358
-0.0268953
-0.0151235
-0.0030995
0.0108299
0.0262666
0.0441401
0.0652089
0.0875205
0.112755
0.133669
0.154509
0.171753
0.181375
0.189718
0.195253
0.197189
0.204527
0.203016
0.205947
0.196145
0.224987
0.277947
0.34769
0.427061
0.465662
0.506658
0.536241
0.551365
0.558219
0.552555
0.534436
0.504213
0.435666
0.346683
0.258883
0.204701
0.171621
0.160955
0.157946
0.164395
0.178958
0.194872
0.219228
0.237044
0.26428
0.265068
0.282063
0.270276
0.245549
0.222539
0.186599
0.181247
0.155221
0.155851
0.00846242
-0.000437628
-0.00275806
-0.00254258
-0.00191893
-0.000884164
-0.000526181
2.5147e-05
0.000543506
0.0013197
0.00209364
0.00227995
0.00183273
0.00130874
0.000781436
0.00028179
7.0395e-05
7.47906e-05
0.000162798
0.000259296
0.000247031
0.000168755
4.646e-05
-0.000148509
-0.000417525
-0.000895838
-0.000689115
-0.00120019
-0.00129522
-0.00105296
-0.000967074
-0.000787017
-0.000642861
-0.000291366
0.000285177
0.000167071
-0.000292092
-0.00080958
-0.00148678
-0.0019978
-0.00681568
-0.0521214
-0.244753
-0.216502
-0.200244
-0.197049
-0.211546
-0.228017
-0.234733
-0.228852
-0.217312
-0.209144
-0.188961
-0.175702
-0.157497
-0.147754
-0.132266
-0.121881
-0.107361
-0.0978052
-0.0834809
-0.0723043
-0.0594764
-0.0494967
-0.0382586
-0.0275443
-0.0150758
-0.00179503
0.0137819
0.0315969
0.0516614
0.0749946
0.0989895
0.122972
0.142548
0.158614
0.171496
0.180519
0.189349
0.197253
0.206733
0.223062
0.239725
0.269916
0.269669
0.311641
0.356691
0.406833
0.454583
0.503182
0.530949
0.559596
0.579767
0.588997
0.594884
0.579891
0.561689
0.508093
0.434457
0.332593
0.257983
0.210746
0.192475
0.18634
0.191669
0.202999
0.218148
0.240319
0.261062
0.289752
0.294502
0.312187
0.303176
0.282667
0.256933
0.211114
0.204695
0.173241
0.17594
-0.00922666
0.000267829
0.0030015
0.00270778
0.00173498
0.00111044
0.000555431
-1.54886e-05
-0.000527131
-0.00112688
-0.00195384
-0.00202969
-0.0014213
-0.0010888
-0.000575987
-0.000114024
0.000102632
0.000314466
0.000460243
0.000480881
0.000463744
0.000518324
0.000605126
0.000777846
0.00101132
0.00117312
0.00142797
0.00183057
0.00194214
0.00221696
0.00208002
0.00177912
0.00146072
0.00083481
0.000321093
-5.86557e-05
-0.000243742
-0.000778907
-0.000434475
-0.000353091
-0.0051263
-0.0499928
-0.247661
-0.261422
-0.268201
-0.251197
-0.25961
-0.273609
-0.276052
-0.266186
-0.251679
-0.240264
-0.215525
-0.199327
-0.176812
-0.163776
-0.144821
-0.131196
-0.116092
-0.103602
-0.0909131
-0.0781006
-0.0636957
-0.0531757
-0.0408423
-0.0307014
-0.0172562
-0.00382186
0.0126908
0.0313892
0.0534364
0.0785742
0.102438
0.126301
0.144618
0.15965
0.171783
0.181146
0.190175
0.200848
0.215322
0.242474
0.282501
0.335947
0.350269
0.405364
0.435088
0.470136
0.494272
0.527605
0.558404
0.580718
0.602365
0.614055
0.622855
0.613056
0.603679
0.567412
0.506675
0.415159
0.318202
0.255124
0.226674
0.217046
0.22056
0.228819
0.24267
0.26382
0.286096
0.314484
0.323112
0.339839
0.334285
0.320957
0.298017
0.244194
0.232073
0.193525
0.196176
0.0117023
0.000482791
-0.00276618
-0.00285661
-0.00233902
-0.00147356
-0.000988154
-0.000483592
-5.56883e-05
0.000581204
0.00143135
0.00164684
0.00155067
0.000979435
0.000557917
0.000259336
-1.3292e-05
-7.69771e-05
2.72572e-05
0.00011254
6.90367e-05
-2.49963e-05
-0.000182994
-0.000470289
-0.000555245
-0.000556836
-0.00085886
-0.00109753
-0.00133832
-0.00136391
-0.00137303
-0.00137423
-0.00123546
-0.0011572
-0.000951143
-0.000673088
-0.000572149
-0.000937534
-0.00144373
-0.00278804
-0.00754202
-0.0467484
-0.245242
-0.304379
-0.328898
-0.309989
-0.314713
-0.326643
-0.322384
-0.30845
-0.294032
-0.279621
-0.251328
-0.231503
-0.204202
-0.187034
-0.164592
-0.149181
-0.128577
-0.111992
-0.0996536
-0.0852243
-0.0703681
-0.0573975
-0.0466411
-0.0336553
-0.0187657
-0.00319426
0.0156203
0.0371228
0.06228
0.0877453
0.112681
0.132767
0.150463
0.162515
0.173727
0.182204
0.192914
0.20653
0.227802
0.268102
0.333077
0.410585
0.44268
0.497374
0.508635
0.525277
0.536084
0.558479
0.579037
0.601635
0.620069
0.639663
0.652949
0.651775
0.649128
0.626431
0.579205
0.502938
0.389826
0.30876
0.266488
0.250827
0.249999
0.254548
0.266623
0.284793
0.306983
0.334494
0.347179
0.360284
0.361498
0.358958
0.34124
0.284192
0.262999
0.213614
0.215988
-0.0101007
-0.000232622
0.00265524
0.0026762
0.00226801
0.00144315
0.000808546
0.00046657
-6.70768e-05
-0.000547212
-0.00108619
-0.00146456
-0.00114621
-0.000780067
-0.00049449
-3.59714e-05
0.000190864
0.000370595
0.000582
0.00071107
0.000760074
0.000728252
0.00073956
0.000841235
0.000870346
0.0010136
0.00123962
0.0015868
0.00172661
0.0018738
0.00194066
0.0018809
0.00183178
0.00182101
0.00143761
0.00148688
0.00151149
0.00171765
0.00122491
0.00260398
-0.00198491
-0.0231522
-0.206702
-0.36662
-0.40077
-0.386519
-0.382631
-0.391337
-0.378076
-0.355155
-0.336881
-0.315659
-0.283426
-0.260722
-0.23014
-0.208945
-0.18086
-0.161203
-0.137564
-0.121691
-0.104181
-0.0884973
-0.0754259
-0.0618552
-0.0489487
-0.0344779
-0.0212197
-0.00552209
0.0122311
0.0346508
0.0604496
0.0886823
0.110833
0.132128
0.146527
0.159499
0.169225
0.180681
0.193487
0.214329
0.247753
0.302064
0.392932
0.489855
0.542776
0.582189
0.587333
0.586141
0.584268
0.59153
0.605456
0.623453
0.641696
0.658553
0.677477
0.687911
0.690273
0.677794
0.643066
0.571269
0.462405
0.36487
0.30744
0.283424
0.278584
0.280037
0.29062
0.305124
0.325453
0.351657
0.368736
0.38462
0.391446
0.397705
0.385504
0.332191
0.295999
0.2338
0.235175
0.0108957
0.000884424
-0.00230286
-0.00262457
-0.00218812
-0.00156821
-0.001165
-0.000789006
-0.000468632
7.93635e-05
0.000634071
0.000787534
0.000785086
0.000635592
0.000337486
0.000161447
-2.70684e-05
-4.42582e-05
-1.19954e-05
5.99538e-05
0.00016424
0.000187041
8.11023e-05
6.83273e-06
-0.000230331
-0.000322218
-0.000452076
-0.000455589
-0.000431361
-0.000388469
-0.000384403
-0.000560732
-0.000272524
0.0001093
2.55622e-05
1.35784e-05
9.51792e-05
4.47476e-05
0.000292308
4.87995e-05
-0.00520818
-0.0353104
-0.238429
-0.43403
-0.468231
-0.445184
-0.435409
-0.444404
-0.428051
-0.403381
-0.380283
-0.349238
-0.310662
-0.282068
-0.247435
-0.221112
-0.190046
-0.162769
-0.137117
-0.116594
-0.0996094
-0.0864372
-0.0715673
-0.0573302
-0.043727
-0.0318749
-0.0164711
-0.000310917
0.0201283
0.0427805
0.0711357
0.0960255
0.120798
0.137191
0.151951
0.161729
0.173071
0.18513
0.20429
0.231549
0.28254
0.365053
0.459105
0.559867
0.621592
0.647069
0.664638
0.651937
0.633507
0.628974
0.634065
0.649858
0.671784
0.692189
0.710618
0.726033
0.730262
0.719667
0.697808
0.634347
0.54098
0.429297
0.355156
0.321278
0.311372
0.309405
0.318149
0.328135
0.345499
0.369818
0.389603
0.407191
0.419954
0.433208
0.427671
0.383874
0.329616
0.251799
0.253176
-0.00802856
-9.38359e-05
0.0021547
0.00236921
0.0018547
0.00127355
0.000855306
0.000520166
0.00015452
-0.000125463
-0.00048454
-0.000781659
-0.000713555
-0.00057165
-0.000333084
-2.61113e-05
0.000112286
0.000232601
0.000442347
0.000674063
0.000765512
0.000643841
0.00059236
0.000641358
0.000786361
0.000739175
0.000789027
0.00111323
0.00151885
0.00144781
0.00132132
0.00116902
0.000945005
0.00101292
0.00113459
0.00127511
0.0015488
0.0017935
0.0027911
0.00215643
-0.00579738
-0.0646671
-0.37637
-0.533326
-0.530283
-0.488132
-0.468876
-0.467395
-0.44882
-0.428324
-0.401883
-0.370023
-0.330685
-0.297723
-0.260602
-0.230164
-0.196876
-0.169201
-0.14189
-0.119575
-0.100891
-0.0867938
-0.0737219
-0.0590245
-0.0452908
-0.0307936
-0.0158594
0.00164473
0.0231488
0.0475675
0.0747498
0.101097
0.122412
0.140494
0.152715
0.162565
0.175309
0.190654
0.220762
0.257921
0.351559
0.439328
0.545472
0.613459
0.68908
0.717197
0.734648
0.719978
0.69733
0.679791
0.674311
0.688572
0.710019
0.730046
0.754621
0.767002
0.777809
0.760483
0.744797
0.689594
0.605173
0.488702
0.402249
0.357319
0.340582
0.334347
0.340395
0.347069
0.361987
0.384359
0.407091
0.428496
0.446196
0.468102
0.464045
0.429122
0.364095
0.271887
0.273509
0.00780372
0.00091404
-0.00170524
-0.00188509
-0.0016202
-0.0013099
-0.00102197
-0.000712722
-0.000487721
-0.000134008
0.000101251
0.000248002
0.0002909
0.000310502
0.000187521
0.000238104
1.80485e-05
-2.79108e-05
8.18559e-05
0.000306616
0.000395237
0.000381647
0.000318341
0.000263902
0.000123784
0.000127025
0.000245999
0.000377317
0.000476937
0.000366234
9.68316e-05
0.000104383
0.000130379
0.000177361
0.000457674
0.000602114
0.00112629
0.00126634
0.00251504
0.000520262
-0.0145066
-0.128835
-0.575898
-0.635627
-0.611861
-0.564467
-0.531569
-0.513269
-0.485898
-0.464922
-0.432044
-0.400009
-0.355994
-0.319162
-0.275742
-0.240793
-0.203252
-0.171396
-0.141797
-0.118398
-0.0966351
-0.0799446
-0.0698247
-0.0566347
-0.0428773
-0.0287093
-0.0125536
0.00763791
0.0299826
0.0564286
0.0831721
0.110469
0.132531
0.146994
0.159567
0.170338
0.189264
0.210264
0.257182
0.332732
0.43949
0.54923
0.623511
0.697593
0.74698
0.784989
0.797312
0.788077
0.770146
0.744847
0.729797
0.731771
0.740762
0.753341
0.774991
0.799095
0.81481
0.808767
0.788911
0.740158
0.661039
0.545789
0.448446
0.393914
0.3707
0.360662
0.365014
0.369231
0.382107
0.40279
0.425709
0.450141
0.474235
0.498449
0.498095
0.472609
0.401294
0.294351
0.296181
-0.00497885
0.000228262
0.00164765
0.00165698
0.00119183
0.00090391
0.000522452
0.000307511
0.000142999
-1.87214e-05
-0.000224128
-0.000432358
-0.000447316
-0.000353919
-0.000211417
-2.47553e-05
3.80978e-05
5.21917e-05
0.000274751
0.000554324
0.000589081
0.000534116
0.000471788
0.000412776
0.000288913
0.000295315
0.000491583
0.00066368
0.000549236
0.000331297
0.000142118
1.26313e-05
-0.00011703
-0.000203183
-0.000327668
-0.000332953
-0.000473335
-0.000470717
-0.00104507
-0.00496279
-0.0277439
-0.223112
-0.746955
-0.729811
-0.683086
-0.624433
-0.59009
-0.554862
-0.515671
-0.495312
-0.459067
-0.428455
-0.382031
-0.341887
-0.293869
-0.256113
-0.213988
-0.178765
-0.146158
-0.120703
-0.0970516
-0.0812769
-0.0671144
-0.0559204
-0.0405953
-0.026003
-0.00884329
0.0122196
0.0372873
0.0627938
0.0893738
0.11506
0.138845
0.153141
0.171852
0.185797
0.221305
0.266059
0.346641
0.455552
0.582776
0.652381
0.735308
0.772575
0.826478
0.827882
0.837373
0.837703
0.826312
0.807537
0.793976
0.789147
0.79283
0.798381
0.812607
0.823184
0.838805
0.836052
0.81976
0.778906
0.712143
0.605339
0.499855
0.43423
0.405145
0.390868
0.391681
0.392419
0.402076
0.419756
0.441842
0.469378
0.497872
0.523419
0.528888
0.512566
0.43561
0.320608
0.320522
0.00455761
0.000676123
-0.000969811
-0.00107528
-0.000934845
-0.000789813
-0.000693856
-0.000438969
-0.000363242
-0.000154938
-1.68402e-05
4.88077e-05
3.69913e-05
0.000122387
0.000186779
0.0001913
9.21323e-05
1.27431e-06
0.000148511
0.000345101
0.000402772
0.000452936
0.000450726
0.000385379
0.000364558
0.000449566
0.000635363
0.000703156
0.000807321
0.000634828
0.000420025
0.000318913
0.00035234
0.000384872
0.000447919
0.000486473
0.00060419
0.000747974
-1.6584e-05
-0.00687596
-0.0462246
-0.346339
-0.805167
-0.801911
-0.765839
-0.713317
-0.681401
-0.630254
-0.581814
-0.544408
-0.499286
-0.456897
-0.409385
-0.36307
-0.312396
-0.268519
-0.224156
-0.185805
-0.147588
-0.119974
-0.0945422
-0.0773358
-0.0599902
-0.0493344
-0.0354816
-0.0212214
-0.00365903
0.0201527
0.0478248
0.072164
0.102183
0.125437
0.160489
0.183636
0.220367
0.265668
0.344939
0.457828
0.573199
0.628472
0.705966
0.753536
0.795088
0.84097
0.859933
0.896144
0.894996
0.884704
0.852606
0.829277
0.824151
0.833621
0.836177
0.840587
0.85061
0.861802
0.874227
0.871831
0.853622
0.818502
0.756474
0.6569
0.544848
0.469819
0.436154
0.41851
0.416989
0.415439
0.423307
0.440268
0.461244
0.487978
0.517146
0.544761
0.55324
0.546057
0.468765
0.350645
0.347506
-0.00239714
0.000321954
0.00113001
0.00091175
0.000656097
0.000504744
0.000243275
0.000185025
-2.76056e-05
-6.63902e-05
-0.000131249
-0.000226121
-0.000318213
-0.000237358
-8.26522e-05
7.48773e-06
1.99037e-05
4.62042e-05
0.000105625
0.000212418
0.000333387
0.000370302
0.000412562
0.000302439
0.000200502
0.000453045
0.000686934
0.000423163
0.000336151
0.000201442
-0.000165973
-0.000427281
-0.000617615
-0.000841057
-0.00120124
-0.00166337
-0.00194991
-0.00242894
-0.00442712
-0.013963
-0.08696
-0.513602
-0.813142
-0.837954
-0.824025
-0.792101
-0.763579
-0.704202
-0.663974
-0.595092
-0.550092
-0.486664
-0.445459
-0.386475
-0.34303
-0.288142
-0.243512
-0.196425
-0.152495
-0.119638
-0.0908962
-0.0714786
-0.0543556
-0.0433887
-0.0317354
-0.0198313
0.0034517
0.0290286
0.0713738
0.105088
0.157165
0.205631
0.270884
0.365598
0.461876
0.522772
0.595755
0.641401
0.710962
0.742717
0.785443
0.812214
0.841025
0.871427
0.898873
0.895694
0.894056
0.893886
0.893174
0.877917
0.857879
0.851323
0.856783
0.870352
0.87507
0.883576
0.893148
0.891772
0.875665
0.848438
0.794475
0.704036
0.590441
0.508405
0.469978
0.448631
0.444455
0.440341
0.445382
0.460029
0.478985
0.50542
0.534847
0.566308
0.574417
0.57578
0.502048
0.386671
0.375927
0.00225326
0.000509741
-0.000380506
-0.000462368
-0.000417852
-0.000334157
-0.000337813
-0.000223544
-0.000237058
-0.000109446
-3.29293e-05
8.05895e-06
-3.2188e-05
-1.83046e-05
0.000127073
0.000175998
0.000126888
0.000156688
5.94693e-05
7.18397e-05
0.00025286
0.000363071
0.000427879
0.000392711
0.000364499
0.0005948
0.000738898
0.000848721
0.000647544
0.00034873
0.000213192
0.00023823
0.000526927
0.000779907
0.000737469
0.000835715
0.00128011
0.00115648
-0.0013541
-0.0158185
-0.137244
-0.637826
-0.837647
-0.853742
-0.8498
-0.83646
-0.819532
-0.784878
-0.74816
-0.685185
-0.639615
-0.564025
-0.510995
-0.436242
-0.377644
-0.309593
-0.251376
-0.19724
-0.14794
-0.112681
-0.0818199
-0.0649484
-0.0428825
-0.0322998
-0.014857
0.00199497
0.0596979
0.119683
0.216211
0.315663
0.378033
0.459991
0.522912
0.595621
0.66188
0.688561
0.730412
0.750884
0.782354
0.799559
0.816452
0.833052
0.852068
0.874162
0.891088
0.893971
0.900775
0.891104
0.884448
0.865868
0.872402
0.879544
0.88787
0.895276
0.905466
0.913266
0.920888
0.917812
0.90417
0.879137
0.828345
0.741003
0.629746
0.543574
0.499932
0.476436
0.470084
0.464074
0.466816
0.479842
0.496832
0.523377
0.551494
0.584894
0.59105
0.59895
0.533954
0.428423
0.402456
-0.00109909
0.00043552
0.000686343
0.000531503
0.000380616
0.000286576
5.76674e-05
6.54568e-05
-8.81586e-05
-0.000108549
-9.14086e-05
-0.000106663
-0.000141119
-0.000143499
-6.01163e-05
9.02356e-05
9.12672e-05
0.000174896
0.000126315
-1.04474e-05
0.000120296
0.000281434
0.000289035
0.000171138
0.000231593
0.000342986
0.000516504
0.000546166
0.000215899
4.6546e-05
-0.000293614
-0.000429913
-0.000421285
-0.000457222
-0.000935396
-0.00069136
-0.00105636
-0.00108035
-0.00581835
-0.0326239
-0.249139
-0.780468
-0.846486
-0.852937
-0.853582
-0.850911
-0.847832
-0.834199
-0.817924
-0.779234
-0.735248
-0.657968
-0.592622
-0.500342
-0.423751
-0.332863
-0.254675
-0.189215
-0.129669
-0.100722
-0.0586158
-0.0312547
0.0117208
0.0720025
0.168163
0.231067
0.282701
0.370435
0.446843
0.530796
0.593185
0.626786
0.674214
0.705028
0.745681
0.759815
0.775004
0.787208
0.801689
0.810724
0.820281
0.830064
0.844952
0.861049
0.868837
0.870946
0.872469
0.873283
0.869246
0.880505
0.87224
0.87641
0.885086
0.898517
0.911847
0.924642
0.930606
0.929358
0.919271
0.898489
0.853647
0.774427
0.668364
0.578254
0.532049
0.50696
0.497507
0.488973
0.489769
0.500606
0.5151
0.540069
0.567421
0.599649
0.609166
0.620598
0.565613
0.471177
0.430234
0.00100059
0.00024671
-9.37277e-07
-5.13426e-05
-5.3063e-05
-3.96712e-05
-0.000130248
-6.8711e-05
-0.000111622
-0.00013436
-8.05693e-05
2.22556e-06
3.22419e-05
6.11606e-06
1.3618e-05
0.000150798
0.000170426
0.000256575
0.000180773
-3.19357e-05
5.19854e-05
0.000274423
0.000346972
0.000258475
0.000424743
0.000231042
7.20897e-05
0.000211885
0.000376206
0.000280835
-7.27104e-05
-0.000203164
-0.000169466
-0.000782961
-0.00124898
-0.00138424
-0.00201455
-0.00386299
-0.0115315
-0.0620541
-0.410631
-0.829936
-0.859389
-0.861213
-0.861332
-0.859481
-0.859375
-0.855093
-0.844871
-0.826847
-0.798886
-0.747008
-0.682529
-0.57623
-0.476105
-0.353552
-0.233922
-0.150533
-0.0795883
0.00902682
0.111154
0.179793
0.23497
0.305663
0.373706
0.448468
0.487261
0.526701
0.576935
0.625505
0.672048
0.702698
0.729007
0.749879
0.771559
0.783543
0.791186
0.795793
0.802194
0.809645
0.817444
0.824761
0.834058
0.84286
0.845709
0.848482
0.846967
0.855493
0.854387
0.861063
0.866185
0.878699
0.895092
0.91173
0.929772
0.942944
0.947981
0.948288
0.939797
0.920231
0.877604
0.803076
0.699518
0.60842
0.561318
0.533799
0.521369
0.511265
0.511461
0.519798
0.531803
0.555207
0.58114
0.613927
0.625497
0.640128
0.593881
0.511256
0.456567
-0.000269389
0.000299074
0.000383284
0.000364312
0.000241421
0.000148932
-1.13747e-06
5.10646e-06
-5.15182e-05
-0.000119082
-0.000123135
-5.65951e-05
1.264e-05
2.38825e-06
-9.12339e-05
1.25759e-05
0.000133102
0.000136482
0.00024836
8.90123e-05
-6.42661e-05
0.000175728
0.000322099
0.000338969
0.000447415
0.000189192
-0.000469249
-0.000606547
-0.000453698
-0.000384288
-0.000392002
-0.000565701
-0.000393541
-0.00103548
-0.00137127
-0.00149823
-0.00185093
-0.00411241
-0.016109
-0.108495
-0.567939
-0.838972
-0.872645
-0.875816
-0.876945
-0.877245
-0.878588
-0.877164
-0.874318
-0.865814
-0.84874
-0.818772
-0.75611
-0.662256
-0.518061
-0.316979
-0.134563
0.0562244
0.14336
0.263426
0.32057
0.385939