/*--------------------------------*- C++ -*----------------------------------*\
| =========                 |                                                 |
| \\      /  F ield         | OpenFOAM: The Open Source CFD Toolbox           |
|  \\    /   O peration     | Version:  2.2.x                                 |
|   \\  /    A nd           | Web:      www.OpenFOAM.org                      |
|    \\/     M anipulation  |                                                 |
\*---------------------------------------------------------------------------*/
FoamFile
{
    version     2.0;
    format      ascii;
    class       volScalarField;
    location    "0.09";
    object      p;
}
// * * * * * * * * * * * * * * * * * * * * * * * * * * * * * * * * * * * * * //

dimensions      [1 -1 -2 0 0 0 0];

internalField   nonuniform List<scalar> 
1024
(
0.1
0.1
0.1
0.1
0.1
0.1
0.1
0.1
0.1
0.1
0.1
0.1
0.1
0.1
0.1
0.1
0.1
0.1
0.1
0.1
0.1
0.1
0.1
0.1
0.1
0.1
0.1
0.1
0.1
0.1
0.1
0.1
0.1
0.1
0.1
0.1
0.1
0.1
0.1
0.1
0.1
0.1
0.1
0.1
0.1
0.1
0.1
0.1
0.1
0.1
0.1
0.1
0.1
0.1
0.1
0.1
0.1
0.1
0.1
0.1
0.1
0.1
0.1
0.1
0.1
0.1
0.1
0.1
0.1
0.1
0.1
0.1
0.1
0.1
0.1
0.1
0.1
0.1
0.1
0.1
0.1
0.1
0.1
0.1
0.1
0.1
0.1
0.1
0.1
0.1
0.1
0.1
0.1
0.1
0.1
0.1
0.1
0.1
0.1
0.1
0.1
0.1
0.1
0.1
0.1
0.1
0.1
0.1
0.1
0.1
0.1
0.1
0.1
0.1
0.1
0.1
0.1
0.1
0.1
0.1
0.1
0.1
0.1
0.1
0.1
0.1
0.1
0.1
0.1
0.1
0.1
0.1
0.1
0.1
0.1
0.1
0.1
0.1
0.1
0.1
0.1
0.1
0.1
0.1
0.1
0.1
0.1
0.1
0.1
0.1
0.1
0.1
0.0999999
0.0999999
0.0999998
0.0999997
0.0999994
0.0999991
0.0999986
0.0999979
0.0999967
0.099995
0.0999925
0.0999888
0.0999835
0.099976
0.0999654
0.0999506
0.0999304
0.0999032
0.099867
0.0998198
0.0997591
0.0996825
0.0995874
0.0994715
0.0993326
0.0991693
0.0989803
0.0987654
0.0985246
0.0982583
0.0979667
0.0976491
0.0973025
0.0969588
0.0966321
0.0963148
0.0960063
0.0957023
0.0954054
0.0951098
0.0948188
0.0945285
0.0942407
0.0939542
0.0936682
0.0933831
0.0930983
0.0928142
0.0925309
0.0922484
0.0919666
0.0916867
0.0914075
0.0911309
0.090857
0.0905849
0.0903195
0.0900546
0.0898006
0.089553
0.0893101
0.0890885
0.0888689
0.0886714
0.0884889
0.0883125
0.0881762
0.0880447
0.087934
0.0878505
0.0877705
0.0877233
0.0876862
0.0876516
0.0876407
0.0876341
0.0876256
0.0876258
0.087629
0.0876358
0.0876529
0.0876888
0.0877531
0.0878565
0.0879796
0.0880797
0.0881531
0.0882187
0.0882544
0.0882858
0.0883135
0.0883252
0.0883333
0.0883438
0.0883497
0.0883499
0.0883506
0.0883532
0.088355
0.0883543
0.0883533
0.0883522
0.0883496
0.0883437
0.0883329
0.0883152
0.0882879
0.0882507
0.0882187
0.0881901
0.0881761
0.0881636
0.0881542
0.0881531
0.0881518
0.0881505
0.0881518
0.0881563
0.088166
0.0881827
0.0881973
0.0882076
0.0882156
0.0882176
0.0882193
0.0882206
0.0882201
0.0882185
0.0882148
0.0882085
0.0882035
0.0881991
0.0881978
0.088197
0.088196
0.088196
0.0881964
0.0881969
0.0881967
0.0881967
0.0881966
0.0881958
0.0881938
0.0881896
0.0881823
0.0881742
0.088168
0.0881644
0.0881611
0.0881599
0.0881595
0.0881589
0.0881587
0.0881588
0.0881588
0.0881586
0.0881581
0.088157
0.0881545
0.0881496
0.0881407
0.0881285
0.0881192
0.0881116
0.0881085
0.0881058
0.0881047
0.0881048
0.0881053
0.088107
0.0881113
0.0881162
0.0881201
0.088121
0.0881218
0.0881223
0.0881219
0.0881206
0.0881176
0.0881141
0.0881117
0.0881103
0.0881098
0.0881098
0.0881102
0.0881118
0.0881157
0.0881211
0.0881249
0.0881272
0.088128
0.0881286
0.0881284
0.0881273
0.0881243
0.088119
0.0881146
0.0881115
0.0881099
0.0881094
0.0881089
0.0881089
0.0881095
0.0881103
0.0881106
0.0881108
0.0881108
0.0881103
0.0881092
0.0881067
0.0881019
0.088094
0.0880864
0.088081
0.0880779
0.0880761
0.0880756
0.0880755
0.0880763
0.0880787
0.0880808
0.0880817
0.0880819
0.0880815
0.0880797
0.0880745
0.0880678
0.0880696
0.0880923
0.0881699
0.0884384
0.0893965
0.092842
0.104971
0.14441
0.247565
0.389021
0.467847
0.496458
0.506103
0.509354
0.510431
0.51077
0.510872
0.510915
0.510931
0.510947
0.510973
0.510988
0.510988
0.510966
0.510922
0.510867
0.510787
0.510681
0.510593
0.510531
0.510491
0.510463
0.510452
0.510447
0.510432
0.510406
0.510369
0.510325
0.510276
0.51023
0.510177
0.510141
0.510131
0.510144
0.510169
0.510221
0.510287
0.510349
0.510405
0.510454
0.510477
0.510474
0.510448
0.510413
0.51038
0.510354
0.510334
0.510309
0.510302
0.510287
0.510267
0.510243
0.510212
0.510174
0.510136
0.510099
0.510061
0.510028
0.510003
0.50999
0.509988
0.509997
0.510011
0.510026
0.510021
0.51
0.509966
0.509932
0.50991
0.509904
0.509907
0.509913
0.509909
0.509879
0.50982
0.509755
0.509706
0.50969
0.509709
0.509741
0.509758
0.509744
0.50969
0.50962
0.509564
0.509541
0.509552
0.509611
0.509668
0.50967
0.509617
0.509527
0.509387
0.50929
0.50923
0.509233
0.509344
0.509438
0.509378
0.509238
0.5091
0.50901
0.50895
0.508977
0.509061
0.509023
0.508916
0.508747
0.508445
0.508207
0.508083
0.508062
0.508238
0.508477
0.508511
0.508414
0.507939
0.507467
0.507377
0.507557
0.508413
0.509652
0.510576
0.51144
0.51179
0.512825
0.515327
0.518996
0.52433
0.530652
0.537374
0.544435
0.550728
0.557156
0.565259
0.574701
0.585354
0.597026
0.608591
0.618972
0.626577
0.635758
0.647934
0.663506
0.680904
0.699384
0.715386
0.727662
0.752339
0.75086
0.69015
0.592529
0.524941
0.496906
0.486451
0.482551
0.481358
0.481148
0.48109
0.480977
0.480854
0.480676
0.480482
0.480372
0.480318
0.480282
0.480234
0.480163
0.480068
0.479882
0.479533
0.479067
0.478521
0.477903
0.477262
0.476561
0.475752
0.474707
0.473181
0.471126
0.46904
0.467972
0.467658
0.467664
0.467892
0.468677
0.469971
0.471826
0.474548
0.477732
0.481385
0.48552
0.489805
0.49431
0.498928
0.503553
0.508232
0.512901
0.51755
0.522181
0.526796
0.531403
0.536016
0.54064
0.545284
0.54995
0.554639
0.559357
0.564106
0.568884
0.573689
0.578532
0.583409
0.588312
0.593252
0.598233
0.60324
0.60828
0.613362
0.618475
0.623616
0.628796
0.634013
0.639256
0.644534
0.649852
0.655198
0.660575
0.665994
0.671443
0.676921
0.682441
0.687996
0.693577
0.6992
0.70486
0.710547
0.716275
0.722043
0.727836
0.733672
0.739547
0.745448
0.751395
0.757377
0.763389
0.769448
0.775538
0.781663
0.787835
0.794033
0.800276
0.80656
0.812871
0.819232
0.825627
0.832056
0.838536
0.845044
0.851595
0.858192
0.864817
0.871493
0.878204
0.884951
0.891749
0.898574
0.905447
0.912356
0.919317
0.926239
0.933037
0.93971
0.946231
0.952561
0.958647
0.964431
0.969851
0.974848
0.979369
0.983379
0.986857
0.989806
0.992248
0.99422
0.995775
0.996971
0.99787
0.99853
0.999004
0.999337
0.999566
0.999721
0.999823
0.99989
0.999932
0.999959
0.999975
0.999986
0.999992
0.999995
0.999997
0.999998
0.999999
1
1
1
1
1
1
1
1
1
1
1
1
1
1
1
1
1
1
1
1
1
1
1
1
1
1
1
1
1
1
1
1
1
1
1
1
1
1
1
1
1
1
1
1
1
1
1
1
1
1
1
1
1
1
1
1
1
1
1
1
1
1
1
1
1
1
1
1
1
1
1
1
1
1
1
1
1
1
1
1
1
1
1
1
1
1
1
1
1
1
1
1
1
1
1
1
1
1
1
1
1
1
1
1
1
1
1
1
1
1
1
1
1
1
1
1
1
1
1
1
1
1
1
1
1
1
1
1
1
1
1
1
1
1
1
1
1
1
1
1
1
1
1
1
1
1
1
1
1
1
1
1
1
1
1
1
1
1
1
1
1
1
1
1
1
1
1
1
1
1
1
1
1
1
1
1
1
1
1
1
1
1
1
1
1
1
1
1
1
1
1
1
1
1
1
1
1
1
1
1
1
1
1
1
1
1
1
1
1
1
1
1
1
1
1
1
1
1
1
1
1
1
1
1
1
1
1
1
1
1
1
1
1
1
1
1
1
1
1
1
1
1
1
1
1
1
1
1
1
1
1
1
1
1
1
1
1
1
1
1
1
1
1
1
1
1
1
1
1
1
1
1
1
1
1
1
1
1
1
1
1
1
1
1
1
1
1
1
1
1
1
1
1
1
1
1
1
1
1
1
1
1
1
1
1
1
1
1
1
1
1
1
1
1
1
1
1
1
1
1
1
1
1
1
1
1
1
1
1
1
1
)
;

boundaryField
{
    front-back
    {
        type            empty;
    }
    inlet-outlet
    {
        type            zeroGradient;
    }
    top-down
    {
        type            empty;
    }
}


// ************************************************************************* //
