/*--------------------------------*- C++ -*----------------------------------*\
| =========                 |                                                 |
| \\      /  F ield         | OpenFOAM: The Open Source CFD Toolbox           |
|  \\    /   O peration     | Version:  2.2.x                                 |
|   \\  /    A nd           | Web:      www.OpenFOAM.org                      |
|    \\/     M anipulation  |                                                 |
\*---------------------------------------------------------------------------*/
FoamFile
{
    version     2.0;
    format      ascii;
    class       volVectorField;
    location    "0.6";
    object      U;
}
// * * * * * * * * * * * * * * * * * * * * * * * * * * * * * * * * * * * * * //

dimensions      [0 1 -1 0 0 0 0];

internalField   nonuniform List<vector> 
14161
(
(1.50004 2.85609e-08 2.74482e-22)
(1.50004 -1.70321e-08 -1.50225e-21)
(1.50005 -2.31548e-09 -1.38576e-21)
(1.50007 5.82505e-10 -2.33168e-21)
(1.50009 8.45235e-09 -1.18821e-21)
(1.50013 1.29815e-08 -3.90152e-21)
(1.50019 2.0246e-08 -4.97843e-22)
(1.50026 2.7121e-08 -2.06614e-21)
(1.50036 3.57734e-08 -6.64078e-22)
(1.50049 4.70361e-08 -1.37401e-21)
(1.50067 5.80517e-08 -1.63351e-21)
(1.50089 7.68662e-08 -5.95501e-22)
(1.50117 8.87678e-08 -1.92368e-21)
(1.50152 1.08351e-07 -1.68455e-22)
(1.50195 1.58913e-07 -9.57353e-22)
(1.50247 9.2754e-08 -4.0825e-22)
(1.50309 2.08179e-07 -1.09365e-21)
(1.50382 2.66738e-07 -9.67288e-22)
(1.50466 -1.41148e-07 -9.38683e-22)
(1.50563 5.55592e-07 -1.18299e-21)
(1.50671 3.53011e-09 -1.56611e-21)
(1.50791 3.00662e-07 -1.37998e-21)
(1.50923 -5.82275e-07 -8.97378e-22)
(1.51064 1.04584e-06 -2.64288e-21)
(1.51216 -3.10474e-07 -4.94796e-22)
(1.51374 -1.88125e-06 -4.32275e-21)
(1.51542 1.05727e-06 -1.09047e-21)
(1.51715 -1.15038e-06 -4.74868e-21)
(1.51875 -1.71372e-06 -4.04244e-21)
(1.5205 -3.7318e-06 -5.14767e-21)
(1.52225 -7.84772e-06 -5.73327e-21)
(1.52389 -7.03449e-06 -5.40782e-21)
(1.52557 7.99431e-06 -7.23567e-21)
(1.52696 8.11374e-06 -5.91228e-21)
(1.52825 -8.17321e-06 -7.29933e-21)
(1.52948 -4.86376e-06 -9.57249e-21)
(1.53068 2.80708e-06 -5.51448e-21)
(1.53165 -3.02914e-06 -8.52028e-21)
(1.53245 -1.13567e-06 -1.02358e-20)
(1.53318 1.11022e-05 -9.65884e-21)
(1.53378 6.44077e-06 -1.6286e-20)
(1.53424 1.43823e-05 -3.72079e-21)
(1.53444 9.11915e-06 1.92422e-20)
(1.53436 9.54272e-06 -4.51275e-19)
(1.53412 1.4134e-05 2.34875e-18)
(1.53368 1.0941e-05 -6.62452e-18)
(1.53285 1.46651e-05 6.31353e-18)
(1.5315 4.92458e-05 -1.42887e-17)
(1.52904 0.000122616 1.3548e-17)
(1.52595 0.000533834 -6.61745e-18)
(1.5163 0.00105073 -1.51707e-16)
(1.5115 0.00972841 1.27805e-16)
(1.26382 0.0669547 3.98437e-13)
(0.487125 0.0859025 -2.90861e-12)
(0.309785 0.0545062 5.79234e-12)
(0.26831 -0.0101531 -3.79846e-12)
(0.292976 -0.0518322 -1.58259e-12)
(0.354165 -0.0670839 2.4639e-12)
(0.415201 -0.0650003 1.94147e-12)
(0.466995 -0.0511348 -3.99462e-11)
(0.514836 -0.0385434 4.12212e-11)
(0.558347 -0.0309464 3.82858e-11)
(0.59269 -0.0252827 -6.89679e-11)
(0.62292 -0.0207355 -5.34654e-11)
(0.648913 -0.0171262 7.50617e-11)
(0.671247 -0.0131026 6.72609e-11)
(0.688789 -0.00970177 -7.0539e-11)
(0.702457 -0.00777032 -6.28033e-11)
(0.713022 -0.00639698 5.39466e-11)
(0.720248 -0.00446952 4.90883e-11)
(0.725694 -0.00273482 -2.70959e-11)
(0.730226 -0.00270856 -3.16695e-11)
(0.73495 -0.00274708 1.92798e-12)
(0.738803 -0.00311208 1.7571e-11)
(0.74173 -0.00166838 3.04702e-12)
(0.741717 0.000501513 -4.26323e-12)
(0.736725 0.00412309 -4.18084e-12)
(0.724753 0.00918419 -3.92691e-13)
(0.705174 0.0176704 2.25522e-12)
(0.663857 0.0246031 9.33438e-13)
(0.600798 0.0303575 -2.83224e-13)
(0.518228 0.0397008 8.12627e-14)
(0.432871 0.0424639 5.24951e-13)
(0.359618 0.0411155 1.40691e-12)
(0.306234 0.0330376 2.08223e-14)
(0.27 0.0233944 -1.05547e-12)
(0.244961 0.0178336 -5.29977e-13)
(0.228822 0.010626 -2.18498e-13)
(0.218178 0.00739719 -4.75199e-13)
(0.210902 0.00559503 -2.94868e-13)
(0.205279 0.00618677 -2.12615e-13)
(0.199136 0.00776525 -1.07569e-13)
(0.191442 0.00811892 -1.93498e-14)
(0.183332 0.00739877 3.33396e-14)
(0.17481 0.00659742 4.55679e-14)
(0.166719 0.00593466 2.99984e-14)
(0.159172 0.00596623 9.44183e-15)
(0.152177 0.00569696 -5.19517e-15)
(0.146002 0.00575081 -1.11233e-14)
(0.139938 0.00591082 -9.67787e-15)
(0.133151 0.00657287 -3.22465e-15)
(0.125403 0.00667289 2.7067e-15)
(0.116824 0.00675878 5.33718e-15)
(0.108407 0.00588182 4.74926e-15)
(0.101143 0.00572698 2.51314e-15)
(0.0949854 0.00472717 6.62265e-16)
(0.0904925 0.00434632 -8.43239e-17)
(0.0858176 0.00446821 -8.48048e-17)
(0.079855 0.00522486 -9.5429e-17)
(0.0732586 0.0044066 -2.27069e-16)
(0.0675019 0.00420698 -2.6431e-16)
(0.0614765 0.00401786 -1.80184e-16)
(0.0552659 0.00435458 -4.09714e-17)
(0.048205 0.00424983 1.34165e-17)
(0.0407496 0.00452293 1.43768e-18)
(0.0323627 0.00427882 -1.23038e-17)
(0.0227687 0.00562298 -8.40832e-18)
(0.0132615 0.00453084 2.7693e-18)
(0.00445025 0.0050556 2.59347e-18)
(1.50004 2.19055e-08 -1.04741e-22)
(1.50004 -1.63637e-08 2.76645e-21)
(1.50005 -8.63476e-09 5.51445e-21)
(1.50007 -2.64692e-09 3.91201e-21)
(1.50009 4.85064e-09 3.94508e-21)
(1.50013 9.26817e-09 4.76799e-21)
(1.50019 1.51133e-08 4.71423e-21)
(1.50026 2.05657e-08 4.04616e-21)
(1.50036 2.71633e-08 5.58192e-21)
(1.50049 3.67239e-08 4.07425e-21)
(1.50067 4.57498e-08 4.99955e-21)
(1.50089 6.12994e-08 3.22046e-21)
(1.50117 7.6183e-08 6.3178e-21)
(1.50152 9.3085e-08 2.94802e-21)
(1.50195 1.2946e-07 2.12627e-21)
(1.50247 1.84925e-07 1.05868e-21)
(1.50309 -2.9617e-09 4.11277e-21)
(1.50382 6.52329e-07 -9.59967e-22)
(1.50467 -2.57164e-07 3.2507e-21)
(1.50563 9.83009e-07 -2.47461e-21)
(1.50672 -1.02615e-07 2.55749e-21)
(1.50792 1.22749e-06 -1.45319e-21)
(1.50924 -7.21113e-08 2.74025e-21)
(1.51066 1.50946e-06 -3.13859e-21)
(1.51218 1.63132e-06 9.40737e-21)
(1.51375 -6.49101e-06 2.50646e-21)
(1.51539 3.84501e-06 1.48712e-20)
(1.5171 -2.65477e-06 8.08316e-21)
(1.51882 -3.72242e-06 2.17944e-20)
(1.52057 -3.73195e-07 2.10057e-20)
(1.52229 -5.67264e-06 2.51169e-20)
(1.52382 -1.62364e-05 3.37775e-20)
(1.52547 1.1147e-05 2.93904e-20)
(1.52698 3.07922e-05 4.11364e-20)
(1.52838 1.41179e-05 3.97933e-20)
(1.52976 -7.20969e-06 5.04425e-20)
(1.53088 -6.1652e-06 4.50461e-20)
(1.5317 1.1816e-05 4.30148e-20)
(1.5324 -1.28903e-05 6.0986e-20)
(1.53304 -1.60933e-05 5.34074e-20)
(1.53371 -1.93935e-05 6.31809e-20)
(1.53439 4.9821e-06 4.4366e-20)
(1.53463 1.7288e-05 1.15932e-19)
(1.53465 3.28552e-05 -6.24168e-19)
(1.5345 5.5671e-05 1.59422e-18)
(1.53418 0.00011555 -4.63235e-18)
(1.53352 0.000172633 1.81772e-17)
(1.53265 0.000345633 -3.25827e-17)
(1.5308 0.000573492 2.04916e-16)
(1.5298 0.00100751 -6.1737e-16)
(1.52291 0.00324157 -4.37734e-15)
(1.52763 0.0213965 -1.94428e-13)
(1.33364 0.178938 -1.61175e-12)
(0.568984 0.238993 -6.29458e-12)
(0.445634 0.0910056 3.03043e-11)
(0.397144 -0.0102429 -1.15476e-11)
(0.406927 -0.050656 -7.77531e-12)
(0.44875 -0.0675378 -2.7988e-11)
(0.487428 -0.0671064 1.2022e-10)
(0.52332 -0.0577505 -1.98309e-10)
(0.560769 -0.0479512 -1.40012e-10)
(0.597125 -0.0411053 4.4788e-10)
(0.62644 -0.0344936 9.85811e-11)
(0.65185 -0.0243283 -6.79567e-10)
(0.673958 -0.0184872 -8.85941e-11)
(0.690903 -0.0136204 8.45048e-10)
(0.705001 -0.0103982 1.4999e-10)
(0.71532 -0.0089775 -9.01387e-10)
(0.723439 -0.00732807 -1.60156e-10)
(0.72898 -0.00502636 6.97199e-10)
(0.733441 -0.00312441 6.08669e-11)
(0.737361 -0.00294269 -5.38458e-10)
(0.739992 -0.00290981 5.38026e-11)
(0.741481 -0.00217468 1.65119e-10)
(0.739013 -0.000860737 1.26804e-10)
(0.736097 0.00205168 2.78114e-11)
(0.729365 0.00641951 -5.20418e-11)
(0.718511 0.0124742 -5.13518e-11)
(0.710239 0.0259164 -1.40747e-11)
(0.68216 0.0475506 2.27001e-11)
(0.650358 0.0829087 2.21357e-11)
(0.588139 0.108519 -9.43819e-12)
(0.520913 0.113197 -1.1559e-11)
(0.456516 0.088998 -2.62498e-12)
(0.393932 0.0647595 2.3055e-14)
(0.340581 0.0443708 5.44882e-12)
(0.30001 0.0290603 8.03505e-12)
(0.272671 0.0156686 3.0436e-12)
(0.251861 0.00912046 -5.24354e-13)
(0.238046 0.00669098 -7.95926e-15)
(0.228563 0.00634959 9.69339e-13)
(0.22065 0.00871118 1.20471e-12)
(0.211992 0.00989286 9.99517e-13)
(0.202961 0.00953874 6.63488e-13)
(0.193307 0.00883616 3.23829e-13)
(0.183588 0.00810819 5.97287e-14)
(0.174307 0.008353 -4.65542e-14)
(0.165594 0.00870784 -3.48579e-14)
(0.157651 0.0090764 2.67998e-14)
(0.150393 0.00896272 8.21511e-14)
(0.143308 0.00957532 8.2225e-14)
(0.135745 0.00928378 3.86036e-14)
(0.127537 0.00928886 -1.32502e-15)
(0.119245 0.00793737 -1.41121e-14)
(0.11144 0.0079803 -1.01447e-14)
(0.104444 0.0068293 -3.76837e-15)
(0.098684 0.00645833 9.51909e-16)
(0.0930384 0.00693614 2.80676e-15)
(0.086905 0.00942104 2.31889e-15)
(0.0799831 0.00776034 1.2606e-15)
(0.0735588 0.00825875 4.09923e-16)
(0.066956 0.00850737 9.84989e-17)
(0.0604482 0.01028 -1.5963e-17)
(0.0529824 0.0103517 -2.15433e-17)
(0.0452463 0.0118929 1.45576e-17)
(0.0359906 0.012163 2.71715e-17)
(0.0264662 0.0156907 2.15546e-17)
(0.0160423 0.0136752 1.2704e-17)
(0.00572992 0.0159974 1.00444e-17)
(1.50004 3.16824e-08 2.30005e-21)
(1.50004 -2.05486e-08 -6.6721e-22)
(1.50005 -1.55523e-08 -5.38202e-22)
(1.50007 -8.07979e-09 -3.57258e-22)
(1.50009 5.54883e-09 2.05259e-21)
(1.50013 1.65973e-08 1.71079e-21)
(1.50019 2.96475e-08 2.96107e-21)
(1.50026 4.33459e-08 1.30365e-21)
(1.50036 5.93098e-08 4.66149e-21)
(1.50049 8.18304e-08 2.88294e-22)
(1.50067 1.04773e-07 7.42968e-21)
(1.50089 1.46654e-07 -1.93628e-22)
(1.50117 1.73816e-07 1.34233e-22)
(1.50152 2.42043e-07 -1.22043e-21)
(1.50195 3.01923e-07 1.57907e-21)
(1.50247 3.86649e-07 -2.43852e-21)
(1.50309 2.61372e-07 -4.8032e-22)
(1.50382 1.14065e-06 -6.63066e-21)
(1.50467 -2.54154e-07 -2.3428e-21)
(1.50564 1.85234e-06 -5.16324e-21)
(1.50672 9.21657e-08 -5.40906e-21)
(1.50793 1.73543e-06 -1.60594e-20)
(1.50924 1.75605e-06 -1.71635e-20)
(1.51066 9.57024e-07 -1.17083e-20)
(1.51218 8.82881e-07 -2.43951e-20)
(1.51378 2.42039e-06 -3.05234e-20)
(1.51547 -3.43362e-06 -3.6834e-20)
(1.51711 -4.23448e-06 -4.20035e-20)
(1.51877 -6.84814e-07 -4.48868e-20)
(1.52052 -4.25692e-06 -4.7278e-20)
(1.52226 1.94063e-06 -4.94719e-20)
(1.52396 -1.65078e-06 -5.61738e-20)
(1.52549 1.74861e-05 -6.30651e-20)
(1.52695 1.75876e-05 -6.80912e-20)
(1.52844 8.33988e-07 -7.04076e-20)
(1.52971 -1.69417e-05 -8.13259e-20)
(1.5308 1.81653e-05 -6.3167e-20)
(1.53173 6.92455e-05 -1.01987e-19)
(1.53255 5.10279e-05 -2.26407e-20)
(1.53328 -2.47475e-05 -1.74614e-19)
(1.53393 -5.70507e-05 -1.35171e-19)
(1.53447 -2.27663e-05 7.18147e-20)
(1.53472 1.07457e-05 -3.07574e-19)
(1.53478 3.29831e-05 3.43348e-19)
(1.53479 3.17989e-05 -3.64557e-19)
(1.53469 6.58051e-05 5.89525e-20)
(1.53427 0.000126588 -3.91533e-18)
(1.53362 0.000225686 1.52448e-17)
(1.53242 0.000592614 -4.56183e-17)
(1.53101 0.00101113 1.44425e-16)
(1.52616 0.0041456 -1.12939e-15)
(1.52608 0.0232326 -1.01328e-13)
(1.48162 0.215138 -4.13321e-13)
(0.722576 0.376689 -2.68878e-12)
(0.56481 0.16058 2.00789e-11)
(0.501102 -0.0203093 -1.14916e-11)
(0.525348 -0.107433 4.88479e-11)
(0.57049 -0.125316 -1.77103e-10)
(0.607244 -0.116588 1.72301e-10)
(0.639342 -0.101012 4.26801e-10)
(0.671285 -0.0856514 -7.85655e-10)
(0.699385 -0.0702185 -5.17748e-10)
(0.725696 -0.0574546 1.637e-09)
(0.746738 -0.0456092 5.02062e-10)
(0.770154 -0.0345421 -2.18832e-09)
(0.786449 -0.0246229 -8.98227e-10)
(0.801207 -0.0177474 2.50247e-09)
(0.813273 -0.0129201 1.46285e-09)
(0.819586 -0.00917255 -2.14555e-09)
(0.826842 -0.00628999 -1.74042e-09)
(0.831904 -0.00355071 1.25632e-09)
(0.835262 -0.00211657 1.58144e-09)
(0.837678 -0.00125498 -1.5889e-10)
(0.839399 0.000118609 -8.24459e-10)
(0.836251 0.00284863 -5.1707e-10)
(0.833222 0.00702455 4.57639e-11)
(0.825353 0.0145743 3.13262e-10)
(0.803844 0.0209495 2.22471e-10)
(0.777689 0.033564 7.37713e-12)
(0.745772 0.0632495 -1.12308e-10)
(0.719923 0.112913 -8.95811e-11)
(0.692228 0.154258 1.97341e-11)
(0.650929 0.17185 3.56849e-11)
(0.606626 0.160241 1.6534e-11)
(0.541024 0.147825 -1.05844e-13)
(0.465294 0.12287 -2.25128e-12)
(0.395469 0.0876784 -7.07929e-12)
(0.341814 0.0576305 -8.32445e-12)
(0.305795 0.0369279 -2.37634e-12)
(0.282085 0.0260126 1.36955e-12)
(0.266159 0.0223481 1.30073e-12)
(0.252351 0.0244232 3.35471e-13)
(0.239646 0.0259488 -4.27326e-13)
(0.227382 0.0258063 -8.53112e-13)
(0.215027 0.024942 -8.24267e-13)
(0.202823 0.0231976 -4.65812e-13)
(0.191495 0.0231328 -1.24695e-13)
(0.180607 0.0225304 3.05372e-16)
(0.170504 0.0219279 -1.36182e-14)
(0.161533 0.0211278 -4.47988e-14)
(0.153069 0.0213783 -4.5997e-14)
(0.144515 0.0207532 -2.88122e-14)
(0.135462 0.0207525 -1.0838e-14)
(0.12644 0.018599 -3.3884e-15)
(0.11763 0.01851 -3.83552e-15)
(0.109439 0.0163876 -3.78865e-15)
(0.102645 0.0151913 -1.34028e-15)
(0.0962564 0.0151262 6.87381e-16)
(0.0902725 0.0180226 1.09688e-15)
(0.0835003 0.0157735 7.12388e-16)
(0.076735 0.0163978 2.86697e-16)
(0.0695729 0.0164075 1.49593e-16)
(0.0626666 0.0188336 9.14083e-17)
(0.0546444 0.0188602 5.57331e-17)
(0.0463752 0.0213355 1.75274e-17)
(0.0365968 0.0215828 4.15644e-18)
(0.0277211 0.026451 1.03473e-17)
(0.0172257 0.0242281 7.59169e-18)
(0.00722069 0.0284569 2.70885e-18)
(1.50004 4.40674e-08 -1.32108e-21)
(1.50004 -2.70108e-08 -1.94706e-21)
(1.50005 -2.26409e-08 -4.29414e-22)
(1.50007 -9.81384e-09 -7.14597e-22)
(1.50009 9.35918e-09 -4.0431e-21)
(1.50013 2.23203e-08 -8.99953e-21)
(1.50019 3.75949e-08 -9.59617e-21)
(1.50026 5.31764e-08 -1.01529e-20)
(1.50036 7.17341e-08 -1.01926e-20)
(1.5005 9.80928e-08 -1.0602e-20)
(1.50067 1.24524e-07 -1.12934e-20)
(1.50089 1.70345e-07 -1.53081e-20)
(1.50117 2.10612e-07 -1.37932e-20)
(1.50152 2.58932e-07 -1.50266e-20)
(1.50195 3.9076e-07 -1.08068e-20)
(1.50248 3.85306e-07 -2.68927e-21)
(1.5031 5.12863e-07 -1.21968e-20)
(1.50383 8.57093e-07 1.61269e-21)
(1.50468 3.55585e-07 -2.07308e-20)
(1.50565 1.18783e-06 -4.07052e-21)
(1.50674 1.21637e-06 -6.19039e-21)
(1.50794 6.51245e-07 2.73031e-21)
(1.50926 1.56322e-06 1.64023e-21)
(1.51069 1.17032e-06 5.2909e-21)
(1.5122 2.55826e-06 9.09454e-21)
(1.5138 3.41692e-06 9.10734e-21)
(1.51547 -4.90217e-06 1.36705e-20)
(1.51716 1.07219e-05 2.459e-20)
(1.51895 1.11329e-05 2.51569e-20)
(1.52067 -6.91332e-06 2.08785e-20)
(1.52221 -3.55484e-06 2.89459e-20)
(1.52395 8.6884e-06 2.31402e-20)
(1.52563 1.55997e-05 3.67455e-20)
(1.5272 1.08508e-05 3.28281e-20)
(1.52857 -1.777e-05 3.52355e-20)
(1.52975 -9.76486e-06 3.94914e-20)
(1.53081 -1.7631e-05 5.1696e-20)
(1.53187 -1.10259e-06 4.02131e-20)
(1.53295 -2.37742e-05 4.67924e-20)
(1.53376 -4.27975e-05 1.9035e-20)
(1.53446 -5.24535e-05 5.72944e-20)
(1.53496 -3.9513e-05 8.43452e-20)
(1.53535 -1.30458e-05 4.28415e-20)
(1.53551 9.58842e-06 1.34689e-19)
(1.53555 4.54425e-05 -3.72669e-19)
(1.53554 7.55368e-05 1.52495e-18)
(1.53559 0.000162822 -4.47722e-18)
(1.53589 0.000361142 2.32262e-17)
(1.53731 0.000688697 -1.32817e-16)
(1.54035 0.00109614 4.00862e-16)
(1.54532 0.00377782 -1.39388e-15)
(1.55372 0.0208829 -2.84818e-14)
(1.57303 0.169659 -3.03711e-13)
(1.0487 0.481965 -7.53456e-13)
(0.735274 0.161893 -2.73177e-12)
(0.672961 -0.0634306 -1.44527e-12)
(0.701332 -0.138992 -1.51528e-12)
(0.734461 -0.159263 4.44689e-11)
(0.755549 -0.150749 -3.53975e-11)
(0.772374 -0.134978 -1.29287e-10)
(0.790019 -0.114786 1.99874e-10)
(0.797247 -0.0919688 1.50324e-10)
(0.82266 -0.0736777 -3.11842e-10)
(0.826982 -0.0562425 -1.74616e-10)
(0.849539 -0.0431854 3.12095e-10)
(0.853342 -0.0316171 2.30912e-10)
(0.868887 -0.0240214 -1.24243e-10)
(0.87144 -0.0182014 -3.98655e-10)
(0.880152 -0.0136005 -5.3635e-11)
(0.885762 -0.0092687 3.91161e-10)
(0.88837 -0.00534071 2.23887e-10)
(0.892702 -0.00356894 -1.79547e-10)
(0.895801 -0.00282064 -2.53536e-10)
(0.897662 -0.00129232 -5.19977e-11)
(0.899728 0.000982414 1.07126e-10)
(0.89867 0.00543334 1.1322e-10)
(0.899595 0.0145542 4.67993e-11)
(0.881315 0.0292409 -2.6108e-11)
(0.869989 0.0520715 -5.9942e-11)
(0.827621 0.0792204 -5.80205e-11)
(0.805169 0.12764 8.68638e-12)
(0.781534 0.171975 6.55576e-11)
(0.769032 0.197822 1.7244e-11)
(0.734427 0.207068 -2.17273e-11)
(0.693544 0.204618 -1.46996e-11)
(0.642512 0.191163 1.13641e-12)
(0.588963 0.152508 2.64171e-12)
(0.513463 0.107489 -5.83544e-12)
(0.447957 0.0621517 -7.09138e-12)
(0.399174 0.0414142 -2.28192e-12)
(0.364218 0.0330856 1.84892e-13)
(0.335721 0.0337202 1.6036e-13)
(0.310663 0.0346809 -1.13636e-12)
(0.287978 0.0335506 -2.03341e-12)
(0.267211 0.0328567 -1.73156e-12)
(0.247815 0.0302766 -9.45713e-13)
(0.229715 0.0309961 -4.2236e-13)
(0.212821 0.0308711 -1.85786e-13)
(0.198091 0.0287637 -3.73146e-14)
(0.185382 0.0268334 1.00738e-14)
(0.173815 0.0268029 -3.28778e-14)
(0.162606 0.0262703 -6.54212e-14)
(0.151536 0.0270151 -4.45151e-14)
(0.140791 0.0249184 -1.56226e-14)
(0.130455 0.025317 -3.00415e-15)
(0.120918 0.0223237 -1.34215e-15)
(0.112854 0.0205621 -1.52652e-15)
(0.105427 0.0199107 -1.20002e-15)
(0.0988999 0.0231898 -6.3142e-16)
(0.0916156 0.0211351 -2.49142e-16)
(0.0845273 0.022468 -3.67931e-17)
(0.0767992 0.0225869 7.48223e-18)
(0.0694662 0.0260137 4.83291e-17)
(0.0605405 0.0264659 3.43409e-17)
(0.051625 0.0303907 -5.66739e-18)
(0.0408365 0.0308171 -2.01476e-17)
(0.031428 0.0368942 -7.18895e-18)
(0.0197886 0.0353401 7.74698e-19)
(0.00955692 0.0421094 1.27415e-18)
(1.50004 5.57448e-08 -6.89304e-21)
(1.50004 -2.87369e-08 4.2047e-21)
(1.50005 -2.96888e-08 -7.67941e-21)
(1.50007 -1.57754e-08 1.46189e-21)
(1.50009 5.32021e-09 1.04211e-21)
(1.50013 2.19149e-08 1.24664e-20)
(1.50019 4.07392e-08 1.58672e-20)
(1.50026 6.07966e-08 1.01113e-20)
(1.50036 8.42835e-08 1.35816e-20)
(1.5005 1.16806e-07 2.82062e-20)
(1.50067 1.5182e-07 2.03444e-21)
(1.50089 2.12647e-07 2.65299e-20)
(1.50117 2.52737e-07 2.8013e-20)
(1.50152 3.72078e-07 2.96339e-20)
(1.50196 4.22063e-07 3.07646e-20)
(1.50248 5.80733e-07 1.86458e-20)
(1.5031 7.10799e-07 4.16243e-20)
(1.50384 9.08078e-07 3.0887e-20)
(1.50469 1.14129e-06 5.01865e-20)
(1.50566 9.59929e-07 3.28107e-20)
(1.50674 2.19698e-06 3.42674e-20)
(1.50796 7.63859e-07 3.28844e-20)
(1.50928 2.78094e-06 3.40853e-20)
(1.51071 1.65815e-06 2.3058e-20)
(1.51223 1.88945e-06 3.61535e-20)
(1.51384 5.86103e-06 2.845e-20)
(1.51554 -4.38384e-06 3.41095e-20)
(1.51717 1.79916e-06 3.09715e-20)
(1.51902 1.4915e-05 2.93588e-20)
(1.52073 9.00932e-06 4.32088e-20)
(1.52227 -1.535e-06 3.71388e-20)
(1.52401 -5.95277e-06 4.2822e-20)
(1.52571 -1.10954e-05 4.06195e-20)
(1.52733 -6.12443e-07 3.52515e-20)
(1.52876 -1.09485e-05 3.54505e-20)
(1.52994 -6.77247e-06 4.91649e-20)
(1.53104 -1.43569e-05 3.52599e-20)
(1.53205 -3.31917e-05 7.67857e-20)
(1.533 -5.90857e-05 -1.24843e-20)
(1.53371 -4.51927e-05 1.27161e-19)
(1.53435 -3.99595e-05 -3.8238e-20)
(1.53496 -4.63502e-05 1.87077e-20)
(1.53553 -3.79425e-05 2.2483e-19)
(1.53594 -4.50928e-05 -2.5445e-19)
(1.53633 -4.5424e-05 1.00167e-19)
(1.53671 -7.93109e-05 3.70081e-19)
(1.53707 -7.0345e-05 -7.99931e-20)
(1.53713 -5.64285e-05 -6.04884e-19)
(1.53782 -8.92552e-05 2.33556e-18)
(1.53824 -0.000124881 -3.76812e-18)
(1.54162 0.000888461 -3.40693e-16)
(1.53934 0.0102851 -3.54273e-15)
(1.55528 0.099247 -1.12122e-13)
(1.49459 0.323151 -2.50688e-13)
(0.886065 0.142313 -1.67777e-13)
(0.816459 -0.0339584 7.54472e-13)
(0.829412 -0.119119 -1.88057e-12)
(0.833403 -0.143638 -9.24464e-13)
(0.84747 -0.146521 1.24393e-12)
(0.854964 -0.139523 3.59478e-12)
(0.860061 -0.119236 -7.61923e-12)
(0.854843 -0.0976432 -3.2651e-12)
(0.878412 -0.0776417 1.45322e-11)
(0.876796 -0.0613696 -4.54011e-12)
(0.899327 -0.0469618 -8.78075e-12)
(0.90019 -0.0357853 1.089e-11)
(0.915261 -0.0266111 1.46653e-12)
(0.915655 -0.0200385 -2.86852e-11)
(0.926275 -0.0154282 1.01359e-11)
(0.927621 -0.0109597 5.00736e-11)
(0.933811 -0.00728785 -3.31706e-11)
(0.935308 -0.00520514 -4.41289e-11)
(0.938014 -0.00421792 6.97023e-12)
(0.938739 -0.00278345 2.82826e-11)
(0.939929 -0.000607472 1.65748e-11)
(0.936242 0.0042857 -2.71736e-12)
(0.935446 0.0149655 -1.23249e-11)
(0.918597 0.0353167 -9.00123e-12)
(0.913253 0.0618365 -5.28135e-13)
(0.869595 0.105282 -8.33613e-12)
(0.852054 0.155749 2.97528e-11)
(0.828095 0.196393 2.27195e-11)
(0.829194 0.226926 -2.32948e-11)
(0.811756 0.238264 -2.1573e-11)
(0.790883 0.237437 -3.68885e-13)
(0.772841 0.223602 1.00932e-11)
(0.739698 0.194232 4.24356e-12)
(0.679718 0.157434 -4.33424e-12)
(0.618286 0.107047 -4.29605e-12)
(0.551826 0.0735255 -1.74912e-12)
(0.495603 0.0580728 -4.44924e-13)
(0.448394 0.0557973 -4.02522e-13)
(0.407647 0.0558173 -1.02542e-12)
(0.371173 0.0551206 -1.85862e-12)
(0.33683 0.0547434 -2.4327e-12)
(0.304925 0.054328 -1.91421e-12)
(0.275943 0.0559803 -7.10279e-13)
(0.249846 0.0545127 5.14092e-14)
(0.228475 0.0499068 2.50282e-13)
(0.210599 0.0451591 1.9504e-13)
(0.194585 0.0435555 5.56359e-14)
(0.180139 0.0417669 -6.55481e-14)
(0.166561 0.041965 -1.03189e-13)
(0.153974 0.0391505 -7.84406e-14)
(0.141892 0.0387594 -3.329e-14)
(0.131134 0.0342615 -5.04866e-15)
(0.121732 0.0309828 3.68575e-15)
(0.113631 0.0287245 2.92348e-15)
(0.106455 0.031648 7.40473e-16)
(0.0988299 0.0298057 -9.00422e-17)
(0.0914308 0.0316683 -2.10921e-16)
(0.0832412 0.0316308 -1.74961e-16)
(0.0755245 0.0356754 -6.37514e-17)
(0.0659016 0.0364372 -2.75047e-17)
(0.0566463 0.041649 -2.20578e-17)
(0.0448789 0.0421168 -3.15908e-17)
(0.0347629 0.0492055 -1.97384e-17)
(0.0220556 0.0483477 -5.4376e-18)
(0.0117485 0.0574346 -9.01214e-19)
(1.50004 7.05081e-08 5.21617e-21)
(1.50004 -3.23677e-08 5.69573e-22)
(1.50005 -3.63736e-08 8.46478e-21)
(1.50007 -1.81803e-08 4.50102e-21)
(1.50009 9.82998e-09 -7.82966e-22)
(1.50013 3.02548e-08 -1.94973e-20)
(1.50019 5.31733e-08 -2.54237e-20)
(1.50026 7.73159e-08 -8.63639e-21)
(1.50036 1.06327e-07 -2.68848e-20)
(1.5005 1.46407e-07 -3.85098e-20)
(1.50067 1.88776e-07 -1.58857e-20)
(1.50089 2.61488e-07 -3.13969e-20)
(1.50118 3.20026e-07 -6.03301e-20)
(1.50153 4.38292e-07 -3.13478e-20)
(1.50196 5.64791e-07 -5.48934e-20)
(1.50249 6.11189e-07 -2.10425e-20)
(1.50311 9.87516e-07 -7.16875e-20)
(1.50385 9.61523e-07 -3.99969e-20)
(1.5047 1.29956e-06 -5.00869e-20)
(1.50567 1.80202e-06 -5.87475e-20)
(1.50677 1.29888e-06 -5.32999e-20)
(1.50798 2.16329e-06 -6.23324e-20)
(1.50931 2.46567e-06 -4.65701e-20)
(1.51074 1.76238e-06 -5.30719e-20)
(1.51227 4.44932e-06 -4.1837e-20)
(1.51389 -2.64276e-06 -4.24188e-20)
(1.51558 -1.16651e-06 -3.75919e-20)
(1.51724 -7.85364e-06 -4.04438e-20)
(1.519 5.65973e-06 -4.54324e-20)
(1.52078 8.56858e-06 -3.9629e-20)
(1.52254 -4.24543e-06 -4.93007e-20)
(1.52428 -1.90109e-05 -4.05828e-20)
(1.52592 -2.41519e-05 -4.7263e-20)
(1.52741 -8.21876e-06 -4.30735e-20)
(1.52895 -4.31356e-06 -4.84402e-20)
(1.53023 1.60528e-06 -3.80908e-20)
(1.5314 -3.64603e-05 -5.00601e-20)
(1.53249 -5.21232e-05 -3.95986e-20)
(1.53344 -4.96799e-05 -5.41179e-20)
(1.53424 -4.02661e-05 -5.9469e-20)
(1.53497 -5.50993e-05 -1.06631e-20)
(1.53563 -9.46849e-05 -1.24735e-19)
(1.53638 -0.000121394 3.29402e-20)
(1.53679 -0.000132554 -8.17735e-20)
(1.53715 -0.000179247 -1.12569e-19)
(1.53738 -0.000215503 6.34988e-20)
(1.53777 -0.000275527 4.21668e-19)
(1.53857 -0.000403352 -4.40598e-18)
(1.54013 -0.000373134 1.80165e-17)
(1.5416 -0.000554885 -2.82965e-17)
(1.54723 -0.00109738 4.86119e-17)
(1.54673 0.00134689 -3.77118e-16)
(1.55962 0.0145902 2.9249e-15)
(1.42678 0.0314934 -3.21798e-16)
(0.801178 -0.0308972 -1.72379e-13)
(0.756274 -0.075292 3.10844e-13)
(0.789519 -0.121756 6.3198e-14)
(0.810235 -0.145369 -2.9581e-13)
(0.821221 -0.152156 3.14627e-14)
(0.831957 -0.144817 -9.91232e-13)
(0.838029 -0.123353 -1.50012e-12)
(0.836286 -0.100981 1.14314e-11)
(0.856288 -0.0805733 4.20833e-12)
(0.857285 -0.0641039 -4.15009e-11)
(0.877962 -0.0497325 1.77445e-11)
(0.879527 -0.0377081 5.90352e-11)
(0.893193 -0.0283211 -4.90948e-11)
(0.893561 -0.0214771 -5.2851e-11)
(0.902503 -0.016775 4.89594e-11)
(0.903284 -0.0119404 5.19185e-11)
(0.90915 -0.00837624 -5.12178e-11)
(0.910021 -0.00610007 -4.27555e-11)
(0.912404 -0.00475371 2.56935e-11)
(0.912693 -0.0031098 2.91829e-11)
(0.913207 -0.000914959 7.65154e-12)
(0.912623 0.00468484 -8.7248e-12)
(0.909665 0.0163288 -1.27437e-11)
(0.912375 0.0362791 -2.57074e-12)
(0.883899 0.066715 -4.17579e-13)
(0.864422 0.117927 9.49054e-13)
(0.845855 0.169493 3.12351e-11)
(0.847126 0.209961 -4.73534e-12)
(0.838332 0.24139 -3.42984e-11)
(0.834551 0.257774 -3.01871e-12)
(0.820594 0.258432 1.1367e-11)
(0.807395 0.251014 1.07816e-11)
(0.779865 0.231781 1.30403e-12)
(0.734554 0.204607 -5.29693e-12)
(0.680528 0.165705 -1.98703e-12)
(0.615737 0.132924 6.96942e-13)
(0.556237 0.112833 1.02443e-13)
(0.506836 0.104314 2.03769e-14)
(0.464489 0.0976486 -5.90328e-13)
(0.42649 0.0918966 -1.3415e-12)
(0.392438 0.0863964 -1.75677e-12)
(0.360452 0.0802058 -1.63526e-12)
(0.330257 0.0763262 -7.93326e-13)
(0.30237 0.0701954 7.24529e-14)
(0.276898 0.0630819 3.97061e-13)
(0.253975 0.0570328 3.12565e-13)
(0.232779 0.0548991 1.32827e-13)
(0.213547 0.0521991 -1.14806e-14)
(0.195843 0.0515655 -8.94006e-14)
(0.17993 0.0483174 -9.75859e-14)
(0.164589 0.0480322 -5.65486e-14)
(0.150226 0.0437556 -1.47715e-14)
(0.137793 0.0395265 5.18279e-15)
(0.127544 0.0359954 6.90242e-15)
(0.118369 0.0389258 2.62887e-15)
(0.109227 0.0375084 2.9779e-16)
(0.100683 0.0403261 -4.08044e-16)
(0.0914223 0.0402143 -4.2184e-16)
(0.0828993 0.0449508 -2.39947e-16)
(0.0724356 0.0462931 -1.38679e-16)
(0.0628288 0.0528172 -5.75195e-17)
(0.0500716 0.0540827 -3.58469e-17)
(0.0393014 0.0625061 -1.97798e-17)
(0.02521 0.0624054 -6.1082e-18)
(0.0146468 0.0735393 4.99904e-19)
(1.50004 7.79813e-08 8.75322e-21)
(1.50004 -2.9943e-08 1.54322e-20)
(1.50005 -4.05665e-08 2.2713e-20)
(1.50007 -2.45068e-08 1.68016e-20)
(1.50009 3.29391e-09 3.41221e-20)
(1.50013 2.50287e-08 5.95771e-20)
(1.50019 4.93338e-08 3.18926e-20)
(1.50026 7.52619e-08 6.06648e-20)
(1.50036 1.05697e-07 4.51334e-20)
(1.5005 1.4722e-07 4.35073e-20)
(1.50067 1.92767e-07 4.15687e-20)
(1.50089 2.69203e-07 3.53862e-20)
(1.50118 3.27089e-07 6.1844e-20)
(1.50153 4.80904e-07 2.80142e-20)
(1.50196 5.25626e-07 7.39776e-21)
(1.50249 7.90423e-07 -6.49978e-21)
(1.50312 9.33585e-07 1.26299e-20)
(1.50385 9.69068e-07 6.78102e-21)
(1.50471 1.73875e-06 -8.31747e-21)
(1.50568 1.44252e-06 7.06604e-21)
(1.50678 2.10242e-06 2.09612e-21)
(1.508 2.51897e-06 5.01606e-21)
(1.50934 2.63052e-06 -4.13554e-21)
(1.51078 2.47478e-06 1.82138e-21)
(1.51233 5.42666e-06 -1.77764e-20)
(1.51392 -2.14632e-06 -2.94246e-20)
(1.51561 -4.63718e-06 -3.55167e-20)
(1.51737 1.68722e-06 -3.43035e-20)
(1.51913 1.17334e-05 -3.08332e-20)
(1.52096 1.69165e-05 -3.30056e-20)
(1.52271 -9.84395e-06 -2.96738e-20)
(1.52425 -1.63027e-06 -2.5746e-20)
(1.52589 2.40146e-06 -1.80092e-20)
(1.52761 -1.88742e-05 -1.83467e-20)
(1.52913 -2.05414e-05 -1.6794e-20)
(1.53053 -6.38073e-06 -3.00541e-21)
(1.53172 -2.8778e-05 -3.66581e-21)
(1.53273 -4.21338e-05 -1.6209e-20)
(1.53361 -5.02745e-05 1.418e-20)
(1.53447 -4.70675e-05 2.32696e-20)
(1.53537 -7.35285e-05 1.74825e-21)
(1.53608 -0.000133227 7.71703e-20)
(1.53675 -0.000162732 -2.74033e-20)
(1.53716 -0.000197817 1.3642e-19)
(1.53745 -0.000227685 4.53901e-20)
(1.53778 -0.000248259 -1.83608e-20)
(1.53813 -0.000323827 -5.7765e-21)
(1.53832 -0.000547931 4.01499e-19)
(1.53853 -0.00101465 -1.12466e-18)
(1.53813 -0.00181719 2.85335e-18)
(1.53723 -0.00341657 -9.68966e-18)
(1.535 -0.00653489 6.47165e-17)
(1.53572 -0.0309405 9.53164e-16)
(1.25992 -0.129498 2.70216e-14)
(0.599884 -0.0924984 -1.85504e-14)
(0.624834 -0.0954199 1.93143e-13)
(0.697987 -0.120462 -4.25266e-13)
(0.74648 -0.146656 -6.73042e-14)
(0.782956 -0.153033 -4.9326e-13)
(0.804838 -0.145242 9.31445e-13)
(0.818563 -0.128039 5.01225e-13)
(0.835296 -0.108159 -2.41742e-12)
(0.838841 -0.0864676 5.02316e-12)
(0.863497 -0.0692384 -2.85638e-12)
(0.867107 -0.0533815 -1.23023e-11)
(0.885663 -0.0402257 2.81074e-11)
(0.888116 -0.0303777 -1.23202e-11)
(0.897943 -0.0220962 -2.7679e-11)
(0.90188 -0.0164825 3.43498e-11)
(0.90629 -0.0124923 1.92318e-11)
(0.909158 -0.00883736 -3.10645e-11)
(0.910432 -0.00659537 -1.83333e-11)
(0.910226 -0.00508985 1.22567e-11)
(0.91004 -0.0036072 1.33017e-11)
(0.90977 -0.00165052 3.45359e-12)
(0.90694 0.00403292 -4.78831e-12)
(0.905308 0.0162402 -6.17797e-12)
(0.906332 0.0400671 -1.30112e-12)
(0.870028 0.0828779 -1.06868e-12)
(0.854921 0.138759 5.1033e-12)
(0.82689 0.188968 1.60708e-11)
(0.841483 0.221964 -1.64695e-11)
(0.826925 0.25129 -1.89933e-11)
(0.82855 0.26866 3.88598e-12)
(0.810627 0.275318 1.54241e-11)
(0.790882 0.274811 7.13157e-12)
(0.75415 0.265791 -3.92942e-12)
(0.704849 0.253402 -6.96542e-12)
(0.648236 0.227536 6.35575e-13)
(0.590567 0.198536 2.66568e-12)
(0.538205 0.173273 -4.49435e-13)
(0.492249 0.156385 -4.09707e-14)
(0.453804 0.143527 -3.01666e-13)
(0.42037 0.133329 -1.31477e-12)
(0.390096 0.125161 -1.35835e-12)
(0.361978 0.116459 -1.02869e-12)
(0.335825 0.11033 -5.40497e-13)
(0.311879 0.101563 4.50422e-14)
(0.288666 0.0910163 3.76866e-13)
(0.266197 0.0844187 3.29371e-13)
(0.245823 0.0801306 1.41722e-13)
(0.227921 0.0741831 -2.55759e-15)
(0.210576 0.0710931 -7.91334e-14)
(0.194663 0.0664598 -9.79263e-14)
(0.178505 0.0655919 -6.31112e-14)
(0.163604 0.0595207 -1.93474e-14)
(0.150438 0.0527517 5.84207e-15)
(0.13936 0.0469876 9.08372e-15)
(0.128488 0.049781 4.0947e-15)
(0.117567 0.048692 8.88164e-16)
(0.107326 0.0518895 -2.85052e-16)
(0.0965775 0.0513448 -4.42619e-16)
(0.0866237 0.0563475 -3.36993e-16)
(0.0749942 0.0578625 -2.25758e-16)
(0.0645571 0.0655677 -1.0508e-16)
(0.0508008 0.067606 -4.63754e-17)
(0.0399493 0.0772107 -1.79355e-17)
(0.0256009 0.0775675 -8.31181e-18)
(0.0166496 0.0898813 -6.19691e-18)
(1.50004 9.01684e-08 -9.96397e-21)
(1.50004 -3.10461e-08 -4.48048e-20)
(1.50005 -4.48438e-08 -5.23094e-20)
(1.50007 -2.66627e-08 -9.36986e-20)
(1.5001 7.22125e-09 -1.18444e-19)
(1.50013 3.40761e-08 -1.4834e-19)
(1.50019 6.37116e-08 -1.31255e-19)
(1.50026 9.50914e-08 -1.77972e-19)
(1.50037 1.33704e-07 -1.85657e-19)
(1.5005 1.83736e-07 -2.06793e-19)
(1.50067 2.45614e-07 -2.14725e-19)
(1.5009 3.30216e-07 -2.34617e-19)
(1.50118 4.30493e-07 -2.35876e-19)
(1.50153 5.8018e-07 -2.22696e-19)
(1.50197 7.04154e-07 -1.91965e-19)
(1.5025 9.79352e-07 -2.3659e-19)
(1.50313 1.17511e-06 -2.07825e-19)
(1.50387 1.39101e-06 -2.50531e-19)
(1.50473 1.83484e-06 -2.68055e-19)
(1.50571 2.14473e-06 -2.57662e-19)
(1.50681 1.92361e-06 -2.70315e-19)