/*--------------------------------*- C++ -*----------------------------------*\
| =========                 |                                                 |
| \\      /  F ield         | OpenFOAM: The Open Source CFD Toolbox           |
|  \\    /   O peration     | Version:  2.2.x                                 |
|   \\  /    A nd           | Web:      www.OpenFOAM.org                      |
|    \\/     M anipulation  |                                                 |
\*---------------------------------------------------------------------------*/
FoamFile
{
    version     2.0;
    format      ascii;
    class       surfaceScalarField;
    location    "2.35";
    object      phi;
}
// * * * * * * * * * * * * * * * * * * * * * * * * * * * * * * * * * * * * * //

dimensions      [1 0 -1 0 0 0 0];

internalField   nonuniform List<scalar> 
28084
(
0.000739099
0.000744903
0.000752658
0.000757634
0.000752749
0.000732351
0.000714624
0.000719042
0.000736322
0.000740332
0.000742708
0.000740009
0.000733292
0.00072177
0.00071709
0.000707703
0.000713659
0.000728314
0.000739066
0.000749758
0.000770508
0.00077548
0.000763851
0.000748876
0.00073796
0.000734558
0.000724807
0.000723277
0.000734646
0.000759129
0.000966633
0.00116794
0.00119472
0.00118471
0.00119085
0.00120413
0.00121499
0.00122024
0.00121674
0.00121013
0.00120517
0.00119851
0.00119668
0.00119934
0.00120226
0.00121782
0.00123416
0.00125946
0.00128157
0.00129859
0.00131486
0.0013296
0.00134225
0.00134935
0.00134941
0.00133968
0.00132011
0.00129192
0.00126156
0.00123308
0.0012123
0.001197
0.00118531
0.00118117
0.00118912
0.00120603
0.00122936
0.00125977
0.00129543
0.00133436
0.00136864
0.00139179
0.00140463
0.00141061
0.00141112
0.00140017
0.00137382
0.00135068
0.00134041
0.00133224
0.00132459
0.00131475
0.00130057
0.00128848
0.00127922
0.0012653
0.00124997
0.00123459
0.00121766
0.0012005
0.00118096
0.00115502
0.00112681
0.00110086
0.00107542
0.00105399
0.00103604
0.0010222
0.0010099
0.000998261
0.000984692
0.000968208
0.000948209
0.000924577
0.000902383
0.000887138
0.000876793
0.00086986
0.000859093
0.000841189
0.00080631
0.000753597
0.000679606
0.000590323
0.000482895
0.000363504
0.000245199
0.00019463
-1.28505e-06
-1.81167e-05
0.000793863
-6.87138e-06
0.000772097
5.0444e-06
0.000729162
1.14588e-05
0.000678122
2.70693e-05
0.000644936
2.61763e-05
0.000657329
-1.28716e-05
0.000710311
-2.19591e-05
0.000773924
-1.20934e-05
0.000817791
-1.15856e-05
0.000825382
-8.21826e-06
0.000795951
2.53495e-06
0.000731889
1.02632e-05
0.000683581
6.12451e-06
0.000672722
1.61969e-05
0.000687058
-5.2965e-06
0.000736572
-1.79567e-05
0.000795982
-1.42783e-05
0.000837515
-5.4557e-06
0.000846342
-1.42057e-05
0.000833607
-3.54123e-06
0.000794586
8.03119e-06
0.000749681
9.68075e-06
0.000723453
1.03922e-05
0.000717959
5.73166e-07
0.000732255
1.60995e-07
0.000754407
-9.09667e-06
0.000774312
-1.48536e-05
0.000785639
-2.21254e-05
0.000794734
-0.000198485
0.000803998
-0.000186391
0.00091
-3.66924e-06
0.000848693
4.34118e-06
0.000804789
-1.07316e-05
0.000762008
-1.44759e-05
0.00073484
-1.07124e-05
0.00070918
-9.18166e-06
0.000679546
-8.77597e-06
0.000649677
-6.23427e-06
0.000634624
-2.79062e-06
0.000624628
1.28234e-06
0.000616264
2.15894e-06
0.000609211
3.74936e-06
0.000599091
6.78593e-06
0.00058903
-8.33532e-06
0.000582824
-1.06463e-05
0.000580218
-1.05196e-05
0.000580869
-9.86269e-06
0.000586505
-8.27455e-06
0.000593343
-8.32143e-06
0.00060018
-8.13161e-06
0.000605841
-8.70232e-06
0.000610125
-7.73893e-06
0.000612398
-4.88548e-06
0.000615866
-1.2165e-06
0.000620743
1.68003e-06
0.000628215
5.40958e-06
0.000641256
8.4701e-06
0.000660441
1.03057e-05
0.00068494
1.02975e-05
0.000711033
9.81095e-06
0.000737182
9.28716e-06
0.000763647
6.51675e-06
0.000788935
4.0069e-06
0.000813387
1.17413e-06
0.000836782
-1.66957e-06
0.000859437
-4.74733e-06
0.000880303
-5.96627e-06
0.000900023
-8.4039e-06
0.000917419
-7.56241e-06
0.000931697
-7.22908e-06
0.000944595
-7.51464e-06
0.000951788
-6.82532e-06
0.000952912
-8.4381e-06
0.000951629
-1.04961e-05
0.000947399
-1.258e-05
0.000940213
-1.44977e-05
0.000930194
-1.52233e-05
0.00091308
-1.29735e-05
0.000887749
-7.97446e-06
0.000855477
-6.95635e-07
0.000818411
1.06833e-05
0.000783648
2.32155e-05
0.00075567
2.71342e-05
0.000737869
2.97513e-05
0.000727749
2.81153e-05
0.000718756
2.41853e-05
0.000709255
2.1288e-05
0.000698123
1.67501e-05
0.000685315
1.31622e-05
0.000671909
1.20474e-05
0.00065619
1.27072e-05
0.000639326
1.5723e-05
0.000623243
1.79006e-05
0.000606645
2.04408e-05
0.000589301
2.3034e-05
0.000570213
2.57369e-05
0.000550226
2.82517e-05
0.000537216
2.57138e-05
0.000531764
2.29286e-05
0.000529379
2.22626e-05
0.000528116
2.24545e-05
0.000528961
2.12296e-05
0.000530447
1.89122e-05
0.000529026
1.38166e-05
0.00052298
9.0687e-06
0.000512532
5.62547e-06
0.000495706
9.11639e-06
0.000473331
1.45076e-05
0.00044551
2.56996e-05
0.000413476
3.79817e-05
0.000377262
5.79546e-05
0.000339983
7.94401e-05
0.000301148
0.00010707
0.000266046
0.000121518
0.000224833
0.000121265
0.000174491
5.60241e-05
0.000129061
0.000208081
9.64472e-05
-5.96062e-05
-5.03148e-06
0.000676908
6.72469e-05
0.000713176
9.08064e-05
0.000794573
3.9087e-05
0.000889083
-6.37557e-06
0.000953981
-4.35862e-05
0.000935813
-8.18917e-05
0.000865984
-6.62416e-05
0.000754704
-2.4353e-05
0.000695674
1.96604e-05
0.000684285
6.43576e-05
0.000731299
6.76686e-05
0.000833796
2.96616e-05
0.000921478
-1.16419e-05
0.000954048
-3.92062e-05
0.000932123
-7.34358e-05
0.000857732
-5.75998e-05
0.000770569
-2.69112e-05
0.000733612
4.00917e-06
0.000741045
3.09683e-05
0.000777833
5.2271e-05
0.000863866
3.67224e-05
0.000953262
1.29197e-05
0.000994702
-6.41516e-06
0.000989317
-2.70759e-05
0.000963037
-2.68464e-05
0.000927993
-2.37149e-05
0.00090399
-2.12223e-05
0.000902551
-2.74237e-05
0.000904655
-0.000296889
0.000894389
-0.000119881
0.000731705
5.53843e-05
0.000610684
4.77097e-05
0.000534928
1.70455e-05
0.000493856
5.46833e-06
0.000480713
5.37328e-06
0.000480327
1.96224e-06
0.000486277
-1.22929e-07
0.000489466
4.70937e-07
0.000488212
3.32596e-06
0.000486074
5.1874e-06
0.000483828
6.67775e-06
0.000483513
8.14662e-06
0.000483908
8.15414e-06
0.000484566
-1.17348e-05
0.000487184
-1.57478e-05
0.000491937
-1.67642e-05
0.000497105
-1.62013e-05
0.000504635
-1.50971e-05
0.000513585
-1.40214e-05
0.000524188
-1.29425e-05
0.00053508
-1.17762e-05
0.000545292
-1.12093e-05
0.000555303
-7.55953e-06
0.000565939
-4.31007e-06
0.000579778
-6.26846e-06
0.000597575
-5.81296e-06
0.000614811
-5.79805e-06
0.000634519
-4.76465e-06
0.000654946
-5.01135e-06
0.000675197
-6.81371e-06
0.000696097
-8.76084e-06
0.000716406
-1.21581e-05
0.000734643
-1.49102e-05
0.0007505
-1.89648e-05
0.000764566
-2.18231e-05
0.000776596
-2.39361e-05
0.000786163
-2.39382e-05
0.000793222
-2.21299e-05
0.000797673
-1.90386e-05
0.000800109
-1.55848e-05
0.000796775
-1.2744e-05
0.000788263
-1.01999e-05
0.000775552
-8.62114e-06
0.000759753
-7.17281e-06
0.00074045
-6.05498e-06
0.000716863
-1.10396e-06
0.000690589
2.901e-06
0.000661922
9.71311e-06
0.000629747
1.93055e-05
0.000595987
2.52506e-05
0.000561472
3.3063e-05
0.000529953
4.05124e-05
0.000501854
3.98933e-05
0.000475516
4.34369e-05
0.000449448
4.25284e-05
0.000425762
3.80241e-05
0.000403315
3.51005e-05
0.000382476
2.86341e-05
0.000361197
2.47561e-05
0.00033992
2.45538e-05
0.000316594
2.53997e-05
0.000292123
3.08299e-05
0.000268924
3.46034e-05
0.000246986
3.81415e-05
0.000229982
4.13088e-05
0.000218676
4.01574e-05
0.000211318
3.84853e-05
0.000210263
3.4781e-05
0.000213732
3.26693e-05
0.000222234
3.22288e-05
0.000233124
3.2606e-05
0.000245928
3.27565e-05
0.000256977
3.15502e-05
0.000262228
2.63259e-05
0.000263424
2.28364e-05
0.000260368
2.00762e-05
0.000248189
2.5277e-05
0.000227936
3.18739e-05
0.00019936
4.79258e-05
0.00016479
6.38407e-05
0.000128093
8.8581e-05
9.59968e-05
0.000111264
6.74845e-05
0.000147314
5.06767e-05
0.000172918
3.93625e-05
0.000169713
3.12168e-05
9.43123e-05
2.00177e-05
0.000317425
1.08595e-05
3.536e-05
-3.9463e-05
0.000893904
-6.72091e-05
0.000828392
-7.01984e-05
0.000696194
-1.82331e-05
0.000582442
6.11794e-05
0.000533591
9.21819e-05
0.00055731
9.22098e-05
0.000687871
1.21599e-05
0.000864262
-3.08187e-05
0.000948491
-5.35383e-05
0.000937134
-7.57223e-05
0.000872709
-7.66971e-05
0.000742629
-2.5775e-05
0.000640408
5.96482e-06
0.000615447
4.74023e-05
0.000643818
6.56386e-05
0.000739082
3.06673e-05
0.000874804
-1.65954e-05
0.000972683
-3.52596e-05
0.000982975
-6.39217e-05
0.000952362
-7.31807e-05
0.000876277
-4.30935e-05
0.000779818
-1.14648e-05
0.000723273
9.53442e-06
0.000707953
2.21787e-05
0.000733217
2.01941e-05
0.000787366
2.30869e-06
0.000841776
-1.02657e-05
0.00086753
-1.49149e-05
0.000883626
-0.000133966
0.000872858
1.73377e-06
0.000640272
0.000132131
0.000534075
9.22082e-05
0.000468748
2.95869e-05
0.000418247
-1.5425e-06
0.000392185
-5.08993e-06
0.000384801
-8.01672e-06
0.000384237
-7.97176e-06
0.000385503
-8.29033e-06
0.000386991
-5.82197e-06
0.000388473
-4.39065e-06
0.000392055
-2.73481e-06
0.000398545
-3.47575e-07
0.000407265
8.82682e-08
0.000417375
-2.15932e-05
0.000428806
-2.50475e-05
0.000445592
-2.67804e-05
0.00046437
-2.58793e-05
0.000484214
-2.51202e-05
0.000504075
-2.25406e-05
0.00052378
-2.06096e-05
0.000542992
-1.92589e-05
0.000561824
-1.88273e-05
0.000580411
-1.79033e-05
0.000598311
-1.80085e-05
0.000619696
-1.79753e-05
0.000644048
-2.00609e-05
0.000668777
-2.06974e-05
0.000693261
-1.87921e-05
0.000717389
-1.80926e-05
0.000740563
-1.94199e-05
0.00076363
-2.04552e-05
0.000786698
-2.25771e-05
0.000808387
-2.40835e-05
0.000827184
-2.66522e-05
0.000842287
-2.81305e-05
0.000851701
-2.8089e-05
0.000854838
-2.63752e-05
0.000853332
-2.30433e-05
0.000846401
-1.40493e-05
0.000833694
-7.48401e-06
0.000819223
-2.1358e-06
0.000804901
2.91496e-06
0.000789898
7.15458e-06
0.000774809
1.12372e-05
0.0007588
1.07673e-05
0.00074236
1.87473e-05
0.000721589
2.53074e-05
0.000697877
3.3612e-05
0.000669301
4.40675e-05
0.000636704
4.86773e-05
0.000599917
5.57592e-05
0.000559141
6.67093e-05
0.000518578
6.93761e-05
0.000479222
7.32517e-05
0.00044557
7.12518e-05
0.000414857
6.42692e-05
0.000387434
6.06289e-05
0.000363295
5.20165e-05
0.000336466
4.74294e-05
0.000310015
4.65215e-05
0.000281697
4.53551e-05
0.000253526
4.878e-05
0.000226435
4.77751e-05
0.00020008
4.62349e-05
0.000178161
4.67504e-05
0.000160649
4.28903e-05
0.000149624
3.8828e-05
0.000147349
3.2639e-05
0.000149846
3.07074e-05
0.000156666
3.04577e-05
0.000166068
3.31953e-05
0.000176826
3.56316e-05
0.000183371
3.53382e-05
0.00018456
3.14074e-05
0.000181933
3.30133e-05
0.000173771
3.37149e-05
0.000156174
4.30069e-05
0.000132323
5.21664e-05
0.000103007
7.15385e-05
7.00393e-05
8.60718e-05
3.76893e-05
0.000110577
1.33171e-05
0.000125142
-5.79673e-06
0.000156824
-1.46155e-05
0.000182812
-1.82444e-05
0.00018449
-1.58326e-05
0.000109698
-1.20871e-05
0.00034076
-1.10239e-05
-0.000124068
-7.57825e-06
0.000610377
9.64462e-05
0.000679326
0.000124127
0.000817298
4.61392e-05
0.000951318
1.26403e-05
0.00103857
-7.09477e-05
0.00106952
-0.000125831
0.000975668
-0.000100859
0.000805859
-4.90375e-05
0.000702068
-5.80206e-07
0.000674024
7.49759e-05
0.000727712
8.34735e-05
0.000877872
3.83338e-05
0.00102069
-1.47486e-05
0.00107991
-6.55516e-05
0.00107046
-0.000111001
0.000997577
-9.26147e-05
0.000865433
-5.37445e-05
0.000777214
-2.26735e-05
0.000768144
2.30625e-05
0.00080581
5.99887e-05
0.000907927
4.53245e-05
0.00103429
1.44637e-05
0.00112003
-1.38099e-05
0.00115446
-3.62327e-05
0.00113539
-4.28521e-05
0.00108317
-3.19632e-05
0.00103718
-2.70237e-05
0.00101434
-2.51457e-06
0.0010093
0.000101391
0.00101406
0.000118241
0.000907061
0.00020255
0.000781349
0.000144892
0.000686586
5.37113e-05
0.000632767
3.78084e-06
0.000611868
-1.00737e-05
0.000603861
-1.6553e-05
0.000600276
-1.94013e-05
0.000597497
-2.19013e-05
0.000592268
-2.07235e-05
0.000585577
-2.04149e-05
0.000577415
-1.93191e-05
0.000571393
-1.63658e-05
0.000567683
-1.55396e-05
0.000564687
-4.13608e-05
0.000563576
-4.55706e-05
0.000567069
-4.73459e-05
0.000569627
-4.55648e-05
0.000573542
-4.37972e-05
0.000582327
-4.0075e-05
0.000595263
-3.74108e-05
0.000613806
-3.5376e-05
0.00063699
-3.39286e-05
0.000662679
-3.57365e-05
0.000690387
-3.869e-05
0.00071687
-3.8144e-05
0.000741398
-4.0041e-05
0.000764983
-4.01536e-05
0.000786695
-3.75708e-05
0.000807156
-3.59373e-05
0.000826524
-3.63853e-05
0.00084454
-3.55143e-05
0.000861956
-3.4576e-05
0.000879448
-3.30675e-05
0.000897414
-3.0825e-05
0.000914661
-2.76491e-05
0.000928968
-2.33825e-05
0.000939963
-1.65072e-05
0.000946241
-7.48248e-06
0.000948519
2.64408e-06
0.000948341
8.1407e-06
0.000945829
1.28843e-05
0.000940322
1.68604e-05
0.000929861
2.05327e-05
0.000914799
2.41716e-05
0.000895653
2.83724e-05
0.000870795
3.46601e-05
0.000842826
4.48093e-05
0.000810957
5.49731e-05
0.000773707
6.91747e-05
0.000732642
7.96968e-05
0.000687185
9.04715e-05
0.000637449
0.000103375
0.000588936
0.000103571
0.000542699
0.00010744
0.000500721
0.000104184
0.000461073
9.5005e-05
0.000422677
9.3016e-05
0.000388768
8.17096e-05
0.000354184
7.6891e-05
0.000321693
7.43825e-05
0.000290352
7.09343e-05
0.000259485
7.26368e-05
0.000229342
6.68943e-05
0.000200227
6.13753e-05
0.000175751
5.73832e-05
0.00015702
4.79833e-05
0.000145464
4.07322e-05
0.000142731
3.26554e-05
0.000143946
3.01311e-05
0.00014813
3.07818e-05
0.000154338
3.59184e-05
0.000161471
4.02307e-05
0.000164828
4.23232e-05
0.000162827
4.03762e-05
0.000153118
4.77185e-05
0.000139081
5.01125e-05
0.000115891
6.17468e-05
8.95205e-05
7.1272e-05
6.02739e-05
9.18131e-05
3.17188e-05
0.000100431
3.58511e-06
0.000123226
-1.50435e-05
0.000131574
-2.99177e-05
0.000159557
-3.52569e-05
0.000182843
-3.53742e-05
0.000185496
-2.89548e-05
0.000114454
-2.22483e-05
0.000340884
-1.81063e-05
6.64477e-05
-5.98383e-05
0.000987452
-0.000117181
0.000893862
-0.00012122
0.000715351
-4.54502e-05
0.000573073
4.99958e-05
0.000516023
0.000109725
0.000528321
0.000145133
0.00069793
4.74115e-05
0.000937807
-3.9745e-05
0.00105354
-8.99364e-05
0.00104075
-0.000130202
0.00096686
-0.000137823
0.000814781
-6.68345e-05
0.000674243
-1.42433e-05
0.000632354
3.53621e-05
0.000660866
8.90498e-05
0.000769636
7.09607e-05
0.000960147
-1.1148e-05
0.00111551
-5.84637e-05
0.00115529
-9.93342e-05
0.0011401
-0.000125147
0.00105618
-9.47042e-05
0.000923895
-4.91833e-05
0.000807494
-1.48313e-05
0.000777623
1.55073e-05
0.000799626
2.54977e-05
0.00085892
1.53001e-05
0.000935272
-5.37422e-06
0.000994899
8.50026e-06
0.0010355
0.000230928
0.00103091
0.000259377
0.000923398
0.000305989
0.000746829
0.000202113
0.000641803
7.43696e-05
0.000586179
1.05163e-05
0.00055858
-9.09443e-06
0.000550391
-1.8816e-05
0.000552341
-2.18165e-05
0.000554833
-2.46974e-05
0.000556883
-2.44751e-05
0.000557851
-2.48362e-05
0.000559034
-2.3898e-05
0.000562038
-2.05787e-05
0.000565716
-1.93896e-05
0.00056947
-4.95125e-05
0.000574327
-5.2355e-05
0.00058549
-5.37631e-05
0.000596955
-5.54952e-05
0.000609533
-5.58724e-05
0.000627423
-5.59449e-05
0.000650118
-5.6387e-05
0.000678131
-5.66234e-05
0.000711023
-5.71543e-05
0.000747224
-5.74116e-05
0.00078575
-5.79743e-05
0.000824696
-5.65384e-05
0.000862591
-5.62438e-05
0.000898503
-5.58169e-05
0.000932735
-5.30105e-05
0.000965233
-5.03857e-05
0.000994328
-5.00272e-05
0.00102008
-4.83131e-05
0.001043
-4.65571e-05
0.00106277
-4.3604e-05
0.00107944
-3.87489e-05
0.00109346
-3.23893e-05
0.001105
-2.51379e-05
0.00111328
-1.49049e-05
0.00111762
-3.61717e-06
0.00111972
8.68464e-06
0.0011213
1.69187e-05
0.00112276
2.52592e-05
0.00112193
3.19889e-05
0.00111382
3.86532e-05
0.00109976
4.65917e-05
0.00108182
5.22787e-05
0.0010578
6.07184e-05
0.00102875
7.44349e-05
0.000993609
8.65091e-05
0.000950123
0.000104353
0.000902589
0.000119663
0.000850178
0.000130616
0.00079266
0.000144202
0.000733891
0.000144238
0.000674849
0.000148882
0.000620788
0.000146131
0.000569219
0.000133764
0.000519376
0.000132153
0.00047443
0.000116946
0.000429851
0.000110606
0.000387467
0.000106475
0.000346272
0.000101096
0.000306334
0.0001004
0.000267534
8.96204e-05
0.000230683
7.89215e-05
0.000198243
6.96871e-05
0.000172346
5.37587e-05
0.000155043
4.46793e-05
0.000148094
3.54403e-05
0.000145696
3.23081e-05
0.000149255
3.33202e-05
0.000154103
3.99758e-05
0.000159588
4.73471e-05
0.000162058
5.47828e-05
0.00015696
5.40727e-05
0.000143683
6.69354e-05
0.000126344
6.83292e-05
0.000101625
8.02138e-05
7.49832e-05
8.64612e-05
4.59822e-05
0.000108099
2.04192e-05
0.000109905
-4.40531e-06
0.000132692
-2.09559e-05
0.000135354
-3.39066e-05
0.000159827
-3.86616e-05
0.000178809
-3.94586e-05
0.000183043
-3.13189e-05
0.000114913
-2.36602e-05
0.000333414
-2.06243e-05
-0.00018258
-2.19817e-05
0.000561029
9.28186e-05
0.000643295
0.00013759
0.000817695
5.07954e-05
0.000975851
1.50975e-05
0.00109694
-0.000101013
0.00117394
-0.00016249
0.00106854
-0.000122809
0.000862156
-7.34323e-05
0.000718074
-3.67463e-05
0.000675429
4.33803e-05
0.000729015
8.23371e-05
0.000888369
3.97458e-05
0.00107031
-1.99341e-05
0.00117393
-8.89896e-05
0.00121385
-0.000144565
0.00115085
-0.000141615
0.00100617
-9.05264e-05
0.000872356
-5.93413e-05
0.000831242
-1.07421e-05
0.000832588
3.51684e-05
0.000914562
5.65978e-05
0.00107383
1.10352e-05
0.00121858
-1.5898e-05
0.00126727
-4.18116e-05
0.0012581
-5.81411e-05
0.00121565
-5.37576e-05
0.00116957
-4.11242e-05
0.0011313
3.5738e-06
0.00111698
0.000339364
0.00112848
0.000449256
0.0010833
0.000417149
0.000868798
0.000261585
0.00073941
0.000104014
0.000667324
1.98094e-05
0.000639228
-1.00006e-05
0.000637908
-2.33751e-05
0.000647566
-2.83916e-05
0.00066039
-3.40611e-05
0.000670637
-3.53319e-05
0.00067983
-3.64995e-05
0.000689611
-3.54504e-05
0.000699468
-3.11994e-05
0.000709685
-2.9191e-05
0.000719822
-6.51817e-05
0.000727913
-6.80018e-05
0.000748655
-6.95531e-05
0.00077344
-7.53116e-05
0.000802905
-7.81825e-05
0.000833901
-8.18584e-05
0.000867708
-8.56462e-05
0.000905076
-8.82499e-05
0.000947055
-9.03416e-05
0.000992986
-9.01947e-05
0.00103992
-8.86574e-05
0.00108695
-8.50439e-05
0.00113298
-8.28911e-05
0.00117885
-8.10479e-05
0.00122341
-7.59529e-05
0.00126547
-7.111e-05
0.00130021
-6.76766e-05
0.00133046
-6.18842e-05
0.00135512
-5.63821e-05
0.00137599
-5.08984e-05
0.00139527
-4.40967e-05
0.00141066
-3.57697e-05
0.00142392
-2.59188e-05
0.00143322
-1.44132e-05
0.00143567
-3.18843e-06
0.00143149
9.22557e-06
0.00142359
1.95639e-05
0.00141094
3.35679e-05
0.00139507
4.43915e-05
0.00137492
5.54139e-05
0.00134965
6.89991e-05
0.00132314
7.92838e-05
0.0012938
9.26659e-05
0.001261
0.00011192
0.0012261
0.000126953
0.00118316
0.000149082
0.00113474
0.000168762
0.00108105
0.000180145
0.00101687
0.000196077
0.000949655
0.000193621
0.000877108
0.000199318
0.000804404
0.000197531
0.000730353
0.000182666
0.000656733
0.000181893
0.000590148
0.000163759
0.000527666
0.000155291
0.000472144
0.000148997
0.00041956
0.000141209
0.000368315
0.000137139
0.000318686
0.00012162
0.000272487
0.000104545
0.000230422
8.88573e-05
0.000195791
6.4657e-05
0.000172227
5.21307e-05
0.000161423
3.78907e-05
0.00015627
3.46118e-05
0.000158313
3.59736e-05
0.000161849
4.32377e-05
0.000166235
5.60933e-05
0.00016789
7.04555e-05
0.000162232
7.06049e-05
0.000147599
8.73853e-05
0.00012693
8.69063e-05
0.000103123
9.87128e-05
7.70086e-05
9.97725e-05
4.97256e-05
0.000121901
2.45664e-05
0.000118514
1.13799e-06
0.000140983
-1.6201e-05
0.000138108
-2.9484e-05
0.000160831
-3.59742e-05
0.000173189
-3.80898e-05
0.000179419
-3.15169e-05
0.0001161
-2.49096e-05
0.000322399
-2.33964e-05
8.73609e-05
-8.08622e-05
0.00107238
-0.000156496
0.000964978
-0.000164982
0.000767276
-8.17907e-05
0.000606157
1.21283e-05
0.000531464
8.66761e-05
0.000528508
0.000154441
0.000721127
7.88371e-05
0.00100204
-3.80826e-05
0.00114462
-0.000123563
0.00114446
-0.000169855
0.00107386
-0.00019115
0.000924231
-0.00011614
0.000757171
-5.82642e-05
0.000697843
-7.22014e-06
0.000722437
6.52422e-05
0.000827294
8.95752e-05
0.00105845
1.26762e-05
0.00129313
-7.13638e-05
0.00140394
-0.00012453
0.0013885
-0.000166524
0.00131018
-0.000145585
0.00115249
-9.57617e-05
0.00098952
-4.74141e-05
0.000914787
-2.03188e-05
0.000900541
6.17827e-06
0.000944882
5.34487e-06
0.00102937
-1.01044e-05
0.00111095
1.12499e-05
0.0011573
0.000391029
0.00119566
0.0006804
0.00127954
0.000551114
0.00115281
0.00033757
0.00102316
0.000136681
0.00092263
2.38064e-05
0.000883992
-1.83387e-05
0.000877845
-3.37915e-05
0.000883882
-4.02171e-05
0.000892378
-4.70269e-05
0.000902919
-4.97672e-05
0.00091473
-5.21386e-05
0.000930582
-5.15956e-05
0.000948977
-4.69965e-05
0.000969211
-4.22428e-05
0.000989609
-9.04195e-05
0.00100893
-9.65338e-05
0.00104642
-0.00010266
0.00108529
-0.000109549
0.00112354
-0.000114512
0.00115906
-0.000119983
0.00119414
-0.000126018
0.00122849
-0.000130584
0.00126211
-0.000132207
0.00129538
-0.000130883
0.00132834
-0.000127213
0.00136195
-0.00012288
0.00139621
-0.000119134
0.00143193
-0.000115302
0.00146705
-0.000104453
0.00149933
-9.51999e-05
0.00152913
-8.69171e-05
0.00155877
-7.79304e-05
0.00158383
-6.95397e-05
0.00160573
-5.9175e-05
0.00162536
-5.03547e-05
0.00164586
-3.86331e-05
0.00166305
-2.65078e-05
0.00167932
-1.22037e-05
0.00169271
2.01187e-06
0.00169591
1.89655e-05
0.00168958
3.28534e-05
0.00167955
5.07836e-05
0.00166288
6.53623e-05
0.00164339
7.76499e-05
0.00161314
9.64379e-05
0.00157726
0.000113022
0.00154007
0.000128082
0.00149818
0.000152926
0.00145582
0.000172889
0.00141144
0.000198539
0.00136618
0.000227144
0.00131966
0.000241335
0.00127125
0.000262533
0.00121665
0.000260552
0.00114531
0.000269632
0.00106422
0.000269688
0.00097413
0.00025057
0.000873931
0.000248425
0.000777569
0.000224819
0.000689702
0.000211641
0.000613402
0.000202282
0.000543366
0.000191391
0.000474455
0.000183164
0.000407978
0.000164453
0.000344312
0.000140439
0.000285168
0.000115575
0.00023466
8.03827e-05
0.000198606
6.30117e-05
0.000178642
4.22856e-05
0.000168271
3.81566e-05
0.000168681
3.82417e-05
0.000171168
4.62466e-05
0.000174389
6.45445e-05
0.000175938
8.57974e-05
0.000172363
8.89566e-05
0.000159384
0.000105831
0.000138757
0.000104779
0.000116882
0.00011667
9.19601e-05
0.000114311
6.58302e-05
0.000135115
4.05052e-05
0.000128601
1.55589e-05
0.000150278
-4.74277e-06
0.000142737
-2.08185e-05
0.000163217
-2.95892e-05
0.000169018
-3.38332e-05
0.000176601
-2.99599e-05
0.000118843
-2.48704e-05
0.000308425
-2.52783e-05
-0.000235241
-4.87463e-05
0.000532395
6.69612e-05
0.000615669
0.000140122
0.000807675
5.83972e-05
0.000996684
5.51526e-06
0.001119
-0.000139702
0.00125576
-0.000208956
0.00116616
-0.000161514
0.000935252
-0.000104634
0.000741621
-7.57113e-05
0.000680424
-6.09394e-06
0.000725053
7.28532e-05
0.000863396
3.54525e-05
0.00109627
-3.14394e-05
0.00126128
-0.000107436
0.00132023
-0.000189804
0.00132731
-0.000218804
0.00122075
-0.000151811
0.0010242
-9.45426e-05
0.000915428
-7.12085e-05
0.00089191
-1.16138e-05
0.00094224
6.96496e-05
0.00106282
3.37494e-05
0.00122785
-6.87375e-06
0.00131481
-4.5186e-05
0.00130816
-6.38781e-05
0.00128324
-7.35717e-05
0.00126594
-7.57385e-05
0.00123962
-3.27885e-05
0.00120925
0.000303676
0.00120223
0.000819481
0.00135417
0.000686763
0.00141158
0.000441111
0.00138127
0.000180722
0.00133492
3.21854e-05
0.00132016
-2.35566e-05
0.001311
-4.18418e-05
0.00131389
-5.16968e-05
0.00131877
-6.03489e-05
0.00132152
-6.70337e-05
0.00132362
-7.24437e-05
0.00132451
-7.44453e-05
0.00132817
-7.08161e-05
0.00133445
-6.50017e-05
0.00134567
-0.000131051
0.00136038
-0.000138561
0.00138962
-0.000145144
0.00141928
-0.00014894
0.0014491
-0.000151397
0.00147802
-0.000154697
0.00150603
-0.000158068
0.00153369
-0.000161184
0.00156051
-0.000161786
0.00158666
-0.000160196
0.00161224
-0.000156653
0.00163762
-0.000153672
0.0016632
-0.000148807
0.00168817
-0.000141303
0.00171041
-0.000128536
0.00173072
-0.000118311
0.00175018
-0.000105123
0.00176861
-9.31777e-05
0.00178636
-8.1041e-05
0.00180253
-6.75895e-05
0.00181673
-5.59641e-05
0.00183187
-4.35115e-05
0.00184813
-3.00538e-05
0.00186664
-1.45081e-05
0.00188065
4.00186e-06
0.00188733
2.27731e-05
0.00188756
4.46438e-05
0.00187736
6.40444e-05
0.00186409
8.61212e-05
0.00184018
0.000103045
0.001815
0.000125937
0.00178211
0.000149366
0.00174761
0.000164288
0.00170466
0.000192179
0.0016529
0.000214986
0.00159761
0.000242262
0.00153757
0.000271816
0.00147824
0.000292731
0.00142245
0.000329904
0.00137705
0.000337011
0.0013284
0.000355488
0.00126089
0.000366628
0.00118905
0.000345892
0.00110221
0.000337824
0.00100615
0.000304855
0.000897173
0.000286595
0.000785895
0.000274342
0.000681363
0.000260032
0.000586812
0.000248353
0.000499732
0.00022557
0.000416938
0.000192906
0.000341794
0.000155394
0.000275224
0.000105289
0.000225406
7.92802e-05
0.000195669
4.83445e-05
0.000179787
4.24783e-05
0.000178326
3.96251e-05
0.00018073
4.80492e-05
0.000182239
7.00069e-05
0.000184109
9.84617e-05
0.000183924
0.000107105
0.000175225
0.000122265
0.000157963
0.000122161
0.0001359
0.000134891
0.000108846
0.000130688
8.12633e-05
0.000150994
5.36548e-05
0.000142207
2.7088e-05
0.000162594
4.67257e-06
0.000149577
-1.31992e-05
0.000167779
-2.31163e-05
0.000167534
-2.9166e-05
0.000174622
-2.74613e-05
0.000123171
-2.44247e-05
0.000292179
-2.64603e-05
9.26952e-05
-0.000103955
0.00114709
-0.000193022
0.00103381
-0.000213806
0.000839008
-0.000117276
0.000654325
-3.92215e-05
0.000561444
3.35505e-05
0.00055745
0.000132085
0.000755544
9.77828e-05
0.00106247
-4.08318e-05
0.00124016
-0.000153317
0.0012739
-0.000194827
0.00120217
-0.00024339
0.00104767
-0.000181315
0.000850643
-0.000114881
0.000770696
-6.6742e-05
0.000781321
3.41046e-07
0.000878577
8.11039e-05
0.00113211
4.08553e-05
0.00144117
-6.06163e-05
0.00163847
-0.000154261
0.00167514
-0.000188863
0.00159361
-0.000184855
0.0014373
-0.000144859
0.0012723
-8.50906e-05
0.00113643
-6.16689e-05
0.00109909
-2.96295e-05
0.00112698
-3.27976e-05
0.0011856
-4.00198e-05
0.00121969
-1.01665e-05
0.00123484
0.000180689
0.00125888
0.000814977
0.00133582
0.000740327
0.00147036
0.000493688
0.00150069
0.000197378
0.00152387
4.15368e-05
0.00155525
-2.35257e-05
0.00157858
-4.68161e-05
0.00160079
-5.8002e-05
0.00161929
-6.90052e-05
0.00164132
-7.68962e-05
0.00165777
-8.62967e-05
0.00166612
-8.84716e-05
0.00167366
-8.75527e-05
0.0016842
-8.36243e-05
0.00169313
-0.000163553
0.00169934
-0.000171809
0.00171447
-0.000179125
0.00172774
-0.000181481
0.00173854
-0.000181988
0.00174938
-0.000183539
0.00176167
-0.000184849
0.00177523
-0.000185965
0.00179014
-0.000185246
0.00180664
-0.00018273
0.00182529
-0.000178765
0.00184509
-0.000174723
0.00186583
-0.000167563
0.00188474
-0.000158163
0.00190071
-0.000145177
0.00191415
-0.000134637
0.00192673
-0.00012043
0.00193645
-0.000107081
0.00194421
-9.1382e-05
0.00195238
-7.51216e-05
0.00195976
-5.96302e-05
0.00196857
-4.50385e-05
0.00197704
-2.87814e-05
0.0019855
-1.16206e-05
0.00199348
7.64764e-06
0.00200649
3.14409e-05
0.00200922
5.3699e-05
0.00200446
8.15308e-05
0.00198901
0.000104255
0.00197404
0.000132763
0.00194826
0.000154816
0.00192784
0.00018336
0.00189774
0.000206285
0.00186619
0.000235422
0.00181914
0.000263928
0.00177162
0.000292096
0.00171534
0.000319745
0.00165075
0.000337693
0.0015798
0.000378292
0.00151188
0.00040309
0.00144786
0.000423594
0.00137955
0.000450487
0.00131368
0.000440353
0.00123376
0.000447895
0.00113999
0.000419168
0.00103224
0.000394906
0.000916052
0.000373046
0.000786396
0.000351515
0.000673704
0.000333951
0.000572673
0.000303199
0.000478156
0.00026196
0.000392767
0.000209411
0.000313629
0.000139597
0.000249521
0.000100187
0.000208267
5.55503e-05
0.000186009
4.55417e-05
0.000180183
4.11773e-05
0.00017987
4.88578e-05
0.000181242
7.10842e-05
0.000183966
0.000106079
0.000185136
0.000121583
0.000182079
0.000139458
0.000170762
0.000142458
0.000151524
0.000155479
0.000125374
0.00015101
9.87712e-05
0.000169466
7.03169e-05
0.000158231
4.40056e-05
0.00017688
2.08072e-05
0.000157391
2.75414e-07
0.000173729
-1.13512e-05
0.000167503
-1.92522e-05
0.000174112
-1.95351e-05
0.000128929
-1.879e-05
0.000274021
-2.25489e-05
-0.000286592
-7.74492e-05
0.000517615
2.72582e-05
0.000596436
0.000127163
0.000792574
6.30192e-05
0.00102184
-3.35383e-05
0.00117628
-0.000182335
0.00130544
-0.000264911
0.00123677
-0.000225049
0.00100924
-0.000154165
0.00076448
-0.000120073
0.000681029
-5.18067e-05
0.000691372
5.39235e-05
0.000810015
4.19259e-05
0.00107067
-4.77334e-05
0.00131328
-0.000125385
0.00139079
-0.000230584
0.00145
-0.00030251
0.00134676
-0.000234596
0.0011457
-0.000164334
0.000984728
-0.000137977
0.000922694
-6.66992e-05
0.000876401
-2.02036e-05
0.000961404
-9.18644e-07
0.00107529
-1.39082e-05
0.00115466
-4.72661e-05
0.00115728
-8.17483e-05
0.00117617
-7.68867e-05
0.00114343
-7.38088e-05
0.00108876
-5.05969e-05
0.00103079
0.000104419
0.00103977
0.000731755
0.00110041
0.000742411
0.00139653
0.000483857
0.00150833
0.000165964
0.0016323
1.45023e-05
0.00169185
-4.47901e-05
0.00173593
-6.16577e-05
0.00176581
-7.43214e-05
0.00178981
-8.42852e-05
0.00181089
-9.16991e-05
0.00183506
-0.000103107
0.00186207
-0.000106605
0.00188332
-0.00010445
0.00189378
-9.71973e-05
0.00190019
-0.000184602
0.00190736
-0.000190653
0.00192111
-0.000197278
0.00193407
-0.000199754
0.00194418
-0.000200498
0.00195149
-0.000201732
0.00195963
-0.000202861
0.00196893
-0.000203476
0.00197974
-0.000202814
0.00199272
-0.000200114
0.00200881
-0.000196507
0.00202598
-0.000191027
0.00204369
-0.000182421
0.00205683
-0.000172158
0.00206462
-0.000159389
0.00206865
-0.000146636
0.00207182
-0.00013079
0.00207259
-0.00011658
0.00207416
-9.79451e-05
0.0020745
-8.04602e-05
0.00207552
-6.04438e-05
0.00207472
-4.26556e-05
0.00207573
-2.37201e-05
0.00207447
-8.14766e-06
0.00207318
1.45176e-05
0.00206975
3.76982e-05
0.00206791
6.64631e-05
0.00206041
9.12125e-05
0.00204941
0.000123295
0.00203273
0.000149702
0.00201756
0.000182459
0.00199773
0.000208803
0.00197621
0.000245457
0.00195041
0.000273527
0.00191884
0.000310192
0.00188566
0.000338854
0.0018441
0.000372046
0.00179115
0.000389321
0.00172108
0.000432697
0.00163055
0.000469581
0.0015456
0.000492205
0.00147183
0.000532249
0.00140595
0.000535405
0.00133383
0.00055746
0.00125232
0.000537452
0.00115848
0.000528992
0.00105601
0.000489281
0.000932531
0.000455931
0.000809498
0.000429663