/*--------------------------------*- C++ -*----------------------------------*\
| =========                 |                                                 |
| \\      /  F ield         | OpenFOAM: The Open Source CFD Toolbox           |
|  \\    /   O peration     | Version:  2.2.x                                 |
|   \\  /    A nd           | Web:      www.OpenFOAM.org                      |
|    \\/     M anipulation  |                                                 |
\*---------------------------------------------------------------------------*/
FoamFile
{
    version     2.0;
    format      ascii;
    class       volScalarField;
    location    "2.35";
    object      rho;
}
// * * * * * * * * * * * * * * * * * * * * * * * * * * * * * * * * * * * * * //

dimensions      [1 -3 0 0 0 0 0];

internalField   nonuniform List<scalar> 
14161
(
1.02799
1.03425
1.03387
1.0415
1.04094
1.02767
1.01532
1.02734
1.05392
1.06834
1.07653
1.05765
1.04503
1.02711
1.02811
1.02262
1.02654
1.04684
1.06289
1.06147
1.0727
1.07251
1.0553
1.03267
1.00498
1.003
0.997816
0.980676
0.972692
0.951893
1.18843
1.94857
1.9307
1.86179
1.82873
1.84363
1.86615
1.85559
1.82398
1.78166
1.75425
1.74782
1.75479
1.78659
1.84512
1.9018
1.95477
2.01062
2.07293
2.12273
2.16057
2.20085
2.2346
2.26999
2.29195
2.31389
2.33731
2.35854
2.36996
2.37419
2.37471
2.37909
2.38529
2.39606
2.42033
2.45915
2.5083
2.56755
2.63489
2.70692
2.77397
2.81704
2.83369
2.83057
2.80411
2.75456
2.6739
2.58034
2.51819
2.48014
2.46176
2.46479
2.48826
2.52209
2.57472
2.61812
2.64992
2.66734
2.67191
2.6743
2.66857
2.65661
2.63874
2.63205
2.6392
2.66102
2.69957
2.75749
2.8258
2.88589
2.91929
2.92593
2.91672
2.89417
2.86512
2.85941
2.86734
2.88648
2.91685
2.9651
3.01056
3.04679
3.06645
3.09423
3.13096
3.18144
3.16133
3.15634
3.2966
1.0461
1.07625
1.06451
1.02373
0.970762
0.915468
0.928941
0.975338
1.04844
1.09224
1.11533
1.08768
1.02774
0.982844
0.979486
0.987171
1.01905
1.07356
1.11314
1.11004
1.10307
1.07196
1.02232
0.98097
0.955947
0.956067
0.968129
0.978781
0.996388
0.980422
1.34167
2.13444
2.26834
2.35991
2.40686
2.4177
2.41227
2.36848
2.34704
2.35602
2.37287
2.39641
2.41372
2.42743
2.44367
2.44364
2.44032
2.44636
2.45584
2.46227
2.46134
2.46183
2.45979
2.45827
2.45867
2.46892
2.4917
2.5169
2.54204
2.56518
2.58484
2.60049
2.60818
2.60981
2.60861
2.60525
2.60043
2.59668
2.59619
2.59625
2.59682
2.59646
2.58703
2.57299
2.55641
2.54218
2.53411
2.52837
2.53318
2.54692
2.566
2.58687
2.60402
2.62563
2.65487
2.67722
2.69855
2.70853
2.70897
2.70798
2.7066
2.70979
2.71934
2.73828
2.76706
2.79687
2.8217
2.84717
2.87451
2.8994
2.91222
2.92442
2.93856
2.95106
2.96114
2.96981
2.97543
2.98104
2.98531
2.99341
3.008
3.03887
3.07574
3.12317
3.1615
3.20279
3.20808
3.20419
3.31868
0.971157
0.949576
0.986169
1.06803
1.17807
1.22934
1.213
1.13122
1.01972
0.950519
0.968125
1.01123
1.10241
1.17619
1.21458
1.18676
1.12124
1.02981
0.992802
0.978769
1.00494
1.06744
1.13989
1.17074
1.16809
1.16068
1.13191
1.10188
1.10193
1.0898
1.61741
2.37128
2.5719
2.65687
2.7075
2.74262
2.78191
2.81152
2.81819
2.8095
2.79688
2.78417
2.77349
2.76111
2.75576
2.74003
2.72703
2.71878
2.71243
2.71161
2.71502
2.72117
2.7248
2.7283
2.73049
2.72918
2.71992
2.71551
2.7119
2.70536
2.69853
2.69114
2.68284
2.67357
2.66698
2.66487
2.66568
2.66828
2.67327
2.67672
2.67719
2.68117
2.68828
2.69376
2.69663
2.70129
2.71262
2.72397
2.73172
2.74305
2.75273
2.76083
2.76734
2.76866
2.77608
2.79626
2.81028
2.81614
2.81363
2.81023
2.80455
2.79694
2.78988
2.79018
2.79573
2.80729
2.82117
2.84209
2.85967
2.87444
2.88706
2.9029
2.92169
2.93484
2.94296
2.95086
2.95664
2.96637
2.97544
2.98689
3.00437
3.03165
3.06505
3.10429
3.12723
3.15384
3.17965
3.19451
3.26399
1.09261
1.151
1.07447
0.933566
0.793897
0.733574
0.78936
0.921245
1.09053
1.14397
1.15794
1.1011
0.972405
0.863841
0.851271
0.877765
0.941372
1.06163
1.13646
1.13179
1.12919
1.06735
0.970969
0.888773
0.857852
0.87068
0.911765
0.955691
1.01349
1.01857
1.79418
2.41478
2.53774
2.60417
2.63066
2.66397
2.68725
2.69046
2.68388
2.66863
2.64996
2.63636
2.62723
2.62112
2.62124
2.62183
2.6226
2.62953
2.63652
2.64381
2.65032
2.65556
2.66028
2.66547
2.67378
2.67927
2.68047
2.68111
2.68177
2.68038
2.678
2.67722
2.67694
2.67631
2.67765
2.68071
2.68206
2.6859
2.69817
2.71539
2.73474
2.75071
2.7546
2.75936
2.76135
2.7607
2.75653
2.75603
2.75914
2.76326
2.76726
2.77691
2.78996
2.80379
2.82375
2.84474
2.85517
2.87332
2.87473
2.87353
2.8669
2.85692
2.84645
2.83429
2.83006
2.82916
2.83371
2.84416
2.85628
2.86787
2.88099
2.89825
2.91162
2.91843
2.92298
2.93002
2.9364
2.94743
2.95787
2.97112
2.99077
3.01904
3.05134
3.09093
3.12122
3.15407
3.17986
3.19036
3.23396
0.915448
0.866251
0.928303
1.04754
1.16235
1.28044
1.29731
1.18925
1.02255
0.896306
0.90204
0.952586
1.07778
1.18929
1.26201
1.25238
1.18887
1.05337
0.961412
0.924999
0.950326
1.01295
1.09786
1.17644
1.21384
1.21619
1.18572
1.15742
1.13476
1.09549
1.747
2.53372
2.65949
2.70241
2.7118
2.7303
2.75124
2.7701
2.77632
2.77213
2.76236
2.7503
2.74112
2.73053
2.72441
2.71892
2.71081
2.70989
2.713
2.71402
2.71739
2.71904
2.71707
2.71293
2.70847
2.70549
2.70434
2.7023
2.70011
2.69781
2.6942
2.68941
2.68434
2.68153
2.68132
2.68219
2.68349
2.68893
2.69734
2.70567
2.7145
2.72451
2.72945
2.73367
2.73925
2.74389
2.75261
2.75887
2.76628
2.77429
2.78028
2.78554
2.78499
2.78766
2.79767
2.81324
2.82475
2.8458
2.8562
2.86253
2.86155
2.85546
2.85365
2.85331
2.85683
2.86081
2.86145
2.86758
2.87459
2.88454
2.89287
2.90322
2.9097
2.90948
2.90898
2.91239
2.91293
2.92294
2.93299
2.94746
2.97136
3.00262
3.04433
3.0893
3.12358
3.15957
3.18377
3.18087
3.22485
1.13329
1.2106
1.10635
0.917381
0.74384
0.672725
0.748263
0.909761
1.11862
1.1822
1.1939
1.139
0.99391
0.848884
0.822941
0.849815
0.919792
1.06801
1.16674
1.19038
1.21638
1.16313
1.03616
0.905368
0.868489
0.8703
0.904994
0.952891
1.03326
1.0275
1.61119
2.36786
2.57903
2.69107
2.70589
2.71644
2.73044
2.74003
2.7405
2.73307
2.7208
2.70909
2.70035
2.68899
2.68353
2.6785
2.66324
2.65828
2.65798
2.65206
2.6467
2.64038
2.63352
2.6276
2.62394
2.62456
2.62774
2.63284
2.64087
2.6492
2.65695
2.66591
2.67559
2.68597
2.69344
2.70124
2.70553
2.70953
2.71137
2.71336
2.71219
2.70959
2.7079
2.70589
2.70616
2.70577
2.71212
2.71811
2.73009
2.74664
2.75956
2.77113
2.77391
2.76967
2.77164
2.77754
2.78325
2.80068
2.81918
2.83901
2.84535
2.84396
2.847
2.85184
2.86022
2.86834
2.86991
2.8794
2.89014
2.90168
2.90669
2.91252
2.91448
2.911
2.90496
2.9063
2.89974
2.90877
2.91722
2.93197
2.9565
2.99393
3.03814
3.08644
3.13
3.16738
3.18938
3.17222
3.2278
0.86313
0.789
0.866571
1.01611
1.13248
1.28403
1.34209
1.22676
1.02808
0.863808
0.853378
0.89714
1.02392
1.15924
1.26585
1.2975
1.25673
1.12003
0.984318
0.908654
0.908876
0.946824
1.05185
1.14229
1.18512
1.19092
1.19996
1.17601
1.14157
1.07881
1.52851
2.2385
2.44049
2.6058
2.6569
2.68003
2.69072
2.70206
2.71424
2.71817
2.71704
2.71491
2.7098
2.70035
2.68934
2.68634
2.66359
2.64832
2.63428
2.62311
2.6131
2.60523
2.59919
2.59519
2.5947
2.59609
2.59927
2.60217
2.60587
2.60589
2.60469
2.60357
2.60097
2.60158
2.60414
2.60748
2.60891
2.60855
2.60458
2.59997
2.59516
2.59335
2.59291
2.59557
2.5984
2.60149
2.6154
2.62965
2.64817
2.67531
2.69877
2.7182
2.73447
2.7346
2.7412
2.74277
2.73952
2.74691
2.76038
2.78901
2.81337
2.81992
2.82745
2.83746
2.85135
2.86619
2.87069
2.88557
2.89922
2.91082
2.9156
2.91846
2.91724
2.91026
2.899
2.89914
2.89117
2.89734
2.90113
2.91224
2.93877
2.98076
3.02945
3.08307
3.13039
3.16774
3.18736
3.16854
3.22782
1.1618
1.25328
1.1441
0.942521
0.751254
0.651382
0.73885
0.903685
1.13047
1.1963
1.2139
1.16946
1.04396
0.886073
0.839123
0.857335
0.924856
1.06898
1.21605
1.29146
1.29475
1.26884
1.15638
1.01497
0.919933
0.880928
0.899643
0.942819
0.993287
1.00722
1.27287
2.10592
2.32879
2.52057
2.5874
2.59324
2.59378
2.5995
2.61176
2.62243
2.63336
2.63916
2.6404
2.6385
2.63252
2.63502
2.6166
2.6028
2.58653
2.57065
2.55671
2.54318
2.53026
2.51613
2.5028
2.48969
2.47636
2.46431
2.46194
2.45644
2.45029
2.44966
2.44757
2.44591
2.44715
2.45353
2.46111
2.4624
2.46539
2.45844
2.45341
2.44904
2.44904
2.44686
2.45012
2.45585
2.47082
2.474
2.48858
2.52468
2.5549
2.59153
2.63231
2.65999
2.68847
2.7002
2.69678
2.70817
2.72037
2.74356
2.77536
2.79218
2.80604
2.82071
2.83908
2.85892
2.86709
2.88385
2.89879
2.9116
2.91899
2.9225
2.9209
2.91427
2.902
2.898
2.8852
2.88914
2.88786
2.89464
2.91999
2.96469
3.01617
3.07287
3.12581
3.16567
3.18102
3.16771
3.22634
0.822525
0.725594
0.808569
0.979036
1.09963
1.26504
1.36887
1.2603
1.03532
0.828818
0.800782
0.822908
0.933585
1.10955
1.22361
1.29845
1.32535
1.20966
1.0318
0.912493
0.876109
0.867201
0.926696
1.00941
1.05077
1.05754
1.09037
1.07578
1.04397
0.985273
1.08144
1.93623
2.28848
2.46332
2.56882
2.57459
2.57858
2.59135
2.60092
2.59993
2.59361
2.58005
2.56062
2.5474
2.53049
2.52327
2.49647
2.47179
2.44593
2.42032
2.39472
2.3701
2.34715
2.32657
2.30879
2.29287
2.27929
2.26943
2.26707
2.26365
2.25888
2.25873
2.2524
2.25281
2.25072
2.25446
2.26369
2.27312
2.27967
2.2818
2.28174
2.28304
2.2845
2.2888
2.30536
2.31499
2.32221
2.32356
2.32919
2.35056
2.36596
2.39949
2.44659
2.49479
2.55528
2.60285
2.6171
2.64249
2.66804
2.69396
2.72057
2.74192
2.76367
2.78399
2.80937
2.83739
2.85376
2.8776
2.89668
2.91242
2.92282
2.92696
2.92442
2.91647
2.90753
2.89715
2.88216
2.88124
2.87246
2.87593
2.89581
2.94564
3.00148
3.05893
3.11675
3.15727
3.17009
3.16859
3.22156
1.17669
1.27049
1.17317
0.981203
0.769634
0.65169
0.740352
0.890617
1.12123
1.19427
1.2281
1.18052
1.07915
0.905854
0.830897
0.828426
0.891636
1.02635
1.19995
1.31913
1.34009
1.31211
1.24164
1.12324
0.978232
0.928677
0.917359
0.923326
0.910542
0.910619
0.960161
1.7153
2.20719
2.38702
2.5107
2.48212
2.4484
2.43516
2.43703
2.43279
2.41418
2.38993
2.35619
2.33211
2.30517
2.29397
2.27295
2.24993
2.22724
2.20832
2.1912
2.17538
2.16338
2.15705
2.15343
2.15207
2.15101
2.15174
2.15596
2.15364
2.15533
2.16074
2.15835
2.16673
2.16287
2.16871
2.17357
2.17221
2.18348
2.19122
2.19779
2.19506
2.19704
2.20018
2.2086
2.22781
2.24111
2.24547
2.24946
2.25476
2.2612
2.26468
2.27704
2.30517
2.36596
2.43772
2.48034
2.54298
2.59156
2.63306
2.66604
2.69775
2.72884
2.75194
2.77978
2.81063
2.83883
2.86915
2.89534
2.91555
2.93142
2.93507
2.93133
2.92198
2.91147
2.89694
2.88253
2.87876
2.8661
2.86831
2.88298
2.9294
2.98807
3.0484
3.1052
3.14465
3.15905
3.17119
3.21261
0.790458
0.668598
0.747309
0.924087
1.07571
1.2196
1.34208
1.25731
1.01975
0.778551
0.71455
0.704271
0.782287
0.989849
1.11711
1.19342
1.27191
1.1891
0.997256
0.865072
0.765973
0.683801
0.704018
0.755364
0.788103
0.821174
0.859647
0.839308
0.774735
0.721551
0.7243
1.27649
1.93303
2.21075
2.21702
2.19043
2.1837
2.16498
2.16172
2.15945
2.15287
2.15238
2.13855
2.1204
2.10541
2.10912
2.10533
2.10173
2.09614
2.09065
2.08813
2.08618
2.08735
2.09234
2.09764
2.10668
2.11311
2.11669
2.12535
2.12493
2.13162
2.12816
2.13814
2.1326
2.14031
2.13472
2.14912
2.14056
2.14371
2.13943
2.14487
2.13782
2.14108
2.14268
2.15677
2.16024
2.18073
2.17806
2.19244
2.18213
2.18174
2.17682
2.18657
2.18361
2.21077
2.26808
2.32167
2.40613
2.4642
2.53231
2.5836
2.64234
2.69144
2.72302
2.75743
2.78815
2.82012
2.85883
2.89654
2.91766
2.93566
2.93601
2.9318
2.92373
2.91118
2.89779
2.88645
2.87779
2.85911
2.85816
2.86635
2.90785
2.96998
3.03868
3.09317
3.13445
3.15361
3.17231
3.20325
1.17764
1.26274
1.17893
1.00875
0.781633
0.655093
0.736843
0.843671
1.05525
1.13766
1.16439
1.10698
1.03574
0.864605
0.761527
0.728262
0.761928
0.845821
1.04915
1.1921
1.23348
1.18863
1.12405
1.06251
0.945333
0.889789
0.890279
0.88878
0.862577
0.862709
0.909065
1.18275
1.78402
2.15017
2.2531
2.17742
2.17801
2.15975
2.12279
2.08424
2.05779
2.05287
2.04151
2.0188
2.0142
2.02111
2.028
2.03907
2.04882
2.05137
2.05722
2.06551
2.07937
2.09399
2.10266
2.10743
2.11175
2.11099
2.11525
2.11332
2.11603
2.11071
2.12191
2.11619
2.12561
2.12107
2.1322
2.12115
2.12632
2.11775
2.11941
2.10925
2.1157
2.1135
2.12521
2.13158
2.14371
2.15725
2.14863
2.13714
2.12448
2.11492
2.11794
2.12494
2.13313
2.12983
2.14996
2.2231
2.29421
2.38204
2.44693
2.53291
2.61036
2.66425
2.71171
2.74398
2.78476
2.84051
2.89287
2.91373
2.93534
2.93641
2.93447
2.92734
2.91473
2.90067
2.89164
2.88074
2.85913
2.85126
2.85296
2.88368
2.94626
3.02921
3.0836
3.12815
3.14909
3.17076
3.1983
0.762308
0.615435
0.68278
0.841615
1.00502
1.13106
1.23241
1.15517
0.923751
0.689146
0.589236
0.554348
0.604233
0.735926
0.893469
0.989859
1.03397
0.983125
0.82388
0.702458
0.621893
0.549502
0.573367
0.617826
0.659556
0.703648
0.759374
0.761731
0.745755
0.704834
0.707555
0.821844
1.38838
1.82324
1.82823
1.82491
1.84392
1.84789
1.8789
1.88666
1.88303
1.88537
1.90023
1.91563
1.93017
1.9611
1.99296
2.01409
2.0346
2.05089
2.08234
2.10193
2.12046
2.13071
2.13328
2.13119
2.13125
2.12512
2.11453
2.12043
2.1178
2.12306
2.12455
2.13291
2.13096
2.13473
2.13013
2.13225
2.12325
2.1215
2.11358
2.11395
2.11121
2.11802
2.1215
2.1269
2.12521
2.12999
2.11981
2.10829
2.08939
2.09476
2.08295
2.06873
2.05695
2.03349
2.04978
2.11752
2.16125
2.21702
2.27097
2.36227
2.47421
2.57464
2.64277
2.68666
2.74379
2.81723
2.88421
2.90553
2.93024
2.93323
2.93675
2.9317
2.91875
2.90347
2.89254
2.88082
2.86133
2.85034
2.84005
2.85343
2.90821
3.00839
3.0718
3.12382
3.14759
3.16634
3.19634
1.15738
1.24523
1.16742
1.0266
0.808501
0.675831
0.740372
0.79685
0.951812
1.02507
1.06684
1.01799
0.964255
0.832284
0.764104
0.756512
0.726956
0.765139
0.904662
1.0557
1.15472
1.12815
1.08692
1.02988
0.937244
0.906828
0.903935
0.892258
0.868793
0.868715
0.894137
1.00157
1.43816
2.28338
2.40378
2.33069
2.18895
2.11833
2.08755
2.09061
2.08485
2.07352
2.08319
2.10763
2.11201
2.11446
2.12694
2.13181
2.14276
2.15501
2.15427
2.15142
2.15973
2.16192
2.16442
2.16174
2.15586
2.15815
2.14865
2.14704
2.14748
2.15023
2.15955
2.15984
2.16079
2.15614
2.15469
2.14559
2.13983
2.13255
2.12931
2.12352
2.12433
2.11958
2.13044
2.12426
2.13112
2.13376
2.12184
2.11425
2.09689
2.09375
2.07641
2.05696
2.04069
2.01043
1.99252
1.99432
2.02125
2.09449
2.16502
2.23894
2.31689
2.42233
2.54152
2.61885
2.68549
2.76902
2.85763
2.88884
2.92164
2.92669
2.93564
2.93444
2.92422
2.90711
2.89361
2.88062
2.86407
2.85341
2.83682
2.83741
2.87133
2.97933
3.05758
3.1203
3.14957
3.15993
3.19584
0.744304
0.584036
0.644294
0.761828
0.913032
0.980318
1.0585
0.99467
0.832946
0.662078
0.60031
0.575354
0.617214
0.714194
0.843379
0.936459
0.924221
0.910902
0.83568
0.778115
0.745872
0.696992
0.719525
0.756122
0.802201
0.829368
0.842965
0.845666
0.838779
0.833239
0.846327
0.993709
2.14296
2.29223
2.18735
2.08376
2.04676
2.03524
2.04654
2.07251
2.08577
2.09924
2.10623
2.1154
2.12401
2.1253
2.13985
2.15042
2.15891
2.1627
2.16278
2.16117
2.16723
2.17211
2.17767
2.18427
2.19075
2.19807
2.20178
2.20572
2.20868
2.20982
2.21118
2.21263
2.21176
2.20929
2.2102
2.20362
2.19766
2.18867
2.18711
2.17727
2.17036
2.15715
2.15657
2.1495
2.14789
2.13722
2.14352
2.13199
2.12712
2.11446
2.08998
2.08285
2.06419
2.03644
2.00519
1.95742
1.95141
1.99892
2.07945
2.12135
2.17791
2.29527
2.43976
2.54845
2.63154
2.72629
2.83372
2.89612
2.9281
2.93353
2.93488
2.93965
2.93406
2.91806
2.89824
2.88263
2.86427
2.85449
2.83615
2.82686
2.85097
2.94197
3.02961
3.10965
3.14995
3.15056
3.1992
1.08534
1.1551
1.13124
1.05271
0.930097
0.783277
0.809388
0.843876
0.925048
1.01476
1.07592
1.03198
0.977466
0.895573
0.861312
0.867865
0.846346
0.868166
0.93988
1.02964
1.09095
1.07531
1.03983
0.988961
0.956734
0.923487
0.909711
0.908749
0.910675
0.920248
0.94267
1.24075
2.55003
2.56297
2.46063
2.37162
2.31853
2.28824
2.29323
2.29584
2.29912
2.29944
2.29918
2.29895
2.29315
2.28738
2.2936
2.30238
2.30905
2.31334
2.31493
2.3163
2.31969
2.32541
2.33331
2.34071
2.34555
2.34625
2.34508
2.34099
2.33919
2.33521
2.33612
2.33098
2.326
2.31923
2.31478
2.30808
2.30712
2.30339
2.30164
2.29449
2.28521
2.27166
2.25728
2.24138
2.2256
2.20541
2.19919
2.18775
2.1755
2.15752
2.13077
2.12096
2.10268
2.07577
2.04984
2.0198
1.99609
2.0053
2.05607
2.0963
2.11912
2.18477
2.30333
2.45711
2.59381
2.69203
2.81475
2.90699
2.9321
2.94426
2.94246
2.95366
2.95376
2.94019
2.91791
2.89326
2.87143
2.86023
2.84095
2.81918
2.83061
2.89577
2.98833
3.09047
3.14622
3.13942
3.19166
0.777298
0.641851
0.70147
0.794826
0.897499
0.953375
1.01249
0.974985
0.894775
0.818806
0.793859
0.768833
0.791802
0.842927
0.889821
0.939523
0.946362
0.958841
0.947285
0.932542
0.932363
0.920085
0.924668
0.940905
0.948127
0.946968
0.943529
0.937488
0.938113
0.942082
0.962772
1.26041
2.52675
2.51258
2.47104
2.42476
2.38182
2.36308
2.35931
2.36576
2.36682
2.36502
2.36648
2.36811
2.37077
2.3702
2.37643
2.3839
2.3908
2.39754
2.40446
2.41327
2.42257
2.43155
2.43771
2.44156
2.44241
2.44281
2.44228
2.44074
2.43974
2.43804
2.43745
2.43489
2.43262
2.43171
2.43302
2.4378
2.44157
2.44243
2.44261
2.44019
2.43519
2.42585
2.41358
2.39888
2.3805
2.35774
2.333
2.30437
2.27799
2.24334
2.21332
2.19227
2.1729
2.14023
2.11938
2.11349
2.07284
2.05035
2.07626
2.13725
2.16907
2.19338
2.22255
2.33582
2.50462
2.64727
2.78915
2.89941
2.94918
2.96621
2.96124
2.94961
2.95211
2.94698
2.94375
2.92557
2.888
2.86995
2.84719
2.82802
2.83509
2.87931
2.95298
3.06675
3.13995
3.13115
3.19108
1.04237
1.10894
1.07724
1.01778
0.953054
0.896031
0.919596
0.933513
0.96616
1.00987
1.04095
1.01264
0.976769
0.949466
0.915521
0.905358
0.909101
0.924816
0.953719
0.980277
0.998905
0.996302
0.987359
0.975183
0.963345
0.952752
0.947069
0.946219
0.946625
0.952155
0.9804
1.38514
2.46664
2.48069
2.45037
2.41931
2.39645
2.38823
2.39498
2.40721
2.4146
2.42062
2.42632
2.43387
2.4399
2.44168
2.45313
2.46512
2.47757
2.48986
2.50273
2.51629
2.52769
2.53529
2.54214
2.54666
2.54823
2.54783
2.55049
2.55216
2.55276
2.55158
2.55295
2.55428
2.55843
2.56327
2.57571
2.58502
2.59794
2.60721
2.61474
2.61719
2.61841
2.61409
2.60907
2.59767
2.58245
2.55685
2.52694
2.48791
2.45499
2.40754
2.36825
2.31896
2.2905
2.24632
2.20495
2.18601
2.15456
2.13294
2.15061
2.18367
2.21209
2.24139
2.27071
2.33781
2.47738
2.63092
2.78601
2.90958
2.94428
2.95766
2.96036
2.96546
2.96288
2.95662
2.94469
2.9255
2.89589
2.87893
2.85165
2.82324
2.82649
2.85712
2.91111
3.02918
3.12547
3.11867
3.17973
0.865493
0.788263
0.830653
0.892088
0.931328
0.955226
0.995166
0.989417
0.969901
0.952342
0.944496
0.925505
0.931304
0.941031
0.951413
0.958996
0.967112
0.973315
0.973168
0.97258
0.977809
0.97781
0.974334
0.972662
0.972935
0.971823
0.971318
0.970468
0.964696
0.9619
0.971684
1.48478
2.35983
2.43847
2.43651
2.43745
2.44211
2.45392
2.47373
2.49524
2.51295
2.52543
2.5361
2.54158
2.55163
2.55828
2.57308
2.58835
2.60246
2.61608
2.6285
2.63851
2.64641
2.64942
2.65379
2.65604
2.65813
2.6592
2.66139
2.66371
2.66763
2.67283
2.67976
2.68871
2.69826
2.7141
2.72672
2.73918
2.7544
2.76622
2.77872
2.78393
2.79162
2.78934
2.78837
2.78135
2.77258
2.75962
2.74133
2.70802
2.66733
2.6071
2.54868
2.46957
2.41172
2.34672
2.27331
2.23256
2.23381
2.21594
2.20622
2.21142
2.25059
2.27704
2.30385
2.35559
2.4681
2.63001
2.81273
2.93834
2.96952
2.97654
2.97205
2.96998
2.97069
2.96524
2.95859
2.94096
2.91298
2.88884
2.85682
2.82696
2.82304
2.83897
2.8792
2.9959
3.11061
3.10944
3.17596
1.00508
1.03606
1.01612
0.981319
0.941588
0.924853
0.944258
0.960035
0.972828
0.983608
0.996055
0.985102
0.972806
0.961183
0.947986
0.943708
0.94507
0.951809
0.964018
0.971925
0.977541
0.977931
0.977335
0.977983
0.978288
0.976864
0.974512
0.976457
0.978548
0.977276
0.99145
1.59271
2.33806
2.48277
2.54053
2.56245
2.59073
2.61803
2.63601
2.6478
2.65393
2.66018
2.66646
2.67024
2.67418
2.67406
2.68465
2.69718
2.70696
2.71634
2.72397
2.72998
2.73462
2.73879
2.74313
2.74826
2.75255
2.75777
2.76378
2.77074
2.77814
2.78805
2.79768
2.80865
2.81816
2.82453
2.8314
2.8334
2.84012
2.83967
2.8431
2.84058
2.84408
2.84314
2.84265
2.84023
2.8386
2.83337
2.82445
2.80767
2.77357
2.72124
2.64775
2.5668
2.46202
2.38632
2.34076
2.26587
2.24023
2.23815
2.24218
2.24948
2.25983
2.26929
2.28206
2.33681
2.45151
2.62593
2.83341
2.95945
3.00307
3.0026
2.9863
2.97938
2.98195
2.97629
2.96736
2.95131
2.92801
2.89998
2.86569
2.83293
2.8202
2.8265
2.85574
2.96143
3.08879
3.09649
3.16897
0.929328
0.913729
0.929841
0.953381
0.963036
0.96819
0.983911
0.983305
0.978422
0.971724
0.972154
0.965609
0.965652
0.967897
0.966541
0.96402
0.963833
0.967126
0.969465
0.969409
0.969103
0.968741
0.970221
0.973292
0.976219
0.975858
0.977984
0.988635
0.992058
0.992703
1.04437
1.83075
2.40669
2.57875
2.63903
2.6636
2.69245
2.71448
2.72485
2.73536
2.74383
2.75323
2.76222
2.77027
2.77894
2.78431
2.79531
2.80357
2.80866
2.81141
2.81303
2.8143
2.81555
2.81724
2.81969
2.82327
2.82723
2.83304
2.83973
2.84687
2.85413
2.86021
2.86781
2.87311
2.87696
2.87891
2.87741
2.87452
2.8774
2.87153
2.86724
2.85523
2.84878
2.84106
2.83983
2.84038
2.84125
2.84052
2.83921
2.83291
2.80873
2.76272
2.699
2.62169
2.51836
2.41789
2.35448
2.28809
2.23669
2.22399
2.22503
2.25337
2.26761
2.27239
2.27298
2.32078
2.45088
2.63844
2.84234
2.98476
3.02487
3.01683
3.00246
2.99161
2.99367
2.98664
2.97678
2.96236
2.94132
2.91067
2.87275
2.8338
2.81515
2.81638
2.84132
2.93274
3.06431
3.08136
3.15946
0.973163
0.983897
0.977786
0.967884
0.959014
0.95528
0.964335
0.970865
0.973498
0.973105
0.975595
0.972682
0.970924
0.969104
0.966587
0.962651
0.960692
0.961609
0.965066
0.967244
0.965809
0.96579
0.968733
0.971258
0.971371
0.971658
0.977456
0.994143
1.00242
1.00101
1.18188
2.08083
2.47552
2.62557
2.68548
2.7238
2.74563
2.75444
2.75578
2.75797
2.76688
2.77989
2.796
2.81294
2.82892
2.83666
2.84321
2.84428
2.8467
2.84742
2.84829
2.85015
2.85327
2.85789
2.86452
2.87196
2.8792
2.88635
2.89275
2.89686
2.89948
2.90217
2.90291
2.90514
2.90268
2.89636
2.89303
2.88464
2.88063
2.8699
2.86302
2.84411
2.83477
2.82432
2.82033
2.82274
2.82724
2.82919
2.83024
2.83006
2.82064
2.79209
2.74092
2.67292
2.56896
2.44289
2.36495
2.32151
2.2804
2.25757
2.2443
2.25262
2.24484
2.2487
2.26702
2.32326
2.45177
2.62781
2.84699
2.9993
3.03152
3.0247
3.01379
3.00809
3.0049
2.99517
2.98336
2.96665
2.94601
2.91669
2.87993
2.83704
2.81247
2.80808
2.82643
2.89952
3.03603
3.06133
3.14451
0.954179
0.956743
0.962944
0.969976
0.977452
0.977439
0.980649
0.980751
0.976846
0.972526
0.970918
0.967257
0.967728
0.968515
0.969362
0.967309
0.96404
0.96297
0.963985
0.965332
0.963442
0.961858
0.964333
0.97263
0.974684
0.975748
0.98322
1.00521
1.03135
1.04231
1.55617
2.43431
2.68339
2.76238
2.83046
2.8317
2.83339
2.83103
2.82595
2.81946
2.81893
2.82598
2.83722
2.84654
2.85413
2.85466
2.85453
2.8544
2.85503
2.85653
2.85946
2.86438
2.87256
2.88344
2.89552
2.90493
2.91062
2.91523
2.91708
2.91624
2.91284
2.90872
2.90416
2.90101
2.89678
2.89132
2.8862
2.8791
2.87299
2.8626
2.85365
2.83952
2.83132
2.82127
2.81516
2.8179
2.82171
2.82292
2.82412
2.82227
2.81749
2.7953
2.75575
2.70581
2.62326
2.50482
2.4134
2.34521
2.27901
2.24218
2.23108
2.23273
2.22718
2.23065
2.25326
2.30426
2.42989
2.61769
2.85459
3.00785
3.03836
3.03539
3.02846
3.02134
3.01495
3.00117
2.9861
2.96693
2.94543
2.91817
2.88283
2.84136
2.81007
2.80147
2.81536
2.87124
3.00606
3.04134
3.12842
0.964058
0.968671
0.97218
0.974512
0.975236
0.973474
0.976558
0.977046
0.974904
0.973301
0.973152
0.969308
0.96838
0.969286
0.96868
0.966836
0.964209
0.963152
0.963832
0.965449
0.964233
0.962515
0.962746
0.969844
0.973848
0.972861
0.981372
1.00249
1.02409
1.01599
1.86371
2.26301
2.46808
2.58549
2.66103
2.68844
2.71482
2.73537
2.75424
2.77096
2.78216
2.79364
2.80032
2.80557
2.81045
2.81518
2.82155
2.82805
2.83643
2.84591
2.85646
2.86885
2.88345
2.89854
2.90841
2.91334
2.91449
2.91253
2.90557
2.89245
2.87589
2.86753
2.86457
2.86358
2.86321
2.86328
2.85903
2.85619
2.85029
2.84302
2.83606
2.82649
2.81724
2.80668
2.80138
2.80538
2.81014
2.81451
2.81843
2.81968
2.8196
2.8046
2.77394
2.73564
2.67639
2.57943
2.47426
2.37915
2.29696
2.24675
2.22558
2.20821
2.2055
2.20887
2.23569
2.29154
2.4207
2.61152
2.85275
3.00323
3.03768
3.04098
3.03609
3.02781
3.02066
3.00576
2.98897
2.96774
2.94616
2.9212
2.88664
2.84758
2.80834
2.79392
2.80712
2.83924
2.97995
3.02276
3.11274
0.962966
0.966674
0.973204
0.979855
0.98284
0.981279
0.980976
0.979412
0.975733
0.973411
0.972919
0.968725
0.966228
0.966568
0.967543
0.965948
0.964105
0.963163
0.963504
0.964935
0.963375
0.961513
0.96237
0.968065
0.969138
0.966933
0.966765
0.970148
0.969232
0.939268
1.15319
2.00044
2.38129
2.63107
2.72309
2.78808
2.80964
2.83321
2.84476
2.84303
2.83175
2.81938
2.81258
2.81216
2.81403
2.82119
2.82935
2.83874
2.84442
2.84771
2.85131
2.85744
2.8664
2.87884
2.88872
2.89424
2.89553
2.89286
2.88331
2.86733
2.85024
2.84167
2.836
2.83142
2.82558
2.82451
2.82612
2.82806
2.82584
2.82184
2.81674
2.81187
2.80347
2.79297
2.78012
2.78128
2.78557
2.79463
2.80361
2.80853
2.81261
2.80593
2.7874
2.75587
2.71127
2.64218
2.54578
2.43275
2.33731
2.27155
2.24457
2.21925
2.21753
2.21276
2.23952
2.29863
2.42885
2.61013
2.83884
2.98837
3.03117
3.04891
3.04632
3.03898
3.02959
3.01239
2.99308
2.97086
2.94853
2.92373
2.89119
2.85216
2.80401
2.78529
2.79238
2.80967
2.95239
3.0036
3.0973
0.965268
0.970637
0.975885
0.982733
0.985461
0.984335
0.982345
0.980483
0.977674
0.973726
0.973163
0.969288
0.964865
0.963822
0.9643
0.963802
0.96243
0.961968
0.96352
0.965332
0.962886
0.959572
0.959568
0.962408
0.961131
0.956213
0.955025
0.95641
0.948349
0.917305
0.927606
1.45688
2.06088
2.31152
2.47019
2.61589
2.72473
2.78685
2.83212
2.84654
2.84217
2.83888
2.83191
2.82948
2.83388
2.84593
2.85207
2.85241
2.84751
2.83957
2.83685
2.838
2.84233
2.85341
2.86865
2.88088
2.88695
2.88649
2.88113
2.86896
2.85238
2.84012
2.83091
2.82372
2.81357
2.80575
2.80402
2.80093
2.80133
2.7966
2.79418
2.78704
2.7786
2.7688
2.75176
2.74963
2.75167
2.75822
2.76728
2.77957
2.78878
2.79528
2.78682
2.77056
2.74114
2.68565
2.60501
2.49524
2.38883
2.30948
2.27118
2.24951
2.22407
2.22429
2.24706
2.30508
2.4169
2.57535
2.79121
2.94868
3.01151
3.0462
3.04627
3.04371
3.03679
3.0191
2.99639
2.97336
2.94963
2.92663
2.89543
2.85633
2.79915
2.77592
2.77491
2.78715
2.92346
2.98436
3.08447
0.967031
0.971812
0.97765
0.984882
0.987352
0.987091
0.986192
0.983798
0.980452
0.975967
0.973188
0.969377
0.964282
0.962192
0.961476
0.96023
0.960019
0.960273
0.963142
0.965173
0.961803
0.956393
0.956002
0.957068
0.95093
0.943734
0.941148
0.943253
0.947758
0.933521
0.952793
1.42938
2.03447
2.11779
2.21922
2.36302
2.52193
2.65728
2.76742
2.83558
2.87024
2.89362
2.89153
2.88599
2.89209
2.89754
2.89604
2.89154
2.88153
2.86574
2.85149
2.84851
2.8505
2.85591
2.86609
2.87853
2.88432
2.88579
2.88249
2.87327
2.85769
2.84337
2.83187
2.82119
2.80622
2.79432
2.78405
2.77195
2.76672
2.76049
2.7591
2.75492
2.74942
2.74226
2.73189
2.7193
2.70727
2.71193
2.72215
2.73993
2.75511
2.76756
2.77219
2.76405
2.74394
2.70861
2.65261
2.57357
2.47613
2.38813
2.347
2.29931
2.26658
2.25537
2.28453
2.34364
2.42461
2.5383
2.70749
2.88157
2.97318
3.034
3.04084
3.04296
3.04076
3.02727
3.00311
2.97617
2.95052
2.92753
2.89747
2.85988
2.79823
2.76298
2.75482
2.76712
2.89326
2.96372
3.07293
0.969381
0.973146
0.97845
0.985412
0.987936
0.988162
0.987599
0.985739
0.982535
0.978533
0.974779
0.970527
0.965029
0.961815
0.959677
0.956643
0.956506
0.957226
0.959882
0.963347
0.962899
0.958855
0.958384
0.959537
0.952613
0.942873
0.939454
0.940172
0.948845
0.945335
0.95739
1.43547
2.01856
2.03431
2.04665
2.08471
2.17632
2.31532
2.4565
2.60266
2.69351
2.7563
2.77003
2.77091
2.77531
2.78105
2.79353
2.81016
2.82445
2.83168
2.83795
2.84661
2.85508
2.86102
2.86543
2.8652
2.86768
2.87298
2.88449
2.89093
2.8933
2.88826
2.87607
2.85797
2.83707
2.81355
2.79439
2.77351
2.75688
2.74268
2.7318
2.71956
2.71014
2.70345
2.69896
2.69024
2.68792
2.68436
2.68604
2.68953
2.70755
2.72759
2.74054
2.74281
2.73526
2.70903
2.67156
2.61549
2.53306
2.43581
2.38208
2.34486
2.34148
2.31744
2.30999
2.32396
2.38768
2.48455
2.624
2.79047
2.91228
2.99817
3.0257
3.03898
3.03919
3.02944
3.0075
2.97851
2.95095
2.92723
2.89933
2.86126
2.80058
2.75218
2.73393
2.74649
2.86131
2.94255
3.06063
0.97143
0.973899
0.977932
0.984415
0.98725
0.988338
0.987734
0.986297
0.98372
0.980094
0.976679
0.972379
0.966034
0.96175
0.958873
0.954729
0.953399
0.953117
0.955929
0.961987
0.960161
0.957762
0.959062
0.958205
0.949328
0.943016
0.941838
0.942022
0.949414
0.946215
0.947865
1.38866
1.93192
1.9169
1.86465
1.82058
1.86033
1.94046
2.08032
2.2561
2.3724
2.42678
2.45961
2.49421
2.52393
2.55081
2.56991
2.59927
2.62841
2.65185
2.66762
2.68346
2.70384
2.72729
2.7479
2.75866
2.76925
2.78172
2.79234
2.80441
2.81607
2.81883
2.81444
2.80588
2.79674
2.78352
2.77051
2.75146
2.73552
2.7162
2.69743
2.68283
2.66596
2.65898
2.65181
2.65173
2.65287
2.6553
2.65543
2.66701
2.67822
2.69173
2.70663
2.71358
2.70735
2.69095
2.66527
2.63261
2.58655
2.50892
2.4384
2.37606
2.35728
2.33982
2.34149
2.34149
2.37334
2.43941
2.5464
2.68474
2.83076
2.93969
2.99046
3.02186
3.02832
3.023
3.00497
2.97744
2.94929
2.92448
2.89793
2.86067
2.80087
2.74244
2.71559
2.72366
2.82622
2.9207
3.04952
0.973202
0.975048
0.97848
0.983588
0.98577
0.986421
0.98609
0.985365
0.983463
0.979651
0.97713
0.973522
0.96762
0.963277
0.96014
0.95526
0.953037
0.95282
0.952786
0.955519
0.952878
0.951209
0.954601
0.952481
0.942055
0.936987
0.934339
0.934043
0.93929
0.934237
0.914544
1.16721
1.79742
1.81811
1.7773
1.74031
1.78725
1.8232
1.85471
1.89462
1.93421
1.90961
1.84571
1.80763
1.79014
1.78101
1.8113
1.87745
1.93189
2.01302
2.07606
2.13788
2.19099
2.23831
2.27831
2.3109
2.34085
2.37047
2.39968
2.43248
2.47156
2.51921
2.57673
2.62597
2.65753
2.67593
2.68533
2.68617
2.68289
2.66831
2.64655
2.62352
2.59886
2.58437
2.57113
2.58084
2.58858
2.59556
2.6135
2.63789
2.64486
2.65672
2.662
2.6612
2.66213
2.65803
2.63813
2.61186
2.57906
2.53474
2.47914
2.40915
2.35587
2.34811
2.35139
2.35068
2.36342
2.4066
2.4816
2.58814
2.726
2.8716
2.9481
2.99705
3.01665
3.01544
3.00173
2.97454
2.94601
2.92161
2.89583
2.86106
2.80449
2.73815
2.69603
2.70057
2.78524
2.89622
3.03406
0.974722
0.976128
0.978856
0.983024
0.984667
0.985578
0.985664
0.985091
0.983442
0.979722
0.976499
0.973449
0.968727
0.963994
0.961501
0.957912
0.952989
0.952137
0.953067
0.953633
0.953662
0.956446
0.965512
0.964718
0.951665
0.942292
0.935917
0.931992
0.93329
0.924415
0.891728
0.975572
1.53297
1.63267