/*--------------------------------*- C++ -*----------------------------------*\
| =========                 |                                                 |
| \\      /  F ield         | OpenFOAM: The Open Source CFD Toolbox           |
|  \\    /   O peration     | Version:  2.2.x                                 |
|   \\  /    A nd           | Web:      www.OpenFOAM.org                      |
|    \\/     M anipulation  |                                                 |
\*---------------------------------------------------------------------------*/
FoamFile
{
    version     2.0;
    format      ascii;
    class       volScalarField;
    location    "2.2";
    object      By;
}
// * * * * * * * * * * * * * * * * * * * * * * * * * * * * * * * * * * * * * //

dimensions      [1 0 -2 0 0 -1 0];

internalField   nonuniform List<scalar> 
14161
(
-2.63101e-05
-1.57056e-07
3.0199e-07
1.14065e-06
8.07177e-07
2.24839e-06
1.4014e-06
-5.47954e-07
1.39087e-06
1.32779e-06
1.63936e-06
1.02415e-06
3.91478e-06
3.14713e-06
4.60587e-06
3.84743e-06
5.56311e-06
6.12555e-06
8.45971e-06
8.45448e-06
9.35403e-06
1.07908e-05
1.33254e-05
1.38909e-05
1.56482e-05
2.8865e-05
2.54334e-05
4.28815e-05
4.44956e-05
5.55454e-05
8.6148e-05
9.22827e-05
0.000136439
0.000172031
0.000261101
0.000265257
0.000505377
0.00054015
0.000830564
0.00105613
0.00145501
0.00131486
0.00143271
-0.000955189
-0.00671788
-0.0514436
-0.169787
-0.0670263
0.0141044
0.021631
0.0135046
0.00905711
0.00748348
0.00470537
0.00339056
0.0025701
0.00131327
0.00110427
0.00106475
0.000684509
0.000889851
-2.44407e-05
-0.000234497
0.000351446
0.000135711
-0.000400765
-0.000152874
2.33024e-06
0.00047617
0.00071954
0.000953659
0.00108023
0.00100344
0.000864431
0.000287168
-0.000124827
0.000268793
0.000385264
0.000526083
0.000374638
0.000146011
-0.000709356
-0.00131778
-0.00307038
-0.00261681
-0.00033774
0.00382245
0.00726744
0.00541769
0.00461445
0.00222951
-0.0067308
-0.00868196
-0.00987106
-0.00729725
-0.00225931
0.0070027
0.0148267
0.024509
0.0287066
0.036051
0.0385683
0.0436741
0.0505599
0.0537317
0.0562697
0.0559402
0.0540485
0.0527262
0.0520049
0.0520515
0.0521145
0.0498291
0.0498631
0.0459357
0.0481561
0.034963
0.0450769
0.0235612
-4.76758e-05
6.43948e-07
-3.09229e-06
1.06815e-06
2.76961e-07
1.48493e-06
1.16872e-06
2.91912e-06
3.65914e-06
1.36494e-06
3.32621e-06
2.67305e-06
5.86752e-06
3.43693e-06
6.57525e-06
5.01162e-06
7.36842e-06
7.3213e-06
1.16733e-05
1.32103e-05
1.5788e-05
1.69642e-05
2.11034e-05
2.67442e-05
2.23932e-05
3.36183e-05
1.92455e-05
3.04513e-05
2.72531e-05
3.00952e-05
1.56898e-05
2.35416e-06
-2.54353e-05
-1.41738e-05
-8.13521e-05
-0.000158621
-0.000327305
-0.000685483
-0.00103029
-0.00185873
-0.00251976
-0.00444798
-0.00519393
-0.0126151
-0.0113746
-0.0801599
-0.18703
-0.0288671
0.0225867
0.0143059
0.00957679
0.00377141
0.00305032
-0.000183572
-0.00212511
-0.00330582
-0.00460065
-0.0045087
-0.00414525
-0.00529146
-0.00441153
-0.00531725
-0.00458454
-0.00296071
-0.00254608
-0.00223423
-0.0022332
-0.00271693
-0.00270221
-0.00357046
-0.00400813
-0.00393832
-0.00320332
-0.00246708
-0.00150971
-0.00146137
-0.00205413
-0.00272849
-0.00211818
-0.000566965
0.0019374
0.00324489
0.00502749
0.00746526
0.00767616
0.00663574
0.00288921
0.000519569
-0.0027887
-0.0114276
0.0024578
0.0073164
0.0248519
0.0216273
0.0261118
0.0148957
0.027207
0.0353936
0.0578984
0.0628441
0.0700656
0.083553
0.0862641
0.0830599
0.0808506
0.0749485
0.0745898
0.0693019
0.0726
0.0688632
0.0692479
0.0676841
0.0656594
0.0690581
0.0614832
0.0718657
0.0583242
0.0813601
0.044546
-7.97053e-05
-4.1084e-06
-5.16813e-06
3.42533e-06
2.4054e-06
3.82532e-06
3.8141e-06
4.84754e-06
5.45624e-06
3.82423e-06
6.05304e-06
5.53484e-06
1.34943e-05
9.41929e-06
1.50799e-05
1.43169e-05
1.87592e-05
2.0841e-05
2.70937e-05
3.04583e-05
3.51716e-05
3.89008e-05
5.0427e-05
5.13412e-05
6.95811e-05
7.2561e-05
0.000103163
0.000108561
0.00012179
0.000137253
0.000168316
0.000210247
0.000265339
0.000268659
0.000350344
0.000332588
0.000510404
0.000367518
0.000610167
0.000326079
0.000486336
-0.000716694
0.000129466
-0.00555413
-0.00353628
-0.0799318
-0.277564
-0.112258
-0.00641483
0.00541464
0.00146577
-0.00516703
-0.00580593
-0.0104456
-0.0148497
-0.0152205
-0.0169756
-0.0158743
-0.0126758
-0.0145888
-0.0121572
-0.0129999
-0.00931913
-0.00614112
-0.00496531
-0.00430645
-0.00327845
-0.00213671
-0.00216916
-0.002258
-0.0026796
-0.00317007
-0.00414066
-0.00515257
-0.00609644
-0.00527552
-0.00473943
-0.0035878
-0.00115959
-0.000166471
0.00253393
0.00654457
0.00852661
0.00766191
0.00662634
0.0075617
0.0116618
0.0174699
0.0245173
0.0404898
0.0662524
0.0538811
0.0899709
0.0748383
0.0912192
0.089477
0.104506
0.0994619
0.104181
0.0933906
0.0954754
0.0890194
0.102022
0.10298
0.109
0.103522
0.103881
0.0965724
0.102177
0.0976036
0.104036
0.0997284
0.100704
0.0974418
0.093264
0.098371
0.0825557
0.0976287
0.062766
-9.28421e-05
-6.24154e-06
-6.7655e-06
1.89458e-06
8.98955e-07
4.5652e-06
4.76219e-06
7.48108e-06
6.25916e-06
3.6499e-06
8.32943e-06
6.98956e-06
1.61781e-05
1.10921e-05
1.73187e-05
1.74756e-05
2.37818e-05
2.34549e-05
3.28891e-05
3.81043e-05
4.37527e-05
4.99379e-05
6.15575e-05
6.53984e-05
7.83551e-05
8.12393e-05
0.000101012
0.000101791
0.000117306
0.000119931
0.000118702
0.000148355
0.000163517
0.000137056
0.000137593
5.90659e-05
-5.45545e-05
-0.000358604
-0.000767154
-0.00150603
-0.00222818
-0.00475685
-0.00471356
-0.0108056
-0.0133986
-0.0920832
-0.262511
-0.0944543
-0.0113083
-0.003899
-0.00591925
-0.0169064
-0.0238624
-0.0270341
-0.0325827
-0.0349121
-0.0397339
-0.0370895
-0.0308865
-0.032307
-0.0275931
-0.0282005
-0.0214878
-0.0156634
-0.0121708
-0.00991962
-0.00819658
-0.00686608
-0.00651344
-0.00658349
-0.00691724
-0.00725934
-0.00788169
-0.00742023
-0.0078291
-0.00880171
-0.00896152
-0.00767627
-0.00409827
0.000429146
0.00779211
0.0160291
0.0210935
0.0215357
0.0199069
0.0209902
0.0261936
0.0373242
0.0682436
0.11475
0.154488
0.172541
0.184177
0.167129
0.163557
0.14867
0.149309
0.14537
0.151073
0.143311
0.142867
0.136886
0.126411
0.120075
0.116178
0.112712
0.113987
0.105213
0.110832
0.102619
0.108452
0.097852
0.100557
0.0961433
0.0927087
0.0961193
0.0800297
0.101823
0.0668296
-0.000111403
-9.19131e-06
-9.29601e-06
3.72762e-06
3.96114e-06
7.4875e-06
4.7584e-06
7.69208e-06
9.61293e-06
9.23615e-06
1.04321e-05
8.58726e-06
2.23497e-05
1.76167e-05
2.61705e-05
2.72253e-05
3.41915e-05
3.63928e-05
4.68641e-05
5.5206e-05
6.45893e-05
7.19972e-05
8.52025e-05
0.000100458
0.000111915
0.000141297
0.000157128
0.000178347
0.000210337
0.000230761
0.000273213
0.000308946
0.000363615
0.000386154
0.000455121
0.00041143
0.000492696
0.000300576
0.000479363
-6.01621e-05
0.00018773
-0.00101563
-0.000968249
-0.00414334
-0.00986982
-0.0797875
-0.214259
-0.0887435
-0.0397291
-0.0251794
-0.0341337
-0.0459689
-0.0562482
-0.058648
-0.0665793
-0.0653202
-0.0709942
-0.0668503
-0.0562403
-0.0560433
-0.0482073
-0.0480968
-0.0384602
-0.0297267
-0.023362
-0.0199145
-0.0166664
-0.0148289
-0.0130327
-0.0132249
-0.0129763
-0.0134599
-0.0139555
-0.0152931
-0.0159306
-0.0167516
-0.0155758
-0.0120079
-0.0069622
0.00113902
0.0123386
0.0264749
0.0383346
0.0352159
0.0304644
0.0315388
0.0506178
0.0990084
0.159783
0.224932
0.270532
0.318686
0.297675
0.296915
0.261138
0.248701
0.223303
0.212042
0.202573
0.188022
0.184058
0.171234
0.162996
0.149734
0.144568
0.130935
0.127612
0.114587
0.119168
0.110518
0.115809
0.104684
0.108807
0.0974392
0.0973418
0.0966045
0.0833714
0.100931
0.0693674
-0.000115693
-1.22302e-05
-1.11106e-05
1.76341e-06
3.1448e-06
9.46464e-06
6.23747e-06
8.97641e-06
1.09469e-05
9.63688e-06
1.1851e-05
1.20889e-05
2.47318e-05
2.14581e-05
3.00459e-05
3.30874e-05
4.12242e-05
4.19502e-05
5.54789e-05
6.55783e-05
7.74106e-05
8.35356e-05
0.000102809
0.000114561
0.000132634
0.000153782
0.000165753
0.000197983
0.000211124
0.000228519
0.000263213
0.00030891
0.000357848
0.000417757
0.000449621
0.000477162
0.000454509
0.000467926
0.000303417
4.12566e-05
-0.000693171
-0.00164321
-0.00298178
-0.00675106
-0.0127469
-0.0533034
-0.0893499
-0.0539012
-0.0630343
-0.0797402
-0.0946048
-0.0973611
-0.10348
-0.103076
-0.102864
-0.0934481
-0.0969812
-0.0871005
-0.0728218
-0.0687129
-0.0562945
-0.0511156
-0.040412
-0.030155
-0.0225627
-0.0161011
-0.0117097
-0.00907331
-0.00806113
-0.00792713
-0.00900532
-0.010289
-0.0117834
-0.0134224
-0.0148416
-0.0145875
-0.0135484
-0.0107212
-0.00532469
0.00487692
0.0189506
0.03668
0.0514939
0.0532463
0.0554529
0.0705817
0.107303
0.180492
0.24689
0.339744
0.346362
0.379006
0.362118
0.385239
0.347744
0.337801
0.304178
0.278774
0.254359
0.232571
0.214223
0.203094
0.197715
0.183255
0.171333
0.152053
0.146183
0.129318
0.130509
0.117507
0.122524
0.109273
0.112758
0.0971851
0.0980241
0.0931207
0.0831476
0.0967878
0.0679129
-0.000125069
-1.33872e-05
-1.23001e-05
3.22224e-06
5.31817e-06
1.17366e-05
8.89077e-06
1.22359e-05
1.21879e-05
1.46112e-05
1.45935e-05
1.57233e-05
2.98144e-05
2.80524e-05
3.61355e-05
4.09058e-05
4.92615e-05
5.24183e-05
6.66213e-05
8.06348e-05
9.53847e-05
0.000104811
0.000127517
0.000144311
0.000175469
0.00019174
0.00022657
0.000261912
0.000304164
0.000327591
0.000367699
0.000415982
0.000498536
0.000549681
0.000599105
0.000613973
0.000600409
0.000576723
0.000457104
6.65364e-05
0.000206943
-0.000842693
0.000434609
-0.00286669
0.0031491
0.00390597
0.0747424
-0.0411706
-0.096271
-0.15516
-0.172917
-0.174325
-0.166596
-0.16197
-0.161641
-0.143508
-0.141429
-0.12326
-0.106202
-0.098228
-0.0818611
-0.0732749
-0.0588059
-0.0481179
-0.0352724
-0.027528
-0.0207775
-0.0175955
-0.0163429
-0.0163825
-0.0169729
-0.0182295
-0.0191399
-0.0204572
-0.0210975
-0.0215006
-0.0211924
-0.0170337
-0.0100073
0.0024962
0.0193915
0.0427495
0.0678723
0.0831849
0.085707
0.108701
0.15931
0.244825
0.330592
0.394786
0.422864
0.467795
0.451891
0.458771
0.429342
0.396045
0.373719
0.335162
0.303847
0.280245
0.25906
0.242767
0.224487
0.20846
0.194443
0.176156
0.166386
0.147879
0.144535
0.126948
0.131643
0.113842
0.119479
0.0989711
0.102126
0.0925217
0.0868514
0.0914211
0.0659778
-0.000122599
-1.45749e-05
-1.39865e-05
1.84533e-06
4.35951e-06
1.22469e-05
9.7947e-06
1.16356e-05
1.48422e-05
1.85322e-05
1.73288e-05
1.96562e-05
3.14422e-05
3.28206e-05
3.98478e-05
4.85658e-05
5.89837e-05
6.06413e-05
8.01185e-05
9.51578e-05
0.000112321
0.000124143
0.000148435
0.000165941
0.000193042
0.000212514
0.000246008
0.00028721
0.000321273
0.000366024
0.000410023
0.000495263
0.000581758
0.000702722
0.000738153
0.00090787
0.00114246
0.00147058
0.001835
0.00247306
0.00352948
0.00548583
0.00729273
0.0138808
0.0301975
0.142164
0.245126
-0.0171581
-0.217724
-0.263676
-0.275677
-0.265257
-0.236167
-0.222082
-0.205202
-0.182209
-0.173346
-0.14809
-0.12996
-0.109179
-0.089186
-0.0802797
-0.0652884
-0.0524978
-0.0379583
-0.0264966
-0.0197958
-0.0148139
-0.0119686
-0.010094
-0.0105411
-0.0109698
-0.013131
-0.0155827
-0.0169037
-0.0169673
-0.0156072
-0.0112366
-0.00268884
0.00817378
0.0258778
0.053581
0.0815405
0.114305
0.116834
0.158885
0.233092
0.341393
0.416465
0.462064
0.489126
0.487794
0.509747
0.499582
0.499802
0.47377
0.455409
0.418025
0.380058
0.340491
0.30843
0.281702
0.265751
0.255887
0.234465
0.212446
0.191818
0.171614
0.159982
0.139683
0.14141
0.12072
0.123828
0.101891
0.106251
0.09185
0.0904196
0.086799
0.0625595
-0.00012507
-1.42086e-05
-1.36469e-05
2.88351e-06
5.63036e-06
1.47188e-05
1.29074e-05
1.56683e-05
1.53193e-05
2.2214e-05
1.9581e-05
2.52946e-05
3.26947e-05
3.90801e-05
4.37428e-05
5.76906e-05
6.63454e-05
7.04357e-05
8.87251e-05
0.000108231
0.000126206
0.000142414
0.000166396
0.000195419
0.000222419
0.000260021
0.000290657
0.000334469
0.000366877
0.000436327
0.000483782
0.000543099
0.000635027
0.000684434
0.000712904
0.000746482
0.000878854
0.00103202
0.00101977
0.0013171
0.00110138
0.00197842
0.00172468
0.0063325
0.0104143
0.121638
0.366001
-0.00123281
-0.24459
-0.293843
-0.303434
-0.29135
-0.261683
-0.250624
-0.22402
-0.199191
-0.190463
-0.167516
-0.146533
-0.121648
-0.104651
-0.0884389
-0.0733436
-0.0581735
-0.0439829
-0.0339558
-0.0266626
-0.0220395
-0.0180529
-0.0177277
-0.0180791
-0.0189174
-0.0202969
-0.0209884
-0.0214205
-0.0212747
-0.0204629
-0.018248
-0.0090731
0.00377375
0.0270732
0.0538538
0.0882002
0.127711
0.157124
0.214197
0.296495
0.392114
0.45513
0.500578
0.533518
0.539329
0.576151
0.565726
0.574986
0.545889
0.530889
0.495015
0.454299
0.402209
0.355176
0.329425
0.303242
0.283681
0.259766
0.24146
0.216225
0.203361
0.184086
0.163306
0.158114
0.130906
0.133841
0.107165
0.112139
0.0937046
0.0966167
0.080553
0.0611286
-0.000118362
-1.32595e-05
-1.46942e-05
2.31041e-06
6.18485e-06
1.57166e-05
1.37134e-05
1.67851e-05
1.78501e-05
2.54337e-05
2.13504e-05
2.90119e-05
3.55039e-05
4.549e-05
4.97726e-05
6.73283e-05
7.82332e-05
8.29468e-05
0.000101519
0.000124692
0.000146018
0.000166541
0.000192919
0.000223957
0.000253993
0.000290516
0.000343623
0.000380416
0.000426784
0.000488964
0.00055939
0.000647509
0.00076837
0.000894889
0.00102544
0.00123099
0.00154624
0.00202821
0.00263237
0.00356662
0.00468855
0.0071184
0.00877579
0.0163058
0.0236886
0.09305
0.321802
-0.0243154
-0.36977
-0.38404
-0.370166
-0.346967
-0.309161
-0.282499
-0.246374
-0.222108
-0.198193
-0.172585
-0.14664
-0.122236
-0.104623
-0.0860493
-0.0683162
-0.0512385
-0.037576
-0.0293032
-0.0211527
-0.0144063
-0.0121815
-0.010824
-0.0105792
-0.0114063
-0.0126607
-0.0142237
-0.015037
-0.0156281
-0.0140239
-0.00991206
-0.00189829
0.0160778
0.0366387
0.062267
0.100247
0.139335
0.196862
0.270195
0.365042
0.448827
0.515503
0.550343
0.586328
0.596675
0.623715
0.62037
0.628607
0.622427
0.600552
0.582322
0.528139
0.47552
0.428695
0.38275
0.348442
0.325636
0.304565
0.290799
0.260977
0.244088
0.214374
0.192269
0.178219
0.145165
0.146728
0.113585
0.121932
0.0952385
0.101665
0.076154
0.0621569
-0.000115468
-1.07172e-05
-1.27676e-05
3.41419e-06
7.14136e-06
1.65001e-05
1.78509e-05
1.99121e-05
1.9677e-05
2.76332e-05
2.47165e-05
3.55815e-05
3.69623e-05
5.07466e-05
5.34158e-05
7.17643e-05
8.48101e-05
8.99972e-05
0.000109908
0.00013647
0.000158426
0.00018085
0.000207591
0.000244336
0.000281557
0.00031315
0.000356073
0.000410226
0.000475485
0.000503701
0.000560232
0.000642095
0.00073281
0.000756889
0.000812741
0.000898874
0.00100324
0.00119162
0.0013935
0.00155439
0.00170955
0.00159856
0.0025547
0.00153425
0.00470051
0.0132073
0.0711805
-0.137039
-0.351306
-0.377763
-0.371136
-0.353997
-0.326459
-0.294176
-0.261614
-0.23236
-0.202844
-0.176406
-0.150354
-0.125843
-0.10585
-0.0865243
-0.0672783
-0.049829
-0.0383017
-0.0280155
-0.0193576
-0.0154648
-0.0135662
-0.0122458
-0.0125982
-0.0132493
-0.0140673
-0.0151218
-0.0154037
-0.0146798
-0.0130203
-0.0089454
-0.00192512
0.0174709
0.0399403
0.0704716
0.106329
0.162645
0.248869
0.341718
0.436547
0.504543
0.556204
0.60085
0.630528
0.643731
0.665684
0.67813
0.685976
0.6872
0.664305
0.648692
0.609076
0.560787
0.496881
0.439515
0.384454
0.358188
0.332187
0.310291
0.28673
0.276553
0.252707
0.234276
0.213014
0.173532
0.166625
0.127782
0.134404
0.100531
0.109313
0.0749965
0.0643885
-0.000106219
-8.34268e-06
-1.22238e-05
3.78187e-06
7.11428e-06
1.77867e-05
1.95408e-05
2.253e-05
2.22956e-05
2.97032e-05
2.97181e-05
4.00833e-05
4.24593e-05
5.6059e-05
6.20857e-05
8.00341e-05
9.77927e-05
0.000103908
0.00012723
0.000158137
0.000181676
0.000208922
0.000239082
0.000277759
0.000322127
0.00036313
0.000405168
0.000464191
0.000539461
0.000597938
0.000668305
0.000781647
0.000865693
0.000973194
0.00114825
0.00141527
0.00166534
0.00197982
0.00230831
0.00272847
0.00279015
0.00272016
0.00262219
0.00117601
-0.00343462
-0.0413217
-0.25295
-0.494131
-0.405257
-0.359074
-0.336164
-0.331005
-0.311331
-0.285897
-0.258926
-0.229559
-0.201626
-0.17345
-0.146319
-0.122538
-0.10192
-0.0822008
-0.0617556
-0.0437198
-0.0310724
-0.0204666
-0.0138524
-0.0110926
-0.00885578
-0.00850007
-0.00829432
-0.00833303
-0.00920395
-0.00983049
-0.0103131
-0.00959679
-0.0072659
-0.00277217
0.00613613
0.0226984
0.0461887
0.0783049
0.123146
0.201653
0.313325
0.411822
0.495612
0.570514
0.597619
0.635902
0.677404
0.705707
0.714945
0.734181
0.733204
0.744501
0.736294
0.726225
0.687542
0.649036
0.572669
0.499949
0.440607
0.403223
0.368358
0.348903
0.32773
0.317688
0.295873
0.279558
0.248802
0.208351
0.188657
0.14825
0.148211
0.108784
0.114786
0.0758712
0.0671912
-9.95273e-05
-3.99009e-06
-8.77499e-06
5.81101e-06
9.55551e-06
1.90092e-05
2.32418e-05
2.46476e-05
2.46525e-05
3.04395e-05
3.36491e-05
4.35615e-05
4.48568e-05
5.89138e-05
6.72197e-05
8.2621e-05
0.000102653
0.0001106
0.000133003
0.00016662
0.000190781
0.000218018
0.00025043
0.000285596
0.000332759
0.000376104
0.000416982
0.000469184
0.00052368
0.000594027
0.000641514
0.000706159
0.000759292
0.000820086
0.000911501
0.000996229
0.00107145
0.00108731
0.00115337
0.00110205
0.0011977
0.00101032
0.000766145
-0.00138933
-0.0135114
-0.107448
-0.540188
-0.64221
-0.512428
-0.400257
-0.355183
-0.348576
-0.326295
-0.302164
-0.270094
-0.242535
-0.209298
-0.177866
-0.148275
-0.123864
-0.0987548
-0.0777217
-0.0571244
-0.0396923
-0.0248972
-0.0169371
-0.0116456
-0.00815315
-0.00646547
-0.00595151
-0.00637841
-0.00669019
-0.00737089
-0.00771745
-0.00750382
-0.00617251
-0.00302451
0.00261111
0.0128617
0.0291211
0.0539836
0.0900487
0.14911
0.255749
0.385201
0.493739
0.552314
0.615971
0.67296
0.681123
0.70985
0.752519
0.765576
0.789563
0.78555
0.795605
0.794375
0.783795
0.753128
0.715356
0.64445
0.579957
0.501058
0.442875
0.39582
0.374182
0.355595
0.348421
0.331196
0.317736
0.288315
0.250683
0.227443
0.180583
0.171822
0.122488
0.125953
0.0794837
0.0732852
-8.86024e-05
-2.6533e-07
-6.4924e-06
6.87457e-06
1.0128e-05
2.02663e-05
2.53562e-05
2.75571e-05
2.87778e-05
3.32573e-05
3.7562e-05
4.70562e-05
5.15338e-05
6.5035e-05
7.69753e-05
9.53638e-05
0.000115926
0.00012662
0.000149012
0.000189652
0.000219693
0.000248216
0.000281415
0.000324605
0.000370605
0.000429748
0.000479684
0.000538321
0.000597831
0.000672676
0.000745746
0.00083629
0.000935764
0.00106474
0.00121985
0.00132803
0.00145794
0.00157785
0.00177401
0.0017378
0.00194801
0.00161694
0.0020385
-0.00159597
-0.0173184
-0.188163
-0.69247
-0.746577
-0.676389
-0.527981
-0.438545
-0.397942
-0.352879
-0.320485
-0.286169
-0.251817
-0.214915
-0.180578
-0.15174
-0.122191
-0.0983879
-0.0753102
-0.0567786
-0.0365654
-0.0208025
-0.0136997
-0.011859
-0.0081997
-0.00583256
-0.00576934
-0.00603922
-0.00647919
-0.0061777
-0.00576813
-0.00525391
-0.00362749
-0.000425641
0.00756538
0.0189853
0.0343035
0.0622902
0.109297
0.203609
0.336219
0.481865
0.571929
0.61711
0.655363
0.703223
0.742676
0.762657
0.782988
0.815161
0.835341
0.839431
0.841953
0.845658
0.835952
0.814885
0.782349
0.724862
0.661582
0.568382
0.491279
0.43327
0.405388
0.385495
0.376639
0.364142
0.351918
0.331344
0.298921
0.268519
0.215717
0.195696
0.141545
0.135907
0.0833774
0.0809084
-7.94166e-05
5.05592e-06
-2.25169e-06
9.85945e-06
1.35852e-05
2.18986e-05
2.76848e-05
2.87613e-05
3.20167e-05
3.51782e-05
4.13924e-05
5.02369e-05
5.39476e-05
6.64907e-05
8.01305e-05
9.75821e-05
0.000117814
0.000133426
0.000154071
0.000192607
0.00022716
0.000255973
0.000288748
0.000326668
0.000373399
0.00042559
0.000475221
0.000527557
0.000580702
0.000644156
0.000704634
0.00074561
0.0008043
0.000867399
0.000932344
0.000996999
0.000993852
0.000982557
0.000919157
0.000858389
0.000599701
0.000171591
-0.000701526
-0.00738696
-0.0423459
-0.32815
-0.787736
-0.795901
-0.767401
-0.668464
-0.546169
-0.443404
-0.375002
-0.341372
-0.297396
-0.258407
-0.214822
-0.176792
-0.142615
-0.115596
-0.090882
-0.068237
-0.048528
-0.0348874
-0.0226099
-0.0125436
-0.00741744
-0.00689172
-0.00553945
-0.00503395
-0.00479639
-0.00479935
-0.00476265
-0.00442543
-0.0034458
-0.000711197
0.00448615
0.0142177
0.0274683
0.0431654
0.0753952
0.138479
0.282549
0.440104
0.561543
0.636379
0.692429
0.719884
0.744425
0.78398
0.813024
0.834966
0.860161
0.876775
0.89289
0.893156
0.886274
0.880069
0.861899
0.831094
0.788448
0.722586
0.629767
0.541391
0.469955
0.432408
0.409031
0.399541
0.38698
0.379039
0.365014
0.342769
0.312659
0.26104
0.230474
0.169141
0.151822
0.094479
0.0937541
-6.77978e-05
1.05802e-05
1.35634e-06
1.16698e-05
1.44508e-05
2.37012e-05
2.99143e-05
3.15997e-05
3.64366e-05
3.86263e-05
4.63109e-05
5.41388e-05
6.19877e-05
7.22067e-05
8.99179e-05
0.000111666
0.000130691
0.000149639
0.000171112
0.00021524
0.000257147
0.000287683
0.000322916
0.000366409
0.000412744
0.00046717
0.000531304
0.000592196
0.000654756
0.000716915
0.000799466
0.000861304
0.000934191
0.00100418
0.00105747
0.00114431
0.00118556
0.00124614
0.00118466
0.00126228
0.00118963
0.00113849
-0.000491374
-0.0100707
-0.0851244
-0.513778
-0.802872
-0.820003
-0.803148
-0.750628
-0.680896
-0.550026
-0.456324
-0.369326
-0.322303
-0.271487
-0.227919
-0.185417
-0.150041
-0.120614
-0.0939462
-0.0707104
-0.0507268
-0.0373317
-0.0242021
-0.0139431
-0.00853365
-0.00726322
-0.00615325
-0.00560843
-0.00520699
-0.00499982
-0.00465264
-0.00433691
-0.0030326
6.96236e-05
0.00661362
0.0165892
0.0320143
0.0540444
0.109047
0.231856
0.420131
0.57007
0.626234
0.683326
0.74409
0.787005
0.808494
0.827855
0.849465
0.865828
0.882873
0.905339
0.916927
0.938201
0.928265
0.926106
0.908914
0.881159
0.845491
0.787304
0.705646
0.604469
0.518314
0.46979
0.439993
0.427061
0.415194
0.408558
0.399262
0.383801
0.356925
0.30345
0.26588
0.19772
0.173009
0.106138
0.109618
-5.64652e-05
1.63869e-05
6.8889e-06
1.59717e-05
1.87933e-05
2.52244e-05
3.15982e-05
3.33954e-05
3.87701e-05
4.02609e-05
4.82157e-05
5.76314e-05
6.37914e-05
7.31806e-05
9.26628e-05
0.00011454
0.000132479
0.000153549
0.000177257
0.000217299
0.00025666
0.00029078
0.000331166
0.000366423
0.000406965
0.000457481
0.000517756
0.000581254
0.000635071
0.000682775
0.000739587
0.000791258
0.000859484
0.000918573
0.000955946
0.00100981
0.00099086
0.00109833
0.000958101
0.00115374
0.000738401
0.0011841
-0.00187764
-0.015018
-0.15086
-0.656191
-0.813538
-0.822626
-0.814409
-0.790976
-0.7504
-0.670539
-0.572341
-0.451502
-0.378542
-0.30036
-0.241576
-0.193275
-0.156105
-0.124398
-0.0963046
-0.0719108
-0.0537219
-0.037925
-0.0236324
-0.0144908
-0.00909734
-0.00682645
-0.00616072
-0.00566047
-0.00526774
-0.0046872
-0.00413635
-0.00377193
-0.00221774
0.00178243
0.00981534
0.0244335
0.0451274
0.0850249
0.187567
0.385592
0.523651
0.656541
0.714188
0.767972
0.792323
0.821413
0.86117
0.884287
0.911485
0.922081
0.929456
0.951113
0.94732
0.958543
0.953357
0.951207
0.942201
0.919695
0.892432
0.842993
0.768372
0.670029
0.570487
0.506959
0.467939
0.448721
0.43498
0.429335
0.422906
0.413477
0.389318
0.343502
0.306673
0.236442
0.202959
0.129254
0.134736
-4.46432e-05
2.3788e-05
1.15121e-05
1.87105e-05
2.06711e-05
2.76965e-05
3.43999e-05
3.58958e-05
4.41487e-05
4.48414e-05
5.3146e-05
6.16379e-05
7.2609e-05
7.96591e-05
0.000101038
0.00012642
0.000148838
0.000167426
0.000195078
0.000237855
0.000282817
0.000321599
0.00036104
0.000404951
0.00045242
0.000500268
0.000562899
0.000631418
0.000689733
0.000750035
0.000796864
0.000847447
0.000907864
0.000954877
0.000973771
0.00101458
0.000946969
0.000993705
0.000813397
0.000754434
0.000258562
-7.87657e-05
-0.00615294
-0.0352222
-0.293178
-0.775685
-0.818648
-0.816429
-0.810062
-0.802312
-0.782225
-0.744914
-0.656581
-0.575025
-0.442131
-0.347812
-0.25198
-0.213335
-0.166652
-0.133946
-0.100123
-0.0760262
-0.0553895
-0.0375765
-0.0222679
-0.0133105
-0.00858263
-0.00796313
-0.00798814
-0.00739461
-0.00640515
-0.00558867
-0.00516956
-0.004888
-0.00287748
0.00296229
0.0139782
0.0344084
0.0701903
0.171026
0.353587
0.570302
0.673942
0.724997
0.792111
0.835457
0.854683
0.880606
0.894961
0.915245
0.926891
0.944831
0.963945
0.986426
0.996423
0.993979
0.995442
0.986641
0.977257
0.959464
0.928789
0.885563
0.818129
0.729164
0.622482
0.543747
0.493719
0.468422
0.454396
0.450275
0.44802
0.442015
0.424283
0.38426
0.346157
0.271817
0.236082
0.156594
0.159579
-3.30927e-05
2.96341e-05
1.753e-05
2.36325e-05
2.50171e-05
2.89689e-05
3.63392e-05
3.70349e-05
4.56779e-05
4.75995e-05
5.27641e-05
6.41446e-05
7.6267e-05
7.90269e-05
0.000102855
0.000130116
0.000150372
0.000169666
0.000201023
0.000242123
0.000279341
0.00031906
0.000362947
0.00040738
0.000445908
0.000486281
0.000551678
0.000614098
0.000680709
0.000722927
0.000771686
0.000819098
0.000881044
0.000946644
0.00101023
0.00104619
0.00111865
0.00107086
0.00107609
0.000793359
0.000582087
-0.00120466
-0.00941085
-0.0701472
-0.467168
-0.806642
-0.833114
-0.829156
-0.818138
-0.806506
-0.795683
-0.778427
-0.744987
-0.674104
-0.552953
-0.418635
-0.305669
-0.247833
-0.188058
-0.144287
-0.104748
-0.0769392
-0.0555877
-0.0396766
-0.0251212
-0.0145118
-0.0102545
-0.00914534
-0.00892979
-0.00809139
-0.00696798
-0.00492501
-0.00557999
-0.00531696
-0.0022139
0.0083488
0.0270874
0.067476
0.151434
0.360971
0.5772
0.668596
0.764949
0.832882
0.840212
0.872804
0.916628
0.937233
0.956553
0.967943
0.978466
0.990131
0.995566
0.996629
1.0034
1.01091
1.01259
1.01508
0.998136
0.989795
0.959682
0.92442
0.866522
0.787447
0.678929
0.586162
0.525008
0.493135
0.474085
0.469216
0.466998
0.463188
0.45115
0.418253
0.384528
0.313022
0.277704
0.191429
0.190744
-1.9215e-05
3.82193e-05
2.3908e-05
2.76666e-05
2.83333e-05
3.22085e-05
3.88833e-05
4.04687e-05
4.94401e-05
5.1832e-05
5.8674e-05
6.76722e-05
8.22626e-05
9.00161e-05
0.000106699
0.000138617
0.000166885
0.000186432
0.000214285
0.000259365
0.000308268
0.000344433
0.000382135
0.000433574
0.000492912
0.000537575
0.000587329
0.0006505
0.000714255
0.000769677
0.00082467
0.000835845
0.000872207
0.000912486
0.000935494
0.00091532
0.000944259
0.000895987
0.00107716
0.000904619
0.00124901
-0.000863838
-0.0121072
-0.111719
-0.5809
-0.813933
-0.840449
-0.840732
-0.833836
-0.824631
-0.815083
-0.80276
-0.781997
-0.744797
-0.657848
-0.540143
-0.400775
-0.302358
-0.21827
-0.154961
-0.110703
-0.078616
-0.0554322
-0.0407825
-0.025644
-0.0143997
-0.0107686
-0.0108536
-0.0103183
-0.00887986
-0.00666238
-0.00362994
-0.00626595
-0.0018175
0.00904741
0.0386878
0.0868261
0.199102
0.411845
0.571006
0.748265
0.823222
0.854624
0.900347
0.919778
0.93584
0.947749
0.957936
0.971739
0.981112
1.00233
1.01517
1.03165
1.03128
1.03259
1.04105
1.03767
1.04009
1.02849
1.01542
0.992335
0.957336
0.904358
0.831066
0.728998
0.62484
0.551139
0.511634
0.488645
0.482598
0.480465
0.479805
0.473545
0.451303
0.422794
0.353501
0.315572
0.228535
0.219823
-9.28039e-06
4.43193e-05
2.99912e-05
3.25966e-05
3.25098e-05
3.37938e-05
4.11162e-05
4.21916e-05
4.96233e-05
5.56371e-05
5.75686e-05
6.86568e-05
8.55846e-05
9.41177e-05
0.000106315
0.000140766
0.000169748
0.000186372
0.000216998
0.000262233
0.000308677
0.000341884
0.000377781
0.000435669
0.000489695
0.000524318
0.000567698
0.000636396
0.000704822
0.00076869
0.000804797
0.000842205
0.000901743
0.00096794
0.00108075
0.00118658
0.00140327
0.00146725
0.00192478
0.00200638
0.00289492
-0.00011505
-0.0161746
-0.191497
-0.722135
-0.823773
-0.83895
-0.835422
-0.832804
-0.831243
-0.829537
-0.820193
-0.804668
-0.777064
-0.745091
-0.655708
-0.531782
-0.372142
-0.260808
-0.172273
-0.116871
-0.0768898
-0.0583916
-0.0432447
-0.028029
-0.0136378
-0.0130548
-0.0111579
-0.0122591
-0.00651795
-0.00028578
0.0164261
0.025796
0.0495538
0.101434
0.186477
0.340233
0.482417
0.648153
0.727163
0.80066
0.874633
0.927252
0.955231
0.975156
0.987259
0.99683
1.00783
1.01741
1.02177
1.02732
1.02961
1.03216
1.03757
1.04282
1.04748
1.0512
1.04626
1.047
1.0325
1.01714
0.985974
0.941584
0.87483
0.780551
0.669216
0.584419
0.535991
0.5075
0.498425
0.496733
0.498404
0.497595
0.483122
0.45869
0.394054
0.356047
0.268246
0.251542
6.00786e-06
5.37976e-05
3.76653e-05
3.80482e-05
3.68435e-05
3.72544e-05
4.36409e-05
4.48165e-05
5.27787e-05
5.79216e-05
6.52412e-05
7.07526e-05
9.0145e-05
0.000103495
0.000116242
0.000142963
0.000180022
0.000204851
0.000230617
0.0002733
0.000324265
0.000367863
0.000405032
0.000446851
0.000512625
0.000575721
0.00060932
0.000664644
0.000732233
0.000790099
0.00084152
0.00087619
0.00088781
0.000894572
0.000922612
0.000898301
0.000824733
0.000654912
0.000382281
-0.000518633
-0.00118632
-0.00902189
-0.0422466
-0.323847
-0.790673
-0.813957
-0.823427
-0.823875
-0.825582
-0.828232
-0.830069
-0.831684
-0.825976
-0.81449
-0.783943
-0.742032
-0.63488
-0.508658
-0.31513
-0.202048
-0.119533
-0.0782986
-0.0633473
-0.043357
-0.0314704
-0.00710406
0.009141
0.0154966
0.0283617
0.0562597
0.0894125
0.146622
0.239259
0.304482
0.377976
0.460846
0.558049
0.643319
0.723294
0.791583
0.863389
0.909483
0.933526
0.965947
0.989465
1.00465
1.01169
1.02078
1.02862
1.03629
1.04486
1.05072
1.05507
1.05858
1.06534
1.06731
1.07194
1.06624
1.0645
1.05455
1.03712
1.01042
0.969762
0.909212
0.820759
0.709142
0.613471
0.556384
0.523109
0.510747
0.509263
0.513424
0.516112
0.510154
0.489629
0.433342
0.392507
0.308268
0.284378
1.4375e-05
5.93531e-05
4.33068e-05
4.27353e-05
4.08942e-05
3.97186e-05
4.55496e-05
4.58817e-05
5.33353e-05
6.03931e-05
6.52128e-05
7.0539e-05
9.23976e-05
0.000109447
0.000116462
0.000142953
0.000183995
0.000204034
0.000232925
0.000272752
0.000329191
0.000364906
0.000398215
0.000448245
0.000511836
0.000570261
0.000591374
0.00065262
0.000710208
0.000790556
0.000838353
0.000872907
0.000877178
0.000886037
0.000952389
0.000948484
0.000870484
0.000695514
0.000344426
-2.17983e-05
-0.00171391
-0.00881351
-0.0594549
-0.428655
-0.785752
-0.836055
-0.844412
-0.848281
-0.848555
-0.853631
-0.851141
-0.847186
-0.840113
-0.830942
-0.822495
-0.790384
-0.730861
-0.61779
-0.428175
-0.230763
-0.121929
-0.0678172
-0.0285065
-0.00123418
0.0459434
0.0850288
0.169104
0.214588
0.247081
0.274298
0.332391
0.384247
0.450179
0.493601
0.532894
0.58228
0.632484
0.682477
0.735095
0.779269
0.822962
0.876786
0.935458
0.97784
1.00813
1.0279
1.0338
1.04307
1.04862
1.05143
1.05089
1.05399
1.05838
1.06368
1.06852
1.07316
1.07648
1.07775
1.07166
1.06662
1.05083
1.02902
0.993002
0.939215
0.857749
0.751572
0.647821
0.581332
0.543393
0.527083
0.52484
0.530489
0.536913
0.537101
0.519857
0.470078
0.430562
0.349171
0.317843
2.9307e-05
6.90418e-05
5.15748e-05
4.93121e-05
4.64742e-05
4.34873e-05
4.91115e-05
4.8277e-05
5.42616e-05
6.22181e-05
7.032e-05
7.33304e-05
9.41966e-05
0.000114443
0.000128059