/*--------------------------------*- C++ -*----------------------------------*\
| =========                 |                                                 |
| \\      /  F ield         | OpenFOAM: The Open Source CFD Toolbox           |
|  \\    /   O peration     | Version:  2.2.x                                 |
|   \\  /    A nd           | Web:      www.OpenFOAM.org                      |
|    \\/     M anipulation  |                                                 |
\*---------------------------------------------------------------------------*/
FoamFile
{
    version     2.0;
    format      ascii;
    class       surfaceScalarField;
    location    "2.2";
    object      cfmax;
}
// * * * * * * * * * * * * * * * * * * * * * * * * * * * * * * * * * * * * * //

dimensions      [0 3 -1 0 0 0 0];

internalField   nonuniform List<scalar> 
28084
(
0.0012595
0.00125037
0.00124676
0.00124272
0.0012398
0.00123743
0.00123576
0.00123465
0.00123409
0.00123402
0.00123441
0.00123518
0.0012363
0.00123772
0.00123938
0.00124125
0.00124329
0.00124546
0.00124768
0.00124994
0.00125221
0.00125444
0.00125659
0.00125867
0.00126062
0.00126244
0.00126408
0.00126555
0.00126679
0.0012679
0.00126874
0.00126938
0.00126963
0.00126978
0.00126966
0.00126938
0.00126864
0.00126786
0.00126708
0.00126646
0.00126551
0.00126584
0.0012646
0.00127077
0.00126733
0.00131805
0.00105354
0.000887437
0.000935472
0.000954446
0.000966903
0.000979549
0.000992749
0.00100623
0.00102011
0.00103473
0.00104977
0.00106572
0.00108128
0.00109653
0.00111242
0.00112777
0.00114281
0.0011571
0.0011702
0.00118215
0.00119272
0.00120231
0.00121111
0.00121917
0.00122637
0.00123267
0.00123858
0.00124403
0.00124887
0.00125294
0.00125676
0.00125882
0.0012594
0.00125753
0.00125335
0.001245
0.00123071
0.00121336
0.00119835
0.00118614
0.001175
0.00116342
0.00114952
0.00113472
0.00112184
0.00110979
0.00110021
0.00109218
0.0010858
0.00107897
0.00107062
0.0010552
0.00103196
0.0010066
0.00097785
0.000949695
0.000918185
0.000891595
0.000865193
0.000842249
0.000821349
0.000804823
0.000789753
0.000777649
0.000766135
0.000757489
0.000749867
0.000745593
0.000741848
0.000741049
0.000739683
0.000738182
0.00363451
0.00361465
0.00126544
0.00360534
0.00126013
0.00358399
0.00126033
0.00355649
0.00126001
0.00352159
0.0012608
0.00347994
0.00126211
0.00343174
0.00126407
0.00337738
0.00126654
0.00331726
0.00126951
0.00325208
0.00127293
0.00318233
0.00127678
0.00310819
0.00128095
0.00303017
0.0012854
0.00294878
0.0012901
0.00286451
0.00129498
0.00277792
0.00129999
0.00268949
0.0013051
0.00259967
0.00131026
0.00250891
0.00131539
0.00241767
0.00132048
0.00232638
0.00132549
0.00223538
0.00133036
0.00214506
0.00133507
0.00205572
0.00133961
0.00196765
0.00134392
0.00188109
0.00134799
0.00179628
0.0013518
0.00171341
0.00135527
0.0016327
0.00135852
0.00155421
0.00136145
0.0014781
0.00136418
0.00140439
0.00136631
0.00133322
0.00136822
0.00126465
0.00136989
0.00119866
0.00137135
0.00113534
0.00137244
0.00107474
0.001373
0.00101704
0.00137352
0.000961921
0.00137395
0.00090954
0.00137442
0.000859538
0.00137487
0.000812859
0.00137568
0.000768818
0.00137486
0.000730025
0.00137836
0.000763485
0.00137101
0.00080604
0.00138761
0.00061135
0.000953515
0.000602768
0.000898791
0.000610161
0.000918399
0.000612828
0.000938501
0.000615067
0.000954004
0.000617428
0.000969374
0.000619856
0.0009848
0.000622453
0.00100063
0.000625493
0.00101763
0.000629289
0.00103509
0.000633652
0.00105298
0.000637361
0.00107162
0.000640726
0.00108937
0.000644423
0.00110685
0.000648859
0.00112407
0.000653286
0.00114128
0.000656545
0.00115719
0.000659259
0.00117114
0.000662251
0.00118373
0.00066554
0.00119479
0.000668873
0.00120465
0.000671803
0.00121346
0.000674605
0.00122127
0.000677595
0.00122838
0.000680642
0.00123473
0.000683884
0.00124047
0.000687656
0.00124584
0.000691859
0.00125089
0.000696732
0.00125566
0.000702149
0.00126078
0.000707985
0.00126554
0.000713029
0.00126799
0.000717228
0.00126813
0.000721864
0.0012659
0.000725949
0.00126104
0.000726718
0.00125009
0.00072651
0.00123001
0.000730857
0.00121022
0.000735877
0.00119641
0.00073987
0.00118566
0.000743476
0.00117359
0.000744687
0.00115874
0.000745958
0.00114144
0.000744418
0.00112266
0.000741296
0.00109527
0.000739472
0.00106538
0.000736899
0.00103461
0.00073457
0.00100166
0.000732981
0.000970538
0.000732814
0.000941643
0.000725826
0.000913443
0.000718874
0.000882175
0.000709881
0.000853453
0.000702807
0.000830041
0.000696657
0.000811038
0.000693941
0.000794606
0.000688704
0.000779932
0.000684212
0.000765793
0.000677871
0.000752915
0.00067305
0.000741808
0.000667428
0.0007327
0.000664703
0.000725632
0.000661516
0.000719411
0.000661177
0.000714728
0.000659635
0.000710385
0.000661423
0.000707906
0.000662086
0.000706427
0.000666316
0.00070834
0.000669956
0.000710862
0.000677283
0.000716473
0.000684664
0.000721778
0.000695017
0.000728251
0.00363558
0.00361526
0.00127335
0.00360556
0.00127181
0.00358379
0.00127576
0.00355589
0.00127916
0.00352063
0.00128361
0.00347862
0.00128853
0.00343117
0.00129406
0.00337777
0.00130008
0.00331854
0.00130656
0.00325396
0.00131345
0.00318443
0.00132069
0.00311047
0.00132822
0.00303262
0.00133598
0.00295136
0.00134393
0.0028672
0.00135198
0.00278067
0.0013601
0.00269229
0.00136825
0.00260249
0.00137637
0.00251174
0.00138439
0.00242049
0.00139228
0.00232915
0.00139998
0.00223809
0.00140747
0.00214769
0.00141471
0.00205826
0.00142167
0.00197007
0.00142831
0.0018834
0.0014346
0.00179842
0.00144055
0.00171544
0.00144603
0.00163457
0.00145121
0.00155599
0.00145599
0.00147961
0.00146042
0.0014057
0.00146414
0.00133433
0.00146752
0.00126561
0.00147049
0.00119936
0.00147318
0.0011356
0.00147524
0.0010745
0.00147664
0.00101598
0.00147741
0.000960419
0.00147805
0.00090751
0.00147833
0.000856747
0.00147799
0.00080957
0.00147793
0.000763871
0.00147641
0.000718962
0.00147551
0.000778338
0.00147246
0.000763588
0.00147756
0.000615734
0.000979498
0.000584635
0.000923747
0.00058744
0.000932991
0.000590095
0.000946947
0.000592646
0.000962546
0.000596382
0.000978718
0.000600488
0.000996033
0.000605383
0.00101452
0.000609843
0.00103374
0.000615448
0.00105354
0.00062089
0.00107346
0.0006254
0.00109426
0.000630284
0.00111474
0.000634295
0.00113397
0.000639635
0.001152
0.000643774
0.00116996
0.000647173
0.00118755
0.000650652
0.00120296
0.000653767
0.00121597
0.000656592
0.00122699
0.000659289
0.00123664
0.000662085
0.00124527
0.000665039
0.00125284
0.000668208
0.00125938
0.000672119
0.0012654
0.000677035
0.00127173
0.000681556
0.00127817
0.000685071
0.00128255
0.000688414
0.00128623
0.000692635
0.00129005
0.000698026
0.00129296
0.000706072
0.00129512
0.000713877
0.00129663
0.000719975
0.00129407
0.000723581
0.00128742
0.000725465
0.00127261
0.00072598
0.00125283
0.000723526
0.00122912
0.000721524
0.00120757
0.000723977
0.00118953
0.000731699
0.00117282
0.000732161
0.00115244
0.00073198
0.00111943
0.000730614
0.00108418
0.000712781
0.00103639
0.000685162
0.000960394
0.000659032
0.000899585
0.000642104
0.000846659
0.000631028
0.000805626
0.000630236
0.000774231
0.000630071
0.00074832
0.00063245
0.000727242
0.000632952
0.00070943
0.000635177
0.000693775
0.000635039
0.000679638
0.000636202
0.000669064
0.000637794
0.00066044
0.000641193
0.000654104
0.00064309
0.000648526
0.000646154
0.000644169
0.000648136
0.000641668
0.000651876
0.000640677
0.000653382
0.000641019
0.000657742
0.000642582
0.000659679
0.000644991
0.000665786
0.000649409
0.000668293
0.000655195
0.000676192
0.000664543
0.000681918
0.000674915
0.000693523
0.000689051
0.000701464
0.000704339
0.000714833
0.000721414
0.0036344
0.00361366
0.00128326
0.00360357
0.00128543
0.00358143
0.00129308
0.0035548
0.00130012
0.00352144
0.00130819
0.00348122
0.00131668
0.00343436
0.00132575
0.00338126
0.00133528
0.00332228
0.00134522
0.0032579
0.00135551
0.00318857
0.00136611
0.00311477
0.00137696
0.00303705
0.00138799
0.00295588
0.00139914
0.00287178
0.00141034
0.00278528
0.00142153
0.0026969
0.00143267
0.00260708
0.00144373
0.00251628
0.00145459
0.00242495
0.00146524
0.00233351
0.00147563
0.00224235
0.0014857
0.00215181
0.00149544
0.00206222
0.0015048
0.00197386
0.00151374
0.001887
0.00152225
0.00180183
0.00153033
0.00171863
0.0015379
0.00163756
0.00154494
0.00155875
0.00155154
0.00148216
0.00155759
0.00140799
0.00156318
0.00133641
0.00156815
0.00126747
0.00157275
0.00120098
0.0015769
0.00113699
0.00158057
0.00107565
0.0015837
0.00101692
0.00158635
0.000960985
0.00158888
0.000907194
0.00159121
0.000856814
0.00159328
0.000809397
0.00159462
0.000763335
0.0015966
0.000721024
0.00159676
0.000804046
0.00159836
0.000736631
0.00152924
0.000615614
0.00102296
0.000581352
0.000967635
0.000578689
0.000970864
0.000581962
0.000983234
0.00058672
0.00100212
0.00059183
0.00101997
0.000598045
0.00104052
0.000605289
0.00106111
0.000610616
0.0010827
0.000617577
0.00110421
0.000623575
0.00112561
0.000628577
0.00114787
0.000634312
0.00117017
0.000638691
0.00119023
0.000644371
0.00120885
0.000648114
0.00122672
0.00065119
0.00124487
0.000653966
0.00125947
0.000656248
0.00127161
0.000658812
0.00128227
0.000661571
0.00129191
0.000664421
0.00129995
0.000667132
0.00130645
0.00067002
0.00131213
0.000672995
0.0013172
0.000676036
0.00132132
0.000679001
0.00132489
0.000683167
0.00132865
0.000688161
0.00133387
0.000692576
0.00133793
0.000697821
0.00133991
0.000704066
0.00134022
0.000709798
0.00133704
0.000716379
0.00133117
0.000722294
0.00132274
0.000723926
0.00130704
0.000724038
0.00128395
0.000725635
0.00125947
0.000726107
0.00124132
0.000728318
0.00122201
0.000728375
0.00119374
0.00072392
0.00115256
0.000718323
0.00110333
0.000682521
0.00103039
0.000676857
0.000953183
0.000667157
0.000899691
0.000656159
0.000857044
0.000644485
0.000818301
0.000637045
0.000781848
0.000631382
0.000744134
0.000625619
0.00071335
0.000622891
0.00069153
0.000621462
0.000671712
0.000624223
0.000655712
0.000628181
0.000644134
0.000634054
0.000634775
0.00063655
0.000627447
0.000640427
0.000621588
0.000642414
0.000617011
0.000645586
0.000614026
0.000647814
0.000612619
0.000652638
0.000613103
0.00065582
0.000614346
0.000662023
0.000617466
0.000664702
0.000621682
0.000671874
0.000628752
0.000674174
0.000637744
0.000683662
0.000649031
0.0006881
0.000661673
0.000700988
0.000677653
0.000707562
0.00069532
0.000727572
0.000714691
0.00363096
0.00361124
0.00129514
0.00360402
0.00130097
0.00358476
0.00131226
0.00355922
0.0013229
0.00352618
0.00133452
0.0034863
0.00134653
0.00343974
0.00135909
0.00338688
0.00137206
0.00332811
0.0013854
0.00326391
0.00139905
0.00319475
0.00141298
0.00312108
0.0014271
0.00304345
0.00144134
0.00296233
0.00145565
0.00287826
0.00146994
0.00279176
0.00148417
0.00270334
0.00149827
0.00261344
0.0015122
0.00252255
0.00152587
0.00243109
0.00153924
0.0023395
0.00155226
0.00224817
0.00156489
0.00215745
0.00157708
0.00206765
0.00158881
0.00197909
0.00160002
0.001892
0.00161071
0.00180661
0.00162084
0.00172313
0.00163034
0.00164179
0.00163928
0.00156264
0.0016477
0.00148581
0.00165543
0.00141136
0.00166243
0.00133946
0.00166874
0.00127013
0.00167454
0.00120328
0.00167971
0.00113895
0.00168407
0.001077
0.00168759
0.00101759
0.00168966
0.000960947
0.00169123
0.000906381
0.00169196
0.000854954
0.00169207
0.000805407
0.00169042
0.000759891
0.00168983
0.000715427
0.00168566
0.000813837
0.00168604
0.000689851
0.00146815
0.000598554
0.0010411
0.000572374
0.000993201
0.00057435
0.00100094
0.000581786
0.00101824
0.000589752
0.00104579
0.00059648
0.00107012
0.000604067
0.00109482
0.000612872
0.00111827
0.000619058
0.00114472
0.000626877
0.00117065
0.000631927
0.00119195
0.000636533
0.00121535
0.000642897
0.00123855
0.00064722
0.00125973
0.000652244
0.00127907
0.000654756
0.00129554
0.000656717
0.00131324
0.000659009
0.00132926
0.000660695
0.00134173
0.000662924
0.00135121
0.000665473
0.00135989
0.000667677
0.00136741
0.000670084
0.00137362
0.000672696
0.00137881
0.000675088
0.0013836
0.000677233
0.00138814
0.000680127
0.0013931
0.000684873
0.00139598
0.000689699
0.00139729
0.000693088
0.00139794
0.000699426
0.00139843
0.000706863
0.00139987
0.00071364
0.00139861
0.000722145
0.00139278
0.000729572
0.00138301
0.000733247
0.00136424
0.00073303
0.00134153
0.000734483
0.00130944
0.000727597
0.00127543
0.00072242
0.00123993
0.00072928
0.00120211
0.000732131
0.00116012
0.000729261
0.00109985
0.000721693
0.00104491
0.000711225
0.000998433
0.000695822
0.000944312
0.000683049
0.000890965
0.000666874
0.000843559
0.000656161
0.000795972
0.000647854
0.000758396
0.000641368
0.000729044
0.000637882
0.000705506
0.000633252
0.000684071
0.000632503
0.000665866
0.000633645
0.000650034
0.000637295
0.000638231
0.000641151
0.000629501
0.000644859
0.000622865
0.000647177
0.000617711
0.000650298
0.000613634
0.000652448
0.000610939
0.00065775
0.000610808
0.00066038
0.000612442
0.000666353
0.00061623
0.000669118
0.000621364
0.000676057
0.00062847
0.0006778
0.000636562
0.000687661
0.000648989
0.000691289
0.000662705
0.000704465
0.000678279
0.000710307
0.00069561
0.00073298
0.00071284
0.00363393
0.00361684
0.00130904
0.00360997
0.00131844
0.00359105
0.00133332
0.00356584
0.00134747
0.00353312
0.0013626
0.00349352
0.00137806
0.00344722
0.00139404
0.0033946
0.0014104
0.00333602
0.0014271
0.00327199
0.00144407
0.00320297
0.00146126
0.00312938
0.00147859
0.0030518
0.00149599
0.0029707
0.0015134
0.00288662
0.00153075
0.00280006
0.00154796
0.00271155
0.00156497
0.00262153
0.00158175
0.00253048
0.00159818
0.00243884
0.00161423
0.00234707
0.00162985
0.00225551
0.00164499
0.00216455
0.00165961
0.00207449
0.00167367
0.00198562
0.00168713
0.00189823
0.00170001
0.0018125
0.0017122
0.00172872
0.00172368
0.00164707
0.00173449
0.00156758
0.00174462
0.00149038
0.00175418
0.00141558
0.00176284
0.00134334
0.00177083
0.00127366
0.00177827
0.0012065
0.00178507
0.00114182
0.00179117
0.00107957
0.00179652
0.00101981
0.00180099
0.000962681
0.00180533
0.000907956
0.00180918
0.000855676
0.00181275
0.000805756
0.0018152
0.000759294
0.00181791
0.000716416
0.00181774
0.000783112
0.00182111
0.000633944
0.00149141
0.000578312
0.00106355
0.000566521
0.0010227
0.000575853
0.0010307
0.00058771
0.00105845
0.000600209
0.00109428
0.000609357
0.00112762
0.000618931
0.00115819
0.000629709
0.00118625
0.00063763
0.00121647
0.000646068
0.00124549
0.000649949
0.00126872
0.000654097
0.00129571
0.000661112
0.00131976
0.000665014
0.00134076
0.000669204
0.00136055
0.000670045
0.00137684
0.000672131
0.00139419
0.000674708
0.00141014
0.000676141
0.00142187
0.000677194
0.00143079
0.000678764
0.00143782
0.000680799
0.00144468
0.000682892
0.00145072
0.000685156
0.00145416
0.000687937
0.0014565
0.000691217
0.00145831
0.000694523
0.00145901
0.000697081
0.00145899
0.000699164
0.00146
0.000701755
0.00146272
0.000710527
0.00146448
0.000721783
0.00146299
0.000731557
0.00145745
0.000741343
0.00144947
0.000750809
0.0014399
0.000757208
0.00142283
0.00074872
0.00138786
0.000745767
0.00134207
0.000741001
0.00131249
0.000739159
0.00128534
0.000753062
0.00124728
0.000763389
0.00118468
0.000765006
0.00113984
0.000759239
0.00108968
0.000752735
0.00103167
0.000736541
0.000986231
0.000725469
0.000944226
0.000702428
0.000900379
0.000680562
0.000856781
0.000669285
0.000812358
0.000662343
0.000773592
0.000656251
0.000740248
0.000648461
0.000711756
0.000646111
0.00068971
0.000643972
0.000672521
0.000645103
0.000658309
0.000647795
0.000645818
0.000650846
0.000636096
0.000653302
0.000628412
0.000655894
0.000623161
0.000657472
0.000619606
0.000662361
0.000618314
0.000664494
0.000619176
0.000670262
0.00062264
0.000672713
0.000626861
0.000679695
0.000633485
0.000680679
0.000643865
0.000690639
0.000655583
0.000693665
0.000668275
0.000707169
0.000682846
0.000712406
0.000698694
0.000736533
0.000714631
0.00364135
0.00362468
0.00132493
0.00361814
0.00133784
0.00359955
0.00135622
0.00357465
0.00137383
0.00354222
0.00139238
0.00350288
0.00141125
0.00345682
0.00143059
0.00340442
0.00145027
0.00334602
0.00147025
0.00328212
0.00149046
0.00321318
0.00151084
0.00313967
0.00153134
0.00306212
0.00155186
0.00298101
0.00157232
0.00289687
0.00159266
0.00281022
0.0016128
0.00272159
0.00163267
0.00263141
0.00165224
0.00254016
0.00167138
0.0024483
0.00169006
0.00235626
0.00170823
0.00226443
0.00172582
0.00217316
0.00174282
0.00208278
0.00175916
0.00199361
0.0017748
0.00190588
0.00178976
0.00181981
0.00180395
0.00173566
0.00181733
0.0016536
0.00182996
0.00157376
0.00184181
0.00149618
0.00185291
0.00142105
0.00186302
0.00134847
0.0018724
0.00127839
0.00188097
0.00121083
0.00188879
0.00114568
0.00189549
0.00108292
0.00190102
0.00102275
0.00190505
0.000964958
0.00190791
0.000909214
0.00190964
0.000855772
0.00190915
0.000803599
0.00190577
0.000755322
0.0019023
0.000707742
0.00189056
0.000738266
0.00188456
0.000562848
0.00138864
0.000546086
0.00107576
0.000571196
0.00105882
0.000587442
0.00108192
0.00060295
0.00111872
0.000618309
0.00115684
0.000629425
0.00119552
0.000639668
0.00123365
0.00065048
0.00126471
0.000658178
0.00129507
0.000668418
0.00132448
0.000672615
0.00135357
0.000676168
0.00138033
0.000682666
0.0014058
0.000683858
0.00142734
0.00068745
0.00144764
0.000687032
0.00146567
0.000689172
0.00148389
0.000689711
0.0015021
0.000690053
0.00151543
0.000690158
0.00152578
0.000691007
0.00153228
0.000692342
0.00153816
0.000693706
0.00154304
0.00069524
0.00154597
0.000697209
0.00154798
0.000698667
0.00154967
0.000700196
0.0015512
0.000702538
0.00155038
0.000706429
0.00154834
0.000712663
0.00154406
0.000721708
0.00154044
0.000731653
0.00153721
0.000740678
0.00153497
0.000752747
0.00152862
0.000765908
0.00151556
0.000775199
0.00149325
0.00076476
0.00147115
0.000759887
0.00142639
0.000765415
0.00137326
0.000762637
0.0013162
0.00077827
0.00126027
0.000797416
0.00122211
0.000806951
0.00117756
0.000796658
0.00114029
0.000782972
0.00111176
0.000777909
0.00107194
0.000770893
0.00102389
0.000750527
0.000979131
0.000729944
0.000927773
0.000708485
0.000875005
0.00069302
0.000829175
0.00067986
0.000787693
0.000667303
0.000756041
0.000662687
0.000729962
0.000659745
0.000706499
0.000659233
0.00068675
0.0006587
0.000671096
0.000659449
0.000658727
0.000660334
0.000648841
0.000662025
0.000641307
0.000663144
0.000635594
0.000666723
0.000631675
0.000668238
0.000629952
0.000674048
0.000631596
0.000676138
0.000634171
0.000683277
0.000640101
0.000683436
0.000649545
0.000693586
0.000660677
0.000696222
0.000672542
0.000709812
0.000686366
0.000714216
0.000700985
0.000739434
0.000716448
0.00365108
0.00363475
0.00134285
0.00362852
0.00135917
0.00361023
0.00138098
0.00358562
0.00140198
0.00355347
0.00142388
0.00351439
0.00144606
0.00346855
0.00146869
0.00341632
0.00149163
0.00335807
0.00151483
0.00329427
0.00153822
0.0032254
0.00156175
0.00315193
0.00158532
0.00307437
0.00160889
0.00299321
0.00163235
0.00290897
0.00165562
0.00282219
0.00167862
0.00273338
0.0017013
0.00264299
0.0017236
0.00255149
0.00174541
0.00245936
0.00176667
0.002367
0.00178735
0.00227483
0.00180736
0.00218319
0.0018267
0.00209242
0.00184529
0.00200284
0.00186311
0.0019147
0.00188012
0.0018282
0.00189632
0.0017436
0.00191172
0.00166109
0.00192617
0.00158081
0.00193975
0.00150277
0.00195245
0.00142717
0.00196422
0.00135413
0.00197524
0.00128361
0.00198538
0.00121561
0.0019948
0.00115005
0.00200321
0.00108687
0.00201063
0.00102611
0.0020168
0.000967976
0.00202238
0.000911605
0.00202715
0.000857075
0.00203134
0.000804816
0.0020339
0.000754355
0.00203721
0.000715919
0.00203363
0.000676365
0.00203445
0.000576045
0.00166753
0.000544251
0.00119799
0.000586595
0.00115617
0.000612758
0.00119044
0.000631398
0.00123888
0.000645525
0.0012821
0.000657137
0.00132136
0.000668384
0.00136041
0.000675723
0.00139826
0.000681112
0.00142897
0.000691414
0.00145996
0.000694406
0.00148721
0.000696804
0.00151315
0.000700517
0.00153904
0.000698992
0.00155574
0.000702691
0.00157513
0.000702174
0.00159118
0.000704628
0.00160538
0.000702255
0.00162
0.000702381
0.00162996
0.000701295
0.001639
0.000701819
0.00164467
0.000702457
0.00165178
0.000703176
0.00165481
0.000704144
0.00165613
0.000705739
0.00165589
0.000706697
0.00165445
0.000708273
0.00165086
0.000709561
0.00164786
0.000714344
0.0016444
0.000720834
0.00164098
0.000729405
0.00163823
0.000741954
0.00163447
0.000754811
0.00162516
0.000768905
0.00161361
0.000782099
0.00159945
0.000799365
0.00158398
0.000800623
0.00156064
0.000789671
0.00149483
0.000791875
0.00143909
0.000789728
0.00139336
0.000812366
0.00134808
0.000839964
0.00130267
0.000837588
0.00126714
0.00084674
0.00123281
0.000846479
0.00119098
0.000834586
0.00115311
0.000825135
0.00111126
0.000803463
0.00106208
0.000779233
0.00101074
0.0007543
0.000956677
0.000731447
0.000903631
0.000712845
0.0008528
0.000696034
0.0008107
0.000688242
0.000773787
0.000679733
0.00074412
0.000675051
0.000721423
0.000671947
0.000703501
0.000670858
0.000687797
0.000670632
0.000674172
0.000671126
0.000663343
0.000671217
0.000655219
0.000673031
0.000648583
0.000672883
0.000644221
0.000678315
0.000643178
0.000679785
0.000643257
0.00068711
0.000646735
0.00068661
0.00065381
0.0006969
0.000664529
0.000699071
0.000675821
0.000712705
0.000689057
0.000716567
0.000702559
0.000741465
0.000717871
0.00366297
0.00364702
0.00136279
0.00364107
0.00138244
0.00362309
0.0014076
0.00359875
0.00143189
0.00356685
0.00145707
0.00352799
0.00148249
0.00348235
0.00150832
0.00343029
0.00153443
0.00337219
0.00156079
0.00330849
0.00158729
0.00323964
0.00161388
0.00316616
0.00164048
0.00308857
0.00166702
0.00300731
0.00169339
0.00292294
0.00171952
0.00283598
0.00174533
0.00274696
0.00177075
0.00265632
0.00179572
0.00256454
0.00182013
0.00247208
0.00184391
0.00237938
0.00186703
0.00228683
0.00188941
0.00219479
0.00191102
0.00210361
0.0019318
0.00201357
0.00195172
0.00192497
0.00197074
0.00183807
0.00198882
0.00175303
0.00200601
0.00167004
0.00202226
0.00158923
0.00203753
0.00151073
0.00205171
0.00143472
0.00206496
0.00136125
0.00207732
0.00129031
0.00208875
0.00122196
0.00209922
0.00115609
0.00210854
0.00109257
0.00211672
0.00103171
0.0021233
0.000973379
0.00212931
0.00091761
0.00213411
0.000863593
0.00213838
0.000813135
0.00214062
0.000763019
0.00214337
0.000719887
0.00214184
0.000766328
0.0021422
0.000683219
0.00211884
0.000548846
0.00137223
0.000626546
0.00131115
0.000662527
0.00135688
0.000684058
0.00143107
0.000698695
0.00147993
0.000705333
0.00151677
0.000717247
0.00155525
0.000721259
0.00158559
0.000722578
0.00160676
0.000729475
0.00163396
0.000727875
0.001651
0.000729838
0.00166676
0.000727086
0.00168204
0.000723622
0.00169287
0.00072504
0.00171479
0.000721311
0.0017211
0.000720834
0.00172826
0.000715516
0.00174152
0.000714629
0.00174787
0.000712144
0.00175607
0.000712699
0.00175806
0.000712402
0.00176091
0.000713033
0.0017609
0.00071335
0.00175916
0.000712961
0.00175606
0.00071228
0.00175319
0.000712595
0.00174988
0.000717743
0.0017447
0.00072636
0.00173963
0.000736242
0.00173235
0.000745827
0.00172283
0.000757582
0.0017155
0.000767288
0.00171058
0.000783264
0.00169969
0.000801766
0.00168804
0.000818533
0.00167743
0.000826975
0.001639
0.00081778
0.00160333
0.000827355
0.00153662
0.000845751
0.00148581
0.000871886
0.00143373
0.00088593
0.00139657
0.000896508
0.00136241
0.00089592
0.00132563
0.000889613
0.00128063
0.000891284
0.00124433
0.000876302
0.00120352
0.000862603
0.0011491
0.000839512
0.0010945
0.000815635
0.00103742
0.000783424
0.000980542
0.000754728
0.00092464
0.000729923
0.0008711
0.000716036
0.000822639
0.000702465
0.000786863
0.000696357
0.000759399
0.000690656
0.000736499
0.00068717
0.000717918
0.000684091
0.000703275
0.000682456
0.000690983
0.000681436
0.000680919
0.000681587
0.00067152
0.000679865
0.000663794
0.000684086
0.000658167
0.00068416
0.000654697
0.000691475
0.000656459
0.00069038
0.000658814
0.000700545
0.000667174
0.000702292
0.000678067
0.000715798
0.000690812
0.000719764
0.00070314
0.000742743
0.000718177
0.00367712
0.00366146
0.00138481
0.0036558
0.00140767
0.00363808
0.00143609
0.003614
0.00146358
0.00358233
0.00149194
0.00354369
0.00152052
0.00349821
0.00154948
0.0034463
0.00157868
0.00338831
0.0016081
0.00332468
0.00163762
0.00325586
0.0016672
0.00318234
0.00169674
0.00310466
0.00172618
0.00302328
0.00175541
0.00293873
0.00178433
0.00285156
0.00181288
0.00276227
0.00184097
0.00267134
0.00186854
0.00257922
0.00189548
0.00248638
0.00192172
0.00239326
0.00194723
0.00230028
0.00197193
0.00220778
0.00199577
0.0021161
0.00201871
0.00202556
0.00204071
0.0019364
0.00206174
0.00184892
0.00208182
0.00176337
0.00210079
0.00167983
0.00211873
0.00159842
0.00213567
0.00151936
0.0021516
0.00144278
0.00216642
0.00136875
0.00218027
0.00129731
0.00219315
0.0012284
0.00220491
0.00116196
0.00221563
0.0010978
0.00222524
0.00103648
0.0022339
0.000977428
0.00224163
0.00092128
0.0022485
0.000866736
0.00225445
0.000815851
0.00226014
0.000763952
0.00226484
0.000719489
0.00227029
0.000735389
0.00227539
0.000787744
0.00229157
0.000601591
0.00170852
0.000696067
0.00150211
0.000741802
0.0015838
0.000764895
0.00166687
0.00077376
0.00170436
0.000771569
0.00172265
0.00077718
0.00174395
0.000771569
0.00175756
0.000772159
0.00176608
0.000770868
0.00178658
0.000764374
0.00178912
0.000762229
0.00179376
0.000754344
0.0018067
0.000756106
0.00181526
0.000749747
0.00182685
0.000744302
0.00182939
0.000741227
0.00183728
0.000736153
0.00184446
0.00073423
0.00185228
0.000730772
0.00185215
0.000728479
0.00185425
0.00072673
0.00185451
0.000725692
0.00185452
0.000724536
0.00185028
0.000724111
0.0018465
0.000724266
0.00184175
0.000729498
0.00183533
0.000737308
0.00182794
0.000745215
0.00182012
0.000752071
0.00181174
0.00075998
0.00180315
0.000773324
0.00179679
0.000790541
0.00179
0.000805352
0.00177669
0.000827053
0.0017609
0.000837909
0.00174916
0.000861214
0.00171406
0.000859971
0.00167661
0.000872295
0.00160722
0.000893264
0.00155981
0.000916817
0.0015182
0.000934132
0.00148859
0.000946734
0.00145608
0.000949951
0.00141862
0.000945844
0.00137496
0.000945588
0.00133024
0.000933052
0.00128286
0.000922085
0.00123405
0.000900119
0.00118473
0.000873346
0.00112779
0.000838292
0.00106778
0.000807949
0.00100722
0.000775852
0.00094431
0.00075094
0.000884605
0.000728702
0.000838119
0.000718955
0.000801419
0.00071009
0.000773219
0.000704605
0.000753159
0.000699907
0.000737838
0.000697782
0.000723824
0.000695822
0.000711112
0.000694121
0.000698116
0.000690645
0.000686833
0.000692352
0.000677077
0.000689746
0.000670327
0.000696645
0.000668494
0.000694946
0.000667523
0.000704915
0.000671768
0.000705978
0.000679089
0.000719185
0.000691407
0.000722869
0.000702633
0.000743848
0.000717455
0.00369339
0.00367807
0.00140889
0.00367265
0.00143487
0.0036552
0.00146644
0.00363135
0.00149704
0.00359991
0.00152849
0.00356146
0.00156012
0.00351616
0.00159211
0.00346438
0.00162432
0.00340646
0.00165671
0.00334286
0.00168918
0.00327402
0.00172166
0.00320046
0.00175405
0.00312268
0.0017863
0.00304115
0.0018183
0.00295639
0.00184994
0.00286898
0.00188115
0.00277939
0.00191183
0.0026881
0.00194194
0.00259559
0.00197134
0.00250232
0.00199997
0.00240876
0.00202778
0.00231529
0.00205472
0.00222228
0.00208072
0.00213007
0.00210575
0.00203899
0.00212973
0.00194935
0.00215267
0.00186131
0.0021746
0.00177511
0.00219538
0.00169096
0.00221496
0.00160904
0.00223341
0.00152946
0.0022508
0.00145234
0.00226716
0.0013778
0.00228248
0.00130579
0.00229669
0.00123625
0.00230968
0.00116926
0.00232123
0.00110487
0.00233199
0.0010432
0.00234196
0.000983991
0.00235126
0.00092754
0.00236009
0.000873412
0.00236855
0.000822192
0.00237777
0.0007722
0.00238618
0.000726792
0.00239991
0.000757182
0.00240963
0.000839041
0.00243669
0.000681187
0.00237602
0.000777102
0.00181738
0.000809262
0.00180146
0.000820824
0.00185622
0.000822017
0.00187583
0.00081641
0.00188477
0.000814358
0.00189178
0.000804052
0.00189119
0.000803266
0.00189569
0.000794124
0.0019004
0.000786955
0.00189399
0.000781133
0.00190021
0.000775879
0.00190541
0.000772398
0.00191771
0.000765461
0.00192099
0.000760656
0.00192625
0.000752363
0.00192766
0.000751645
0.0019423
0.000744819
0.00194354
0.000742447
0.00194147
0.000738057
0.00193783
0.000737273
0.00194027
0.000734816
0.00193594
0.000733378
0.00193069
0.000732431
0.00192432
0.00073781
0.00191714
0.000745332
0.00191012
0.000753302
0.00190225
0.000762188
0.00189336
0.000771591
0.0018839
0.000782406
0.0018727
0.000794825
0.00186265
0.000810723
0.00185458
0.000827479
0.00184736
0.000845176
0.00183434
0.000867871
0.0018138
0.000878356
0.00179236
0.000895265
0.00172072
0.000912754
0.00167118
0.000947424
0.00161997
0.000961807
0.00158797
0.000979319
0.001551
0.000994604
0.00152945
0.000999584
0.00149147
0.000998129
0.00145544
0.000995676
0.00141502
0.0009824
0.00136737
0.00097477
0.00131577
0.000958486
0.00126192
0.000933755
0.00120346
0.000902079
0.00114376
0.000867821
0.00108147
0.000828443
0.0010146
0.000791463
0.000949226
0.000760459
0.000892156
0.000745296
0.000843597
0.000730724
0.000810611
0.00072306
0.000788231
0.000717231
0.000770151
0.000715304
0.000754542
0.000713357
0.000741167
0.000710159
0.000728678
0.000705877
0.000715959
0.000704262
0.000701191
0.000698619
0.00068987
0.00070383
0.000682754
0.000700455
0.000677887
0.000710004
0.000679907
0.000709972
0.000682604
0.000722537
0.000691523
0.000727299
0.000702663
0.000745807
0.000716817
0.00371185
0.00369678
0.00143508
0.00369162
0.00146405
0.0036744
0.00149868
0.00365078
0.00153227
0.00361955
0.00156671
0.00358127
0.0016013
0.00353612
0.00163622
0.00348445
0.00167134
0.0034266
0.0017066
0.00336303
0.00174192
0.00329414
0.00177721
0.00322049
0.00181238
0.00314256
0.00184735
0.00306085
0.00188203
0.00297585
0.0019163
0.00288813
0.00195008
0.0027982
0.00198329
0.00270652
0.00201585
0.00261357
0.00204765
0.00251982
0.0020786
0.00242574
0.00210865
0.00233173
0.00213778
0.00223815
0.0021659
0.00214535
0.00219298
0.00205364
0.00221894
0.00196337
0.00224376
0.00187472
0.00226744
0.00178786
0.00229001
0.001703
0.00231135
0.00162039
0.00233136
0.00154019
0.00235024
0.00146246
0.00236801
0.0013872
0.00238463
0.00131448
0.00240012
0.00124419
0.00241432
0.00117664
0.0024271
0.00111175
0.00243904
0.00104961
0.00245005
0.000990032
0.00245995
0.000933171
0.00246898
0.000879401
0.00247717
0.000827307
0.00248574
0.000779286
0.00249258
0.00072758