/*--------------------------------*- C++ -*----------------------------------*\
| =========                 |                                                 |
| \\      /  F ield         | OpenFOAM: The Open Source CFD Toolbox           |
|  \\    /   O peration     | Version:  2.2.x                                 |
|   \\  /    A nd           | Web:      www.OpenFOAM.org                      |
|    \\/     M anipulation  |                                                 |
\*---------------------------------------------------------------------------*/
FoamFile
{
    version     2.0;
    format      ascii;
    class       volScalarField;
    location    "2.2";
    object      rho;
}
// * * * * * * * * * * * * * * * * * * * * * * * * * * * * * * * * * * * * * //

dimensions      [1 -3 0 0 0 0 0];

internalField   nonuniform List<scalar> 
14161
(
0.991989
0.991983
0.99192
0.991859
0.991737
0.991614
0.991472
0.991327
0.991188
0.991051
0.990903
0.990768
0.99065
0.990533
0.990441
0.990372
0.990305
0.990225
0.990182
0.990184
0.990195
0.990235
0.990295
0.990365
0.990456
0.99056
0.990697
0.990873
0.991085
0.99125
0.991436
0.991667
0.992035
0.992327
0.99259
0.992869
0.993361
0.993896
0.994374
0.99432
0.994879
0.993791
0.996314
0.989812
1.00612
1.00217
1.56438
2.82367
2.62084
2.52787
2.51322
2.5031
2.49518
2.48773
2.47851
2.46711
2.45763
2.44476
2.42936
2.41346
2.39534
2.38018
2.36394
2.34601
2.33076
2.31862
2.31001
2.30208
2.29446
2.28719
2.28057
2.27382
2.26585
2.25672
2.24653
2.23548
2.22289
2.21065
2.20015
2.19165
2.18928
2.19641
2.21922
2.25414
2.28341
2.30211
2.31589
2.32744
2.34284
2.36262
2.38397
2.39989
2.41041
2.41269
2.41039
2.40905
2.40621
2.42151
2.45968
2.50237
2.55691
2.61503
2.68709
2.75181
2.81193
2.86974
2.91673
2.96456
3.00252
3.04182
3.07058
3.10016
3.11862
3.14073
3.15401
3.17071
3.17508
3.17878
3.18723
0.991996
0.991965
0.991905
0.991863
0.991741
0.991605
0.991453
0.991312
0.991187
0.99105
0.990895
0.990759
0.990642
0.990527
0.990432
0.990363
0.990296
0.990216
0.990174
0.990175
0.990187
0.990226
0.990283
0.990351
0.99044
0.990548
0.990682
0.990871
0.991056
0.991207
0.99133
0.991652
0.992012
0.992225
0.992382
0.992601
0.99306
0.993523
0.993858
0.993778
0.993825
0.993053
0.994527
0.989998
0.999068
0.995509
1.71703
2.61865
2.60775
2.56515
2.54318
2.52858
2.51345
2.4996
2.48367
2.46444
2.44746
2.4275
2.40602
2.3853
2.36277
2.34498
2.32673
2.30719
2.29191
2.28112
2.27287
2.26503
2.25759
2.25072
2.24415
2.23698
2.2288
2.21935
2.20803
2.19397
2.17872
2.16492
2.1525
2.14414
2.1404
2.14859
2.1751
2.21246
2.23973
2.25639
2.26804
2.28184
2.29983
2.31808
2.34879
2.39572
2.4517
2.51668
2.5655
2.60861
2.64454
2.69177
2.73536
2.77705
2.80786
2.83887
2.86457
2.89604
2.92856
2.95972
2.98944
3.02209
3.051
3.07957
3.10261
3.12653
3.14321
3.16471
3.17457
3.18821
3.18749
3.19077
3.19991
0.992006
0.991971
0.991906
0.991846
0.991725
0.991603
0.991466
0.991323
0.99118
0.991036
0.990889
0.990755
0.990636
0.990521
0.990425
0.990356
0.990292
0.990215
0.990171
0.990171
0.990186
0.990222
0.990273
0.99034
0.990431
0.99054
0.990679
0.990874
0.991064
0.991208
0.991354
0.991702
0.992092
0.992367
0.992613
0.992974
0.993596
0.994443
0.995075
0.995514
0.996366
0.996442
0.997948
0.996969
1.00007
1.02133
1.92797
2.62425
2.70328
2.69326
2.67112
2.65097
2.62862
2.60533
2.58426
2.55896
2.53365
2.50592
2.47975
2.45459
2.42963
2.40677
2.38248
2.36045
2.34161
2.32624
2.31527
2.30629
2.29833
2.29094
2.28281
2.27291
2.26159
2.25205
2.24017
2.2263
2.21329
2.19892
2.18515
2.17289
2.16865
2.18054
2.20549
2.24121
2.28057
2.30698
2.3256
2.34243
2.37466
2.42186
2.48758
2.59853
2.71577
2.80555
2.85976
2.8903
2.91055
2.92805
2.94331
2.96287
2.97676
2.98145
2.98734
2.99342
3.00581
3.01939
3.03231
3.04768
3.06143
3.07623
3.09242
3.11176
3.12667
3.14481
3.15823
3.16619
3.16998
3.17157
3.19532
0.992013
0.991969
0.991895
0.991839
0.991723
0.991599
0.991455
0.991306
0.991162
0.99103
0.990893
0.990757
0.990631
0.990511
0.990412
0.990342
0.990278
0.9902
0.990154
0.990155
0.99017
0.990205
0.990254
0.99032
0.990405
0.990501
0.990612
0.990778
0.99099
0.99117
0.991348
0.991555
0.991866
0.992093
0.992233
0.992412
0.992728
0.993216
0.993399
0.99337
0.993197
0.993213
0.992508
0.99275
0.990574
1.06432
2.0866
2.60402
2.71917
2.72533
2.70197
2.68135
2.65362
2.6255
2.60284
2.57608
2.54676
2.51437
2.4851
2.46031
2.43319
2.40881
2.3808
2.35977
2.3431
2.32722
2.31348
2.30257
2.2959
2.28865
2.28023
2.27178
2.2629
2.25244
2.2391
2.22442
2.21204
2.19851
2.1874
2.18181
2.18236
2.19358
2.21849
2.2561
2.28931
2.31374
2.34512
2.39453
2.4572
2.55335
2.68927
2.77976
2.83831
2.88106
2.91839
2.94782
2.96965
2.98405
2.99423
2.99655
2.99529
2.9958
2.99949
3.00444
3.01311
3.02124
3.0313
3.04253
3.05492
3.0676
3.08277
3.09968
3.11065
3.12595
3.13927
3.15314
3.1597
3.16814
3.1826
0.992031
0.991973
0.99189
0.991836
0.991721
0.991596
0.99145
0.991299
0.991157
0.99103
0.990888
0.990747
0.990624
0.990507
0.990408
0.990335
0.990272
0.990196
0.990154
0.990156
0.990166
0.990193
0.990236
0.990295
0.990376
0.990472
0.9906
0.990784
0.990981
0.991123
0.991332
0.991665
0.992051
0.992366
0.992631
0.99302
0.993641
0.994754
0.995687
0.996643
0.997504
0.999336
0.99949
1.00242
0.99781
1.14659
2.24688
2.61595
2.7277
2.73174
2.69566
2.6681
2.63394
2.60029
2.57192
2.54184
2.51269
2.47278
2.4368
2.4143
2.38672
2.36485
2.33955
2.31733
2.29776
2.28493
2.27507
2.26515
2.25625
2.24823
2.23968
2.23065
2.22008
2.21107
2.20107
2.19096
2.179
2.16537
2.15181
2.14602
2.14776
2.1631
2.18554
2.22884
2.28449
2.33204
2.38551
2.43649
2.50878
2.60728
2.6774
2.74581
2.81271
2.84771
2.90722
2.94182
2.97008
2.99025
2.99598
2.99611
3.00212
3.00867
3.01549
3.01611
3.0185
3.02
3.02657
3.03366
3.04473
3.05639
3.07066
3.08659
3.10135
3.12058
3.13533
3.15166
3.15941
3.16971
3.18044
0.992034
0.991971
0.991882
0.991828
0.991709
0.991592
0.991452
0.991301
0.991149
0.991007
0.99087
0.990739
0.990619
0.9905
0.990399
0.990322
0.990256
0.990178
0.990131
0.99013
0.990143
0.99017
0.990208
0.99026
0.990334
0.990407
0.990524
0.990691
0.990871
0.991031
0.99116
0.99141
0.991714
0.991902
0.992024
0.992216
0.992544
0.993135
0.993332
0.993468
0.993109
0.993598
0.992177
0.994145
0.98506
1.20059
2.3964
2.64423
2.77171
2.75358
2.69963
2.66439
2.62341
2.58072
2.54689
2.51295
2.48879
2.44906
2.40788
2.38589
2.35701
2.33551
2.31075
2.28568
2.266
2.25255
2.24547
2.23676
2.22586
2.21806
2.21091
2.20473
2.19884
2.19149
2.18167
2.16854
2.15406
2.14022
2.13004
2.12693
2.12836
2.13881
2.16774
2.23468
2.28842
2.32419
2.36533
2.45861
2.52082
2.59607
2.67297
2.72547
2.76106
2.79211
2.83842
2.87061
2.91642
2.95317
2.97568
2.98509
2.99634
2.99947
3.00421
3.00767
3.01239
3.01648
3.02248
3.02949
3.04076
3.05134
3.06473
3.08299
3.09942
3.12065
3.13598
3.15286
3.1615
3.17445
3.18258
0.992056
0.991978
0.991878
0.991825
0.991706
0.991583
0.991442
0.99129
0.991143
0.991013
0.990881
0.990741
0.990608
0.990486
0.990384
0.990306
0.990237
0.990158
0.99011
0.990105
0.990118
0.990147
0.990186
0.990241
0.990318
0.990399
0.99052
0.990685
0.990866
0.991036
0.99122
0.991518
0.991834
0.992082
0.99231
0.992713
0.993362
0.994469
0.99546
0.996557
0.997761
1.00084
1.00112
1.0073
0.99507
1.31735
2.4005
2.67564
2.70946
2.68456
2.64124
2.60168
2.57458
2.54544
2.50593
2.46748
2.44916
2.42326
2.38504
2.36481
2.34409
2.32495
2.30363
2.27673
2.25831
2.24306
2.23953
2.23249
2.22238
2.2149
2.20897
2.20257
2.19435
2.18681
2.17932
2.17192
2.16201
2.14965
2.13615
2.12348
2.12632
2.14103
2.1528
2.20503
2.27861
2.35297
2.43142
2.49388
2.54139
2.57798
2.61101
2.63668
2.68636
2.71053
2.7582
2.81381
2.86562
2.90266
2.93017
2.95053
2.97371
2.987
2.999
3.00087
3.00427
3.0075
3.01344
3.02175
3.03406
3.04589
3.06155
3.0808
3.09913
3.12206
3.1383
3.156
3.16549
3.18026
3.18707
0.992059
0.991979
0.991873
0.991821
0.991702
0.99158
0.991437
0.991284
0.99113
0.990992
0.990865
0.990735
0.990602
0.990476
0.990372
0.990292
0.990219
0.990137
0.990082
0.99007
0.990078
0.990101
0.990135
0.990188
0.990259
0.990346
0.99043
0.990522
0.990675
0.990856
0.991051
0.991295
0.991507
0.991633
0.991739
0.991966
0.992357
0.993022
0.993418
0.993857
0.993931
0.99474
0.99355
0.997218
0.988982
1.20852
2.24452
2.64569
2.71902
2.67731
2.63335
2.59282
2.55055
2.51508
2.4926
2.46154
2.43933
2.41519
2.38195
2.36651
2.34634
2.32559
2.31017
2.2846
2.27349
2.25782
2.25079
2.23904
2.23097
2.22412
2.21806
2.21383
2.20994
2.20323
2.19583
2.18696
2.17451
2.16086
2.1481
2.1439
2.14615
2.14962
2.16383
2.23
2.30535
2.3647
2.42185
2.4846
2.5131
2.52118
2.54335
2.55791
2.58567
2.63212
2.66954
2.7307
2.77809
2.83037
2.8789
2.91579
2.94637
2.96126
2.97352
2.9801
2.98745
2.99491
3.00421
3.01388
3.02718
3.04161
3.06035
3.08136
3.10272
3.12619
3.14291
3.161
3.17169
3.1873
3.19302
0.99208
0.991986
0.991869
0.991816
0.991697
0.991573
0.991432
0.991282
0.991128
0.990984
0.990848
0.990717
0.990591
0.990467
0.990363
0.990282
0.990208
0.990126
0.990064
0.990047
0.990053
0.990069
0.990099
0.990144
0.990212
0.990301
0.990412
0.990516
0.990643
0.990819
0.99105
0.991297
0.991498
0.991666
0.991876
0.992234
0.992775
0.99356
0.994136
0.994875
0.99525
0.996582
0.996519
0.999184
0.998665
1.05605
1.98163
2.62031
2.67819
2.58017
2.52534
2.50123
2.46681
2.43631
2.42435
2.39629
2.38274
2.36738
2.34373
2.33211
2.29289
2.28802
2.27853
2.25219
2.24193
2.22426
2.22087
2.21308
2.2058
2.20087
2.19762
2.19294
2.18743
2.1827
2.1758
2.17001
2.16385
2.15335
2.13708
2.13181
2.13257
2.12997
2.16762
2.20891
2.3117
2.37818
2.42967
2.47888
2.49371
2.49409
2.49904
2.4937
2.50326
2.54009
2.57782
2.63999
2.69822
2.76497
2.82296
2.87309
2.90875
2.92983
2.95176
2.96193
2.97248
2.97941
2.98837
2.99886
3.01487
3.03394
3.0576
3.0804
3.10329
3.1295
3.14784
3.16693
3.17916
3.19722
3.19962
0.992084
0.991989
0.991866
0.991813
0.991693
0.991567
0.991425
0.991273
0.991118
0.990976
0.990845
0.990714
0.990578
0.990448
0.990338
0.990254
0.990178
0.990097
0.990031
0.990012
0.990013
0.990023
0.990043
0.990077
0.990129
0.990189
0.990253
0.990373
0.990517
0.990642
0.990781
0.990965
0.991115
0.991241
0.991436
0.991722
0.992116
0.992583
0.992843
0.993072
0.993209
0.993401
0.993457
0.993457
0.994915
1.00275
1.54368
2.51479
2.55399
2.46952
2.41471
2.40657
2.39125
2.37068
2.36853
2.33529
2.33513
2.32837
2.30076
2.28611
2.25619
2.24952
2.23615
2.22063
2.19588
2.19245
2.18703
2.18067
2.17087
2.16928
2.16586
2.16163
2.15828
2.15493
2.15024
2.14443
2.137
2.1251
2.10822
2.10719
2.108
2.11051
2.14397
2.1945
2.31007
2.3677
2.41692
2.45069
2.46137
2.46174
2.46738
2.46832
2.47084
2.48275
2.50134
2.54595
2.60751
2.67502
2.74857
2.81848
2.87016
2.9021
2.92812
2.9435
2.95728
2.96495
2.97276
2.98262
2.99841
3.0184
3.04634
3.07583
3.10469
3.13331
3.15223
3.17449
3.18804
3.20714
3.20767
0.992101
0.991996
0.991866
0.991809
0.991688
0.991566
0.99142
0.991267
0.991111
0.990964
0.990827
0.990701
0.990569
0.990437
0.990324
0.990234
0.990154
0.990069
0.99
0.989977
0.989976
0.989982
0.989996
0.990024
0.990072
0.990134
0.990179
0.990267
0.990416
0.990583
0.990751
0.990901
0.991014
0.991149
0.991337
0.991713
0.992016
0.992304
0.992376
0.992265
0.992094
0.991029
0.991129
0.988377
0.991383
1.00654
1.2124
2.30314
2.61472
2.51943
2.43478
2.397
2.36616
2.3435
2.32969
2.3011
2.30182
2.28661
2.26948
2.2335
2.22009
2.20637
2.19511
2.16521
2.15066
2.1511
2.14881
2.13604
2.13304
2.13112
2.12963
2.12748
2.12391
2.12026
2.11586
2.11052
2.10529
2.0972
2.08527
2.07082
2.07165
2.08268
2.1079
2.19993
2.29351
2.36412
2.44904
2.4459
2.40695
2.41816
2.44857
2.44822
2.4533
2.46216
2.46812
2.48538
2.52141
2.57614
2.65579
2.73824
2.81191
2.86309
2.90109
2.92225
2.94168
2.94934
2.95823
2.96511
2.97613
2.99566
3.02689
3.06352
3.1004
3.13593
3.15806
3.18419
3.19816
3.2112
3.21401
0.992107
0.992
0.991865
0.991807
0.991684
0.991556
0.991413
0.991261
0.991105
0.990954
0.990811
0.990681
0.990551
0.990419
0.990303
0.990209
0.990124
0.990037
0.98996
0.989927
0.989919
0.98991
0.989914
0.989926
0.989959
0.990009
0.990065
0.990104
0.990182
0.990338
0.990496
0.990621
0.990702
0.990782
0.990942
0.991282
0.991552
0.991686
0.991821
0.991884
0.992019
0.99168
0.991824
0.991184
0.995455
1.02062
1.2267
2.2682
2.50996
2.45743
2.38067
2.34612
2.3162
2.29433
2.27869
2.26479
2.24617
2.24737
2.22237
2.20499
2.17653
2.18034
2.16218
2.14408
2.13083
2.13576
2.12573
2.11862
2.11688
2.11611
2.11386
2.11107
2.10755
2.10359
2.09785
2.09136
2.0833
2.07263
2.05779
2.03804
2.03586
2.04399
2.09267
2.19687
2.29786
2.38723
2.3819
2.38678
2.41623
2.41586
2.41624
2.41412
2.41989
2.42388
2.43713
2.45046
2.4742
2.50935
2.57018
2.64784
2.73994
2.81567
2.87653
2.9045
2.93014
2.94128
2.94991
2.95173
2.95575
2.97016
3.00004
3.04172
3.08951
3.13339
3.16568
3.19003
3.20239
3.21106
3.21587
0.99212
0.992006
0.991865
0.991802
0.991677
0.99155
0.991404
0.991254
0.991099
0.990947
0.990802
0.990662
0.99053
0.990398
0.990283
0.990187
0.990098
0.990009
0.989925
0.989887
0.989865
0.989851
0.98984
0.989845
0.989864
0.989907
0.989964
0.99002
0.990069
0.990165
0.990312
0.990416
0.990472
0.990542
0.99065
0.990802
0.990844
0.990808
0.99066
0.99048
0.990439
0.990134
0.990018
0.989545
0.992818
1.01866
1.49813
2.17635
2.33316
2.3859
2.36469
2.33755
2.31422
2.28709
2.277
2.26158
2.25343
2.2552
2.23028
2.21769
2.19135
2.19503
2.17375
2.15105
2.14316
2.14446
2.13385
2.13064
2.12888
2.12712
2.12438
2.12078
2.11706
2.1122
2.10549
2.09685
2.08699
2.07359
2.05961
2.02999
2.03623
2.03914
2.12065
2.22923
2.31014
2.37427
2.36652
2.3468
2.38413
2.41993
2.38492
2.38002
2.39071
2.39409
2.40396
2.40998
2.42354
2.4527
2.50052
2.56569
2.65613
2.74799
2.83191
2.87166
2.90922
2.92511
2.93961
2.94101
2.94328
2.95034
2.97247
3.01148
3.06276
3.11883
3.16193
3.18986
3.20563
3.20915
3.21512
0.992125
0.992009
0.991865
0.9918
0.991673
0.991543
0.991396
0.991244
0.99109
0.990937
0.990789
0.990646
0.99051
0.990376
0.990256
0.990153
0.990059
0.989965
0.989874
0.989825
0.989794
0.989768
0.989744
0.989728
0.989731
0.989744
0.989786
0.989835
0.989864
0.989917
0.990042
0.990147
0.990215
0.990299
0.990437
0.990683
0.990827
0.990972
0.991028
0.991154
0.991131
0.991223
0.991009
0.992371
0.99662
1.0492
1.72396
2.05414
2.1923
2.3402
2.36397
2.36852
2.35717
2.32602
2.31598
2.29317
2.29158
2.2766
2.26795
2.23596
2.22345
2.20721
2.20083
2.16304
2.15152
2.15178
2.14996
2.14137
2.14015
2.13727
2.13504
2.13153
2.12641
2.12052
2.11403
2.10492
2.09418
2.07925
2.0622
2.02764
2.03361
2.05305
2.1784
2.28208
2.33845
2.37363
2.3861
2.3591
2.34809
2.36772
2.38039
2.37157
2.36181
2.3637
2.38025
2.39041
2.40492
2.42637
2.45716
2.50574
2.58166
2.67803
2.78517
2.8517
2.90059
2.91974
2.93409
2.93451
2.93339
2.93382
2.94293
2.97543
3.03021
3.09626
3.15434
3.18383
3.20494
3.20617
3.21261
0.992133
0.992013
0.991864
0.991797
0.991666
0.991536
0.991388
0.991236
0.991079
0.990924
0.990774
0.99063
0.990491
0.990356
0.990232
0.990121
0.990021
0.989924
0.989827
0.989766
0.989728
0.989692
0.989659
0.989624
0.989611
0.989619
0.989646
0.989674
0.989693
0.989727
0.989802
0.989835
0.989849
0.989847
0.989847
0.989837
0.989804
0.98972
0.989479
0.989409
0.989009
0.98904
0.987953
0.989559
0.998093
1.21164
1.8859
1.99325
2.04799
2.14367
2.2449
2.3485
2.35487
2.34903
2.34053
2.31739
2.31087
2.28223
2.28036
2.24154
2.23123
2.2089
2.20136
2.16068
2.15176
2.1447
2.14541
2.1389
2.13593
2.13224
2.13065
2.1276
2.12259
2.1169
2.11035
2.10141
2.08913
2.07425
2.05277
2.02701
2.03528
2.11346
2.24377
2.33767
2.37962
2.34662
2.33881
2.34771
2.35382
2.3478
2.35084
2.36384
2.3665
2.36541
2.37523
2.39233
2.40479
2.41369
2.43065
2.4642
2.51792
2.60294
2.71688
2.81609
2.88583
2.91292
2.93117
2.93256
2.93213
2.93091
2.93412
2.95304
2.99505
3.06415
3.13795
3.17663
3.20214
3.2012
3.2094
0.992136
0.992015
0.991864
0.991794
0.991661
0.991529
0.991379
0.991226
0.991068
0.990911
0.990757
0.99061
0.990471
0.990332
0.990201
0.990083
0.989976
0.989871
0.989768
0.989693
0.989641
0.989593
0.989546
0.989498
0.989466
0.989445
0.989448
0.98946
0.989462
0.989475
0.989514
0.989592
0.989643
0.989698
0.989766
0.989865
0.989997
0.990213
0.990354
0.990635
0.990755
0.991439
0.991249
0.994692
1.00958
1.52154
1.92192
1.96999
1.99027
2.0223
2.10201
2.2321
2.31502
2.34942
2.33751
2.33725
2.32584
2.30203
2.28566
2.2509
2.23728
2.21282
2.19505
2.15172
2.14862
2.14076
2.13791
2.1343
2.13234
2.12932
2.12638
2.12146
2.1154
2.10795
2.09948
2.08899
2.07382
2.05521
2.03153
2.01804
2.05684
2.18755
2.29584
2.40545
2.4126
2.32444
2.3096
2.35084
2.36675
2.32837
2.31936
2.35158
2.3693
2.35915
2.36224
2.37595
2.39038
2.39466
2.41001
2.44118
2.48781
2.56222
2.65319
2.75616
2.84729
2.88465
2.91607
2.92177
2.92427
2.923
2.92249
2.93392
2.96613
3.02826
3.11106
3.16176
3.19479
3.19502
3.20387
0.99214
0.992017
0.991862
0.99179
0.991655
0.991521
0.991371
0.991215
0.991057
0.990898
0.990741
0.990589
0.990449
0.990308
0.99017
0.990046
0.989931
0.98982
0.989711
0.989622
0.989557
0.989496
0.989434
0.989372
0.989336
0.989308
0.989283
0.989255
0.989237
0.98923
0.989228
0.989211
0.989174
0.989111
0.989052
0.988964
0.988845
0.988751
0.988618
0.988384
0.988129
0.987616
0.987918
0.992621
1.03012
1.77376
1.99242
2.00138
1.99927
2.0055
2.03219
2.09353
2.21022
2.30733
2.35788
2.3505
2.33907
2.32694
2.29473
2.27317
2.24228
2.22418
2.18497
2.16275
2.15367
2.14436
2.13977
2.13931
2.13924
2.13722
2.13221
2.12594
2.11944
2.11221
2.10377
2.09085
2.07002
2.05014
2.02635
2.04943
2.14415
2.29592
2.36837
2.37482
2.32142
2.31256
2.36661
2.38928
2.33974
2.2939
2.32154
2.36649
2.36679
2.34655
2.34136
2.35423
2.37682
2.38537
2.39373
2.4139
2.44751
2.50813
2.59066
2.69843
2.80816
2.85909
2.90166
2.91638
2.91981
2.91627
2.91185
2.91543
2.93702
2.9907
3.07243
3.13778
3.18272
3.18753
3.20109
0.992141
0.992018
0.991861
0.991787
0.991648
0.991512
0.99136
0.991203
0.991042
0.990884
0.990724
0.990565
0.990421
0.99028
0.990132
0.989999
0.989879
0.989759
0.989638
0.989538
0.989457
0.989379
0.989294
0.989221
0.989169
0.989123
0.98907
0.989011
0.988978
0.988968
0.988958
0.988949
0.988935
0.98893
0.988967
0.989021
0.989131
0.989255
0.98953
0.989545
0.990026
0.989383
0.991149
0.99667
1.1717
1.92859
2.02633
2.02604
2.01478
2.00936
2.01213
2.03367
2.08157
2.18607
2.29314
2.36747
2.36154
2.33518
2.31152
2.2671
2.24496
2.20637
2.18838
2.14982
2.14123
2.13535
2.13442
2.13128
2.13115
2.12946
2.12546
2.11992
2.11363
2.10757
2.09986
2.08549
2.06436
2.04568
2.05405
2.13892
2.28423
2.34069
2.39827
2.37254
2.32455
2.35042
2.37001
2.33644
2.29968
2.31434
2.35192
2.36088
2.33764
2.33382
2.3487
2.36497
2.37422
2.38284
2.39373
2.41055
2.43693
2.47953
2.54869
2.64964
2.7635
2.83626
2.88934
2.91235
2.91889
2.91499
2.90766
2.90565
2.91597
2.9552
3.0296
3.10816
3.16435
3.17394
3.19374
0.992144
0.992017
0.991857
0.991782
0.991641
0.991503
0.991349
0.991191
0.991029
0.990869
0.990708
0.990542
0.990392
0.99025
0.990094
0.989951
0.989823
0.989697
0.989563
0.98945
0.989357
0.989265
0.98916
0.989073
0.989006
0.988947
0.988877
0.988774
0.988713
0.988666
0.988637
0.988586
0.988474
0.988326
0.988236
0.988123
0.98807
0.987936
0.987934
0.987741
0.988073
0.987333
0.990075
1.00153
1.4694
1.97573
2.02136
2.0215
2.01437
2.00889
2.00635
2.00732
2.02659
2.07706
2.19891
2.33324
2.34057
2.32675
2.32256
2.27682
2.25088
2.20405
2.18646
2.14382
2.13995
2.13265
2.13259
2.13188
2.13166
2.12825
2.12152
2.11466
2.10995
2.10685
2.10023
2.08535
2.07929
2.09679
2.1915
2.28969
2.42814
2.41193
2.34282
2.33697
2.36372
2.36559
2.31952
2.30006
2.32176
2.35778
2.35904
2.33189
2.31715
2.32949
2.34577
2.35137
2.3552
2.36413
2.38148
2.3944
2.41945
2.45076
2.50595
2.59612
2.71022
2.8046
2.87011
2.90112
2.91332
2.90952
2.90158
2.89445
2.89981
2.92718
2.98835
3.07312
3.14344
3.16147
3.19134
0.992138
0.992014
0.991855
0.991777
0.991633
0.991494
0.991338
0.991178
0.991013
0.990852
0.990689
0.990516
0.990357
0.990214
0.990055
0.989896
0.989759
0.989627
0.98948
0.989345
0.989237
0.989137
0.989016
0.988899
0.988813
0.988735
0.988646
0.98851
0.988409
0.988359
0.988327
0.988281
0.988205
0.988088
0.988055
0.988091
0.988177
0.988271
0.988473
0.988788
0.989621
0.989722
0.993254
1.01469
1.73888
2.05759
2.07116
2.06249
2.04465
2.03009
2.02085
2.01562
2.01393
2.02984
2.08678
2.17959
2.2711
2.31554
2.33045
2.28997
2.26206
2.21295
2.19369
2.15231
2.14952
2.14196
2.14355
2.14372
2.14258
2.13878
2.13285
2.12631
2.12979
2.13704
2.13905
2.15227
2.22186
2.32317
2.44539
2.42836
2.39521
2.3958
2.35233
2.31651
2.32731
2.32044
2.29872
2.2997
2.32855
2.34838
2.33223
2.31403
2.3253
2.33704
2.3382
2.33319
2.34386
2.35975
2.37523
2.39136
2.41091
2.44166
2.4894
2.56515
2.66876
2.77309
2.85225
2.89248
2.90924
2.90602
2.89912
2.88928
2.88956
2.90494
2.95096
3.0332
3.1166
3.14342
3.18295
0.992137
0.99201
0.991849
0.991771
0.991625
0.991484
0.991326
0.991165
0.990997
0.990833
0.990671
0.990491
0.990323
0.990175
0.990016
0.989844
0.989695
0.989555
0.989399
0.989242
0.989114
0.988999
0.988873
0.988727
0.988613
0.988522
0.988425
0.988272
0.988111
0.98802
0.98795
0.987898
0.987803
0.987606
0.987397
0.987314
0.987221
0.987096
0.98684
0.986689
0.986007
0.986788
0.990548
1.06265
1.92126
2.10674
2.1198
2.11416
2.09451
2.07027
2.04515
2.0294
2.02468
2.02013
2.03076
2.07023
2.15751
2.2334
2.28202
2.2901
2.25524
2.23032
2.17934
2.16746
2.15587
2.14529
2.14913
2.16114
2.16352
2.16676
2.17651
2.18944
2.25192
2.31054
2.37634
2.46491
2.56786
2.57201
2.56498
2.55728
2.46881
2.39723
2.37034
2.34418
2.32415
2.31157
2.30786
2.31556
2.32047
2.30664
2.29933
2.31457
2.33665
2.3405
2.33085
2.33299
2.34644
2.36063
2.36829
2.38224
2.39612
2.4223
2.46138
2.52564
2.62063
2.73159
2.82693
2.87602
2.90078
2.89977
2.89522
2.88464
2.88015
2.88864
2.92341
2.9978
3.08877
3.12965
3.17944
0.992127
0.992003
0.991843
0.991764
0.991616
0.991473
0.991313
0.991149
0.990979
0.990809
0.990649
0.990466
0.990285
0.99013
0.98997
0.989784
0.98962
0.989473
0.98931
0.989128
0.988978
0.988849
0.988709
0.988534
0.988389
0.988279
0.988167
0.988004
0.987784
0.987653
0.987586
0.987536
0.987449
0.987283
0.987005
0.986896
0.986742
0.986799
0.986477
0.986832
0.985509
0.987458
0.991179
1.2417
2.05754
2.12552
2.12848
2.12354
2.11485
2.10066
2.0828
2.06286
2.04621
2.0357
2.02561
2.04265
2.07775
2.17982
2.24918
2.25823
2.27075
2.21381
2.20167
2.19437
2.1974
2.19201
2.24284
2.2965
2.34241
2.39478
2.46198
2.51958
2.60315
2.67704
2.73165
2.73786
2.72226
2.6798
2.62091
2.57937
2.50835
2.45017
2.42173
2.37607
2.33937
2.32502
2.32897
2.32401
2.30601
2.29531
2.30041
2.32035
2.32829
2.32789
2.32918
2.34176
2.34988
2.35589
2.35912
2.36834
2.38435
2.40647
2.43751
2.4921
2.58076
2.69489
2.80051
2.85732
2.88975
2.895
2.89315
2.88432
2.87448
2.87757
2.90306
2.96526
3.05844
3.1096
3.16833
0.992123
0.991996
0.991835
0.991754
0.991606
0.99146
0.991298
0.991133
0.990959
0.990785
0.990623
0.99044
0.990247
0.990082
0.989921
0.989727
0.989544
0.989386
0.989219
0.989017
0.98884
0.988695
0.988546
0.98835
0.988165
0.988026
0.987904
0.987742
0.987477
0.987284
0.987166
0.987096
0.987018
0.986897
0.986615
0.986513
0.986466
0.986591
0.98639
0.987248
0.985976
0.989283
0.995004
1.48749
2.09336
2.12994
2.12334
2.11344
2.10796
2.11121
2.10857
2.10166
2.08856
2.06386
2.04082
2.03713
2.05718
2.11594
2.19351
2.31528
2.31834
2.29057
2.35747
2.38991
2.43654
2.50743
2.57896
2.64971
2.71834
2.76215
2.80564
2.81922
2.83765
2.83582
2.82316
2.79507
2.7592
2.71647
2.66679
2.62251
2.57837
2.53002
2.47109
2.40046
2.3517
2.337
2.3366
2.32353
2.30952
2.30913
2.31661
2.319
2.3159
2.31671
2.32781
2.34212
2.34465
2.34566
2.35159
2.3599
2.37613
2.39479
2.42289
2.47032
2.54909
2.65926
2.77166
2.83703
2.87812
2.88981
2.88978
2.88196
2.86766
2.86494
2.88281
2.93244
3.02596
3.08899
3.1582
0.992107
0.991985
0.991825
0.991745
0.991595
0.991447
0.991282
0.991114
0.990939
0.990758
0.990593
0.990413
0.990208
0.990029
0.989865
0.989666
0.98946
0.98929
0.989117
0.988898
0.988688
0.988522
0.988367
0.988157
0.987925
0.987757
0.987617
0.987444
0.987157
0.986886
0.986727
0.986648
0.986598
0.986515
0.98623
0.98603
0.985986
0.986109
0.985989
0.986612
0.986558
0.989494
1.00394
1.68712
2.13152
2.14734
2.1418
2.13311
2.12975
2.13066
2.12964
2.12701
2.11983
2.10406
2.08664
2.07716
2.08345
2.11222
2.23509
2.40065
2.52207
2.57445
2.64846
2.71945
2.77849
2.8095
2.82255
2.83923
2.85943
2.85714
2.85314
2.84423
2.83234
2.82844
2.81922
2.80079
2.77889
2.74951
2.71193
2.67289
2.6329
2.58865
2.53139
2.46656
2.41416
2.38902
2.372
2.35116
2.3404
2.32971
2.32194
2.3158
2.3122
2.31529
2.3246
2.32707
2.32954
2.33643
2.34534
2.35746
2.37235
2.39008
2.41591
2.45787
2.52849
2.63223
2.74044
2.81456
2.86419
2.88356
2.88595
2.87931
2.86331
2.85391
2.86734
2.90731
2.99457
3.06795
3.14618
0.992099
0.991974
0.991812
0.991733
0.991582
0.991432
0.991265
0.991097
0.990919
0.990731
0.99056
0.990383
0.990171
0.989978
0.989806
0.989604
0.989378
0.989188
0.98901
0.988784
0.988537
0.988345
0.988175
0.987971
0.987698
0.987486
0.987318
0.98714
0.986862
0.986496
0.986278
0.986145
0.986081
0.986024
0.985838
0.985557
0.985453
0.985302
0.985439
0.985425
0.985958
0.98976
1.02133
1.8606
2.14066
2.16332
2.15785
2.15072
2.14647
2.14496
2.14519
2.14296
2.13966
2.13654
2.13965
2.15644
2.18675
2.27087
2.49986
2.70659
2.78428
2.81451
2.84201
2.85375
2.85413
2.84752
2.84798
2.83883
2.843
2.84018
2.83149
2.8246
2.81653
2.81044
2.80634
2.79884
2.78773
2.77174
2.74895
2.72044
2.68724
2.6467
2.5952
2.5366
2.46943
2.41898
2.38212
2.35734
2.34401
2.33233
2.32903
2.32627
2.32461
2.32242
2.32062
2.31989
2.32767
2.33474
2.34039
2.35043
2.36316
2.38206
2.40894
2.44716
2.50791
2.60176
2.70709
2.79085
2.84814
2.8752
2.88014
2.87455
2.85815
2.84231
2.85044
2.88227
2.9655
3.04692
3.13383
0.992078
0.991958
0.991798
0.99172
0.991569
0.991417
0.991246
0.991078
0.990899
0.990701
0.990522
0.99035
0.990133
0.989921
0.989739
0.989539
0.989292
0.989079
0.988892
0.988663
0.988379
0.988153
0.987967
0.987763
0.987465
0.987192
0.986996
0.986805
0.986534
0.986111
0.985819
0.985635
0.985551
0.985527
0.985395
0.984948
0.984432
0.983742
0.983929
0.982687
0.98405
0.98941
1.12279
1.97923
2.13227
2.1554
2.15612
2.15244
2.14939
2.14864
2.14653
2.14056
2.13721
2.14331
2.17005
2.22513
2.32349
2.53965
2.76751
2.82896
2.84168
2.83362
2.84005
2.84434
2.83985
2.83099
2.83082
2.82186
2.81983
2.81593
2.81345
2.81337
2.81102
2.80679
2.80325
2.7981
2.78966
2.78027
2.76782
2.75036
2.72671
2.69593
2.65614
2.60333
2.53514
2.4729
2.42614
2.39438
2.36905
2.35035
2.3373
2.32837
2.32458
2.31977
2.31586
2.31846
2.3246
2.32677
2.33147
2.33924
2.35406
2.37376
2.39752
2.43054
2.48534
2.57315
2.67925
2.7689
2.83093
2.86473
2.87298
2.86871
2.85295
2.83269
2.83711
2.85945
2.93732
3.02635
3.12197
0.992064
0.991942
0.991781
0.991705
0.991554
0.991401
0.991227
0.991056
0.99088
0.990675
0.990482
0.990309
0.990097
0.989867
0.989671
0.989469
0.989213
0.988971
0.988766
0.988539
0.988231
0.987962
0.987749
0.987546
0.987247
0.986906
0.986665
0.986457
0.986194
0.985754
0.985346
0.985079
0.984948
0.984861
0.984746
0.984288
0.983762
0.983247
0.983699
0.98318
0.986655
0.994866
1.3985
2.05265
2.09136
2.10247
2.10594
2.11101
2.12245
2.13055
2.13521
2.1352
2.13895
2.16218
2.23531
2.36032
2.57929
2.80083
2.85177
2.84201
2.83363
2.82696
2.81759
2.81602
2.81227
2.80778
2.8049
2.79805
2.79385
2.78912
2.7885
2.79167
2.7956
2.79627
2.79459
2.79289
2.78868
2.78138
2.77308
2.7629
2.74859
2.72646
2.69664
2.65532
2.60059
2.54082
2.47934
2.42902
2.38599
2.35956
2.34226
2.33418
2.32959
2.32198
2.31863
2.32073
2.32128
2.32174
2.32611
2.33431
2.34699
2.36248
2.38315
2.41519
2.46733
2.54904
2.65574
2.74791
2.81273
2.85223
2.86461
2.86151
2.84643
2.82259
2.8233
2.83756
2.91273
3.00598
3.10839
0.992038
0.991921
0.991763
0.991688
0.991537
0.991384
0.991207
0.99103
0.990857
0.990651
0.990441
0.990261
0.990059
0.989812
0.989594
0.989392
0.989134
0.988857
0.988633
0.988402
0.98808
0.987762
0.987519
0.987307
0.987014
0.986603
0.986302
0.98607
0.985805
0.985378
0.98487
0.984564
0.984426
0.984364
0.984361
0.98415
0.983552
0.983233
0.983166
0.983411
0.987657
1.01814
1.68538
2.04899
2.08454
2.09378
2.09645
2.09987
2.10785
2.11881
2.12891
2.13937
2.16359
2.24398
2.40343
2.62665
2.82144
2.85403
2.83041
2.81993
2.81794
2.80598
2.7986
2.79867
2.79612
2.79092
2.78431
2.77939
2.7752
2.77163
2.76803
2.76591
2.76807
2.77249
2.77484
2.7773
2.77768
2.77611
2.77168
2.76466
2.7563
2.74345
2.72356
2.69452
2.6551
2.60121
2.53665
2.47348
2.42239
2.3881
2.3603
2.34336
2.32928
2.31948
2.31627
2.31581
2.31436
2.31537
2.31959
2.32829
2.337
2.3513
2.37229
2.40495
2.45516
2.53106
2.63623
2.72755
2.79367
2.83756
2.8543
2.85236
2.83832
2.81235
2.80866
2.81746
2.88944
2.98595
3.09542
0.992018
0.9919
0.991742
0.991668
0.991519
0.991366
0.991187
0.991003
0.99083
0.990629
0.990407
0.990212
0.990017
0.989766
0.989521
0.989307
0.989057
0.988754
0.988497
0.988257
0.98794
0.987574
0.987293
0.987054
0.986775
0.986341
0.985952
0.985667
0.985398
0.985008
0.984422
0.984007
0.9837
0.983551
0.983461
0.983039
0.981899
0.980765
0.978964
0.980042
0.987334
1.10169
1.88712
2.06089
2.09107
2.09782
2.09629
2.09417
2.09641
2.1072
2.12873
2.15959
2.24057
2.43951
2.67382
2.82387
2.84261
2.84019
2.80594
2.80011
2.80153
2.79096
2.7859
2.78654
2.78466
2.77859
2.77232
2.76627
2.76183
2.75721
2.75227
2.74689
2.74253
2.74419
2.74871
2.75502
2.76116
2.76435
2.76381
2.76164
2.75594
2.74812
2.73577
2.71674
2.68855
2.64926
2.59325
2.52779
2.46636
2.41615
2.37589
2.34882
2.33108
2.3238
2.31951
2.31617
2.31308
2.31314
2.31675
2.32132
2.32991
2.34497
2.36655
2.39802
2.44456
2.51458
2.6145
2.70687
2.77518
2.82201
2.84267
2.84194
2.82893
2.80169
2.79394
2.79801
2.8654
2.96276
3.0762
0.991988
0.991875
0.99172
0.991647
0.991497
0.991346
0.991167
0.990977
0.990796
0.990604
0.990374
0.990158
0.989962
0.989718
0.989445
0.989214
0.98897
0.988649
0.988352
0.988099
0.987794
0.987383
0.987053
0.986789
0.986516
0.98609
0.985595
0.985245
0.984946
0.984566
0.983918
0.983398
0.983028
0.982912
0.9829
0.982892
0.9824
0.982067
0.981342
0.98476
0.997826
1.43272
1.99612
2.03291
2.04851
2.05842
2.0684
2.07373
2.07975
2.10671
2.15992
2.26328
2.46557
2.70272
2.82795
2.812
2.81114
2.807
2.77909
2.77477
2.77766
2.77207
2.76934
2.76972
2.76857
2.76345
2.75893
2.75366
2.74881
2.7427
2.73674
2.73022
2.72474
2.72006
2.72164
2.72562
2.73569
2.74442
2.75055