/*--------------------------------*- C++ -*----------------------------------*\
| =========                 |                                                 |
| \\      /  F ield         | OpenFOAM: The Open Source CFD Toolbox           |
|  \\    /   O peration     | Version:  2.2.x                                 |
|   \\  /    A nd           | Web:      www.OpenFOAM.org                      |
|    \\/     M anipulation  |                                                 |
\*---------------------------------------------------------------------------*/
FoamFile
{
    version     2.0;
    format      ascii;
    class       volScalarField;
    location    "0.35";
    object      By;
}
// * * * * * * * * * * * * * * * * * * * * * * * * * * * * * * * * * * * * * //

dimensions      [1 0 -2 0 0 -1 0];

internalField   nonuniform List<scalar> 
14161
(
-2.61932e-11
1.28322e-11
-2.0212e-12
3.74283e-12
-1.89187e-13
2.8998e-12
4.33584e-12
1.03297e-11
2.14187e-11
4.42397e-11
8.04613e-11
1.61688e-10
2.71429e-10
5.09495e-10
8.41379e-10
1.62065e-09
2.18331e-09
5.04775e-09
4.06399e-09
1.96873e-08
-9.93732e-10
3.89379e-08
1.66474e-07
-3.08498e-07
3.27325e-07
4.86683e-07
-2.34201e-06
1.5413e-06
1.15874e-06
-6.66198e-06
5.44576e-06
-2.37858e-06
1.4171e-05
1.44552e-05
-1.13918e-05
1.70405e-06
5.34166e-06
1.5656e-05
3.04035e-05
1.14037e-05
-1.85312e-05
-3.45251e-05
1.94444e-05
7.87386e-05
5.71211e-05
3.42595e-05
7.71667e-05
6.85064e-05
-6.08571e-05
-1.76788e-06
8.19859e-05
7.42887e-05
0.000140051
0.000188014
0.000152272
0.000188386
0.000345916
0.000773899
0.0012192
0.00184042
0.00422681
0.00504549
0.0162051
0.0816383
0.0278461
-0.0716496
-0.111426
-0.0798217
-0.0372135
-0.0202516
-0.0132877
-0.0054448
-0.00280786
-0.00191557
-0.000270704
0.0048516
0.00764557
0.012042
0.016437
0.01415
0.00605644
0.00582817
0.00467886
0.000709322
-0.000293687
0.00380251
0.0229174
0.0497376
0.0696757
0.0678874
0.0537572
0.0461731
0.0375078
0.0340214
0.0262316
0.0157071
0.0101828
0.0096972
0.0111969
0.0135174
0.0148845
0.0142765
0.0139969
0.0142276
0.0152059
0.0157627
0.0165817
0.0164904
0.0171836
0.0180706
0.0174727
0.0176278
0.01532
0.017646
0.0164709
0.0163399
0.0141478
0.0106165
0.0153276
-4.2829e-11
2.40598e-11
2.53417e-11
6.21786e-11
1.0437e-10
1.91021e-10
3.26542e-10
5.5354e-10
9.14795e-10
1.48456e-09
2.37895e-09
3.70705e-09
5.74998e-09
8.75821e-09
1.2975e-08
1.95476e-08
2.86845e-08
4.00872e-08
6.32181e-08
8.27566e-08
1.29431e-07
1.05544e-07
4.13943e-07
-2.10988e-07
8.62164e-07
1.31285e-06
-2.72433e-06
7.50254e-06
-1.70302e-06
-1.51612e-08
1.02978e-05
-1.69846e-05
1.51357e-05
6.04812e-06
2.44797e-05
1.60714e-05
-5.74477e-05
1.17365e-05
9.0135e-05
3.36727e-05
2.31778e-05
1.77489e-05
-5.16873e-05
-5.42538e-05
5.94138e-05
0.000104615
0.000133836
9.78488e-05
4.86281e-05
9.9817e-06
-3.13647e-05
0.000137222
0.000351187
0.000438775
0.000423797
0.000353197
0.000246062
0.000413481
0.000681537
0.00172935
0.00362895
0.0106059
0.0451743
0.197766
0.0258222
-0.13688
-0.182226
-0.158298
-0.111219
-0.0911824
-0.0754877
-0.0535696
-0.0432905
-0.0335567
-0.0232882
-0.0102002
0.00326511
0.0156745
0.0234599
0.0336261
0.0278597
0.01555
0.0056837
0.00565403
-0.00309539
-0.00240942
0.0205299
0.0596844
0.0883687
0.0906443
0.0837646
0.0788042
0.0710098
0.0654133
0.0635495
0.0610984
0.056482
0.0527768
0.0524958
0.0509361
0.048383
0.0452305
0.0434651
0.0424171
0.0420492
0.0420973
0.0435869
0.0451287
0.0455132
0.0467003
0.0464108
0.0503452
0.0481521
0.0520553
0.0455076
0.0470233
0.0430723
0.0398022
0.0483128
-7.76797e-11
3.68817e-11
1.41228e-11
4.71422e-11
6.61729e-11
1.27779e-10
2.16504e-10
3.72165e-10
6.21188e-10
1.0258e-09
1.66191e-09
2.66373e-09
4.20194e-09
6.58389e-09
1.01371e-08
1.57127e-08
2.39855e-08
3.51377e-08
5.97766e-08
6.56146e-08
1.57857e-07
1.49906e-07
2.26108e-07
6.14424e-07
3.15515e-07
3.4783e-07
2.23407e-06
5.76609e-07
-2.63187e-07
1.00633e-05
-6.06731e-06
3.3951e-06
2.88738e-05
-1.24863e-05
1.99108e-05
5.74096e-05
-1.23616e-05
1.67869e-05
8.53064e-05
1.44154e-06
3.2311e-05
0.000171987
6.12064e-05
-5.09833e-05
5.79902e-05
0.000143498
9.75318e-05
0.000178755
0.000397644
0.000283523
2.69897e-05
6.95238e-05
0.000295944
0.000653183
0.000763948
0.000773945
0.000669015
0.000735259
0.00121279
0.00211493
0.00365087
0.0084188
0.029387
0.164706
0.0718523
-0.194467
-0.236214
-0.206021
-0.157383
-0.116743
-0.0881798
-0.0619999
-0.043018
-0.0276514
-0.0124926
0.00250547
0.0248963
0.0410924
0.0473255
0.0676574
0.0600469
0.0555201
0.0411845
0.0478758
0.0495377
0.067449
0.10287
0.142719
0.157455
0.146941
0.128124
0.11402
0.100213
0.0893142
0.0837638
0.0736054
0.0684331
0.0665265
0.0676239
0.0683463
0.0672423
0.0642281
0.0637385
0.0656978
0.0685622
0.0710214
0.0721977
0.07342
0.0743208
0.077284
0.0765397
0.0804967
0.0780704
0.0843309
0.07809
0.0781911
0.0764526
0.0720342
0.0795004
-8.58081e-11
4.64198e-11
3.79824e-11
1.02923e-10
1.65546e-10
3.06787e-10
5.2309e-10
8.90081e-10
1.47651e-09
2.40693e-09
3.87807e-09
6.10362e-09
9.53126e-09
1.47151e-08
2.21658e-08
3.39471e-08
5.00753e-08
7.56483e-08
1.10833e-07
1.65387e-07
2.33028e-07
3.82888e-07
3.30667e-07
9.30545e-07
7.37883e-07
1.01257e-06
3.94237e-06
-1.01752e-06
6.83298e-06
3.5573e-06
3.24059e-07
1.43277e-05
6.97867e-06
1.99805e-05
-6.22463e-06
2.36549e-05
7.91172e-05
2.67564e-05
5.9547e-06
3.38366e-05
2.07683e-05
7.11479e-05
0.000173281
0.000103618
-6.2149e-07
6.69904e-05
0.00023444
0.000306301
0.000197674
0.000173482
0.000337136
0.000247534
0.000261162
0.000560493
0.000817848
0.000821709
0.00070417
0.000762667
0.000661189
0.000940353
0.000505144
0.0014487
0.000400315
0.0134062
-0.142676
-0.232436
-0.231991
-0.201411
-0.16283
-0.130896
-0.0928864
-0.067758
-0.0522092
-0.0352
-0.0172356
0.000140475
0.0210598
0.0517712
0.0691469
0.0825641
0.0754433
0.0820603
0.0751157
0.1043
0.147962
0.169176
0.172598
0.17794
0.181483
0.16964
0.152449
0.137689
0.126137
0.119395
0.113306
0.104982
0.0996774
0.0965326
0.0942887
0.0901805
0.0875195
0.0853781
0.0876274
0.0885109
0.0914957
0.0934557
0.0976566
0.100289
0.0996508
0.101452
0.0985509
0.103887
0.100618
0.108294
0.102583
0.105132
0.104052
0.101971
0.109492
-1.09844e-10
4.99548e-11
2.35424e-11
7.47562e-11
1.07545e-10
2.06878e-10
3.51572e-10
6.06057e-10
1.01374e-09
1.67831e-09
2.73472e-09
4.38882e-09
7.00632e-09
1.10239e-08
1.71394e-08
2.70416e-08
4.07488e-08
6.46819e-08
9.47962e-08
1.53387e-07
2.10582e-07
3.58335e-07
5.50289e-07
6.78561e-07
1.05446e-06
1.74307e-06
1.49705e-06
3.66316e-06
6.19887e-06
-5.94112e-08
1.28659e-05
1.36819e-05
-6.9892e-06
4.9885e-05
3.29425e-05
-4.17365e-06
9.16046e-05
5.80661e-05
1.60049e-05
0.000141263
0.000103343
1.60105e-05
0.000116197
0.00017858
9.24739e-05
0.000121209
0.00034811
0.000447798
0.000227937
0.000115999
0.000358012
0.000562425
0.00037417
0.000401675
0.000659985
0.000592979
0.000460102
0.000421281
0.000164762
-0.000352607
-0.00125172
-0.00361349
-0.0141784
-0.109821
-0.323347
-0.318623
-0.266448
-0.211373
-0.182801
-0.138384
-0.100668
-0.0730534
-0.0509329
-0.0320658
-0.0134882
0.00768193
0.0315081
0.0625593
0.0929707
0.118617
0.133264
0.163574
0.199723
0.224441
0.255088
0.276226
0.274406
0.263508
0.246616
0.220624
0.197133
0.179157
0.164613
0.157104
0.146469
0.130818
0.123405
0.11767
0.111793
0.105519
0.102611
0.100804
0.101922
0.10261
0.106539
0.11022
0.116619
0.121627
0.127676
0.132932
0.129914
0.13369
0.125942
0.132079
0.126074
0.13074
0.131658
0.130776
0.138488
-1.11334e-10
5.83811e-11
4.28662e-11
1.22997e-10
1.94148e-10
3.62754e-10
6.17736e-10
1.05481e-09
1.75624e-09
2.87571e-09
4.65496e-09
7.41328e-09
1.16307e-08
1.82392e-08
2.79678e-08
4.30433e-08
6.62429e-08
9.84593e-08
1.55852e-07
2.19571e-07
3.58788e-07
4.67709e-07
7.72585e-07
1.04501e-06
1.5787e-06
2.64473e-06
2.43336e-06
5.67159e-06
6.06075e-06
7.96535e-06
1.17223e-05
1.45858e-05
1.39833e-05
1.51069e-05
2.96413e-05
2.48146e-05
5.30002e-05
7.617e-05
4.86233e-05
6.9905e-05
0.000110043
5.65628e-05
7.11702e-05
0.000235712
0.000297107
0.000191699
0.000158572
0.000271134
0.000397374
0.000263628
0.000274812
0.000578937
0.00079141
0.000575204
0.000797554
0.00104771
0.00102545
0.000776393
0.00111813
0.000994218
0.00128769
-0.00085191
-0.0157012
-0.174138
-0.495882
-0.452528
-0.338055
-0.250913
-0.221452
-0.161582
-0.117899
-0.0797055
-0.0526251
-0.0333531
-0.0135404
0.00550315
0.0325629
0.0680161
0.124131
0.184746
0.228786
0.265569
0.307464
0.324525
0.329813
0.321292
0.30214
0.286385
0.269279
0.249259
0.228157
0.207789
0.194246
0.188193
0.17794
0.162969
0.153142
0.145521
0.138016
0.129762
0.126427
0.124624
0.126428
0.125373
0.128653
0.132421
0.138567
0.142083
0.146517
0.151655
0.151447
0.157297
0.149641
0.155592
0.147259
0.153492
0.156315
0.158061
0.166278
-1.26933e-10
5.57243e-11
2.45922e-11
8.51014e-11
1.22236e-10
2.37846e-10
4.05168e-10
7.04066e-10
1.18408e-09
1.97604e-09
3.25441e-09
5.27031e-09
8.54774e-09
1.36315e-08
2.16155e-08
3.43856e-08
5.38696e-08
8.39505e-08
1.34292e-07
1.96395e-07
3.28627e-07
4.76814e-07
7.25251e-07
1.15192e-06
1.47994e-06
2.2836e-06
3.77058e-06
3.89607e-06
6.30613e-06
1.2454e-05
7.37108e-06
1.68224e-05
3.24187e-05
1.12368e-05
5.1591e-05
6.47698e-05
2.72612e-05
9.84166e-05
0.000110022
5.67101e-05
0.000162099
0.000210914
9.63369e-05
0.000130611
0.000309428
0.00037907
0.000249657
0.00019971
0.000406369
0.000503251
0.000398209
0.000390552
0.000725182
0.000635239
0.000615789
0.000512937
0.000810341
0.000565236
0.000745261
0.000795485
0.00102419
-0.00201869
-0.0216742
-0.250936
-0.634039
-0.573707
-0.427217
-0.318849
-0.259549
-0.182417
-0.126126
-0.0814325
-0.0483029
-0.029657
-0.0136097
0.0130809
0.0402997
0.106045
0.181087
0.295087
0.391462
0.412534
0.417182
0.412858
0.39645
0.374717
0.350246
0.32748
0.302258
0.280003
0.26861
0.253733
0.237975
0.226024
0.210828
0.192878
0.180307
0.170192
0.160762
0.152061
0.149781
0.146813
0.146466
0.144765
0.14737
0.150824
0.157012
0.162168
0.16751
0.17315
0.174472
0.179191
0.173502
0.180722
0.16995
0.177648
0.178372
0.181653
0.191797
-1.24639e-10
6.30522e-11
3.99072e-11
1.24521e-10
1.93635e-10
3.65985e-10
6.23201e-10
1.06933e-09
1.78935e-09
2.95187e-09
4.80171e-09
7.77433e-09
1.22884e-08
1.95554e-08
3.07759e-08
4.76996e-08
7.53022e-08
1.17036e-07
1.76653e-07
2.89152e-07
4.05139e-07
6.74208e-07
9.4534e-07
1.45013e-06
2.23896e-06
2.86654e-06
4.94039e-06
5.8957e-06
7.98402e-06
1.3226e-05
1.55954e-05
1.72095e-05
3.308e-05
2.40523e-05
3.52112e-05
6.31134e-05
3.29599e-05
7.78673e-05
0.000147221
7.15229e-05
5.53807e-05
0.00021046
0.000273659
0.000165398
0.000164886
0.000299756
0.000360085
0.00026487
0.000284384
0.000535258
0.000679137
0.000421353
0.00057899
0.000855453
0.000807473
0.000747393
0.00151046
0.00178965
0.00250326
0.00221899
0.00284292
-0.00235226
-0.0399299
-0.376345
-0.732775
-0.680643
-0.514802
-0.403793
-0.298013
-0.205075
-0.129672
-0.077302
-0.0447471
-0.0153151
0.00341859
0.0593248
0.137686
0.257101
0.379077
0.451752
0.472761
0.475023
0.471231
0.453157
0.424904
0.39398
0.372351
0.35434
0.32806
0.303509
0.286903
0.27201
0.261524
0.253109
0.240791
0.226027
0.214391
0.20315
0.190817
0.180726
0.178819
0.174034
0.170638
0.166109
0.165546
0.167652
0.172954
0.178339
0.18435
0.191196
0.194571
0.200868
0.196769
0.202549
0.192508
0.201883
0.199418
0.203929
0.215557
-1.33747e-10
5.5834e-11
1.83884e-11
8.06837e-11
1.13321e-10
2.27004e-10
3.88154e-10
6.83588e-10
1.16209e-09
1.9663e-09
3.29792e-09
5.41953e-09
8.98371e-09
1.46625e-08
2.37243e-08
3.85503e-08
6.17301e-08
9.96114e-08
1.55408e-07
2.53496e-07
3.84479e-07
6.07092e-07
9.51393e-07
1.35022e-06
2.12998e-06
3.20162e-06
3.55901e-06
7.60109e-06
8.48726e-06
1.03596e-05
2.02022e-05
2.03718e-05
2.5377e-05
5.20951e-05
2.90951e-05
6.3089e-05
0.000105633
5.078e-05
0.000102859
0.000200081
0.000111001
0.000106164
0.000245969
0.000314485
0.000222823
0.000227751
0.000401609
0.000475411
0.000363511
0.000354925
0.000580458
0.000651138
0.000526839
0.000532704
0.000830487
0.000891581
0.00098457
0.000854036
0.00126898
0.00133208
0.000168084
-0.0077577
-0.0831577
-0.545039
-0.781689
-0.766649
-0.638553
-0.509628
-0.331567
-0.216305
-0.12774
-0.067019
-0.0273483
0.040553
0.126738
0.222382
0.310936
0.414952
0.473042
0.498763
0.514096
0.51611
0.501418
0.476306
0.442463
0.414685
0.400334
0.383354
0.358905
0.336762
0.317254
0.295964
0.280726
0.271324
0.261223
0.250259
0.242135
0.231143
0.216665
0.204811
0.201063
0.196768
0.192437
0.188585
0.18682
0.187791
0.191206
0.195778
0.201419
0.209406
0.21325
0.221067
0.217828
0.223821
0.214862
0.224874
0.22067
0.225911
0.238009
-1.29988e-10
6.24779e-11
3.00443e-11
1.1063e-10
1.67695e-10
3.24222e-10
5.52873e-10
9.56685e-10
1.61275e-09
2.70004e-09
4.41801e-09
7.31652e-09
1.17444e-08
1.893e-08
3.08137e-08
4.84335e-08
7.82096e-08
1.25774e-07
1.92668e-07
3.17968e-07
4.76847e-07
7.47214e-07
1.15674e-06
1.70606e-06
2.57784e-06
3.71652e-06
5.59851e-06
6.35556e-06
1.26769e-05
1.14432e-05
1.80502e-05
3.01706e-05
2.27318e-05
4.50956e-05
5.87501e-05
3.16249e-05
9.17219e-05
0.000119439
5.6724e-05
0.000131334
0.000238524
0.000156281
0.000148467
0.000276685
0.000340341
0.00027087
0.000253784
0.000457694
0.000553346
0.000430592
0.000372493
0.000741701
0.000816138
0.000755813
0.000808381
0.00125852
0.00123529
0.00129792
0.00135804
0.00237806
0.0011026
-0.0106768
-0.129423
-0.65047
-0.825345
-0.827493
-0.754139
-0.593648
-0.416469
-0.216286
-0.0776332
0.00656695
0.139524
0.198075
0.312834
0.37661
0.436957
0.477358
0.5015
0.531083
0.535276
0.527839
0.508436
0.484532
0.457764
0.436005
0.41863
0.39617
0.375297
0.360879
0.345623
0.324346
0.307339
0.296401
0.284484
0.274626
0.267983
0.257798
0.245498
0.233779
0.226134
0.219015
0.211888
0.206405
0.204462
0.20561
0.209323
0.214294
0.219727
0.228208
0.23174
0.241052
0.237879
0.244105
0.235936
0.245812
0.240982
0.247347
0.259343
-1.34333e-10
5.16876e-11
5.9611e-12
6.32457e-11
8.24818e-11
1.77847e-10
3.06497e-10
5.5426e-10
9.66568e-10
1.6755e-09
2.90779e-09
4.90164e-09
8.35569e-09
1.42652e-08
2.34644e-08
3.95339e-08
6.47172e-08
1.06815e-07
1.71939e-07
2.79924e-07
4.39814e-07
7.01483e-07
1.05835e-06
1.69934e-06
2.39601e-06
3.4479e-06
5.60505e-06
7.10579e-06
9.32387e-06
1.74407e-05
1.6978e-05
2.54558e-05
4.22859e-05
3.45918e-05
6.12229e-05
6.88763e-05
5.48149e-05
0.000112395
0.000135297
9.51409e-05
0.000170436
0.000262115
0.000192738
0.000204356
0.000323086
0.000423067
0.000319267
0.000301702
0.000468328
0.000616398
0.000506126
0.000479182
0.000562853
0.000872562
0.000754066
0.000923265
0.000669383
0.00151558
0.000961064
0.00226774
-0.000522728
-0.0179951
-0.220186
-0.756975
-0.84868
-0.850281
-0.808716
-0.695548
-0.475876
-0.205711
0.0342564
0.201036
0.276526
0.387598
0.431934
0.475773
0.492134
0.506653
0.529381
0.547145
0.546182
0.53613
0.519501
0.499101
0.478406
0.459185
0.43641
0.415127
0.398267
0.384673
0.366973
0.345812
0.333128
0.323267
0.309952
0.299836
0.290838
0.279035
0.266774
0.256551
0.250098
0.242614
0.233951
0.2255
0.222412
0.222323
0.225827
0.231108
0.237162
0.246193
0.24916
0.259723
0.256768
0.26392
0.256605
0.266409
0.261213
0.268349
0.279332
-1.30795e-10
5.75022e-11
1.43007e-11
8.4315e-11
1.20241e-10
2.45016e-10
4.18871e-10
7.4057e-10
1.26326e-09
2.17395e-09
3.61058e-09
6.12658e-09
1.02245e-08
1.65667e-08
2.81107e-08
4.5774e-08
7.44522e-08
1.25228e-07
1.96441e-07
3.22089e-07
5.1797e-07
7.65463e-07
1.3075e-06
1.74053e-06
2.94821e-06
4.07931e-06
5.67848e-06
9.36641e-06
1.0057e-05
1.59267e-05
2.317e-05
2.23449e-05
3.64685e-05
5.13988e-05
3.6105e-05
8.43367e-05
0.000101694
6.94318e-05
0.000133481
0.000180034
0.000129923
0.000186421
0.000287975
0.000261729
0.000215658
0.000300992
0.000465197
0.000443643
0.000331934
0.000470568
0.000676454
0.000638327
0.000440758
0.000753535
0.000882666
0.000934725
0.000638161
0.00143549
0.00131163
0.00187488
-0.00353758
-0.0355069
-0.363147
-0.818629
-0.855705
-0.852997
-0.820709
-0.70447
-0.42954
-0.031702
0.206963
0.327789
0.419595
0.450941
0.478165
0.502005
0.538148
0.547681
0.552122
0.555599
0.556714
0.547273
0.533905
0.515276
0.494831
0.470986
0.448228
0.43209
0.416672
0.401714
0.382288
0.364142
0.356361
0.347481
0.335691
0.32736
0.316425
0.302803
0.289664
0.279878
0.273302
0.2647
0.254855
0.245379
0.24141
0.239074
0.241141
0.246442
0.2537
0.262966
0.265954
0.277072
0.274357
0.282984
0.275815
0.28617
0.280688
0.288453
0.297813
-1.32062e-10
4.40144e-11
-1.21592e-11
3.4061e-11
3.02531e-11
9.12273e-11
1.61772e-10
3.21467e-10
6.04675e-10
1.10821e-09
2.08776e-09
3.75844e-09
6.63545e-09
1.23283e-08
2.08857e-08
3.66177e-08
6.24955e-08
1.05483e-07
1.72827e-07
2.92421e-07
4.48733e-07
7.54203e-07
1.12185e-06
1.73232e-06
2.68708e-06
3.84113e-06
5.65789e-06
7.60994e-06
1.27713e-05
1.29351e-05
2.23273e-05
2.98035e-05
3.29981e-05
4.42027e-05
6.49848e-05
5.88709e-05
9.1701e-05
9.92074e-05
9.76642e-05
0.000151429
0.000186201
0.000149999
0.000210634
0.000301769
0.000279517
0.000239209
0.00032506
0.000475948
0.000456855
0.000408721
0.000446218
0.000617013
0.000671994
0.000705812
0.000579643
0.00103492
0.000655976
0.000903989
0.000795676
0.000538169
-0.00736212
-0.0744207
-0.519757
-0.837079
-0.86204
-0.845888
-0.793243
-0.631692
-0.257958
0.125697
0.322172
0.426364
0.468745
0.493358
0.515687
0.546006
0.567398
0.572816
0.567844
0.568186
0.574016
0.56876
0.556831
0.536429
0.514102
0.487695
0.466231
0.449839
0.432476
0.417731
0.399168
0.384401
0.376951
0.366569
0.356387
0.348807
0.337095
0.324233
0.313403
0.304332
0.296394
0.285925
0.276278
0.266069
0.261584
0.256652
0.25694
0.261461
0.269456
0.278715
0.282369
0.293392
0.291468
0.301519
0.29431
0.305144
0.299069
0.30852
0.315417
-1.29561e-10
4.83691e-11
-6.68273e-12
4.8029e-11
5.43876e-11
1.34381e-10
2.33356e-10
4.39461e-10
7.77633e-10
1.41906e-09
2.47354e-09
4.25952e-09
7.8127e-09
1.27041e-08
2.26311e-08
3.93447e-08
6.51726e-08
1.10705e-07
1.9207e-07
2.87804e-07
5.21723e-07
7.44534e-07
1.22705e-06
1.93886e-06
2.58066e-06
4.42884e-06
5.50628e-06
8.61035e-06
1.08881e-05
1.69985e-05
1.72833e-05
3.00031e-05
3.77872e-05
3.54035e-05
5.92203e-05
8.07507e-05
6.13912e-05
0.00010585
0.000149865
0.000118376
0.000155231
0.000226399
0.000188336
0.000188549
0.000279822
0.000393985
0.00032873
0.000281332
0.000401084
0.000543488
0.000467154
0.000396898
0.00060596
0.000660442
0.000736573
0.000613998
0.000734023
0.000290338
0.000588422
-0.00117827
-0.0135618
-0.131929
-0.652859
-0.850266
-0.862718
-0.828642
-0.730304
-0.463161
-0.0290886
0.279648
0.408305
0.457365
0.487137
0.522852
0.554547
0.574889
0.585538
0.582652
0.581245
0.585064
0.59034
0.585237
0.573055
0.553646
0.532555
0.509329
0.489262
0.468642
0.450677
0.436217
0.41924
0.407903
0.3993
0.388202
0.379372
0.370033
0.356808
0.345152
0.335914
0.325301
0.316062
0.304451
0.295586
0.285842
0.281115
0.274439
0.272563
0.275979
0.284143
0.293525
0.298411
0.309517
0.308664
0.319184
0.312068
0.322699
0.31611
0.330595
0.332404
-1.29174e-10
3.39444e-11
-3.5179e-11
-5.63187e-12
-4.17071e-11
-3.04639e-11
-4.31768e-11
-1.51655e-11
7.384e-11
2.73201e-10
7.97242e-10
2.02295e-09
3.79865e-09
8.52188e-09
1.60142e-08
2.90529e-08
5.35482e-08
9.47362e-08
1.54147e-07
2.777e-07
4.21719e-07
7.05722e-07
1.13474e-06
1.60211e-06
2.75266e-06
3.35867e-06
5.97232e-06
7.15862e-06
1.09467e-05
1.4549e-05
2.0319e-05
2.54126e-05
3.13805e-05
4.92374e-05
4.88692e-05
7.24387e-05
8.19386e-05
8.53797e-05
0.000106299
0.000133656
0.00011931
0.000177764
0.000219869
0.000192486
0.000206505
0.000288483
0.000332581
0.000314267
0.000317682
0.000387066
0.00049406
0.000487846
0.000477115
0.000356937
0.000790669
0.000285601
0.00100221
0.000251276
0.00157211
-0.00138
-0.0191612
-0.220802
-0.756357
-0.844083
-0.838565
-0.787375
-0.616651
-0.220243
0.163058
0.381561
0.450781
0.487817
0.523267
0.554696
0.578774
0.591632
0.593411
0.594072
0.601899
0.60845
0.609023
0.602112
0.59217
0.576373
0.558145
0.534659
0.512492
0.489987
0.473175
0.45709
0.439046
0.427813
0.417276
0.406534
0.398571
0.387475
0.374747
0.365971
0.356936
0.345093
0.334791
0.323128
0.314799
0.305696
0.30065
0.292558
0.288645
0.290615
0.298327
0.30784
0.314061
0.32463
0.324985
0.335668
0.329297
0.339127
0.333189
0.351789
0.348709
-1.28673e-10
3.55449e-11
-3.36183e-11
1.29654e-12
-2.99195e-11
-8.00891e-12
-5.05866e-12
5.06058e-11
1.53226e-10
4.22447e-10
1.00001e-09
1.8011e-09
4.38287e-09
7.69696e-09
1.43028e-08
2.83046e-08
5.05662e-08
8.41369e-08
1.60887e-07
2.52657e-07
4.17286e-07
7.35464e-07
9.61373e-07
1.8202e-06
2.22014e-06
3.85633e-06
5.01598e-06
7.53467e-06
1.09042e-05
1.20078e-05
2.16767e-05
2.28241e-05
3.01477e-05
3.5166e-05
6.20827e-05
4.69647e-05
7.4093e-05
9.16104e-05
9.94976e-05
0.000109167
0.000170313
0.000150473
0.000154048
0.000214175
0.000268693
0.000225942
0.000223875
0.000289831
0.000415952
0.000301478
0.000338519
0.000398427
0.000616563
0.000361669
0.000563456
0.000390842
0.00116152
0.000530434
0.00133953
-0.00476734
-0.0406521
-0.378659
-0.821685
-0.828274
-0.801621
-0.695652
-0.394079
0.0202976
0.309447
0.438042
0.474721
0.516823
0.555236
0.580321
0.591939
0.596017
0.59993
0.611688
0.624516
0.626992
0.62363
0.615348
0.608937
0.595267
0.580585
0.557442
0.534408
0.512319
0.496924
0.479044
0.459882
0.446762
0.434015
0.425374
0.416572
0.404272
0.392653
0.385666
0.375531
0.364118
0.353712
0.341923
0.334042
0.32494
0.319133
0.309971
0.304789
0.30503
0.312147
0.321806
0.329373
0.339191
0.340925
0.35156
0.3457
0.355582
0.350446
0.370907
0.36548
-1.28022e-10
2.06569e-11
-6.33958e-11
-5.46938e-11
-1.31646e-10
-1.8559e-10
-3.061e-10
-4.49942e-10
-6.38359e-10
-8.38137e-10
-1.02301e-09
-5.60924e-10
-1.72231e-10
2.42135e-09
8.57125e-09
1.71916e-08
3.5388e-08
7.18884e-08
1.22369e-07
2.09774e-07
3.87435e-07
5.20757e-07
1.01511e-06
1.31156e-06
2.24887e-06
3.23516e-06
4.41534e-06
7.14554e-06
7.64828e-06
1.44626e-05
1.2609e-05
2.36976e-05
2.47022e-05
3.71997e-05
3.49367e-05
6.09048e-05
5.29357e-05
7.51175e-05
8.80631e-05
0.000106218
9.57953e-05
0.000126314
0.000146222
0.000155511
0.000176772
0.000216829
0.000250272
0.000233448
0.000291947
0.000372537
0.000383245
0.000339016
0.000573596
0.000521035
0.00065406
0.000192237
0.000573148
0.000775872
-0.000231114
-0.00922922
-0.0852974
-0.551784
-0.808247
-0.814439
-0.737906
-0.53379
-0.103536
0.209918
0.376485
0.468796
0.509045
0.549462
0.579764
0.598117
0.600377
0.602933
0.615035
0.632406
0.644738
0.642227
0.635643
0.629682
0.629045
0.617351
0.603088
0.580108
0.55756
0.535566
0.519311
0.500077
0.479935
0.464951
0.452235
0.444915
0.434029
0.42139
0.411175
0.403851
0.39346
0.383012
0.37254
0.36044
0.352643
0.343195
0.336295
0.326637
0.321004
0.319709
0.326128
0.335852
0.344101
0.353312
0.356158
0.366436
0.361605
0.371942
0.367374
0.388319
0.381621
-1.29718e-10
1.84442e-11
-6.61882e-11
-5.46258e-11
-1.31401e-10
-1.80787e-10
-2.96288e-10
-4.32197e-10
-6.21808e-10
-8.28396e-10
-9.23671e-10
-1.11888e-09
-4.50729e-10
1.34928e-09
2.9427e-09
1.31888e-08
2.65769e-08
5.54827e-08
9.31604e-08
2.03562e-07
2.60555e-07
5.67864e-07
7.39558e-07
1.25547e-06
2.05045e-06
2.36603e-06
4.71423e-06
4.32278e-06
8.91163e-06
8.6869e-06
1.55595e-05
1.41848e-05
2.45207e-05
2.92168e-05
3.74357e-05
3.29747e-05
5.07733e-05
7.20102e-05
7.65093e-05
7.94444e-05
8.7126e-05
9.53655e-05
0.000110658
0.000161074
0.000146535
0.00014045
0.000181532
0.000296841
0.000229957
0.000186559
0.000295695
0.00036721
0.000290801
0.000282583
0.000194437
0.000344141
-0.000350193
0.000486197
-0.00148732
-0.0156217
-0.154286
-0.676407
-0.80248
-0.779384
-0.620237
-0.266181
0.14663
0.339131
0.43853
0.504039
0.532668
0.566083
0.593856
0.608848
0.609634
0.616209
0.633396
0.652065
0.660079
0.653365
0.650443
0.648264
0.649203
0.637228
0.623622
0.60212
0.581036
0.558702
0.540635
0.52062
0.499679
0.483398
0.471944
0.463875
0.450755
0.43874
0.429648
0.421253
0.410631
0.401909
0.390563
0.378181
0.370073
0.360134
0.352553
0.342852
0.337657
0.335149
0.34035
0.349949
0.358433
0.367206
0.370725
0.380644
0.37649
0.38748
0.383093
0.404383
0.396163
-1.29843e-10
3.22943e-12
-9.73591e-11
-1.13384e-10
-2.40233e-10
-3.73008e-10
-6.25056e-10
-9.79928e-10
-1.51477e-09
-2.22027e-09
-3.22964e-09
-4.13126e-09
-4.95615e-09
-6.06098e-09
-2.5679e-09
-1.38556e-09
1.06609e-08
2.5432e-08
7.49901e-08
9.67454e-08
2.55968e-07
3.58012e-07
5.79889e-07
1.12995e-06
1.12582e-06
2.62937e-06
2.25285e-06
5.09712e-06
5.27818e-06
8.10315e-06
1.07268e-05
1.39411e-05
1.89149e-05
1.89382e-05
3.04197e-05
2.87504e-05
4.37573e-05
4.49641e-05
4.40889e-05
5.32791e-05
6.93217e-05
5.53956e-05
7.84784e-05
0.000115394
0.000106432
0.000123071
0.000163973
0.000203999
0.000151343
0.000246521
0.000159747
0.000356942
3.03119e-05
0.000518891
0.000215824
0.00105852
0.000497465
0.00194257
-0.0018703
-0.0248512
-0.281439
-0.769665
-0.777474
-0.69021
-0.408214
-0.00169075
0.306924
0.406477
0.470622
0.527192
0.563345
0.582718
0.600782
0.614228
0.623798
0.636805
0.655099
0.668216
0.669824
0.663994
0.667834
0.666442
0.666453
0.654099
0.642525
0.622755
0.603372
0.580414
0.560758
0.540588
0.519296
0.502634
0.492483
0.482488
0.467633
0.457077
0.447824
0.438352
0.427634
0.419741
0.40744
0.394784
0.38658
0.376065
0.368554
0.358855
0.354621
0.35111
0.354503
0.364056
0.372331
0.381355
0.384547
0.393813
0.391035
0.402593
0.398681
0.419217
0.409369
-1.33871e-10
-1.99615e-12
-1.04182e-10
-1.197e-10
-2.50427e-10
-3.86183e-10
-6.44359e-10
-1.0087e-09
-1.55946e-09
-2.34928e-09
-3.33599e-09
-4.67552e-09
-6.76501e-09
-7.07893e-09
-1.10289e-08
-7.30272e-09
-6.96755e-09
1.12467e-08
1.71925e-08
8.6579e-08
1.38872e-07
2.1168e-07
5.52731e-07
4.24123e-07
1.31543e-06
1.15589e-06
2.39703e-06
3.23475e-06
3.60584e-06
6.89153e-06
4.64691e-06
1.28302e-05
7.72741e-06
1.91537e-05
5.73683e-06
2.8486e-05
3.12222e-05
2.45388e-05
1.54485e-05
6.53839e-05
3.25659e-05
3.85438e-05
7.03706e-05
6.68097e-05
3.3667e-05
8.51251e-05
7.3634e-05
6.29345e-05
6.42982e-05
0.000122254
0.0001652
7.18271e-05
0.000203499
0.000351784
0.000135554
0.000735692
7.73737e-05
0.000155414
-0.00768367
-0.0614792
-0.445888
-0.754709
-0.731376
-0.521218
-0.121771
0.194101
0.414051
0.474569
0.502082
0.543924
0.578994
0.600878
0.609043
0.621212
0.638684
0.657001
0.672532
0.678129
0.676479
0.678901
0.686443
0.683968
0.682792
0.671027
0.663246
0.644805
0.626982
0.603425
0.58244
0.561883
0.539959
0.52302
0.513023
0.500931
0.484827
0.475069
0.464937
0.454812
0.444103
0.436311
0.423457
0.411084
0.40264
0.391998
0.384786
0.375196
0.371454
0.366894
0.368422
0.378394
0.385631
0.394806
0.397286
0.406113
0.405414
0.417369
0.413219
0.432362
0.420327
-1.35917e-10
-1.86192e-11
-1.37397e-10
-1.82254e-10
-3.67885e-10
-5.95639e-10
-1.00775e-09
-1.61878e-09
-2.56988e-09
-3.91666e-09
-5.90157e-09
-8.57448e-09
-1.11116e-08
-1.6126e-08
-1.79925e-08
-2.35183e-08
-2.35257e-08
-2.57599e-08
-1.11843e-08
4.66958e-09
1.34848e-08
1.67054e-07
4.89895e-08
4.61605e-07
4.32246e-07
7.10871e-07
1.59565e-06
6.45653e-07
3.28921e-06
6.61184e-07
5.82842e-06
1.40318e-07
6.89938e-06
2.82779e-06
1.03457e-05
-5.22477e-07
9.07903e-06
8.09876e-06
8.3327e-06
1.51153e-06
3.26418e-05
2.70376e-06
8.00092e-06
3.37039e-05
3.60205e-05
3.87094e-06
4.03043e-05
3.51034e-05
4.02173e-05
5.77102e-05
2.38943e-06
3.94365e-05
-1.76735e-05
-0.000209111
5.79418e-05
-0.000712459
5.86598e-05
-0.00156115
-0.0136497
-0.130164
-0.595751
-0.719482
-0.603401
-0.235922
0.134589
0.338133
0.468644
0.498536
0.51778
0.558997
0.601911
0.622679
0.626354
0.635206
0.656439
0.67681
0.687073
0.686248
0.687423
0.696654
0.703529
0.699971
0.698368
0.687678
0.683145
0.665512
0.649386
0.625357
0.603607
0.581898
0.559039
0.542216
0.531612
0.517477
0.50127
0.49218
0.481192
0.470631
0.460085
0.452161
0.439399
0.427664
0.41881
0.408116
0.401061
0.391464
0.38748
0.382078
0.382058
0.391287
0.39758
0.40832
0.409932
0.419403
0.419946
0.43162
0.42776
0.443835
0.429953
-1.42464e-10
-2.55497e-11
-1.48164e-10
-1.95001e-10
-3.88295e-10
-6.25694e-10
-1.05405e-09
-1.694e-09
-2.68201e-09
-4.17106e-09
-6.2942e-09
-9.12754e-09
-1.40792e-08
-1.87173e-08
-2.68267e-08
-3.50867e-08
-4.37452e-08
-5.51443e-08
-5.67822e-08
-8.53053e-08
-2.77203e-08
-1.34524e-07
1.65132e-08
-7.20876e-10
-1.66099e-07
4.53695e-07
-7.00591e-07
9.07085e-07
-1.231e-06
8.30827e-07
-6.69672e-07
-1.44371e-06
-1.13685e-06
-3.45409e-07
1.46595e-06
-1.28631e-05
-5.46546e-06
-1.90415e-07
-1.00072e-05
-1.61949e-05
-1.33214e-05
-1.2844e-05
-3.00067e-05
-2.81904e-05
-1.48124e-05
-5.11019e-05
-6.82702e-05
-3.64711e-05
-2.04528e-05
-0.000154867
3.97466e-05
-0.000171137
5.91244e-06
-0.000270124
0.000294386
-0.000245101
0.00143991
-0.00187156
-0.0214874
-0.246983
-0.665441
-0.622508
-0.398201
0.0393186
0.248959
0.412911
0.516341
0.542365
0.548868
0.578397
0.616523
0.64175
0.643295
0.649181
0.668902
0.689484
0.69702
0.695381
0.701468
0.712526
0.71813
0.712418
0.711817
0.702992
0.700839
0.683898
0.669517
0.645697
0.62412
0.601236
0.577529
0.561181
0.549536
0.533978
0.518243
0.509212
0.497614
0.486811
0.476029
0.468126
0.455767
0.444845
0.43507
0.424368
0.417261
0.407391
0.402463
0.396489
0.395088
0.403174
0.409254
0.421896
0.423546
0.433735
0.433635
0.44416
0.440527
0.453733
0.438539
-1.46023e-10
-4.44513e-11
-1.83401e-10
-2.61943e-10
-5.16095e-10
-8.5674e-10
-1.46052e-09
-2.3828e-09
-3.83599e-09
-5.97137e-09
-9.16171e-09
-1.37829e-08
-1.93892e-08
-2.72781e-08
-3.86068e-08
-4.9471e-08
-7.07562e-08
-8.50114e-08
-1.20554e-07
-1.33813e-07
-2.06005e-07
-2.15065e-07
-2.64209e-07
-5.31391e-07
-2.7752e-07
-1.14579e-06
-7.30302e-07
-1.59065e-06
-2.16544e-06
-2.31722e-06
-5.16859e-06
-2.1662e-06
-1.33449e-05
-6.36044e-06
-1.0601e-05
-1.29536e-05
-4.06571e-05
-1.05441e-05
-2.06527e-05
-5.41137e-05
-4.78625e-05
-1.62627e-05
-7.6471e-05
-7.86657e-05
-5.28706e-05
-9.41948e-05
-0.000147823
-0.000119732
-0.000105087
-0.000206976
-8.90243e-05
-0.000266202
-3.75867e-05
-0.000585513
-0.000161603
-0.00107668
-0.00144284
-0.00991703
-0.0605289
-0.389961
-0.61263
-0.467661
-0.104543
0.252681
0.355372
0.466665
0.548
0.574188
0.575193
0.59606
0.627493
0.651817
0.654874
0.662705
0.682453
0.70097
0.706531
0.706477
0.715911
0.726373
0.729585
0.723699
0.725617
0.718684
0.717119
0.701363
0.688815
0.665267
0.644927
0.621077
0.596316
0.579774
0.566689
0.550158
0.535066
0.525673
0.513387
0.50249
0.491696
0.483732
0.47213
0.462687
0.451116
0.4406
0.433173
0.422793
0.416708
0.410461
0.40779
0.414805
0.420572
0.434566
0.436272