/*--------------------------------*- C++ -*----------------------------------*\
| =========                 |                                                 |
| \\      /  F ield         | OpenFOAM: The Open Source CFD Toolbox           |
|  \\    /   O peration     | Version:  2.2.x                                 |
|   \\  /    A nd           | Web:      www.OpenFOAM.org                      |
|    \\/     M anipulation  |                                                 |
\*---------------------------------------------------------------------------*/
FoamFile
{
    version     2.0;
    format      ascii;
    class       volScalarField;
    location    "1.2";
    object      pB;
}
// * * * * * * * * * * * * * * * * * * * * * * * * * * * * * * * * * * * * * //

dimensions      [1 1 -3 0 0 -1 0];

internalField   nonuniform List<scalar> 
14161
(
-0.000467909
5.80814e-05
-4.92377e-05
-3.99188e-05
-5.85119e-05
-6.86358e-05
-8.48079e-05
-9.78676e-05
-0.000112666
-0.000129131
-0.000144035
-0.000161982
-0.000182898
-0.000192758
-0.000210782
-0.000237598
-0.000254841
-0.000252356
-0.000282939
-0.000296198
-0.000313867
-0.000290627
-0.000302606
-0.00030353
-0.00029418
-0.000273218
-0.000248167
-0.000213397
-0.000163597
-8.99228e-05
-4.63914e-05
3.96461e-05
0.000132533
0.000258945
0.000405211
0.000540494
0.000777657
0.000954722
0.00120839
0.00155023
0.00179463
0.00226864
0.00266912
0.00290361
0.00370345
0.00370719
0.00504807
0.00316211
0.00838371
-0.00424246
0.00695201
0.00050654
0.00807888
0.0023813
0.00628695
0.00410315
0.00463776
0.00375369
0.00382329
0.0035403
0.00316311
0.00307594
0.00242705
0.00191659
0.00154846
0.000949151
0.000326869
4.57566e-05
-0.000318008
-0.000651324
-0.000739387
-0.00101073
-0.00102134
-0.00122689
-0.00153373
-0.00167692
-0.00183818
-0.00203261
-0.00222643
-0.00209856
-0.00282495
-0.00224367
-0.00306196
-0.00304075
-0.00345237
-0.00186981
-0.00414024
-0.00364561
-0.00344968
-0.0043096
-0.00438638
-0.00238181
-0.00529548
-0.00424143
-0.00753076
-0.00486321
-0.010486
-0.000137105
-0.0176462
-0.00532789
-0.0321562
-0.014088
-0.0119042
-0.00916664
-0.00733378
-0.00450111
-0.00407869
-0.00240957
-0.0032362
-0.00153415
-0.0035516
-0.00121035
-0.00418643
-0.000444766
-0.00660047
0.00138478
-0.0138345
0.0138063
-0.0368022
-0.00046852
5.83838e-05
-4.93892e-05
-4.00348e-05
-5.95507e-05
-6.98961e-05
-8.35943e-05
-9.7508e-05
-0.000113996
-0.000130453
-0.000143493
-0.000163031
-0.000182995
-0.000193345
-0.000209578
-0.000238561
-0.00025258
-0.000253583
-0.000282432
-0.000301025
-0.00030484
-0.000294173
-0.000309244
-0.000306142
-0.00029218
-0.000273432
-0.000249509
-0.000210434
-0.00016405
-9.33732e-05
-4.61496e-05
3.70607e-05
0.000136031
0.000242988
0.000388848
0.000547556
0.000744813
0.000917466
0.00125474
0.00145137
0.00187461
0.00219834
0.00262215
0.00304908
0.0035083
0.0035999
0.00481035
0.00348007
0.00569017
0.00237828
0.00614258
-0.000636695
0.00570915
-0.00143537
0.000752148
-0.00184391
-0.00113873
-0.00200639
-0.00121873
-0.0016477
-0.00203752
-0.00300658
-0.00301605
-0.00308891
-0.00285645
-0.00253194
-0.00249008
-0.00200345
-0.00186526
-0.00171742
-0.00168673
-0.00159788
-0.00160288
-0.00196167
-0.00197177
-0.00227029
-0.00218871
-0.00232871
-0.00266702
-0.00262826
-0.00295559
-0.00290788
-0.00329468
-0.00316566
-0.00402779
-0.00265347
-0.00484325
-0.00420622
-0.00457498
-0.00535453
-0.00500841
-0.00355314
-0.00735532
-0.00663392
-0.0075214
-0.00618276
-0.0102446
-0.00515157
-0.0107474
0.00512869
0.0123023
0.0122214
0.00871978
0.00671143
0.00420928
0.00430157
0.00403569
0.00538023
0.00468487
0.00635109
0.00433579
0.00658147
0.00333299
0.00669259
0.00118658
0.00902142
-0.00678857
0.0122212
-0.0260913
-0.000467822
5.81987e-05
-4.91948e-05
-4.01854e-05
-5.88167e-05
-6.9225e-05
-8.40946e-05
-9.76839e-05
-0.000112531
-0.000130016
-0.000144348
-0.000162237
-0.000182066
-0.000194256
-0.000210613
-0.000238163
-0.00025162
-0.000259538
-0.000278367
-0.000298791
-0.000304011
-0.000299388
-0.00030387
-0.000308404
-0.000295673
-0.000275695
-0.000248213
-0.000213269
-0.000167907
-0.000104885
-5.25302e-05
1.93674e-05
0.00012214
0.00021256
0.00037431
0.000508692
0.000689201
0.000873676
0.00116203
0.00134987
0.00179561
0.00205249
0.00256916
0.00308987
0.00356444
0.0036766
0.00490199
0.00254319
0.00605135
0.00113823
0.00635177
0.0014733
0.00355786
0.00424444
0.00818935
0.0054075
0.00544586
0.00537546
0.00417939
0.00525555
0.00360012
0.00481334
0.00303274
0.00301688
0.00230974
0.00168617
0.000617579
0.000617036
-0.000175027
-0.000810372
-0.00122698
-0.0013941
-0.00132139
-0.00164773
-0.00170131
-0.00188515
-0.00201219
-0.0019744
-0.00269577
-0.00236789
-0.00258089
-0.00264883
-0.00299311
-0.00283962
-0.00386475
-0.00163347
-0.00486878
-0.00370296
-0.00381949
-0.00517285
-0.00507405
-0.0017667
-0.00565065
-0.0050744
-0.00554311
-0.0062073
-0.00625394
-0.00878786
-0.0140329
-0.00840443
-0.0102287
-0.000145794
0.00276756
0.00304209
0.00158805
0.0015842
0.000422168
0.000799321
-0.000298363
0.0011821
-0.000374496
0.00232353
-0.000532032
0.00355806
-0.00252392
0.00526539
-0.00707669
0.00906339
-0.0228684
-0.000467744
5.81729e-05
-4.92867e-05
-3.98224e-05
-5.9372e-05
-6.94649e-05
-8.39013e-05
-9.79559e-05
-0.00011267
-0.000130304
-0.000144712
-0.00016231
-0.000180707
-0.000196664
-0.000210388
-0.0002373
-0.000248775
-0.000262609
-0.000273801
-0.00030098
-0.000302373
-0.000305666
-0.00030622
-0.000310244
-0.000295209
-0.000280571
-0.00025829
-0.000219812
-0.000172833
-0.000121475
-6.12158e-05
1.52324e-06
9.54932e-05
0.000191654
0.000323949
0.000446939
0.000614634
0.000810687
0.00102197
0.00128406
0.00157559
0.00188422
0.00236088
0.00297074
0.00344598
0.00384974
0.00550533
0.002789
0.0114589
-0.00811235
0.00134949
0.000411439
0.00620372
0.00144601
0.00549657
0.00247156
0.00511434
0.00241698
0.00437784
0.00191097
0.00283655
0.000215245
0.00111085
-0.000826297
0.000589252
-0.00037814
-0.000781986
-0.000690118
-0.0013328
-0.00163736
-0.00166853
-0.00137018
-0.00183563
-0.00155024
-0.00180415
-0.00196059
-0.00232994
-0.00182496
-0.0030863
-0.00248031
-0.0030513
-0.00285923
-0.00297384
-0.00300564
-0.00398043
-0.00206345
-0.00511572
-0.00370857
-0.00399978
-0.00500256
-0.00560194
-0.00109622
-0.00851536
-0.00271808
-0.00618212
-0.00493536
-0.00844091
-0.0174304
-0.00371027
-0.00242836
0.000114164
0.00428481
0.00396602
0.00296863
0.0026054
0.00313519
0.00274917
0.00357742
0.00268947
0.00378684
0.0020386
0.00367392
0.000316178
0.00366915
-0.00205327
0.00433671
-0.00570941
0.00561431
-0.0198712
-0.000466393
5.75059e-05
-4.89946e-05
-4.04916e-05
-5.91267e-05
-6.92667e-05
-8.40676e-05
-9.81134e-05
-0.000112159
-0.000129913
-0.000146066
-0.000161572
-0.00017987
-0.000197994
-0.000212157
-0.000235306
-0.000248954
-0.000270487
-0.00027212
-0.00030095
-0.000300486
-0.000314663
-0.000305121
-0.000311519
-0.000301023
-0.000285951
-0.00026152
-0.000226479
-0.000182287
-0.000141557
-7.9854e-05
-3.4929e-05
6.16475e-05
0.000141366
0.000252771
0.000368796
0.000513479
0.000656031
0.00082523
0.00107124
0.00126906
0.00166805
0.00203208
0.00254066
0.00310793
0.00352547
0.00549388
0.00158886
0.0157648
-0.0197075
0.0253071
0.00464722
0.0117409
0.00441753
0.00506109
0.00121343
0.000933426
0.00204961
-0.000961719
0.00305708
-0.00145446
0.00212682
-0.000863076
0.00125191
-0.000526204
-0.000299205
-0.000531219
0.000670533
-0.000743357
-0.000664451
-0.00118463
-0.00107665
-0.00121188
-0.00144666
-0.0013403
-0.00123373
-0.00194757
-0.00146135
-0.00255122
-0.00180174
-0.00218703
-0.00259628
-0.00263034
-0.00303927
-0.00361739
-0.0021413
-0.0047667
-0.00327714
-0.0038904
-0.00518198
-0.00599269
-0.0013276
-0.00688321
-0.00474237
-0.0075895
-0.00410924
-0.013028
-0.0160393
-0.00362984
-0.00497885
-0.00181973
0.00372058
-0.000407112
0.000322163
-0.000703549
-0.000361728
-0.00100276
-0.000346294
-0.001103
0.000382032
-0.000935937
0.00142147
-0.00161708
0.00217168
-0.00280399
0.00332767
-0.00514963
0.00400559
-0.0183327
-0.000465492
5.72999e-05
-4.9461e-05
-3.99335e-05
-5.9469e-05
-6.9163e-05
-8.4074e-05
-9.82288e-05
-0.000112627
-0.000129463
-0.000146314
-0.000161632
-0.000178397
-0.000199862
-0.000213769
-0.000231066
-0.000249822
-0.000271808
-0.00027283
-0.000294912
-0.000303825
-0.000319466
-0.000310395
-0.000309062
-0.000308259
-0.000292236
-0.000266507
-0.000236897
-0.000201168
-0.000158836
-0.000103149
-5.83584e-05
1.56421e-05
8.64094e-05
0.000180096
0.000248136
0.000384947
0.000502422
0.000654238
0.000803383
0.00101103
0.0012816
0.00160043
0.00195348
0.00243693
0.00266647
0.00405493
0.00183894
0.010492
-0.0119249
0.0120909
0.00322193
0.0102219
0.00536306
0.00682035
0.00194112
0.00471054
0.0023728
0.00243876
0.00316266
0.000802209
0.00307949
-0.000548126
0.000472657
0.000351976
0.000938105
-0.00206425
-0.000582459
0.000591253
-0.0017585
-0.000636103
-0.00148114
-0.00263806
-0.00176218
-0.00192611
-0.00111616
-0.00177063
-0.00183957
-0.00151704
-0.00270191
-0.00245134
-0.00297428
-0.00248238
-0.00309485
-0.00340276
-0.00324774
-0.0046388
-0.00331985
-0.0034431
-0.00433779
-0.00527878
-0.0019678
-0.00761961
-0.00391184
-0.00721181
-0.0171344
-0.0140525
-0.00867185
-0.00289542
-0.0025007
0.00123374
-0.00156861
0.000745538
0.00136345
0.00139687
0.0019803
0.00144561
0.00191303
0.000622032
0.00122543
-0.000653369
0.00108371
-0.00184591
0.00177647
-0.00285968
0.00265359
-0.00458588
0.00337085
-0.0181436
-0.000463914
5.65517e-05
-4.94213e-05
-4.04032e-05
-5.90818e-05
-6.93889e-05
-8.40574e-05
-9.82589e-05
-0.000112437
-0.00012936
-0.000146917
-0.000161428
-0.000178801
-0.00020031
-0.000215935
-0.000225217
-0.00025424
-0.000272362
-0.000278561
-0.000291743
-0.000308013
-0.000322479
-0.000319041
-0.000305243
-0.000315074
-0.00030113
-0.000277589
-0.000253236
-0.00021991
-0.000186819
-0.000148668
-9.14944e-05
-4.58286e-05
1.82458e-05
7.9728e-05
0.000135942
0.000211316
0.000256459
0.000330338
0.000390743
0.000478927
0.000518764
0.000627156
0.000683815
0.00104658
0.00128774
0.00184083
0.000823734
0.00812369
-0.0088761
0.0156148
0.00537342
0.0115266
0.00869412
0.006962
0.00227322
0.00197417
0.00207161
-0.000227603
0.00495122
9.30081e-05
0.0018228
0.000243738
0.00082917
-0.00141758
0.000643697
0.000274624
-0.00202562
-0.000261072
-0.00127356
-0.00130414
0.000136335
-0.000868314
-0.000317918
-0.00173081
-0.000482532
-0.00206373
-0.00156407
-0.00153852
-0.00233502
-0.00196566
-0.00273393
-0.00286009
-0.00342195
-0.00249235
-0.00317385
-0.00293757
-0.00247058
-0.00411823
-0.00498177
-0.00518729
-0.00440622
-0.0044068
-0.0055069
-0.0170943
-0.0166478
-0.0129586
-0.00662018
-0.00742338
-0.00225357
-0.00394574
-0.00129167
-0.00296134
-0.00247619
-0.00237195
-0.00171247
-0.00185625
-0.000986928
-0.00172848
-7.14017e-05
-0.00116895
0.00115027
-0.0011443
0.00230002
-0.00188263
0.00276442
-0.00449093
0.00347344
-0.0193513
-0.000462621
5.61776e-05
-4.98247e-05
-4.02221e-05
-5.9169e-05
-6.89631e-05
-8.45928e-05
-9.84852e-05
-0.000113042
-0.000127684
-0.000147235
-0.000162736
-0.000173884
-0.000201656
-0.000221038
-0.000223989
-0.000253322
-0.000273282
-0.00028374
-0.000279959
-0.000314321
-0.000326541
-0.000327179
-0.000306937
-0.000319595
-0.000315955
-0.000290916
-0.000268534
-0.000245016
-0.000213471
-0.000181491
-0.000147196
-9.99777e-05
-5.80079e-05
-2.47377e-05
-2.41875e-06
3.08947e-05
6.15003e-05
7.24945e-05
8.72138e-05
8.53029e-05
5.99429e-05
-1.00655e-05
3.58336e-05
-0.000232443
0.000396119
-0.00020533
0.00235077
-0.00128699
0.0163292
0.0114829
0.0156782
0.0053812
0.0113813
0.0043676
0.00130254
0.00540363
0.000442503
-0.000498989
-0.00021053
-0.00222978
0.00187319
-0.00211788
0.00017384
-5.50578e-05
0.000563997
-0.000598235
-0.0011651
-0.00114175
-0.00167612
-0.000521645
-0.000374421
-0.00161358
-0.00161404
-0.00146166
-0.00110719
-0.00174293
-0.00159241
-0.00169104
-0.00191172
-0.00191955
-0.00165583
-0.00253716
-0.00169813
-0.00263592
-0.00280895
-0.0028145
-0.00367711
-0.00275964
-0.0019962
-0.00238025
-0.00369367
-0.00818156
-0.0147575
-0.017594
-0.0101643
-0.00104693
-0.00599582
-0.00886609
-0.00119408
-0.00402987
-0.00307096
-0.00390616
-0.00178732
-0.00165117
-0.000597202
-0.000537811
0.000204225
-0.00029453
0.000866275
-0.000774916
0.00105129
-0.00136392
0.0016674
-0.0025325
0.00212421
-0.00486988
0.00339683
-0.0203702
-0.000460792
5.56938e-05
-4.97583e-05
-4.04169e-05
-5.91491e-05
-6.95776e-05
-8.30867e-05
-9.82145e-05
-0.000113419
-0.000127535
-0.000146975
-0.000163161
-0.000174572
-0.000202343
-0.000221714
-0.00022442
-0.000252511
-0.000275331
-0.000288294
-0.00027982
-0.000317823
-0.00032733
-0.000330993
-0.000318755
-0.000324186
-0.000323548
-0.000309159
-0.000285394
-0.00027054
-0.000249932
-0.00022704
-0.000205093
-0.000172039
-0.000141819
-0.000124723
-0.000146624
-0.000146609
-0.000196399
-0.000236509
-0.000377431
-0.000555973
-0.000821234
-0.00136196
-0.00205052
-0.00333031
-0.00458277
-0.00767703
-0.00713489
-0.0267641
0.00982558
-0.0102403
0.0294393
0.0035852
0.0152995
0.00301624
0.00484448
0.000849712
-0.00047328
0.0034557
-0.00129012
0.00161705
-0.00198583
-0.0014217
-0.00159947
-0.000958439
-0.00269629
-0.00192955
-0.00118708
-0.00171135
-0.000442536
-0.00125906
0.000484476
-0.00189049
-0.000137507
-0.00177917
2.04665e-05
-0.00208497
-0.00101141
-0.00177645
-0.00148416
-0.00155314
-0.0012298
-0.00187552
-0.00210511
-0.00213818
-0.000632432
-0.000833893
-0.00112221
-0.000706976
-0.00191232
-0.0051986
-0.00643329
-0.0102079
-0.012743
-0.00290507
-0.00715227
-0.0137387
0.00292679
-0.00268367
-0.00185042
-0.00398022
-0.00223779
-0.00312969
-0.00246611
-0.00255687
-0.00152297
-0.00141627
-0.000673374
-0.00108581
-0.000147337
-0.00143691
0.000591891
-0.00135594
0.00151118
-0.00204059
0.00231027
-0.00476835
0.0039845
-0.0223557
-0.000458951
5.50096e-05
-4.99865e-05
-4.03348e-05
-5.93041e-05
-6.8845e-05
-8.38915e-05
-9.84303e-05
-0.000113275
-0.000126565
-0.000146969
-0.000164794
-0.00017437
-0.000201769
-0.000222453
-0.000226694
-0.000250586
-0.000275969
-0.000290263
-0.000286258
-0.000315429
-0.000331993
-0.000338215
-0.000332627
-0.000322465
-0.00033166
-0.000333486
-0.000306894
-0.000294398
-0.000290229
-0.000274537
-0.00026408
-0.000245595
-0.000229311
-0.00022637
-0.000267243
-0.000317882
-0.000351633
-0.000466726
-0.000554479
-0.000782693
-0.00094243
-0.00121333
-0.00144154
-0.00184791
-0.0019578
-0.00239645
0.000332518
0.00176527
0.00735023
0.0349254
0.0351983
-0.00691021
-0.00902497
-0.0100919
-0.00409719
-0.00281832
-0.00191395
-0.00274986
-0.00395962
-0.00227903
-0.00547074
0.000365752
-0.00518941
-0.000246334
-0.000999478
-0.00116011
-0.00151393
-0.00164199
-0.000772031
-0.000297104
-6.55229e-05
-3.8776e-05
-0.000610476
-0.00174687
-0.000898335
-0.00187429
-0.000771571
-0.00104664
-0.00167854
-0.00154368
-0.00155631
-0.000674641
-6.76289e-05
-0.00184735
-0.00193754
-0.00163144
-0.00424476
-0.00270755
-0.0023349
-0.00169665
-0.00410694
-0.0108432
0.00497011
-0.00642083
-0.000570047
-0.00251452
-0.00667201
0.00202211
-0.00451513
-0.00210432
-0.00175767
-0.00203795
-0.000862921
-0.00093075
-0.000117965
-0.000175228
0.000297718
-3.12152e-05
0.000675694
-0.000474013
0.00122495
-0.000634821
0.00143995
-0.00188602
0.00179182
-0.00512222
0.00397887
-0.0238897
-0.000456833
5.44629e-05
-5.00115e-05
-4.04582e-05
-5.91466e-05
-6.95239e-05
-8.33039e-05
-9.72216e-05
-0.000114376
-0.000126695
-0.000146054
-0.000164786
-0.00017726
-0.00019864
-0.00022244
-0.000231068
-0.000246914
-0.000277169
-0.000290074
-0.000297617
-0.000309882
-0.000334868
-0.000341768
-0.000345964
-0.00033628
-0.000335475
-0.000355611
-0.000343236
-0.000313958
-0.000319594
-0.000325203
-0.000322851
-0.000319531
-0.00031008
-0.000324147
-0.000350929
-0.000451244
-0.000520317
-0.000642662
-0.00085047
-0.00106264
-0.00163175
-0.00215554
-0.0029943
-0.00393967
-0.00619432
-0.00948572
-0.0139679
-0.0196296
-0.0329603
0.0916087
-0.0422185
-0.00499908
-0.00591227
-0.00274833
-0.00498718
-0.00308122
-0.0085595
-0.00182215
-0.00266056
-0.00024531
-0.00228805
0.00136622
-0.00352159
-0.00255161
-0.00146303
-0.00211517
-0.00211348
-0.00186174
-0.000798635
-0.000567751
-0.00156017
0.000556007
-0.00075553
-0.000984016
-0.000959162
-0.00151662
-0.000485863
-0.000629767
-0.000413201
-0.000318147
-0.000420304
-0.00134055
-0.00236476
-0.000832396
-0.00288613
-0.000427928
-0.00196352
-0.0014257
-0.00237905
-0.00357139
0.00392401
0.00331737
-0.00286758
-0.00051628
-0.00508678
-0.00215447
-0.000373715
-0.00162897
-0.00108752
0.000123734
-0.0011155
-0.00120872
-0.00111583
-0.00119109
-0.000430219
-0.000468511
3.81688e-05
-0.000171844
0.000204963
-0.000916172
0.000624059
-0.000981842
0.000964655
-0.0017207
0.00141069
-0.0049861
0.00425431
-0.0255931
-0.000454823
5.38883e-05
-5.00699e-05
-4.04966e-05
-5.91769e-05
-6.89988e-05
-8.3442e-05
-9.74886e-05
-0.000114247
-0.00012633
-0.00014475
-0.00016529
-0.000179154
-0.00019479
-0.000222621
-0.000236458
-0.0002471
-0.000277674
-0.000292389
-0.000307102
-0.000309425
-0.000336588
-0.000352926
-0.000362538
-0.000340731
-0.000351908
-0.000364356
-0.000380718
-0.000355227
-0.000340825
-0.000367325
-0.000371315
-0.000375809
-0.000406372
-0.000408994
-0.000437333
-0.000497763
-0.000627809
-0.000697349
-0.000847491
-0.000940034
-0.00112932
-0.00120035
-0.00115774
-0.00128086
0.000361797
-0.00107053
0.0110961
-0.0127922
0.0873178
0.0012224
-0.00266795
-0.000905087
-0.0115097
-0.00900424
-0.00971256
-0.00868463
-0.00400114
-0.00512283
-0.00278707
-0.00426464
0.00129401
-0.00355384
-0.0012671
-0.00110223
-0.00209013
0.000581819
-0.001923
0.000115866
-0.00197627
-0.000328479
-0.00184909
0.00030514
-0.00168753
-0.000944804
-0.000753798
-0.000675961
-0.00079602
-0.00113634
-0.0015129
-0.00132651
-0.00211514
-0.00185082
-0.0033135
-0.00112541
-0.000585386
-0.000167006
-0.00503613
0.00191647
0.00464255
0.00524979
0.00296116
0.00190472
0.0017025
-0.000426331
0.000140318
-0.00406271
-0.00249926
-0.0026519
-0.000759086
-0.00238673
-0.00111121
-0.000898939
-0.000899782
-0.00107135
-0.000327311
-0.000486185
0.000155677
1.45668e-05
0.000361477
-0.000404871
0.000920899
-0.000467183
0.00117469
-0.00135772
0.00108936
-0.00523309
0.00414693
-0.026838
-0.0004525
5.33402e-05
-5.00562e-05
-4.07556e-05
-5.88782e-05
-6.94735e-05
-8.31853e-05
-9.65751e-05
-0.000114007
-0.000126876
-0.000144078
-0.000164403
-0.000181986
-0.000194551
-0.000221544
-0.000240856
-0.000247201
-0.000275134
-0.000295896
-0.000314862
-0.000311506
-0.000331656
-0.000365304
-0.000372991
-0.000353289
-0.000364555
-0.000380409
-0.000400998
-0.000408509
-0.000378108
-0.000390887
-0.000422721
-0.000442309
-0.000452842
-0.000482951
-0.000506956
-0.000537455
-0.000631662
-0.000707418
-0.000783051
-0.000854532
-0.000937432
-0.000992026
-0.00106545
-0.000783731
-0.000804474
-0.000848332
0.00226435
-0.00778495
0.0604828
-0.00233889
0.011779
-0.00262428
0.00520463
0.000308049
-0.000684721
-0.00188179
-0.00397531
6.76947e-06
-0.001419
-0.000425858
-0.00124869
-0.00498188
-0.00291168
-0.000798762
-0.00550446
0.000167252
-0.00139666
0.000180741
-0.000643848
0.00112302
-0.000345921
0.000734164
-0.000470455
0.000292171
-0.00136168
-0.000109374
-0.00233855
-0.000668403
-0.00352917
-0.00307202
-0.00072668
0.00131157
0.000684851
-0.00338675
0.00251409
0.00420653
0.0065829
0.00299825
0.00261826
0.0015038
0.00353775
0.00124267
0.00167925
0.000540872
-0.000284126
-0.000525256
-0.00129015
-0.000579143
-0.00137396
-0.000720846
-0.000423732
-0.000364187
-0.000378492
-0.000519634
6.11649e-05
-0.000201578
0.000529587
0.000227574
0.000331559
-0.000410054
0.000508348
-0.000561792
0.000623296
-0.00159445
0.000353635
-0.00531129
0.00385029
-0.0274035
-0.000450275
5.27823e-05
-4.99352e-05
-4.06488e-05
-5.89608e-05
-6.94102e-05
-8.31828e-05
-9.62152e-05
-0.000114474
-0.000128046
-0.000142
-0.00016419
-0.000184206
-0.00019476
-0.000218969
-0.00024338
-0.000250716
-0.000271609
-0.000299471
-0.000319704
-0.000319561
-0.000332784
-0.000370991
-0.000383229
-0.00038263
-0.000371609
-0.000400747
-0.000424328
-0.000441709
-0.000427476
-0.000415067
-0.000465428
-0.000491605
-0.000496281
-0.000538994
-0.000555351
-0.000573679
-0.00061967
-0.000688224
-0.000720246
-0.000740204
-0.000741913
-0.00089516
-0.00109709
-0.00133244
-0.00284592
-0.00216282
-0.00852269
-2.56898e-06
0.0190893
-0.00921363
0.000713901
-0.00567853
-0.000337441
-0.00370399
0.00474484
-0.00339821
0.00228723
0.000259869
-0.00275869
-0.000242454
-0.00593974
0.0036101
-0.00493837
0.000676426
-0.00378048
0.000321302
-0.000643111
0.00029129
-0.000222135
0.000345786
-0.00101513
-0.000185871
-0.00064658
-0.00101901
-0.0017252
-0.0018898
-0.00148735
0.00169885
-0.00149127
-0.00258936
-0.00320477
0.00124992
0.00607016
0.00572055
0.00246358
0.00304718
-0.000317762
0.00379282
0.00248252
0.00260766
0.00253072
0.0021052
0.00119975
0.00193104
0.000257705
0.000227604
-0.000731839
-0.000806429
-0.00198652
-0.000224739
-0.000405563
-0.0002941
-0.000138843
-0.000429918
0.000107093
-0.000263068
0.000594081
8.25633e-05
0.000120719
-0.000559518
0.000553626
-0.000589772
0.000538001
-0.0013509
0.000290714
-0.00523191
0.00352594
-0.0274253
-0.000447689
5.21762e-05
-4.98437e-05
-4.09878e-05
-5.81259e-05
-6.93869e-05
-8.34518e-05
-9.54841e-05
-0.000113227
-0.000129224
-0.000141392
-0.000163748
-0.000185726
-0.000195814
-0.000216394
-0.000243707
-0.000255983
-0.000269825
-0.000302834
-0.000322309
-0.000329033
-0.000337107
-0.000378425
-0.000389226
-0.000397749
-0.000397376
-0.000408948
-0.00045029
-0.00046614
-0.000470414
-0.000465736
-0.00048604
-0.000535377
-0.000565391
-0.00057488
-0.000589192
-0.000593024
-0.000581819
-0.000568924
-0.000513544
-0.000444315
-0.0003153
-1.62328e-05
0.000141081
0.00126575
-8.24806e-05
0.00774933
-0.0102243
0.0533303
0.00955661
0.00256342
0.0033994
0.00054263
0.000618153
-0.00301774
0.00347373
0.00358206
0.00224984
-0.00205362
0.000778651
0.00172737
-0.00368157
0.00366151
-0.00333212
0.00273076
-0.0035842
0.000570781
0.000359285
0.000337983
0.00236852
-0.00145243
5.72874e-05
-0.00215687
-5.17289e-05
0.000478366
0.00164062
-0.00328766
-0.002975
0.00301223
0.00483114
0.00872712
0.00500975
0.0015446
0.00269499
0.00208092
0.00244821
0.00270935
0.00188445
0.00319406
0.00194997
0.00243402
0.00211896
0.00210076
0.00130926
0.00189998
0.000308988
0.000859133
5.11906e-05
-8.65259e-05
-0.00117696
0.000449886
-0.000444135
-0.000191158
-1.42306e-05
-0.000310333
0.000193682
-0.000117492
0.000710995
0.000101376
7.41069e-05
-0.000486419
0.0004042
-0.000946229
0.000352329
-0.0016227
-0.000158202
-0.00549952
0.0032251
-0.0264395
-0.000445116
5.16124e-05
-4.95727e-05
-4.09014e-05
-5.81033e-05
-6.91183e-05
-8.33987e-05
-9.55778e-05
-0.000112295
-0.000130338
-0.000141468
-0.0001619
-0.000186792
-0.000198016
-0.000214204
-0.000243968
-0.000262168
-0.000270371
-0.000304632
-0.000324735
-0.000337986
-0.000350072
-0.000376695
-0.000397444
-0.000415999
-0.000428128
-0.000420628
-0.000465339
-0.000491153
-0.000508602
-0.000520872
-0.000515934
-0.000555804
-0.000595745
-0.000615499
-0.000649941
-0.000654755
-0.00060284
-0.000590129
-0.000529848
-0.000394855
-0.0003092
0.000142722
0.000475477
0.00137574
0.00122751
0.0051677
-0.000401222
0.0365689
-0.00599985
0.00111377
-0.00476993
-0.00186199
-0.00148856
-0.000537711
0.000288935
-0.0002519
0.0006736
0.00434206
-0.0012387
-0.00206408
0.00181738
-0.000744824
-0.000220941
0.000967548
0.00116469
0.000969807
-0.00111364
-0.000626883
-0.000391251
0.00313102
0.00026686
-0.00120109
-0.0022794
0.00172092
0.00565922
0.00811851
0.00664226
0.00227753
0.00259053
0.0018931
0.00142591
0.00326248
0.00253398
0.00308222
0.00133996
0.00306457
0.00185447
0.00283088
0.00205554
0.00237663
0.00215256
0.00205758
0.00155614
0.00184113
0.000873131
0.00134537
0.000275639
0.000180242
-0.00074943
0.000485131
-0.000238758
-7.47751e-05
-1.27856e-05
-0.000274849
0.000112927
-7.97967e-05
0.000624159
-0.00022435
-0.000362762
-0.000687254
-7.25915e-05
-0.00100341
0.000135444
-0.00171942
-0.000322409
-0.00537127
0.00273992
-0.0250505
-0.000442241
5.1069e-05
-4.95268e-05
-4.09494e-05
-5.78272e-05
-6.83538e-05
-8.4128e-05
-9.44778e-05
-0.000111392
-0.00013041
-0.000142375
-0.000159849
-0.000186521
-0.000200668
-0.00021383
-0.000243368
-0.000266909
-0.000273798
-0.000302501
-0.000328003
-0.00034824
-0.000358765
-0.000377368
-0.00040611
-0.000427493
-0.000454024
-0.000452106
-0.000467844
-0.000519809
-0.000540591
-0.000565726
-0.000582031
-0.000571781
-0.000623108
-0.000675104
-0.000693261
-0.000734752
-0.000717454
-0.000700873
-0.000676494
-0.000730425
-0.000602624
-0.000578422
-0.000429907
-0.000211439
-0.000386238
0.002306
-0.00697592
0.0417839
-0.00392923
0.00749124
-0.00130187
0.00140057
-0.000433941
0.000794067
-0.000645109
-0.00136856
-0.000922028
0.0042954
-0.00065543
-0.00166324
0.00597249
-0.00357493
0.00885033
-0.0135215
0.0103819
-0.00295771
0.00548597
-0.00396344
-0.00191142
0.00281228
0.00375794
0.00725921
0.00684271
0.00172515
0.00381689
0.00273706
0.00226794
0.00414024
0.00338567
0.00346292
0.00316706
0.00372876
0.00269838
0.00326544
0.00187699
0.00318322
0.00172821
0.00242869
0.00176941
0.00193891
0.00144336
0.00185932
0.00153725
0.00157272
0.00123825
0.00111656
0.000324296
0.000701637
-0.00054351
0.000662506
3.53621e-05
-3.92012e-05
1.52357e-05
-0.000205413
1.22685e-05
2.05616e-05
0.000552899
-0.000410937
-0.000461141
-0.000648367
-0.000139525
-0.000997119
-9.98255e-06
-0.00198539
-0.000752467
-0.00507718
0.00202859
-0.0234551
-0.000439302
5.06045e-05
-4.93269e-05
-4.08127e-05
-5.82861e-05
-6.7301e-05
-8.4375e-05
-9.47552e-05
-0.000109864
-0.000130213
-0.000143911
-0.000159085
-0.000184946
-0.000202986
-0.000214226
-0.000241702
-0.000269576
-0.00027842
-0.000299706
-0.000333627
-0.000358199
-0.000367165
-0.000382652
-0.000416276
-0.000440852
-0.000471185
-0.00048388
-0.000480275
-0.000530138
-0.000579442
-0.000602386
-0.000629458
-0.000653375
-0.00065652
-0.000703995
-0.000753347
-0.000793664
-0.00085789
-0.00086298
-0.00101857
-0.00110335
-0.00158692
-0.00198587
-0.00261654
-0.00467472
-0.00404239
-0.0115317
-0.00142949
0.0194979
-0.00742599
0.00298325
-0.00259983
-0.000409877
-0.00255068
-0.000957957
-0.0025139
-0.00316878
-0.00817287
-0.00439857
-0.0077156
-0.00765855
-0.00550995
0.00326915
0.00323793
0.00132405
-0.00152567
0.00200602
0.00278096
0.00613409
0.00697859
0.00315998
0.00400671
0.00407872
0.00330237
0.0046376
0.00443439
0.00401381
0.00362389
0.00331046
0.00259514
0.00232688
0.0026412
0.00258319
0.00203679
0.00241246
0.00192855
0.00279469
0.00201355
0.00224383
0.00195824
0.00183411
0.00151859
0.00147387
0.0015906
0.00156826
0.00141636
0.00085936
0.000640644
0.000639686
-7.6692e-05
0.000513875
0.000290082
-0.000180631
0.000103778
-0.000236615
-0.000121849
4.05817e-05
0.000255507
-0.000639392
-0.00066798
-0.00067662
-0.000420332
-0.00107283
-0.000307442
-0.00183765
-0.000818867
-0.00389435
0.000859742
-0.0215617
-0.000436096
5.01541e-05
-4.92531e-05
-4.07042e-05
-5.84614e-05
-6.68441e-05
-8.33407e-05
-9.54818e-05
-0.000109318
-0.00012862
-0.000145788
-0.000158004
-0.000183271
-0.00020419
-0.000216676
-0.000240202
-0.000270259
-0.000285954
-0.000297916
-0.00033479
-0.000363509
-0.000381859
-0.000387764
-0.000421213
-0.000462852
-0.000487378
-0.000506066
-0.000511652
-0.000531246
-0.000608187
-0.00065008
-0.000665325
-0.000691333
-0.000717285
-0.000720815
-0.000814178
-0.000858478
-0.000912657
-0.000947978
-0.00097328
-0.000943289
-0.000805343
-0.000929837
0.000154176
-0.00123208
0.00654161
-0.012474
0.0580646
-0.000471881
-0.00212417
-0.00135562
-0.00305181
-0.00187079
-0.00431639
-0.00393941
-0.00477854
-0.0063017
-0.00695504
-0.00489011
-0.00704849
-0.00114166
-0.00815974
0.00125009
-0.00158003
0.00576472
0.00671357
0.00242778
0.00363177
0.00269356
0.00200979
0.00326771
0.00279717
0.00289809
0.0024759
0.00282244
0.002203
0.00193798
0.00307885
0.00244021
0.00319146
0.00270467
0.00300812
0.00270122
0.00227164
0.00216898
0.00180247
0.00188031
0.00138989
0.00152166
0.00139466
0.00154554
0.00142929
0.0014317
0.00107243
0.000732993
0.000747811
0.000672174
0.000364051
0.000626731
4.47559e-05
0.000470187
0.000305256
-0.000151111
0.000190926
-0.000283538
-0.000186104
7.94155e-05
0.000138572
-0.000846468
-0.000638857
-0.000661189
-0.00053303
-0.00101678
-0.00040077
-0.00162606
-0.000858463
-0.0034581
0.000242699
-0.0200231
-0.000432761
4.96537e-05
-4.90086e-05
-4.04256e-05
-5.83618e-05
-6.62703e-05
-8.22489e-05
-9.62033e-05
-0.00010784
-0.000127722
-0.000146957
-0.000158234
-0.000180737
-0.000204286
-0.000220131
-0.000239444
-0.000270226
-0.00029152
-0.000300353
-0.000337922
-0.000369252
-0.000391099
-0.000394607
-0.000433526
-0.000473552
-0.000502183
-0.000527998
-0.000538393
-0.000557772
-0.000613342
-0.000681836
-0.000716609
-0.000745801
-0.000775989
-0.00079265
-0.000833644
-0.000872517
-0.000949982
-0.000988252
-0.00105263
-0.00093298
-0.00104503
-0.000812456
-0.00046048
-0.000533737
0.00225683
-0.00475721
0.046488
-0.00223059
0.00190463
-0.000864529
-0.000446146
-0.000913833
-0.000993094
-0.00150613
-0.00124723
0.000994529
0.000975893
-0.00885666
-0.00390496
-0.00460106
0.00480619
0.00411583
0.00218847
0.00420801
0.00235764
0.00381865
0.0031139
0.00305936
0.00321382
0.00306043
0.00214367
0.00298194
0.00227309
0.0022336
0.00100921
0.00208794
0.00106362
0.00110414
0.000927445
0.00102004
0.00132197
0.00145034
0.00133815
0.00159615
0.00172049
0.00172245
0.00154264
0.00167737
0.00154779
0.00156234
0.00126058
0.00115953
0.00092929
0.000849522
0.000515656
0.000580443
0.000314995
0.000425229
0.000288783
0.000448477
0.000247848
-0.000167764
0.000244843
-0.000403183
-9.41524e-05
-9.81953e-06
1.74216e-05
-0.00106355
-0.000537711
-0.000824134
-0.000646479
-0.00102817
-0.000494689
-0.00127329
-0.00102001
-0.00326874
7.96951e-05
-0.0185059
-0.000429224
4.91029e-05
-4.87485e-05
-4.0205e-05
-5.79068e-05
-6.58469e-05
-8.12492e-05
-9.64896e-05
-0.000107843
-0.000125772
-0.000147142
-0.000159383
-0.000178234
-0.000204128
-0.000222736
-0.000240098
-0.000268717
-0.000294439
-0.000308256
-0.000334796
-0.000374899
-0.000396758
-0.000411505
-0.000437796
-0.000489302
-0.000513781
-0.000547899
-0.000564596
-0.000595209
-0.000617685
-0.000698992
-0.000751232
-0.000786345
-0.000817916
-0.000853222
-0.000892487