/*--------------------------------*- C++ -*----------------------------------*\
| =========                 |                                                 |
| \\      /  F ield         | OpenFOAM: The Open Source CFD Toolbox           |
|  \\    /   O peration     | Version:  2.2.x                                 |
|   \\  /    A nd           | Web:      www.OpenFOAM.org                      |
|    \\/     M anipulation  |                                                 |
\*---------------------------------------------------------------------------*/
FoamFile
{
    version     2.0;
    format      ascii;
    class       volVectorField;
    location    "0.06";
    object      U;
}
// * * * * * * * * * * * * * * * * * * * * * * * * * * * * * * * * * * * * * //

dimensions      [0 1 -1 0 0 0 0];

internalField   nonuniform List<vector> 
1024
(
(-10 0 0)
(-10 0 0)
(-10 0 0)
(-10 0 0)
(-10 0 0)
(-10 0 0)
(-10 0 0)
(-10 0 0)
(-10 0 0)
(-10 0 0)
(-10 0 0)
(-10 0 0)
(-10 0 0)
(-10 0 0)
(-10 0 0)
(-10 0 0)
(-10 0 0)
(-10 0 0)
(-10 0 0)
(-10 0 0)
(-10 0 0)
(-10 0 0)
(-10 0 0)
(-10 0 0)
(-10 0 0)
(-10 0 0)
(-10 0 0)
(-10 0 0)
(-10 0 0)
(-10 0 0)
(-10 0 0)
(-10 0 0)
(-10 0 0)
(-10 0 0)
(-10 0 0)
(-10 0 0)
(-10 0 0)
(-10 0 0)
(-10 0 0)
(-10 0 0)
(-10 0 0)
(-10 0 0)
(-10 0 0)
(-10 0 0)
(-10 0 0)
(-10 0 0)
(-10 0 0)
(-10 0 0)
(-10 0 0)
(-10 0 0)
(-10 0 0)
(-10 0 0)
(-10 0 0)
(-10 0 0)
(-10 0 0)
(-10 0 0)
(-10 0 0)
(-10 0 0)
(-10 0 0)
(-10 0 0)
(-10 0 0)
(-10 0 0)
(-10 0 0)
(-10 0 0)
(-10 0 0)
(-10 0 0)
(-10 0 0)
(-10 0 0)
(-10 0 0)
(-10 0 0)
(-10 0 0)
(-10 0 0)
(-10 0 0)
(-10 0 0)
(-10 0 0)
(-10 0 0)
(-10 0 0)
(-10 0 0)
(-10 0 0)
(-10 0 0)
(-10 0 0)
(-10 0 0)
(-10 0 0)
(-10 0 0)
(-10 0 0)
(-10 0 0)
(-10 0 0)
(-10 0 0)
(-10 0 0)
(-10 0 0)
(-10 0 0)
(-10 0 0)
(-10 0 0)
(-10 0 0)
(-10 0 0)
(-10 0 0)
(-10 0 0)
(-10 0 0)
(-10 0 0)
(-10 0 0)
(-10 0 0)
(-10 0 0)
(-10 0 0)
(-10 0 0)
(-10 0 0)
(-10 0 0)
(-10 0 0)
(-10 0 0)
(-10 0 0)
(-10 0 0)
(-10 0 0)
(-10 0 0)
(-10 0 0)
(-10 0 0)
(-10 0 0)
(-10 0 0)
(-10 0 0)
(-10 0 0)
(-10 0 0)
(-10 0 0)
(-10 0 0)
(-10 0 0)
(-10 0 0)
(-10 0 0)
(-10 0 0)
(-10 0 0)
(-10 0 0)
(-10 0 0)
(-10 0 0)
(-10 0 0)
(-10 0 0)
(-10 0 0)
(-10 0 0)
(-10 0 0)
(-10 0 0)
(-10 0 0)
(-10 0 0)
(-10 0 0)
(-10 0 0)
(-10 0 0)
(-10 0 0)
(-10 0 0)
(-10 0 0)
(-10 0 0)
(-10 0 0)
(-10 0 0)
(-10 0 0)
(-10 0 0)
(-10 0 0)
(-10 0 0)
(-10 0 0)
(-10 0 0)
(-10 0 0)
(-10 0 0)
(-10 0 0)
(-10 0 0)
(-10 0 0)
(-10 0 0)
(-10 0 0)
(-10 0 0)
(-10 0 0)
(-10 0 0)
(-10 0 0)
(-10 0 0)
(-10 0 0)
(-10 0 0)
(-10 0 0)
(-10 0 0)
(-10 0 0)
(-10 0 0)
(-10 0 0)
(-10 0 0)
(-10 0 0)
(-10 0 0)
(-10 0 0)
(-10 0 0)
(-10 0 0)
(-10 0 0)
(-10 0 0)
(-10 0 0)
(-10 0 0)
(-10 0 0)
(-10 0 0)
(-10 0 0)
(-10 0 0)
(-10 0 0)
(-10 0 0)
(-10 0 0)
(-10 0 0)
(-10 0 0)
(-10 0 0)
(-10 0 0)
(-10 0 0)
(-10 0 0)
(-10 0 0)
(-10 0 0)
(-10 0 0)
(-10 0 0)
(-10 0 0)
(-10 0 0)
(-10 0 0)
(-10 0 0)
(-10 0 0)
(-10 0 0)
(-10 0 0)
(-10 0 0)
(-10 0 0)
(-10 0 0)
(-10 0 0)
(-10 0 0)
(-10 0 0)
(-10 0 0)
(-10 0 0)
(-10 0 0)
(-10 0 0)
(-10 0 0)
(-10 0 0)
(-10 0 0)
(-10 0 0)
(-10 0 0)
(-10 0 0)
(-10 0 0)
(-10 0 0)
(-10 0 0)
(-10 -2.64725e-16 0)
(-10 -2.16158e-12 0)
(-10 -1.08574e-08 0)
(-10 -9.0525e-05 0)
(-9.3317 -0.0626799 0)
(-0.140327 -0.261215 0)
(0.666228 -0.375959 0)
(0.690223 -0.386936 0)
(0.702899 -0.387767 0)
(0.705618 -0.388208 0)
(0.704846 -0.38801 0)
(0.704506 -0.387842 0)
(0.7049 -0.38825 0)
(0.705319 -0.388004 0)
(0.705381 -0.387942 0)
(0.705322 -0.38814 0)
(0.705172 -0.388002 0)
(0.704959 -0.387972 0)
(0.70483 -0.388056 0)
(0.704825 -0.388017 0)
(0.704914 -0.387994 0)
(0.705114 -0.38803 0)
(0.705254 -0.388051 0)
(0.705271 -0.388033 0)
(0.705218 -0.388027 0)
(0.705082 -0.388055 0)
(0.704942 -0.388034 0)
(0.704909 -0.388015 0)
(0.704924 -0.388033 0)
(0.704987 -0.388025 0)
(0.705082 -0.388016 0)
(0.70512 -0.388035 0)
(0.705119 -0.38804 0)
(0.705094 -0.38803 0)
(0.705037 -0.388034 0)
(0.704996 -0.388035 0)
(0.704986 -0.388025 0)
(0.704991 -0.388026 0)
(0.705017 -0.388035 0)
(0.705054 -0.388033 0)
(0.705069 -0.388031 0)
(0.705068 -0.388033 0)
(0.705062 -0.388029 0)
(0.705042 -0.388024 0)
(0.705024 -0.388025 0)
(0.705021 -0.388022 0)
(0.705025 -0.388018 0)
(0.705038 -0.388018 0)
(0.705055 -0.388019 0)
(0.705062 -0.388019 0)
(0.705062 -0.388023 0)
(0.705056 -0.388028 0)
(0.705046 -0.388031 0)
(0.705043 -0.388033 0)
(0.705046 -0.388034 0)
(0.705056 -0.38803 0)
(0.705074 -0.388025 0)
(0.70509 -0.388022 0)
(0.705093 -0.38802 0)
(0.705091 -0.38802 0)
(0.705081 -0.388023 0)
(0.705066 -0.388027 0)
(0.705056 -0.38803 0)
(0.705053 -0.388033 0)
(0.705055 -0.388035 0)
(0.70506 -0.388035 0)
(0.705061 -0.388035 0)
(0.70506 -0.388035 0)
(0.705053 -0.388034 0)
(0.705042 -0.388033 0)
(0.705029 -0.388031 0)
(0.705023 -0.38803 0)
(0.705022 -0.388028 0)
(0.705025 -0.388028 0)
(0.705031 -0.388027 0)
(0.705036 -0.388026 0)
(0.705037 -0.388024 0)
(0.705038 -0.388023 0)
(0.705037 -0.388025 0)
(0.705035 -0.388027 0)
(0.705036 -0.38803 0)
(0.705039 -0.388033 0)
(0.705044 -0.388034 0)
(0.705048 -0.388033 0)
(0.705053 -0.388028 0)
(0.705054 -0.388025 0)
(0.705055 -0.388021 0)
(0.705054 -0.388018 0)
(0.705055 -0.388018 0)
(0.705056 -0.388018 0)
(0.705058 -0.38802 0)
(0.70506 -0.388023 0)
(0.705062 -0.388025 0)
(0.705062 -0.388028 0)
(0.705059 -0.388029 0)
(0.705056 -0.388029 0)
(0.705052 -0.388028 0)
(0.705049 -0.388028 0)
(0.705047 -0.388029 0)
(0.705046 -0.388029 0)
(0.705047 -0.388032 0)
(0.705046 -0.388035 0)
(0.705045 -0.388037 0)
(0.705042 -0.388039 0)
(0.705038 -0.38804 0)
(0.705033 -0.38804 0)
(0.705031 -0.388042 0)
(0.705031 -0.388044 0)
(0.705032 -0.388046 0)
(0.705035 -0.388047 0)
(0.705038 -0.388046 0)
(0.70504 -0.388044 0)
(0.70504 -0.38804 0)
(0.70504 -0.388035 0)
(0.705039 -0.388027 0)
(0.705038 -0.38802 0)
(0.705039 -0.388016 0)
(0.705039 -0.388013 0)
(0.705041 -0.388012 0)
(0.705042 -0.388012 0)
(0.705042 -0.388013 0)
(0.705041 -0.388014 0)
(0.70504 -0.388015 0)
(0.70504 -0.388015 0)
(0.70504 -0.388012 0)
(0.705041 -0.388009 0)
(0.705041 -0.388007 0)
(0.705041 -0.388005 0)
(0.705042 -0.388005 0)
(0.705043 -0.388007 0)
(0.705045 -0.388013 0)
(0.705047 -0.388018 0)
(0.705051 -0.388021 0)
(0.705056 -0.388024 0)
(0.705059 -0.388026 0)
(0.705063 -0.388028 0)
(0.705066 -0.388028 0)
(0.705066 -0.388028 0)
(0.705064 -0.388028 0)
(0.705061 -0.388028 0)
(0.705055 -0.388028 0)
(0.705052 -0.388027 0)
(0.705049 -0.388026 0)
(0.705047 -0.388026 0)
(0.705045 -0.388025 0)
(0.705043 -0.388025 0)
(0.70504 -0.388025 0)
(0.705036 -0.388025 0)
(0.705033 -0.388026 0)
(0.705031 -0.388027 0)
(0.705031 -0.388028 0)
(0.705032 -0.388028 0)
(0.705034 -0.388028 0)
(0.705034 -0.388026 0)
(0.705033 -0.388024 0)
(0.705034 -0.388022 0)
(0.705035 -0.38802 0)
(0.705038 -0.388021 0)
(0.705042 -0.388021 0)
(0.705044 -0.388023 0)
(0.705045 -0.388027 0)
(0.705043 -0.388031 0)
(0.705044 -0.388037 0)
(0.70505 -0.388044 0)
(0.70506 -0.388055 0)
(0.705066 -0.388067 0)
(0.705068 -0.388075 0)
(0.705066 -0.388079 0)
(0.705062 -0.388082 0)
(0.705061 -0.388082 0)
(0.705065 -0.38808 0)
(0.70508 -0.388077 0)
(0.70509 -0.388068 0)
(0.705085 -0.388053 0)
(0.705059 -0.388027 0)
(0.705034 -0.388 0)
(0.705024 -0.38798 0)
(0.705037 -0.387965 0)
(0.705075 -0.387952 0)
(0.705098 -0.387937 0)
(0.705091 -0.387919 0)
(0.705039 -0.387894 0)
(0.704964 -0.38786 0)
(0.704938 -0.387825 0)
(0.70497 -0.387794 0)
(0.705106 -0.387769 0)
(0.705215 -0.387756 0)
(0.705229 -0.38775 0)
(0.705135 -0.387743 0)
(0.704843 -0.387719 0)
(0.704673 -0.387652 0)
(0.70469 -0.387489 0)
(0.705181 -0.387052 0)
(0.705934 -0.385946 0)
(0.705633 -0.383317 0)
(0.704427 -0.377647 0)
(0.704192 -0.366262 0)
(0.706057 -0.34436 0)
(0.707441 -0.303614 0)
(0.707567 -0.230539 0)
(0.710055 -0.106066 0)
(0.714786 0.0348705 0)
(0.717871 0.138617 0)
(0.719927 0.214882 0)
(0.721389 0.268618 0)
(0.722249 0.304584 0)
(0.722767 0.327423 0)
(0.723129 0.341147 0)
(0.723443 0.348915 0)
(0.723731 0.353022 0)
(0.72388 0.355032 0)
(0.723775 0.355928 0)
(0.723644 0.356284 0)
(0.723646 0.356413 0)
(0.723718 0.35646 0)
(0.723794 0.356497 0)
(0.723804 0.356559 0)
(0.723803 0.356661 0)
(0.723752 0.356726 0)
(0.723723 0.356754 0)
(0.723719 0.356762 0)
(0.723738 0.356743 0)
(0.723757 0.356732 0)
(0.723747 0.356748 0)
(0.723736 0.356815 0)
(0.723731 0.356911 0)
(0.723736 0.356958 0)
(0.723739 0.356973 0)
(0.723737 0.35694 0)
(0.72373 0.356898 0)
(0.723732 0.356875 0)
(0.723744 0.356866 0)
(0.723757 0.35687 0)
(0.723764 0.356919 0)
(0.72377 0.356945 0)
(0.723775 0.356914 0)
(0.723769 0.356874 0)
(0.723754 0.356879 0)
(0.723745 0.356903 0)
(0.723747 0.356915 0)
(0.723757 0.3569 0)
(0.723771 0.356877 0)
(0.72378 0.356874 0)
(0.723781 0.356889 0)
(0.723777 0.356896 0)
(0.723768 0.356901 0)
(0.723763 0.35691 0)
(0.723766 0.356914 0)
(0.723773 0.356911 0)
(0.723779 0.356904 0)
(0.723783 0.356892 0)
(0.723782 0.356876 0)
(0.723776 0.356862 0)
(0.723764 0.356851 0)
(0.723756 0.356842 0)
(0.72375 0.35684 0)
(0.723748 0.356844 0)
(0.723746 0.35685 0)
(0.723751 0.356838 0)
(0.723753 0.356796 0)
(0.723746 0.356753 0)
(0.723733 0.35676 0)
(0.723721 0.356737 0)
(0.723729 0.356653 0)
(0.723732 0.356568 0)
(0.723728 0.356509 0)
(0.723728 0.356441 0)
(0.723748 0.356366 0)
(0.723743 0.3563 0)
(0.723746 0.356246 0)
(0.723738 0.356272 0)
(0.723742 0.356455 0)
(0.723752 0.35657 0)
(0.723758 0.356511 0)
(0.723759 0.356582 0)
(0.723765 0.356939 0)
(0.723777 0.357374 0)
(0.723777 0.357603 0)
(0.723766 0.357629 0)
(0.723752 0.357572 0)
(0.723724 0.357665 0)
(0.723724 0.358207 0)
(0.723803 0.358149 0)
(0.723839 0.356701 0)
(0.723748 0.355284 0)
(0.723648 0.355632 0)
(0.723719 0.355982 0)
(0.723693 0.352816 0)
(0.723498 0.347036 0)
(0.723128 0.343644 0)
(0.723439 0.341777 0)
(0.723263 0.333047 0)
(0.722789 0.316964 0)
(0.72209 0.303177 0)
(0.722159 0.28467 0)
(0.721557 0.264501 0)
(0.721326 0.250044 0)
(0.721228 0.24034 0)
(0.721193 0.234508 0)
(0.721181 0.231406 0)
(0.721071 0.230044 0)
(0.721044 0.229631 0)
(0.721047 0.229657 0)
(0.721061 0.230021 0)
(0.721104 0.230665 0)
(0.721134 0.231339 0)
(0.721161 0.231698 0)
(0.721166 0.231857 0)
(0.721161 0.231903 0)
(0.721154 0.231886 0)
(0.72114 0.231823 0)
(0.721104 0.231775 0)
(0.721092 0.231602 0)
(0.721072 0.23147 0)
(0.721077 0.23136 0)
(0.721086 0.23129 0)
(0.721099 0.231249 0)
(0.721115 0.231228 0)
(0.721123 0.23122 0)
(0.721126 0.23122 0)
(0.721118 0.231225 0)
(0.721109 0.231237 0)
(0.721104 0.231259 0)
(0.721107 0.231274 0)
(0.721105 0.231302 0)
(0.721117 0.231323 0)
(0.721128 0.231347 0)
(0.721134 0.231369 0)
(0.721127 0.231388 0)
(0.721117 0.2314 0)
(0.721105 0.231406 0)
(0.721103 0.231407 0)
(0.721108 0.231402 0)
(0.72112 0.231397 0)
(0.721137 0.231384 0)
(0.721154 0.231368 0)
(0.721166 0.231356 0)
(0.721165 0.231348 0)
(0.721154 0.231345 0)
(0.721136 0.231346 0)
(0.721115 0.231348 0)
(0.721095 0.231352 0)
(0.721086 0.231353 0)
(0.721087 0.231354 0)
(0.721095 0.231354 0)
(0.721108 0.231353 0)
(0.721124 0.231353 0)
(0.721136 0.231355 0)
(0.72114 0.231357 0)
(0.721138 0.231361 0)
(0.72113 0.231371 0)
(0.721117 0.231383 0)
(0.721104 0.231394 0)
(0.721096 0.231403 0)
(0.721094 0.231408 0)
(0.721098 0.23141 0)
(0.721103 0.23141 0)
(0.721111 0.23141 0)
(0.721119 0.231408 0)
(0.721122 0.231405 0)
(0.72112 0.231404 0)
(0.721116 0.231403 0)
(0.721115 0.231404 0)
(0.721111 0.231405 0)
(0.721107 0.231405 0)
(0.721104 0.231407 0)
(0.721104 0.231408 0)
(0.721104 0.231408 0)
(0.721102 0.231407 0)
(0.721102 0.231405 0)
(0.721104 0.231404 0)
(0.721109 0.231401 0)
(0.721114 0.2314 0)
(0.721119 0.231397 0)
(0.721124 0.231397 0)
(0.721129 0.231396 0)
(0.721133 0.231396 0)
(0.72113 0.231396 0)
(0.721123 0.231397 0)
(0.721119 0.231398 0)
(0.721117 0.231398 0)
(0.721118 0.231399 0)
(0.721122 0.231398 0)
(0.721132 0.231397 0)
(0.721145 0.231395 0)
(0.721154 0.231393 0)
(0.721157 0.231392 0)
(0.721155 0.231389 0)
(0.721148 0.231386 0)
(0.721137 0.231383 0)
(0.721119 0.23138 0)
(0.721103 0.231378 0)
(0.721094 0.231377 0)
(0.721091 0.231376 0)
(0.721093 0.231375 0)
(0.721099 0.231375 0)
(0.721111 0.231376 0)
(0.721125 0.231377 0)
(0.721132 0.231379 0)
(0.721133 0.23138 0)
(0.72113 0.231381 0)
(0.721126 0.231382 0)
(0.721117 0.231382 0)
(0.721102 0.231382 0)
(0.721092 0.231382 0)
(0.721088 0.231381 0)
(0.721089 0.23138 0)
(0.721091 0.231379 0)
(0.721097 0.231379 0)
(0.721113 0.231379 0)
(0.721129 0.231379 0)
(0.72114 0.231379 0)
(0.721147 0.231379 0)
(0.721149 0.231378 0)
(0.721149 0.231378 0)
(0.721141 0.231378 0)
(0.721124 0.231377 0)
(0.72111 0.231375 0)
(0.721099 0.231374 0)
(0.721093 0.231374 0)
(0.721091 0.231373 0)
(0.721093 0.231372 0)
(0.721106 0.231371 0)
(0.721123 0.23137 0)
(0.721134 0.23137 0)
(0.72114 0.231369 0)
(0.721143 0.231369 0)
(0.721141 0.231368 0)
(0.72113 0.231368 0)
(0.721107 0.231368 0)
(0.721092 0.231368 0)
(0.721086 0.231367 0)
(0.721085 0.231366 0)
(0.721087 0.231366 0)
(0.721097 0.231367 0)
(0.721122 0.231368 0)
(0.721143 0.231368 0)
(0.721152 0.231368 0)
(0.721153 0.231369 0)
(0.721149 0.231371 0)
(0.72114 0.231373 0)
(0.721116 0.231375 0)
(0.721085 0.231376 0)
(0.721068 0.231377 0)
(0.721062 0.231378 0)
(0.721063 0.231379 0)
(0.721068 0.23138 0)
(0.721085 0.231379 0)
(0.721119 0.231378 0)
(0.721146 0.231378 0)
(0.721157 0.231379 0)
(0.721159 0.231379 0)
(0.721157 0.231378 0)
(0.721146 0.231378 0)
(0.721117 0.231379 0)
(0.721083 0.231382 0)
(0.721065 0.231383 0)
(0.72106 0.231383 0)
(0.721064 0.231382 0)
(0.721073 0.231382 0)
(0.721101 0.231384 0)
(0.721148 0.231384 0)
(0.721183 0.231382 0)
(0.7212 0.23138 0)
(0.721206 0.23138 0)
(0.721204 0.231381 0)
(0.721188 0.231383 0)
(0.721143 0.231383 0)
(0.721095 0.231382 0)
(0.721067 0.231382 0)
(0.721054 0.231384 0)
(0.72105 0.231386 0)
(0.721056 0.231385 0)
(0.721086 0.231383 0)
(0.721142 0.23138 0)
(0.72118 0.231381 0)
(0.721195 0.231383 0)
(0.721199 0.231382 0)
(0.721195 0.23138 0)
(0.721173 0.231378 0)
(0.721114 0.23138 0)
(0.721059 0.231384 0)
(0.72103 0.231385 0)
(0.721021 0.231382 0)
(0.721021 0.23138 0)
(0.721034 0.231381 0)
(0.721082 0.231383 0)
(0.721153 0.231383 0)
(0.721198 0.231379 0)
(0.721216 0.231376 0)
(0.721219 0.231377 0)
(0.721213 0.231381 0)
(0.721182 0.231383 0)
(0.721104 0.231381 0)
(0.721038 0.231379 0)
(0.721007 0.231381 0)
(0.720998 0.231385 0)
(0.721 0.231387 0)
(0.72102 0.231384 0)
(0.721085 0.231379 0)
(0.721173 0.231377 0)
(0.721226 0.231379 0)
(0.721245 0.231382 0)
(0.721248 0.23138 0)
(0.721237 0.231375 0)
(0.72119 0.231374 0)
(0.721088 0.231381 0)
(0.72101 0.231388 0)
(0.720975 0.231386 0)
(0.720967 0.23138 0)
(0.720974 0.231379 0)
(0.721008 0.231384 0)
(0.721106 0.231388 0)
(0.721217 0.231382 0)
(0.721281 0.231373 0)
(0.721303 0.231372 0)
(0.721303 0.231376 0)
(0.721286 0.231381 0)
(0.721215 0.231382 0)
(0.721076 0.231377 0)
(0.720975 0.231374 0)
(0.720929 0.23138 0)
(0.720918 0.231391 0)
(0.720924 0.231392 0)
(0.720969 0.231379 0)
(0.721098 0.231369 0)
(0.72123 0.231375 0)
(0.721297 0.231386 0)
(0.721318 0.231383 0)
(0.721315 0.23137 0)
(0.721285 0.231365 0)
(0.721186 0.231374 0)
(0.72101 0.231389 0)
(0.720891 0.23139 0)
(0.720843 0.231383 0)
(0.720833 0.231375 0)
(0.720852 0.231376 0)
(0.720935 0.231388 0)
(0.721125 0.231396 0)
(0.721285 0.231377 0)
(0.721366 0.231355 0)
(0.721397 0.23136 0)
(0.7214 0.231385 0)
(0.721366 0.231391 0)
(0.721242 0.23137 0)
(0.721012 0.231357 0)
(0.720857 0.231377 0)
(0.720795 0.231396 0)
(0.720784 0.231395 0)
(0.720818 0.231388 0)
(0.720958 0.231375 0)
(0.721193 0.231363 0)
(0.721359 0.231369 0)
(0.721438 0.231394 0)
(0.721461 0.231399 0)
(0.72147 0.231357 0)
(0.721428 0.231328 0)
(0.721288 0.231375 0)
(0.720992 0.231435 0)
(0.720739 0.231409 0)
(0.720643 0.231346 0)
(0.720648 0.231347 0)
(0.720731 0.23142 0)
(0.721027 0.231423 0)
(0.721287 0.231376 0)
(0.721436 0.231342 0)
(0.721486 0.231378 0)
(0.721519 0.23135 0)
(0.721537 0.231384 0)
(0.721529 0.231412 0)
(0.72139 0.23142 0)
(0.721106 0.23127 0)
(0.720526 0.231328 0)
(0.720276 0.231455 0)
(0.720309 0.231592 0)
(0.720713 0.231283 0)
(0.721095 0.231235 0)
(0.721369 0.231338 0)
(0.72227 0.231642 0)
(0.723579 0.231223 0)
(0.725168 0.230653 0)
(0.784587 0.227907 0)
(1.18786 0.202919 0)
(4.41413 0.104339 0)
(10 0.00810202 0)
(10 1.2484e-06 0)
(10 1.35465e-10 0)
(10 1.32471e-14 0)
(10 0 0)
(10 0 0)
(10 0 0)
(10 0 0)
(10 0 0)
(10 0 0)
(10 0 0)
(10 0 0)
(10 0 0)
(10 0 0)
(10 0 0)
(10 0 0)
(10 0 0)
(10 0 0)
(10 0 0)
(10 0 0)
(10 0 0)
(10 0 0)
(10 0 0)
(10 0 0)
(10 0 0)
(10 0 0)
(10 0 0)
(10 0 0)
(10 0 0)
(10 0 0)
(10 0 0)
(10 0 0)
(10 0 0)
(10 0 0)
(10 0 0)
(10 0 0)
(10 0 0)
(10 0 0)
(10 0 0)
(10 0 0)
(10 0 0)
(10 0 0)
(10 0 0)
(10 0 0)
(10 0 0)
(10 0 0)
(10 0 0)
(10 0 0)
(10 0 0)
(10 0 0)
(10 0 0)
(10 0 0)
(10 0 0)
(10 0 0)
(10 0 0)
(10 0 0)
(10 0 0)
(10 0 0)
(10 0 0)
(10 0 0)
(10 0 0)
(10 0 0)
(10 0 0)
(10 0 0)
(10 0 0)
(10 0 0)
(10 0 0)
(10 0 0)
(10 0 0)
(10 0 0)
(10 0 0)
(10 0 0)
(10 0 0)
(10 0 0)
(10 0 0)
(10 0 0)
(10 0 0)
(10 0 0)
(10 0 0)
(10 0 0)
(10 0 0)
(10 0 0)
(10 0 0)
(10 0 0)
(10 0 0)
(10 0 0)
(10 0 0)
(10 0 0)
(10 0 0)
(10 0 0)
(10 0 0)
(10 0 0)
(10 0 0)
(10 0 0)
(10 0 0)
(10 0 0)
(10 0 0)
(10 0 0)
(10 0 0)
(10 0 0)
(10 0 0)
(10 0 0)
(10 0 0)
(10 0 0)
(10 0 0)
(10 0 0)
(10 0 0)
(10 0 0)
(10 0 0)
(10 0 0)
(10 0 0)
(10 0 0)
(10 0 0)
(10 0 0)
(10 0 0)
(10 0 0)
(10 0 0)
(10 0 0)
(10 0 0)
(10 0 0)
(10 0 0)
(10 0 0)
(10 0 0)
(10 0 0)
(10 0 0)
(10 0 0)
(10 0 0)
(10 0 0)
(10 0 0)
(10 0 0)
(10 0 0)
(10 0 0)
(10 0 0)
(10 0 0)
(10 0 0)
(10 0 0)
(10 0 0)
(10 0 0)
(10 0 0)
(10 0 0)
(10 0 0)
(10 0 0)
(10 0 0)
(10 0 0)
(10 0 0)
(10 0 0)
(10 0 0)
(10 0 0)
(10 0 0)
(10 0 0)
(10 0 0)
(10 0 0)
(10 0 0)
(10 0 0)
(10 0 0)
(10 0 0)
(10 0 0)
(10 0 0)
(10 0 0)
(10 0 0)
(10 0 0)
(10 0 0)
(10 0 0)
(10 0 0)
(10 0 0)
(10 0 0)
(10 0 0)
(10 0 0)
(10 0 0)
(10 0 0)
(10 0 0)
(10 0 0)
(10 0 0)
(10 0 0)
(10 0 0)
(10 0 0)
(10 0 0)
(10 0 0)
(10 0 0)
(10 0 0)
(10 0 0)
(10 0 0)
(10 0 0)
(10 0 0)
(10 0 0)
(10 0 0)
(10 0 0)
(10 0 0)
(10 0 0)
(10 0 0)
(10 0 0)
(10 0 0)
(10 0 0)
(10 0 0)
(10 0 0)
(10 0 0)
(10 0 0)
(10 0 0)
(10 0 0)
(10 0 0)
(10 0 0)
(10 0 0)
(10 0 0)
(10 0 0)
(10 0 0)
(10 0 0)
(10 0 0)
(10 0 0)
(10 0 0)
(10 0 0)
(10 0 0)
(10 0 0)
(10 0 0)
(10 0 0)
(10 0 0)
(10 0 0)
)
;

boundaryField
{
    front-back
    {
        type            empty;
    }
    inlet-outlet
    {
        type            zeroGradient;
    }
    top-down
    {
        type            empty;
    }
}


// ************************************************************************* //
