/*--------------------------------*- C++ -*----------------------------------*\
| =========                 |                                                 |
| \\      /  F ield         | OpenFOAM: The Open Source CFD Toolbox           |
|  \\    /   O peration     | Version:  2.2.x                                 |
|   \\  /    A nd           | Web:      www.OpenFOAM.org                      |
|    \\/     M anipulation  |                                                 |
\*---------------------------------------------------------------------------*/
FoamFile
{
    version     2.0;
    format      ascii;
    class       volScalarField;
    location    "5";
    object      rho;
}
// * * * * * * * * * * * * * * * * * * * * * * * * * * * * * * * * * * * * * //

dimensions      [1 -3 0 0 0 0 0];

internalField   nonuniform List<scalar> 
14161
(
1
1
1
1
1
1
1
1
1
1
1
1
1
1
0.99695
1.00241
1.0205
1.42383
2.71921
2.78425
2.7967
2.80914
2.82013
2.82992
2.83907
2.84792
2.85695
2.86574
2.87387
2.88132
2.88837
2.89501
2.90141
2.90748
2.91335
2.91879
2.924
2.92879
2.93339
2.93765
2.94178
2.94561
2.94934
2.95278
2.95613
2.95926
2.96246
2.9656
2.96872
2.97184
2.97496
2.97809
2.98124
2.98441
2.9876
2.99083
2.99408
2.99733
3.00055
3.00373
3.00689
3.01004
3.01319
3.01634
3.01951
3.02269
3.0259
3.02913
3.0324
3.03566
3.03892
3.04216
3.0454
3.04866
3.05193
3.05523
3.05854
3.06188
3.06523
3.06858
3.07194
3.0753
3.07868
3.08208
3.0855
3.08892
3.09235
3.09577
3.09921
3.10267
3.10616
3.10965
3.11314
3.11664
3.12014
3.12363
3.12713
3.13062
3.13412
3.13764
3.14118
3.14473
3.1483
3.15185
3.15536
3.15879
3.16216
3.1655
3.16883
3.17205
3.17504
3.17779
3.18044
3.18303
3.1854
3.1873
3.18852
3.18914
3.18999
1
1
1
1
1
1
1
1
1
1
1
1
1
1
1.00126
0.99622
1.01479
1.42477
2.72054
2.78396
2.79626
2.80865
2.81979
2.82975
2.83914
2.84812
2.85721
2.86598
2.87409
2.88153
2.88857
2.89522
2.90163
2.90771
2.91359
2.91903
2.92424
2.92902
2.93361
2.93787
2.94199
2.94582
2.94954
2.95298
2.95632
2.95944
2.96265
2.96579
2.96891
2.97202
2.97514
2.97827
2.98142
2.98459
2.98778
2.99101
2.99426
2.99751
3.00073
3.00391
3.00706
3.01021
3.01335
3.0165
3.01966
3.02284
3.02605
3.02928
3.03255
3.03581
3.03905
3.04229
3.04553
3.04878
3.05204
3.05533
3.05864
3.06197
3.06531
3.06865
3.07201
3.07537
3.07874
3.08213
3.08554
3.08895
3.09237
3.09578
3.09921
3.10266
3.10614
3.10962
3.1131
3.11659
3.12007
3.12356
3.12705
3.13053
3.13402
3.13752
3.14105
3.14459
3.14815
3.15168
3.15517
3.15859
3.16194
3.16526
3.16857
3.17177
3.17473
3.17745
3.18006
3.18261
3.18493
3.18674
3.18789
3.18864
3.1893
1
1
1
1
1
1
1
1
1
1
1
1
1
0.999999
1.0012
0.997033
1.01355
1.42433
2.71607
2.78087
2.79329
2.80568
2.81722
2.82767
2.83747
2.84687
2.8561
2.86483
2.87296
2.88047
2.88759
2.89432
2.90079
2.90692
2.91284
2.91831
2.92356
2.92837
2.933
2.93729
2.94143
2.94528
2.94901
2.95248
2.95583
2.95894
2.96215
2.96529
2.96841
2.97153
2.97464
2.97777
2.98091
2.98408
2.98726
2.99048
2.99373
2.99698
3.00019
3.00338
3.00653
3.00968
3.01283
3.01599
3.01915
3.02233
3.02554
3.02877
3.03204
3.03531
3.03857
3.04181
3.04506
3.04831
3.05158
3.05487
3.05819
3.06153
3.06489
3.06825
3.07161
3.07499
3.07837
3.08177
3.08519
3.08861
3.09204
3.09546
3.0989
3.10236
3.10584
3.10933
3.11282
3.11631
3.11979
3.12328
3.12676
3.13023
3.13371
3.13721
3.14072
3.14425
3.14779
3.15131
3.15477
3.15816
3.16149
3.16478
3.16805
3.1712
3.17411
3.17678
3.17932
3.1818
3.18402
3.18571
3.18675
3.18721
3.1878
1
1
1
1
1
1
1
1
1
1
1
1
1
0.999999
1.00082
0.998278
1.01469
1.42512
2.71221
2.77855
2.79105
2.80324
2.81488
2.82559
2.83569
2.84539
2.85468
2.86334
2.8715
2.8791
2.88632
2.89314
2.89967
2.90583
2.91175
2.91723
2.9225
2.92736
2.93203
2.93636
2.94054
2.94443
2.94817
2.95166
2.95501
2.95813
2.96133
2.96446
2.96759
2.97071
2.97384
2.97698
2.98013
2.9833
2.98649
2.98971
2.99295
2.99619
2.99941
3.00259
3.00576
3.00892
3.01208
3.01525
3.01843
3.02162
3.02484
3.02808
3.03135
3.03462
3.03788
3.04113
3.04439
3.04765
3.05093
3.05423
3.05756
3.0609
3.06427
3.06763
3.071
3.07438
3.07778
3.08119
3.08461
3.08803
3.09146
3.09489
3.09834
3.10181
3.10529
3.10879
3.11229
3.11578
3.11927
3.12276
3.12624
3.12972
3.1332
3.13669
3.14019
3.14371
3.14723
3.15073
3.15416
3.15751
3.16078
3.16402
3.16722
3.17029
3.1731
3.17568
3.17813
3.18049
3.18257
3.18413
3.18505
3.18528
3.18564
1
1
1
1
1
1
1
1
1
1
1
1
1
0.999999
1.00038
0.999061
1.01471
1.42624
2.71146
2.77823
2.79067
2.80264
2.8141
2.8248
2.83492
2.84458
2.85375
2.86235
2.8705
2.87812
2.88537
2.8922
2.89871
2.90483
2.91069
2.91615
2.9214
2.92627
2.93096
2.93532
2.93952
2.94342
2.94716
2.95065
2.95399
2.95714
2.96031
2.96345
2.96658
2.9697
2.97284
2.97598
2.97913
2.9823
2.9855
2.98871
2.99193
2.99515
2.99835
3.00153
3.0047
3.00786
3.01102
3.0142
3.01738
3.02058
3.02381
3.02705
3.03032
3.03358
3.03683
3.04008
3.04334
3.04661
3.0499
3.05321
3.05655
3.05992
3.0633
3.06669
3.07009
3.0735
3.07693
3.08037
3.08382
3.08727
3.09073
3.09419
3.09766
3.10114
3.10463
3.10813
3.11163
3.11512
3.11861
3.12209
3.12557
3.12904
3.13252
3.136
3.13949
3.143
3.14649
3.14995
3.15334
3.15664
3.15985
3.16303
3.16614
3.16911
3.1718
3.17426
3.17657
3.17877
3.18066
3.18199
3.18269
3.18263
3.18252
1
1
1
1
1
1
1
1
1
1
1
1
1
0.999998
1.0001
0.9997
1.01446
1.42661
2.71227
2.77859
2.79083
2.80261
2.81401
2.82473
2.83484
2.84442
2.85349
2.86203
2.87015
2.87775
2.88499
2.89179
2.89826
2.90432
2.91012
2.91554
2.92075
2.92561
2.93028
2.93464
2.93882
2.94272
2.94645
2.94992
2.95325
2.95641
2.95956
2.9627
2.96582
2.96894
2.97207
2.97521
2.97835
2.98151
2.98469
2.98788
2.99109
2.99428
2.99746
3.00063
3.00379
3.00694
3.01009
3.01326
3.01644
3.01964
3.02285
3.02609
3.02934
3.03258
3.03583
3.03907
3.04232
3.04558
3.04885
3.05215
3.05548
3.05883
3.06221
3.06561
3.06901
3.07243
3.07587
3.07932
3.08278
3.08625
3.08972
3.09321
3.09671
3.10022
3.10373
3.10725
3.11077
3.11427
3.11777
3.12126
3.12474
3.1282
3.13167
3.13514
3.13861
3.14208
3.14554
3.14894
3.15227
3.1555
3.15865
3.16175
3.16477
3.16761
3.17017
3.17249
3.17466
3.17667
3.1783
3.17936
3.17983
3.17951
3.17884
1
1
1
1
1
1
1
1
1
1
1
1
1
1
1.00007
0.999972
1.01441
1.42618
2.71294
2.7794
2.79164
2.80329
2.81446
2.82497
2.83495
2.84437
2.85336
2.86184
2.86993
2.8775
2.8847
2.89146
2.89789
2.90392
2.90967
2.91506
2.92022
2.92506
2.9297
2.93404
2.93821
2.9421
2.94582
2.94929
2.9526
2.95577
2.9589
2.96202
2.96514
2.96826
2.97138
2.97451
2.97765
2.98081
2.98397
2.98715
2.99034
2.99352
2.99669
2.99985
3.003
3.00615
3.00931
3.01247
3.01565
3.01883
3.02203
3.02526
3.02849
3.03173
3.03498
3.03824
3.0415
3.04478
3.04808
3.05139
3.05472
3.05807
3.06144
3.06481
3.0682
3.0716
3.075
3.07843
3.08186
3.0853
3.08875
3.09221
3.09569
3.09919
3.1027
3.10621
3.10971
3.11321
3.11671
3.1202
3.12366
3.12712
3.13057
3.13402
3.13747
3.14092
3.14433
3.14768
3.15094
3.15409
3.15716
3.16017
3.16308
3.16578
3.1682
3.17037
3.17237
3.17415
3.1755
3.17627
3.1764
3.17566
3.17442
1
1
1
1
1
1
1
1
1
1
1
1
1
0.999998
1.00002
1.00002
1.01465
1.4253
2.71267
2.77953
2.79199
2.80372
2.81488
2.82535
2.83532
2.84468
2.85365
2.86208
2.87011
2.87762
2.88475
2.89142
2.89777
2.90373
2.90943
2.91478
2.91991
2.92472
2.92933
2.93365
2.93778
2.94165
2.94533
2.94877
2.95205
2.95523
2.95837
2.9615
2.96463
2.96776
2.97088
2.97402
2.97716
2.98031
2.98347
2.98663
2.98979
2.99295
2.9961
2.99924
3.00238
3.00552
3.00865
3.01179
3.01493
3.01808
3.02123
3.02439
3.02756
3.03074
3.03393
3.03713
3.04034
3.04357
3.04683
3.0501
3.05338
3.05668
3.05999
3.06332
3.06668
3.07004
3.07343
3.07683
3.08026
3.0837
3.08715
3.09062
3.09412
3.09764
3.10117
3.10471
3.10824
3.11177
3.11529
3.1188
3.12229
3.12576
3.12921
3.13266
3.13609
3.13951
3.14287
3.14617
3.14935
3.15242
3.1554
3.1583
3.16107
3.16361
3.16586
3.16787
3.16968
3.1712
3.17225
3.17274
3.17254
3.17127
3.16948
1
1
1
1
1
1
1
1
1
1
1
1
1
0.999999
1.00003
0.999889
1.01463
1.42428
2.71202
2.77928
2.79169
2.80327
2.81437
2.82481
2.83475
2.84406
2.85299
2.86142
2.86949
2.87708
2.88431
2.89109
2.89756
2.90359
2.90934
2.9147
2.91981
2.92459
2.92915
2.93341
2.93748
2.94129
2.94489
2.94828
2.9515
2.95461
2.95772
2.96082
2.96391
2.96701
2.9701
2.97319
2.97629
2.97939
2.9825
2.98561
2.98872
2.99184
2.99496
2.99808
3.0012
3.00433
3.00746
3.0106
3.01374
3.01689
3.02004
3.02319
3.02635
3.0295
3.03266
3.03583
3.03901
3.0422
3.04542
3.04866
3.05191
3.05518
3.05848
3.0618
3.06514
3.06851
3.0719
3.07532
3.07875
3.0822
3.08568
3.08917
3.09268
3.09621
3.09976
3.10331
3.10685
3.11038
3.11389
3.11738
3.12085
3.12431
3.12776
3.13119
3.13461
3.13799
3.1413
3.14452
3.14761
3.15057
3.15343
3.15619
3.1588
3.16115
3.1632
3.16501
3.1666
3.16785
3.1686
3.16875
3.16808
3.16632
3.1639
1
1
1
1
1
1
1
1
1
1
1
1
1
1
1.00002
0.999764
1.01482
1.42244
2.71037
2.77837
2.79106
2.80278
2.81407
2.8246
2.83466
2.84399
2.85294
2.86133
2.86936
2.87687
2.88405
2.89073
2.8971
2.90305
2.90872
2.91404
2.9191
2.92385
2.92838
2.93264
2.9367
2.94052
2.94412
2.94753
2.95076
2.9539
2.95704
2.96015
2.96326
2.96635
2.96943
2.97251
2.97559
2.97867
2.98176
2.98485
2.98794
2.99103
2.99412
2.99722
3.00031
3.00341
3.00651
3.00961
3.01271
3.01582
3.01894
3.02206
3.0252
3.02834
3.03148
3.03463
3.03779
3.04096
3.04415
3.04736
3.05059
3.05384
3.0571
3.0604
3.06371
3.06705
3.07041
3.07379
3.0772
3.08062
3.08407
3.08755
3.09105
3.09456
3.09808
3.10159
3.1051
3.10859
3.11207
3.11554
3.11902
3.12248
3.12593
3.12936
3.13277
3.13614
3.13941
3.14257
3.14559
3.14846
3.15122
3.15385
3.15628
3.15842
3.16026
3.16184
3.16316
3.1641
3.16454
3.16434
3.16313
3.16092
3.15783
1
1
1
1
1
1
1
1
1
1
1
1
1
1
1.00002
0.999777
1.01493
1.42017
2.7091
2.77798
2.79087
2.80264
2.81396
2.82444
2.83452
2.84386
2.85281
2.86117
2.86917
2.87663
2.88376
2.8904
2.89672
2.90266
2.90831
2.91363
2.91869
2.92345
2.92797
2.93223
2.93627
2.94008
2.94367
2.94706
2.95028
2.95342
2.95651
2.95959
2.96266
2.96573
2.96878
2.97183
2.97488
2.97794
2.98099
2.98405
2.98711
2.99017
2.99324
2.9963
2.99937
3.00243
3.0055
3.00858
3.01166
3.01475
3.01785
3.02095
3.02406
3.02717
3.03028
3.0334
3.03652
3.03966
3.04282
3.04599
3.04918
3.05239
3.05562
3.05887
3.06215
3.06546
3.0688
3.07215
3.07552
3.07889
3.08229
3.08572
3.08919
3.09267
3.09618
3.09968
3.10318
3.10666
3.11014
3.1136
3.11703
3.12045
3.12387
3.1273
3.13071
3.13405
3.1373
3.1404
3.14334
3.14612
3.14878
3.15127
3.15352
3.15544
3.15705
3.15838
3.15942
3.16005
3.16012
3.15946
3.15774
3.15501
3.15117
1
1
1
1
1
1
1
1
1
1
1
1
1
1
1.00001
0.999994
1.01491
1.41719
2.70888
2.77807
2.7909
2.8026
2.81386
2.82428
2.83431
2.8436
2.85252
2.86084
2.86881
2.87623
2.88331
2.88992
2.89621
2.90214
2.90777
2.9131
2.91817
2.92294
2.92747
2.93173
2.93576
2.93955
2.94314
2.94651
2.94968
2.9528
2.95583
2.95888
2.96191
2.96494
2.96796
2.97098
2.97401
2.97703
2.98006
2.98309
2.98613
2.98918
2.99222
2.99527
2.99832
3.00137
3.00443
3.00749
3.01056
3.01363
3.01671
3.0198
3.02289
3.02598
3.02908
3.03218
3.03529
3.03841
3.04156
3.04473
3.04791
3.0511
3.05432
3.05755
3.06081
3.06409
3.06738
3.07067
3.07396
3.07726
3.08057
3.08392
3.08729
3.0907
3.09415
3.09761
3.10107
3.10451
3.10795
3.11138
3.11479
3.11818
3.12156
3.12491
3.12825
3.13153
3.13472
3.13778
3.14068
3.14341
3.14597
3.14835
3.15043
3.15215
3.15353
3.15461
3.15537
3.15563
3.1553
3.15419
3.15196
3.14875
3.14408
1
1
1
1
1
1
1
1
1
1
1
1
1
1
1.00001
0.999998
1.01484
1.41395
2.70921
2.77885
2.79141
2.80294
2.81408
2.82442
2.83438
2.8436
2.85246
2.86072
2.86861
2.87597
2.88298
2.88955
2.89579
2.90167
2.90726
2.91255
2.91757
2.92231
2.92681
2.93104
2.93505
2.93881
2.94236
2.94569
2.94886
2.95195
2.95496
2.95798
2.96099
2.96399
2.96698
2.96998
2.97298
2.97598
2.97898
2.98198
2.98499
2.98801
2.99102
2.99404
2.99705
3.00006
3.00307
3.00608
3.00911
3.01214
3.01517
3.01822
3.02127
3.02433
3.02739
3.03046
3.03354
3.03664
3.03976
3.04291
3.04608
3.04927
3.05248
3.05571
3.05897
3.06225
3.06553
3.06882
3.07211
3.07541
3.07872
3.08205
3.08538
3.08875
3.09213
3.09552
3.09891
3.10229
3.10566
3.10902
3.11236
3.11569
3.11901
3.1223
3.12556
3.12877
3.13188
3.13484
3.13763
3.14028
3.14276
3.14502
3.14694
3.14846
3.14964
3.15049
3.15094
3.15083
3.15008
3.14852
3.14565
3.14207
3.13649
1
1
1
1
1
1
1
1
1
1
1
1
1
0.999998
0.999992
0.999828
1.01498
1.40876
2.70735
2.77829
2.7909
2.80241
2.81351
2.8238
2.83371
2.84289
2.85169
2.8599
2.86772
2.87504
2.88201
2.88853
2.89474
2.90057
2.90611
2.91134
2.9163
2.92099
2.92544
2.92962
2.93358
2.93731
2.94081
2.94412
2.94727
2.95034
2.95334
2.95635
2.95934
2.96233
2.96531
2.96829
2.97127
2.97424
2.97721
2.98019
2.98317
2.98614
2.98912
2.99209
2.99505
2.99801
3.00096
3.00391
3.00687
3.00983
3.0128
3.01579
3.01879
3.02179
3.02482
3.02785
3.03091
3.03399
3.0371
3.04023
3.04339
3.04657
3.04978
3.05303
3.0563
3.05961
3.06294
3.06627
3.0696
3.07294
3.07627
3.07962
3.08298
3.08635
3.08973
3.09311
3.09648
3.09984
3.10318
3.1065
3.1098
3.11307
3.11633
3.11955
3.12274
3.12586
3.12887
3.13172
3.1344
3.13693
3.13929
3.14141
3.14314
3.14447
3.14544
3.14605
3.14616
3.14562
3.14449
3.14243
3.13893
3.13498
3.12843
1
1
1
1
1
1
1
1
1
1
1
1
1
0.999999
1
0.999874
1.01498
1.40323
2.70546
2.77783
2.7905
2.80201
2.8131
2.82335
2.8332
2.84233
2.85107
2.85922
2.867
2.87427
2.8812
2.88768
2.89384
2.89964
2.90514
2.91033
2.91525
2.9199
2.92429
2.92844
2.93235
2.93605
2.93951
2.94278
2.94588
2.94892
2.95187
2.95484
2.95779
2.96074
2.96368
2.96661
2.96955
2.97248
2.97542
2.97835
2.98129
2.98423
2.98717
2.9901
2.99303
2.99596
2.99888
3.0018
3.00472
3.00765
3.01058
3.01352
3.01647
3.01944
3.02243
3.02543
3.02847
3.03153
3.03461
3.03773
3.04088
3.04406
3.04726
3.05049
3.05376
3.05705
3.06037
3.06371
3.06705
3.07039
3.07373
3.07707
3.08043
3.08378
3.08714
3.09049
3.09382
3.09714
3.10044
3.10371
3.10694
3.11015
3.11334
3.11649
3.1196
3.12263
3.12553
3.12826
3.13082
3.13321
3.13542
3.13736
3.13894
3.14009
3.14087
3.14119
3.14087
3.14003
3.13849
3.13597
3.1318
3.12744
3.11992
1
1
1
1
1
1
1
1
1
1
1
1
1
1
1
0.999865
1.0151
1.39722
2.70361
2.77762
2.79029
2.80176
2.81281
2.82301
2.83279
2.84185
2.85052
2.85861
2.86631
2.87353
2.8804
2.88682
2.89293
2.89868
2.90412
2.90926
2.91412
2.91872
2.92306
2.92715
2.93101
2.93465
2.93806
2.94128
2.94432
2.94731
2.95022
2.95314
2.95604
2.95894
2.96183
2.96471
2.96759
2.97048
2.97336
2.97625
2.97913
2.98201
2.98489
2.98777
2.99064
2.99351
2.99638
2.99925
3.00211
3.00499
3.00786
3.01075
3.01365
3.01657
3.01952
3.02251
3.02553
3.02857
3.03165
3.03476
3.03791
3.04108
3.04428
3.04752
3.05078
3.05407
3.05739
3.06074
3.06409
3.06745
3.07082
3.07419
3.07757
3.08095
3.08433
3.08769
3.09102
3.09432
3.09758
3.1008
3.10397
3.1071
3.11019
3.11324
3.11624
3.11914
3.12191
3.1245
3.12691
3.12915
3.13119
3.13294
3.1343
3.1353
3.13588
3.13584
3.13519
3.13401
3.13202
3.12909
3.12419
3.11941
3.11087
1
1
1
1
1
1
1
1
1
1
1
1
1
1
1.00002
0.999924
1.01517
1.39032
2.70181
2.77773
2.79031
2.80171
2.81265
2.82276
2.83245
2.84142
2.84999
2.85802
2.86564
2.87281
2.8796
2.88598
2.89203
2.89773
2.90312
2.90822
2.91302
2.91757
2.92186
2.92591
2.92971
2.9333
2.93668
2.93985
2.94285
2.9458
2.94866
2.95154
2.9544
2.95726
2.9601
2.96294
2.96578
2.96861
2.97144
2.97427
2.9771
2.97993
2.98276
2.98558
2.9884
2.99123
2.99405
2.99687
2.99969
3.00251
3.00535
3.00818
3.01103
3.0139
3.0168
3.01972
3.02268
3.02566
3.02868
3.03173
3.03481
3.03793
3.04108
3.04427
3.0475
3.05076
3.05406
3.05739
3.06075
3.06411
3.06749
3.07087
3.07426
3.07765
3.08103
3.08439
3.08772
3.09102
3.09427
3.09747
3.10061
3.10369
3.10671
3.10969
3.11259
3.11539
3.11803
3.12049
3.12274
3.12482
3.12668
3.12822
3.1294
3.13024
3.13053
3.13009
3.1292
3.12758
3.12517
3.12182
3.11617
3.11093
3.10136
1
1
1
1
1
1
1
1
1
1
1
1
1
0.999998
1
0.999948
1.01511
1.38283
2.70033
2.7781
2.79044
2.80171
2.81253
2.82253
2.83209
2.84096
2.84942
2.85735
2.86488
2.87197
2.87868
2.88499
2.89096
2.89659
2.9019
2.90692
2.91165
2.91613
2.92035
2.92433
2.92807
2.9316
2.93491
2.93803
2.94098
2.94388
2.94669
2.94951
2.95231
2.95511
2.9579
2.96067
2.96345
2.96622
2.96898
2.97175
2.97451
2.97728
2.98004
2.9828
2.98557
2.98833
2.9911
2.99387
2.99665
2.99942
3.00221
3.005
3.00781
3.01064
3.01349
3.01637
3.01928
3.02223
3.02521
3.02823
3.03128
3.03438
3.03752
3.0407
3.04392
3.04718
3.05048
3.0538
3.05715
3.06051
3.06389
3.06728
3.07068
3.07408
3.07747
3.08084
3.08418
3.08748
3.09072
3.0939
3.097
3.10003
3.10299
3.10586
3.10865
3.11132
3.11382
3.11611
3.11821
3.12011
3.12176
3.12309
3.12409
3.12468
3.12459
3.12393
3.12269
3.1207
3.11784
3.11409
3.10769
3.10195
3.09133
1
1
1
1
1
1
1
1
1
1
1
1
1
0.999999
0.999995
0.999835
1.01524
1.37379
2.69751
2.77766
2.78986
2.80107
2.8118
2.82172
2.83119
2.83998
2.84837
2.85623
2.86369
2.8707
2.87735
2.88358
2.88947
2.89501
2.90024
2.90518
2.90982
2.91422
2.91835
2.92225
2.92592
2.92938
2.93262
2.93568
2.93857
2.94141
2.94418
2.94696
2.94971
2.95246
2.95519
2.95792
2.96064
2.96335
2.96605
2.96876
2.97146
2.97415
2.97685
2.97954
2.98224
2.98495
2.98766
2.99038
2.9931
2.99582
2.99856
3.00131
3.00408
3.00687
3.00969
3.01254
3.01543
3.01835
3.02131
3.0243
3.02734
3.03041
3.03354
3.0367
3.03991
3.04316
3.04644
3.04976
3.0531
3.05645
3.05983
3.06322
3.06663
3.07004
3.07346
3.07684
3.0802
3.08351
3.08676
3.08993
3.09302
3.09602
3.09892
3.10173
3.10442
3.10697
3.10934
3.11148
3.1134
3.11511
3.11653
3.11764
3.11846
3.11874
3.11833
3.1174
3.11579
3.11342
3.11009
3.1059
3.09881
3.09243
3.08085
1
1
1
1
1
1
1
1
1
1
1
1
1
1
1
0.99986
1.01529
1.36416
2.69413
2.7773
2.78942
2.80053
2.81114
2.82097
2.83033
2.83904
2.84733
2.85512
2.86251
2.86945
2.87603
2.88219
2.888
2.89347
2.89862
2.90348
2.90804
2.91237
2.91642
2.92026
2.92385
2.92724
2.93042
2.93342
2.93624
2.93903
2.94173
2.94445
2.94715
2.94983
2.9525
2.95516
2.95781
2.96044
2.96307
2.9657
2.96832
2.97093
2.97355
2.97616
2.97879
2.98141
2.98405
2.9867
2.98935
2.99201
2.9947
2.9974
3.00012
3.00287
3.00565
3.00847
3.01131
3.0142
3.01713
3.0201
3.02312
3.02618
3.02929
3.03244
3.03564
3.03888
3.04216
3.04547
3.04881
3.05217
3.05555
3.05895
3.06236
3.06576
3.06916
3.07254
3.07589
3.07919
3.08242
3.08557
3.08864
3.0916
3.09447
3.09721
3.09981
3.10223
3.10445
3.10644
3.10819
3.10969
3.11089
3.11181
3.11238
3.11231
3.11164
3.1104
3.10844
3.10567
3.10187
3.09723
3.08946
3.08244
3.06983
1
1
1
1
1
1
1
1
1
1
1
1
1
1
1.00001
0.99992
1.01523
1.35363
2.69082
2.77717
2.7891
2.80007
2.81051
2.8202
2.82941
2.83801
2.8462
2.85389
2.86117
2.86803
2.8745
2.88057
2.88629
2.89166
2.89671
2.90148
2.90595
2.91018
2.91415
2.9179
2.92141
2.92473
2.92784
2.93078
2.93354
2.93627
2.93892
2.94158
2.94421
2.94683
2.94943
2.95201
2.95459
2.95715
2.95971
2.96226
2.96481
2.96735
2.9699
2.97245
2.975
2.97757
2.98014
2.98272
2.98531
2.98791
2.99054
2.99318
2.99585
2.99854
3.00127
3.00403
3.00683
3.00967
3.01256
3.01548
3.01846
3.02148
3.02456
3.02769
3.03087
3.03411
3.03738
3.04069
3.04403
3.0474
3.05078
3.05418
3.05759
3.061
3.06441
3.06779
3.07115
3.07445
3.07769
3.08085
3.0839
3.08685
3.08969
3.09238
3.0949
3.09722
3.09929
3.10112
3.10268
3.10397
3.10495
3.10566
3.10591
3.10553
3.10457
3.10298
3.10065
3.09747
3.0932
3.08809
3.07965
3.07196
3.05831
1
1
1
1
1
1
1
1
1
1
1
1
1
1
1
0.999889
1.0152
1.34222
2.68733
2.77717
2.78883
2.7996
2.80986
2.8194
2.82847
2.83694
2.84499
2.85257
2.85973
2.86648
2.87283
2.8788
2.8844
2.88967
2.89461
2.89927
2.90364
2.90778
2.91165
2.91531
2.91874
2.92198
2.92501
2.92788
2.93057
2.93324
2.93583
2.93842
2.94099
2.94354
2.94607
2.94858
2.95108
2.95357
2.95605
2.95852
2.96099
2.96347
2.96594
2.96842
2.9709
2.9734
2.9759
2.97842
2.98095
2.98349
2.98605
2.98864
2.99126
2.99391
2.9966
2.99932
3.00207
3.00488
3.00773
3.01062
3.01356
3.01655
3.01959
3.02269
3.02583
3.02903
3.03227
3.03556
3.03888
3.04224
3.04562
3.04901
3.05243
3.05584
3.05925
3.06264
3.066
3.06931
3.07254
3.07568
3.07872
3.08165
3.08444
3.08708
3.08952
3.09173
3.09367
3.09535
3.09674
3.09783
3.09861
3.09907
3.09898
3.09832
3.09707
3.09512
3.09241
3.08881
3.08406
3.07844
3.06938
3.06099
3.04629
1
1
1
1
1
1
1
1
1
1
1
1
1
0.999999
0.999999
0.999871
1.01527
1.3297
2.68266
2.77684
2.7884
2.79907
2.80919
2.81861
2.82754
2.83589
2.8438
2.85125
2.85828
2.8649
2.87112
2.87696
2.88244
2.88759
2.89241
2.89696
2.90121
2.90523
2.90899
2.91255
2.91588
2.91903
2.92196
2.92475
2.92735
2.92994
2.93246
2.93497
2.93746
2.93993
2.94238
2.94481
2.94722
2.94962
2.95202
2.95441
2.95679
2.95918
2.96157
2.96397
2.96637
2.96879
2.97121
2.97365
2.97611
2.97859
2.98109
2.98362
2.98618
2.98877
2.99141
2.99409
2.99682
2.99959
3.00241
3.00528
3.0082
3.01117
3.01419
3.01727
3.0204
3.02358
3.02681
3.03008
3.0334
3.03675
3.04013
3.04353
3.04694
3.05035
3.05376
3.05714
3.0605
3.06381
3.06704
3.07018
3.07321
3.07611
3.07887
3.08146
3.08382
3.08593
3.08774
3.08926
3.09046
3.09134
3.09191
3.09207
3.09167
3.09071
3.08913
3.08682
3.08372
3.07968
3.07445
3.06831
3.05863
3.04952
3.03373
1
1
1
1
1
1
1
1
1
1
1
1
1
1
1
0.999918
1.01509
1.31623
2.67766
2.7766
2.78795
2.79846
2.80844
2.81772
2.82652
2.83473
2.8425
2.84982
2.85671
2.8632
2.8693
2.87501
2.88037
2.88539
2.89009
2.89452
2.89866
2.90257
2.90621
2.90966
2.91288
2.91593
2.91877
2.92146
2.92397
2.92646
2.92891
2.93135
2.93375
2.93613
2.93849
2.94083
2.94316
2.94547
2.94778
2.95008
2.95238
2.95468
2.95698
2.9593
2.96162
2.96395
2.9663
2.96867
2.97106
2.97346
2.9759
2.97836
2.98086
2.9834
2.98597
2.9886
2.99127
2.99399
2.99677
2.99959
3.00247
3.00541
3.0084
3.01145
3.01456
3.01772
3.02093
3.02419
3.02749
3.03083
3.0342
3.0376
3.041
3.04441
3.04781
3.05118
3.05453
3.05783
3.06104
3.06417
3.06717
3.07005
3.07278
3.07533
3.07764
3.07966
3.08136
3.08273
3.08375
3.08443
3.08478
3.08465
3.08394
3.08267
3.08074
3.07807
3.07456
3.07007
3.06435
3.05767
3.04738
3.0375
3.02071
1
1
1
1
1
1
1
1
1
1
1
1
1
1
1
0.999911
1.01492
1.30175
2.67218
2.77644
2.78753
2.79782
2.80757
2.81666
2.82527
2.83332
2.84092
2.84809
2.85483
2.86118
2.86713
2.87271
2.87794
2.88284
2.88742
2.89172
2.89573
2.89952
2.90305
2.90638
2.90949
2.91242
2.91516
2.91775
2.92017
2.92257
2.92495
2.9273
2.92961
2.93191
2.93418
2.93643
2.93867
2.9409
2.94312
2.94533
2.94755
2.94976
2.95199
2.95422
2.95646
2.95872
2.961
2.9633
2.96562
2.96796
2.97033
2.97273
2.97517
2.97764
2.98016
2.98272
2.98533
2.988
2.99073
2.99351
2.99635
2.99925
3.00222
3.00525
3.00835
3.0115
3.0147
3.01795
3.02125
3.02458
3.02795
3.03135
3.03476
3.03816
3.04155
3.04492
3.04826
3.05154
3.05474
3.05784
3.06082
3.06366
3.06635
3.06884
3.07108
3.07301
3.07459
3.0758
3.07665
3.07713
3.07724
3.07681
3.0758
3.0742
3.07192
3.06886
3.06493
3.05999
3.05377
3.04653
3.03567
3.02503
3.00711
1
1
1
1
1
1
1
1
1
1
1
1
1
1
1
0.999903
1.01484
1.28629
2.66512
2.77586
2.78689
2.79701
2.80653
2.81542
2.82381
2.83166
2.83908
2.84608
2.85266
2.85885
2.86465
2.87009
2.87518
2.87993
2.88438
2.88853
2.89241
2.89606
2.89946
2.90266
2.90566
2.90848
2.91111
2.9136
2.91592
2.91823
2.92052
2.92279
2.92503
2.92724
2.92943
2.9316
2.93376
2.9359
2.93803
2.94016
2.94229
2.94443
2.94657
2.94872
2.95089
2.95307
2.95528
2.9575
2.95975
2.96203
2.96434
2.96668
2.96906
2.97148
2.97394
2.97645
2.97902
2.98165
2.98433
2.98708
2.9899
2.99277
2.99571
2.99871
3.00177
3.0049
3.00807
3.0113
3.01458
3.0179
3.02126
3.02465
3.02804
3.03144
3.03481
3.03817
3.04149
3.04475
3.04793
3.05101
3.05396
3.05678
3.05942
3.06187
3.06405
3.0659
3.06737
3.06845
3.06912
3.06941
3.06928
3.06854
3.06723
3.06529
3.06264
3.05919
3.05484
3.04942
3.0427
3.03488
3.02346
3.01197
2.99311
1
1
1
1
1
1
1
1
1
1
1
1
1
0.999999
0.999994
0.999886
1.01433
1.2698
2.65747
2.77521
2.78603
2.79586
2.80511
2.81379
2.82199
2.82968
2.83694
2.84376
2.85019
2.85622
2.86187
2.86715
2.8721
2.8767
2.88101
2.88502
2.88877
2.89227
2.89554
2.8986
2.90147
2.90415
2.90666
2.90903
2.91124
2.91344
2.91566
2.91784
2.91999
2.92212
2.92423
2.92632
2.92839
2.93045
2.93251
2.93456
2.93661
2.93866
2.94073
2.9428
2.9449
2.94701
2.94915
2.95132
2.95351
2.95574
2.958
2.96029
2.96263
2.965
2.96742
2.96988
2.97241
2.97499
2.97763
2.98033
2.9831
2.98593
2.98882
2.99179
2.99482
2.99791
3.00107
3.00428
3.00755
3.01087
3.01423
3.01762
3.02102
3.02441
3.02778
3.03113
3.03443
3.03766
3.04081
3.04384
3.04675
3.04951
3.0521
3.05448
3.05658
3.05835
3.05971
3.06066
3.06115
3.06126
3.06086
3.05986
3.05823
3.05594
3.05292
3.04906
3.04426
3.03837
3.03114
3.02273
3.01076
2.99848
2.97852
1
1
1
1
1
1
1
1
1
1
1
1
1
1
0.999992
0.99981
1.01393
1.25256
2.64802
2.77422
2.78494
2.79461
2.80373
2.81229
2.82041
2.82799
2.83515
2.84183
2.84814
2.85402
2.85954
2.86467
2.86947
2.87391
2.87806
2.88189
2.88548
2.88881
2.89191
2.89482
2.89751
2.90005
2.90239
2.90463
2.90669
2.90876
2.91086
2.91292
2.91495
2.91695
2.91892
2.92088
2.92283
2.92477
2.92671
2.92865
2.93059
2.93254
2.9345
2.93648
2.93848
2.94052
2.94257
2.94466
2.94678
2.94894
2.95113
2.95337
2.95565
2.95797
2.96034
2.96276
2.96524
2.96778
2.97039
2.97306
2.97579
2.9786
2.98148
2.98442
2.98744
2.99052
2.99366
2.99687
3.00013
3.00344
3.00678
3.01016
3.01354
3.01692
3.02027
3.0236
3.02688
3.0301
3.03322
3.03623
3.0391
3.04182
3.04435
3.04666
3.04868
3.05035
3.05161
3.05242
3.05273
3.05267
3.052
3.05072
3.04878
3.04613
3.04272
3.03846
3.03321
3.02683
3.01909
3.01006
2.9976
2.98445
2.96362
1
1
1
1
1
1
1
1
1
1
1
1
1
1
1.00003
0.999914
1.0136
1.23431
2.6374
2.77383
2.78448
2.79401
2.80298
2.81138
2.81935
2.82675
2.83377
2.84026
2.84642
2.85212
2.85747
2.86243
2.86705
2.87131
2.87526
2.87894
2.8823
2.88548
2.88838
2.89113
2.89363
2.89602
2.8982
2.90028
2.90221
2.90413
2.90612
2.90806
2.90996
2.91183
2.91368
2.9155
2.91731
2.9191
2.92088
2.92265
2.92443
2.92622
2.92803
2.92987
2.93174
2.93365
2.93559
2.93758
2.93962
2.94171
2.94385
2.94605
2.94829
2.95058
2.95291
2.95531
2.95775
2.96027
2.96285
2.96549
2.96821
2.971
2.97386
2.97679
2.97978
2.98285
2.98597
2.98916
2.9924
2.9957
2.99903
3.0024
3.00577
3.00913
3.01246
3.01575
3.019
3.02218
3.02526
3.02822
3.03104
3.0337
3.03617
3.03841
3.04035
3.04193
3.04307
3.04374
3.04391
3.04363
3.0427
3.04115
3.03888
3.03588
3.03207
3.02739
3.02167
3.0148
3.00652
2.99686
2.98394
2.97009
2.94801
1
1
1
1
1
1
1
1
1
1
1
1
1
1
1.00001
1
1.01298
1.2146
2.62616
2.77425
2.78446
2.7938
2.80258
2.81081
2.81859
2.82582
2.83267
2.839
2.84497
2.85051
2.85566
2.86048
2.86486
2.869
2.8727
2.87623
2.87938
2.88239
2.8851
2.88769
2.89003
2.89227
2.89431
2.89626
2.89807
2.89987
2.90177
2.9036
2.90539
2.90715
2.90888
2.91057
2.91224
2.91389
2.91552
2.91714
2.91877
2.92041
2.92207
2.92375
2.92547
2.92722
2.92901
2.93084
2.93271
2.93463
2.9366
2.93863
2.94074
2.94292
2.94517
2.94748
2.94988
2.95234
2.95487
2.95748
2.96016
2.96291
2.96574
2.96864
2.97162
2.97466
2.97777
2.98095
2.98419
2.98747
2.99081
2.99417
2.99754
3.0009
3.00422
3.00749
3.01071
3.01385
3.01689
3.0198
3.02257
3.02517
3.02756
3.02972
3.03156
3.03304
3.03407
3.03458
3.03464
3.03412
3.03296
3.03112
3.02854
3.02516
3.02095
3.01583
3.00965
3.00227
2.99348
2.98311
2.96983
2.95516
2.93214
1
1
1
1
1
1
1
1
1
1
1
1
1
1
0.999987
0.999949
1.01178
1.19346
2.61499
2.77651
2.78567
2.79453
2.80285
2.8109
2.81845
2.82552
2.83211
2.83834
2.84403
2.84948
2.85436
2.85905
2.86319
2.86716
2.87065
2.87399
2.87695
2.87977
2.88228
2.88467
2.8868
2.88884
2.89068
2.89242
2.89404
2.89564
2.89737
2.89901
2.90063
2.90222
2.90378
2.90532
2.90684
2.90834
2.90984
2.91135
2.91285
2.91437
2.91589
2.91743
2.919
2.9206
2.92223
2.9239
2.92561
2.92737
2.92919
2.93107
2.93302
2.93504
2.93716
2.93935
2.94164
2.94404
2.94653
2.94912
2.95178
2.95452
2.95733
2.96023
2.9632
2.96624
2.96935
2.97251
2.97572
2.97899
2.9823
2.98565
2.989
2.99234
2.99563
2.99888
3.00206
3.00516
3.00815
3.01101
3.01372
3.01625
3.01856
3.02063
3.02236
3.02372
3.02463
3.02499
3.02491
3.02416
3.02276
3.02064
3.01773
3.01399
3.00937
3.0038
2.99714
2.98926
2.97992
2.96891
2.95515
2.93986
2.91559
1
1
1
1
1
1
1
1
1
1
1
1
1
0.999998
0.999998
0.999751
1.01052
1.17211
2.60268
2.77866
2.78677
2.795
2.80281
2.81052
2.81768
2.82457
2.83082
2.83685
2.84223
2.84742
2.85202
2.85645
2.86035
2.86408
2.86737
2.8705
2.87328
2.87592
2.87827
2.88051
2.88252
2.88443
2.88617
2.88779
2.88931
2.89085
2.89252
2.89409
2.89563
2.89714
2.89861
2.90007
2.90151
2.90294
2.90435
2.90575
2.90713
2.90851
2.90989
2.91127
2.91266
2.91407
2.91551
2.91697
2.91851
2.92012
2.9218
2.92357
2.92541
2.92732
2.92931
2.93138
2.93354
2.93578
2.93812
2.94058
2.94314
2.9458
2.94856
2.95141
2.95435
2.95736
2.96044
2.96359
2.96681
2.97008
2.97338
2.97672
2.98007
2.98339
2.98667
2.98989
2.99302
2.99608
2.99902
3.00182
3.00446
3.00691
3.00915
3.01111
3.01274
3.01397
3.01474
3.01497
3.01472
3.01375
3.01212
3.00971
3.00648
3.00236
2.99732
2.99131
2.98416
2.97576
2.96588
2.95426
2.94006
2.92391
2.89878
1
1
1
1
1
1
1
1
1
1
1
1
1
0.999999
1
0.999852
1.0096
1.15266
2.58748
2.77917
2.78647
2.79427
2.80179
2.80934
2.8162
2.82288
2.82885
2.83463
2.83974
2.84465
2.849
2.85316
2.85683
2.86034
2.86343
2.86638
2.86899
2.87145
2.87366
2.87574
2.87762
2.87939
2.88101
2.88251
2.88391
2.88538
2.88698
2.88847
2.88991
2.89133
2.8927
2.89405
2.89537
2.89666
2.89795
2.89923
2.90048
2.90173
2.90297
2.90422
2.90549
2.90678
2.90813
2.90952
2.91098
2.91249
2.91407
2.91572
2.91744
2.91924
2.92111
2.92307
2.92512
2.92725
2.92948
2.93182
2.93429
2.93687
2.93956
2.94236
2.94525
2.94823
2.95128
2.95441
2.95759
2.96083
2.96412
2.96744
2.97077
2.97409
2.97735
2.98054
2.98364
2.98664
2.98953
2.99227
2.99483
2.99721
2.99935
3.00121
3.00271
3.0038
3.00441
3.00454
3.00405
3.00289
3.001
2.99832
2.99476
2.99027
2.98481
2.97835
2.97071
2.9618
2.95137
2.93915
2.92442
2.9076
2.8813
1
1
1
1
1
1
1
1
1
1
1
1
1
1
1
0.999973
1.00743
1.1324
2.56556
2.7768
2.78391
2.79154
2.79883
2.8062
2.81284
2.81927
2.82506
2.83061
2.83553
2.84018
2.84434
2.84826
2.85176
2.85507
2.85803
2.86082
2.86333
2.86569
2.86781
2.86982
2.87163
2.87334
2.87492
2.87636
2.87771
2.8792
2.88085
2.88234
2.88379
2.88517
2.88651
2.8878
2.88906
2.89027
2.89146
2.89264
2.89381
2.89497
2.89615
2.89733
2.89852
2.89971
2.90096
2.90221
2.90351
2.90486
2.90627
2.90774
2.9093
2.91095
2.9127
2.91453
2.91646
2.91848
2.92059
2.92283
2.92519
2.92767
2.93028
2.933
2.93584
2.93877
2.9418
2.94489
2.94805
2.95126
2.95451
2.95781
2.96111
2.96441
2.96765
2.97081
2.97388
2.97684
2.97966
2.98233
2.98482
2.98712
2.98916
2.99091
2.99229
2.99323
2.99367
2.99366
2.99295
2.99158
2.98944
2.98648
2.98259
2.97773
2.97184