/*--------------------------------*- C++ -*----------------------------------*\
| =========                 |                                                 |
| \\      /  F ield         | OpenFOAM: The Open Source CFD Toolbox           |
|  \\    /   O peration     | Version:  2.2.x                                 |
|   \\  /    A nd           | Web:      www.OpenFOAM.org                      |
|    \\/     M anipulation  |                                                 |
\*---------------------------------------------------------------------------*/
FoamFile
{
    version     2.0;
    format      ascii;
    class       volVectorField;
    location    "5";
    object      U;
}
// * * * * * * * * * * * * * * * * * * * * * * * * * * * * * * * * * * * * * //

dimensions      [0 1 -1 0 0 0 0];

internalField   nonuniform List<vector> 
14161
(
(1.5 -1.40323e-17 1.45783e-23)
(1.5 7.48502e-17 -5.03036e-23)
(1.5 -1.00838e-16 -3.31203e-24)
(1.5 -6.19581e-16 -9.43324e-24)
(1.5 -4.86141e-17 5.37766e-23)
(1.5 -2.03731e-17 -1.61538e-22)
(1.5 8.06286e-16 2.16958e-22)
(1.5 4.33992e-14 7.07723e-23)
(1.5 -3.45248e-13 1.35118e-22)
(1.5 -4.43176e-12 3.14543e-24)
(1.5 4.42218e-11 5.93161e-24)
(1.5 1.26301e-09 6.98477e-24)
(1.5 -8.24665e-09 -3.69493e-23)
(1.5 -4.07895e-08 5.14454e-23)
(1.49905 0.00110123 -6.10896e-23)
(1.50708 -0.00244673 -8.88526e-23)
(1.47362 0.000361364 -1.58845e-22)
(1.20754 -6.85612e-05 -8.21069e-22)
(0.560208 0.000773533 -7.22319e-21)
(0.533223 0.00100737 6.68128e-21)
(0.525442 0.00118717 -7.5411e-21)
(0.517603 0.00129202 5.57041e-21)
(0.509816 0.00130591 -6.86479e-21)
(0.502164 0.0012581 5.2546e-21)
(0.494812 0.00117194 -7.11411e-21)
(0.487924 0.00115609 3.23165e-21)
(0.481417 0.00115065 -5.86755e-21)
(0.475169 0.00115154 2.39337e-21)
(0.469146 0.0011529 -5.26221e-21)
(0.463322 0.00116497 1.56955e-21)
(0.457677 0.00116498 -5.0635e-21)
(0.452249 0.00117023 1.73026e-21)
(0.447068 0.00115921 -5.11894e-21)
(0.442146 0.00116312 1.37878e-21)
(0.437467 0.00115613 -4.82832e-21)
(0.433023 0.00117015 9.90301e-22)
(0.428762 0.00117309 -4.83001e-21)
(0.424698 0.00119347 6.50966e-22)
(0.420791 0.00119636 -4.73027e-21)
(0.417071 0.00121482 3.46218e-22)
(0.413516 0.00120972 -4.38176e-21)
(0.410152 0.00122384 1.65179e-22)
(0.40696 0.00121151 -4.15026e-21)
(0.403954 0.00122625 -3.2136e-23)
(0.401108 0.0012089 -3.64616e-21)
(0.398352 0.00123192 -6.56931e-22)
(0.395567 0.00125596 -9.18212e-22)
(0.392775 0.00128452 -1.0559e-21)
(0.38996 0.00131659 1.78645e-21)
(0.387116 0.00135143 8.44058e-22)
(0.384238 0.00138741 1.78316e-21)
(0.381327 0.00142241 2.95037e-21)
(0.378383 0.00145559 4.09268e-21)
(0.375413 0.00148652 4.80602e-21)
(0.37242 0.00151483 3.9553e-21)
(0.369411 0.00154065 4.27559e-21)
(0.366388 0.00156567 3.8396e-21)
(0.363351 0.00159172 3.85728e-21)
(0.360299 0.00162047 3.75277e-21)
(0.357224 0.00165331 3.13581e-21)
(0.35412 0.0016895 3.94188e-21)
(0.350978 0.00172779 2.66212e-21)
(0.347796 0.00176706 3.93176e-21)
(0.34457 0.0018062 -8.76947e-22)
(0.341302 0.00184263 4.83877e-21)
(0.337995 0.00187436 -1.42815e-21)
(0.334658 0.0019003 2.57761e-21)
(0.331296 0.00192225 -1.7936e-21)
(0.327909 0.00194397 2.63957e-21)
(0.324493 0.00196798 -1.48577e-21)
(0.321041 0.00199577 1.43218e-21)
(0.317541 0.00202757 -1.05875e-21)
(0.313985 0.00206226 2.81066e-21)
(0.310365 0.00209788 2.24309e-23)
(0.306677 0.00213167 3.70659e-22)
(0.302925 0.00216111 1.93857e-21)
(0.299112 0.00218502 -1.06427e-21)
(0.295244 0.00220407 2.02655e-21)
(0.291322 0.00222089 -1.26434e-21)
(0.287347 0.00223825 2.0884e-21)
(0.283311 0.00225816 -6.16021e-24)
(0.279207 0.00228103 2.17501e-21)
(0.275029 0.00230561 -1.4992e-21)
(0.270771 0.00233007 2.42331e-21)
(0.266432 0.00235231 -1.62569e-21)
(0.262012 0.00237162 2.67679e-21)
(0.257512 0.0023887 -5.01837e-21)
(0.252931 0.00240557 1.26405e-21)
(0.248261 0.00242506 -3.45318e-21)
(0.243495 0.00244708 -2.24323e-21)
(0.238625 0.00247106 1.10987e-22)
(0.233643 0.00249743 -2.55666e-21)
(0.228544 0.00252474 3.05969e-22)
(0.223322 0.00255422 -6.98177e-21)
(0.21797 0.00258709 5.2637e-21)
(0.212479 0.00262423 -8.23647e-21)
(0.20684 0.0026661 6.51896e-21)
(0.201044 0.00271302 -9.78681e-21)
(0.19508 0.00276632 8.23006e-21)
(0.188935 0.00282714 -1.16285e-20)
(0.182596 0.00289715 6.22049e-21)
(0.176045 0.00297851 -3.44707e-21)
(0.169262 0.00307307 7.51815e-21)
(0.162223 0.00318246 -9.93185e-21)
(0.154906 0.00330856 9.96301e-21)
(0.147285 0.00345222 -1.30005e-20)
(0.139331 0.00361739 2.1102e-20)
(0.131011 0.00380646 -4.05153e-20)
(0.122291 0.00402127 2.62565e-20)
(0.113135 0.00426402 -5.00871e-20)
(0.103509 0.00453716 4.58151e-20)
(0.0933781 0.00484295 -6.84459e-20)
(0.0827085 0.00518224 6.99693e-20)
(0.0714753 0.00555099 -1.17791e-19)
(0.0596628 0.00594876 8.65099e-20)
(0.047292 0.0063544 -1.43799e-19)
(0.0343458 0.00680825 1.99202e-19)
(0.0209354 0.00704691 -5.29115e-19)
(0.00774366 0.00770532 7.5683e-19)
(1.5 -1.31159e-16 1.8863e-23)
(1.5 -4.80575e-17 3.05484e-22)
(1.5 -4.58064e-16 3.30805e-22)
(1.5 -5.67347e-16 6.25763e-23)
(1.5 6.40964e-17 5.26312e-23)
(1.5 3.54198e-16 5.87072e-23)
(1.5 2.37567e-15 2.19684e-23)
(1.5 5.50526e-14 1.38242e-23)
(1.5 -4.79482e-13 9.45007e-23)
(1.5 -1.36633e-11 1.9624e-24)
(1.5 8.66273e-11 4.9389e-23)
(1.5 4.30528e-10 -6.06068e-24)
(1.5 -1.05592e-08 7.81926e-23)
(1.5 -4.37924e-07 -2.62636e-22)
(1.49947 0.00143096 -3.37467e-22)
(1.50216 -0.0028715 -2.28086e-22)
(1.477 0.00125927 -1.83239e-22)
(1.2067 -0.00138767 -1.18344e-21)
(0.559255 0.00194213 -6.97778e-21)
(0.53179 0.00250349 5.82059e-21)
(0.523697 0.00260013 -8.89995e-21)
(0.515752 0.00272711 6.87725e-21)
(0.508043 0.00291679 -1.25709e-20)
(0.500575 0.00304321 5.99385e-21)
(0.493376 0.00299529 -1.25771e-20)
(0.486509 0.00297301 9.24509e-21)
(0.480017 0.00299214 -1.41407e-20)
(0.4738 0.00304818 7.03742e-21)
(0.467828 0.00312122 -1.49661e-20)
(0.462067 0.00323776 5.8206e-21)
(0.45649 0.00330367 -1.35266e-20)
(0.451123 0.00337309 3.63206e-21)
(0.445981 0.00337085 -1.16771e-20)
(0.441083 0.00340501 3.64476e-21)
(0.436414 0.00339538 -1.22793e-20)
(0.431983 0.00345538 3.41967e-21)
(0.427742 0.00348113 -1.17241e-20)
(0.423707 0.00356826 2.32963e-21)
(0.419833 0.0035985 -1.12777e-20)
(0.416149 0.00367732 2.38815e-21)
(0.412624 0.0036766 -1.05797e-20)
(0.409286 0.00373214 1.79421e-21)
(0.40611 0.00370004 -9.82254e-21)
(0.403115 0.00374868 1.62974e-21)
(0.400282 0.00370052 -9.67272e-21)
(0.397508 0.00376349 1.7231e-21)
(0.394701 0.00382787 -1.26918e-20)
(0.391888 0.00390607 6.91498e-21)
(0.389056 0.00399779 -1.50667e-20)
(0.3862 0.00410029 1.5635e-21)
(0.383314 0.00420872 -1.51101e-20)
(0.380397 0.00431557 8.03375e-22)
(0.37745 0.00441699 -2.11419e-20)
(0.374475 0.00451081 -1.49689e-21)
(0.371474 0.00459518 -2.01447e-20)
(0.368454 0.0046706 -5.18475e-22)
(0.365417 0.0047412 -1.33407e-20)
(0.362365 0.00481385 5.59778e-22)
(0.359298 0.00489551 -1.34688e-20)
(0.356212 0.00499066 -2.33316e-21)
(0.3531 0.00509807 -1.79828e-20)
(0.349955 0.00521379 6.78369e-22)
(0.346772 0.00533381 -2.33572e-20)
(0.343547 0.00545407 4.70814e-21)
(0.34028 0.00556522 -1.99413e-20)
(0.336972 0.00566035 -1.02792e-21)
(0.333629 0.00573616 -1.10697e-20)
(0.330259 0.00579849 -5.26698e-22)
(0.326863 0.00585977 -8.8301e-21)
(0.323441 0.00592883 -4.85302e-21)
(0.319987 0.00601121 -9.87527e-21)
(0.316493 0.00610827 -5.77121e-21)
(0.312949 0.00621641 -8.64666e-21)
(0.309345 0.00632887 -6.75661e-21)
(0.305676 0.00643636 -8.51391e-21)
(0.301943 0.00653027 -5.88499e-21)
(0.298147 0.00660646 -8.38516e-21)
(0.294295 0.00666718 -5.81211e-21)
(0.29039 0.00672081 -8.22853e-21)
(0.286433 0.00677599 -5.42338e-21)
(0.282418 0.00683917 -5.46051e-21)
(0.278339 0.00691181 -8.12383e-21)
(0.274188 0.00698987 -5.09368e-21)
(0.269959 0.00706763 -2.3389e-21)
(0.265649 0.00713827 -4.89458e-21)
(0.261259 0.00719954 -8.36059e-21)
(0.256788 0.00725349 5.59032e-21)
(0.252237 0.00730675 -2.24167e-20)
(0.247598 0.0073662 1.46661e-20)
(0.242866 0.00743183 -7.69838e-21)
(0.238031 0.00750295 6.28589e-21)
(0.233089 0.0075802 -8.06511e-21)
(0.228031 0.00766564 8.43951e-21)
(0.222849 0.00775796 -2.48402e-20)
(0.217535 0.00785877 1.2904e-20)
(0.212081 0.00797034 -1.31516e-20)
(0.20648 0.00809525 9.83533e-21)
(0.200723 0.0082347 -1.69591e-20)
(0.194799 0.00839288 6.02325e-21)
(0.188697 0.00857354 -2.39352e-21)
(0.182401 0.00878188 9.50806e-21)
(0.175894 0.00902313 -6.89978e-21)
(0.169155 0.00930327 -1.67283e-20)
(0.162164 0.00962748 -1.07895e-20)
(0.154896 0.0100017 3.59616e-21)
(0.147322 0.0104311 -3.14821e-20)
(0.139413 0.0109266 2.74113e-20)
(0.131139 0.0114934 -3.50245e-20)
(0.122467 0.0121369 7.11664e-20)
(0.113364 0.0128637 -5.94828e-20)
(0.103797 0.0136811 5.69992e-20)
(0.0937338 0.0145957 -5.5176e-20)
(0.083141 0.0156109 7.80786e-20)
(0.0719935 0.0167144 -6.31556e-20)
(0.0602753 0.0179067 3.60379e-20)
(0.047989 0.019132 -2.22787e-20)
(0.0350926 0.0205239 -3.60503e-19)
(0.0216135 0.0213549 3.46445e-20)
(0.00814449 0.0233482 -7.32211e-19)
(1.5 -1.39498e-17 1.71776e-22)
(1.5 -2.2159e-16 -1.60634e-22)
(1.5 -4.02215e-16 -1.65249e-22)
(1.5 -6.913e-17 -1.15973e-22)
(1.5 -2.09948e-16 1.37179e-23)
(1.5 4.1486e-16 -5.22345e-23)
(1.5 5.2595e-16 -5.40798e-23)
(1.5 3.98592e-14 -5.44411e-23)
(1.5 3.79543e-14 7.47347e-23)
(1.5 -1.09939e-11 3.89865e-23)
(1.5 6.92992e-11 2.75438e-22)
(1.5 -7.81853e-10 -3.56014e-22)
(1.5 -1.48769e-08 -2.59018e-22)
(1.5 -4.58673e-07 -9.01473e-23)
(1.49974 0.000691496 7.47276e-23)
(1.50087 -0.00147638 -3.64474e-23)
(1.47761 0.00102288 -5.92928e-23)
(1.20227 -0.00217821 -1.08162e-21)
(0.557123 0.00311882 -6.29106e-21)
(0.529248 0.00409805 6.89404e-21)
(0.52107 0.00431925 -8.3013e-21)
(0.513159 0.00453184 1.27088e-21)
(0.505571 0.00475662 -1.17898e-20)
(0.498306 0.00493506 7.91898e-21)
(0.491279 0.00493755 -2.01966e-20)
(0.484471 0.00496343 2.53619e-21)
(0.477942 0.00497184 -1.87471e-20)
(0.4717 0.00503382 2.28159e-21)
(0.465706 0.00512074 -1.94725e-20)
(0.459951 0.00529034 5.715e-21)
(0.454412 0.00539451 -1.61375e-20)
(0.449089 0.00552235 5.71788e-21)
(0.443985 0.00554221 -1.51353e-20)
(0.439102 0.00561854 4.69604e-21)
(0.434426 0.00560789 -1.28265e-20)
(0.42998 0.00570679 2.77935e-21)
(0.425724 0.00573463 -1.15271e-20)
(0.421687 0.00587218 2.60628e-21)
(0.417826 0.00591603 -1.15209e-20)
(0.414168 0.00605328 2.60726e-21)
(0.410677 0.00606569 -1.11966e-20)
(0.407373 0.00617705 2.64439e-21)
(0.404227 0.00614868 -1.00546e-20)
(0.401255 0.00624322 2.00754e-21)
(0.398447 0.00619405 -9.64653e-21)
(0.395665 0.00629987 2.59732e-21)
(0.392834 0.00641236 -1.35928e-21)
(0.389994 0.00654085 7.58369e-21)
(0.387134 0.00668723 5.71308e-21)
(0.384252 0.00684948 1.01915e-20)
(0.381345 0.00702155 6.04558e-21)
(0.378414 0.00719377 5.31599e-21)
(0.375458 0.00736061 1.22465e-20)
(0.372478 0.00751875 3.45405e-21)
(0.369474 0.00766502 1.20114e-20)
(0.366448 0.00779892 4.21926e-21)
(0.363401 0.00792395 -1.62303e-21)
(0.360334 0.00804946 4.54098e-21)
(0.357247 0.00818621 -1.3358e-20)
(0.35414 0.00834134 1.0222e-20)
(0.351009 0.00851571 -1.48863e-20)
(0.347849 0.00870481 -1.4284e-21)
(0.344656 0.00890183 -1.86612e-21)
(0.341429 0.00910059 -1.17136e-21)
(0.338169 0.00928971 -1.93517e-20)
(0.334876 0.00945979 4.83859e-22)
(0.331545 0.00960395 -2.01405e-20)
(0.328176 0.00972536 2.05002e-21)
(0.324771 0.00983666 -1.66472e-20)
(0.321333 0.00995206 7.67053e-21)
(0.317862 0.0100837 -1.56816e-20)
(0.314356 0.0102379 6.22156e-21)
(0.310808 0.0104123 -1.20656e-20)
(0.307212 0.0105982 1.25378e-20)
(0.303561 0.0107814 -1.8462e-20)
(0.299852 0.010947 1.37123e-20)
(0.296083 0.0110856 -1.0816e-20)
(0.292255 0.0111978 3.96126e-21)
(0.288368 0.011291 -1.15242e-20)
(0.284428 0.0113823 6.61402e-22)
(0.280431 0.0114848 -1.16149e-21)
(0.276375 0.0116035 -8.99593e-21)
(0.272255 0.0117339 -1.41167e-22)
(0.268063 0.0118671 -1.16276e-20)
(0.263795 0.0119901 1.3509e-20)
(0.259447 0.0120973 -2.78012e-20)
(0.255019 0.0121904 5.33386e-21)
(0.250508 0.012281 -2.06443e-20)
(0.24591 0.0123805 -1.68587e-20)
(0.241219 0.0124894 -1.68522e-20)
(0.236428 0.0126082 -1.69896e-20)
(0.23153 0.0127374 -3.28929e-20)
(0.226518 0.0128784 3.69975e-21)
(0.221385 0.0130327 -5.15466e-20)
(0.216123 0.0132038 3.84783e-20)
(0.210725 0.0133933 -7.54488e-20)
(0.205181 0.0136044 4.27612e-20)
(0.199483 0.0138391 -6.55373e-20)
(0.193622 0.0141047 4.63955e-20)
(0.187584 0.0144077 -8.00867e-20)
(0.181354 0.0147569 6.25233e-20)
(0.174915 0.0151582 -6.46465e-20)
(0.168249 0.0156229 7.89569e-20)
(0.161335 0.0161601 -6.62648e-20)
(0.154149 0.0167801 9.04592e-20)
(0.146662 0.0174943 -8.27139e-20)
(0.138844 0.0183167 9.59458e-20)
(0.130667 0.0192548 -6.57328e-20)
(0.122098 0.0203189 4.5847e-20)
(0.113106 0.0215198 5.79068e-20)
(0.103661 0.0228695 4.1181e-20)
(0.0937323 0.0243794 2.39006e-19)
(0.0832905 0.0260555 -1.04715e-19)
(0.0723106 0.0278774 4.45815e-19)
(0.0607808 0.0298486 -1.82832e-19)
(0.0486879 0.0318846 5.17015e-19)
(0.0360633 0.0342105 5.44315e-19)
(0.022556 0.0360094 -4.34629e-19)
(0.00899401 0.0392131 5.93242e-19)
(1.5 2.21287e-16 -1.73114e-22)
(1.5 -2.26698e-16 4.33414e-23)
(1.5 -1.39955e-16 1.9125e-22)
(1.5 -2.20158e-16 3.15905e-22)
(1.5 -1.83031e-16 -8.41145e-23)
(1.5 -3.26275e-16 -2.99407e-22)
(1.5 -4.26708e-16 -1.79409e-22)
(1.5 2.31147e-14 -1.64903e-22)
(1.5 1.60369e-13 -9.85319e-23)
(1.5 -6.744e-12 -1.61904e-22)
(1.5 8.37423e-11 -4.97637e-22)
(1.5 1.77197e-10 -7.71093e-22)
(1.5 -1.15628e-08 -7.0282e-22)
(1.5 -3.30484e-07 -6.68131e-22)
(1.49983 0.00038214 8.6335e-23)
(1.50043 -0.000737622 1.41952e-22)
(1.47806 0.000455103 -4.31844e-23)
(1.19744 0.000262887 -1.82018e-21)
(0.555068 0.00490777 -1.67066e-20)
(0.527117 0.00581215 1.03218e-20)
(0.518944 0.00603867 -3.07775e-21)
(0.511053 0.0062647 1.21411e-20)
(0.503472 0.00651748 -7.5316e-22)
(0.496232 0.00674505 6.73995e-21)
(0.489236 0.00683437 5.51558e-21)
(0.482455 0.00696932 2.3219e-21)
(0.475932 0.00701476 -3.6021e-21)
(0.46967 0.00713924 1.05474e-20)
(0.463639 0.00726492 6.21851e-21)
(0.457858 0.00749731 3.94675e-21)
(0.452317 0.00763622 -4.33216e-21)
(0.447007 0.00782723 3.10619e-21)
(0.44192 0.00788049 -3.86233e-21)
(0.43705 0.00802164 2.18117e-21)
(0.432376 0.00803372 -3.42125e-21)
(0.427922 0.00819116 2.86728e-21)
(0.423651 0.00822962 -3.2405e-21)
(0.419604 0.00841927 1.05333e-21)
(0.415739 0.0084678 -9.27493e-22)
(0.412089 0.00865563 2.25078e-22)
(0.408612 0.00867351 -9.79731e-22)
(0.405328 0.00883626 -3.77457e-22)
(0.402197 0.00881853 -9.58975e-22)
(0.399235 0.00895924 1.81027e-22)
(0.396431 0.0089239 -1.81411e-21)
(0.393636 0.00906663 -1.32164e-21)
(0.390788 0.00923224 -8.68791e-21)
(0.387925 0.00941361 -8.10985e-22)
(0.385039 0.00961291 -2.47152e-20)
(0.382134 0.009829 -7.12452e-22)
(0.37921 0.0100555 -2.30069e-20)
(0.376268 0.0102831 -4.90883e-21)
(0.373309 0.0105065 -1.67252e-20)
(0.370332 0.0107231 -1.12144e-20)
(0.367335 0.0109299 -7.74448e-21)
(0.364316 0.0111257 -1.46811e-20)
(0.361271 0.0113128 1.3926e-20)
(0.358198 0.0115002 -7.79727e-21)
(0.355097 0.0116982 1.91392e-20)
(0.351969 0.0119137 -5.22344e-21)
(0.348814 0.0121488 2.45231e-20)
(0.345633 0.0124013 5.25659e-21)
(0.342426 0.0126635 3.32903e-20)
(0.339193 0.0129263 -1.00275e-21)
(0.335932 0.0131786 5.53345e-20)
(0.332638 0.0134127 -5.01347e-21)
(0.329309 0.0136241 6.59577e-20)
(0.325939 0.013814 -9.93448e-21)
(0.322525 0.0139883 6.47079e-20)
(0.319065 0.0141598 -1.06958e-20)
(0.31556 0.0143414 4.59774e-20)
(0.312011 0.0145414 -1.23796e-20)
(0.308421 0.0147599 4.84741e-20)
(0.304792 0.0149917 -6.80306e-21)
(0.301125 0.0152249 4.11747e-20)
(0.297415 0.0154447 -1.04042e-20)
(0.293657 0.0156404 4.37886e-20)
(0.289846 0.0158101 -1.34657e-20)
(0.285977 0.015961 4.63797e-20)
(0.282044 0.0161054 -1.63835e-20)
(0.278048 0.0162557 4.1557e-20)
(0.273989 0.0164182 -2.10837e-20)
(0.269869 0.0165904 4.44238e-20)
(0.265688 0.016767 -2.63876e-20)
(0.261443 0.0169348 4.48342e-20)
(0.257132 0.0170891 -2.74709e-20)
(0.252747 0.0172296 6.57636e-20)
(0.24828 0.0173683 -5.30928e-20)
(0.243724 0.0175163 6.20943e-20)
(0.239072 0.0176728 -3.22709e-21)
(0.234316 0.0178418 3.86787e-20)
(0.229451 0.0180226 2.86499e-20)
(0.224473 0.0182177 2.09877e-20)
(0.219375 0.0184295 -1.07129e-20)
(0.21415 0.0186622 1.39636e-20)
(0.208789 0.0189191 -3.73959e-20)
(0.203285 0.0192047 -3.75029e-20)
(0.197629 0.0195221 -3.37794e-20)
(0.191811 0.0198818 -6.29265e-20)
(0.18582 0.0202943 -2.76485e-20)
(0.179644 0.0207737 -1.06285e-19)
(0.17326 0.0213333 -1.43857e-20)
(0.16665 0.0219769 -1.62001e-19)
(0.159799 0.0227207 1.14432e-20)
(0.152687 0.0235802 -2.44337e-19)
(0.145293 0.0245753 4.73039e-20)
(0.137591 0.0257175 -3.22589e-19)
(0.12955 0.02702 1.32026e-19)
(0.12114 0.0284971 -4.41833e-19)
(0.11233 0.0301623 1.27971e-19)
(0.103091 0.0320324 -3.99342e-19)
(0.0933908 0.0341228 5.72912e-21)
(0.0831969 0.0364444 -2.15833e-19)
(0.0724751 0.0389681 -3.17785e-19)
(0.0612093 0.0417046 1.94764e-19)
(0.0493562 0.0445448 -7.03322e-19)
(0.0369954 0.0477711 5.79846e-19)
(0.0236399 0.0507013 3.55161e-19)
(0.0101208 0.0552097 -8.18693e-19)
(1.5 -1.42968e-16 -1.43814e-22)
(1.5 -5.50816e-16 3.40342e-22)
(1.5 -1.29804e-16 -4.46264e-22)
(1.5 -2.80963e-16 5.82888e-22)
(1.5 -4.64039e-16 3.75381e-22)
(1.5 -9.10263e-16 1.1559e-21)
(1.5 8.67727e-16 6.55396e-22)
(1.5 5.48076e-15 -2.25519e-22)
(1.5 3.51973e-14 2.4143e-22)
(1.5 -6.93834e-12 -1.20871e-22)
(1.5 1.2685e-10 -1.60148e-21)
(1.5 1.73103e-09 3.02587e-22)
(1.5 4.17143e-10 4.69243e-24)
(1.5 7.49682e-08 -2.41223e-22)
(1.49992 0.000149519 -1.04434e-21)
(1.50026 -0.000145927 -1.03122e-21)
(1.47819 -0.000177289 1.48444e-22)
(1.19652 0.00354204 1.51425e-21)
(0.55501 0.00755188 1.31123e-20)
(0.526785 0.00827068 -1.00573e-20)
(0.518426 0.0084789 -1.07267e-20)
(0.510375 0.00871186 -6.5769e-21)
(0.502669 0.00892223 -1.03562e-20)
(0.495316 0.00914625 -1.33137e-20)
(0.488247 0.00926547 -1.02072e-20)
(0.481431 0.00944144 -2.4355e-21)
(0.474878 0.00950358 -4.88643e-21)
(0.468569 0.00968349 -4.98427e-21)
(0.462481 0.00983083 -1.20004e-20)
(0.45665 0.0101026 3.78271e-21)
(0.45107 0.0102528 1.9859e-21)
(0.445737 0.0104896 4.11778e-21)
(0.440632 0.0105626 -6.63484e-22)
(0.435752 0.0107608 8.00033e-21)
(0.431065 0.010796 -6.8732e-21)
(0.426597 0.011012 6.63159e-21)
(0.422308 0.0110631 -4.6893e-22)
(0.418244 0.0113017 4.4769e-21)
(0.414361 0.0113496 -3.58095e-21)
(0.410696 0.0115799 7.1463e-21)
(0.407203 0.0115951 -4.97024e-21)
(0.403906 0.0118032 6.03387e-21)
(0.40076 0.0117911 -2.84299e-21)
(0.397785 0.0119814 7.5435e-21)
(0.394954 0.0119624 -6.42889e-21)
(0.392149 0.0121555 7.44286e-21)
(0.389304 0.0123864 -4.0206e-22)
(0.386439 0.0126317 9.52831e-21)
(0.383552 0.0128928 6.03517e-21)
(0.380646 0.0131675 -5.95265e-21)
(0.377723 0.013449 6.29212e-21)
(0.374785 0.0137295 -2.06295e-21)
(0.371833 0.0140058 1.7694e-20)
(0.368864 0.014277 4.80069e-21)
(0.365876 0.0145417 9.69945e-21)
(0.362866 0.0148001 4.02128e-21)
(0.359828 0.0150545 1.4467e-21)
(0.35676 0.0153137 3.93848e-21)
(0.353661 0.0155856 8.7228e-21)
(0.350531 0.0158738 3.4407e-21)
(0.347371 0.0161777 5.22576e-22)
(0.344183 0.0164937 -4.34879e-21)
(0.340968 0.016814 8.63334e-21)
(0.337727 0.0171326 -1.25419e-20)
(0.334457 0.0174419 1.09654e-21)
(0.331155 0.0177358 -1.12035e-20)
(0.327815 0.0180104 -7.06708e-21)
(0.324433 0.0182662 -8.34102e-21)
(0.321003 0.018509 -7.69706e-21)
(0.317522 0.0187495 -4.43851e-22)
(0.31399 0.0189971 -1.33533e-20)
(0.310406 0.0192546 1.74408e-20)
(0.306775 0.0195202 -2.55776e-20)
(0.3031 0.0197885 3.48518e-20)
(0.299383 0.0200508 -1.20784e-20)
(0.295623 0.0202976 2.57934e-20)
(0.291817 0.020523 -1.68626e-20)
(0.28796 0.0207269 1.7316e-20)
(0.284045 0.0209165 2.10585e-20)
(0.28007 0.0211031 1.29227e-20)
(0.276032 0.0212956 1.23984e-20)
(0.271933 0.0214957 2.36962e-21)
(0.267773 0.0216985 1.75951e-20)
(0.263555 0.0218997 4.55233e-20)
(0.259277 0.0220888 -3.35656e-20)
(0.254937 0.0222658 7.04161e-20)
(0.250527 0.0224335 -5.95816e-20)
(0.246041 0.0226064 1.1272e-19)
(0.241471 0.0227935 -8.2124e-20)
(0.236809 0.0229928 1.35611e-19)
(0.23205 0.0232093 -8.54054e-20)
(0.22719 0.0234393 1.46159e-19)
(0.222222 0.023687 -3.56183e-20)
(0.217143 0.0239566 1.70513e-19)
(0.211944 0.0242531 -2.38102e-20)
(0.20662 0.0245808 1.90311e-19)
(0.20116 0.0249448 7.58389e-21)
(0.195555 0.0253485 2.01867e-19)
(0.189791 0.0258043 1.46965e-20)
(0.183856 0.0263246 2.15653e-19)
(0.177734 0.0269253 -1.90283e-20)
(0.171412 0.0276295 2.29995e-19)
(0.164869 0.0284426 8.82101e-21)
(0.158089 0.0293789 2.3629e-19)
(0.15105 0.0304591 -2.64608e-21)
(0.143734 0.0317075 2.4438e-19)
(0.136115 0.0331426 -3.44931e-20)
(0.128168 0.0347819 2.18458e-19)
(0.119865 0.0366441 4.12448e-20)
(0.11118 0.0387469 -1.2769e-19)
(0.102088 0.0411135 1.62066e-19)
(0.0925583 0.0437645 -3.80861e-19)
(0.082562 0.0467185 3.62888e-19)
(0.0720617 0.0499376 -4.15909e-19)
(0.0610507 0.0534416 1.92782e-19)
(0.0494695 0.057096 8.01438e-20)
(0.0374576 0.0612121 -6.60342e-19)
(0.0244618 0.0653777 -8.39264e-20)
(0.0115233 0.0710494 5.69868e-19)
(1.5 -1.69667e-16 3.01047e-22)
(1.5 -3.05759e-16 9.8977e-23)
(1.5 7.15143e-18 4.74474e-22)
(1.5 3.47521e-17 -5.44471e-22)
(1.5 -6.90933e-16 -9.35379e-22)
(1.5 -1.68829e-15 -2.48382e-21)
(1.5 1.63951e-15 -1.86681e-21)
(1.5 1.33586e-14 -4.35195e-22)
(1.5 1.47151e-13 -2.29758e-21)
(1.5 -1.34362e-11 -1.79655e-21)
(1.5 4.09654e-11 -4.42848e-22)
(1.5 6.6816e-09 -2.62402e-21)
(1.5 2.49221e-08 -3.28151e-21)
(1.5 1.21689e-06 -1.53726e-21)
(1.49995 0.000102302 -1.67248e-21)
(1.50027 7.23166e-05 -1.08555e-21)
(1.47797 -0.000553687 -3.8083e-21)
(1.19841 0.00562749 2.84647e-21)
(0.556491 0.00968777 1.58046e-20)
(0.528086 0.0104086 -3.88048e-20)
(0.519475 0.0107588 9.53365e-21)
(0.51121 0.0111269 -4.18583e-20)
(0.503344 0.0113976 1.6594e-20)
(0.495852 0.0116878 -3.25321e-20)
(0.488683 0.0118731 2.04001e-20)
(0.481801 0.0121166 -2.54707e-20)
(0.475173 0.012228 3.20203e-20)
(0.468788 0.012484 -2.60803e-20)
(0.462631 0.012668 3.10781e-20)
(0.456744 0.0129952 -3.32541e-20)
(0.451114 0.0131664 2.61805e-20)
(0.445744 0.0134591 -3.58383e-20)
(0.440608 0.0135593 2.16569e-20)
(0.435706 0.0138225 -3.65576e-20)
(0.430995 0.0138912 2.07441e-20)
(0.426507 0.0141717 -3.68141e-20)
(0.422195 0.0142435 2.24029e-20)
(0.418108 0.014535 -3.66896e-20)
(0.414199 0.0145896 2.3392e-20)
(0.410506 0.0148661 -3.81646e-20)
(0.406978 0.014887 2.20282e-20)
(0.403647 0.0151456 -3.85865e-20)
(0.400462 0.0151442 2.1986e-20)
(0.397454 0.0153914 -3.44119e-20)
(0.394571 0.0153902 1.84644e-20)
(0.391767 0.0156431 -3.10801e-20)
(0.388933 0.0159335 6.19467e-21)
(0.386082 0.0162384 -2.15242e-20)
(0.383213 0.0165566 2.15917e-20)
(0.380329 0.0168852 -9.09726e-21)
(0.37743 0.0172184 2.56561e-20)
(0.374518 0.0175496 -1.50547e-20)
(0.371589 0.0178774 4.18263e-21)
(0.368641 0.0182027 -1.88014e-21)
(0.36567 0.0185252 -1.78881e-20)
(0.362672 0.0188456 -1.64478e-21)
(0.359642 0.0191666 -2.57967e-20)
(0.35658 0.019496 -8.428e-21)
(0.353484 0.0198388 -2.56191e-20)
(0.350356 0.0201957 -3.35492e-22)
(0.347195 0.0205644 -1.85292e-20)
(0.344006 0.0209405 -7.60954e-21)
(0.340787 0.0213166 -4.17473e-20)
(0.337539 0.0216887 1.49878e-21)
(0.33426 0.0220522 -4.35084e-20)
(0.330946 0.022404 -4.46383e-21)
(0.327591 0.0227406 -4.5859e-20)
(0.324189 0.0230622 -2.07505e-21)
(0.320734 0.0233745 -4.88733e-20)
(0.317223 0.0236848 1.35448e-20)
(0.313656 0.0239995 -7.35418e-20)
(0.310032 0.0243141 4.03972e-20)
(0.306354 0.0246275 -9.84791e-20)
(0.302624 0.0249346 3.26302e-20)
(0.298844 0.02523 -8.67519e-20)
(0.295012 0.0255073 4.05276e-20)
(0.291126 0.0257632 -8.8122e-20)
(0.28718 0.026 4.50836e-20)
(0.28317 0.0262242 -1.05503e-19)
(0.279094 0.0264445 3.57737e-20)
(0.274953 0.0266676 -8.47768e-20)
(0.270749 0.0268922 4.96168e-20)
(0.266484 0.0271129 -8.46544e-20)
(0.26216 0.0273266 3.38374e-20)
(0.257778 0.0275267 -4.60445e-20)
(0.253333 0.0277174 5.20302e-20)
(0.248822 0.0279038 -3.05996e-20)
(0.244237 0.0281003 5.09615e-20)
(0.23957 0.0283138 -2.45957e-20)
(0.234817 0.0285442 9.85658e-21)
(0.229973 0.0287891 -2.81536e-20)
(0.225036 0.0290465 -5.70462e-20)
(0.220002 0.0293244 -5.22824e-20)
(0.214866 0.0296292 -9.86203e-20)
(0.209623 0.0299656 -1.04197e-20)
(0.204268 0.0303418 -1.406e-19)
(0.198796 0.0307639 -2.03938e-21)
(0.193195 0.0312393 -1.73126e-19)
(0.187458 0.031782 2.93841e-20)
(0.181571 0.0324084 -1.54462e-19)
(0.175521 0.0331348 -4.19675e-22)
(0.169292 0.0339861 -6.11634e-20)
(0.162865 0.0349688 -2.62343e-20)
(0.156218 0.0361002 -7.89481e-20)
(0.14933 0.0374043 2.95668e-20)
(0.142178 0.0389087 -2.1034e-19)
(0.134736 0.0406378 2.34106e-19)
(0.126976 0.0426105 -3.3664e-19)
(0.118873 0.0448497 4.65558e-19)
(0.110398 0.0473763 -3.0124e-19)
(0.101528 0.0502214 4.21417e-19)
(0.0922322 0.0534097 -9.2695e-20)
(0.0824855 0.0569708 -2.42382e-19)
(0.0722455 0.0608556 2.86523e-19)
(0.0615166 0.0650959 -5.94894e-19)
(0.0502305 0.0695265 -4.14746e-19)
(0.038514 0.0744678 8.11371e-19)
(0.0258635 0.0799095 -1.017e-19)
(0.0134196 0.086377 -8.61056e-19)
(1.5 6.03297e-19 1.02917e-21)
(1.5 2.3969e-16 7.38123e-22)
(1.5 1.1327e-16 5.49081e-22)
(1.5 -6.10666e-17 -1.21e-21)
(1.5 -3.08456e-16 2.30896e-21)
(1.5 -3.56608e-16 2.53204e-21)
(1.5 3.30284e-15 6.02292e-22)
(1.5 -1.25614e-14 1.96023e-21)
(1.5 -1.52038e-13 -2.09533e-22)
(1.5 -1.20679e-11 -4.17295e-22)
(1.5 1.23497e-10 -4.37952e-22)
(1.5 1.19838e-09 5.32703e-22)
(1.5 1.5341e-08 1.65851e-21)
(1.5 -2.34798e-07 -1.28659e-21)
(1.49996 5.29937e-05 -3.02457e-21)
(1.50024 3.92009e-05 -1.32665e-21)
(1.47764 -0.000154251 8.98978e-22)
(1.20001 0.00708388 -3.36847e-21)
(0.557456 0.0119704 -2.14047e-20)
(0.529086 0.0127551 1.55641e-20)
(0.520606 0.0130842 3.77398e-21)
(0.512511 0.013429 1.5438e-20)
(0.504763 0.0136722 7.10576e-22)
(0.497335 0.0139931 1.24889e-20)
(0.490175 0.0142542 -3.74325e-21)
(0.483271 0.0146014 -2.12684e-20)
(0.476582 0.0148088 -8.17889e-21)
(0.470131 0.0151781 -2.25833e-20)
(0.463917 0.0154112 -2.88517e-21)
(0.457991 0.015813 -3.47808e-20)
(0.452327 0.0160227 -2.22929e-20)
(0.446943 0.0163871 -3.00356e-20)
(0.441791 0.0165306 -2.00908e-20)
(0.436881 0.0168751 -2.4167e-20)
(0.432158 0.016994 -1.97081e-20)
(0.427658 0.0173527 -2.12702e-20)
(0.423327 0.0174612 -1.73639e-20)
(0.419218 0.0178194 -1.41298e-20)
(0.415274 0.0179 -1.5687e-20)
(0.411543 0.0182402 -5.27477e-21)
(0.407966 0.0182896 -1.27505e-20)
(0.404592 0.0186164 -2.35062e-21)
(0.401362 0.0186392 -1.8111e-20)
(0.398319 0.0189606 -1.74045e-22)
(0.395397 0.0189777 -2.03414e-20)
(0.392602 0.0192969 1.59103e-21)
(0.389794 0.0196422 -1.87893e-20)
(0.38697 0.019999 -1.36945e-20)
(0.384132 0.020366 -3.68914e-20)
(0.381281 0.0207404 -2.14558e-20)
(0.378416 0.0211182 -4.83231e-20)
(0.375534 0.0214957 -2.03487e-20)
(0.372632 0.0218734 -5.25619e-20)
(0.369706 0.0222537 -1.12922e-20)
(0.366752 0.0226376 -3.55966e-20)
(0.363766 0.0230248 -1.72304e-20)
(0.360743 0.0234182 -3.97737e-20)
(0.357683 0.0238225 1.22457e-20)
(0.354586 0.0242394 -4.7982e-20)
(0.351454 0.0246676 6.80408e-21)
(0.348289 0.0251028 -4.98945e-20)
(0.345091 0.0255403 8.35656e-21)
(0.341862 0.0259753 -3.07698e-20)
(0.338601 0.0264034 2.37602e-20)
(0.335304 0.0268221 -3.31842e-20)
(0.331969 0.0272338 4.09962e-20)
(0.328588 0.0276367 -4.42469e-20)
(0.325154 0.0280302 4.49887e-20)
(0.321663 0.0284197 -4.90728e-20)
(0.318109 0.0288076 4.59786e-20)
(0.314493 0.0291951 -5.53309e-20)
(0.310816 0.0295786 4.38661e-20)
(0.307079 0.0299541 -5.94878e-20)
(0.303282 0.0303161 2.91364e-20)
(0.299428 0.0306615 -4.6735e-20)
(0.295516 0.0309873 2.82264e-20)
(0.291543 0.0312924 -5.05007e-20)
(0.287506 0.0315799 3.28675e-20)
(0.283401 0.031855 -5.0533e-20)
(0.279229 0.0321229 2.09262e-20)
(0.27499 0.0323881 -5.78569e-20)
(0.270685 0.0326468 1.89984e-20)
(0.266315 0.0328936 -5.65624e-20)
(0.261882 0.0331271 1.1839e-20)
(0.257382 0.0333442 -5.30076e-20)
(0.252813 0.0335518 7.21528e-20)
(0.24817 0.0337575 -6.39973e-21)
(0.243447 0.0339748 1.98263e-20)
(0.23864 0.0342077 7.68001e-20)
(0.233746 0.0344565 -3.90604e-20)
(0.228763 0.034718 2.00099e-19)
(0.223688 0.0349939 -4.0941e-20)
(0.21852 0.0352914 2.16619e-19)
(0.213254 0.035618 -6.00547e-20)
(0.207887 0.0359778 1.80834e-19)
(0.202415 0.0363804 -6.55114e-20)
(0.196835 0.0368328 1.25544e-19)
(0.191139 0.0373467 1.03925e-19)
(0.185319 0.0379368 1.53766e-20)
(0.179366 0.0386255 6.38934e-20)
(0.173268 0.0394319 2.32221e-20)
(0.167015 0.0403844 -2.06813e-20)
(0.160594 0.0414965 6.47714e-20)
(0.153986 0.0427887 -2.14225e-20)
(0.147171 0.0442889 6.34074e-20)
(0.140128 0.0460274 -4.93936e-21)
(0.132831 0.0480345 -6.54819e-20)
(0.125252 0.0503287 2.86307e-20)
(0.11736 0.0529383 -5.2334e-20)
(0.109124 0.0558856 1.0114e-19)
(0.100517 0.0592099 -3.73223e-19)
(0.0915051 0.0629375 4.64352e-19)
(0.0820685 0.0671119 -9.89987e-20)
(0.0721544 0.0716665 6.48581e-21)
(0.0617837 0.07665 8.2835e-19)
(0.0508824 0.0818467 -2.36881e-19)
(0.0394385 0.0876305 -1.3424e-18)
(0.0274765 0.0943777 5.12026e-19)
(0.0155659 0.101345 8.84545e-19)
(1.5 -1.05653e-16 -1.62264e-21)
(1.5 1.74387e-16 -1.59165e-21)
(1.5 3.42193e-17 -1.31994e-21)
(1.5 -1.95259e-16 -2.88728e-21)
(1.5 -2.27944e-16 -3.58558e-21)
(1.5 3.33497e-16 -2.86521e-21)
(1.5 1.61176e-15 -1.13196e-21)
(1.5 -4.29318e-14 -2.91481e-21)
(1.5 -1.96995e-13 -1.79869e-21)
(1.5 1.22287e-11 -1.63705e-21)
(1.5 -6.75683e-12 -6.27097e-22)
(1.5 -5.34718e-09 1.30516e-23)
(1.5 2.15492e-09 2.56964e-21)
(1.5 -1.39241e-06 6.86016e-21)
(1.49998 2.75235e-05 8.40855e-21)
(1.50028 -4.60695e-05 7.47011e-21)
(1.47759 0.000193878 9.56151e-21)
(1.20111 0.00834928 -1.28695e-21)
(0.558042 0.0143075 -5.99943e-20)
(0.529686 0.0151828 8.65373e-20)
(0.521281 0.0155767 -1.75904e-20)
(0.513278 0.0159714 3.898e-20)
(0.505612 0.0162478 -4.26245e-20)
(0.498261 0.016647 4.24789e-20)
(0.491177 0.0169617 -2.96205e-20)
(0.484354 0.0173814 8.64917e-20)
(0.477731 0.0176424 -4.32285e-20)
(0.47133 0.01809 8.16003e-20)
(0.465127 0.0183582 -4.99919e-20)
(0.459193 0.0188153 9.72861e-20)
(0.453506 0.0190498 -4.02003e-20)
(0.448106 0.0194723 9.77165e-20)
(0.442942 0.0196545 -4.29396e-20)
(0.438036 0.0200627 9.41422e-20)
(0.433316 0.0202206 -4.14084e-20)
(0.428836 0.0206473 8.44824e-20)
(0.424521 0.0207932 -4.81424e-20)
(0.420437 0.0212156 8.28758e-20)
(0.416512 0.0213311 -5.68418e-20)
(0.412808 0.0217339 8.12184e-20)