/*--------------------------------*- C++ -*----------------------------------*\
| =========                 |                                                 |
| \\      /  F ield         | OpenFOAM: The Open Source CFD Toolbox           |
|  \\    /   O peration     | Version:  2.2.x                                 |
|   \\  /    A nd           | Web:      www.OpenFOAM.org                      |
|    \\/     M anipulation  |                                                 |
\*---------------------------------------------------------------------------*/
FoamFile
{
    version     2.0;
    format      ascii;
    class       volScalarField;
    location    "1.4";
    object      Bx;
}
// * * * * * * * * * * * * * * * * * * * * * * * * * * * * * * * * * * * * * //

dimensions      [1 0 -2 0 0 -1 0];

internalField   nonuniform List<scalar> 
14161
(
1.00018
1.00016
1.00018
1.00021
1.00026
1.00033
1.00041
1.00052
1.00066
1.00082
1.00102
1.00125
1.00153
1.00185
1.00222
1.00263
1.00309
1.00361
1.00416
1.00474
1.0054
1.00603
1.0067
1.00738
1.00798
1.0086
1.00903
1.00929
1.00951
1.0096
1.00951
1.00921
1.00865
1.00777
1.00656
1.00493
1.00287
1.0003
0.997217
0.9936
0.989416
0.984813
0.979937
0.974999
0.969855
0.96548
0.954555
0.925758
0.904754
0.895007
0.897636
0.908975
0.924105
0.944453
0.965863
0.986721
1.00604
1.02342
1.03917
1.05469
1.06997
1.08288
1.09251
1.09956
1.10724
1.11658
1.12541
1.1324
1.13881
1.14507
1.15083
1.15735
1.1652
1.17318
1.18062
1.1873
1.19307
1.19999
1.20899
1.21858
1.22779
1.23653
1.24415
1.25087
1.25741
1.26593
1.27714
1.28943
1.30097
1.3111
1.32044
1.32884
1.33692
1.34663
1.35692
1.36755
1.38001
1.39095
1.39924
1.40643
1.41365
1.42212
1.43108
1.43466
1.42114
1.37951
1.27667
1.12582
0.971461
0.833955
0.719605
0.623425
0.538996
0.461871
0.385655
0.308378
0.221413
0.135412
0.0424324
1.00018
1.00016
1.00018
1.00021
1.00026
1.00033
1.00041
1.00052
1.00066
1.00082
1.00102
1.00125
1.00153
1.00185
1.00222
1.00263
1.00309
1.00361
1.00416
1.00474
1.0054
1.00605
1.00671
1.0074
1.00799
1.00859
1.00905
1.00932
1.00953
1.00962
1.00956
1.00927
1.00873
1.00787
1.00667
1.00508
1.00306
1.00052
0.997486
0.993872
0.989718
0.98508
0.980068
0.974856
0.969142
0.962989
0.951137
0.917396
0.899655
0.891783
0.897325
0.911728
0.928621
0.947394
0.968229
0.988052
1.00707
1.0239
1.03996
1.05519
1.06947
1.08187
1.09236
1.10189
1.11124
1.12014
1.12815
1.13467
1.14009
1.14618
1.15282
1.15999
1.16752
1.17486
1.18181
1.18912
1.19625
1.203
1.21056
1.2189
1.22753
1.23716
1.2471
1.25558
1.26358
1.27231
1.28137
1.29076
1.30089
1.31254
1.32323
1.33277
1.34176
1.35054
1.35988
1.36922
1.37962
1.38895
1.39797
1.40579
1.41272
1.41842
1.4168
1.3977
1.35305
1.26736
1.13878
0.993496
0.86592
0.756738
0.659624
0.573484
0.495172
0.420145
0.344097
0.26617
0.185839
0.115099
0.0433288
1.00018
1.00016
1.00018
1.00021
1.00026
1.00033
1.00041
1.00052
1.00066
1.00082
1.00102
1.00125
1.00153
1.00185
1.00222
1.00263
1.00309
1.00361
1.00416
1.00475
1.00539
1.00606
1.00671
1.00741
1.00802
1.00858
1.00908
1.00942
1.0096
1.00969
1.00967
1.00944
1.00896
1.00815
1.007
1.00549
1.00355
1.00113
0.998205
0.99472
0.99071
0.986149
0.981105
0.975879
0.969885
0.964069
0.948432
0.912091
0.894113
0.889574
0.894393
0.912789
0.934019
0.955294
0.977911
0.99917
1.01875
1.03668
1.05284
1.06814
1.08163
1.0937
1.10489
1.11507
1.12417
1.13198
1.13889
1.14591
1.1527
1.15913
1.16552
1.17151
1.17753
1.18411
1.19102
1.19901
1.20709
1.21421
1.22117
1.22886
1.23689
1.24511
1.25306
1.26196
1.27148
1.28248
1.29251
1.30149
1.30968
1.31838
1.32756
1.33702
1.34705
1.35766
1.36794
1.37723
1.38582
1.39114
1.39562
1.40098
1.40301
1.39303
1.36757
1.30858
1.19574
1.05086
0.902973
0.795051
0.70785
0.632044
0.560003
0.49156
0.425577
0.360217
0.294624
0.228704
0.160316
0.101525
0.0420998
1.00018
1.00016
1.00018
1.00021
1.00026
1.00033
1.00041
1.00052
1.00066
1.00082
1.00102
1.00125
1.00153
1.00185
1.00222
1.00263
1.00309
1.0036
1.00417
1.00476
1.00539
1.00607
1.00672
1.00741
1.00807
1.0086
1.00912
1.00956
1.00973
1.00984
1.00985
1.0097
1.0093
1.00861
1.00757
1.00617
1.0044
1.00218
0.999475
0.996208
0.992392
0.98799
0.98292
0.977403
0.970846
0.966922
0.949841
0.914325
0.898477
0.891565
0.900629
0.918583
0.941166
0.96566
0.991378
1.01421
1.03515
1.05457
1.07219
1.08728
1.10092
1.11332
1.12504
1.13577
1.14429
1.15107
1.15778
1.16488
1.17212
1.17839
1.18353
1.18865
1.19376
1.19935
1.20618
1.21394
1.22237
1.23031
1.23748
1.24449
1.25137
1.25846
1.26664
1.27502
1.28404
1.29498
1.30552
1.31457
1.32197
1.32917
1.33733
1.34609
1.35561
1.36612
1.37496
1.38136
1.38577
1.38949
1.39074
1.38643
1.37027
1.33114
1.24663
1.10966
0.936164
0.801201
0.71599
0.646661
0.591395
0.533906
0.47765
0.421714
0.366138
0.309672
0.252741
0.197296
0.140699
0.091996
0.0438263
1.00018
1.00016
1.00018
1.00021
1.00026
1.00033
1.00041
1.00052
1.00066
1.00082
1.00102
1.00125
1.00153
1.00185
1.00221
1.00263
1.0031
1.0036
1.00417
1.00478
1.00539
1.00608
1.00675
1.00742
1.00812
1.00866
1.00916
1.00965
1.00996
1.01009
1.01014
1.01009
1.00982
1.00931
1.00847
1.00726
1.00572
1.0038
1.00142
0.998547
0.995096
0.991042
0.986092
0.980546
0.97401
0.970198
0.953714
0.914987
0.903285
0.898371
0.912399
0.933831
0.959642
0.985706
1.01372
1.03848
1.06025
1.08147
1.10038
1.11591
1.12888
1.14101
1.15295
1.1633
1.17151
1.1783
1.18471
1.19128
1.19775
1.2042
1.20996
1.21416
1.21831
1.22341
1.22952
1.23648
1.24387
1.25183
1.26006
1.26745
1.27355
1.27949
1.28658
1.29477
1.30366
1.31372
1.32253
1.33019
1.33751
1.34493
1.35288
1.36077
1.36858
1.37558
1.3783
1.38148
1.38409
1.38269
1.37027
1.345
1.29319
1.18864
1.02541
0.847319
0.720839
0.639693
0.583202
0.54216
0.50309
0.458132
0.412336
0.365021
0.316871
0.267448
0.218628
0.173587
0.127318
0.0867492
0.0473495
1.00018
1.00016
1.00018
1.00021
1.00026
1.00033
1.00041
1.00052
1.00065
1.00082
1.00102
1.00125
1.00153
1.00185
1.00221
1.00263
1.0031
1.0036
1.00417
1.00478
1.0054
1.00609
1.00679
1.00742
1.00815
1.00878
1.00924
1.00976
1.01022
1.01046
1.01056
1.0106
1.01051
1.01023
1.00965
1.00878
1.00756
1.00602
1.00407
1.00175
0.998923
0.995519
0.990997
0.985432
0.978095
0.973584
0.958403
0.918813
0.912239
0.911967
0.932545
0.958293
0.989001
1.01718
1.04764
1.07486
1.09775
1.12061
1.1405
1.15627
1.16952
1.18057
1.19077
1.19967
1.20686
1.2134
1.21962
1.22431
1.22763
1.23268
1.23919
1.24547
1.25026
1.25422
1.2592
1.26466
1.27038
1.27652
1.28381
1.2915
1.2992
1.30646
1.31327
1.32035
1.32759
1.33469
1.34076
1.34756
1.35465
1.36163
1.36776
1.37326
1.37644
1.37877
1.37939
1.37697
1.37181
1.35544
1.31892
1.24538
1.11942
0.936276
0.773007
0.66404
0.587811
0.535846
0.499832
0.471678
0.4396
0.402738
0.363189
0.321298
0.278523
0.234716
0.192412
0.15546
0.118055
0.0842633
0.0520702
1.00018
1.00016
1.00018
1.00021
1.00026
1.00033
1.00041
1.00052
1.00065
1.00082
1.00102
1.00125
1.00153
1.00185
1.00221
1.00263
1.0031
1.0036
1.00417
1.00478
1.00541
1.00609
1.00682
1.00746
1.00818
1.00888
1.0094
1.0099
1.01045
1.01089
1.0111
1.01124
1.01134
1.01136
1.01118
1.01077
1.01
1.00895
1.00764
1.00605
1.00408
1.00166
0.998049
0.993274
0.985624
0.979339
0.969004
0.935796
0.928922
0.938785
0.968028
0.998506
1.03569
1.06631
1.09693
1.12358
1.1463
1.16958
1.18702
1.20212
1.21501
1.22516
1.23453
1.24138
1.24728
1.25197
1.25788
1.26342
1.26617
1.26829
1.27205
1.27804
1.28409
1.28933
1.29357
1.29806
1.30307
1.30894
1.31499
1.32072
1.32722
1.3342
1.34101
1.34732
1.353
1.35752
1.3607
1.36436
1.36879
1.37233
1.3746
1.3774
1.37738
1.37595
1.37416
1.36078
1.33116
1.28299
1.1933
1.04635
0.867708
0.72379
0.624479
0.556278
0.507218
0.472099
0.447529
0.423188
0.394387
0.361413
0.326032
0.288295
0.249785
0.21068
0.173769
0.142736
0.11237
0.0841718
0.0575429
1.00018
1.00016
1.00018
1.00021
1.00026
1.00032
1.00041
1.00052
1.00065
1.00082
1.00101
1.00125
1.00153
1.00185
1.00221
1.00263
1.0031
1.00361
1.00417
1.00479
1.00543
1.00611
1.00683
1.00754
1.00822
1.00895
1.00961
1.01014
1.01069
1.01128
1.01177
1.01206
1.01232
1.01258
1.01285
1.01304
1.01299
1.01265
1.01209
1.01143
1.01061
1.00955
1.00803
1.00555
1.00104
0.996149
0.998697
0.972621
0.961552
0.987615
1.02448
1.05965
1.10116
1.1351
1.16438
1.18634
1.2051
1.22388
1.23594
1.24832
1.25791
1.26634
1.27438
1.28021
1.28489
1.28907
1.29301
1.29731
1.30176
1.30478
1.30802
1.31207
1.3164
1.3209
1.32571
1.32975
1.33374
1.33816
1.34267
1.34727
1.35211
1.35687
1.36172
1.36586
1.36862
1.37059
1.37188
1.37404
1.37635
1.37687
1.37593
1.37544
1.37128
1.35935
1.33964
1.30107
1.2289
1.11782
0.962556
0.797028
0.679419
0.596306
0.536083
0.491104
0.458029
0.434217
0.413212
0.389818
0.362322
0.331862
0.299279
0.264454
0.229261
0.193939
0.161387
0.134378
0.109351
0.0856717
0.0634058
1.00018
1.00016
1.00018
1.00021
1.00026
1.00032
1.00041
1.00052
1.00065
1.00081
1.00101
1.00125
1.00152
1.00184
1.00221
1.00263
1.0031
1.00361
1.00418
1.0048
1.00545
1.00613
1.00686
1.00761
1.00831
1.00903
1.00979
1.01045
1.01103
1.01169
1.0124
1.01302
1.0135
1.014
1.01457
1.01533
1.0162
1.01694
1.01754
1.01802
1.01861
1.01926
1.02017
1.02141
1.02184
1.02178
1.04064
1.0403
1.0249
1.06209
1.1064
1.14477
1.17861
1.20527
1.22716
1.24157
1.2556
1.26851
1.27858
1.28767
1.29629
1.30368
1.30904
1.31521
1.31991
1.32209
1.32597
1.3304
1.33348
1.33545
1.33841
1.34207
1.34661
1.3505
1.35401
1.35787
1.3608
1.36321
1.36528
1.36819
1.37177
1.37486
1.3766
1.37759
1.37749
1.37725
1.37706
1.37633
1.37695
1.3764
1.36797
1.35651
1.33385
1.29772
1.24531
1.16302
1.02832
0.863514
0.730635
0.63541
0.567684
0.519017
0.480911
0.452829
0.42981
0.410386
0.389922
0.366473
0.34004
0.311516
0.280669
0.248335
0.215893
0.183703
0.154686
0.130661
0.109439
0.0893201
0.0703556
1.00018
1.00016
1.00018
1.00021
1.00026
1.00032
1.00041
1.00051
1.00065
1.00081
1.00101
1.00124
1.00152
1.00184
1.00221
1.00262
1.0031
1.00361
1.00418
1.00481
1.00547
1.00615
1.0069
1.00768
1.00841
1.00915
1.00998
1.01076
1.01145
1.01217
1.01304
1.01395
1.01479
1.01556
1.01648
1.01759
1.01911
1.02097
1.02294
1.02496
1.02724
1.03006
1.03365
1.0386
1.04391
1.0528
1.09554
1.13257
1.14922
1.17322
1.2039
1.22834
1.24754
1.26455
1.28072
1.29311
1.30522
1.31324
1.31997
1.32653
1.33283
1.33797
1.34314
1.34683
1.3503
1.35442
1.35664
1.36023
1.36397
1.36475
1.36509
1.36794
1.3714
1.37484
1.37713
1.37878
1.38031
1.3815
1.38194
1.38216
1.38291
1.3834
1.38336
1.38266
1.38184
1.37897
1.37804
1.3719
1.36174
1.34915
1.32585
1.29196
1.24563
1.16745
1.05579
0.916857
0.773093
0.667299
0.591308
0.536963
0.499611
0.470048
0.447584
0.429421
0.411372
0.394592
0.373727
0.350895
0.325439
0.298246
0.268782
0.238641
0.20844
0.178976
0.152819
0.130873
0.112215
0.0947124
0.0784175
1.00018
1.00016
1.00018
1.00021
1.00026
1.00032
1.00041
1.00051
1.00065
1.00081
1.00101
1.00124
1.00151
1.00183
1.0022
1.00262
1.00309
1.00361
1.00418
1.00482
1.00549
1.00618
1.00694
1.00775
1.00853
1.00931
1.01018
1.01105
1.01188
1.01275
1.0137
1.01481
1.01596
1.01713
1.01839
1.01989
1.02173
1.02417
1.02713
1.03053
1.03454
1.03962
1.04622
1.05521
1.06766
1.09059
1.1211
1.21378
1.30137
1.29971
1.31369
1.31171
1.30992
1.31212
1.31804
1.32836
1.34068
1.34921
1.35675
1.36114
1.36601
1.36982
1.37183
1.37432
1.37793
1.38128
1.38207
1.38413
1.3875
1.38927
1.38873
1.38893
1.38995
1.3915
1.39277
1.39311
1.39346
1.39307
1.392
1.38964
1.38717
1.38606
1.38493
1.3812
1.37755
1.36649
1.35496
1.33726
1.30891
1.27691
1.22882
1.15293
1.06259
0.935062
0.791347
0.685152
0.60664
0.545747
0.505297
0.476326
0.455809
0.438669
0.426267
0.411861
0.398206
0.381963
0.362375
0.340338
0.316076
0.290184
0.262302
0.234238
0.206071
0.178988
0.155243
0.134672
0.117548
0.101798
0.0876686
1.00018
1.00016
1.00018
1.00021
1.00025
1.00032
1.0004
1.00051
1.00064
1.00081
1.001
1.00123
1.00151
1.00183
1.0022
1.00261
1.00309
1.00361
1.00419
1.00483
1.00551
1.00622
1.00698
1.00781
1.00866
1.00949
1.01037
1.01134
1.01233
1.01331
1.01434
1.01555
1.01697
1.01845
1.02008
1.02185
1.02396
1.02653
1.02983
1.03377
1.03836
1.04351
1.04948
1.05573
1.06302
1.07084
1.07802
1.1625
1.31004
1.37638
1.37583
1.37184
1.36435
1.35826
1.35607
1.35832
1.36521
1.37436
1.38176
1.38662
1.39019
1.39263
1.39342
1.3935
1.39689
1.40035
1.40043
1.39952
1.40142
1.40314
1.4036
1.40202
1.40142
1.40094
1.40039
1.39964
1.39922
1.39875
1.39599
1.39111
1.38392
1.37727
1.36891
1.35596
1.34237
1.31904
1.28718
1.25055
1.1933
1.11963
1.03306
0.908961
0.787413
0.686501
0.608931
0.544994
0.50328
0.473021
0.451361
0.438134
0.425942
0.418183
0.409014
0.398873
0.386473
0.371408
0.353054
0.332148
0.308993
0.284388
0.258073
0.231952
0.205625
0.180589
0.158779
0.139335
0.12358
0.10939
0.0971667
1.00017
1.00016
1.00018
1.00021
1.00025
1.00032
1.0004
1.00051
1.00064
1.0008
1.001
1.00123
1.0015
1.00182
1.00219
1.00261
1.00308
1.00361
1.0042
1.00483
1.00552
1.00627
1.00703
1.00788
1.00879
1.00966
1.01054
1.01159
1.01273
1.01385
1.01493
1.01617
1.01772
1.01947
1.02132
1.02334
1.02555
1.02815
1.03139
1.03538
1.03984
1.04499
1.05054
1.05696
1.06458
1.07637
1.10093
1.16616
1.30901
1.36658
1.37947
1.37624
1.37319
1.37245
1.37322
1.37681
1.38203
1.38842
1.39613
1.4002
1.40314
1.40413
1.40461
1.40351
1.40476
1.40809
1.40816
1.40645
1.40629
1.4073
1.40779
1.4061
1.40436
1.40317
1.40175
1.39895
1.39542
1.39133
1.38336
1.37305
1.35676
1.33925
1.31758
1.28596
1.24957
1.20352
1.13775
1.06508
0.970822
0.856908
0.758134
0.667754
0.599804
0.537036
0.495024
0.463986
0.44212
0.427362
0.418026
0.411185
0.406417
0.401576
0.39539
0.387528
0.376341
0.362543
0.345472
0.325647
0.303487
0.280177
0.255602
0.231322
0.206724
0.183647
0.163471
0.145223
0.130859
0.118055
0.107341
1.00017
1.00016
1.00017
1.0002
1.00025
1.00031
1.0004
1.0005
1.00063
1.0008
1.00099
1.00122
1.00149
1.00181
1.00218
1.0026
1.00307
1.0036
1.0042
1.00483
1.00553
1.00629
1.00709
1.00795
1.00888
1.00982
1.01075
1.01181
1.01303
1.01429
1.0155
1.01678
1.01831
1.02011
1.02208
1.02418
1.02643
1.02882
1.03157
1.03476
1.03844
1.04244
1.04629
1.05026
1.05448
1.06092
1.1042
1.15517
1.20471
1.25185
1.32077
1.34647
1.36525
1.37621
1.38077
1.38571
1.39038
1.39572
1.40029
1.40434
1.40567
1.40648
1.40814
1.40776
1.40669
1.40836
1.40867
1.4064
1.40488
1.40486
1.40406
1.40177
1.39803
1.39428
1.38992
1.38094
1.36931
1.35391
1.33385
1.31049
1.27884
1.23857
1.19258
1.12802
1.05395
0.975797
0.878617
0.791695
0.70699
0.63644
0.578066
0.520711
0.483447
0.453074
0.430475
0.415662
0.405657
0.399469
0.39586
0.393111
0.391508
0.388333
0.384359
0.377535
0.36778
0.354869
0.338802
0.319962
0.298856
0.2769
0.254105
0.231665
0.208749
0.187451
0.168627
0.151825
0.138679
0.127139
0.117709
1.00017
1.00016
1.00017
1.0002
1.00025
1.00031
1.00039
1.0005
1.00063
1.00079
1.00098
1.00121
1.00148
1.0018
1.00217
1.00259
1.00306
1.0036
1.0042
1.00484
1.00554
1.00631
1.00714
1.00803
1.00895
1.00993
1.01096
1.01206
1.01326
1.01458
1.01593
1.01727
1.01875
1.02048
1.0224
1.02444
1.02657
1.02879
1.03114
1.03372
1.03646
1.03913
1.04147
1.04335
1.04554
1.04906
1.08545
1.12807
1.13863
1.17902
1.25593
1.32303
1.35564
1.37109
1.37965
1.38976
1.3917
1.39773
1.39974
1.40358
1.4046
1.4046
1.40651
1.40736
1.40411
1.4027
1.40263
1.39946
1.39527
1.39185
1.38768
1.38222
1.37148
1.35907
1.34359
1.32263
1.29336
1.25666
1.21334
1.16297
1.10423
1.02901
0.951982
0.862635
0.782251
0.709865
0.645677
0.593422
0.54378
0.498179
0.469521
0.440834
0.419845
0.405018
0.394681
0.387969
0.383715
0.381905
0.381033
0.380966
0.380051
0.378571
0.375332
0.3697
0.360857
0.34876
0.333325
0.31564
0.29591
0.275416
0.25398
0.233129
0.211904
0.192075
0.174642
0.159221
0.147112
0.136742
0.128556
1.00017
1.00015
1.00017
1.0002
1.00024
1.00031
1.00039
1.00049
1.00062
1.00078
1.00097
1.0012
1.00147
1.00179
1.00216
1.00257
1.00305
1.00359
1.00419
1.00483
1.00554
1.00632
1.00717
1.00808
1.00901
1.01002
1.01113
1.01227
1.01349
1.0148
1.01618
1.0176
1.0191
1.02075
1.02255
1.02446
1.02642
1.02834
1.03027
1.03214
1.034
1.03571
1.03759
1.04045
1.04504
1.06826
1.10142
1.12071
1.12709
1.14646
1.18374
1.23879
1.30215
1.34035
1.36432
1.3787
1.38339
1.39027
1.3935
1.39674
1.39884
1.39801
1.39685
1.3971
1.39318
1.38669
1.38348
1.3776
1.36859
1.3585
1.34393
1.32571
1.3031
1.26869
1.22744
1.182
1.12164
1.05548
0.985233
0.904445
0.830118
0.75268
0.691178
0.637585
0.589184
0.548047
0.506645
0.475621
0.451352
0.427196
0.410747
0.396852
0.386209
0.379275
0.37457
0.371936
0.370762
0.370939
0.371731
0.372318
0.372477
0.371511
0.368738
0.363617
0.355197
0.343546
0.328531
0.312284
0.293987
0.27497
0.254734
0.235064
0.215352
0.19708
0.181212
0.167072
0.155861
0.146676
0.13974
1.00017
1.00015
1.00017
1.0002
1.00024
1.0003
1.00038
1.00049
1.00061
1.00077
1.00096
1.00119
1.00146
1.00178
1.00214
1.00256
1.00303
1.00357
1.00417
1.00482
1.00553
1.00632
1.00719
1.00811
1.00905
1.0101
1.01124
1.01243
1.01367
1.01494
1.0163
1.01775
1.01928
1.02086
1.02254
1.0243
1.02604
1.02772
1.02928
1.03057
1.03165
1.03214
1.03201
1.03078
1.02503
1.04688
1.08978
1.0963
1.10198
1.1123
1.13422
1.16678
1.23166
1.28764
1.33247
1.35087
1.36536
1.37703
1.38191
1.38537
1.38639
1.38513
1.38057
1.37545
1.36924
1.35503
1.33976
1.32546
1.30209
1.27631
1.24097
1.19398
1.14352
1.07898
1.00589
0.931138
0.855375
0.785062
0.724069
0.667645
0.620215
0.578415
0.541355
0.508233
0.4758
0.453591
0.43355
0.414202
0.402182
0.389275
0.380774
0.373863
0.368643
0.366077
0.36404
0.363441
0.363662
0.364878
0.366124
0.366833
0.367473
0.366731
0.364187
0.359062
0.350975
0.339533
0.325356
0.31048
0.293585
0.276075
0.257053
0.238437
0.219994
0.203178
0.188509
0.175516
0.165131
0.157032
0.151292
1.00016
1.00015
1.00016
1.00019
1.00024
1.0003
1.00038
1.00048
1.00061
1.00076
1.00095
1.00118
1.00144
1.00176
1.00212
1.00253
1.00301
1.00355
1.00414
1.0048
1.00552
1.00632
1.0072
1.00811
1.00908
1.01014
1.01131
1.01252
1.01378
1.01503
1.01636
1.01782
1.01934
1.02088
1.02244
1.024
1.02554
1.02705
1.02838
1.02961
1.03057
1.03141
1.03206
1.03312
1.03884
1.06305
1.08858
1.08782
1.09048
1.09871
1.10895
1.12748
1.15832
1.20315
1.26846
1.3148
1.34862
1.35901
1.36558
1.36686
1.36339
1.35712
1.34458
1.32688
1.30627
1.28259
1.24133
1.20751
1.15615
1.09575
1.03255
0.956414
0.878819
0.808527
0.743481
0.692048
0.645105
0.602729
0.566327
0.53333
0.504042
0.478573
0.457983
0.439403
0.421193
0.405122
0.394874
0.383756
0.377405
0.370637
0.365675
0.36274
0.360638
0.359561
0.358899
0.359373
0.360473
0.362005
0.363193
0.363845
0.364261
0.363522
0.360997
0.355642
0.347682
0.336553
0.323589
0.309626
0.293964
0.277823
0.260045
0.242593
0.225344
0.209736
0.196052
0.184266
0.174825
0.167746
0.163072
1.00016
1.00015
1.00016
1.00019
1.00023
1.00029
1.00037
1.00047
1.0006
1.00075
1.00094
1.00116
1.00143
1.00174
1.0021
1.00251
1.00299
1.00352
1.00411
1.00477
1.0055
1.00631
1.00719
1.00809
1.00908
1.01017
1.01134
1.01256
1.01381
1.01506
1.0164
1.01784
1.0193
1.02077
1.02222
1.0236
1.02501
1.02639
1.02773
1.02895
1.02999
1.03122
1.03277
1.03592
1.05112
1.07465
1.08624
1.08534
1.08885
1.09248
1.09712
1.10699
1.12259
1.14827
1.19375
1.25385
1.3068
1.33151
1.33796
1.33212
1.31478
1.28991
1.26072
1.22022
1.16917
1.12276
1.05404
0.986034
0.908899
0.835803
0.770405
0.713886
0.667051
0.624868
0.588539
0.556406
0.526877
0.501005
0.47942
0.462357
0.445568
0.429654
0.416305
0.403574
0.394173
0.382997
0.376727
0.369892
0.365856
0.36208
0.359223
0.358051
0.35736
0.357502
0.35792
0.358776
0.359822
0.361101
0.361838
0.362376
0.36239
0.361567
0.358829
0.353515
0.345603
0.335366
0.323554
0.31034
0.29557
0.280488
0.26398
0.247998
0.232018
0.217748
0.204628
0.193809
0.185092
0.178811
0.17498
1.00016
1.00014
1.00016
1.00019
1.00023
1.00029
1.00037
1.00046
1.00059
1.00074
1.00092
1.00114
1.00141
1.00171
1.00207
1.00248
1.00295
1.00348
1.00407
1.00473
1.00548
1.00629
1.00715
1.00806
1.00908
1.01019
1.01135
1.01256
1.01378
1.01506
1.01641
1.0178
1.01918
1.02056
1.02187
1.02313
1.02444
1.02582
1.02705
1.02797
1.02853
1.02865
1.02794
1.02571
1.04243
1.07179
1.07302
1.07447
1.07821
1.0808
1.0861
1.09501
1.10326
1.11875
1.14476
1.17421
1.22393
1.26575
1.2692
1.24866
1.21011
1.15347
1.08907
1.02501
0.941122
0.873436
0.804192
0.746732
0.697103
0.651918
0.614545
0.58057
0.551015
0.524794
0.501606
0.484498
0.468531
0.453118
0.439903
0.42717
0.417504
0.406678
0.398568
0.38872
0.382148
0.373984
0.369119
0.364328
0.36157
0.359934
0.358843
0.358608
0.358337
0.358372
0.358819
0.359448
0.360349
0.361433
0.361949
0.362308
0.361859
0.360561
0.357664
0.352419
0.344692
0.335339
0.324347
0.311797
0.297769
0.283566
0.268281
0.253834
0.239273
0.226128
0.213502
0.203674
0.19567
0.19013
0.186964
1.00015
1.00014
1.00016
1.00018
1.00022
1.00028
1.00036
1.00045
1.00058
1.00072
1.0009
1.00112
1.00138
1.00169
1.00203
1.00244
1.00291
1.00344
1.00402
1.00469
1.00544
1.00624
1.00708
1.008
1.00904
1.01016
1.01131
1.0125
1.0137
1.01499
1.01635
1.01772
1.01904
1.02031
1.02146
1.02263
1.02395
1.02528
1.02646
1.02743
1.02837
1.02912
1.02997
1.03308
1.04864
1.06542
1.06303
1.0642
1.06585
1.0689
1.07435
1.07854
1.08342
1.09421
1.10391
1.1109
1.12476
1.13361
1.12221
1.06797
1.00209
0.923537
0.854441
0.79304
0.737911
0.69216
0.650703
0.615168
0.583921
0.555114
0.530866
0.511589
0.495452
0.480436
0.465793
0.452673
0.442641
0.431715
0.422806
0.41358
0.406044
0.397728
0.391873
0.384422
0.379709
0.373807
0.370049
0.366694
0.364486
0.363208
0.362011
0.361741
0.361173
0.36097
0.361308
0.361694
0.362231
0.362907
0.363188
0.363211
0.36251
0.361015
0.357985
0.352922
0.345687
0.337008
0.32647
0.314425
0.301237
0.287897
0.273656
0.260656
0.247434
0.235407
0.223597
0.214511
0.206952
0.201956
0.199221
1.00015
1.00014
1.00015
1.00018
1.00022
1.00027
1.00035
1.00044
1.00056
1.00071
1.00089
1.0011
1.00135
1.00165
1.00199
1.0024
1.00287
1.00339
1.00396
1.00464
1.00538
1.00617
1.00699
1.00792
1.00899
1.01012
1.01126
1.01237
1.01356
1.01489
1.0163
1.01768
1.01893
1.02001
1.02109
1.02228
1.02362
1.02489
1.0261
1.02739
1.02901
1.03127
1.03462
1.04649
1.06243
1.06875
1.06433
1.06354
1.06308
1.06309
1.06329
1.06306
1.06092
1.06022
1.0532
1.0455
1.01849
0.983554
0.914682
0.846341
0.790931
0.743982
0.700672
0.664214
0.629122
0.598386
0.571362
0.549174
0.532058
0.515341
0.499248
0.484828
0.472517
0.461887
0.452246
0.442704
0.435572
0.427794
0.42131
0.414288
0.40867
0.401964
0.397058
0.390569
0.386217
0.380906
0.377233
0.373895
0.371263
0.369641
0.368104
0.367314
0.366303
0.365945
0.366019
0.365886
0.365827
0.36584
0.365868
0.365509
0.364458
0.362521
0.359252
0.354303
0.347349
0.339018
0.328886
0.317525
0.305528
0.293109
0.280016
0.268194
0.255959
0.244819
0.233754
0.225421
0.21835
0.213884
0.211479
1.00015
1.00013
1.00015
1.00017
1.00021
1.00027
1.00034
1.00043
1.00055
1.00069
1.00086
1.00107
1.00132
1.00161
1.00195
1.00235
1.00281
1.00332
1.00389
1.00456
1.00529
1.00607
1.0069
1.00785
1.00892
1.01003
1.01113
1.01221
1.01339
1.01476
1.01617
1.01747
1.01861
1.01971
1.02082
1.02206
1.02325
1.02428
1.02521
1.02594
1.0264
1.02609
1.02418
1.03526
1.05976
1.05862
1.05753
1.05701
1.05699
1.05609
1.05363
1.05285
1.04807
1.0383
1.01711
0.977912
0.897659
0.815071
0.756257
0.715241
0.679841
0.649698
0.622312
0.599118
0.579072
0.560867
0.54368
0.527839
0.514242
0.504831
0.493932
0.483852
0.474461
0.465969
0.458859
0.451067
0.444548
0.437555
0.431602
0.425303
0.419985
0.413792
0.408975
0.402702
0.398124
0.392804
0.388779
0.385032
0.381799
0.379636
0.377416
0.3759
0.374472
0.373955
0.373342
0.372408
0.371505
0.370796
0.370332
0.369446
0.367901
0.365408
0.361775
0.356745
0.350093
0.342244
0.332664
0.322121
0.311123
0.299664
0.287479
0.276431
0.264873
0.254632
0.244578
0.23708
0.230419
0.226349
0.22408
1.00014
1.00013
1.00014
1.00017
1.00021
1.00026
1.00033
1.00042
1.00053
1.00067
1.00084
1.00104
1.00128
1.00156
1.0019
1.00229
1.00274
1.00324
1.00381
1.00446
1.00518
1.00596
1.00679
1.00773
1.00878
1.00986
1.01093
1.01205
1.01327
1.01459
1.01592
1.01714
1.01828
1.01941
1.02062
1.02182
1.02284
1.02377
1.02456
1.02534
1.0261
1.02639
1.02778
1.03574
1.04874
1.04601
1.04691
1.04705
1.04691
1.04591
1.04208
1.0391
1.02834
0.999288
0.954833
0.871328
0.775746
0.716297
0.675216
0.647111
0.625336
0.608018
0.592308
0.57782
0.564429
0.553511
0.543026
0.534136
0.523469
0.515703
0.507741
0.499753
0.491829
0.483723
0.476659
0.469095
0.462234
0.455174
0.448934
0.442584
0.436911
0.430642
0.425774
0.41958
0.414603
0.40895
0.404169
0.399985
0.395944
0.393254
0.390154
0.387937
0.386022
0.384864
0.383186
0.381498
0.379628
0.378
0.37668
0.374978
0.372708
0.369639
0.365458
0.360157
0.353506
0.345743
0.336654
0.327004
0.317064
0.306851
0.295744
0.285525
0.274609
0.265197
0.255721
0.248486
0.242262
0.238627
0.236662
1.00014
1.00012
1.00014
1.00016
1.0002
1.00025
1.00032
1.0004
1.00051
1.00065
1.00081
1.00101
1.00124
1.00151
1.00184
1.00222
1.00266
1.00314
1.00371
1.00433
1.00504
1.00581
1.00665
1.00757
1.00857
1.00962
1.01069
1.01185
1.01306
1.0143
1.01553
1.01671
1.01792
1.01917
1.02041
1.02156
1.02254
1.02357
1.0247
1.02632
1.02902
1.03295
1.04393
1.05255
1.05358
1.04858
1.04779
1.04554
1.04319
1.04127
1.03279
1.018
1.00073
0.935492
0.856075
0.765298
0.706204
0.667622
0.642173
0.624136
0.610047
0.598866
0.589504
0.581368
0.57344
0.566721
0.560107
0.554602
0.546907
0.539952
0.533187
0.525778
0.518489
0.510034
0.502286
0.494265
0.486669
0.479071
0.472084
0.465078
0.458692
0.452017
0.446622
0.440598
0.435019
0.428898
0.422833
0.418372
0.413654
0.410365
0.406301
0.403292
0.400602
0.398176
0.395466
0.392959
0.39019
0.38754
0.385103
0.382329
0.379109
0.375401
0.370698
0.365157
0.358464
0.350898
0.3425
0.333724
0.324615
0.315365
0.304975
0.295116
0.284653
0.275917
0.267125
0.260254
0.254607
0.25134
0.249553
1.00013
1.00012
1.00013
1.00015
1.00019
1.00024
1.00031
1.00039
1.00049
1.00062
1.00078
1.00097
1.00119
1.00146
1.00178
1.00214
1.00256
1.00303
1.00358
1.0042
1.00487
1.00562
1.00646
1.00736
1.00831
1.00931
1.01041
1.01159
1.01279
1.01397
1.01507
1.01628
1.01761
1.01898
1.02016
1.02119
1.02212
1.02294
1.02353
1.0237
1.023
1.02062
1.02873
1.04454
1.04208
1.04068
1.04046
1.03816
1.033
1.02814
1.01501
0.979716
0.93678
0.839936
0.761577
0.705922
0.671395
0.648207
0.63253
0.621335
0.612792
0.605993
0.600444
0.595792
0.591487
0.587382
0.583411
0.579859
0.574453
0.56853
0.562013
0.555122
0.54771
0.53971
0.53177
0.523659
0.515542
0.507111
0.499183
0.49107
0.483499
0.475625
0.468998
0.462582
0.456386
0.450035
0.443129
0.438482
0.433126
0.429111
0.424237
0.420377
0.416664
0.412863
0.409297
0.405812
0.402147
0.39848
0.394884
0.390969
0.386807
0.38229
0.376999
0.371028
0.364078
0.356531
0.348555
0.340207
0.33179
0.323695
0.314527
0.305511
0.295751
0.287504
0.279055
0.27204
0.266772
0.263708
0.262468
1.00013
1.00011
1.00013
1.00015
1.00018
1.00023
1.00029
1.00037
1.00047
1.00059
1.00074
1.00093
1.00114
1.0014
1.0017
1.00205
1.00244
1.00291
1.00344
1.00404
1.00467
1.0054
1.00622
1.0071
1.008
1.00897
1.01009
1.01129
1.01249
1.01355
1.01461
1.01588
1.01741
1.01885
1.02004
1.02104
1.02196
1.02283
1.02352
1.02378
1.02311
1.02182
1.0198
1.03429
1.03195
1.03251
1.03148
1.02958
1.02203
1.00748
0.985728
0.917594
0.836682
0.760814
0.710364
0.677549
0.656341
0.642389
0.632876
0.626086
0.621017
0.617101
0.613847
0.611023
0.608302
0.60557
0.602763
0.600253
0.596652
0.592724
0.587334
0.582149
0.575421
0.568068
0.560192
0.551642
0.543058
0.533921
0.525267
0.516623
0.508411
0.499853
0.492073
0.484765
0.478458
0.471911
0.463987
0.458079
0.452482
0.447816
0.442556
0.437628
0.432909
0.428423
0.424187
0.419855
0.415258
0.410484
0.40578
0.400931
0.396088
0.390824
0.384998
0.378648
0.371495
0.363996
0.356247
0.348297
0.340532
0.333394
0.324822
0.31634
0.30705
0.299014
0.290814
0.284018
0.2794
0.276621
0.27589
1.00012
1.00011
1.00012
1.00014
1.00017
1.00022
1.00028
1.00035
1.00045
1.00056
1.00071
1.00088
1.00108
1.00133
1.00162
1.00194
1.00232
1.00277
1.00328
1.00384
1.00444
1.00515
1.00596
1.0068
1.00762
1.00858
1.00973
1.01092
1.01206
1.01312
1.01428
1.01569
1.01714
1.01851
1.01975
1.02096
1.02221
1.0235
1.02513
1.0277
1.03154
1.03959
1.04252
1.04361
1.03939
1.0374
1.03189
1.02672
1.00778
0.971037
0.922179
0.832208
0.763809
0.715246
0.685195
0.664624
0.651462
0.642526
0.636676
0.632649
0.629794
0.627656
0.625793
0.624112
0.622293
0.620447
0.61828
0.616314
0.613685
0.611113
0.607094
0.60358
0.598032
0.592025
0.585031
0.577156
0.568916
0.560044
0.551035
0.541775
0.532876
0.523297
0.514059
0.505102
0.497745
0.491283
0.483479
0.477004
0.470842
0.465925
0.460764
0.4547
0.449149
0.443616
0.43865
0.433964
0.428735
0.423217
0.417695
0.412123
0.406607
0.400642
0.394205
0.387208
0.379611
0.371982
0.364145
0.35635
0.349013
0.342774
0.335069
0.32757
0.3192
0.311551
0.30348
0.296804
0.292243
0.289434
0.289327
1.00011
1.0001
1.00011
1.00013
1.00016
1.0002
1.00026
1.00033
1.00042
1.00053
1.00066
1.00082
1.00102
1.00125
1.00152
1.00183
1.00218
1.00261
1.00309
1.0036
1.00418
1.00488
1.00565
1.00642
1.00722
1.00819
1.00927
1.01039
1.01151
1.01267
1.01389
1.01526
1.01665
1.01807
1.01953
1.02092
1.02216
1.02319
1.02374
1.02321
1.02019
1.02483
1.03675
1.03602
1.03547
1.03156
1.02365
1.00831
0.97733
0.910846
0.831008
0.764786
0.721536
0.692764
0.673528
0.660851
0.652363
0.646761
0.642982
0.640468
0.638749
0.637599
0.636532
0.635553
0.634366
0.63318
0.631523
0.630064
0.627915
0.626083
0.623118
0.620757
0.616649
0.612366
0.606565
0.599779
0.592029
0.583417
0.574094
0.564279
0.554829
0.545122
0.535745
0.526442
0.518236
0.511212
0.503199
0.496088
0.488382
0.482877
0.477654
0.470808
0.464585
0.458135
0.452488
0.447439
0.441885
0.436058
0.430097
0.423837
0.417557
0.411033
0.404245
0.396984
0.38933
0.381731
0.373935
0.366507
0.359624
0.353966
0.346686
0.339469
0.331362
0.323782
0.315894
0.309318
0.305178
0.302675
0.303115
1.0001
1.00009
1.0001
1.00012
1.00015
1.00019
1.00024
1.00031
1.00039
1.00049
1.00062
1.00077
1.00094
1.00116
1.00141
1.0017
1.00203
1.00243
1.00287
1.00334
1.00391
1.00455
1.00525
1.00598
1.00678
1.00771
1.00869
1.00975
1.0109
1.01215
1.01347
1.01476
1.01612
1.01762
1.01935
1.02115
1.02297
1.02438
1.02522
1.02474
1.02386
1.01795
1.03318
1.03001
1.03039
1.02217
1.00591
0.965555
0.910123
0.826763
0.76707
0.725649
0.699371
0.6812
0.669198
0.660987
0.655683
0.652179
0.649944
0.648611
0.647784
0.647339
0.646884
0.646387
0.645644
0.644837
0.643587
0.642482
0.640739
0.639304
0.636779
0.634982