/*--------------------------------*- C++ -*----------------------------------*\
| =========                 |                                                 |
| \\      /  F ield         | OpenFOAM: The Open Source CFD Toolbox           |
|  \\    /   O peration     | Version:  2.2.x                                 |
|   \\  /    A nd           | Web:      www.OpenFOAM.org                      |
|    \\/     M anipulation  |                                                 |
\*---------------------------------------------------------------------------*/
FoamFile
{
    version     2.0;
    format      ascii;
    class       surfaceScalarField;
    location    "1.4";
    object      cfmax;
}
// * * * * * * * * * * * * * * * * * * * * * * * * * * * * * * * * * * * * * //

dimensions      [0 3 -1 0 0 0 0];

internalField   nonuniform List<scalar> 
28084
(
0.00074633
0.000743095
0.000740333
0.00073802
0.000736138
0.000734664
0.000733578
0.000732857
0.000732475
0.000732411
0.000732638
0.000733132
0.000733868
0.000734823
0.00073597
0.000737275
0.000738741
0.000740332
0.000741959
0.000743718
0.000745516
0.000747267
0.000749077
0.000750845
0.000752546
0.000754074
0.000755454
0.000756757
0.000757857
0.000758759
0.000759456
0.000759878
0.000760002
0.000759803
0.000759249
0.000758321
0.000756931
0.000754991
0.000752914
0.000750436
0.000746203
0.00074287
0.000739655
0.000736343
0.000731709
0.000737442
0.000443725
0.000396809
0.000396262
0.00040019
0.000406869
0.000415343
0.000424723
0.000434793
0.000445103
0.000455021
0.000464932
0.000474548
0.000483619
0.000492184
0.000500488
0.000509294
0.000517403
0.000524856
0.000531322
0.000537153
0.000542591
0.000547866
0.000552866
0.000557576
0.000562112
0.000565749
0.000568326
0.000570572
0.000572821
0.000574741
0.00057609
0.000577208
0.000577364
0.000577614
0.000577698
0.000578436
0.000577575
0.000576693
0.000575335
0.000573645
0.000571395
0.000569705
0.000570235
0.000570749
0.000572008
0.000579149
0.000581393
0.000583959
0.00058993
0.000595843
0.000602741
0.00061129
0.000617711
0.000622265
0.00062488
0.000627212
0.000625319
0.000610415
0.000594468
0.000548998
0.000508745
0.000476834
0.000456943
0.000446246
0.000439377
0.000434673
0.000432122
0.000431585
0.00043227
0.000433137
0.000433613
0.000433129
0.00144524
0.00144297
0.000749847
0.00143767
0.000748892
0.00142937
0.000748381
0.00141813
0.000748292
0.00140406
0.000748608
0.00138727
0.000749309
0.0013679
0.000750373
0.00134609
0.000751777
0.00132203
0.000753496
0.00129599
0.000755506
0.00126821
0.000757779
0.00123872
0.00076029
0.00120773
0.00076301
0.00117543
0.000765917
0.00114203
0.000768978
0.00110775
0.000772161
0.00107275
0.000775463
0.00103722
0.000778842
0.00100138
0.000782227
0.000965348
0.000785685
0.000929271
0.000789134
0.000893344
0.000792501
0.000857681
0.00079585
0.000822353
0.000799122
0.000787466
0.000802249
0.000753186
0.000805177
0.000719519
0.000807889
0.000686572
0.000810425
0.000654416
0.000812717
0.000623099
0.000814749
0.000592655
0.000816526
0.000563116
0.000817956
0.000534505
0.000819017
0.000506848
0.000819673
0.000480151
0.000819902
0.000454405
0.0008197
0.000429767
0.000818948
0.000406158
0.000817567
0.00038339
0.00081597
0.000361516
0.000813918
0.000340827
0.000810035
0.00032128
0.000806825
0.000302428
0.000803687
0.000284483
0.000800605
0.000285764
0.000795356
0.000285139
0.00079891
0.000288524
0.000480204
0.000285923
0.000428631
0.000287385
0.000427269
0.000289351
0.00043166
0.000291778
0.000438714
0.00029362
0.000447023
0.00029634
0.000456667
0.00029786
0.000466217
0.000299775
0.000476578
0.000301665
0.000486397
0.000303284
0.00049618
0.000304825
0.000505626
0.000306073
0.000514508
0.000307755
0.000523111
0.000309961
0.000531468
0.000311562
0.000539613
0.000312714
0.000547444
0.000313939
0.000554426
0.000315203
0.000560803
0.000317008
0.000566815
0.000318763
0.000572233
0.000320298
0.000576925
0.000321912
0.000581277
0.000323892
0.000585195
0.000325597
0.000588757
0.000327377
0.000592314
0.000329594
0.000594563
0.000332064
0.000596336
0.000334416
0.000598017
0.000336469
0.000599406
0.000338426
0.000600329
0.000340665
0.000601171
0.000343338
0.000601338
0.000346309
0.000601166
0.000349667
0.000600359
0.000352729
0.000599543
0.000356265
0.000598898
0.000359156
0.000597432
0.00036192
0.000596089
0.000366503
0.000594528
0.000370505
0.000592421
0.000374163
0.000590122
0.000377489
0.000588777
0.000381538
0.00058989
0.000386043
0.000591205
0.000390864
0.00059825
0.000395821
0.000600886
0.000400781
0.000603671
0.000405235
0.000609359
0.000409277
0.000614653
0.000414505
0.00062027
0.000420177
0.000627325
0.000425356
0.000632562
0.000429672
0.000635471
0.000434205
0.000636589
0.000436304
0.000632602
0.000439458
0.000619498
0.000439222
0.000590037
0.000434923
0.000569735
0.000427471
0.000533427
0.000414706
0.000500674
0.000402601
0.000472202
0.000393595
0.000455711
0.000387363
0.000444883
0.000383322
0.000437319
0.000381284
0.000432079
0.000381456
0.000429037
0.000383575
0.000427976
0.000387121
0.000427823
0.000391846
0.000428185
0.000394759
0.000428936
0.000407526
0.000428848
0.00144582
0.00144332
0.000754543
0.00143781
0.000755838
0.0014293
0.00075755
0.00141787
0.000759657
0.00140361
0.000762146
0.00138665
0.000764995
0.00136764
0.000768185
0.00134631
0.00077169
0.00132269
0.000775486
0.00129694
0.000779546
0.00126927
0.000783843
0.00123988
0.000788348
0.00120896
0.000793033
0.00117673
0.000797868
0.00114339
0.000802825
0.00110913
0.00080787
0.00107416
0.000812984
0.00103865
0.000818132
0.0010028
0.000823264
0.00096676
0.000828393
0.000930679
0.000833479
0.000894698
0.000838455
0.000859005
0.000843322
0.000823637
0.000848076
0.0007887
0.000852617
0.000754341
0.000856942
0.000720631
0.000860982
0.000687612
0.000864745
0.000655372
0.000868218
0.000623986
0.000871367
0.00059347
0.000874241
0.000563853
0.000876705
0.000535154
0.000878709
0.000507407
0.000880241
0.000480624
0.00088127
0.000454792
0.000881785
0.000429937
0.000881719
0.000406107
0.000880976
0.000383468
0.000879836
0.000361673
0.000878334
0.000341025
0.000875052
0.000321512
0.000871768
0.000302747
0.000868539
0.000285049
0.000865572
0.000287894
0.000859805
0.000289122
0.000860073
0.000292507
0.000519316
0.000286867
0.000461859
0.000289683
0.000459258
0.00029341
0.000463221
0.000297189
0.000470987
0.000299504
0.000479562
0.00030264
0.000489702
0.000304244
0.000499255
0.000306063
0.000509701
0.00030791
0.000519632
0.000309607
0.000529408
0.000310584
0.000538797
0.000311791
0.000547723
0.000313293
0.000556204
0.000315116
0.00056453
0.000316975
0.000572348
0.000317768
0.000579471
0.00031842
0.00058608
0.000319806
0.000592237
0.000321318
0.000598157
0.000323101
0.000603459
0.0003247
0.000607918
0.000325719
0.000611767
0.000326855
0.000615193
0.000328262
0.000618052
0.000329757
0.000620419
0.000331723
0.000622461
0.00033415
0.000623871
0.000336655
0.000625064
0.000338915
0.000625969
0.000340776
0.000626476
0.000342539
0.000626955
0.00034461
0.000627073
0.000347597
0.000626331
0.000350501
0.000625019
0.000353662
0.000623193
0.000357666
0.000621229
0.000361335
0.000619613
0.000363648
0.000617884
0.000368668
0.000616276
0.00037291
0.000613974
0.000377079
0.00061175
0.000379538
0.000609537
0.000383053
0.000611133
0.000387554
0.000612336
0.000392478
0.000617918
0.000398017
0.000620494
0.000402913
0.000622961
0.000407496
0.000629378
0.000411731
0.000634268
0.000415078
0.000638205
0.000420036
0.000642306
0.000425052
0.000643423
0.000428226
0.000642446
0.000431057
0.000637812
0.000430622
0.000617503
0.000432933
0.000591754
0.000431218
0.000560092
0.000428287
0.000530281
0.000428721
0.000500714
0.000422652
0.000477712
0.000411035
0.000460116
0.000402605
0.000448789
0.000396154
0.000440487
0.000391749
0.00043375
0.000389668
0.000428725
0.000390309
0.000425538
0.000393995
0.00042403
0.000398798
0.000423644
0.000405628
0.00042414
0.000410533
0.000425682
0.000425005
0.00042763
0.00144527
0.00144257
0.000760417
0.00143685
0.00076393
0.00142815
0.000767833
0.00141735
0.000772106
0.00140404
0.000776737
0.00138797
0.000781706
0.00136925
0.000786992
0.00134806
0.000792571
0.00132456
0.000798417
0.00129892
0.000804502
0.00127135
0.000810797
0.00124203
0.000817271
0.00121118
0.000823895
0.00117899
0.000830636
0.00114568
0.000837464
0.00111144
0.00084435
0.00107647
0.000851248
0.00104095
0.000858146
0.00100506
0.000865015
0.000968991
0.000871792
0.000932881
0.000878477
0.000896827
0.000885063
0.000861065
0.000891428
0.000825641
0.000897655
0.000790619
0.000903591
0.000756162
0.000909276
0.000722386
0.000914668
0.000689268
0.000919656
0.000656923
0.000924286
0.000625443
0.000928577
0.000594826
0.000932515
0.000565116
0.000936048
0.000536304
0.00093906
0.000508455
0.000941503
0.000481569
0.000943343
0.000455644
0.000944617
0.000430693
0.000945283
0.000406799
0.000945254
0.000383712
0.000944493
0.00036176
0.00094386
0.000341133
0.000941841
0.000321584
0.000938188
0.000302983
0.000934777
0.000285736
0.000931039
0.000289658
0.000925655
0.000295664
0.000922603
0.000296994
0.000560877
0.00028843
0.000496165
0.000291975
0.000492391
0.000297696
0.000496119
0.000303359
0.000504238
0.000306416
0.000513307
0.00031
0.000524103
0.000311735
0.000533895
0.000313286
0.000544708
0.00031511
0.000554814
0.000316325
0.000564538
0.000317293
0.000574069
0.000317995
0.000583189
0.000319273
0.000591929
0.000320925
0.000599967
0.000322105
0.000607281
0.000322929
0.000614042
0.000323342
0.000620129
0.000324277
0.000626192
0.000325785
0.000631685
0.00032728
0.000636466
0.000328618
0.00064073
0.000329748
0.00064431
0.000330681
0.00064717
0.000331756
0.000649388
0.000332977
0.000651062
0.000334517
0.000652341
0.000336484
0.000653535
0.00033878
0.00065405
0.000341075
0.000654248
0.000343119
0.00065427
0.000344804
0.000654171
0.000346577
0.000654003
0.000348847
0.000652788
0.000351709
0.000650698
0.00035483
0.000648488
0.000358175
0.000646075
0.000361222
0.000643432
0.000365604
0.000641433
0.000370182
0.000639336
0.000374531
0.000636983
0.000378597
0.000634872
0.000382037
0.000634181
0.000385875
0.000636162
0.000390302
0.000636567
0.000394907
0.000640724
0.000399691
0.000643388
0.000404561
0.000644792
0.000408038
0.000649751
0.000410829
0.000652168
0.000414396
0.000653495
0.000418125
0.000652446
0.000421379
0.000649728
0.000423181
0.000638617
0.000424526
0.000618419
0.00042447
0.000587908
0.00042389
0.000555966
0.000422106
0.000519321
0.000427697
0.000487918
0.000433407
0.00046805
0.00043251
0.000455026
0.000422581
0.000447329
0.000414242
0.000440547
0.000407482
0.000433856
0.000402891
0.000428884
0.000400719
0.000424919
0.000401597
0.000422473
0.000405348
0.000420905
0.000410667
0.000420422
0.000418789
0.000421221
0.000424504
0.000423643
0.000438938
0.000427238
0.00144362
0.00144134
0.000767471
0.0014371
0.000773166
0.00142982
0.000779225
0.00141957
0.00078563
0.00140642
0.00079237
0.00139049
0.000799426
0.00137192
0.000806777
0.00135086
0.000814398
0.00132746
0.000822264
0.00130192
0.000830344
0.00127442
0.000838607
0.00124517
0.000847023
0.00121436
0.000855559
0.0011822
0.000864176
0.0011489
0.000872849
0.00111465
0.000881551
0.00107966
0.000890209
0.00104412
0.000898836
0.00100818
0.000907409
0.00097204
0.000915819
0.000935862
0.000924078
0.000899739
0.000932229
0.000863861
0.000940098
0.00082835
0.000947788
0.000793226
0.000955108
0.000758655
0.000962085
0.000724761
0.000968844
0.000691532
0.00097511
0.000659082
0.000980893
0.000627465
0.000986292
0.00059674
0.000991318
0.000566904
0.000995907
0.00053799
0.00100001
0.000510005
0.00100346
0.000482996
0.00100614
0.000456971
0.00100825
0.000431916
0.0010097
0.00040791
0.00101044
0.000384839
0.0010106
0.000362553
0.00101056
0.000341303
0.00100965
0.000321672
0.00100709
0.000303234
0.0010027
0.000286411
0.000997969
0.000291341
0.000993982
0.000303044
0.000988242
0.000301849
0.000604493
0.000290308
0.000530881
0.000294945
0.00052613
0.000302734
0.000530217
0.000310187
0.000539495
0.00031419
0.000549514
0.000318189
0.000561052
0.000320287
0.000571244
0.000321643
0.000582547
0.000323084
0.000593225
0.000324388
0.000603342
0.000325111
0.000612711
0.000325659
0.000621806
0.000326526
0.000630664
0.000327741
0.000638599
0.000328571
0.000645458
0.000329017
0.000651334
0.000329198
0.00065688
0.000329685
0.000662209
0.000330529
0.00066713
0.00033175
0.000671336
0.000333185
0.000674813
0.000334458
0.000677711
0.000335463
0.000680304
0.000336296
0.000682258
0.000337139
0.00068374
0.000338209
0.000684572
0.00033959
0.000684913
0.000341419
0.000685197
0.000343615
0.000684399
0.000345735
0.000683583
0.000347662
0.000682458
0.000349433
0.000681243
0.00035115
0.000680001
0.000354278
0.000677464
0.000357709
0.000675027
0.000361622
0.000671987
0.00036551
0.000668717
0.000369312
0.000665747
0.000373642
0.000663804
0.000377543
0.000662966
0.000381412
0.000663586
0.000384992
0.000662772
0.000389085
0.000663905
0.000393418
0.000663377
0.000398293
0.000666064
0.000402541
0.000667933
0.000406308
0.000667268
0.000409116
0.000669071
0.000412165
0.000667019
0.000415092
0.000664074
0.000416524
0.000659772
0.000418439
0.000639504
0.000419637
0.0006177
0.000418612
0.000589855
0.000416783
0.000552008
0.00042137
0.000512812
0.000427586
0.000481964
0.00043214
0.000460128
0.000435221
0.000448135
0.000432757
0.000440875
0.000426296
0.000436726
0.00041974
0.000432033
0.000414906
0.000428209
0.000411948
0.00042512
0.000410541
0.000422512
0.000411259
0.00042022
0.000415748
0.000418347
0.000421666
0.000418178
0.000430701
0.000419626
0.000437167
0.000422935
0.0004509
0.000427403
0.00144512
0.00144413
0.00077571
0.00144007
0.000783547
0.00143296
0.000791722
0.00142286
0.000800221
0.00140987
0.000809032
0.00139409
0.000818139
0.00137564
0.00082752
0.00135469
0.00083715
0.00133139
0.000847001
0.00130593
0.000857042
0.0012785
0.000867243
0.00124929
0.000877567
0.00121851
0.000887984
0.00118636
0.000898448
0.00115305
0.000908936
0.00111877
0.000919422
0.00108375
0.000929815
0.00104815
0.000940145
0.00101213
0.000950381
0.000975898
0.000960407
0.000939623
0.000970221
0.000903418
0.000979922
0.000867397
0.000989271
0.000831743
0.000998342
0.000796537
0.0010071
0.000761824
0.00101539
0.000727754
0.00102335
0.000694401
0.001031
0.000661816
0.00103799
0.000630071
0.00104446
0.000599203
0.00105054
0.00056925
0.00105623
0.0005402
0.00106142
0.000512095
0.00106602
0.000484934
0.00106974
0.000458796
0.00107279
0.00043364
0.00107497
0.000409494
0.00107656
0.000386418
0.00107774
0.000364113
0.00107831
0.000342573
0.00107896
0.000321928
0.00107752
0.000303631
0.00107367
0.000287105
0.00106794
0.000292821
0.00106405
0.000311765
0.00105632
0.00030758
0.000651755
0.000292546
0.000566347
0.00029925
0.000561067
0.000309451
0.000566481
0.000318557
0.0005776
0.000323374
0.000589013
0.000327818
0.000601918
0.000330458
0.00061302
0.000331682
0.000624561
0.000332989
0.000635278
0.000333954
0.000645615
0.000334507
0.000654619
0.000334493
0.000662921
0.000334778
0.000671121
0.000335183
0.000678427
0.000335479
0.000685008
0.000335334
0.000690311
0.000335184
0.000695259
0.000335184
0.000699934
0.000335429
0.000703895
0.00033583
0.000707138
0.000336725
0.000710228
0.000338165
0.000712223
0.000339723
0.000714119
0.000340854
0.000715792
0.000341477
0.000717016
0.00034197
0.00071763
0.000342992
0.000717867
0.000344387
0.00071746
0.000346019
0.00071592
0.000347877
0.000713914
0.00034973
0.000711958
0.000351835
0.000709734
0.000353817
0.000708329
0.000356784
0.000705506
0.000360698
0.000702314
0.000365069
0.000698735
0.000369401
0.000697079
0.000373271
0.000696555
0.000377026
0.000696342
0.00038087
0.000695734
0.00038468
0.00069484
0.000388487
0.000692535
0.000392541
0.000692327
0.000396667
0.000690125
0.000400656
0.000691747
0.000404795
0.000690672
0.000408229
0.000687251
0.000410263
0.000685819
0.000412642
0.000677815
0.00041483
0.000663903
0.000415607
0.000652002
0.000415666
0.000618726
0.000415204
0.00058964
0.000414498
0.000548962
0.000424214
0.000509683
0.000431273
0.000480125
0.00043542
0.000459663
0.000437624
0.000446566
0.000437109
0.000438662
0.000433092
0.000433802
0.000427734
0.000429583
0.00042392
0.000426804
0.00042138
0.000424679
0.00041968
0.000422933
0.000419143
0.000420779
0.000420713
0.000418225
0.000425497
0.000416594
0.000431907
0.000417037
0.000441366
0.000418916
0.000448562
0.0004228
0.000461425
0.000427786
0.00144886
0.00144802
0.000785139
0.00144413
0.000795073
0.00143718
0.000805321
0.00142723
0.000815872
0.00141438
0.000826714
0.00139873
0.000837832
0.00138041
0.000849204
0.00135956
0.000860803
0.00133634
0.000872602
0.00131095
0.000884569
0.00128357
0.00089667
0.00125439
0.000908868
0.00122361
0.00092113
0.00119146
0.000933409
0.00115812
0.00094568
0.00112379
0.000957913
0.0010887
0.000970017
0.00105302
0.000982017
0.00101691
0.000993885
0.000980569
0.0010055
0.000944177
0.00101686
0.000907843
0.00102806
0.000871664
0.00103889
0.000835854
0.00104931
0.000800503
0.00105948
0.000765629
0.00106909
0.000731401
0.00107825
0.000697867
0.00108718
0.000665123
0.00109547
0.000633232
0.00110309
0.000602215
0.00111017
0.000572129
0.00111686
0.00054296
0.0011232
0.000514712
0.00112899
0.00048744
0.0011341
0.000461126
0.00113824
0.000435875
0.00114124
0.000411611
0.00114387
0.000388422
0.00114608
0.000366129
0.00114777
0.00034462
0.0011491
0.000323732
0.00115002
0.000304391
0.00114816
0.000288283
0.00114193
0.000294565
0.00113747
0.00032258
0.00112701
0.000314656
0.000712184
0.000294237
0.000604493
0.000305865
0.000598116
0.000318777
0.000606629
0.000329471
0.000620895
0.000335362
0.000634018
0.000340177
0.000648792
0.000342864
0.000660083
0.000343889
0.000671594
0.000344071
0.000681913
0.000344248
0.000691313
0.000343907
0.000699171
0.00034305
0.000706322
0.000342643
0.000714432
0.000342405
0.00072043
0.000342013
0.000727491
0.000341249
0.000733007
0.000340639
0.00073726
0.000340203
0.000741267
0.000340141
0.000744595
0.000340307
0.000747066
0.000339872
0.000749583
0.00034019
0.000750428
0.000341741
0.000752374
0.000343507
0.000753082
0.000344832
0.000753239
0.000345458
0.00075343
0.000345964
0.000753457
0.000346952
0.000752696
0.00034808
0.000750108
0.000349196
0.000747327
0.000350556
0.000744932
0.000352775
0.000744419
0.000356196
0.000744016
0.000359997
0.000744692
0.000364146
0.000743529
0.000368535
0.000741274
0.000373111
0.000739064
0.000376989
0.000736485
0.000380725
0.0007344
0.000384297
0.000732045
0.000387887
0.000728911
0.00039207
0.000724861
0.000396072
0.000722028
0.000399986
0.000718238
0.00040324
0.00071605
0.000406292
0.000710395
0.000410257
0.000702151
0.00041151
0.000696977
0.000412053
0.000670005
0.000413362
0.000648437
0.00041385
0.00063126
0.000413635
0.000586295
0.000418678
0.000547309
0.000428916
0.000511086
0.000435739
0.000483002
0.000440447
0.000463857
0.000442492
0.000450493
0.000441607
0.000441827
0.000438344
0.000436151
0.000433683
0.000430489
0.000430027
0.000426775
0.000428034
0.000424795
0.000426783
0.000423254
0.000426391
0.000421451
0.000427072
0.000419383
0.000429113
0.000417299
0.000434365
0.000416203
0.000441427
0.000416775
0.000451019
0.000418763
0.000458858
0.000422882
0.000470902
0.000428389
0.00145369
0.00145301
0.000795766
0.00144927
0.000807748
0.00144247
0.000820023
0.00143267
0.000832579
0.00141995
0.000845408
0.00140442
0.000858492
0.0013862
0.000871811
0.00136544
0.000885339
0.0013423
0.000899045
0.00131697
0.000912896
0.00128961
0.000926857
0.00126045
0.000940891
0.00122967
0.000954959
0.00119749
0.000969018
0.0011641
0.000983033
0.00112971
0.000996975
0.00109453
0.00101076
0.00105875
0.00102439
0.00102252
0.00103786
0.000986039
0.00105106
0.000949504
0.00106391
0.000913
0.00107658
0.000876676
0.00108883
0.000840674
0.00110063
0.000805096
0.00111212
0.000770101
0.0011231
0.0007357
0.00113351
0.000701972
0.00114352
0.000668997
0.00115314
0.000636939
0.00116203
0.000605759
0.00117024
0.000575535
0.0011779
0.000546285
0.00118515
0.000517874
0.00119235
0.000490496
0.00119873
0.000464027
0.00120439
0.000438641
0.00120903
0.000414266
0.00121248
0.000390908
0.00121583
0.000368638
0.00121883
0.000347153
0.00122119
0.000326434
0.00122343
0.000306037
0.00122527
0.000290068
0.00122433
0.000297812
0.00121965
0.000334214
0.00120723
0.000323284
0.000824166
0.00029626
0.000647637
0.0003159
0.00063901
0.000331699
0.000652124
0.000343446
0.000670581
0.000350177
0.000685154
0.000354777
0.000701527
0.000356278
0.000713741
0.0003564
0.000724707
0.00035518
0.000734514
0.000354161
0.000743479
0.000352496
0.000750119
0.000351229
0.000755511
0.000350105
0.000763645
0.0003492
0.00076808
0.000348605
0.000774974
0.000347624
0.000780173
0.000346606
0.000783735
0.000345373
0.00078707
0.00034452
0.000789789
0.000344706
0.000790837
0.000344122
0.000792633
0.000343932
0.00079579
0.000344457
0.000799104
0.000345772
0.000801252
0.000347092
0.000802048
0.000348229
0.00080295
0.000348907
0.000804033
0.000349621
0.000805606
0.000350396
0.00080478
0.000351179
0.000803176
0.000352522
0.000801208
0.000356498
0.000798653
0.000360189
0.000795222
0.000364096
0.000792313
0.000368063
0.000791485
0.000371997
0.000786232
0.000375881
0.000781962
0.000379661
0.000777043
0.000383762
0.000771615
0.000387937
0.000766293
0.000392151
0.000760438
0.000396413
0.00075415
0.000399789
0.00074983
0.000403025
0.000740771
0.000405403
0.0007344
0.0004078
0.000716531
0.000410287
0.000698516
0.000410606
0.000688053
0.000410273
0.00065151
0.000410557
0.000623829
0.000413268
0.000589864
0.000423571
0.000545152
0.000434036
0.000513326
0.000441632
0.000489234
0.000446143
0.00047151
0.000448428
0.000458471
0.000447533
0.00044854
0.000444346
0.000441885
0.000439895
0.000435826
0.000435557
0.000430334
0.000433029
0.000427149
0.000431917
0.000425147
0.000431877
0.000423183
0.000432399
0.000421018
0.00043397
0.000419286
0.000437013
0.000417701
0.000442703
0.000416792
0.000450085
0.00041722
0.000459695
0.000419118
0.000468169
0.000423405
0.000479597
0.000429266
0.00145962
0.00145909
0.000807599
0.00145548
0.000821577
0.00144882
0.000835827
0.00143915
0.000850339
0.00142656
0.000865104
0.00141114
0.000880108
0.00139302
0.000895328
0.00137234
0.000910737
0.00134926
0.000926304
0.00132397
0.000941996
0.00129664
0.000957774
0.00126747
0.0009736
0.00123667
0.000989432
0.00120444
0.00100523
0.00117099
0.00102095
0.00113651
0.00103656
0.00110123
0.00105199
0.00106532
0.00106721
0.00102896
0.00108224
0.000992309
0.00109697
0.000955598
0.0011113
0.000918903
0.00112537
0.000882411
0.00113907
0.000846187
0.00115223
0.000810394
0.00116493
0.000775186
0.00117732
0.000740586
0.00118901
0.000706655
0.00120012
0.000673503
0.00121081
0.000641171
0.0012211
0.000609836
0.00123058
0.000579403
0.00123935
0.00055002
0.00124759
0.000521606
0.00125545
0.000494041
0.00126356
0.000467527
0.00127091
0.000442008
0.00127725
0.000417474
0.0012827
0.000393978
0.00128741
0.000371604
0.0012918
0.000350258
0.00129551
0.000329906
0.00129893
0.000310148
0.00130356
0.000292814
0.00130883
0.000307
0.00131132
0.000336679
0.00130614
0.000335901
0.00102989
0.000297658
0.00070762
0.000330281
0.000683986
0.000347927
0.000706483
0.000359386
0.00072915
0.000365906
0.000746091
0.000370179
0.000763668
0.000371002
0.000776408
0.000370248
0.000786575
0.000368004
0.000793753
0.000364906
0.000801885
0.000361553
0.000806773
0.000359599
0.000808844
0.000357168
0.000816392
0.000355644
0.000819026
0.000355001
0.000824862
0.000353643
0.000828692
0.000352282
0.000834504
0.000350866
0.000843411
0.000349232
0.000849741
0.000348532
0.000853709
0.000348133
0.000859126
0.000347377
0.00086094
0.000347228
0.000863229
0.000348327
0.000863291
0.000349233
0.000863323
0.000350218
0.000862823
0.000351149
0.000862269
0.000351947
0.000861846
0.00035255
0.000859672
0.000352964
0.000857032
0.000356514
0.000853012
0.000360863
0.000847621
0.000364933
0.000840995
0.000368974
0.000834768
0.000372162
0.000830992
0.000375763
0.000824081
0.000379682
0.000817475
0.000383909
0.000809998
0.000388523
0.000801099
0.000392332
0.000794362
0.000395975
0.000782454
0.000400213
0.00077337
0.000402761
0.000767156
0.000406102
0.000746569
0.000406206
0.000731777
0.000406538
0.000702672
0.000408197
0.00067925
0.000409364
0.00066377
0.000409251
0.000621263
0.000414162
0.000582167
0.000427564
0.000545568
0.000438159
0.000516579
0.00044662
0.000496422
0.000451851
0.000480803
0.000454119
0.000468376
0.000454028
0.000458314
0.000451485
0.00045054
0.000446914
0.000444052
0.000441797
0.000437292
0.000438282
0.000432414
0.000436588
0.000429355
0.00043622
0.000426826
0.000436654
0.000424205
0.000437873
0.00042219
0.000440702
0.000420524
0.000444616
0.000419224
0.000450687
0.000418142
0.000458014
0.000418274
0.000467603
0.000420099
0.000476653
0.00042448
0.000487638
0.000430448
0.00146663
0.00146622
0.00082065
0.00146275
0.000836567
0.00145622
0.000852736
0.00144668
0.000869149
0.0014342
0.000885798
0.00141888
0.000902669
0.00140085
0.000919738
0.00138024
0.000936978
0.00135722
0.000954358
0.00133195
0.000971841
0.00130463
0.000989389
0.00127544
0.00100696
0.0012446
0.00102451
0.00121231
0.001042
0.00117878
0.00105938
0.00114419
0.00107661
0.00110878
0.00109365
0.00107272
0.00111043
0.0010362
0.00112697
0.00099937
0.00114319
0.000962453
0.00115897
0.000925555
0.00117442
0.00088884
0.00118952
0.000852385
0.00120403
0.000816392
0.00121794
0.000780887
0.00123163
0.000746064
0.00124462
0.000711923
0.0012569
0.00067858
0.00126859
0.00064604
0.00127999
0.000614403
0.00129095
0.000583774
0.00130101
0.00055414
0.00131032
0.000525628
0.00131918
0.000498161
0.00132771
0.000471487
0.00133692
0.000445868
0.0013455
0.00042125
0.00135309
0.000397507
0.00135988
0.000374952
0.00136612
0.000353775
0.00137149
0.000333678
0.00137702
0.000315191
0.00138371
0.000296017
0.00139218
0.000324861
0.00140618
0.000358205
0.00141665
0.000352731
0.00136385
0.000304615
0.00081387
0.000348833
0.000739876
0.000367222
0.000771135
0.000377491
0.000797989
0.000382991
0.000816504
0.00038534
0.000831404
0.000384861
0.00084258
0.000382007
0.00084988
0.000378441
0.000853559
0.000375012
0.000859665
0.000370295
0.000864539
0.000367196
0.000863452
0.000363597
0.000870864
0.000361802
0.000872522
0.000359875
0.000884099
0.000358516
0.000893336
0.000357779
0.000900188
0.000354854
0.000907485
0.000353204
0.0009122
0.000353122
0.000916128
0.00035228
0.000917288
0.000350704
0.000919788
0.000350218
0.000920581
0.00035043
0.000920838
0.000351167
0.000918849
0.000352141
0.000915786
0.000352833
0.000912895
0.000353266
0.000909983
0.000353819
0.000906926
0.000356632
0.000901482
0.000361255
0.0008956
0.000365794
0.000888616
0.000369951
0.000879004
0.000373767
0.000870039
0.000376543
0.00086321
0.000380363
0.000852559
0.000384365
0.000843885
0.000388353
0.000835715
0.000393281
0.000821183
0.000396757
0.000811428
0.000399988
0.000789391
0.00040278
0.000774934
0.000403582
0.000760874
0.000405517
0.000727707
0.000406625
0.000714717
0.000406014
0.000682003
0.000404969
0.000650107
0.000408297
0.00061586
0.000418713
0.000576353
0.000431045
0.000545389
0.000441665
0.000521258
0.000449715
0.000503561
0.000455697
0.000490079
0.000459057
0.000478828
0.000459782
0.000469043
0.000458187
0.000460917
0.000454273
0.000454181
0.000448912
0.000447084
0.000444385
0.000440727
0.000441684
0.000436157
0.000440615
0.00043267
0.000440578
0.000429448
0.000441365
0.000426636
0.000443522
0.00042446
0.000447277
0.000422907
0.000452004
0.000421712
0.000458194
0.000420147
0.000465392
0.000419873
0.000474992
0.000421803
0.000484487
0.000426177
0.000495229
0.00043194
0.0014747
0.00147441
0.000834932
0.00147106
0.000852726
0.00146465
0.000870754
0.00145523
0.000889009
0.00144286
0.000907485
0.00142763
0.000926165
0.00140968
0.000945028
0.00138913
0.000964046
0.00136615
0.000983184
0.00134089
0.00100241
0.00131357
0.00102167
0.00128435
0.00104094
0.00125346
0.00106016
0.00122109
0.00107929
0.00118745
0.00109828
0.00115274
0.0011171
0.00111717
0.00113569
0.00108095
0.00115398
0.00104424
0.001172
0.00100721
0.00118967
0.000970062
0.00120686
0.000932942
0.00122364
0.000895957
0.00124011
0.00085927
0.00125592
0.00082302
0.00127108
0.000787262
0.0012859
0.000752138
0.00130024
0.000717736
0.00131374
0.000684167
0.00132651
0.000651469
0.0013388
0.000619534
0.00135093
0.000588603
0.00136258
0.000558707
0.00137323
0.000529936
0.00138311
0.000502277
0.00139259
0.000475771
0.00140189
0.000450002
0.00141193
0.000425256
0.0014221
0.000401555
0.00143152
0.000378854
0.00144048
0.000357221
0.00144884
0.000337685
0.0014559
0.000319472
0.00146411
0.000302663
0.00147576
0.000341912
0.00150211
0.000322944
0.00152391
0.000359748
0.00155546
0.000324984
0.00102533
0.000363925
0.000795008
0.00038293
0.000838361
0.000391111
0.000864692
0.000395409
0.000882491
0.000397999
0.000894936
0.000397646
0.000903911
0.000393033
0.00090968
0.000387796
0.000913428
0.000383276
0.000917447
0.000377588
0.000920709
0.000374303
0.000917217
0.000370011
0.000930018
0.000367476
0.00093776
0.000365078
0.000945851
0.000362968
0.000956111
0.000362176
0.000958326
0.000359745
0.000964686
0.00035657
0.000968774
0.000356494
0.000971352
0.000356622
0.000971936
0.000355439
0.000972383
0.000353215
0.000972405
0.000352362
0.000969639
0.000352415
0.000966326
0.000352937
0.000961672
0.000353379
0.0009554
0.000353587
0.000950504
0.000357111
0.000944006
0.000361367
0.000937076
0.000366092
0.000929698
0.000370801
0.00092163
0.000375168
0.000908572
0.000378997
0.000897063
0.000381861
0.000888073
0.00038515
0.000869487
0.000389493
0.000857764
0.00039295
0.000847397
0.000396843
0.000823547
0.000399545
0.000805649
0.000402079
0.000773264
0.000404359
0.000754572
0.000403927
0.000745444
0.000403384
0.000704382
0.00040488
0.000679707
0.000404397
0.000641572
0.000410614
0.000603232
0.000423177
0.000572172
0.000434467
0.000546054
0.000443952
0.000525839
0.000452314
0.000510914
0.000458144
0.000499454
0.000462019
0.00048871
0.000463782
0.000479718
0.00046325
0.000471645
0.000460816
0.000464942
0.000456708
0.000458164
0.000451574
0.000451371
0.000447585
0.000445308
0.000445527
0.000440595
0.000444717
0.000436512
0.000444867
0.000432797
0.000446403
0.000429914
0.000449319
0.000427723
0.00045376
0.000426214
0.000459035
0.000424577
0.000465226
0.000422653
0.000472484
0.000421972
0.000482174
0.00042405