/*--------------------------------*- C++ -*----------------------------------*\
| =========                 |                                                 |
| \\      /  F ield         | OpenFOAM: The Open Source CFD Toolbox           |
|  \\    /   O peration     | Version:  2.2.x                                 |
|   \\  /    A nd           | Web:      www.OpenFOAM.org                      |
|    \\/     M anipulation  |                                                 |
\*---------------------------------------------------------------------------*/
FoamFile
{
    version     2.0;
    format      ascii;
    class       volScalarField;
    location    "1.4";
    object      p;
}
// * * * * * * * * * * * * * * * * * * * * * * * * * * * * * * * * * * * * * //

dimensions      [1 -1 -2 0 0 0 0];

internalField   nonuniform List<scalar> 
14161
(
0.199839
0.199842
0.199826
0.199797
0.199753
0.199691
0.19961
0.199507
0.199379
0.199224
0.199036
0.198813
0.198552
0.198249
0.197896
0.197514
0.197075
0.196575
0.196071
0.195518
0.19488
0.194294
0.193675
0.193029
0.192404
0.191803
0.191493
0.191191
0.19092
0.190865
0.190948
0.191224
0.191746
0.19255
0.193675
0.195188
0.197074
0.199526
0.202304
0.205338
0.209802
0.214587
0.218743
0.222189
0.227878
0.22746
1.01932
1.58246
1.64431
1.65952
1.65647
1.64068
1.61703
1.5932
1.5578
1.52878
1.50054
1.47293
1.44624
1.41927
1.39511
1.37407
1.35566
1.33797
1.32036
1.30352
1.28842
1.27464
1.2625
1.25258
1.24574
1.23955
1.23187
1.22307
1.21425
1.20529
1.19766
1.18971
1.18197
1.17328
1.16555
1.15998
1.15486
1.14321
1.12693
1.10513
1.08763
1.07178
1.06349
1.04885
1.0387
1.0113
0.98847
0.966332
0.937657
0.917234
0.901509
0.881372
0.862208
0.841077
0.820423
0.809093
0.810248
0.849569
0.891354
1.02296
1.23464
1.45033
1.61637
1.73291
1.81451
1.86893
1.90841
1.93835
1.96117
1.98022
1.99372
1.99956
2.01975
0.199838
0.199842
0.199826
0.199797
0.199752
0.199691
0.19961
0.199507
0.199379
0.199223
0.199036
0.198813
0.198552
0.198249
0.197897
0.197514
0.197072
0.196578
0.196071
0.195513
0.194889
0.194287
0.193668
0.193006
0.1924
0.19183
0.191456
0.191153
0.190906
0.190844
0.190909
0.191165
0.191664
0.192452
0.193563
0.195046
0.196909
0.199327
0.202135
0.20507
0.209348
0.214242
0.218666
0.222294
0.22882
0.230772
1.03056
1.58382
1.64899
1.66274
1.65417
1.63887
1.6112
1.58955
1.55455
1.52577
1.49727
1.46984
1.44195
1.41516
1.39085
1.36968
1.35029
1.33092
1.31294
1.29726
1.28308
1.27072
1.25882
1.2476
1.23862
1.23192
1.22559
1.21746
1.20919
1.20052
1.19227
1.18428
1.17673
1.16801
1.16021
1.15243
1.14365
1.13211
1.11949
1.10047
1.08456
1.0698
1.05997
1.04157
1.03066
1.00286
0.983259
0.963071
0.935894
0.91584
0.896573
0.874908
0.855
0.836336
0.822773
0.826086
0.850485
0.927633
1.03759
1.24794
1.46668
1.63726
1.74725
1.8223
1.87425
1.91058
1.93987
1.96321
1.98042
1.99467
2.00252
1.99829
2.02134
0.199838
0.199842
0.199826
0.199797
0.199753
0.199691
0.19961
0.199507
0.19938
0.199224
0.199036
0.198813
0.198552
0.198249
0.1979
0.197511
0.197071
0.196582
0.196064
0.195505
0.194898
0.194277
0.193653
0.192983
0.192397
0.191849
0.191396
0.191059
0.190859
0.190773
0.190821
0.191026
0.191462
0.192203
0.193266
0.194684
0.196493
0.198794
0.201603
0.204356
0.208181
0.213158
0.217703
0.22187
0.227851
0.234136
1.02866
1.57925
1.65157
1.66574
1.65327
1.63839
1.60546
1.58134
1.5454
1.51551
1.48645
1.45916
1.43174
1.40415
1.37973
1.35661
1.33595
1.31662
1.29798
1.28384
1.27195
1.2603
1.24969
1.23992
1.23
1.22161
1.21369
1.20558
1.19759
1.18956
1.18201
1.17508
1.16833
1.16006
1.15194
1.14166
1.12884
1.11654
1.10771
1.09392
1.08184
1.06788
1.05612
1.03387
1.01965
0.992429
0.97504
0.95873
0.933404
0.912794
0.891534
0.869612
0.853862
0.846604
0.847395
0.88063
0.946838
1.0795
1.26179
1.45257
1.62286
1.73021
1.80321
1.85869
1.89796
1.92648
1.95118
1.97039
1.9845
1.99428
1.99854
1.98885
2.01082
0.199839
0.199842
0.199826
0.199797
0.199753
0.199691
0.19961
0.199507
0.19938
0.199224
0.199036
0.198813
0.198552
0.198249
0.197902
0.197506
0.197068
0.196589
0.196057
0.195488
0.194906
0.194265
0.193639
0.192973
0.192364
0.191848
0.191335
0.190924
0.19075
0.190653
0.190654
0.190802
0.19113
0.191756
0.192719
0.194046
0.195736
0.197853
0.200477
0.203212
0.206479
0.210845
0.215812
0.220903
0.226258
0.234919
1.01318
1.56942
1.64857
1.66614
1.64693
1.63366
1.59485
1.56994
1.53297
1.50078
1.46941
1.43933
1.4113
1.38397
1.35721
1.33391
1.31101
1.29146
1.27431
1.2597
1.24766
1.23716
1.22752
1.21952
1.21076
1.20157
1.19328
1.18533
1.17812
1.17073
1.16295
1.15576
1.14933
1.14301
1.13372
1.12301
1.11094
1.09776
1.08839
1.07947
1.06772
1.05493
1.04179
1.01955
1.00455
0.978793
0.961307
0.946415
0.925002
0.905023
0.8872
0.8695
0.866272
0.877936
0.911309
1.00216
1.1617
1.36237
1.54752
1.68066
1.75636
1.81868
1.86634
1.90071
1.92304
1.94583
1.96544
1.97942
1.98699
1.99025
1.99152
1.97885
1.99967
0.199839
0.199842
0.199826
0.199797
0.199753
0.199691
0.19961
0.199508
0.19938
0.199224
0.199036
0.198814
0.198552
0.198249
0.197903
0.197503
0.197067
0.196595
0.19605
0.195481
0.194912
0.194246
0.193621
0.192966
0.192296
0.191826
0.191323
0.190796
0.190515
0.190444
0.190399
0.19045
0.190651
0.19108
0.191857
0.193023
0.194526
0.196406
0.198708
0.201287
0.203819
0.207524
0.212297
0.218559
0.223437
0.23328
0.984862
1.55981
1.6445
1.66341
1.63303
1.61715
1.57265
1.54596
1.50681
1.47293
1.43959
1.40854
1.38029
1.35241
1.3265
1.30234
1.28052
1.25901
1.24073
1.22708
1.215
1.20407
1.19592
1.18817
1.18086
1.17381
1.16622
1.1586
1.15195
1.14534
1.1368
1.12894
1.12258
1.11874
1.11041
1.09959
1.08754
1.07369
1.0633
1.05587
1.04596
1.03254
1.02024
0.998747
0.984314
0.961409
0.946253
0.933314
0.916878
0.900815
0.892714
0.883591
0.909543
0.957846
1.06239
1.24339
1.43864
1.60948
1.71193
1.77068
1.82227
1.86462
1.89378
1.91346
1.93483
1.9566
1.97253
1.98051
1.98399
1.98339
1.98234
1.96978
1.98808
0.199839
0.199843
0.199826
0.199797
0.199753
0.199691
0.199611
0.199508
0.19938
0.199225
0.199037
0.198815
0.198552
0.198249
0.197905
0.197502
0.197067
0.196598
0.196045
0.195477
0.194908
0.194231
0.193595
0.192965
0.192241
0.191737
0.191267
0.190675
0.190248
0.190079
0.190047
0.190002
0.190038
0.190199
0.190711
0.191539
0.192779
0.194422
0.196302
0.19843
0.200366
0.202989
0.2071
0.21439
0.21989
0.230747
0.940772
1.54422
1.6383
1.65878
1.61227
1.59296
1.53987
1.50888
1.47059
1.43508
1.39822
1.36378
1.3352
1.30698
1.28181
1.25902
1.23713
1.21537
1.19752
1.18402
1.17316
1.16356
1.15494
1.1462
1.13893
1.13329
1.12817
1.12257
1.11623
1.11043
1.1016
1.09282
1.0846
1.07953
1.07632
1.06714
1.05695
1.04429
1.03347
1.02324
1.01531
1.00417
0.993743
0.97465
0.962831
0.944725
0.934456
0.927587
0.912098
0.912451
0.923091
0.931373
1.01365
1.14074
1.32305
1.51084
1.65523
1.72325
1.76958
1.81631
1.85698
1.88112
1.89784
1.92187
1.9446
1.96225
1.97247
1.97591
1.97828
1.97584
1.97286
1.96114
1.97614
0.19984
0.199843
0.199827
0.199798
0.199753
0.199692
0.199611
0.199509
0.199381
0.199225
0.199038
0.198816
0.198554
0.19825
0.197906
0.197503
0.197066
0.196596
0.196044
0.195468
0.194895
0.19423
0.193558
0.192935
0.192221
0.191608
0.191147
0.190601
0.190002
0.189633
0.189531
0.189439
0.189329
0.189167
0.189228
0.189645
0.190427
0.191721
0.193025
0.194502
0.19619
0.19756
0.200392
0.206119
0.212803
0.227353
0.850966
1.51085
1.6266
1.64689
1.57496
1.54997
1.48754
1.45326
1.41197
1.37761
1.34357
1.30713
1.28024
1.24924
1.22705
1.2069
1.18551
1.16887
1.15055
1.13563
1.1248
1.11905
1.11204
1.10243
1.09475
1.08884
1.08429
1.08073
1.07633
1.07036
1.0625
1.05338
1.04424
1.03754
1.03362
1.02912
1.02275
1.0137
1.0046
0.994736
0.986232
0.977871
0.969793
0.956502
0.948892
0.937249
0.934985
0.93912
0.927178
0.958831
1.00424
1.06413
1.2297
1.40297
1.56756
1.67501
1.72085
1.75402
1.79419
1.83755
1.8661
1.882
1.90346
1.92806
1.94774
1.95973
1.96615
1.96993
1.97191
1.96802
1.96392
1.95285
1.96496
0.19984
0.199843
0.199827
0.199798
0.199754
0.199693
0.199612
0.19951
0.199382
0.199227
0.19904
0.198817
0.198556
0.198252
0.197906
0.197505
0.197065
0.196593
0.196044
0.195456
0.194879
0.194235
0.193517
0.192885
0.192217
0.191494
0.190953
0.190426
0.189799
0.189209
0.188865
0.188686
0.188469
0.188153
0.187625
0.187398
0.187549
0.18812
0.18884
0.18951
0.190393
0.191313
0.19192
0.193968
0.198044
0.217221
0.69155
1.45817
1.61267
1.62957
1.52487
1.48948
1.41723
1.37504
1.34158
1.30998
1.28098
1.24749
1.22783
1.19292
1.17239
1.15353
1.13258
1.11876
1.10178
1.08704
1.07681
1.06802
1.06317
1.05617
1.0484
1.04251
1.03701
1.034
1.03002
1.02654
1.021
1.01413
1.00586
0.999946
0.995601
0.994061
0.994797
0.988683
0.980872
0.973345
0.965784
0.962108
0.959946
0.950914
0.952422
0.944461
0.959859
0.983436
0.988954
1.07124
1.17927
1.3184
1.48281
1.61855
1.68438
1.7149
1.73743
1.76666
1.80488
1.83853
1.86158
1.88193
1.90619
1.92868
1.94346
1.95153
1.95888
1.9636
1.96536
1.95941
1.9548
1.9452
1.95512
0.199841
0.199844
0.199828
0.199799
0.199755
0.199694
0.199613
0.199511
0.199384
0.199229
0.199042
0.19882
0.198558
0.198255
0.197908
0.19751
0.197063
0.196589
0.196047
0.195447
0.194859
0.194229
0.193468
0.192818
0.192172
0.191423
0.190707
0.19015
0.189573
0.188863
0.188171
0.187741
0.18736
0.186933
0.186285
0.185152
0.184339
0.183887
0.183658
0.18327
0.183078
0.182873
0.182131
0.180098
0.179681
0.19327
0.423074
1.32095
1.60016
1.59305
1.45611
1.40154
1.33491
1.29342
1.26935
1.24371
1.22193
1.18911
1.17411
1.14166
1.12105
1.10532
1.085
1.07059
1.05484
1.04393
1.03422
1.02554
1.02114
1.01354
1.00532
0.999824
0.994526
0.992182
0.989552
0.987186
0.985265
0.981748
0.976249
0.971687
0.968963
0.968317
0.973281
0.971581
0.967507
0.967047
0.959518
0.966557
0.968775
0.958908
0.982934
0.985896
1.02202
1.079
1.14493
1.287
1.43114
1.56293
1.65624
1.69224
1.70998
1.72278
1.74252
1.76978
1.79884
1.8301
1.85511
1.87994
1.90517
1.92373
1.93392
1.94274
1.95131
1.95695
1.95769
1.94993
1.94567
1.93816
1.94689
0.199842
0.199845
0.199829
0.1998
0.199756
0.199695
0.199615
0.199513
0.199386
0.199231
0.199045
0.198823
0.198562
0.198258
0.19791
0.197515
0.197063
0.196586
0.196048
0.195438
0.194843
0.194214
0.193427
0.192731
0.192092
0.191355
0.190488
0.189813
0.189221
0.188524
0.187591
0.186741
0.186108
0.185429
0.184637
0.183474
0.181579
0.17985
0.178282
0.176661
0.174832
0.173222
0.170736
0.167278
0.158418
0.158751
0.167734
1.02248
1.6251
1.5362
1.39635
1.31819
1.25661
1.22278
1.20182
1.1809
1.16822
1.13086
1.12197
1.09187
1.07334
1.0592
1.03619
1.0243
1.00857
0.999301
0.991431
0.985579
0.98084
0.97539
0.967776
0.96328
0.960523
0.958441
0.957027
0.956718
0.957809
0.958423
0.956892
0.955466
0.955215
0.953778
0.962619
0.967601
0.964168
0.974278
0.969718
0.989337
1.00052
0.995905
1.05029
1.08886
1.17445
1.28521
1.40582
1.53175
1.63654
1.68397
1.69914
1.70651
1.71145
1.72242
1.74004
1.76127
1.79133
1.8216
1.85035
1.87722
1.89985
1.91381
1.92364
1.93379
1.94376
1.94957
1.94786
1.94012
1.93673
1.93155
1.93987
0.199843
0.199846
0.19983
0.199801
0.199757
0.199696
0.199616
0.199515
0.199388
0.199234
0.199048
0.198827
0.198566
0.198263
0.197914
0.197519
0.197067
0.196583
0.196044
0.195433
0.194821
0.194185
0.193402
0.192649
0.191992
0.191242
0.190295
0.189481
0.188753
0.188062
0.187167
0.185892
0.184808
0.183787
0.182763
0.18154
0.179824
0.177064
0.174188
0.170971
0.167411
0.163076
0.159516
0.15329
0.139935
0.120401
0.115318
0.583239
1.65181
1.48781
1.3568
1.2705
1.20737
1.1758
1.15038
1.12652
1.10993
1.08278
1.0762
1.04587
1.02774
1.01856
0.992775
0.982866
0.968777
0.962435
0.957101
0.95108
0.946001
0.943011
0.941188
0.937475
0.936385
0.937434
0.936479
0.937743
0.942213
0.946104
0.947183
0.949918
0.952822
0.949483
0.966613
0.980414
0.980899
1.00432
1.00998
1.04537
1.08352
1.10906
1.21315
1.30844
1.41374
1.52566
1.63252
1.69143
1.70599
1.70882
1.70521
1.70489
1.70757
1.71841
1.73092
1.75422
1.78484
1.81716
1.84717
1.87329
1.89097
1.90205
1.91416
1.92605
1.93544
1.93901
1.9363
1.93097
1.92908
1.9248
1.93255
0.199844
0.199847
0.199831
0.199802
0.199759
0.199698
0.199619
0.199517
0.199391
0.199238
0.199052
0.198831
0.198571
0.198268
0.197919
0.197524
0.197075
0.196581
0.196035
0.195432
0.194795
0.194138
0.193395
0.192574
0.191849
0.191091
0.190192
0.18915
0.188266
0.187559
0.186669
0.185426
0.183732
0.182338
0.180888
0.17962
0.178097
0.175818
0.171829
0.167752
0.163259
0.158599
0.154578
0.15185
0.145387
0.140113
0.163916
0.39034
1.55704
1.42418
1.36281
1.2767
1.20011
1.16374
1.1266
1.08982
1.06325
1.04161
1.03686
1.00827
0.992974
0.988558
0.963146
0.953284
0.943081
0.937438
0.934164
0.928506
0.924447
0.922424
0.922996
0.922772
0.924487
0.927118
0.928027
0.932653
0.939301
0.945168
0.949567
0.958134
0.968433
0.968419
0.997118
1.01968
1.03398
1.08597
1.12611
1.1901
1.26169
1.33401
1.44794
1.55367
1.64372
1.70327
1.72186
1.72564
1.71329
1.70539
1.70185
1.70071
1.70506
1.71218
1.7275
1.75268
1.78376
1.81546
1.84424
1.86553
1.87998
1.89242
1.90676
1.91842
1.92483
1.92512
1.92422
1.92366
1.92274
1.91733
1.9243
0.199845
0.199848
0.199832
0.199804
0.19976
0.1997
0.199621
0.199521
0.199395
0.199242
0.199058
0.198837
0.198578
0.198275
0.197926
0.19753
0.197084
0.196582
0.196027
0.195434
0.194776
0.194091
0.193368
0.192511
0.191693
0.190963
0.190076
0.18886
0.187835
0.187002
0.186229
0.185034
0.182939
0.181225
0.17956
0.17788
0.176717
0.174497
0.17127
0.166451
0.162028
0.1575
0.152794
0.149375
0.142656
0.13886
0.163018
0.37881
1.15713
1.30752
1.33467
1.29073
1.19225
1.15629
1.11605
1.07517
1.03828
1.01339
1.00959
0.984631
0.9739
0.970554
0.9489
0.938087
0.928351
0.924637
0.922486
0.918899
0.91623
0.915731
0.918669
0.91955
0.924034
0.928832
0.929546
0.941617
0.95366
0.960958
0.976913
0.994657
1.02139
1.03715
1.08524
1.13634
1.18381
1.26147
1.34479
1.42365
1.50221
1.58469
1.66741
1.72851
1.73764
1.74268
1.73119
1.71745
1.70667
1.70223
1.69912
1.69898
1.70292
1.71155
1.73032
1.75525
1.78425
1.81262
1.83721
1.85532
1.86984
1.88538
1.90002
1.90867
1.91135
1.91151
1.9138
1.91699
1.91561
1.90934
1.9162
0.199847
0.19985
0.199834
0.199806
0.199762
0.199703
0.199624
0.199524
0.1994
0.199247
0.199064
0.198844
0.198585
0.198284
0.197934
0.197538
0.197093
0.196585
0.196026
0.195439
0.194768
0.194048
0.193317
0.192477
0.191595
0.190802
0.189899
0.188665
0.187535
0.186501
0.185757
0.184524
0.182553
0.180562
0.178735
0.176885
0.175784
0.174015
0.171469
0.166948
0.163151
0.159645
0.156397
0.153153
0.152779
0.163779
0.197034
0.556862
0.862418
1.11566
1.25738
1.27855
1.20484
1.16752
1.12373
1.08069
1.0399
1.0121
0.999558
0.975069
0.966347
0.957714
0.943453
0.935435
0.924172
0.921004
0.920324
0.918729
0.916436
0.917546
0.924704
0.926659
0.938587
0.949719
0.953463
0.981816
1.00365
1.02139
1.05941
1.09348
1.15572
1.21034
1.27067
1.35318
1.42713
1.50828
1.59217
1.65569
1.7096
1.74272
1.75612
1.76115
1.74446
1.73258
1.72028
1.71003
1.7025
1.70022
1.69864
1.70026
1.70372
1.71495
1.73277
1.75598
1.78183
1.80686
1.82861
1.84619
1.86256
1.87895
1.89064
1.89619
1.89814
1.90126
1.90536
1.90763
1.90633
1.90219
1.90874
0.199848
0.199851
0.199836
0.199808
0.199765
0.199706
0.199628
0.199528
0.199405
0.199253
0.199071
0.198853
0.198594
0.198294
0.197946
0.19755
0.197101
0.196588
0.196034
0.195443
0.194759
0.194014
0.19326
0.192447
0.191554
0.190622
0.189657
0.188527
0.187355
0.186154
0.185266
0.184027
0.18234
0.180227
0.1784
0.176654
0.175308
0.173971
0.171831
0.167753
0.164727
0.162205
0.160274
0.15877
0.160997
0.190352
0.430286
0.80508
0.820166
0.915687
1.06449
1.21117
1.21753
1.18486
1.13365
1.09691
1.05562
1.02114
0.999694
0.980114
0.966499
0.950375
0.941638
0.938397
0.928776
0.923468
0.92305
0.927368
0.930663
0.932717
0.949362
0.957381
0.986597
1.00965
1.02736
1.08163
1.1305
1.17623
1.24083
1.30946
1.39175
1.469
1.52446
1.59887
1.66518
1.72588
1.76192
1.7667
1.77076
1.7733
1.75745
1.74366
1.73134
1.72384
1.71229
1.7041
1.7009
1.70049
1.70054
1.70135
1.7064
1.71766
1.7339
1.75452
1.77748
1.7997
1.82065
1.83972
1.85757
1.87073
1.87811
1.88273
1.88766
1.89375
1.89615
1.89594
1.89666
1.89604
1.902
0.19985
0.199853
0.199838
0.19981
0.199767
0.199709
0.199632
0.199533
0.199411
0.19926
0.199079
0.198862
0.198605
0.198303
0.197961
0.197565
0.19711
0.196593
0.196055
0.195449
0.194755
0.194001
0.193218
0.192427
0.191541
0.190491
0.189439
0.188349
0.187226
0.186007
0.1849
0.183623
0.182036
0.180085
0.178387
0.176755
0.17544
0.174102
0.172255
0.168977
0.16703
0.165435
0.163872
0.161334
0.165813
0.194969
0.660215
0.824725
0.822024
0.838573
0.884832
1.05218
1.14684
1.19392
1.13939
1.12904
1.06822
1.0423
1.00268
0.988777
0.971924
0.959815
0.948829
0.951333
0.94107
0.944659
0.942964
0.958502
0.974572
0.982861
1.02482
1.05448
1.10558
1.16088
1.20535
1.28302
1.35981
1.42719
1.49901
1.57379
1.63673
1.69347
1.73255
1.76299
1.7822
1.78894
1.79113
1.77891
1.7669
1.75545
1.74242
1.73381
1.72358
1.71474
1.70554
1.70153
1.70115
1.701
1.70051
1.70226
1.70879
1.71956
1.73435
1.75242
1.7729
1.79386
1.81517
1.83531
1.85041
1.85964
1.86588
1.87076
1.87839
1.88448
1.88485
1.88538
1.88787
1.88918
1.89416
0.199852
0.199855
0.19984
0.199812
0.19977
0.199712
0.199636
0.199539
0.199417
0.199268
0.199089
0.198874
0.198617
0.198316
0.19798
0.197581
0.197122
0.196612
0.196079
0.19546
0.194749
0.19399
0.193212
0.192431
0.191522
0.190392
0.189301
0.188175
0.187128
0.185976
0.184718
0.183352
0.181744
0.180099
0.178561
0.177054
0.175918
0.174384
0.172444
0.170328
0.169214
0.16884
0.169333
0.171416
0.19232
0.3649
0.801828
0.849747
0.840903
0.839648
0.850327
0.914932
0.968822
1.13824
1.15927
1.16701
1.08732
1.07116
1.01657
1.00054
0.987285
0.982743
0.968448
0.985812
0.966317
1.003
1.0158
1.04093
1.09135
1.12219
1.19575
1.26042
1.32894
1.40621
1.46901
1.53611
1.60432
1.66955
1.72024
1.75346
1.77089
1.78036
1.7873
1.79434
1.79552
1.78607
1.77352
1.76611
1.75539
1.74414
1.73261
1.72566
1.71615
1.70695
1.702
1.70108
1.70098
1.69995
1.69954
1.7026
1.71026
1.72115
1.73441
1.75029
1.7692
1.78995
1.81109
1.82825
1.83997
1.84843
1.85508
1.86192
1.86854
1.87226
1.87319
1.87711
1.88075
1.88096
1.88514
0.199855
0.199857
0.199842
0.199815
0.199774
0.199717
0.199641
0.199545
0.199425
0.199278
0.1991
0.198886
0.19863
0.198334
0.198002
0.197601
0.197138
0.196642
0.196107
0.195475
0.194748
0.193979
0.193241
0.192436
0.191487
0.190324
0.189221
0.188086
0.18713
0.185953
0.184644
0.183102
0.181597
0.180162
0.178852
0.177703
0.176286
0.174678
0.172531
0.171284
0.170315
0.169621
0.169631
0.170856
0.189902
0.569005
0.890505
0.891104
0.876399
0.864456
0.855816
0.859336
0.89443
0.993982
1.0802
1.13307
1.10408
1.11366
1.045
1.02892
1.02679
1.02944
1.02249
1.06455
1.05993
1.13274
1.18224
1.20641
1.30594
1.37331
1.44602
1.51867
1.58113
1.64347
1.69522
1.72995
1.758
1.77493
1.78257
1.78703
1.7905
1.79099
1.78677
1.78272
1.77822
1.77219
1.76346
1.75459
1.74349
1.73429
1.72579
1.71848
1.70892
1.70273
1.70124
1.70039
1.69951
1.69839
1.69949
1.70336
1.71109
1.72168
1.73361
1.74788
1.76618
1.78677
1.80511
1.81823
1.82866
1.8384
1.84651
1.85438
1.85712
1.85939
1.86274
1.86957
1.87292
1.87196
1.87587
0.199857
0.19986
0.199845
0.199818
0.199778
0.199722
0.199647
0.199552
0.199434
0.199288
0.199113
0.198901
0.198646
0.198356
0.198027
0.197624
0.197161
0.196678
0.196144
0.195487
0.194746
0.19398
0.193307
0.192465
0.191415
0.190284
0.189181
0.188119
0.187177
0.18597
0.184405
0.182981
0.181622
0.18038
0.179432
0.178158
0.176762
0.174538
0.173033
0.171968
0.171062
0.170046
0.168958
0.174311
0.211346
0.723351
0.898638
0.904073
0.89475
0.886345
0.872229
0.867371
0.868358
0.898641
0.959831
1.04493
1.13194
1.12517
1.10502
1.08173
1.11242
1.13964
1.14059
1.22273
1.26731
1.34457
1.41724
1.472
1.55746
1.61902
1.67309
1.71419
1.74058
1.75916
1.77074
1.77797
1.7845
1.78633
1.78316
1.78036
1.77948
1.77872
1.7756
1.77146
1.7653
1.76168
1.75342
1.74377
1.73401
1.7277
1.72001
1.71176
1.70461
1.70166
1.70025
1.69848
1.69698
1.6978
1.70013
1.70432
1.71117
1.72077
1.73213
1.74556
1.76289
1.78224
1.79761
1.80762
1.81776
1.82893
1.83834
1.84481
1.84582
1.84789
1.85353
1.86127
1.86388
1.86244
1.86658
0.19986
0.199863
0.199848
0.199822
0.199782
0.199727
0.199654
0.19956
0.199443
0.199301
0.199127
0.198918
0.198665
0.198381
0.198054
0.197651
0.197188
0.196723
0.196197
0.19549
0.194754
0.194021
0.193386
0.192521
0.191315
0.190245
0.189171
0.188246
0.187214
0.185882
0.184272
0.182944
0.181699
0.180852
0.179959
0.178676
0.176857
0.174812
0.173635
0.172912
0.172424
0.172732
0.174243
0.192718
0.348619
0.845391
0.912212
0.914805
0.913892
0.914052
0.898871
0.885796
0.875631
0.889401
0.905646
0.951597
1.09605
1.15689
1.20712
1.20773
1.28068
1.32978
1.37209
1.44927
1.51786
1.57914
1.6394
1.68451
1.72153
1.74339
1.75729
1.76755
1.77392
1.77782
1.77891
1.77427
1.77135
1.77188
1.77215
1.77227
1.76899
1.76713
1.76196
1.75862
1.75339
1.75031
1.74346
1.73539
1.72737
1.72218
1.71432
1.70743
1.70305
1.70146
1.69861
1.69583
1.69553
1.69769
1.70133
1.7053
1.71071
1.71883
1.7302
1.74319
1.75905
1.77608
1.78864
1.7978
1.80844
1.81949
1.82726
1.83257
1.83498
1.8395
1.8462
1.85267
1.85439
1.85306
1.85746
0.199863
0.199866
0.199852
0.199826
0.199786
0.199733
0.199661
0.199568
0.199455
0.199316
0.199143
0.198936
0.198691
0.198412
0.198085
0.197682
0.197224
0.196776
0.196252
0.195502
0.194785
0.194109
0.193458
0.192561
0.191297
0.190245
0.189213
0.188472
0.187341
0.185712
0.184208
0.182987
0.181897
0.181368
0.180333
0.179194
0.176887
0.175376
0.174365
0.173468
0.172587
0.172506
0.17387
0.1978
0.557947
0.936368
0.937595
0.931755
0.926019
0.921767
0.913216
0.90509
0.893008
0.910451
0.925506
0.939208
1.13962
1.27419
1.38449
1.44989
1.49831
1.55474
1.60416
1.65377
1.69085
1.71531
1.73517
1.74782
1.75727
1.76366
1.76727
1.76765
1.76451
1.76347
1.76304
1.76302
1.76177
1.76295
1.76096
1.75978
1.75613
1.75378
1.75014
1.74807
1.74376
1.74047
1.73468
1.72853
1.72211
1.71713
1.70995
1.70483
1.70256
1.69998
1.69661
1.69424
1.6949
1.69769
1.70148
1.70528
1.70982
1.71697
1.72786
1.74041
1.75479
1.769
1.77948
1.78967
1.80098
1.81003
1.81471
1.81951
1.82437
1.83231
1.83891
1.84388
1.84538
1.8448
1.84937
0.199867
0.199869
0.199855
0.19983
0.199791
0.19974
0.199669
0.199577
0.199468
0.199333
0.199161
0.198955
0.198723
0.198448
0.198117
0.19772
0.197269
0.196836
0.196303
0.195542
0.194847
0.194214
0.193536
0.192592
0.191329
0.190289
0.189375
0.188619
0.187482
0.185628
0.18423
0.1831
0.182198
0.181643
0.180584
0.179329
0.177191
0.175951
0.174886
0.173741
0.172119
0.170475
0.175624
0.213752
0.751763
0.95095
0.956635
0.953437
0.944933
0.938576
0.936027
0.929752
0.926776
0.968279
1.00253
1.06834
1.33069
1.49331
1.61162
1.65624
1.68076
1.69971
1.71378
1.72406
1.73308
1.74052
1.74581
1.74788
1.7454
1.74633
1.74827
1.74984
1.75135
1.75059
1.74947
1.75026
1.74902
1.74962
1.74787
1.74669
1.7432
1.74122
1.73803
1.73723
1.73424
1.73123
1.72666
1.72332
1.71809
1.7128
1.70633
1.70286
1.70063
1.69739
1.69361
1.69276
1.69425
1.6973
1.70088
1.70436
1.70853
1.71534
1.72558
1.73729
1.74993
1.7614
1.77121
1.78238
1.79193
1.79846
1.80259
1.80762
1.81433
1.82256
1.82964
1.83467
1.83715
1.83816
1.84273
0.19987
0.199873
0.19986
0.199835
0.199797
0.199747
0.199678
0.199588
0.199483
0.199351
0.199181
0.198976
0.198759
0.198491
0.198153
0.197765
0.197326
0.196901
0.196361
0.19562
0.19494
0.194311
0.193612
0.192627
0.191412
0.19041
0.189558
0.188725
0.187552
0.185752
0.184461
0.183369
0.182497
0.181762
0.180642
0.179111
0.177692
0.176742
0.176023
0.175376
0.175064
0.176011
0.195338
0.345623
0.881499
0.957013
0.962876
0.962051
0.959804
0.957384
0.96285
0.963977
0.969697
1.05658
1.13376
1.28978
1.55957
1.70113
1.74536
1.73923
1.73479
1.73268
1.73115
1.72891
1.72522
1.72337
1.7248
1.72705
1.72941
1.72844
1.73077
1.73207
1.73322
1.73367
1.73323
1.73473
1.73424
1.73481
1.7335
1.73293
1.73102
1.72991
1.72746
1.7274
1.72544
1.72341
1.72023
1.71808
1.71204
1.7062
1.70106
1.69885
1.69637
1.69232
1.68966
1.68997
1.69197
1.69464
1.69793
1.70143
1.70605
1.71322
1.72268
1.73311
1.74397
1.75387
1.76434
1.77438
1.78116
1.78616
1.79122
1.79747
1.80408
1.81133
1.81903
1.82475
1.82899
1.83215
1.83627
0.199874
0.199877
0.199864
0.19984
0.199804
0.199755
0.199688
0.1996
0.199498
0.199371
0.199204
0.199005
0.198797
0.198534
0.198197
0.197816
0.197404
0.196968
0.196432
0.195729
0.195056
0.194408
0.193687
0.192703
0.191594
0.190612
0.189726
0.188778
0.187554
0.18606
0.184888
0.183853
0.182814
0.181715
0.180342
0.179114
0.178235
0.177492
0.177129
0.176528
0.175815
0.177033
0.205113
0.535956
0.986459
0.975793
0.970889
0.968563
0.970452
0.971662
0.987134
1.00905
1.03392
1.20084
1.33349
1.57377
1.73932
1.77898
1.76514
1.75083
1.73693
1.72556
1.71743
1.71196
1.70857
1.70593
1.70516
1.70517
1.70848
1.70759
1.70879
1.71043
1.71392
1.71687
1.71773
1.71877
1.71898
1.72017
1.71988
1.72
1.71853
1.71737
1.71458
1.71391
1.71252
1.71205
1.71067
1.7096
1.70466
1.69954
1.69571
1.69356
1.68995
1.68619
1.6854
1.68646
1.68828
1.69069
1.69397
1.69801
1.7034
1.71131
1.72029
1.72927
1.73824
1.74711
1.75733
1.76518
1.77027
1.77399
1.77966
1.78625
1.79269
1.7996
1.80779
1.81485
1.82082
1.82516
1.82848
0.199879
0.199881
0.199869
0.199846
0.199811
0.199764
0.199699
0.199613
0.199516
0.199393
0.19923
0.199038
0.198838
0.198582
0.198248
0.197875
0.197499
0.197058
0.196512
0.195865
0.195198
0.194538
0.193778
0.192849
0.191867
0.190916
0.189883
0.188822
0.187601
0.186531
0.185606
0.184471
0.182813
0.181469
0.180298
0.179412
0.178652
0.177838
0.177493
0.176404
0.173136
0.176932
0.209023
0.770851
0.989576
0.994615
0.988847
0.986311
0.991421
0.994139
1.02116
1.10001
1.16565
1.41644
1.59884
1.75681
1.78714
1.7683
1.75172
1.73408
1.72046
1.70921
1.69997
1.692
1.68619
1.68239
1.68044
1.68001
1.68486
1.68652
1.68886
1.69069
1.69276
1.69493
1.6961
1.69718
1.69802
1.70003
1.7012
1.70286
1.70277
1.70273
1.70121
1.70093
1.70104
1.70284
1.70264
1.70052
1.69508
1.68988
1.68726
1.68497
1.68155
1.6803
1.68159
1.6833
1.68454
1.68678
1.69032
1.69501
1.70116
1.70907
1.71724
1.72477
1.73233
1.74077
1.74986
1.75588
1.75989
1.76303
1.76805
1.77415
1.78075
1.78762
1.79639
1.80508
1.81252
1.81722
1.82018
0.199884
0.199886
0.199874
0.199852
0.199819
0.199774
0.199711
0.199629
0.199535
0.199417
0.19926
0.199075
0.198883
0.198634
0.198306
0.197955
0.197603
0.197164
0.196601
0.196005
0.195407
0.194702
0.193893
0.193033
0.192232
0.191294
0.190021
0.188891
0.187812
0.187173
0.186204
0.184888
0.182814
0.181503
0.180507
0.179771
0.179081
0.178556
0.178597
0.178689
0.180444
0.199444
0.341327
0.915136
0.992106
0.997815
1.00068
1.00085
1.02264
1.04161
1.09338
1.25958
1.39466
1.64951
1.76732
1.7893
1.76712
1.75024
1.73021
1.71475
1.70173
1.69079
1.6818
1.67441
1.66903
1.66527
1.66284
1.66133
1.66206
1.66258
1.66418
1.66498
1.66777
1.6701
1.67366
1.67629
1.67929
1.68288
1.68571
1.68821
1.68863
1.68861
1.68681
1.68601
1.68627
1.6885
1.68927
1.68761
1.6843
1.68043
1.67863
1.67549
1.67396
1.67546
1.67666
1.67741
1.67855
1.68123
1.68546
1.69071
1.69666
1.70356
1.71075
1.7179
1.72538
1.73348
1.74105
1.74572
1.74955
1.75196
1.7565
1.76216
1.76876
1.77593
1.78566
1.79568
1.80336
1.80789
1.81062
0.199889
0.199891
0.19988
0.199859
0.199827
0.199784
0.199725
0.199646
0.199556
0.199444
0.199293
0.199117
0.198934
0.198692
0.198375
0.198054
0.197715
0.197266
0.196721
0.196198
0.195633
0.194864
0.194057
0.19331
0.192629
0.191664
0.190187
0.189081
0.188175
0.187746
0.18675
0.185157
0.182955
0.181678
0.180733
0.179977
0.179273
0.178581
0.178512
0.178964
0.181517
0.210976
0.535554
1.02837
1.009
1.00662
1.01831
1.02058
1.06759
1.13768
1.2311
1.47512
1.64882
1.77593
1.79102
1.76682
1.75032
1.72851
1.71158
1.6971
1.68483
1.67482
1.66679
1.66072
1.65597
1.65162
1.6477
1.64455
1.64275
1.64203
1.64288
1.64336
1.64657
1.64784
1.6511
1.65342
1.6565
1.66055
1.66366
1.66668
1.66803
1.66958
1.6701
1.67205
1.67341
1.67527
1.67727
1.67561
1.6722
1.66781
1.66496
1.66273
1.66367
1.6667
1.66758
1.66752
1.66849
1.6719
1.67728
1.68349
1.68979
1.69631
1.70303
1.7102
1.71817
1.72627
1.73267
1.73572
1.73845
1.74019
1.74479
1.75044
1.75676
1.76484
1.77569
1.78605
1.79358
1.79812
1.80123
0.199895
0.199897
0.199887
0.199867
0.199836
0.199796
0.19974
0.199665
0.19958
0.199473
0.199331
0.199163
0.198989
0.198756
0.198457
0.198161
0.197839
0.197372
0.196873
0.19642
0.195878
0.195041
0.194285
0.193649
0.193024
0.192018
0.190502
0.18944
0.188537
0.188047
0.187077
0.185529
0.183458
0.182183
0.180966
0.17987
0.178915
0.177816
0.176358
0.175088
0.178794
0.20922
0.776767
1.02047
1.02528
1.02859
1.044
1.05932
1.15116
1.3058
1.46315
1.68312
1.77745
1.79028
1.76502
1.7491
1.72661
1.70972
1.69463
1.68178
1.67099
1.66221
1.65514
1.64967
1.64525
1.641
1.63667
1.63254
1.62943
1.62696
1.62557
1.62471
1.62641
1.62708
1.63042
1.63257
1.63624
1.64098
1.64547
1.64943
1.65168
1.65423
1.65508
1.65683
1.65753
1.65802
1.65997
1.65973
1.6593
1.65687
1.65508
1.65541
1.65743
1.6596
1.65971
1.65954
1.6612
1.66593
1.67175
1.67766
1.68329
1.68898
1.69541
1.70279
1.71129
1.71919
1.72421
1.72612
1.72816
1.72904
1.73323
1.73874
1.74509
1.75471
1.76648
1.77644
1.7839
1.78824
1.79107
0.199901
0.199903
0.199894
0.199875
0.199846
0.199809
0.199756
0.199686
0.199605
0.199506
0.199372
0.199214
0.19905
0.198829
0.198552
0.198277
0.197968
0.197508
0.197064
0.196657
0.196115
0.195282
0.194603
0.19399
0.193407
0.192442
0.191044
0.190023
0.189044
0.188134
0.187306
0.185949
0.184518
0.182826
0.181229
0.179787
0.178592
0.17778
0.177492
0.179019
0.199343
0.334455
0.922666
1.0186
1.02412
1.04758
1.08622
1.15979
1.3
1.51535
1.68464
1.77907
1.7862
1.76176
1.74666
1.72516
1.70872
1.69401
1.68134
1.67017
1.66057
1.65257
1.646
1.64076
1.63637
1.63223
1.62802
1.62357
1.6193
1.61501
1.61222
1.61004
1.60954
1.6092
1.61175
1.61287
1.61597
1.61877
1.62381
1.62738
1.63041
1.63371
1.63555
1.64005
1.64259
1.6441
1.64625
1.6471
1.64804
1.64494
1.64238
1.64291
1.64367
1.64609
1.64766
1.64926
1.652
1.65641
1.66113
1.66615
1.67162
1.67793
1.68536
1.69337
1.7019
1.709
1.71293
1.71476
1.71698
1.71813
1.72224
1.72749
1.73452
1.74452
1.75568
1.76532
1.77302
1.7775
1.78098
0.199908
0.19991
0.199901
0.199884
0.199857
0.199823
0.199774
0.199709
0.199633
0.199542
0.199417
0.19927
0.199118
0.198913
0.198657
0.198401
0.19811
0.197686
0.197277
0.196892
0.196376
0.195628
0.194998
0.194331
0.193777
0.192905
0.191819