/*--------------------------------*- C++ -*----------------------------------*\
| =========                 |                                                 |
| \\      /  F ield         | OpenFOAM: The Open Source CFD Toolbox           |
|  \\    /   O peration     | Version:  2.2.x                                 |
|   \\  /    A nd           | Web:      www.OpenFOAM.org                      |
|    \\/     M anipulation  |                                                 |
\*---------------------------------------------------------------------------*/
FoamFile
{
    version     2.0;
    format      ascii;
    class       volVectorField;
    location    "1.4";
    object      U;
}
// * * * * * * * * * * * * * * * * * * * * * * * * * * * * * * * * * * * * * //

dimensions      [0 1 -1 0 0 0 0];

internalField   nonuniform List<vector> 
14161
(
(1.50021 1.55274e-08 -3.41584e-15)
(1.50021 -2.71109e-08 4.43133e-15)
(1.50023 -3.24492e-09 -5.28619e-15)
(1.50027 2.27503e-08 3.57841e-15)
(1.50033 5.81242e-08 -5.30645e-15)
(1.50041 7.59342e-08 3.43974e-15)
(1.50052 1.02355e-07 -4.15124e-15)
(1.50066 1.42533e-07 5.0523e-15)
(1.50083 2.70197e-07 -6.94144e-15)
(1.50103 2.25551e-07 1.14509e-14)
(1.50128 3.38321e-07 -1.18339e-14)
(1.50158 2.53554e-07 1.05681e-14)
(1.50193 3.3947e-07 1.1131e-15)
(1.50234 7.82071e-07 -1.381e-14)
(1.50281 1.02096e-06 1.2796e-14)
(1.50332 7.17519e-07 -7.53417e-15)
(1.50392 5.21382e-07 -1.09256e-14)
(1.50459 3.8386e-06 6.10991e-14)
(1.50527 -5.1117e-07 -9.97444e-14)
(1.50601 -3.36445e-06 8.83603e-14)
(1.50689 6.89644e-06 -1.06935e-14)
(1.50769 -1.00993e-08 -3.4861e-14)
(1.50851 8.12535e-06 8.74344e-14)
(1.50939 -4.87253e-06 -6.7312e-14)
(1.51028 -7.20157e-06 -4.63086e-14)
(1.51104 2.35703e-05 6.47434e-14)
(1.5115 2.042e-06 -5.90942e-14)
(1.51197 -1.27266e-05 6.64644e-13)
(1.51236 -2.34487e-06 -1.51097e-12)
(1.51246 3.00012e-06 1.41326e-12)
(1.51236 2.42081e-06 -9.02428e-12)
(1.51202 3.49264e-07 3.60568e-11)
(1.51136 -1.38699e-06 -2.10971e-10)
(1.51033 2.48733e-07 7.41308e-10)
(1.50889 1.22608e-06 -1.6441e-09)
(1.50694 2.11179e-06 1.5885e-09)
(1.5045 8.78925e-07 -1.5002e-09)
(1.5013 -3.46439e-06 4.00993e-09)
(1.49756 7.28393e-06 -4.65225e-09)
(1.49383 2.03463e-05 8.63705e-09)
(1.48766 -2.20646e-05 -1.23156e-08)
(1.48139 -8.76443e-05 1.0606e-08)
(1.47623 -1.58979e-05 -1.92886e-08)
(1.47199 -0.000120744 6.25539e-08)
(1.46364 0.00014038 -6.41321e-08)
(1.46011 0.0033873 -9.62834e-07)
(0.766023 0.00955433 -2.81527e-06)
(0.53803 0.00964815 5.04507e-06)
(0.504323 0.00505197 4.62634e-07)
(0.497466 0.000673704 -1.59971e-05)
(0.500343 -0.00247846 1.06625e-05)
(0.510738 -0.00519701 0.000125051)
(0.525766 -0.00666773 -0.000180371)
(0.54286 -0.00895187 -0.00018328)
(0.564026 -0.00772911 0.00118218)
(0.582853 -0.00763304 0.000911483)
(0.601542 -0.00773449 -0.00160143)
(0.620015 -0.00770352 -0.00234217)
(0.636935 -0.00696309 0.000545571)
(0.651961 -0.00581738 0.00341257)
(0.665798 -0.00553683 0.00242)
(0.679284 -0.00633253 -0.0016076)
(0.693486 -0.00687541 -0.00445149)
(0.705939 -0.00623633 -0.00313003)
(0.715632 -0.00473163 0.00102952)
(0.723786 -0.00356124 0.00402336)
(0.731109 -0.0035059 0.00367015)
(0.737945 -0.00373864 0.000274134)
(0.74497 -0.00401309 -0.0038266)
(0.752218 -0.00423699 -0.00428509)
(0.759067 -0.0040706 -0.00191172)
(0.765794 -0.00325292 0.00230195)
(0.771328 -0.00281334 0.00386618)
(0.776027 -0.0028792 0.0028693)
(0.780755 -0.00361786 -0.00105981)
(0.787122 -0.00412662 -0.00385566)
(0.793568 -0.00396476 -0.00338413)
(0.79945 -0.00344464 -0.000273097)
(0.805463 -0.00289809 0.00347548)
(0.811112 -0.00288827 0.00382412)
(0.817197 -0.0033364 0.00167832)
(0.824531 -0.00397321 -0.00184409)
(0.834125 -0.00451688 -0.00344943)
(0.841719 -0.00511919 -0.00245296)
(0.849832 -0.00504906 1.10643e-05)
(0.858819 -0.00366924 0.0029763)
(0.867176 -0.00254627 0.00386054)
(0.875795 -0.00228329 0.00257341)
(0.886283 -0.00315459 -0.000652997)
(0.905341 -0.00392373 -0.00337616)
(0.916924 -0.00417052 -0.00354948)
(0.933731 -0.00415263 -0.0018008)
(0.944634 -0.00337638 0.00195585)
(0.954952 -0.00246553 0.00457831)
(0.9705 -0.00193386 0.00424439)
(0.984678 -0.0015915 0.000432981)
(1.00061 -0.00309271 -0.00346179)
(1.01838 -0.00466799 -0.00356758)
(1.03349 -0.00541461 -0.00149226)
(1.04582 -0.0055118 0.00169757)
(1.05412 -0.003874 0.00340856)
(1.05643 -0.00138605 0.00134581)
(1.05306 0.00240434 -0.00171314)
(1.03203 0.00978308 -0.00219771)
(1.00116 0.0247372 -0.000605843)
(0.908576 0.0438142 0.000551469)
(0.766994 0.0609 0.000649892)
(0.623149 0.0656188 8.32934e-06)
(0.513933 0.0581302 -0.000199654)
(0.433829 0.0440794 -6.65189e-06)
(0.372699 0.03426 3.18193e-05)
(0.321572 0.0280707 6.2742e-07)
(0.278174 0.024372 -4.02303e-05)
(0.23926 0.0227117 -9.92489e-05)
(0.20155 0.0225006 2.5169e-05)
(0.163483 0.0230439 0.000127773)
(0.123119 0.0254961 3.49226e-05)
(0.0793403 0.0232574 -4.59219e-05)
(0.0416013 0.041408 1.5298e-07)
(1.50021 2.87981e-08 -3.40001e-15)
(1.50021 -7.66062e-09 4.28456e-15)
(1.50023 -2.89793e-09 -4.95332e-15)
(1.50027 4.07898e-08 3.45086e-15)
(1.50033 1.15675e-07 -5.20017e-15)
(1.50041 1.77027e-07 3.34822e-15)
(1.50052 1.88765e-07 -4.03865e-15)
(1.50066 2.06768e-07 4.907e-15)
(1.50083 3.5255e-07 -6.74275e-15)
(1.50103 4.46352e-07 1.05949e-14)
(1.50129 4.44796e-07 -1.12644e-14)
(1.50158 5.7727e-07 8.64945e-15)
(1.50193 6.21402e-07 5.23579e-15)
(1.50234 1.35937e-06 -1.78898e-14)
(1.50281 5.46004e-07 1.80229e-14)
(1.50332 2.3828e-06 -7.93012e-15)
(1.50392 1.46945e-06 -8.96913e-15)
(1.50459 4.12666e-06 5.75162e-14)
(1.50527 3.76792e-07 -9.63271e-14)
(1.50602 -1.33142e-06 8.33673e-14)
(1.50688 6.80761e-06 -2.23318e-14)
(1.5077 -5.74876e-06 -2.97012e-14)
(1.50852 1.41304e-05 8.21167e-14)
(1.50941 3.00111e-06 -7.31562e-14)
(1.51027 -1.47935e-05 -3.11302e-14)
(1.51104 1.99974e-05 5.16986e-14)
(1.51153 2.1764e-05 -3.20372e-14)
(1.512 -1.84759e-05 3.11005e-13)
(1.51237 -1.11587e-05 -1.17624e-12)
(1.51248 1.28158e-05 2.91925e-12)
(1.51241 1.69245e-05 -7.96967e-12)
(1.51209 1.39956e-05 4.39573e-11)
(1.51145 1.40679e-05 -1.25315e-10)
(1.51044 2.25477e-05 4.75254e-10)
(1.509 3.21117e-05 -1.29587e-09)
(1.50708 4.21238e-05 1.62263e-09)
(1.50467 3.91464e-05 -1.34866e-09)
(1.5015 3.56126e-05 2.65479e-09)
(1.49775 5.47012e-05 -3.08587e-09)
(1.49406 0.000150351 5.98932e-09)
(1.48831 0.000122638 -8.45857e-09)
(1.48173 -3.36452e-05 9.03739e-09)
(1.47647 -3.82999e-05 -2.39096e-08)
(1.47188 -0.000242619 3.96622e-08)
(1.46246 0.000778318 -1.31759e-07)
(1.45533 0.0120979 -1.81458e-06)
(0.75798 0.0304689 -5.50913e-06)
(0.533653 0.0294281 2.98938e-08)
(0.499571 0.0131525 2.25502e-05)
(0.493358 -0.000388994 -3.25925e-05)
(0.499655 -0.00867639 -6.94136e-05)
(0.510789 -0.0166153 0.000188294)
(0.527674 -0.0190017 0.000162563)
(0.543795 -0.0237626 -0.00065729)
(0.564412 -0.0223689 -0.000508689)
(0.582934 -0.0215618 0.00165092)
(0.601417 -0.0211854 0.00141184)
(0.619382 -0.0201387 -0.00155681)
(0.636281 -0.0176367 -0.00291734)
(0.651628 -0.0152959 -0.000396534)
(0.666095 -0.0137745 0.00303643)
(0.680079 -0.0140577 0.00304228)
(0.693348 -0.014282 -0.000362969)
(0.705555 -0.0120885 -0.00355942)
(0.71642 -0.00970165 -0.00299209)
(0.725526 -0.00846733 0.000643623)
(0.734112 -0.00816329 0.00347378)
(0.74162 -0.00820798 0.00304312)
(0.747924 -0.00760367 0.000283243)
(0.754424 -0.00628818 -0.00275778)
(0.760784 -0.00577047 -0.00270584)
(0.766978 -0.00531394 -0.000197599)
(0.773515 -0.00494156 0.00256138)
(0.778593 -0.00553785 0.0028606)
(0.783144 -0.00679334 0.000987974)
(0.788504 -0.00811483 -0.0022485)
(0.794873 -0.00808004 -0.0032836)
(0.801299 -0.0069794 -0.00166742)
(0.808248 -0.00555219 0.00171071)
(0.814628 -0.00463595 0.00286877)
(0.820739 -0.00451301 0.00177615)
(0.826932 -0.00542097 -0.000846893)
(0.835673 -0.00823081 -0.00288898)
(0.84504 -0.0109959 -0.00271583)
(0.853231 -0.0120482 -0.000675877)
(0.863183 -0.00938648 0.00162076)
(0.872057 -0.00575828 0.00329532)
(0.881265 -0.00363279 0.0027207)
(0.890199 -0.00392319 -4.49487e-05)
(0.906676 -0.00641614 -0.00307521)
(0.918466 -0.0083969 -0.00410437)
(0.936017 -0.00934694 -0.0027412)
(0.947623 -0.00859712 0.000555284)
(0.958729 -0.00577607 0.00380044)
(0.974464 -0.00394712 0.00384727)
(0.988369 -0.00319084 0.000749676)
(1.00349 -0.00353367 -0.00327178)
(1.01926 -0.00483346 -0.0037701)
(1.03325 -0.00756852 -0.00118171)
(1.04392 -0.00777315 0.00281974)
(1.04974 -0.00574342 0.00396044)
(1.04518 -0.00462087 0.000742596)
(1.02923 0.00084549 -0.0014487)
(0.982584 0.0128374 -0.00182027)
(0.914115 0.0268535 -0.000564974)
(0.786803 0.0528881 0.000539895)
(0.650882 0.0866213 0.000445003)
(0.532161 0.0959921 -0.000168259)
(0.447882 0.0831089 -0.000137656)
(0.385263 0.0710822 3.47053e-05)
(0.333657 0.0616654 2.96642e-05)
(0.288529 0.0543775 -8.89564e-06)
(0.248947 0.0495736 -5.94927e-05)
(0.212376 0.0488444 -7.2097e-05)
(0.176319 0.0517553 7.75108e-05)
(0.140125 0.0559629 0.000124899)
(0.103385 0.0632093 -5.15409e-08)
(0.0623294 0.0635513 -4.92416e-05)
(0.0286899 0.0865069 -9.48147e-06)
(1.50021 5.28047e-08 -3.24262e-15)
(1.50021 -1.54121e-08 3.99848e-15)
(1.50023 3.76948e-09 -4.65798e-15)
(1.50027 7.49283e-08 3.21375e-15)
(1.50033 1.95056e-07 -4.99971e-15)
(1.50041 2.79251e-07 3.15906e-15)
(1.50052 3.47294e-07 -3.77472e-15)
(1.50066 3.90975e-07 4.5453e-15)
(1.50083 6.08518e-07 -6.12107e-15)
(1.50103 7.76651e-07 9.3733e-15)
(1.50128 7.82904e-07 -9.72199e-15)
(1.50158 1.26836e-06 5.51575e-15)
(1.50193 1.02797e-06 9.53108e-15)
(1.50234 2.40463e-06 -2.57729e-14)
(1.50281 7.53116e-07 3.56405e-14)
(1.50333 3.97273e-06 -2.49404e-14)
(1.50392 3.64621e-06 -8.79901e-15)
(1.50458 4.69957e-06 5.18893e-14)
(1.50528 2.41578e-06 -7.53328e-14)
(1.50603 4.0371e-06 7.47927e-14)
(1.50686 3.96065e-06 -3.27095e-14)
(1.50771 -3.19578e-06 -2.285e-14)
(1.50854 2.14801e-05 7.39057e-14)
(1.50945 1.07206e-05 -7.40695e-14)
(1.51026 -2.06046e-05 -1.60883e-14)
(1.51103 2.38342e-05 4.41586e-14)
(1.51163 4.5625e-05 -7.60969e-15)
(1.51209 -1.94288e-05 -3.17425e-14)
(1.51242 -2.15678e-05 -1.65744e-13)
(1.51257 1.38744e-05 1.4815e-12)
(1.51252 2.37534e-05 -3.51972e-12)
(1.51228 2.49888e-05 2.17536e-11)
(1.51173 1.54224e-05 -5.6653e-11)
(1.51076 1.73696e-05 1.7529e-10)
(1.50938 1.94866e-05 -5.85449e-10)
(1.50753 2.21419e-05 1.07508e-09)
(1.50518 3.90665e-05 -1.10669e-09)
(1.50216 4.15263e-05 1.27611e-09)
(1.49844 2.69763e-05 -1.47136e-09)
(1.49488 0.000161887 2.01553e-09)
(1.49006 0.000190326 -2.56573e-09)
(1.48316 -4.62466e-05 2.92625e-09)
(1.4777 -0.000245226 -6.89799e-09)
(1.47229 -0.000396036 3.45247e-09)
(1.46336 0.0019808 -2.33799e-07)
(1.44902 0.0232875 -2.96233e-06)
(0.756907 0.0589473 -7.17268e-06)
(0.530143 0.0511128 -1.591e-05)
(0.498272 0.0237687 1.10992e-05)
(0.489711 -0.00110326 6.2051e-05)
(0.498331 -0.0166817 -0.000133498)
(0.510015 -0.0300128 -0.000148382)
(0.530405 -0.0343587 0.00044123)
(0.547961 -0.0398427 0.000348312)
(0.569205 -0.0383003 -0.00127049)
(0.588705 -0.0364773 -0.000853824)
(0.607678 -0.0356037 0.00198427)
(0.626096 -0.0336272 0.00186853)
(0.643075 -0.030353 -0.00157849)
(0.65886 -0.0260878 -0.00318005)
(0.673883 -0.0242231 -0.000492342)
(0.688085 -0.0238343 0.00304227)
(0.701428 -0.0229646 0.00283543)
(0.712822 -0.0205107 -0.000533834)
(0.723143 -0.0166161 -0.00340397)
(0.73309 -0.0147806 -0.00251806)
(0.741807 -0.0148438 0.000861253)
(0.749587 -0.0148283 0.00268536)
(0.756369 -0.0145758 0.00181305)
(0.762484 -0.013498 -0.00095479)
(0.768759 -0.0118055 -0.00264259)
(0.774648 -0.0106291 -0.00175658)
(0.780175 -0.00976001 0.000805212)
(0.785919 -0.0101048 0.00230178)
(0.791151 -0.0114657 0.00156355)
(0.796204 -0.0131514 -0.00106686)
(0.802119 -0.0138458 -0.00272381)
(0.808585 -0.0133561 -0.00177662)
(0.815721 -0.0119571 0.000922613)
(0.822619 -0.0104427 0.00236478)
(0.828901 -0.0097544 0.0018132)
(0.835282 -0.0107457 -1.78959e-05)
(0.842308 -0.0130297 -0.00194675)
(0.849997 -0.0159163 -0.00252651)
(0.858188 -0.0182748 -0.00114124)
(0.868866 -0.0170338 0.00109681)
(0.878095 -0.0142161 0.003091)
(0.888488 -0.0111991 0.00302723)
(0.898099 -0.00975984 0.00036012)
(0.912252 -0.0121368 -0.00263205)
(0.922235 -0.0134459 -0.00389427)
(0.93913 -0.0143821 -0.00271476)
(0.950937 -0.0139424 0.000469853)
(0.96209 -0.0122971 0.00372085)
(0.978615 -0.00991698 0.00397522)
(0.992443 -0.00796767 0.000427174)
(1.00701 -0.00867038 -0.00280407)
(1.02004 -0.0104705 -0.00310809)
(1.02962 -0.0116484 -0.00107761)
(1.03266 -0.0102104 0.00241209)
(1.03128 -0.00611114 0.00267527)
(1.00725 0.00105293 0.000518443)
(0.959848 0.0155844 -0.00108281)
(0.871421 0.0458417 -0.00124351)
(0.749087 0.0847123 -0.000184694)
(0.616552 0.135311 0.000522643)
(0.504942 0.157647 6.2042e-05)
(0.428106 0.156895 -0.000209686)
(0.375352 0.136181 -5.40534e-05)
(0.332013 0.118515 4.92793e-05)
(0.291514 0.103118 1.7315e-05)
(0.253752 0.0907039 -2.3645e-05)
(0.21899 0.0831159 -7.20203e-05)
(0.185307 0.0811967 -3.64821e-05)
(0.152685 0.0857623 0.000119681)
(0.11974 0.0906682 9.96998e-05)
(0.0876871 0.101148 -2.19807e-05)
(0.0516399 0.104394 -4.686e-05)
(0.0265893 0.129476 -1.70821e-05)
(1.50021 7.4506e-08 -2.70848e-15)
(1.50021 -1.05537e-09 3.57479e-15)
(1.50023 3.56181e-08 -4.16108e-15)
(1.50027 1.11225e-07 2.61695e-15)
(1.50033 2.43842e-07 -4.3327e-15)
(1.50041 3.65104e-07 2.56879e-15)
(1.50052 5.34629e-07 -2.9303e-15)
(1.50066 5.77221e-07 3.72704e-15)
(1.50083 8.18039e-07 -4.88608e-15)
(1.50103 1.06377e-06 7.00086e-15)
(1.50128 1.0953e-06 -7.27163e-15)
(1.50158 1.85834e-06 8.92463e-16)
(1.50193 1.81584e-06 1.51365e-14)
(1.50234 3.02955e-06 -3.37742e-14)
(1.5028 2.03264e-06 4.00602e-14)
(1.50334 4.50038e-06 -3.18879e-14)
(1.50392 4.24022e-06 6.32371e-15)
(1.50457 2.89354e-06 3.03077e-14)
(1.50529 3.0694e-06 -7.0104e-14)
(1.50606 5.77437e-06 7.25472e-14)
(1.50684 5.13682e-06 -2.51227e-14)
(1.50772 3.01884e-06 -6.70275e-15)
(1.50857 1.88062e-05 5.53365e-14)
(1.50948 1.95147e-05 -6.63164e-14)
(1.51029 -1.8802e-05 -1.08293e-14)
(1.51102 8.35626e-06 2.9427e-14)
(1.51175 5.31375e-05 1.40681e-16)
(1.51227 9.62496e-06 -7.10599e-14)
(1.51253 -3.57584e-05 3.82229e-14)
(1.51271 -1.29183e-05 5.96401e-13)
(1.51276 2.65949e-05 -2.01169e-12)
(1.51259 4.98948e-05 5.68229e-12)
(1.51218 5.70662e-05 -1.04609e-11)
(1.51137 5.23358e-05 1.52553e-11)
(1.5101 5.058e-05 1.53461e-11)
(1.50836 5.67702e-05 -7.38789e-11)
(1.50615 6.53596e-05 1.66561e-10)
(1.50337 9.39062e-05 -3.873e-10)
(1.49992 4.80148e-05 1.13367e-09)
(1.49635 0.000250586 -1.91619e-09)
(1.49238 0.00037083 4.17221e-09)
(1.4866 0.000177689 -6.60254e-09)
(1.48026 -0.000186895 8.74913e-09)
(1.47357 -0.000184707 -1.925e-08)
(1.46657 0.00355615 -4.0655e-07)
(1.44668 0.0353718 -4.61171e-06)
(0.764162 0.0929264 -1.25662e-05)
(0.530249 0.0732174 -1.47217e-05)
(0.501257 0.0347562 -3.73914e-05)
(0.488487 -0.00311842 9.90861e-05)
(0.502874 -0.0264602 6.22536e-05)
(0.512528 -0.0453221 -0.000250034)
(0.535522 -0.051838 -0.000403617)
(0.554128 -0.0584756 0.00058718)
(0.576916 -0.0573912 0.000892616)
(0.597797 -0.053894 -0.00150373)
(0.617973 -0.0511022 -0.0018669)
(0.637084 -0.0482616 0.00154681)
(0.65553 -0.0429901 0.00314025)
(0.672732 -0.0374157 -0.000220957)
(0.688782 -0.0338916 -0.00375879)
(0.703412 -0.032497 -0.0025205)
(0.71615 -0.0301535 0.00191137)
(0.727463 -0.0259282 0.00379707)
(0.738088 -0.0221891 0.00133156)
(0.748079 -0.0196215 -0.0026817)
(0.757149 -0.0184945 -0.00343825)
(0.764649 -0.018086 -0.00109103)
(0.771474 -0.0173445 0.00195309)
(0.777772 -0.0166333 0.00233749)
(0.783498 -0.0159758 0.000572469)
(0.7888 -0.0151532 -0.00142376)
(0.794025 -0.0145314 -0.00153435)
(0.79941 -0.0140042 -0.00012605)
(0.805242 -0.014066 0.00129378)
(0.810457 -0.0152428 0.000792604)
(0.81586 -0.0166458 -0.000678447)
(0.822097 -0.0172499 -0.00102762)
(0.82911 -0.0163109 -0.000205548)
(0.836681 -0.0146356 0.000497203)
(0.843124 -0.0142255 0.000659427)
(0.848855 -0.0158682 0.000428341)
(0.85528 -0.0182033 -0.000462932)
(0.863153 -0.0197098 -0.00122834)
(0.870607 -0.0198486 -0.00108899)
(0.881889 -0.0187588 -0.000310671)
(0.891517 -0.0169273 0.0014062)
(0.901926 -0.0161446 0.00227572)
(0.910908 -0.0160401 0.000786436)
(0.922913 -0.0180035 -0.00126502)
(0.931805 -0.0184639 -0.00271637)
(0.946721 -0.0182125 -0.0021807)
(0.95879 -0.0156846 0.00025273)
(0.970654 -0.0116922 0.00248813)
(0.98447 -0.0105887 0.00203522)
(0.996599 -0.0122159 0.000607116)
(1.00635 -0.0134317 -0.00195817)
(1.01549 -0.0132318 -0.00227241)
(1.01659 -0.0131185 -0.000301139)
(1.00884 -0.00719344 0.00159454)
(0.984509 0.00469712 0.0015521)
(0.921037 0.0235304 0.00022833)
(0.811237 0.0513937 -0.000782889)
(0.673079 0.104476 -0.000563642)
(0.536791 0.145254 0.000244206)
(0.43648 0.174212 0.000201075)
(0.373529 0.191755 -7.45723e-05)
(0.334921 0.185019 -0.000117588)
(0.305703 0.16405 1.59456e-05)
(0.275054 0.143642 5.21791e-05)
(0.244329 0.126003 -3.25959e-06)
(0.215431 0.114379 -4.01872e-05)
(0.187257 0.108434 -5.42586e-05)
(0.15909 0.108487 2.99494e-05)
(0.131005 0.113984 0.000137124)
(0.102145 0.120533 5.68749e-05)
(0.0752091 0.133392 -3.844e-05)
(0.0445212 0.13782 -4.40638e-05)
(0.0268924 0.161369 -2.14099e-05)
(1.50021 1.01517e-07 -2.18783e-15)
(1.50021 -1.13793e-08 2.67941e-15)
(1.50023 5.66605e-08 -3.31067e-15)
(1.50027 1.5113e-07 1.61841e-15)
(1.50033 2.94433e-07 -2.74698e-15)
(1.50041 4.19806e-07 1.16342e-15)
(1.50052 6.82101e-07 -1.29261e-15)
(1.50066 8.0979e-07 1.16543e-15)
(1.50083 1.03789e-06 -1.0883e-15)
(1.50103 1.26934e-06 2.14992e-15)
(1.50128 1.4908e-06 -1.91705e-15)
(1.50158 2.28003e-06 -1.80235e-15)
(1.50193 2.32434e-06 1.80305e-14)
(1.50234 3.22282e-06 -3.33652e-14)
(1.5028 3.41226e-06 3.88916e-14)
(1.50334 5.14097e-06 -3.8748e-14)
(1.50392 5.30706e-06 3.41265e-14)
(1.50456 5.10172e-06 -9.8708e-16)
(1.5053 3.58844e-06 -4.60053e-14)
(1.50608 5.91025e-06 5.55554e-14)
(1.50683 1.00018e-05 -3.88763e-14)
(1.50775 1.33881e-05 2.64709e-14)
(1.50861 4.74618e-06 3.27614e-14)
(1.50949 1.66169e-05 -5.23594e-14)
(1.51037 1.04527e-05 -6.12621e-15)
(1.51105 -1.05304e-05 5.29706e-15)
(1.51178 3.46382e-05 5.26127e-15)
(1.51251 4.85789e-05 -5.82431e-14)
(1.51282 -9.73944e-06 9.26519e-14)
(1.51295 -3.84338e-05 -9.39047e-14)
(1.51308 1.96875e-06 7.37258e-13)
(1.51307 5.17504e-05 -5.37328e-12)
(1.51285 9.63296e-05 1.38169e-11)
(1.5123 9.01253e-05 -5.71845e-11)
(1.51127 6.53519e-05 1.34195e-10)
(1.50972 7.31585e-05 -1.50269e-10)
(1.50774 6.5756e-05 2.9843e-10)
(1.50527 9.26747e-05 -8.36082e-10)
(1.50222 0.000145931 1.87236e-09)
(1.49891 0.000183328 -1.98135e-09)
(1.49592 0.000277451 3.66465e-09)
(1.49137 0.000495433 -9.43913e-09)
(1.48518 -0.000168773 7.6648e-09)
(1.47683 -0.000189029 -2.75145e-08)
(1.47103 0.00442836 -4.9471e-07)
(1.4489 0.0474476 -5.70889e-06)
(0.778342 0.129512 -1.52251e-05)
(0.532524 0.0961819 -1.3014e-05)
(0.504543 0.0450722 -3.28696e-05)
(0.490086 -0.00687163 -1.27055e-05)
(0.510972 -0.0386805 7.0828e-05)
(0.521677 -0.0618836 0.000117967)
(0.548047 -0.0704201 -0.000307336)
(0.56771 -0.0777905 -0.000494963)
(0.592193 -0.0774353 0.000400461)
(0.614817 -0.0717114 0.000778656)
(0.636921 -0.0667798 -0.000898773)
(0.657082 -0.0628146 -0.00163347)
(0.675795 -0.0574572 0.000745458)
(0.694139 -0.0507744 0.00235639)
(0.711332 -0.0450776 0.000474133)
(0.72619 -0.041437 -0.00238075)
(0.738542 -0.0377393 -0.00262566)
(0.749231 -0.0330118 0.000183053)
(0.75973 -0.0288399 0.00319162)
(0.769677 -0.0253905 0.00260321)
(0.778507 -0.0222637 -0.000831752)
(0.786172 -0.0209964 -0.00282352)
(0.792335 -0.0215694 -0.00209992)
(0.797849 -0.0225581 0.000459895)
(0.803621 -0.0227867 0.00173492)
(0.809119 -0.022141 0.00110556)
(0.814534 -0.0210344 -0.000274144)
(0.819712 -0.0203055 -0.000834132)
(0.825263 -0.0200918 -0.000539021)
(0.831028 -0.020506 -0.000142473)
(0.835918 -0.0216535 0.000219596)
(0.841155 -0.0229976 0.000694058)
(0.84701 -0.0235569 0.000795853)
(0.853706 -0.0239684 -0.000112518)
(0.860972 -0.0237248 -0.000743792)
(0.867054 -0.0235219 -0.000208583)
(0.873645 -0.0242526 0.000297203)
(0.881571 -0.0246512 0.000262041)
(0.888643 -0.0238883 -0.000166207)
(0.898301 -0.0241278 -0.000829988)
(0.908657 -0.0237372 -0.000182588)
(0.917973 -0.0238352 0.000931467)
(0.925568 -0.024581 0.00103618)
(0.936573 -0.0250035 -0.000165074)
(0.943661 -0.0233318 -0.00178836)
(0.956853 -0.0208622 -0.00180782)
(0.968906 -0.0175991 0.000273877)
(0.979157 -0.015296 0.00131708)
(0.989436 -0.0146879 0.00140741)
(0.997236 -0.0164588 0.000179825)
(1.00057 -0.0162789 -0.00132625)
(1.00293 -0.0121258 -0.00137104)
(0.985835 -0.00598201 1.34736e-05)
(0.951452 0.00899202 0.00100731)
(0.878097 0.0343833 0.000819422)
(0.755044 0.0715189 -9.71003e-05)
(0.611913 0.138378 -0.000531742)
(0.477883 0.179758 3.38936e-05)
(0.381563 0.203162 0.000209921)
(0.326783 0.216224 6.8508e-05)
(0.292825 0.216743 -8.86133e-05)
(0.2711 0.201244 -2.42309e-05)
(0.251997 0.179198 6.57532e-05)
(0.229242 0.159543 3.35379e-05)
(0.207126 0.145956 -2.28384e-05)
(0.184921 0.137169 -3.65229e-05)
(0.161499 0.131784 -1.09498e-05)
(0.136471 0.130994 8.29148e-05)
(0.112837 0.138387 0.000118175)
(0.0881534 0.146451 9.17922e-06)
(0.0666687 0.160933 -4.9358e-05)
(0.0406343 0.166228 -4.03562e-05)
(0.0280926 0.187365 -2.14781e-05)
(1.50021 1.28087e-07 -1.4406e-15)
(1.50021 -2.94387e-09 2.10691e-15)
(1.50023 6.88459e-08 -1.63173e-15)
(1.50027 2.09787e-07 8.05176e-16)
(1.50033 3.68544e-07 -1.32745e-15)
(1.50041 4.83772e-07 1.46124e-16)
(1.50052 8.28273e-07 1.54946e-16)
(1.50065 1.0932e-06 -6.91105e-16)
(1.50083 1.30721e-06 9.85428e-16)
(1.50103 1.58718e-06 -3.85739e-16)
(1.50128 1.98945e-06 2.06417e-15)
(1.50158 2.68982e-06 -7.46666e-15)
(1.50193 2.82251e-06 2.52864e-14)
(1.50234 3.92675e-06 -4.73821e-14)
(1.5028 4.79708e-06 4.74265e-14)
(1.50334 5.40396e-06 -6.18573e-14)
(1.50393 7.68291e-06 6.49036e-14)
(1.50455 7.12342e-06 -2.83118e-14)
(1.50531 5.85864e-06 -1.10349e-14)
(1.50609 6.89876e-06 3.83324e-14)
(1.50683 1.01777e-05 -9.97654e-14)
(1.50777 1.603e-05 8.74598e-14)
(1.50864 1.59006e-07 2.96266e-15)
(1.50949 1.47691e-05 -2.82605e-14)
(1.51047 3.02532e-05 -7.47001e-15)
(1.51116 -1.10371e-05 -8.95268e-15)
(1.51182 4.12543e-06 -3.57586e-14)
(1.51271 5.27211e-05 -2.25369e-14)
(1.51323 4.74053e-05 -2.3978e-15)
(1.5134 -8.61104e-06 -6.57698e-14)
(1.51351 -4.28749e-05 8.30423e-13)
(1.51363 8.38818e-06 -3.78877e-12)
(1.5137 9.7712e-05 6.45246e-12)
(1.51353 0.000150595 -2.98743e-11)
(1.51284 0.000123761 8.01746e-11)
(1.51174 0.000112134 -1.82119e-10)
(1.51007 5.73302e-05 2.64043e-10)
(1.50787 4.50799e-05 -6.37035e-10)
(1.50538 0.000122614 1.4436e-09)
(1.50279 0.00015893 -2.83641e-09)
(1.50046 0.000295536 3.96303e-09)
(1.49735 0.000426468 -6.37118e-09)
(1.49238 0.000239815 5.96559e-09)
(1.48218 0.000455387 -3.69851e-08)
(1.47621 0.00572344 -5.91313e-07)
(1.45325 0.0595677 -6.89996e-06)
(0.802983 0.171624 -1.85715e-05)
(0.537001 0.122271 -1.84121e-05)
(0.510606 0.0543266 7.38187e-06)
(0.493531 -0.0148148 -9.94187e-06)
(0.524089 -0.0558226 -0.000193473)
(0.536708 -0.0839496 1.41878e-05)
(0.567972 -0.0938114 0.000455363)
(0.590086 -0.101438 0.000260909)
(0.616496 -0.101641 -0.00059272)
(0.640604 -0.0943227 -0.00109727)
(0.664121 -0.0859767 6.96932e-05)
(0.686145 -0.0786703 0.000821028)
(0.705356 -0.0714077 0.000152043)
(0.723959 -0.0636665 -0.000238371)
(0.740941 -0.0571427 -6.10007e-05)
(0.755412 -0.0506888 0.000631741)
(0.768103 -0.044366 0.000456379)
(0.778473 -0.0382558 -0.00139371)
(0.789039 -0.0323684 -0.00232465)
(0.798488 -0.0290437 -9.95371e-06)
(0.80605 -0.0268069 0.00244395)
(0.81376 -0.0232861 0.0020837)
(0.820149 -0.02034 1.71479e-05)
(0.825355 -0.0204666 -0.00109887)
(0.830016 -0.0236337 -0.00130763)
(0.835411 -0.0266941 -0.00107523)
(0.841097 -0.0268688 -0.000257614)
(0.846468 -0.0244702 0.00119275)
(0.852571 -0.0232765 0.0013827)
(0.858022 -0.0243651 -0.000133995)
(0.862335 -0.0250143 -0.00105396)
(0.866776 -0.0246991 -0.000581439)
(0.872096 -0.0244886 0.000732572)
(0.877887 -0.0267115 0.00117574)
(0.885524 -0.0301882 0.0001863)
(0.891488 -0.0315225 -0.00056568)
(0.897271 -0.0319739 -0.000475476)
(0.904438 -0.0310297 0.000127584)
(0.911037 -0.0284216 0.000328517)
(0.919273 -0.0270279 -0.000202085)
(0.928345 -0.0265137 -0.000629257)
(0.93668 -0.0266487 -0.000132281)
(0.942381 -0.0272018 0.000345341)
(0.951523 -0.027235 0.000159709)
(0.957068 -0.0258947 -0.000682075)
(0.96772 -0.0241856 -0.000695155)
(0.977835 -0.0226073 4.57358e-05)
(0.984788 -0.0183257 0.000831727)
(0.993397 -0.0151744 0.00050888)
(0.990911 -0.0163233 -0.000243191)
(0.982025 -0.0127733 -0.000789481)
(0.970122 0.00078311 -0.000642059)
(0.913898 0.0193446 0.000183087)
(0.825144 0.0491936 0.000660169)
(0.697022 0.103337 0.000306274)
(0.555086 0.16636 -0.000292666)
(0.431831 0.209211 -9.1475e-05)
(0.349878 0.235795 0.000183664)
(0.298265 0.246775 0.000129371)
(0.266624 0.244511 4.07256e-06)
(0.245105 0.230422 -6.3735e-05)
(0.22903 0.209505 5.8192e-05)
(0.212684 0.188377 5.83935e-05)
(0.196 0.173438 6.81824e-06)
(0.179467 0.16278 -2.10059e-05)
(0.160841 0.154644 -1.43696e-05)
(0.139981 0.150236 3.3378e-05)
(0.118031 0.151151 0.000103331)
(0.0983038 0.159225 7.69883e-05)
(0.0777771 0.168812 -3.14915e-05)
(0.0608133 0.183831 -5.43806e-05)
(0.0386045 0.190074 -3.48617e-05)
(0.0298815 0.208629 -1.84058e-05)
(1.50021 1.47703e-07 6.24549e-16)
(1.50021 7.59222e-09 -1.93921e-16)
(1.50023 8.01979e-08 -2.59728e-16)
(1.50027 2.47538e-07 -5.32349e-16)
(1.50033 4.68281e-07 1.76653e-16)
(1.50041 5.98038e-07 -1.6461e-15)
(1.50052 9.26714e-07 3.31267e-15)
(1.50065 1.32041e-06 -4.72011e-15)
(1.50082 1.62783e-06 7.32653e-15)
(1.50103 1.9026e-06 -9.34965e-15)
(1.50128 2.42689e-06 1.03124e-14)
(1.50158 3.04501e-06 -1.36093e-14)
(1.50193 3.67395e-06 3.45498e-14)
(1.50234 4.24035e-06 -5.83436e-14)
(1.5028 6.18872e-06 5.7229e-14)
(1.50334 6.19865e-06 -8.41575e-14)
(1.50393 9.38853e-06 1.11308e-13)
(1.50456 9.13028e-06 -4.7453e-14)
(1.50531 8.5043e-06 3.24045e-14)
(1.5061 9.56338e-06 3.46942e-14)
(1.50685 1.36357e-05 -1.67372e-13)
(1.50777 1.08115e-05 1.5519e-13)
(1.50868 9.46263e-06 -6.17423e-14)
(1.50953 4.5642e-06 5.84872e-14)
(1.51051 2.23664e-05 1.04399e-16)
(1.51131 3.36464e-05 -2.33547e-15)
(1.51197 -1.61053e-05 -6.5822e-14)
(1.51279 1.27638e-05 -5.55552e-14)
(1.51366 8.15416e-05 -7.99508e-14)
(1.51403 5.82102e-05 -3.71384e-14)
(1.51418 -2.57883e-05 2.6003e-13)
(1.51434 -5.30172e-05 -7.03943e-13)
(1.51458 2.45538e-05 3.32986e-12)
(1.51495 0.000139153 -9.39078e-12)
(1.51492 0.000211464 2.56566e-11)
(1.51437 0.00015223 -8.35614e-11)
(1.51328 9.42073e-05 1.03832e-10)
(1.51146 3.62296e-05 -3.90743e-10)
(1.50975 2.74969e-05 1.1475e-09)
(1.50792 9.80612e-05 -1.81465e-09)
(1.50599 -1.90985e-06 2.78047e-09)
(1.50448 0.000420216 -4.98318e-09)
(1.50132 0.000381514 1.63403e-08)
(1.49336 0.00144616 -3.53418e-08)
(1.48614 0.0077171 -6.60584e-07)
(1.46017 0.0711561 -7.93217e-06)
(0.870421 0.222406 -2.21432e-05)
(0.550216 0.152114 -2.18297e-05)
(0.52406 0.0595093 -4.58529e-05)
(0.502407 -0.0290335 0.000257932)
(0.548063 -0.0781656 -0.000169148)
(0.564274 -0.109791 -0.000651571)
(0.601103 -0.120726 -0.000265201)
(0.626418 -0.129182 0.000834913)
(0.652974 -0.126424 0.00178236)
(0.678418 -0.118038 0.000350661)
(0.701495 -0.106873 -0.00267478)
(0.724421 -0.0968859 -0.00278559)
(0.742766 -0.0871788 0.000775701)
(0.762714 -0.0758476 0.0031907)
(0.780783 -0.0673973 0.00168452)
(0.793657 -0.0593482 -0.00161076)
(0.808427 -0.0521718 -0.00198481)
(0.819238 -0.0453028 0.000793924)
(0.828929 -0.0385687 0.001466)
(0.837857 -0.0322525 -0.00111191)
(0.845819 -0.0286158 -0.00212775)
(0.852586 -0.0296794 -4.99219e-05)
(0.859743 -0.0281194 0.00156554)
(0.864002 -0.0253738 0.00150739)
(0.868845 -0.0242625 0.000831956)
(0.872813 -0.0255539 2.62154e-05)
(0.876801 -0.028907 -0.00112727)
(0.88224 -0.0306629 -0.00136829)
(0.888469 -0.0303919 -0.000256471)
(0.893671 -0.0308843 0.00104665)
(0.897382 -0.0314121 0.00105003)
(0.901271 -0.0310118 0.000474168)
(0.905969 -0.030498 7.92298e-05)
(0.910785 -0.0307295 -5.54127e-05)
(0.91679 -0.0326974 -0.000288347)
(0.923168 -0.0350089 -0.000547363)
(0.928046 -0.0360607 -0.000295992)
(0.933424 -0.0353753 0.000272441)
(0.937888 -0.0339249 0.00048574)
(0.943407 -0.0333984 0.000272979)
(0.94946 -0.0322426 -0.000248929)
(0.955589 -0.0321122 -0.000396606)
(0.960229 -0.0325002 -0.000292216)
(0.967047 -0.0306408 -0.000208473)
(0.97133 -0.0272786 -0.000555275)
(0.978681 -0.0242167 -4.11925e-05)
(0.983329 -0.0239346 0.000318687)
(0.982152 -0.0222103 0.000419709)
(0.986855 -0.0152357 0.000238373)
(0.965292 -0.00775427 -0.000323829)
(0.929925 0.00498183 -0.00057041)
(0.879802 0.0321326 -0.000253436)
(0.767141 0.0720303 0.000287996)
(0.638663 0.139733 0.000377362)
(0.505703 0.200736 -3.75332e-05)
(0.397483 0.24208 -0.000103491)
(0.328669 0.267194 0.000107732)
(0.283132 0.278982 0.000162253)
(0.252428 0.276513 4.55275e-05)
(0.232702 0.260782 -4.69159e-05)
(0.216178 0.239543 1.31495e-06)
(0.200868 0.217067 9.96951e-05)
(0.186729 0.199166 3.0478e-05)
(0.173814 0.18611 6.3563e-06)
(0.158911 0.176447 -1.41799e-05)
(0.141825 0.17 1.16865e-05)
(0.123112 0.167138 6.48179e-05)
(0.104283 0.168928 9.19372e-05)
(0.0876717 0.177539 2.96137e-05)
(0.070525 0.188285 -5.89837e-05)
(0.0568025 0.203109 -5.32578e-05)
(0.0379223 0.210133 -2.76731e-05)
(0.0321256 0.226197 -1.3659e-05)
(1.50021 1.5428e-07 9.65388e-16)
(1.50021 2.01592e-08 -9.44808e-16)
(1.50023 8.9378e-08 7.46495e-16)
(1.50027 2.72365e-07 -1.65938e-15)
(1.50033 5.59262e-07 1.73584e-15)
(1.50041 7.63186e-07 -3.09772e-15)
(1.50052 1.07876e-06 5.17945e-15)
(1.50065 1.53478e-06 -7.36619e-15)
(1.50082 1.89628e-06 1.09008e-14)
(1.50103 2.26473e-06 -1.55629e-14)
(1.50128 2.83292e-06 2.10819e-14)
(1.50158 3.29742e-06 -3.33555e-14)
(1.50193 4.656e-06 4.38852e-14)
(1.50234 4.45581e-06 -7.27547e-14)
(1.5028 7.30069e-06 7.10977e-14)
(1.50334 6.63907e-06 -1.11493e-13)
(1.50393 1.10877e-05 1.17536e-13)
(1.50456 1.13679e-05 -5.84056e-14)
(1.5053 1.18662e-05 6.2497e-14)
(1.50611 1.17355e-05 9.67711e-14)
(1.50689 1.56071e-05 -2.65732e-13)
(1.50776 1.3736e-05 1.93469e-13)
(1.50875 2.26224e-05 -2.67433e-13)
(1.50962 -8.77802e-06 2.52043e-13)
(1.51051 1.72013e-05 1.51473e-16)
(1.5115 6.96039e-05 1.46021e-13)
(1.51223 9.58109e-07 -7.26693e-14)