/*--------------------------------*- C++ -*----------------------------------*\
| =========                 |                                                 |
| \\      /  F ield         | OpenFOAM: The Open Source CFD Toolbox           |
|  \\    /   O peration     | Version:  2.2.x                                 |
|   \\  /    A nd           | Web:      www.OpenFOAM.org                      |
|    \\/     M anipulation  |                                                 |
\*---------------------------------------------------------------------------*/
FoamFile
{
    version     2.0;
    format      ascii;
    class       volScalarField;
    location    "1.9";
    object      pB;
}
// * * * * * * * * * * * * * * * * * * * * * * * * * * * * * * * * * * * * * //

dimensions      [1 1 -3 0 0 -1 0];

internalField   nonuniform List<scalar> 
14161
(
-0.00132313
0.000174316
-7.61145e-05
-4.75942e-05
-7.6534e-05
-8.7117e-05
-0.00010371
-0.000116907
-0.000127104
-0.000143892
-0.000156909
-0.000162549
-0.000181205
-0.000194388
-0.000188064
-0.000208624
-0.000212098
-0.000197199
-0.000209092
-0.000201508
-0.000189039
-0.000173675
-0.000155644
-0.00013351
-0.000105495
-7.59812e-05
-4.38799e-05
-2.15868e-05
3.82625e-05
8.00312e-05
0.000165825
0.000229366
0.000346985
0.000430883
0.000604725
0.000703071
0.000956467
0.0010716
0.00131487
0.00151128
0.00162369
0.00169325
0.00255114
0.000971154
0.0129517
-0.0208908
0.02146
0.0085298
0.00857051
0.00777761
0.00310453
0.00326604
0.0024799
0.00327685
0.00309702
0.00335236
0.00303909
0.00274234
0.00234561
0.00203159
0.00195143
0.00125838
0.0011468
0.000724703
0.000483945
8.95197e-06
-0.000114376
-0.000589743
-0.000483269
-0.000991164
-0.000659595
-0.000814352
-0.000579741
-0.0009646
-0.00120092
-0.00121874
-0.00151107
-0.000829799
-0.0015206
-0.00162146
-0.00179833
-0.00204167
-0.0020209
-0.00189569
-0.00177594
-0.00258221
-0.00207773
-0.00271562
-0.00256335
-0.00297471
-0.00317661
-0.0032538
-0.0033458
-0.0040958
-0.00342608
-0.00363837
-0.00507144
-0.00047337
-0.0048613
-0.00505262
-0.0076872
-0.00755819
-0.00902546
-0.00607709
-0.00701297
-0.00314399
-0.031044
-0.022844
-0.017216
-0.0106727
-0.0120305
-0.00401115
-0.0114601
-0.000860002
-0.0151616
0.00322244
-0.0281331
0.0272652
-0.0728272
-0.00132413
0.000175781
-7.67115e-05
-4.82111e-05
-7.76609e-05
-8.85141e-05
-0.00010199
-0.000116778
-0.000128958
-0.000145098
-0.000155442
-0.000163552
-0.000181439
-0.000193069
-0.000190457
-0.000208384
-0.000209794
-0.000200281
-0.000208204
-0.000201179
-0.00018892
-0.00017375
-0.000155332
-0.000133793
-0.000106159
-7.59921e-05
-4.26805e-05
-2.10334e-05
3.84284e-05
8.29808e-05
0.000161259
0.000226973
0.000331389
0.000452149
0.000553818
0.000756383
0.000876505
0.00110328
0.00134062
0.00150484
0.00162889
0.00135827
0.000751976
0.00125485
-0.00662579
0.0127579
0.000429696
-0.00316889
-0.00767914
-0.00380139
-0.0025603
-0.000127219
4.66304e-05
0.000732548
0.000646166
0.000966598
0.000464246
0.00032894
0.000318388
-0.000110806
-4.74859e-05
-0.000640355
-0.000128517
-0.000878434
-0.0012567
-0.00166991
-0.00170669
-0.00183823
-0.0017596
-0.00177086
-0.00180821
-0.00158496
-0.00140426
-0.00223019
-0.0020268
-0.00211124
-0.00206481
-0.00179362
-0.00264119
-0.00268362
-0.00274353
-0.00279764
-0.00283344
-0.00263978
-0.00254974
-0.00354907
-0.0031831
-0.00382747
-0.00373314
-0.00423812
-0.00438957
-0.00456925
-0.00485382
-0.00481939
-0.00460032
-0.00517877
-0.00656966
-0.00189152
-0.00854295
-0.00636934
-0.00743676
-0.00725143
-0.00907071
-0.00757431
-0.00992571
-0.0129193
0.00963096
0.0133478
0.00921345
0.0128892
0.00746614
0.0125768
0.00592479
0.0167897
0.00244013
0.0199235
-0.0133635
0.0242982
-0.0509553
-0.00132393
0.000175324
-7.62947e-05
-4.76229e-05
-7.69313e-05
-8.7839e-05
-0.000102853
-0.000117097
-0.000126896
-0.000144403
-0.000155953
-0.000165315
-0.000179389
-0.000192565
-0.000192611
-0.000205487
-0.000210386
-0.000203259
-0.000206747
-0.000201734
-0.000190199
-0.000175487
-0.000156769
-0.000136008
-0.000110014
-8.02924e-05
-4.47676e-05
-2.97576e-05
2.86364e-05
7.81295e-05
0.000143081
0.000216068
0.000316512
0.000415462
0.000543129
0.000724586
0.000876114
0.00113558
0.00134207
0.00161268
0.00179948
0.00202692
0.00160176
0.00263637
-0.00665864
0.0251207
-0.00081649
0.00876591
0.00226236
0.0096765
0.00479926
0.00368116
0.00105148
0.000368967
-0.000499113
-0.000692426
-0.00115682
-0.00128448
-0.00148106
-0.00177551
-0.00157875
-0.00143325
-0.00171531
-0.00146525
-0.000755388
-0.000681275
-0.000356244
-0.000760641
-0.000460986
-0.0012923
-0.000325398
-0.00157044
-0.000453107
-0.0013731
-0.00109308
-0.00161978
-0.00128772
-0.00124894
-0.00185147
-0.00160314
-0.00169155
-0.00220263
-0.00193947
-0.002685
-0.00174834
-0.00264114
-0.00256652
-0.00299012
-0.00298993
-0.00329474
-0.0034152
-0.00346598
-0.00392853
-0.00279817
-0.00461322
-0.00414407
-0.00535817
0.00140266
-0.00685074
-0.00212992
-0.00793536
-0.00485016
-0.00556577
-0.00561038
-0.0070411
-0.0120452
-0.0130711
0.00032227
0.00425239
0.00507662
0.000299149
0.00567969
-0.00141533
0.00785211
-0.00717393
0.0102788
-0.015957
0.0176462
-0.0468466
-0.00132124
0.000174996
-7.716e-05
-4.78989e-05
-7.74213e-05
-8.8412e-05
-0.000101997
-0.000117121
-0.000128066
-0.000143899
-0.000155518
-0.000166505
-0.000179068
-0.000191343
-0.000196257
-0.000202609
-0.000209695
-0.000208532
-0.000204763
-0.000202504
-0.000190862
-0.000177005
-0.000158083
-0.00013723
-0.000112657
-8.31579e-05
-4.72486e-05
-3.15993e-05
1.81364e-05
5.89365e-05
0.000127772
0.000201527
0.000269979
0.000378099
0.000506207
0.000610376
0.000859422
0.00100973
0.00127582
0.00148244
0.00169637
0.00148864
0.000309846
0.00107353
-0.00868618
0.0109227
-0.00763899
-0.0036178
-0.00873308
-0.00448936
-0.00324875
-0.000808765
-0.000434699
0.000527434
0.000996581
0.0019297
0.00220759
0.00252153
0.00320703
0.00294692
0.00228128
0.00130975
0.000635956
-0.000282985
-0.000513262
-0.0008644
-0.000706045
-0.00111306
-0.000912194
-0.00141301
-0.00062297
-0.00180407
-0.00114411
-0.00170609
-0.00136948
-0.00177846
-0.00145556
-0.00152356
-0.00215137
-0.00182179
-0.00183236
-0.00231874
-0.00179848
-0.00303023
-0.00185712
-0.00305522
-0.00294956
-0.00349992
-0.00352794
-0.00378605
-0.00392956
-0.00378172
-0.0049342
-0.0022493
-0.00479852
-0.00503668
-0.00644111
-0.000142526
-0.00735445
-0.00391345
-0.00739204
-0.00750615
-0.00639111
-0.0135326
-0.0173046
-0.00317285
-0.000923316
0.00367722
0.00570301
0.00554232
0.00204287
0.00551495
-0.000648254
0.0072458
-0.00553536
0.00820168
-0.0125193
0.0114464
-0.0418796
-0.00131958
0.000172929
-7.66979e-05
-4.79526e-05
-7.71297e-05
-8.79615e-05
-0.000102653
-0.00011709
-0.000128097
-0.000143307
-0.000156016
-0.000168404
-0.000176445
-0.00019115
-0.000200039
-0.000200752
-0.000211057
-0.000213189
-0.000202031
-0.000204188
-0.000194544
-0.000180311
-0.000162537
-0.000141379
-0.000118844
-9.25232e-05
-5.69277e-05
-3.57843e-05
6.69337e-07
4.57706e-05
0.000101375
0.000157948
0.000240489
0.000320335
0.000430468
0.000574946
0.000768537
0.00102476
0.00139861
0.00193711
0.00286742
0.00330514
0.00643791
0.00348326
0.0187283
-0.00786977
0.0101923
0.00755907
0.0113549
0.00866028
0.00520577
0.0036991
0.00188393
0.000700538
0.000525897
-0.00056646
-0.000814055
-0.00095491
-0.00170383
-0.00160336
-0.00113836
-0.00101325
-0.000931726
-0.00081556
-0.000877376
-0.00108523
-0.000897076
-0.00136586
-0.00102447
-0.00160987
-0.000673978
-0.00189113
-0.000323778
-0.0014261
-0.000714671
-0.00163556
-0.00114294
-0.0015728
-0.00135244
-0.00150946
-0.00157686
-0.00218105
-0.00182386
-0.00270231
-0.00123869
-0.00267901
-0.002406
-0.00298879
-0.00293936
-0.00324449
-0.00346394
-0.00371084
-0.00454247
-0.00310683
-0.00394256
-0.00438684
-0.00647651
0.00120184
-0.00580022
-0.00498779
-0.00630782
-0.00314608
-0.0122594
-0.0200868
-0.00797172
-0.00702022
-0.00465425
0.00380536
0.00199197
0.00150636
-0.000302572
0.00335188
-0.00118068
0.00594138
-0.00728995
0.00677395
-0.0114521
0.00930246
-0.0408167
-0.00131686
0.000172715
-7.81607e-05
-4.86347e-05
-7.73996e-05
-8.85812e-05
-0.000101765
-0.000117265
-0.000129677
-0.00014229
-0.000155921
-0.000169963
-0.000176527
-0.000190761
-0.000203805
-0.000200931
-0.000210003
-0.000217408
-0.000201854
-0.000205078
-0.000196582
-0.000182657
-0.000165592
-0.000145457
-0.000123859
-0.000100779
-6.66411e-05
-4.1416e-05
-1.43357e-05
2.47871e-05
7.11941e-05
0.000109918
0.00018948
0.00023647
0.00033524
0.000432609
0.000543885
0.000737368
0.000977275
0.00133509
0.00158373
0.00248297
0.00309484
0.00220006
0.0138361
-0.0104181
0.00338689
0.000881995
0.00831007
0.00664174
0.00545952
0.00690684
0.00530628
0.00680462
0.00568611
0.00544007
0.00352386
0.0027979
0.00250314
0.00184153
0.00167354
0.000643919
0.00037574
7.54974e-05
-0.000393532
-0.00032117
-0.000170012
-0.000413149
-0.00035166
-0.000785304
0.000647081
-0.00176149
-0.000838351
-0.00154765
-0.00112049
-0.00148454
-0.00164777
-0.00122161
-0.00205094
-0.00197415
-0.00173078
-0.00229063
-0.00133653
-0.00287356
-0.0017009
-0.00281321
-0.00264372
-0.00289803
-0.00312092
-0.00300877
-0.00325682
-0.00310913
-0.00333686
-0.00117514
-0.0043254
-0.00421908
-0.00646272
-4.6951e-05
-0.0075767
-0.00728613
-0.00244692
-0.0136893
-0.0183404
-0.00202222
-0.00636918
-0.00125854
-0.000722034
0.00320002
-0.000134638
0.00136956
-0.000343827
0.0022945
-0.00172371
0.00456576
-0.0064629
0.00484478
-0.00967388
0.00808681
-0.0421307
-0.00131402
0.000171031
-7.72747e-05
-4.81793e-05
-7.75978e-05
-8.7336e-05
-0.000104102
-0.000116718
-0.000130309
-0.000142255
-0.000156984
-0.000171303
-0.000175522
-0.000189603
-0.00020618
-0.000202269
-0.000206553
-0.000221653
-0.000204907
-0.000202864
-0.000202043
-0.000188371
-0.000173657
-0.00015349
-0.000131712
-0.000113425
-8.50096e-05
-5.53883e-05
-3.07984e-05
-7.18296e-06
2.92101e-05
6.54275e-05
0.000104837
0.00015818
0.000227318
0.000300292
0.000411678
0.000584223
0.00085347
0.00129792
0.00204716
0.00268584
0.0052259
0.00224796
0.0167674
-0.0159034
0.0122876
0.00728716
0.00832969
0.00753693
0.00150946
0.00218253
0.000655102
0.000934854
0.000988267
0.00169967
0.00040475
0.000488561
-0.000748089
-0.0009589
-0.000216295
0.000157185
-0.000621534
-0.000183293
-0.00110349
-0.000642178
-0.000473061
-0.000661518
-0.000730015
-0.00103776
0.000128485
-0.00116772
-0.000820217
-0.00171772
-0.000968374
-0.00157573
-0.000923261
-0.00182182
-0.00117302
-0.00212917
-0.00165763
-0.00230871
-0.00156422
-0.00221682
-0.00184068
-0.00213319
-0.0025842
-0.00258808
-0.00269181
-0.00299247
-0.0034189
-0.00309225
-0.00345991
-0.00175124
-0.00350084
-0.00424191
-0.00475664
-0.00335828
-0.00621772
-0.00476644
-0.0102873
-0.0203161
-0.0129337
-0.0108085
-0.00959474
-0.00385975
-0.00427806
-0.00318772
-0.00438985
-0.00237032
-0.00356868
-0.000928275
-0.00335885
0.00249139
-0.00694287
0.00451989
-0.010168
0.00778023
-0.0438785
-0.0013104
0.000170031
-7.8289e-05
-4.88662e-05
-7.78643e-05
-8.88064e-05
-0.000102839
-0.000116623
-0.000131211
-0.000139627
-0.000157464
-0.00017211
-0.000176239
-0.000189833
-0.00020749
-0.000203344
-0.00020494
-0.000224047
-0.000214939
-0.000199361
-0.000204821
-0.000193071
-0.000178512
-0.000159956
-0.000140413
-0.000123185
-0.000100166
-7.24121e-05
-4.89736e-05
-3.48336e-05
-1.72213e-05
6.78554e-06
2.22988e-05
3.79076e-05
4.03657e-05
3.55592e-05
4.22559e-05
3.0531e-05
5.67867e-05
3.24212e-05
0.000186653
0.000142363
0.000602774
-0.0013914
0.00568179
-0.0233698
0.015855
0.0067249
0.0127629
0.0153488
0.00913853
0.00879935
0.00454446
0.00354431
0.00136299
0.00273894
-0.000574922
0.0029275
-0.00125132
0.00151383
0.000672255
-0.000486052
-0.000395855
-0.00113429
-0.00091525
-0.000212825
-0.00147336
-0.000831756
-0.000100349
-0.00213596
0.000238345
-0.00109449
-0.00104406
-0.00121624
-0.00118368
-0.00132711
-0.00140569
-0.0016175
-0.0015693
-0.00190176
-0.00166158
-0.00209822
-0.00177012
-0.00232568
-0.00247344
-0.00199969
-0.00305804
-0.00265236
-0.00284776
-0.00283032
-0.00310681
-0.0033444
-0.00334619
-0.00197253
-0.00441031
-0.0046634
-0.00400012
-0.00397621
-0.00609056
-0.00762022
-0.0178112
-0.0127612
-0.00911153
-0.00405218
-0.00275203
0.0013321
-0.00118659
0.00131818
-0.000932862
0.000911735
-0.000441083
0.00135392
-0.000854434
0.00285312
-0.00545892
0.00426281
-0.0100981
0.00573397
-0.0440717
-0.00130665
0.000168663
-7.79355e-05
-4.89589e-05
-7.77421e-05
-8.82324e-05
-0.000102865
-0.00011589
-0.000132085
-0.000140681
-0.00015628
-0.000172695
-0.000177758
-0.000187913
-0.000208839
-0.000206267
-0.000207172
-0.00022409
-0.000220335
-0.000200279
-0.00021023
-0.000201441
-0.000185087
-0.000170881
-0.000153498
-0.000137587
-0.000126762
-9.69513e-05
-7.7801e-05
-6.58518e-05
-6.83279e-05
-6.32579e-05
-5.88594e-05
-6.6457e-05
-8.33699e-05
-0.000118453
-0.000180097
-0.000240562
-0.000326585
-0.000387531
-0.000302421
0.000105577
0.00122247
0.0034401
0.00742667
0.0140942
0.00771787
0.0240796
0.00442581
0.0173754
0.00134366
0.00596672
0.00181425
0.00599694
0.0051727
0.00136258
0.00254699
0.00170888
-0.00010418
0.0016666
-0.00340424
0.000841843
-0.0025388
0.00035645
-7.49304e-05
-0.000788361
-0.000239203
0.000211676
-0.00133157
0.000249028
-0.0013026
-0.000423527
-0.00114335
-0.000487706
-0.000815399
-0.00129197
-0.00126769
-0.00121656
-0.00148498
-0.00174632
-0.00166181
-0.0020938
-0.00181772
-0.00221392
-0.00231289
-0.00224202
-0.00257606
-0.00209532
-0.00221948
-0.00265614
-0.00255513
-0.00347776
-0.00260508
-0.00329037
-0.00403262
-0.00262372
-0.0027961
-0.00662837
-0.00920066
-0.0188888
-0.0111232
-0.011649
-0.0125027
-0.0111514
-0.00802801
-0.00630539
-0.00936167
-0.00342547
-0.00524189
-0.00191899
-0.00311766
-0.000950516
-0.00270448
0.00065751
-0.00508825
0.00267519
-0.0119755
0.00577825
-0.0424649
-0.00130267
0.000167226
-7.86638e-05
-4.95181e-05
-7.77012e-05
-8.86892e-05
-0.000103128
-0.000115692
-0.000132443
-0.000140113
-0.000156522
-0.000173306
-0.000179504
-0.000187955
-0.000208462
-0.000208706
-0.000212399
-0.000221962
-0.000224354
-0.000207972
-0.000210814
-0.000208381
-0.000195006
-0.000179067
-0.000166079
-0.000153415
-0.000141782
-0.000126779
-9.91872e-05
-9.59867e-05
-0.000112152
-0.00011997
-0.000147254
-0.000179553
-0.000268468
-0.00038617
-0.000575575
-0.000932221
-0.00141927
-0.0023305
-0.00360744
-0.00563331
-0.00934328
-0.0113835
-0.0294519
-0.00753119
-0.0211882
0.0305406
-0.00294979
0.0105731
-0.0028598
0.00418291
-0.000686541
-0.000277061
-0.00316591
0.00175373
-0.0029939
-0.0026872
-0.00232103
-0.00157936
0.00213339
-0.00137941
-0.000620677
-0.00149074
-0.000723484
-0.00103619
-0.000232409
-0.00108269
-0.000847949
-0.000446136
-0.00111425
-0.000674801
-0.00120967
-0.000732396
-0.00150541
-0.000627322
-0.00134645
-0.0010331
-0.00150711
-0.00129009
-0.00173153
-0.00155848
-0.0016241
-0.00166571
-0.00151028
-0.00198088
-0.00221733
-0.00233037
-0.00238216
-0.0024161
-0.00236179
-0.00176507
-0.00171961
-0.00205053
-0.000297542
-0.00321817
-0.0047184
-0.0111253
-0.0190119
-0.0113528
-0.0125404
-0.00409883
-0.00168909
-0.000586184
0.00386402
0.00235075
-0.000796184
0.00139049
-0.00203487
-0.000171036
-0.00160922
-5.40102e-05
-0.00159653
0.000507852
-0.00282846
0.000824077
-0.0117457
0.00574367
-0.0394349
-0.00129796
0.00016576
-7.87856e-05
-4.97277e-05
-7.7137e-05
-8.85686e-05
-0.000103774
-0.000115056
-0.000132562
-0.000142616
-0.000154312
-0.000173938
-0.000181566
-0.000189303
-0.000207109
-0.000212142
-0.000218274
-0.000215922
-0.000231108
-0.000222693
-0.000206577
-0.000216696
-0.000207575
-0.000190991
-0.000182581
-0.000170301
-0.000161042
-0.000163457
-0.000140185
-0.000127487
-0.000144619
-0.000191842
-0.000206406
-0.000271458
-0.000339712
-0.000468695
-0.000619991
-0.000812837
-0.00108302
-0.00152188
-0.00186906
-0.00277188
-0.00335094
-0.00075622
-0.00453752
0.0293858
0.0552201
0.0296182
-0.010419
-0.00664998
-0.0113071
-0.00512984
-0.00831019
-0.00426934
-0.00273727
-0.00417366
-0.00429846
-0.00380888
0.00210936
-0.00725818
-0.000542618
-0.00359875
-0.00155525
-0.00130185
-0.00109909
-0.00137935
-0.000905686
-0.00142525
-0.00107427
-0.000952153
-0.000990494
-0.000949793
-0.001112
-0.000681395
-0.00152902
-0.000851161
-0.00137661
-0.000982401
-0.00160106
-0.00142173
-0.0017303
-0.00174124
-0.00200147
-0.00207097
-0.00174266
-0.00168326
-0.00128382
-0.000802391
-0.00120094
-0.0012144
-0.0015758
-0.00266427
-0.00121445
-0.00612322
-0.00327827
-0.00322476
-0.00375513
-0.0121034
0.000955267
-0.0027593
-0.0039037
-0.00668961
-0.00548184
-0.0070064
-0.000716992
-0.00589256
-0.0022789
-0.00320193
-0.00282795
-0.00090765
-0.00191224
-0.000340861
-0.00184505
-3.31064e-05
-0.0024607
-0.000598196
-0.0114678
0.00523944
-0.0362526
-0.00129337
0.000164346
-7.90802e-05
-5.01597e-05
-7.78916e-05
-8.8725e-05
-0.000103401
-0.000114986
-0.000132425
-0.000143969
-0.000153619
-0.000173179
-0.000184736
-0.000191336
-0.000206002
-0.000215753
-0.000222625
-0.000215872
-0.000234727
-0.000234111
-0.000208621
-0.000222741
-0.000221357
-0.000204158
-0.000195225
-0.000190155
-0.000183282
-0.000178873
-0.000174176
-0.000164702
-0.000176744
-0.000223139
-0.000266303
-0.00032392
-0.000420643
-0.000569601
-0.000803427
-0.00133263
-0.00175
-0.00265384
-0.00366836
-0.00573129
-0.00922181
-0.01146
-0.0269253
0.00486184
0.0643411
-0.0482729
-0.00587973
-0.010536
-0.00431286
-0.0109846
-0.00377473
-0.00826281
-0.00305018
-0.00440759
-0.000817872
-0.00106212
-0.00236267
-0.00130366
0.00036217
-0.000618598
-0.00166167
-5.62153e-05
-0.00105321
-0.00127105
-0.000810132
-0.00137676
-0.000547274
-0.000774568
-0.000727943
-0.000598431
-0.000912369
-0.000448511
-0.000961415
-0.000545068
-0.000990909
-0.000628591
-0.000733678
-0.000628717
-0.000671825
-0.00059221
-0.000798935
-0.000759152
-0.00127374
-0.00132051
-0.00146654
-0.00193355
-0.00135193
-0.00282602
-0.00125414
-0.00226565
-0.000418949
-0.00140381
-0.00190342
-0.00267786
-0.0105358
0.00332194
-0.000497336
-0.00921614
-0.00685407
-0.00567131
-0.00422461
-0.00232885
-0.00165837
-0.00518393
-0.00497873
-0.00238552
-0.00339773
-0.00166102
-0.00269631
-0.00102587
-0.00242763
-0.000933853
-0.00221101
-0.00198434
-0.0101685
0.00491421
-0.0323747
-0.001288
0.000162873
-7.9428e-05
-5.04176e-05
-7.78086e-05
-8.76392e-05
-0.000104799
-0.000115109
-0.000131195
-0.000146575
-0.00015301
-0.000172727
-0.000187959
-0.000192289
-0.000202743
-0.0002202
-0.000226773
-0.000220913
-0.000234934
-0.000241847
-0.000223919
-0.00022325
-0.000233967
-0.000221258
-0.000209638
-0.000212448
-0.000204375
-0.000198773
-0.000214134
-0.000197689
-0.000210414
-0.00023741
-0.000307809
-0.000342631
-0.000413191
-0.000495661
-0.000617783
-0.000653572
-0.000797699
-0.000840596
-0.000602866
0.000214898
0.000944674
0.00622071
0.00154431
0.0741317
-0.00278361
0.00191735
-0.00489293
-0.00177461
-0.010202
-0.00257896
-0.00695166
-0.00749868
-0.0040452
-0.00468844
-0.00140719
-0.00283143
-0.00320147
-0.00135889
-0.0035822
-0.00182315
-0.00169629
-0.00193033
-0.00126229
-0.00119772
-0.000920368
-0.00110596
-0.000349872
-0.00103627
-0.00101289
-0.000834424
-0.000929889
-0.000472182
-0.00118006
-0.000944144
-0.000969696
-0.000875891
-0.00125793
-0.00122185
-0.00143205
-0.0015642
-0.00151396
-0.00182183
-0.00322837
-0.00114637
-0.00272497
-0.000690624
-0.00208155
-0.00270712
-0.00139372
-0.000637307
0.000906048
-0.0060232
-0.00253324
0.00414179
0.00745197
-0.00425294
0.00236339
-0.00204413
-0.00194097
-0.00407603
-0.00181526
-0.00180001
-0.00262456
-0.00421951
-0.00298051
-0.00209867
-0.0025673
-0.00123692
-0.0019598
-0.000291057
-0.00164067
-0.000406841
-0.00202052
-0.00220584
-0.00807001
0.00268383
-0.0289459
-0.00128268
0.000161435
-7.96084e-05
-5.07245e-05
-7.78086e-05
-8.82912e-05
-0.000105004
-0.000114254
-0.000131365
-0.000147406
-0.000154782
-0.000170574
-0.000189768
-0.00019546
-0.000200366
-0.000224216
-0.000231084
-0.000226607
-0.000236153
-0.000248366
-0.000245129
-0.000223233
-0.000243899
-0.00024535
-0.000225499
-0.000230101
-0.000231467
-0.000228447
-0.000231125
-0.000235639
-0.000229964
-0.000248878
-0.000287091
-0.000321982
-0.000333669
-0.000386763
-0.000401981
-0.000423015
-0.000533483
-0.000732223
-0.000783057
-0.00178731
-0.00156546
-0.00440514
-0.00316952
0.0412838
-0.00567136
0.00764744
0.000518837
0.00364209
-0.00128784
0.00545576
-0.000297788
0.00233565
-0.00156682
-0.00105998
-0.00486597
-0.00307331
-0.00181382
-0.00157286
-0.00259675
-0.00211114
-0.000902045
-0.00174799
-0.000818056
-0.00142799
-0.000830547
-0.00112094
-0.000497039
-0.000806057
-0.000650921
-0.000724288
-0.00057245
-0.000909632
-0.00026929
-0.0011265
-0.0004205
-0.00107664
-0.000855538
-0.000619777
-0.00105919
-0.00117442
-0.00102605
-0.0020186
-0.000977419
-0.00333253
-0.00289973
0.000564772
0.00143727
3.70907e-06
-0.00445159
-0.00016861
0.00208737
0.00682649
0.00415349
-0.000525288
-0.000882487
0.000604629
-0.00137056
-0.00279867
-0.00393402
-0.00266717
-0.00437563
0.000512035
-0.00303607
-0.00187892
-0.0022047
-0.0016858
-0.00260196
-0.00116251
-0.00191789
-0.000199728
-0.001878
-0.000945847
-0.00245351
-0.00247821
-0.0060829
0.00141691
-0.0252858
-0.00127677
0.000160101
-7.9683e-05
-5.08305e-05
-7.882e-05
-8.71988e-05
-0.000105022
-0.000115298
-0.000129854
-0.000148274
-0.000157463
-0.000167764
-0.000191404
-0.000199366
-0.000201052
-0.000226833
-0.000235646
-0.000229597
-0.000242628
-0.00025112
-0.000258844
-0.000240292
-0.000246272
-0.000262616
-0.000251564
-0.000243032
-0.00025736
-0.000251629
-0.000248082
-0.000269939
-0.000258146
-0.000245787
-0.000275657
-0.000275396
-0.00027644
-0.000239707
-0.000207256
-0.000113952
4.39209e-05
0.00020117
0.00105515
-0.000353128
0.00632026
-0.0122317
0.0466336
0.00737573
0.00168076
-0.000264387
0.0017259
0.000934749
-0.000389358
-0.00202223
-0.00563536
0.000851081
-0.00573406
0.0036202
-0.00365236
0.00154242
-0.00413007
-6.21762e-05
-0.00348573
-0.000951655
-0.00155052
-0.0015332
-0.000866872
-0.00189421
-0.000531086
-0.00107509
-0.000337154
-0.000748115
-0.000172034
-0.000951603
-0.0003036
-0.00112291
-0.000375591
-0.00114292
-0.00107175
-0.00159418
-0.00182879
-0.00177275
-0.00231775
-0.00199775
-0.00158192
0.00247729
0.000112602
-0.00150735
-0.0028912
-0.00265083
4.98546e-06
0.00535541
0.0059102
0.00102642
0.00192876
0.000799476
0.00113627
0.00221353
0.000895169
0.00022182
0.00107268
0.000559763
8.66976e-05
-0.000581562
-0.00486347
-0.000667964
-0.00502603
-0.00108159
-0.00352033
-0.00179239
-0.00239599
-0.00111097
-0.00182176
-3.57998e-05
-0.00179565
-0.000738543
-0.0022695
-0.00202079
-0.00467727
0.000535129
-0.0223339
-0.00127078
0.000158637
-8.00302e-05
-5.09753e-05
-7.87956e-05
-8.69735e-05
-0.000105752
-0.000115995
-0.000128987
-0.000148146
-0.000159937
-0.000167404
-0.000191886
-0.000202746
-0.000205325
-0.00022644
-0.000239119
-0.000238164
-0.000248421
-0.000257331
-0.000267483
-0.000266876
-0.000248126
-0.000277328
-0.000280763
-0.000262999
-0.000275186
-0.000283561
-0.000279483
-0.000282109
-0.000293025
-0.000255482
-0.000255886
-0.000228907
-0.000175088
-0.000127586
6.36657e-05
0.000249703
0.000654083
0.00137399
0.00224828
0.00313081
0.0074641
0.00320011
0.0444584
-0.00664092
0.00282193
-0.00439005
-0.0012634
-0.00371871
0.00133964
-0.00429034
0.000241018
0.00152281
-0.00329766
-0.000178736
-0.00398257
-4.97743e-05
-0.00274941
0.000706996
0.000493713
-0.00285508
-0.000124079
-0.00108825
2.46207e-06
-0.00160483
4.51478e-05
-0.00187077
7.67044e-05
-0.00151454
-0.000305501
-0.0017137
-0.000585703
-0.00202054
-0.000537165
-0.00264374
-0.00145003
-0.0015478
0.00208783
0.00224666
0.0015552
-0.00195707
-0.00285048
-0.000191113
0.00243507
0.0042419
0.00550519
0.00227507
0.000254292
0.0017595
-0.000708279
0.00237947
0.00159477
0.00236737
0.000788502
0.00164378
0.00102696
0.000614892
-0.000303277
-0.00012137
-0.00133584
-0.000574702
-0.00315347
-0.000319368
-0.00243844
-0.000460696
-0.00192452
-0.00113838
-0.0020436
-0.000874381
-0.00144798
0.000351473
-0.00165779
-0.000964803
-0.00241314
-0.00195516
-0.00406528
-4.03793e-05
-0.0195869
-0.00126435
0.000157358
-7.99863e-05
-5.09718e-05
-7.87352e-05
-8.72102e-05
-0.000104677
-0.00011725
-0.000128193
-0.000148191
-0.000162946
-0.00016815
-0.000190489
-0.000205855
-0.000210175
-0.000224826
-0.000242406
-0.000250489
-0.000250661
-0.000265575
-0.000276588
-0.000286541
-0.00026716
-0.000281218
-0.000304406
-0.000293679
-0.000290083
-0.000310602
-0.000305336
-0.000299595
-0.000312986
-0.000289073
-0.000249087
-0.000230958
-0.000193921
-0.000152618
-0.000115552
2.74956e-05
0.000184518
0.000438248
0.000760963
0.000814096
0.00251608
-0.003801
0.0363132
-0.00327389
0.00759803
-0.0021673
0.00270859
-0.00160612
0.00135681
-0.00140505
0.00452347
-0.00241198
0.00258593
-0.00459928
0.00431266
-0.00324906
0.00296105
-0.00377564
0.00107905
-0.00356648
0.000541507
-0.000488952
0.000824895
-0.00256498
-0.000847064
-0.000744224
-0.00171555
-0.000312072
-0.00222815
-0.000975326
-0.0010179
0.00107702
0.00140082
0.000328778
-0.00234659
-0.00341289
-0.000956662
0.00133906
0.00307371
0.00555959
0.00432097
0.00142848
0.00122791
0.0012172
-3.19022e-05
0.00193322
0.00151748
0.00222747
0.00075957
0.00264662
0.000972934
0.00224386
0.00112445
0.00130267
0.000876347
0.00134121
-0.000141178
0.00120882
-0.000839276
-6.11159e-06
-0.00169396
-0.00076043
-0.00247561
-0.000617653
-0.00182944
-0.00108311
-0.00176958
-0.00072017
-0.00128064
0.000276724
-0.00199855
-0.000816595
-0.00230062
-0.00152187
-0.00350807
-0.000329817
-0.0171431
-0.0012577
0.000156033
-8.00639e-05
-5.0865e-05
-7.97353e-05
-8.72737e-05
-0.000103614
-0.000118442
-0.000128467
-0.000147013
-0.000164614
-0.000170562
-0.000188072
-0.000208461
-0.000215092
-0.000224459
-0.000246328
-0.000260239
-0.000257098
-0.000272036
-0.000289228
-0.000298231
-0.000294839
-0.000284987
-0.000323806
-0.000330789
-0.000314725
-0.000330488
-0.000339721
-0.000333715
-0.000329407
-0.00033319
-0.000283294
-0.000257937
-0.000224599
-0.000213674
-0.000185854
-0.000201475
-0.000436415
-0.000625765
-0.00180528
-0.00178862
-0.00600028
-0.00247224
0.0177859
-0.00461016
0.00460502
-0.00175437
0.00211162
-0.00149061
0.000924636
-0.00063833
0.00107788
-0.00137589
0.00471129
-0.000387008
0.00416725
-0.00536858
0.00515442
-0.0021727
0.00301585
-0.00149839
0.000953472
-0.00118676
0.000658142
-0.000588982
-0.000972124
-0.00066471
0.000504989
0.000446278
-0.000857078
-0.001028
-0.00276125
0.000799736
0.00216994
0.0038499
0.00631613
0.00678787
0.00175502
0.0015315
0.00171486
0.00147137
0.00117144
0.00198746
0.00231321
0.00196579
0.00168271
0.00145213
0.00158351
0.00148221
0.00104116
0.00230992
0.000624209
0.00189713
0.000956822
0.00104416
0.000669722
0.00105918
-0.000232476
0.000696439
-0.000919697
-2.31929e-05
-0.00104435
-0.000948861
-0.00189317
-0.000498398
-0.00121256
-0.000851472
-0.00158048
-0.000480543
-0.000951419
0.000164512
-0.0020374
-0.000862468
-0.00224517
-0.0014211
-0.0033374
-0.00051176
-0.0149725
-0.00125063
0.000154747
-8.00621e-05
-5.07841e-05
-7.91843e-05
-8.73533e-05
-0.000102994
-0.000119183
-0.000129533
-0.000144912
-0.00016585
-0.000173967
-0.000187278
-0.000209416
-0.000222315
-0.00022744
-0.000249689
-0.000267855
-0.000266478
-0.000278922
-0.000301796
-0.000312777
-0.000318546
-0.000308268
-0.000326024
-0.000356877
-0.000352783
-0.000350142
-0.000369308
-0.000370012
-0.000360415
-0.000361949
-0.000342795
-0.000311559
-0.000270863
-0.000254363
-0.000207872
-0.000152843
-0.00014463
0.000307188
-0.00104354
0.0038946
-0.0109972
0.0356979
0.00729291
0.000322561
0.000177235
-0.000468597
-0.000643705
-0.00100368
-0.000263144
-0.000495223
-0.000262698
0.000418689
0.00103053
0.00400994
-0.0019818
0.00613431
0.000798506
0.000799684
-0.000839702
0.00028448
-0.00196187
0.00266372
0.00104049
-0.000273731
-0.000990819
-0.00244817
0.000715652
0.0025733
0.00347666
0.00620568
0.00614057
0.00147653
0.00204976
0.00183818
0.00192038
0.0016828
0.001837
0.00243232
0.00226789
0.00213502
0.00208823
0.0015698
0.00209414
0.00180413
0.00186368
0.00156102
0.00204176
0.00176435
0.00165006
0.00185169
0.000935302
0.00157357
0.000906979
0.000701191
0.0004451
0.000417287
0.000541062
0.000791812
-0.00030668
0.00019841
0.000141442
-0.00104768
-0.0012022
-0.000751171
-0.00126656
-0.00077051
-0.00139728
-0.00032878
-0.000898812
-7.98613e-05
-0.00203183
-0.000955626
-0.00212517
-0.00116516
-0.00310598
-0.000494741
-0.0129517
-0.00124328
0.000153411
-7.97968e-05
-5.07085e-05
-7.92929e-05
-8.74336e-05
-0.000102032
-0.000119215
-0.000130947
-0.000143526
-0.000166199
-0.000178031
-0.000186343
-0.000210641
-0.000228685
-0.000231201
-0.000250266
-0.000274415
-0.000278564
-0.000286517
-0.000312763
-0.000327195
-0.000338116
-0.000335412
-0.000339238
-0.000375717
-0.000397209
-0.000381546
-0.000398518
-0.000409242
-0.000411664
-0.000407339
-0.00040399
-0.000400746
-0.000321837
-0.000324362
-0.000212777
-0.000125397
0.000132432
0.000593302
0.00074136
0.00413127
-0.00211131
0.0401417
-0.0048602
-4.81739e-05
-0.00257012
-0.000637557
-0.00194518
-0.00180266
-0.00169551
-0.00253056
-0.00214231
-0.00475557
-0.0018077
-0.00939612
-0.00932671
-0.00261738
-0.00610179
0.0091051
-0.00502786
0.00236871
-0.00150134
-0.00233136
0.0040909
0.00269302
0.00643238
0.0062629
0.00294664
0.00314026
0.00319502
0.00343599
0.00283999
0.00415643
0.00331292
0.00455156
0.00366259
0.00367203
0.00331024
0.00342028
0.00265482
0.00291292
0.00232055
0.00254151
0.00189085
0.00195132
0.00149247
0.00151034
0.00153597
0.00134414
0.00133029
0.00113146
0.000616894
0.000965468
0.000564235
0.000485679
0.000110893
0.000159185
-2.67491e-05
0.000526617
-4.2767e-05
-1.88442e-05
0.000228244
-0.0012394
-0.00104269
-0.000788048
-0.00095204
-0.000552217
-0.0012682
-9.61665e-05
-0.000813037
-0.000330672
-0.00195382
-0.00112448
-0.0020578
-0.0010737
-0.00302418
-0.000496983
-0.0111176
-0.00123548
0.000152152
-7.95255e-05
-5.06368e-05
-7.89438e-05
-8.75091e-05
-0.000101488
-0.000119154
-0.00013356
-0.000141864
-0.000166097
-0.000181651
-0.000187145
-0.00021066
-0.000232926
-0.000236366
-0.000252816
-0.000279662
-0.000293044
-0.000295235
-0.00032195
-0.000340941
-0.000361642
-0.000360826
-0.000367769
-0.000384665
-0.000425439
-0.000428469
-0.000423495
-0.000448207
-0.000459423
-0.000473434
-0.000473987
-0.000465511