/*--------------------------------*- C++ -*----------------------------------*\
| =========                 |                                                 |
| \\      /  F ield         | OpenFOAM: The Open Source CFD Toolbox           |
|  \\    /   O peration     | Version:  2.2.x                                 |
|   \\  /    A nd           | Web:      www.OpenFOAM.org                      |
|    \\/     M anipulation  |                                                 |
\*---------------------------------------------------------------------------*/
FoamFile
{
    version     2.0;
    format      ascii;
    class       volScalarField;
    location    "1.45";
    object      Bz;
}
// * * * * * * * * * * * * * * * * * * * * * * * * * * * * * * * * * * * * * //

dimensions      [1 0 -2 0 0 -1 0];

internalField   nonuniform List<scalar> 
14161
(
-1.59633e-15
-1.92296e-15
-1.19778e-15
-1.92679e-15
2.58816e-16
-1.88792e-15
6.66366e-16
-3.59678e-15
2.31948e-15
-5.39536e-15
1.17181e-15
-1.90508e-15
3.64139e-15
-1.34447e-14
2.13018e-14
-2.7619e-14
2.38302e-14
-2.25289e-14
3.75418e-15
2.07169e-14
-4.97576e-14
8.31951e-14
-8.56496e-14
7.59094e-14
-6.79241e-14
6.11495e-14
-6.36318e-14
1.19473e-13
-3.15822e-13
1.49816e-14
1.67251e-13
3.39717e-12
-1.58008e-11
7.83778e-11
-1.75924e-10
4.00506e-10
-7.75041e-10
1.47329e-09
-3.00518e-09
5.7251e-09
-9.39405e-09
1.5211e-08
-2.25883e-08
2.4651e-08
-3.19118e-08
-1.05327e-07
3.32256e-06
5.9341e-07
1.96315e-05
3.11641e-05
4.00988e-05
-6.09708e-05
0.000595008
0.000604988
-0.00147777
-0.000749568
0.00312078
0.0029271
-0.00234377
-0.00530656
-0.00194931
0.00398223
0.0049865
0.000523244
-0.00517355
-0.00591809
-0.0016975
0.00366424
0.004692
0.00251324
-0.00299489
-0.00539252
-0.00307235
0.00240858
0.00481555
0.00339963
-0.00152466
-0.00433334
-0.0027785
0.00138928
0.00395515
0.0031863
-0.0011423
-0.00456256
-0.00431103
-0.000711521
0.00404827
0.00407867
-5.58546e-06
-0.0040947
-0.00495365
-0.00294294
0.00131759
0.00525465
0.00510658
0.00110466
-0.00249545
-0.00388371
-0.00294338
0.000424049
0.00423943
0.00519739
0.0017236
-0.00184191
-0.00292297
-0.00290966
-0.00109508
0.00249087
0.00150223
-0.000535673
2.44207e-05
-0.00013419
-0.000419696
9.03257e-05
0.000196927
-6.17636e-06
-0.000111914
-3.65824e-05
-2.09891e-05
-1.74984e-15
-2.10831e-15
-1.28279e-15
-2.0044e-15
2.89045e-16
-2.03112e-15
8.25832e-16
-3.89421e-15
2.64291e-15
-5.9155e-15
1.63281e-15
-2.40479e-15
4.21331e-15
-1.47393e-14
2.45091e-14
-3.53437e-14
2.87346e-14
-2.64697e-14
1.35953e-14
1.83454e-14
-4.78195e-14
8.68876e-14
-9.36572e-14
7.91566e-14
-6.72336e-14
6.49448e-14
-9.22766e-14
2.07307e-13
-3.94517e-13
4.99265e-14
2.3225e-13
3.67367e-12
-1.32422e-11
6.94788e-11
-1.58198e-10
3.56479e-10
-6.77326e-10
1.28758e-09
-2.67227e-09
5.04272e-09
-8.23875e-09
1.39836e-08
-2.09905e-08
1.25902e-08
2.45439e-08
-2.03124e-06
-2.19718e-06
-1.25031e-05
-1.24371e-05
5.54448e-05
3.62779e-05
-0.000354674
-6.89586e-05
0.00108106
0.000249035
-0.00220296
-0.0008936
0.00269942
0.00275605
-0.00152745
-0.00451595
-0.00190896
0.00312196
0.00440926
0.000614295
-0.00407346
-0.00376932
0.000316643
0.00371566
0.00309681
-0.000424588
-0.00342757
-0.0030461
0.000221017
0.00325808
0.00261937
-0.000696126
-0.00321304
-0.00239509
0.000660659
0.00327684
0.00279613
-0.000510539
-0.00263877
-0.00263689
-0.000582597
0.00283845
0.00355228
0.000789524
-0.00236374
-0.00388526
-0.00286237
0.000744711
0.00439067
0.00531685
0.001476
-0.0026721
-0.00417687
-0.00383661
0.000327184
0.00438788
0.00443711
0.00116848
-0.00151184
-0.00267293
-0.00273942
0.000230064
0.00285881
-4.0709e-05
-0.000559193
0.0001879
-0.000290975
-0.000308631
0.000223012
0.000146324
-5.44104e-05
-0.000121546
-4.4866e-05
-2.96843e-05
-1.87231e-15
-2.26229e-15
-1.36115e-15
-2.15096e-15
3.56602e-16
-2.34459e-15
1.19765e-15
-4.58755e-15
3.34399e-15
-7.02506e-15
2.7704e-15
-3.78751e-15
5.02141e-15
-1.72405e-14
2.95553e-14
-4.33492e-14
4.38866e-14
-4.60613e-14
2.20959e-14
8.62994e-15
-3.89476e-14
7.8532e-14
-9.56338e-14
7.90165e-14
-6.27806e-14
6.28712e-14
-9.94261e-14
2.37039e-13
-4.46273e-13
3.32387e-13
-6.1118e-13
-8.67781e-14
-5.74396e-12
5.33044e-11
-1.4462e-10
3.37055e-10
-7.25188e-10
1.44896e-09
-3.32418e-09
6.26246e-09
-1.00667e-08
1.85341e-08
-3.17899e-08
2.47421e-08
-1.48419e-07
-3.94297e-06
-9.25316e-06
-1.51054e-05
-1.71449e-05
8.72298e-06
0.000116364
-0.000195213
-0.000656589
0.000413125
0.00177105
-0.00050253
-0.00300247
-0.000770614
0.00334942
0.00290311
-0.00175962
-0.00400684
-0.00101367
0.0031637
0.00329317
-0.000469641
-0.00282785
-0.00144955
0.00156127
0.00259665
0.000683173
-0.00179226
-0.00226193
-0.00027826
0.00212274
0.00188909
-0.000766673
-0.00277259
-0.00158826
0.000791835
0.00244292
0.00196535
-0.000389101
-0.00208388
-0.00191167
-0.000374116
0.0018122
0.00234012
0.0011873
-0.00133509
-0.00344202
-0.00261887
0.000660535
0.00289423
0.00382947
0.00203881
-0.00181468
-0.00410469
-0.00374434
0.00101838
0.00309981
0.00288937
0.00113422
-0.000983999
-0.00238306
-0.00190115
0.0024418
0.00132115
-0.000934156
-0.000114904
0.000195412
-0.000420299
-0.000121241
0.000285931
6.52422e-05
-8.69032e-05
-0.000119958
-4.18371e-05
-2.83998e-05
-2.06636e-15
-2.50931e-15
-1.58855e-15
-2.94286e-15
6.07696e-16
-3.65665e-15
2.3302e-15
-6.95484e-15
6.30048e-15
-1.09647e-14
6.69698e-15
-8.11729e-15
1.00178e-14
-2.72688e-14
4.12931e-14
-6.81527e-14
6.59849e-14
-6.32222e-14
3.98216e-14
-1.15079e-14
-2.06192e-14
5.60232e-14
-6.97136e-14
6.66853e-14
-4.46027e-14
4.71795e-14
-5.98297e-14
1.25795e-13
-2.62485e-13
3.33577e-13
2.14235e-13
5.83257e-12
-1.85252e-11
6.80366e-11
-1.466e-10
3.98945e-10
-8.43898e-10
1.79902e-09
-3.9813e-09
7.39002e-09
-1.35413e-08
2.72864e-08
-5.46792e-08
5.93118e-08
-4.2829e-07
-6.64092e-06
-1.98178e-05
-3.10076e-05
-7.88807e-06
8.28032e-07
-4.27464e-05
-2.32492e-05
-0.000124766
-0.000508344
8.98404e-05
0.00147477
0.000221567
-0.00252257
-0.00194343
0.00159853
0.0028629
0.000473061
-0.00227257
-0.00242173
-0.000409344
0.00110879
0.000739258
-3.12388e-05
-0.000344862
-0.00028889
-0.000333167
-0.000518473
-0.000357777
0.000455847
0.00108538
0.000377764
-0.00122657
-0.00166739
-0.000114997
0.001197
0.00116048
-9.59877e-05
-0.00142999
-0.00109143
0.000133655
0.000738318
0.000759199
0.000464479
0.000109861
-0.000544345
-0.00110773
-0.00101322
0.00010857
0.00103675
0.00211539
0.00178338
-0.000683742
-0.00306715
-0.00144499
0.000684676
0.00161493
0.00166522
0.000428076
-0.00128532
-0.00188969
0.000920041
0.00151987
-0.000529856
-0.000464233
0.000265478
-0.000103068
-0.000363367
0.000159147
0.000240537
-2.80738e-05
-9.98906e-05
-0.00011247
-3.8508e-05
-2.77886e-05
-2.45839e-15
-3.2022e-15
-1.77094e-15
-3.48813e-15
8.15982e-16
-4.776e-15
3.54635e-15
-9.09003e-15
8.23585e-15
-1.38105e-14
1.03635e-14
-1.22605e-14
1.42526e-14
-4.12952e-14
6.90673e-14
-1.12861e-13
1.22382e-13
-1.28714e-13
9.52071e-14
-5.88621e-14
4.20229e-14
5.15623e-15
-1.00769e-14
2.65647e-14
-4.67454e-15
-4.03169e-15
7.46152e-14
-3.76793e-14
-1.97598e-13
3.5557e-13
4.88332e-13
5.21008e-12
-1.51464e-11
5.62487e-11
-1.37922e-10
3.60664e-10
-7.50329e-10
1.59495e-09
-3.21109e-09
5.75138e-09
-1.05866e-08
2.21975e-08
-4.1647e-08
3.40664e-08
-8.05848e-07
-8.63432e-06
-2.91821e-05
-4.22439e-05
-1.59867e-05
2.85136e-07
-7.31855e-07
-0.000209197
-0.000185148
0.000296745
-6.12134e-05
-0.000931079
-0.000305159
0.00149184
0.00139642
-0.00188208
-0.00411456
-0.000932501
0.00411404
0.00427403
9.36944e-05
-0.00391317
-0.0038196
-0.000843189
0.00324129
0.00410542
0.00136462
-0.00220794
-0.00244207
-0.000426983
0.00186701
0.00210758
0.000393725
-0.00146456
-0.00138118
-4.54649e-05
0.00114517
0.000695445
-0.000644702
-0.00142083
-0.000500792
0.000630894
0.0010149
0.000562805
-0.000167419
-0.000480925
-0.000434291
-0.000223709
-9.14142e-05
0.000275231
0.000958267
0.000992686
-0.000440253
-0.00127041
-0.00078939
5.8554e-05
0.000759497
0.0008029
-0.000322054
-0.00130321
0.000134218
0.00104193
1.24679e-05
-0.000531316
8.64339e-05
0.000125498
-0.000262908
-9.53303e-05
0.000292641
0.000109352
-8.39699e-05
-9.19194e-05
-0.00010162
-3.51795e-05
-2.70989e-05
-2.90469e-15
-3.83961e-15
-2.22547e-15
-5.14274e-15
1.52749e-15
-6.84511e-15
5.10631e-15
-1.26178e-14
1.19971e-14
-1.88071e-14
1.5914e-14
-2.08785e-14
2.70204e-14
-6.49708e-14
1.18849e-13
-2.01408e-13
2.33461e-13
-2.55903e-13
2.11362e-13
-1.959e-13
1.6274e-13
-7.46484e-14
8.89233e-14
-8.9837e-14
1.1411e-13
-8.34766e-14
6.24068e-14
-1.11705e-13
2.57534e-13
-4.00408e-13
4.95261e-13
-4.6752e-13
2.62001e-12
-1.91266e-11
6.17355e-11
-1.07172e-10
2.11844e-10
-4.40216e-10
9.18267e-10
-2.03317e-09
4.14391e-09
-3.86134e-09
3.67994e-09
-5.01579e-08
-1.09545e-06
-1.06262e-05
-3.88224e-05
-4.31891e-05
8.759e-06
-0.000158561
-0.000155863
0.000301023
0.000217266
-0.000598271
-0.000406766
0.000722468
-0.000559363
-0.00159267
0.00166227
0.00345959
-0.000668334
-0.00511552
-0.00331486
0.00241696
0.00521376
0.00282189
-0.00255235
-0.00461004
-0.00313812
0.00172065
0.00405603
0.00273039
-0.000955133
-0.00275214
-0.00222417
0.000439741
0.00213494
0.00161884
-0.000252377
-0.00134276
-0.000621002
0.000550546
0.00060392
0.00015348
-0.000544046
-0.000506836
-1.43185e-05
0.000480632
0.000492803
0.000211028
-0.000221895
-0.000310716
-0.000225637
-0.000156176
0.000546299
0.00043929
-0.000100405
-0.000564489
-0.000607765
-0.000175388
0.000373035
0.000104645
-0.000696524
-1.60442e-05
0.000488141
0.000249006
-0.000397228
-0.00010419
0.000179753
-6.39383e-05
-0.000176021
0.000142809
0.000250124
-1.1268e-05
-9.05791e-05
-7.45565e-05
-9.14785e-05
-3.23174e-05
-2.61182e-05
-3.11662e-15
-5.0897e-15
-2.11516e-15
-7.16962e-15
1.73592e-15
-9.12678e-15
6.93447e-15
-1.6142e-14
1.55495e-14
-2.13602e-14
1.96035e-14
-2.80461e-14
4.05349e-14
-1.02082e-13
2.1295e-13
-2.96309e-13
4.29778e-13
-5.4945e-13
4.87668e-13
-4.57072e-13
4.65303e-13
-4.35817e-13
3.46794e-13
-5.4917e-13
6.52315e-13
-8.0717e-13
1.09622e-12
-1.52135e-12
1.29836e-12
-1.53113e-12
2.29328e-12
-4.00696e-12
6.53749e-12
-1.63589e-11
7.72659e-11
-2.63374e-10
6.08452e-10
-1.32487e-09
2.55558e-09
-4.90196e-09
9.5905e-09
-1.34673e-08
2.08122e-08
-9.61667e-08
-1.26275e-06
-1.16409e-05
-3.80511e-05
-1.47057e-05
6.36535e-05
3.40574e-05
-0.00100819
-0.00044231
0.00161268
0.00200479
-0.00151882
-0.0034235
0.000743396
0.00317749
0.00017191
-0.00305894
-0.00198105
0.00283084
0.00440253
-0.000637508
-0.00444472
-0.00236171
0.000896617
0.00241272
0.00196911
-0.000177317
-0.00153106
-0.00143276
-0.0002417
0.000633623
0.000496929
-2.83864e-05
-0.000109082
-0.000128215
-0.000131516
4.33346e-05
0.000479964
0.000555475
0.000226694
-0.000156875
-0.000396736
-0.000322063
-0.000166953
8.27797e-05
0.000185639
0.000216778
2.4118e-05
-4.53074e-05
-0.000300526
-0.000198666
8.76551e-05
0.000214106
5.1239e-05
-0.000312629
-0.000485989
-0.000153625
4.25021e-05
-0.000282465
1.79922e-05
0.000203646
0.000144134
-0.000111884
-0.000207756
0.000150601
2.98179e-05
-0.00011128
-1.29665e-05
0.000230818
0.000124173
-7.04374e-05
-6.75168e-05
-6.0772e-05
-8.40753e-05
-2.94704e-05
-2.4594e-05
-4.61994e-15
-6.75108e-15
-2.47646e-15
-9.43561e-15
2.29151e-15
-1.17619e-14
8.44543e-15
-1.91187e-14
1.7647e-14
-2.39966e-14
2.02999e-14
-2.57666e-14
4.49129e-14
-1.45058e-13
2.76385e-13
-4.65247e-13
6.93835e-13
-9.08747e-13
1.06928e-12
-1.14689e-12
1.207e-12
-1.2218e-12
1.15615e-12
-1.49154e-12
1.84867e-12
-2.81828e-12
4.84228e-12
-6.33292e-12
8.11803e-12
-8.86935e-12
8.56084e-12
-1.18021e-11
1.41021e-11
-1.4871e-11
2.73722e-11
-3.05269e-11
2.3034e-11
-5.04537e-11
2.68003e-10
-6.92409e-10
5.77852e-10
2.75043e-10
3.51803e-09
-8.16893e-08
-1.18266e-06
-1.0102e-05
-3.74005e-05
4.19942e-07
-0.000319143
0.00120554
-6.97084e-05
-0.00287699
-0.00211125
0.00246201
0.00646174
-0.000684972
-0.00853391
-0.000803606
0.00936784
0.00353973
-0.0094075
-0.00910118
0.00274726
0.0120671
0.00886662
-0.00403275
-0.0102448
-0.00915587
0.000810811
0.00804963
0.00781405
0.00269622
-0.0058191
-0.00706601
-0.00215535
0.00389765
0.00501667
0.00265086
-0.00175131
-0.00270692
-0.000570401
0.00154762
0.00152075
0.000430237
-0.00107346
-0.000824305
1.86385e-05
0.000292478
0.000207029
2.09222e-05
-4.65221e-05
-5.71863e-05
-0.000154955
-0.000224684
-0.000108705
7.30849e-05
3.18044e-05
-0.000279022
-0.000383863
-0.000214526
-9.04271e-05
9.69113e-05
0.000109616
2.71644e-05
7.26504e-05
-0.000151087
-2.68947e-05
7.23287e-05
-5.78757e-05
-3.03615e-05
0.000104935
0.000197004
1.7231e-05
-7.02019e-05
-3.68731e-05
-5.53835e-05
-7.79189e-05
-2.56951e-05
-2.17661e-05
-6.22985e-15
-8.54285e-15
-2.90778e-15
-1.14636e-14
2.82967e-15
-1.2895e-14
8.44892e-15
-1.90686e-14
1.76587e-14
-2.52824e-14
2.19041e-14
-2.89759e-14
5.8015e-14
-1.9547e-13
3.96695e-13
-6.2767e-13
1.01555e-12
-1.41387e-12
1.93161e-12
-2.54136e-12
2.78701e-12
-2.86986e-12
3.48774e-12
-3.59033e-12
3.26951e-12
-2.23851e-12
3.07155e-13
2.76647e-12
-7.44817e-12
1.19468e-11
-1.38408e-11
1.3086e-11
-6.35504e-12
-6.68709e-12
4.44788e-11
-5.78956e-11
-8.49865e-11
1.84484e-10
-1.6755e-10
5.21995e-10
-3.82152e-09
9.2622e-09
-9.747e-09
-4.17387e-08
-1.00279e-06
-8.4035e-06
-4.44749e-05
0.000104268
-0.0012296
0.000811734
0.00310198
-0.000140933
-0.00383067
-0.0053919
0.00118941
0.00770766
0.00287608
-0.00842417
-0.000948871
0.0099193
0.00273153
-0.0109647
-0.0111253
0.0021174
0.0138065
0.0120964
-0.00128358
-0.0117154
-0.0112985
-0.00393768
0.0083867
0.010208
0.00718656
-0.0048981
-0.00915766
-0.00615804
0.00238631
0.00625778
0.00568348
0.000926281
-0.00308788
-0.0033583
-0.000896923
0.00141528
0.00118038
0.000151451
-0.000431994
-0.000110572
0.00026759
0.000440578
6.34203e-05
-0.000135708
-0.000315117
-0.000364345
-0.000130758
0.000124302
5.73987e-05
-0.000354409
-0.00037833
-2.05087e-05
0.000189822
7.98352e-05
-5.00944e-05
8.02218e-05
-3.97549e-05
-0.00019892
6.92484e-05
4.89412e-05
5.48266e-06
2.96367e-05
0.000128005
0.000120357
-3.04395e-05
-3.93557e-05
-1.71533e-05
-5.66526e-05
-7.10822e-05
-2.16899e-05
-1.83887e-05
-6.97854e-15
-9.1185e-15
-3.3143e-15
-1.14877e-14
2.48788e-15
-1.1809e-14
7.11263e-15
-1.61846e-14
1.52868e-14
-2.14698e-14
2.04267e-14
-3.3225e-14
7.6151e-14
-2.39507e-13
4.64068e-13
-7.76236e-13
1.28263e-12
-1.86479e-12
2.77839e-12
-3.91483e-12
5.0134e-12
-6.78221e-12
7.85282e-12
-8.81831e-12
9.12972e-12
-9.44946e-12
8.25933e-12
-8.45834e-12
1.00113e-11
-1.18457e-11
1.13793e-11
-9.51244e-12
1.03486e-11
-3.38492e-11
1.22946e-10
-6.12602e-11
-8.51683e-10
1.79051e-09
-1.07547e-09
1.00957e-09
-3.30168e-09
2.25657e-09
-4.47421e-08
1.33539e-07
-7.56052e-07
-7.04036e-06
-3.87909e-05
0.000100166
-0.000996619
-0.00179012
0.00316269
0.00296547
0.000296478
-0.00268602
-0.00519362
-0.000733109
0.00237834
0.000344974
0.00457451
0.00807994
-0.000440113
-0.0122583
-0.0138963
-0.0027189
0.0140687
0.0162103
0.00903491
-0.00968693
-0.0145862
-0.0122434
0.000485812
0.0112758
0.0121235
0.00655917
-0.00787319
-0.0100852
-0.00750134
0.00288478
0.00708374
0.00658112
0.00109619
-0.00447337
-0.00478509
-0.00154038
0.00251319
0.00259376
0.000686798
-0.000565334
-0.00024189
0.000371834
0.000332081
-0.000187554
-0.000537894
-0.00043337
6.72583e-05
0.000344448
-0.000167682
-0.000374347
-6.25818e-05
0.000169043
4.05727e-05
-0.000123288
-9.61484e-06
9.0692e-06
-0.000203583
-3.5549e-06
0.000157593
2.03305e-05
-9.07509e-06
2.19924e-05
0.000122647
6.63478e-05
-2.76229e-05
-6.49436e-06
-1.39205e-05
-5.76519e-05
-6.05384e-05
-1.74569e-05
-1.4473e-05
-5.40471e-15
-7.02567e-15
-2.76161e-15
-8.3356e-15
1.1841e-15
-7.96701e-15
5.75959e-15
-1.30734e-14
1.2449e-14
-1.51853e-14
1.83524e-14
-3.69415e-14
8.96346e-14
-2.61099e-13
4.85111e-13
-8.60452e-13
1.40633e-12
-2.16318e-12
3.46267e-12
-4.72939e-12
6.35697e-12
-8.98371e-12
1.16363e-11
-1.32317e-11
1.64129e-11
-1.85019e-11
2.07429e-11
-2.65427e-11
3.87937e-11
-5.61054e-11
7.40484e-11
-1.02556e-10
1.98466e-10
-4.29751e-10
8.36322e-10
-7.54744e-10
-7.7116e-10
1.04854e-09
3.49404e-09
-1.03359e-08
1.35254e-08
-3.93485e-08
7.32831e-09
2.67468e-07
-1.09227e-06
-7.31507e-07
-6.35126e-05
-4.75152e-05
0.000231359
-0.00302034
0.000428466
0.00329148
0.00257393
0.000470276
-0.00310924
-0.00375072
-0.00585121
4.72617e-05
0.00958562
0.0130703
0.00286332
-0.0133538
-0.0181836
-0.0100873
0.0120222
0.0186131
0.0150629
-0.00296519
-0.015093
-0.0156126
-0.00861853
0.00932579
0.013458
0.0119608
-0.000922512
-0.00999428
-0.0102946
-0.00433359
0.0063456
0.0076813
0.00548231
-0.0034435
-0.00631685
-0.00437013
0.00191837
0.00371634
0.00165265
-0.000613678
-0.000360466
0.000561659
0.000429807
-0.000459021
-0.000770853
-7.52671e-05
0.000633935
-6.42413e-05
-0.000467714
-0.000174246
0.000103277
7.18775e-05
-9.26803e-05
-4.31166e-05
2.2557e-05
-9.80688e-05
-8.99525e-05
0.000183496
3.00101e-05
-1.53736e-05
-9.57105e-06
5.44937e-05
0.000123843
3.57149e-05
-9.25933e-06
9.7393e-06
-2.33916e-05
-5.44222e-05
-4.69377e-05
-1.23337e-05
-9.5931e-06
-1.19614e-15
-3.41935e-15
-7.15014e-16
-4.27773e-15
2.65643e-15
-3.76213e-15
5.03058e-15
-6.75183e-15
8.681e-15
-1.0207e-14
1.19426e-14
-2.90083e-14
8.74801e-14
-2.46268e-13
4.6721e-13
-8.63333e-13
1.42121e-12
-2.2546e-12
3.49832e-12
-4.89141e-12
6.85192e-12
-9.66718e-12
1.19754e-11
-1.36744e-11
1.62052e-11
-1.8891e-11
2.22376e-11
-3.39359e-11
5.22109e-11
-6.85165e-11
9.88093e-11
-1.63757e-10
3.5011e-10
-9.74581e-10
1.86224e-09
-1.40345e-09
-1.13591e-09
-1.79302e-10
1.11778e-08
-2.97633e-08
4.71941e-08
-1.31124e-07
7.92647e-08
5.83492e-07
-1.58724e-06
2.77466e-06
-4.66324e-05
4.32715e-05
0.000110415
-0.00164112
-0.0034506
0.00447068
0.00493294
0.00289999
-0.00233942
-0.00565859
-0.0104707
-0.00214956
0.0112179
0.0167371
0.00629678
-0.0138036
-0.0204097
-0.0123576
0.0102161
0.0182203
0.0159666
0.000310115
-0.0137465
-0.0153026
-0.010657
0.00682344
0.0129474
0.0123724
0.0024596
-0.00939376
-0.0107923
-0.00765838
0.00440674
0.00805828
0.0068148
-0.00187186
-0.00706699
-0.00439965
0.00239967
0.00411535
0.00111824
-0.00089583
0.000166654
0.000870313
-0.000192884
-0.0011326
0.000208456
0.000678121
-0.000274069
-0.000625725
-0.000212532
0.000165048
0.000212838
5.87862e-05
-6.20623e-06
3.74721e-05
-1.68882e-05
-7.36099e-05
9.60561e-05
8.8547e-05
-5.21223e-07
4.20195e-05
-8.71457e-06
7.75882e-05
0.000104707
1.60401e-05
4.33764e-06
1.01408e-05
-3.27437e-05
-4.55161e-05
-3.27377e-05
-7.71039e-06
-5.54537e-06
1.51388e-15
-4.20504e-16
1.51334e-15
-1.70587e-15
3.34503e-15
-2.46531e-15
5.72667e-15
-4.05615e-15
6.92574e-15
-3.07232e-15
4.14308e-15
-1.66188e-14
7.46195e-14
-1.99579e-13
3.96803e-13
-7.47481e-13
1.27739e-12
-2.11947e-12
3.14508e-12
-4.26692e-12
6.16974e-12
-8.57327e-12
1.04463e-11
-1.20977e-11
1.33619e-11
-1.42486e-11
1.65914e-11
-2.197e-11
2.90954e-11
-3.23897e-11
3.97556e-11
-8.12039e-11
2.73154e-10
-8.59502e-10
1.3547e-09
-2.26961e-10
-1.48268e-09
-1.27962e-09
1.06566e-08
-1.70694e-08
-3.17427e-08
1.50271e-07
-2.60654e-07
2.73575e-07
7.7975e-07
-1.61975e-05
0.000121612
-0.000426401
0.00499922
-0.00807832
-0.00535551
0.00053411
0.00843129
0.00925739
0.00102973
-0.0093718
-0.0125156
-0.00519003
0.0121575
0.0192071
0.00647762
-0.016296
-0.0206244
-0.00871926
0.0121688
0.0174407
0.0128981
-0.00451961
-0.0125677
-0.0120049
-0.00507638
0.00799143
0.0105798
0.00930835
0.000938091
-0.00832202
-0.00929416
-0.00634849
0.0042762
0.008453
0.0051434
-0.00370151
-0.00671382
-0.0015959
0.00384447
0.00252026
-0.00057661
2.38025e-05
0.00094938
-0.000607435
-0.000722024
0.000465159
0.000281978
-0.000566948
-0.000617567
-4.78842e-05
0.000395649
0.000421377
0.000199992
1.78936e-05
-1.45195e-05
-2.88799e-05
-7.09498e-05
-7.70555e-06
0.000104988
2.53388e-05
8.45779e-05
-2.52197e-05
-4.15216e-05
9.82506e-05
8.18764e-05
4.71831e-06
1.05151e-05
6.06654e-06
-3.36238e-05
-3.19477e-05
-1.9848e-05
-3.54871e-06
-2.13593e-06
2.17679e-15
6.50206e-16
1.80007e-15
-5.81903e-16
3.49989e-15
-2.1122e-15
5.57862e-15
-4.46993e-15
5.00399e-15
-7.86935e-16
2.36961e-15
-5.57545e-15
3.82825e-14
-1.26565e-13
3.01078e-13
-5.45146e-13
9.7233e-13
-1.67952e-12
2.50016e-12
-3.6503e-12
5.16797e-12
-6.77142e-12
9.08044e-12
-1.03733e-11
1.09966e-11
-1.18881e-11
1.36122e-11
-1.48164e-11
1.41844e-11
-9.7462e-12
-1.79831e-12
-1.70856e-12
1.04174e-10
-4.03967e-10
5.29371e-10
2.48399e-10
-3.6969e-10
-2.18902e-09
6.74613e-09
-6.78194e-09
-3.26748e-08
8.9151e-08
-5.94377e-08
-1.43931e-07
2.5457e-06
-4.1568e-05
0.000209414
-2.9225e-05
0.00523374
0.00448878
-0.0248355
-0.00551181
0.0151483
0.0179324
0.00406096
-0.0130141
-0.0146738
-0.00401443
0.0146881
0.018416
-0.00180883
-0.0205089
-0.0179189
0.00334684
0.0173928
0.0178799
0.00502003
-0.0136002
-0.0149838
-0.00845166
0.00661342
0.00967944
0.00901465
0.00191826
-0.00486203
-0.00653726
-0.00518291
-0.000689548
0.00580399
0.006288
-0.00058938
-0.0061874
-0.0022936
0.00281085
0.00209756
9.09848e-05
0.000305464
8.12121e-05
-0.000500269
-0.000116758
0.0003112
-0.000156396
-0.000662532
-0.00042953
0.000223507
0.000569355
0.000462917
0.000150985
-9.31522e-05
-0.000163233
-0.000138232
-0.000111099
-5.16107e-05
6.13516e-05
8.99683e-05
4.8527e-05
3.8912e-07
-0.000130483
2.51817e-05
0.00013923
5.536e-05
-2.71272e-06
1.57897e-05
6.13162e-06
-2.48588e-05
-1.72107e-05
-1.0122e-05
-9.6725e-07
-2.11111e-07
1.41894e-15
3.7049e-16
8.57271e-16
-7.13802e-16
1.63403e-15
-1.80618e-15
3.05674e-15
-2.5742e-15
1.37272e-15
1.89962e-15
-3.48954e-15
7.99144e-16
2.16039e-14
-8.14243e-14
1.86511e-13
-3.85384e-13
7.06691e-13
-1.20457e-12
1.67736e-12
-2.3441e-12
3.29634e-12
-4.66237e-12
6.75776e-12
-7.86906e-12
8.36002e-12
-9.60454e-12
1.13962e-11
-1.23946e-11
1.24477e-11
-1.08967e-11
1.03323e-11
-2.30479e-11
7.15276e-11
-1.78092e-10
1.91812e-10
-5.90021e-11
4.5648e-10
-9.09808e-10
-3.13457e-10
3.30971e-09
-4.81036e-09
-1.86e-08
5.45934e-08
-2.76554e-07
9.76995e-07
-1.63031e-05
-2.37383e-05
0.000100035
-0.0023474
0.0104686
-0.0108779
-0.0155279
0.0167784
0.0168879
-0.0043566
-0.0151186
-0.0102364
0.0032163
0.0203338
0.0169693
-0.0118569
-0.026039
-0.0175228
0.0129919
0.0229743
0.019133
-0.00566261
-0.019092
-0.0184995
-0.0019045
0.0136548
0.0137122
0.00324279
-0.00691705
-0.0064964
-0.00299425
0.000811201
0.00378328
0.00350562
-0.000833089
-0.00371991
-0.00103625
0.00172163
0.0014413
0.000245925
-5.46278e-05
-0.000182693
-0.000138667
4.23339e-05
-2.87375e-05
-0.000402465
-0.000523434
-9.65175e-05
0.000424102
0.00055204
0.000290672
-6.20832e-05
-0.000266687
-0.000283479
-0.000204461
-9.90209e-05
-8.06116e-07
9.75937e-05
0.000144533
5.92527e-05
-7.12981e-06
-7.70306e-05
-4.99854e-05
0.00013608
0.000118476
5.28605e-06
-5.65889e-06
2.55165e-05
1.04104e-05
-1.18666e-05
-4.39781e-06
-4.25981e-06
3.41483e-07
5.82982e-07
-6.82441e-17
-5.51047e-16
-3.43656e-16
-8.0744e-16
5.41478e-17
-9.77234e-16
8.14069e-16
-8.31529e-16
-4.68548e-16
2.05777e-15
-3.78871e-15
4.15825e-15
5.27436e-15
-3.39027e-14
8.39169e-14
-2.12484e-13
4.35544e-13
-6.99039e-13
1.00347e-12
-1.55618e-12
1.96993e-12
-2.93532e-12
3.67877e-12
-4.42753e-12
5.14634e-12
-6.27304e-12
7.51183e-12
-8.4014e-12
8.25209e-12
-8.08433e-12
9.96635e-12
-1.91625e-11
3.38301e-11
-5.9375e-11
6.10141e-11
-1.21239e-10
3.32015e-10
-3.16608e-10
-3.62284e-10
1.00657e-09
3.94409e-10
-4.53444e-09
2.47031e-09
-2.20461e-08
-1.42647e-06
6.07922e-06
-3.2224e-05
-9.03211e-06
-0.000255749
-0.000471187
0.00503907
-0.0142878
0.00915739
0.0140455
-0.00728372
-0.0149293
-0.00814412
0.00484265
0.022385
0.0175014
-0.014808
-0.0280818
-0.016538
0.0173017
0.0245669
0.0172892
-0.011079
-0.0201091
-0.0159178
0.00619724
0.0157434
0.00922261
-0.00688663
-0.00829262
-0.000907218
0.00315001
0.00199454
0.000390998
-0.0010844
-0.00113091
0.000399572
0.00109471
0.000514021
3.48768e-05
5.17431e-06
1.29801e-05
7.96863e-06
-5.48228e-05
-0.000253929
-0.000379131
-0.000215139
0.000176726
0.000448649
0.000371542
6.36397e-05
-0.000184631
-0.000251719
-0.000174149
-3.43683e-05
7.25085e-05
0.000152425
0.000186176
0.000164571
5.39832e-05
-6.90481e-05
-4.14689e-05
-5.45662e-05
3.03972e-05
0.000122516
2.90444e-05
-3.39168e-05
4.63561e-06
3.38004e-05
1.1092e-05
-1.62985e-06
2.62069e-06
-3.45779e-06
-1.07861e-06
-1.15115e-06
-3.30489e-16
-5.03866e-16
-4.51259e-16
-5.08748e-16
-2.95575e-16
-4.31003e-16
8.77227e-17
-1.75601e-16
-6.03903e-16
1.98194e-15
-3.73756e-15
6.01079e-15
-5.21196e-15
-5.42957e-15
2.87e-14
-1.01699e-13
2.45807e-13
-4.04994e-13
6.34793e-13
-9.82714e-13
1.27983e-12
-1.84889e-12
2.19288e-12
-2.55052e-12
3.16067e-12
-3.8268e-12
4.70871e-12
-5.22878e-12
5.63801e-12
-5.91333e-12
6.76109e-12
-7.23103e-12
8.08826e-12
-1.30297e-11
2.33241e-11
-4.28979e-11
-9.44713e-12
1.25773e-10
-7.17129e-12
-1.82401e-10
2.5058e-10
8.75007e-10
-8.24925e-09
-2.1467e-08
-6.63284e-07
-2.62565e-06
-4.72137e-06
-2.25785e-05
0.000199033
-0.000792848
0.00134173
2.19259e-05
-0.00953231
0.0148605
0.00874504
-0.0100087
-0.0171346
-0.00372812
0.0179956
0.0178262
-0.0113209
-0.0219341
-0.00786098
0.0152633
0.0173117
0.00497336
-0.0136595
-0.0132831
-0.00036417
0.0123816
0.00561753
-0.0054398
-0.00540452
0.00126341
0.0022519
0.000354973
-0.000610035
-0.000290199
0.000294138
0.000527359
0.000335228
0.000101074
9.8365e-05
0.000200688
0.000150139
-3.9143e-05
-0.000191352
-0.000282331
-0.00021479
1.9124e-05
0.000237896
0.000282462
0.000135581
-4.73074e-05
-0.000103397
-6.16687e-05
2.0481e-05
9.06511e-05
0.000123597
0.000121317
7.62917e-05
7.56684e-06
-8.69243e-05
-0.000162503
-0.000109569
-2.03972e-05
-7.2341e-05
2.72953e-05
6.19181e-05
-2.78487e-05
-2.93724e-05
2.69839e-05
3.85364e-05
1.03814e-05
6.14825e-06
4.79542e-06
-5.8965e-06
-3.65378e-06
-3.83569e-06
-2.29556e-16
-2.59603e-16
-2.58749e-16
-2.36305e-16
-2.05569e-16
-1.14221e-16
-1.53371e-16
1.98641e-16
-5.90553e-16
1.43848e-15
-2.5027e-15
4.40006e-15
-5.39088e-15
1.21738e-15
9.07279e-15
-4.62443e-14
1.17439e-13
-2.11685e-13
3.59222e-13
-5.71248e-13
8.20788e-13
-1.05113e-12
1.29474e-12
-1.6564e-12
1.976e-12
-2.56069e-12
3.00689e-12
-3.46215e-12
3.70465e-12
-4.16677e-12
4.72614e-12
-6.00553e-12
8.46814e-12
-1.19423e-11
1.59801e-11
-1.68906e-11
1.1798e-11
-3.71263e-11
8.02985e-11
-6.59648e-11
8.57544e-12
4.90054e-11
-5.68257e-09
-4.27113e-08
-3.74476e-07
-1.88003e-06
-1.72901e-06
-4.5968e-05
5.03003e-05
0.000227604
-0.000748918
0.00114668
8.80198e-06
-0.00489428
0.00555156
0.00172805
-0.00122343
0.00185316
0.000272565
-0.00572178
-0.00546556
0.00246027
0.0114974
0.00404679
-0.00558119
-0.00893886
-0.00312589
0.00566817
0.00496511
-0.000696932
-0.00272392
-0.000816694
0.000871565
0.000706321
-0.000157803
-0.000207552
0.0002466
0.000418575
0.000136673
-7.58154e-05
4.88222e-05
0.000240896
0.000225086
8.46502e-05
-0.000152444
-0.000238597
-0.000205826
-6.81341e-05
8.15212e-05
0.000143201
0.000106859
3.26076e-05
7.13473e-06
3.49343e-05
3.13745e-05
9.36555e-06
-1.81855e-05
-6.12142e-05
-0.000114946
-0.000157703
-0.000198276
-0.00022798
-0.000222004
-0.000147507
-1.42461e-05
-6.04308e-05
-8.6018e-05
6.78739e-05
4.03287e-05
-4.18464e-05
-9.52915e-06
3.9708e-05
3.34324e-05
9.05327e-06
1.26548e-05
3.84129e-06
-9.87002e-06
-6.69826e-06
-6.88768e-06
-1.44109e-16
-1.57498e-16
-1.54168e-16
-1.66985e-16
-1.20727e-16
-1.57523e-16
-7.49802e-17
-2.27818e-17
-3.21992e-16
7.39412e-16
-1.59654e-15
2.77018e-15
-4.17034e-15
3.30135e-15
1.98514e-16
-1.77094e-14
4.63439e-14
-9.55943e-14
1.7135e-13
-3.35268e-13
5.24015e-13
-6.59274e-13
8.28665e-13
-1.03527e-12
1.29392e-12
-1.72681e-12
2.0405e-12
-2.23363e-12
2.76316e-12
-3.25515e-12
3.84659e-12
-4.32676e-12
4.62166e-12
-4.45208e-12
2.56111e-12
-1.29504e-12
4.68516e-12
-5.1418e-12
5.14325e-13
7.22197e-12
-2.70834e-11
-3.34283e-10
-2.93463e-09
-5.30249e-08
-1.62788e-07
-1.07832e-06
-1.37398e-06
8.15563e-06
-3.88744e-05
2.49601e-06
0.000195441
-0.000375952
-5.57876e-05
0.00172722
-0.00294951
-0.00570056
0.013787
0.00808364
-0.0190384
-0.0129738
0.0156178
0.0143527
-0.00653692
-0.00982647
-0.0003508
0.00308355
0.00163272
1.25151e-05
-0.000445402
-0.000518773
-4.8819e-05
0.000239211
0.000147336
-9.37942e-05
1.66936e-05
0.00027056
0.000183575
-0.00012802
-0.000184623
7.89295e-05
0.000267978
0.000137572
-7.19755e-05
-0.000175087
-0.000194071
-8.75148e-05
6.89197e-06
5.94435e-05
6.08813e-05
3.93497e-05
4.91547e-05
7.44713e-05
6.50612e-05
-1.67684e-05
-0.000107412
-0.000173399
-0.000220657
-0.000264494
-0.000274912
-0.000260241
-0.000218519
-0.000162083
-9.22553e-05
-9.44317e-06
-2.46418e-06
-0.000102306
2.72421e-05
0.000116322
-8.57847e-06
-5.65975e-05
2.07736e-06
4.11996e-05
2.75413e-05
1.12237e-05
1.50698e-05
-7.46883e-07
-1.45301e-05
-9.34051e-06
-9.25479e-06
-1.09338e-16
-1.09531e-16
-9.26237e-17
-1.69253e-16
-3.58659e-17
-3.33764e-16
1.34503e-16
-5.47809e-16
3.74441e-16
-5.29508e-16
-1.69261e-16
7.02853e-16
-2.47051e-15
3.52195e-15
-4.55863e-15
6.04235e-16
7.52455e-15
-3.21354e-14
7.31998e-14
-1.39519e-13
2.44084e-13
-3.40927e-13
4.16923e-13
-5.62932e-13
7.7345e-13
-9.34826e-13
1.07551e-12
-1.21442e-12
1.53522e-12
-2.26919e-12
3.13998e-12
-3.89972e-12
4.78669e-12
-4.02397e-12
3.34921e-12
-8.26176e-12
2.07278e-11
-9.90361e-12
-9.30492e-12
-7.57989e-12
5.19539e-11
-3.13618e-10
-3.52772e-10
-3.52551e-08
-1.38739e-07
-3.5772e-07
-9.66352e-07
-1.49426e-06
7.44715e-06
-2.45228e-05
-3.13529e-05
0.000132662
-4.48121e-05
-0.000268134
0.000660475
-0.000314725
-0.000521799
-7.09867e-05
-0.00177635
0.00339918
0.00248171
-0.00376912
-0.00224841
0.00140127
0.00104293
-0.000100813
-0.000178636
-7.45158e-05
-2.75662e-05
2.13094e-05
5.64104e-05
4.26497e-05
-1.37501e-05
6.54757e-05
0.000159423
2.54059e-05
-0.0001823
-0.00013873
0.000105212
0.000200783
3.67642e-05
-0.000146989
-0.000152503
-8.31403e-05
-2.77395e-05
1.65688e-05
2.43334e-05
2.73043e-05
4.05038e-05
7.44669e-05
7.59333e-05
2.85482e-05
-6.33822e-05
-0.000155589
-0.000197597
-0.000219332
-0.000226381
-0.000209878
-0.000172492
-0.000132999
-0.000102765
-6.99352e-05
-2.38281e-05
-1.44716e-05
-8.10112e-05
-5.74761e-05
9.46727e-05
1.7756e-05
-0.000107526
-6.75667e-05
1.50153e-05
4.34399e-05
2.60812e-05
1.45001e-05
1.23518e-05
-7.35779e-06
-1.91695e-05
-1.18557e-05
-1.14295e-05
-1.67741e-16
-1.68277e-16
-1.3064e-16
-2.77286e-16
2.18574e-17
-7.21005e-16
6.37046e-16
-1.82106e-15
2.10045e-15
-3.79215e-15
3.8588e-15
-5.58471e-15
4.86468e-15
-5.15932e-15
2.80193e-15
1.34018e-15
-7.0507e-15
1.10694e-14
-1.42519e-14
9.50436e-15
-1.35799e-14