/*--------------------------------*- C++ -*----------------------------------*\
| =========                 |                                                 |
| \\      /  F ield         | OpenFOAM: The Open Source CFD Toolbox           |
|  \\    /   O peration     | Version:  2.2.x                                 |
|   \\  /    A nd           | Web:      www.OpenFOAM.org                      |
|    \\/     M anipulation  |                                                 |
\*---------------------------------------------------------------------------*/
FoamFile
{
    version     2.0;
    format      ascii;
    class       surfaceScalarField;
    location    "0.07";
    object      cfmax;
}
// * * * * * * * * * * * * * * * * * * * * * * * * * * * * * * * * * * * * * //

dimensions      [0 3 -1 0 0 0 0];

internalField   nonuniform List<scalar> 
1023
(
13.1483
13.1483
13.1483
13.1483
13.1483
13.1483
13.1483
13.1483
13.1483
13.1483
13.1483
13.1483
13.1483
13.1483
13.1483
13.1483
13.1483
13.1483
13.1483
13.1483
13.1483
13.1483
13.1483
13.1483
13.1483
13.1483
13.1483
13.1483
13.1483
13.1483
13.1483
13.1483
13.1483
13.1483
13.1483
13.1483
13.1483
13.1483
13.1483
13.1483
13.1483
13.1483
13.1483
13.1483
13.1483
13.1483
13.1483
13.1483
13.1483
13.1483
13.1483
13.1483
13.1483
13.1483
13.1483
13.1483
13.1483
13.1483
13.1483
13.1483
13.1483
13.1483
13.1483
13.1483
13.1483
13.1483
13.1483
13.1483
13.1483
13.1483
13.1483
13.1483
13.1483
13.1483
13.1483
13.1483
13.1483
13.1483
13.1483
13.1483
13.1483
13.1483
13.1483
13.1483
13.1483
13.1483
13.1483
13.1483
13.1483
13.1483
13.1483
13.1483
13.1483
13.1483
13.1483
13.1483
13.1483
13.1483
13.1483
13.1483
13.1483
13.1483
13.1483
13.1483
13.1483
13.1483
13.1483
13.1483
13.1483
13.1483
13.1483
13.1483
13.1483
13.1483
13.1483
13.1483
13.1483
13.1483
13.1483
13.1483
13.1483
13.1483
13.1483
13.1483
13.1483
13.1483
13.1483
13.1483
13.1483
13.1483
13.1483
13.1483
13.1483
13.1483
13.1483
13.1483
13.1483
13.1483
13.1483
13.1483
13.1483
13.1483
13.1483
13.1483
13.1483
13.1483
13.1483
13.1483
13.1483
13.1483
13.1483
13.1483
13.1483
13.1483
13.1483
13.1483
13.1483
13.1483
13.1483
13.1483
13.1483
13.1483
13.1483
13.1483
13.1483
13.1483
13.1483
13.1483
13.1483
13.1483
13.1483
13.1483
13.1483
13.1483
13.1483
13.1483
13.1483
13.1483
13.1483
13.1483
13.1486
9.604
7.85192
8.24085
8.3159
8.32565
8.32489
8.32487
8.32526
8.32506
8.32506
8.3255
8.32547
8.32547
8.32546
8.32531
8.32527
8.32532
8.32529
8.32534
8.32543
8.32541
8.3254
8.32538
8.32539
8.32538
8.32542
8.32541
8.3254
8.32539
8.32537
8.32536
8.32534
8.32533
8.32533
8.32534
8.3254
8.32542
8.32543
8.32543
8.32542
8.32539
8.32535
8.32533
8.32532
8.32532
8.32534
8.32537
8.3254
8.32541
8.32541
8.3254
8.32539
8.32538
8.32537
8.32537
8.32537
8.32537
8.32537
8.32536
8.32537
8.32539
8.3254
8.32541
8.32541
8.3254
8.32539
8.32537
8.32536
8.32535
8.32535
8.32535
8.32537
8.32538
8.32539
8.32539
8.32539
8.32537
8.32536
8.32535
8.32535
8.32536
8.32536
8.32538
8.3254
8.3254
8.32541
8.32541
8.3254
8.32539
8.32538
8.32538
8.32538
8.32538
8.32538
8.32538
8.32539
8.32539
8.32539
8.32539
8.32538
8.32537
8.32535
8.32535
8.32535
8.32535
8.32535
8.32537
8.32538
8.32539
8.32539
8.32539
8.32538
8.32538
8.32537
8.32537
8.32537
8.32538
8.32538
8.32539
8.3254
8.32541
8.32541
8.32541
8.32541
8.32539
8.32538
8.32537
8.32537
8.32537
8.32538
8.32539
8.3254
8.32541
8.32542
8.32542
8.32541
8.3254
8.32539
8.32538
8.32538
8.32537
8.32537
8.32538
8.32539
8.32539
8.32539
8.32538
8.32537
8.32535
8.32534
8.32534
8.32534
8.32533
8.32533
8.32534
8.32535
8.32535
8.32535
8.32535
8.32535
8.32535
8.32535
8.32536
8.32536
8.32537
8.32537
8.32539
8.3254
8.3254
8.3254
8.32541
8.3254
8.3254
8.3254
8.3254
8.32541
8.32542
8.32543
8.32544
8.32544
8.32544
8.32544
8.32544
8.32543
8.32543
8.32543
8.32543
8.32542
8.32543
8.32544
8.32545
8.32546
8.32546
8.32546
8.32544
8.32542
8.32541
8.32541
8.32541
8.32542
8.3254
8.32538
8.32537
8.32536
8.32537
8.32539
8.32539
8.32538
8.32534
8.32529
8.32527
8.32526
8.32531
8.32538
8.3254
8.32538
8.3253
8.32518
8.32512
8.32506
8.32492
8.32426
8.32282
8.32027
8.31568
8.30711
8.29175
8.26565
8.22261
8.18277
8.15457
8.13436
8.12039
8.1113
8.10572
8.10234
8.10024
8.09897
8.09844
8.09833
8.09837
8.09832
8.09822
8.09819
8.09826
8.09837
8.09845
8.09847
8.09847
8.09845
8.09846
8.0985
8.09855
8.09862
8.09873
8.09887
8.09897
8.09904
8.09908
8.09908
8.09903
8.09885
8.09862
8.0985
8.09849
8.09849
8.09865
8.09922
8.10058
8.10343
8.10885
8.11866
8.13568
8.16432
8.21123
8.28621
8.40351
8.58393
8.82204
9.01894
9.18413
9.31414
9.41016
9.47672
9.51996
9.54618
9.5609
9.56839
9.57171
9.57286
9.57305
9.57258
9.57181
9.57148
9.5714
9.5714
9.57149
9.5719
9.57246
9.57282
9.57309
9.5733
9.57346
9.57358
9.57364
9.57367
9.57369
9.57368
9.57366
9.57362
9.57355
9.57348
9.57345
9.57342
9.57336
9.57333
9.57332
9.57334
9.57336
9.57333
9.57332
9.57334
9.57342
9.57343
9.57326
9.57319
9.57318
9.57332
9.57294
9.57182
9.57151
9.57134
9.57059
9.56837
9.56615
9.56389
9.56026
9.55463
9.54888
9.54307
9.53913
9.53659
9.53512
9.53438
9.53409
9.53405
9.53404
9.53417
9.53449
9.53472
9.53487
9.53495
9.53497
9.53498
9.53497
9.53494
9.53491
9.53488
9.53486
9.53484
9.53483
9.53482
9.53481
9.53481
9.5348
9.53479
9.5348
9.5348
9.53481
9.53483
9.53484
9.53486
9.53487
9.53488
9.53488
9.53489
9.5349
9.5349
9.5349
9.53491
9.53491
9.53491
9.53491
9.53491
9.53491
9.5349
9.5349
9.5349
9.5349
9.5349
9.5349
9.5349
9.53491
9.53491
9.53492
9.53492
9.53492
9.53493
9.53492
9.53492
9.53491
9.5349
9.53489
9.53489
9.53488
9.53488
9.53488
9.53488
9.53489
9.53489
9.5349
9.53489
9.53489
9.53489
9.53488
9.53487
9.53487
9.53487
9.53487
9.53488
9.53488
9.53489
9.53489
9.53489
9.53489
9.53489
9.53489
9.53489
9.53488
9.53488
9.53488
9.53488
9.53488
9.53489
9.53489
9.53489
9.53489
9.53489
9.5349
9.5349
9.53489
9.53489
9.53489
9.53489
9.5349
9.5349
9.53491
9.53491
9.53492
9.53492
9.53492
9.53492
9.53492
9.53492
9.53491
9.53491
9.53491
9.53491
9.53492
9.53492
9.53493
9.53493
9.53493
9.53493
9.53493
9.53492
9.53491
9.53491
9.5349
9.5349
9.5349
9.5349
9.5349
9.53491
9.53491
9.5349
9.5349
9.53489
9.53489
9.53488
9.53487
9.53487
9.53487
9.53487
9.53487
9.53488
9.53489
9.53489
9.53489
9.53489
9.53489
9.53488
9.53487
9.53487
9.53487
9.53487
9.53487
9.53487
9.53488
9.53489
9.53489
9.5349
9.5349
9.5349
9.53489
9.53488
9.53488
9.53488
9.53488
9.53488
9.53489
9.5349
9.53491
9.53491
9.53491
9.53491
9.53491
9.53491
9.5349
9.5349
9.53489
9.53489
9.53489
9.5349
9.53491
9.53491
9.53491
9.53491
9.53491
9.5349
9.53489
9.53488
9.53487
9.53487
9.53487
9.53487
9.53488
9.53489
9.5349
9.53491
9.53491
9.5349
9.5349
9.53489
9.53488
9.53487
9.53487
9.53487
9.53488
9.53489
9.5349
9.53491
9.53492
9.53492
9.53492
9.53491
9.53489
9.53488
9.53488
9.53488
9.53488
9.53488
9.53489
9.5349
9.53491
9.53491
9.53491
9.53491
9.5349
9.53488
9.53487
9.53486
9.53486
9.53487
9.53487
9.53489
9.53491
9.53492
9.53492
9.53492
9.53491
9.5349
9.53488
9.53487
9.53487
9.53487
9.53487
9.53488
9.5349
9.53492
9.53493
9.53493
9.53493
9.53492
9.5349
9.53488
9.53487
9.53487
9.53487
9.53487
9.53489
9.53491
9.53493
9.53494
9.53494
9.53493
9.53492
9.53489
9.53486
9.53485
9.53485
9.53484
9.53485
9.53487
9.53492
9.53493
9.53493
9.53493
9.53494
9.53492
9.53488
9.53484
9.53483
9.53484
9.53484
9.53484
9.53487
9.53492
9.53496
9.53495
9.53495
9.53494
9.53494
9.53488
9.53484
9.53482
9.53483
9.53485
9.53484
9.53486
9.53493
9.53498
9.53499
9.53495
9.53494
9.5349
9.53489
9.53483
9.53478
9.53478
9.53485
9.53487
9.53484
9.53489
9.53495
9.53507
9.53499
9.53489
9.5348
9.53486
9.53487
9.5347
9.5347
9.53474
9.53492
9.53474
9.53469
9.53537
9.53534
9.53342
9.53459
9.54303
9.52757
9.57675
10.8998
15.3052
15.3052
15.3052
15.3052
15.3052
15.3052
15.3052
15.3052
15.3052
15.3052
15.3052
15.3052
15.3052
15.3052
15.3052
15.3052
15.3052
15.3052
15.3052
15.3052
15.3052
15.3052
15.3052
15.3052
15.3052
15.3052
15.3052
15.3052
15.3052
15.3052
15.3052
15.3052
15.3052
15.3052
15.3052
15.3052
15.3052
15.3052
15.3052
15.3052
15.3052
15.3052
15.3052
15.3052
15.3052
15.3052
15.3052
15.3052
15.3052
15.3052
15.3052
15.3052
15.3052
15.3052
15.3052
15.3052
15.3052
15.3052
15.3052
15.3052
15.3052
15.3052
15.3052
15.3052
15.3052
15.3052
15.3052
15.3052
15.3052
15.3052
15.3052
15.3052
15.3052
15.3052
15.3052
15.3052
15.3052
15.3052
15.3052
15.3052
15.3052
15.3052
15.3052
15.3052
15.3052
15.3052
15.3052
15.3052
15.3052
15.3052
15.3052
15.3052
15.3052
15.3052
15.3052
15.3052
15.3052
15.3052
15.3052
15.3052
15.3052
15.3052
15.3052
15.3052
15.3052
15.3052
15.3052
15.3052
15.3052
15.3052
15.3052
15.3052
15.3052
15.3052
15.3052
15.3052
15.3052
15.3052
15.3052
15.3052
15.3052
15.3052
15.3052
15.3052
15.3052
15.3052
15.3052
15.3052
15.3052
15.3052
15.3052
15.3052
15.3052
15.3052
15.3052
15.3052
15.3052
15.3052
15.3052
15.3052
15.3052
15.3052
15.3052
15.3052
15.3052
15.3052
15.3052
15.3052
15.3052
15.3052
15.3052
15.3052
15.3052
15.3052
15.3052
15.3052
15.3052
15.3052
15.3052
15.3052
15.3052
15.3052
15.3052
15.3052
15.3052
15.3052
15.3052
)
;

boundaryField
{
    front-back
    {
        type            empty;
        value           nonuniform 0();
    }
    inlet-outlet
    {
        type            calculated;
        value           nonuniform List<scalar> 2(15.3052 13.1483);
    }
    top-down
    {
        type            empty;
        value           nonuniform 0();
    }
}


// ************************************************************************* //
