/*--------------------------------*- C++ -*----------------------------------*\
| =========                 |                                                 |
| \\      /  F ield         | OpenFOAM: The Open Source CFD Toolbox           |
|  \\    /   O peration     | Version:  2.2.x                                 |
|   \\  /    A nd           | Web:      www.OpenFOAM.org                      |
|    \\/     M anipulation  |                                                 |
\*---------------------------------------------------------------------------*/
FoamFile
{
    version     2.0;
    format      ascii;
    class       volScalarField;
    location    "1.5";
    object      By;
}
// * * * * * * * * * * * * * * * * * * * * * * * * * * * * * * * * * * * * * //

dimensions      [1 0 -2 0 0 -1 0];

internalField   nonuniform List<scalar> 
14161
(
-1.94691e-05
-1.38218e-07
-7.44673e-07
9.46385e-07
-2.85918e-07
5.06445e-08
1.09743e-06
2.84497e-06
3.54014e-06
-2.73459e-06
-4.09813e-06
-2.26925e-08
7.1051e-06
6.75396e-06
8.01468e-06
-4.52726e-06
-2.57853e-06
4.96095e-06
8.77239e-06
1.00292e-05
1.89826e-06
2.85258e-06
3.61598e-06
3.35941e-06
1.87255e-06
6.21008e-07
-1.64716e-06
-1.37063e-05
-1.86014e-05
-4.74834e-05
-5.66013e-05
-9.48775e-05
-0.000143533
-0.000209719
-0.00027575
-0.000374783
-0.000494239
-0.000625517
-0.000753266
-0.000918065
-0.00110612
-0.00130794
-0.00124901
-0.00154045
-0.000734721
-0.00243519
-0.00952028
-0.133065
-0.161507
-0.00209462
0.0265503
0.0250558
0.0154062
0.0164258
0.0146645
0.0158008
0.0160081
0.0146165
0.0150973
0.0146982
0.0128768
0.0127031
0.0122991
0.0127961
0.0123964
0.012069
0.0111563
0.00956354
0.0076267
0.005717
0.00542398
0.00567035
0.00625661
0.00638516
0.00506062
0.00275401
0.00028645
-0.000364117
0.000946844
0.0034126
0.00502599
0.00512318
0.00359966
0.00120582
0.00145694
0.000253771
-0.00494092
-0.000985069
-0.00277108
-0.00376939
-0.000987945
0.0129804
0.0245984
0.0488169
0.062853
0.0816157
0.0781499
0.0677908
0.0566
0.0488628
0.0422584
0.0339436
0.0310445
0.0281329
0.0269309
0.026527
0.023834
0.0185857
0.0123931
0.0109303
0.0121101
0.0151739
0.0160317
0.0196015
0.0187093
0.0193569
0.0129447
0.0164024
0.0120329
-3.44102e-05
7.16049e-07
-2.18253e-06
2.93449e-08
2.86429e-08
6.48736e-07
8.28576e-08
1.06145e-06
8.13628e-07
3.87949e-06
3.94741e-06
3.47746e-06
-1.39535e-06
6.33819e-06
5.48865e-06
6.15046e-06
5.89647e-06
4.00583e-06
3.39916e-06
1.27243e-05
1.61555e-05
2.31441e-05
2.4067e-05
2.65046e-05
3.07106e-05
3.60706e-05
3.97883e-05
5.36758e-05
6.95922e-05
9.3647e-05
0.000120422
0.000174253
0.000215868
0.000289381
0.000353173
0.000468725
0.000579563
0.000714278
0.000762584
0.000895565
0.000811421
0.000613741
2.79318e-07
-0.000805222
-0.00344617
-0.0107685
-0.0497038
-0.235099
-0.167016
0.00973666
0.0160092
0.00469835
-0.0142157
-0.013919
-0.0185914
-0.0178498
-0.0170224
-0.016387
-0.0139891
-0.0127428
-0.0124022
-0.0110951
-0.0111581
-0.0103798
-0.0100614
-0.0100306
-0.00821371
-0.00586318
-0.00446444
-0.00425555
-0.00484301
-0.00669499
-0.00670561
-0.00547309
-0.00199189
0.000867325
0.00376996
0.0046158
0.00266925
-0.00503994
-0.00948036
-0.00853444
-0.00427488
-0.0119192
-0.012071
0.00368787
0.00618923
0.00797888
0.00577542
0.0119
0.017721
0.0551673
0.0705096
0.0963715
0.103723
0.124493
0.118322
0.0958643
0.0796378
0.0614755
0.0561083
0.0540688
0.0533612
0.0474622
0.0456834
0.0436999
0.0435142
0.0499736
0.0558758
0.0572091
0.0580567
0.059268
0.0530444
0.0571763
0.0499853
0.0539807
0.0419244
0.0493346
0.0388528
-5.77264e-05
-2.68303e-06
-4.31477e-06
2.02795e-08
9.47716e-07
2.58281e-06
1.67989e-06
2.76679e-06
2.5726e-06
3.23824e-06
4.10202e-06
6.56078e-06
4.60217e-06
9.27049e-06
8.33848e-06
1.50467e-05
1.57501e-05
1.77908e-05
1.61245e-05
2.2235e-05
2.09696e-05
2.74962e-05
3.00849e-05
3.43512e-05
3.7243e-05
4.36169e-05
4.60915e-05
4.66045e-05
3.45524e-05
3.66265e-05
2.29063e-06
-5.44212e-06
-5.4891e-05
-9.75479e-05
-0.000162013
-0.000255571
-0.000353964
-0.00052442
-0.000708085
-0.000974312
-0.00136521
-0.00193783
-0.00308341
-0.00531547
-0.00886872
-0.0160269
-0.0575131
-0.229706
-0.179829
-0.0470466
-0.00093003
0.00469936
-0.0039242
-0.00331949
-0.00255787
-0.00720074
-0.00609948
-0.0101831
-0.00792257
-0.00526473
-0.00857641
-0.00625696
-0.00406904
-0.00319031
-0.00105743
-9.69342e-05
0.000761452
0.000826836
0.000296081
-0.000213636
0.000493949
0.000468445
0.000642196
0.000997618
1.13546e-05
0.00074727
0.00207892
0.00512216
0.00953641
0.0138909
0.0177297
0.0118684
0.0060213
0.0135934
0.0208493
0.0260689
0.0385219
0.0793409
0.0844626
0.0972712
0.116345
0.127643
0.138032
0.135518
0.140058
0.140112
0.131915
0.117319
0.103985
0.0904313
0.0797451
0.072131
0.0700109
0.0721622
0.0721467
0.0731992
0.074649
0.0715849
0.0744483
0.074789
0.0791427
0.0873669
0.0857601
0.093097
0.0839593
0.0903236
0.0726271
0.0846529
0.0624678
-6.67851e-05
-4.51555e-06
-6.14475e-06
-5.08065e-08
-2.31732e-07
2.45174e-06
2.78279e-06
4.60694e-06
2.45154e-06
4.5655e-06
7.96363e-06
8.88357e-06
2.37109e-06
1.47724e-05
4.87684e-06
1.79539e-05
1.96606e-05
2.60153e-05
2.27412e-05
3.15736e-05
3.38753e-05
4.80571e-05
5.28172e-05
6.30783e-05
6.76693e-05
8.08275e-05
9.43017e-05
0.000113957
0.000130378
0.000150178
0.000186674
0.000233568
0.000291565
0.000369031
0.000429306
0.000567079
0.000662779
0.000847258
0.000922663
0.00109993
0.0010633
0.0011106
0.000856322
0.00107472
0.000309331
-0.00077176
-0.0147702
-0.101296
-0.0779606
-0.04634
-0.0409333
-0.0434808
-0.0596028
-0.0651541
-0.0598033
-0.0657173
-0.061062
-0.0664893
-0.0596355
-0.0506167
-0.0495819
-0.0400929
-0.0329295
-0.0280163
-0.0224537
-0.0186888
-0.0149724
-0.013379
-0.0115885
-0.0104578
-0.00946839
-0.00909617
-0.00860455
-0.00913344
-0.00839825
-0.00566327
0.00116729
0.00933092
0.0196499
0.0292961
0.0371001
0.0458861
0.0510775
0.0639027
0.0888484
0.120789
0.145316
0.174149
0.180312
0.18869
0.184923
0.179224
0.181712
0.174356
0.172055
0.15468
0.13103
0.10748
0.0929037
0.0832145
0.0812276
0.0738214
0.0729411
0.0665534
0.0728494
0.0670051
0.0778607
0.0824552
0.098398
0.0974027
0.106729
0.105785
0.107231
0.115837
0.109642
0.119619
0.0988445
0.115176
0.0800416
-8.03071e-05
-7.04837e-06
-7.79586e-06
2.03586e-07
8.63456e-07
3.76337e-06
3.11984e-06
6.0819e-06
3.46305e-06
2.29783e-06
1.2013e-05
1.13224e-05
4.572e-06
1.87432e-05
1.54307e-05
2.33565e-05
2.41235e-05
2.99437e-05
2.80937e-05
3.85096e-05
4.15403e-05
5.63874e-05
6.39195e-05
7.35947e-05
7.76852e-05
8.7357e-05
9.50211e-05
0.000104866
0.000108927
0.00010743
0.000107357
8.31148e-05
8.08308e-05
3.01238e-05
-4.06017e-07
-7.54097e-05
-0.000166573
-0.000295689
-0.000467188
-0.00072036
-0.000973204
-0.00152011
-0.00187637
-0.0029793
-0.0030898
-0.00360959
-0.00199678
-0.00991423
-0.0144363
-0.0568759
-0.0756039
-0.0927697
-0.106574
-0.11829
-0.106463
-0.108166
-0.0986919
-0.10083
-0.0879377
-0.0731819
-0.0690523
-0.0562206
-0.0484401
-0.0407545
-0.0319958
-0.0272777
-0.0210789
-0.0168862
-0.0118846
-0.0109366
-0.0118987
-0.0122413
-0.0122631
-0.0111064
-0.00822445
-0.00522908
0.00213978
0.0127769
0.0282528
0.0477392
0.0708996
0.091165
0.115857
0.139341
0.184779
0.228252
0.270938
0.275052
0.303626
0.290277
0.286828
0.256843
0.245977
0.215034
0.192791
0.165971
0.142754
0.118958
0.104183
0.0888235
0.0829167
0.0843599
0.087378
0.0917683
0.0967239
0.0923933
0.104497
0.0960969
0.105891
0.10545
0.111806
0.117205
0.119163
0.126019
0.123072
0.134861
0.119655
0.130285
0.0996515
-8.37632e-05
-9.34993e-06
-9.176e-06
-4.76096e-07
-1.10187e-07
3.58427e-06
3.20624e-06
9.77518e-06
5.72468e-06
5.01355e-06
1.20738e-05
1.14687e-05
4.23477e-06
2.58754e-05
2.00503e-05
2.9479e-05
2.67062e-05
4.01805e-05
3.98336e-05
5.35981e-05
6.16407e-05
7.42942e-05
9.01214e-05
9.76246e-05
0.000108614
0.000121871
0.000142854
0.000163659
0.000183643
0.000216464
0.000252365
0.000306344
0.00035615
0.000440617
0.000509779
0.000647246
0.000784003
0.00101051
0.00114841
0.0015158
0.0017327
0.00237667
0.00262985
0.00372802
0.00381548
0.00680232
0.0264949
0.134932
0.105831
-0.0282658
-0.102965
-0.142603
-0.161948
-0.179105
-0.160522
-0.160623
-0.142787
-0.14285
-0.122755
-0.107576
-0.0974062
-0.0777653
-0.068806
-0.0523464
-0.0403813
-0.0304232
-0.024083
-0.0204774
-0.0178707
-0.0153917
-0.0141372
-0.012439
-0.0122388
-0.0122805
-0.0122404
-0.00686569
0.00284596
0.0187104
0.041232
0.0732575
0.105632
0.122889
0.166025
0.213293
0.276887
0.296234
0.347749
0.358377
0.381222
0.354665
0.367079
0.330494
0.294623
0.261841
0.225454
0.19168
0.162178
0.13299
0.116758
0.103873
0.0996705
0.0987699
0.0988539
0.10454
0.107214
0.111787
0.115132
0.115253
0.123986
0.116623
0.127015
0.123047
0.130815
0.136192
0.134632
0.143943
0.127582
0.143056
0.109077
-9.10023e-05
-1.0632e-05
-1.04255e-05
-2.55341e-07
1.27548e-06
5.0341e-06
4.99865e-06
9.89001e-06
5.97286e-06
5.55725e-06
1.31338e-05
1.47335e-05
9.66366e-06
3.0108e-05
2.18149e-05
3.19824e-05
3.22578e-05
4.72552e-05
4.80232e-05
5.96659e-05
6.84931e-05
8.52254e-05
9.933e-05
0.000111684
0.000119744
0.000134421
0.000150735
0.000173316
0.000182905
0.000194468
0.000201148
0.00021979
0.000205074
0.000219138
0.000195961
0.000157508
0.000133516
7.39309e-05
1.45508e-05
-7.725e-05
-4.06898e-05
-8.67703e-06
0.00041008
0.000580985
0.00266097
0.00686659
0.0516779
0.224276
0.198896
-0.0446715
-0.194455
-0.241923
-0.252603
-0.256499
-0.241387
-0.221782
-0.201109
-0.188439
-0.165188
-0.148816
-0.125813
-0.100338
-0.0873534
-0.0693045
-0.0545833
-0.0438185
-0.0355167
-0.0284704
-0.0229612
-0.0208369
-0.0184274
-0.0176039
-0.01755
-0.0161485
-0.0122196
-0.00359733
0.0087853
0.0262009
0.0512918
0.0823473
0.123156
0.16121
0.216409
0.275955
0.339963
0.388829
0.425444
0.434093
0.458483
0.464562
0.446055
0.421794
0.368554
0.327016
0.272629
0.222516
0.187729
0.155291
0.134544
0.121472
0.116474
0.118773
0.122534
0.130642
0.133889
0.139344
0.141264
0.140264
0.146254
0.134376
0.136256
0.131285
0.136984
0.13965
0.136972
0.145077
0.131823
0.146829
0.116692
-8.95249e-05
-1.15887e-05
-1.16414e-05
-1.14614e-06
2.25217e-07
4.99271e-06
4.74205e-06
1.44507e-05
8.09536e-06
9.50981e-06
1.51132e-05
1.59287e-05
1.20947e-05
3.41214e-05
2.59066e-05
4.03587e-05
3.9782e-05
5.49305e-05
5.93703e-05
7.17845e-05
8.40557e-05
9.84086e-05
0.000122884
0.000134788
0.00015219
0.000170293
0.000195649
0.000220955
0.000247533
0.000278211
0.000310527
0.000363315
0.000412409
0.000489532
0.000572937
0.000671184
0.000841084
0.00104935
0.00124428
0.00174835
0.00206131
0.00302606
0.00381786
0.00602466
0.00743133
0.0167282
0.0730113
0.354392
0.359397
-0.0552086
-0.255801
-0.297221
-0.292069
-0.279937
-0.253247
-0.225195
-0.205756
-0.186161
-0.161941
-0.152948
-0.128747
-0.106578
-0.082445
-0.0643178
-0.0500136
-0.0394305
-0.0337122
-0.0255688
-0.0209068
-0.0176893
-0.0169283
-0.016058
-0.015473
-0.0141741
-0.0114038
-0.00696761
0.00539283
0.0250858
0.0555942
0.0995889
0.143858
0.205751
0.269441
0.344347
0.404037
0.456602
0.47833
0.501493
0.508317
0.522567
0.49768
0.512234
0.464074
0.416839
0.345951
0.283898
0.229765
0.181828
0.157351
0.140987
0.133743
0.133447
0.140138
0.156607
0.158071
0.171362
0.168905
0.167382
0.170216
0.153642
0.154149
0.145101
0.14592
0.142436
0.146715
0.147221
0.135121
0.146385
0.122686
-9.21471e-05
-1.18887e-05
-1.18044e-05
-6.51012e-07
1.44676e-06
7.19735e-06
6.6214e-06
1.07726e-05
9.8378e-06
8.09802e-06
1.85482e-05
1.85697e-05
1.46597e-05
3.29196e-05
3.56073e-05
4.17369e-05
4.42837e-05
6.40231e-05
6.87082e-05
8.11579e-05
9.53681e-05
0.000114026
0.000136784
0.000160864
0.000168645
0.000186945
0.000213181
0.000241415
0.000269415
0.000287437
0.000316568
0.000338081
0.000380795
0.000399005
0.000417699
0.000427952
0.00045213
0.000492755
0.000483348
0.000561382
0.000362069
0.000758591
0.000354845
0.00150626
0.000788896
0.00724017
0.0345292
0.247124
0.341832
-0.119867
-0.335084
-0.360023
-0.354519
-0.333042
-0.302465
-0.265591
-0.243516
-0.211986
-0.189604
-0.16957
-0.143834
-0.118755
-0.0925458
-0.0712429
-0.054627
-0.0456435
-0.0378201
-0.0316769
-0.025205
-0.0201813
-0.0179813
-0.0175681
-0.0178737
-0.0179719
-0.0157316
-0.00909169
0.0083444
0.0319754
0.0626937
0.107115
0.162117
0.233722
0.313212
0.391905
0.449353
0.502186
0.538781
0.569308
0.578091
0.604444
0.583176
0.586617
0.550478
0.512414
0.446155
0.355752
0.285019
0.220964
0.187498
0.163933
0.154495
0.153399
0.156952
0.172845
0.178847
0.195078
0.193219
0.200326
0.195771
0.176139
0.175987
0.152916
0.15714
0.150218
0.152327
0.14701
0.136987
0.147825
0.12744
-8.75783e-05
-1.12924e-05
-1.24856e-05
-1.17901e-06
1.24652e-06
7.46117e-06
6.43175e-06
1.32693e-05
1.32724e-05
1.25897e-05
1.69288e-05
2.23485e-05
2.10483e-05
3.56957e-05
3.91275e-05
5.07387e-05
5.32177e-05
6.77039e-05
8.25316e-05
9.30234e-05
0.000107502
0.000124285
0.000153899
0.000177746
0.00019547
0.000218461
0.000247046
0.000280774
0.000314174
0.000342838
0.000374885
0.0004151
0.000461437
0.000509481
0.000558138
0.000626544
0.00070531
0.00081725
0.000914881
0.00108343
0.00120602
0.00158776
0.00147742
0.00181457
0.00146706
0.00376689
0.00652585
0.058456
0.0364198
-0.14677
-0.262376
-0.301268
-0.310623
-0.313939
-0.296202
-0.272726
-0.245237
-0.214022
-0.192454
-0.166096
-0.141508
-0.115494
-0.0912022
-0.0691891
-0.053615
-0.0417081
-0.0347268
-0.0284367
-0.0225409
-0.0190999
-0.0167698
-0.016672
-0.016264
-0.0154334
-0.0123139
-0.00558978
0.00831701
0.0297701
0.0650115
0.11256
0.187895
0.280167
0.360316
0.446104
0.512379
0.559899
0.588004
0.6222
0.638361
0.650752
0.652567
0.644241
0.645122
0.595018
0.549955
0.455603
0.362846
0.28544
0.225166
0.188943
0.171001
0.16705
0.175148
0.195485
0.207405
0.223188
0.224839
0.231711
0.222296
0.208022
0.199225
0.169348
0.175254
0.155833
0.158305
0.147895
0.139874
0.147154
0.13294
-8.63923e-05
-1.00927e-05
-1.14896e-05
-4.88882e-07
2.15462e-06
8.25066e-06
9.17945e-06
1.23459e-05
1.3691e-05
1.30528e-05
2.03892e-05
2.42899e-05
2.24773e-05
3.57635e-05
4.57717e-05
5.04274e-05
5.73076e-05
7.76891e-05
9.34402e-05
0.000105805
0.000123122
0.000140558
0.000173521
0.000203311
0.000224486
0.000240829
0.000272217
0.000306246
0.000347831
0.000387183
0.000428348
0.000473954
0.000531072
0.000576567
0.000636349
0.000675073
0.000737793
0.000779067
0.000838111
0.000780327
0.000861863
0.000508466
0.000416346
-0.000368072
-0.002094
-0.00355889
-0.0148926
-0.0761217
-0.321686
-0.26938
-0.257781
-0.287595
-0.301686
-0.308862
-0.299545
-0.280243
-0.247151
-0.223934
-0.195965
-0.170474
-0.144033
-0.117905
-0.0906359
-0.0689327
-0.053028
-0.0420123
-0.0350579
-0.0291709
-0.0247905
-0.0208682
-0.0186972
-0.0176909
-0.0173492
-0.0161563
-0.012786
-0.00439273
0.0102971
0.0372674
0.0757858
0.12849
0.222134
0.334146
0.417532
0.504081
0.561101
0.599714
0.647637
0.679707
0.701165
0.697589
0.718315
0.70482
0.715576
0.681445
0.645028
0.576309
0.478735
0.361521
0.276588
0.228477
0.198009
0.184772
0.190679
0.20414
0.217046
0.239169
0.240638
0.262972
0.25538
0.25495
0.233845
0.195679
0.1912
0.163656
0.167461
0.149539
0.144587
0.148666
0.139976
-7.9785e-05
-8.57209e-06
-1.13643e-05
-3.57814e-07
2.44537e-06
9.60937e-06
9.58157e-06
1.3783e-05
1.64067e-05
1.68301e-05
1.9179e-05
2.81795e-05
3.13586e-05
3.74324e-05
5.01633e-05
5.98734e-05
6.87523e-05
8.254e-05
0.000108901
0.000118782
0.000133768
0.000153514
0.000186425
0.000221566
0.000238388
0.000265281
0.000298359
0.000335873
0.000377414
0.000411138
0.00044102
0.000476345
0.000498977
0.00053037
0.000537812
0.000553916
0.000525525
0.000480732
0.000364322
0.000138442
-2.80569e-05
-0.000595209
-0.000884308
-0.00253749
-0.00245501
-0.00799651
-0.0176521
-0.137738
-0.511621
-0.45658
-0.350878
-0.335009
-0.329981
-0.327999
-0.316725
-0.292008
-0.262922
-0.232379
-0.202451
-0.173473
-0.146278
-0.117393
-0.0899408
-0.0673963
-0.0525409
-0.0407963
-0.0329776
-0.0267659
-0.0221039
-0.0187662
-0.0171241
-0.0162952
-0.0160736
-0.0145413
-0.0107342
-0.00226927
0.0136875
0.0432221
0.0852469
0.151659
0.26331
0.382014
0.492376
0.554917
0.617334
0.648137
0.693271
0.712967
0.745149
0.753307
0.778737
0.765545
0.771224
0.759225
0.724257
0.679698
0.595069
0.471361
0.349305
0.269138
0.224506
0.204264
0.206456
0.218832
0.234338
0.26083
0.268463
0.29235
0.286009
0.292408
0.263056
0.230891
0.214925
0.178908
0.176582
0.152762
0.151451
0.151607
0.148522
-7.59483e-05
-5.86539e-06
-9.29865e-06
6.45579e-07
2.89277e-06
1.02059e-05
1.14737e-05
1.16954e-05
1.7938e-05
1.80774e-05
2.1652e-05
2.92163e-05
3.32208e-05
3.80853e-05
5.6178e-05
6.03957e-05
7.50724e-05
8.80819e-05
0.000113161
0.000129454
0.000148768
0.000171138
0.000207322
0.000245655
0.000278049
0.000301633
0.000333255
0.00037672
0.000422603
0.000473108
0.000526182
0.000591725
0.000654589
0.000742387
0.000804032
0.000914265
0.00103369
0.00118513
0.00134725
0.00147121
0.00180563
0.00192034
0.00248736
0.0021869
0.00320085
-0.0017967
-0.0220314
-0.232451
-0.70534
-0.62481
-0.470935
-0.398112
-0.356461
-0.35173
-0.328032
-0.301722
-0.271667
-0.238918
-0.207563
-0.177255
-0.148391
-0.118885
-0.0910541
-0.0670893
-0.0517731
-0.0383769
-0.0308682
-0.0268505
-0.0229169
-0.019741
-0.0184527
-0.0178887
-0.0176999
-0.0161229
-0.0108679
5.60956e-05
0.0189502
0.0496991
0.102522
0.195704
0.332147
0.451932
0.55753
0.616732
0.665285
0.710602
0.740923
0.764246
0.783762
0.803246
0.815534
0.814919
0.810743
0.817236
0.779328
0.747126
0.672898
0.572019
0.438419
0.331095
0.26221
0.23309
0.223847
0.233074
0.246099
0.271231
0.284199
0.30488
0.314996
0.323777
0.317449
0.280942
0.254124
0.208228
0.191629
0.159672
0.157185
0.154595
0.158316
-6.82174e-05
-3.52185e-06
-7.94989e-06
1.40114e-06
3.33199e-06
1.09931e-05
1.30002e-05
1.50338e-05
1.91971e-05
2.45421e-05
1.92109e-05
3.58126e-05
4.01212e-05
4.14185e-05
5.90851e-05
7.3361e-05
8.48991e-05
9.55565e-05
0.00012546
0.000143099
0.000159362
0.000184024
0.000218939
0.000259195
0.000287851
0.000315207
0.000348324
0.000387623
0.000430525
0.000476628
0.000513681
0.00054584
0.000571631
0.000583657
0.000582846
0.000569217
0.000522195
0.000424327
0.00030364
2.40645e-05
-0.000283834
-0.000997927
-0.00140133
-0.00275023
-0.00400534
-0.0112381
-0.0555707
-0.405145
-0.789244
-0.736761
-0.587238
-0.485308
-0.404592
-0.379264
-0.342431
-0.315158
-0.278951
-0.24728
-0.209334
-0.179143
-0.146688
-0.116115
-0.0875664
-0.0627638
-0.0462167
-0.036195
-0.0288407
-0.0244502
-0.0219123
-0.0190152
-0.017754
-0.0173026
-0.016303
-0.0132467
-0.0061409
0.00699451
0.0291081
0.0637038
0.126392
0.264066
0.418701
0.515493
0.61795
0.665807
0.711005
0.752962
0.783145
0.811389
0.826516
0.847443
0.849317
0.86539
0.855493
0.861607
0.839198
0.816152
0.769694
0.687279
0.561641
0.417378
0.318348
0.266202
0.242918
0.245517
0.258104
0.281863
0.306967
0.324768
0.343933
0.345013
0.355829
0.324476
0.298427
0.234772
0.21274
0.174575
0.169036
0.161219
0.169417
-6.24764e-05
-1.95731e-08
-5.26233e-06
2.95695e-06
4.27584e-06
1.1697e-05
1.47405e-05
1.25942e-05
2.1803e-05
2.27916e-05
2.47878e-05
3.35627e-05
4.25786e-05
4.2731e-05
6.13904e-05
7.46666e-05
8.82804e-05
0.000101352
0.000131733
0.000153218
0.000175093
0.000202049
0.000240508
0.000285483
0.000318363
0.000356
0.000392885
0.000438459
0.000487869
0.000546182
0.000613274
0.000679747
0.000753758
0.000844436
0.000951132
0.00109623
0.00127007
0.0014763
0.00170431
0.00206934
0.00237676
0.00317976
0.00392271
0.00531217
0.00420742
-0.00443515
-0.0964894
-0.554888
-0.794687
-0.792993
-0.734604
-0.633804
-0.505009
-0.434822
-0.368643
-0.333535
-0.292778
-0.257889
-0.218906
-0.184251
-0.14892
-0.115239
-0.0853557
-0.0627583
-0.0449357
-0.0338689
-0.0289966
-0.0248462
-0.0220354
-0.0196125
-0.0186342
-0.018223
-0.0170112
-0.0133407
-0.00570442
0.00765305
0.0337525
0.0838776
0.190466
0.36151
0.509675
0.613625
0.670186
0.719019
0.763142
0.801838
0.828285
0.849318
0.860655
0.884738
0.884873
0.898966
0.899556
0.893915
0.891612
0.862758
0.828209
0.758573
0.651899
0.499756
0.369503
0.299869
0.268392
0.258806
0.27198
0.292711
0.316996
0.345982
0.36003
0.381669
0.378918
0.374378
0.342853
0.278002
0.246446
0.190367
0.183267
0.171551
0.182523
-5.4187e-05
3.42226e-06
-2.92746e-06
4.15082e-06
4.89423e-06
1.27333e-05
1.66417e-05
1.55999e-05
2.26502e-05
2.74829e-05
2.35838e-05
3.99615e-05
4.88576e-05
4.97842e-05
6.43412e-05
8.58387e-05
0.000100332
0.000114565
0.000142663
0.000165118
0.000186448
0.000211479
0.000253737
0.000294343
0.000328606
0.000358545
0.000401693
0.00044645
0.000482783
0.000530939
0.000586145
0.000632769
0.000664823
0.000699041
0.000703162
0.000705001
0.00069625
0.000662604
0.000595616
0.000549109
0.00051032
0.000661671
0.000243703
0.000533179
-0.00280931
-0.0198366
-0.194264
-0.711102
-0.812565
-0.809379
-0.785667
-0.719454
-0.629295
-0.504785
-0.42442
-0.367822
-0.316806
-0.273885
-0.228044
-0.185523
-0.147342
-0.111898
-0.0827785
-0.0623471
-0.0437667
-0.0334721
-0.0261717
-0.0220864
-0.0189985
-0.0179574
-0.0183896
-0.0188495
-0.0177717
-0.0130591
-0.00361472
0.0145368
0.0521388
0.136835
0.303451
0.492787
0.610257
0.675839
0.729327
0.771031
0.813831
0.845558
0.860792
0.884101
0.901286
0.916608
0.930387
0.927088
0.937164
0.928524
0.93167
0.906368
0.874438
0.81623
0.729914
0.602378
0.449579
0.351106
0.302938
0.283078
0.292606
0.309885
0.331755
0.366074
0.376649
0.407289
0.399249
0.413482
0.378895
0.334255
0.28407
0.215769
0.198078
0.18155
0.193133
-4.71215e-05
7.30788e-06
4.30496e-07
6.49152e-06
7.12852e-06
1.35159e-05
1.73169e-05
1.51757e-05
2.31954e-05
2.75778e-05
2.75882e-05
3.82577e-05
4.91184e-05
5.04951e-05
6.63836e-05
8.56712e-05
0.000100731
0.000114823
0.000146627
0.000174974
0.00019753
0.000228858
0.000272825
0.000314403
0.000357392
0.000396841
0.000445652
0.000497983
0.000550406
0.000605454
0.000676864
0.000761558
0.000839654
0.000925518
0.00102778
0.00112328
0.00122581
0.00139016
0.00165578
0.00190318
0.00222328
0.00238225
0.0019651
0.00147268
-0.00489485
-0.0416958
-0.34765
-0.792499
-0.820089
-0.817434
-0.80441
-0.774918
-0.726969
-0.620406
-0.532606
-0.430059
-0.366585
-0.298866
-0.243971
-0.193966
-0.149969
-0.112453
-0.0845967
-0.062113
-0.0421579
-0.0304439
-0.0247287
-0.0207238
-0.0185703
-0.0171766
-0.0192326
-0.0194331
-0.0181439
-0.0105106
0.0030092
0.0334398
0.0980563
0.251512
0.458053
0.617269
0.695917
0.755077
0.802845
0.822251
0.845798
0.864742
0.896665
0.91831
0.940989
0.942773
0.951343
0.950007
0.966498
0.959876
0.955655
0.941479
0.916473
0.876936
0.809161
0.698265
0.541419
0.417367
0.342699
0.309866
0.306823
0.320352
0.342481
0.373641
0.399974
0.414935
0.431246
0.433978
0.422716
0.37719
0.327412
0.256874
0.225082
0.198224
0.212549
-3.86803e-05
1.1816e-05
3.40826e-06
8.12497e-06
7.98883e-06
1.49699e-05
1.88449e-05
1.87708e-05
2.50214e-05
3.15001e-05
2.87152e-05
4.37196e-05
5.47299e-05
5.84991e-05
7.09625e-05
9.59982e-05
0.000114901
0.000130561
0.000156279
0.000191806
0.000214182
0.000237904
0.000282773
0.000328765
0.000363596
0.000403766
0.00044468
0.000498505
0.000545929
0.000576345
0.000630408
0.000705704
0.000764751
0.000801781
0.000845786
0.000851396
0.000885328
0.000902126
0.00103212
0.00100141
0.00115457
0.00106715
0.00123616
-0.000491549
-0.00895346
-0.0849087
-0.521896
-0.806158
-0.835137
-0.832153
-0.823341
-0.809855
-0.774802
-0.725873
-0.619322
-0.537275
-0.423975
-0.348541
-0.258248
-0.206118
-0.152464
-0.115325
-0.0876778
-0.0621725
-0.0409892
-0.0288919
-0.0246673
-0.0199941
-0.0149029
-0.0132347
-0.0158448
-0.0199218
-0.0157082
0.00308686
0.0362462
0.100632
0.234402
0.4251
0.618705
0.708939
0.776134
0.829359
0.865213
0.886781
0.897217
0.914385
0.928096
0.942803
0.96478
0.974886
0.983112
0.985407
0.992701
0.996201
0.985346
0.976575
0.952257
0.919515
0.860685
0.764787
0.624452
0.475195
0.376846
0.334633
0.32364
0.334616
0.356776
0.383951
0.418481
0.430477
0.457614
0.446485
0.461489
0.418752
0.38169
0.292908
0.257222
0.220479
0.231381
-3.09146e-05
1.57438e-05
7.16872e-06
1.10528e-05
1.07932e-05
1.54868e-05
1.94753e-05
1.76605e-05
2.58529e-05
3.00461e-05
3.30438e-05
3.86751e-05
5.60978e-05
5.88274e-05
7.12585e-05
9.37322e-05
0.00011534
0.000127097
0.00015672
0.000194315
0.000219753
0.000250155
0.000295403
0.000344782
0.000382546
0.000424148
0.000476798
0.000540174
0.000600654
0.000659803
0.000705711
0.000780688
0.000874836
0.000957616
0.00102838
0.00113094
0.00127017
0.00136933
0.00149824
0.00162537
0.00197723
0.0020109
0.00257522
0.000185836
-0.0119462
-0.141067
-0.653107
-0.826162
-0.842637
-0.839702
-0.831283
-0.821614
-0.812156
-0.783435
-0.72762
-0.654282
-0.531215
-0.422371
-0.305858
-0.224912
-0.161179
-0.114421
-0.0863674
-0.0618133
-0.0411082
-0.0307344
-0.0213418
-0.0167956
-0.0100825
0.00501101
0.0160529
0.019474
0.0467106
0.097531
0.197287
0.340575
0.499194
0.592108
0.689568
0.764868
0.81916
0.854939
0.881797
0.907099
0.939211
0.955509
0.968276
0.96695
0.976026
0.990213
1.00089
1.00818
1.00413
1.01135
1.00657
0.999573
0.983476
0.953645
0.907942
0.832399
0.714711
0.553681
0.428755
0.368752
0.347104
0.351288
0.369326
0.397901
0.426414
0.454789
0.463983
0.47944
0.481382
0.457158
0.425319
0.337426
0.293946
0.242617
0.25167
-2.2001e-05
2.11993e-05
1.10984e-05
1.34243e-05
1.23559e-05
1.76632e-05
2.00927e-05
2.21363e-05
2.66262e-05
3.37137e-05
3.41312e-05
4.70014e-05
5.87576e-05
6.78314e-05
7.88516e-05
0.000103031
0.000127919
0.000142967
0.000170099
0.000208233
0.000241223
0.000262674
0.000302227
0.000356869
0.00039618
0.000429011
0.000477001
0.000536276
0.000594383
0.000647088
0.000672078
0.00073588
0.000821219
0.000868419
0.000929509
0.000935813
0.000975363
0.000974857
0.00112508
0.00103922
0.0013238
0.00074551
0.00111228
-0.00463222
-0.0292064
-0.271804
-0.778752
-0.826547
-0.832454
-0.83086
-0.829945
-0.829222
-0.8277
-0.815038
-0.791414
-0.749379
-0.650486
-0.535293
-0.386691
-0.262873
-0.165986
-0.103912
-0.0860092
-0.0634369
-0.0370775
-0.0182163
4.05622e-05
0.0238192
0.0523727
0.0969103
0.178648
0.249478
0.280705
0.348001
0.435518
0.50643
0.589554
0.645426
0.703395
0.760694
0.80698
0.855846
0.900455
0.93032
0.948642
0.965377
0.97981
0.996728
1.00712
1.01719
1.02742
1.03409
1.03541
1.0369
1.03433
1.02565
1.01469
0.9869
0.946299
0.880339
0.775018
0.624716
0.479147
0.400064
0.366037
0.364797
0.378906
0.40835
0.433237
0.471285
0.476159
0.504616
0.494264
0.498463
0.460004
0.382966
0.33415
0.268229
0.276829
-1.49558e-05
2.50482e-05
1.47594e-05
1.64009e-05
1.54484e-05
1.81866e-05
2.10602e-05
2.16577e-05
2.61641e-05
3.30542e-05
3.6625e-05
4.03801e-05
6.11155e-05
6.70994e-05
7.77598e-05
9.93136e-05
0.000128515
0.000140168
0.000165919
0.000207266
0.000237882
0.000268874
0.000307165
0.000362879
0.000413681
0.000443989
0.000494308
0.000556492
0.00061931
0.000684865
0.000727857
0.000766043
0.000832087
0.000914731
0.000985764
0.00101555
0.000986223
0.000944352
0.000828817
0.000538217
0.000116834
-0.000680085
-0.00265775
-0.0106239
-0.0612883
-0.432212
-0.804448
-0.839608
-0.843166
-0.843289
-0.840837
-0.840566
-0.841034
-0.83483
-0.819677
-0.792641
-0.743748
-0.648796
-0.490343
-0.332486
-0.1711
-0.0828134
-0.0362758
-0.0177414
0.0428762
0.143372
0.211263
0.243024
0.28435
0.337132
0.392397
0.435485
0.464871
0.495812
0.542651
0.58037
0.61995
0.653704
0.686273
0.725031
0.761667
0.806578
0.857921
0.897665
0.929638
0.955751
0.983379
1.00266
1.01518
1.0266
1.03341
1.03807
1.04681
1.0489
1.05255
1.04354
1.03195
1.01139
0.979813
0.926602
0.838211
0.705452
0.539008
0.440984
0.392474
0.383419
0.394445
0.419071
0.446904
0.476394
0.501024
0.513056
0.52598
0.52455
0.497891
0.429985
0.373232
0.296136
0.301165
-5.06402e-06
3.09453e-05
1.91781e-05
1.95072e-05
1.78944e-05
2.03328e-05
2.19307e-05
2.44684e-05
2.75474e-05
3.50514e-05
4.00407e-05
4.60447e-05
6.22445e-05
7.73521e-05
8.27051e-05
0.000106069
0.000137274
0.000157242
0.000178604
0.000216411
0.000260917
0.000282144
0.000321352
0.000368558
0.000427216
0.00045617
0.000496505
0.000548071
0.000615979
0.000674772
0.000706382
0.000742575
0.00079728
0.000917959
0.000942415
0.00105712
0.00104767
0.00108581
0.00112789
0.00131589
0.00137876
0.00182848
0.000354025
-0.00843737
-0.0935557
-0.545915
-0.809328
-0.852951
-0.857416
-0.858926
-0.857349
-0.858079
-0.857346
-0.856569
-0.851385
-0.831069
-0.791331
-0.725808
-0.590097
-0.348694
-0.0967673
0.0404364
0.16733
0.18651
0.260974
0.342117
0.3933
0.417172
0.433768
0.462676
0.493532
0.514821
0.530159
0.549671
0.577215
0.600312
0.624872
0.647141
0.671787
0.696625
0.724394
0.758976
0.803335
0.857264
0.907931
0.953487
0.99073
1.01466
1.03036
1.04311
1.05361
1.05692
1.06061
1.06577
1.06655
1.06333
1.05206
1.03531
1.00811
0.962901
0.887784
0.767136
0.598156
0.479612
0.418449
0.397664
0.408077
0.428393
0.45751
0.485679
0.519712
0.529436
0.551936
0.546548
0.537398
0.467042
0.410441
0.326806
0.327029
9.93849e-07
3.46602e-05
2.26928e-05
2.23185e-05
2.0808e-05
2.05313e-05
2.35557e-05
2.25192e-05
2.60278e-05
3.51115e-05
4.1308e-05
3.96099e-05
6.2074e-05
7.49886e-05
8.27181e-05
0.000102003
0.000135342
0.000151894
0.000173965
0.000211521
0.000253553
0.000281847
0.000317888
0.000367527
0.000423698
0.000461801
0.000499454
0.000557983
0.000633166
0.000693248
0.000752748
0.000770325
0.00079413
0.000873217
0.000947692
0.00103143
0.00105213
0.00117341
0.00114142
0.00140959
0.00115736
0.00148421
-0.00144801
-0.0173886
-0.16942
-0.689792
-0.821647
-0.845696
-0.852863
-0.857754
-0.861039
-0.860154
-0.856998
-0.85593
-0.857172
-0.845906
-0.810459
-0.727059
-0.532303
-0.163919
0.126565
0.289371
0.348084
0.407321
0.435534
0.46829
0.490044
0.508399
0.523907
0.541322
0.557479
0.567488
0.575009
0.583008
0.597664
0.611326
0.627476
0.641851
0.658467
0.676596
0.696995
0.724034
0.754762
0.793827
0.847029
0.904232
0.95386
0.986187
1.00635
1.02658
1.04215
1.05307
1.06212
1.06802
1.06809
1.0686
1.06302
1.05228
1.03059
0.992436
0.928289
0.820316
0.659865
0.524436
0.449142
0.419564
0.426155
0.442743
0.468908
0.501723
0.528364
0.554936
0.564537
0.578016
0.569145
0.504263
0.452156
0.359495
0.35601
1.01519e-05
4.04571e-05
2.7212e-05
2.58964e-05
2.40884e-05
2.29058e-05
2.39284e-05
2.74538e-05
2.60777e-05
3.71146e-05
4.37226e-05
4.7581e-05
6.1323e-05
8.36471e-05
8.92606e-05
0.000107628
0.000141636
0.000166343
0.000184017
0.000220073
0.000268375
0.00029884
0.000330542
0.000376991
0.000433903
0.000479645
0.000503697
0.000552108
0.000616692
0.000686351
0.000737493
0.000764823
0.00079751