/*--------------------------------*- C++ -*----------------------------------*\
| =========                 |                                                 |
| \\      /  F ield         | OpenFOAM: The Open Source CFD Toolbox           |
|  \\    /   O peration     | Version:  2.2.x                                 |
|   \\  /    A nd           | Web:      www.OpenFOAM.org                      |
|    \\/     M anipulation  |                                                 |
\*---------------------------------------------------------------------------*/
FoamFile
{
    version     2.0;
    format      ascii;
    class       volScalarField;
    location    "1.5";
    object      divBf;
}
// * * * * * * * * * * * * * * * * * * * * * * * * * * * * * * * * * * * * * //

dimensions      [1 -3 -2 0 0 -1 0];

internalField   nonuniform List<scalar> 
14161
(
3774.85
-438.706
554.202
248.529
314.597
248.603
231.769
190.069
159.557
127.045
99.2133
59.1151
22.1687
-14.398
-47.9998
-76.8187
-110.778
-153.2
-194.186
-236.33
-274.335
-316.237
-353.308
-391.512
-423.727
-459.951
-490.797
-530.871
-547.649
-563.032
-582.12
-573.725
-554.556
-528.981
-459.071
-398.264
-291.041
-151.951
95.4115
369.503
769.709
1263.29
2019.07
2763.08
4169.38
-24296.2
-24450.9
-59912.9
-81301.1
-25846.4
-30321.3
-26613.9
-34259.1
-30926.4
-33518.8
-31271
-32986
-31357.8
-28936.2
-26089.2
-26176.3
-25491.6
-24395.2
-21584.6
-20696.2
-18952
-15948.1
-12878.2
-11249.5
-10189.9
-9538.54
-11062.4
-8315.55
-5595.02
-2172.81
1486.2
3432.86
2183.52
-894.777
4530.08
9350.9
7855.81
10173.2
7410.27
5882.67
14364.4
10434.7
8951.52
11837.1
14974.2
9108.93
17861.5
9752.04
16614.5
8234.37
7617.72
2340.06
31.3885
-1543.23
-1076.7
-2631.32
-7344.18
-3375.95
-8087.74
-7054.67
-9035.34
-9491.77
-10282.6
-8732.58
-8726.06
-7540.78
-9278.13
-5324.58
-7339.16
-2118.6
-4149.5
707.454
-846.449
3155.49
3513.79
-683.389
307.47
2.20671
63.1584
-5.07443
-23.4216
-65.0102
-100.301
-143.843
-183.871
-223.245
-254.739
-298.465
-341.437
-396.743
-440.644
-484.364
-530.124
-584.879
-631.188
-684.883
-737.345
-792.562
-838.498
-898.529
-946.965
-995.566
-1044.34
-1089.99
-1124.15
-1145.28
-1172.59
-1179.16
-1149.48
-1140.73
-1046.81
-998.495
-825.666
-597.136
-234.167
175.728
913.961
1394.35
2583.52
-21746.9
-17289.4
-43873.8
-39254.8
-22656.9
-33768.1
-23963.5
-30773
-25764.2
-28550.8
-26953.4
-28207.3
-28089
-26530.4
-24873.3
-23686.8
-17719.6
-16305.8
-17476.1
-17468.5
-20324.3
-18659.8
-17179.1
-13054.4
-9161.02
-920.547
-4079.9
-6941.5
-8622.41
-9397.79
-2786.84
3847.21
16816.1
21926.5
16517.8
3919.07
-8014.98
4130.31
11043.3
11917.3
-6569.32
18046.8
47069.2
17356.4
9841.3
35745.9
29452.5
10837.7
6688.29
3117.12
5985.52
9358.46
6913.72
4205.56
-2367.56
-5613.69
-4152.6
-828.199
454.44
-4738.87
-6509.64
-6391.98
-7711.51
-7105.72
-8313.05
-6377.21
-6742.41
-5419.25
-5096.94
-2659.21
-3218.98
597.121
-1582.64
3240.67
3251.27
-918.677
64.8802
-236.861
-175.592
-243.773
-265.933
-310.558
-348.35
-389.496
-433.27
-477.971
-522.577
-569.207
-615.655
-674.298
-727.726
-782.213
-833.416
-888.531
-949.13
-1014.25
-1075.6
-1144.08
-1203.98
-1271.72
-1331.51
-1388.95
-1452.75
-1508.87
-1544
-1587.18
-1609.5
-1613.51
-1622.03
-1569.11
-1561.12
-1433.86
-1316.18
-1139.97
-948.076
-694.889
-397.74
-206.052
868.337
-18693.8
-15994
-12529.8
-17437.9
-20092.5
-33483.6
-24389.4
-32447.3
-28564.2
-30194.4
-28727.5
-26991.5
-26138.7
-26438.8
-25658.9
-28387.4
-26118.2
-22425.5
-19416.4
-15668.7
-11580.3
-3495.49
-3458.34
-11224.4
-14225.8
-13426.5
-7677.6
-3283.96
9993.98
13124.1
1737.14
427.369
-6818.24
-12490.1
-3864.62
24602.8
52938.5
21480.1
-12584.9
67091.8
82182.3
-28306.9
-1032.43
31980.1
6045.14
-9001.92
-3361.96
6496.35
20645.1
17658.3
512.319
-2048.31
-7743.25
-3112.38
10359.3
13143.9
3676.88
-6175.36
-11228.8
-1428.26
-3479.4
-3052.62
-4195.33
-4241.18
-6456.73
-5031.45
-8095.3
-2820.07
-5834.97
-2171.01
-4233.87
-161.45
159.722
-263.249
2991.72
-1145.32
-168.83
-464.982
-404.08
-470.852
-493.059
-537.939
-577.337
-621.977
-666.627
-714.315
-760.636
-814.515
-867.114
-924.787
-978.014
-1039.94
-1102.87
-1170.5
-1237.74
-1307.51
-1379.13
-1451.83
-1522.8
-1601.7
-1678.25
-1758.72
-1834.64
-1914.74
-1975.16
-2060.21
-2111.84
-2167.21
-2214.33
-2217.9
-2268.28
-2233.84
-2172.7
-2102.79
-1930.74
-1736.81
-1250.32
-805.04
316.978
-16105.4
-6920.99
26466.9
-2744.87
-11642.1
-31618.6
-26273.2
-34288.3
-31571.6
-32431.7
-30915
-29149
-29161.1
-28900.8
-23722.1
-21766.7
-17155.7
-13445
-13393.2
-14182.3
-15187.8
-15714.2
-14446.6
-9815.96
-2366.39
5484.09
996.386
-1959.23
-3996.46
-11094.1
-4656.49
6717.92
17949.5
18615.1
26711.1
9031.67
-36087.2
38616
71335.7
-29572.8
-18666.9
77773.8
92495.8
-6279.65
38717.3
61562.8
21725.8
-11431.9
-14174.1
-3298.67
4533.83
14390.4
6501.82
-443.468
-13463.4
-6692
2941.79
5328.62
6756.88
874.94
-5081
-3717.86
-6198.48
-2477.22
-8085.66
-1411.09
-3073.71
-3443.34
-4069.02
-1698.33
-3134.18
-16.0767
-3340.21
4414.76
2731.94
-1360.62
-393.242
-681.661
-619.94
-684.59
-706.17
-752.557
-790.762
-835.822
-879.101
-929.103
-980.94
-1037.1
-1092.36
-1148.77
-1205.08
-1272.76
-1340.23
-1412.62
-1489.04
-1562.82
-1641.31
-1718.05
-1797.74
-1879.53
-1961.39
-2044.05
-2121.06
-2200.15
-2269.89
-2325.94
-2375.16
-2423.86
-2441.19
-2456.19
-2421.74
-2361.27
-2288.2
-2191.12
-2094.92
-1893.03
-1574.83
-1100.16
-739.898
-13559.6
-6948.15
31510.6
6508.76
-6709.96
-30943.4
-31020.8
-38398
-35966.9
-35085.9
-33837.1
-31785.5
-29321.4
-26097
-24660.9
-23306.4
-26359
-25329.9
-19441.9
-15923.2
-10747.2
-3650.51
-1523.7
-3431.55
-5223.23
-8273.51
-6401.32
-1346.38
10893.4
18727.7
9365.51
5520.05
1094.79
-11002.9
-4196.71
38858.5
65116.1
25496.5
3236.61
88315
88236.7
-6268.06
-16600.7
60449.5
24001.7
-26147.8
17653.3
34344.5
29840.1
12623.7
-2290.23
-2063.74
403.587
8417.45
16426.6
7392.53
-8225.66
-11841.3
-9341.64
-516.92
6778.55
192.429
-2329.06
-450.879
-1794.35
-3399.12
-5347.94
906.474
-2838.24
-1647.17
-1939.46
1217.19
761.947
-1289.4
2479.02
-1565.72
-607.006
-886.418
-823.551
-884.988
-904.545
-949.348
-987.42
-1031.31
-1076.72
-1126.34
-1177.79
-1234.46
-1291.48
-1351.12
-1416
-1486.06
-1554.47
-1629.31
-1707.46
-1785.84
-1870.78
-1956.41
-2042.14
-2136.36
-2230.17
-2326.93
-2426.29
-2519.09
-2627.22
-2704.25
-2818.11
-2902.58
-2967.3
-3059.47
-3113.19
-3144.91
-3134.22
-3098.11
-3082.27
-2913.95
-2497.33
-2195.14
-906.735
-12294.3
-417.228
35180.1
27474.2
-4213.62
-30995.9
-34247.4
-40414.7
-38618.2
-40157.4
-36515.1
-33378.9
-31403.3
-28746.3
-29022.7
-24744.1
-18985.4
-18474.5
-11922.8
-10904.1
-9641.45
-9220.5
-7561.23
-6662.04
-4459.81
2342.77
7412.37
2785.54
179.682
-7603.92
-3415.81
8798.17
25759.1
38173.3
33362.4
24171.2
-7538.95
8214.23
57531.3
18651.4
-29011.1
43135.4
49344.2
31364.6
26199.2
66633.6
38200.5
-3686.07
2850.32
4693.33
11378.8
17180.8
9005.58
-3996.49
-9866.45
-1413.96
12839.2
18723.3
-2182.24
-4889.66
-3326.13
-5323.92
-6120.81
171.883
-2811.36
1413.64
1500.21
-3121.94
-4538.61
1175.74
-1530.33
-903.134
-2679.54
1196.61
2228.34
-1757.05
-808.97
-1078.32
-1013.56
-1071.17
-1088.62
-1131.74
-1166.66
-1211.07
-1254.97
-1305.56
-1358.12
-1412.84
-1469.3
-1534.08
-1600.97
-1670.61
-1744.84
-1818.25
-1899.34
-1982.7
-2070.84
-2160.77
-2252.95
-2342.96
-2436.84
-2534.29
-2627.47
-2717.09
-2799.96
-2878.7
-2952.95
-3007.8
-3054.86
-3066.57
-3036.02
-3002.75
-2958.2
-2847.37
-2748.63
-2482.25
-2266.75
-1665.81
-1186.09
-8717.15
-507.143
48743.2
27845
-19163.4
-55143.3
-52941.9
-52104.6
-42583.2
-39953.4
-31361.5
-30802.3
-24229.6
-21154.2
-21561.2
-16020.2
-13562.4
-10036
-9907.58
-7735.25
-6914.35
-5896.29
-1465.45
2368.51
582.938
-644.73
-2622.35
1432.11
4989.01
14566.9
20932.6
14585.3
6130.23
-681.784
6815.7
17292.8
34316.9
56371.8
25095.4
37293.7
75035.3
45990.9
16436.1
24446.5
41631.4
3361.69
28137.8
27427.4
39746.4
22679.6
2405.92
-3308.11
2702.84
9133.48
16007.8
8344.69
-9135.36
-11496.8
3751.53
3461.63
2568.18
7644.03
1490.34
-2126.62
73.2963
-5913.9
-4894.46
1058.68
-416.959
374.875
-3215.12
1990.6
-2984.2
769.572
1988.06
-1936.58
-998.897
-1257.8
-1190.22
-1243.04
-1257.97
-1297.36
-1331.79
-1375.64
-1417.72
-1465.69
-1516.4
-1573.23
-1634.82
-1696.66
-1763.01
-1833.79
-1909.51
-1986.76
-2069.51
-2155.33
-2247.89
-2343.46
-2439.61
-2538.19
-2647.92
-2751.19
-2865.29
-2981.21
-3083.58
-3206.4
-3322.92
-3425.08
-3542.79
-3623.38
-3727.97
-3826.9
-3801.02
-3783.08
-3755.38
-3704.39
-3501.12
-3499.95
-2420.02
-12184.1
-9697.38
-22795.4
16583.4
-40043.9
-59678.9
-50837
-46463.4
-35569.2
-30504.5
-23209.4
-24419.3
-17496.4
-17748
-15118.2
-12916.4
-12110.6
-7765.89
-5551.57
-3843.82
-3131.14
-2351.86
-2135.44
30.4253
2214.64
3855.2
8118.12
11101.3
8896.56
6350.59
2875.39
5648.73
11641.1
19046
29168.5
27601.7
29386.2
21010.4
36536.4
35433.1
28129.8
27335.6
37405.6
16831.1
45918.3
26505.9
45885.3
11079.8
23998.4
18921.5
25738.9
23352.7
13188.2
-255.077
-5802.74
-321.074
9035.52
13340.6
746.148
-1995.44
-5334.58
-5113.92
-6098.91
1583.66
-5283.59
4429.37
4484.09
-1488.03
-4839.45
3200.03
-756.451
-1117.41
-1488.77
895.575
1753.1
-2100.94
-1175.41
-1423.13
-1352.78
-1400.88
-1413.05
-1448.2
-1481.27
-1522.27
-1563.51
-1610.5
-1663.32
-1716.11
-1776.06
-1838.58
-1906.32
-1976.58
-2054.94
-2134.06
-2217.83
-2306.3
-2398.93
-2495.78
-2594.09
-2692.92
-2796.23
-2899.5
-3005.06
-3103.51
-3200.43
-3290.08
-3367.07
-3444.86
-3497.71
-3513.94
-3531.4
-3507.87
-3445.42
-3390.41
-3182.72
-2926.68
-3041.56
-2448.61
-3884.87
-8251.85
-25098.5
-84898.3
-78283.5
-47434.5
-2914.8
-1213.27
-7607.82
-14554.6
-18745.6
-21299.1
-17534.3
-14802.4
-13860.7
-9604.55
-8289.53
-5597.71
-5970.38
-3354.87
-2898.17
-955.014
172.232
1710.5
2565.99
4732.71
6232.57
6392.63
6112.01
8568.39
10694.4
14968
16443.4
15977.3
15474.4
14557.3
20467.2
27709.1
30143
30004.7
36086.3
33573.6
28441.3
40279.1
29433.2
36293.3
18830
25605.7
40183.3
34074.8
27432.7
12152.5
3221.96
4596.28
8680.29
15436.9
7591.57
-651.413
-5054.5
-2732.58
4359.19
3401.36
7386.64
1526.27
1146.43
-2584.89
324.342
-8751.89
1794.37
3197.49
-3527.97
-2252.85
670.121
-1199.68
-394.363
1531.1
-2252.28
-1338.55
-1574.93
-1501.16
-1544.46
-1553.48
-1585.29
-1614.96
-1653.98
-1694.24
-1738.84
-1789.98
-1843.55
-1902.3
-1964.01
-2033.13
-2105.19
-2183.82
-2262.8
-2347.67
-2437.04
-2532.73
-2631.19
-2735.36
-2840.57
-2952.09
-3070.36
-3186.44
-3306.97
-3433.82
-3558.95
-3680.88
-3817.67
-3925.33
-4042.8
-4149.5
-4261.12
-4261.85
-4343.74
-4300.01
-4360.01
-4110.3
-4148.03
-3984.69
-9185.83
-20723.8
-97301.4
-234376
-23160.8
2420.84
4474.53
771.786
-1016.62
-8288.53
-7735.24
-8257.62
-7759.71
-7086.95
-4309.99
-4466.22
-2203.78
-1967.57
336.98
309.954
2260.53
3386.27
4217.4
4082.66
4835.84
6066.65
7441.72
8862.18
10329.5
11465.3
13876.8
15448.9
17737.5
19087.9
18935
28262
36988.4
38529.2
36035.9
38521.7
27624
25063.1
39129.8
35001.6
24015.8
43777
22204.1
48691.8
12206.5
30626.8
40207.1
29040.2
26137.4
10113.7
-986.943
2487.13
2968.43
6211.83
4066.72
2202.51
-4033.7
-2542.66
-2887.27
712.42
1193.83
1932.54
2806.44
2857.94
-6498.53
663.501
-502.115
-795.534
-2139.35
195.026
1317.34
-2387.64
-1487.25
-1712.08
-1635.36
-1673.6
-1678.72
-1708.8
-1733.65
-1771.43
-1809.66
-1853.58
-1902.55
-1955.37
-2012.17
-2073.98
-2144.11
-2213.44
-2290.04
-2371.41
-2457.14
-2548.43
-2643.93
-2744.23
-2846.35
-2952.08
-3059.54
-3169.31
-3279.84
-3389.52
-3494.31
-3594
-3685.1
-3769.27
-3842.31
-3888.84
-3890.87
-3894.86
-3874.78
-3885.23
-3765.68
-3632.64
-3733
-3074.51
-4173.86
-4451.21
-13733
-33054.6
-169834
-86042.1
-17268.1
-6994.08
-6121.59
-8080.92
-7747.55
-8515.4
-8075.74
-7814.32
-4873.76
-4658.5
-2160.64
-1440.43
224.24
1838.94
1842.68
3265.51
4182.86
5395.61
6809.92
7825.44
9315.03
9905.43
10462.8
10941.7
12446.3
13376.6
17613.8
18457.2
20810.3
24156.6
29206.1
27232.6
43390.4
41107.7
22179.4
27869.9
44126
27762.9
33169.5
10838
38477.1
18639.8
31561.4
23782.9
38757.2
27878
23377.9
11523.5
10934.3
16612.6
12154.9
3494.42
3625.76
714.307
-1121.09
3436.28
-367.721
9769.67
-3042.16
2056.91
-4753.9
-3764.42
-701.131
-917.702
1781.23
-2626.86
1171.65
-1513.65
199.504
1118.26
-2508.8
-1621.72
-1835.32
-1755.18
-1788.37
-1790.7
-1816.88
-1840.21
-1875.02
-1910
-1952.42
-1999.32
-2052.1
-2107.69
-2169.01
-2237.34
-2308.06
-2386.39
-2466.5
-2552.92
-2644.53
-2740.38
-2842.09
-2948.38
-3059.24
-3173.41
-3292.11
-3414.98
-3541.84
-3673.88
-3806.34
-3933.64
-4070.11
-4204.63
-4328.72
-4439.29
-4514.2
-4528.44
-4626.51
-4568.8
-4434.37
-4230.12
-3884.43
-3589.84
-4234.89
-10003.5
-28545
-122374
-95591.4
-54335.4
-30059
-15772.3
-14223.9
-10376.8
-7964.44
-7660.28
-5635.88
-3509.05
-2483.35
-1070.18
323.837
1404.31
2622.82
3951.04
4944.28
6447.47
7129.24
7669.11
8611.48
9555.13
10367.1
10942.1
12216.3
14911.8
18191.3
17170.3
18321.1
18882.3
28747.3
28774.3
43595.2
43929.7
26573.7
33505.6
38347.6
33593
10811.4
25455.5
30445.3
30265.6
28237.8
18562.3
31162.6
25153.4
22884.2
28860.7
35413.6
21739.6
8151.52
3564.26
4704.37
3346.16
2774.08
3043.33
2975.34
404.933
599.006
-3085.15
-703.709
-469.054
6859.11
-3840.45
-2253.63
-205.309
-2170.22
-474.42
-2100.13
-253.538
930.05
-2613.68
-1741.16
-1943.74
-1860.83
-1889.54
-1888.75
-1910.83
-1932.48
-1963.57
-1997.87
-2037.79
-2083.88
-2134.34
-2189.49
-2250.85
-2316.93
-2386.67
-2463.26
-2544.8
-2631.02
-2722.71
-2818.38
-2919.76
-3025.94
-3133.6
-3244.73
-3358.11
-3475.04
-3592.84
-3707.01
-3814.15
-3922.12
-4021.36
-4106.55
-4184.42
-4256.26
-4295.61
-4283.58
-4247.98
-4210.87
-4131.55
-4148.24
-3819.94
-3784.98
-3578.53
-8630.36
-80322.4
-81289.3
-70823.9
-60129
-39290.8
-15907.5
-13718.8
-6088.13
-7647.51
-4830.57
-3263.06
-2241.15
-801.991
691.438
2491.35
3490.33
4716.59
5371.7
7212.41
7552.93
8226.53
8527.66
9552.83
10221
10968.6
12037.3
13137.6
14408
15696.1
20870
21079.9
27397.2
44045.9
40553.6
38085.4
43547.6
25591.8
31229.3
36764.7
23342.3
37071.1
23167
27027.8
16973.6
25048.6
14239.1
33151.1
15241.2
26833.2
25207.5
24287.3
25241.9
14583.5
10692.8
6053.16
3078.5
2665.7
1478.36
1557.34
5923.89
-5764.96
8052.33
-4717.86
9415.01
-8894.67
-725.104
6271.73
-917.264
-3828.56
-238.881
-2502.53
-442.338
757.596
-2703.58
-1845.9
-2038.01
-1952.46
-1976.65
-1972.63
-1992.35
-2010.72
-2040.15
-2072.02
-2110.03
-2154.15
-2204.33
-2257.2
-2318.22
-2382.85
-2453.67
-2528.6
-2609.65
-2695.74
-2787.52
-2883.72
-2986.07
-3092.7
-3205.74
-3322.18
-3443.38
-3570.72
-3701.1
-3829.88
-3962.97
-4102
-4234.62
-4353.55
-4467.95
-4565.19
-4623.12
-4704.85
-4745.96
-4556.14
-4299.07
-4205.76
-4085.72
-3731.45
-5733.17
-18607.8
-94126.9
-16749.6
-36886.6
-75831.4
-62594.6
-30501
-20393.4
-7898.45
-7166.41
-3832.67
-4279.98
-355.643
-132.32
3363.98
4066.76
6177.04
6027.53
6530.66
6597.25
7587.88
9241.69
10643.9
10869
11178.7
10812.1
11611.7
14820.8
18555.3
21088
20247.4
24046.6
31982.7
39638.9
47485.6
49882.1
32070
24719.7
31475.1
35314
25976.9
29223.9
15775.7
23804.2
18259.7
26455.9
19697.7
17665.9
23295.1
16109
24653.1
22862.7
27868.2
21799.3
15666.7
7892.98
5650.67
903.004
3073.01
-1355.74
4622.17
-2806.68
1251.59
-6994.43
5168.59
-4673.37
9428.65
-9369.59
-1088.8
4335.43
633.357
-2093.32
1990.07
598.235
-2777.34
-1935.45
-2117.45
-2030.19
-2050.37
-2043.8
-2060.43
-2076.27
-2103.66
-2133.15
-2170.61
-2212.38
-2260.64
-2313.17
-2372.41
-2435.99
-2505.62
-2579
-2660.13
-2745.91
-2836.73
-2932.97
-3034.2
-3139.7
-3251.66
-3365.66
-3481.84
-3602.4
-3723.59
-3844.07
-3964.02
-4082.34
-4195.76
-4305.34
-4408.06
-4505.27
-4572.49
-4628.99
-4701.81
-4889.29
-4770.63
-4276.1
-3286.18
-3208.03
-2096.48
-31989.3
-98026.4
-12333.4
-16132.8
-37899.9
-58348.6
-59775.3
-28872.9
-15198.1
-11406.3
-6836.14
-5191.66
-875.042
736.651
3467.86
4796.67
5957.65
6199.5
6227.08
8132.05
9305.01
10381.4
11343.1
11510.5
11689.1
12596.8
14530.3
16884.5
15922.9
14405.1
18193.8
30810
45636.7
51215.9
58368.5
47295.9
19559.8
31210.5
40519.4
26638.5
20422.7
16963.2
18365.3
27007.8
19468.9
19418.7
20798.5
11881.3
26811.5
14465.7
22022.4
19372.7
24689.8
21118.5
11679.4
9837.13
8560.3
3427.19
5744.26
1193.02
-688.998
6173.69
-5136.02
13417.3
-8143.6
2396.46
-4475.59
-2293.25
5357.8
-6238.63
-962.443
332.849
404.403
455.075
-2835.83
-2010.29
-2183.14
-2094.24
-2110.69
-2101
-2115.95
-2129.76
-2154.09
-2182.81
-2217.87
-2258.51
-2305.42
-2357.05
-2414.11
-2477.13
-2546.75
-2620.39
-2700.25
-2784.45
-2875.14
-2970.65
-3072.21
-3179.09
-3291.92
-3408.77
-3529.58
-3655.55
-3786.58
-3921.47
-4054.64
-4186.85
-4309.19
-4426.3
-4528.59
-4637.4
-4740.96
-4833.91
-4809.41
-4639.85
-4316.27
-4483.54
-5419.36
-7204.55
-9974.52
-61856.8
-61108.9
-5906.53
-4244.41
-13677
-27006.8
-54257.5
-47271.5
-30593.9
-19778.7
-12780.2
-5505.71
-3174.31
1020
4742.19
5698.86
6412.62
7298.16
8986.53
9198.71
10165.4
10847.6
12379.1
12897.5
12452.4
13435.4
14187.1
15755.4
15692
18401.5
30540.5
48243.9
63731.3
68885.3
43011
26650.4
37541
33573.4
23614.7
13449.7
15022.5
16054.7
29078.2
17311.5
16452.8
8758.41
20280.8
10796.7
16262
12796.2
16820.3
15431.3
20411.8
26950.2
21857.3
13545.7
5019.98
5213.39
2494.77
4175.02
471.485
2950.67
-3088.88
2428.55
-5832.98
4837.88
-4690.41
5930.97
-4002.76
-2896.02
-1598.32
-3582.73
-2184.51
326.239
-2878.63
-2070.24
-2234.3
-2144.76
-2158.09
-2146.33
-2158.61
-2170.77
-2193.31
-2220.09
-2254.24
-2293.12
-2338.73
-2389.26
-2445.09
-2506.72
-2575.07
-2647.13
-2725.44
-2809.22
-2899.23
-2994.31
-3095.31
-3199.25
-3310.52
-3425.67
-3543.8
-3665.14
-3793.5
-3918.19
-4041.24
-4168.06
-4297.64
-4419.58
-4543.21
-4650.93
-4759.67
-4837.76
-4920.22
-4977.63
-4800.94
-4885.03
-4546.41
-7424.86
-11935.9
-97659.5
-18213
-2863.71
-2813.03
-7500.57
-22315.7
-30029.2
-51336.7
-48070
-31298.2
-21729.4
-11373.7
211.24
1930.89
3783.38
6023.92
6494.18
7239.57
9393
10777.5
10356.5
11407.8
11261.6
12929.9
13557.4
13728
14758.6
17670.4
21838.9
30297.2
44640.2
61754.3
73127.7
50628.9
30196
39358.4
42842.3
29989.4
14572.1
15440.5
19855.5
19294.9
20244.7
9415
12922.5
13790.6
20596
15929.6
11606
16121.8
13644.7
16301.2
15072.3
19258.8
17884.5
14904.8
9587.54
7407.4
5151.36
3120.81
1814.35
-1276.34
8021.68
-6282.07
13363.5
-8639.09
6278.87
-2605.82
-3902.97
3026.11
865.133
-2632.81
2036.16
213.745
-2906.46
-2115.8
-2272.32
-2181.93
-2192.55
-2179.23
-2189.57
-2200.06
-2221.09
-2246.31
-2279.45
-2316.21
-2360.88
-2410.39
-2465.15
-2525
-2592.18
-2664.3
-2742.36
-2824.65
-2914.05
-3008.25
-3107.82
-3212.45
-3323.95
-3442.71
-3561.69
-3684.99
-3815.83
-3949.46
-4079.67
-4203.38
-4329.58
-4462.85
-4581.71
-4676.6
-4688.4
-4742.9
-4878.83
-4929.9
-4914.94
-4648.99
-4345.18
-5671.75
-23234.3
-77640.9
-8894.25
-2197.13
-3795.26
-3769.55
-6082.76
-15124.6
-32816.6
-44384.1
-53850.4
-28491.7
-25696.5
-3566.45
-4345.1
5619.94
5479.04
7463.16
9008.45
9266.8
9725.98
10316.5
11840.6
13543.8
16984.6
18727.3
18202.6
21723.9
28588.2
38811.8
55924.1
81460.2
72010.9
47426.7
27166.1
25982
21491.4
19895.1
17117.1
23616.6
19297.2
23816.7
11822.1
6906.91
12273.2
11059.3
16177.7
6272.19
11339.2
7848.41
12330.1
7893.91
11804.6
12764.6
19040.3
20218.9
13017.8
7917.11
5882.02
5143.39
2049.31
5759.47
-2582.71
5649.24
-5817.76
5589.1
-14939.9
6896.23
-4758.27
7065.33
-5748.96
-637.399
-1381.21
-1980.32
115.961
-2919.21
-2147
-2296.24
-2206.33
-2214.97
-2200.21
-2208.75
-2218.5
-2237.66
-2261.85
-2293.75
-2329.29
-2372.07
-2420.97
-2475.09
-2533.08
-2599.68
-2670.17
-2745.92
-2826.71
-2915.37
-3009.1
-3107.26
-3210.97
-3320.5
-3435.13
-3553.18
-3674.91
-3796.84
-3928.59
-4058.86
-4187.8
-4320.03
-4452
-4582.13
-4709.41
-4842.22
-4963.03
-4999.54
-4915.57
-5013.56
-4951.04
-6029.04
-8910.68
-34810.1
-75608.9
-1229.36
2069.95
1131.34
-2647.76
349.013
-1327.62
-15123.3
-36225.8
-45559.2
-53351.5
-34793.3
-18658.3
-6334.6
5586.39
9475.82
8791.32
9664.06
10014.7
10651.6
13955.4
17159.4
19682.2
28575.6
38323.5
44826.2
58559.4
68676.4
81499.6
90455.9
63016.9
33827.4
8464.72
3228.15
1365.53
6939.71
2719.3
6270.73
11287
10606.6
14760.7
9161.51
9596.2
11754.4
11770
12596.7
3646.71
11941.6
10781.3
8436.22
12615.9
10963.5
12404.6
16111.6
16637.7
18700
12848.6
6641.43
5450.93
2546.9
759.28
3016.59
-2714.81
9711.58
-7461.29
10636.2
-3369.28
-1072.31
-2081.51
-3138.78
-177.651
-3791.5
-1838.96
34.5401
-2917.92
-2164.51
-2307.78
-2218.36
-2225.22
-2209.63
-2217.15
-2225.88
-2243.33
-2267.32
-2297.18
-2332.41
-2373.79
-2421.23
-2474.08
-2531.14
-2596.27
-2665.73
-2740.74
-2821.2
-2907.65
-3001.49
-3097.61
-3199.75
-3309.8
-3423.85
-3545.7
-3668.07
-3792.41
-3925.35
-4058.12
-4190.48
-4315.08
-4444.52
-4562.16
-4656.99
-4774.72
-4904.5
-4874.95
-4983.63
-5293.46
-5353.19
-7290.2
-14469.3
-83335.3
-26924.5
-1146.49
1718.66
1290.49
1671.44
4485.81
-2202.29
-12236.1
-15740
-18592.8
-40643.8
-52827.1
-33960.1
-16835.5
5786.07
17259.2
14398.2
15234.9
19922.7
33416.8
43749.3
50510.7
64989.3
78861.3
85986.2
104551
90169.1
76584.9
56580.4
32432.4
9627.06
1319.81
-12216.4
-19277
-20336.5
-14501.9
-7559.62
-4582.49
-4901.23
172.06
2518.98
7967.89
7882.18
6040.69
5546.23
4905.87
12248
6774.89
7884.54
5791.55
10195.3
9303.83
11104.8
12780.5
14901.4
14422
12781.4
6971.11
4445.7
3438.12
824.758
4224.8
-4584.38
3822.41
-7022.91
6474.81
-11216
11312.1
-4389.17
-807.138
1388.19
-1892.52
571.023
-33.0638
-2902.19
-2168.6
-2306.35
-2218.26
-2224.23
-2208.12
-2214.77
-2222.63
-2239.47
-2262.13
-2292.06
-2325.34
-2365.72
-2412.55
-2463.98
-2520.2
-2583.04
-2652.13
-2725.8
-2803.44
-2889.43
-2980.2
-3076.34
-3176.09
-3285.97
-3395.43
-3514.68
-3634.53
-3757.15
-3885.94
-4022.32
-4159.57
-4285.42
-4422.74
-4539.91
-4644.35
-4738.3
-4813.18
-4975.84
-5019.42
-4959.34
-4592.32
-6297.98
-16784.5
-65200.7
-5690.64
-641.955
-1073.7
-2176.1
-2635.52
-1266.74
-4161.83
-8638.15
-14866
-10068.3
-15214.8
-39987.7
-53239.8
-10901.4
18176.8
34018
50892.4
58573.1
74432.1
102334
108961
97830
84963.7
74855.3
55630.8
41341.8
35855.5
28415.5
18082.3
10435.1
-443.026
-5708.7
-13192.3
-18691.5
-21439.8
-27871
-27008.7
-17759.1
-9182.23
-4749.1
-1075.84
1650.5
2499.22
4034.16
3558.3
2707
4514.9
4457.33
6550.17
6326.11
7369.78
6817.59
9291.02
11270.2
13350.1
15537.1
11918.1
8430.39
5622.32
3437.49
3466.96
729.399
6155.4
-3136.1
10439.3
-5033.75
9705.65
-6065.64
-4554.56
4846.03
-1006.28
-2211.53
-1670.93
-84.1926
-2874.12
-2159.91
-2293.18
-2206.9
-2212.18
-2195.86
-2202.6
-2209.13
-2225.98
-2247.57
-2276.75
-2309.3
-2348.38
-2394.35
-2444.43
-2499.86
-2560.81
-2628.57
-2701.34
-2777.44
-2863.36
-2950.85
-3047.52
-3146.26
-3252.71
-3365.11
-3481.66
-3601.28
-3725.57
-3848.15
-3983.11
-4119.72
-4250.56
-4371.86
-4500.78
-4613.32
-4677
-4707.02
-4660.86
-4766.83
-4704.4
-4642.56
-5727.31
-23191.4
-63239.9
-5811.56
755.848
1821.65
311.123
-4344.83
-1783.75
1521.56
7515.3
12799.9
-5694.23
-22205.1
-2720.67
15682.7
22759.4
69278.7
99677.5
109041
113090
92990.7
66547
52145.9
48611.7
43904.4
37489.3
29886.8
24012.5
19622.9
15689.1
9197.37
5193.83
548.714
-3925.54
-7802.9
-12612.9
-16396.5
-21110.9
-26683.4
-28981.6
-20763
-11485
-6911.75
-3884.09
-2474.44
-767.296
1992.28
1918.88
265.657
2232.26
1424.69
4932.61
3673.92
4909.3
5289.36
6230.32
8870.94
11871.2
12735.9
10153.6
6872.13
4628.25
4065.93
2479.53
3556.48
-4555.32
5141.58
-5839.64
3510
-9011.83
8763.54
-5370.9
-4211.68
-1248.76
-335.996
-123.109
-2832.44
-2139.04
-2268.41
-2184.45
-2189.72
-2173.58
-2180.24
-2186.7
-2202.9
-2224.35
-2252.42
-2284.29
-2322.34
-2367.36
-2416.72
-2470.61
-2530.48
-2596.39
-2667.87
-2743.41
-2825.13
-2913.34
-3006.38
-3104.44
-3205.66
-3319.18
-3431.63
-3548.53
-3671.21
-3790.49
-3923.32
-4064.96
-4198.68
-4286.88
-4420.3
-4589.68
-4734.6
-4764.35
-4881.35
-5106.67
-5313.67
-7011.53
-10279.9
-53795.8
-66222.7
-2473.45
4564.19
8015.62
8136.13
4288.69
-2033.58
2425.89
8215.4
15728.1
8765.69
-3085.54
17939.4
87694.8
116989
110099
90065.9
67559.2
64273.5
49847.1
39294
37349
32483.9
31221.9
25579
22273.5
16564.9
14727.7
10867.3
7368.84
4527.95
2430.9
646.068
-1160.98
-4615.41
-8772.45
-13144
-17150.6
-21171.7
-26319.8
-26324.2
-20253.7
-13123.2
-7201.42
-4836.38
-3422.43
-2133.12
-9.64292
679.262
1270.71
2075.28
3011.28
4495.44
5381.39
6103.67
8551.97
10438.7
13534.9
9394.94
6302.52
4411.83
2769.87
2493.23
804.626
5082.04
-2209.84
8341.62
-3707
6891.61
-1208.25
-7065.85
1684.78
-874.177
-1976.93
-146.334
-2780.06
-2106.7
-2233.03
-2151.64
-2157.16
-2142.27
-2148.3
-2155.19
-2171.38
-2192.11
-2219.46
-2251.28
-2288.26
-2331.94
-2380.5
-2433.29
-2491.34
-2556.01
-2625.92
-2700.24
-2779.62
-2866.81
-2958.87
-3054.53
-3154.5
-3265.41
-3377.51
-3496.42
-3618.28
-3743.9
-3863.25
-4004.03
-4144.08
-4257.25
-4369.14
-4479.14
-4569.61
-4707.63
-4718.24
-4806.13
-4791.1
-6046.9
-16475.2
-97547.3
-24007.1
-7014.11
2079.78
5217.19
5552.21
4235.56
-825.281
3633.97
14589.6
25388.4
26118.1
33884.1
107514
191884
101728
66628.8
46337.9
36168.5
31393.7
28206.2
25232.9
22430.7
20513.8
19475.5
18987.7
18317.7
18869.6
17192.4
13261.6
9955.76
6835.75
4388.04
3385.39
1048.77
147.122
-1676.56
-5656.88
-9432.92
-13833.5
-19667.4
-24256.4
-24945.4
-17108.2
-7967.22
-3822.41
-2195.74
-2718.26
-2050.93
-562.871
771.52
582.326
516.297
1601.25
3557.35
5404.03
8175.73
10392.3
12281.3
10455.4
6095.84
2984.79
2176.39
1465.95
895.848
2434.64
-2861.42
1817.92
-3127.86
5230.12
-5634.75
5708.68
-1535.9
-4127.92
-1777.24
-158.437
-2715.63
-2063.58
-2187.39
-2109.12
-2115.42
-2101.67
-2108.2
-2115.3
-2131.52
-2151.57
-2179.37
-2209.83
-2246.54
-2289.01
-2336.48
-2388.09
-2444.72
-2507.94
-2576.36
-2648.38
-2726.82
-2810.62
-2901.47
-2995.21
-3093.9
-3198.93
-3310.45
-3427.54
-3544.76
-3662.02
-3782.89
-3904.81
-4051.25
-4184.37
-4313.17
-4408.38
-4484.38
-4537.83
-4706.4
-4735.53
-5081.89
-6665.81
-25364
-102546
-6796.1
-1192.15
-364.588
6155.54
4480
2914.22
-2092.37
3830.28
19633.2
37074.6
43774.1
97751
207576
110847
67268.6
46591.9
28341.6
20123.4
18731.6
18496.9
17010.8
15951.4
15071.5
15118.5
14847.4
14618.3
15474.3
16094.6
15432.8
14999.1
11082.1
8853.66
5181.42
3365.37
1588.58
131.904
-1045.82
-3530.66
-7335.6
-11639.3
-16374
-20883.9
-24374.3
-22425.1
-17046.6
-10549.3
-6242.73
-4891.55
-4257.9
-2614.72
-915.406
-128.371
713.732
2149.5
3472.25
5735.28
7671.1
10249.6
8358.78
7384.91
6672.79
5789.25
4546.66
4705.44
58.2536
5836.74
-2093.89
8233.39
-7237.04
3772.97
-779.782
-1933.65
-1944.59
-320.801
-157.166
-2642.07
-2010.49
-2132.42
-2057.61
-2065.03
-2052.46
-2060.01
-2067.15
-2084.12
-2103.89
-2130.87
-2161.52
-2197.32
-2238.3
-2285.28
-2335.69
-2390.67
-2452.78
-2518.98
-2589.86
-2665.41
-2748.43
-2836.27
-2927.24
-3025.02
-3126.29
-3238.39
-3354.63
-3469.07
-3595.24
-3716.2
-3845.3
-3976.42
-4125.25
-4250.12
-4368.96
-4451.77
-4486.14
-4486.67
-4869.06
-6061.27
-9856.59
-56951.5
-82003.1
-4379.59
182.192
3273.06
8826.62
7333.33
4891.39
765.239
13981.6
35925.8
59821.9
105472
205435
123271
58523.3
43446
28447.1
20800.3
15286.2
15092.4
15913.9
14767.9
13169.7
12543.2
12367.4
12832.5
12496.9
12115
12912.5
14377.1
15377.9
14544.5
13605.1
9368.36
6624.86
3363.53
1665.05
290.402
-1026.18
-2734.98
-6274.33
-10161.6
-14303
-19440.1
-22378
-16499.4
-9694.93
-5951.39
-3836.02
-3311.97
-3104.61
-2677.21
-2040.09
-1181.15
-189.944
1105.21
3198.5
5159.22
7811.45
8462.78
5564.71
4490.43
4159.7
2685.82
3360.43
744.839
2944.9
-1926.66
-727.39
-5521.61
5459.88
-2344.19
573.588
-1956.58
-2095.15
-146.038
-2558.45
-1948.2
-2068.69
-1997.72
-2006.59
-1995.46
-2004.1
-2011.57
-2029.07
-2048.98
-2075.64
-2105.65
-2141.22
-2181.01
-2226.69
-2276.28
-2329.61
-2390.32
-2454.39
-2523.82
-2596.52
-2678.21
-2763.22
-2853.11
-2948.67
-3047.75
-3155.03
-3267.75
-3375.28
-3492.06
-3603.61
-3723.48
-3845.57
-3959.52
-4082.83
-4194
-4297.67
-4404.47
-4532.95
-4774.79
-7306.7
-20310.7
-105136
-30530.6
-4914.59
789.18
3454.57
9176.49
7773.4
7523.77
7481.02
33406.7
72210.9
123082
187092
112282
59871.5
39919.8
29266.6
16218.4
12801.6
13720.8
14793.7
13857.5
12688.8
11607
11317.3
11364.2
11350
10305.3
10510.4
10650.5
12577.3
12037.1
12684
13637.5
12792.6
10655.5
6911.95
4369.83
1508.44
-101.412
-1367.86
-2525.82
-5261.06
-8896.27
-12679.7
-16619.3
-20566.8
-19120
-14641.1
-10950.1
-6933.88
-5248.6
-4588.09
-3504.78
-2783.15
-1611.18
82.0845
1553.64
3388.99
6297.93
6517.9
6947.43
5304.11
4054.66
2260.42
1742.9
2669.44
-1346.23
10304.5
-5753.3
12994.7
-5271.51
-474.732
1757.87
-3736.2
-1401.92
-123.494
-2467.25
-1877.63
-1997.18
-1930.17
-1940.69
-1931.64
-1940.79
-1949.54
-1967.5
-1987.31
-2014.04
-2043.8
-2078.64
-2117.51
-2162.13
-2210.56
-2262.94
-2320.76
-2384.37
-2450.98
-2522.68
-2600.27
-2682.91
-2770.44
-2862.79
-2959.83
-3062.81
-3174.58
-3288.42
-3405.16
-3529.19
-3652.01
-3786.65
-3927.59
-4081.09
-4240.99
-4368.83
-4417.59
-4600.48
-5453.77
-7949.98
-38777.1
-99550.3
-11506.1
3424.27
-201.93
3901.88
9903.05
12181.3
11123.9
19700.3
69005
146112
179966
116054
59295.2
36557.4
30860.9
16229.1
9508.38
9619.17
11945.4
11627.8
11193.1
10611
10340.1
10559.2
10227.5
10243.6
9082.05
8951.22
8924.27
9713.66
9631.62
10528.8
10839.8
11295.4
12483.1
10478.9
7834.42
4445.88
1873.52
-190.985
-1548.98
-2693.58
-5076.48
-8543.7
-11950.2
-16136.6
-19180.7
-15109.7
-9628.16
-6537.43
-4603.53
-3575.5
-3106.83
-2751.12
-2307.98
-1200.38
538.629
2492.17
5166.6
6549.13
6191.11
5468.26
4530.56
4478.73
3012.69
4311.81
490.432
1131.61
2363.43
78.9039
-5787.73
2447.18
-974.354
-1206.07
860.956
-92.7867
-2368.22
-1799.57
-1918.52
-1855.69
-1868.02
-1861.12
-1871.2
-1881.5
-1899.85
-1919.69
-1946.07
-1975.69
-2010.21
-2047.72
-2091.67
-2138.33
-2189.93
-2245.26
-2307.13
-2371.82
-2441.79
-2516.34
-2597.57
-2682.06
-2772.9
-2866.54
-2965.42
-3074.24
-3188.73
-3301.06
-3419.12
-3542.4
-3626.68
-3706.41
-3797.81
-3880.08
-3955.87
-3929.88
-4071.82
-5754.24
-14734.4
-81658.6
-49387.7
-6457.78
3851.54
380.388
4929.56
13399.5
23481.4
26991.9
59998.8
157887
168397
89426
62314
33177.2
18776.5
16857.2
16175.1
12593.5
11994.7
12429.5
11444.3
10490.4
9657.98
10105.5
10867.6
9867.52
9763.06
8611.58
8505.21
8165.54
8013.32
7822.67
8570.4
9006.23
8674.55
9690.98
10568.4
10151.8
7194.42
4496.55
1936.8
-224.012
-1936.11
-3121.25
-5325.65
-8167.64
-11332.6
-14446.3
-17109.7
-15378
-12169.9
-9289.12
-6552.39
-5146.27
-4291.58
-3315.6
-2199.43
-848.974
1518.73
3780.63
5907.77
5094.43
4282.79
4560.81
3226.07