/*--------------------------------*- C++ -*----------------------------------*\
| =========                 |                                                 |
| \\      /  F ield         | OpenFOAM: The Open Source CFD Toolbox           |
|  \\    /   O peration     | Version:  2.2.x                                 |
|   \\  /    A nd           | Web:      www.OpenFOAM.org                      |
|    \\/     M anipulation  |                                                 |
\*---------------------------------------------------------------------------*/
FoamFile
{
    version     2.0;
    format      ascii;
    class       volScalarField;
    location    "1.15";
    object      By;
}
// * * * * * * * * * * * * * * * * * * * * * * * * * * * * * * * * * * * * * //

dimensions      [1 0 -2 0 0 -1 0];

internalField   nonuniform List<scalar> 
14161
(
-1.44909e-05
1.10827e-07
-6.60858e-07
-2.89145e-08
-1.42878e-06
-8.68636e-07
1.35174e-06
5.35867e-07
-7.39746e-07
9.23417e-07
1.93986e-06
1.53578e-06
5.97669e-07
-1.59335e-06
-2.75533e-06
3.71972e-06
1.14394e-06
2.78105e-06
7.72896e-07
2.93367e-06
1.21758e-06
5.85867e-06
5.91555e-06
8.10136e-06
5.87182e-06
5.25654e-06
5.80191e-06
1.57031e-06
-4.31032e-06
-1.12015e-05
-1.58047e-05
-2.8689e-05
-3.32359e-05
-3.55409e-05
-5.40275e-05
-6.50389e-05
-4.66264e-05
4.61549e-06
8.74394e-05
0.000251908
0.000447092
0.000735525
0.00114028
0.00162628
0.00238491
0.00307969
0.00526104
0.00386082
-0.00120042
-0.12018
-0.172132
-0.00241724
0.0319572
0.0304381
0.022558
0.0224833
0.0213714
0.0173302
0.0184849
0.0158525
0.015809
0.0132049
0.0125048
0.011921
0.0107085
0.010004
0.00837724
0.00736781
0.00658029
0.0056849
0.00429896
0.00284931
0.00121788
0.00204156
0.00311654
0.00452418
0.00267537
-0.00117927
-0.00167026
-0.0015928
-0.000769839
0.00164243
0.00946856
0.00316644
0.0041106
0.023896
0.0903069
0.136619
0.17456
0.136786
0.0877817
0.0595085
0.0441368
0.0417184
0.0215521
0.019071
0.00694917
0.00314541
-0.00156867
-0.00229038
-0.00491271
-0.00548286
-0.0063585
-0.00552259
-0.00487608
-0.00324578
-0.00112641
0.00125334
0.0039961
0.00484128
0.00440002
0.00910292
0.00945319
0.0123522
0.0117577
0.015275
0.0137291
0.0161158
0.022184
-2.49473e-05
8.0335e-07
-1.5835e-06
7.53382e-08
-1.1374e-06
2.16827e-07
9.86271e-07
2.71175e-06
6.74267e-07
1.60297e-06
1.64646e-06
2.55843e-06
7.52745e-07
7.56959e-06
9.12241e-06
3.68895e-07
2.26491e-06
1.03413e-05
1.1938e-05
1.67485e-05
1.33765e-05
1.53214e-05
1.91691e-05
2.00997e-05
2.73243e-05
3.34583e-05
4.27493e-05
5.18135e-05
5.92218e-05
6.93068e-05
8.27104e-05
9.78404e-05
0.00011813
0.000120068
0.000151425
0.000144889
0.000162027
0.000167227
6.13005e-05
-8.20726e-05
-0.000357122
-0.000771642
-0.00143806
-0.00227611
-0.00367242
-0.00545479
-0.00811595
-0.0171041
-0.0537361
-0.25053
-0.223463
-0.0119929
0.0198239
0.00812168
-0.00108763
0.00012604
-3.31762e-05
-0.000668807
0.00155394
0.00124241
0.000225434
-0.000306447
-0.000939001
-5.59016e-05
0.000195355
0.000120177
-0.00116094
-0.00165105
-0.00249456
-0.00308146
-0.0037532
-0.00450931
-0.00499182
-0.0058929
-0.00514842
-0.00486143
-0.00264529
0.00195246
-0.000132518
-0.00320012
-0.00437856
-0.0154698
-0.0176266
-0.00421336
0.0352186
0.0645984
0.164227
0.193822
0.221399
0.186406
0.149795
0.109075
0.0791866
0.0533218
0.0371477
0.0268954
0.020324
0.0135423
0.0114939
0.00534018
0.00469688
0.00221206
0.00243301
0.00386834
0.00474735
0.00649654
0.00806134
0.0132553
0.0147444
0.020856
0.0228835
0.029379
0.0289968
0.0347816
0.0312281
0.0383913
0.0369503
0.0498543
0.0546158
-4.34438e-05
-1.27085e-06
-2.85236e-06
-4.98387e-07
-1.85881e-06
-5.72511e-07
1.22726e-06
3.40446e-06
1.53059e-06
-1.2656e-06
7.34619e-06
3.23029e-07
5.18397e-06
5.70149e-06
8.2762e-06
7.04917e-06
4.07811e-06
1.64624e-05
1.18773e-05
2.44104e-05
2.16857e-05
2.96899e-05
3.10868e-05
3.5429e-05
4.03536e-05
4.34385e-05
5.16328e-05
5.12194e-05
5.70792e-05
5.86313e-05
6.43199e-05
6.23056e-05
5.9096e-05
5.67896e-05
6.92848e-05
7.26095e-05
7.07548e-05
0.000143204
0.000206518
0.000340049
0.000433605
0.000557142
0.000599534
0.00048215
0.000127733
-0.00123175
-0.00417603
-0.00991747
-0.0550626
-0.250835
-0.201926
-0.036508
0.0152818
0.0269223
0.0127332
0.00237998
0.00401757
-0.00693952
-0.0050098
-0.00892214
-0.00919674
-0.0141957
-0.0133644
-0.0106055
-0.00922423
-0.00812846
-0.00869024
-0.00811874
-0.00803162
-0.00786746
-0.00848114
-0.00874227
-0.00813922
-0.00622232
-0.00215746
0.00378357
0.00636144
0.0126921
0.0178945
0.0171725
0.022245
0.0427206
0.0877331
0.121487
0.164552
0.212874
0.266253
0.33492
0.312204
0.294588
0.231526
0.171285
0.121895
0.0825999
0.0646827
0.0433906
0.0333036
0.0196036
0.0147888
0.00835707
0.00639961
0.00273568
0.00373081
0.00593933
0.00978213
0.0132595
0.0174132
0.0222886
0.0264804
0.0365547
0.0396681
0.0469165
0.0485772
0.0555186
0.0527152
0.0613292
0.0600723
0.0823181
0.0878393
-4.87507e-05
-2.64608e-06
-4.77902e-06
-7.38866e-07
-1.68705e-06
1.04952e-07
8.6543e-07
4.69447e-06
2.15787e-06
1.12896e-06
7.93408e-06
5.05796e-06
4.53916e-06
1.14698e-05
1.18941e-05
1.272e-05
1.25489e-05
2.54282e-05
1.93796e-05
3.17261e-05
3.13763e-05
4.02847e-05
5.03687e-05
5.3903e-05
6.80803e-05
7.35161e-05
8.88461e-05
0.000102795
0.000120293
0.000141719
0.000161943
0.000177149
0.000202783
0.000235863
0.000272187
0.000294622
0.000315157
0.000302775
0.000272205
0.000157395
-1.76928e-05
-0.000270091
-0.000674323
-0.00117649
-0.00201625
-0.00247824
-0.00431154
-0.00687937
-0.0235085
-0.112651
-0.0741979
-0.034408
-0.0321239
-0.0468012
-0.0718018
-0.0890715
-0.0764523
-0.0862289
-0.0746121
-0.0786499
-0.0632529
-0.0609331
-0.0464605
-0.0366417
-0.0321264
-0.0274434
-0.0244966
-0.0219628
-0.0209273
-0.0217206
-0.0219617
-0.0206474
-0.0204987
-0.0146729
-0.00936621
-0.00173755
0.013814
0.0308174
0.046797
0.0558769
0.0846933
0.138682
0.201591
0.236293
0.271856
0.343025
0.352878
0.406102
0.363257
0.346606
0.265508
0.204623
0.14692
0.102867
0.0771395
0.0572872
0.0385739
0.0289517
0.0193661
0.0128929
0.0118761
0.011001
0.0105679
0.0096785
0.0100956
0.0146327
0.0201548
0.026829
0.0374097
0.0464225
0.0560728
0.0714555
0.0739406
0.0828252
0.078945
0.0894864
0.0862948
0.113689
0.112416
-5.9818e-05
-4.49711e-06
-5.90744e-06
-1.39037e-06
-2.10277e-06
9.09623e-08
2.08891e-07
6.52325e-06
1.39841e-06
2.47303e-06
8.71032e-06
7.32015e-06
3.83047e-06
1.1428e-05
1.35095e-05
1.07534e-05
1.6177e-05
3.04749e-05
2.81308e-05
4.20857e-05
4.07572e-05
5.66975e-05
6.3806e-05
6.24345e-05
7.9005e-05
8.57006e-05
0.000105435
0.000111867
0.000128175
0.000134519
0.000146626
0.000155029
0.000163907
0.000168866
0.000182614
0.000199828
0.000229152
0.000286981
0.00035067
0.000420118
0.000467249
0.000625836
0.000745754
0.000957022
0.00111542
0.00148772
0.00151331
0.00383632
0.010556
0.0863194
0.0597355
-0.0458505
-0.11021
-0.14533
-0.162204
-0.173364
-0.145341
-0.146244
-0.122858
-0.11901
-0.0957533
-0.0844213
-0.0610631
-0.0456058
-0.0380781
-0.0294414
-0.0251848
-0.0236935
-0.0247703
-0.0246994
-0.0244447
-0.0234836
-0.0229022
-0.0205309
-0.0115661
0.00903051
0.0372611
0.0648249
0.0875275
0.117559
0.171169
0.227461
0.280248
0.354588
0.401571
0.444011
0.445466
0.451831
0.424581
0.385396
0.322169
0.246994
0.185788
0.129886
0.0911804
0.0638366
0.042556
0.0292881
0.0161075
0.0135572
0.00805257
0.00937125
0.00798018
0.0136635
0.0168612
0.025838
0.035704
0.0498003
0.0612829
0.0754764
0.0841124
0.0991293
0.103512
0.11364
0.105563
0.114886
0.109672
0.139249
0.136006
-6.11811e-05
-6.47435e-06
-7.64261e-06
-1.46781e-06
-1.61887e-06
4.77909e-07
8.27014e-07
6.3248e-06
2.2909e-06
3.31834e-06
1.13164e-05
1.21658e-05
3.23506e-06
2.05173e-05
2.05362e-05
3.01447e-05
1.9911e-05
2.87905e-05
2.98648e-05
4.72723e-05
6.19282e-05
7.12281e-05
7.65488e-05
8.2711e-05
0.000109098
0.000127693
0.000143103
0.000165589
0.000189752
0.000212184
0.000237587
0.000271932
0.000302217
0.00033903
0.000375866
0.000431752
0.000476527
0.00053832
0.000564738
0.000552256
0.000602679
0.000563764
0.000840864
0.000958843
0.00170718
0.00246395
0.00490532
0.00926598
0.0558697
0.239604
0.206015
-0.0520168
-0.200332
-0.239153
-0.256423
-0.255038
-0.219958
-0.210589
-0.18176
-0.165585
-0.13896
-0.121624
-0.0943166
-0.0748297
-0.0585043
-0.0464212
-0.0418599
-0.0363898
-0.0348647
-0.0324903
-0.0307234
-0.0306671
-0.0290056
-0.0227929
-0.0100367
0.0115384
0.0341968
0.0668022
0.114208
0.161704
0.220781
0.299016
0.38776
0.433654
0.44762
0.474318
0.494998
0.485524
0.515917
0.45698
0.403088
0.303141
0.234753
0.159799
0.113808
0.0731433
0.0510996
0.0289732
0.0233922
0.0147007
0.0164503
0.0134442
0.0170192
0.0202102
0.0320252
0.0428231
0.0550426
0.0670492
0.0807319
0.0943165
0.107359
0.12163
0.125465
0.141236
0.130643
0.140487
0.130516
0.158522
0.152957
-6.7419e-05
-7.57936e-06
-8.4893e-06
-2.06289e-06
-2.01667e-06
7.48796e-07
1.14912e-06
7.23531e-06
4.09339e-06
1.50158e-06
1.35696e-05
8.90158e-06
8.76395e-06
1.69963e-05
2.12315e-05
2.03348e-05
2.48459e-05
3.99719e-05
4.49504e-05
5.70278e-05
6.89814e-05
8.08044e-05
9.86295e-05
0.000101774
0.000122142
0.000137861
0.000160747
0.000172892
0.000196428
0.000217332
0.000245451
0.000258735
0.000283964
0.000299765
0.000304512
0.000344909
0.000360817
0.00040065
0.000421232
0.000534359
0.000579375
0.000901912
0.000886981
0.00152327
0.00196192
0.00343169
0.00529495
0.0148292
0.0710067
0.356097
0.37105
-0.0776208
-0.285894
-0.338671
-0.323696
-0.288611
-0.244527
-0.225266
-0.194893
-0.174958
-0.149127
-0.123478
-0.0949359
-0.0749253
-0.0557265
-0.0415238
-0.0354763
-0.0310805
-0.0315403
-0.030792
-0.0305567
-0.028629
-0.0254334
-0.0182928
-0.00873425
0.0105823
0.0404347
0.0869335
0.143908
0.201126
0.294389
0.378167
0.44366
0.497494
0.535822
0.546591
0.581091
0.576193
0.580253
0.522639
0.476167
0.394344
0.292586
0.206908
0.141464
0.0925704
0.059952
0.0364507
0.0295071
0.0207924
0.0199289
0.0204507
0.0303644
0.0346851
0.0453554
0.0538666
0.068332
0.084335
0.0991123
0.117978
0.127528
0.14298
0.148058
0.163952
0.153742
0.163133
0.150033
0.17549
0.170946
-6.54942e-05
-9.12368e-06
-9.86059e-06
-2.41639e-06
-1.63906e-06
1.68779e-06
1.2034e-06
8.38828e-06
5.62671e-06
6.61796e-07
1.71223e-05
1.24216e-05
1.4211e-05
2.00384e-05
2.90457e-05
2.99303e-05
3.42579e-05
4.70846e-05
5.0862e-05
6.15416e-05
7.95203e-05
9.52503e-05
0.000117369
0.000128155
0.00014381
0.00017559
0.000198853
0.000223499
0.000251322
0.000286822
0.000330453
0.000359312
0.000407323
0.000440055
0.000492502
0.000542359
0.000614783
0.000700456
0.00081341
0.000932031
0.00108837
0.00138459
0.00162182
0.00255259
0.00275959
0.00482728
0.00431327
0.0121128
0.0356485
0.25928
0.377662
-0.103525
-0.378373
-0.393075
-0.381362
-0.341932
-0.296375
-0.26279
-0.224769
-0.196731
-0.167304
-0.136754
-0.107106
-0.0822905
-0.062281
-0.0472461
-0.0397041
-0.0373261
-0.0348263
-0.0326495
-0.0313823
-0.0300235
-0.0265372
-0.0217037
-0.0101661
0.0133388
0.0480427
0.0948813
0.154889
0.246376
0.352335
0.441444
0.494446
0.549686
0.584099
0.598657
0.629738
0.622181
0.633765
0.614134
0.579196
0.50519
0.390582
0.28182
0.189801
0.124498
0.0756756
0.0493297
0.031276
0.027924
0.0255886
0.0321062
0.0345173
0.0476893
0.0576304
0.0739981
0.0876442
0.111704
0.12388
0.143261
0.151156
0.165861
0.170753
0.181426
0.174838
0.181353
0.170087
0.190302
0.185502
-6.84465e-05
-9.18406e-06
-1.01425e-05
-2.67135e-06
-1.67566e-06
2.09592e-06
1.19564e-06
6.64966e-06
6.50552e-06
4.09271e-06
1.30901e-05
1.34509e-05
1.30389e-05
2.26504e-05
3.10277e-05
3.29866e-05
3.50699e-05
4.91196e-05
5.4444e-05
6.84658e-05
9.0708e-05
0.000107964
0.00013336
0.000145653
0.000164076
0.000191202
0.000227923
0.000240053
0.000266884
0.000303993
0.000337919
0.000379209
0.000404201
0.000427139
0.000464975
0.000491183
0.000509176
0.000512619
0.000488238
0.000463916
0.000429063
0.000277078
7.36008e-05
-0.000257088
-0.00077311
-0.00134085
-0.00238256
-0.0028807
0.00261327
0.0526117
0.0792067
-0.125524
-0.29334
-0.340212
-0.349281
-0.333274
-0.304298
-0.26905
-0.231937
-0.199657
-0.165488
-0.133699
-0.104157
-0.0786679
-0.0584891
-0.0479763
-0.0401048
-0.0348875
-0.0320591
-0.0286469
-0.0269015
-0.0258768
-0.0229082
-0.0164871
-0.00376225
0.0173715
0.0500881
0.100803
0.183379
0.307147
0.413415
0.501976
0.554615
0.607899
0.641335
0.654555
0.674565
0.688682
0.68161
0.685837
0.64738
0.605913
0.506634
0.386715
0.259819
0.163167
0.10203
0.0647007
0.0475028
0.0381225
0.0357112
0.0400862
0.0482934
0.0620675
0.0763749
0.0973625
0.112439
0.137172
0.146124
0.169942
0.17526
0.193676
0.194058
0.199159
0.193353
0.197374
0.188457
0.204074
0.199382
-6.45752e-05
-9.40201e-06
-1.08533e-05
-2.91469e-06
-1.33852e-06
2.76209e-06
1.23707e-06
9.02066e-06
6.49096e-06
8.1352e-06
1.43185e-05
2.15579e-05
1.55979e-05
2.91774e-05
3.64034e-05
4.56228e-05
4.1807e-05
5.80757e-05
6.83155e-05
7.58103e-05
9.94309e-05
0.000124817
0.000153485
0.00016953
0.000184837
0.000218586
0.00025774
0.00028624
0.000316161
0.000357375
0.000400221
0.000456385
0.000491441
0.000545239
0.000595886
0.000640517
0.000699408
0.00078298
0.000836753
0.000955421
0.000983342
0.00112285
0.00113461
0.000991985
0.000648326
-2.76326e-05
-0.00152212
-0.0020477
-0.0104471
-0.0591442
-0.296102
-0.305523
-0.284125
-0.307833
-0.335153
-0.320946
-0.299013
-0.262618
-0.234175
-0.197848
-0.164858
-0.131688
-0.103234
-0.0778329
-0.0569298
-0.0462713
-0.0393461
-0.0347465
-0.0307651
-0.0281232
-0.0260991
-0.0238522
-0.0201437
-0.0129872
0.0010407
0.0193717
0.055923
0.11539
0.235243
0.377616
0.474772
0.556642
0.61251
0.653567
0.684918
0.715271
0.722698
0.741041
0.728269
0.737681
0.711646
0.685328
0.620264
0.51902
0.368913
0.2358
0.149939
0.0878601
0.0634877
0.0439071
0.0458382
0.049606
0.0657245
0.0767175
0.0939215
0.113107
0.131215
0.157974
0.170494
0.198696
0.201524
0.2218
0.217191
0.224035
0.211349
0.214084
0.20711
0.216598
0.213589
-6.498e-05
-8.74228e-06
-1.04174e-05
-2.79827e-06
-1.34408e-06
3.27314e-06
2.32321e-06
6.8816e-06
8.87252e-06
6.98029e-06
1.36726e-05
1.7606e-05
1.77861e-05
2.47848e-05
3.98869e-05
4.31065e-05
4.61827e-05
6.28182e-05
7.49048e-05
8.59146e-05
0.000107608
0.000136854
0.000164033
0.000184506
0.000207297
0.000247698
0.000289928
0.000322042
0.000346801
0.000385222
0.000436441
0.000485228
0.000529538
0.000586424
0.000626692
0.000660031
0.000681745
0.000687755
0.000724981
0.000624296
0.000573831
0.000280823
8.63598e-05
-0.00031935
-0.000442213
-0.00125763
-0.00160034
-0.00498571
-0.0170301
-0.118199
-0.516948
-0.497559
-0.395118
-0.343499
-0.35589
-0.340472
-0.314953
-0.278582
-0.2445
-0.203303
-0.166641
-0.130847
-0.100407
-0.0744417
-0.0531042
-0.0422706
-0.0342476
-0.0307029
-0.027033
-0.0248058
-0.0231803
-0.0212695
-0.017263
-0.00806002
0.0051968
0.0273263
0.0682564
0.148919
0.306452
0.459057
0.550576
0.60123
0.663565
0.691993
0.716587
0.746787
0.759389
0.773918
0.765178
0.76952
0.755631
0.734928
0.70252
0.619802
0.504939
0.334904
0.207626
0.114792
0.0819422
0.058483
0.058593
0.0638784
0.0771796
0.0906084
0.110011
0.130818
0.151602
0.180325
0.194678
0.222853
0.228358
0.248816
0.248268
0.248179
0.232912
0.235303
0.224786
0.230132
0.230366
-5.99902e-05
-7.86653e-06
-1.04057e-05
-2.82555e-06
-9.30596e-07
3.94828e-06
3.4219e-06
6.96222e-06
1.14784e-05
8.54197e-06
1.608e-05
2.13324e-05
2.47749e-05
2.8912e-05
4.66767e-05
5.58319e-05
5.09675e-05
7.33364e-05
9.14225e-05
9.58245e-05
0.000116135
0.000148216
0.00018257
0.000202003
0.000225715
0.000266202
0.000309351
0.000348465
0.000375995
0.000419181
0.000470266
0.000523521
0.000581585
0.000627457
0.000684304
0.000731403
0.000793068
0.000833396
0.000905378
0.000947455
0.00103542
0.00109788
0.00123807
0.00125133
0.00152345
0.00119056
0.00220297
-0.0015631
-0.0155221
-0.18592
-0.67546
-0.662657
-0.523045
-0.426229
-0.395067
-0.359233
-0.326128
-0.294506
-0.256699
-0.216608
-0.174054
-0.13481
-0.101929
-0.0759307
-0.0572924
-0.0444976
-0.0352008
-0.0298213
-0.0274281
-0.0256888
-0.0239912
-0.021649
-0.0164171
-0.00675797
0.00848738
0.0362048
0.0900048
0.221959
0.406372
0.530197
0.605267
0.656087
0.697139
0.729356
0.752804
0.771734
0.791172
0.797373
0.802957
0.798415
0.797536
0.777727
0.761933
0.703159
0.62074
0.472993
0.301664
0.175836
0.106338
0.0805242
0.0715243
0.07923
0.0935143
0.11002
0.12588
0.147574
0.167314
0.196987
0.215084
0.248181
0.2545
0.276503
0.275644
0.277787
0.260113
0.253889
0.246054
0.24824
0.247864
-5.82795e-05
-6.26758e-06
-9.27533e-06
-2.29966e-06
-7.05115e-07
4.48056e-06
3.51661e-06
6.00697e-06
1.21169e-05
8.79593e-06
1.48891e-05
2.39976e-05
2.5347e-05
2.70699e-05
4.73726e-05
5.39213e-05
5.9009e-05
7.22967e-05
9.67337e-05
0.000104957
0.000128622
0.00016498
0.000200205
0.000225618
0.000253473
0.000295555
0.000348825
0.000394254
0.000426112
0.000470148
0.000529668
0.000596996
0.000659988
0.000723845
0.000793185
0.000862307
0.000930308
0.000948467
0.00100224
0.000987233
0.00105947
0.00107082
0.00117113
0.00109512
0.00120842
0.000657752
0.000495428
-0.00598115
-0.0359655
-0.315775
-0.774634
-0.767478
-0.657468
-0.544458
-0.435732
-0.383406
-0.338131
-0.300155
-0.258
-0.216633
-0.172038
-0.132198
-0.0969349
-0.0710953
-0.0550121
-0.0413869
-0.0328904
-0.0262866
-0.0234084
-0.0224637
-0.0211624
-0.0186784
-0.0128444
-0.00207152
0.0191584
0.0551388
0.145714
0.325354
0.503785
0.591829
0.669771
0.715583
0.736717
0.767216
0.779707
0.799371
0.809602
0.813633
0.827738
0.823122
0.825687
0.810242
0.806067
0.767776
0.714219
0.604854
0.429845
0.250768
0.145313
0.101236
0.0879742
0.0974569
0.110779
0.12631
0.142162
0.16537
0.185213
0.215796
0.238235
0.270686
0.279634
0.307024
0.300444
0.305395
0.286914
0.284188
0.27141
0.264367
0.265712
-5.26123e-05
-4.76583e-06
-8.51741e-06
-1.97256e-06
-4.2328e-07
5.38342e-06
4.59759e-06
7.52877e-06
1.24109e-05
1.31622e-05
1.544e-05
2.80602e-05
3.08296e-05
3.27544e-05
5.18044e-05
6.64793e-05
6.51682e-05
8.59197e-05
0.000109585
0.000120785
0.000137041
0.000173153
0.000213055
0.00023772
0.0002649
0.000306068
0.000359949
0.000397939
0.000427076
0.000469046
0.000529931
0.000597551
0.000655356
0.000709607
0.000759445
0.000820642
0.000870054
0.000949211
0.00102169
0.00108608
0.00114526
0.00125288
0.00127317
0.00150429
0.00144501
0.00168396
0.00035352
-0.00715544
-0.0694262
-0.47539
-0.799032
-0.811404
-0.757639
-0.66288
-0.526716
-0.447796
-0.36283
-0.333085
-0.281282
-0.241884
-0.191539
-0.146025
-0.102652
-0.0737714
-0.0565934
-0.044618
-0.0361028
-0.028856
-0.0255933
-0.0229844
-0.0228988
-0.0207413
-0.0143218
0.000446235
0.0302932
0.0969667
0.257233
0.462775
0.571451
0.655577
0.701226
0.747484
0.776882
0.794267
0.813598
0.822128
0.830928
0.838215
0.845216
0.847997
0.851531
0.839985
0.837029
0.819508
0.776708
0.701065
0.555529
0.345664
0.204628
0.135895
0.114658
0.117418
0.130406
0.147894
0.164011
0.181499
0.204866
0.233188
0.257733
0.291032
0.306878
0.332801
0.328458
0.337895
0.323037
0.316348
0.297071
0.284972
0.287456
-4.92445e-05
-2.59622e-06
-6.69618e-06
-1.11199e-06
1.28026e-08
5.54234e-06
5.47061e-06
5.96862e-06
1.43961e-05
1.15476e-05
1.7295e-05
2.56113e-05
3.18901e-05
3.11141e-05
5.15835e-05
6.2931e-05
7.11407e-05
8.40959e-05
0.00011524
0.000129187
0.000143621
0.00018356
0.000222123
0.000251816
0.000293576
0.000341666
0.000396158
0.00045128
0.000501379
0.000547639
0.000627325
0.000724794
0.000815164
0.000907974
0.000979258
0.00106248
0.0011768
0.00131833
0.00144852
0.00159163
0.00168729
0.00194127
0.00217343
0.00269203
0.00318382
0.00404927
0.00232877
-0.0076264
-0.111736
-0.584536
-0.810749
-0.826349
-0.812818
-0.757492
-0.657784
-0.545042
-0.446445
-0.379864
-0.311643
-0.253565
-0.198589
-0.147018
-0.10377
-0.0744166
-0.0544255
-0.0411196
-0.0320773
-0.026851
-0.0214445
-0.0208917
-0.0208636
-0.0195501
-0.0103974
0.0108678
0.0620922
0.1857
0.406654
0.571337
0.666661
0.705825
0.750855
0.783201
0.800401
0.811
0.823043
0.835017
0.851106
0.854692
0.859278
0.862825
0.872101
0.874202
0.866886
0.863902
0.827396
0.781105
0.66454
0.473221
0.280754
0.178009
0.143328
0.136444
0.150299
0.165632
0.183076
0.200859
0.223326
0.24944
0.276641
0.310372
0.330331
0.355748
0.355031
0.372945
0.360797
0.346691
0.326603
0.308609
0.308832
-4.31637e-05
-3.46777e-07
-5.29414e-06
-3.38436e-07
5.35068e-07
6.48337e-06
6.99415e-06
6.8484e-06
1.5432e-05
1.59083e-05
1.56137e-05
3.05447e-05
3.66223e-05
3.80757e-05
5.77542e-05
7.41267e-05
7.92963e-05
9.83921e-05
0.00012579
0.000150161
0.00016797
0.000194232
0.000233775
0.000253773
0.000297465
0.000340718
0.000402551
0.000454166
0.000498686
0.000518571
0.000593538
0.000670696
0.00073096
0.000794199
0.000826352
0.000877915
0.000924116
0.00100485
0.0011073
0.00123872
0.00134757
0.00157449
0.00157248
0.00211513
0.00176849
0.00231653
-0.00133165
-0.0202142
-0.213114
-0.731876
-0.815538
-0.818127
-0.811094
-0.789048
-0.75059
-0.665183
-0.545753
-0.449085
-0.357605
-0.278333
-0.206894
-0.14904
-0.101269
-0.0683014
-0.0501113
-0.0368214
-0.0287781
-0.0231877
-0.0190443
-0.020784
-0.0234278
-0.0199068
0.000469041
0.0442391
0.143801
0.354117
0.549049
0.669369
0.730659
0.759796
0.795169
0.81384
0.827485
0.83435
0.842078
0.854746
0.862962
0.872011
0.876543
0.88443
0.888032
0.901
0.893678
0.899379
0.873495
0.837191
0.751434
0.589679
0.36475
0.232922
0.179263
0.168783
0.178414
0.191077
0.206998
0.223664
0.242839
0.267652
0.293753
0.328281
0.350367
0.378356
0.383027
0.404464
0.393262
0.385949
0.361271
0.335414
0.334372
-3.89128e-05
2.18774e-06
-3.15079e-06
8.77176e-07
1.14453e-06
6.57627e-06
7.34116e-06
6.35027e-06
1.538e-05
1.50613e-05
1.76178e-05
2.84619e-05
3.6718e-05
3.79498e-05
5.38005e-05
7.30669e-05
8.18326e-05
9.70742e-05
0.000130369
0.000149759
0.000172109
0.000199935
0.000239938
0.000273642
0.000308599
0.000361587
0.000431022
0.000495791
0.000562974
0.000605389
0.00066721
0.000760322
0.00085378
0.000950264
0.00104824
0.00113562
0.00120078
0.00128735
0.00139953
0.00153795
0.00160924
0.00175341
0.00168535
0.0015499
0.000942187
4.11176e-05
-0.00710607
-0.0474091
-0.370682
-0.797875
-0.826638
-0.826752
-0.820454
-0.806852
-0.78753
-0.732447
-0.668103
-0.535643
-0.432533
-0.306452
-0.230032
-0.152456
-0.0975721
-0.0656766
-0.0403324
-0.0367709
-0.0270946
-0.0206464
-0.0082593
0.00555781
0.009854
0.0282938
0.0880159
0.214275
0.39048
0.528973
0.642946
0.708471
0.751406
0.782971
0.806259
0.820114
0.831555
0.839138
0.850838
0.86071
0.869947
0.879547
0.88958
0.902615
0.909632
0.921976
0.92099
0.926179
0.917555
0.883766
0.822373
0.686271
0.459283
0.288249
0.215986
0.198353
0.206585
0.216466
0.2313
0.243891
0.261989
0.285642
0.312125
0.344857
0.369348
0.400115
0.409707
0.43453
0.430278
0.419603
0.39519
0.367863
0.363293
-3.26183e-05
5.08332e-06
-1.27955e-06
2.10194e-06
2.05261e-06
7.14907e-06
9.3904e-06
7.32721e-06
1.55997e-05
1.84079e-05
1.84403e-05
3.16737e-05
4.32349e-05
4.37189e-05
5.95495e-05
8.07893e-05
9.57997e-05
0.000105578
0.000138596
0.000170169
0.000193524
0.000216967
0.000252368
0.000292406
0.000319685
0.000362632
0.000421335
0.000484921
0.000548084
0.000574378
0.000608435
0.000685934
0.000764736
0.000817611
0.000889829
0.000922397
0.000963325
0.00101904
0.00114417
0.00122566
0.0014166
0.00150831
0.00168737
0.00169277
0.0019019
0.000248844
-0.00819406
-0.0883869
-0.533949
-0.815601
-0.844273
-0.84354
-0.837929
-0.831839
-0.817921
-0.78736
-0.743066
-0.653339
-0.538021
-0.379578
-0.262847
-0.161186
-0.0933649
-0.0637663
-0.02775
-0.0150467
-0.00902089
0.019467
0.052577
0.10917
0.197949
0.245857
0.322232
0.411634
0.513855
0.580606
0.646365
0.699464
0.734495
0.772735
0.799082
0.816744
0.833567
0.849663
0.864113
0.876008
0.886123
0.898288
0.910512
0.923353
0.938906
0.942199
0.955098
0.948818
0.957369
0.928147
0.877776
0.758433
0.551105
0.351916
0.256862
0.22843
0.235817
0.243332
0.258943
0.271019
0.287766
0.308091
0.333275
0.363592
0.389926
0.421984
0.43824
0.462668
0.460889
0.454119
0.431792
0.403531
0.389466
-2.7802e-05
7.62601e-06
1.23962e-06
3.65566e-06
3.17426e-06
7.32701e-06
9.33296e-06
7.72937e-06
1.56604e-05
1.70792e-05
1.96563e-05
2.69861e-05
4.32958e-05
4.04199e-05
5.67837e-05
7.95222e-05
9.39128e-05
0.000108498
0.000137192
0.000169183
0.000189625
0.000217338
0.000258424
0.000297521
0.000339542
0.000372223
0.000440669
0.000506674
0.000580247
0.000631748
0.000685083
0.000766417
0.000864009
0.000951595
0.0010422
0.00113679
0.00124872
0.00137706
0.00154881
0.0016126
0.0017623
0.00177536
0.00202622
0.00180312
0.00223371
-0.000341292
-0.01488
-0.159533
-0.678451
-0.832559
-0.850485
-0.850155
-0.844319
-0.837278
-0.832225
-0.820947
-0.791644
-0.737215
-0.645993
-0.491456
-0.306303
-0.146515
-0.064873
0.00202443
0.0250289
0.116321
0.183886
0.225691
0.275598
0.325731
0.38719
0.419112
0.461527
0.506832
0.553922
0.591283
0.62792
0.657935
0.690781
0.729378
0.752243
0.768011
0.79961
0.829909
0.848252
0.858532
0.874067
0.89415
0.91539
0.932317
0.948883
0.959713
0.976975
0.978366
0.976073
0.963569
0.91945
0.824204
0.63722
0.424749
0.31349
0.278016
0.277638
0.280451
0.290255
0.299119
0.312304
0.330239
0.353444
0.380988
0.407217
0.442366
0.461235
0.487778
0.486564
0.484919
0.465403
0.438261
0.41747
-2.16445e-05
1.12539e-05
3.40988e-06
5.19888e-06
4.42597e-06
8.13152e-06
1.0717e-05
8.56364e-06
1.53325e-05
2.15163e-05
2.08895e-05
3.23775e-05
4.64227e-05
5.18966e-05
5.72725e-05
8.62701e-05
0.00010618
0.000116006
0.000144896
0.000183155
0.00021079
0.000225748
0.000270576
0.0003162
0.000358605
0.00038204
0.000434149
0.000492023
0.000561774
0.000602812
0.000625399
0.00066926
0.000733791
0.000807973
0.000857516
0.000892678
0.000928868
0.000936469
0.00106181
0.0010559
0.00122095
0.00116129
0.00124959
0.000860462
0.000338114
-0.00601058
-0.0392531
-0.31384
-0.795778
-0.839312
-0.843533
-0.843534
-0.842595
-0.842742
-0.839526
-0.834845
-0.819174
-0.791095
-0.714049
-0.565569
-0.317279
-0.050994
0.0858149
0.217875
0.246897
0.305438
0.361688
0.391325
0.417538
0.445322
0.480298
0.494655
0.51896
0.545791
0.572891
0.593294
0.615946
0.638466
0.66265
0.687489
0.711764
0.749562
0.787352
0.818252
0.840604
0.871907
0.903812
0.92475
0.942909
0.959425
0.976814
0.992122
0.997196
1.0107
1.00485
0.998629
0.96082
0.875369
0.700117
0.478751
0.357383
0.313621
0.314028
0.312331
0.321632
0.328377
0.338769
0.35269
0.372089
0.397497
0.423668
0.460301
0.483155
0.512064
0.513271
0.515997
0.499905
0.47182
0.445819
-1.65979e-05
1.36066e-05
5.81808e-06
6.85505e-06
5.80479e-06
8.20407e-06
1.06719e-05
9.22415e-06
1.42953e-05
2.04198e-05
1.97721e-05
2.75179e-05
4.59122e-05
4.81196e-05
5.89166e-05
7.88764e-05
0.000104665
0.000114486
0.000142055
0.000178506
0.000206204
0.000222736
0.00026461
0.000313571
0.000362369
0.000384362
0.000440003
0.000501577
0.000582281
0.000639279
0.000674636
0.000727268
0.000816031
0.000914155
0.000995882
0.00105596
0.00107236
0.00110157
0.0010335
0.00108483
0.00104089
0.00089732
0.000748366
0.000471458
-0.00110428
-0.00972674
-0.0814006
-0.514358
-0.821538
-0.8523
-0.852874
-0.850375
-0.850267
-0.850641
-0.848246
-0.841342
-0.828782
-0.801961
-0.715935
-0.498367
-0.111672
0.174575
0.319081
0.387051
0.437887
0.45378
0.476186
0.490461
0.508418
0.517009
0.537745
0.547386
0.558322
0.57414
0.591799
0.606246
0.6185
0.633032
0.649985
0.668732
0.690009
0.716378
0.742303
0.77119
0.800419
0.835115
0.870363
0.886728
0.906614
0.93167
0.957888
0.985829
1.00244
1.01176
1.01764
1.01167
0.988733
0.916119
0.753072
0.539958
0.414537
0.367009
0.35945
0.352005
0.355469
0.359921
0.367868
0.378795
0.394134
0.4158
0.441877
0.478177
0.5052
0.536051
0.538224
0.545343
0.528874
0.503419
0.475266
-1.0146e-05
1.74015e-05
8.35105e-06
8.57541e-06
7.25307e-06
8.91875e-06
1.18483e-05
1.01472e-05
1.41223e-05
2.38425e-05
2.35375e-05
2.80617e-05
5.01217e-05
5.46247e-05
6.06781e-05
8.91142e-05
0.000110907
0.000122013
0.00014834
0.00018968
0.000219287
0.000234684
0.000274864
0.00032623
0.000374358
0.000400767
0.00043658
0.000483256
0.000548931
0.000586381
0.000616698
0.000606496
0.000648603
0.000717018
0.000779497
0.000819525
0.000833276
0.0008986
0.000865689
0.00110668
0.00110727
0.00161242
0.00151796
0.00235029
0.000110158
-0.0134387
-0.152657
-0.66898
-0.832902
-0.857025
-0.858166
-0.856856
-0.855406
-0.853711
-0.847334
-0.831829
-0.804555
-0.739123
-0.563808
-0.183647
0.186521
0.342735
0.438232
0.486577
0.50643
0.527979
0.550998
0.561525
0.575913
0.576378
0.584379
0.588413
0.595581
0.603239
0.613123
0.623414
0.633614
0.643488
0.655223
0.669749
0.685512
0.705439
0.726236
0.755034
0.781379
0.819484
0.848213
0.884646
0.919105
0.952369
0.982919
1.01237
1.02985
1.038
1.04143
1.0327
1.01003
0.943766
0.786826
0.587591
0.46365
0.415342
0.399877
0.391979
0.388922
0.390669
0.392068
0.402397
0.41357
0.433853
0.45893
0.49467
0.522564
0.556107
0.559425
0.569799
0.555867
0.533615
0.503105
-5.62292e-06
1.99453e-05
1.07825e-05
1.04065e-05
8.96946e-06
9.00271e-06
1.15582e-05
1.00215e-05
1.33193e-05
2.10207e-05
2.3129e-05
2.35425e-05
4.54736e-05
5.22134e-05
6.01956e-05
7.84914e-05
0.000110313
0.000117525
0.000140546
0.00017822
0.000213533
0.000229573
0.000264742
0.000310136
0.000368077
0.000386107
0.00042614
0.000480907
0.00056502
0.000621317
0.000667879
0.00067582
0.000728099
0.000823814
0.000920084
0.00097174
0.000997252
0.00099027
0.000930479
0.000827517
0.000774559
0.000586349
1.67106e-05
-0.000790271
-0.00729967
-0.0411545
-0.315252
-0.7977
-0.842033
-0.848906
-0.849521
-0.848752
-0.851606
-0.849692
-0.837133
-0.806619
-0.74182
-0.580333
-0.216684
0.165968
0.353779
0.451901
0.515902
0.538789
0.551424
0.568973
0.585615
0.595117
0.607187
0.61
0.621275
0.621679
0.627273
0.629023
0.636428
0.643393
0.651724
0.65788
0.66722
0.678291
0.691012
0.70518
0.720795
0.74077
0.762887
0.789411
0.811323
0.839842
0.870397
0.90205
0.936689
0.97261
0.997123
1.02196
1.03559
1.03334
1.01225
0.950099
0.810653
0.633495
0.521639
0.4648
0.444504
0.427403
0.423136
0.420781
0.422995
0.428965
0.437197
0.45423
0.477591
0.510605
0.540904
0.575795
0.582752
0.595215
0.583095
0.562871
0.529936
8.93235e-08
2.35887e-05
1.33852e-05
1.22985e-05
1.07665e-05
9.61838e-06
1.28951e-05
1.07564e-05
1.26629e-05
2.43126e-05
2.49246e-05
2.873e-05
4.71753e-05
5.83347e-05
6.3278e-05
8.5874e-05
0.000115745
0.00012954
0.000146821
0.000185012
0.00022067
0.000237039
0.000271542
0.000324638
0.000369835
0.00040564
0.000424494
0.000459805
0.000524901
0.000553013
0.000596121
0.000566625
0.000561813