/*--------------------------------*- C++ -*----------------------------------*\
| =========                 |                                                 |
| \\      /  F ield         | OpenFOAM: The Open Source CFD Toolbox           |
|  \\    /   O peration     | Version:  2.2.x                                 |
|   \\  /    A nd           | Web:      www.OpenFOAM.org                      |
|    \\/     M anipulation  |                                                 |
\*---------------------------------------------------------------------------*/
FoamFile
{
    version     2.0;
    format      ascii;
    class       volScalarField;
    location    "1.15";
    object      T;
}
// * * * * * * * * * * * * * * * * * * * * * * * * * * * * * * * * * * * * * //

dimensions      [0 0 0 1 0 0 0];

internalField   nonuniform List<scalar> 
14161
(
0.976367
0.981272
0.979665
0.979685
0.979058
0.978397
0.977648
0.976829
0.975945
0.975005
0.974025
0.973072
0.972091
0.971071
0.970101
0.969187
0.968214
0.967311
0.966519
0.965777
0.965117
0.964523
0.964022
0.963529
0.963159
0.962909
0.962797
0.962778
0.962849
0.963001
0.963265
0.963666
0.964103
0.964662
0.965333
0.966143
0.966963
0.967871
0.96879
0.969623
0.970664
0.971248
0.971579
0.971264
0.970855
0.968736
0.962264
0.955931
0.947846
1.17993
2.15727
2.39166
2.37712
2.35284
2.37314
2.39317
2.41173
2.42153
2.43044
2.4397
2.44421
2.44259
2.44156
2.44117
2.43897
2.43462
2.42844
2.42498
2.42068
2.41456
2.40626
2.39763
2.39231
2.38549
2.37478
2.36015
2.35648
2.3629
2.39002
2.41993
2.44125
2.45582
2.45774
2.44118
2.44262
2.47831
2.55617
2.7232
2.84984
2.95938
3.02474
3.07082
3.09901
3.1116
3.12468
3.13532
3.13998
3.14124
3.13406
3.12249
3.117
3.11502
3.11554
3.1191
3.12643
3.13679
3.14469
3.14773
3.14974
3.15138
3.15543
3.15849
3.16652
3.1698
3.17549
3.17311
3.18309
3.20602
3.29888
0.976397
0.981291
0.979683
0.979697
0.979078
0.978444
0.977667
0.976821
0.975956
0.97501
0.974026
0.973078
0.972064
0.971073
0.970115
0.969212
0.968214
0.967303
0.966496
0.965767
0.965107
0.964493
0.964026
0.96355
0.963139
0.96288
0.96277
0.962773
0.962869
0.96305
0.963318
0.963678
0.964183
0.964799
0.965496
0.96623
0.966805
0.967363
0.967749
0.967999
0.967871
0.967414
0.966661
0.964025
0.960875
0.953837
0.936174
0.90504
0.919325
1.48783
2.77707
2.88233
2.90646
2.89026
2.89421
2.88707
2.87777
2.86383
2.84593
2.83282
2.81082
2.78768
2.7644
2.74468
2.72449
2.70545
2.68527
2.66739
2.6503
2.63554
2.62164
2.60533
2.5828
2.55455
2.53344
2.53973
2.55496
2.57029
2.58719
2.61415
2.62618
2.62913
2.6791
2.77185
2.79501
2.86592
2.95942
3.03853
3.06617
3.0874
3.10338
3.12708
3.13454
3.13469
3.13873
3.14009
3.14257
3.14216
3.13933
3.13362
3.12527
3.11792
3.11544
3.11632
3.11925
3.12529
3.13597
3.14848
3.15614
3.15961
3.16381
3.1646
3.16866
3.16995
3.17694
3.17519
3.18266
3.19827
3.27824
0.976438
0.98131
0.979708
0.979716
0.979097
0.978463
0.97768
0.976858
0.975961
0.975021
0.974029
0.973108
0.97212
0.97109
0.970096
0.969173
0.968264
0.967371
0.966531
0.965743
0.965055
0.964463
0.964001
0.963525
0.963131
0.962862
0.962754
0.962707
0.962733
0.962876
0.963152
0.963484
0.963885
0.964482
0.965182
0.965922
0.966806
0.967967
0.969522
0.971571
0.974019
0.976689
0.980106
0.984395
0.989806
0.997379
1.00589
1.01976
1.05424
2.36028
3.00746
3.03476
3.04785
3.01944
3.00611
2.97628
2.95367
2.93145
2.89896
2.87345
2.84332
2.81933
2.79018
2.76712
2.74915
2.73144
2.71198
2.69475
2.67947
2.66707
2.65329
2.63389
2.61582
2.59605
2.58196
2.55825
2.53822
2.57538
2.64337
2.69704
2.80852
2.92173
2.89148
2.88705
3.05172
3.11238
3.13272
3.16226
3.17962
3.15851
3.15543
3.16398
3.15869
3.15852
3.16089
3.16106
3.15944
3.15813
3.15467
3.14732
3.13588
3.12808
3.12604
3.12607
3.1287
3.13516
3.14634
3.15794
3.16389
3.16633
3.16995
3.1693
3.17094
3.17017
3.17673
3.17496
3.18134
3.19429
3.27006
0.976466
0.981314
0.979716
0.979724
0.979103
0.978467
0.977687
0.976839
0.975974
0.975042
0.974047
0.973088
0.972096
0.971079
0.970095
0.969168
0.968203
0.967322
0.966515
0.965782
0.965077
0.964464
0.963963
0.963467
0.963072
0.96284
0.962738
0.962746
0.962828
0.962996
0.963297
0.963628
0.964105
0.964705
0.965428
0.966058
0.966441
0.966543
0.966463
0.966073
0.9658
0.965361
0.964666
0.963944
0.963002
0.965677
0.96853
0.978267
0.948647
2.65147
3.11115
3.113
3.12821
3.08856
3.07501
3.03974
3.01126
2.98012
2.94307
2.90226
2.87008
2.84057
2.80734
2.77533
2.75371
2.73983
2.72286
2.70502
2.68624
2.6702
2.65605
2.63565
2.60744
2.58073
2.56763
2.59025
2.61518
2.61326
2.66641
2.75889
2.79425
2.79725
2.97117
3.10046
3.09376
3.09651
3.13597
3.13169
3.1671
3.18034
3.20253
3.20042
3.18478
3.19033
3.19261
3.18493
3.18401
3.18035
3.17386
3.16463
3.1534
3.14803
3.14478
3.14556
3.14892
3.15518
3.16612
3.17464
3.17891
3.18212
3.18438
3.1803
3.17825
3.17449
3.18015
3.17689
3.18143
3.192
3.26596
0.976516
0.981325
0.979733
0.979738
0.979122
0.978487
0.977709
0.976877
0.975979
0.975032
0.97405
0.973103
0.972099
0.971073
0.970111
0.969194
0.968302
0.967309
0.966454
0.965677
0.964988
0.964403
0.963925
0.963431
0.963019
0.96275
0.962631
0.962558
0.962537
0.962631
0.96282
0.963094
0.963511
0.964003
0.964656
0.965492
0.966488
0.967897
0.969909
0.9728
0.976148
0.980656
0.985993
0.991978
0.99897
1.00888
1.02393
1.04544
1.03077
2.74326
3.10025
3.0998
3.1262
3.08358
3.0521
3.01062
2.97881
2.93143
2.8968
2.84659
2.81687
2.77205
2.74383
2.71284
2.6749
2.65595
2.63981
2.62391
2.60829
2.59044
2.56885
2.54638
2.53395
2.53764
2.53867
2.49868
2.45621
2.50735
2.63348
2.69223
2.7599
2.88803
2.92519
2.91663
2.98914
3.04355
3.0635
3.09986
3.14312
3.17059
3.19137
3.21621
3.21547
3.21679
3.21875
3.21396
3.21021
3.20564
3.20203
3.19213
3.18072
3.17562
3.17334
3.17431
3.17539
3.17958
3.18777
3.19312
3.1992
3.20131
3.20167
3.19597
3.19061
3.18324
3.18675
3.17942
3.18159
3.19086
3.26499
0.976541
0.981333
0.97974
0.979746
0.979127
0.978492
0.97771
0.976866
0.97599
0.975047
0.974061
0.97308
0.972115
0.971075
0.970107
0.969166
0.968243
0.967303
0.966457
0.965681
0.964956
0.96436
0.963871
0.963372
0.962942
0.962674
0.96255
0.962498
0.962539
0.9627
0.962959
0.963337
0.963745
0.964333
0.964998
0.96546
0.965662
0.96551
0.965061
0.964526
0.963822
0.962704
0.961086
0.959634
0.958674
0.959659
0.962516
0.966561
0.931874
2.52444
3.0736
3.05544
3.08336
3.00208
2.95241
2.88729
2.84959
2.78271
2.75964
2.71514
2.68598
2.63761
2.62537
2.59112
2.56463
2.55648
2.54428
2.53031
2.51128
2.49354
2.47997
2.47743
2.47486
2.45962
2.40991
2.39521
2.439
2.49934
2.50097
2.57735
2.68248
2.71881
2.7452
2.83118
2.87167
2.91572
2.97991
3.0417
3.05679
3.12101
3.16806
3.21435
3.22035
3.23734
3.24052
3.23535
3.23394
3.23422
3.22911
3.22314
3.21511
3.20677
3.20177
3.20167
3.20413
3.20721
3.21198
3.21733
3.22172
3.22211
3.22164
3.21083
3.20327
3.19286
3.19245
3.18054
3.18163
3.1912
3.26719
0.976595
0.981349
0.979757
0.979764
0.979141
0.978502
0.977713
0.976888
0.975994
0.975057
0.974063
0.973078
0.972105
0.97111
0.970097
0.96912
0.968163
0.96727
0.966443
0.965691
0.964925
0.964244
0.963712
0.963242
0.962794
0.962455
0.962294
0.962161
0.962077
0.962095
0.962222
0.962499
0.962756
0.963158
0.963744
0.964506
0.965475
0.966957
0.969376
0.972344
0.975992
0.980075
0.984667
0.989944
0.995552
0.999762
1.00527
1.00781
1.07069
1.98487
2.89849
2.9489
2.94379
2.80458
2.72666
2.69754
2.677
2.61753
2.60776
2.56582
2.56328
2.51892
2.53031
2.48805
2.49493
2.46122
2.45452
2.43647
2.42744
2.42169
2.41331
2.40157
2.37981
2.36265
2.3626
2.36809
2.33704
2.36803
2.3811
2.54265
2.5705
2.63882
2.65552
2.68528
2.74265
2.79177
2.82716
2.88803
2.95331
3.04083
3.11125
3.18528
3.2263
3.24836
3.25404
3.25542
3.25632
3.25603
3.25419
3.25167
3.24572
3.24083
3.23711
3.23335
3.23282
3.23643
3.24061
3.24345
3.24606
3.24148
3.237
3.22442
3.21276
3.20124
3.1973
3.18099
3.18202
3.19275
3.27104
0.976617
0.981359
0.979763
0.979769
0.979145
0.978507
0.977722
0.976881
0.975967
0.975063
0.974072
0.973057
0.972085
0.971064
0.970064
0.969136
0.968216
0.967253
0.966369
0.965563
0.964813
0.96415
0.963608
0.963123
0.962674
0.96234
0.962186
0.962106
0.9621
0.9622
0.962367
0.962714
0.963136
0.963636
0.964167
0.964549
0.964496
0.964286
0.963761
0.962799
0.960954
0.958884
0.956008
0.952871
0.94682
0.940173
0.926418
0.910441
0.885477
1.25913
2.17403
2.69347
2.66887
2.60611
2.58006
2.55448
2.55053
2.49578
2.51223
2.46976
2.50231
2.45435
2.46983
2.42774
2.44764
2.40721
2.41134
2.39405
2.39071
2.37803
2.36703
2.35401
2.34442
2.3381
2.32171
2.29897
2.2676
2.36284
2.35669
2.47746
2.51205
2.52905
2.55249
2.59139
2.64287
2.66327
2.69687
2.76496
2.83061
2.89921
2.99256
3.09189
3.18512
3.23563
3.26738
3.26896
3.27601
3.27806
3.27968
3.27744
3.2754
3.2693
3.26348
3.26124
3.26034
3.26133
3.26109
3.26083
3.25982
3.25454
3.24785
3.23359
3.22349
3.20834
3.20066
3.18167
3.18231
3.19549
3.2764
0.976668
0.981377
0.979777
0.979782
0.979157
0.978516
0.977731
0.976886
0.975961
0.975059
0.974072
0.973058
0.972061
0.971043
0.970032
0.969079
0.968166
0.967195
0.966321
0.965498
0.964721
0.964034
0.963457
0.962922
0.962412
0.962019
0.961772
0.96162
0.961447
0.961355
0.961374
0.961527
0.961742
0.961983
0.962399
0.96297
0.963965
0.965109
0.967031
0.969745
0.972402
0.974505
0.976541
0.977542
0.978134
0.979348
0.979696
0.979814
0.975136
1.00508
0.933958
2.51514
2.55989
2.47895
2.46568
2.42929
2.44081
2.42092
2.44857
2.41972
2.47028
2.4207
2.44331
2.39326
2.40641
2.3762
2.37691
2.36214
2.36339
2.35281
2.34564
2.33505
2.32332
2.30249
2.29913
2.25969
2.29585
2.26287
2.39356
2.44841
2.49893
2.47688
2.52718
2.52709
2.51794
2.55813
2.62593
2.67088
2.72694
2.77493
2.86534
2.96014
3.09676
3.20198
3.26142
3.28013
3.29057
3.29068
3.29516
3.29545
3.29565
3.29603
3.29243
3.28538
3.2793
3.27966
3.2787
3.27844
3.27657
3.26614
3.25712
3.24014
3.23206
3.21679
3.2033
3.18316
3.1843
3.2001
3.28397
0.976691
0.981387
0.979783
0.979785
0.97916
0.978517
0.97773
0.976886
0.975955
0.975045
0.974052
0.973038
0.972047
0.971041
0.970008
0.969019
0.96807
0.967097
0.96623
0.965443
0.964658
0.963928
0.9633
0.962729
0.962205
0.961814
0.961571
0.961437
0.96136
0.961318
0.961446
0.961729
0.962046
0.962381
0.962785
0.963073
0.963273
0.963129
0.962805
0.96179
0.960872
0.959978
0.95888
0.957137
0.95534
0.952322
0.950512
0.945604
0.940134
1.03935
1.88264
2.74292
2.62013
2.60452
2.55277
2.51267
2.49586
2.46923
2.4713
2.44411
2.47732
2.42669
2.44088
2.3927
2.39458
2.36968
2.37691
2.36384
2.36473
2.35326
2.34831
2.33943
2.33124
2.31034
2.3109
2.25505
2.29727
2.28383
2.4598
2.46085
2.4738
2.52614
2.53668
2.49405
2.46707
2.48178
2.53438
2.56481
2.62002
2.66229
2.73576
2.82766
2.94413
3.08525
3.20961
3.26203
3.28669
3.29655
3.30472
3.31025
3.31513
3.31127
3.3048
3.29986
3.29636
3.29431
3.29265
3.28981
3.285
3.27611
3.2685
3.24752
3.23877
3.21966
3.20432
3.18326
3.18511
3.20468
3.29048
0.976739
0.981405
0.979798
0.979796
0.979168
0.978523
0.977731
0.976888
0.975947
0.975033
0.974044
0.973016
0.972018
0.971005
0.96996
0.968965
0.968001
0.967019
0.966135
0.965301
0.964497
0.963731
0.963072
0.962469
0.961893
0.961418
0.961059
0.960794
0.960584
0.960353
0.960213
0.960222
0.960334
0.960406
0.960604
0.960993
0.961767
0.962975
0.964316
0.966142
0.968595
0.97054
0.973288
0.976624
0.9816
0.984471
0.991277
0.997076
0.995135
1.14235
2.28371
2.67902
2.71697
2.66814
2.60113
2.5623
2.50937
2.5036
2.46528
2.48432
2.43311
2.46639
2.39999
2.40658
2.36105
2.36684
2.36024
2.36722
2.36024
2.35209
2.34504
2.34216
2.32989
2.32367
2.28813
2.28564
2.27097
2.40782
2.48327
2.46087
2.52639
2.56312
2.50646
2.469
2.48662
2.50641
2.50956
2.49348
2.52086
2.57057
2.637
2.72668
2.81296
2.93399
3.08387
3.21562
3.28044
3.29805
3.30515
3.31184
3.31788
3.31979
3.31896
3.31335
3.30713
3.30599
3.30411
3.3014
3.29772
3.28736
3.27571
3.25597
3.24538
3.22466
3.20504
3.1838
3.18816
3.20908
3.29423
0.976764
0.981415
0.979803
0.979798
0.979167
0.978519
0.977728
0.976881
0.975935
0.975018
0.974025
0.972998
0.971977
0.970971
0.969903
0.96888
0.967911
0.96691
0.965993
0.965161
0.964349
0.963559
0.962865
0.962242
0.961647
0.961134
0.960743
0.960457
0.960292
0.960134
0.960086
0.96026
0.960404
0.960686
0.960914
0.961127
0.96131
0.961319
0.961066
0.961137
0.961368
0.96181
0.961749
0.961437
0.960821
0.960877
0.960899
0.96495
0.985467
1.04075
2.14885
2.56325
2.5973
2.64045
2.53998
2.53698
2.47217
2.46278
2.43143
2.47082
2.41862
2.46322
2.39788
2.40222
2.36382
2.36413
2.36841
2.36115
2.36304
2.35257
2.34837
2.34175
2.33603
2.30924
2.29832
2.26616
2.32057
2.44741
2.47395
2.52297
2.55904
2.52785
2.47119
2.47043
2.52044
2.52845
2.49314
2.47318
2.47948
2.52445
2.56364
2.62225
2.68438
2.80148
2.94046
3.1076
3.22366
3.26666
3.28876
3.30409
3.3159
3.31935
3.31704
3.31389
3.30968
3.30758
3.30657
3.30578
3.30221
3.29489
3.28735
3.26543
3.25083
3.22646
3.2051
3.18662
3.19035
3.21259
3.29819
0.976805
0.981432
0.979817
0.979805
0.97917
0.978518
0.977728
0.976875
0.975927
0.974995
0.974014
0.972975
0.971946
0.970938
0.969839
0.968802
0.967814
0.966817
0.96586
0.964972
0.964127
0.963296
0.962533
0.961843
0.961194
0.9606
0.960104
0.959667
0.959364
0.959042
0.958755
0.95859
0.958528
0.958482
0.958487
0.958642
0.959084
0.960185
0.961154
0.962199
0.963603
0.965719
0.96825
0.971864
0.973757
0.976702
0.976014
0.974419
1.03316
1.14582
2.19991
2.37145
2.47043
2.53126
2.53496
2.55435
2.50127
2.51121
2.48319
2.51393
2.45959
2.48748
2.41905
2.42597
2.3831
2.39577
2.38393
2.38916
2.37747
2.37276
2.3667
2.35732
2.34529
2.32804
2.31353
2.29606
2.42149
2.49016
2.52189
2.57541
2.51299
2.44409
2.44334
2.48688
2.5231
2.49339
2.45943
2.46773
2.48061
2.50769
2.5188
2.5533
2.60919
2.70676
2.83771
2.98457
3.13758
3.2382
3.27548
3.289
3.30133
3.30952
3.31324
3.31444
3.30994
3.30646
3.30499
3.30467
3.30364
3.29699
3.29054
3.27241
3.25699
3.23015
3.2093
3.18575
3.19018
3.21617
3.30135
0.976828
0.981437
0.979819
0.979803
0.979166
0.978512
0.977714
0.976863
0.97591
0.974962
0.973984
0.97293
0.971885
0.970872
0.969765
0.968706
0.967689
0.966678
0.965685
0.964774
0.96393
0.963084
0.962244
0.961473
0.960784
0.960159
0.959617
0.959123
0.958814
0.958511
0.958268
0.958162
0.958111
0.958149
0.958224
0.95835
0.958542
0.958647
0.958203
0.957833
0.957707
0.957702
0.958231
0.959748
0.960914
0.964364
0.964137
0.959214
1.04625
1.77019
2.24198
2.29565
2.36591
2.43748
2.6473
2.56489
2.61239
2.53739
2.55405
2.50568
2.53812
2.46311
2.47684
2.41204
2.41241
2.3957
2.40783
2.40158
2.39162
2.38191
2.37428
2.36641
2.35845
2.34443
2.31656
2.36177
2.50055
2.53795
2.62935
2.53928
2.48495
2.45549
2.49796
2.5069
2.47723
2.44465
2.44362
2.4626
2.47211
2.47143
2.47683
2.50242
2.55414
2.61608
2.72804
2.85503
3.02227
3.15887
3.23321
3.26294
3.28083
3.29478
3.30144
3.30417
3.30396
3.30352
3.30199
3.30134
3.30406
3.30131
3.29437
3.27927
3.26309
3.23472
3.21001
3.18586
3.19224
3.21801
3.30149
0.976858
0.981449
0.979828
0.979805
0.979163
0.978504
0.977706
0.976854
0.975897
0.974931
0.973958
0.972887
0.971826
0.970806
0.969704
0.968617
0.967567
0.966548
0.96551
0.964555
0.963692
0.962814
0.96188
0.961018
0.960231
0.959498
0.958816
0.958223
0.957743
0.957313
0.956877
0.956468
0.956092
0.95588
0.955713
0.955683
0.955748
0.956155
0.957084
0.95813
0.959417
0.960599
0.962342
0.96413
0.966063
0.967234
0.969541
0.970392
1.06236
2.12847
2.2461
2.24538
2.25292
2.32328
2.48415
2.47823
2.58271
2.51554
2.52867
2.46523
2.52333
2.42815
2.44695
2.37328
2.37677
2.35844
2.37884
2.36869
2.36848
2.35882
2.3585
2.35544
2.34281
2.33367
2.34912
2.49039
2.52479
2.5815
2.5309
2.48671
2.47673
2.518
2.52114
2.49094
2.45521
2.44446
2.45992
2.48069
2.47876
2.45442
2.45602
2.477
2.51871
2.55574
2.64247
2.74972
2.9176
3.08921
3.19892
3.25055
3.26337
3.27961
3.28597
3.29298
3.29593
3.29572
3.29477
3.29518
3.29684
3.29887
3.29291
3.28284
3.2699
3.23868
3.21329
3.18659
3.19077
3.21819
3.30173
0.976876
0.981451
0.979827
0.979802
0.979156
0.978495
0.97769
0.976835
0.975878
0.974892
0.973923
0.972833
0.971759
0.970719
0.969607
0.968486
0.967416
0.966374
0.965294
0.96429
0.963376
0.96247
0.961495
0.96059
0.959774
0.958964
0.958195
0.957525
0.95689
0.956458
0.955968
0.955488
0.954989
0.954654
0.954327
0.954017
0.95359
0.953066
0.952649
0.952327
0.951951
0.950682
0.946924
0.94347
0.941829
0.937905
0.929549
0.9466
0.981183
2.14742
2.22435
2.24483
2.25117
2.241
2.27695
2.36539
2.49541
2.46927
2.55643
2.46422
2.53207
2.42909
2.44626
2.37824
2.39605
2.38056
2.39688
2.38937
2.38921
2.37839
2.39068
2.39492
2.38963
2.44076
2.57627
2.6055
2.62834
2.5955
2.52626
2.49324
2.50184
2.51741
2.49251
2.46732
2.45169
2.45785
2.46886
2.46061
2.45114
2.44014
2.455
2.45147
2.48098
2.50656
2.57045
2.6695
2.81447
2.99174
3.1315
3.21181
3.23804
3.25871
3.26537
3.27539
3.28143
3.2851
3.28707
3.28708
3.28906
3.29421
3.29113
3.27957
3.27044
3.24296
3.21984
3.18505
3.18727
3.21695
3.29993
0.976898
0.981459
0.979831
0.9798
0.979151
0.978487
0.977674
0.976818
0.975858
0.974854
0.97388
0.972787
0.971694
0.970637
0.969512
0.968364
0.967265
0.966209
0.965074
0.964019
0.963039
0.962074
0.961015
0.960036
0.959173
0.958316
0.957375
0.956526
0.955739
0.95514
0.954539
0.953919
0.953152
0.952575
0.952094
0.951813
0.951527
0.951323
0.951252
0.951712
0.952581
0.953002
0.953543
0.95358
0.955672
0.954576
0.951153
1.02745
1.30619
2.30054
2.27808
2.27676
2.26671
2.2726
2.26335
2.31617
2.29713
2.50442
2.4341
2.54721
2.45471
2.52249
2.40795
2.39518
2.37542
2.39811
2.39556
2.40757
2.40485
2.41636
2.49728
2.57506
2.62542
2.7629
2.72692
2.78483
2.72302
2.68925
2.61168
2.58548
2.57971
2.55553
2.51509
2.49137
2.48578
2.49051
2.48395
2.46487
2.45042
2.45311
2.45989
2.45921
2.46329
2.48595
2.51816
2.60541
2.72711
2.90584
3.07556
3.18172
3.2203
3.24173
3.24595
3.25734
3.26609
3.27192
3.27496
3.27642
3.27952
3.28538
3.28876
3.27774
3.2714
3.24541
3.22139
3.18415
3.1832
3.21256
3.29531
0.976909
0.981456
0.979827
0.979793
0.979142
0.978475
0.977653
0.976794
0.975831
0.974809
0.973828
0.972727
0.971614
0.970533
0.969401
0.968216
0.967075
0.965995
0.964824
0.963697
0.962652
0.96163
0.960513
0.959484
0.958535
0.957636
0.956623
0.955643
0.954761
0.953963
0.953324
0.952594
0.951618
0.950832
0.950312
0.950034
0.949785
0.949155
0.947394
0.945541
0.94505
0.94475
0.944608
0.944067
0.944744
0.94567
0.942778
1.04676
1.9946
2.27668
2.26722
2.26664
2.26089
2.24077
2.23561
2.26175
2.24973
2.36486
2.375
2.53439
2.4391
2.55766
2.42386
2.44719
2.41762
2.47453
2.54577
2.59365
2.66738
2.74271
2.80913
2.90971
2.94694
2.98878
2.97377
2.9512
2.90006
2.82522
2.76766
2.72858
2.68784
2.6277
2.58493
2.54963
2.53655
2.52332
2.49982
2.47698
2.4618
2.46149
2.45195
2.45329
2.44393
2.47942
2.48709
2.5526
2.64919
2.80985
2.99754
3.13362
3.18962
3.21765
3.22441
3.23832
3.24935
3.25792
3.26334
3.26562
3.26896
3.27535
3.27944
3.27402
3.26622
3.24422
3.22573
3.18657
3.17914
3.20779
3.29184
0.976923
0.981458
0.979827
0.979789
0.979133
0.978462
0.977636
0.976771
0.975801
0.974765
0.973774
0.972665
0.971536
0.970421
0.969294
0.968058
0.966881
0.965769
0.964566
0.963382
0.962266
0.961181
0.959962
0.958843
0.957774
0.956807
0.955754
0.954582
0.953545
0.952551
0.951892
0.951033
0.949939
0.948939
0.948164
0.947488
0.947055
0.946406
0.945686
0.945113
0.944722
0.944246
0.943024
0.941638
0.939685
0.939126
0.949223
1.00636
2.17009
2.25062
2.25137
2.2595
2.26336
2.25409
2.2202
2.21051
2.24377
2.30833
2.28371
2.45114
2.4595
2.58443
2.51366
2.61654
2.71351
2.77099
2.84896
2.93351
2.98515
3.02278
3.0369
3.04923
3.0502
3.04442
3.02948
3.01309
2.99045
2.96092
2.92677
2.88341
2.82713
2.77099
2.718
2.67638
2.64462
2.61142
2.57718
2.54921
2.52714
2.51441
2.49106
2.47594
2.4689
2.47753
2.50595
2.53806
2.62495
2.77325
2.96052
3.09824
3.16994
3.20434
3.21389
3.22924
3.24122
3.25078
3.25701
3.25912
3.26178
3.26758
3.27193
3.26961
3.2634
3.24191
3.22788
3.18904
3.17497
3.2016
3.28576
0.976926
0.981454
0.97982
0.979779
0.97912
0.978443
0.97761
0.976741
0.975768
0.974716
0.97371
0.972598
0.971447
0.970298
0.969164
0.967894
0.966672
0.965526
0.964288
0.96303
0.961834
0.960695
0.959425
0.958199
0.957007
0.955973
0.954849
0.953519
0.952352
0.951188
0.950462
0.949459
0.948297
0.946949
0.945841
0.94481
0.943869
0.943133
0.942083
0.940916
0.938792
0.936901
0.933758
0.932419
0.93028
0.925323
0.988817
1.13952
2.23576
2.26779
2.27083
2.26804
2.25287
2.23942
2.24218
2.26742
2.28181
2.23578
2.26515
2.44662
2.72718
2.7159
2.86228
2.91994
3.00727
3.03092
3.05762
3.07754
3.08329
3.08805
3.08434
3.08887
3.08112
3.06851
3.05131
3.03984
3.02523
3.01094
2.99279
2.96995
2.93878
2.89959
2.86207
2.81055
2.75565
2.69324
2.63478
2.59682
2.57024
2.54067
2.50991
2.48536
2.47945
2.46033
2.47961
2.49737
2.56953
2.70225
2.89821
3.05611
3.13675
3.177
3.19273
3.21362
3.22859
3.23879
3.24612
3.24922
3.25285
3.25822
3.26359
3.26278
3.25901
3.23639
3.22508
3.18791
3.17023
3.19422
3.27939
0.97693
0.981446
0.979812
0.979767
0.979104
0.978423
0.977583
0.976707
0.975732
0.974665
0.973639
0.972535
0.971349
0.97017
0.969017
0.96772
0.966455
0.965261
0.964
0.962658
0.961378
0.960178
0.958877
0.957513
0.956224
0.955051
0.953887
0.952444
0.951132
0.949873
0.948877
0.947882
0.946684
0.945112
0.943887
0.942817
0.941678
0.941214
0.940174
0.939569
0.93816
0.938181
0.937622
0.939304
0.940822
0.936534
1.03638
1.88464
2.24603
2.26371
2.27735
2.27628
2.25747
2.25251
2.26398
2.30429
2.33358
2.31348
2.41001
2.71658
2.91355
2.99613
3.01391
3.03075
3.03486
3.06057
3.07044
3.0774
3.07697
3.0871
3.08401
3.0867
3.08282
3.07195
3.05891
3.05114
3.04388
3.03338
3.02112
3.0062
2.98758
2.96931
2.95046
2.91902
2.88064
2.8342
2.78623
2.75203
2.7071
2.65747
2.61718
2.57187
2.53258
2.51221
2.50104
2.51832
2.56251
2.67173
2.86452
3.0193
3.10891
3.15481
3.17407
3.19846
3.21443
3.22717
3.23652
3.24059
3.24494
3.25085
3.2569
3.25587
3.25313
3.22917
3.22087
3.18514
3.16622
3.18742
3.2718
0.976917
0.981435
0.979798
0.979752
0.979086
0.9784
0.977556
0.976673
0.975693
0.974622
0.973557
0.972468
0.971243
0.97003
0.968862
0.967537
0.966229
0.964979
0.9637
0.962263
0.9609
0.959639
0.9583
0.956797
0.955399
0.954082
0.952804
0.951307
0.949757
0.948332
0.947103
0.946076
0.944772
0.94277
0.941256
0.939899
0.938645
0.937659
0.936995
0.936524
0.933966
0.93228
0.929798
0.927127
0.926596
0.934636
1.01641
2.1822
2.26042
2.25921
2.27178
2.26574
2.24697
2.2447
2.26762
2.33095
2.38612
2.43258
2.71147
2.99578
3.05699
3.06286
3.06928
3.06172
3.06638
3.06416
3.05944
3.05583
3.05038
3.05849
3.05981
3.06336
3.0642
3.06484
3.05731
3.05066
3.04361
3.03813
3.03073
3.01869
3.00488
2.99039
2.97248
2.95454
2.9367
2.90806
2.87169
2.8202
2.76421
2.70834
2.65423
2.60092
2.56063
2.52822
2.5164
2.52763
2.56561
2.65707
2.82535
2.98049
3.07877
3.11941
3.14667
3.16879
3.19154
3.20888
3.22334
3.22921
3.23477
3.2402
3.24761
3.24647
3.2467
3.22223
3.21472
3.1819
3.16375
3.18055
3.26299
0.976912
0.981423
0.979786
0.979737
0.979069
0.978378
0.977526
0.976635
0.975649
0.974572
0.973476
0.972383
0.971131
0.969887
0.968692
0.967349
0.965987
0.964681
0.963377
0.961859
0.960423
0.959062
0.957679
0.95606
0.954563
0.953109
0.951796
0.950267
0.948558
0.947035
0.945543
0.944638
0.943291
0.941569
0.939699
0.938096
0.93651
0.934796
0.934276
0.933002
0.931309
0.926095
0.924778
0.92359
0.921873
0.988131
1.14381
2.25309
2.26396
2.27409
2.2866
2.2803
2.25713
2.25359
2.29189
2.39407
2.48565
2.66667
2.97922
3.06431
3.06144
3.05464
3.05234
3.04572
3.05283
3.05719
3.05191
3.04574
3.04109
3.04354
3.04173
3.04491
3.04772
3.05158
3.04828
3.04499
3.04228
3.03796
3.02895
3.02152
3.01363
3.00144
2.98753
2.97191
2.95629
2.93969
2.92296
2.89622
2.85867
2.81927
2.77441
2.7116
2.66639
2.6206
2.58992
2.58415
2.60662
2.67579
2.82498
2.9579
3.04053
3.09609
3.11758
3.14515
3.17095
3.19387
3.2099
3.2171
3.22379
3.22991
3.23805
3.23802
3.23949
3.21536
3.20723
3.17727
3.15904
3.17207
3.25395
0.97689
0.981405
0.979766
0.979716
0.979045
0.97835
0.977495
0.976586
0.975606
0.974518
0.973394
0.972293
0.971019
0.969741
0.968519
0.967156
0.965738
0.96436
0.963024
0.961458
0.959937
0.958485
0.957048
0.955312
0.953674
0.952054
0.950675
0.949049
0.947042
0.945296
0.943571
0.942416
0.940956
0.939181
0.936874
0.935053
0.933346
0.932116
0.932201
0.932504
0.933005
0.932481
0.933668
0.935846
0.936612
1.05377
1.91874
2.23999
2.25188
2.27723
2.29095
2.2936
2.26928
2.27131
2.3509
2.51919
2.69168
2.96087
3.06942
3.0705
3.04835
3.04048
3.04153
3.03301
3.03687
3.03465
3.03259
3.03023
3.02701
3.02863
3.02674
3.02691
3.02696
3.03273
3.0357
3.03205
3.03071
3.02737
3.02229
3.01891
3.01139
3.0042
2.99366
2.98105
2.96737
2.95215
2.93581
2.91638
2.89197
2.85773
2.82228
2.77126
2.70684
2.64548
2.60736
2.60565
2.63436
2.69874
2.82955
2.93947
3.02365
3.07586
3.09332
3.12694
3.15513
3.18038
3.19507
3.20505
3.21366
3.21988
3.22813
3.22862
3.22936
3.20877
3.19919
3.17105
3.15485
3.16488
3.24484
0.976871
0.981385
0.979746
0.979696
0.979022
0.978322
0.977463
0.976531
0.975557
0.974458
0.973308
0.972196
0.970899
0.969587
0.968327
0.966957
0.965474
0.964026
0.96264
0.961035
0.959421
0.957888
0.956389
0.954602
0.952818
0.951111
0.949642
0.948059
0.946009
0.944217
0.942565
0.941282
0.940212
0.938912
0.93676
0.934963
0.933255
0.931153
0.929629
0.928109
0.926076
0.92026
0.908767
0.903299
0.920622
1.00268
2.16651
2.24367
2.24268
2.2635
2.28942
2.29582
2.27337
2.29905
2.46849
2.70804
2.9538
3.03203
3.04857
3.02635
3.02278
3.02332
3.02236
3.02144
3.02166
3.02081
3.01605
3.01708
3.01273
3.01575
3.01333
3.01311
3.01509
3.01593
3.01886
3.01612
3.01888
3.02017
3.01444
3.01164
3.00765
3.00238
2.9937
2.98489
2.97367
2.96117
2.9461
2.93038
2.91268
2.89069
2.86465
2.8334
2.78472
2.72845
2.6736
2.66373
2.67912
2.73619
2.8307
2.92911
3.00494
3.04518
3.07538
3.10683
3.14001
3.15952
3.17966
3.19052
3.20373
3.20948
3.21873
3.21888
3.21887
3.20124
3.19107
3.1629
3.1499
3.15655
3.23475
0.976839
0.98136
0.979721
0.97967
0.978994
0.978291
0.977427
0.976482
0.9755
0.974396
0.973222
0.972096
0.970786
0.969438
0.968119
0.966754
0.965202
0.963694
0.962263
0.960618
0.958912
0.957266
0.955715
0.953923
0.951941
0.950096
0.948411
0.946668
0.944546
0.942309
0.940288
0.938492
0.937209
0.935341
0.933017
0.930376
0.928181
0.926241
0.924729
0.924397
0.924436
0.92499
0.925603
0.919676
1.00313
1.25492
2.30645
2.27067
2.26303
2.27263
2.30238
2.32148
2.31908
2.42099
2.70859
2.96965
3.0354
3.04789
3.03298
3.01012
2.99732
2.99194
2.99195
2.99612
3.00046
3.00471
2.99921
3.00012
2.99602
2.99721
2.9976
2.9978
3.00188
3.00045
3.00189
2.99941
2.99777
3.00132
3.00338
2.99954
2.99656
2.99344
2.98676
2.98014
2.97356
2.96463
2.9525
2.93762
2.92143
2.90253
2.88064
2.85474
2.81937
2.7745
2.72414
2.69977
2.70698
2.75394
2.83532
2.92506
2.98521
3.03137
3.05412
3.09029
3.12014
3.14405
3.16501
3.18046
3.19461
3.20003
3.207
3.20852
3.20696
3.19381
3.18279
3.15346
3.1437
3.14853
3.22499
0.976807
0.981333
0.979694
0.979643
0.978965
0.978258
0.977389
0.976429
0.975441
0.974329
0.973136
0.971982
0.970675
0.969281
0.967918
0.96654
0.964924
0.963346
0.96187
0.960206
0.958384
0.956622
0.955041
0.953225
0.951098
0.949188
0.947404
0.945753
0.943791
0.941588
0.939831
0.938185
0.937447
0.936276
0.935011
0.933258
0.932023
0.931223
0.930412
0.930044
0.929963
0.929929
0.928104
0.930407
1.04956
2.05394
2.25014
2.25033
2.25386
2.2699
2.3175
2.36327
2.40894
2.64948
2.9576
3.03875
3.04777
3.02569
3.01954
3.00351
2.99805
2.99485
2.98339
2.98135
2.98107
2.98777
2.98571
2.98758
2.98378
2.97988
2.98272
2.98104
2.98678
2.98563
2.98377
2.98236
2.98011
2.98296
2.98752
2.98844
2.98651
2.98067
2.97827
2.97478
2.96903
2.96136
2.95219
2.94138
2.92824
2.91129
2.89369
2.87341
2.84821
2.81655
2.77818
2.75039
2.74946
2.78338
2.84939
2.91858
2.97249
3.01447
3.03571
3.07136
3.10045
3.12699
3.15119
3.17059
3.18295
3.18877
3.19401
3.19764
3.19561
3.18502
3.17304
3.14404
3.13714
3.1404
3.21395
0.976763
0.981301
0.979663
0.979612
0.978933
0.978223
0.977349
0.976373
0.975382
0.974264
0.97305
0.971858
0.970565
0.969128
0.967714
0.966318
0.964652
0.963016
0.961465
0.959806
0.95787
0.956015
0.954343
0.952513
0.95024
0.948186
0.946167
0.944477
0.942375
0.939624
0.937313
0.93497
0.933262
0.931296
0.928796
0.924996
0.92177
0.91803
0.914528
0.911408
0.908274
0.904971
0.895605
0.936595
1.11565
2.18447
2.24352
2.24322
2.23247
2.25666
2.35106
2.46393
2.63308
2.93669
3.04
3.04447
3.01576
2.99293
2.98213
2.97365
2.97937
2.98369
2.97534
2.9711
2.9716
2.97655
2.97714
2.97744
2.97599
2.97052
2.97101
2.96794
2.96838
2.97021
2.9682
2.97118
2.96748
2.96418
2.96889
2.96946
2.97376
2.97053
2.97002
2.96191
2.96017
2.95475
2.94724
2.93685
2.92666
2.91503
2.89845
2.87911
2.85751
2.83414
2.80902
2.78073
2.77762
2.79925
2.8452
2.90962
2.96467
3.00041
3.02485
3.05269
3.08717
3.11166
3.14102
3.15505
3.1705
3.17616
3.18319
3.18616
3.18547
3.17502
3.16453
3.13391
3.12953
3.13135
3.20329
0.976718
0.981266
0.979629
0.979579
0.978899
0.978185
0.977306
0.97631
0.975313
0.974205
0.972973
0.971736
0.970454
0.968965
0.967501
0.966082
0.964394
0.962695
0.96105
0.959388
0.957361
0.955435
0.953624
0.95178
0.949452
0.947318
0.945241
0.943674
0.941752
0.939189
0.937155
0.935519
0.934454
0.933895
0.933101
0.931979
0.931409
0.931659
0.931747
0.932878
0.935581
0.938955
0.942225
1.0558
1.91529
2.22702
2.26481
2.27086
2.2571
2.30112
2.47316
2.69235
2.96007
3.03876
3.05231
3.02986
3.01964
3.01035
2.99595
2.98002
2.98042
2.97924
2.97568
2.9687
2.96602
2.96656
2.96805
2.96749
2.96826
2.96256
2.96087
2.95604
2.95251
2.95623
2.95575
2.95893
2.95609
2.95023
2.94989
2.95226
2.95644
2.95781
2.95914
2.95612
2.94898
2.94455
2.94165
2.93742
2.92824
2.91664
2.90377
2.88661
2.86752
2.84702
2.83063
2.80845
2.80398
2.81897
2.85562
2.9042
2.95378
2.99006
3.0096
3.04046
3.0737
3.09899
3.12508
3.14037
3.15663
3.16454
3.17189
3.17526
3.17509
3.16533
3.15515
3.12332
3.12069
3.12164
3.19255
0.976663
0.981227
0.979592
0.979543
0.978862
0.978146
0.977262
0.976264
0.975231
0.974141
0.972893
0.97162
0.970339
0.968813
0.967287
0.965833
0.964169
0.962385
0.960649
0.958955
0.956911
0.954888
0.952943
0.951036
0.948742
0.946391
0.944153
0.942322
0.9402
0.937478
0.934601
0.932019
0.929353
0.927196
0.924038
0.920722
0.916102
0.912197
0.906363
0.900563
0.894375
0.892779
0.935298
1.10121
2.15981
2.23435
2.27811
2.3144
2.33142
2.37171
2.67141
2.95664
3.01972
3.02741
3.01541
2.98567
2.98363
2.98341
2.98348
2.97327