/*--------------------------------*- C++ -*----------------------------------*\
| =========                 |                                                 |
| \\      /  F ield         | OpenFOAM: The Open Source CFD Toolbox           |
|  \\    /   O peration     | Version:  2.2.x                                 |
|   \\  /    A nd           | Web:      www.OpenFOAM.org                      |
|    \\/     M anipulation  |                                                 |
\*---------------------------------------------------------------------------*/
FoamFile
{
    version     2.0;
    format      ascii;
    class       volScalarField;
    location    "2.5";
    object      Bz;
}
// * * * * * * * * * * * * * * * * * * * * * * * * * * * * * * * * * * * * * //

dimensions      [1 0 -2 0 0 -1 0];

internalField   nonuniform List<scalar> 
14161
(
1.81333e-19
1.81594e-19
1.81853e-19
1.81427e-19
1.8203e-19
1.80609e-19
1.82531e-19
1.81059e-19
1.82746e-19
1.81718e-19
1.82458e-19
1.81997e-19
1.82038e-19
1.82352e-19
1.82535e-19
1.8355e-19
1.8402e-19
1.841e-19
1.8477e-19
1.85221e-19
1.86039e-19
1.86151e-19
1.86904e-19
1.87131e-19
1.87246e-19
1.88685e-19
1.8891e-19
1.88941e-19
1.89289e-19
1.9021e-19
1.90476e-19
1.90528e-19
1.91174e-19
1.89717e-19
1.94545e-19
1.81822e-19
2.10537e-19
1.64394e-19
2.7477e-19
2.64898e-20
4.75551e-19
-4.35257e-19
1.16073e-18
-2.03774e-18
2.76184e-18
1.67739e-17
1.65256e-17
1.17648e-17
8.16286e-18
4.57281e-18
7.91677e-19
3.13059e-19
-2.36985e-19
1.86701e-19
3.87498e-20
-1.77835e-19
-2.33401e-19
5.10601e-19
4.38542e-19
-8.62512e-19
-7.46875e-19
1.4818e-18
1.10105e-18
-2.04683e-18
-1.52225e-18
2.33874e-18
2.00331e-18
-2.07003e-18
-1.87329e-18
9.91628e-19
1.7344e-18
3.74774e-19
-1.12405e-18
-1.05751e-18
7.31211e-19
1.35238e-18
2.3303e-19
-1.05925e-18
-1.80156e-19
1.46485e-18
8.07672e-19
-4.6162e-19
-1.59359e-19
8.93939e-19
1.12717e-18
7.93477e-19
6.45748e-19
9.18907e-19
1.5147e-18
1.51023e-18
1.43217e-18
1.76204e-18
2.11639e-18
2.36359e-18
2.4301e-18
2.81266e-18
3.00458e-18
3.67919e-18
4.13298e-18
4.67975e-18
5.4801e-18
5.97074e-18
6.81357e-18
7.66423e-18
7.89179e-18
8.29794e-18
7.78979e-18
7.13685e-18
5.9663e-18
4.56362e-18
-1.11192e-18
1.57443e-17
-6.87218e-18
4.85659e-17
2.57856e-17
1.53234e-16
1.4334e-16
5.38745e-16
6.1288e-16
1.81526e-19
1.81696e-19
1.81822e-19
1.81369e-19
1.81891e-19
1.81092e-19
1.82265e-19
1.81232e-19
1.82885e-19
1.8184e-19
1.82756e-19
1.81877e-19
1.82535e-19
1.8255e-19
1.83823e-19
1.84272e-19
1.85194e-19
1.84436e-19
1.85803e-19
1.86322e-19
1.86739e-19
1.87133e-19
1.88066e-19
1.88531e-19
1.88719e-19
1.89808e-19
1.89407e-19
1.90019e-19
1.91042e-19
1.91642e-19
1.91544e-19
1.91846e-19
1.91941e-19
1.91569e-19
1.92511e-19
1.90332e-19
2.02246e-19
1.64774e-19
2.52136e-19
8.32784e-20
3.33169e-19
-1.63368e-20
3.88641e-19
-6.98884e-19
3.43444e-18
1.53641e-17
1.58055e-17
1.07311e-17
5.62044e-18
3.30373e-18
-1.75451e-18
-6.77414e-19
1.57556e-19
1.87845e-19
1.34837e-19
-1.34072e-20
-2.34303e-19
3.66172e-19
4.65131e-19
-5.94048e-19
-6.29766e-19
1.07125e-18
9.86691e-19
-1.36019e-18
-1.3298e-18
1.47088e-18
1.87835e-18
-1.14844e-18
-2.04006e-18
5.87721e-19
2.00144e-18
3.53722e-19
-1.16626e-18
-9.89535e-19
7.25383e-19
1.27616e-18
2.61104e-19
-9.36951e-19
-2.32772e-19
1.28657e-18
7.98986e-19
-3.21393e-19
-5.4481e-20
7.84624e-19
1.04628e-18
8.38035e-19
6.76719e-19
9.374e-19
1.45323e-18
1.48241e-18
1.44785e-18
1.75793e-18
2.10965e-18
2.30738e-18
2.41166e-18
2.81208e-18
2.96614e-18
3.71957e-18
4.13429e-18
4.69148e-18
5.53185e-18
6.0182e-18
6.81162e-18
7.62548e-18
7.92022e-18
8.24501e-18
7.83023e-18
6.88912e-18
4.89405e-18
4.53755e-18
-7.15383e-18
1.6703e-17
-8.3372e-18
4.58942e-17
2.6789e-17
1.44512e-16
1.50856e-16
4.23412e-16
4.64128e-16
1.81748e-19
1.81802e-19
1.82005e-19
1.82396e-19
1.82038e-19
1.81498e-19
1.82133e-19
1.81612e-19
1.8312e-19
1.82542e-19
1.83014e-19
1.81907e-19
1.82656e-19
1.84659e-19
1.85445e-19
1.85703e-19
1.85831e-19
1.86977e-19
1.87519e-19
1.88051e-19
1.87971e-19
1.89128e-19
1.90149e-19
1.89861e-19
1.90423e-19
1.91791e-19
1.92267e-19
1.93353e-19
1.93358e-19
1.93578e-19
1.93198e-19
1.93205e-19
1.92946e-19
1.93661e-19
1.9258e-19
1.94353e-19
1.9684e-19
1.81968e-19
2.11673e-19
1.68296e-19
2.11187e-19
1.78842e-19
1.87922e-19
3.90889e-19
3.42201e-18
1.49291e-17
1.51381e-17
1.0559e-17
5.06796e-18
3.03019e-18
-1.53317e-18
-4.1558e-19
4.62806e-20
3.75281e-20
6.30522e-20
6.79834e-20
-2.66071e-19
9.74464e-20
4.05359e-19
-2.03773e-19
-5.18556e-19
4.94542e-19
8.66664e-19
-6.26688e-19
-1.14791e-18
7.36836e-19
1.57099e-18
-5.24771e-19
-1.62158e-18
1.87696e-19
1.6175e-18
4.37296e-19
-8.89621e-19
-8.37037e-19
5.59824e-19
1.12868e-18
3.02502e-19
-7.88276e-19
-2.07094e-19
1.09851e-18
7.45494e-19
-2.06051e-19
6.0754e-20
6.74015e-19
9.39567e-19
8.58958e-19
7.5424e-19
9.57863e-19
1.36792e-18
1.42662e-18
1.4931e-18
1.75748e-18
2.10275e-18
2.22298e-18
2.37505e-18
2.82947e-18
2.96977e-18
3.75264e-18
4.1441e-18
4.68767e-18
5.52531e-18
6.11467e-18
6.73942e-18
7.64668e-18
7.91897e-18
8.23304e-18
7.6237e-18
6.65544e-18
2.39832e-18
6.84656e-18
-1.22221e-17
1.36634e-17
-1.2326e-17
3.97775e-17
1.92457e-17
1.32535e-16
1.42516e-16
3.5543e-16
3.82288e-16
1.82097e-19
1.82524e-19
1.82487e-19
1.8277e-19
1.82025e-19
1.82297e-19
1.8209e-19
1.82343e-19
1.83354e-19
1.83363e-19
1.82329e-19
1.84872e-19
1.83922e-19
1.86691e-19
1.87705e-19
1.87862e-19
1.87573e-19
1.90413e-19
1.87762e-19
1.90857e-19
1.90979e-19
1.93345e-19
1.92007e-19
1.93958e-19
1.95586e-19
1.94442e-19
1.9685e-19
1.97678e-19
1.97163e-19
1.96166e-19
1.96215e-19
1.95861e-19
1.95574e-19
1.95498e-19
1.94763e-19
1.9579e-19
1.9456e-19
1.96425e-19
1.93445e-19
1.95277e-19
1.96438e-19
1.87493e-19
2.11695e-19
5.44031e-19
3.1213e-18
1.41777e-17
1.46326e-17
1.05698e-17
4.92795e-18
3.02604e-18
-4.51833e-19
-1.16896e-20
1.37287e-19
4.90668e-20
7.53765e-21
2.39088e-19
5.49803e-21
-1.15524e-19
1.3795e-19
2.47328e-19
-1.08912e-19
-1.4054e-19
4.29937e-19
2.24161e-19
-5.48946e-19
-7.24373e-20
7.82401e-19
1.21914e-19
-7.6156e-19
-1.59914e-19
7.99309e-19
3.96993e-19
-2.96184e-19
-3.91442e-19
1.23436e-19
5.76616e-19
3.50519e-19
-2.80844e-19
-8.14098e-20
6.16203e-19
5.72337e-19
3.86872e-20
2.23065e-19
5.16314e-19
7.64684e-19
8.09105e-19
8.14768e-19
9.96488e-19
1.24165e-18
1.29606e-18
1.47807e-18
1.72218e-18
1.97041e-18
2.07102e-18
2.36694e-18
2.70411e-18
3.05731e-18
3.6032e-18
4.20692e-18
4.64549e-18
5.36922e-18
6.2521e-18
6.75737e-18
7.60579e-18
7.87998e-18
8.19915e-18
6.94218e-18
6.50303e-18
-1.93971e-18
6.93003e-18
-1.37613e-17
1.13414e-17
-1.4091e-17
2.95318e-17
7.60839e-18
1.09395e-16
1.11144e-16
2.61887e-16
2.76001e-16
1.83236e-19
1.83312e-19
1.82748e-19
1.83677e-19
1.82439e-19
1.84046e-19
1.81687e-19
1.8503e-19
1.84158e-19
1.83719e-19
1.83983e-19
1.87512e-19
1.85641e-19
1.89619e-19
1.88093e-19
1.91092e-19
1.91347e-19
1.95333e-19
1.9503e-19
1.92797e-19
1.94382e-19
1.96518e-19
1.96893e-19
1.97787e-19
1.99566e-19
1.99957e-19
2.003e-19
1.99709e-19
2.00056e-19
2.01221e-19
1.99852e-19
1.98699e-19
1.9901e-19
1.97478e-19
1.96201e-19
1.98098e-19
1.97107e-19
1.96463e-19
1.96402e-19
1.97274e-19
1.95307e-19
2.01266e-19
1.90988e-19
5.35249e-19
2.82183e-18
1.35466e-17
1.47439e-17
1.09001e-17
5.22723e-18
3.40345e-18
8.01123e-19
3.56142e-19
1.95037e-19
1.19174e-19
2.29432e-20
5.06525e-20
1.12105e-19
5.27008e-20
-6.24012e-20
6.01511e-20
1.08433e-19
-1.31779e-19
2.01031e-21
2.22271e-19
-6.20599e-20
-2.09723e-19
2.14037e-19
2.21392e-19
-1.82344e-19
-2.05135e-19
2.44587e-19
2.15344e-19
-2.19972e-20
-9.83367e-20
1.27081e-20
2.36109e-19
2.08465e-19
2.58177e-20
3.23865e-20
3.29614e-19
3.80504e-19
2.09149e-19
3.17096e-19
4.65201e-19
6.71344e-19
7.31591e-19
8.21259e-19
1.00189e-18
1.15532e-18
1.20392e-18
1.42867e-18
1.71159e-18
1.91298e-18
2.01179e-18
2.34607e-18
2.68418e-18
3.05956e-18
3.55181e-18
4.20324e-18
4.76475e-18
5.11651e-18
6.27363e-18
6.80772e-18
7.73053e-18
7.7046e-18
7.90995e-18
5.35207e-18
6.60736e-18
-4.39586e-18
5.56352e-18
-1.41207e-17
1.02334e-17
-1.6262e-17
2.1276e-17
-1.26247e-18
8.46232e-17
7.65054e-17
1.58917e-16
1.6813e-16
1.85196e-19
1.84758e-19
1.84735e-19
1.83638e-19
1.83132e-19
1.85618e-19
1.83002e-19
1.90527e-19
1.84741e-19
1.84748e-19
1.89717e-19
1.87113e-19
1.89718e-19
1.96749e-19
1.9386e-19
1.96545e-19
1.91322e-19
2.02344e-19
1.96931e-19
1.99825e-19
2.0212e-19
2.01078e-19
2.03795e-19
2.03388e-19
2.03454e-19
2.05285e-19
2.04371e-19
2.03721e-19
2.03271e-19
2.01018e-19
2.02597e-19
2.01888e-19
2.02433e-19
2.02273e-19
2.01865e-19
2.02693e-19
2.03014e-19
2.02666e-19
2.01967e-19
2.03231e-19
2.01236e-19
2.09876e-19
1.76147e-19
4.42215e-19
2.54084e-18
1.26394e-17
1.57054e-17
1.19554e-17
6.25912e-18
4.22668e-18
1.93447e-18
7.45496e-19
2.92264e-19
9.99747e-20
4.43676e-20
-4.85301e-20
-5.58296e-20
1.0815e-20
-1.61037e-20
-1.11967e-19
-8.35177e-20
-1.09285e-19
-1.03163e-19
-2.13663e-20
1.69176e-20
-9.08093e-20
-3.29792e-20
8.2135e-20
9.73674e-22
-1.24201e-19
2.15753e-20
1.6841e-20
-2.79235e-21
1.46455e-20
1.73588e-20
6.90222e-20
7.7196e-20
9.24246e-20
8.61971e-20
1.81626e-19
2.08366e-19
2.49277e-19
3.17651e-19
4.94968e-19
6.06536e-19
6.69418e-19
7.57162e-19
9.36244e-19
1.04037e-18
1.09059e-18
1.3161e-18
1.62786e-18
1.82031e-18
1.93143e-18
2.31992e-18
2.51942e-18
3.03418e-18
3.54292e-18
4.22483e-18
4.66879e-18
5.24246e-18
6.21255e-18
6.68259e-18
7.64838e-18
7.11237e-18
7.20912e-18
2.75347e-18
5.71425e-18
-4.06579e-18
4.91807e-18
-1.24192e-17
7.63835e-18
-1.62687e-17
1.51646e-17
-6.65236e-18
6.07506e-17
4.83725e-17
8.8959e-17
9.55238e-17
1.87668e-19
1.87379e-19
1.85889e-19
1.88104e-19
1.91499e-19
1.93769e-19
1.87157e-19
1.96377e-19
1.88825e-19
1.88965e-19
1.93764e-19
1.93799e-19
2.01206e-19
2.0244e-19
1.9907e-19
2.05942e-19
2.07375e-19
2.08441e-19
2.03693e-19
2.1339e-19
2.07256e-19
2.05873e-19
2.11353e-19
2.09057e-19
2.06542e-19
2.11231e-19
2.11865e-19
2.11848e-19
2.12264e-19
2.08465e-19
2.09725e-19
2.10614e-19
2.0973e-19
2.10115e-19
2.09147e-19
2.08083e-19
2.06664e-19
2.07367e-19
2.06767e-19
2.10098e-19
2.05861e-19
2.16109e-19
1.6053e-19
4.46169e-19
2.33194e-18
1.17763e-17
1.85496e-17
1.42847e-17
8.38132e-18
5.74352e-18
3.43587e-18
1.23299e-18
5.30767e-19
1.32929e-19
-4.9609e-20
-9.19237e-20
-9.06255e-20
-8.48221e-20
-6.04718e-20
-6.75044e-20
-1.12894e-19
-8.8313e-20
-7.61232e-20
-4.61774e-20
2.22906e-20
-1.21808e-20
-2.07036e-20
2.52617e-20
3.14271e-20
-2.91231e-20
-1.86688e-20
-1.69338e-20
-1.89518e-20
2.25233e-20
4.52844e-20
6.74657e-20
7.91713e-20
1.09544e-19
1.20888e-19
1.55934e-19
1.75291e-19
2.45989e-19
3.32566e-19
4.97272e-19
6.05439e-19
6.56307e-19
7.47648e-19
9.38956e-19
1.03312e-18
1.09281e-18
1.28704e-18
1.62465e-18
1.75999e-18
1.95399e-18
2.22685e-18
2.32733e-18
3.19565e-18
3.50908e-18
4.11049e-18
4.74652e-18
5.25515e-18
6.22414e-18
6.43746e-18
7.11862e-18
5.63908e-18
5.89097e-18
8.32519e-19
4.23034e-18
-3.38761e-18
4.38818e-18
-8.87276e-18
4.39995e-18
-1.54869e-17
1.11821e-17
-7.6772e-18
3.88683e-17
2.64551e-17
4.26089e-17
4.63362e-17
1.91714e-19
1.92909e-19
1.93372e-19
1.93428e-19
1.96255e-19
2.01835e-19
2.08244e-19
1.99083e-19
2.04052e-19
2.0331e-19
2.11706e-19
2.07379e-19
2.17348e-19
2.18918e-19
2.20642e-19
2.14083e-19
2.20649e-19
2.18125e-19
2.2144e-19
2.26979e-19
2.2095e-19
2.21163e-19
2.25037e-19
2.26651e-19
2.29759e-19
2.2227e-19
2.2233e-19
2.25208e-19
2.21205e-19
2.31317e-19
2.25753e-19
2.26469e-19
2.23409e-19
2.27463e-19
2.2578e-19
2.25696e-19
2.27717e-19
2.27289e-19
2.27744e-19
2.27129e-19
2.26465e-19
2.27147e-19
2.22257e-19
3.20635e-19
1.94615e-18
9.29749e-18
2.28581e-17
1.84627e-17
1.18433e-17
8.04955e-18
4.95118e-18
3.01576e-18
1.5611e-18
5.6749e-19
2.09295e-19
9.22385e-20
-1.20026e-20
1.48426e-20
1.11227e-20
4.23748e-20
-3.00968e-20
-3.66428e-20
-1.04248e-20
3.61939e-20
4.71649e-20
4.72965e-20
3.60034e-20
3.78656e-20
6.63951e-20
2.09839e-20
2.34746e-20
-1.03671e-20
-2.24151e-20
4.41626e-20
6.02711e-20
8.78789e-20
1.04016e-19
1.24921e-19
1.65602e-19
1.79302e-19
1.85351e-19
2.86218e-19
3.31283e-19
5.02397e-19
5.89062e-19
6.45733e-19
7.67062e-19
9.3095e-19
1.0835e-18
1.1459e-18
1.33344e-18
1.5513e-18
1.72289e-18
1.94454e-18
2.20076e-18
2.4921e-18
3.10823e-18
3.52336e-18
4.06396e-18
4.743e-18
5.18303e-18
6.00274e-18
5.72085e-18
5.87284e-18
3.57215e-18
4.21421e-18
5.72035e-20
2.91404e-18
-2.67185e-18
4.14222e-18
-6.8422e-18
3.30835e-18
-1.36311e-17
9.27267e-18
-7.35384e-18
2.17698e-17
1.31253e-17
2.01067e-17
2.20711e-17
2.04559e-19
2.06539e-19
2.05832e-19
2.2013e-19
2.16353e-19
2.21323e-19
2.18013e-19
2.1343e-19
2.24719e-19
2.2612e-19
2.27124e-19
2.31873e-19
2.34162e-19
2.29845e-19
2.35565e-19
2.36797e-19
2.30497e-19
2.40355e-19
2.39373e-19
2.37453e-19
2.41768e-19
2.46065e-19
2.42199e-19
2.41012e-19
2.3761e-19
2.43218e-19
2.41494e-19
2.46418e-19
2.39175e-19
2.46991e-19
2.36451e-19
2.42644e-19
2.38576e-19
2.39531e-19
2.35943e-19
2.36303e-19
2.36308e-19
2.34155e-19
2.33843e-19
2.30308e-19
2.36002e-19
2.23227e-19
2.59698e-19
2.44663e-20
1.51112e-18
6.25819e-18
2.67131e-17
2.42616e-17
1.49087e-17
8.73794e-18
6.23383e-18
4.10368e-18
1.82087e-18
6.74283e-19
1.64275e-19
2.61723e-20
-7.24885e-20
-5.5244e-20
-4.8899e-20
-3.48768e-20
-5.73177e-20
-8.36199e-20
-3.1684e-20
-2.33939e-20
-2.00035e-21
1.08634e-20
2.52147e-20
4.97805e-20
2.77092e-20
-3.35949e-21
8.62229e-21
-1.66238e-20
-1.74809e-20
3.88077e-20
5.0866e-20
8.78017e-20
1.05821e-19
1.52057e-19
1.65876e-19
2.06092e-19
2.54745e-19
3.17812e-19
3.98283e-19
5.0456e-19
5.73767e-19
6.57364e-19
7.79069e-19
9.47196e-19
1.09318e-18
1.19038e-18
1.33159e-18
1.53778e-18
1.75457e-18
1.95204e-18
2.20807e-18
2.58738e-18
3.09812e-18
3.54732e-18
4.04297e-18
4.65454e-18
4.88029e-18
5.21674e-18
4.26076e-18
4.24581e-18
1.93464e-18
2.79923e-18
-2.47861e-19
2.07544e-18
-2.77592e-18
3.88914e-18
-4.9827e-18
3.55775e-18
-1.13108e-17
8.54739e-18
-6.81421e-18
1.02719e-17
5.79844e-18
8.2739e-18
9.12035e-18
2.38305e-19
2.40597e-19
2.3978e-19
2.47805e-19
2.489e-19
2.41137e-19
2.28827e-19
2.48675e-19
2.34757e-19
2.65659e-19
2.38806e-19
2.61099e-19
2.51072e-19
2.34373e-19
2.55758e-19
2.52139e-19
2.56725e-19
2.51774e-19
2.57431e-19
2.57491e-19
2.57892e-19
2.57076e-19
2.58355e-19
2.59488e-19
2.56456e-19
2.59322e-19
2.53818e-19
2.57011e-19
2.56136e-19
2.48578e-19
2.51967e-19
2.48272e-19
2.50278e-19
2.49886e-19
2.49708e-19
2.4943e-19
2.47427e-19
2.44377e-19
2.45165e-19
2.4357e-19
2.42332e-19
2.38944e-19
2.39514e-19
2.14487e-19
6.55626e-19
3.81302e-18
1.93717e-17
2.46085e-17
1.7108e-17
1.10937e-17
5.17348e-18
3.79559e-18
1.27001e-18
3.32843e-19
-8.02673e-20
-1.12519e-19
-1.34473e-19
-9.79403e-20
-6.61409e-20
-7.49593e-20
-4.83675e-20
-8.29579e-20
-6.50526e-21
-2.24379e-20
-6.2542e-21
2.31469e-21
3.41513e-20
3.61592e-20
3.14632e-20
1.39164e-20
1.31849e-20
-9.98552e-21
5.99653e-21
5.39681e-20
7.00703e-20
7.89865e-20
1.23343e-19
1.69548e-19
1.53005e-19
2.20753e-19
2.73147e-19
3.64172e-19
4.24995e-19
4.73443e-19
6.54323e-19
6.94556e-19
8.01553e-19
9.98959e-19
1.11616e-18
1.22691e-18
1.35775e-18
1.58017e-18
1.79683e-18
1.98447e-18
2.26341e-18
2.6645e-18
3.12586e-18
3.50074e-18
3.86432e-18
4.21545e-18
4.00268e-18
3.88819e-18
2.6166e-18
2.63235e-18
1.02276e-18
1.86311e-18
-3.29193e-19
1.47925e-18
-2.45481e-18
3.54821e-18
-3.97133e-18
3.53529e-18
-9.06971e-18
8.23624e-18
-5.83186e-18
3.84481e-18
2.07247e-18
3.20028e-18
3.58065e-18
2.70068e-19
2.66891e-19
2.69471e-19
2.66614e-19
2.63086e-19
2.56482e-19
2.691e-19
2.65964e-19
2.63247e-19
2.58557e-19
2.62134e-19
2.67406e-19
2.71596e-19
2.65095e-19
2.57426e-19
2.66576e-19
2.68202e-19
2.6478e-19
2.68976e-19
2.73688e-19
2.71365e-19
2.7114e-19
2.70713e-19
2.63616e-19
2.64054e-19
2.58397e-19
2.62969e-19
2.62404e-19
2.57536e-19
2.60332e-19
2.53042e-19
2.54099e-19
2.50558e-19
2.52108e-19
2.48039e-19
2.46633e-19
2.46744e-19
2.44145e-19
2.44711e-19
2.4352e-19
2.44893e-19
2.39663e-19
2.34331e-19
2.50559e-19
4.76607e-19
2.39733e-18
1.40265e-17
2.00788e-17
1.65701e-17
1.20231e-17
4.6874e-18
3.0566e-18
4.45604e-19
9.76452e-20
-7.50906e-20
-4.25222e-20
-4.14317e-20
-3.03747e-20
5.81804e-21
5.11841e-21
1.26719e-20
-1.60388e-20
4.22531e-20
4.67131e-20
7.62809e-21
1.83928e-20
4.35581e-20
3.66594e-20
4.05089e-20
2.29067e-20
2.78159e-20
-4.3541e-21
4.74793e-20
7.03721e-20
7.86315e-20
8.81834e-20
1.2401e-19
1.6976e-19
1.59828e-19
2.71964e-19
3.20532e-19
3.84236e-19
4.53961e-19
5.38853e-19
6.83632e-19
7.17032e-19
8.37166e-19
1.04244e-18
1.14885e-18
1.29825e-18
1.40885e-18
1.60241e-18
1.88775e-18
2.02322e-18
2.31223e-18
2.74973e-18
3.04411e-18
3.25214e-18
3.2791e-18
3.33729e-18
2.69409e-18
2.48903e-18
1.4646e-18
1.61169e-18
5.01392e-19
1.27382e-18
-3.42671e-19
1.22388e-18
-2.17971e-18
2.59523e-18
-2.8671e-18
3.38922e-18
-6.75498e-18
7.34589e-18
-4.06887e-18
8.58285e-19
6.79226e-19
1.36651e-18
1.57072e-18
2.82116e-19
2.83006e-19
2.8684e-19
2.71646e-19
2.81863e-19
2.69387e-19
2.88447e-19
2.65571e-19
2.75487e-19
2.88818e-19
2.90516e-19
2.75977e-19
2.82616e-19
2.75021e-19
2.83827e-19
2.82293e-19
2.77236e-19
2.76974e-19
2.82156e-19
2.75692e-19
2.79349e-19
2.73869e-19
2.67814e-19
2.64322e-19
2.64356e-19
2.64964e-19
2.61134e-19
2.53798e-19
2.62729e-19
2.54806e-19
2.55609e-19
2.51451e-19
2.45313e-19
2.45188e-19
2.38988e-19
2.3931e-19
2.40284e-19
2.40504e-19
2.42491e-19
2.39252e-19
2.44506e-19
2.4114e-19
2.34207e-19
2.60261e-19
5.15498e-19
2.37375e-18
9.80476e-18
1.23805e-17
1.30085e-17
1.03988e-17
4.81579e-18
2.21922e-18
-3.70902e-19
-3.6517e-19
-3.55062e-19
-2.69409e-19
-1.65312e-19
-1.39048e-19
-8.27342e-20
-4.17125e-20
-8.26703e-21
3.73235e-21
2.37408e-20
4.33621e-20
7.01669e-22
8.89121e-21
3.01591e-20
1.54087e-20
2.96261e-20
-2.24235e-21
2.12253e-20
-1.46784e-20
4.07105e-20
5.98316e-20
9.418e-20
8.689e-20
1.42266e-19
1.51066e-19
2.07104e-19
2.25824e-19
3.73796e-19
4.46306e-19
4.80881e-19
6.19658e-19
7.08105e-19
7.73949e-19
9.43943e-19
1.05625e-18
1.18956e-18
1.41926e-18
1.47743e-18
1.61821e-18
1.90704e-18
1.97902e-18
2.27994e-18
2.57536e-18
2.69887e-18
2.58088e-18
2.38623e-18
2.14737e-18
1.5558e-18
1.47656e-18
7.97299e-19
9.80542e-19
2.51149e-19
7.77902e-19
-4.20157e-19
1.14645e-18
-1.60727e-18
1.90976e-18
-1.87797e-18
2.75065e-18
-5.29611e-18
6.34606e-18
-2.49583e-18
-8.88616e-20
2.63833e-19
9.04515e-19
1.0793e-18
2.91046e-19
2.91856e-19
3.00163e-19
2.83383e-19
2.8657e-19
2.85984e-19
2.97251e-19
2.82139e-19
2.99499e-19
2.90581e-19
2.93104e-19
2.99527e-19
2.88976e-19
2.97631e-19
3.02896e-19
2.88461e-19
2.82831e-19
2.93982e-19
2.9415e-19
2.81881e-19
2.77631e-19
2.62416e-19
2.6786e-19
2.63764e-19
2.62017e-19
2.67092e-19
2.63686e-19
2.58777e-19
2.41501e-19
2.43287e-19
2.40382e-19
2.40314e-19
2.29719e-19
2.30318e-19
2.25846e-19
2.27842e-19
2.23369e-19
2.22839e-19
2.20844e-19
2.17186e-19
2.12147e-19
2.06186e-19
2.13092e-19
2.44304e-19
4.84208e-19
1.68505e-18
3.09582e-18
4.98081e-18
7.57184e-18
7.84743e-18
4.43278e-18
1.31141e-18
-9.95258e-19
-9.15791e-19
-7.17631e-19
-5.92656e-19
-2.66151e-19
-1.89672e-19
-8.51755e-20
-1.1972e-19
-5.95553e-20
-5.9192e-20
-9.53924e-20
-2.47656e-20
-4.59572e-20
-5.83479e-20
-1.97735e-20
-2.93464e-20
-7.55073e-21
-4.58581e-20
-4.58538e-20
-5.69443e-20
1.24507e-20
4.5499e-20
1.05137e-19
5.49673e-20
1.04986e-19
1.58964e-19
2.24437e-19
2.58903e-19
3.85744e-19
4.79652e-19
5.68328e-19
7.15741e-19
7.31425e-19
7.91239e-19
1.03406e-18
1.05574e-18
1.25314e-18
1.49533e-18
1.52491e-18
1.63509e-18
1.73527e-18
1.82888e-18
1.97208e-18
2.06827e-18
1.98662e-18
1.72336e-18
1.43719e-18
1.23584e-18
8.33023e-19
8.94248e-19
4.24807e-19
6.48999e-19
1.0827e-19
4.30317e-19
-4.64904e-19
1.02891e-18
-1.31422e-18
1.4612e-18
-1.24742e-18
2.23679e-18
-4.26514e-18
5.45928e-18
-1.54752e-18
-7.64706e-19
-2.20846e-19
5.54951e-19
7.70169e-19
2.99352e-19
3.00478e-19
3.11287e-19
3.06045e-19
2.88278e-19
3.18991e-19
2.81538e-19
3.1533e-19
3.29009e-19
3.08824e-19
3.06922e-19
3.174e-19
2.88869e-19
3.48262e-19
3.19679e-19
3.06855e-19
2.95287e-19
2.89465e-19
2.91143e-19
2.79931e-19
2.69248e-19
2.58844e-19
2.58665e-19
2.5515e-19
2.5547e-19
2.43285e-19
2.38626e-19
2.25269e-19
2.2014e-19
2.17939e-19
2.18126e-19
2.132e-19
2.06227e-19
2.04439e-19
2.05608e-19
2.0387e-19
2.05766e-19
2.01191e-19
2.0147e-19
1.9882e-19
1.97537e-19
1.91859e-19
1.99108e-19
2.22859e-19
4.31515e-19
1.00518e-18
1.17642e-18
1.50589e-18
2.93217e-18
3.34376e-18
2.04021e-18
-7.79746e-19
-2.20736e-18
-2.00923e-18
-1.46975e-18
-1.16762e-18
-5.06972e-19
-4.01523e-19
-3.40181e-19
-2.89276e-19
-2.41594e-19
-2.25573e-19
-2.30325e-19
-1.60413e-19
-1.84093e-19
-9.8103e-20
-9.48087e-20
-9.90586e-20
-1.02846e-19
-7.78533e-20
-1.1164e-19
-9.60703e-20
-6.39546e-20
-6.56106e-21
3.1391e-20
2.76699e-20
8.28933e-20
1.20094e-19
2.37571e-19
2.65067e-19
4.3041e-19
4.6675e-19
6.18974e-19
7.18154e-19
7.89278e-19
8.64437e-19
1.02728e-18
1.13351e-18
1.26255e-18
1.46308e-18
1.47182e-18
1.4389e-18
1.42204e-18
1.41558e-18
1.3316e-18
1.40904e-18
1.3199e-18
1.05628e-18
8.31944e-19
7.783e-19
4.96784e-19
4.69193e-19
2.51223e-19
4.3445e-19
9.70484e-20
3.75608e-19
-4.81395e-19
6.66101e-19
-9.733e-19
9.41775e-19
-8.81167e-19
1.68946e-18
-3.93733e-18
4.06719e-18
-8.43683e-19
-7.92811e-19
-2.31011e-19
3.24375e-19
3.89631e-19
3.07294e-19
2.97991e-19
2.80246e-19
3.14883e-19
3.17794e-19
3.35695e-19
3.2118e-19
3.65277e-19
2.91071e-19
3.28899e-19
3.3353e-19
3.1763e-19
3.29747e-19
3.20196e-19
3.12935e-19
3.08197e-19
3.13111e-19
2.8101e-19
2.63433e-19
2.67315e-19
2.62732e-19
2.59704e-19
2.35725e-19
2.41956e-19
2.30018e-19
2.21226e-19
2.04445e-19
1.8976e-19
1.95302e-19
1.85519e-19
1.85759e-19
1.73854e-19
1.73404e-19
1.80451e-19
1.66343e-19
1.76066e-19
1.65847e-19
1.74363e-19
1.82458e-19
1.68407e-19
1.63346e-19
1.55942e-19
1.51153e-19
1.51797e-19
2.24721e-19
3.71483e-19
4.4179e-19
5.54483e-19
8.38557e-19
5.22173e-19
-1.19335e-18
-3.1548e-18
-4.10995e-18
-3.6002e-18
-2.4202e-18
-1.86216e-18
-7.22613e-19
-5.66204e-19
-5.14769e-19
-4.56631e-19
-3.07121e-19
-3.44768e-19
-1.83542e-19
-4.16527e-20
-1.48717e-19
-1.62592e-19
-1.72262e-19
-1.62474e-19
-1.48551e-19
-5.98982e-20
-4.34377e-20
-1.01602e-19
-9.6064e-20
-5.47755e-20
4.86864e-20
-1.21208e-20
1.18417e-19
1.28141e-19
2.77705e-19
3.40046e-19
4.75374e-19
5.33711e-19
7.06065e-19
7.18392e-19
8.72256e-19
9.07648e-19
1.03079e-18
1.11663e-18
1.14703e-18
1.21957e-18
1.10436e-18
1.06274e-18
9.62995e-19
8.49345e-19
8.9057e-19
9.05328e-19
7.30612e-19
6.12516e-19
5.51452e-19
4.63209e-19
2.63848e-19
3.1463e-19
1.46624e-19
2.96616e-19
4.76777e-20
2.29654e-19
-3.21415e-19
4.60927e-19
-7.10733e-19
6.5162e-19
-6.91329e-19
1.54992e-18
-3.17414e-18
3.3939e-18
-2.22102e-19
-4.99187e-19
-2.11098e-19
1.58251e-19
2.89654e-19
3.2548e-19
3.16189e-19
3.05373e-19
3.31972e-19
3.3913e-19
3.45868e-19
3.48703e-19
3.50842e-19
3.45429e-19
3.48442e-19
2.81299e-19
3.08164e-19
3.35486e-19
2.93311e-19
2.94104e-19
2.82669e-19
2.90223e-19
2.52017e-19
2.41183e-19
2.49737e-19
2.2679e-19
2.24489e-19
2.12234e-19
2.06638e-19
1.82485e-19
1.95803e-19
1.64936e-19
1.68746e-19
1.6136e-19
1.51199e-19
1.51633e-19
1.41942e-19
1.50857e-19
1.44466e-19
1.39023e-19
1.32778e-19
1.32863e-19
1.30397e-19
1.20653e-19
1.21273e-19
1.25251e-19
1.20814e-19
1.05297e-19
-7.78885e-21
-3.96022e-19
-4.82599e-19
-3.45328e-19
-3.66672e-19
-6.93248e-19
-1.35961e-18
-3.4633e-18
-5.12784e-18
-7.03586e-18
-6.32906e-18
-4.65863e-18
-3.26939e-18
-2.04748e-18
-1.31066e-18
-1.01656e-18
-7.45523e-19
-6.47832e-19
-2.6648e-19
-2.33082e-19
-2.80473e-19
-2.77928e-19
-2.56416e-19
-2.63586e-19
-2.08703e-19
-1.32987e-19
-1.19617e-19
-8.55489e-20
-7.58951e-20
-1.43218e-19
-9.99079e-20
3.33942e-20
-3.73581e-20
1.77315e-19
2.87927e-19
3.40402e-19
3.89003e-19
4.5174e-19
6.32837e-19
8.31101e-19
8.01456e-19
9.00205e-19
8.80283e-19
7.77179e-19
8.84914e-19
8.86358e-19
9.33928e-19
7.18934e-19
6.0733e-19
7.01665e-19
5.25568e-19
4.23264e-19
5.42938e-19
3.70971e-19
3.77522e-19
4.13176e-19
3.29721e-19
1.96702e-19
1.97123e-19
9.5727e-20
1.11723e-19
-1.31279e-20
2.33079e-19
-1.3404e-19
3.65965e-19
-5.25905e-19
4.67915e-19
-4.70301e-19
1.2878e-18
-2.7827e-18
3.17209e-18
4.83767e-19
-6.7367e-20
1.49851e-19
6.66129e-19
8.66108e-19
3.53245e-19
3.77916e-19
3.63469e-19
3.27466e-19
3.23902e-19
3.18458e-19
3.40213e-19
3.2314e-19
3.16926e-19
3.14774e-19
2.99147e-19
2.96321e-19
2.91408e-19
2.75422e-19
2.43673e-19
2.53867e-19
2.48092e-19
2.34471e-19
2.10848e-19
1.87149e-19
1.6593e-19
1.84028e-19
1.63917e-19
1.63402e-19
1.40161e-19
1.52429e-19
1.43273e-19
1.32437e-19
1.11823e-19
1.03652e-19
1.18589e-19
1.07876e-19
9.71172e-20
1.00951e-19
9.8783e-20
9.30103e-20
9.36632e-20
8.55721e-20
9.04696e-20
8.60795e-20
8.67006e-20
8.06568e-20
3.3902e-20
-4.01564e-19
-1.42996e-18
-2.03073e-18
-2.28103e-18
-2.7292e-18
-2.68599e-18
-2.88894e-18
-4.73476e-18
-6.06724e-18
-8.63926e-18
-9.0562e-18
-7.072e-18
-4.71714e-18
-3.39177e-18
-1.55594e-18
-1.20316e-18
-1.12218e-18
-5.96544e-19
-4.81725e-19
-3.65386e-19
-3.43225e-19
-3.53337e-19
-2.67045e-19
-1.9145e-19
-1.09896e-19
-4.09172e-20
-1.32095e-19
-3.85812e-20
-7.84183e-20
-7.09994e-20
-7.33559e-20
1.02446e-19
3.40376e-20
2.98415e-19
3.50019e-19
4.06963e-19
4.82425e-19
3.79529e-19
5.56336e-19
8.11788e-19
7.50873e-19
7.84844e-19
6.44307e-19
5.4492e-19
6.01712e-19
5.82685e-19
5.60573e-19
3.64111e-19
1.74438e-19
4.65784e-19
2.78917e-19
2.98348e-19
2.93225e-19
1.78551e-19
3.41151e-19
2.69168e-19
1.35901e-19
1.26562e-19
1.14446e-19
3.93905e-20
1.28262e-19
-1.67156e-20
1.33212e-19
-1.9511e-20
3.09937e-19
-4.01994e-19
1.49922e-19
-3.90345e-19
1.06775e-18
-2.3786e-18
1.90056e-18
-2.22964e-19
-8.58475e-19
-5.81032e-19
-2.72807e-19
-2.99334e-19
3.24348e-19
3.23249e-19
3.46203e-19
3.1448e-19
3.55779e-19
3.22835e-19
3.33568e-19
2.99818e-19
2.84475e-19
2.70542e-19
2.84684e-19
2.59496e-19
2.36985e-19
2.21094e-19
2.03343e-19
2.09514e-19
1.71245e-19
1.71238e-19
1.55912e-19
1.5677e-19
1.16163e-19
1.22525e-19
9.06081e-20
9.8096e-20
8.46557e-20
8.79108e-20
6.69135e-20
7.35339e-20
6.17727e-20
6.88761e-20
6.39456e-20
5.51372e-20
4.28114e-20
6.05129e-20
4.70611e-20
4.48738e-20
4.22126e-20
3.23829e-20
2.9657e-20
2.57015e-20
2.36416e-20
9.58489e-21
-1.13533e-19
-1.08008e-18
-2.47068e-18
-2.64844e-18
-2.67699e-18
-2.90831e-18
-2.95468e-18
-3.74186e-18
-5.13853e-18
-6.74159e-18
-9.03522e-18
-1.1031e-17
-1.04765e-17
-7.26314e-18
-4.87828e-18
-2.58697e-18
-1.70011e-18
-1.42476e-18
-1.11279e-18
-7.53517e-19
-5.02607e-19
-3.50992e-19
-2.74312e-19
-2.35789e-19
-1.47437e-19
-5.25257e-20
4.65101e-22
-1.42142e-19
-6.15624e-20
-3.71766e-20
-1.41931e-20
-6.45901e-20
1.60425e-19
6.62754e-20
3.52904e-19
3.68292e-19
3.11012e-19
4.60358e-19
3.47716e-19
6.46178e-19
6.07569e-19
6.44894e-19
6.81743e-19
4.46554e-19
3.47559e-19
5.91179e-19
5.16131e-19
4.59742e-19
1.5196e-19
1.07528e-19
3.23886e-19
6.63519e-20
1.84481e-19
2.44101e-19
9.73834e-20
2.28793e-19
2.08727e-19
1.67088e-19
4.29421e-20
8.06082e-20
1.61289e-20
7.66765e-20
1.11196e-20
6.86726e-20
2.93054e-20
1.45983e-19
-1.55446e-19
2.73961e-19
-3.57783e-19
9.59792e-19
-1.45082e-18
2.32801e-18
2.18741e-19
-2.23379e-19
1.58765e-19
3.91213e-19
4.72477e-19
3.24576e-19
3.2301e-19
3.05644e-19
2.8378e-19
3.31937e-19
3.23121e-19
2.77651e-19
2.64141e-19
2.35471e-19
2.46035e-19
2.23345e-19
2.20233e-19
1.91806e-19
1.64338e-19
1.45579e-19
1.23004e-19
1.00463e-19
7.84309e-20
8.42171e-20
5.09072e-20
5.23645e-20
3.69304e-20
3.9392e-20
4.54011e-20
3.46455e-20
2.52956e-20
2.1482e-20
2.37274e-20
2.8662e-20
3.60353e-20
9.40922e-21
2.38258e-20
2.58604e-20
8.069e-21
1.42266e-20
1.67161e-20
1.3886e-20
1.20984e-20
9.07265e-21
6.28106e-21
3.1749e-21
-3.30917e-20
-3.11128e-19
-1.94304e-18
-3.31867e-18
-3.37391e-18
-3.36011e-18
-3.32214e-18
-3.20835e-18
-4.3703e-18
-5.15757e-18
-6.60446e-18
-8.63028e-18
-1.07471e-17
-1.18199e-17
-1.02773e-17
-7.55592e-18
-5.03673e-18
-2.70573e-18
-2.18385e-18
-1.47775e-18
-9.97141e-19
-6.11141e-19
-4.75991e-19
-3.61156e-19
-2.84799e-19
-1.83769e-19
-5.06902e-20
-1.85415e-20
-1.52964e-19
-8.61872e-20
5.97087e-21
1.63506e-20
-1.60562e-19
2.61296e-19
-4.74239e-20
4.37388e-19
3.5726e-19
1.47753e-19
3.71418e-19
3.78967e-19
4.60429e-19
5.32539e-19
5.31998e-19
5.52305e-19
4.56599e-19
1.54576e-19
2.37541e-19
2.85629e-19
1.75342e-19
1.22135e-19
3.05443e-20
1.46094e-19
5.32099e-20
1.50438e-19
2.57608e-19
4.14002e-20
1.17806e-19
4.44797e-20
2.08829e-19
1.74497e-20
2.23186e-20
1.86424e-21
6.413e-21
4.448e-20
6.03317e-20
1.42617e-20
5.34052e-20
-1.61469e-19
3.24389e-19
1.724e-19
6.84352e-19
-1.70968e-18
1.29134e-18
1.65177e-19
-2.93472e-19
-1.77799e-19
6.774e-20
1.73843e-19
3.19371e-19
3.27715e-19
3.4715e-19
2.85921e-19
2.8468e-19
2.75026e-19
2.29406e-19
1.82122e-19
1.83928e-19
2.08135e-19
1.88344e-19
1.57721e-19
8.27157e-20
9.55401e-20
8.18078e-20
2.52729e-20
2.30059e-20
-5.77771e-21
1.04451e-20
-2.30977e-21
-1.17016e-20
-2.85576e-20
2.54164e-20
-2.00547e-20
-1.17016e-20
-5.60036e-21
1.71258e-21
-1.43654e-20
9.38743e-21
-1.41459e-20
-9.95567e-21
1.08672e-20
-8.13597e-21
3.43215e-21
-1.88717e-20
-7.81075e-21
-1.79338e-20
-8.91755e-21
-4.81139e-21
-9.14573e-21
-1.29503e-20
-7.94398e-20
-6.06631e-19
-3.09015e-18
-4.07028e-18
-4.1111e-18
-4.08414e-18
-4.07134e-18
-4.25591e-18
-4.83802e-18
-5.49047e-18
-6.46417e-18
-8.00221e-18
-1.009e-17
-1.08653e-17
-1.14203e-17
-9.04886e-18
-6.20132e-18
-3.34157e-18
-2.36661e-18
-1.83501e-18
-1.03188e-18
-6.32821e-19
-4.11588e-19
-4.27839e-19
-2.12053e-19
-1.91946e-19
-3.42649e-20
-2.51904e-20
-3.02992e-19
-1.30799e-20
8.31758e-20
-6.31453e-20
-2.38923e-20
1.60227e-19
9.10352e-20
2.17996e-19
2.86394e-19
2.44829e-19
3.34465e-19
3.0016e-19
3.87523e-19
4.59805e-19
4.48435e-19
4.39739e-19
3.64414e-19
2.98857e-19
-7.16821e-20
3.53637e-19
2.92175e-19
5.46448e-20
-7.72285e-20
-8.69138e-20
1.21129e-19
1.68797e-19
1.8822e-19
-4.79237e-20
8.49218e-20
9.20595e-21
1.14957e-19
1.72639e-20
-3.62952e-20
-4.19534e-20
7.88375e-21
1.44965e-20
8.7465e-21
-1.57312e-20
3.42977e-20
-1.92162e-19
9.96173e-20
-4.32921e-20
5.44692e-19
-1.19684e-18
8.07586e-19
-1.55409e-19
-8.23772e-19
-7.90426e-19
-6.5873e-19
-6.16685e-19
1.50913e-19
1.93802e-19
2.75588e-19
3.19152e-19
2.74267e-19
1.81916e-19
2.40715e-19
1.52761e-19
1.58602e-19
9.46003e-20
9.96303e-20
4.01021e-21
2.4143e-20
-4.03332e-20
1.14535e-20
-2.72617e-20
-4.32754e-20
-3.26693e-20
-6.4231e-20
-3.46136e-20
-1.3356e-20
-3.89556e-20
-3.9886e-20
-2.70599e-20
-2.93907e-20
-2.01878e-20