/*--------------------------------*- C++ -*----------------------------------*\
| =========                 |                                                 |
| \\      /  F ield         | OpenFOAM: The Open Source CFD Toolbox           |
|  \\    /   O peration     | Version:  2.2.x                                 |
|   \\  /    A nd           | Web:      www.OpenFOAM.org                      |
|    \\/     M anipulation  |                                                 |
\*---------------------------------------------------------------------------*/
FoamFile
{
    version     2.0;
    format      ascii;
    class       volVectorField;
    location    "2.5";
    object      U;
}
// * * * * * * * * * * * * * * * * * * * * * * * * * * * * * * * * * * * * * //

dimensions      [0 1 -1 0 0 0 0];

internalField   nonuniform List<vector> 
14161
(
(1.50314 8.37558e-07 4.22627e-22)
(1.50306 -2.08292e-06 4.99884e-22)
(1.50313 -2.46497e-07 7.34015e-22)
(1.50321 -3.76542e-07 6.302e-22)
(1.50334 -5.80581e-07 4.23231e-22)
(1.50349 -2.06066e-07 2.15203e-22)
(1.50366 -3.37831e-08 1.06392e-21)
(1.50387 -6.93666e-07 5.63592e-22)
(1.5041 4.76177e-07 1.33077e-21)
(1.50433 8.6016e-07 7.05746e-22)
(1.50458 -1.07916e-06 9.79705e-22)
(1.50488 -2.38916e-07 4.68736e-22)
(1.50518 5.61734e-06 6.60482e-22)
(1.50543 1.9122e-06 1.22981e-21)
(1.50571 -3.60918e-06 1.40076e-21)
(1.50623 -7.4542e-06 2.15234e-21)
(1.5065 2.03588e-05 2.35154e-21)
(1.50668 -6.25679e-07 2.66308e-21)
(1.50692 -8.68845e-06 3.39565e-21)
(1.50764 -1.19248e-05 3.61962e-21)
(1.50799 8.49122e-06 4.01896e-21)
(1.50818 1.38129e-05 4.65134e-21)
(1.50823 4.69007e-06 4.56394e-21)
(1.5084 -1.12769e-05 4.81533e-21)
(1.50934 -6.71618e-06 5.82882e-21)
(1.50966 4.65576e-06 6.23667e-21)
(1.50981 1.4162e-05 6.03392e-21)
(1.50992 1.88454e-05 6.39175e-21)
(1.5099 1.41843e-05 6.97183e-21)
(1.50981 1.66872e-05 7.26886e-21)
(1.50981 5.70938e-06 7.0764e-21)
(1.50994 -2.49566e-07 7.74722e-21)
(1.51005 4.63046e-06 6.28531e-21)
(1.50989 1.87208e-05 8.27512e-21)
(1.50974 2.8197e-05 4.98246e-21)
(1.50933 3.99166e-05 1.24098e-20)
(1.50871 4.21923e-05 -5.60837e-22)
(1.50726 0.000134916 2.50321e-20)
(1.50565 0.000125385 -4.99885e-20)
(1.50398 0.000124056 1.02542e-19)
(1.50184 0.000140046 -1.22965e-19)
(1.49964 0.00016088 1.41471e-19)
(1.49631 5.84169e-05 -3.62566e-19)
(1.49503 0.000398761 -4.28178e-20)
(1.49143 0.00308845 4.92368e-18)
(0.748757 0.00710876 1.20916e-17)
(0.536853 0.00512968 9.50545e-18)
(0.517712 -0.000154895 6.63353e-18)
(0.521108 -0.00359548 4.42767e-18)
(0.537873 -0.00583163 2.78913e-18)
(0.554148 -0.00919843 3.24949e-19)
(0.580193 -0.0100232 1.15498e-19)
(0.604175 -0.00951508 -2.9799e-19)
(0.628286 -0.00903261 -2.92172e-19)
(0.651071 -0.00853496 -2.3985e-19)
(0.672784 -0.00775134 -1.07553e-19)
(0.692773 -0.00702807 -7.50367e-20)
(0.711783 -0.00630546 -5.64075e-19)
(0.729262 -0.00572714 -4.98786e-19)
(0.745539 -0.0051936 3.41632e-19)
(0.760696 -0.0047526 2.62994e-19)
(0.774499 -0.0041714 -1.21391e-18)
(0.786884 -0.00348453 -9.24979e-19)
(0.797732 -0.00295594 1.16857e-18)
(0.807644 -0.00253735 7.61034e-19)
(0.815972 -0.00214681 -1.81929e-18)
(0.822901 -0.00177763 -1.46855e-18)
(0.828652 -0.00140424 1.25334e-18)
(0.833179 -0.00107038 1.0101e-18)
(0.836943 -0.00114043 -8.21801e-19)
(0.840426 -0.00140784 -1.3526e-18)
(0.843447 -0.00176384 -3.72245e-19)
(0.846683 -0.00199167 6.48339e-19)
(0.851036 -0.00216037 5.8069e-19)
(0.85452 -0.00211612 -5.69895e-19)
(0.857901 -0.00202395 -1.00575e-18)
(0.86282 -0.0019744 -2.11259e-19)
(0.865674 -0.00192153 7.72401e-19)
(0.868351 -0.00182867 1.71593e-19)
(0.873703 -0.00183759 -8.87907e-19)
(0.876543 -0.00176089 -4.32092e-19)
(0.879346 -0.00176903 5.96651e-19)
(0.881558 -0.00168739 4.78774e-19)
(0.883265 -0.00141881 -1.23214e-19)
(0.884269 -0.00150055 -6.88805e-20)
(0.891906 -0.00164263 2.22241e-19)
(0.893816 -0.00171921 5.49179e-19)
(0.895244 -0.00147239 5.10427e-19)
(0.891213 -0.00134621 6.72101e-19)
(0.901601 -0.00151598 6.07345e-19)
(0.90427 -0.00161156 9.74278e-19)
(0.906153 -0.00131005 1.01051e-18)
(0.90533 -0.00129288 1.24173e-18)
(0.914899 -0.00157568 1.1417e-18)
(0.917667 -0.00140839 1.42619e-18)
(0.922591 -0.00135872 1.78627e-18)
(0.926812 -0.00150079 1.98389e-18)
(0.932034 -0.00147608 2.31041e-18)
(0.937339 -0.00151333 2.60395e-18)
(0.941872 -0.00164008 2.98964e-18)
(0.949717 -0.00147975 3.74643e-18)
(0.955238 -0.00146884 3.81604e-18)
(0.965191 -0.00108004 4.76862e-18)
(0.970697 -0.00156666 5.13878e-18)
(0.974983 -0.000659404 5.46357e-18)
(0.976504 0.000206544 5.49654e-18)
(0.974544 0.00194831 5.27553e-18)
(0.966606 0.00720089 4.5098e-18)
(0.923368 0.0187718 4.6142e-18)
(0.832545 0.0368735 1.5176e-20)
(0.699441 0.0525661 6.80574e-18)
(0.562074 0.0593104 -5.59384e-18)
(0.449619 0.0585182 1.86394e-17)
(0.352707 0.0504272 -2.89969e-18)
(0.276521 0.0421869 5.39722e-17)
(0.204885 0.0368058 3.13689e-17)
(0.146208 0.0356651 1.67935e-16)
(0.0889083 0.0271575 1.63141e-16)
(0.041999 0.0405386 3.91302e-16)
(1.50314 -2.78533e-07 4.2448e-22)
(1.50306 -2.33645e-06 7.84782e-22)
(1.50313 -1.02807e-06 1.02661e-21)
(1.50321 -7.91899e-07 3.4509e-22)
(1.50334 -8.15197e-07 3.68184e-22)
(1.50349 -7.86813e-07 3.90124e-22)
(1.50366 3.5679e-07 5.87292e-22)
(1.50387 -7.05556e-07 6.54333e-22)
(1.5041 2.27061e-07 1.29888e-21)
(1.50433 1.80923e-06 8.60235e-22)
(1.50458 -1.42665e-06 9.83334e-22)
(1.50488 2.86954e-07 4.67012e-22)
(1.50518 1.02063e-05 1.00397e-21)
(1.50543 5.76569e-06 9.04556e-22)
(1.50571 -8.94635e-06 1.56979e-21)
(1.50622 -4.64536e-06 2.40649e-21)
(1.50649 2.82122e-05 2.79586e-21)
(1.50669 6.62108e-06 2.67385e-21)
(1.50694 -1.07834e-05 3.72367e-21)
(1.50764 -2.27987e-05 3.62575e-21)
(1.50798 1.59439e-05 4.21918e-21)
(1.50816 3.2932e-05 4.39959e-21)
(1.50823 1.11754e-05 4.53996e-21)
(1.50843 -2.15518e-05 5.0065e-21)
(1.50934 -1.89054e-05 6.12011e-21)
(1.50966 2.71376e-06 5.97928e-21)
(1.50982 1.88232e-05 6.0213e-21)
(1.50993 3.51089e-05 6.75581e-21)
(1.5099 3.69362e-05 6.86192e-21)
(1.50982 2.19831e-05 7.43838e-21)
(1.50983 1.62727e-05 6.78157e-21)
(1.50997 5.62878e-06 7.88682e-21)
(1.51008 2.18104e-05 6.65264e-21)
(1.5099 5.12426e-05 7.53657e-21)
(1.50975 7.84512e-05 6.42705e-21)
(1.50932 0.000110031 9.70496e-21)
(1.50865 0.000139037 -3.54751e-21)
(1.50707 0.000187336 2.85215e-20)
(1.50563 0.000211397 -2.16257e-20)
(1.50408 0.000182021 6.31133e-20)
(1.50216 0.000199597 -5.95869e-20)
(1.50008 0.000258446 8.93284e-20)
(1.4956 3.69319e-05 -2.40425e-19)
(1.49509 0.00117674 2.10862e-19)
(1.48829 0.0107771 6.21817e-18)
(0.748649 0.0223866 1.13801e-17)
(0.536416 0.0170789 9.74907e-18)
(0.51551 -0.000718596 6.6579e-18)
(0.521053 -0.0121787 3.01659e-18)
(0.540296 -0.0187909 1.6992e-18)
(0.558134 -0.0240538 -1.31235e-18)
(0.583136 -0.027342 -6.42707e-19)
(0.606261 -0.0253805 -2.22246e-19)
(0.629658 -0.0236278 -3.423e-19)
(0.651135 -0.0219004 -3.08613e-19)
(0.672305 -0.0196622 -2.09872e-19)
(0.691725 -0.0178774 -7.11255e-20)
(0.710569 -0.016189 -4.731e-19)
(0.728416 -0.0142896 -5.17072e-19)
(0.745128 -0.0123714 1.71207e-19)
(0.760823 -0.0109829 1.99828e-19)
(0.775102 -0.00954658 -9.33449e-19)
(0.788009 -0.00809843 -8.57004e-19)
(0.799266 -0.00708425 6.97849e-19)
(0.809219 -0.00615803 6.4908e-19)
(0.817659 -0.00537077 -1.21712e-18)
(0.824754 -0.00484892 -1.4886e-18)
(0.830614 -0.00427248 5.88166e-19)
(0.835645 -0.00364544 1.17713e-18)
(0.84007 -0.00301729 -6.3138e-19)
(0.843841 -0.00240734 -1.50544e-18)
(0.846912 -0.00231759 -3.34599e-19)
(0.850076 -0.00241574 6.87533e-19)
(0.854209 -0.00276 5.50974e-19)
(0.857355 -0.00266274 -5.82269e-19)
(0.860422 -0.00241961 -9.5772e-19)
(0.865117 -0.00237486 -2.29166e-19)
(0.867857 -0.00216743 6.83434e-19)
(0.870396 -0.00200024 1.87979e-19)
(0.875704 -0.00221618 -7.69367e-19)
(0.878561 -0.00219739 -4.25755e-19)
(0.881369 -0.00223937 4.93834e-19)
(0.883439 -0.00193606 4.07153e-19)
(0.885037 -0.00154538 -5.56483e-20)
(0.886082 -0.00179489 -2.13011e-20)
(0.894041 -0.00219936 2.16376e-19)
(0.895747 -0.00217114 4.97812e-19)
(0.896975 -0.00158827 5.13503e-19)
(0.892958 -0.00128477 6.76616e-19)
(0.903439 -0.00215034 6.1961e-19)
(0.905979 -0.00203625 9.17871e-19)
(0.90761 -0.00150147 1.00976e-18)
(0.907081 -0.00137007 1.22077e-18)
(0.916686 -0.0023475 1.1598e-18)
(0.91935 -0.0019503 1.44001e-18)
(0.92434 -0.00192671 1.75982e-18)
(0.928589 -0.00187205 1.97769e-18)
(0.933679 -0.00193246 2.31578e-18)
(0.93914 -0.00228961 2.66876e-18)
(0.94385 -0.00236033 2.94876e-18)
(0.951425 -0.00181366 3.79089e-18)
(0.956652 -0.00172722 3.83969e-18)
(0.965801 -0.00152227 4.77951e-18)
(0.97069 -0.00187821 5.19304e-18)
(0.972821 -0.000486155 5.38579e-18)
(0.969894 0.000644354 5.49428e-18)
(0.960978 0.00330142 5.31796e-18)
(0.936809 0.0115334 3.95452e-18)
(0.86375 0.0282929 4.66564e-18)
(0.746283 0.0636967 -2.79315e-18)
(0.609795 0.106286 6.57491e-18)
(0.479614 0.118302 -8.42906e-18)
(0.379346 0.112083 1.71613e-17)
(0.297261 0.0979971 -2.21724e-18)
(0.234734 0.0938314 5.04257e-17)
(0.175763 0.0853067 3.25932e-17)
(0.126784 0.0852069 1.50345e-16)
(0.0763284 0.0778039 1.47665e-16)
(0.0330861 0.0966574 3.01041e-16)
(1.50314 2.21472e-07 4.73438e-22)
(1.50306 -3.04491e-06 2.52523e-22)
(1.50313 -1.91792e-06 3.73562e-22)
(1.50321 -1.14122e-06 6.5385e-22)
(1.50334 -1.82419e-06 3.91238e-22)
(1.50349 -8.84505e-07 -2.48853e-23)
(1.50366 8.17248e-07 3.03474e-22)
(1.50387 -8.62888e-07 5.3236e-22)
(1.50409 3.16459e-07 1.30115e-21)
(1.50433 2.83352e-06 9.70191e-22)
(1.50458 -2.37601e-06 1.13478e-21)
(1.50488 1.35701e-08 -7.15714e-22)
(1.50517 1.55356e-05 1.12494e-21)
(1.50544 1.16703e-05 2.18919e-21)
(1.50573 -1.51126e-05 2.85871e-21)
(1.50619 -7.60431e-06 2.89589e-21)
(1.50647 3.47111e-05 3.4394e-21)
(1.50671 1.46318e-05 3.52302e-21)
(1.50698 -2.4982e-05 4.70787e-21)
(1.50762 -2.86571e-05 4.27365e-21)
(1.50793 2.56124e-05 4.4363e-21)
(1.50813 5.86287e-05 4.3623e-21)
(1.50825 1.80955e-05 5.62422e-21)
(1.50852 -3.28088e-05 5.38962e-21)
(1.50932 -4.31972e-05 4.80295e-21)
(1.50965 9.02321e-06 5.4416e-21)
(1.50983 4.78097e-05 6.83376e-21)
(1.50993 6.78065e-05 6.63585e-21)
(1.50991 6.78995e-05 7.28638e-21)
(1.50989 3.89354e-05 7.8708e-21)
(1.50992 2.30565e-05 7.23284e-21)
(1.51006 -5.66203e-06 8.17301e-21)
(1.51017 3.13519e-05 6.98919e-21)
(1.50996 5.83025e-05 7.64074e-21)
(1.50983 9.08913e-05 7.1461e-21)
(1.50948 0.000152571 8.82091e-21)
(1.5089 0.00020519 6.84862e-22)
(1.5075 0.000316036 1.85816e-20)
(1.50614 0.000366819 3.63696e-22)
(1.50457 0.000385577 4.37619e-21)
(1.50248 0.000484062 -1.16145e-21)
(1.50054 0.000507603 7.07888e-21)
(1.49572 0.00049064 -1.55512e-21)
(1.49543 0.0022436 4.72045e-19)
(1.48423 0.0192527 5.83264e-18)
(0.747015 0.0419091 1.09707e-17)
(0.530953 0.0278852 9.14915e-18)
(0.51254 -0.00123541 6.1036e-18)
(0.519334 -0.0221606 2.85947e-18)
(0.541537 -0.0357442 1.59375e-18)
(0.563383 -0.0434288 -1.15149e-18)
(0.590002 -0.0471384 -4.64924e-19)
(0.614923 -0.0433476 -1.94675e-19)
(0.639114 -0.0395841 -2.33095e-19)
(0.661113 -0.0364599 -2.59899e-19)
(0.682034 -0.0328722 -2.79999e-19)
(0.701411 -0.0306998 -4.85095e-20)
(0.720164 -0.0283006 -3.07518e-19)
(0.738354 -0.025284 -4.73112e-19)
(0.754681 -0.0222885 -8.36783e-20)
(0.770364 -0.019844 1.35024e-19)
(0.784124 -0.0176556 -5.24668e-19)
(0.79676 -0.0153704 -7.86279e-19)
(0.807722 -0.0136504 2.02058e-19)
(0.817239 -0.0119492 5.30253e-19)
(0.825265 -0.0104256 -7.37071e-19)
(0.83211 -0.00887324 -1.26512e-18)
(0.837511 -0.00763182 1.81156e-19)
(0.842272 -0.00675567 9.06323e-19)
(0.846433 -0.00624278 -3.46771e-19)
(0.850163 -0.00571288 -1.25909e-18)
(0.853318 -0.00565826 -4.14738e-19)
(0.856471 -0.0058864 4.89381e-19)
(0.860449 -0.00648162 4.69368e-19)
(0.863263 -0.00634605 -4.79377e-19)
(0.866101 -0.00609638 -8.63886e-19)
(0.870378 -0.00616536 -2.54181e-19)
(0.873082 -0.00581975 5.66642e-19)
(0.875524 -0.00540012 1.76591e-19)
(0.880322 -0.00582879 -6.4196e-19)
(0.883113 -0.00578678 -4.04678e-19)
(0.885765 -0.00575848 4.001e-19)
(0.887715 -0.00516689 3.30873e-19)
(0.889333 -0.00450673 3.66081e-20)
(0.890133 -0.00485759 4.2797e-20)
(0.898076 -0.00561989 2.03141e-19)
(0.899481 -0.00547753 4.36052e-19)
(0.900484 -0.00448165 5.34538e-19)
(0.897085 -0.00378763 6.51716e-19)
(0.906557 -0.00530508 6.4873e-19)
(0.90912 -0.00508577 8.58066e-19)
(0.910457 -0.00421935 1.00939e-18)
(0.910692 -0.00393587 1.17508e-18)
(0.91959 -0.00543005 1.19701e-18)
(0.92221 -0.00488998 1.45092e-18)
(0.92722 -0.00477577 1.71918e-18)
(0.93152 -0.00471707 1.95798e-18)
(0.936282 -0.00485057 2.32499e-18)
(0.941765 -0.00544944 2.7297e-18)
(0.946433 -0.00505032 2.93339e-18)
(0.953641 -0.00398011 3.84064e-18)
(0.958383 -0.00355416 3.87218e-18)
(0.965209 -0.00297538 4.73794e-18)
(0.966636 -0.00343554 5.18303e-18)
(0.966106 -2.09482e-05 5.37526e-18)
(0.952426 0.00478459 5.39216e-18)
(0.924224 0.0131858 5.302e-18)
(0.871546 0.0390083 3.03653e-18)
(0.753082 0.0805029 4.85561e-18)
(0.62183 0.150657 -5.04245e-18)
(0.495201 0.193012 6.45999e-18)
(0.391876 0.200452 -9.35732e-18)
(0.316045 0.183948 1.41785e-17)
(0.251756 0.158352 -3.59102e-18)
(0.199932 0.147342 4.46176e-17)
(0.151553 0.134214 2.97697e-17)
(0.110047 0.133936 1.36561e-16)
(0.0664214 0.126155 1.43444e-16)
(0.0304992 0.148887 2.33614e-16)
(1.50314 5.16987e-07 1.56684e-22)
(1.50306 -3.76922e-06 7.95873e-22)
(1.50313 -2.3147e-06 7.54469e-22)
(1.50321 -1.442e-06 9.12795e-22)
(1.50334 -2.20607e-06 -1.46495e-22)
(1.50348 -6.69058e-07 -5.4929e-22)
(1.50366 8.04628e-07 9.58746e-23)
(1.50387 -1.15143e-06 5.13762e-22)
(1.50409 4.54681e-07 7.02155e-22)
(1.50433 3.95633e-06 1.28733e-23)
(1.50458 -2.43614e-06 -6.02487e-22)
(1.50487 2.98166e-07 1.2807e-22)
(1.50517 2.0478e-05 1.50574e-21)
(1.50544 1.33395e-05 2.84696e-21)
(1.50575 -1.80711e-05 4.90298e-21)
(1.50615 -4.63646e-06 4.17011e-21)
(1.50644 4.60926e-05 5.03681e-21)
(1.50673 3.36201e-05 5.08683e-21)
(1.50704 -2.63984e-05 1.88801e-21)
(1.50755 -4.53916e-05 5.84487e-21)
(1.50786 3.74779e-05 6.40414e-21)
(1.5081 6.9285e-05 7.66054e-21)
(1.50835 2.57243e-05 6.71609e-21)
(1.50866 -3.72429e-05 8.87287e-21)
(1.50927 -6.53483e-05 9.27875e-21)
(1.50961 -1.00811e-06 7.63345e-21)
(1.5098 6.51095e-05 8.77074e-21)
(1.50991 0.00010353 1.0126e-20)
(1.50996 8.62268e-05 8.25697e-21)
(1.51002 3.79587e-05 6.80724e-21)
(1.51011 2.99492e-05 7.53951e-21)
(1.51026 -5.75215e-06 7.78864e-21)
(1.51028 4.60138e-05 7.80184e-21)
(1.51013 9.69905e-05 7.40709e-21)
(1.50995 0.000154922 7.26341e-21)
(1.50971 0.000187367 7.65612e-21)
(1.50915 0.000300761 5.81088e-21)
(1.50812 0.000490712 9.70032e-21)
(1.50693 0.000576762 4.81773e-21)
(1.50557 0.000654121 1.67818e-21)
(1.50346 0.000759953 1.09802e-20)
(1.50165 0.000787844 -4.93419e-21)
(1.49675 0.00121129 5.72002e-20)
(1.49704 0.00383971 4.9039e-19)
(1.47913 0.0288714 5.02937e-18)
(0.753371 0.0719358 1.05387e-17)
(0.526604 0.0402388 8.72727e-18)
(0.510028 -0.00450423 5.86752e-18)
(0.521945 -0.0360995 2.90174e-18)
(0.547357 -0.0578565 1.58374e-18)
(0.575176 -0.0658948 -5.53982e-19)
(0.602114 -0.0702016 -2.60896e-19)
(0.628004 -0.065893 -2.27285e-19)
(0.653712 -0.0597026 -2.02161e-19)
(0.677648 -0.0547147 -1.95858e-19)
(0.699206 -0.0475195 -3.21476e-19)
(0.720705 -0.0428818 -1.9578e-19)
(0.73878 -0.0383828 -1.33044e-19)
(0.757026 -0.0336909 -2.83487e-19)
(0.772317 -0.0295797 -3.61765e-19)
(0.787096 -0.0260738 -1.16876e-19)
(0.799718 -0.0229875 -9.71821e-20)
(0.811444 -0.0198043 -4.86224e-19)
(0.821637 -0.0170468 -3.29692e-19)
(0.830455 -0.0144877 1.44084e-19)
(0.83783 -0.012454 -1.84568e-19)
(0.844125 -0.0106806 -7.31711e-19)
(0.849296 -0.00932629 -2.60881e-19)
(0.853734 -0.00843325 3.31536e-19)
(0.857659 -0.00766302 -1.45572e-19)
(0.861292 -0.00678631 -6.99323e-19)
(0.864408 -0.00620083 -4.05848e-19)
(0.867512 -0.00605921 1.0067e-19)
(0.871194 -0.00640752 1.49704e-19)
(0.873805 -0.0059761 -2.24289e-19)
(0.876576 -0.00559355 -5.04501e-19)
(0.880376 -0.00590299 -2.76754e-19)
(0.883054 -0.00547743 2.14902e-19)
(0.885356 -0.00500254 6.04768e-20)
(0.889522 -0.00554784 -3.61876e-19)
(0.892087 -0.00552792 -2.9703e-19)
(0.894321 -0.00540882 1.99956e-19)
(0.896023 -0.0045816 2.15457e-19)
(0.897597 -0.00402784 1.27873e-19)
(0.898169 -0.00448464 1.48517e-19)
(0.905678 -0.00558682 2.32687e-19)
(0.906712 -0.0053083 3.60563e-19)
(0.907471 -0.00414922 5.30897e-19)
(0.9047 -0.00361736 6.18688e-19)
(0.912678 -0.00536177 6.44841e-19)
(0.915384 -0.00509072 7.96612e-19)
(0.916519 -0.00401761 9.86821e-19)
(0.917097 -0.0040641 1.09107e-18)
(0.925392 -0.00570706 1.21234e-18)
(0.928045 -0.00516215 1.41721e-18)
(0.93257 -0.00513037 1.67922e-18)
(0.936894 -0.00495358 1.9113e-18)
(0.941038 -0.0050696 2.366e-18)
(0.946207 -0.00583557 2.74752e-18)
(0.95047 -0.00550283 3.0711e-18)
(0.956242 -0.003842 3.70539e-18)
(0.959253 -0.00348181 4.13325e-18)
(0.963256 -0.001863 4.6079e-18)
(0.955947 -0.00169669 5.11308e-18)
(0.946888 0.00447873 5.34342e-18)
(0.910749 0.0168871 5.09315e-18)
(0.84259 0.0363463 5.18876e-18)
(0.734145 0.0772898 1.53337e-18)
(0.59543 0.156218 4.83029e-18)
(0.467935 0.2126 -6.38991e-18)
(0.382987 0.251372 3.5574e-18)
(0.314949 0.252102 -9.90482e-18)
(0.264201 0.232709 1.08566e-17)
(0.217487 0.204446 -7.49571e-18)
(0.173728 0.189822 3.59379e-17)
(0.133262 0.173584 2.1319e-17)
(0.0969715 0.1739 1.08658e-16)
(0.0591992 0.167564 1.12899e-16)
(0.0310579 0.191111 1.55359e-16)
(1.50313 2.72087e-07 1.67642e-22)
(1.50306 -4.39309e-06 1.01609e-21)
(1.50313 -2.82022e-06 -7.48243e-22)
(1.50321 -1.99644e-06 5.31387e-22)
(1.50333 -2.7486e-06 2.50364e-22)
(1.50348 -9.59076e-07 1.69179e-21)
(1.50366 8.49913e-07 4.2479e-22)
(1.50387 -1.46683e-06 5.36263e-22)
(1.50408 1.15699e-06 -3.19459e-22)
(1.50433 4.8927e-06 -6.28757e-22)
(1.50458 -1.60741e-06 -2.07669e-21)
(1.50487 1.24138e-06 3.9651e-21)
(1.50515 2.43866e-05 2.76973e-21)
(1.50545 1.39271e-05 3.89403e-21)
(1.50577 -1.61032e-05 2.10775e-21)
(1.50611 -1.29728e-06 3.32558e-21)
(1.50641 4.27932e-05 7.78752e-21)
(1.50677 3.22512e-05 8.63304e-21)
(1.50711 -2.61041e-05 8.10163e-21)
(1.50747 -4.27369e-05 2.48174e-21)
(1.50777 4.24542e-05 5.78852e-21)
(1.50811 9.07068e-05 7.22457e-21)
(1.5085 4.00768e-05 5.90956e-21)
(1.50883 -5.03595e-05 7.55321e-21)
(1.50919 -6.72623e-05 9.00989e-21)
(1.50947 -5.01953e-06 9.95416e-21)
(1.50969 8.30615e-05 8.55585e-21)
(1.5099 0.000120686 6.32757e-21)
(1.51011 0.000106711 6.85313e-21)
(1.51028 4.76863e-05 9.90127e-21)
(1.51039 2.45415e-05 8.5052e-21)
(1.51047 1.25898e-05 7.56486e-21)
(1.51047 4.43477e-05 8.09818e-21)
(1.51035 0.000123046 6.55487e-21)
(1.51025 0.000207588 5.20003e-21)
(1.51003 0.000272255 7.33555e-21)
(1.50968 0.000401092 6.27094e-21)
(1.50912 0.000611985 5.16939e-21)
(1.50849 0.000711391 5.483e-21)
(1.50751 0.000873733 3.24482e-21)
(1.50574 0.00102233 7.49746e-21)
(1.50402 0.0010352 -1.38892e-21)
(1.50031 0.00192127 2.69217e-20)
(1.50017 0.00544972 4.66822e-19)
(1.48013 0.0403431 4.63889e-18)
(0.785519 0.112343 1.0388e-17)
(0.529077 0.0540378 8.76461e-18)
(0.509417 -0.0113348 6.08824e-18)
(0.539544 -0.0553837 3.07692e-18)
(0.562013 -0.084966 1.52992e-18)
(0.598984 -0.0925868 1.91682e-19)
(0.627774 -0.0935641 -1.39795e-20)
(0.65494 -0.0877198 -1.63718e-19)
(0.680931 -0.0788503 -2.2992e-19)
(0.705501 -0.0724888 -1.91141e-19)
(0.726218 -0.0630138 -2.33124e-19)
(0.748011 -0.0572725 -2.75847e-19)
(0.764627 -0.0504812 -2.35675e-19)
(0.78306 -0.044199 -1.68512e-19)
(0.797456 -0.0384858 -2.61849e-19)
(0.81123 -0.0337297 -2.94077e-19)
(0.823231 -0.0295669 -1.1905e-19)
(0.834397 -0.0251685 -2.1641e-19)
(0.84413 -0.0221698 -3.50486e-19)
(0.852091 -0.0185255 -1.74068e-19)
(0.859097 -0.0159362 -9.81692e-20)
(0.864637 -0.0135832 -3.73589e-19)
(0.869473 -0.0119539 -3.42523e-19)
(0.873379 -0.0107451 -6.36022e-20)
(0.876783 -0.009798 -1.20425e-19)
(0.879851 -0.00934171 -3.10497e-19)
(0.882473 -0.00907621 -3.27485e-19)
(0.885156 -0.00919457 -1.11168e-19)
(0.888276 -0.00962712 -3.87518e-20)
(0.89057 -0.00919633 -1.53413e-19)
(0.893016 -0.00901625 -2.73874e-19)
(0.896111 -0.00960833 -2.26443e-19)
(0.898597 -0.00922747 1.6642e-20)
(0.90046 -0.00882912 -4.46523e-20)
(0.903839 -0.00934049 -1.78443e-19)
(0.905996 -0.0093358 -2.01522e-19)
(0.907724 -0.00894567 6.695e-20)
(0.908922 -0.00804274 1.46849e-19)
(0.910656 -0.00732834 1.50824e-19)
(0.911175 -0.00765901 1.93911e-19)
(0.917547 -0.00890898 2.56847e-19)
(0.918056 -0.00863918 3.55897e-19)
(0.918628 -0.00742317 5.00133e-19)
(0.91637 -0.00680127 5.7149e-19)
(0.922408 -0.00838876 6.34339e-19)
(0.925314 -0.00815365 7.64559e-19)
(0.926306 -0.00707787 9.66297e-19)
(0.926737 -0.00728365 1.05482e-18)
(0.934473 -0.00863454 1.23615e-18)
(0.936843 -0.00793944 1.3814e-18)
(0.94046 -0.00731017 1.66468e-18)
(0.944209 -0.00749617 1.93547e-18)
(0.947622 -0.00763289 2.36594e-18)
(0.951883 -0.00769303 2.74102e-18)
(0.955225 -0.00664049 3.13531e-18)
(0.959599 -0.00426796 3.61609e-18)
(0.95612 -0.0044922 4.12433e-18)
(0.955558 -0.000557453 4.50274e-18)
(0.932233 0.00574126 5.02262e-18)
(0.898318 0.0178277 5.21681e-18)
(0.824311 0.0470204 4.43763e-18)
(0.705267 0.0892186 4.67883e-18)
(0.569149 0.168038 -2.80983e-19)
(0.443369 0.232756 4.19277e-18)
(0.357345 0.272747 -5.48877e-18)
(0.30426 0.294955 2.97572e-18)
(0.256688 0.287791 -1.00817e-17)
(0.221369 0.262542 8.15902e-18)
(0.185004 0.237844 -1.04878e-17)
(0.150635 0.223316 2.76389e-17)
(0.118321 0.207221 1.42865e-17)
(0.0875319 0.208975 7.80214e-17)
(0.0556221 0.204076 7.61377e-17)
(0.0336744 0.226384 9.31915e-17)
(1.50313 3.14088e-07 6.61006e-22)
(1.50306 -5.12076e-06 -4.39269e-22)
(1.50313 -3.68361e-06 7.74037e-22)
(1.50321 -3.29614e-06 -2.251e-21)
(1.50333 -2.21274e-06 -2.43097e-21)
(1.50348 -1.15718e-06 -3.45181e-21)
(1.50366 2.02506e-07 -3.70158e-22)
(1.50386 -1.24679e-06 3.03152e-21)
(1.50408 1.52243e-06 -3.25806e-21)
(1.50432 4.79089e-06 -1.02713e-21)
(1.50459 2.62562e-07 2.50778e-21)
(1.50486 8.88418e-07 -4.44368e-21)
(1.50513 2.43118e-05 -7.01643e-23)
(1.50547 1.78453e-05 5.54141e-21)
(1.50578 -1.56461e-05 2.82881e-21)
(1.50608 1.34435e-06 3.39956e-21)
(1.50638 4.54555e-05 -1.15449e-21)
(1.50683 3.85192e-05 9.29867e-21)
(1.50716 -2.77513e-05 3.75105e-21)
(1.50741 -2.82903e-05 4.43209e-21)
(1.50767 3.45338e-05 6.34572e-21)
(1.50814 7.92488e-05 7.98966e-21)
(1.50864 3.90543e-05 9.8031e-21)
(1.50894 -5.09757e-05 8.56866e-21)
(1.50916 -5.72125e-05 1.05462e-20)
(1.50931 1.55526e-05 1.07381e-20)
(1.50951 7.64763e-05 9.05096e-21)
(1.50993 0.000145692 6.75458e-21)
(1.51033 9.99802e-05 5.81635e-21)
(1.51053 4.23922e-05 3.84955e-21)
(1.51064 2.95481e-05 5.42267e-21)
(1.51069 3.04337e-05 4.12873e-21)
(1.51072 4.54005e-05 5.36126e-21)
(1.51064 0.000130264 4.20785e-21)
(1.51062 0.000200231 3.95392e-21)
(1.51056 0.000282281 4.15372e-21)
(1.51066 0.000498422 4.65892e-21)
(1.51065 0.000707473 3.39858e-21)
(1.51047 0.00078034 3.16301e-21)
(1.51003 0.000944231 1.76888e-21)
(1.50884 0.00127091 5.10986e-21)
(1.50741 0.0015236 -4.59254e-21)
(1.50539 0.00262382 1.48734e-21)
(1.50386 0.00692523 3.8995e-19)
(1.48304 0.0511088 4.48789e-18)
(0.876883 0.157138 1.02988e-17)
(0.539568 0.0648779 9.16583e-18)
(0.518733 -0.0260975 6.64525e-18)
(0.570082 -0.0841831 3.56007e-18)
(0.593537 -0.11858 2.12248e-18)
(0.634345 -0.12934 8.58023e-19)
(0.665367 -0.126679 2.17944e-19)
(0.694624 -0.117383 7.58628e-21)
(0.721365 -0.102546 -1.36137e-19)
(0.747017 -0.0911957 -1.98905e-19)
(0.766952 -0.0780406 -2.06409e-19)
(0.789131 -0.0694307 -2.17853e-19)
(0.803219 -0.0595327 -2.63235e-19)
(0.822171 -0.0507171 -2.35871e-19)
(0.834661 -0.0440606 -1.67228e-19)
(0.84828 -0.0374564 -2.11629e-19)
(0.857553 -0.0324566 -1.91125e-19)
(0.869608 -0.0265688 -1.48555e-19)
(0.876826 -0.0230716 -2.00879e-19)
(0.884495 -0.0182935 -2.36594e-19)
(0.890533 -0.0161268 -1.87329e-19)
(0.894438 -0.0134916 -2.32651e-19)
(0.898533 -0.0120505 -2.84115e-19)
(0.901278 -0.0110249 -1.98524e-19)
(0.903806 -0.0101136 -1.93827e-19)
(0.90594 -0.00950757 -1.85327e-19)
(0.90788 -0.00884099 -2.3296e-19)
(0.909889 -0.0088838 -1.81707e-19)
(0.911934 -0.00918505 -1.49707e-19)
(0.913795 -0.00884299 -1.55584e-19)
(0.915613 -0.00884474 -1.68945e-19)
(0.91766 -0.0091507 -1.53013e-19)
(0.91977 -0.00866745 -1.26687e-19)
(0.920933 -0.00841403 -1.1392e-19)
(0.923158 -0.00877899 -8.84605e-20)
(0.924725 -0.0086789 -8.81544e-20)
(0.925857 -0.00827003 2.5825e-21)
(0.926621 -0.00748126 3.29712e-20)
(0.928224 -0.0068904 1.68171e-19)
(0.928624 -0.0072777 2.16396e-19)
(0.933275 -0.00858307 2.72917e-19)
(0.933485 -0.00830884 3.4588e-19)
(0.933965 -0.00704744 4.56838e-19)
(0.93221 -0.00666797 5.19797e-19)
(0.935956 -0.00817757 5.93166e-19)
(0.939127 -0.00782335 7.30681e-19)
(0.939985 -0.0069899 9.12786e-19)
(0.939864 -0.0072401 1.03016e-18)
(0.946293 -0.00856701 1.22455e-18)
(0.948249 -0.0082995 1.36427e-18)
(0.950417 -0.007636 1.69781e-18)
(0.952906 -0.00816262 1.97448e-18)
(0.954926 -0.00777176 2.20916e-18)
(0.957426 -0.00735363 2.73275e-18)
(0.956664 -0.00721147 3.17189e-18)
(0.959626 -0.00290062 3.47986e-18)
(0.942071 -0.000833771 4.08661e-18)
(0.928398 0.00870679 4.44595e-18)
(0.877812 0.0267799 4.77328e-18)
(0.795091 0.0503877 4.78548e-18)
(0.679876 0.105728 3.23696e-18)
(0.542171 0.183953 4.00571e-18)
(0.419127 0.246171 -1.25691e-18)
(0.340707 0.293251 2.85274e-18)
(0.287091 0.317328 -4.63041e-18)
(0.250844 0.327352 2.53401e-18)
(0.217521 0.315037 -8.94503e-18)
(0.192585 0.290387 5.0888e-18)
(0.162981 0.267285 -1.16801e-17)
(0.134644 0.250758 2.07736e-17)
(0.107488 0.235974 9.86284e-18)
(0.0814875 0.238803 4.69208e-17)
(0.0542736 0.235706 4.36992e-17)
(0.0370934 0.25661 4.94622e-17)
(1.50312 2.68006e-08 1.11922e-21)
(1.50306 -5.84501e-06 -7.26168e-22)
(1.50313 -4.65989e-06 -2.14508e-22)
(1.50321 -4.18644e-06 -4.32979e-21)
(1.50333 -1.59746e-06 6.65757e-21)
(1.50348 -1.57268e-06 4.5242e-21)
(1.50366 -6.58912e-07 6.01e-22)
(1.50386 -8.72703e-07 5.9233e-21)
(1.50408 1.59932e-06 -1.74424e-21)
(1.50432 5.88625e-06 -8.39132e-23)
(1.50459 2.23518e-06 1.56844e-21)
(1.50486 4.36734e-06 6.36957e-21)
(1.50512 2.32031e-05 1.13094e-20)
(1.50549 1.97217e-05 2.37332e-21)
(1.50579 -7.73097e-06 -1.98099e-21)
(1.50605 1.21019e-05 4.93698e-21)
(1.50634 3.85521e-05 1.05452e-20)
(1.50688 2.7648e-05 6.56865e-21)
(1.50719 -2.31612e-05 7.52408e-21)
(1.5074 -6.17303e-07 1.4218e-20)
(1.5076 3.40214e-05 1.04226e-20)
(1.50815 6.1538e-05 9.52738e-21)
(1.50873 2.85016e-05 8.89822e-21)
(1.50899 -3.19078e-05 8.79868e-21)
(1.50917 -5.08107e-05 4.38391e-21)
(1.50925 3.65332e-05 5.35322e-21)
(1.50935 9.19341e-05 4.98188e-21)
(1.51001 0.000120838 6.53224e-21)
(1.51053 8.24413e-05 4.95565e-21)
(1.51073 5.4026e-05 9.53257e-22)
(1.51086 5.57851e-05 2.77982e-21)
(1.51094 7.20248e-05 3.51016e-21)
(1.51097 8.31626e-05 3.96007e-21)
(1.51093 0.000125356 2.42221e-21)
(1.51098 0.000201705 8.23744e-22)
(1.51108 0.00029942 5.05851e-22)
(1.51165 0.000471925 3.99726e-23)
(1.5124 0.000608632 -8.11662e-23)
(1.51279 0.000750694 6.41599e-22)
(1.51299 0.000935309 -1.29353e-21)
(1.51312 0.00129164 5.53894e-21)
(1.51307 0.00151029 -1.18853e-20)
(1.51344 0.00272386 -2.43212e-21)
(1.51388 0.00711264 3.7182e-19)
(1.49753 0.0582498 4.37164e-18)
(1.03152 0.193245 1.03503e-17)
(0.56688 0.0719906 1.08737e-17)
(0.540659 -0.0532368 8.1091e-18)
(0.623255 -0.117557 4.68947e-18)
(0.654159 -0.1523 3.46633e-18)
(0.697235 -0.159346 2.05525e-18)
(0.727839 -0.147718 7.13657e-19)
(0.755823 -0.13402 3.32296e-19)
(0.775846 -0.117229 3.53226e-20)
(0.799389 -0.103647 -1.06932e-19)
(0.816236 -0.0896419 -1.90478e-19)
(0.83652 -0.0785178 -2.12516e-19)
(0.845699 -0.0660405 -2.52977e-19)
(0.865072 -0.0576365 -2.53318e-19)
(0.872125 -0.049235 -2.14099e-19)
(0.887253 -0.0419277 -2.01165e-19)
(0.890339 -0.0349869 -1.76784e-19)
(0.904547 -0.0292978 -1.61256e-19)
(0.907211 -0.024662 -1.68936e-19)
(0.915458 -0.0208851 -2.19631e-19)
(0.919084 -0.017734 -2.45967e-19)
(0.92204 -0.0155551 -2.48005e-19)
(0.924985 -0.0139408 -2.63481e-19)
(0.926657 -0.0126106 -2.46786e-19)
(0.928438 -0.0114713 -2.26239e-19)
(0.929632 -0.0107984 -1.97276e-19)
(0.931102 -0.0106691 -2.01095e-19)
(0.932438 -0.0107569 -1.93047e-19)
(0.933642 -0.0107866 -1.75816e-19)
(0.935349 -0.0104883 -1.80695e-19)
(0.936474 -0.0103776 -1.71521e-19)
(0.93767 -0.0105333 -1.57926e-19)
(0.939674 -0.0103347 -1.49706e-19)
(0.940042 -0.010189 -1.17218e-19)
(0.941483 -0.0104425 -9.4502e-20)
(0.942536 -0.0103503 -8.06976e-20)
(0.943185 -0.00996823 -9.98804e-21)
(0.943611 -0.00928708 2.6795e-22)
(0.944773 -0.00883562 1.5409e-19)
(0.94479 -0.00913143 2.17577e-19)
(0.947922 -0.0101647 2.5101e-19)
(0.947843 -0.010039 3.23486e-19)
(0.948385 -0.00916915 4.40408e-19)
(0.946479 -0.00854429 5.12823e-19)
(0.948566 -0.00954953 6.07149e-19)
(0.951367 -0.00946514 7.61948e-19)
(0.951783 -0.00936261 8.74917e-19)
(0.950784 -0.00952968 1.0744e-18)
(0.955559 -0.00967213 1.16195e-18)
(0.956024 -0.00944993 1.29906e-18)
(0.957708 -0.00863474 1.66359e-18)
(0.957387 -0.00914773 2.00066e-18)
(0.956753 -0.00925861 2.27535e-18)
(0.956432 -0.00720622 2.64684e-18)
(0.945995 -0.00482001 3.0826e-18)
(0.942548 0.00391874 3.4455e-18)
(0.903361 0.0134136 3.96346e-18)
(0.858304 0.0301236 4.1983e-18)
(0.767718 0.0684936 4.09203e-18)
(0.64484 0.12369 3.95023e-18)
(0.51469 0.200552 1.68321e-18)
(0.398515 0.263095 2.95528e-18)
(0.325129 0.308451 -1.17357e-18)
(0.276268 0.337045 2.12008e-18)
(0.239675 0.347719 -3.65856e-18)
(0.21178 0.347739 2.40064e-18)
(0.18787 0.331638 -7.68788e-18)
(0.168576 0.307609 3.04909e-18)
(0.144093 0.288082 -1.18778e-17)
(0.121891 0.273017 1.55424e-17)
(0.0993491 0.260679 6.89511e-18)
(0.0776563 0.265005 2.45527e-17)
(0.0541037 0.263791 2.23505e-17)
(0.0407879 0.282792 2.39273e-17)
(1.50312 -3.46173e-08 -3.47224e-21)
(1.50305 -6.56339e-06 -2.67885e-21)
(1.50312 -5.3759e-06 -2.36611e-21)
(1.5032 -4.26277e-06 -2.18405e-21)
(1.50332 -2.22458e-06 -3.54714e-21)
(1.50347 -1.93917e-06 1.21895e-21)
(1.50366 -1.2807e-06 1.92464e-21)
(1.50385 2.21194e-07 -4.89864e-21)
(1.50408 1.85653e-06 -9.69806e-23)
(1.50431 5.86246e-06 4.4946e-22)
(1.50459 4.86629e-06 2.96936e-21)
(1.50485 8.37669e-06 6.34164e-21)
(1.5051 1.99208e-05 1.60218e-20)
(1.5055 1.92481e-05 2.29471e-20)
(1.5058 1.4977e-06 2.26894e-20)
(1.50603 1.87955e-05 1.34805e-20)
(1.50631 3.29848e-05 1.66238e-20)
(1.5069 2.76476e-05 9.78311e-21)
(1.50721 -5.39325e-06 1.51051e-20)