/*--------------------------------*- C++ -*----------------------------------*\
| =========                 |                                                 |
| \\      /  F ield         | OpenFOAM: The Open Source CFD Toolbox           |
|  \\    /   O peration     | Version:  2.2.x                                 |
|   \\  /    A nd           | Web:      www.OpenFOAM.org                      |
|    \\/     M anipulation  |                                                 |
\*---------------------------------------------------------------------------*/
FoamFile
{
    version     2.0;
    format      ascii;
    class       volScalarField;
    location    "1.55";
    object      rho;
}
// * * * * * * * * * * * * * * * * * * * * * * * * * * * * * * * * * * * * * //

dimensions      [1 -3 0 0 0 0 0];

internalField   nonuniform List<scalar> 
14161
(
0.993989
0.993992
0.993942
0.993903
0.993791
0.99367
0.993532
0.993377
0.993208
0.993062
0.992897
0.992707
0.992538
0.992395
0.992248
0.992078
0.991915
0.991789
0.991681
0.99159
0.991507
0.991435
0.991361
0.991299
0.991286
0.991299
0.991328
0.99139
0.991473
0.991564
0.991668
0.991783
0.991908
0.992045
0.992172
0.992378
0.992619
0.992811
0.992932
0.993117
0.993359
0.993573
0.993498
0.993737
0.992527
0.995426
1.00752
1.29641
2.2754
2.54258
2.47073
2.4318
2.422
2.41203
2.40086
2.39361
2.38287
2.37457
2.35976
2.345
2.33289
2.31904
2.30492
2.29179
2.27981
2.26915
2.26007
2.25278
2.24736
2.24211
2.23773
2.2321
2.22619
2.2191
2.21194
2.20517
2.20244
2.20361
2.20699
2.2231
2.25326
2.28292
2.3041
2.32448
2.34638
2.36496
2.37327
2.38125
2.38416
2.38475
2.38058
2.38349
2.39995
2.43669
2.48439
2.55153
2.64124
2.727
2.81275
2.87557
2.92232
2.96123
2.99539
3.02832
3.05571
3.08017
3.0995
3.11844
3.13075
3.14448
3.15582
3.17005
3.18255
3.20302
3.20907
3.21269
3.219
3.2178
3.20967
0.993995
0.993984
0.99393
0.993888
0.993779
0.993679
0.993541
0.993374
0.993191
0.993026
0.992874
0.992734
0.992572
0.992387
0.992206
0.992052
0.991915
0.991809
0.991698
0.99158
0.991487
0.991432
0.991377
0.991317
0.991286
0.991292
0.991314
0.99136
0.991435
0.991544
0.991671
0.991818
0.991978
0.992152
0.992298
0.992511
0.99279
0.993037
0.993226
0.993493
0.993707
0.99372
0.993504
0.992952
0.990906
0.990556
0.98846
1.50159
2.46884
2.57009
2.55297
2.51962
2.51135
2.49094
2.47476
2.45967
2.43805
2.41986
2.39227
2.36683
2.3447
2.32005
2.29856
2.27923
2.26288
2.24831
2.23545
2.22475
2.21509
2.20547
2.19822
2.1909
2.18234
2.17265
2.1606
2.14756
2.1392
2.13423
2.13707
2.16169
2.19749
2.22613
2.2454
2.26601
2.28793
2.31099
2.3325
2.36733
2.42078
2.46296
2.51881
2.56969
2.62565
2.67854
2.72486
2.76706
2.8058
2.8524
2.89423
2.92698
2.95857
2.98776
3.01433
3.03807
3.06019
3.08087
3.1004
3.11927
3.13338
3.14356
3.15315
3.16822
3.18259
3.20476
3.21423
3.22202
3.23017
3.22931
3.21968
0.994003
0.993983
0.99393
0.99389
0.993781
0.993666
0.993533
0.993378
0.993204
0.993035
0.992866
0.992692
0.992541
0.992409
0.992246
0.992063
0.991902
0.991777
0.991662
0.991567
0.99149
0.991429
0.991365
0.991297
0.991261
0.991262
0.991279
0.991317
0.991375
0.991459
0.991567
0.991676
0.991794
0.991905
0.992031
0.992153
0.992302
0.992512
0.992774
0.992998
0.993324
0.993734
0.994322
0.995416
0.995407
1.00012
0.994819
1.7113
2.52138
2.69625
2.71836
2.68559
2.66945
2.63898
2.60854
2.58182
2.54992
2.52295
2.49013
2.45843
2.42836
2.39778
2.37181
2.34783
2.32623
2.30686
2.29609
2.28339
2.27078
2.25987
2.24785
2.23432
2.22255
2.21149
2.20221
2.19349
2.18901
2.1883
2.18979
2.20137
2.23014
2.27458
2.31475
2.36957
2.4247
2.48161
2.52994
2.59572
2.67983
2.73284
2.78296
2.8148
2.84378
2.86158
2.88159
2.89241
2.90542
2.92411
2.93661
2.95086
2.9675
2.9823
2.99683
3.01209
3.02678
3.04364
3.06282
3.08086
3.09473
3.10865
3.12533
3.1442
3.16258
3.19202
3.20329
3.2138
3.22183
3.22459
3.21476
0.994008
0.99398
0.993923
0.993887
0.993777
0.993657
0.993516
0.993363
0.993199
0.993052
0.99289
0.9927
0.992524
0.992365
0.992212
0.992053
0.991908
0.99179
0.991682
0.991568
0.991468
0.991403
0.991336
0.991272
0.991261
0.991278
0.991308
0.991362
0.991445
0.99157
0.991709
0.991859
0.992022
0.992171
0.992384
0.992653
0.992944
0.99322
0.993492
0.993669
0.993946
0.994396
0.994695
0.995171
0.995261
0.995466
0.983153
1.75805
2.55298
2.7293
2.76983
2.74226
2.71537
2.67431
2.64022
2.60848
2.57122
2.54178
2.50582
2.46845
2.43795
2.40519
2.37596
2.35431
2.33685
2.32182
2.30682
2.29234
2.2793
2.26745
2.25696
2.2502
2.24323
2.2342
2.22367
2.20876
2.20088
2.19886
2.20797
2.24627
2.28697
2.33414
2.38131
2.41952
2.46187
2.54687
2.64314
2.72044
2.78907
2.84088
2.87614
2.89539
2.90162
2.90476
2.91437
2.92389
2.93259
2.9425
2.95135
2.96188
2.97202
2.97963
2.98979
3.00268
3.01698
3.02738
3.0411
3.05606
3.07266
3.09095
3.11131
3.13199
3.15362
3.18079
3.18818
3.20006
3.21736
3.22103
3.20964
0.994021
0.993984
0.993921
0.993886
0.993775
0.993654
0.993514
0.993361
0.993193
0.993043
0.992883
0.9927
0.992523
0.992376
0.992217
0.992044
0.991884
0.991761
0.991654
0.991556
0.991471
0.9914
0.991326
0.99125
0.991221
0.991224
0.99124
0.991278
0.991335
0.991406
0.991488
0.991569
0.991657
0.99174
0.991787
0.9918
0.991898
0.992124
0.992335
0.992585
0.992736
0.992939
0.993469
0.994421
0.995691
0.995216
0.980517
1.77818
2.56748
2.73985
2.78964
2.76193
2.73104
2.69351
2.65502
2.61771
2.57688
2.54344
2.50631
2.47248
2.43517
2.39777
2.36973
2.3426
2.31787
2.29797
2.28492
2.27276
2.26029
2.25089
2.24133
2.22875
2.21536
2.20309
2.19246
2.18477
2.18518
2.18686
2.19545
2.21259
2.24489
2.3044
2.36712
2.44703
2.52794
2.60679
2.66443
2.71515
2.75444
2.79014
2.82187
2.86623
2.89603
2.91349
2.92917
2.94347
2.94765
2.95297
2.96221
2.97202
2.9802
2.98546
2.98937
2.99662
3.00738
3.01864
3.03216
3.04607
3.06238
3.0784
3.10046
3.1196
3.14053
3.16088
3.173
3.19944
3.21479
3.21689
3.20514
0.994025
0.993983
0.993915
0.993879
0.993769
0.99365
0.99351
0.993357
0.993192
0.993031
0.992864
0.992681
0.992512
0.992369
0.992228
0.992047
0.991879
0.991746
0.991635
0.991539
0.99146
0.991392
0.991325
0.991246
0.99121
0.991218
0.991245
0.991298
0.991384
0.991526
0.991676
0.991834
0.992013
0.99222
0.992398
0.992601
0.992914
0.993324
0.993681
0.994
0.994271
0.994566
0.995309
0.996065
0.997128
0.99658
0.983845
1.78281
2.55038
2.74954
2.77306
2.72651
2.67932
2.64805
2.60193
2.56272
2.52221
2.49065
2.4548
2.43015
2.3964
2.35786
2.33831
2.31491
2.28932
2.27419
2.26215
2.2493
2.23647
2.22751
2.2202
2.21327
2.20683
2.1988
2.1895
2.17607
2.16255
2.15744
2.16574
2.19965
2.25386
2.31926
2.37748
2.42471
2.48159
2.54756
2.60517
2.66255
2.70475
2.75102
2.78396
2.83245
2.86337
2.88445
2.91002
2.93215
2.94594
2.9609
2.97028
2.97627
2.98071
2.98659
2.99204
2.99803
3.00441
3.01266
3.02485
3.0379
3.05315
3.06696
3.08572
3.10313
3.12703
3.15372
3.17419
3.20261
3.2121
3.21119
3.19914
0.994042
0.993989
0.993912
0.993876
0.993767
0.993651
0.993511
0.993356
0.993192
0.993019
0.992852
0.992674
0.992504
0.992364
0.992218
0.992041
0.991873
0.991734
0.991619
0.991512
0.991431
0.991364
0.991297
0.991222
0.991163
0.991147
0.991156
0.991174
0.991203
0.991258
0.991336
0.991394
0.991447
0.991474
0.991482
0.991461
0.991511
0.991623
0.991704
0.991754
0.991846
0.991984
0.992229
0.992796
0.993096
0.994619
0.987412
1.72364
2.48193
2.699
2.71003
2.64661
2.5915
2.56109
2.52502
2.48884
2.45977
2.44017
2.41644
2.39512
2.37595
2.34036
2.32186
2.30145
2.28103
2.26857
2.24958
2.23932
2.2316
2.22683
2.2226
2.21489
2.20638
2.19586
2.18647
2.17869
2.17867
2.18098
2.18594
2.20155
2.22754
2.30373
2.35841
2.42618
2.4806
2.51792
2.55922
2.57812
2.6005
2.6457
2.68549
2.73968
2.79974
2.84731
2.88876
2.91641
2.93472
2.95183
2.96303
2.97368
2.98453
2.99048
2.99564
2.99796
2.99991
3.00674
3.01628
3.02461
3.03721
3.05201
3.07633
3.10109
3.12756
3.15692
3.17889
3.20504
3.20856
3.20291
3.1947
0.994044
0.99399
0.993908
0.993873
0.993763
0.993643
0.9935
0.993349
0.993185
0.993013
0.992854
0.992684
0.992498
0.992336
0.992194
0.992031
0.991869
0.991731
0.991608
0.991491
0.991406
0.991341
0.991277
0.991207
0.991153
0.991152
0.99117
0.991212
0.991282
0.991397
0.991555
0.991709
0.991881
0.99207
0.992242
0.992474
0.992822
0.993253
0.99362
0.99393
0.994279
0.994521
0.995039
0.994959
0.995078
0.994236
0.994966
1.52483
2.37822
2.6306
2.61762
2.54507
2.50727
2.4743
2.45527
2.42784
2.40305
2.39213
2.37416
2.35462
2.33744
2.30774
2.29236
2.25419
2.24823
2.24047
2.22156
2.21186
2.20478
2.19467
2.18911
2.18382
2.18084
2.17688
2.17133
2.16108
2.15078
2.14867
2.15476
2.17825
2.20924
2.30207
2.35823
2.40696
2.44231
2.4651
2.48351
2.48672
2.50228
2.53485
2.57649
2.62457
2.69382
2.75754
2.82829
2.88161
2.91766
2.94584
2.95845
2.96667
2.97667
2.98119
2.98884
2.99392
2.99843
3.00391
3.00872
3.01621
3.03147
3.04998
3.07755
3.10398
3.1315
3.16283
3.18311
3.20334
3.20163
3.19654
3.19035
0.994059
0.993996
0.993906
0.99387
0.99376
0.993641
0.993496
0.993348
0.993185
0.993004
0.992839
0.992676
0.992494
0.992325
0.992173
0.992013
0.991856
0.991718
0.991595
0.991473
0.991372
0.991296
0.991229
0.991154
0.991095
0.991065
0.991058
0.991062
0.991077
0.991114
0.991159
0.991177
0.99119
0.991188
0.991146
0.991064
0.991033
0.99098
0.990875
0.990683
0.990399
0.989807
0.989462
0.988762
0.987965
0.988266
1.00009
1.18689
1.97652
2.6227
2.53249
2.47026
2.42073
2.38817
2.38479
2.37307
2.35256
2.34641
2.31129
2.30938
2.29886
2.26785
2.2504
2.21839
2.20748
2.19968
2.19137
2.17479
2.16914
2.15975
2.15722
2.1523
2.1462
2.13917
2.13085
2.12262
2.11417
2.11441
2.12219
2.13068
2.19302
2.26904
2.32832
2.35924
2.42906
2.42841
2.41552
2.42395
2.44456
2.46342
2.49239
2.53018
2.5819
2.65742
2.73393
2.81659
2.88046
2.92053
2.94539
2.95613
2.97074
2.97822
2.98633
2.9874
2.98642
2.98896
2.99304
3.00313
3.02278
3.04588
3.07524
3.10219
3.13213
3.16324
3.18182
3.19465
3.19273
3.19574
3.18685
0.994062
0.993998
0.993904
0.993867
0.993758
0.993637
0.993491
0.993342
0.99318
0.992996
0.992828
0.992669
0.992485
0.992312
0.992161
0.991998
0.991837
0.991696
0.991573
0.991452
0.991347
0.991265
0.991196
0.991128
0.991061
0.991047
0.991058
0.99109
0.991146
0.991248
0.99137
0.991498
0.991651
0.991824
0.991982
0.992196
0.992512
0.992933
0.993314
0.993631
0.994018
0.994309
0.994988
0.995079
0.996092
0.995527
1.00484
1.05498
1.63503
2.77847
2.61107
2.503
2.43207
2.38502
2.35666
2.33224
2.31779
2.30358
2.2766
2.27953
2.26036
2.24243
2.20508
2.18932
2.16477
2.16696
2.15269
2.14666
2.13881
2.13326
2.12689
2.12201
2.11681
2.11094
2.10507
2.09542
2.08596
2.07723
2.08345
2.09642
2.1796
2.24305
2.30761
2.36962
2.36167
2.34345
2.37974
2.41088
2.40409
2.40649
2.42252
2.45082
2.48537
2.55889
2.62388
2.71214
2.81133
2.88183
2.92744
2.94284
2.95976
2.96717
2.97946
2.9818
2.98059
2.97986
2.97949
2.98825
3.00797
3.03882
3.07483
3.09997
3.13036
3.15874
3.17637
3.18569
3.19091
3.19667
3.18741
0.994075
0.994004
0.993904
0.993865
0.993755
0.993635
0.993488
0.993334
0.993176
0.99299
0.992818
0.99266
0.99248
0.992297
0.992141
0.991979
0.991816
0.991673
0.991547
0.99142
0.991309
0.991218
0.991139
0.991059
0.990979
0.990936
0.990914
0.990908
0.99091
0.990922
0.990944
0.99094
0.990928
0.990891
0.990806
0.990678
0.990572
0.990459
0.990298
0.990003
0.989423
0.988618
0.98838
0.987072
0.986901
0.986006
0.994021
1.02324
1.81568
2.66866
2.5789
2.47208
2.39484
2.34531
2.31425
2.29203
2.27966
2.26713
2.25247
2.25346
2.2384
2.22274
2.18351
2.16794
2.14656
2.14794
2.13531
2.12917
2.12078
2.1176
2.11077
2.10744
2.10349
2.09891
2.09177
2.08149
2.07056
2.05634
2.06642
2.08344
2.16933
2.24493
2.3194
2.32265
2.2849
2.31797
2.3585
2.33765
2.33216
2.37405
2.40928
2.4305
2.43654
2.47043
2.51981
2.60245
2.70741
2.81001
2.892
2.92568
2.94683
2.95792
2.97397
2.97385
2.97198
2.96565
2.95997
2.96782
2.98555
3.02191
3.06365
3.09181
3.12209
3.1463
3.16567
3.17831
3.18989
3.19782
3.1874
0.994079
0.994007
0.993903
0.993864
0.993752
0.993631
0.993482
0.993328
0.99317
0.992984
0.992808
0.992651
0.992468
0.992284
0.992124
0.991963
0.991796
0.991648
0.991517
0.991389
0.991275
0.991181
0.991097
0.991014
0.990935
0.990888
0.990888
0.990903
0.990941
0.991012
0.991103
0.991201
0.99132
0.991464
0.9916
0.99179
0.992061
0.992407
0.992784
0.993139
0.993596
0.994121
0.995202
0.995625
0.996794
0.998274
1.00615
1.06819
1.94893
2.48211
2.52913
2.48736
2.43451
2.37807
2.34042
2.31474
2.28797
2.28133
2.26879
2.25189
2.24969
2.22443
2.19749
2.1613
2.15225
2.14199
2.13923
2.12735
2.12274
2.11727
2.11417
2.10912
2.10458
2.09965
2.09334
2.08495
2.07325
2.05657
2.06262
2.11372
2.18667
2.27425
2.31374
2.27222
2.27935
2.32152
2.31487
2.28866
2.31693
2.3523
2.35887
2.36669
2.38141
2.41347
2.47014
2.527
2.60838
2.72415
2.83417
2.89478
2.92867
2.9458
2.96522
2.96979
2.97037
2.96293
2.95288
2.95529
2.96374
2.99237
3.04126
3.07524
3.11024
3.132
3.15302
3.17352
3.19039
3.19771
3.18676
0.994089
0.994012
0.993905
0.993862
0.993749
0.993628
0.993478
0.993322
0.993162
0.992975
0.992798
0.99264
0.992461
0.992268
0.992105
0.99194
0.991771
0.991618
0.991481
0.991347
0.991223
0.991122
0.991028
0.990934
0.99084
0.990769
0.990728
0.9907
0.990684
0.990679
0.990666
0.990628
0.990604
0.990573
0.990522
0.990423
0.990253
0.990109
0.98997
0.989756
0.989464
0.989393
0.989215
0.989258
0.988297
0.989838
1.00059
1.21807
1.98181
2.24226
2.37465
2.46981
2.4483
2.39871
2.35948
2.32116
2.29792
2.27318
2.25711
2.24907
2.23742
2.22142
2.17433
2.14917
2.13842
2.13342
2.12404
2.11941
2.10954
2.10569
2.10178
2.09743
2.09413
2.09024
2.08316
2.07372
2.05534
2.04471
2.0594
2.14143
2.22397
2.32125
2.31852
2.25172
2.26455
2.30787
2.30139
2.29179
2.30006
2.30723
2.30719
2.33087
2.36407
2.37953
2.41083
2.44547
2.51475
2.62291
2.74968
2.84648
2.90069
2.92179
2.94665
2.95899
2.96396
2.95795
2.94677
2.9459
2.95105
2.9702
3.01125
3.04615
3.0883
3.11711
3.14496
3.17031
3.19124
3.19622
3.18525
0.994094
0.994015
0.993904
0.993861
0.993746
0.993623
0.993473
0.993316
0.993157
0.992969
0.992786
0.992627
0.992446
0.992252
0.992084
0.991921
0.991747
0.991587
0.991444
0.991305
0.991174
0.991068
0.990968
0.990872
0.990777
0.990707
0.99067
0.99066
0.99067
0.990703
0.990743
0.990788
0.990869
0.990973
0.991104
0.991259
0.991424
0.991593
0.991889
0.992295
0.992587
0.993016
0.993592
0.994496
0.994585
0.998281
1.01498
1.49687
1.97002
2.10686
2.19291
2.36229
2.40007
2.38738
2.36015
2.31512
2.29267
2.26868
2.25013
2.23311
2.23641
2.20901
2.18409
2.14251
2.13257
2.11833
2.11953
2.11125
2.10712
2.0985
2.0961
2.09366
2.09043
2.0853
2.07885
2.06517
2.04716
2.04265
2.07841
2.1704
2.29955
2.32801
2.27298
2.24447
2.29309
2.31952
2.27044
2.2495
2.26698
2.28875
2.29723
2.31089
2.32669
2.33406
2.35895
2.39916
2.46161
2.55472
2.67387
2.80041
2.88916
2.91553
2.94398
2.95523
2.96254
2.95424
2.94249
2.93337
2.93159
2.94314
2.96968
3.0104
3.06087
3.09661
3.13789
3.1694
3.19516
3.19403
3.18209
0.9941
0.994019
0.993905
0.993859
0.993742
0.993619
0.993468
0.993308
0.993148
0.992962
0.992774
0.992613
0.992434
0.992234
0.992059
0.991897
0.99172
0.99155
0.991399
0.991254
0.991111
0.990993
0.990882
0.990774
0.990666
0.990576
0.990506
0.990454
0.990405
0.990361
0.990323
0.990283
0.990228
0.99015
0.990083
0.99002
0.989925
0.989788
0.989737
0.989691
0.989714
0.989773
0.990032
0.989915
0.990002
0.9938
1.03274
1.74938
1.99162
2.04847
2.09649
2.22311
2.33481
2.40211
2.38419
2.33889
2.31989
2.28221
2.26569
2.23933
2.24916
2.21545
2.19179
2.14461
2.13342
2.11836
2.12353
2.11458
2.11289
2.10542
2.10064
2.0977
2.09511
2.0904
2.08298
2.06765
2.04939
2.05116
2.1219
2.25063
2.35122
2.29216
2.24312
2.29325
2.32468
2.27602
2.21335
2.22673
2.27484
2.28913
2.26646
2.26602
2.29349
2.32738
2.3521
2.38399
2.42117
2.48274
2.58395
2.7235
2.84698
2.90117
2.93894
2.95683
2.9651
2.95672
2.94621
2.93253
2.92398
2.93181
2.94389
2.98008
3.02514
3.07571
3.12882
3.16504
3.19431
3.19111
3.18124
0.994104
0.994021
0.993905
0.993858
0.993739
0.993614
0.993463
0.9933
0.99314
0.992956
0.992763
0.992596
0.99242
0.992217
0.992033
0.991869
0.991692
0.991512
0.991353
0.991203
0.991052
0.990921
0.990803
0.990691
0.990581
0.99049
0.990423
0.990371
0.990326
0.990303
0.990299
0.99031
0.990343
0.990384
0.990441
0.990519
0.990609
0.990698
0.990892
0.991035
0.99133
0.991325
0.991957
0.991156
0.992571
0.997446
1.14302
1.89938
2.01194
2.03466
2.04843
2.09559
2.20771
2.32854
2.34767
2.3438
2.33621
2.30311
2.27361
2.24168
2.23872
2.20444
2.17824
2.12927
2.11738
2.10384
2.11045
2.10408
2.1025
2.09566
2.0867
2.08142
2.08042
2.07906
2.07194
2.05871
2.04715
2.07721
2.20749
2.34171
2.29265
2.27299
2.32365
2.34125
2.28897
2.21369
2.21476
2.25844
2.27737
2.25321
2.22494
2.24496
2.27944
2.30626
2.31802
2.33521
2.36931
2.42423
2.51264
2.64007
2.78313
2.86734
2.92043
2.9433
2.95768
2.95218
2.94262
2.92772
2.91302
2.91555
2.92187
2.94741
2.9881
3.04667
3.10639
3.15699
3.19212
3.18625
3.17836
0.994107
0.994023
0.993904
0.993855
0.993735
0.993609
0.993458
0.993293
0.993128
0.992948
0.99275
0.992579
0.992404
0.992197
0.992006
0.991837
0.991659
0.991469
0.991301
0.991143
0.99098
0.990833
0.990703
0.990576
0.990443
0.99033
0.990245
0.990164
0.990071
0.989971
0.989885
0.98982
0.989759
0.989684
0.989589
0.989436
0.989312
0.989166
0.989108
0.989
0.989057
0.988837
0.989455
0.988349
0.991186
1.00073
1.41584
1.97173
2.01027
2.0162
2.02198
2.03622
2.08654
2.18132
2.29629
2.30735
2.3193
2.30198
2.27449
2.2519
2.23143
2.21045
2.1538
2.12502
2.11292
2.10382
2.10545
2.10559
2.10135
2.09644
2.08415
2.07923
2.07959
2.07741
2.06874
2.06191
2.08337
2.17981
2.32347
2.2983
2.26427
2.29525
2.32594
2.28381
2.22087
2.22737
2.27075
2.27792
2.24413
2.21125
2.22706
2.25901
2.2773
2.27976
2.29068
2.31095
2.35079
2.40311
2.4755
2.57759
2.72647
2.83265
2.89802
2.92532
2.94676
2.94591
2.94235
2.93029
2.91262
2.90784
2.91108
2.92008
2.95301
3.00852
3.07768
3.14284
3.18608
3.18111
3.17589
0.994109
0.994024
0.993904
0.993853
0.993731
0.993603
0.993451
0.993286
0.993119
0.99294
0.992738
0.992557
0.992387
0.992179
0.991977
0.991802
0.991622
0.991423
0.991245
0.991083
0.99091
0.990747
0.990607
0.990473
0.990327
0.990198
0.990104
0.990024
0.989944
0.989851
0.989774
0.989736
0.989714
0.989713
0.989709
0.989714
0.989715
0.989746
0.989846
0.990049
0.990262
0.990481
0.991372
0.991464
0.994887
1.01367
1.68634
2.03256
2.0477
2.04012
2.0305
2.0319
2.04237
2.09194
2.16808
2.27719
2.30467
2.32608
2.30477
2.2671
2.25357
2.20075
2.18292
2.13348
2.12565
2.11278
2.11454
2.11817
2.11844
2.1105
2.09855
2.10058
2.10731
2.11259
2.12294
2.17934
2.27416
2.37196
2.39451
2.33194
2.31683
2.33203
2.2939
2.21907
2.21798
2.25449
2.27375
2.24492
2.21453
2.21486
2.23753
2.25316
2.24927
2.25279
2.2752
2.30665
2.33922
2.37433
2.42473
2.51879
2.65817
2.78802
2.87501
2.90713
2.9382
2.94011
2.9392
2.92875
2.91076
2.9028
2.89853
2.90439
2.92925
2.97374
3.04425
3.11652
3.17257
3.17234
3.17084
0.994111
0.994024
0.993902
0.99385
0.993726
0.993598
0.993444
0.993279
0.993108
0.99293
0.992725
0.992537
0.992364
0.992157
0.991946
0.991767
0.991581
0.991372
0.991183
0.991012
0.990828
0.990643
0.990489
0.990343
0.990179
0.990012
0.989888
0.989786
0.989681
0.989533
0.989363
0.989252
0.989168
0.989098
0.989001
0.988838
0.988544
0.988329
0.988111
0.98801
0.987821
0.987474
0.986682
0.987196
0.990414
1.04517
1.87774
2.07626
2.08853
2.08274
2.0666
2.05219
2.04756
2.05808
2.08383
2.14029
2.22423
2.29606
2.30812
2.27771
2.27196
2.19641
2.19853
2.14918
2.13513
2.12725
2.12925
2.14022
2.14665
2.14457
2.14629
2.18998
2.24565
2.31864
2.41539
2.50055
2.59448
2.56585
2.49003
2.41772
2.39622
2.35373
2.27475
2.24632
2.25981
2.26675
2.24772
2.2208
2.22383
2.24498
2.25185
2.24148
2.22913
2.24733
2.27385
2.29907
2.31328
2.34255
2.38985
2.4677
2.58608
2.73502
2.85147
2.89659
2.93026
2.93402
2.93526
2.92437
2.90822
2.89575
2.88775
2.89278
2.90388
2.94134
3.0077
3.08737
3.15632
3.16156
3.16446
0.994109
0.994023
0.9939
0.993848
0.993722
0.993592
0.993437
0.993271
0.993096
0.992921
0.992713
0.992515
0.99234
0.992133
0.991913
0.991727
0.991538
0.991317
0.991117
0.99094
0.990749
0.990542
0.990372
0.990218
0.990047
0.989852
0.989704
0.989591
0.98949
0.989352
0.989163
0.989047
0.988978
0.988947
0.988923
0.988875
0.988683
0.988554
0.98844
0.988526
0.988293
0.988572
0.987413
0.9893
0.994435
1.20779
2.0102
2.093
2.09779
2.09291
2.08485
2.07181
2.05883
2.05178
2.04666
2.06202
2.1104
2.18643
2.25409
2.26231
2.27597
2.18656
2.1994
2.17015
2.14997
2.14754
2.19556
2.26328
2.31988
2.38072
2.46086
2.53697
2.63674
2.71603
2.76996
2.74294
2.71741
2.67689
2.6161
2.55583
2.50084
2.40504
2.34071
2.32507
2.3184
2.28581
2.24948
2.23467
2.24452
2.25323
2.24794
2.2356
2.23249
2.25111
2.2711
2.28235
2.30049
2.32883
2.37479
2.44344
2.54592
2.68972
2.82198
2.88431
2.92291
2.93117
2.9342
2.92469
2.91063
2.89416
2.8824
2.88096
2.88596
2.91544
2.97113
3.05538
3.13831
3.14929
3.15504
0.99411
0.994021
0.993896
0.993844
0.993717
0.993585
0.99343
0.993261
0.993083
0.992909
0.992701
0.992495
0.992316
0.992106
0.991877
0.991684
0.99149
0.991256
0.991041
0.990857
0.99066
0.99043
0.990235
0.990067
0.989885
0.989658
0.989469
0.989327
0.989205
0.989044
0.988781
0.988566
0.988422
0.988332
0.988266
0.988155
0.98785
0.987535
0.987245
0.987276
0.987064
0.987812
0.986819
0.990206
0.99937
1.48037
2.03782
2.08368
2.08477
2.08297
2.07932
2.07112
2.06089
2.05337
2.04299
2.04001
2.05281
2.08084
2.15714
2.25253
2.28774
2.22038
2.29514
2.31194
2.34352
2.43094
2.52726
2.62727
2.7165
2.77776
2.81955
2.82632
2.85724
2.85637
2.84938
2.82012
2.78733
2.74778
2.70702
2.66431
2.60643
2.52994
2.47518
2.43226
2.37218
2.30359
2.27178
2.26738
2.26672
2.25431
2.23774
2.23367
2.24904
2.26449
2.26728
2.27185
2.29201
2.31789
2.35548
2.41235
2.49907
2.63116
2.77723
2.86111
2.90918
2.92395
2.92958
2.92249
2.9092
2.88887
2.87355
2.86856
2.87534
2.89094
2.93996
3.02367
3.11818
3.13836
3.1513
0.994103
0.994018
0.993894
0.99384
0.993712
0.993579
0.993422
0.993252
0.99307
0.992897
0.992688
0.992473
0.992289
0.99208
0.991841
0.991637
0.99144
0.991197
0.990964
0.990768
0.990567
0.99032
0.9901
0.989917
0.98973
0.989482
0.989256
0.989088
0.988956
0.988805
0.988539
0.988271
0.988113
0.988055
0.988044
0.988057
0.987994
0.987816
0.987761
0.987754
0.987924
0.988577
0.988827
0.992657
1.01423
1.72565
2.07601
2.09398
2.09325
2.08983
2.08473
2.07711
2.07133
2.06606
2.0622
2.04886
2.03516
2.05093
2.12876
2.243
2.38197
2.43855
2.52872
2.62752
2.70936
2.76979
2.79359
2.82107
2.84514
2.85477
2.8573
2.84669
2.85538
2.85274
2.8461
2.8311
2.81542
2.79633
2.76973
2.74075
2.70132
2.65345
2.59228
2.5209
2.43591
2.37424
2.34662
2.32828
2.3011
2.2707
2.25507
2.25624
2.26047
2.25906
2.25758
2.26633
2.28406
2.30881
2.34034
2.38576
2.45816
2.57652
2.73444
2.838
2.89679
2.92076
2.92633
2.92012
2.90569
2.88762
2.86615
2.86201
2.86301
2.87255
2.91391
2.99223
3.09393
3.1248
3.14589
0.994101
0.994014
0.993888
0.993835
0.993706
0.993571
0.993413
0.993242
0.993056
0.992881
0.992674
0.99245
0.992259
0.992052
0.991804
0.991585
0.991384
0.991134
0.99088
0.99067
0.990461
0.990197
0.989947
0.989746
0.989547
0.98928
0.988999
0.988802
0.988646
0.988477
0.988196
0.987818
0.987578
0.987427
0.987333
0.987315
0.987103
0.986632
0.985851
0.985168
0.984612
0.98317
0.983645
0.989149
1.06861
1.90923
2.08661
2.1017
2.10131
2.09403
2.0863
2.08193
2.08069
2.08219
2.08129
2.07528
2.07437
2.1269
2.2596
2.49479
2.65086
2.73863
2.76223
2.79277
2.81459
2.82291
2.82485
2.82219
2.82602
2.822
2.82487
2.82009
2.82811
2.82896
2.82754
2.82268
2.81671
2.80996
2.7999
2.7862
2.76483
2.73682
2.69204
2.6316
2.56009
2.48857
2.43045
2.37016
2.3191
2.28798
2.27801
2.27623
2.26766
2.25651
2.25696
2.26682
2.27914
2.29634
2.32027
2.35996
2.42532
2.52993
2.68221
2.8073
2.88113
2.9119
2.92031
2.91533
2.90143
2.88584
2.85977
2.85277
2.8483
2.85795
2.88688
2.95782
3.06581
3.10781
3.13763
0.994091
0.994007
0.993883
0.993829
0.993699
0.993563
0.993404
0.993231
0.993042
0.992863
0.99266
0.992427
0.992226
0.992021
0.991768
0.991532
0.991323
0.991073
0.990797
0.990569
0.990353
0.990079
0.989795
0.989571
0.989365
0.989096
0.988765
0.988528
0.988347
0.988184
0.987923
0.987482
0.987163
0.986971
0.986879
0.986861
0.986835
0.9866
0.986227
0.985781
0.986287
0.985764
0.988835
0.997601
1.32602
2.02401
2.05747
2.06433
2.06875
2.07109
2.07285
2.07366
2.07712
2.08448
2.09139
2.1034
2.14711
2.28371
2.52895
2.73615
2.79213
2.79008
2.79148
2.79854
2.80054
2.8037
2.8051
2.80148
2.80049
2.79631
2.79955
2.7951
2.80385
2.81022
2.81877
2.81969
2.81769
2.81305
2.8071
2.80153
2.79189
2.77764
2.75159
2.71575
2.66419
2.59402
2.5113
2.43262
2.37766
2.3446
2.32556
2.30088
2.27453
2.26707
2.26868
2.27115
2.2761
2.28606
2.30815
2.3466
2.40926
2.50392
2.64255
2.77982
2.86271
2.90197
2.9135
2.90937
2.89927
2.88222
2.85662
2.84057
2.83552
2.84077
2.86423
2.9258
3.03272
3.08861
3.12662
0.994086
0.994
0.993875
0.993822
0.993692
0.993555
0.993394
0.99322
0.993029
0.992844
0.992644
0.992405
0.992191
0.991986
0.991728
0.991475
0.991257
0.991007
0.99071
0.990461
0.990236
0.989953
0.989632
0.98938
0.989163
0.988894
0.988512
0.98822
0.988007
0.98783
0.987569
0.987096
0.986662
0.986433
0.986295
0.986255
0.986298
0.986164
0.985705
0.984786
0.984546
0.984555
0.988582
1.02012
1.66184
2.01565
2.0576
2.06498
2.06562
2.06493
2.06835
2.07281
2.08016
2.09251
2.10798
2.15433
2.29735
2.54857
2.75755
2.81282
2.7932
2.78182
2.77633
2.7751
2.77185
2.77188
2.77195
2.77104
2.77195
2.76993
2.76991
2.76692
2.7742
2.78394
2.79758
2.80554
2.81169
2.81187
2.80963
2.80532
2.79954
2.79213
2.77885
2.75857
2.7262
2.68044
2.61321
2.53521
2.46111
2.40272
2.35318
2.31538
2.29841
2.29125
2.28649
2.27934
2.27709
2.28263
2.30104
2.33624
2.3909
2.47138
2.59543
2.74538
2.84135
2.88843
2.90223
2.90095
2.8941
2.87602
2.85215
2.8298
2.82199
2.8219
2.84748
2.89354
3.00097
3.06709
3.11196
0.994073
0.993991
0.993867
0.993815
0.993684
0.993546
0.993383
0.993208
0.993014
0.992824
0.992627
0.992384
0.992156
0.991949
0.99169
0.991417
0.991188
0.990939
0.990627
0.990352
0.990115
0.989831
0.989477
0.989192
0.988955
0.98869
0.988292
0.987933
0.987681
0.987483
0.987244
0.986792
0.986189
0.985852
0.985608
0.985469
0.985388
0.985166
0.984531
0.983581
0.981629
0.982831
0.990868
1.12505
1.88621
2.03579
2.06306
2.07113
2.06798
2.06496
2.06485
2.07034
2.08516
2.11132
2.16499
2.31156
2.5704
2.77528
2.80759
2.79991
2.76867
2.7628
2.76255
2.75933
2.75635
2.75212
2.7507
2.75073
2.75278
2.75254
2.75015
2.74646
2.74991
2.75314
2.76202
2.77297
2.7875
2.79417
2.80115
2.80257
2.80018
2.79557
2.78786
2.77641
2.75731
2.72862
2.68604
2.62657
2.54679
2.46887
2.40549
2.35937
2.32912
2.30698
2.28957
2.28295
2.28352
2.28933
2.30564
2.33263
2.3746
2.44411
2.55642
2.71238
2.81939
2.87457
2.89431
2.89467
2.88829
2.87073
2.84709
2.82176
2.80865
2.80971
2.82566
2.86416
2.973
3.04555
3.09757
0.994064
0.993981
0.993857
0.993806
0.993675
0.993537
0.993372
0.993196
0.992998
0.992801
0.992609
0.992362
0.992119
0.991908
0.991652
0.991359
0.991114
0.990863
0.990539
0.990235
0.989982
0.989698
0.989316
0.98899
0.98873
0.988463
0.98806
0.987622
0.987324
0.987105
0.986873
0.986463
0.985782
0.985378
0.985193
0.985208
0.985269
0.98549
0.98532
0.985407
0.984996
0.987931
1.00227
1.48433
1.98427
2.02368
2.03976
2.04772
2.05126
2.04981
2.05247
2.06591
2.10352
2.17855
2.32365
2.58542
2.78702
2.80397
2.79088
2.76573
2.74511
2.74737
2.74101
2.7363
2.73333
2.73243
2.7321
2.7315
2.73216
2.73232
2.73158
2.72975
2.72996
2.7286
2.73227
2.73546
2.75038
2.76479
2.78134
2.79
2.79506
2.7944
2.79058
2.78417
2.77361
2.75654
2.72888
2.68776
2.62582
2.54597
2.46668
2.40168
2.35171
2.32698
2.31233
2.30513
2.30386
2.30441
2.31163
2.32649
2.35849
2.4193
2.51989
2.67371
2.79792
2.86108
2.88505
2.88565
2.87964
2.86213
2.83997
2.81268
2.79709
2.79691
2.80472
2.83799
2.94219
3.0248
3.08411
0.994048
0.993968
0.993847
0.993796
0.993665
0.993526
0.993361
0.993184
0.992982
0.992776
0.992587
0.992344
0.992084
0.991863
0.991613
0.991306
0.991038
0.990786
0.990458
0.990121
0.989847
0.989562
0.989169
0.988794
0.988499
0.98823
0.987845
0.987337
0.986983
0.986731
0.986517
0.986175
0.98553
0.984898
0.984516
0.984284
0.984049
0.984079
0.983814
0.982358
0.981931
0.986408
1.04104
1.79941
2.04087
2.05404
2.05403
2.0561
2.0589
2.05944
2.06478
2.09801
2.19295
2.37289
2.61836
2.81218
2.80333
2.78607
2.77368
2.75009
2.74074
2.73606
2.72507
2.71978
2.71885
2.71888
2.7189
2.71674
2.71635
2.71577
2.71556
2.7149
2.71316
2.71079
2.71162
2.71183
2.71735
2.72619
2.74559
2.76454
2.77834
2.78519
2.78744
2.78498
2.77951
2.77007
2.75326
2.72612
2.6835
2.62228
2.54546
2.47026
2.40585
2.36604
2.34035
2.32278
2.3148
2.31136
2.31374
2.3239
2.3512
2.40401
2.49565
2.64208
2.77691
2.84796
2.87712
2.87742
2.87114
2.85377
2.83396
2.80482
2.78777
2.77934
2.78981
2.81094
2.91118
3.00296
3.07088
0.994034
0.993955
0.993834
0.993785
0.993655
0.993516
0.993348
0.993174
0.992968
0.99275
0.992559
0.992323
0.992049
0.991817
0.991569
0.99125
0.99096
0.990702
0.990373
0.990002
0.989703
0.989415
0.989016
0.988588
0.988262
0.987979
0.987624
0.987064
0.986607
0.986304
0.986085
0.985794
0.985215
0.984342
0.983915
0.983554
0.983515
0.983495
0.983628
0.983397
0.985686
0.995084
1.26238
1.98221
2.03873
2.04571
2.04834
2.05291
2.06087
2.07171
2.09714
2.19074
2.40245
2.64904
2.79961
2.79877
2.77653
2.76587
2.75094
2.73816
2.73382
2.72841
2.71931
2.7136
2.71195
2.70765
2.70617
2.70265
2.70318
2.7035
2.70411
2.70326
2.70113
2.69774
2.69603
2.69078
2.69478
2.69611
2.7081
2.72727
2.74986
2.76743
2.77666
2.78069
2.77912
2.7746
2.76532
2.74875
2.71986
2.67727
2.61854
2.54073
2.45636
2.39722
2.36028
2.34402
2.33214
2.32417
2.32269
2.32884
2.34808
2.39125
2.47352
2.61148
2.75591
2.83416
2.86604
2.86564
2.85984
2.84392
2.82551
2.7974
2.77398
2.76516
2.7712
2.78381
2.88433
2.97893
3.05239
0.994015
0.993939
0.993821
0.993773
0.993643
0.993504
0.993335
0.993161
0.992955
0.992728
0.99253
0.9923
0.992017
0.99177
0.991523
0.991198
0.990885
0.990616
0.990296
0.989897
0.989564
0.989269
0.988883
0.988404
0.988034
0.987727
0.987391
0.986851
0.986282
0.985928
0.985702
0.985471
0.985049
0.984292
0.983716
0.983503
0.983466
0.983473
0.983577
0.983915
0.987965
1.02158
1.64114
2.00745
2.04483
2.05192
2.05907
2.06977
2.08704
2.11647
2.21358
2.44095
2.67787
2.80733
2.78124
2.76569
2.75546
2.73829
2.72103
2.71773
2.71822
2.71536
2.71021
2.70545
2.70256
2.69713
2.69471
2.69112
2.69111
2.69084