/*--------------------------------*- C++ -*----------------------------------*\
| =========                 |                                                 |
| \\      /  F ield         | OpenFOAM: The Open Source CFD Toolbox           |
|  \\    /   O peration     | Version:  2.2.x                                 |
|   \\  /    A nd           | Web:      www.OpenFOAM.org                      |
|    \\/     M anipulation  |                                                 |
\*---------------------------------------------------------------------------*/
FoamFile
{
    version     2.0;
    format      ascii;
    class       volScalarField;
    location    "2";
    object      divBf;
}
// * * * * * * * * * * * * * * * * * * * * * * * * * * * * * * * * * * * * * //

dimensions      [1 -3 -2 0 0 -1 0];

internalField   nonuniform List<scalar> 
14161
(
1162.48
309.16
308.136
258.197
212.303
164.994
115.709
64.0506
7.00171
-53.635
-120.516
-194.28
-275.197
-363.649
-462.028
-570.15
-690.799
-817.338
-951.47
-1098.69
-1256.38
-1425.75
-1599.2
-1775.55
-1944.52
-2133.18
-2337.4
-2547.49
-2775.63
-2945.65
-3164.37
-3338.16
-3578.51
-3857.89
-4320.92
-4704.04
-5157.72
-5468.33
-4122.25
-5561.83
13309.8
10399.6
9602.47
7224.97
5488.8
-24672.5
-25360.5
-26378.3
-26337.5
-27982.3
-26786.8
-27952.3
-28544.3
-26894.9
-28204.1
-27067.8
-26055.4
-26585.5
-24798.6
-24001.1
-23501.2
-21331.9
-21204.1
-19792.4
-17261.3
-16877.3
-15319.3
-13348.6
-12312
-10155.1
-8735.58
-7391.91
-5197.28
-3644.84
-2141.18
-96.0259
838.915
2629.64
4911.84
6019.85
8143.19
8995.46
9662.61
11730.7
13036.8
13817.9
15009.5
15038.9
15306
16234
16190
15590
16087.6
16238.3
15747.2
14775.5
12851.1
11272.5
10153.5
8575.33
7432.79
6033.59
5149.5
3583.76
1056.71
-3286.91
-8740.25
-16002.1
-18857.1
-17449.9
-15717.2
-14388.8
-12884.1
-12682.9
-8668.49
-6936.61
7791.85
-9608.91
56495.5
913.257
62.2187
61.831
11.7095
-35.2298
-84.3247
-136.059
-191.743
-250.846
-315.078
-386.064
-463.229
-548.34
-641.046
-744.462
-856.556
-979.328
-1107.05
-1251.24
-1400.48
-1560.25
-1732.51
-1910.2
-2085.23
-2258.73
-2449.9
-2653.69
-2877.12
-3079.88
-3291.6
-3477.33
-3664.16
-3917
-4190.87
-4538.95
-4977.49
-5278.7
-4588.18
-4126.56
-2584.82
10369.5
8954.32
3733.5
3943.8
2808.96
-22356.7
-22684.3
-23561.9
-23439.6
-24349.5
-24033.5
-23961.8
-24935.6
-23641.4
-23849.2
-23721.7
-22446.2
-22915.8
-21664.8
-20265.3
-20220.4
-18854.5
-17603.5
-16945.5
-14732.8
-13735.7
-12844.1
-11120.3
-9339.15
-7962.32
-6112.47
-5029.07
-3644.65
-1195.37
-81.2527
1672.6
3474.65
4600.58
6541.93
8290.29
9281.35
10647.7
11701.9
13020.2
14653.5
14903.7
15990.4
16667.3
17168.6
17325.7
17802.4
17756.4
17653.1
17732.6
16306
15062
14059.8
13343.8
11324.5
9312.41
5604.15
2745.64
-1039.19
-6231.41
-12628.3
-17766.6
-23382.9
-27674.4
-24701.2
-21454.7
-18681.7
-16807.6
-14848.9
-13705.5
-9473.12
-8699.18
6059.54
-11349.1
47462.3
668.193
-178.017
-176.671
-225.455
-271.898
-321.299
-373.649
-429.802
-490.388
-556.657
-629.608
-709.1
-796.062
-891.601
-997.037
-1110.84
-1234.33
-1369.56
-1511.39
-1662.23
-1821.36
-1995.78
-2174.59
-2353.92
-2529.77
-2723.1
-2927.15
-3145.35
-3351.91
-3556.02
-3747.91
-3929.35
-4182.88
-4386.73
-4768.48
-5040.09
-5194.35
-5259.39
-4584.3
-2754.75
6068.84
4456.8
3658.63
1858.09
1859.32
-19410.7
-19824.5
-20593.2
-20679.6
-21323.1
-21684.8
-21221
-22694.9
-21593.7
-21223.6
-21528.8
-20178.8
-20232.7
-19484.6
-17603
-17581.5
-16678.2
-14751.9
-14451.2
-12671.8
-11181.2
-10641.2
-9307.33
-7057.11
-6164.8
-4509.25
-3371.94
-2146.84
116.973
1323.57
2620.34
4536.15
5476.89
7056.37
9216.49
10090.8
11332.2
13019.1
13479.6
15094.4
15923.7
16864.6
17496.2
18109.4
18442.5
18857.7
19071.9
19705.9
18761.5
17082
16750.8
15758
14341.8
12770.1
10498.8
8866.73
6590.99
4092.49
1378.84
-2251.8
-8999.81
-7474.38
-13687
-15263.4
-14971.4
-13554
-12731.5
-11546.8
-11187.2
-7491.77
-6973.67
5994.8
-9956.26
41718.4
429.278
-410.756
-406.437
-452.517
-497.192
-545.377
-597.186
-653.195
-714.464
-781.184
-854.761
-934.959
-1022.52
-1119.82
-1226.01
-1340.93
-1463.63
-1602.2
-1744.62
-1893.89
-2052.96
-2229.32
-2408.4
-2584.89
-2762.51
-2958.92
-3163.36
-3376.46
-3572.42
-3786.1
-3956.76
-4152.97
-4393.42
-4550.79
-4953.83
-5081.01
-4915.75
-4445.22
-4328.09
-1212.22
-2371.99
-427.029
-3172
-3213.08
-3698.5
-18681.8
-18684.5
-18663
-18759.6
-18873.6
-19102.2
-18657.3
-19731.2
-18649.8
-18257.1
-18517
-17618.3
-17378.8
-16538.7
-15027.4
-15212.4
-14387.4
-12563.6
-12080.2
-10484.9
-9345.72
-8631.73
-7379.95
-5255.33
-4263.59
-2910.77
-1607.35
-364.152
1610.42
3104.13
4052.8
5656.33
7258.68
8204.85
10290
11235.4
12241.2
14080.3
14797.3
15573
16665.2
17269.3
18704.7
19508.3
19907.7
20861.5
20612.1
19015.7
19106.3
18583
18002
16959.9
15229.8
13533.2
11385.8
8553.27
5184.76
782.216
-3469.78
-4574.62
-6416.75
-7612.23
-8688.48
-10332.4
-10095.1
-9984.47
-9856.95
-8916.55
-9234.19
-5786.21
-6052.42
5096.34
-8532.46
35270.2
197.434
-634.383
-626.037
-668.495
-710.242
-756.145
-806.093
-860.865
-921.147
-987.203
-1060.25
-1140.04
-1228.08
-1325.57
-1431.18
-1545
-1670.34
-1805.78
-1948.84
-2095.37
-2257.75
-2427.38
-2607.16
-2785.03
-2970.87
-3162.58
-3360.7
-3572.07
-3750.53
-3971.21
-4127.57
-4360.74
-4516.26
-4712.76
-4928.3
-4891.21
-4765.47
-4295.2
-4358.38
-3073.68
-3797.86
-4765.63
-3627.24
-7107.19
-7790.34
-19013.5
-18730.5
-18310
-18179.3
-17882.4
-17886.7
-17730.4
-17966.7
-17086
-16857.9
-16893.3
-16154.5
-15610.9
-14322.2
-13408.7
-13412.7
-12147.9
-10547.2
-9791.49
-8470.52
-7593.08
-6602.27
-5298.7
-3838.06
-2648
-1363.78
-53.3609
822.896
2469.75
4433.93
5171.72
6575.9
8373.28
9136.19
10820.3
12291.9
13232.4
14552.6
15726.2
16086
18193.2
18949.8
19808.7
20932.2
20866.4
20482.6
21301.8
20967.6
20533
19882.4
19029.3
18107.5
17211.7
16104
14209.9
11611.2
9445.96
6078.83
1794.93
-1091.47
-2055.87
-3970.66
-6884.14
-7723.98
-7812.12
-8016.34
-7854.37
-7368.29
-7490.9
-4391.1
-5097.14
3635.4
-7370.73
29315.9
-25.614
-847.943
-834.665
-872.441
-910.507
-953.277
-1000.4
-1052.91
-1111.4
-1176.11
-1247.74
-1326.63
-1414.03
-1510.76
-1615
-1727.47
-1853.81
-1986.03
-2126.26
-2274.34
-2435.3
-2604.04
-2780.82
-2952.62
-3149.45
-3342.4
-3533.12
-3737.16
-3904.65
-4120.27
-4269.06
-4525.59
-4605.68
-4864.94
-4924.05
-4636.41
-4565.29
-3877.72
-3770.93
-4073.03
-5052.56
-6822.96
-5317.15
-10082.4
-10873.6
-20023.6
-18751.3
-17796
-17005.9
-16570.6
-16486.4
-16455.7
-15841.9
-15474
-15087.7
-14781.6
-14308.5
-13119.1
-12289.8
-11882.2
-11232.2
-10472.1
-8995.58
-8113.31
-7360.54
-6415.3
-4699.77
-3686.94
-2656.15
-1512.26
-154.264
1225.29
2116.9
3326.12
5692.03
6565.24
7587.26
9312.2
9955.32
11667.9
13089.8
14062.7
15453.7
16998.6
17526.8
19891.1
21119.5
20795.6
21291.1
21957.1
22481.3
22493.1
22200.7
22350.3
21901.6
21500.7
21172
20332.8
18742.6
16705.3
14730.1
9152.83
6271.73
4499.67
1826.65
-531.566
-2918.9
-4988.98
-4620.7
-6134.01
-6278.16
-6321.42
-6061.1
-6068.06
-3349.94
-4248.1
2466.61
-6375.21
23952.4
-238.621
-1050.36
-1031.41
-1063.65
-1097.24
-1136.16
-1180.12
-1229.6
-1285.75
-1348.07
-1417.51
-1495.48
-1581.03
-1675.29
-1777.63
-1890.07
-2013.44
-2143.92
-2278.91
-2433.76
-2588.79
-2756.02
-2928.21
-3102.67
-3297.44
-3490.68
-3683.15
-3867.1
-4034.4
-4247.54
-4385.81
-4630.8
-4714.76
-4842.87
-4810.62
-4541.37
-4291.41
-3999.18
-3888.02
-3822.62
-5566.06
-8812.02
-5788.42
-10064.4
-10791.7
-18737.8
-17860
-17275.1
-16779.4
-16567.7
-16377.4
-15846.6
-15038.4
-14567.9
-14574.1
-13657.2
-12909.6
-12191.3
-11179.6
-11054
-10408.2
-8236.61
-7653.12
-6578.24
-5985.72
-5580.45
-3397.75
-2138.09
-1941.19
-491.596
525.271
2097.01
3484.38
4750.37
6150.53
7532.8
8671.48
10029.9
11270
12480.6
14778.6
15968.5
17563.9
19268.4
20213.8
20961.3
21443.3
22180.2
23139.2
23737.9
24002.1
24490
25152.9
25728.8
25559.6
25768.7
25766.8
25345.2
24862.9
18581.6
14161.6
10625.8
6919.74
4315.54
1934.09
7.33191
-2170.66
-3287.77
-3564.82
-5217.18
-4950.42
-5118.56
-4984.43
-4829.83
-2779.53
-3588.12
1620.16
-5734.55
19493.3
-440.715
-1240.7
-1215.42
-1241.54
-1270.16
-1304.78
-1344.99
-1391.31
-1444.12
-1503.73
-1570.67
-1647.27
-1730.51
-1820.57
-1923.46
-2033.52
-2151.92
-2281.45
-2415.64
-2569.91
-2723.27
-2888.96
-3051.72
-3229.68
-3422.42
-3622.37
-3799.61
-3985.03
-4160.92
-4336.82
-4507.21
-4703.43
-4792.96
-4853.23
-4771.73
-4597.02
-4333.6
-4319.83
-4138.36
-4169.6
-6285.62
-8960.32
-7378.21
-10034
-11928.9
-18736.6
-18238
-17479.2
-16837.2
-16384
-15949.1
-15387.3
-14990.5
-14376.8
-13706.1
-12754.2
-12192.7
-11283
-10481.6
-9334.83
-8718.78
-7876.36
-6535.89
-6159.05
-5330.17
-3723.59
-2595.56
-927.444
-523.031
44.0297
2290.27
3407.99
4838
5170.82
6649.95
8221.1
9835.55
10974.5
12834.8
14285.1
16247.2
17869.4
19493.2
20584.2
20789.7
22317.3
23500.2
24506.9
25350
25782.9
27028.1
28636
29730.5
30900.4
31311.6
32344.9
33291.7
27278
21632.3
16578.1
12260.9
8686.12
6226.36
4160.75
2228
-4.24788
-1657.46
-2067.98
-2822.21
-3962.61
-3831.78
-4068.27
-4020.53
-3670.9
-2356.46
-2883.18
1026.16
-5390.23
16111.1
-630.553
-1418.46
-1385.34
-1406.11
-1429.24
-1459.02
-1495.14
-1537.96
-1587.06
-1643.55
-1707.51
-1781.3
-1861.48
-1951.54
-2051.22
-2158.12
-2272.17
-2399
-2535.07
-2684.57
-2839.96
-3000.17
-3157.04
-3338.81
-3529.06
-3731.02
-3896.69
-4090.26
-4252.44
-4417.99
-4597.42
-4771.21
-4837.57
-4883.13
-4794.51
-4648.52
-4406.29
-4392.28
-4231.52
-3904.04
-5998.51
-7261.29
-7600.54
-9149.49
-11760.9
-17177.3
-17549.1
-17145.7
-16966.3
-16622.6
-16008.5
-15328.7
-14795.2
-14380
-13453.1
-12891.4
-11544
-11300.2
-10467.2
-9191.85
-8386.79
-7572.32
-6635.9
-5027.36
-4379.27
-3399.62
-1686.85
-637.357
349.297
750.348
2393.68
3795.42
5653.09
6032.51
7691.62
9204.04
11279
13146.9
15186.2
16274.5
18055.5
19653
20322.5
22115.2
23601.9
25006.3
25998.4
27352.3
28984.9
30775.2
32865.2
35447.5
36835
38781.8
40091.1
34643.8
28386.2
22727.3
17327.2
13049
10180.4
7661.49
5427.12
3533.96
1763.9
77.8055
-470.747
-1124.06
-1994.32
-2853.76
-2845.14
-3150.27
-3171.54
-2880.67
-2030.85
-2523.65
528.486
-5288.71
13650.1
-807.313
-1582.69
-1541.16
-1556.65
-1574.21
-1598.98
-1630.67
-1669.38
-1715.03
-1768.8
-1829.61
-1898.89
-1977.57
-2065.9
-2162.21
-2265.18
-2378.15
-2499.46
-2636.9
-2781.8
-2936.02
-3093.23
-3246.59
-3430.59
-3615.23
-3813.83
-3982.31
-4177.4
-4321.23
-4517.79
-4651.62
-4846.46
-4893.33
-4941.87
-4865.28
-4743.41
-4585.89
-4555.98
-4492.1
-4020.86
-5704.76
-6169.16
-8375.68
-9705.8
-12283.4
-16851.2
-17569.7
-17007.7
-16551.1
-15647.3
-15011
-14462.4
-14111.8
-13469.6
-13419.8
-12260.7
-11924
-10712.3
-10015.9
-8903.39
-7198.93
-6763.35
-5572.06
-5105.67
-3112.85
-2460.51
-1355.6
-241.184
925.687
1384.75
2728.06
4328.1
6572.59
8889.21
10363.5
11678.4
14172.7
15670.3
17554.1
18432.6
19606.4
21332.6
22910.8
24913.4
26533.9
28656
30838.6
33219.5
35812.9
39212.2
41120.6
44533.7
46595
39947.3
33276.4
27574.2
21901.3
17024.2
13669.9
10788.7
8421.21
6492.85
4897.47
3335.19
1832.63
924.086
479.97
-371.948
-996.258
-1802.03
-1919.71
-2296.34
-2417.74
-2180.65
-1664.29
-2203.22
294.599
-5125.33
11722.3
-969.771
-1732.66
-1683.31
-1691.94
-1705.41
-1724.8
-1751.81
-1786.17
-1828.37
-1878.86
-1935.95
-2002.24
-2078.91
-2164.09
-2255.58
-2357.09
-2467.1
-2586.63
-2721.75
-2864.2
-3016.95
-3169.12
-3321.7
-3503.87
-3687.12
-3875.26
-4059.06
-4245.14
-4402
-4594.46
-4727.74
-4897.42
-4937.3
-5035.28
-4989.42
-4869.87
-4723.39
-4720.45
-4747.16
-4055.81
-4938.27
-6633.48
-9138.23
-10850
-13167.6
-15945.2
-18068.4
-18545.7
-18746.4
-18225.8
-17647.8
-16938.1
-15807.2
-15042.1
-13597.1
-12806
-11185.9
-10689
-9758.06
-8305.96
-7260.99
-5694.14
-5619.69
-4157.42
-2779.06
-1590.97
-896.635
-122.382
1710.69
3692.31
5185.8
6881.84
8900.8
10746.8
13580.8
15157
16249.7
17374
18876.9
21399.5
23270.5
25108.1
26983.4
29483.2
32372.6
35529.9
39117.3
42694.6
45746.7
49936.3
52079.3
44011.6
36459.5
31009.9
25222
20263.6
16581.1
13552.6
11129.6
8893.04
7363.36
5876.94
4505.82
3135.97
2031.51
1736.12
1111.15
335.637
-280.089
-951.521
-1108.33
-1523.85
-1736.55
-1647.48
-1397.4
-2283.24
-22.1848
-5310.49
10123.9
-1117.29
-1868.14
-1810.7
-1812.76
-1822.2
-1836.33
-1859.06
-1889.15
-1927.49
-1974.36
-2028.39
-2092.08
-2165.03
-2245.99
-2336
-2435.58
-2541.77
-2658.56
-2791.86
-2930.41
-3080.79
-3228.54
-3387.51
-3562.13
-3741.87
-3918.57
-4119.88
-4294.99
-4478.31
-4618.73
-4827.22
-4960.44
-5034.72
-5139.74
-5158.8
-4978.29
-4997.14
-4938.16
-4980.14
-4512.96
-5245.73
-8085.83
-9906.25
-12642.5
-14105.1
-15993.5
-17451.7
-18988.3
-19631.4
-18859
-18041.8
-16745.1
-15952.7
-14687
-13963.8
-12461.9
-11026.1
-10161.5
-8998.97
-8205.03
-6820.65
-5656.89
-4317.93
-3753.19
-3063.37
-1325.05
100.397
1957.51
4567.02
6257.12
8364.79
10391
12374.4
14073.3
15192.6
16581.9
19110.7
21499.2
23606.3
25729
28410.2
31276.2
34367.3
37885
42390.9
46265.6
50794
54703.5
53229.6
45701.4
38119.1
33336.3
27119.4
22336.4
18814.7
15651.5
12979.3
10955.5
9504.67
7832.74
6496.57
5482.74
4391.61
3391.99
3071.81
2516.92
1836.62
1153.16
510.059
-161.354
-616.199
-1178.68
-1504.08
-1570.59
-1556.49
-2623.61
-382.199
-5496.09
8837.81
-1249.35
-1988.64
-1923.13
-1919.78
-1923.21
-1934.57
-1952.16
-1978.48
-2012.7
-2055.68
-2107.86
-2168.24
-2236
-2313.94
-2403.02
-2497.64
-2604.34
-2718
-2844.86
-2982.75
-3131.54
-3266.45
-3444.16
-3612.86
-3777.62
-3959.82
-4163.5
-4327.45
-4527.43
-4683.68
-4903.36
-5059.61
-5148.38
-5216.74
-5352.31
-5191.49
-5157.65
-5134.81
-5257.28
-5054.35
-5219.58
-9565.98
-11978.5
-14669.4
-15211.4
-16369.7
-17685.2
-19806.7
-20062.3
-19659.4
-18453.2
-17372.6
-15843.8
-14637.6
-13695.8
-12063
-11392.6
-9693.11
-8432.66
-7377.53
-6753.47
-5480.04
-4256.22
-2485.83
46.504
1910.52
3797.25
5500.47
7251.48
9592.5
11574.4
13124.1
14455
16375.1
18950
21588.4
24142.4
26880.4
30129.1
33535.3
37047.1
41388.7
46260.4
50271.5
55401.8
59114.4
54260.6
46490.7
39312.8
33997.2
28239.7
23477.5
19929.5
16812.3
14486.9
12478.2
10699.9
9251.1
8320.48
7019.77
6009.82
5150.4
4342.45
3730.39
3309.86
2745.71
2044.82
1409.33
725.545
144.71
-407.399
-945.574
-1236
-1372.19
-1513.52
-2584.61
-525.083
-5355.27
7736.38
-1365.26
-2093.86
-2020.74
-2012.07
-2010.13
-2018.45
-2032.07
-2054.55
-2084.81
-2124.07
-2173.61
-2229.77
-2295.42
-2369.58
-2455.79
-2547.54
-2655.23
-2765.11
-2884.62
-3020.15
-3163.26
-3301.66
-3482.46
-3651.2
-3799.51
-3989.01
-4183.73
-4348.76
-4575.97
-4779.96
-4947.95
-5130.89
-5270.94
-5319.1
-5455.33
-5427.33
-5409.88
-5453.05
-5612.71
-5726.02
-6789.21
-11943.6
-15424.2
-18356.3
-18538.4
-19096.1
-19781.9
-21625.4
-20583.1
-20298.2
-19219.1
-18134.9
-16281.3
-15273.2
-13143.2
-12300.1
-11124.3
-9049.18
-8433.19
-6478.85
-5795.81
-3696.19
-713.42
361.844
3377.62
4727.96
6184.76
9462.49
11228.1
12709.9
14494.4
16862.6
19645.9
22530
25398.5
28627.2
32308.9
36458.4
41166.7
46205.3
50710.6
55939.2
60470.7
61056.2
53885.6
45558.1
39215.5
33267.4
27850.8
23709.5
20296.9
17502
15052.7
13114.3
11673.4
10434.3
9128.28
8041.99
7371.68
6507.72
5676.46
4977.4
4358.66
3942.04
3434.22
2849.44
2282.76
1708.08
1011.8
448.777
-104.952
-614.6
-1022.21
-1130.76
-1583.41
-2670.75
-857.65
-5435.23
6659.14
-1464.81
-2183.68
-2103.65
-2089.69
-2083.59
-2086.94
-2099.4
-2117.11
-2144.34
-2180.09
-2225.77
-2279.4
-2342.05
-2413.33
-2494.87
-2587.15
-2686.69
-2799.17
-2914.05
-3044.01
-3181.21
-3333.71
-3497.99
-3669.19
-3826.49
-4002.77
-4186.32
-4379.51
-4603.68
-4827.55
-4992.84
-5165.94
-5394.98
-5472.61
-5563.96
-5629.4
-5700.33
-5854.55
-6210.85
-7334
-9017.98
-14113.4
-18752.5
-22280.2
-22699.5
-21576.8
-20706.3
-21967.3
-20279.3
-19235.3
-18599.9
-16694.9
-16512.3
-13376.7
-13500.6
-11774.3
-10155.8
-9903.34
-5651.81
-5091.06
-483.942
572.739
2599.13
5172.3
6704.6
9754.92
11008.2
12924.7
14868.5
18262.7
21284.2
24208.3
27627.7
31391.6
35835.5
40828.9
46222.8
51468.9
56780.5
62069.2
65297.6
59748.4
51556.7
43698.8
38082.4
31839.3
26824.2
22970.9
19788.6
17168.7
15096.9
13248.7
11827
10533
9760.29
8863.85
7967.78
7166.99
6618.09
6016.11
5296.54
4755.77
4366.01
3967.87
3468.16
2991.86
2444.11
1903.66
1262.08
750.088
116.907
-394.301
-933.979
-985.336
-1644.21
-2594.79
-1006.72
-5244.57
5788.82
-1547.62
-2257.6
-2172.47
-2153.4
-2142.61
-2142.26
-2151.86
-2168.24
-2191.58
-2224.17
-2265.32
-2316.98
-2376.93
-2445.88
-2521.99
-2614.13
-2706.38
-2821.41
-2931.11
-3055.66
-3192.65
-3351.31
-3497.53
-3671.56
-3847.5
-4004.77
-4186.72
-4410.35
-4607.15
-4831.15
-5066.6
-5189.99
-5461.38
-5662.56
-5841.79
-5923.04
-6014.98
-6341.7
-6947.66
-9821.9
-13149.7
-19651.2
-23750.3
-27135.6
-28591.2
-25483
-23789.1
-23040.1
-20563.7
-20291.4
-17849.4
-17865.9
-15162.6
-15836.4
-12205
-12144.6
-7002.84
-5799.03
-1648.91
259.435
2473.63
5579.77
7523.74
9666.67
11411.3
13281.8
16396.8
19510.1
22679.7
26494.2
30998.2
35917.5
41114.9
47025.5
52898.5
58444.9
64372.4
68796.8
65090.6
56748.1
47958.2
41799.5
35879.6
29842.9
25276.4
21660.4
18754.3
16386.4
14342.5
12652.9
11452.1
10336.3
9481.52
8715.39
8234.68
7650.65
6931.74
6414.22
6017.84
5521.12
4973.2
4570.62
4290.43
3923.47
3484.71
3058.49
2543.58
2042.37
1450.26
931.078
303.875
-118.806
-840.637
-786.258
-1635.48
-2420.21
-1241.94
-5118.16
4852.47
-1613.55
-2316.13
-2226.63
-2203.94
-2187.88
-2184.5
-2190.63
-2206.42
-2226.97
-2255.64
-2294.56
-2342.62
-2400.41
-2466.21
-2538.18
-2626.14
-2719.46
-2827.71
-2940.8
-3055.37
-3190.48
-3349.6
-3490.19
-3661.26
-3844.54
-4004.3
-4181.12
-4413.25
-4612.87
-4810.86
-5081.04
-5265.33
-5516.4
-5766.31
-5927.28
-6060.26
-6250.69
-7019.3
-8208.18
-14537.3
-19410.1
-25226.8
-26676.4
-29000.7
-29796.5
-24160.5
-20837.8
-19263.7
-18096.6
-17884.6
-17912.6
-16970.4
-15200.2
-13456.6
-9724.95
-7424.03
-3039.53
136.142
2762.84
5932.07
7742.55
9844.98
11584.4
14688.7
17716.2
21306.5
25674.7
29956.4
35003.7
41567.1
48747.7
55279
61215.2
67581.5
72367.7
70188.2
61918.2
52605.2
45196.3
38900.5
32558.2
27247.7
23605.4
20116.5
17495.5
15184.8
13350.4
11868.4
10670.4
9614.48
8822.54
8240.47
7719.17
7327.32
6921.9
6500.9
6044.6
5772.67
5408.25
4945.85
4663.37
4317.15
4137.85
3789.65
3427.09
3038.09
2557.83
2124.26
1587.6
1127.58
533.784
157.875
-748.399
-629.547
-1595.49
-2282.23
-1358.98
-4907.73
4164.9
-1662.84
-2359.54
-2266.43
-2240.37
-2221.24
-2213.43
-2217.4
-2230.04
-2251.09
-2277.01
-2311.92
-2357.26
-2412.08
-2474.6
-2545.55
-2626.96
-2722.76
-2818.01
-2938.31
-3048.17
-3179.39
-3330.15
-3478.02
-3641.19
-3820.74
-3999.99
-4181.14
-4371.43
-4617.91
-4789.72
-5057
-5311.35
-5566.1
-5838.71
-6024.67
-6225.03
-6555.51
-7739.97
-10220.4
-23079.8
-31137.4
-32606
-29808.7
-28606.1
-26507.6
-18650.2
-16359.9
-15628.5
-15254.2
-15486.9
-15689.8
-13879.7
-12650.9
-9030.28
-5893.56
-1819.58
2171.01
5374.95
8209.85
10285.1
12749
16466.2
19953.4
24729.3
29017.5
35171.1
42531.1
49972.7
56937
64401.7
72122.6
77684.5
74776.6
65798.6
55843.4
48095.2
41741.7
35082.8
29520.3
25098.7
21649.2
18372.7
16009.6
13949.8
12218.7
10906.2
9801.96
8768.34
7978.3
7359.02
6868.45
6574.19
6212.13
6041.33
5747.15
5507.74
5240.6
5064.58
4767.93
4394.45
4317.16
4060.47
3936.82
3658.01
3367.26
2984.9
2604.47
2209.66
1723.51
1274.62
637.725
408.549
-690.11
-530.029
-1488.82
-2048.71
-1463.53
-4558.05
3385.25
-1695.8
-2388.02
-2291.92
-2263.2
-2242.06
-2230.91
-2231.75
-2242.35
-2260.71
-2288.22
-2319.55
-2361.05
-2412.37
-2472.87
-2541.97
-2618.47
-2711.56
-2802.67
-2919.97
-3032.87
-3158.34
-3298.9
-3455.15
-3603.99
-3791.08
-3966.7
-4171.35
-4336.37
-4577.45
-4776.6
-5026.91
-5275.56
-5611.13
-5838.39
-6062.04
-6353.8
-6859.86
-8532.68
-13358.8
-29771.2
-40424.9
-32917.6
-31732.7
-27825.9
-25055.4
-16504.4
-15730.4
-16007.7
-16393.5
-16823.8
-16527.2
-14990.4
-13632.1
-8634.07
-2282.49
3782.24
6323.49
9381.04
13695.9
18647.2
23854.9
29962.3
36081.8
42937.1
51096.1
59221.9
69450.4
77390.5
82531.9
78266.8
68969.5
58403.3
50167
43626.9
37024.5
31319.8
26915.5
22854.6
19631.9
16589.9
14758.6
12926.4
11233.2
9972.1
8958.12
7839.57
7212.19
6732.24
6171.46
5735.39
5438.12
5222.46
5030
4923.06
4759.94
4637.3
4504.21
4382.4
4197.14
3895.28
3969.44
3735.64
3631.86
3462.26
3145.88
2838.81
2544.71
2205.85
1789.42
1383.88
844.708
622.626
-564.27
-368.864
-1383.46
-1864.44
-1508.27
-4163.37
2747.85
-1712.61
-2401.94
-2303.71
-2273.13
-2249.72
-2238.7
-2233.9
-2243.42
-2259.87
-2284.56
-2318.5
-2355.72
-2403.21
-2460.75
-2527.18
-2600.57
-2685.69
-2783.64
-2885.51
-3007.97
-3124.91
-3258.85
-3417.39
-3561.68
-3747.2
-3929.01
-4122.63
-4316.54
-4507.3
-4759.88
-4983.48
-5214.16
-5548.06
-5794.26
-5962.41
-6311.6
-7002.72
-9109.87
-15372.1
-26543.2
-34045.1
-26769.1
-28500.1
-27803.2
-28918.1
-19221.9
-18586.1
-19399.4
-20326.7
-20835.5
-20138
-18246.1
-11571.6
-3556.22
4561.73
7582.18
13990.3
20193.5
28860.7
36193.5
44489.4
53207.5
62201.6
73228.2
81903.5
88568.7
82923.7
72178.8
60253.1
52050.7
45394.8
38502.3
32467.5
28036.3
24013.2
20632.6
18034.6
15619.3
13457.4
11753.6
10401.1
9415.94
8309.1
7200.98
6563.55
6121.64
5288.72
5019.66
4739.22
4481.82
4246.56
4036.94
3943.37
3868.37
3807.38
3713.06
3649.15
3670.4
3604.46
3392.66
3605.96
3267.22
3389.11
3228.05
2987.1
2756.06
2537.19
2245.91
1889.46
1528.31
1012.15
691.583
-526.016
-283.901
-1293.97
-1688.6
-1516.12
-3675.16
2068.83
-1713.85
-2401.88
-2302.33
-2270.31
-2245.99
-2233.98
-2227.74
-2232.89
-2248.41
-2271.07
-2302.18
-2342.14
-2386.08
-2438.08
-2502.3
-2573.67
-2652.69
-2750
-2845.42
-2966.31
-3083.7
-3211.13
-3362.23
-3516.59
-3682.4
-3879.8
-4054.56
-4275.91
-4451.61
-4682.22
-4922.45
-5156.11
-5393.11
-5653.12
-5934.62
-6224.9
-7245.58
-9756.78
-16698
-23695.2
-24286.4
-22960.6
-25539
-26432.3
-29654.3
-22885.2
-23518.9
-25014.6
-24799
-22495.7
-17414.8
-8771.48
1043.06
6237.82
11078
20246.9
34192.8
44762
55427.7
66092.9
77757.2
87780.9
94501.5
86845.5
75003.9
62595.6
54011.2
46684.8
39398
33561.7
28909.9
24875.9
21557.5
18999.8
16633.4
14437.6
12668.4
11149.7
9838.95
8876.88
7752.31
7108.1
6375.93
5771.87
5095.26
4829.07
4330.56
3888.47
3646.54
3451.61
3348.2
3145.9
3067.42
3045.74
3019.07
2961.97
2899.84
3033.22
3045.41
2936.08
3166.92
2796.57
3133.18
2891.86
2702.66
2573.14
2398.9
2171.09
1883.44
1581.73
1137.51
674.686
-314.018
-141.931
-1052.21
-1411.91
-1496.44
-3210.56
1550.12
-1700.14
-2388.37
-2288.33
-2255.31
-2231.31
-2216.79
-2211.86
-2212.81
-2226.77
-2247.87
-2276.85
-2313.97
-2358.8
-2411.09
-2467.57
-2534.48
-2613.4
-2701.3
-2803.11
-2906.93
-3033.44
-3155.15
-3295.81
-3458.14
-3611.59
-3800.11
-3989.04
-4190.43
-4405.94
-4602.75
-4818.98
-5088.09
-5282.92
-5520.92
-5745.61
-6105.44
-7332.58
-10252.8
-18678.5
-23404.3
-21988.5
-23326.2
-25587.3
-30036.6
-39189.6
-36193.8
-38895
-36524
-27828.3
-16789.6
-5789.97
2362.9
7932.77
20357.4
34957.2
52960.5
67501.2
83198
94168.1
101466
91164.1
78660.7
64600.7
55776.5
48017.8
40244.4
34074.7
29453.9
25634.7
22588.9
19947.4
17434.6
15272.8
13533.8
12223.6
11025.7
9789.29
8915.24
7895.33
7168.78
6319.91
5708.08
5163.71
4810.87
4137.03
3766.98
3551.16
3089.62
2824.79
2650.82
2506.51
2362.66
2231.93
2254.21
2220.75
2250.81
2175.28
2373.55
2450.82
2469.4
2710.31
2331.88
2802.75
2476.49
2524.34
2440.69
2321.19
2150.69
1915.62
1687.57
1281.24
687.662
-124.606
-223.352
-910.523
-1221.58
-1482.25
-2662.61
953.083
-1672.18
-2362.06
-2262.2
-2229.07
-2205.35
-2189.01
-2185.32
-2184.9
-2196.05
-2216.32
-2241.77
-2276.14
-2319
-2369.77
-2428.22
-2491.49
-2562.67
-2644.41
-2745.42
-2844.94
-2966.38
-3088.48
-3222.73
-3379.93
-3537.78
-3709.92
-3907.47
-4094.57
-4314.88
-4538.27
-4720.93
-4981.75
-5166.27
-5389.73
-5575.23
-6114.15
-7626
-11357.9
-20167
-24060.5
-22260.6
-23938.6
-25659.8
-31660.5
-42549.3
-31529.9
-29073.9
-23127.9
-17809.8
-9020.49
-1280.65
12103.7
32355.3
55248
79374.6
99691.2
110960
99715.6
82860.9
65595.8
57290.4
49021.5
40771.6
34235.2
29604.7
25767.9
22719.7
20092
17792.6
15880.8
14512.3
13313.4
12187.8
11089.1
10183.5
9453.77
8636.32
8077.78
7219.32
6763.28
5912.2
5252.81
4729.54
4299.31
3775.12
3343.16
2995.39
2700.2
2341.02
2121.03
1892.47
1779.28
1600.72
1580.83
1562.81
1662.57
1581.52
1797.22
1909.22
1992.61
2268.34
1909.4
2453.9
2082.81
2287.38
2222.3
2114.52
1977.67
1764.6
1651.38
1290.6
588.536
203.252
-43.6594
-682.383
-910.589
-1378.43
-2166.29
476.495
-1630.76
-2323.7
-2224.61
-2192.3
-2168.01
-2152.91
-2148.34
-2147.8
-2156.1
-2175.62
-2199.57
-2230.61
-2270.62
-2318.17
-2373.68
-2436.8
-2509.67
-2584.2
-2674.4
-2775.8
-2886.13
-3010.76
-3140.16
-3289.67
-3448.92
-3620.49
-3798.65
-3991.48
-4212.62
-4424.14
-4647.44
-4850.39
-5071.7
-5278.57
-5473.82
-6110.6
-7759.53
-12051
-20797.8
-25001.4
-22973.8
-23232.8
-26913.5
-31270
-30039.8
-15698.6
-10578.9
-4595.87
1588.43
6785.66
22486.9
47919.1
78501.4
111282
121031
98064.4
74639.3
60668.1
49631.7
40732.1
33896.8
29120.4
25187.7
22055.9
19459.9
17308
15742.9
14513.1
13523.7
12581.8
11842.1
11205.9
10643.8
9849.84
8947.96
8372.8
7661.31
7167.43
6512.47
6125.51
5458.69
4700.91
4284.56
3846.32
3408.25
2953.57
2573.99
2285.43
1948.26
1733.38
1497.04
1378.39
1200.54
1106.65
1077.33
1142.69
1077.55
1266.99
1372.89
1489.55
1790.45
1468.9
2129.68
1657
2083.27
2018.71
1983.06
1895.26
1727.47
1776.49
1354.12
703.762
532.717
-120.684
-635.954
-855.407
-1325.31
-1681.55
-77.3198
-1576.81
-2274.09
-2176.3
-2145.53
-2120.78
-2107.84
-2100.62
-2102.9
-2107.84
-2126.19
-2148.34
-2180.68
-2212.36
-2257.83
-2310.48
-2371.1
-2440.1
-2516.61
-2603.57
-2694.02
-2800.55
-2916.79
-3048.21
-3188.85
-3342.54
-3514.48
-3691.82
-3872.59
-4096.07
-4296.81
-4534.12
-4745.72
-4962.41
-5165.16
-5458.02
-6214.65
-8056.97
-12923.5
-21941
-26076.6
-25208.5
-26725.7
-25592.1
-21750.7
-16336.9
-1835.71
3770.41
6395.55
16247.7
36775.7
67375.6
108377
134175
105001
75647.2
58789
44974.1
35600.6
29429.1
24926.4
21493
18783.8
16647.2
15082
13944.5
13031.1
12259.4
11645.3
11190.6
10824.7
10437.5
10068.5
9673.24
9382.32
8635.03
8263.89
7608.17
7102.64
6462.82
6033.84
5395.77
4721.73
4152.07
3740.61
3276.42
2775.28
2374.1
2034.37
1693.04
1434.11
1177.06
998.371
827.502
690.777
642.63
665.689
628.453
785.552
887.991
988.745
1292.5
1146.48
1749.18
1269.22
1876.16
1750.77
1730.88
1698.46
1522.33
1740.01
1200.78
769.062
686.607
19.6932
-388.543
-515.717
-1123.38
-1302.81
-494.31
-1511.22
-2214.06
-2118.12
-2089.27
-2065.19
-2053.05
-2045.19
-2049.47
-2053
-2067.4
-2091.27
-2118.79
-2151.83
-2188.17
-2240.7
-2297.46
-2362.98
-2433.86
-2514.53
-2606.65
-2712.22
-2821.13
-2940.18
-3074.02
-3227.2
-3387.49
-3571.73
-3752.08
-3951.67
-4177.13
-4399.22
-4635.15
-4854.25
-5075.59
-5536.76
-6601.52
-9096.07
-15563.6
-23962.9
-29378.6
-26592.1
-24215.1
-17049.1
-12776.8
-5949.44
5303.97
11610.2
28412.6
52416.1
88037.4
133684
129496
87375.9
63909.7
45821.4
34400.3
26791.5
21811.4
18389.9
16019.2
14393
13223.4
12322.8
11650.1
11186.6
10898.2
10583
10283.8
9979.05
9680.42
9371.48
9084.94
8766.96
8733.05
8373.43
7990.35
7439.93
6966.68
6451.6
6029.75
5400.38
4807.09
4103.5
3535.53
3169.78
2497.36
2047.54
1718.6
1277.78
1019.87
733.206
538.893
388.204
250.445
196.386
185.498
147.92
288.094
405.097
479.096
728.79
784.719
1297.58
835.333
1598.06
1420.44
1557.59
1584.48
1480.08
1759.44
1277.4
963.762
736.86
139.889
-318.957
-430.167
-1018.3
-999.657
-882.046
-1435.03
-2144.52
-2050.93
-2024.2
-2001.71
-1989.28
-1983.38
-1986.94
-1990.99
-2001.96
-2025.6
-2048.77
-2086.01
-2112.69
-2161.36
-2215.54
-2276.16
-2346.49
-2417.74
-2503.68
-2600.27
-2712.65
-2834.9
-2961.39
-3085.31
-3244.35
-3432.62
-3633.19
-3809.03
-4036.92
-4275.11
-4503.68
-4730.07
-5039.92
-5686.26
-7210.06
-10862
-20339.2
-27659.9
-27541.6
-23244.7
-14475.8
-9346.17
-3058.55
-576.641
18952.5
38270.2
68336
111021
150431
119962
78767
54614.8
38192.2
27925
21123.2
16879.4
14125.8
12362.6
11214.6
10506.5
10099.8
9841.87
9657.57
9493.18
9399.29
9304
9191.41
9030.33
8855.34
8648.51
8435.92
8141.53
7954.55
7777.02
7580.74
7479.36
7164.79
6691.13
6172.04
5482.11
4907.27
4071.62
3412.56
2900.76
2331.6
1817.77
1433.18
1017.34
666.137
399.081
86.4517
-28.5519
-204.734
-284.396
-305.994
-335.298
-212.739
-87.1502
7.21231
214.417
407.715
879.773
532.341
1280.54
1093.97
1356.92
1326.31
1232.39
1662.6
1030.39
992.318
591.735
469.707
-174.696
-24.0436
-840.455
-635.345
-1185.35
-1349.26
-2066.39
-1975.54
-1951.15
-1930.71
-1918.33
-1914.68
-1914.81
-1923.62
-1930.73
-1950.82
-1975.19
-2007.85
-2037.88
-2072.56
-2129.98
-2176.99
-2256.5
-2309.74
-2389.99
-2484.18
-2580.37
-2714.41
-2826.37
-2953.65
-3102.25
-3274.42
-3480.34
-3656.38
-3880.13
-4131.56
-4367.79
-4628.35
-5082.12
-5979.04
-8202.89
-13746.6
-27033.4
-32221.2
-26866.8
-13720.9
-8109.47
-2165.99
2398.25
19086.6
47258.5
82367.7
130503
151519
106394
71007.5
47877.1
33097.1
23745
17823.4
14123.4
11732.9
10241.1
9325.79
8772.45
8448.83
8302.86
8267.96
8289.2
8332.91
8373.01
8402.71
8404.42
8367.85
8283.1
8140.7
7937.9
7653.05
7418.42
7201.72
6916.44
6661.77
6436.25
6111.64
5990.69
5490.11
4860.37
4175.9
3319.77
2765.76
2301.88
1688.8
1197.51
840.986
365.511
67.3566
-237.9
-420.189
-585.337
-688.578
-715.228
-778.891
-662.694
-551.53
-459.97
-269.79
-23.2809
343.38
160.484
830.437
672.881
1131.96
1095.98
1109.15
1763.9
1010.42
1230.47
640.095
648.982
-133.137
37.9459
-878.318
-273.398
-1424.98
-1255.05
-1980.67
-1892.86
-1870.78
-1852.89
-1841.22
-1838.37
-1837.76
-1848.74
-1853.8
-1869.78
-1895.83
-1919.36
-1958.14
-1980.63
-2031.61
-2080.62
-2140.92
-2214.94
-2264.5
-2350.22
-2445.92
-2565.06
-2699.78
-2810.86
-2923.89
-3093.36
-3306.07
-3457.51
-3701.54
-3945.83
-4211.51
-4547.51
-5125.69
-6288.11
-9105.01
-15873.7
-28322.4
-33220.7
-18984.1
-5280.78
-1915.32
5783.33
23865.1
53379
94101.4
144806
142704
95624.8
64045.8
42829.5
29462.4
20915.6
15627.6
12393.6
10395.9
9094.61
8251.05
7727.68
7428.29
7288.77
7258.15
7297.59
7378.04
7471.23
7609.15
7707.87
7801.72
7801.87
7740.9
7606.55
7405.99
7146.35
6835.94
6571.25
6301.19
5986.48
5764.78
5417.51
5217.7
4948.69
4508.99
4342.45
3346.94
2702.75
2274.89
1471.54
1026.15
650.436
115.058
-266.347
-540.488
-780.949
-949.159
-1106.6
-1141.06
-1256.76
-1146.84
-1050.37
-939.103
-734.457
-437.599
-161.633
-118.17
532.602
327.501
873.229
782.709
888.441
1635.27
708.926
1101.39
592.489
805.783
82.5775
326.108
-614.759
43.2465
-1528.49
-1153.5
-1888.33
-1803.54
-1783.95
-1769.2
-1758.53
-1755.12