/*--------------------------------*- C++ -*----------------------------------*\
| =========                 |                                                 |
| \\      /  F ield         | OpenFOAM: The Open Source CFD Toolbox           |
|  \\    /   O peration     | Version:  2.2.x                                 |
|   \\  /    A nd           | Web:      www.OpenFOAM.org                      |
|    \\/     M anipulation  |                                                 |
\*---------------------------------------------------------------------------*/
FoamFile
{
    version     2.0;
    format      ascii;
    class       volScalarField;
    location    "1.35";
    object      Bx;
}
// * * * * * * * * * * * * * * * * * * * * * * * * * * * * * * * * * * * * * //

dimensions      [1 0 -2 0 0 -1 0];

internalField   nonuniform List<scalar> 
14161
(
1.00991
1.00514
1.00642
1.00624
1.00646
1.00662
1.00682
1.00703
1.00726
1.0075
1.00773
1.00797
1.00821
1.00845
1.00868
1.0089
1.00911
1.0093
1.00949
1.00964
1.00978
1.00989
1.00998
1.01004
1.01007
1.01007
1.01004
1.00999
1.0099
1.0098
1.00964
1.00947
1.00926
1.00903
1.00879
1.00849
1.00818
1.00782
1.00748
1.00715
1.00694
1.0067
1.00667
1.00686
1.00818
1.00924
1.01961
1.02274
1.1796
1.38515
1.40502
1.37317
1.35548
1.34797
1.34589
1.34257
1.34028
1.33654
1.33263
1.32805
1.32382
1.31981
1.31426
1.30913
1.30416
1.2997
1.29541
1.29099
1.28624
1.28151
1.27733
1.274
1.27069
1.26721
1.26301
1.25882
1.25613
1.25496
1.25446
1.25514
1.25327
1.25125
1.25203
1.25265
1.25177
1.25189
1.25648
1.25977
1.26204
1.24493
1.18121
1.08133
0.943207
0.815882
0.712011
0.633489
0.568766
0.519883
0.478761
0.445798
0.419209
0.396776
0.374983
0.356886
0.339093
0.323256
0.305366
0.289053
0.271054
0.251798
0.229824
0.209246
0.174816
0.155076
0.108875
0.0958428
0.0494623
0.0466805
-0.00434332
1.00992
1.00513
1.00642
1.00624
1.00646
1.00661
1.00683
1.00704
1.00726
1.00748
1.00773
1.00798
1.00822
1.00845
1.00867
1.00888
1.00911
1.00932
1.0095
1.00965
1.00978
1.00988
1.00997
1.01003
1.01007
1.01007
1.01003
1.00997
1.00988
1.00977
1.0096
1.0094
1.00916
1.00891
1.00865
1.0083
1.00792
1.00756
1.00722
1.00686
1.00649
1.00623
1.00629
1.00696
1.0095
1.01019
1.02301
1.00931
1.05577
1.03536
1.08114
1.0968
1.10348
1.10937
1.12264
1.12676
1.13331
1.1389
1.1463
1.15424
1.1629
1.17312
1.17897
1.18424
1.18805
1.19103
1.1955
1.19986
1.20168
1.20212
1.20143
1.20241
1.20589
1.21289
1.21702
1.22078
1.22049
1.20822
1.19977
1.20211
1.20311
1.19772
1.1848
1.17929
1.18819
1.17172
1.13059
1.08561
1.01655
0.923996
0.834249
0.759543
0.68944
0.634033
0.584479
0.543068
0.510273
0.478027
0.454875
0.433865
0.413359
0.393501
0.375446
0.359835
0.344179
0.328956
0.313436
0.297983
0.280764
0.262521
0.242326
0.222041
0.190172
0.169991
0.125363
0.108561
0.0639563
0.0551727
0.00362329
1.00991
1.00512
1.00641
1.00623
1.00645
1.00661
1.00681
1.00703
1.00726
1.00749
1.00773
1.00797
1.00821
1.00845
1.00868
1.00889
1.00911
1.00932
1.0095
1.00966
1.00978
1.00988
1.00997
1.01004
1.01008
1.01009
1.01006
1.01002
1.00995
1.00986
1.00973
1.00957
1.00939
1.0092
1.00898
1.00872
1.00847
1.00822
1.0079
1.00749
1.00692
1.00626
1.00545
1.00464
1.00261
1.0009
0.992838
0.989533
0.95479
0.856166
0.893787
0.905238
0.934821
0.94911
0.97749
0.994708
1.0181
1.04021
1.06284
1.083
1.10235
1.12236
1.13581
1.1485
1.15794
1.16546
1.17066
1.17516
1.17959
1.18645
1.19398
1.19916
1.19965
1.1988
1.19762
1.19695
1.20382
1.21276
1.20564
1.17077
1.1467
1.15284
1.1594
1.12129
1.02843
0.967239
0.878698
0.776044
0.695465
0.624458
0.553144
0.500161
0.47058
0.4519
0.446505
0.427478
0.416558
0.408253
0.395011
0.384575
0.375553
0.367141
0.360913
0.351681
0.34109
0.328538
0.312558
0.298252
0.281069
0.262831
0.24089
0.22131
0.191678
0.169372
0.134725
0.113767
0.07055
0.0561373
0.00574404
1.0099
1.00512
1.00641
1.00623
1.00645
1.00661
1.00682
1.00703
1.00726
1.00749
1.00773
1.00797
1.00821
1.00845
1.00868
1.00891
1.00912
1.00931
1.00949
1.00965
1.00978
1.0099
1.00998
1.01005
1.01008
1.01008
1.01005
1.00999
1.00989
1.00976
1.00959
1.00937
1.00912
1.00884
1.00853
1.00815
1.00776
1.00733
1.00685
1.0064
1.00596
1.00538
1.00457
1.00374
1.00227
1.0006
0.993316
0.99006
0.915258
0.767441
0.78857
0.802083
0.846026
0.865588
0.909735
0.938657
0.970453
0.99888
1.02998
1.05478
1.08006
1.1038
1.12054
1.1363
1.1467
1.15544
1.16219
1.16895
1.17474
1.17861
1.18022
1.18267
1.18663
1.19327
1.20205
1.2064
1.20082
1.17906
1.17076
1.18629
1.16781
1.10045
1.02325
0.997146
0.970187
0.882044
0.783744
0.708689
0.611086
0.539191
0.505844
0.477409
0.451235
0.433491
0.420529
0.414469
0.403225
0.396438
0.392558
0.388211
0.381789
0.373371
0.363277
0.349959
0.337513
0.32372
0.307507
0.288434
0.265479
0.246392
0.223146
0.20317
0.176496
0.155377
0.121107
0.103128
0.0662621
0.0492352
0.011342
1.00989
1.00511
1.00641
1.00623
1.00645
1.0066
1.00681
1.00703
1.00726
1.00749
1.00773
1.00796
1.0082
1.00845
1.00868
1.00892
1.00912
1.0093
1.00948
1.00964
1.0098
1.00992
1.01001
1.01008
1.01012
1.01014
1.01012
1.01009
1.01003
1.00996
1.00985
1.00973
1.00961
1.00947
1.0093
1.00912
1.0089
1.00864
1.00832
1.00802
1.0076
1.00678
1.00573
1.00467
1.00255
1.00017
0.995029
0.984981
0.914873
0.766132
0.771171
0.780744
0.835994
0.861791
0.908693
0.944178
0.985706
1.02085
1.05592
1.08138
1.10918
1.1297
1.14606
1.16231
1.17363
1.18343
1.18964
1.19316
1.19761
1.20212
1.20854
1.21465
1.21759
1.21778
1.21378
1.2075
1.20955
1.22371
1.22352
1.18479
1.12428
1.11195
1.11933
1.04381
0.910417
0.862591
0.802557
0.728887
0.670185
0.609219
0.535407
0.486739
0.452125
0.433852
0.414497
0.399256
0.387595
0.381262
0.37315
0.364774
0.359089
0.352836
0.34461
0.332139
0.314938
0.295388
0.271793
0.253773
0.232794
0.209506
0.179472
0.16159
0.136707
0.12132
0.0944015
0.0772944
0.0473961
0.0394223
0.0117535
1.00988
1.00512
1.0064
1.00623
1.00645
1.0066
1.00681
1.00702
1.00725
1.00749
1.00773
1.00797
1.00821
1.00845
1.00869
1.00891
1.00912
1.00932
1.0095
1.00967
1.00981
1.00993
1.01002
1.01008
1.01012
1.01013
1.0101
1.01004
1.00994
1.00982
1.00963
1.00943
1.00916
1.00886
1.00852
1.00816
1.00774
1.00727
1.00672
1.00617
1.00562
1.0049
1.0039
1.00287
1.00085
0.999356
0.990194
0.996978
0.930721
0.784636
0.801793
0.808671
0.878719
0.909803
0.957673
0.998026
1.03859
1.07686
1.10833
1.13199
1.15839
1.17114
1.18871
1.20206
1.2106
1.2176
1.22163
1.22812
1.23302
1.23664
1.2379
1.23671
1.23627
1.24014
1.25004
1.25142
1.24845
1.2351
1.22394
1.20836
1.21746
1.1848
1.08767
1.03084
1.01195
0.947684
0.877935
0.829269
0.752262
0.680759
0.628513
0.570631
0.509605
0.468842
0.424815
0.398677
0.377516
0.363802
0.356655
0.350488
0.338744
0.32477
0.308172
0.293626
0.281467
0.266767
0.242451
0.21854
0.180249
0.166851
0.140419
0.127518
0.0987014
0.0830936
0.0646693
0.0599328
0.0395629
0.0339367
0.0132488
1.00987
1.00511
1.0064
1.00623
1.00644
1.0066
1.00681
1.00702
1.00726
1.00749
1.00773
1.00797
1.00822
1.00846
1.00869
1.00891
1.00912
1.00933
1.00951
1.00969
1.00984
1.00996
1.01005
1.01012
1.01018
1.01021
1.01022
1.0102
1.01016
1.01011
1.01004
1.00996
1.00988
1.00979
1.0097
1.00961
1.00952
1.00941
1.00927
1.00915
1.00903
1.00886
1.00841
1.00802
1.00683
1.00662
1.00181
1.00795
0.976175
0.835591
0.892931
0.885168
0.972947
1.02036
1.07413
1.10702
1.14491
1.17279
1.18792
1.20985
1.22855
1.23549
1.25444
1.2529
1.2629
1.2638
1.27042
1.27448
1.27546
1.27547
1.27755
1.28003
1.28473
1.28674
1.28277
1.27866
1.27651
1.28467
1.27223
1.28046
1.24383
1.20676
1.18059
1.14859
1.07351
1.02694
0.975809
0.920191
0.864395
0.806836
0.726546
0.640958
0.560602
0.49989
0.446688
0.400242
0.373035
0.354107
0.33358
0.319878
0.312569
0.305232
0.296624
0.28142
0.249776
0.232906
0.204442
0.197427
0.168327
0.152086
0.110185
0.0973097
0.0691922
0.0658672
0.0462485
0.0399387
0.0280039
0.0304452
0.0140325
1.00986
1.00512
1.00639
1.00623
1.00644
1.0066
1.00681
1.00702
1.00726
1.00749
1.00773
1.00798
1.00822
1.00846
1.0087
1.00893
1.00915
1.00935
1.00953
1.0097
1.00985
1.00998
1.01008
1.01015
1.01019
1.01022
1.01019
1.01015
1.01006
1.00994
1.00976
1.00957
1.00932
1.00902
1.00868
1.00832
1.00792
1.00751
1.00701
1.00656
1.00608
1.00563
1.00531
1.00491
1.0054
1.00454
1.01305
0.998027
1.04728
0.959997
1.00937
1.02693
1.10643
1.15102
1.19335
1.21573
1.24761
1.26016
1.2689
1.28842
1.29189
1.30284
1.31114
1.30791
1.31574
1.31348
1.3167
1.31517
1.31744
1.31753
1.31856
1.31813
1.316
1.31354
1.3125
1.31807
1.31513
1.31516
1.30334
1.3067
1.29216
1.26944
1.22399
1.1965
1.14873
1.10113
1.06043
1.00576
0.958707
0.899004
0.83611
0.759352
0.672466
0.576222
0.500155
0.434043
0.388842
0.355949
0.341866
0.32777
0.310674
0.293446
0.277342
0.263747
0.250063
0.236558
0.209444
0.187322
0.148701
0.134274
0.100351
0.0944439
0.0619577
0.0524547
0.0311717
0.0401385
0.0240286
0.0283697
0.0159062
1.00984
1.00512
1.00639
1.00622
1.00644
1.0066
1.00681
1.00703
1.00726
1.00749
1.00773
1.00798
1.00823
1.00847
1.00871
1.00893
1.00915
1.00936
1.00955
1.00973
1.00988
1.01002
1.01013
1.01021
1.01028
1.01032
1.01036
1.01036
1.01035
1.01032
1.01029
1.01025
1.01023
1.01021
1.0102
1.01021
1.01026
1.01038
1.01054
1.01081
1.01117
1.0117
1.01236
1.01347
1.01507
1.01803
1.02421
1.03093
1.09119
1.21852
1.222
1.27303
1.26171
1.26154
1.27232
1.27851
1.30196
1.30166
1.32175
1.32804
1.33027
1.34044
1.33242
1.34454
1.33996
1.34634
1.34169
1.34311
1.34181
1.34272
1.34184
1.3405
1.33931
1.33846
1.3391
1.33624
1.33821
1.32618
1.33751
1.32304
1.32052
1.29942
1.25577
1.21824
1.19744
1.1484
1.10314
1.05324
1.01738
0.964288
0.91048
0.845091
0.773491
0.668386
0.565942
0.477548
0.416003
0.376181
0.336812
0.314952
0.302133
0.290967
0.284494
0.273314
0.249533
0.229827
0.200232
0.18633
0.162895
0.146395
0.103247
0.0901509
0.0520103
0.0588964
0.0351424
0.036524
0.0209855
0.0298311
0.0179743
1.00983
1.00512
1.00639
1.00622
1.00644
1.0066
1.00681
1.00703
1.00726
1.0075
1.00774
1.00799
1.00823
1.00848
1.00872
1.00895
1.00917
1.00938
1.00958
1.00975
1.00991
1.01005
1.01016
1.01025
1.01031
1.01035
1.01035
1.01032
1.01025
1.01015
1.01001
1.00982
1.0096
1.00933
1.00901
1.00865
1.00827
1.00788
1.00748
1.00709
1.0067
1.00644
1.00622
1.00628
1.00632
1.00706
1.00765
1.01584
1.05393
1.28811
1.3608
1.35565
1.35012
1.33909
1.33771
1.33683
1.34643
1.34059
1.35725
1.34943
1.36352
1.35128
1.36321
1.3523
1.36184
1.35642
1.35947
1.3565
1.35617
1.35455
1.35386
1.35242
1.35122
1.34949
1.34694
1.34645
1.34323
1.34942
1.33138
1.34397
1.3054
1.3057
1.25318
1.22959
1.18569
1.16851
1.1362
1.08875
1.04599
1.0015
0.957475
0.91152
0.856057
0.777605
0.672564
0.561785
0.460714
0.400614
0.362045
0.345624
0.319403
0.298369
0.279482
0.269102
0.256402
0.246349
0.223181
0.206802
0.164
0.155255
0.113541
0.105363
0.0715159
0.0633685
0.031534
0.0421831
0.0250545
0.0307931
0.0195862
1.00981
1.00512
1.00638
1.00622
1.00644
1.0066
1.00682
1.00703
1.00727
1.0075
1.00775
1.00799
1.00824
1.00849
1.00873
1.00897
1.00919
1.0094
1.00961
1.00979
1.00996
1.01011
1.01023
1.01033
1.01042
1.01048
1.01054
1.01057
1.0106
1.0106
1.01061
1.01061
1.01063
1.01068
1.01076
1.01083
1.01096
1.01116
1.01144
1.01181
1.01214
1.01275
1.01313
1.01404
1.0143
1.01544
1.01391
1.02725
0.994919
1.16566
1.31602
1.33561
1.34316
1.3393
1.3457
1.34192
1.35272
1.34592
1.35982
1.3493
1.36574
1.35215
1.36609
1.35574
1.36336
1.35769
1.3611
1.3589
1.35849
1.35649
1.35623
1.3553
1.35497
1.3546
1.3545
1.35487
1.35134
1.35242
1.34724
1.32861
1.32277
1.26693
1.24677
1.21254
1.17939
1.14522
1.12967
1.09559
1.06103
1.0284
0.988014
0.946188
0.900068
0.839472
0.767305
0.653609
0.546221
0.456823
0.38029
0.34605
0.31949
0.305094
0.29286
0.284865
0.269571
0.257174
0.232512
0.2182
0.194496
0.177693
0.141448
0.125594
0.07589
0.0780224
0.0478579
0.0492727
0.0270403
0.0344388
0.0220537
1.0098
1.00512
1.00638
1.00622
1.00644
1.00661
1.00682
1.00703
1.00727
1.00751
1.00775
1.008
1.00825
1.0085
1.00875
1.00899
1.00922
1.00944
1.00964
1.00983
1.01
1.01016
1.01029
1.0104
1.01048
1.01053
1.01057
1.01057
1.01053
1.01047
1.01036
1.0102
1.01001
1.00977
1.00949
1.00915
1.00878
1.00837
1.00787
1.00733
1.00685
1.00626
1.00583
1.00526
1.00505
1.00446
1.0053
1.00701
1.02721
1.11002
1.21139
1.26068
1.31289
1.32067
1.32746
1.32605
1.33777
1.335
1.34988
1.34341
1.35557
1.34932
1.36053
1.35223
1.35842
1.35435
1.35793
1.35459
1.35404
1.35244
1.35182
1.35113
1.35195
1.3515
1.35229
1.34863
1.35322
1.34007
1.35825
1.31119
1.31261
1.24841
1.22648
1.18796
1.16763
1.12438
1.10081
1.0861
1.05516
1.03535
1.00244
0.970034
0.937411
0.89279
0.831263
0.74365
0.621658
0.512302
0.425245
0.381079
0.346373
0.327422
0.306738
0.29661
0.282945
0.27483
0.25781
0.243857
0.217636
0.202789
0.167679
0.152515
0.111635
0.102835
0.0515964
0.0576504
0.0367406
0.0388165
0.0244861
1.00978
1.00512
1.00638
1.00622
1.00644
1.00661
1.00682
1.00704
1.00728
1.00751
1.00776
1.00801
1.00826
1.00852
1.00876
1.00901
1.00924
1.00947
1.00968
1.00988
1.01006
1.01023
1.01038
1.0105
1.01061
1.0107
1.01078
1.01084
1.01091
1.01096
1.011
1.01104
1.0111
1.01119
1.01129
1.01139
1.01159
1.01182
1.01204
1.01223
1.01261
1.01288
1.01337
1.01319
1.01361
1.01182
1.01598
1.00173
1.10046
1.06608
1.12282
1.17968
1.2533
1.29048
1.29687
1.31295
1.31551
1.33052
1.32771
1.34492
1.33668
1.35233
1.34121
1.35353
1.34793
1.35019
1.34953
1.3495
1.34887
1.34846
1.3479
1.34797
1.34877
1.35009
1.3506
1.35025
1.34949
1.34421
1.32294
1.29034
1.26561
1.22424
1.17416
1.16622
1.14554
1.1166
1.08382
1.06041
1.04634
1.02167
1.00065
0.97215
0.940322
0.904026
0.856467
0.793305
0.703478
0.590396
0.475979
0.407467
0.359835
0.33945
0.319642
0.309144
0.297486
0.288667
0.275298
0.263218
0.244272
0.230147
0.204558
0.191717
0.14108
0.130928
0.0778402
0.0761727
0.0410636
0.0443398
0.0301186
1.00977
1.00513
1.00638
1.00623
1.00644
1.00661
1.00682
1.00704
1.00728
1.00752
1.00777
1.00802
1.00828
1.00853
1.00879
1.00904
1.00928
1.00951
1.00973
1.00993
1.01013
1.0103
1.01045
1.01059
1.0107
1.01079
1.01085
1.0109
1.01091
1.01088
1.01083
1.01073
1.01058
1.0104
1.01015
1.00985
1.0095
1.00902
1.00848
1.00785
1.00714
1.00598
1.00474
1.00346
1.00229
0.999415
1.00226
0.990216
1.05454
1.0749
1.07819
1.132
1.1649
1.24848
1.26111
1.2981
1.30368
1.32502
1.32154
1.34168
1.33054
1.34669
1.3385
1.34638
1.34305
1.34786
1.3444
1.34523
1.3448
1.34486
1.34478
1.34547
1.34626
1.34557
1.34671
1.34419
1.34466
1.33412
1.30586
1.26674
1.19409
1.18712
1.14698
1.13067
1.10735
1.08114
1.06544
1.05101
1.03348
1.01538
0.997247
0.976511
0.951386
0.921366
0.887369
0.84122
0.770373
0.663126
0.553604
0.457592
0.402241
0.369325
0.343238
0.327663
0.316091
0.307341
0.296955
0.288707
0.27084
0.259389
0.234888
0.219577
0.182113
0.162108
0.0948901
0.0904516
0.052381
0.0535105
0.0333782
1.00976
1.00513
1.00638
1.00623
1.00645
1.00661
1.00683
1.00705
1.00729
1.00753
1.00778
1.00804
1.0083
1.00855
1.00881
1.00907
1.00931
1.00955
1.00978
1.01
1.0102
1.01039
1.01056
1.01072
1.01086
1.01098
1.01109
1.01119
1.01128
1.01138
1.01147
1.01156
1.01166
1.01176
1.0119
1.01206
1.01225
1.01244
1.01267
1.01307
1.01351
1.01403
1.01441
1.01495
1.01536
1.01775
1.01841
1.03878
1.09157
1.09946
1.09512
1.11787
1.13088
1.21768
1.23909
1.29787
1.30224
1.33223
1.32473
1.34509
1.3312
1.35072
1.33675
1.34937
1.34313
1.34796
1.34642
1.3465
1.34512
1.34527
1.34465
1.34396
1.34422
1.34497
1.34748
1.34464
1.34057
1.30701
1.27192
1.20248
1.16904
1.13693
1.11237
1.07502
1.05786
1.05444
1.04306
1.02531
1.01278
0.995939
0.979575
0.965246
0.94581
0.926714
0.894939
0.85912
0.808216
0.728857
0.629255
0.518011
0.429822
0.383867
0.353517
0.336442
0.325712
0.321419
0.312994
0.305543
0.292756
0.279143
0.257689
0.244293
0.207968
0.189024
0.122817
0.113785
0.0650644
0.0619384
0.0420229
1.00975
1.00513
1.00638
1.00623
1.00645
1.00662
1.00683
1.00706
1.0073
1.00754
1.0078
1.00805
1.00832
1.00858
1.00884
1.0091
1.00935
1.0096
1.00984
1.01007
1.01028
1.01048
1.01066
1.01083
1.01098
1.01112
1.01122
1.01131
1.01137
1.01141
1.01142
1.01139
1.01132
1.01121
1.01105
1.01083
1.01059
1.01022
1.00976
1.00927
1.00854
1.00809
1.00708
1.00708
1.00522
1.01039
0.992077
1.0819
1.0517
1.06528
1.07078
1.07858
1.0885
1.15388
1.17449
1.25531
1.26328
1.30822
1.30553
1.32967
1.3334
1.33947
1.33866
1.34225
1.33872
1.34349
1.34001
1.3404
1.33919
1.3397
1.33896
1.33889
1.34046
1.34093
1.33896
1.33203
1.3123
1.26264
1.22284
1.14422
1.13524
1.08908
1.06545
1.04638
1.02555
1.02176
1.00742
0.99655
0.98821
0.976139
0.965159
0.948388
0.930499
0.913563
0.891036
0.859997
0.812915
0.75197
0.657762
0.555285
0.459163
0.410192
0.377412
0.358432
0.345037
0.339089
0.331954
0.322544
0.309509
0.298413
0.276137
0.261863
0.232526
0.214366
0.150354
0.140743
0.0779359
0.0749773
0.0441974
1.00974
1.00513
1.00638
1.00623
1.00645
1.00662
1.00684
1.00706
1.0073
1.00755
1.00781
1.00807
1.00834
1.00861
1.00887
1.00914
1.0094
1.00965
1.0099
1.01014
1.01037
1.01059
1.01079
1.01099
1.01116
1.01133
1.01148
1.01163
1.01177
1.01189
1.01202
1.01217
1.01231
1.01246
1.01263
1.0128
1.013
1.01326
1.01356
1.01392
1.0142
1.01465
1.01485
1.0155
1.01459
1.02001
1.00462
1.07068
1.04705
1.05372
1.05895
1.06183
1.07738
1.08556
1.14819
1.15717
1.24414
1.24885
1.3042
1.29935
1.33093
1.31955
1.33523
1.32999
1.33559
1.33145
1.33368
1.33204
1.33217
1.33178
1.33213
1.32926
1.32733
1.31756
1.30773
1.25831
1.22234
1.12315
1.10424
1.07513
1.0667
1.05089
1.03386
1.02096
1.00898
0.991098
0.978366
0.966858
0.960977
0.956813
0.947205
0.935894
0.920218
0.904703
0.887319
0.865816
0.835604
0.789587
0.716463
0.613156
0.509815
0.440586
0.401588
0.37646
0.357495
0.347067
0.338197
0.328779
0.317871
0.308192
0.287865
0.27673
0.251121
0.236676
0.180283
0.170776
0.0991494
0.0896701
0.0580353
1.00973
1.00514
1.00638
1.00624
1.00646
1.00663
1.00685
1.00707
1.00732
1.00757
1.00783
1.00809
1.00836
1.00863
1.00891
1.00918
1.00945
1.00971
1.00997
1.01022
1.01047
1.0107
1.01092
1.01113
1.01132
1.0115
1.01167
1.01182
1.01194
1.01205
1.01213
1.01219
1.01222
1.01222
1.0122
1.0121
1.012
1.01181
1.01158
1.01129
1.01093
1.01061
1.01014
1.00973
1.00813
1.01152
1.00106
1.05215
1.06142
1.06367
1.06386
1.06553
1.06998
1.08816
1.09566
1.14961
1.1657
1.25611
1.25111
1.31402
1.29658
1.3298
1.31401
1.32814
1.32126
1.32848
1.32613
1.32272
1.32031
1.31167
1.30316
1.27649
1.23972
1.18996
1.11703
1.045
0.966735
0.936113
0.933273
0.951625
0.959255
0.965251
0.967602
0.973335
0.969654
0.966168
0.959005
0.949437
0.938927
0.928438
0.919502
0.912079
0.898341
0.88376
0.867247
0.847357
0.819974
0.782458
0.72315
0.630183
0.535603
0.44341
0.403589
0.378258
0.361025
0.350948
0.342686
0.337135
0.326811
0.322005
0.303378
0.292619
0.270712
0.25609
0.211294
0.198523
0.119559
0.105667
0.0633758
1.00973
1.00514
1.00638
1.00624
1.00646
1.00663
1.00685
1.00708
1.00733
1.00758
1.00784
1.00811
1.00839
1.00866
1.00894
1.00922
1.0095
1.00978
1.01005
1.01032
1.01058
1.01083
1.01107
1.0113
1.01153
1.01174
1.01194
1.01214
1.01233
1.01252
1.0127
1.01289
1.01309
1.01329
1.01351
1.01374
1.014
1.01431
1.01466
1.01502
1.01582
1.01647
1.01761
1.01808
1.02307
1.01525
1.06597
1.07205
1.07577
1.07164
1.07069
1.07315
1.07618
1.0763
1.08967
1.10091
1.16069
1.16329
1.26646
1.2593
1.32064
1.3001
1.31714
1.3036
1.30682
1.29121
1.28125
1.24347
1.20853
1.15161
1.08999
1.01675
0.914733
0.820789
0.74507
0.705647
0.690885
0.708112
0.737728
0.782481
0.817975
0.851803
0.878452
0.901379
0.914328
0.919821
0.920568
0.923446
0.918129
0.912824
0.905184
0.893996
0.88734
0.877541
0.863119
0.845332
0.821685
0.792377
0.747635
0.671928
0.579017
0.48077
0.426049
0.39427
0.372756
0.359905
0.351961
0.346237
0.339004
0.3322
0.317351
0.306621
0.286869
0.274729
0.231022
0.2144
0.132513
0.116883
0.0743596
1.00972
1.00515
1.00639
1.00625
1.00647
1.00664
1.00686
1.00709
1.00734
1.0076
1.00786
1.00813
1.00841
1.0087
1.00898
1.00927
1.00956
1.00985
1.01013
1.01041
1.01069
1.01096
1.01122
1.01147
1.01172
1.01195
1.01218
1.01239
1.01259
1.01277
1.01294
1.0131
1.01325
1.01337
1.01347
1.01355
1.01362
1.01368
1.01373
1.01366
1.01379
1.0134
1.01408
1.01236
1.01894
0.996315
1.09454
1.01279
1.03549
1.0389
1.04665
1.05238
1.05862
1.05923
1.06227
1.07655
1.1205
1.12227
1.19747
1.21178
1.29445
1.2533
1.26079
1.21355
1.17275
1.10236
1.0363
0.942183
0.838464
0.757614
0.681019
0.627015
0.585269
0.554767
0.532204
0.524632
0.527179
0.542871
0.571078
0.611108
0.656581
0.715964
0.767499
0.80798
0.837035
0.854535
0.866227
0.872874
0.876132
0.876951
0.874928
0.869753
0.86027
0.852752
0.839455
0.824837
0.804296
0.778636
0.73892
0.678497
0.58934
0.496924
0.42943
0.397274
0.373188
0.359379
0.350917
0.343801
0.339195
0.33297
0.323271
0.313291
0.294868
0.282733
0.243166
0.225397
0.141256
0.128134
0.0844025
1.00972
1.00515
1.00639
1.00625
1.00647
1.00665
1.00687
1.0071
1.00735
1.00761
1.00788
1.00816
1.00844
1.00873
1.00903
1.00932
1.00962
1.00992
1.01022
1.01052
1.01081
1.0111
1.01139
1.01167
1.01195
1.01221
1.01247
1.01274
1.01299
1.01323
1.01347
1.01374
1.014
1.01429
1.01455
1.01482
1.01504
1.01527
1.01552
1.01574
1.01579
1.01534
1.01513
1.013
1.01582
1.00104
1.04617
1.03527
1.03968
1.04407
1.04829
1.05064
1.05356
1.06121
1.07556
1.08338
1.07455
1.09326
1.14496
1.15876
1.1445
1.1307
1.01952
0.947037
0.825646
0.762922
0.686109
0.644492
0.591879
0.550708
0.511404
0.486118
0.46497
0.453763
0.443573
0.442759
0.44373
0.453681
0.468795
0.493222
0.524847
0.570853
0.618385
0.67297
0.727156
0.767855
0.797631
0.817481
0.830227
0.837303
0.841968
0.843763
0.843832
0.837912
0.832355
0.820929
0.806041
0.785033
0.75235
0.705753
0.621507
0.536014
0.455482
0.418233
0.389491
0.371885
0.361444
0.35048
0.345632
0.33943
0.33397
0.324031
0.306535
0.294961
0.259423
0.239839
0.152426
0.143925
0.0938235
1.00973
1.00516
1.0064
1.00626
1.00648
1.00666
1.00688
1.00711
1.00737
1.00763
1.0079
1.00818
1.00848
1.00877
1.00907
1.00938
1.00969
1.01001
1.01032
1.01063
1.01094
1.01125
1.01156
1.01186
1.01216
1.01245
1.01274
1.01303
1.01331
1.01358
1.01385
1.01411
1.01433
1.01455
1.01475
1.01497
1.01516
1.0154
1.01564
1.01597
1.01625
1.01678
1.01763
1.02073
1.02415
1.02791
1.0668
1.07158
1.06793
1.06856
1.06715
1.061
1.05394
1.05276
1.06168
1.0701
1.06329
1.0367
1.0495
1.04325
0.951889
0.855677
0.793358
0.714337
0.670956
0.617635
0.582508
0.549891
0.521181
0.499567
0.473969
0.454115
0.436773
0.426029
0.420486
0.419053
0.418189
0.419299
0.42272
0.43288
0.448774
0.474524
0.50654
0.552998
0.604719
0.663463
0.713616
0.74886
0.775983
0.790021
0.801889
0.809723
0.814455
0.815346
0.812992
0.804601
0.792321
0.773912
0.746733
0.707018
0.636681
0.552865
0.472828
0.427362
0.395291
0.373531
0.359741
0.3491
0.343927
0.337892
0.334379
0.326181
0.308261
0.297888
0.266567
0.250111
0.16844
0.162386
0.108447
1.00972
1.00516
1.0064
1.00626
1.00649
1.00666
1.00689
1.00713
1.00738
1.00765
1.00793
1.00821
1.00851
1.00882
1.00912
1.00944
1.00976
1.01009
1.01042
1.01075
1.01108
1.01141
1.01175
1.01208
1.01241
1.01273
1.01306
1.01338
1.01371
1.01403
1.01435
1.01468
1.01504
1.01544
1.01587
1.01632
1.01675
1.01725
1.0178
1.01849
1.0187
1.01933
1.01834
1.02429
1.01043
1.09032
1.04928
1.06694
1.06751
1.0737
1.07359
1.06757
1.05866
1.0564
1.07117
1.07783
1.04289
0.988559
0.947332
0.852112
0.723623
0.697073
0.653558
0.632279
0.597916
0.578373
0.555673
0.540373
0.518735
0.503565
0.486197
0.468911
0.45113
0.435729
0.424267
0.417582
0.415547
0.414865
0.414396
0.415667
0.419201
0.42875
0.446076
0.473484
0.510256
0.5599
0.61408
0.670574
0.709015
0.735027
0.753906
0.769488
0.781237
0.789152
0.791562
0.79081
0.784902
0.775818
0.753663
0.7207
0.658383
0.579941
0.496749
0.446394
0.413533
0.389001
0.371991
0.358507
0.351375
0.343844
0.342414
0.334521
0.318065
0.30903
0.281571
0.268099
0.194286
0.186446
0.120124
1.00973
1.00517
1.00641
1.00627
1.0065
1.00667
1.0069
1.00714
1.0074
1.00767
1.00795
1.00824
1.00854
1.00886
1.00918
1.0095
1.00984
1.01018
1.01052
1.01087
1.01122
1.01158
1.01193
1.01229
1.01264
1.013
1.01335
1.01371
1.01407
1.01442
1.01478
1.01511
1.01543
1.01574
1.01602
1.01628
1.01643
1.01657
1.01662
1.01654
1.01605
1.01611
1.01436
1.02017
1.00113
1.06345
1.05539
1.05533
1.05931
1.06758
1.07029
1.06446
1.05372
1.04999
1.06705
1.06548
0.996504
0.919949
0.837065
0.712937
0.663882
0.636345
0.612466
0.592992
0.584672
0.568589
0.55945
0.545604
0.533499
0.521555
0.509926
0.496332
0.480334
0.463328
0.447955
0.436179
0.425564
0.419199
0.415155
0.414614
0.413667
0.416355
0.42054
0.433825
0.453447
0.484404
0.521904
0.57377
0.623885
0.677983
0.714924
0.736007
0.749269
0.760385
0.767552
0.769598
0.768372
0.761248
0.744268
0.717341
0.664323
0.590176
0.511384
0.458369
0.423548
0.395092
0.376197
0.362343
0.352982
0.343789
0.341442
0.336043
0.322339
0.315114
0.291973
0.282456
0.216767
0.206688
0.137436
1.00974
1.00517
1.00642
1.00628
1.00651
1.00669
1.00692
1.00715
1.00742
1.00769
1.00798
1.00827
1.00858
1.0089
1.00923
1.00957
1.00992
1.01027
1.01063
1.011
1.01137
1.01175
1.01213
1.01251
1.0129
1.01329
1.01368
1.01407
1.01447
1.01486
1.01526
1.01565
1.01605
1.01651
1.01708
1.0177
1.01828
1.01886
1.01974
1.02113
1.02236
1.02394
1.02631
1.02953
1.04059
1.08065
1.07762
1.07096
1.0704
1.07888
1.07942
1.07471
1.05807
1.05263
1.06704
1.03455
0.919237
0.819874
0.732736
0.678753
0.642514
0.626679
0.611631
0.599067
0.585713
0.578234
0.568176
0.560412
0.551278
0.54252
0.532807
0.52373
0.512138
0.497924
0.480695
0.464411
0.448456
0.436153
0.425393
0.41879
0.416242
0.415472
0.417145
0.419455
0.427236
0.444856
0.469775
0.506982
0.554257
0.609756
0.658774
0.690976
0.711389
0.725678
0.738022
0.745657
0.749191
0.747949
0.739685
0.719964
0.676836
0.606607
0.532035
0.472804
0.439719
0.409476
0.389651
0.373198
0.359968
0.350461
0.347873
0.342332
0.333896
0.326747
0.309069
0.300012
0.238492
0.228379
0.154194
1.00975
1.00518
1.00643
1.00629
1.00652
1.0067
1.00693
1.00717
1.00744
1.00771
1.008
1.0083
1.00862
1.00895
1.00929
1.00964
1.01
1.01037
1.01074
1.01113
1.01152
1.01192
1.01232
1.01273
1.01315
1.01357
1.01399
1.01441
1.01484
1.01527
1.01571
1.01615
1.01656
1.01699
1.01744
1.01783
1.01822
1.01836
1.0186
1.01834
1.01871
1.01651
1.02184
1.00154
1.10394
1.04293
1.0648
1.05974
1.06302
1.07292
1.07877
1.07359
1.04825
1.03799
1.03926
0.936647
0.816258
0.726841
0.679609
0.651606
0.636266
0.625095
0.617687
0.60909
0.598894
0.591161
0.584469
0.576563
0.568485
0.560823
0.55213
0.545346
0.536601
0.525922
0.514537
0.500198
0.482671
0.466209
0.450497
0.437161
0.427748
0.421193
0.419292
0.419698
0.422351
0.428002
0.441612
0.463532
0.493427
0.533519
0.581246
0.631629
0.675402
0.700699
0.714724
0.72282
0.728303
0.730604
0.726278
0.711915
0.67886
0.615474
0.548102
0.488942
0.454643
0.42374
0.401635
0.383908
0.368429
0.355514
0.350163
0.345828
0.342052
0.335182
0.320307
0.312036
0.253361
0.243548
0.172203
1.00976
1.00519
1.00643
1.0063
1.00653
1.00671
1.00694
1.00719
1.00746
1.00773
1.00803
1.00834
1.00866
1.009
1.00935
1.00971
1.01008
1.01046
1.01086
1.01126
1.01168
1.0121
1.01253
1.01297
1.01342
1.01387
1.01432
1.01477
1.01523
1.01569
1.01614
1.01658
1.01702
1.01747
1.01788
1.01835
1.01872
1.0192
1.01965
1.0204
1.02116
1.02232
1.02333
1.02104
1.06981
1.07445
1.07203
1.06629
1.0641
1.07494
1.08313
1.07199
1.03433
1.02056
0.958498
0.811898
0.729744
0.677942
0.652242
0.642777
0.630396
0.619831
0.61582
0.612508
0.606149
0.600699
0.593762
0.587272
0.579601
0.574513
0.566507
0.561015
0.554248
0.545606
0.53862
0.528286
0.515049
0.500945
0.483909
0.465395
0.450206
0.437482
0.428816
0.424561
0.424674
0.4266
0.43182
0.443694
0.463783
0.490781
0.52941
0.578044
0.629884
0.663925
0.686039
0.696891
0.705267
0.711244
0.711091
0.703663
0.678213
0.62067
0.558774
0.500058
0.464923
0.433403
0.411356
0.392677
0.376741
0.362468
0.357547
0.351436
0.352317
0.344826
0.333536
0.324304
0.270886
0.26197
0.191089
1.00978
1.0052
1.00645
1.00631
1.00654
1.00672
1.00696
1.0072
1.00748
1.00776
1.00806
1.00837
1.0087
1.00905
1.00941
1.00978
1.01016
1.01056
1.01097
1.01139
1.01183
1.01228
1.01273
1.01319
1.01367
1.01415
1.01462
1.01511
1.0156
1.01611
1.01664
1.01717
1.01768
1.01821
1.01876
1.01934
1.0198
1.02039
1.02079
1.02185
1.02154
1.02609
1.01294
1.08361
1.06361
1.07732
1.0751
1.06891
1.06452
1.07564
1.08448
1.05434
0.995936
0.931162
0.82126
0.734149
0.695515
0.670165
0.65576
0.652437
0.647209
0.636639
0.6281
0.626692
0.621597
0.616148
0.608961
0.60398
0.596622
0.591311
0.584677
0.577655
0.572527
0.563929
0.559356
0.552703
0.542217
0.53206
0.518051
0.501703
0.484023
0.464579
0.450318
0.43954
0.433062
0.431336
0.433499
0.437771
0.448521
0.46606
0.490348
0.523801
0.566667
0.613786
0.654018
0.678018
0.689495
0.695103
0.69763
0.692249
0.674683
0.626738
0.568213
0.510635
0.474337
0.444958
0.422567
0.402651
0.387803
0.372853
0.364105
0.35632
0.360779
0.352846
0.344419
0.33413
0.286965
0.277972
0.208141
1.0098
1.00521
1.00646
1.00632
1.00655
1.00674
1.00697
1.00722
1.0075
1.00778
1.00809
1.00841
1.00874
1.0091
1.00947
1.00985
1.01025
1.01066
1.01109
1.01153
1.01199
1.01246
1.01293
1.01342
1.01393
1.01444
1.01496
1.01547
1.01599
1.01651
1.01704
1.01754
1.01796
1.01829
1.01857
1.01881
1.01896
1.01895
1.01885
1.01899
1.01879
1.0226
1.00801
1.06021
1.05769
1.06035
1.06233
1.05126
1.04482
1.05205
1.05791
0.996451
0.904691
0.817897
0.728484
0.696093
0.677967
0.659265
0.649737
0.650007
0.649672
0.643508
0.637622
0.63374
0.630254
0.624984
0.618803
0.614352
0.608894
0.602716
0.598195
0.591128
0.586904
0.579354
0.574377
0.570042
0.561684
0.554855
0.544132
0.532017
0.516127
0.499195
0.479612
0.463704
0.450562
0.443102
0.440435
0.441541
0.446318
0.455087
0.472598
0.495372
0.528357
0.573889
0.620051
0.653764
0.669044
0.678588
0.683096
0.678125
0.666476
0.623243
0.57093
0.513977
0.479802
0.449879
0.427279
0.40824
0.394949
0.380012
0.372263
0.361313
0.368424
0.360765
0.35634
0.346135
0.30503
0.295216
0.226152
1.00982
1.00522
1.00647
1.00634
1.00657
1.00675
1.00699
1.00724
1.00752
1.00781
1.00812
1.00844
1.00879
1.00915
1.00953
1.00992
1.01033
1.01076
1.01121
1.01166
1.01214
1.01263
1.01313
1.01364
1.01417
1.0147
1.01524
1.01578
1.01633
1.01689
1.01745
1.01802
1.01862
1.01921
1.01986
1.02063
1.02161
1.02233
1.02363
1.02482
1.02993
1.02683
1.05334
1.06393
1.066
1.06602
1.06558
1.05537
1.03513
1.03262
1.0168
0.90549
0.802697
0.742624
0.711645
0.693173
0.690105
0.672739
0.664283
0.661444
0.660442
0.655556
0.648845
0.645455
0.643509
0.639511
0.634073