/*--------------------------------*- C++ -*----------------------------------*\
| =========                 |                                                 |
| \\      /  F ield         | OpenFOAM: The Open Source CFD Toolbox           |
|  \\    /   O peration     | Version:  2.2.x                                 |
|   \\  /    A nd           | Web:      www.OpenFOAM.org                      |
|    \\/     M anipulation  |                                                 |
\*---------------------------------------------------------------------------*/
FoamFile
{
    version     2.0;
    format      ascii;
    class       volScalarField;
    location    "1.35";
    object      p;
}
// * * * * * * * * * * * * * * * * * * * * * * * * * * * * * * * * * * * * * //

dimensions      [1 -1 -2 0 0 0 0];

internalField   nonuniform List<scalar> 
14161
(
0.193249
0.194438
0.194054
0.19406
0.193911
0.19376
0.193583
0.193392
0.193184
0.192969
0.192753
0.192539
0.192306
0.192091
0.191896
0.191695
0.191475
0.191287
0.19112
0.190981
0.190864
0.190751
0.190648
0.190561
0.190517
0.19052
0.190537
0.19057
0.190647
0.190736
0.190861
0.191001
0.191179
0.191361
0.191569
0.191774
0.192035
0.192376
0.192717
0.192959
0.19315
0.193308
0.193343
0.193081
0.192718
0.190102
0.187556
0.188015
0.395176
1.13723
1.18246
1.17044
1.14564
1.14651
1.13867
1.13088
1.12347
1.11943
1.11688
1.11434
1.11369
1.10485
1.09488
1.08794
1.08311
1.07974
1.0767
1.07396
1.07086
1.06914
1.06927
1.06915
1.06799
1.06598
1.06448
1.06538
1.06416
1.06577
1.07501
1.09401
1.12447
1.14862
1.15746
1.15555
1.15607
1.15818
1.16207
1.15869
1.14692
1.17435
1.25995
1.38687
1.54983
1.67592
1.75832
1.81347
1.85098
1.87699
1.89701
1.912
1.92206
1.92864
1.93518
1.94048
1.94581
1.95179
1.95839
1.965
1.97069
1.97809
1.98288
1.98983
1.99797
2.00473
2.01248
2.0148
2.01923
2.01816
2.0228
0.193256
0.194442
0.194056
0.194058
0.193913
0.193762
0.193574
0.193383
0.193188
0.192984
0.192758
0.192523
0.192295
0.192091
0.191909
0.191711
0.191472
0.191273
0.191107
0.190974
0.190863
0.190758
0.190655
0.190564
0.190519
0.190527
0.190547
0.190584
0.190671
0.190773
0.19091
0.191072
0.191275
0.19148
0.1917
0.191961
0.19229
0.192641
0.192952
0.193258
0.193528
0.193703
0.193643
0.192884
0.19141
0.189134
0.182348
0.19299
0.690118
1.42264
1.48051
1.46195
1.44018
1.43055
1.4082
1.39279
1.37765
1.36498
1.34817
1.32957
1.31368
1.28658
1.26286
1.24287
1.227
1.21393
1.20067
1.18779
1.17635
1.16839
1.1639
1.15803
1.14779
1.13291
1.12023
1.11158
1.10955
1.12346
1.14236
1.16018
1.18369
1.20887
1.23772
1.24038
1.23119
1.25602
1.31881
1.37365
1.43776
1.529
1.61945
1.6965
1.76834
1.82115
1.8585
1.88147
1.89663
1.91022
1.919
1.92554
1.93078
1.93511
1.9386
1.94216
1.94757
1.95362
1.95932
1.96556
1.97065
1.97799
1.983
1.99012
1.99762
2.0045
2.01243
2.01644
2.02159
2.02033
2.02545
0.193268
0.194446
0.194062
0.194066
0.193918
0.193769
0.193586
0.193392
0.193186
0.19297
0.192757
0.192543
0.192308
0.192096
0.191899
0.191702
0.191478
0.191277
0.191106
0.190971
0.190861
0.190763
0.190656
0.190562
0.190511
0.190504
0.190514
0.190541
0.190596
0.190682
0.190782
0.190904
0.191039
0.191192
0.191374
0.191561
0.191744
0.191987
0.19225
0.192596
0.192996
0.193554
0.194276
0.194967
0.196603
0.198595
0.204499
0.210535
1.00898
1.54805
1.63036
1.64218
1.60585
1.59213
1.55811
1.52906
1.49962
1.46989
1.43736
1.40582
1.37939
1.34252
1.30978
1.28125
1.25919
1.24146
1.22658
1.21274
1.19801
1.18296
1.16943
1.15997
1.15474
1.14875
1.14253
1.13867
1.12932
1.12106
1.13721
1.2036
1.25932
1.26732
1.27273
1.32315
1.4261
1.50762
1.60776
1.68466
1.73446
1.77475
1.81412
1.84424
1.87162
1.89332
1.908
1.91748
1.92363
1.92766
1.93285
1.93675
1.93823
1.93903
1.94013
1.94329
1.94779
1.95315
1.9589
1.96527
1.97095
1.97753
1.98334
1.99003
1.99623
2.0031
2.00943
2.01406
2.02036
2.01986
2.02448
0.193276
0.194447
0.194064
0.194067
0.193919
0.193769
0.193586
0.193393
0.193189
0.192973
0.192756
0.192542
0.192311
0.192094
0.191893
0.191686
0.191471
0.191285
0.191118
0.190979
0.190855
0.190737
0.190644
0.190558
0.190505
0.190509
0.190531
0.190576
0.190656
0.190776
0.190922
0.191104
0.191315
0.191556
0.191834
0.192141
0.192458
0.19288
0.193291
0.193691
0.19402
0.19446
0.195093
0.195764
0.196597
0.198372
0.200598
0.222084
1.12978
1.61134
1.69814
1.71752
1.67698
1.65224
1.60885
1.57229
1.53484
1.4998
1.46231
1.42671
1.3973
1.35641
1.32202
1.29415
1.27115
1.2481
1.22935
1.21508
1.20362
1.19531
1.18691
1.1773
1.16696
1.15207
1.1363
1.12827
1.13594
1.16773
1.18676
1.19127
1.24074
1.35578
1.45056
1.48571
1.51059
1.59516
1.67131
1.73041
1.78954
1.82388
1.84003
1.85615
1.87912
1.90191
1.91533
1.9239
1.92877
1.93263
1.93448
1.93577
1.93537
1.93509
1.93707
1.94189
1.94604
1.95156
1.95713
1.96509
1.97209
1.97798
1.98368
1.98821
1.99377
1.99998
2.00534
2.01068
2.01612
2.01642
2.0205
0.193291
0.19445
0.194067
0.194072
0.193923
0.193773
0.193589
0.193395
0.193189
0.192972
0.19276
0.192547
0.192319
0.192098
0.191885
0.191676
0.191471
0.191295
0.191136
0.19099
0.190841
0.19072
0.19062
0.190536
0.190477
0.190457
0.190461
0.19048
0.190519
0.190583
0.190668
0.190754
0.190838
0.190949
0.191077
0.191194
0.191341
0.191567
0.191821
0.192071
0.192388
0.193054
0.193705
0.194647
0.196135
0.198657
0.199894
0.220083
1.14695
1.61354
1.70622
1.73206
1.68165
1.64939
1.61398
1.57024
1.52383
1.48461
1.43891
1.40338
1.37486
1.33688
1.299
1.26612
1.2423
1.22134
1.2041
1.19135
1.17922
1.16699
1.15312
1.14035
1.1313
1.12509
1.1254
1.12938
1.12365
1.10742
1.11868
1.20221
1.30643
1.34142
1.34811
1.44145
1.55483
1.59735
1.64629
1.69009
1.71978
1.75252
1.80502
1.84337
1.87967
1.89918
1.91842
1.9273
1.93491
1.93851
1.94185
1.94362
1.94328
1.94278
1.94297
1.94669
1.95115
1.95772
1.96408
1.97034
1.97582
1.98142
1.98742
1.98994
1.99558
2.00003
2.00326
2.00697
2.01261
2.01188
2.01596
0.193297
0.194452
0.194068
0.194073
0.193923
0.193774
0.19359
0.193397
0.193191
0.192975
0.192757
0.192541
0.192315
0.192092
0.191883
0.191677
0.191468
0.19128
0.191114
0.190965
0.190828
0.190708
0.190614
0.190534
0.190478
0.190469
0.190488
0.190533
0.190611
0.190729
0.19089
0.191067
0.191291
0.191562
0.191871
0.192168
0.192519
0.192979
0.19346
0.193959
0.194435
0.195014
0.195734
0.196716
0.197942
0.200276
0.202731
0.214799
1.09502
1.58545
1.67981
1.70873
1.63471
1.59493
1.56463
1.51105
1.4601
1.41861
1.37788
1.34301
1.3136
1.28468
1.2487
1.22071
1.19757
1.17909
1.16489
1.14957
1.13619
1.12405
1.11683
1.1125
1.10775
1.09729
1.08132
1.07445
1.07607
1.09272
1.12302
1.16328
1.18644
1.27091
1.39115
1.43642
1.44728
1.50395
1.56111
1.59659
1.65557
1.69623
1.74355
1.7854
1.8398
1.8774
1.91173
1.92627
1.93763
1.94118
1.94709
1.94835
1.9525
1.95348
1.95613
1.95849
1.96065
1.96658
1.97418
1.97914
1.98593
1.98885
1.99278
1.99481
1.99974
1.99937
2.00025
2.00421
2.0091
2.00763
2.01196
0.193313
0.194459
0.194071
0.194075
0.193926
0.193776
0.193592
0.193398
0.193188
0.192977
0.192762
0.192541
0.192313
0.192088
0.191879
0.19168
0.191475
0.191277
0.191101
0.190945
0.190804
0.190683
0.190586
0.190499
0.19043
0.190391
0.190378
0.190385
0.190403
0.190446
0.190495
0.190544
0.190598
0.190659
0.190713
0.190751
0.190784
0.190859
0.190975
0.191064
0.191107
0.191239
0.191458
0.191891
0.192539
0.193195
0.194945
0.196257
0.95852
1.50995
1.61715
1.63648
1.53374
1.47974
1.43019
1.38982
1.34008
1.31178
1.28656
1.25233
1.2325
1.20959
1.1732
1.1639
1.13153
1.12305
1.10501
1.09335
1.08478
1.07559
1.06727
1.05795
1.04698
1.03899
1.03811
1.04083
1.04016
1.0279
1.0613
1.06707
1.1657
1.23934
1.28244
1.31985
1.38314
1.42038
1.46002
1.50101
1.53679
1.57868
1.63246
1.71702
1.77342
1.84095
1.88901
1.9148
1.92865
1.94212
1.95324
1.95854
1.95725
1.95609
1.95789
1.96266
1.97116
1.97428
1.9775
1.97977
1.98626
1.98916
1.99386
1.99375
1.99762
1.998
2.00014
2.00179
2.00578
2.00496
2.0083
0.193319
0.194462
0.194072
0.194076
0.193927
0.193776
0.193593
0.193399
0.193189
0.192977
0.192752
0.192531
0.192317
0.192091
0.19187
0.19166
0.191451
0.191259
0.191089
0.190937
0.190792
0.190661
0.190564
0.190482
0.190418
0.19039
0.190406
0.19044
0.190507
0.190621
0.190776
0.190945
0.191167
0.191438
0.19175
0.192053
0.192402
0.192789
0.193311
0.193745
0.19421
0.194635
0.194962
0.195325
0.195279
0.194458
0.191041
0.202259
0.653478
1.38704
1.52768
1.48097
1.37989
1.32091
1.28539
1.25839
1.21651
1.21096
1.18867
1.15851
1.15643
1.12625
1.10836
1.09953
1.05967
1.05994
1.04509
1.04016
1.02722
1.02133
1.0148
1.00906
1.00632
1.00426
0.99686
0.987655
0.990293
0.984462
1.01908
1.02655
1.10592
1.17198
1.22102
1.25467
1.29888
1.33479
1.35879
1.39001
1.41691
1.47578
1.51893
1.59871
1.66983
1.77283
1.84999
1.89536
1.91946
1.93896
1.94612
1.95396
1.95729
1.96106
1.9645
1.96752
1.9688
1.97049
1.97206
1.9782
1.98522
1.98863
1.99148
1.98935
1.99493
1.996
1.99779
1.99889
2.00435
2.00317
2.00549
0.193335
0.194468
0.194076
0.194079
0.193929
0.193777
0.193593
0.193396
0.193185
0.192977
0.192752
0.192527
0.192308
0.192085
0.191863
0.191657
0.191448
0.191251
0.191072
0.190912
0.190757
0.190621
0.190515
0.190428
0.190347
0.190289
0.190251
0.190236
0.190234
0.190253
0.19027
0.190283
0.190283
0.190285
0.190271
0.190225
0.190127
0.190003
0.189848
0.189599
0.189263
0.188812
0.188216
0.187321
0.185984
0.183043
0.180447
0.181766
0.321304
1.01835
1.4514
1.2987
1.24403
1.20705
1.18196
1.16666
1.13959
1.14795
1.11266
1.10486
1.10516
1.08205
1.08715
1.03986
1.02243
1.01412
1.01673
1.00077
0.994248
0.988561
0.985032
0.980959
0.977472
0.973476
0.964376
0.960303
0.955045
0.969611
0.958692
1.01473
1.05917
1.13409
1.19369
1.19455
1.20723
1.23712
1.26554
1.30864
1.3295
1.37389
1.41536
1.46934
1.55378
1.65363
1.77038
1.8481
1.89532
1.92542
1.94636
1.9564
1.96105
1.96038
1.95935
1.95915
1.9629
1.96836
1.97304
1.97577
1.97831
1.98132
1.98825
1.98912
1.9942
1.99355
1.99536
1.99857
2.00446
2.00251
2.00458
0.193342
0.194471
0.194077
0.19408
0.193929
0.193777
0.193593
0.193396
0.193182
0.192976
0.192746
0.192522
0.192304
0.192076
0.19185
0.191639
0.191432
0.19123
0.191051
0.190889
0.190731
0.190589
0.19048
0.190394
0.190324
0.190272
0.190265
0.190285
0.190336
0.190419
0.190557
0.190723
0.190921
0.191173
0.191465
0.191788
0.192129
0.192511
0.192909
0.193348
0.193732
0.194151
0.194344
0.194506
0.194491
0.193876
0.194047
0.196987
0.20164
0.586978
1.47675
1.33394
1.23777
1.18393
1.14222
1.11928
1.1018
1.09733
1.06957
1.08375
1.05956
1.07932
1.04185
1.03408
0.987285
0.997998
0.98479
0.983885
0.973814
0.972749
0.967166
0.963719
0.960768
0.958654
0.954184
0.946487
0.942249
0.931258
0.969651
0.984513
1.07888
1.11037
1.15344
1.16055
1.17345
1.17941
1.20104
1.23169
1.25299
1.28943
1.33835
1.38042
1.4568
1.53477
1.6529
1.77475
1.86199
1.90517
1.93062
1.93839
1.95078
1.95611
1.96134
1.96081
1.95957
1.96026
1.96185
1.96771
1.97507
1.97748
1.98349
1.98154
1.98894
1.98987
1.99368
1.99672
2.00294
2.00192
2.00352
0.193356
0.194476
0.19408
0.194081
0.19393
0.193777
0.193592
0.193394
0.193179
0.192972
0.192743
0.192515
0.192296
0.192069
0.19184
0.191625
0.191418
0.191211
0.191022
0.190857
0.190692
0.190541
0.190418
0.19032
0.190227
0.190151
0.190089
0.190045
0.19001
0.189993
0.189976
0.189968
0.189927
0.189864
0.189775
0.189682
0.189531
0.189319
0.18902
0.18868
0.188352
0.187898
0.187337
0.186665
0.186016
0.185787
0.186234
0.189059
0.224555
0.870999
1.40057
1.33298
1.2508
1.19222
1.14055
1.1143
1.09492
1.08846
1.06528
1.08121
1.05602
1.07573
1.03354
1.02782
0.986316
0.994369
0.979179
0.979443
0.973367
0.971352
0.964114
0.960449
0.95679
0.952671
0.945147
0.934818
0.928441
0.92384
0.942845
1.01845
1.07403
1.12691
1.13031
1.13922
1.15818
1.17164
1.16804
1.18218
1.21725
1.2381
1.27612
1.30201
1.35194
1.41813
1.51454
1.6493
1.77539
1.8648
1.9142
1.93302
1.94564
1.95078
1.95596
1.95479
1.95611
1.95704
1.95929
1.96217
1.96383
1.96745
1.97329
1.9755
1.98616
1.98637
1.99243
1.99589
2.00315
2.00184
2.00373
0.193362
0.194479
0.194081
0.194082
0.193929
0.193776
0.193591
0.193392
0.193175
0.192967
0.192736
0.192507
0.192286
0.192059
0.191821
0.191604
0.191397
0.191183
0.19099
0.190818
0.190652
0.190496
0.190367
0.190267
0.190178
0.190108
0.190064
0.190054
0.190081
0.190134
0.190236
0.19038
0.190547
0.190768
0.191037
0.19136
0.191695
0.192079
0.192557
0.193062
0.193644
0.194198
0.194646
0.195064
0.195421
0.195755
0.195849
0.202293
0.242709
0.90464
1.2233
1.30593
1.25799
1.21871
1.1747
1.13783
1.11201
1.09974
1.0762
1.09019
1.06922
1.07215
1.0396
1.02948
0.998702
0.993947
0.982419
0.985703
0.97859
0.975616
0.969564
0.966163
0.961082
0.95716
0.948383
0.941756
0.925101
0.936948
0.935886
1.05882
1.09602
1.13559
1.13518
1.13372
1.13819
1.15054
1.1549
1.15057
1.16979
1.17804
1.20735
1.23725
1.27538
1.34472
1.42138
1.53682
1.67922
1.80958
1.87809
1.91149
1.93123
1.94103
1.95056
1.95069
1.95143
1.94998
1.94976
1.95167
1.95386
1.95833
1.9634
1.96432
1.97552
1.98045
1.99102
1.99321
2.00145
2.00099
2.0036
0.193374
0.194484
0.194084
0.194082
0.193929
0.193775
0.193588
0.193388
0.193171
0.192963
0.19273
0.192499
0.192276
0.192047
0.191807
0.191583
0.191373
0.191155
0.190955
0.190774
0.190601
0.190431
0.190288
0.190167
0.190063
0.189961
0.189879
0.1898
0.18973
0.189675
0.189626
0.189574
0.189502
0.189411
0.189308
0.189183
0.188984
0.188719
0.188489
0.188239
0.187906
0.187536
0.187132
0.186753
0.18695
0.187448
0.18832
0.205137
0.367792
0.908398
1.0757
1.22736
1.26322
1.23771
1.21621
1.15754
1.13637
1.10778
1.10092
1.08051
1.0973
1.06451
1.07048
1.01339
1.00986
0.998068
0.992572
0.990669
0.9848
0.978898
0.974406
0.969852
0.96525
0.958118
0.950136
0.937157
0.921686
0.934451
1.00806
1.09846
1.12708
1.13335
1.15425
1.11848
1.11678
1.13451
1.14251
1.14254
1.14066
1.15304
1.17515
1.21014
1.23766
1.28397
1.34107
1.43038
1.55279
1.70613
1.83084
1.89654
1.9232
1.93418
1.94318
1.94331
1.94518
1.94446
1.94363
1.94452
1.94378
1.94592
1.94877
1.94968
1.96471
1.97136
1.98448
1.99079
2.00185
1.99979
2.00265
0.19338
0.194485
0.194085
0.194082
0.193927
0.193772
0.193587
0.193385
0.193166
0.192953
0.192723
0.192487
0.19226
0.192032
0.191785
0.191558
0.191343
0.191123
0.190913
0.190722
0.190544
0.190369
0.190218
0.19009
0.189986
0.189889
0.189814
0.189763
0.189736
0.189756
0.189802
0.189892
0.190021
0.190197
0.190432
0.190717
0.191054
0.191477
0.191972
0.192555
0.193257
0.194277
0.195435
0.196451
0.19793
0.199661
0.201102
0.223341
0.670125
0.879962
0.96222
1.06137
1.20764
1.23464
1.23987
1.18411
1.16332
1.12322
1.11625
1.08611
1.10844
1.06844
1.06869
1.02304
1.00986
0.998903
1.00086
0.995094
0.98847
0.983137
0.978421
0.972936
0.969306
0.965242
0.953753
0.943608
0.923657
0.956535
1.07176
1.13788
1.16781
1.14825
1.13871
1.12823
1.12239
1.12356
1.12549
1.122
1.12813
1.14023
1.14503
1.16716
1.18825
1.22054
1.2699
1.3467
1.46217
1.6098
1.76173
1.86282
1.90468
1.92242
1.93516
1.93711
1.94007
1.93748
1.93651
1.93498
1.93419
1.93532
1.93589
1.93709
1.9486
1.95471
1.97503
1.98638
1.99934
1.99822
2.00302
0.193388
0.194488
0.194086
0.194081
0.193926
0.19377
0.193582
0.193381
0.193161
0.192945
0.192715
0.192475
0.192245
0.192017
0.191766
0.191531
0.191308
0.191088
0.190866
0.190666
0.190479
0.19029
0.190121
0.18997
0.189841
0.189719
0.189599
0.189497
0.189398
0.189294
0.189196
0.189106
0.188999
0.188886
0.18876
0.188601
0.188417
0.188193
0.187939
0.187531
0.187079
0.186557
0.186021
0.185481
0.184587
0.183644
0.18785
0.209143
0.780841
0.878907
0.913209
0.950986
1.06084
1.13089
1.20136
1.17162
1.17154
1.1164
1.11649
1.08252
1.10637
1.06388
1.07006
1.01075
1.00762
0.995595
0.995336
0.991258
0.989239
0.982387
0.978338
0.974937
0.973326
0.967612
0.953451
0.943487
0.943952
1.03794
1.12392
1.16853
1.16025
1.13991
1.13678
1.14826
1.12963
1.11568
1.11027
1.11244
1.11558
1.1242
1.13395
1.14549
1.1662
1.19045
1.23425
1.28376
1.36797
1.4943
1.65555
1.79991
1.87753
1.90772
1.92367
1.92852
1.93301
1.92919
1.92793
1.92529
1.92252
1.9235
1.92376
1.92252
1.9321
1.93771
1.96349
1.97601
1.99491
1.99599
2.00163
0.193392
0.194489
0.194086
0.19408
0.193924
0.193768
0.193577
0.193376
0.193156
0.192932
0.192706
0.19246
0.192224
0.191994
0.191741
0.191499
0.191271
0.191047
0.190814
0.190602
0.190407
0.19021
0.190029
0.189868
0.189729
0.189603
0.189486
0.189396
0.18933
0.18929
0.189266
0.189285
0.189342
0.189442
0.189592
0.189814
0.190057
0.19039
0.190802
0.191343
0.191873
0.19264
0.193084
0.193953
0.19395
0.19387
0.209832
0.328954
0.89963
0.911349
0.920829
0.933272
0.967042
0.998745
1.13264
1.14969
1.18063
1.13451
1.13953
1.10376
1.09254
1.0889
1.05801
1.02063
1.01199
0.999723
1.00045
0.995487
0.994331
0.988367
0.983861
0.98198
0.980496
0.973385
0.96616
0.972616
1.02575
1.13191
1.16757
1.17106
1.12443
1.13127
1.13851
1.13148
1.12708
1.11459
1.11179
1.10674
1.1047
1.10717
1.11678
1.13236
1.15349
1.16763
1.20071
1.24314
1.30913
1.41473
1.56444
1.72757
1.84432
1.89244
1.91573
1.92282
1.92891
1.9252
1.92223
1.91811
1.91415
1.9132
1.91229
1.91008
1.91671
1.91887
1.94543
1.96701
1.992
1.9934
1.99942
0.193398
0.19449
0.194086
0.194079
0.193922
0.193764
0.193572
0.19337
0.193149
0.192922
0.192696
0.192447
0.192204
0.191968
0.191719
0.191465
0.191229
0.191001
0.190757
0.19053
0.190323
0.190116
0.189908
0.189728
0.18957
0.189414
0.18925
0.189097
0.188966
0.188856
0.18872
0.188558
0.188408
0.188255
0.188101
0.187949
0.187769
0.187522
0.187207
0.186899
0.186358
0.186106
0.185601
0.18551
0.185086
0.184468
0.208148
0.607609
0.919006
0.924257
0.918382
0.916343
0.921049
0.948967
0.974112
1.10965
1.1279
1.16551
1.12412
1.12892
1.092
1.11516
1.05216
1.03261
1.01803
1.01428
1.00246
1.00311
1.00123
0.998752
0.990967
0.997624
1.00625
1.01022
1.03416
1.12762
1.20479
1.27227
1.21606
1.18533
1.15176
1.13351
1.11563
1.09938
1.10147
1.10649
1.11089
1.11011
1.10655
1.10427
1.11227
1.11859
1.13326
1.15021
1.17679
1.21601
1.27238
1.35949
1.48381
1.64998
1.79021
1.86566
1.90406
1.91651
1.92415
1.91932
1.91554
1.90995
1.90478
1.90147
1.89956
1.89728
1.90117
1.90099
1.92776
1.95039
1.98285
1.98828
1.99495
0.1934
0.19449
0.194085
0.194076
0.193918
0.19376
0.193566
0.193363
0.19314
0.192908
0.192681
0.19243
0.192183
0.19194
0.191689
0.191426
0.191182
0.190948
0.190695
0.190455
0.190236
0.190022
0.189796
0.1896
0.189427
0.189264
0.189091
0.188931
0.188815
0.18872
0.188654
0.18858
0.188519
0.188519
0.188549
0.188642
0.188769
0.188956
0.189191
0.189449
0.189786
0.190043
0.190536
0.191035
0.192063
0.19291
0.216262
0.788892
0.934145
0.936591
0.932927
0.922225
0.917422
0.915161
0.937125
0.958683
1.07346
1.08629
1.13652
1.09233
1.1265
1.08045
1.07881
1.02334
1.03206
1.01156
1.00819
1.01473
1.01935
1.03108
1.03454
1.10256
1.17266
1.23937
1.34984
1.40943
1.43932
1.39052
1.32688
1.26
1.21668
1.17232
1.13977
1.11882
1.11249
1.10486
1.10199
1.10029
1.10553
1.11297
1.11855
1.12108
1.12948
1.14927
1.16722
1.19935
1.2451
1.31318
1.42145
1.57653
1.73791
1.84075
1.88914
1.90863
1.91846
1.91609
1.91255
1.90409
1.89835
1.89238
1.88866
1.88613
1.88922
1.88591
1.91056
1.93246
1.97093
1.9816
1.99075
0.193404
0.19449
0.194084
0.194074
0.193915
0.193754
0.19356
0.193356
0.193132
0.192895
0.192666
0.192415
0.192159
0.191912
0.191659
0.191387
0.191133
0.190891
0.190627
0.190369
0.190134
0.189908
0.189664
0.189439
0.189238
0.189053
0.188849
0.188632
0.188447
0.188273
0.188136
0.187953
0.187715
0.187508
0.187318
0.18711
0.186901
0.18666
0.186321
0.185914
0.185169
0.184228
0.183672
0.182251
0.180673
0.189594
0.217027
0.856202
0.945965
0.955951
0.949702
0.935233
0.922149
0.920817
0.916853
0.928847
0.942919
1.04657
1.05631
1.13261
1.0768
1.12969
1.05747
1.05244
1.04316
1.06991
1.076
1.15166
1.21176
1.28781
1.36202
1.45729
1.55617
1.62258
1.64895
1.64211
1.60523
1.53934
1.46848
1.39866
1.32636
1.26453
1.21627
1.18951
1.1611
1.14104
1.1278
1.11306
1.11073
1.11067
1.11255
1.11705
1.12226
1.13615
1.15432
1.17857
1.2173
1.27033
1.36237
1.50435
1.68454
1.81464
1.87386
1.90223
1.91506
1.91549
1.912
1.9009
1.89199
1.88385
1.87746
1.87312
1.87431
1.86931
1.8906
1.91209
1.95365
1.96871
1.98278
0.193402
0.194487
0.194081
0.19407
0.19391
0.193749
0.193552
0.193347
0.193121
0.192881
0.192648
0.192396
0.192134
0.191879
0.191623
0.191341
0.191076
0.190827
0.190557
0.190282
0.190028
0.189793
0.189536
0.189285
0.189059
0.188866
0.188655
0.188413
0.18822
0.188058
0.18793
0.187799
0.187635
0.187488
0.187388
0.187323
0.187299
0.187291
0.187261
0.18723
0.187281
0.187128
0.187691
0.187127
0.186814
0.205984
0.394543
0.955961
0.957818
0.956559
0.950453
0.943341
0.936689
0.933146
0.93055
0.919861
0.907437
0.965378
1.00072
1.10901
1.10618
1.18112
1.11881
1.20087
1.26497
1.33942
1.42244
1.51846
1.61647
1.67485
1.71551
1.73267
1.74835
1.74679
1.72825
1.7048
1.67738
1.63983
1.59786
1.54578
1.48246
1.41445
1.34914
1.28835
1.22575
1.18079
1.15506
1.14457
1.13899
1.13251
1.12897
1.12711
1.13426
1.1356
1.15212
1.16857
1.20202
1.24573
1.32086
1.44117
1.61482
1.77517
1.85803
1.89159
1.90605
1.90917
1.90678
1.89616
1.88698
1.87736
1.86837
1.86157
1.86214
1.85544
1.8754
1.89441
1.9387
1.95785
1.97705
0.193404
0.194485
0.194078
0.194067
0.193905
0.193742
0.193545
0.193337
0.19311
0.192867
0.19263
0.192378
0.192106
0.191847
0.191589
0.191296
0.191019
0.190757
0.190483
0.190185
0.189912
0.189662
0.189391
0.189105
0.188851
0.18863
0.188392
0.188107
0.187854
0.187627
0.187419
0.187232
0.186972
0.186629
0.186369
0.186147
0.185961
0.18579
0.185591
0.185308
0.185251
0.185303
0.185984
0.186481
0.187281
0.212975
0.708089
0.964195
0.965004
0.958869
0.951187
0.946459
0.940466
0.929757
0.915275
0.917193
0.938223
0.951015
0.963761
1.09735
1.26303
1.33173
1.44655
1.52454
1.6254
1.67065
1.70302
1.72629
1.75464
1.76663
1.77495
1.77412
1.77097
1.76182
1.74832
1.73132
1.71539
1.69588
1.67183
1.64246
1.60436
1.55191
1.48676
1.40992
1.33797
1.27913
1.23153
1.19444
1.16741
1.14984
1.13992
1.13304
1.1319
1.13292
1.13606
1.15255
1.1764
1.2193
1.28442
1.38942
1.55276
1.72823
1.839
1.87845
1.89845
1.90274
1.90138
1.89251
1.88466
1.87319
1.86163
1.85215
1.85106
1.84244
1.85983
1.87243
1.9217
1.94798
1.97324
0.193398
0.194481
0.194074
0.194062
0.193899
0.193735
0.193535
0.193326
0.193098
0.192851
0.192609
0.192357
0.192076
0.191807
0.191544
0.191249
0.190956
0.190679
0.190399
0.190083
0.189794
0.189525
0.189245
0.188932
0.188656
0.188405
0.188156
0.187861
0.187565
0.187318
0.187086
0.186943
0.186729
0.186435
0.186218
0.186038
0.185877
0.185729
0.18561
0.185324
0.184982
0.18448
0.183175
0.18141
0.183302
0.209761
0.837575
0.959305
0.963958
0.953277
0.948796
0.953867
0.958655
0.95625
0.940402
0.935286
0.961033
1.02336
1.10206
1.31162
1.54042
1.62913
1.65979
1.69737
1.71239
1.7295
1.73262
1.74165
1.74363
1.74538
1.75
1.75251
1.75493
1.75218
1.74429
1.73527
1.72737
1.71798
1.70723
1.69255
1.67108
1.64116
1.59968
1.54393
1.47282
1.39805
1.33241
1.2797
1.24091
1.21059
1.18617
1.16838
1.15778
1.15047
1.14357
1.15423
1.17034
1.20299
1.25666
1.34813
1.49777
1.68188
1.81172
1.86159
1.88713
1.89344
1.89444
1.88689
1.87944
1.8663
1.85371
1.84288
1.84085
1.83065
1.84399
1.85053
1.90419
1.93722
1.96678
0.193397
0.194477
0.194069
0.194057
0.193893
0.193728
0.193526
0.193315
0.193086
0.192837
0.192588
0.192336
0.192047
0.191768
0.191497
0.191203
0.190894
0.190601
0.190311
0.189981
0.189669
0.189377
0.189083
0.188742
0.188432
0.188143
0.187879
0.18756
0.187199
0.1869
0.186607
0.186397
0.18609
0.185678
0.185181
0.184802
0.184393
0.184022
0.183622
0.183164
0.182463
0.182501
0.182031
0.180831
0.195686
0.291125
0.920397
0.957182
0.955582
0.950088
0.948308
0.955596
0.964008
0.962114
0.949118
0.95928
1.0306
1.1568
1.34888
1.603
1.71789
1.71046
1.70901
1.70759
1.71236
1.71242
1.71126
1.71033
1.71554
1.71712
1.72
1.72553
1.7333
1.73846
1.73925
1.73616
1.73031
1.72304
1.71735
1.70994
1.69963
1.68334
1.65826
1.62431
1.57766
1.51406
1.43617
1.35826
1.2894
1.24215
1.21252
1.18839
1.17141
1.15678
1.15046
1.14862
1.16039
1.18258
1.22836
1.30882
1.44701
1.6377
1.78318
1.8437
1.87447
1.88496
1.88771
1.88212
1.87431
1.85993
1.84621
1.83328
1.83051
1.818
1.82842
1.82779
1.88443
1.92088
1.95763
0.193388
0.19447
0.194062
0.19405
0.193886
0.193719
0.193516
0.193302
0.19307
0.19282
0.192562
0.192308
0.192017
0.191727
0.191446
0.191148
0.190822
0.190516
0.190216
0.189873
0.189538
0.189226
0.188919
0.188562
0.188212
0.187889
0.187616
0.187289
0.18688
0.186539
0.186234
0.18599
0.185788
0.185496
0.18507
0.184877
0.184705
0.18462
0.184628
0.184908
0.185092
0.18553
0.185938
0.185823
0.212011
0.615807
0.905064
0.933422
0.935027
0.930605
0.934939
0.94746
0.962119
0.967389
0.959724
1.00016
1.14958
1.3709
1.60466
1.73206
1.72446
1.70646
1.69993
1.69534
1.69006
1.69038
1.686
1.68642
1.6892
1.69088
1.69282
1.696
1.70427
1.71457
1.72301
1.7259
1.72523
1.72268
1.71926
1.71302
1.70643
1.69735
1.68459
1.66481
1.63454
1.59455
1.54174
1.46952
1.3954
1.33327
1.28727
1.24865
1.22021
1.19376
1.17566
1.16996
1.17114
1.18229
1.21512
1.28159
1.40665
1.59157
1.7554
1.8243
1.85617
1.87087
1.87471
1.8711
1.86494
1.85219
1.83843
1.82353
1.81862
1.80457
1.81232
1.80696
1.86228
1.90115
1.94506
0.193383
0.194464
0.194056
0.194043
0.193878
0.19371
0.193506
0.193288
0.193056
0.192803
0.192538
0.192279
0.191986
0.191687
0.191397
0.191093
0.190752
0.190429
0.19012
0.189766
0.189403
0.189063
0.188744
0.188372
0.187977
0.187622
0.187313
0.186971
0.186541
0.186141
0.185792
0.185461
0.185237
0.184824
0.184151
0.183558
0.182986
0.182482
0.181779
0.180785
0.179731
0.177776
0.176806
0.180504
0.208143
0.786172
0.912716
0.928973
0.929627
0.921798
0.922465
0.933849
0.959847
0.980718
1.00199
1.12658
1.39933
1.61738
1.71628
1.71096
1.69425
1.68473
1.67477
1.67043
1.67097
1.66956
1.66935
1.6689
1.67031
1.6702
1.66984
1.66975
1.67427
1.68188
1.69082
1.69848
1.7037
1.70739
1.71061
1.70993
1.70688
1.70091
1.69249
1.6817
1.66417
1.63789
1.60049
1.55072
1.48676
1.41365
1.33908
1.27442
1.23469
1.20783
1.18795
1.17726
1.17602
1.18058
1.20541
1.26241
1.37769
1.55799
1.73098
1.80778
1.84089
1.85812
1.86191
1.85993
1.85531
1.84376
1.83076
1.81448
1.80686
1.79096
1.79638
1.7887
1.84115
1.8807
1.93182
0.19337
0.194455
0.194047
0.194034
0.193869
0.1937
0.193494
0.193273
0.193039
0.192783
0.192512
0.19225
0.191953
0.191642
0.191342
0.191035
0.190678
0.190338
0.190018
0.189659
0.189265
0.188899
0.188568
0.188188
0.187752
0.18737
0.187018
0.18667
0.186237
0.185771
0.185381
0.184997
0.18477
0.18439
0.183897
0.183297
0.183062
0.182966
0.18298
0.183092
0.183597
0.183936
0.184575
0.203395
0.368591
0.920365
0.921048
0.926204
0.923996
0.916221
0.917121
0.932883
0.974856
1.0232
1.11495
1.38667
1.6499
1.71586
1.71194
1.68658
1.67793
1.66801
1.65189
1.64946
1.65369
1.65439
1.653
1.65169
1.65171
1.65108
1.65059
1.64931
1.65047
1.6531
1.65691
1.66338
1.67212
1.68197
1.69162
1.69718
1.69921
1.69799
1.69336
1.68543
1.6748
1.65915
1.63475
1.60099
1.55726
1.50078
1.42604
1.35365
1.29723
1.25809
1.2288
1.20837
1.19955
1.19861
1.21221
1.25608
1.35776
1.52936
1.70224
1.78457
1.82044
1.84059
1.84635
1.84479
1.84179
1.8335
1.8215
1.80438
1.79438
1.77822
1.78111
1.77133
1.81971
1.85934
1.9148
0.193361
0.194446
0.194038
0.194025
0.193859
0.193689
0.193482
0.193257
0.193021
0.192763
0.192488
0.192219
0.191923
0.191598
0.191286
0.190974
0.190607
0.19025
0.189909
0.189546
0.189124
0.188736
0.188377
0.187985
0.187511
0.187096
0.186702
0.186355
0.185917
0.18539
0.184975
0.18459
0.184277
0.183986
0.183557
0.182852
0.182484
0.181966
0.181614
0.180813
0.180182
0.180047
0.183774
0.211373
0.731175
0.911021
0.923512
0.929916
0.928518
0.91801
0.919796
0.95455
1.0336
1.14574
1.39108
1.64736
1.71701
1.71463
1.69424
1.66291
1.6556
1.65168
1.64349
1.6379
1.63633
1.63455
1.63299
1.63185
1.63298
1.63184
1.63201
1.6307
1.62994
1.62901
1.63012
1.63369
1.63864
1.64846
1.65931
1.67086
1.67884
1.68516
1.68614
1.68331
1.67693
1.66607
1.65089
1.62806
1.59639
1.55479
1.4987
1.42938
1.35422
1.28685
1.23937
1.21645
1.207
1.20771
1.2181
1.25576
1.34472
1.50758
1.67724
1.76304
1.80289
1.82427
1.83119
1.82984
1.82862
1.82265
1.81173
1.7954
1.78351
1.76556
1.76567
1.7546
1.79835
1.83951
1.89882
0.193346
0.194435
0.194027
0.194015
0.193849
0.193677
0.193469
0.193239
0.193002
0.192742
0.192462
0.192186
0.19189
0.191551
0.191228
0.190909
0.190537
0.190159
0.189799
0.189429
0.188989
0.188577
0.188192
0.187788
0.187292
0.18684
0.18641
0.186055
0.185612
0.18502
0.184512
0.184054
0.18365
0.183336
0.182786
0.182082
0.181407
0.180926
0.18035
0.179809
0.17947
0.179555
0.195577
0.289531
0.878731
0.916307
0.927875
0.938559
0.942938
0.933737
0.94306
1.02398
1.18411
1.42542
1.65391
1.71111
1.68502
1.68436
1.66629
1.63385
1.62641
1.63273
1.63198
1.6246
1.61615
1.61453
1.61544
1.61508
1.61626
1.61578
1.61633
1.61597
1.61429
1.61219
1.61191
1.61277
1.61334
1.619
1.62726
1.63797
1.64986
1.66214
1.67028
1.6728
1.67094
1.66603
1.65588
1.64078
1.6181
1.58815
1.54913
1.49906
1.42729
1.35221
1.29124
1.25635
1.23735
1.23497
1.23927
1.27003
1.34391
1.49221
1.65402
1.74386
1.78637
1.80752
1.81486
1.81502
1.81396
1.8088
1.79955
1.78615
1.77198
1.75285
1.74965
1.73744
1.77633
1.81976
1.8809
0.193332
0.194423
0.194016
0.194004
0.193837
0.193666
0.193455
0.193222
0.192983
0.192723
0.192436
0.192152
0.191856
0.191508
0.19117
0.190842
0.190466
0.190066
0.189687
0.189305
0.18885
0.188412
0.188003
0.187583
0.187071
0.186565
0.186102
0.185707
0.185262
0.184691
0.184124
0.183697
0.183359
0.183232
0.182914
0.182506
0.182212
0.182147
0.182174
0.182143
0.181892
0.183606
0.213803
0.654632
0.900713
0.917619
0.928893
0.947417
0.963024
0.971529
1.01402
1.18718
1.45262
1.65533
1.71765
1.68788
1.65793
1.66039
1.6466
1.62401
1.61302
1.61542
1.6149
1.60948
1.59994
1.59794
1.59848
1.59759
1.59745
1.59763
1.59829
1.59953
1.59711
1.59504
1.59584
1.59435
1.59224
1.59425
1.59894
1.60426
1.61529
1.62638
1.64147
1.65054
1.65772
1.65756
1.6533
1.64398
1.62836
1.60576
1.57673
1.53856
1.48769
1.41824
1.34363
1.28593
1.24869
1.24228
1.24722
1.27729
1.34909
1.48383
1.63651
1.72883
1.77014
1.78969
1.79964
1.80091
1.79891
1.79508
1.78782
1.77673
1.76021
1.73906
1.73309
1.72026
1.75564
1.80077
1.86243
0.193313
0.194409
0.194003
0.193992
0.193825
0.193652
0.193441
0.193206
0.192961
0.192703
0.192408
0.192117
0.191819
0.191465
0.191114
0.190774
0.190395
0.189977
0.189579
0.189185
0.188719
0.188255
0.187817
0.187398
0.186885
0.18633
0.185841
0.185394
0.184969
0.184414
0.183749
0.183193
0.18268