/*--------------------------------*- C++ -*----------------------------------*\
| =========                 |                                                 |
| \\      /  F ield         | OpenFOAM: The Open Source CFD Toolbox           |
|  \\    /   O peration     | Version:  2.2.x                                 |
|   \\  /    A nd           | Web:      www.OpenFOAM.org                      |
|    \\/     M anipulation  |                                                 |
\*---------------------------------------------------------------------------*/
FoamFile
{
    version     2.0;
    format      ascii;
    class       volScalarField;
    location    "1.05";
    object      T;
}
// * * * * * * * * * * * * * * * * * * * * * * * * * * * * * * * * * * * * * //

dimensions      [0 0 0 1 0 0 0];

internalField   nonuniform List<scalar> 
14161
(
0.999424
0.999479
0.999457
0.999422
0.999374
0.999315
0.999266
0.999237
0.999229
0.999241
0.999278
0.999369
0.999539
0.999809
1.00021
1.00076
1.00152
1.00249
1.00372
1.00525
1.0071
1.00934
1.01197
1.015
1.01843
1.02219
1.02643
1.03109
1.03621
1.04171
1.04749
1.05361
1.06006
1.06678
1.07352
1.0797
1.08603
1.09287
1.10008
1.10764
1.11458
1.12092
1.12756
1.13443
1.14161
1.14841
1.15805
1.17442
1.22044
1.38443
2.05116
2.63411
2.84088
2.89854
2.90133
2.86975
2.84442
2.82426
2.80754
2.79211
2.77697
2.76208
2.74802
2.73504
2.72205
2.70798
2.69508
2.68479
2.67443
2.66299
2.65099
2.64095
2.63275
2.62187
2.61073
2.59955
2.58915
2.57897
2.56538
2.55142
2.5375
2.52181
2.50508
2.49074
2.47692
2.46266
2.44653
2.42826
2.41181
2.39858
2.3937
2.39556
2.39288
2.39701
2.41144
2.44099
2.48931
2.55677
2.64003
2.71445
2.78471
2.85306
2.91055
2.95608
2.98944
3.01487
3.03508
3.05233
3.0657
3.07588
3.0847
3.09396
3.10438
3.11623
3.12876
3.14178
3.15446
3.16333
3.17117
0.999423
0.999478
0.999456
0.999421
0.999373
0.999314
0.999264
0.999235
0.999226
0.999238
0.999274
0.999365
0.999533
0.999802
1.0002
1.00076
1.0015
1.00248
1.00371
1.00523
1.00708
1.00931
1.01195
1.01497
1.01839
1.02216
1.02638
1.03104
1.03615
1.04163
1.04743
1.05356
1.06002
1.06676
1.0735
1.07967
1.08603
1.09285
1.09999
1.10759
1.11454
1.12089
1.12743
1.13422
1.1414
1.14815
1.15774
1.17252
1.21163
1.35768
1.99962
2.59497
2.79814
2.85608
2.86675
2.84147
2.82006
2.80258
2.78719
2.77236
2.75729
2.74234
2.72843
2.71555
2.70299
2.6895
2.67755
2.66824
2.65842
2.64785
2.63631
2.6267
2.6183
2.6073
2.59634
2.58496
2.5742
2.56332
2.54956
2.53508
2.52067
2.50444
2.48634
2.47
2.45624
2.44277
2.43005
2.41753
2.40736
2.40183
2.40015
2.40795
2.41973
2.43961
2.47736
2.53528
2.6119
2.69816
2.7803
2.85098
2.90728
2.9484
2.98133
3.00775
3.02754
3.04422
3.05823
3.07035
3.08017
3.08824
3.09521
3.103
3.11221
3.12293
3.13442
3.14596
3.15599
3.16252
3.17015
0.999422
0.999476
0.999454
0.999419
0.999371
0.999311
0.999259
0.999229
0.99922
0.999232
0.999266
0.999355
0.999519
0.999786
1.00018
1.00073
1.00147
1.00244
1.00367
1.00519
1.00703
1.00925
1.01186
1.01489
1.0183
1.02205
1.02625
1.03091
1.036
1.04146
1.04727
1.05337
1.0598
1.06654
1.07332
1.07953
1.08593
1.09269
1.09974
1.10735
1.11438
1.12082
1.12719
1.13387
1.1408
1.14774
1.15776
1.17207
1.21097
1.34825
1.97535
2.57516
2.77464
2.83655
2.84981
2.82745
2.80766
2.79188
2.77771
2.76354
2.74879
2.73429
2.72102
2.70814
2.69579
2.68316
2.67269
2.66314
2.65313
2.64281
2.6313
2.62234
2.61322
2.60164
2.59064
2.57861
2.56774
2.55669
2.54247
2.52682
2.51214
2.49523
2.47717
2.46169
2.44827
2.43556
2.42618
2.41816
2.41406
2.4125
2.42036
2.43917
2.46286
2.4985
2.55256
2.62615
2.70807
2.79649
2.883
2.95851
3.00526
3.02768
3.04304
3.05541
3.06476
3.07326
3.0815
3.08907
3.09501
3.10038
3.10552
3.11161
3.11889
3.12772
3.13695
3.14575
3.15377
3.15848
3.16496
0.999419
0.999473
0.999452
0.999417
0.999368
0.999307
0.999252
0.99922
0.999209
0.99922
0.999252
0.999338
0.999497
0.999758
1.00015
1.00069
1.00142
1.00238
1.00361
1.00511
1.00692
1.00913
1.01172
1.01473
1.01814
1.02187
1.02604
1.03067
1.03574
1.04117
1.04697
1.05303
1.0594
1.06609
1.07292
1.07924
1.08568
1.09235
1.09932
1.10687
1.11393
1.12058
1.12685
1.13326
1.13948
1.14657
1.15591
1.16921
1.2096
1.36777
2.02444
2.60025
2.7952
2.85873
2.87063
2.8454
2.82545
2.80878
2.79392
2.77892
2.76353
2.74839
2.73436
2.72047
2.70777
2.69503
2.68422
2.67361
2.66261
2.6508
2.63837
2.62871
2.61799
2.60521
2.59324
2.58039
2.56873
2.55744
2.54312
2.52632
2.51215
2.49577
2.48027
2.46608
2.45332
2.44329
2.43616
2.43034
2.43289
2.44544
2.47048
2.50837
2.56314
2.63027
2.70994
2.79741
2.88637
2.96697
3.02322
3.06872
3.09942
3.11132
3.11583
3.11917
3.11906
3.1181
3.11856
3.11984
3.12012
3.1205
3.12196
3.12425
3.12769
3.13317
3.13925
3.14493
3.15091
3.15365
3.15945
0.999415
0.99947
0.999448
0.999413
0.999363
0.9993
0.999241
0.999207
0.999193
0.999201
0.99923
0.999309
0.999463
0.999713
1.00009
1.00062
1.00134
1.00229
1.00349
1.00497
1.00676
1.00895
1.0115
1.01447
1.01786
1.02157
1.0257
1.03027
1.03529
1.0407
1.04645
1.05249
1.05879
1.06543
1.07227
1.07874
1.08517
1.09176
1.0987
1.10614
1.11322
1.11993
1.12624
1.13233
1.13808
1.14495
1.15311
1.1659
1.20807
1.38358
2.10188
2.64349
2.8327
2.89719
2.90637
2.87601
2.85377
2.83515
2.8188
2.80217
2.78548
2.76959
2.7547
2.74065
2.72732
2.71262
2.6986
2.68556
2.67254
2.65961
2.64684
2.6369
2.62566
2.61286
2.60079
2.58787
2.57543
2.56242
2.54684
2.53026
2.51625
2.49933
2.48674
2.4752
2.4644
2.45696
2.45611
2.46461
2.48438
2.51515
2.56342
2.62438
2.69456
2.77511
2.8603
2.95581
3.02337
3.06412
3.09132
3.11645
3.13605
3.14946
3.15646
3.15863
3.15609
3.15345
3.15066
3.1475
3.14289
3.13915
3.13684
3.13582
3.13602
3.1384
3.14134
3.14408
3.14783
3.14884
3.15406
0.99941
0.999465
0.999443
0.999407
0.999355
0.999291
0.999228
0.999191
0.999171
0.999175
0.9992
0.999271
0.999414
0.999654
1.00001
1.00052
1.00123
1.00216
1.00334
1.00478
1.00654
1.00869
1.01119
1.01409
1.01744
1.02116
1.02522
1.02972
1.03466
1.04002
1.04572
1.05173
1.05796
1.06449
1.07128
1.07802
1.08442
1.09093
1.09784
1.10514
1.11221
1.11891
1.12534
1.13111
1.13656
1.14307
1.15072
1.16379
1.20846
1.38622
2.15561
2.66701
2.84667
2.91422
2.92945
2.90097
2.87676
2.85814
2.84206
2.82593
2.81011
2.7937
2.77657
2.75988
2.74424
2.72728
2.71088
2.69549
2.68096
2.66636
2.65253
2.64092
2.62868
2.61629
2.60313
2.58829
2.57351
2.55735
2.53995
2.52414
2.51114
2.50091
2.49269
2.48781
2.48158
2.48709
2.50205
2.52969
2.57443
2.63453
2.70457
2.78109
2.85614
2.94626
3.01903
3.06611
3.09666
3.11545
3.13066
3.14745
3.16121
3.1725
3.1803
3.18257
3.18282
3.18141
3.17833
3.17274
3.16472
3.15763
3.15144
3.14686
3.14385
3.14315
3.14322
3.1435
3.14495
3.14441
3.14889
0.999405
0.99946
0.999437
0.9994
0.999347
0.999281
0.999214
0.999169
0.999141
0.99914
0.99916
0.999221
0.999352
0.999577
0.999917
1.0004
1.00108
1.00199
1.00312
1.00454
1.00626
1.00832
1.01077
1.01361
1.01689
1.02058
1.02456
1.02897
1.03383
1.03909
1.04473
1.05068
1.05685
1.06327
1.07001
1.07686
1.08332
1.08988
1.09672
1.10382
1.11093
1.11764
1.12406
1.12986
1.13495
1.14118
1.14847
1.16036
1.19319
1.38136
2.20379
2.69154
2.85957
2.92768
2.95116
2.9281
2.90515
2.88562
2.86486
2.84275
2.82291
2.80278
2.78229
2.76272
2.74468
2.7255
2.70713
2.69085
2.67552
2.66057
2.64638
2.63314
2.62012
2.60691
2.59444
2.57961
2.5639
2.54732
2.53359
2.52334
2.51373
2.50742
2.50448
2.50893
2.51974
2.54139
2.58171
2.63829
2.70873
2.78588
2.85929
2.94493
3.01524
3.0625
3.09561
3.11766
3.13187
3.1434
3.15646
3.16819
3.17869
3.18749
3.19399
3.19892
3.20124
3.20082
3.19781
3.19161
3.18386
3.1743
3.16461
3.15693
3.15111
3.14758
3.14523
3.14326
3.1422
3.14026
3.14388
0.999398
0.999454
0.99943
0.999391
0.999336
0.99927
0.999197
0.999142
0.999106
0.999095
0.99911
0.999159
0.999274
0.999478
0.999797
1.00026
1.0009
1.00175
1.00286
1.00422
1.00589
1.00788
1.01024
1.01301
1.0162
1.01983
1.02375
1.02804
1.03276
1.03793
1.04346
1.04932
1.05546
1.06178
1.06842
1.07523
1.08187
1.0885
1.09531
1.10225
1.10937
1.11613
1.12257
1.12837
1.13342
1.13952
1.14663
1.15649
1.1739
1.375
2.24525
2.71058
2.8745
2.93491
2.95819
2.93363
2.91034
2.88575
2.86262
2.83655
2.81222
2.78937
2.76649
2.74486
2.72571
2.70588
2.6869
2.67015
2.65454
2.6398
2.62471
2.60871
2.5926
2.57613
2.56232
2.54911
2.53691
2.52901
2.52575
2.5208
2.51912
2.52388
2.53569
2.55713
2.59201
2.64204
2.70714
2.78344
2.85785
2.93935
3.01043
3.05628
3.0891
3.11295
3.13071
3.1433
3.1528
3.16334
3.17348
3.1829
3.1918
3.1985
3.20422
3.20965
3.2125
3.21284
3.21036
3.20591
3.19863
3.18821
3.17608
3.16608
3.15788
3.15179
3.14689
3.1429
3.13972
3.13659
3.13911
0.99939
0.999446
0.999421
0.999382
0.999325
0.999256
0.999178
0.99911
0.999065
0.999042
0.999049
0.999084
0.999179
0.999359
0.999649
1.00008
1.00067
1.00147
1.00253
1.00384
1.00543
1.00734
1.00961
1.01228
1.01533
1.01884
1.02274
1.0269
1.03147
1.03649
1.0419
1.04763
1.05368
1.05995
1.06639
1.07312
1.07995
1.08668
1.09345
1.10041
1.10753
1.11441
1.12096
1.12658
1.1318
1.13813
1.14573
1.1554
1.17093
1.3817
2.25695
2.71497
2.87781
2.93078
2.94419
2.91483
2.88955
2.86283
2.83935
2.81032
2.78402
2.75893
2.7328
2.70789
2.68602
2.66588
2.64573
2.62654
2.60804
2.59112
2.57468
2.55796
2.54325
2.53064
2.5214
2.51702
2.51546
2.51383
2.52118
2.5277
2.54199
2.56215
2.59647
2.64534
2.70754
2.77664
2.84696
2.92532
2.99674
3.04309
3.07462
3.09804
3.11558
3.13204
3.14547
3.1555
3.16483
3.17316
3.18192
3.19059
3.19818
3.20436
3.21051
3.21547
3.21892
3.22014
3.21918
3.21581
3.20914
3.19888
3.1859
3.17426
3.16445
3.15608
3.14836
3.14225
3.13723
3.13317
3.13455
0.999381
0.999438
0.999412
0.99937
0.999312
0.99924
0.999156
0.999076
0.999017
0.998979
0.998974
0.998996
0.999068
0.99922
0.999476
0.999863
1.0004
1.00114
1.00213
1.00338
1.00488
1.0067
1.00885
1.01139
1.01429
1.01764
1.02143
1.02554
1.02992
1.03472
1.03995
1.04555
1.05147
1.05764
1.06396
1.07054
1.07741
1.0843
1.09114
1.09822
1.10534
1.11233
1.11888
1.12445
1.13016
1.13726
1.14589
1.15801
1.18637
1.40043
2.23906
2.70393
2.87725
2.92983
2.92661
2.8903
2.85882
2.82802
2.80225
2.7671
2.73686
2.70837
2.67757
2.64965
2.62287
2.59943
2.57665
2.55743
2.5383
2.52212
2.50936
2.49709
2.48879
2.48346
2.48708
2.49147
2.50426
2.51475
2.53115
2.55653
2.59131
2.63815
2.70002
2.76663
2.83239
2.9043
2.97458
3.02217
3.05706
3.08007
3.09582
3.1104
3.1234
3.13684
3.14929
3.15985
3.16957
3.17809
3.18612
3.1939
3.2006
3.20688
3.21302
3.21813
3.22211
3.22473
3.22483
3.22265
3.21676
3.20687
3.19396
3.18158
3.17048
3.15991
3.1496
3.14127
3.13464
3.12974
3.13023
0.999372
0.999428
0.999401
0.999358
0.999297
0.99922
0.999131
0.999039
0.998961
0.998907
0.998882
0.998891
0.998936
0.999055
0.99927
0.99961
1.00009
1.00076
1.00166
1.00282
1.00423
1.00593
1.00795
1.01032
1.01308
1.01623
1.01985
1.02386
1.02807
1.03264
1.03763
1.04305
1.04879
1.05479
1.06098
1.06744
1.0743
1.08129
1.08825
1.09547
1.10273
1.10976
1.11588
1.12205
1.12822
1.13602
1.14545
1.16051
1.20838
1.41453
2.19362
2.67882
2.86743
2.9177
2.8947
2.85505
2.81747
2.78089
2.74784
2.70275
2.66707
2.63135
2.59307
2.56312
2.53661
2.51014
2.49515
2.4762
2.46471
2.45054
2.44781
2.44571
2.45106
2.45627
2.47379
2.4895
2.51078
2.54211
2.57951
2.62534
2.68387
2.74802
2.81155
2.88197
2.94968
2.99583
3.02989
3.05573
3.07481
3.08759
3.09926
3.11184
3.12444
3.13582
3.14552
3.15567
3.16603
3.17582
3.18472
3.19257
3.19969
3.20696
3.21369
3.2193
3.22366
3.22694
3.22777
3.22669
3.22161
3.21264
3.20055
3.18789
3.17542
3.16284
3.15028
3.14
3.13205
3.12621
3.12626
0.99936
0.999417
0.999389
0.999343
0.999279
0.999197
0.999102
0.999
0.998903
0.998827
0.998778
0.998765
0.998787
0.998867
0.999035
0.999317
0.999738
1.00032
1.00111
1.00215
1.00347
1.00504
1.0069
1.0091
1.01168
1.01462
1.01798
1.0218
1.02595
1.03024
1.03495
1.04008
1.04561
1.0514
1.0574
1.06371
1.07056
1.07753
1.08464
1.09196
1.09928
1.10627
1.11254
1.11914
1.12587
1.13451
1.14533
1.16259
1.2137
1.40705
2.12631
2.64109
2.84835
2.89361
2.84581
2.79528
2.74505
2.70246
2.65584
2.59933
2.56087
2.52273
2.48503
2.4663
2.44561
2.42095
2.41932
2.39997
2.4054
2.39893
2.40978
2.41721
2.43932
2.45759
2.48664
2.52152
2.56149
2.61334
2.67343
2.73363
2.79193
2.86092
2.9247
2.97048
3.00339
3.02673
3.04447
3.06046
3.07367
3.08383
3.09507
3.10725
3.11908
3.12966
3.14045
3.15165
3.16246
3.17288
3.18271
3.1911
3.19858
3.20602
3.21264
3.21831
3.22271
3.2265
3.22805
3.22791
3.22384
3.21619
3.20507
3.19222
3.17839
3.16419
3.14997
3.13834
3.12945
3.1229
3.12261
0.999348
0.999405
0.999376
0.999327
0.999258
0.99917
0.999068
0.998956
0.998842
0.998738
0.998662
0.998616
0.998612
0.998652
0.998767
0.998977
0.999324
0.99982
1.0005
1.00139
1.00257
1.00401
1.00571
1.00771
1.01005
1.01276
1.01582
1.01936
1.02332
1.02751
1.03183
1.03662
1.04183
1.04733
1.05306
1.05916
1.06597
1.07293
1.08009
1.08753
1.09481
1.10127
1.10799
1.11484
1.12237
1.13196
1.14467
1.16345
1.20995
1.38424
2.01833
2.5804
2.80529
2.84715
2.77683
2.70831
2.64201
2.5873
2.53295
2.47695
2.44437
2.42125
2.38938
2.38818
2.36927
2.36098
2.36221
2.35489
2.36975
2.37637
2.40267
2.43054
2.4664
2.50602
2.55364
2.61253
2.67071
2.72645
2.7826
2.85147
2.90797
2.94982
2.98085
3.00127
3.01486
3.02664
3.03963
3.05351
3.06622
3.0766
3.0872
3.09917
3.11079
3.12215
3.13388
3.14578
3.15668
3.16696
3.17679
3.18599
3.19444
3.20239
3.2091
3.21494
3.21939
3.22364
3.22542
3.22614
3.22333
3.2171
3.20682
3.19413
3.17944
3.16419
3.14888
3.13636
3.12684
3.11963
3.11901
0.999334
0.999392
0.999361
0.999309
0.999235
0.999141
0.99903
0.998906
0.998776
0.998646
0.998531
0.998449
0.998402
0.998406
0.99846
0.998597
0.998855
0.999247
0.999801
1.00055
1.00154
1.0028
1.00432
1.00611
1.00819
1.01061
1.01338
1.01653
1.0202
1.02421
1.02826
1.03259
1.03737
1.0425
1.04785
1.05368
1.0605
1.06744
1.07453
1.08171
1.08824
1.09474
1.10155
1.10863
1.11724
1.12899
1.14338
1.16567
1.21038
1.38499
1.90016
2.4784
2.67205
2.698
2.63551
2.56293
2.50193
2.44749
2.40344
2.37011
2.34774
2.3496
2.32627
2.34169
2.32385
2.33533
2.33306
2.35834
2.37795
2.41669
2.4534
2.50392
2.56373
2.62262
2.68071
2.7372
2.79959
2.86344
2.91021
2.94562
2.96985
2.98474
2.9942
3.00265
3.00989
3.01888
3.03044
3.0424
3.05584
3.06777
3.07859
3.08957
3.10189
3.11427
3.12677
3.13944
3.15138
3.1623
3.17226
3.18207
3.19098
3.19887
3.20534
3.21123
3.21553
3.21991
3.2217
3.22303
3.2214
3.21649
3.20694
3.19459
3.17944
3.16353
3.14738
3.13405
3.12407
3.11632
3.11552
0.999319
0.999377
0.999344
0.999289
0.999209
0.999107
0.998985
0.998848
0.998701
0.998546
0.998397
0.998266
0.998168
0.998112
0.998115
0.998176
0.998326
0.998595
0.999023
0.999612
1.00039
1.00143
1.00274
1.0043
1.00608
1.00817
1.0106
1.01336
1.01658
1.02026
1.02417
1.02799
1.03223
1.03682
1.04172
1.04732
1.05409
1.06065
1.06727
1.0738
1.07961
1.08591
1.09246
1.09999
1.10935
1.12259
1.13671
1.16071
1.21194
1.42108
1.86458
2.32524
2.49219
2.51093
2.48589
2.42008
2.38242
2.33993
2.31764
2.31433
2.30069
2.3193
2.30314
2.32581
2.32288
2.35525
2.37209
2.4207
2.4724
2.53162
2.59012
2.65012
2.70959
2.77007
2.83796
2.89045
2.92959
2.95801
2.9759
2.98729
2.99277
2.99497
2.9968
2.99932
3.00338
3.00968
3.01976
3.03143
3.04561
3.05813
3.06894
3.08008
3.09256
3.10581
3.11918
3.13247
3.14525
3.15698
3.16757
3.17796
3.18703
3.19498
3.20148
3.20736
3.21141
3.21595
3.21773
3.21948
3.2188
3.21502
3.20614
3.19424
3.17858
3.16216
3.14534
3.13142
3.12116
3.11308
3.11213
0.999302
0.999361
0.999326
0.999266
0.99918
0.99907
0.998936
0.998783
0.998616
0.998437
0.998251
0.998072
0.997912
0.997784
0.997714
0.997699
0.99774
0.997868
0.998144
0.998546
0.999114
0.999916
1.00096
1.00223
1.00371
1.00544
1.00748
1.00982
1.0125
1.01571
1.01924
1.02276
1.02633
1.03025
1.03469
1.03989
1.04621
1.05212
1.058
1.06382
1.06898
1.07451
1.08035
1.08765
1.09685
1.10848
1.12058
1.14844
1.20463
1.48351
1.80453
2.22656
2.3365
2.36782
2.37661
2.33743
2.32583
2.29491
2.29645
2.31293
2.30513
2.32986
2.33014
2.36856
2.39526
2.4523
2.51215
2.57311
2.64119
2.70449
2.76809
2.83811
2.8933
2.93489
2.9652
2.98289
2.99302
2.99944
3.00353
3.00117
3.00032
2.9975
2.99645
2.99677
2.99877
3.00285
3.01068
3.02134
3.03485
3.04775
3.05928
3.0704
3.08259
3.09625
3.1105
3.1244
3.13811
3.15085
3.1626
3.17372
3.18287
3.19081
3.19728
3.20297
3.20671
3.21136
3.21318
3.21523
3.21526
3.21246
3.2042
3.19288
3.17681
3.16003
3.1428
3.1285
3.11805
3.10981
3.10857
0.999283
0.999344
0.999305
0.999241
0.999149
0.999028
0.998881
0.99871
0.998519
0.998312
0.998092
0.997864
0.997641
0.997432
0.997262
0.997148
0.99707
0.997069
0.997164
0.997362
0.997703
0.998257
0.998955
0.999881
1.00102
1.00239
1.00399
1.00586
1.00799
1.01055
1.01359
1.01677
1.01971
1.02292
1.02669
1.03112
1.03661
1.04174
1.04679
1.05165
1.05594
1.06047
1.06558
1.07191
1.07961
1.0882
1.10063
1.13579
1.24402
1.59555
1.98905
2.22373
2.29232
2.31538
2.33326
2.32741
2.35412
2.32319
2.34306
2.32413
2.36467
2.38779
2.4482
2.49454
2.56714
2.64363
2.71001
2.77924
2.85307
2.90898
2.95265
2.98657
3.00552
3.01491
3.01866
3.0174
3.01702
3.01241
3.01077
3.00496
3.00114
2.99786
2.99582
2.99509
2.99604
2.99915
3.00498
3.01346
3.02468
3.03732
3.04923
3.06047
3.07228
3.0857
3.10031
3.11512
3.1297
3.14342
3.15625
3.16823
3.17837
3.18638
3.19262
3.19797
3.20138
3.20606
3.20801
3.21033
3.21093
3.20903
3.20138
3.19069
3.17435
3.15722
3.13971
3.12519
3.11464
3.10637
3.10494
0.999262
0.999324
0.999283
0.999214
0.999114
0.998983
0.998821
0.99863
0.998413
0.998173
0.997913
0.997637
0.997347
0.997057
0.996778
0.996534
0.996319
0.996152
0.996069
0.996074
0.996163
0.996387
0.996752
0.997305
0.998041
0.998994
1.00012
1.00145
1.003
1.00486
1.00725
1.00984
1.01228
1.01472
1.01759
1.02104
1.02548
1.02957
1.03361
1.03747
1.04071
1.04412
1.04839
1.05302
1.05693
1.06351
1.07559
1.12805
1.26618
1.73072
2.06229
2.1863
2.20537
2.19995
2.19733
2.18478
2.21792
2.23755
2.31127
2.36347
2.45313
2.54137
2.62614
2.70692
2.79167
2.86914
2.93066
2.97746
3.01062
3.02964
3.03981
3.04582
3.04598
3.04113
3.03657
3.02775
3.02286
3.01399
3.00878
3.0028
2.99873
2.99559
2.9936
2.99268
2.99305
2.99554
3.00035
3.00698
3.01618
3.02783
3.03964
3.05094
3.06239
3.07514
3.08968
3.10508
3.12039
3.13517
3.14905
3.16172
3.1732
3.18193
3.1881
3.1931
3.19613
3.20067
3.20274
3.20524
3.20615
3.20499
3.19781
3.1877
3.17118
3.15379
3.13615
3.12166
3.11105
3.10292
3.10126
0.99924
0.999303
0.999259
0.999185
0.999076
0.998933
0.998755
0.998543
0.998298
0.998021
0.997715
0.997381
0.997026
0.996649
0.996259
0.995878
0.995512
0.995153
0.994846
0.99461
0.994432
0.994351
0.994378
0.994505
0.994772
0.995196
0.995827
0.996577
0.997498
0.998658
1.00019
1.00201
1.00389
1.00559
1.00748
1.00991
1.01296
1.01599
1.01887
1.02158
1.02381
1.02633
1.02922
1.03115
1.03409
1.04089
1.05944
1.14569
1.33169
1.83666
2.103
2.16034
2.1654
2.15785
2.16028
2.16175
2.22915
2.3087
2.4412
2.55129
2.66748
2.78737
2.88504
2.95078
3.00016
3.03238
3.05269
3.06465
3.07099
3.0715
3.06814
3.06221
3.05486
3.0434
3.0364
3.02699
3.02225
3.01411
3.00856
3.00291
2.99857
2.99507
2.99231
2.99053
2.99013
2.99191
2.99593
3.00143
3.00925
3.01963
3.03099
3.04213
3.05342
3.06568
3.07962
3.09485
3.11056
3.12603
3.14064
3.15406
3.16657
3.17595
3.18271
3.18778
3.19062
3.19484
3.19686
3.1994
3.20061
3.20015
3.19336
3.18386
3.16737
3.14983
3.13216
3.11786
3.10725
3.0993
3.09746
0.999216
0.99928
0.999233
0.999152
0.999034
0.998878
0.998683
0.998447
0.998171
0.997855
0.997498
0.997102
0.99667
0.996199
0.995693
0.995175
0.994635
0.994077
0.993537
0.993026
0.992528
0.992078
0.991706
0.991396
0.991185
0.991089
0.991143
0.991263
0.99154
0.991977
0.992542
0.993431
0.994511
0.995492
0.996531
0.997857
0.999318
1.00119
1.00287
1.00446
1.00588
1.00748
1.00871
1.00978
1.01242
1.02014
1.05108
1.17011
1.51765
1.94403
2.09878
2.15543
2.17779
2.17799
2.20082
2.24419
2.35344
2.50806
2.65662
2.80534
2.95058
3.02957
3.06321
3.08109
3.08898
3.09331
3.09413
3.09232
3.08888
3.08107
3.07263
3.06409
3.05682
3.04696
3.03965
3.02986
3.02395
3.01587
3.00916
3.00338
2.99844
2.99437
2.99099
2.98871
2.98744
2.98808
2.99114
2.99629
3.00355
3.01295
3.02364
3.0345
3.04563
3.0575
3.07082
3.08567
3.10119
3.11689
3.13197
3.14606
3.15929
3.1692
3.17694
3.18248
3.18545
3.18919
3.19082
3.19314
3.19467
3.19476
3.18809
3.17929
3.16298
3.14532
3.12767
3.11385
3.10332
3.09563
3.0938
0.99919
0.999255
0.999205
0.999118
0.998989
0.99882
0.998605
0.998344
0.998035
0.997675
0.997264
0.9968
0.996282
0.995709
0.995079
0.994411
0.993689
0.992908
0.992122
0.991326
0.990472
0.989626
0.988868
0.988062
0.987264
0.986621
0.986019
0.985448
0.984961
0.984617
0.984408
0.984375
0.984387
0.984353
0.984659
0.984906
0.985177
0.985498
0.985942
0.986352
0.986832
0.987186
0.987748
0.98845
0.991159
1.00012
1.04686
1.18681
1.64179
1.96243
2.0837
2.16242
2.19508
2.21739
2.2623
2.37389
2.52445
2.69166
2.87275
3.03981
3.10207
3.11974
3.12219
3.11993
3.11567
3.11019
3.10377
3.09706
3.09133
3.08489
3.07724
3.06856
3.06047
3.05091
3.0427
3.03299
3.02524
3.01787
3.01062
3.00441
2.99867
2.99401
2.99009
2.98735
2.98544
2.98472
2.98627
2.99043
2.99702
3.00568
3.01599
3.02682
3.03787
3.04943
3.06207
3.07612
3.09119
3.10677
3.12208
3.13665
3.15042
3.16107
3.17001
3.17627
3.17991
3.18325
3.18457
3.18661
3.18827
3.18865
3.1821
3.17397
3.15796
3.14035
3.1228
3.10961
3.09916
3.09178
3.08973
0.999162
0.999228
0.999174
0.99908
0.998941
0.998756
0.998521
0.998233
0.997888
0.997483
0.997013
0.996473
0.995867
0.995179
0.994414
0.993587
0.992663
0.991647
0.99061
0.989496
0.988255
0.986999
0.985822
0.984482
0.983063
0.981822
0.980588
0.979234
0.977952
0.976787
0.975578
0.974523
0.973469
0.972508
0.972054
0.971276
0.970325
0.96929
0.968452
0.967687
0.967291
0.967077
0.96732
0.968397
0.973373
0.990866
1.06956
1.25714
1.69723
1.97245
2.0997
2.18352
2.22205
2.26646
2.37536
2.52858
2.7018
2.89924
3.07346
3.12393
3.13691
3.13088
3.12696
3.12153
3.11636
3.11131
3.10652
3.1013
3.09559
3.08931
3.08206
3.07306
3.06392
3.0543
3.04511
3.03673
3.02708
3.01985
3.01222
3.00554
2.99935
2.99407
2.98957
2.98616
2.98356
2.9818
2.98208
2.98506
2.99061
2.99859
3.00851
3.01941
3.03043
3.0417
3.05373
3.06701
3.08154
3.09687
3.11223
3.12706
3.14103
3.15244
3.1625
3.1694
3.17386
3.17711
3.17837
3.17998
3.18152
3.18197
3.1755
3.16797
3.15237
3.13497
3.11767
3.10512
3.09482
3.08757
3.08574
0.999131
0.9992
0.999141
0.99904
0.99889
0.998688
0.998431
0.998114
0.99773
0.997276
0.996743
0.996127
0.99542
0.994614
0.993705
0.9927
0.991566
0.990303
0.988994
0.987531
0.985891
0.984223
0.982561
0.980632
0.978598
0.976744
0.974794
0.97262
0.970522
0.968455
0.96618
0.964018
0.961871
0.95995
0.958769
0.956929
0.95495
0.952543
0.950512
0.948623
0.947188
0.946681
0.946546
0.947333
0.953176
0.980392
1.09249
1.37772
1.7542
1.98313
2.13466
2.21685
2.25896
2.37044
2.52249
2.69946
2.90367
3.07577
3.12489
3.13038
3.11888
3.11373
3.10973
3.1067
3.10431
3.10236
3.09952
3.09554
3.09068
3.0853
3.07991
3.07337
3.066
3.0583
3.04893
3.04187
3.03092
3.02367
3.0146
3.00657
2.99966
2.99355
2.98837
2.98428
2.9812
2.97885
2.97813
2.9802
2.98469
2.99151
3.00071
3.01151
3.02252
3.03365
3.0453
3.05804
3.0721
3.08712
3.10249
3.11743
3.13149
3.14365
3.15442
3.16178
3.16709
3.17073
3.17226
3.17332
3.17454
3.17475
3.16826
3.16113
3.14625
3.12939
3.11244
3.1005
3.09036
3.08334
3.08115
0.999099
0.999169
0.999106
0.998997
0.998835
0.998616
0.998335
0.997986
0.997562
0.997055
0.996456
0.995756
0.994947
0.994012
0.99295
0.99176
0.990399
0.988881
0.987273
0.985439
0.983391
0.981309
0.97908
0.976514
0.973915
0.971442
0.968697
0.965655
0.962678
0.959791
0.956441
0.953027
0.949795
0.946916
0.944991
0.942114
0.93873
0.934925
0.931654
0.928622
0.92626
0.925216
0.924682
0.925547
0.933573
0.977521
1.11525
1.50403
1.78019
2.015
2.17347
2.24866
2.35472
2.51195
2.69217
2.9025
3.0696
3.11839
3.11696
3.105
3.09829
3.09327
3.09012
3.08812
3.08659
3.08541
3.08482
3.08392
3.08203
3.07869
3.0755
3.07195
3.06623
3.06047
3.05141
3.04481
3.03372
3.02718
3.01655
3.00777
3.00008
2.99322
2.98739
2.98258
2.97897
2.9761
2.97424
2.97517
2.9789
2.98469
2.99259
3.00265
3.0137
3.02484
3.03632
3.0487
3.06234
3.07707
3.09236
3.10735
3.12145
3.1342
3.14535
3.15326
3.15943
3.16365
3.16568
3.16646
3.16737
3.16706
3.16043
3.1535
3.13964
3.12348
3.10707
3.09572
3.08589
3.0788
3.07657
0.999064
0.999137
0.999069
0.998952
0.998776
0.998539
0.998233
0.997851
0.997384
0.996821
0.996151
0.995366
0.994446
0.993376
0.992155
0.990765
0.989168
0.98739
0.98545
0.983221
0.980774
0.978255
0.975402
0.972215
0.96905
0.965882
0.962238
0.958242
0.954319
0.95072
0.946626
0.941876
0.937386
0.933382
0.930438
0.926921
0.922754
0.91746
0.912707
0.908598
0.905401
0.90377
0.903285
0.904848
0.927034
0.977542
1.24097
1.53695
1.82839
2.08442
2.22633
2.32784
2.49396
2.67861
2.89746
3.05842
3.10494
3.09893
3.08887
3.08169
3.07563
3.07169
3.06959
3.06875
3.06843
3.06813
3.06827
3.06915
3.07001
3.06868
3.06756
3.06595
3.06145
3.05754
3.05016
3.04476
3.0354
3.03055
3.01988
3.01104
3.00105
2.99259
2.98566
2.98016
2.97611
2.97276
2.96992
2.96962
2.97255
2.97798
2.98489
2.99384
3.00452
3.01577
3.02723
3.03936
3.05262
3.06704
3.08214
3.09718
3.11139
3.12443
3.13565
3.14418
3.15111
3.15589
3.15843
3.15926
3.15997
3.15904
3.15223
3.14518
3.13264
3.11716
3.10154
3.0909
3.08146
3.07423
3.0714
0.999028
0.999102
0.99903
0.998904
0.998714
0.998458
0.998125
0.997708
0.997196
0.996574
0.995831
0.994952
0.993917
0.992708
0.991318
0.989719
0.987877
0.985823
0.983528
0.980898
0.978067
0.975043
0.971582
0.967785
0.963863
0.959968
0.955614
0.950722
0.945713
0.940997
0.936276
0.930839
0.925098
0.919717
0.914736
0.910536
0.906079
0.900647
0.893674
0.888064
0.884029
0.881289
0.879905
0.880043
0.916532
0.95699
1.43863
1.53166
1.9253
2.17933
2.30788
2.4754
2.66413
2.89014
3.04701
3.09111
3.08029
3.07173
3.0654
3.05952
3.05475
3.0514
3.04961
3.04922
3.04982
3.05063
3.05139
3.05258
3.05519
3.05542
3.05582
3.05642
3.05383
3.05141
3.04568
3.04173
3.03439
3.03078
3.02186
3.0148
3.00403
2.99431
2.9854
2.97835
2.97326
2.96932
2.96574
2.96408
2.96582
2.97074
2.9773
2.98547
2.99529
3.00636
3.01787
3.02992
3.04293
3.05707
3.07192
3.08687
3.10121
3.11424
3.12544
3.13462
3.14222
3.14746
3.15052
3.15167
3.1524
3.15098
3.14392
3.13621
3.1253
3.11051
3.09594
3.08587
3.07662
3.06902
3.06563
0.998989
0.999066
0.998989
0.998853
0.998649
0.998372
0.998011
0.997558
0.996997
0.996314
0.995493
0.994518
0.993362
0.992006
0.99044
0.988622
0.986528
0.984191
0.981528
0.978502
0.975215
0.971657
0.967643
0.963245
0.958501
0.953657
0.948654
0.943121
0.937113
0.93096
0.925297
0.919475
0.912936
0.906074
0.899551
0.893546
0.889388
0.883191
0.874909
0.868726
0.865578
0.863739
0.866299
0.881038
0.947354
1.02578
1.58128
1.62187
2.10474
2.32285
2.45909
2.65199
2.87974
3.03673
3.07826
3.06443
3.05469
3.048
3.04328
3.03928
3.03601
3.03349
3.03195
3.03155
3.03239
3.03402
3.03557
3.03679
3.03984
3.04132
3.04221
3.0441
3.04357
3.04379
3.03966
3.03622
3.03068
3.02832
3.02069
3.01548
3.00652
2.99832
2.9871
2.97749
2.97055
2.96546
2.96097
2.95815
2.95864
2.96277
2.96905
2.97678
2.98608
2.99669
3.00815
3.02024
3.03319
3.04715
3.06168
3.07643
3.09075
3.10368
3.11497
3.12471
3.13287
3.13854
3.14208
3.14359
3.14452
3.14282
3.13562
3.12718
3.11754
3.1037
3.09023
3.08033
3.07116
3.06375
3.06011
0.998949
0.999028
0.998945
0.998799
0.99858
0.998281
0.997892
0.997399
0.996789
0.996042
0.995141
0.994063
0.992782
0.991277
0.989524
0.987482
0.985132
0.982486
0.979458
0.976033
0.972265
0.968127
0.963556
0.958583
0.953124
0.947266
0.94129
0.935171
0.928479
0.921207
0.913893
0.907314
0.900284
0.892398
0.884443
0.876982
0.871137
0.864213
0.855512
0.848832
0.844454
0.841375
0.839468
0.873206
0.889381
1.35955
1.36425
1.97953
2.30651
2.43922
2.63704
2.86871
3.02509
3.06473
3.04781
3.03705
3.02957
3.02454
3.02113
3.01889
3.01734
3.01618
3.01546
3.01529
3.0162
3.01803
3.02064
3.02185
3.02476
3.02789
3.02867
3.0311
3.03173
3.03426
3.03256
3.02954
3.02493
3.02374
3.01719
3.01275
3.00487
3.00008
2.99012
2.98001
2.97001
2.96288
2.95708
2.9529
2.95176
2.95449
2.96034
2.9677
2.97644
2.98673
2.99807
3.01026
3.02325
3.03712
3.05136
3.0659
3.08003
3.09281
3.10422
3.11437
3.12289
3.129
3.1331
3.135
3.13629
3.13453
3.12706
3.11806
3.10953
3.09681
3.08431
3.07438
3.06528
3.05807
3.05408
0.998907
0.998988
0.998899
0.998743
0.998508
0.998187
0.997767
0.997234
0.996571
0.995758
0.994772
0.99359
0.99218
0.990519
0.988575
0.986306
0.983694
0.980729
0.977336
0.973507
0.969256
0.964563
0.959338
0.953716
0.947696
0.941037
0.933923
0.92668
0.919405
0.911499
0.902883
0.89433
0.886494
0.878443
0.869399
0.860839
0.852551
0.843704
0.835372
0.830216
0.82706
0.827301
0.839721
0.906209
0.957222
1.42425
1.7108
2.25057
2.42215
2.63191
2.86779
3.02135
3.05851
3.03864
3.02623
3.0166
3.01
3.00553
3.00256
3.00073
2.99969
2.99917
2.99903
2.99922
3.00025
3.0022
3.00589
3.00711
3.00963
3.01409
3.01522
3.01853
3.01935
3.023
3.02397
3.02121
3.0175
3.01784
3.01274
3.00844
3.00095
2.99855
2.99042
2.9829
2.97163
2.96177
2.95403
2.94813
2.94507
2.94604
2.951
2.95774
2.96613
2.97623
2.98754
2.99989
3.01292
3.0268
3.0409
3.05533
3.06907
3.08184
3.09324
3.10364
3.1124
3.11896
3.1236
3.1259
3.12749
3.1257
3.11807
3.10921
3.10158
3.08984
3.07805
3.06802
3.05911
3.05214
3.04888
0.998863
0.998946
0.998851
0.998684
0.998432
0.998088
0.997636
0.997062
0.996345
0.995464
0.994393
0.993103
0.991563
0.989744
0.987605
0.985107
0.982228
0.978937
0.975174
0.970932
0.966193
0.960977
0.955115
0.948709
0.942062
0.934772
0.926725
0.918193
0.909738
0.901275
0.891978
0.881832
0.871881
0.862969
0.853889
0.84457
0.834619
0.823336
0.815304
0.811107
0.808662
0.81325
0.863458
0.847404
1.30511
1.44253
2.21925
2.4607
2.63607
2.87414
3.02251
3.06004
3.03738
3.02332
3.01128
3.00153
2.99464
2.99027
2.98755
2.98571
2.98456
2.984
2.98391
2.98411
2.98474
2.98617
2.99028
2.99152
2.9935
2.99895
3.00091
3.0051
3.00587
3.00941
3.01386
3.01159
3.00925
3.01116
3.00729
3.00302
2.99587
2.99441
2.98708
2.98246
2.97334
2.96295
2.95266
2.94458
2.93958
2.93852
2.94161
2.9476
2.95551
2.96528
2.97659
2.98909
3.00216
3.01623
3.03024
3.04467
3.05802
3.07079
3.08215
3.09259
3.10147
3.10847
3.11363
3.11639
3.11832
3.11666
3.10924
3.10094
3.09367
3.08249
3.07099
3.06108
3.05269
3.04631
3.0436
0.998817
0.998902
0.998801
0.998622
0.998354
0.997985
0.997501
0.996885
0.996113
0.995163
0.994005
0.992607
0.990935
0.988955
0.986621
0.983895