/*--------------------------------*- C++ -*----------------------------------*\
| =========                 |                                                 |
| \\      /  F ield         | OpenFOAM: The Open Source CFD Toolbox           |
|  \\    /   O peration     | Version:  2.2.x                                 |
|   \\  /    A nd           | Web:      www.OpenFOAM.org                      |
|    \\/     M anipulation  |                                                 |
\*---------------------------------------------------------------------------*/
FoamFile
{
    version     2.0;
    format      ascii;
    class       volVectorField;
    location    "1.05";
    object      U;
}
// * * * * * * * * * * * * * * * * * * * * * * * * * * * * * * * * * * * * * //

dimensions      [0 1 -1 0 0 0 0];

internalField   nonuniform List<vector> 
14161
(
(1.50018 8.47737e-08 -5.2326e-20)
(1.50017 2.82385e-08 -1.87816e-19)
(1.50018 1.31347e-08 1.24149e-17)
(1.50019 -2.75513e-08 -4.73663e-17)
(1.5002 -1.65588e-07 6.29605e-17)
(1.50022 -1.72601e-07 -1.20585e-16)
(1.50024 -9.85065e-08 3.09722e-16)
(1.50024 -1.27217e-07 -6.76803e-16)
(1.50025 -2.65516e-07 9.86056e-16)
(1.50024 -3.00611e-07 -1.77201e-15)
(1.50023 -3.77169e-07 3.13513e-15)
(1.5002 -4.27539e-07 -3.77597e-15)
(1.50014 -3.81082e-07 2.58968e-15)
(1.50006 -7.34768e-07 1.38215e-15)
(1.49993 -1.17796e-06 -8.24192e-15)
(1.49975 -1.31686e-06 2.85181e-14)
(1.49951 -8.79555e-07 -6.20997e-14)
(1.4992 -1.59776e-06 8.44138e-14)
(1.49881 -2.06921e-06 -1.67855e-13)
(1.49832 -2.30833e-06 2.40645e-13)
(1.49773 -1.82623e-06 -2.33075e-13)
(1.49701 -3.04936e-06 3.0649e-13)
(1.49616 -4.26062e-06 -1.05879e-12)
(1.4952 -5.37946e-06 1.41939e-12)
(1.4941 -4.11652e-06 -1.99423e-12)
(1.49289 -4.1685e-06 2.12712e-12)
(1.49152 -4.6704e-06 -2.40671e-12)
(1.49001 -4.87655e-06 3.08934e-12)
(1.48834 -7.07252e-06 -6.09916e-12)
(1.48656 -6.983e-06 8.01859e-12)
(1.48467 -6.23309e-06 -5.96574e-12)
(1.48267 -9.33249e-06 4.60708e-12)
(1.48056 -1.07687e-05 -3.72811e-12)
(1.4784 -8.87848e-06 7.60672e-12)
(1.47626 -9.772e-06 -8.22092e-12)
(1.47424 -7.75436e-06 1.58027e-11)
(1.47209 -5.88227e-06 -2.93962e-11)
(1.46978 -9.53918e-06 3.79252e-11)
(1.46732 -9.69522e-06 -1.79773e-11)
(1.46482 -8.71578e-06 -1.53759e-11)
(1.46251 -6.74202e-06 -3.2541e-11)
(1.4603 -5.31286e-06 8.97827e-11)
(1.45803 -5.28134e-06 -2.2366e-10)
(1.45563 6.44314e-06 2.67333e-10)
(1.45315 -9.46913e-06 4.6092e-10)
(1.45062 -2.89472e-05 1.22421e-09)
(1.44714 -0.000122186 4.79549e-09)
(1.43972 -0.000588628 2.404e-08)
(1.41503 -0.0012831 5.23627e-08)
(1.32089 -0.00274793 1.16545e-07)
(1.01667 -0.00678092 2.78561e-07)
(0.721065 -0.00909023 4.79807e-07)
(0.625316 -0.0111134 9.75094e-07)
(0.613238 -0.0102652 -2.50538e-06)
(0.619238 -0.00834042 1.56809e-06)
(0.634152 -0.00668117 3.28995e-05)
(0.64857 -0.00508574 -2.81437e-05)
(0.661257 -0.00453337 -6.08309e-05)
(0.672573 -0.004217 6.79109e-05)
(0.68308 -0.00409714 0.000133423)
(0.693111 -0.00398358 -5.65866e-05)
(0.702937 -0.00389631 -0.000203351)
(0.712826 -0.00391444 5.1981e-06)
(0.722577 -0.00385877 0.00031445)
(0.731594 -0.00344328 0.000152788)
(0.739971 -0.00305134 -0.00030783)
(0.747997 -0.00307856 -0.000297874)
(0.756162 -0.00314058 0.000192431)
(0.763756 -0.00288068 0.000389155)
(0.770563 -0.00247743 2.94851e-05)
(0.776977 -0.00228208 -0.000291616)
(0.783405 -0.00245855 -0.000231225)
(0.790424 -0.00274284 6.69112e-05)
(0.797539 -0.00278796 0.000294378)
(0.804239 -0.00263561 0.000139065)
(0.811166 -0.00257946 -0.00015903)
(0.818429 -0.00271689 -0.000237722)
(0.826504 -0.0030293 -7.61844e-05)
(0.835344 -0.00332893 2.91478e-06)
(0.843785 -0.003255 4.39926e-05)
(0.852936 -0.00302956 0.000233581)
(0.861993 -0.00291732 0.000199802)
(0.87138 -0.00310376 -0.000436448)
(0.881671 -0.00364981 -0.000644814)
(0.89199 -0.00404622 0.000381203)
(0.902676 -0.00414923 0.000804824)
(0.912056 -0.00380471 -0.000153894)
(0.919573 -0.00288261 -0.000700579)
(0.92453 -0.0013402 -3.58327e-05)
(0.92774 -0.000735714 0.000393387)
(0.930776 -0.00102761 0.000258838)
(0.932012 -0.000228046 -4.97283e-05)
(0.927797 0.00153489 -0.000120695)
(0.918475 0.00406413 -7.32629e-05)
(0.901833 0.00875324 -1.31323e-05)
(0.87377 0.0154923 -2.99638e-08)
(0.832014 0.0239148 -3.77661e-06)
(0.774926 0.0318903 1.51562e-05)
(0.701626 0.0362392 2.52579e-05)
(0.621861 0.0380964 9.35418e-07)
(0.547614 0.0374173 -3.06094e-06)
(0.483819 0.0326929 5.96881e-06)
(0.431367 0.0272252 6.67993e-06)
(0.388312 0.0227981 6.41967e-06)
(0.351161 0.0194502 5.78593e-06)
(0.318603 0.0168533 4.54825e-06)
(0.289743 0.0150149 3.20184e-06)
(0.264261 0.0134669 1.071e-06)
(0.24094 0.0122836 -7.43412e-07)
(0.219362 0.0113897 -1.16897e-06)
(0.199232 0.0108395 -1.56323e-06)
(0.179839 0.0106194 -1.63879e-06)
(0.160376 0.0107648 3.11597e-07)
(0.140302 0.0111468 2.36327e-06)
(0.118898 0.0119327 2.14842e-06)
(0.0959969 0.0127103 6.61731e-07)
(0.0717223 0.014095 3.30969e-08)
(0.0458997 0.0135814 4.34585e-08)
(0.0219369 0.022153 3.35147e-08)
(1.50018 1.28571e-07 -8.10838e-20)
(1.50017 1.17903e-07 -3.357e-19)
(1.50018 7.91085e-08 1.11136e-17)
(1.50019 -1.94297e-08 -4.52143e-17)
(1.5002 -1.88697e-07 5.70874e-17)
(1.50022 -2.16786e-07 -1.13625e-16)
(1.50024 -3.9508e-08 2.97931e-16)
(1.50024 -4.75016e-08 -6.55766e-16)
(1.50025 -2.2561e-07 9.50154e-16)
(1.50024 -3.2928e-07 -1.72666e-15)
(1.50023 -4.72447e-07 3.22581e-15)
(1.5002 -4.47709e-07 -3.66209e-15)
(1.50015 -3.05248e-07 2.48801e-15)
(1.50006 -6.98441e-07 1.66459e-15)
(1.49993 -1.17233e-06 -8.96248e-15)
(1.49976 -1.30712e-06 2.45924e-14)
(1.49952 -9.07874e-07 -5.84819e-14)
(1.49921 -1.99608e-06 9.7885e-14)
(1.49881 -2.63103e-06 -1.28724e-13)
(1.49833 -2.63955e-06 1.66113e-13)
(1.49773 -1.5196e-06 -2.07328e-13)
(1.49701 -3.31415e-06 2.70373e-13)
(1.49617 -4.96578e-06 -6.43035e-13)
(1.4952 -5.55702e-06 1.20773e-12)
(1.49411 -4.09539e-06 -1.4269e-12)
(1.4929 -3.99453e-06 1.72925e-12)
(1.49153 -4.55494e-06 -2.13989e-12)
(1.49002 -4.91426e-06 2.34424e-12)
(1.48836 -8.03356e-06 -2.93462e-12)
(1.48657 -7.65873e-06 4.12508e-12)
(1.48468 -5.21077e-06 -2.88552e-12)
(1.48268 -1.03888e-05 2.26693e-12)
(1.48058 -1.40597e-05 -1.56255e-12)
(1.47841 -1.27206e-05 2.16878e-12)
(1.47626 -1.85768e-05 9.14033e-13)
(1.47425 -2.34821e-05 -2.13388e-13)
(1.47209 -1.6422e-05 -1.26261e-11)
(1.46979 -1.50049e-05 1.039e-11)
(1.46735 -1.15073e-05 1.40237e-11)
(1.46484 -1.77367e-05 -3.65258e-11)
(1.46252 -1.35043e-05 1.0337e-12)
(1.46032 -7.0228e-06 3.77722e-11)
(1.45806 8.37712e-06 -6.76982e-11)
(1.4557 3.87628e-05 7.10924e-11)
(1.4532 8.64179e-06 3.65751e-10)
(1.45069 -0.000103671 6.21785e-10)
(1.44734 -0.000547357 4.72764e-09)
(1.44035 -0.00166342 1.26156e-08)
(1.41722 -0.00460581 3.98367e-08)
(1.32819 -0.00947804 1.27702e-07)
(1.03254 -0.0181982 1.49267e-07)
(0.735466 -0.0219559 4.1794e-07)
(0.639412 -0.0215825 1.0604e-06)
(0.624367 -0.0183843 -1.62724e-06)
(0.628018 -0.0143988 -3.82911e-06)
(0.640641 -0.0123118 3.01881e-05)
(0.653758 -0.0101647 2.13094e-06)
(0.665943 -0.00948782 -7.20162e-05)
(0.677035 -0.00922633 7.94425e-06)
(0.687499 -0.00913951 0.000158735)
(0.697532 -0.008759 3.26768e-05)
(0.707362 -0.0086187 -0.000222309)
(0.717229 -0.00888193 -0.000110231)
(0.72675 -0.00864317 0.00028945)
(0.735435 -0.0073545 0.000263275)
(0.743583 -0.00637789 -0.000238776)
(0.751513 -0.0067597 -0.000401542)
(0.75946 -0.00740161 5.90304e-05)
(0.766785 -0.00692723 0.000424805)
(0.773417 -0.00564265 0.000195795)
(0.779861 -0.00510527 -0.000235932)
(0.786348 -0.0058925 -0.000334231)
(0.793407 -0.00696401 -2.28718e-05)
(0.800555 -0.00716759 0.000334644)
(0.807474 -0.00647959 0.000241172)
(0.814609 -0.00605232 -0.000104956)
(0.822054 -0.00635303 -0.000250678)
(0.830312 -0.0072629 -0.000108801)
(0.839468 -0.00814999 -1.17689e-05)
(0.848102 -0.00768937 5.00643e-05)
(0.857482 -0.00642053 0.000309583)
(0.866992 -0.00531204 0.000252819)
(0.87674 -0.00512767 -0.000520399)
(0.887053 -0.00600422 -0.000778851)
(0.897198 -0.0073786 0.000302369)
(0.906666 -0.00776654 0.000962349)
(0.914026 -0.00703437 5.86167e-05)
(0.919438 -0.0051649 -0.000873339)
(0.922811 -0.00332889 -0.000290849)
(0.924639 -0.00213894 0.000352615)
(0.925606 -0.00142728 0.000297279)
(0.923456 -0.000417647 2.58903e-05)
(0.914977 0.00146043 -0.000108307)
(0.899963 0.00422701 -8.62303e-05)
(0.874869 0.00935243 -2.93102e-05)
(0.83632 0.0169713 -3.59077e-06)
(0.783744 0.0279272 7.8726e-06)
(0.717774 0.0418798 2.4353e-05)
(0.641936 0.0571336 1.35099e-05)
(0.566632 0.0649192 -6.87778e-06)
(0.500817 0.0614666 1.67133e-06)
(0.446031 0.054004 6.69144e-06)
(0.400649 0.0479228 5.64197e-06)
(0.362343 0.0426746 5.81362e-06)
(0.328711 0.0382444 4.89151e-06)
(0.299174 0.0344171 3.57923e-06)
(0.272759 0.0314916 2.26945e-06)
(0.249074 0.0291188 2.96318e-07)
(0.227077 0.0273226 -1.07476e-06)
(0.206626 0.0259134 -1.22453e-06)
(0.187307 0.0253193 -1.64578e-06)
(0.168531 0.0255148 -1.38432e-06)
(0.149535 0.0269436 7.88527e-07)
(0.129736 0.0287694 2.48052e-06)
(0.10868 0.0318749 1.91859e-06)
(0.0865773 0.034355 4.05304e-07)
(0.0638227 0.0379527 1.87195e-08)
(0.0389017 0.0390017 6.5383e-08)
(0.0165497 0.0503541 4.37718e-08)
(1.50018 2.72044e-07 -9.27371e-20)
(1.50017 1.88738e-07 -3.90404e-19)
(1.50018 7.26535e-08 1.07596e-17)
(1.50019 -1.21394e-07 -4.37639e-17)
(1.5002 -2.93835e-07 5.30426e-17)
(1.50022 -5.00445e-07 -1.08089e-16)
(1.50024 -2.33921e-07 2.67348e-16)
(1.50025 -2.61395e-07 -5.99878e-16)
(1.50025 -5.20802e-07 8.87738e-16)
(1.50024 -7.03486e-07 -1.63157e-15)
(1.50023 -1.03454e-06 3.08344e-15)
(1.5002 -1.09571e-06 -3.14159e-15)
(1.50015 -1.16129e-06 2.28167e-15)
(1.50006 -1.70858e-06 1.60697e-15)
(1.49994 -2.15256e-06 -9.05858e-15)
(1.49976 -2.54599e-06 2.10985e-14)
(1.49953 -3.14469e-06 -4.95662e-14)
(1.49922 -4.67183e-06 8.88902e-14)
(1.49882 -5.45698e-06 -9.65357e-14)
(1.49834 -5.38655e-06 1.02349e-13)
(1.49775 -4.77791e-06 -1.86814e-13)
(1.49703 -7.59343e-06 2.41676e-13)
(1.49619 -1.0663e-05 -4.90187e-13)
(1.49523 -1.1814e-05 9.94276e-13)
(1.49414 -1.09332e-05 -1.00462e-12)
(1.49293 -1.07559e-05 1.29479e-12)
(1.49157 -1.19001e-05 -2.13408e-12)
(1.49006 -1.32373e-05 1.75509e-12)
(1.4884 -1.64527e-05 -1.86938e-12)
(1.48662 -1.84545e-05 2.44581e-12)
(1.48473 -1.44851e-05 -6.30664e-13)
(1.48273 -2.02018e-05 1.03736e-13)
(1.48064 -2.77093e-05 1.38119e-12)
(1.47847 -3.12733e-05 -2.53311e-12)
(1.47631 -4.10975e-05 3.12452e-12)
(1.47429 -4.62326e-05 -2.21648e-12)
(1.47213 -4.18638e-05 -5.35324e-12)
(1.46985 -2.94295e-05 3.07842e-12)
(1.46744 -1.45603e-05 2.05101e-11)
(1.4649 -2.74605e-05 -3.12371e-11)
(1.46258 -2.92632e-05 -2.47967e-12)
(1.46037 -1.82718e-05 4.92563e-11)
(1.45815 2.49113e-05 -3.89486e-11)
(1.45587 6.19661e-05 -1.71964e-11)
(1.45342 1.82185e-05 3.53477e-10)
(1.45087 -0.000203012 5.63798e-10)
(1.44749 -0.00101964 3.37375e-09)
(1.44068 -0.00324398 1.10948e-08)
(1.41795 -0.0093939 2.49045e-08)
(1.3319 -0.0232581 1.34189e-07)
(1.04091 -0.0444289 3.27118e-08)
(0.743279 -0.0449552 2.22019e-07)
(0.646291 -0.041332 2.07821e-06)
(0.628795 -0.0334981 -2.45551e-06)
(0.631303 -0.0262193 -5.22055e-06)
(0.643106 -0.0224683 2.24934e-05)
(0.655415 -0.0193902 1.027e-05)
(0.667275 -0.0181849 -5.61059e-05)
(0.678235 -0.0176917 -1.39708e-05)
(0.688704 -0.0174512 0.000129068)
(0.698763 -0.0167135 5.77007e-05)
(0.708697 -0.0163992 -0.00018422)
(0.718491 -0.0166581 -0.000142026)
(0.727803 -0.0159123 0.000226217)
(0.736293 -0.0137913 0.000262834)
(0.744432 -0.0124007 -0.000183114)
(0.752442 -0.012951 -0.000377369)
(0.760266 -0.0137397 1.0691e-05)
(0.767543 -0.0127955 0.000369921)
(0.774184 -0.0108127 0.00022994)
(0.780918 -0.00999506 -0.000184209)
(0.78759 -0.0111666 -0.000319298)
(0.794703 -0.0128162 -5.20533e-05)
(0.801991 -0.0130737 0.000290262)
(0.809238 -0.0120764 0.000245804)
(0.816768 -0.011419 -6.32597e-05)
(0.824475 -0.0119559 -0.000186733)
(0.83296 -0.0135273 -0.000104106)
(0.84249 -0.0149502 -0.000111302)
(0.851524 -0.0144448 -1.48993e-05)
(0.861328 -0.012834 0.000384302)
(0.871698 -0.0111334 0.000372205)
(0.882029 -0.0106322 -0.000585828)
(0.892094 -0.0117025 -0.000871524)
(0.901041 -0.0130455 0.0001944)
(0.907962 -0.0124043 0.00101799)
(0.91277 -0.010602 0.000213916)
(0.915785 -0.0082657 -0.000723622)
(0.916413 -0.00549697 -0.000366341)
(0.915715 -0.00313891 0.000204952)
(0.910993 -0.000532659 0.000253417)
(0.901203 0.00337795 8.53226e-05)
(0.884633 0.00949801 -4.71548e-05)
(0.857846 0.0188797 -7.1461e-05)
(0.818601 0.0333288 -3.37918e-05)
(0.764031 0.0519365 -2.70262e-06)
(0.698644 0.0755473 2.16313e-05)
(0.626699 0.101072 2.7759e-05)
(0.558325 0.116952 -3.52282e-06)
(0.49946 0.118802 -5.99661e-06)
(0.450774 0.109492 6.93608e-06)
(0.409289 0.0962061 6.10949e-06)
(0.373455 0.0853133 4.79655e-06)
(0.341746 0.0760061 5.54595e-06)
(0.312781 0.0681554 4.2957e-06)
(0.286582 0.0612501 2.98803e-06)
(0.262511 0.0556252 1.70055e-06)
(0.240095 0.0511626 -1.71372e-07)
(0.218781 0.047906 -1.21637e-06)
(0.198713 0.0453951 -1.24063e-06)
(0.17919 0.0441093 -1.64305e-06)
(0.159905 0.0439309 -1.16459e-06)
(0.140504 0.0457535 1.17022e-06)
(0.120772 0.0483323 2.61266e-06)
(0.100516 0.0530079 1.60982e-06)
(0.0794933 0.0563946 2.00915e-07)
(0.0585388 0.0620116 1.51534e-08)
(0.0353357 0.0642127 7.28575e-08)
(0.0161308 0.0776777 5.60054e-08)
(1.50018 3.82316e-07 -6.01623e-20)
(1.50017 2.71786e-07 -1.9534e-19)
(1.50018 1.42193e-07 1.22851e-17)
(1.50019 -1.2969e-07 -4.4159e-17)
(1.5002 -2.96667e-07 5.0587e-17)
(1.50022 -6.80035e-07 -9.06664e-17)
(1.50024 -2.76566e-07 1.76763e-16)
(1.50025 -1.32914e-07 -4.76116e-16)
(1.50025 -4.41228e-07 6.34549e-16)
(1.50025 -6.37164e-07 -1.10839e-15)
(1.50024 -1.30719e-06 2.16525e-15)
(1.50021 -1.6241e-06 -1.90392e-15)
(1.50016 -1.80604e-06 1.70968e-15)
(1.50007 -1.83397e-06 8.6231e-16)
(1.49995 -2.78245e-06 -6.91329e-15)
(1.49977 -3.06902e-06 1.66427e-14)
(1.49954 -4.44484e-06 -2.90073e-14)
(1.49924 -6.13715e-06 2.73818e-14)
(1.49884 -6.93694e-06 -2.16266e-14)
(1.49836 -6.77097e-06 5.74105e-14)
(1.49778 -7.36206e-06 -1.02639e-13)
(1.49707 -9.91013e-06 1.85925e-13)
(1.49624 -1.26523e-05 -1.96251e-13)
(1.49527 -1.37231e-05 3.61572e-13)
(1.49418 -1.58845e-05 -4.93568e-13)
(1.49298 -1.73283e-05 4.85781e-13)
(1.49164 -1.71782e-05 -9.04138e-13)
(1.49013 -1.95963e-05 6.11409e-13)
(1.48848 -2.0151e-05 -2.15694e-13)
(1.48671 -2.25541e-05 -2.31827e-13)
(1.48482 -2.04791e-05 1.86445e-12)
(1.48284 -2.60624e-05 -2.32521e-12)
(1.48076 -3.33458e-05 2.07426e-12)
(1.4786 -3.63698e-05 -2.26578e-12)
(1.47641 -4.73242e-05 9.60411e-13)
(1.47437 -5.92863e-05 1.69992e-12)
(1.47222 -5.73175e-05 -4.83482e-12)
(1.46995 -4.42342e-05 3.04979e-12)
(1.46758 -2.73234e-05 1.50798e-11)
(1.46504 -3.2446e-05 -1.74809e-11)
(1.46271 -3.84398e-05 -1.48048e-11)
(1.46048 -2.34451e-05 4.51324e-11)
(1.45831 2.15266e-05 -2.37057e-11)
(1.45612 6.9352e-05 -3.40024e-11)
(1.45387 4.86426e-05 1.9575e-10)
(1.45135 -0.000282021 4.03941e-10)
(1.44801 -0.00142434 2.37659e-09)
(1.44118 -0.00457654 6.37515e-09)
(1.4173 -0.0138393 3.08469e-08)
(1.32597 -0.0381629 6.64633e-08)
(1.02431 -0.0736136 6.90291e-08)
(0.732523 -0.0686704 1.52498e-07)
(0.636473 -0.0599999 3.71265e-07)
(0.620324 -0.0486305 1.18742e-07)
(0.623324 -0.0377083 -2.36074e-06)
(0.636486 -0.0321628 6.35749e-06)
(0.649022 -0.0284431 1.23163e-05)
(0.661164 -0.026822 -2.07892e-05)
(0.67245 -0.026062 -2.90214e-05)
(0.683293 -0.0256588 6.09877e-05)
(0.693732 -0.0246278 6.79568e-05)
(0.704101 -0.0242014 -9.18279e-05)
(0.714178 -0.0241855 -0.000134874)
(0.72368 -0.0227817 8.87842e-05)
(0.732372 -0.0199403 0.000187624)
(0.741069 -0.0180652 -5.24716e-05)
(0.74974 -0.0184951 -0.000247022)
(0.758026 -0.019011 -6.1847e-05)
(0.765638 -0.0176448 0.000204904)
(0.772816 -0.0152951 0.000196911)
(0.78024 -0.0146252 -7.81523e-05)
(0.787383 -0.0163161 -0.000224532)
(0.794933 -0.0184143 -3.32177e-05)
(0.802626 -0.0187195 0.00017284)
(0.810424 -0.0175979 4.1208e-05)
(0.818523 -0.0167059 -7.19573e-05)
(0.826795 -0.0173234 0.00017656)
(0.83592 -0.0192903 0.00012817)
(0.846096 -0.020958 -0.000493828)
(0.856005 -0.0202654 -0.000413915)
(0.86614 -0.0183712 0.000629536)
(0.87611 -0.0160209 0.000774751)
(0.885485 -0.0150904 -0.000599414)
(0.893789 -0.0156387 -0.00103974)
(0.900127 -0.0155806 0.000213132)
(0.904674 -0.0148933 0.0008935)
(0.906547 -0.0124263 0.000336524)
(0.90708 -0.00883385 -0.00043885)
(0.903884 -0.00445069 -0.000355565)
(0.894959 -9.74972e-05 1.82449e-06)
(0.879055 0.00503709 0.000163477)
(0.855004 0.01282 0.000117388)
(0.819473 0.0231009 2.75754e-06)
(0.770046 0.0378232 -4.75043e-05)
(0.706927 0.0569634 -2.87127e-05)
(0.63512 0.0843512 9.09563e-06)
(0.564894 0.112474 2.76046e-05)
(0.502642 0.129847 4.65665e-06)
(0.454067 0.140205 -5.31422e-06)
(0.416202 0.14118 5.34156e-06)
(0.385365 0.130001 7.16608e-06)
(0.358283 0.115908 3.90051e-06)
(0.333053 0.104337 4.6582e-06)
(0.30923 0.0945495 4.35156e-06)
(0.285923 0.0859769 2.40425e-06)
(0.26388 0.0783236 1.47728e-06)
(0.243083 0.0722095 2.66394e-07)
(0.223223 0.0674401 -1.15064e-06)
(0.203721 0.0639584 -1.46587e-06)
(0.184953 0.0612023 -1.38132e-06)
(0.166748 0.0603235 -1.60989e-06)
(0.148657 0.060545 -6.29275e-07)
(0.130709 0.0634084 1.73118e-06)
(0.112155 0.0666075 2.54924e-06)
(0.0935539 0.0728775 1.21581e-06)
(0.0738356 0.0768136 6.43325e-08)
(0.0546832 0.0840269 2.32494e-08)
(0.0333481 0.086881 8.19558e-08)
(0.0174577 0.100972 6.86867e-08)
(1.50018 5.22543e-07 -4.47631e-21)
(1.50017 3.8338e-07 1.46483e-20)
(1.50018 2.45596e-07 1.49107e-17)
(1.50019 -8.87312e-08 -4.62814e-17)
(1.50021 -3.6491e-07 5.74377e-17)
(1.50023 -1.01598e-06 -9.14931e-17)
(1.50024 -4.90386e-07 1.41227e-16)
(1.50025 -2.58474e-07 -4.12362e-16)
(1.50026 -4.52466e-07 5.37281e-16)
(1.50025 -6.43692e-07 -8.46383e-16)
(1.50024 -1.47111e-06 1.87958e-15)
(1.50022 -1.88689e-06 -1.95359e-15)
(1.50017 -2.39126e-06 1.62917e-15)
(1.50009 -2.39725e-06 5.83142e-16)
(1.49997 -3.24395e-06 -4.68258e-15)
(1.4998 -3.86788e-06 1.14562e-14)
(1.49957 -6.17999e-06 -2.55799e-14)
(1.49926 -8.46195e-06 3.72436e-14)
(1.49888 -8.07578e-06 -3.29406e-14)
(1.49841 -9.13566e-06 2.8536e-14)
(1.49783 -1.10174e-05 -3.29945e-14)
(1.49713 -1.18797e-05 6.28403e-14)
(1.4963 -1.48267e-05 -1.07514e-13)
(1.49535 -1.89592e-05 1.19115e-13)
(1.49427 -2.11226e-05 -2.06091e-13)
(1.49308 -2.54929e-05 1.88883e-13)
(1.49174 -2.42163e-05 -3.44539e-14)
(1.49026 -2.30417e-05 -4.07876e-14)
(1.48863 -2.45021e-05 3.66233e-13)
(1.48686 -2.65206e-05 -7.48015e-13)
(1.48499 -2.57236e-05 1.66155e-12)
(1.48301 -3.12712e-05 -1.25486e-12)
(1.48095 -4.26369e-05 -2.66373e-13)
(1.4788 -5.41847e-05 1.00125e-12)
(1.4766 -6.41662e-05 -2.08149e-12)
(1.4745 -7.53504e-05 3.53947e-12)
(1.47237 -6.92248e-05 -4.2922e-12)
(1.47013 -6.10069e-05 1.03279e-12)
(1.46779 -4.66166e-05 9.18862e-12)
(1.46528 -4.2292e-05 -1.01484e-11)
(1.46293 -3.69304e-05 -5.9355e-12)
(1.4607 -3.30305e-05 2.62226e-11)
(1.45857 8.90872e-06 -9.50511e-12)
(1.45649 4.75183e-05 -5.05508e-12)
(1.4544 1.45547e-05 9.43096e-11)
(1.45202 -0.000375646 1.89183e-10)
(1.44881 -0.00168422 1.50761e-09)
(1.44177 -0.00544291 3.13534e-09)
(1.41635 -0.0161118 2.58125e-08)
(1.31705 -0.045481 2.44021e-08)
(0.993895 -0.0908622 4.20264e-08)
(0.712121 -0.0835463 1.86095e-07)
(0.617664 -0.0728241 -3.89134e-07)
(0.602182 -0.0594207 6.21482e-07)
(0.60664 -0.0472843 4.73269e-06)
(0.621732 -0.0409732 -1.11099e-05)
(0.635829 -0.0366104 9.66929e-08)
(0.648953 -0.0345543 2.70791e-05)
(0.661477 -0.0337703 -1.20198e-05)
(0.673587 -0.0336281 -3.50895e-05)
(0.685005 -0.0323884 3.22185e-05)
(0.696019 -0.0312336 5.37453e-05)
(0.70676 -0.0303484 -4.42075e-05)
(0.717114 -0.0282003 -7.26052e-05)
(0.727146 -0.0251922 3.08886e-05)
(0.737193 -0.0235003 8.5118e-05)
(0.747009 -0.0240467 -2.69289e-05)
(0.756314 -0.0242805 -0.000120824)
(0.764692 -0.0223335 -2.4937e-06)
(0.772748 -0.0196294 0.000128585)
(0.781134 -0.0190449 2.66941e-05)
(0.788995 -0.0210882 -8.50827e-05)
(0.797213 -0.0235078 2.34837e-05)
(0.805667 -0.0239885 7.718e-05)
(0.814575 -0.0229309 -0.00015877)
(0.82401 -0.0218777 -0.000130277)
(0.833528 -0.0225977 0.00035494)
(0.843436 -0.024699 0.000344355)
(0.853697 -0.0263322 -0.000593414)
(0.863474 -0.0257386 -0.000648541)
(0.872357 -0.0232119 0.000560952)
(0.880547 -0.020568 0.000821857)
(0.887029 -0.0183233 -0.000352548)
(0.892411 -0.0178269 -0.000741993)
(0.895373 -0.0167236 4.24527e-05)
(0.896103 -0.0143102 0.000570233)
(0.894852 -0.0104453 0.000330295)
(0.888537 -0.00536633 -0.000176897)
(0.875186 0.000765142 -0.000265492)
(0.853011 0.00922106 -8.80949e-05)
(0.819625 0.0209346 9.02886e-05)
(0.773517 0.0372943 9.56158e-05)
(0.71367 0.0580556 5.01495e-06)
(0.64168 0.0840011 -4.34002e-05)
(0.567978 0.113512 -1.24415e-05)
(0.500158 0.136968 2.07883e-05)
(0.446628 0.153578 9.8781e-06)
(0.406032 0.16348 -1.96916e-06)
(0.375092 0.165388 3.59758e-06)
(0.351944 0.160642 7.80217e-06)
(0.333349 0.149024 4.64194e-06)
(0.316044 0.135713 3.91836e-06)
(0.29805 0.123795 4.38486e-06)
(0.279433 0.112709 2.34568e-06)
(0.260401 0.103027 4.45688e-07)
(0.242202 0.0952052 -1.28647e-07)
(0.224469 0.0891002 -1.26448e-06)
(0.2069 0.0840025 -1.94985e-06)
(0.189109 0.0800801 -1.70398e-06)
(0.171871 0.0770573 -1.5244e-06)
(0.154918 0.0761554 -1.48649e-06)
(0.138194 0.076669 7.11998e-08)
(0.121535 0.0798949 2.14935e-06)
(0.104171 0.0838035 2.30843e-06)
(0.0873355 0.0912254 8.02383e-07)
(0.0690481 0.0957579 -1.7108e-08)
(0.052005 0.104357 3.4611e-08)
(0.032479 0.107614 9.01469e-08)
(0.0193828 0.12177 7.89678e-08)
(1.50018 6.59603e-07 3.13203e-20)
(1.50018 4.71196e-07 1.40983e-19)
(1.50018 3.12722e-07 1.59583e-17)
(1.50019 -9.79606e-08 -4.51329e-17)
(1.50021 -4.30966e-07 6.84457e-17)
(1.50023 -1.36109e-06 -8.62582e-17)
(1.50025 -7.7444e-07 9.79654e-17)
(1.50026 -8.11593e-08 -3.48018e-16)
(1.50026 -1.65965e-07 4.55548e-16)
(1.50026 -7.21677e-07 -6.42521e-16)
(1.50025 -1.86245e-06 1.5417e-15)
(1.50023 -2.30863e-06 -2.02244e-15)
(1.50018 -2.78185e-06 1.28492e-15)
(1.50011 -3.34273e-06 -1.25459e-16)
(1.49999 -3.99761e-06 -1.72702e-15)
(1.49983 -5.32305e-06 6.66855e-15)
(1.4996 -8.38024e-06 -1.53642e-14)
(1.4993 -9.19639e-06 1.721e-14)
(1.49893 -1.06355e-05 -1.29071e-14)
(1.49846 -1.28377e-05 1.45235e-14)
(1.4979 -1.51406e-05 -1.19051e-15)
(1.49721 -1.5097e-05 6.59422e-15)
(1.4964 -1.56674e-05 1.38131e-14)
(1.49547 -2.1332e-05 -1.29988e-14)
(1.4944 -2.51225e-05 6.7059e-14)
(1.49321 -3.30825e-05 -6.86269e-14)
(1.4919 -3.16913e-05 1.57964e-13)
(1.49044 -2.9345e-05 -4.07615e-13)
(1.48883 -3.04951e-05 5.08659e-13)
(1.48708 -3.48143e-05 -4.93943e-13)
(1.48522 -3.6608e-05 5.23441e-13)
(1.48327 -3.88994e-05 8.0203e-13)
(1.48122 -5.01873e-05 -2.30801e-12)
(1.47909 -6.35827e-05 2.62203e-12)
(1.4769 -6.75787e-05 -4.45367e-12)
(1.47472 -9.18046e-05 4.05289e-12)
(1.47261 -8.86983e-05 -1.72976e-12)
(1.47039 -8.257e-05 -5.39878e-14)
(1.46809 -6.96072e-05 6.22331e-12)
(1.46563 -5.64754e-05 -5.67207e-12)
(1.46327 -4.43429e-05 -4.58866e-12)
(1.46103 -3.31118e-05 1.07372e-11)
(1.45891 -2.40286e-05 1.19177e-12)
(1.45694 -5.09907e-06 -2.07282e-12)
(1.45496 -5.68335e-05 5.46322e-11)
(1.45274 -0.000459746 1.03783e-10)
(1.44963 -0.00182853 9.50606e-10)
(1.44235 -0.00569143 2.37946e-09)
(1.4156 -0.0170568 1.49031e-08)
(1.31296 -0.0457438 3.18359e-08)
(0.968179 -0.0975146 4.9696e-09)
(0.695537 -0.0935079 1.8657e-07)
(0.602762 -0.0877407 -2.01931e-07)
(0.585226 -0.0748965 -1.21542e-06)
(0.590078 -0.0632081 8.16593e-06)
(0.606079 -0.0559221 -8.85518e-06)
(0.62198 -0.0503226 -2.26542e-05)
(0.636311 -0.0469813 3.71403e-05)
(0.649965 -0.0449137 3.50142e-05)
(0.663393 -0.0438429 -6.09781e-05)
(0.676486 -0.0414715 -4.87131e-05)
(0.689581 -0.0398699 7.26921e-05)
(0.702496 -0.0392275 6.32334e-05)
(0.714954 -0.037354 -6.93549e-05)
(0.72684 -0.0340094 -8.32182e-05)
(0.738314 -0.0317968 5.66998e-05)
(0.749326 -0.0318444 8.46378e-05)
(0.759752 -0.0315958 -5.07977e-05)
(0.76941 -0.0294377 -7.09341e-05)
(0.77889 -0.0267598 3.79263e-05)
(0.788629 -0.02626 1.79346e-05)
(0.797878 -0.0284633 -3.17122e-05)
(0.807272 -0.0311992 0.000118523)
(0.817047 -0.0320979 8.51903e-05)
(0.827038 -0.0309952 -0.000323148)
(0.837295 -0.0295955 -0.000211175)
(0.847276 -0.0299472 0.000533727)
(0.856413 -0.0314872 0.000421879)
(0.864481 -0.0320898 -0.000525633)
(0.871042 -0.0303975 -0.000588093)
(0.876593 -0.0271883 0.000349296)
(0.88165 -0.0233458 0.000536833)
(0.885323 -0.0207827 -9.16597e-05)
(0.886221 -0.0181125 -0.000408998)
(0.885266 -0.0146042 -9.37083e-05)
(0.879713 -0.0102682 0.000238877)
(0.869227 -0.0041333 0.000171896)
(0.850541 0.00489954 -6.4853e-05)
(0.820418 0.0171436 -0.000159013)
(0.777098 0.033867 -4.93288e-05)
(0.718635 0.0541482 6.80424e-05)
(0.647991 0.0815928 4.90398e-05)
(0.573179 0.114323 -3.29855e-05)
(0.501998 0.140045 -2.61931e-05)
(0.444267 0.160897 9.21935e-06)
(0.400912 0.175625 8.71989e-06)
(0.367462 0.182995 -6.78264e-07)
(0.341757 0.185021 1.885e-06)
(0.322069 0.181717 6.5019e-06)
(0.307101 0.172694 5.28689e-06)
(0.29469 0.160624 3.9342e-06)
(0.282041 0.147727 4.37174e-06)
(0.26778 0.135961 2.8821e-06)
(0.252635 0.125166 -3.83118e-09)
(0.23749 0.1167 -1.23523e-06)
(0.22264 0.109571 -1.70474e-06)
(0.207403 0.103798 -2.55682e-06)
(0.191552 0.0983835 -2.44945e-06)
(0.175321 0.094346 -1.86167e-06)
(0.159709 0.0915752 -1.64181e-06)
(0.144209 0.0910823 -1.02449e-06)
(0.128511 0.091452 8.09648e-07)
(0.113102 0.0953158 2.34897e-06)
(0.0969973 0.0998971 1.90479e-06)
(0.0819453 0.108136 4.41671e-07)
(0.0651845 0.113317 -5.67033e-08)
(0.0501757 0.122852 4.83994e-08)
(0.0323725 0.1266 9.79547e-08)
(0.0216973 0.140462 8.67015e-08)
(1.50018 7.49249e-07 4.60548e-20)
(1.50018 5.2316e-07 1.85025e-19)
(1.50018 3.42278e-07 1.51606e-17)
(1.50019 -1.5001e-07 -3.88782e-17)
(1.50021 -5.02789e-07 6.99077e-17)
(1.50023 -1.7052e-06 -7.80238e-17)
(1.50025 -1.01391e-06 8.01228e-17)
(1.50027 1.61711e-07 -2.91183e-16)
(1.50027 7.24425e-09 4.30814e-16)
(1.50027 -8.78696e-07 -6.17687e-16)
(1.50027 -2.05943e-06 9.92493e-16)
(1.50024 -2.65161e-06 -1.64873e-15)
(1.5002 -3.44207e-06 1.51868e-15)
(1.50013 -4.15344e-06 -6.81222e-16)
(1.50002 -5.17544e-06 -1.84546e-16)
(1.49986 -7.21916e-06 1.74636e-15)
(1.49965 -7.57101e-06 -3.67459e-15)
(1.49936 -1.02969e-05 3.73588e-15)
(1.49899 -1.29181e-05 5.23626e-15)
(1.49854 -1.56403e-05 -6.87531e-15)
(1.49799 -1.71278e-05 2.61597e-14)
(1.49733 -1.7412e-05 -4.31822e-14)
(1.49654 -1.90021e-05 5.19757e-14)
(1.49562 -2.5883e-05 -5.92486e-14)
(1.49457 -3.19252e-05 1.13874e-13)
(1.49339 -3.58542e-05 -1.91959e-13)
(1.49211 -3.72102e-05 2.5992e-13)
(1.49068 -3.56098e-05 -3.85566e-13)
(1.4891 -3.4156e-05 3.87022e-13)
(1.48739 -3.77101e-05 -3.94652e-13)
(1.48555 -4.3888e-05 1.28423e-13)
(1.48361 -4.63083e-05 1.50868e-12)
(1.48159 -5.39046e-05 -2.60961e-12)
(1.47949 -7.23293e-05 2.6301e-12)
(1.4773 -8.03431e-05 -3.51583e-12)
(1.47508 -0.000103887 2.50859e-12)
(1.47295 -0.000112876 -1.41937e-12)
(1.47076 -0.000113987 9.64776e-13)
(1.46848 -0.00010727 -1.34097e-12)
(1.46609 -8.08575e-05 1.66238e-12)
(1.4637 -6.99478e-05 -4.93546e-12)
(1.46146 -5.6305e-05 3.63612e-12)
(1.45938 -5.10163e-05 6.1783e-12)
(1.45742 -4.17178e-05 -2.55036e-12)
(1.45555 -0.000115907 1.50809e-11)
(1.45344 -0.000518527 6.98963e-11)
(1.45048 -0.00185129 3.27934e-10)
(1.4437 -0.00556412 2.08016e-09)
(1.41873 -0.0169845 5.12571e-09)
(1.31229 -0.0412194 3.62934e-08)
(0.94638 -0.0952885 -1.0316e-08)
(0.681364 -0.0985481 1.0946e-07)
(0.591341 -0.0968688 2.23242e-07)
(0.572845 -0.0868187 -9.18201e-07)
(0.577177 -0.0791227 1.94141e-06)
(0.592108 -0.0712982 6.95077e-06)
(0.609756 -0.0647311 -2.61675e-05)
(0.626151 -0.0601514 -7.46293e-07)
(0.642748 -0.0586489 5.16349e-05)
(0.659222 -0.0588207 -5.60548e-06)
(0.675523 -0.0563086 -8.10514e-05)
(0.69125 -0.0534963 4.00503e-06)
(0.706557 -0.0519593 0.000105181)
(0.72116 -0.0493975 -1.44134e-06)
(0.734678 -0.0451145 -0.000111783)
(0.747446 -0.0419999 -1.07195e-05)
(0.75974 -0.0416316 8.30731e-05)
(0.77137 -0.0409413 1.17893e-05)
(0.782412 -0.0383582 -2.32078e-05)
(0.793593 -0.0355175 -2.0693e-05)
(0.804796 -0.0347238 -5.49025e-05)
(0.815025 -0.0366939 9.21822e-06)
(0.824189 -0.0396257 0.000162026)
(0.833125 -0.040695 5.91766e-05)
(0.841425 -0.0393638 -0.000249149)
(0.849451 -0.0377638 -0.000160862)
(0.856994 -0.0375676 0.000321495)
(0.863317 -0.0374009 0.000269429)
(0.868322 -0.0358322 -0.0002823)
(0.87196 -0.0326016 -0.000359479)
(0.875258 -0.0288995 0.00018105)
(0.877885 -0.024864 0.000294596)
(0.87794 -0.0198436 -5.14273e-05)
(0.873182 -0.0140783 -0.000213788)
(0.863057 -0.00759536 -6.0228e-05)
(0.846095 0.0014272 0.00011363)
(0.819308 0.0137173 9.08415e-05)
(0.780509 0.0309722 -4.35325e-05)
(0.726004 0.0523073 -8.18454e-05)
(0.658416 0.0808504 6.22732e-06)
(0.583779 0.115919 5.1517e-05)
(0.510702 0.145288 -1.35498e-05)
(0.450114 0.169473 -2.67978e-05)
(0.403464 0.186788 -1.07418e-07)
(0.367613 0.197903 4.77667e-06)
(0.339902 0.204119 -1.86243e-06)
(0.317635 0.204792 -4.69639e-07)
(0.300401 0.201341 3.7694e-06)
(0.287158 0.193606 4.62764e-06)
(0.276837 0.182855 4.09678e-06)
(0.267004 0.170569 4.35932e-06)
(0.256171 0.157942 3.51763e-06)
(0.243739 0.146612 5.26806e-07)
(0.231344 0.136938 -1.94602e-06)
(0.218636 0.129096 -2.54744e-06)
(0.205612 0.122002 -3.03624e-06)
(0.191782 0.116153 -3.36251e-06)
(0.177602 0.111271 -2.63165e-06)
(0.16337 0.108023 -1.93255e-06)
(0.149054 0.105282 -1.4712e-06)
(0.134562 0.104803 -3.36064e-07)
(0.11987 0.105539 1.46208e-06)
(0.105671 0.109804 2.30832e-06)
(0.0908629 0.114887 1.37573e-06)
(0.0773128 0.123626 1.62431e-07)
(0.0620649 0.129461 -6.29384e-08)
(0.0491447 0.139653 6.79649e-08)
(0.032941 0.143951 1.05854e-07)
(0.024341 0.157288 9.22855e-08)
(1.50019 8.9289e-07 4.25014e-20)
(1.50018 6.39612e-07 1.97859e-19)
(1.50019 4.44855e-07 1.3181e-17)
(1.5002 -1.16976e-07 -2.60953e-17)
(1.50021 -5.68246e-07 5.82439e-17)
(1.50023 -1.89174e-06 -5.58225e-17)
(1.50026 -1.54182e-06 7.35116e-17)
(1.50028 1.43441e-07 -1.7989e-16)
(1.50028 -3.02231e-07 3.10114e-16)
(1.50029 -9.86203e-07 -3.21397e-16)
(1.50028 -2.19603e-06 6.15464e-16)
(1.50026 -3.08742e-06 -8.92031e-16)
(1.50023 -3.92775e-06 1.00838e-15)
(1.50016 -4.6954e-06 -6.49432e-16)
(1.50006 -6.26418e-06 1.36616e-15)
(1.49991 -8.22039e-06 -2.90872e-16)
(1.49971 -8.13896e-06 1.57678e-15)