/*--------------------------------*- C++ -*----------------------------------*\
| =========                 |                                                 |
| \\      /  F ield         | OpenFOAM: The Open Source CFD Toolbox           |
|  \\    /   O peration     | Version:  2.2.x                                 |
|   \\  /    A nd           | Web:      www.OpenFOAM.org                      |
|    \\/     M anipulation  |                                                 |
\*---------------------------------------------------------------------------*/
FoamFile
{
    version     2.0;
    format      ascii;
    class       surfaceScalarField;
    location    "0.65";
    object      phi;
}
// * * * * * * * * * * * * * * * * * * * * * * * * * * * * * * * * * * * * * //

dimensions      [1 0 -1 0 0 0 0];

internalField   nonuniform List<scalar> 
28084
(
0.000746225
0.000742991
0.000740216
0.000737882
0.000735968
0.000734452
0.000733309
0.000732517
0.000732048
0.000731876
0.000731975
0.000732318
0.000732876
0.000733624
0.000734534
0.000735581
0.00073674
0.000737986
0.000739296
0.000740649
0.000742025
0.000743404
0.000744766
0.000746102
0.000747396
0.000748609
0.000749759
0.000750857
0.000751838
0.000752693
0.000753471
0.000754143
0.000754673
0.000755047
0.000755345
0.000755517
0.000755534
0.000755373
0.000755052
0.000754615
0.000754033
0.000753295
0.000752401
0.00075133
0.000750095
0.000759276
0.000768828
0.000778693
0.000788818
0.000799086
0.000809512
0.000819925
0.000830251
0.000840565
0.00085114
0.00086182
0.000867528
0.00084146
0.000796577
0.000791825
0.000815567
0.000855464
0.000907635
0.000959411
0.00100357
0.00104356
0.00107911
0.00110816
0.00113423
0.00115574
0.00117364
0.00118998
0.00120215
0.00120988
0.00121467
0.0012177
0.00122093
0.00122418
0.00122737
0.00123024
0.00123147
0.00123041
0.00122946
0.00122676
0.00122338
0.00121987
0.00121555
0.00121198
0.00120714
0.00120284
0.00119603
0.00118496
0.00116455
0.00109274
0.000979631
0.00086454
0.000774352
0.000705643
0.000650607
0.000605277
0.000566623
0.000532449
0.000501419
0.000473184
0.000446989
0.000421556
0.000396966
0.000373476
0.000350538
0.00032741
0.000303079
0.000277078
0.000247742
0.000215759
0.000179336
0.000141148
9.89931e-05
5.66592e-05
3.71191e-06
3.23503e-06
0.000749741
2.77567e-06
0.000748787
2.33532e-06
0.000748263
1.9157e-06
0.000748152
1.5183e-06
0.000748436
1.14452e-06
0.000749092
7.95409e-07
0.000750098
4.72108e-07
0.000751429
1.75306e-07
0.000753057
-9.47918e-08
0.000754955
-3.37447e-07
0.000757094
-5.52826e-07
0.000759445
-7.41335e-07
0.000761979
-9.0326e-07
0.000764667
-1.03922e-06
0.000767478
-1.14996e-06
0.000770386
-1.23724e-06
0.000773362
-1.30062e-06
0.00077638
-1.34294e-06
0.000779415
-1.36475e-06
0.000782443
-1.36794e-06
0.000785442
-1.35219e-06
0.000788391
-1.32275e-06
0.00079127
-1.27678e-06
0.000794067
-1.2157e-06
0.000796764
-1.14595e-06
0.000799322
-1.06511e-06
0.000801766
-9.70473e-07
0.000804097
-8.69119e-07
0.000806249
-7.63766e-07
0.000808224
-6.46082e-07
0.000810063
-5.26503e-07
0.000811738
-4.0193e-07
0.000813216
-2.71768e-07
0.000814488
-1.27729e-07
0.000815622
2.64884e-09
0.000816581
1.47834e-07
0.000817341
2.87123e-07
0.00081787
4.35286e-07
0.000818182
5.87674e-07
0.000818333
7.4644e-07
0.000818291
9.00485e-07
0.000818045
1.05628e-06
0.000817603
1.219e-06
0.000816933
-9.21144e-06
0.000816069
-9.55831e-06
0.000824767
-9.83963e-06
0.000833726
-1.01019e-05
0.000843009
-1.0316e-05
0.000852563
-1.04341e-05
0.000862227
-1.05396e-05
0.000871988
-1.04825e-05
0.000881807
-1.04151e-05
0.00089179
-1.04255e-05
0.000901951
-9.96885e-06
0.000911885
-5.01112e-06
0.000921329
1.27513e-05
0.000924519
3.88375e-05
0.000887904
1.64766e-06
0.000852762
-2.64751e-05
0.000853191
-4.17397e-05
0.000883179
-5.38834e-05
0.00093509
-5.3536e-05
0.000990457
-4.56496e-05
0.00104394
-3.83609e-05
0.00108953
-3.52285e-05
0.00112988
-3.042e-05
0.00116418
-2.5086e-05
0.00118914
-2.11458e-05
0.00121179
-1.78686e-05
0.00122936
-1.43102e-05
0.00124189
-1.0901e-05
0.00125405
-7.8385e-06
0.00126372
-5.66374e-06
0.0012699
-3.72492e-06
0.00127369
-2.91111e-06
0.00127571
-2.40485e-06
0.00127751
-1.92255e-06
0.00127958
-1.22525e-06
0.0012818
5.38844e-07
0.00128353
2.49861e-06
0.00128387
1.71166e-06
0.00128219
2.74798e-06
0.0012799
3.15455e-06
0.00127604
3.31655e-06
0.001272
4.3909e-06
0.00126728
3.53719e-06
0.00126155
4.7402e-06
0.00125624
3.82594e-06
0.00124979
7.36613e-06
0.00124337
9.76994e-06
0.00123456
2.34616e-05
0.00122119
7.76335e-05
0.00119309
0.000117425
0.00112664
0.000116426
0.0010277
8.96566e-05
0.000923567
6.88557e-05
0.000828309
5.57241e-05
0.00074947
4.65482e-05
0.000685402
3.96691e-05
0.000632218
3.4471e-05
0.000586353
3.0967e-05
0.000545787
2.84686e-05
0.000509498
2.65414e-05
0.000477037
2.52168e-05
0.000447574
2.39983e-05
0.000419476
2.30569e-05
0.000392783
2.26903e-05
0.000367723
2.28173e-05
0.000343444
2.39429e-05
0.000319034
2.54758e-05
0.000293481
2.86874e-05
0.000266537
3.13675e-05
0.000236359
3.59182e-05
0.000204287
3.80446e-05
0.000168946
4.22667e-05
0.000131873
4.26437e-05
9.0935e-05
5.68558e-05
4.8386e-05
5.11203e-06
4.19058e-06
0.000754436
3.30104e-06
0.000755732
2.44739e-06
0.00075743
1.63373e-06
0.000759515
8.63721e-07
0.00076197
1.40807e-07
0.000764774
-5.32165e-07
0.000767903
-1.1527e-06
0.000771332
-1.71893e-06
0.000775033
-2.2296e-06
0.000778978
-2.68362e-06
0.000783135
-3.0809e-06
0.000787473
-3.42194e-06
0.000791961
-3.70748e-06
0.000796566
-3.93861e-06
0.000801259
-4.11711e-06
0.000806007
-4.24544e-06
0.000810781
-4.32512e-06
0.000815552
-4.36035e-06
0.000820293
-4.35258e-06
0.000824977
-4.30572e-06
0.000829583
-4.22049e-06
0.000834085
-4.10487e-06
0.000838463
-3.95626e-06
0.000842708
-3.77834e-06
0.000846788
-3.58135e-06
0.000850681
-3.36046e-06
0.000854406
-3.11647e-06
0.000857955
-2.85718e-06
0.000861265
-2.58488e-06
0.000864346
-2.29697e-06
0.000867236
-2.00156e-06
0.000869905
-1.6969e-06
0.000872318
-1.38224e-06
0.000874478
-1.04931e-06
0.000876441
-7.29012e-07
0.000878182
-3.9097e-07
0.000879664
-6.058e-08
0.000880878
2.79866e-07
0.000881813
6.34392e-07
0.000882545
9.98973e-07
0.000883035
1.35566e-06
0.000883276
1.71147e-06
0.000883271
2.07784e-06
0.000883026
-1.79247e-05
0.000882511
-1.85908e-05
0.000890722
-1.91443e-05
0.000899199
-1.9617e-05
0.000907949
-1.99922e-05
0.000916898
-2.02449e-05
0.00092602
-2.04038e-05
0.000935269
-2.03776e-05
0.000944468
-2.03063e-05
0.000953875
-2.00676e-05
0.000963503
-1.90901e-05
0.000972701
-7.988e-06
0.000981118
3.60611e-05
0.000985163
6.68678e-05
0.000943721
-1.38057e-06
0.000918816
-5.90631e-05
0.000930068
-9.56403e-05
0.000972159
-0.000111554
0.00102985
-0.000109159
0.00108199
-9.21218e-05
0.00113172
-7.56833e-05
0.00117852
-6.80946e-05
0.00122104
-5.73906e-05
0.00125797
-4.61651e-05
0.00128123
-3.77481e-05
0.00130465
-3.04069e-05
0.00132112
-2.41403e-05
0.00132991
-1.8893e-05
0.00133981
-1.39708e-05
0.00134718
-1.02131e-05
0.00135031
-6.40868e-06
0.00135158
-4.75791e-06
0.00135165
-3.72542e-06
0.00135103
-2.85818e-06
0.00135088
-1.08005e-06
0.00135107
2.06562e-06
0.00135121
5.45867e-06
0.00135005
4.71377e-06
0.00134778
6.41739e-06
0.00134392
7.00998e-06
0.0013383
8.07174e-06
0.00133294
1.02241e-05
0.00132677
8.75282e-06
0.00131865
1.09608e-05
0.00131104
9.46877e-06
0.00130111
1.67501e-05
0.00129031
2.16841e-05
0.00127518
5.55726e-05
0.00124162
0.000149437
0.00117435
0.000219353
0.00108371
0.000221551
0.000986959
0.000184205
0.000897444
0.000147667
0.000816226
0.000120451
0.000745752
0.000100946
0.000686017
8.65573e-05
0.000634265
7.53386e-05
0.000588132
6.71751e-05
0.000546535
6.11962e-05
0.00050875
5.63828e-05
0.000474886
5.30242e-05
0.000443781
5.00275e-05
0.000414487
4.76713e-05
0.000386734
4.676e-05
0.000360534
4.69397e-05
0.000334994
4.91031e-05
0.000309291
5.19045e-05
0.000282531
5.82412e-05
0.000254866
6.28452e-05
0.000224633
7.07788e-05
0.000193083
7.49757e-05
0.000158937
8.32508e-05
0.000123211
8.53986e-05
8.41893e-05
0.000105358
4.39782e-05
4.23051e-06
2.8957e-06
0.000760309
1.6043e-06
0.000763823
3.63509e-07
0.000767712
-8.1942e-07
0.000771962
-1.93794e-06
0.000776558
-2.98598e-06
0.00078148
-3.95834e-06
0.000786704
-4.85067e-06
0.000792204
-5.65926e-06
0.000797951
-6.38179e-06
0.000803915
-7.01643e-06
0.000810064
-7.56262e-06
0.000816364
-8.02083e-06
0.000822781
-8.39214e-06
0.000829281
-8.67809e-06
0.000835831
-8.88164e-06
0.000842397
-9.00636e-06
0.000848946
-9.05558e-06
0.000855448
-9.03379e-06
0.000861874
-8.94566e-06
0.000868195
-8.79596e-06
0.000874386
-8.58733e-06
0.000880422
-8.33132e-06
0.000886281
-8.02359e-06
0.000891951
-7.67347e-06
0.000897399
-7.29219e-06
0.000902614
-6.8736e-06
0.000907608
-6.42333e-06
0.000912356
-5.94872e-06
0.0009168
-5.4542e-06
0.000920977
-4.94049e-06
0.000924907
-4.41455e-06
0.000928559
-3.87422e-06
0.000931894
-3.32232e-06
0.00093493
-2.75557e-06
0.000937717
-2.17774e-06
0.000940222
-1.60193e-06
0.000942414
-1.03482e-06
0.000944287
-4.54521e-07
0.000945865
1.44121e-07
0.000947174
7.55668e-07
0.000948192
1.36226e-06
0.000948906
1.96807e-06
0.000949337
2.56313e-06
0.000949495
-2.61511e-05
0.000949377
-2.71056e-05
0.000957095
-2.79122e-05
0.000965088
-2.8598e-05
0.00097329
-2.91287e-05
0.000981656
-2.94688e-05
0.000990116
-2.96436e-05
0.000998652
-2.97135e-05
0.00100729
-2.95645e-05
0.00101607
-2.91381e-05
0.00102507
-2.74776e-05
0.00103378
-1.22895e-05
0.00104192
6.2269e-05
0.00104973
8.35875e-05
0.00102966
-1.22091e-05
0.000998855
-0.000101495
0.00103528
-0.000153772
0.00109549
-0.000165825
0.00115992
-0.000161594
0.00121824
-0.000139883
0.00126821
-0.000115085
0.00131122
-0.000100908
0.00134947
-8.28218e-05
0.00138488
-6.59404e-05
0.00140364
-5.29001e-05
0.00142494
-4.10851e-05
0.00143757
-3.12144e-05
0.00144062
-2.37464e-05
0.00144785
-1.67486e-05
0.00145203
-1.20503e-05
0.00145166
-7.23649e-06
0.00145076
-4.68519e-06
0.00144851
-3.05457e-06
0.00144565
-1.87228e-06
0.00144316
6.78199e-07
0.00144127
5.07064e-06
0.00143919
8.9728e-06
0.00143663
9.45197e-06
0.00143126
1.18515e-05
0.00142401
1.22602e-05
0.001416
1.4532e-05
0.00140785
1.86102e-05
0.00139862
1.606e-05
0.00138746
2.03309e-05
0.00137509
1.96811e-05
0.00135883
3.24316e-05
0.00133707
5.50027e-05
0.00130284
0.000128021
0.00122678
0.000244242
0.00110889
0.000316934
0.000998482
0.000310984
0.000913786
0.000265114
0.000841602
0.000218468
0.000774033
0.000181118
0.00071344
0.000154012
0.000661553
0.000133714
0.000616075
0.000117245
0.000575138
0.000104962
0.000537235
9.53449e-05
0.000501839
8.78645e-05
0.000469191
8.19814e-05
0.000438362
7.70239e-05
0.000408764
7.33991e-05
0.00038045
7.20985e-05
0.00035345
7.23547e-05
0.000327016
7.54813e-05
0.000300411
7.90918e-05
0.000272613
8.79081e-05
0.000243984
9.38173e-05
0.000213667
0.000104469
0.000182332
0.000110549
0.000149123
0.000122258
0.000114943
0.000125693
7.83451e-05
0.000149365
4.05914e-05
1.1011e-06
-6.16924e-07
0.000767363
-2.2829e-06
0.000773058
-3.88557e-06
0.000779102
-5.41383e-06
0.000785483
-6.8576e-06
0.000792187
-8.20752e-06
0.000799194
-9.45544e-06
0.000806481
-1.05946e-05
0.000814021
-1.16194e-05
0.000821784
-1.25255e-05
0.000829739
-1.33107e-05
0.00083785
-1.39732e-05
0.000846083
-1.45139e-05
0.000854401
-1.49335e-05
0.000862769
-1.52348e-05
0.000871149
-1.54214e-05
0.000879506
-1.5498e-05
0.000887806
-1.54702e-05
0.000896014
-1.53428e-05
0.0009041
-1.51241e-05
0.000912034
-1.48196e-05
0.000919788
-1.44352e-05
0.000927335
-1.3983e-05
0.000934656
-1.34624e-05
0.000941729
-1.2886e-05
0.000948529
-1.2262e-05
0.000955046
-1.159e-05
0.000961292
-1.08742e-05
0.000967216
-1.01327e-05
0.00097278
-9.36088e-06
0.000978038
-8.56537e-06
0.000982991
-7.75149e-06
0.000987612
-6.92284e-06
0.000991849
-6.08297e-06
0.000995755
-5.22701e-06
0.000999356
-4.34717e-06
0.00100261
-3.47729e-06
0.00100549
-2.63132e-06
0.00100803
-1.76397e-06
0.00101025
-8.73951e-07
0.00101213
1.9821e-08
0.00101367
9.2949e-07
0.0010148
1.8194e-06
0.00101568
2.69751e-06
0.00101625
-3.38625e-05
0.00101652
-3.51093e-05
0.0010238
-3.617e-05
0.00103129
-3.70378e-05
0.00103895
-3.76783e-05
0.0010467
-3.80756e-05
0.00105442
-3.8332e-05
0.00106234
-3.84455e-05
0.00107046
-3.82445e-05
0.0010788
-3.77139e-05
0.00108707
-3.59393e-05
0.00109537
-2.09676e-05
0.00110322
6.27553e-05
0.00111754
0.000102796
0.00114156
-4.53371e-05
0.00111748
-0.000158869
0.00118154
-0.000217079
0.0012678
-0.000226052
0.00134113
-0.000212896
0.00139117
-0.000184778
0.0014402
-0.000152308
0.00147795
-0.000130121
0.00150806
-0.000104947
0.00153668
-8.15953e-05
0.00154668
-6.34935e-05
0.0015637
-4.88725e-05
0.001572
-3.54728e-05
0.00156644
-2.54232e-05
0.00156824
-1.64169e-05
0.00156761
-1.11826e-05
0.00156374
-5.58326e-06
0.00155925
-2.51799e-06
0.00155484
-5.60397e-07
0.0015495
5.05863e-07
0.00154437
4.03947e-06
0.00153864
9.05105e-06
0.0015334
1.54642e-05
0.00152745
1.74347e-05
0.00151915
1.98144e-05
0.00150929
2.03365e-05
0.00149752
2.4103e-05
0.001485
3.04378e-05
0.00147098
2.80769e-05
0.001455
3.58914e-05
0.00143493
4.12719e-05
0.00140884
6.72509e-05
0.0013557
0.00013219
0.0012738
0.000249975
0.00113303
0.000356982
0.000999071
0.000400714
0.000911146
0.000382291
0.000848642
0.000332037
0.000792266
0.000279199
0.00073709
0.000234009
0.000686227
0.000200968
0.000640731
0.000175778
0.000599591
0.000155523
0.000561527
0.000140526
0.000525748
0.000128442
0.00049222
0.000119004
0.00046115
0.000111125
0.000431494
0.000104603
0.000402723
9.99826e-05
0.000374943
9.83282e-05
0.000348027
9.86749e-05
0.000321273
0.000102921
0.000294267
0.000107277
0.000266054
0.000117675
0.000236977
0.00012459
0.000206512
0.00013725
0.000175239
0.000144576
0.000142602
0.000158812
0.000109409
0.000163477
7.44505e-05
0.000189942
3.82965e-05
-4.23864e-06
-6.3109e-06
0.000775601
-8.32524e-06
0.000783437
-1.02655e-05
0.000791597
-1.21161e-05
0.000800071
-1.38627e-05
0.000808846
-1.5492e-05
0.000817902
-1.69924e-05
0.000827217
-1.83541e-05
0.000836762
-1.95694e-05
0.000846507
-2.06318e-05
0.000856418
-2.15379e-05
0.00086646
-2.22851e-05
0.000876594
-2.28738e-05
0.000886783
-2.33051e-05
0.000896987
-2.35825e-05
0.000907167
-2.37107e-05
0.000917287
-2.36956e-05
0.000927307
-2.35445e-05
0.000937194
-2.32636e-05
0.000946914
-2.28648e-05
0.000956434
-2.23546e-05
0.000965725
-2.17414e-05
0.00097476
-2.10393e-05
0.000983517
-2.02532e-05
0.00099197
-1.93944e-05
0.0010001
-1.84741e-05
0.0010079
-1.74912e-05
0.00101537
-1.64558e-05
0.00102244
-1.53911e-05
0.00102912
-1.42893e-05
0.00103544
-1.31556e-05
0.00104141
-1.19993e-05
0.00104697
-1.08325e-05
0.0010521
-9.65345e-06
0.00105686
-8.44164e-06
0.00106126
-7.22626e-06
0.00106525
-6.02799e-06
0.0010688
-4.84115e-06
0.001072
-3.63044e-06
0.00107486
-2.40376e-06
0.00107732
-1.18128e-06
0.00107935
4.84522e-08
0.00108089
1.26527e-06
0.00108218
2.478e-06
0.00108317
-4.10655e-05
0.00108383
-4.25791e-05
0.00109065
-4.38622e-05
0.00109771
-4.48781e-05
0.00110478
-4.56053e-05
0.00111172
-4.61575e-05
0.00111882
-4.65045e-05
0.00112626
-4.65876e-05
0.00113377
-4.64448e-05
0.00114145
-4.60681e-05
0.00114938
-4.45762e-05
0.00115686
-3.62207e-05
0.00116439
2.0641e-05
0.00117781
0.000113784
0.00124291
-9.99768e-05
0.00130838
-0.000236385
0.00139935
-0.000291714
0.00148799
-0.000280079
0.00152731
-0.000258791
0.00156033
-0.00022229
0.00160167
-0.000182146
0.00163338
-0.000150218
0.00165382
-0.000119833
0.00167486
-9.22183e-05
0.00167689
-7.03172e-05
0.00168808
-4.99991e-05
0.00168769
-3.48239e-05
0.0016759
-2.23054e-05
0.00167087
-1.36038e-05
0.0016667
-6.7192e-06
0.00165858
-4.70103e-07
0.0016507
2.51221e-06
0.00164447
4.42437e-06
0.00163796
6.2696e-06
0.00163071
9.65485e-06
0.00162125
1.58596e-05
0.00161207
2.47733e-05
0.00160276
2.75167e-05
0.00159237
3.12143e-05
0.00157967
3.32834e-05
0.0015646
3.81485e-05
0.00154768
4.80069e-05
0.00152859
4.81083e-05
0.00150395
6.12883e-05
0.0014601
9.51271e-05
0.00139973
0.000150653
0.00129782
0.000274256
0.00113696
0.000385801
0.000991675
0.000445572
0.000895455
0.000462346
0.000829434
0.000437295
0.000783316
0.000386266
0.000742016
0.000329972
0.000696647
0.000280876
0.000654944
0.00024385
0.000615695
0.000215072
0.000579135
0.000191791
0.000544142
0.000174396
0.000510096
0.000160026
0.000477632
0.000148843
0.000447109
0.000139406
0.000417798
0.000131789
0.000389462
0.000126658
0.000362153
0.000124932
0.000335532
0.000125459
0.000308925
0.000130832
0.000282076
0.000135918
0.000254268
0.00014759
0.000226067
0.000155319
0.000196792
0.000169499
0.000166721
0.000177632
0.000135502
0.000193722
0.000103568
0.000199649
7.02202e-05
0.000228244
3.56759e-05
-1.17472e-05
-1.4146e-05
0.000785029
-1.64836e-05
0.000794962
-1.87383e-05
0.000805195
-2.08892e-05
0.00081572
-2.2917e-05
0.000826525
-2.48039e-05
0.00083759
-2.65345e-05
0.000848893
-2.80955e-05
0.000860405
-2.94762e-05
0.000872095
-3.06682e-05
0.000883926
-3.16662e-05
0.000895861
-3.24668e-05
0.000907861
-3.30701e-05
0.000919885
-3.34771e-05
0.000931892
-3.36921e-05
0.00094384
-3.37207e-05
0.000955689
-3.35711e-05
0.000967399
-3.32516e-05
0.000978933
-3.27701e-05
0.000990256
-3.21427e-05
0.00100133
-3.13762e-05
0.00101213
-3.04821e-05
0.00102263
-2.94786e-05
0.00103279
-2.83731e-05
0.0010426
-2.71763e-05
0.00105204
-2.59031e-05
0.0010611
-2.45546e-05
0.00106976
-2.31501e-05
0.00107795
-2.17096e-05
0.00108573
-2.02203e-05
0.00109311
-1.86921e-05
0.00110006
-1.71457e-05
0.00110653
-1.55924e-05
0.00111254
-1.40086e-05
0.00111816
-1.24045e-05
0.00112333
-1.08128e-05
0.00112801
-9.23924e-06
0.00113225
-7.65454e-06
0.00113613
-6.04311e-06
0.0011396
-4.43174e-06
0.00114259
-2.83452e-06
0.00114509
-1.2675e-06
0.00114707
3.11363e-07
0.0011488
1.892e-06
0.00115021
-4.77691e-05
0.00115127
-4.95023e-05
0.00115767
-5.09575e-05
0.00116413
-5.20739e-05
0.00117053
-5.29693e-05
0.00117672
-5.36178e-05
0.00118342
-5.40531e-05
0.0011903
-5.41715e-05
0.00119737
-5.39432e-05
0.00120449
-5.3557e-05
0.00121171
-5.2807e-05
0.00121831
-5.08073e-05
0.00122451
-4.90803e-05
0.00123539
2.37773e-05
0.00128196
-0.000184038
0.00148079
-0.000315154
0.00164269
-0.000335237
0.00170426
-0.000316656
0.0017185
-0.000295246
0.00173588
-0.000250602
0.00175466
-0.000203284
0.00177059
-0.000162147
0.00178076
-0.000126759
0.00179206
-9.58385e-05
0.00178309
-7.13415e-05
0.00178627
-4.53499e-05
0.00177781
-2.94521e-05
0.00176381
-1.50666e-05
0.00175264
-6.56858e-06
0.00174727
1.62082e-07
0.00173791
6.5125e-06
0.0017263
9.19472e-06
0.00171753
1.18191e-05
0.00170976
1.55947e-05
0.00170035
1.84457e-05
0.00168793
2.56825e-05
0.00167631
3.58662e-05
0.00166523
4.02067e-05
0.00165258
4.56927e-05
0.00163681
5.16353e-05
0.00161732
5.71967e-05
0.0015889
7.32455e-05
0.00155144
9.1645e-05
0.00150204
0.000121752
0.00141617
0.000198984
0.00128665
0.000313023
0.00111356
0.000420153
0.000967436
0.000482475
0.000870432
0.00051179
0.00080669
0.000507767
0.000762414
0.000477275
0.000727981
0.000430699
0.000695374
0.000371672
0.000661209
0.000321728
0.000626146
0.000282368
0.000592133
0.000251364
0.000558684
0.000226428
0.000525808
0.000207267
0.000493323
0.000191087
0.000462363
0.000178138
0.000432771
0.000167053
0.000403743
0.000158554
0.00037553
0.000153142
0.000348318
0.000151412
0.000321878
0.000152121
0.000295548
0.000158359
0.000269009
0.000163681
0.000241669
0.000176342
0.000214178
0.0001849
0.000185934
0.000200379
0.00015707
0.00020944
0.000127344
0.000226996
9.70079e-05
0.000234188
6.56569e-05
0.000263935
3.31088e-05
-2.1379e-05
-2.40779e-05
0.000795654
-2.67149e-05
0.000807636
-2.9262e-05
0.000819894
-3.16921e-05
0.000832424
-3.39805e-05
0.000845214
-3.61043e-05
0.000858245
-3.80435e-05
0.000871493
-3.9781e-05
0.00088493
-4.13029e-05
0.000898522
-4.25985e-05
0.000912233
-4.36601e-05
0.000926023
-4.44838e-05
0.000939849
-4.50686e-05
0.000953671
-4.5416e-05
0.000967442
-4.55309e-05
0.000981121
-4.54201e-05
0.000994663
-4.50934e-05
0.00100803
-4.45609e-05
0.00102117
-4.38333e-05
0.00103407
-4.2929e-05
0.00104667
-4.18554e-05
0.00105894
-4.06322e-05
0.00107087
-3.92747e-05
0.00108241
-3.77947e-05
0.00109355
-3.62111e-05
0.00110426
-3.45291e-05
0.00111456
-3.27579e-05
0.00112437
-3.09364e-05
0.00113368
-2.90665e-05
0.00114254
-2.71303e-05
0.00115095
-2.51572e-05
0.00115884
-2.31739e-05
0.0011662
-2.11779e-05
0.00117311
-1.91406e-05
0.00117955
-1.70995e-05
0.00118545
-1.50849e-05
0.00119082
-1.30801e-05
0.00119578
-1.10453e-05
0.00120031
-8.99652e-06
0.00120435
-6.97324e-06
0.00120785
-4.96357e-06
0.00121071
-3.00235e-06
0.00121324
-1.01621e-06
0.00121545
9.73984e-07
0.00121725
-5.39523e-05
0.00121869
-5.58779e-05
0.00122454
-5.74915e-05
0.00123037
-5.8749e-05
0.00123592
-5.97694e-05
0.00124167
-6.04866e-05
0.0012478
-6.08512e-05
0.00125424
-6.09278e-05
0.00126051
-6.07792e-05
0.00126726
-6.01143e-05
0.00127385
-5.98369e-05
0.00127929
-6.24006e-05
0.00128515
-9.71605e-05
0.00129801
-0.0002044
0.00135732
-0.000362461
0.0016157
-0.000370682
0.00178834
-0.000349066
0.00183055
-0.000334143
0.00183246
-0.000310141
0.0018494
-0.000262504
0.00185665
-0.000211374
0.00186394
-0.000164874
0.00187065
-0.000123928
0.00187791
-8.88078e-05
0.00186385
-6.62935e-05
0.00186415
-3.73347e-05
0.0018523
-2.10699e-05
0.00183984
-6.61444e-06
0.00182389
4.10591e-06
0.00181443
1.0423e-05
0.00180577
1.47398e-05
0.00179468
1.82206e-05
0.00178154
2.18275e-05
0.00177177
2.71447e-05
0.00176119
2.90599e-05
0.001747
3.71362e-05
0.00173173
4.91726e-05
0.001716
5.62705e-05
0.00169689
6.47707e-05
0.00166931
8.25244e-05
0.00163482
9.46692e-05
0.00158542
0.00012317
0.00150876
0.000177759
0.00139941
0.000252074
0.00123796
0.00037368
0.00106007
0.000459606
0.000931278
0.000517322
0.000839667
0.000546432
0.000778119
0.000555802
0.00073337
0.000541423
0.000703216
0.000508747
0.000678046
0.000464059
0.000652526
0.000407017
0.000627696
0.000357571
0.000599935
0.000317783
0.000570531
0.000285357
0.000539826
0.00025944
0.000508259
0.000238808
0.000476983
0.000221162
0.000447323
0.000206978
0.000418686
0.000194651
0.0003907
0.000185387
0.00036354
0.000179533
0.000336951
0.000177633
0.000310698
0.000178475
0.000284435
0.000185421
0.000257895
0.000190746
0.000230646
0.00020411
0.000203443
0.000213334
0.000175873
0.000229804
0.000147973
0.000239609
0.000119576
0.0002582
9.08077e-05
0.000266663
6.13193e-05
0.000296989
3.06969e-05
-3.3084e-05
-3.60582e-05
0.000807486
-3.89721e-05
0.000821463
-4.17906e-05
0.000835696
-4.448e-05
0.000850181
-4.70093e-05
0.000864907
-4.935e-05
0.000879855
-5.14772e-05
0.000895002
-5.33693e-05
0.000910317
-5.5009e-05
0.000925767
-5.63826e-05
0.000941313
-5.74805e-05
0.000956913
-5.82977e-05
0.000972524
-5.88316e-05
0.0009881
-5.90852e-05
0.00100359
-5.90631e-05
0.00101896
-5.87736e-05
0.00103416
-5.82281e-05
0.00104914
-5.74392e-05
0.00106386
-5.64206e-05
0.00107829
-5.5191e-05
0.00109238
-5.37634e-05
0.0011061
-5.21611e-05
0.00111942
-5.03966e-05
0.00113231
-4.84927e-05
0.00114473
-4.64669e-05
0.0011567
-4.43246e-05
0.00116819
-4.20879e-05
0.00117912
-3.97989e-05
0.00118954
-3.74289e-05
0.00119947
-3.49986e-05
0.00120886
-3.25402e-05
0.00121766
-3.00729e-05
0.00122593
-2.75606e-05
0.0012337
-2.50335e-05
0.00124093
-2.25248e-05
0.00124752
-2.00298e-05
0.00125362
-1.75321e-05
0.00125926
-1.50027e-05
0.00126442
-1.2496e-05
0.00126901
-1.00148e-05
0.00127296
-7.57397e-06
0.0012763
-5.1419e-06
0.00127933
-2.70466e-06
0.00128195
-2.74385e-07
0.00128416
-5.95925e-05
0.00128595
-6.1703e-05
0.00129131
-6.34493e-05
0.00129641
-6.48375e-05
0.00130135
-6.593e-05
0.00130668
-6.66783e-05
0.00131227
-6.70568e-05
0.00131813
-6.70753e-05
0.00132405
-6.6731e-05
0.00133043
-6.60268e-05
0.00133612
-6.64484e-05
0.00134109
-7.55935e-05
0.00134782
-0.000158072
0.00136816
-0.000492219
0.0014809
-0.000564219
0.00168359
-0.000415541
0.00174431
-0.000350796
0.00182345
-0.000347774
0.00187195
-0.000313114
0.00190526
-0.000264477
0.0019111
-0.000215908
0.00192366
-0.000165238
0.00192733
-0.000119002
0.00193413
-7.98891e-05
0.00192175
-5.35105e-05
0.00192629
-2.69637e-05
0.00190916
-9.45014e-06
0.00189532
2.3003e-06
0.00188443
1.7757e-05
0.00186611
2.28906e-05
0.00185572
2.51003e-05
0.00184687
2.90788e-05
0.00183504
3.30743e-05
0.0018215
3.93723e-05
0.00180876
4.29716e-05
0.00179221
5.26579e-05
0.00176919
6.83895e-05
0.00174314
8.46083e-05
0.00170996
9.94626e-05
0.00165435
0.00013609
0.00157899
0.000173077
0.00147639
0.000233411
0.00132383
0.000339788
0.00114371
0.00043069
0.000994605
0.000503192
0.000882094
0.00055146
0.000803426
0.000579038
0.000748074
0.000591124
0.000707478
0.000585468
0.000678867
0.000565693
0.000656056
0.000533359
0.000635825
0.0004886
0.000616435
0.00043581
0.000597214
0.000389243
0.00057456
0.000350472
0.000548851
0.000318016
0.000520817
0.000291445
0.000490794
0.000269157
0.00046036
0.000249983
0.000430957
0.000234601
0.000402192
0.000221372
0.000374325
0.000211819
0.000347552
0.000205808
0.000321458
0.00020381
0.00029575
0.00020482
0.000270049
0.000212373
0.00024413
0.000217566
0.000217733
0.000231255
0.000191517
0.000240832
0.000165178
0.000257867
0.000138583
0.000268113
0.000111766
0.000287416
8.46901e-05
0.000297081
5.70295e-05
0.000327454
2.83423e-05
-4.68082e-05
-5.00342e-05
0.000820536
-5.32037e-05
0.000836452
-5.62739e-05
0.000852603
-5.92038e-05
0.000868988
-6.19554e-05
0.000885597
-6.44941e-05
0.00090241
-6.67895e-05
0.000919404
-6.88152e-05
0.000936548
-7.05501e-05
0.000953807
-7.1977e-05
0.000971139
-7.30847e-05
0.000988502
-7.38659e-05
0.00100585
-7.43182e-05
0.00102313
-7.4444e-05
0.00104031
-7.42489e-05
0.00105732
-7.37424e-05
0.00107413
-7.29379e-05
0.00109068
-7.18497e-05
0.00110694
-7.04953e-05
0.00112286
-6.88941e-05
0.0011384
-6.70677e-05
0.00115352
-6.50331e-05
0.0011682
-6.28144e-05
0.00118239
-6.04395e-05
0.00119608
-5.79155e-05
0.00120928
-5.52608e-05
0.00122192
-5.25161e-05
0.00123395
-4.96959e-05
0.00124546
-4.67792e-05
0.00125641
-4.3805e-05
0.00126674
-4.08199e-05
0.00127643
-3.78011e-05
0.00128561
-3.47425e-05
0.00129421
-3.16765e-05
0.00130217
-2.86413e-05
0.00130947
-2.562e-05
0.0013163
-2.25824e-05
0.00132261
-1.95334e-05
0.00132834
-1.65263e-05
0.00133342
-1.35433e-05
0.00133776
-1.06204e-05
0.0013417
-7.68802e-06
0.00134522
-4.76653e-06
0.00134826
-1.86444e-06
0.00135082
-6.47118e-05
0.00135298
-6.69813e-05
0.00135759
-6.88381e-05
0.00136205
-7.03839e-05
0.00136658
-7.15304e-05
0.00137144
-7.23147e-05
0.00137641
-7.26815e-05
0.0013816
-7.26357e-05
0.00138667
-7.21499e-05
0.00139149
-7.16063e-05
0.00139581
-7.41362e-05
0.00139974
-9.64833e-05
0.00140496
-0.000276592
0.00143255
-0.000696663
0.00160317
-0.000634366
0.00163087
-0.000507801
0.00167915
-0.000397765
0.0017777
-0.000376699
0.00190946
-0.000317879
0.0019484
-0.000270225
0.00194632
-0.00022275
0.00196844
-0.000166295
0.00196818
-0.000115003
0.00197496
-7.35982e-05
0.00196334
-3.83401e-05
0.00196867
-1.29753e-05
0.0019475
4.93038e-06
0.0019332
1.49114e-05
0.00192771
3.08997e-05
0.0019093
3.51579e-05
0.00189624
3.65478e-05
0.00188697
4.26631e-05
0.00187541
4.48977e-05
0.00185795
5.39589e-05
0.00183473
6.57763e-05
0.0018072
7.8674e-05
0.00176539
0.000101427
0.00170777
0.000141804
0.00162981
0.000176364
0.00151782
0.00024289
0.001365
0.000327005
0.00119356
0.00041461
0.00103795
0.000489222
0.000915894
0.000543503
0.00082677
0.000582382
0.000761259
0.000607097
0.000714237
0.000619584
0.000679472
0.000619375
0.00065389
0.000607579
0.000634149
0.000585064
0.000617327
0.000552281
0.000601631
0.000508545
0.000586785
0.000460393
0.000570712
0.000417388
0.000550863
0.000380414
0.00052738
0.000349101
0.000501412
0.000322533
0.000473828
0.000298913
0.00044617
0.000278632
0.000418819
0.000262075
0.000391201
0.000247937
0.000364006
0.000237982
0.000337512
0.000231607
0.000311368
0.000229453
0.000285422
0.000230561
0.000259414
0.000238481
0.000233304
0.000243439
0.000207088
0.000257228
0.000181376
0.000267023
0.000155857
0.000284255
0.000130193
0.000294788
0.000104562
0.000314654
7.88903e-05
0.000325403
5.28547e-05
0.000355341
2.60114e-05
-6.24925e-05
-6.59485e-05
0.000834817
-6.9354e-05
0.000852609
-7.26575e-05
0.000870619
-7.58102e-05
0.000888846
-7.87666e-05
0.000907279
-8.14854e-05
0.000925901
-8.39302e-05
0.000944687
-8.60693e-05
0.000963605
-8.78776e-05
0.000982619
-8.93342e-05
0.00100169
-9.04259e-05
0.00102076
-9.11429e-05
0.00103979
-9.14833e-05
0.00105874
-9.14482e-05
0.00107754
-9.10451e-05
0.00109615
-9.0284e-05
0.00111453
-8.91807e-05
0.00113261
-8.77517e-05
0.00115035
-8.60183e-05
0.00116772
-8.40016e-05
0.00118466
-8.17279e-05
0.00120115
-7.92151e-05
0.00121715
-7.64963e-05
0.00123261
-7.35955e-05
0.00124754
-7.05241e-05
0.00126191
-6.73166e-05
0.00127565
-6.40134e-05
0.00128878
-6.05851e-05
0.00130135
-5.70853e-05
0.00131327
-5.35352e-05
0.00132449
-4.99684e-05
0.0013351
-4.63332e-05
0.00134514
-4.26898e-05
0.00135452
-3.90521e-05
0.00136316
-3.54498e-05
0.00137122
-3.18353e-05
0.00137874
-2.8216e-05
0.00138568
-2.4614e-05
0.00139193
-2.1064e-05
0.00139746
-1.75631e-05
0.00140234
-1.4085e-05
0.00140681
-1.06241e-05
0.00141077
-7.17805e-06
0.00141423
-3.74425e-06
0.00141717
-6.92817e-05
0.00141944
-7.16727e-05
0.00142334
-7.36883e-05
0.00142713
-7.52971e-05
0.00143132
-7.64923e-05
0.00143575
-7.71838e-05
0.00144024
-7.74342e-05
0.00144456
-7.72227e-05
0.00144868
-7.6411e-05
0.00145246
-7.61381e-05
0.00145589
-7.97641e-05
0.00146007
-0.000124371
0.00146916
-0.000458572
0.00151869
-0.000721571
0.00163765
-0.000680458
0.00164036
-0.000613511
0.00166636
-0.000528156
0.00172438
-0.0004082
0.00180953
-0.000330627
0.00191661
-0.000286883
0.00197188
-0.000228442
0.00201399
-0.000167198
0.00200841
-0.00011087
0.00201796
-6.56166e-05
0.00200494
-2.26509e-05
0.00200872
2.30748e-07
0.00198506
1.92003e-05
0.00196958
3.31147e-05
0.00196266
4.27273e-05
0.00194605
4.86523e-05
0.0019224
5.09883e-05
0.00190264
6.30274e-05
0.00188364
6.64824e-05
0.00186006
7.84674e-05
0.00181242
0.000108742
0.00174856
0.000136256
0.00166055
0.00017922
0.00153222
0.000256581
0.00137138
0.000331253
0.00120657
0.000416328
0.00105512
0.000482677
0.00093595
0.000536914
0.000844516
0.000578817
0.000775862
0.000609522
0.000724386
0.000629706
0.00068539
0.000641864
0.000655173
0.000644872
0.000632203
0.000638743
0.000614651
0.000623897
0.000599945
0.000600329
0.000586705
0.000567476
0.000574328
0.000526217
0.000561978
0.000482471
0.000547606