/*--------------------------------*- C++ -*----------------------------------*\
| =========                 |                                                 |
| \\      /  F ield         | OpenFOAM: The Open Source CFD Toolbox           |
|  \\    /   O peration     | Version:  2.2.x                                 |
|   \\  /    A nd           | Web:      www.OpenFOAM.org                      |
|    \\/     M anipulation  |                                                 |
\*---------------------------------------------------------------------------*/
FoamFile
{
    version     2.0;
    format      ascii;
    class       volScalarField;
    location    "2.3";
    object      Bz;
}
// * * * * * * * * * * * * * * * * * * * * * * * * * * * * * * * * * * * * * //

dimensions      [1 0 -2 0 0 -1 0];

internalField   nonuniform List<scalar> 
14161
(
-2.50192e-11
-2.45734e-11
-2.43593e-11
-2.395e-11
-2.37728e-11
-2.35485e-11
-2.31142e-11
-2.28812e-11
-2.2564e-11
-2.22703e-11
-2.20404e-11
-2.17636e-11
-2.16502e-11
-2.15135e-11
-2.13331e-11
-2.13117e-11
-2.12772e-11
-2.12065e-11
-2.15004e-11
-2.15249e-11
-2.17559e-11
-2.2289e-11
-2.16964e-11
-2.31195e-11
-1.8454e-11
-3.80151e-11
2.4262e-11
-9.45448e-11
2.69591e-11
-5.20488e-11
9.70747e-11
-5.18286e-11
-9.14483e-11
-5.75436e-11
6.81974e-11
-9.79639e-11
6.21174e-11
-4.84304e-09
1.75152e-07
1.62349e-06
6.32523e-06
8.52289e-06
7.53549e-06
3.02227e-06
1.12325e-05
7.44793e-06
-8.23906e-06
8.51066e-06
9.02979e-06
-1.69192e-05
6.14556e-06
1.96186e-05
-1.30664e-05
-2.3005e-06
2.22144e-05
-1.43797e-05
-2.94412e-05
4.76434e-06
5.4034e-05
1.45398e-06
-3.88911e-05
-2.06394e-05
9.18113e-06
1.5024e-05
-2.41282e-05
-5.20055e-05
-7.54637e-06
3.63301e-05
4.264e-05
-3.41875e-06
-2.87989e-05
-3.0243e-05
-1.35354e-05
1.29772e-05
6.99054e-06
-4.73454e-06
-1.35859e-05
-1.22518e-05
-8.27659e-06
-5.0115e-06
-4.16821e-06
-6.06354e-06
-6.78509e-06
-5.23877e-06
-2.33248e-06
-1.62009e-06
-1.82593e-06
-3.79882e-06
-8.40411e-06
-1.01115e-05
-7.38431e-06
-8.12544e-06
-8.23328e-06
-1.02788e-05
-2.31337e-06
-6.6149e-06
-4.17563e-06
1.66794e-06
-8.26093e-07
2.45025e-06
2.94448e-06
-5.2507e-06
8.55074e-06
1.25538e-06
1.07288e-05
8.1861e-06
5.17525e-06
1.05166e-05
8.18078e-06
7.59152e-06
1.02111e-05
1.49828e-05
4.48142e-06
1.19258e-05
6.2211e-06
1.28332e-05
8.5217e-06
6.36135e-06
1.39375e-05
-1.37808e-10
-1.46863e-10
-1.53385e-10
-1.44903e-10
-1.4015e-10
-1.37994e-10
-1.32074e-10
-1.32925e-10
-1.31538e-10
-1.49193e-10
-1.241e-10
-1.20652e-10
-1.59351e-10
-1.62657e-10
-1.477e-10
-1.49565e-10
-1.40246e-10
-1.34681e-10
-1.66643e-10
-1.85185e-10
-1.90618e-10
-1.92989e-10
-1.87237e-10
-1.81474e-10
-1.59224e-10
-2.60067e-10
-1.78682e-10
-1.80297e-10
-4.9966e-10
-1.92762e-10
2.0276e-10
-6.1747e-10
-3.57393e-10
-1.5778e-11
6.65542e-11
-3.19546e-10
1.03812e-10
4.94231e-09
2.65116e-07
1.1211e-06
3.31098e-06
2.78338e-06
-1.11029e-06
-3.48736e-07
-7.44809e-07
-3.15782e-05
4.02723e-05
8.51807e-05
-9.71871e-05
-0.000327445
9.30703e-05
0.000490555
8.58395e-05
-0.000257539
-0.000194423
-0.000281376
-0.00018937
0.00048856
0.000835698
-0.000312608
-0.00156026
6.26389e-05
0.00167157
0.000343337
-0.000833954
-0.000918734
9.04183e-05
0.000795328
0.000374471
-0.000439101
-0.000588898
8.90206e-05
0.000356233
0.000197241
-0.000119229
-0.000335272
-0.000136484
5.03664e-05
0.000131265
6.5955e-05
1.17972e-05
-2.13424e-05
2.46122e-05
9.49823e-05
3.7022e-05
-1.66152e-05
-1.02244e-05
-0.000175326
0.000103905
-7.42982e-05
0.000122496
-0.000159101
0.000108661
7.41265e-05
-0.000138279
0.00026183
-0.000265396
0.000164598
2.42187e-05
-0.000188264
0.000151421
-5.59638e-06
2.58553e-05
3.4927e-07
-8.00824e-05
9.68523e-05
-7.93986e-06
-2.77753e-05
5.10131e-05
-3.21247e-05
2.0023e-05
5.01685e-05
-9.85504e-06
-2.40413e-05
-1.17595e-05
1.66138e-05
1.14443e-05
-2.20789e-06
-3.5534e-06
-2.16081e-09
-2.06783e-09
-1.94007e-09
-1.84161e-09
-1.92408e-09
-1.81433e-09
-1.19657e-09
-1.87334e-09
-1.87423e-09
-2.39041e-09
-8.68892e-10
-1.0822e-09
-1.92132e-09
-2.11828e-09
-1.66927e-09
-1.84931e-09
-1.25508e-09
-1.17551e-09
-1.55719e-09
-1.93433e-09
-2.00364e-09
-2.09679e-09
-1.69945e-09
-1.73319e-09
-8.41048e-10
-3.09984e-09
-1.94541e-09
6.29762e-09
-2.45451e-08
2.0293e-08
3.7117e-09
-2.1403e-08
-1.04271e-08
1.08204e-08
7.29136e-09
-4.21059e-10
-4.16489e-09
4.66349e-09
3.96016e-07
1.9581e-06
3.42277e-06
2.23019e-06
2.56378e-05
-8.25038e-05
-2.13791e-05
-9.76063e-05
0.000214106
0.00062062
-0.000367086
-0.00149289
0.000204325
0.00212212
2.10776e-05
-0.00189756
-6.27312e-05
0.0010459
-0.000459367
-6.48835e-05
0.000988626
-0.00031259
-0.00180242
-2.9299e-05
0.00200979
0.00093542
-0.00112798
-0.00140202
0.00034521
0.000779141
0.000363683
-0.000529341
-0.000377778
9.0929e-05
0.000142334
-5.66706e-05
-0.000102044
-7.03669e-05
5.21356e-05
0.000162296
-3.64585e-05
-0.000100746
-0.000143393
-1.01816e-05
0.000135757
9.47876e-05
-2.6289e-05
-0.000140798
1.52063e-05
4.87739e-05
1.47422e-05
-8.58608e-05
4.16792e-05
5.91571e-06
0.000108677
-8.02714e-05
1.32345e-05
2.03727e-05
-1.42994e-05
4.91327e-05
-5.89907e-05
9.30271e-06
1.50612e-05
-6.45176e-06
1.0681e-05
-3.02309e-05
4.49841e-06
1.51232e-05
-1.40488e-07
1.35534e-05
-1.92064e-05
-1.08033e-05
1.08841e-05
-3.62675e-06
-1.49781e-06
2.43375e-06
1.23791e-05
9.99662e-06
2.9825e-06
-8.77824e-07
7.28276e-06
-9.00718e-10
-1.3849e-09
-1.74595e-09
-1.78032e-09
-1.9678e-09
-1.64327e-09
-1.82448e-09
-2.57273e-09
-2.75486e-09
-3.08702e-09
-2.13e-09
-2.62762e-09
-3.82758e-09
-3.98859e-09
-3.86393e-09
-4.09198e-09
-2.94088e-09
-3.58561e-09
-4.59037e-09
-4.81926e-09
-4.64188e-09
-4.2487e-09
-4.28063e-09
-4.71428e-09
-7.00466e-09
3.58514e-09
-1.61084e-08
-1.19262e-08
2.39174e-08
-1.96195e-08
-2.04348e-08
-1.30773e-08
3.82293e-08
-2.0235e-08
-8.42662e-09
-1.39708e-08
-1.23019e-08
1.82539e-08
-1.00524e-07
3.27958e-06
-1.41955e-06
3.72047e-06
6.38776e-05
-0.000261276
0.000121156
0.000250341
-0.000286598
-7.73302e-05
0.000675477
-3.37815e-05
-0.00134903
0.000367922
0.00176812
-0.00109568
-0.00206924
0.00145701
0.00289005
-0.000679237
-0.00360813
-0.0015083
0.00283632
0.00379101
-0.000320045
-0.00411745
-0.00259794
0.00147315
0.00322108
0.00171403
-0.00168207
-0.00207381
-0.000592035
0.0014034
0.000787015
-0.000123486
-0.000682263
-0.000639127
0.000313576
0.000461175
0.000157434
-0.000443002
-0.00014576
9.60981e-05
0.000317148
6.23963e-05
-0.000142549
-5.54385e-05
6.4649e-05
3.40803e-05
-8.40997e-05
-2.76656e-05
1.37815e-05
-2.18022e-06
4.18905e-05
-1.21351e-05
2.90627e-05
-1.04166e-05
2.5953e-06
2.10718e-05
-2.00798e-05
-2.02056e-06
5.14115e-06
3.1262e-06
-6.66244e-06
-1.31341e-05
1.06605e-05
7.74047e-06
-5.02153e-06
-1.30997e-05
-2.70411e-06
1.43814e-05
1.49561e-05
1.05028e-05
1.55289e-05
2.16378e-06
6.41848e-06
-4.04071e-06
4.59443e-06
2.45663e-05
1.92387e-05
-2.51147e-08
-2.38524e-08
-2.20954e-08
-2.08527e-08
-2.10013e-08
-1.98976e-08
-1.78452e-08
-2.01402e-08
-1.98429e-08
-2.03773e-08
-1.59519e-08
-1.64308e-08
-1.84425e-08
-1.8611e-08
-1.74027e-08
-1.73218e-08
-1.56604e-08
-1.5996e-08
-1.69621e-08
-1.72221e-08
-1.67235e-08
-1.64802e-08
-1.56023e-08
-1.55399e-08
-1.66264e-08
-1.33387e-08
-1.73659e-08
-1.89936e-08
-1.52377e-08
-9.23272e-09
-1.86117e-08
-1.88809e-08
-2.03639e-08
-9.65758e-09
-1.05744e-08
-1.39376e-08
-1.96571e-08
2.52629e-08
5.66356e-07
5.71401e-07
-4.0828e-05
8.92965e-05
0.00015338
-0.000148418
-0.000307622
-2.75307e-05
0.000708174
-0.000702056
-0.000855599
0.00212079
0.00101101
-0.00299865
-0.00152137
0.00350525
0.00160441
-0.00393591
-0.00138578
0.00393825
0.00159663
-0.00306325
-0.00282693
0.00107967
0.00364691
0.00164921
-0.00275725
-0.00311309
-0.000721555
0.00313964
0.00280855
-7.71302e-05
-0.00266074
-0.00175807
0.000374602
0.00206473
0.00105467
-0.000890887
-0.00133704
-0.00026182
0.00105834
0.000430832
-0.000277613
-0.000461037
-8.87693e-06
4.15613e-06
-0.000104073
-0.000103628
-1.84766e-05
6.0215e-06
-2.12385e-06
7.52719e-05
7.22023e-05
2.85787e-05
3.60724e-05
4.08388e-06
1.83741e-05
-2.28217e-05
3.42033e-06
1.72617e-05
-2.12915e-05
-8.37589e-06
3.29165e-06
-1.78872e-06
-8.97841e-06
-5.04852e-06
1.43638e-05
-7.35016e-07
-1.38946e-05
-6.25243e-06
1.20037e-05
1.60415e-05
1.34351e-05
8.53259e-06
7.55118e-06
3.70177e-07
2.0031e-06
6.20628e-07
6.64137e-06
1.19585e-05
1.82973e-05
-2.27502e-09
-5.26502e-09
-8.23734e-09
-1.04636e-08
-1.10269e-08
-1.24273e-08
-1.29908e-08
-1.32227e-08
-1.39516e-08
-1.49529e-08
-1.61334e-08
-1.6424e-08
-1.65659e-08
-1.61331e-08
-1.8667e-08
-1.45321e-08
-1.78756e-08
-1.80153e-08
-1.70714e-08
-1.64924e-08
-1.64879e-08
-1.72408e-08
-1.71523e-08
-1.80382e-08
-1.80275e-08
-1.75431e-08
-1.56031e-08
-1.55714e-08
-1.90042e-08
-1.50759e-08
-1.49668e-08
-2.08561e-08
-2.07274e-08
-1.58877e-08
-1.46019e-08
-1.45449e-08
-1.61731e-08
-1.43415e-08
8.43987e-08
9.43404e-07
-6.89913e-06
-8.57614e-05
4.70311e-05
0.000206015
-1.69191e-06
-0.000671587
0.000385163
0.00148666
-0.000967914
-0.0030099
0.00107918
0.00366206
-0.000115417
-0.00383384
-0.00174812
0.00255575
0.00362343
0.000471328
-0.00392658
-0.00353789
0.00150701
0.0039503
0.00234393
-0.000846398
-0.00324245
-0.00223695
0.000805154
0.00254206
0.00181461
-0.000414229
-0.00193163
-0.00155883
0.000123993
0.00126983
0.000913773
0.000577255
-0.00193157
-0.00128082
0.000381713
0.00186775
0.000455303
-0.000840363
-0.00053575
0.000159662
0.000554054
0.000131266
-0.000143054
-0.000149062
1.79296e-05
1.52135e-05
-1.28478e-05
-2.4056e-06
4.80577e-06
-5.46484e-05
-4.68408e-05
-2.51304e-05
1.80686e-05
7.09079e-06
-1.86164e-05
-3.70334e-06
1.51843e-06
-1.29399e-06
-8.57708e-06
8.2522e-06
1.84747e-05
-3.37072e-06
-1.72268e-05
-1.84758e-06
1.91811e-05
1.15294e-05
8.67288e-06
9.64943e-06
6.94763e-06
2.80865e-06
1.55033e-06
2.59993e-06
3.01914e-06
2.39991e-07
1.65976e-05
-8.02314e-08
-7.58044e-08
-6.9098e-08
-6.25622e-08
-5.97068e-08
-5.92847e-08
-5.60333e-08
-4.90257e-08
-4.70258e-08
-4.55861e-08
-4.54399e-08
-4.2956e-08
-3.97626e-08
-3.78834e-08
-3.74661e-08
-3.59408e-08
-3.51472e-08
-3.33365e-08
-3.17866e-08
-3.06687e-08
-3.01607e-08
-2.97901e-08
-2.89387e-08
-2.86045e-08
-2.70118e-08
-2.67025e-08
-2.43588e-08
-2.38931e-08
-2.6521e-08
-2.15157e-08
-2.41397e-08
-2.50456e-08
-2.61673e-08
-2.16648e-08
-1.61438e-08
-2.40477e-08
-2.67316e-08
-1.58987e-08
-1.34545e-07
1.06929e-06
-7.70485e-06
5.81082e-05
-7.70805e-05
-8.36067e-05
1.75568e-05
7.47175e-05
5.18583e-06
-0.000162695
0.000153917
0.000444328
-0.000177109
-0.000743651
-0.000204844
0.00122561
0.00057394
-0.000737535
-0.00105914
-0.000187092
0.000790567
0.00115852
8.2839e-05
-0.00162234
-0.00114713
0.00032568
0.0013463
0.000978034
-0.000301414
-0.00111861
-0.000756633
7.99536e-05
0.000828411
0.00074493
0.000244512
-0.000468917
-0.000675297
-0.000466129
0.000369232
0.000709072
0.000322813
-0.000312571
-0.000430258
-0.000114972
0.000263816
0.000315706
1.35442e-05
-0.000272537
-0.000175757
-7.35641e-05
-0.000104739
-5.8334e-05
-1.71348e-05
-3.43788e-05
-3.44977e-06
-2.84264e-05
-2.33825e-05
-2.14988e-05
-7.88198e-07
4.78551e-05
1.4997e-05
-2.0588e-05
3.20556e-06
1.44797e-05
-9.04459e-08
3.82232e-07
1.34225e-05
-5.5153e-06
-2.29786e-05
-9.91864e-08
1.44951e-05
7.63317e-06
1.14228e-05
1.96617e-06
-4.54262e-06
-1.29958e-07
1.59409e-06
3.59103e-06
-7.53813e-07
-5.99752e-06
1.22605e-05
-4.23263e-09
-7.14667e-09
-1.03656e-08
-1.32426e-08
-1.53577e-08
-1.88086e-08
-1.71891e-08
-1.47089e-08
-1.4384e-08
-1.45295e-08
-1.47307e-08
-1.44144e-08
-1.42234e-08
-1.41017e-08
-1.40632e-08
-1.43453e-08
-1.32126e-08
-1.24309e-08
-1.18555e-08
-1.15952e-08
-1.15659e-08
-1.18373e-08
-1.10024e-08
-1.17621e-08
-1.10113e-08
-1.05778e-08
-9.23109e-09
-9.40776e-09
-1.28852e-08
-2.78437e-09
-8.28424e-09
-1.08722e-08
-1.41969e-08
-6.50421e-09
-6.86944e-09
-7.90665e-09
-9.51199e-09
-6.86389e-09
-2.55493e-08
-2.63731e-07
2.1157e-06
-3.04904e-05
-1.65445e-05
2.33593e-05
5.25164e-06
2.50962e-05
-9.58684e-05
-3.09214e-05
0.000124649
1.13949e-05
-7.12093e-05
-9.3423e-06
2.33426e-05
-3.42694e-05
-2.55688e-05
5.24433e-06
0.000100934
6.51019e-05
-0.00017532
-0.000131418
0.000179704
7.19193e-05
1.26071e-05
0.000209414
-3.11375e-05
-0.000476328
-0.000225381
0.000257932
0.000407763
0.000130683
-0.000257605
-0.000267421
-4.02907e-05
0.000110015
9.87662e-05
5.76335e-06
2.78554e-06
2.30733e-05
-1.97756e-05
-0.000121028
-5.1898e-05
8.26114e-05
0.000133062
7.82207e-05
-8.5613e-05
-0.000147935
-2.74381e-06
-5.27847e-05
-0.00011648
-1.04302e-05
-9.66795e-06
-7.41508e-05
8.08748e-06
4.46936e-05
1.52471e-05
1.14035e-05
5.51083e-05
8.4169e-05
-2.51356e-05
-4.43687e-05
4.23139e-05
1.61836e-05
-3.2916e-05
6.63349e-07
2.3181e-05
-3.26666e-06
-1.12993e-05
2.24859e-06
6.14941e-06
1.56578e-05
1.46002e-05
-1.62776e-06
-6.11241e-06
4.34304e-06
4.02587e-06
3.53496e-06
-2.33552e-06
-6.37649e-06
6.1647e-06
-5.67269e-08
-5.1822e-08
-4.70534e-08
-3.96708e-08
-3.75202e-08
-3.62917e-08
-3.32481e-08
-2.80646e-08
-2.61869e-08
-2.48211e-08
-2.39291e-08
-2.26608e-08
-2.05243e-08
-1.93373e-08
-1.83438e-08
-1.73143e-08
-1.62331e-08
-1.52315e-08
-1.39651e-08
-1.33272e-08
-1.27739e-08
-1.29897e-08
-1.15499e-08
-1.01431e-08
-1.43552e-08
-9.23897e-09
-7.53488e-09
-6.78424e-09
-1.38948e-08
-6.61253e-09
-1.11981e-08
-4.90533e-09
-2.80583e-09
-8.19046e-09
-1.27381e-08
-1.0507e-09
-3.13154e-08
3.2382e-08
-2.53612e-07
-1.86425e-06
-8.3732e-06
-1.00293e-05
-1.20964e-05
-1.35953e-05
-2.71906e-05
1.64735e-05
3.13041e-05
-2.20627e-06
-2.629e-05
-1.18406e-05
3.82762e-05
4.66764e-05
-0.000102139
-1.07324e-05
9.84502e-05
4.01631e-05
-8.00381e-05
-8.39718e-05
-3.86544e-05
6.21482e-05
0.00030517
-0.000359007
-0.000359337
0.000727783
0.000280108
-0.000927608
-0.000437898
0.000837452
0.000701128
-0.000267758
-0.000594244
-0.000239963
0.000258643
0.000345158
1.87716e-05
-0.000331188
-0.00018737
9.18572e-05
0.000158349
8.30343e-05
5.88157e-07
-9.82561e-06
5.56712e-06
-3.16801e-06
-5.33883e-05
-4.82776e-05
1.60825e-05
1.16252e-05
-1.96276e-05
-5.87603e-05
-7.05427e-05
-3.8366e-05
4.13363e-05
6.33846e-05
5.27801e-05
5.25017e-05
3.61621e-05
4.09017e-05
-1.79902e-06
6.55257e-05
4.19437e-05
-4.20785e-05
-2.72994e-05
5.97895e-06
2.98235e-05
1.53119e-05
-1.39643e-05
-6.00106e-06
1.50487e-05
1.96888e-05
4.6492e-06
1.22035e-07
3.18069e-06
7.63409e-06
4.33792e-06
1.914e-06
-3.72152e-07
4.07243e-07
6.48922e-06
-4.04365e-09
-3.35396e-09
-9.3951e-09
-7.60914e-09
-5.45151e-09
-3.45185e-09
-4.57852e-09
-5.00673e-09
-5.0086e-09
-4.62107e-09
-4.1645e-09
-3.93903e-09
-3.99577e-09
-3.71834e-09
-3.4177e-09
-2.83061e-09
-2.49001e-09
-2.37663e-09
-2.25744e-09
-2.23337e-09
-1.37058e-09
-2.44914e-09
-5.74641e-09
1.25365e-08
-1.47293e-08
-7.61407e-09
9.90131e-09
5.09515e-09
-4.61115e-09
-8.28266e-09
-6.42159e-09
1.20123e-09
9.48475e-09
7.027e-09
-3.38493e-09
-5.93367e-09
-1.44013e-08
7.52572e-09
-2.1346e-07
-1.52373e-06
-6.43176e-06
-7.79309e-06
-5.36289e-06
-1.51114e-06
-6.06033e-06
-8.14593e-06
1.1642e-06
2.77251e-05
-1.70355e-05
-4.89517e-05
3.28271e-05
0.000100426
-7.17747e-05
-0.000138776
0.000117371
0.000148868
-0.000182629
-0.000146356
0.000296974
0.000215571
-0.000697636
-0.000276592
0.00103797
0.000518802
-0.00117532
-0.000660153
0.000726196
0.000810822
-0.000243569
-0.00073427
-0.000195659
0.00040061
0.000341767
-1.99927e-05
-0.000348177
-0.000151544
0.0002752
0.000236004
-6.9316e-05
-0.000156364
-2.75176e-05
9.6666e-05
8.69715e-05
1.46794e-05
-7.1984e-05
-8.75664e-05
9.96285e-05
0.000118606
-0.000147476
-7.62061e-05
7.22514e-05
4.13102e-05
1.6978e-07
-2.80185e-07
3.79295e-05
7.51294e-05
9.69961e-05
5.94333e-05
2.2347e-05
5.94552e-05
-0.000107158
-7.63234e-05
2.95856e-05
1.91372e-05
9.6697e-06
2.14796e-06
-4.56992e-06
-5.55094e-06
-1.16709e-05
1.58365e-06
2.23341e-07
7.67098e-07
8.16954e-06
1.08211e-05
6.9556e-06
7.64179e-07
9.58429e-07
6.32347e-06
7.76021e-06
-1.23491e-08
-6.05402e-09
-1.37752e-08
-1.08172e-08
-7.17711e-09
-2.81703e-09
-2.91291e-09
-4.0834e-09
-4.4023e-09
-4.14868e-09
-3.70224e-09
-3.44614e-09
-3.8295e-09
-4.08628e-09
-3.55633e-09
-2.86172e-09
-2.52507e-09
-2.45437e-09
-2.42093e-09
-2.55776e-09
-1.08364e-09
-3.53245e-09
-7.29318e-09
1.85056e-08
-1.92215e-08
-1.06683e-08
1.38478e-08
7.06693e-09
-4.92929e-09
-8.91319e-09
-9.57643e-09
-5.02229e-09
1.47567e-08
1.81203e-08
5.17838e-10
-3.69129e-08
-1.56192e-08
-2.998e-08
-2.56429e-07
-2.30725e-06
-7.74471e-06
-7.06377e-06
-5.14888e-06
-2.28857e-06
-1.04561e-05
-1.22771e-05
2.30343e-05
1.01847e-05
-2.16143e-05
-5.21004e-05
2.47156e-05
6.22756e-05
2.37005e-05
-0.000133971
2.80625e-06
0.000200992
-0.000285105
9.574e-06
0.000462681
-0.000198395
-0.00064955
0.000239419
0.000979938
-0.000704979
-0.000970558
0.00123692
0.000773077
-0.000966468
-0.00116968
0.000135213
0.00107344
0.000643798
-0.000209834
-0.000530903
-0.000317047
0.000146274
0.000303021
0.000118343
-5.40292e-05
-5.54536e-05
3.59674e-05
7.97404e-05
6.45109e-05
4.66779e-06
-0.000121738
4.4297e-05
0.000223363
-0.000141272
-0.000143403
0.000109936
7.77557e-05
-5.37518e-05
-7.12669e-05
3.42297e-05
7.87054e-05
4.39374e-05
2.19022e-05
-3.05107e-05
1.79055e-05
1.78522e-05
-0.000131779
1.97991e-05
6.03031e-05
-2.62072e-05
-1.13819e-05
1.42685e-05
9.38073e-06
-1.10784e-05
-7.99091e-06
1.74169e-05
1.58581e-05
4.88871e-06
-1.36853e-06
-3.31036e-06
9.65976e-07
-2.02244e-06
1.34106e-06
7.40338e-06
8.13031e-06
-1.2956e-09
1.28819e-09
-1.90044e-09
-4.04476e-09
-3.05989e-09
-8.00048e-11
-1.0718e-12
-3.88692e-10
-6.54299e-10
-7.20353e-10
-6.05481e-10
-5.23206e-10
-4.46455e-10
-4.7477e-10
-5.45951e-10
-4.93526e-10
-4.09391e-10
-3.56781e-10
-2.56069e-10
-1.04321e-09
2.5986e-09
-4.82883e-09
-1.45599e-09
1.10239e-08
-5.92504e-09
-1.97199e-09
-1.76877e-08
1.86566e-08
8.93329e-09
-3.33902e-09
-2.53328e-08
9.13975e-09
-5.36353e-09
2.00413e-08
9.95863e-09
-2.95419e-08
4.87e-09
3.09606e-09
8.28612e-08
-3.51102e-06
-1.63886e-05
-1.35609e-05
-1.27711e-05
1.86784e-07
-4.1056e-06
-3.83363e-05
-3.60286e-06
5.41813e-05
2.93257e-06
-5.81805e-05
-5.31361e-05
1.60835e-05
9.62368e-05
3.66648e-05
-0.000127179
-5.25901e-05
0.000129517
-4.31594e-05
-5.52109e-05
8.79518e-05
-4.26135e-05
-1.52559e-05
0.000103885
-0.000217508
-6.9421e-05
0.000318537
7.47014e-05
-0.00034044
-0.000227688
0.000204222
0.000355139
4.69483e-05
-0.000228983
-0.00019464
5.77001e-05
0.000257996
9.19382e-05
-0.000100207
-5.44175e-05
5.42245e-05
0.000118041
9.12874e-05
2.76719e-05
-0.000108699
-9.75829e-06
0.000243442
-6.09919e-05
-0.000198545
5.8752e-05
0.000103
-3.75184e-05
-0.000101023
-3.30529e-05
3.65508e-05
2.39826e-05
3.70455e-05
6.69698e-05
4.73505e-05
8.4116e-05
1.50762e-05
-3.5835e-05
3.76762e-05
-1.30196e-05
-2.57645e-05
6.3221e-06
3.05271e-05
1.68013e-05
-1.68804e-05
-1.26186e-05
9.37532e-06
6.70114e-06
6.80347e-07
-1.07521e-05
-1.46198e-05
-7.40684e-06
-5.78115e-06
2.0112e-07
4.3955e-06
7.34619e-06
-3.85842e-10
-7.2966e-10
-2.72555e-10
4.63359e-11
-1.97414e-10
-4.99782e-10
-5.95237e-10
-5.47431e-10
-4.77498e-10
-4.42151e-10
-4.50664e-10
-4.31341e-10
-4.20982e-10
-3.94707e-10
-3.54013e-10
-3.00297e-10
-2.95302e-10
-2.80097e-10
-2.67683e-10
-4.73565e-10
6.757e-10
-2.32201e-09
1.1125e-09
-3.9016e-11
2.1503e-09
-1.55643e-10
-1.39103e-08
2.00997e-08
-3.06458e-10
1.23967e-08
-8.35158e-08
7.02992e-08
-5.47234e-08
6.86274e-08
-1.21499e-08
-4.29348e-08
6.08084e-08
2.84683e-08
-1.36998e-06
-5.2559e-06
-2.96441e-05
-2.83733e-05
-2.343e-05
-2.27154e-05
-6.1141e-06
4.22402e-06
-2.36711e-05
-3.5877e-05
2.36731e-05
3.03633e-05
-2.14618e-05
-5.01052e-05
-3.05485e-05
2.40025e-05
3.92712e-05
-1.15471e-05
-2.8027e-05
7.44646e-06
1.13472e-05
-1.4865e-05
-3.15787e-05
1.47841e-05
3.09532e-05
-4.13315e-05
8.37305e-06
0.000116841
-1.69495e-05
-0.000116349
-8.06285e-05
7.68364e-05
0.000132674
1.50767e-05
-8.50985e-05
-0.000105063
1.96333e-05
0.00013582
1.75972e-05
-5.88365e-05
6.5745e-05
0.000105636
7.93423e-05
4.57471e-05
-3.37731e-06
1.92114e-06
0.000175013
4.09246e-05
-0.00020947
-5.0448e-05
0.000138338
3.60272e-05
-0.000108907
-7.29669e-05
4.25345e-05
7.35267e-05
-9.87907e-07
1.20206e-05
3.11488e-05
8.4809e-06
-9.78506e-06
-6.50852e-05
-9.60183e-05
-0.000112832
-3.78563e-05
3.74077e-05
3.75694e-05
1.74698e-05
9.84826e-06
5.42895e-06
2.86176e-07
-1.35834e-05
-7.72752e-06
7.3054e-06
3.81715e-06
-2.64786e-06
-2.61542e-06
-1.26707e-06
9.85791e-07
1.74202e-06
5.44468e-06
-5.91713e-11
-8.15309e-11
2.10367e-10
-4.1441e-10
-3.15395e-10
-1.34061e-10
-3.99698e-11
-5.43958e-11
-7.85345e-11
-8.94803e-11
-9.46483e-11
-8.62778e-11
-8.76141e-11
-1.00086e-10
-8.36997e-11
-7.6815e-11
-6.9247e-11
-3.84009e-11
-2.10044e-10
6.84309e-10
-2.62397e-09
6.12065e-09
-7.71799e-09
-5.11478e-09
3.87936e-08
-6.03527e-08
5.11081e-08
-4.28935e-08
4.53671e-08
-5.11725e-08
5.43657e-08
-5.84124e-08
7.46513e-08
-7.92851e-08
4.39899e-08
-3.4301e-08
5.11618e-08
-5.89345e-08
-8.65312e-07
-6.93668e-06
-3.73506e-05
-3.64483e-05
-2.90879e-05
-1.89278e-05
-1.66544e-05
-1.41997e-05
-1.09114e-05
-9.38159e-06
-1.63169e-05
4.57012e-06
6.39026e-06
-1.98814e-05
-3.49031e-05
-1.41755e-05
1.07736e-05
6.27725e-06
-7.56171e-06
7.53747e-06
1.51234e-05
-2.74697e-05
-3.45988e-05
1.26603e-05
2.92734e-05
7.61932e-06
-4.32639e-05
-3.45649e-05
2.37559e-05
4.80682e-05
2.46352e-05
-1.16918e-05
-4.14335e-05
-3.305e-05
-6.65089e-06
3.02709e-05
6.18617e-05
4.82406e-05
-1.7157e-06
-3.36218e-06
4.84508e-05
9.41637e-05
9.25741e-05
6.15603e-05
2.35434e-05
9.80095e-05
0.000106452
-8.10808e-05
-0.000108712
4.8458e-05
9.29028e-05
-2.14207e-05
-7.0184e-05
1.22054e-05
5.17359e-05
-8.03516e-05
-0.000111384
6.33794e-08
1.05505e-05
-6.05561e-05
-4.67122e-05
-5.04632e-05
-9.2248e-05
-1.27751e-05
8.7715e-05
6.51678e-05
3.88893e-05
-2.19242e-06
-7.46705e-06
-5.17233e-06
-1.09579e-05
-6.60449e-06
1.59348e-06
5.23017e-06
-1.76164e-06
-9.86636e-07
7.17814e-06
4.95e-06
1.37182e-06
-9.96097e-07
2.52985e-06
-4.00643e-11
-4.91709e-11
-1.28007e-10
6.88056e-11
6.59557e-11
-3.13038e-11
-6.76726e-11
-5.3221e-11
-4.55376e-11
-4.41365e-11
-4.51344e-11
-4.95327e-11
-4.27422e-11
-3.306e-11
-3.25717e-11
-3.85543e-11
-2.12214e-11
-4.28164e-11
3.78852e-13
-9.10225e-11
1.09879e-10
-5.13124e-10
1.39716e-09
-3.35767e-09
3.56084e-09
-1.22792e-09
-1.76419e-09
-1.29701e-09
1.16362e-08
-1.18568e-08
2.89478e-09
-9.66305e-09
1.24901e-08
-9.03832e-10
-2.00897e-09
7.42898e-09
-2.09259e-08
3.37183e-08
-6.71108e-07
-6.32197e-06
-3.80876e-05
-3.62008e-05
-2.90934e-05
-1.74115e-05
-1.26795e-05
-1.91861e-05
-2.22616e-05
-3.04456e-05
7.5272e-06
3.33546e-05
6.03986e-06
-5.39616e-05
-7.98375e-05
-1.9973e-05
5.47506e-05
4.07787e-05
-5.53116e-05
-5.82341e-05
7.20466e-05
9.88978e-05
-7.87e-05
-0.000127077
8.07226e-06
7.71195e-05
3.81571e-05
-1.40134e-05
-2.04042e-05
-1.57299e-05
-1.08761e-05
5.84716e-07
1.7537e-05
2.19308e-05
1.18565e-05
1.9439e-06
8.95787e-06
2.53355e-05
3.91154e-05
6.74197e-05
9.42335e-05
0.000123258
0.000115545
6.36953e-05
7.69209e-05
0.000119814
-9.89693e-06
-8.48587e-05
1.02039e-05
8.63688e-05
1.83921e-05
-8.07529e-05
-4.23925e-05
5.59942e-05
-5.73528e-06
-0.000105843
4.15556e-05
0.00014669
3.30881e-05
8.2849e-06
6.90132e-05
1.02973e-05
1.56096e-05
7.63934e-05
6.77859e-05
9.06368e-05
-4.79195e-05
-6.75471e-05
2.89388e-05
2.30561e-05
-3.20234e-06
5.75709e-06
4.31429e-06
-3.88981e-06
-6.85519e-06
3.48379e-06
1.63315e-05
7.2103e-06
1.0034e-06
-2.22037e-06
-9.97746e-07
-5.84868e-12
6.69237e-12
1.32233e-11
-4.88938e-11
-2.79668e-11
8.28036e-13
8.29801e-12
1.41293e-12
-5.49231e-12
-7.48745e-12
-7.66153e-12
-8.40812e-12
-1.11349e-11
-1.2654e-11
-9.14499e-12
-5.86503e-12
-4.04907e-12
-5.02752e-12
1.62221e-13
-9.82675e-12
-1.88617e-11
2.02773e-11
-2.06386e-10
9.35369e-10
-2.22328e-09
2.11994e-09
1.28862e-10
-6.57567e-10
-1.97444e-09
1.55548e-09
1.35047e-09
-3.60531e-10
-2.50715e-10
-2.06464e-09
6.39944e-10
-1.17986e-09
-1.30614e-10
3.16764e-08
-6.17304e-07
-6.73874e-06
-4.16488e-05
-3.51623e-05
-3.86538e-05
-1.65802e-05
1.7703e-05
-2.16174e-05
-4.47758e-05
-7.40108e-05
-2.81561e-05
6.95914e-05
0.000119444
5.69862e-05
-0.000207888
-0.00026822
-2.47062e-05
0.00027717
0.000154791
-0.000233018
-0.00018411
0.000314606
0.000128845
-0.000308953
-0.000103112
0.000130163
0.000101391
-6.10587e-05
-4.76569e-05
3.70386e-05
4.39316e-05
3.72155e-06
-2.06518e-05
-5.30086e-06
1.21826e-05
2.32461e-05
3.16613e-05
4.70079e-05
5.72206e-05
0.000100868
0.000135347
0.000174406
0.000150289
0.000115266
0.00010188
2.52459e-05
1.27138e-06
3.05629e-05
4.76379e-05
2.16763e-05
-2.37463e-05
-2.22375e-05
5.17606e-05
2.78202e-05
-7.59882e-05
-2.18124e-05
5.42521e-05
5.28261e-06
-4.67232e-05
-6.61157e-06
-1.05236e-05
-6.26266e-05
-2.94909e-05
-4.22683e-05
5.6212e-05
-3.24555e-05
-0.000136841
2.98925e-05
8.13885e-05
2.26462e-06
-1.94087e-05
-1.22671e-05
-1.10598e-06
2.48393e-06
3.18556e-06
6.79812e-06
1.28508e-05
5.44513e-06
1.9265e-06
-2.99877e-06
-2.70484e-06
-3.01642e-13
-4.31973e-12
-1.39735e-12
5.09194e-12
3.61869e-12
-3.65162e-12
-6.34925e-12
-4.98801e-12
-2.18604e-12
-2.22064e-12
-2.78137e-12
-2.1261e-12
-2.32285e-12
-1.72915e-12
-1.95767e-12
-2.18808e-12
-2.08671e-12
-7.0116e-12
3.09829e-12
1.23977e-11
-3.3946e-11
-1.48201e-13
4.41115e-11
-1.15522e-10
1.29183e-10
-8.29199e-11
9.64084e-11
-1.64276e-10
2.69434e-10
-3.96886e-10
3.41531e-10
-5.23283e-10
1.48761e-09
-3.47579e-09
5.06974e-09
-1.09654e-08
1.8547e-08
-8.56952e-08
-6.98184e-07
-4.97811e-06
-4.47058e-05
-3.4882e-05
-2.9659e-05
-8.45391e-05
3.53937e-05
6.84236e-05
-7.31653e-06
-9.95898e-05
-0.000117585
-3.68278e-05
2.36649e-06
0.000332716
0.000253627
-0.00064397
-0.000680526
0.000211076
0.000854153
6.91917e-05
-0.000946095
0.000300191
0.00093285
-0.000699976
-0.000621688
0.000393294
0.000491896
-5.63379e-05
-0.000316701
-4.40611e-05
0.00016388
0.00010973
-1.03453e-05
-4.7888e-05
8.70599e-06
3.77009e-05
2.73964e-05
1.28819e-05
9.00149e-05
0.000137054
0.000225071
0.000210911
0.000170618
0.000156107
9.36567e-05
4.84048e-05
6.68559e-05
3.55319e-05
-7.61813e-06
-4.58661e-05
-6.20977e-05
-1.13813e-05
3.54003e-07
-7.96688e-05
-0.000101219
-6.34808e-05
-7.18885e-05
-9.43442e-05
-9.5573e-05
-4.96933e-05
-4.29317e-05
-4.86047e-05
-5.66294e-05
-3.69813e-05
-7.78164e-07
-0.000178917
1.06009e-06
0.000139373
2.49832e-05
-5.18595e-05
-2.59733e-05
-6.24446e-06
-2.26264e-07
2.78027e-06
3.38895e-07
-5.98162e-06
-2.81297e-06
-5.66157e-06
-3.12388e-06
-4.18577e-06
-3.30986e-06
-2.86587e-13
3.45377e-13
-3.15876e-13
-1.88519e-12
-8.79896e-13
-2.88991e-13
2.53525e-14
-1.87387e-13
-6.10713e-13
-7.40422e-13
-8.10051e-13
-7.10881e-13
-1.61188e-12
-5.78714e-13
-1.38516e-12
-1.9813e-12
1.46846e-12
-3.07625e-13
-7.56127e-12
1.5459e-11
-3.07694e-11
9.65213e-13
7.11644e-11
-4.79517e-11
-1.54226e-10
2.61588e-10
2.1271e-11
-2.11178e-10
-6.40676e-11
3.66353e-11
1.81435e-10
-3.07699e-10
4.7882e-10
7.94977e-10
-3.35648e-09
5.72715e-09
-1.07857e-08
-1.08841e-08
-8.58856e-07
-3.80338e-06
-5.06842e-05
-4.67794e-05
2.59677e-05
-0.000123593
-0.00016628
4.1432e-05
0.000172216
0.000145334
-0.000116394
-0.000214352
-0.000124494
-0.000330919
0.00118039
0.000239938
-0.00207296
-0.000448853
0.00169384
0.000899364
-0.00141098
-0.00107338
0.0016126
0.000946267
-0.00176172
-0.000420977
0.000948049
0.000732002
-0.000375191
-0.000488226
4.2142e-05
0.000306239
0.000161337
-3.44742e-05
-0.00011137
-5.67384e-05
1.34811e-05
9.94545e-05
0.000175624
0.000228627
0.000244837
0.000206821
0.000157208
0.000116895
2.73782e-05
-2.86295e-05
-1.99246e-05
8.21284e-05
6.43338e-05
3.53519e-06
6.06245e-05
8.64989e-05
8.25811e-05
4.87103e-05
1.05858e-05
0.00010778
0.00016664
0.000110396
0.000158745
0.000167406
9.39969e-05
3.39924e-05
-7.53847e-06
0.000105308
2.68761e-05
8.13055e-05
0.000274117
3.96209e-05
-9.14953e-05
-3.43097e-05
1.39621e-05
9.25799e-06
-5.33643e-06
3.75483e-06
1.53908e-05
5.27472e-06
-1.52423e-07
-7.47241e-06
-3.98283e-06
-3.24889e-06
-3.33112e-06
-5.32855e-13
-6.51558e-13
-4.54474e-13
-3.71654e-13
-5.14901e-13
-5.75703e-13
-9.39807e-13
-6.92963e-13
-9.643e-13
-5.29612e-13
-6.37251e-13
-9.49623e-13
-6.40808e-13
-8.18988e-13
-6.5626e-13
-1.00851e-12
-7.1875e-13
-7.57271e-13
-9.27142e-13
-2.65456e-12
9.13979e-12
-2.39199e-11
1.46943e-11
2.17348e-11
-5.43263e-11
-5.25912e-12
7.48596e-11
-7.30096e-11
-8.47778e-12
-2.53485e-11
1.71928e-10
-2.05288e-10
5.23859e-11
2.69321e-10
-9.56338e-10
3.63555e-09
-1.19827e-08
1.7545e-08
-5.03769e-07
-2.17596e-06
-1.62606e-05
-7.85267e-05
0.000173094
-1.74544e-05
-0.000332779
-0.000423276
6.6955e-05
0.000646629
0.000319282
-0.000312298
-0.000487542
-0.00115842
0.00157511
0.00139255
-0.0020251
-0.00112281
0.00104155
0.00237523
-0.00244147
-0.00346407
0.0031358
0.00542376
-0.00354825
-0.00496013
0.00152708
0.00377538
0.000104045
-0.00238598
-0.00093102
0.000907557
0.000778031
-0.000216866
-0.000598239
-8.68031e-05
0.00034552
0.00039524
0.000257845
0.000212537
0.000264187
0.000194329
0.000209079
0.000196215
0.00010588
0.000198626
0.000174841
1.9047e-05
-6.24399e-05
5.17474e-06
-2.70755e-06
-2.92479e-05
-8.83253e-05
-0.000108764
5.87869e-05
8.25608e-05
-6.94906e-05
-5.75963e-05
-1.87231e-05
-4.65414e-05
-5.75489e-05
2.501e-05
0.000131354
0.000176199
1.30246e-05
0.000216576
-4.62737e-05
-0.000199279
-3.99761e-05
3.58147e-05
1.89734e-05
-4.60189e-06
2.25235e-06
2.25135e-05
3.80779e-06
-1.12719e-05
-1.16059e-05
-1.12275e-05
-4.68999e-06
-2.76873e-06
-3.46903e-06
-9.24263e-13
-9.10259e-13
-9.78804e-13
-1.0337e-12
-1.06882e-12
-7.38481e-13
-1.42857e-12
-9.24285e-13
-1.42857e-12
-4.78756e-13
-1.45114e-12
-9.40851e-13
-1.11388e-12
-1.14703e-12
-8.55111e-13
-1.48718e-12
-7.85306e-13
-1.06545e-12
9.27445e-13
-1.07513e-11
1.57904e-11
-1.94258e-11
-4.90228e-12
4.48629e-11
-5.69016e-11
-7.81574e-11
1.8881e-10
-3.29462e-11
-1.77059e-10
1.83228e-11
3.71861e-10
-1.43879e-10
-1.09738e-10
2.42327e-10
-9.74251e-10
6.27672e-10
9.68851e-10
-3.08504e-08
-1.23782e-07
-3.05519e-06
-9.64549e-06
-1.07427e-06
-0.000226009
0.000373073
0.000355214
-0.000707856
-0.000846869
0.000454079
0.000968514
0.000453368
-0.00119551
-0.00153324
0.000879416
0.00222485
-0.00174271
-0.0018584
0.0022087
0.00182822
-0.0033837
-0.00304244
0.00205402
0.00579887
0.00145614
-0.00656358
-0.00406711
0.00291223
0.00405326
0.00121883
-0.00209663
-0.00163047
2.86963e-05
0.000800198
0.000540439
0.000147791
6.74866e-05
0.00012967
0.000215254
0.000314811
0.000284334
0.000349121
0.000262553
-0.00016444
-0.000278003
-0.000161144
-3.00122e-05