/*--------------------------------*- C++ -*----------------------------------*\
| =========                 |                                                 |
| \\      /  F ield         | OpenFOAM: The Open Source CFD Toolbox           |
|  \\    /   O peration     | Version:  2.2.x                                 |
|   \\  /    A nd           | Web:      www.OpenFOAM.org                      |
|    \\/     M anipulation  |                                                 |
\*---------------------------------------------------------------------------*/
FoamFile
{
    version     2.0;
    format      ascii;
    class       volScalarField;
    location    "1.4";
    object      By;
}
// * * * * * * * * * * * * * * * * * * * * * * * * * * * * * * * * * * * * * //

dimensions      [1 0 -2 0 0 -1 0];

internalField   nonuniform List<scalar> 
14161
(
-1.78884e-05
-7.79705e-07
-2.99831e-07
4.14579e-07
-7.69883e-07
4.07141e-07
3.41201e-06
1.46633e-06
-1.94188e-06
-5.12924e-06
-2.44675e-07
8.59751e-06
5.70331e-06
-4.62878e-06
-3.8631e-06
-7.40552e-08
8.80987e-06
8.01851e-06
2.93183e-06
4.21282e-07
2.95505e-06
-5.72101e-07
1.29014e-07
3.315e-06
2.88948e-06
2.802e-06
2.89373e-06
3.64991e-06
2.16332e-06
-3.67813e-06
-6.50577e-06
-1.07346e-06
-8.23696e-06
-1.71276e-05
-1.36599e-05
-9.91482e-06
-2.08936e-05
-4.13569e-06
-5.30453e-05
-5.00273e-05
-0.000251802
-0.000538561
-0.00109325
-0.00194286
-0.00270055
-0.00668575
-0.0118797
-0.0742778
-0.199543
-0.0568571
0.0356711
0.0317312
0.0299376
0.0252192
0.0219592
0.0182675
0.0157494
0.0131975
0.0120691
0.0111963
0.00984776
0.0100237
0.00849691
0.00804584
0.00819379
0.00758238
0.00661158
0.00557854
0.0058125
0.00627137
0.00687952
0.00732205
0.00728162
0.00631339
0.00504116
0.00431428
0.00633041
0.0105013
0.00936876
0.00563194
0.00434755
0.00722008
0.00678419
0.00720092
0.0051703
0.00687167
0.00165449
-0.00156316
0.0044708
0.0108167
0.0220489
0.0515462
0.0973439
0.102971
0.0934344
0.0717339
0.0588777
0.043993
0.0358273
0.0272559
0.0223549
0.0181633
0.0132001
0.00858936
0.00582814
0.00462744
0.00694301
0.00736357
0.00945164
0.0105922
0.0120926
0.0141264
0.0145582
0.0174028
0.0161064
0.0148356
0.0132855
0.0142835
0.0151899
-3.20677e-05
9.16062e-07
-1.71892e-06
-5.36363e-07
-8.14473e-07
6.00959e-07
2.4772e-06
1.69655e-06
1.21756e-06
4.36681e-06
1.42627e-06
-2.31154e-06
4.93763e-06
6.0628e-06
6.46738e-06
5.11047e-06
6.02396e-06
1.61461e-06
1.46002e-05
1.55512e-05
1.53456e-05
1.73355e-05
2.17623e-05
2.73229e-05
3.21919e-05
3.73468e-05
4.0897e-05
4.78517e-05
5.47082e-05
6.41417e-05
7.26593e-05
8.3587e-05
9.93041e-05
0.000109416
0.000141306
0.000157997
0.000132793
0.000148623
0.000138279
3.46607e-05
-4.56264e-06
-0.000194416
-0.000541522
-0.00172887
-0.00274562
-0.0104281
-0.011626
-0.12115
-0.286162
-0.00599665
0.0249669
0.0113404
-0.00617888
-0.0111384
-0.0187821
-0.0219008
-0.0220793
-0.0234824
-0.0227379
-0.020774
-0.0209686
-0.0197043
-0.0197011
-0.0173699
-0.0147033
-0.0121232
-0.00988226
-0.00905064
-0.00938762
-0.00976076
-0.00939168
-0.00844299
-0.00648241
-0.00464431
-0.00285196
-0.00169129
-0.00268701
-0.0035838
-0.00163863
0.00609214
0.00689845
0.00627984
0.0064872
0.0101986
0.00236091
-0.00380363
0.0063455
0.00702117
0.00581948
0.0295186
0.0806566
0.114905
0.156656
0.148435
0.129249
0.100662
0.0794406
0.0675323
0.055765
0.0474402
0.0406199
0.0362611
0.0349197
0.0368098
0.0387868
0.0375606
0.0373156
0.034654
0.0360515
0.0368933
0.0388147
0.0433345
0.042074
0.0511403
0.0454576
0.0503839
0.0383497
0.0471881
0.0382961
-5.38516e-05
-2.39117e-06
-4.07264e-06
3.64119e-07
-4.33595e-07
1.32742e-06
2.94651e-06
-5.30989e-07
3.64024e-06
5.74794e-06
2.63041e-06
1.01631e-06
9.99728e-06
1.28664e-06
8.98459e-06
1.25663e-05
2.0291e-05
8.83308e-06
2.01464e-05
2.02171e-05
2.30434e-05
1.8738e-05
2.50512e-05
3.83727e-05
4.38061e-05
5.27134e-05
5.51062e-05
6.16177e-05
6.19828e-05
6.9651e-05
8.7499e-05
8.00922e-05
8.96011e-05
9.42975e-05
0.000137932
0.00015522
0.000145263
0.000162842
0.000175812
0.000131598
-0.000130967
-0.000626449
-0.0014502
-0.00321351
-0.00536151
-0.0144656
-0.0253209
-0.138916
-0.293504
-0.113344
0.0198169
0.0231938
0.0203613
0.00905625
-0.00195417
-0.00231009
-0.0061435
-0.0131871
-0.012806
-0.00723772
-0.0105184
-0.0102225
-0.011175
-0.00768933
-0.00410609
-0.0029963
-0.00196477
-0.000565202
0.000613949
0.00138128
0.0019351
0.00222725
0.00201021
0.00220568
0.00223903
0.00462321
0.00789023
0.0135511
0.0152502
0.02045
0.0221962
0.0194103
0.0118433
0.0123965
0.0305847
0.0573956
0.0769007
0.0998553
0.128574
0.12887
0.155196
0.174395
0.19022
0.19373
0.163955
0.133294
0.10882
0.091924
0.074645
0.0660659
0.0590838
0.0560878
0.0500369
0.0460903
0.0466594
0.0461927
0.0503345
0.0501655
0.0562312
0.0575385
0.0646966
0.070904
0.0717343
0.0829861
0.0762376
0.0807495
0.0654759
0.0785713
0.0657003
-6.19758e-05
-3.72703e-06
-5.68059e-06
-3.00906e-07
-9.30787e-07
1.36023e-06
4.43664e-06
1.17448e-06
2.60473e-06
1.31988e-05
2.96923e-06
9.17674e-07
1.16051e-05
8.49261e-06
1.47734e-05
1.30933e-05
2.11047e-05
1.26769e-05
2.86261e-05
2.72117e-05
3.88351e-05
3.81341e-05
4.81326e-05
6.71245e-05
7.29497e-05
8.3224e-05
9.28552e-05
0.000104229
0.000125013
0.000135943
0.000147048
0.00018399
0.000212813
0.000236431
0.00026809
0.000323255
0.000346207
0.000353171
0.000265679
0.000177326
1.7671e-05
-0.000460246
-0.000572895
-0.00184137
-0.0024351
-0.0043988
-0.0098519
-0.0425833
-0.14267
-0.0571436
-0.0403511
-0.0421452
-0.0465784
-0.0573489
-0.0614517
-0.0641125
-0.0648522
-0.0620124
-0.0593787
-0.056229
-0.0537328
-0.0441515
-0.0467963
-0.0373567
-0.0286851
-0.0228593
-0.0178333
-0.0146315
-0.0116702
-0.00986131
-0.00898896
-0.00867578
-0.00948076
-0.00931839
-0.0064774
-0.000550891
0.00816112
0.0172205
0.0276935
0.040279
0.0424122
0.0475446
0.0607146
0.0871962
0.118134
0.162642
0.186491
0.212303
0.213645
0.229065
0.237478
0.23145
0.226206
0.192595
0.162043
0.131086
0.107603
0.0899006
0.0753117
0.0665074
0.0607197
0.0577095
0.0611185
0.0638011
0.0665634
0.0668311
0.0716402
0.0685542
0.0788951
0.0822126
0.089224
0.0962677
0.0984055
0.113507
0.106316
0.110622
0.0931668
0.110956
0.0880768
-7.48086e-05
-6.16537e-06
-7.31253e-06
9.98544e-08
-3.75784e-07
1.64697e-06
5.05048e-06
9.09729e-07
4.58969e-06
1.15101e-05
5.66772e-06
2.60434e-06
1.65923e-05
5.81336e-06
1.68977e-05
1.80658e-05
3.33897e-05
1.72615e-05
4.00037e-05
3.36889e-05
5.02883e-05
4.48157e-05
6.08715e-05
7.8923e-05
8.81633e-05
9.72951e-05
0.000106223
0.000120217
0.000133696
0.00014412
0.000164924
0.000185939
0.00021455
0.000255913
0.000299941
0.000344944
0.000417168
0.000485208
0.000489876
0.000496635
0.00065548
0.000534735
0.00058267
0.000169371
0.000667838
0.000223376
0.00117762
0.00657974
0.023674
-0.0288429
-0.08369
-0.107862
-0.11122
-0.116312
-0.114908
-0.110875
-0.107936
-0.103969
-0.0937948
-0.0881726
-0.0848878
-0.0666767
-0.0657467
-0.0513334
-0.0371489
-0.0294081
-0.021931
-0.0165746
-0.0140425
-0.0129882
-0.0119338
-0.0112893
-0.0101271
-0.00863551
-0.00464704
0.00262624
0.0131926
0.0326981
0.0563454
0.0694975
0.0807113
0.10251
0.131265
0.17244
0.206647
0.264173
0.297328
0.311754
0.312119
0.321752
0.315009
0.289258
0.265713
0.222665
0.177687
0.140079
0.115011
0.0937218
0.082922
0.0756913
0.075534
0.0708332
0.0713241
0.0668273
0.0736678
0.076442
0.0865309
0.087292
0.0959261
0.0927901
0.105026
0.108587
0.11687
0.127963
0.122378
0.131065
0.113421
0.131648
0.10619
-7.75977e-05
-8.59456e-06
-8.64388e-06
-7.08944e-07
-1.21164e-06
2.28018e-06
6.18499e-06
3.41928e-06
6.24822e-06
1.06168e-05
8.80485e-06
8.12914e-07
2.23258e-05
1.49702e-05
2.28018e-05
1.86129e-05
4.06969e-05
2.41503e-05
4.76305e-05
3.91023e-05
6.87238e-05
5.74825e-05
8.41419e-05
9.75494e-05
0.0001133
0.000128169
0.000148906
0.000169704
0.000192374
0.000212132
0.000257103
0.000287605
0.00034324
0.000380457
0.000416047
0.00046606
0.000497333
0.000508352
0.000505408
0.000533941
0.000484475
0.000569698
0.000373817
-3.57857e-05
5.25189e-05
0.000912028
0.01114
0.0744108
0.213167
0.0285706
-0.125931
-0.186789
-0.19097
-0.178257
-0.179883
-0.157385
-0.149832
-0.150813
-0.130219
-0.119428
-0.112004
-0.0957664
-0.0856593
-0.067466
-0.0533489
-0.0408347
-0.0333858
-0.0276651
-0.0230805
-0.0199013
-0.0189818
-0.0172908
-0.0162501
-0.0147545
-0.0104403
-0.00264384
0.0124092
0.0375315
0.0615724
0.0884534
0.117819
0.157953
0.19226
0.246655
0.305777
0.36047
0.374811
0.397872
0.409173
0.371153
0.376452
0.334543
0.298679
0.252575
0.202695
0.164678
0.133417
0.107105
0.0913588
0.0813389
0.0784593
0.0795436
0.0817332
0.0892956
0.0930459
0.0970484
0.105068
0.102245
0.11246
0.112024
0.120354
0.122584
0.129447
0.139001
0.135267
0.144506
0.126785
0.147178
0.118646
-8.47789e-05
-9.9219e-06
-9.70643e-06
-2.45946e-07
1.0019e-07
2.879e-06
6.40959e-06
3.99701e-06
6.14799e-06
1.4011e-05
1.00433e-05
5.91565e-06
2.3835e-05
1.32497e-05
2.49964e-05
2.33552e-05
4.67795e-05
3.03691e-05
5.53886e-05
4.83907e-05
7.71705e-05
7.34694e-05
9.86521e-05
0.000113347
0.000131637
0.000146471
0.000165475
0.000181989
0.000210358
0.00023357
0.000255521
0.000296547
0.000356274
0.000410479
0.000466566
0.000568393
0.00067179
0.000796059
0.00103045
0.00130979
0.00159547
0.00227262
0.00348755
0.00581628
0.00724108
0.0139464
0.0252881
0.138142
0.34617
0.0690379
-0.17018
-0.238699
-0.262938
-0.242876
-0.235239
-0.210164
-0.194893
-0.175817
-0.154617
-0.14521
-0.125128
-0.104523
-0.0940611
-0.0744676
-0.0560975
-0.0416606
-0.0331762
-0.0234534
-0.017289
-0.0152306
-0.0131238
-0.0127679
-0.0111013
-0.00841537
-0.0016205
0.00702457
0.0220647
0.0439577
0.0751329
0.119663
0.15756
0.200013
0.256681
0.334506
0.379566
0.412915
0.452226
0.451895
0.474872
0.460878
0.473184
0.426656
0.373553
0.313181
0.255095
0.195956
0.156562
0.12245
0.105561
0.0952763
0.0924927
0.0973001
0.100018
0.108508
0.113329
0.121517
0.126427
0.132348
0.138127
0.13643
0.13778
0.134867
0.14056
0.143767
0.139306
0.14737
0.133716
0.15279
0.130823
-8.28205e-05
-1.09425e-05
-1.11433e-05
-1.46107e-06
-5.2785e-07
4.10676e-06
8.47739e-06
3.93881e-06
7.02116e-06
1.73862e-05
9.11849e-06
9.26517e-06
2.58366e-05
1.69908e-05
2.71255e-05
2.87813e-05
5.88408e-05
4.40223e-05
6.29531e-05
5.61227e-05
8.75776e-05
8.65832e-05
0.000118376
0.000133163
0.000157168
0.000177426
0.000205154
0.000228436
0.000267073
0.000301752
0.000347591
0.000390744
0.00043643
0.000508621
0.000559204
0.000621121
0.000687598
0.000745559
0.000799076
0.000896195
0.000903016
0.00116741
0.000976581
0.00141778
0.00106398
0.00407377
0.00829823
0.115881
0.407184
0.0754442
-0.200534
-0.274255
-0.293787
-0.283171
-0.261687
-0.235264
-0.225195
-0.200193
-0.1726
-0.163859
-0.142936
-0.125354
-0.102266
-0.0791188
-0.0616036
-0.048726
-0.0399387
-0.0298004
-0.0242363
-0.0204313
-0.0198486
-0.0183457
-0.0156776
-0.0132452
-0.00862419
0.00117303
0.0180988
0.0468662
0.0860356
0.130809
0.180314
0.239937
0.311792
0.389796
0.438666
0.475764
0.515524
0.521255
0.54717
0.547491
0.513903
0.495534
0.443175
0.394973
0.309911
0.23501
0.186627
0.146259
0.127169
0.110349
0.106371
0.108001
0.117458
0.127689
0.133812
0.147626
0.150527
0.160454
0.16249
0.159622
0.161695
0.156909
0.154018
0.150089
0.147147
0.152222
0.138778
0.156644
0.137527
-8.58888e-05
-1.11872e-05
-1.12315e-05
-7.20184e-07
5.24611e-07
4.58107e-06
6.91189e-06
8.27014e-06
7.72654e-06
1.4789e-05
1.39521e-05
1.19763e-05
2.53444e-05
2.46568e-05
3.16105e-05
3.38059e-05
5.66482e-05
4.90976e-05
7.29771e-05
7.11066e-05
9.40372e-05
0.000108115
0.000136608
0.000157656
0.000184414
0.000200744
0.000227764
0.000252593
0.000287399
0.000320232
0.000365353
0.000418406
0.000491133
0.000543533
0.000650613
0.000768424
0.000920247
0.0010911
0.00137258
0.00168182
0.00219895
0.00294167
0.00396399
0.0056854
0.00688182
0.0115945
0.018846
0.0895748
0.332652
0.0565445
-0.304633
-0.351238
-0.350876
-0.336083
-0.305267
-0.271282
-0.251426
-0.218264
-0.191252
-0.166343
-0.145918
-0.128468
-0.103027
-0.0803952
-0.0575585
-0.046257
-0.0364847
-0.0281486
-0.0201348
-0.0160038
-0.0149136
-0.0142813
-0.0134951
-0.0106518
-0.00508315
0.00637317
0.0251669
0.0530942
0.0941693
0.143652
0.214369
0.296909
0.364202
0.447178
0.497712
0.536665
0.571742
0.592006
0.584449
0.622017
0.593818
0.60395
0.559226
0.487962
0.395205
0.309392
0.239595
0.18055
0.147779
0.127286
0.121698
0.121668
0.133301
0.151139
0.159715
0.176375
0.175384
0.190678
0.18835
0.192888
0.186718
0.172459
0.164636
0.1611
0.155193
0.153731
0.143136
0.159659
0.143085
-8.11279e-05
-1.08244e-05
-1.21137e-05
-1.61278e-06
3.78462e-07
5.72197e-06
9.36767e-06
7.21179e-06
1.09552e-05
1.55699e-05
1.60777e-05
1.75061e-05
2.58349e-05
2.84174e-05
3.41834e-05
4.01703e-05
6.40413e-05
6.27968e-05
7.82456e-05
8.34217e-05
0.000104698
0.000120471
0.000148373
0.000176227
0.000199725
0.000225177
0.000254833
0.000293881
0.00033834
0.000374461
0.000433674
0.000488578
0.000551379
0.000607225
0.000665784
0.000750215
0.00082413
0.000914024
0.000989896
0.00105805
0.00105603
0.0010497
0.00124066
0.00083752
0.00144458
0.000352007
0.00405307
0.0120666
0.0885443
-0.0875997
-0.290195
-0.338538
-0.336468
-0.33299
-0.313687
-0.288121
-0.261132
-0.229202
-0.201942
-0.172975
-0.151128
-0.128782
-0.104889
-0.0807615
-0.0603241
-0.0460876
-0.036663
-0.0287951
-0.0220697
-0.0196219
-0.0179623
-0.0164456
-0.0150121
-0.0119932
-0.0061507
0.00578656
0.0266604
0.05404
0.0983261
0.158838
0.249432
0.351009
0.432221
0.496804
0.553669
0.595462
0.626406
0.648356
0.647041
0.680566
0.66622
0.663536
0.63571
0.58969
0.519281
0.411506
0.305317
0.22664
0.177966
0.151194
0.141846
0.14312
0.149778
0.16735
0.176462
0.198386
0.199563
0.220832
0.215258
0.221838
0.209584
0.19623
0.183788
0.169465
0.16176
0.157237
0.148795
0.160821
0.149239
-8.0668e-05
-9.72889e-06
-1.11178e-05
-6.62135e-07
1.30612e-06
6.11788e-06
9.24646e-06
9.58605e-06
1.12601e-05
1.48142e-05
1.94937e-05
1.75197e-05
2.63845e-05
3.41547e-05
3.99685e-05
4.61539e-05
6.19366e-05
7.28948e-05
8.74671e-05
0.000100259
0.000117098
0.000142781
0.000172314
0.000201424
0.00023293
0.000256255
0.000287982
0.000325201
0.000370094
0.000414896
0.000461537
0.000517599
0.000583891
0.00067737
0.000758505
0.00086489
0.000975014
0.00109304
0.0012059
0.00135575
0.00136492
0.00140909
0.001103
0.000544566
0.000167993
-0.00157725
-0.00559401
-0.0301945
-0.198517
-0.433774
-0.356738
-0.313289
-0.307516
-0.316606
-0.30364
-0.282217
-0.256776
-0.228035
-0.200377
-0.173613
-0.149638
-0.123886
-0.0996732
-0.0766253
-0.0590218
-0.044345
-0.0332923
-0.0257209
-0.0206671
-0.0178727
-0.0163125
-0.0146843
-0.0127917
-0.009338
-0.00290439
0.0105407
0.0307431
0.0612255
0.11042
0.183342
0.299669
0.411917
0.494772
0.552638
0.610859
0.652199
0.675815
0.710059
0.725232
0.731572
0.726277
0.723474
0.709674
0.672354
0.622323
0.526606
0.402117
0.301335
0.225785
0.182703
0.161475
0.158124
0.164454
0.184865
0.199832
0.221175
0.226956
0.247129
0.243643
0.255824
0.241634
0.221013
0.203651
0.183172
0.174873
0.162111
0.154374
0.16174
0.156935
-7.43227e-05
-8.43608e-06
-1.11039e-05
-1.13988e-06
1.37439e-06
7.57711e-06
9.63695e-06
1.09623e-05
1.213e-05
1.65517e-05
2.17493e-05
2.14418e-05
3.04347e-05
3.75735e-05
4.14042e-05
5.2905e-05
7.17031e-05
8.21724e-05
9.08018e-05
0.000112332
0.00012482
0.000152879
0.000181776
0.000212611
0.000247935
0.000272763
0.000308374
0.000353602
0.000401165
0.00045899
0.000508837
0.000560275
0.000620973
0.000698778
0.000785354
0.000864739
0.000934613
0.000976948
0.00102649
0.00100733
0.00116847
0.00100984
0.00104078
0.000691646
0.000277806
-0.000992687
-0.00944234
-0.069746
-0.417973
-0.614004
-0.458522
-0.363486
-0.335435
-0.34494
-0.328199
-0.303216
-0.273349
-0.245464
-0.215656
-0.185593
-0.156323
-0.126498
-0.0991281
-0.0761679
-0.0594736
-0.0442296
-0.0325332
-0.0248048
-0.0221029
-0.0186325
-0.0164307
-0.0144182
-0.0116242
-0.00814717
-0.00178346
0.0109793
0.0338923
0.0666431
0.124894
0.227734
0.365618
0.462496
0.548769
0.614624
0.665311
0.697476
0.72784
0.746515
0.772464
0.777212
0.784223
0.783268
0.779586
0.749548
0.711021
0.630066
0.525422
0.376846
0.274423
0.211808
0.181865
0.173967
0.180427
0.196674
0.211471
0.237227
0.246144
0.269874
0.269625
0.283474
0.271582
0.256204
0.229939
0.207813
0.191062
0.168415
0.163831
0.165791
0.164584
-7.11469e-05
-6.08781e-06
-9.27917e-06
-6.58231e-08
2.36713e-06
7.76664e-06
8.96223e-06
1.36343e-05
1.28464e-05
1.58949e-05
2.48371e-05
2.2547e-05
2.97645e-05
4.28352e-05
4.98651e-05
5.59733e-05
6.93758e-05
9.48834e-05
0.000100199
0.000128598
0.000140819
0.000179332
0.00020557
0.000242544
0.000277306
0.000309836
0.000349775
0.000391623
0.000442131
0.000497432
0.000561141
0.000619428
0.000673797
0.000746552
0.00082411
0.000901247
0.000981702
0.00101936
0.00115744
0.00103726
0.00123457
0.00100002
0.00121329
0.000689681
0.00123983
-0.0011075
-0.0115537
-0.110981
-0.554271
-0.705821
-0.630578
-0.484785
-0.411706
-0.382456
-0.348434
-0.321237
-0.287108
-0.256095
-0.220849
-0.1935
-0.160585
-0.129278
-0.0958383
-0.0714518
-0.0585949
-0.0429148
-0.0319961
-0.0250266
-0.0221952
-0.0193314
-0.0169254
-0.0145888
-0.0126687
-0.00863294
-0.00107691
0.0135034
0.0388034
0.0836783
0.16262
0.306005
0.427734
0.540711
0.604514
0.670657
0.706299
0.743435
0.773949
0.803234
0.810547
0.816399
0.829174
0.824757
0.819013
0.795117
0.762885
0.714148
0.635788
0.498655
0.360129
0.264293
0.217068
0.195519
0.198219
0.211434
0.228697
0.254393
0.269732
0.292271
0.296284
0.313462
0.308077
0.302242
0.26473
0.236103
0.211774
0.180684
0.175312
0.170191
0.173097
-6.41072e-05
-3.83997e-06
-7.99664e-06
2.9477e-07
2.57647e-06
9.31906e-06
1.05381e-05
1.5069e-05
1.57115e-05
1.58017e-05
2.70518e-05
2.99396e-05
3.13519e-05
4.52311e-05
5.46284e-05
6.11382e-05
7.88846e-05
0.00010134
0.000108619
0.000135703
0.000149788
0.000184242
0.000210587
0.000253208
0.000289968
0.000325473
0.000360668
0.000406714
0.000459374
0.000519399
0.000580201
0.000640636
0.000700819
0.000765231
0.000830996
0.000921568
0.00102309
0.001065
0.00121046
0.00126606
0.00147881
0.00150687
0.00194552
0.00178286
0.00254203
-0.000278969
-0.0144787
-0.172916
-0.69641
-0.774972
-0.738081
-0.611203
-0.490789
-0.42202
-0.364122
-0.337503
-0.303393
-0.268911
-0.233163
-0.203076
-0.168495
-0.131853
-0.0978221
-0.0747078
-0.0579534
-0.0419811
-0.029735
-0.0221548
-0.0207747
-0.0196114
-0.018063
-0.0158292
-0.0137517
-0.0085088
0.000124321
0.0175208
0.0458315
0.10769
0.230822
0.403695
0.524796
0.596411
0.678693
0.710411
0.754137
0.788649
0.811635
0.827843
0.844595
0.860138
0.869534
0.868374
0.859724
0.853662
0.829421
0.788961
0.715759
0.603006
0.452623
0.329149
0.25029
0.218505
0.213693
0.223554
0.240267
0.265215
0.282771
0.307581
0.316697
0.335288
0.336836
0.335325
0.304721
0.278458
0.244413
0.202054
0.190494
0.176997
0.185668
-5.855e-05
-7.17809e-07
-5.56139e-06
1.85514e-06
3.96182e-06
9.54636e-06
1.02369e-05
1.64442e-05
1.64747e-05
1.64855e-05
2.98585e-05
2.87985e-05
3.40111e-05
4.85824e-05
6.44616e-05
6.68584e-05
7.9805e-05
0.000109268
0.000121087
0.000147235
0.000170022
0.000207866
0.000239779
0.000277166
0.000314786
0.000361774
0.000401098
0.000447156
0.00050745
0.000572129
0.000635615
0.000701555
0.000754365
0.00080426
0.000865778
0.000958527
0.00103908
0.00108458
0.00111675
0.00115938
0.00129104
0.00111796
0.00122377
0.000714745
0.000435401
-0.00597619
-0.0375681
-0.312122
-0.789151
-0.806266
-0.794251
-0.732852
-0.615352
-0.488193
-0.408566
-0.372314
-0.325407
-0.288219
-0.246808
-0.2102
-0.168967
-0.131589
-0.0977736
-0.0753776
-0.0564788
-0.0412722
-0.0276677
-0.0211625
-0.0209694
-0.0198101
-0.0180099
-0.0149065
-0.0118044
-0.00695933
0.00347001
0.0242352
0.0657107
0.154706
0.319144
0.499236
0.611322
0.676203
0.744617
0.777001
0.805251
0.833352
0.848731
0.868585
0.877457
0.882859
0.890768
0.898139
0.895278
0.886895
0.872421
0.843221
0.791636
0.708161
0.577569
0.41631
0.300077
0.251857
0.234095
0.239141
0.253865
0.280599
0.301367
0.328162
0.341787
0.361081
0.363499
0.370491
0.348965
0.320148
0.278871
0.226921
0.204394
0.188777
0.197735
-5.12263e-05
2.51254e-06
-3.44589e-06
2.69226e-06
4.38162e-06
1.13927e-05
1.08485e-05
1.87637e-05
1.80643e-05
1.70332e-05
2.99551e-05
3.6742e-05
3.47115e-05
5.20137e-05
6.47685e-05
7.29852e-05
8.73286e-05
0.000116216
0.000130478
0.000148969
0.000177869
0.000213149
0.000245373
0.000284849
0.000329051
0.000376786
0.000407681
0.00044482
0.000510507
0.000583209
0.000643877
0.000714383
0.0007715
0.000831041
0.000894203
0.00099859
0.00105564
0.00118656
0.00121332
0.00135642
0.00127512
0.00138222
0.00118452
0.00116317
-0.000344616
-0.00800966
-0.0705216
-0.473941
-0.805218
-0.827578
-0.820864
-0.784009
-0.72494
-0.608366
-0.501108
-0.418391
-0.364059
-0.314865
-0.266539
-0.220938
-0.175821
-0.13497
-0.100163
-0.0756775
-0.056524
-0.0398683
-0.0266039
-0.0225408
-0.0216083
-0.0212919
-0.0186552
-0.0150663
-0.0126716
-0.00805986
0.00525698
0.0350884
0.106832
0.2753
0.474934
0.600778
0.692243
0.749
0.786506
0.80905
0.847018
0.86616
0.893002
0.903784
0.912788
0.914873
0.924471
0.926324
0.931083
0.924703
0.910995
0.884413
0.848189
0.784099
0.668533
0.500785
0.358705
0.289912
0.255232
0.251608
0.264471
0.289023
0.311386
0.341595
0.359829
0.38134
0.388586
0.399016
0.388784
0.365
0.320708
0.258826
0.228324
0.20511
0.215139
-4.4356e-05
6.08127e-06
-4.12077e-07
4.86551e-06
6.1469e-06
1.13495e-05
1.23637e-05
1.74724e-05
2.17601e-05
1.77843e-05
3.2311e-05
3.42139e-05
3.89854e-05
5.3006e-05
7.55986e-05
7.70165e-05
9.00494e-05
0.000119619
0.000147298
0.000162583
0.000194506
0.000234005
0.000270328
0.000305915
0.000350512
0.000400362
0.000451814
0.000496596
0.000546256
0.000614369
0.000694525
0.000745692
0.000813683
0.000849378
0.000902047
0.000979649
0.00105336
0.00115491
0.00121083
0.00141397
0.00145218
0.00179373
0.00203256
0.00263032
0.00097279
-0.00956088
-0.113831
-0.590516
-0.815647
-0.838512
-0.834052
-0.815258
-0.783412
-0.718295
-0.632483
-0.508828
-0.43497
-0.354902
-0.296976
-0.237155
-0.18344
-0.137012
-0.0989291
-0.0751227
-0.0549921
-0.0375175
-0.0257647
-0.0236551
-0.0240224
-0.023613
-0.0204645
-0.016089
-0.0161427
-0.00681089
0.0198926
0.0813716
0.209885
0.422635
0.615881
0.703629
0.780721
0.821585
0.843982
0.871965
0.887247
0.901282
0.907106
0.918628
0.930493
0.937438
0.943848
0.943899
0.949068
0.947941
0.941185
0.925961
0.896392
0.845784
0.753325
0.61164
0.442284
0.336884
0.287115
0.276175
0.28723
0.306367
0.32917
0.35967
0.38027
0.403687
0.413011
0.426878
0.423872
0.404886
0.359563
0.295961
0.259992
0.22576
0.23505
-3.70585e-05
1.01164e-05
2.27379e-06
6.44889e-06
7.23022e-06
1.33929e-05
1.27017e-05
2.00469e-05
2.13727e-05
2.07569e-05
3.18902e-05
4.24153e-05
4.00063e-05
5.51381e-05
7.42244e-05
8.73549e-05
9.81891e-05
0.000125483
0.000150856
0.000168085
0.000196743
0.000245182
0.000272945
0.000311226
0.000358327
0.000410444
0.000460365
0.000501625
0.000535621
0.000606737
0.000678375
0.000761239
0.000819336
0.000891865
0.000939183
0.00104841
0.00114369
0.00128986
0.00134397
0.00156858
0.00153235
0.00193395
0.00148136
0.002168
-0.00150086
-0.0207079
-0.21443
-0.738466
-0.819366
-0.828909
-0.827672
-0.822505
-0.810021
-0.779915
-0.715584
-0.644253
-0.519545
-0.430845
-0.334029
-0.255225
-0.188213
-0.136945
-0.099678
-0.074093
-0.0516635
-0.0338878
-0.0196645
-0.0207994
-0.0225585
-0.0250783
-0.0191601
-0.00284416
0.0135931
0.0411687
0.11232
0.259702
0.457636
0.594613
0.706736
0.771504
0.820555
0.851004
0.889455
0.910709
0.926774
0.937731
0.941551
0.948163
0.959454
0.965328
0.974624
0.973165
0.977305
0.974861
0.966501
0.957874
0.932652
0.891146
0.818441
0.698608
0.527387
0.393812
0.320582
0.294882
0.299209
0.314696
0.338955
0.370488
0.39349
0.41934
0.430967
0.447584
0.450285
0.438117
0.398953
0.335227
0.297135
0.250716
0.258484
-2.98939e-05
1.36868e-05
5.57887e-06
8.94243e-06
9.11243e-06
1.35603e-05
1.4522e-05
1.95431e-05
2.39493e-05
2.14184e-05
3.3143e-05
3.98933e-05
4.50421e-05
5.69751e-05
8.07416e-05
8.88511e-05
0.000103157
0.0001305
0.000163451
0.000182237
0.000211985
0.000252396
0.000300157
0.000330142
0.000372774
0.000426684
0.000481334
0.000542531
0.000585346
0.000639843
0.000714147
0.000776049
0.000840795
0.00090338
0.000899188
0.000918512
0.000970476
0.00104077
0.000985652
0.000890427
0.000635326
0.000309712
-0.000504467
-0.00165362
-0.00880295
-0.0495249
-0.373333
-0.800493
-0.825925
-0.828758
-0.828553
-0.825161
-0.823643
-0.810782
-0.784136
-0.719843
-0.648299
-0.514099
-0.410366
-0.287744
-0.20453
-0.133933
-0.0876159
-0.0720501
-0.0485566
-0.0347512
-0.0131125
0.000433823
0.0035828
0.0170666
0.0461618
0.0926372
0.19063
0.284434
0.379074
0.473381
0.581611
0.654468
0.727425
0.785518
0.832274
0.867293
0.89557
0.912208
0.928066
0.942708
0.960049
0.971151
0.972919
0.979174
0.98065
0.988045
0.990767
0.994803
0.995308
0.985687
0.968058
0.934165
0.874386
0.772442
0.61398
0.44618
0.357007
0.320761
0.318575
0.33111
0.354375
0.385204
0.409263
0.438397
0.452136
0.470712
0.475711
0.468362
0.436133
0.378717
0.339979
0.279506
0.280722
-2.20899e-05
1.85816e-05
9.20448e-06
1.12068e-05
1.08702e-05
1.52815e-05
1.58526e-05
1.99498e-05
2.50987e-05
2.42715e-05
3.23628e-05
4.72827e-05
4.61626e-05
5.59711e-05
8.20935e-05
9.85869e-05
0.000107877
0.000134995
0.00016719
0.000185052
0.000216494
0.000260392
0.000305937
0.000336077
0.000379216
0.000432755
0.000487216
0.000539791
0.000563054
0.000624066
0.00069792
0.000778753
0.000860631
0.000911199
0.000988048
0.00103695
0.00116669
0.00127271
0.00141904
0.0015361
0.00170066
0.00184412
0.00211422
0.000764785
-0.00760467
-0.0877891
-0.535445
-0.812515
-0.84483
-0.846029
-0.844393
-0.840347
-0.83609
-0.829265
-0.818323
-0.792073
-0.731881
-0.628252
-0.5069
-0.348407
-0.219701
-0.123407
-0.0703586
-0.0344104
-0.0168835
0.037478
0.0606075
0.141485
0.212109
0.24128
0.277432
0.33378
0.407232
0.46374
0.520284
0.568495
0.619416
0.661758
0.70555
0.746427
0.78924
0.827088
0.86671
0.908302
0.948385
0.967528
0.977422
0.98825
0.997579
1.00515
1.00676
1.01167
1.01626
1.01651
1.01219
1.00136
0.992206
0.964422
0.919897
0.837475
0.701647
0.521354
0.403948
0.348851
0.337667
0.347868
0.369175
0.398749
0.424404
0.454813
0.470479
0.490026
0.497123
0.494512
0.471661
0.42384
0.38114
0.309072
0.303329
-1.55176e-05
2.20499e-05
1.24234e-05
1.37601e-05
1.2818e-05
1.60329e-05
1.66391e-05
1.96834e-05
2.56963e-05
2.57703e-05
3.23282e-05
4.37067e-05
5.14772e-05
6.03075e-05
8.28186e-05
0.000101229
0.000113008
0.000138109
0.000175596
0.000200897
0.000223781
0.000264624
0.000315372
0.000354849
0.000386641
0.000439543
0.000492447
0.000559107
0.000607227
0.000640538
0.000704385
0.000779065
0.000835393
0.000873844
0.000912354
0.000880629
0.000925852
0.000950004
0.0011379
0.00112773
0.00143646
0.00115653
0.00159091
-0.00128487
-0.0155438
-0.16353
-0.68669
-0.827235
-0.846758
-0.850121
-0.850019
-0.850845
-0.847766
-0.840301
-0.830037
-0.814316
-0.794017
-0.727747
-0.60142
-0.429688
-0.216652
-0.054636
0.0137979
0.132271
0.172598
0.235909
0.286314
0.338913
0.39858
0.424504
0.442936
0.465154
0.505686
0.536661
0.569013
0.595627
0.626015
0.651154
0.678021
0.70566
0.73527
0.780722
0.831206
0.87416
0.918485
0.944544
0.959813
0.975993
0.991302
1.00379
1.01874
1.02396
1.02984
1.03801
1.03449
1.02884
1.01684
0.994971
0.957867
0.886908
0.766249
0.586829
0.446458
0.376505
0.354316
0.363196
0.381705
0.410114
0.436689
0.469077
0.487424
0.508931
0.517019
0.518959
0.505509
0.468357
0.421156
0.339928
0.325245
-6.40914e-06
2.74216e-05
1.6343e-05
1.66081e-05
1.51888e-05
1.79502e-05
1.81163e-05
1.98366e-05
2.82258e-05
2.65336e-05
3.41103e-05
4.89888e-05
5.29104e-05
5.79119e-05
8.57437e-05
0.000107488
0.000116568
0.000142682
0.000176954
0.000207007
0.000227179
0.000272923
0.000321453
0.000358671
0.000386898
0.000444267
0.000497507
0.000559309
0.000585576
0.000619859
0.000678611
0.000761425
0.000837111
0.000894459
0.000961055
0.000980919
0.00109352
0.00106734
0.00124471
0.00123037
0.00124582
0.00070086
1.35209e-05
-0.00675141
-0.0409285
-0.324476
-0.801597
-0.838343
-0.842475
-0.842643
-0.84351
-0.846854
-0.848975
-0.848741
-0.842646
-0.83006
-0.815227
-0.766267
-0.650722
-0.392635
-0.0556007
0.140813
0.286951
0.321998
0.390379
0.410542
0.440439
0.463552
0.484191
0.502675
0.528687
0.538603
0.556978
0.570856
0.591012
0.609198
0.627625
0.645054
0.662227
0.684373
0.705975
0.737508
0.770223
0.818957
0.870772
0.919949
0.966927
0.994233
1.01136
1.02023
1.03145
1.04131
1.04458
1.04088
1.04096
1.0425
1.03198
1.01759
0.987645
0.932524
0.829266
0.665467
0.498205
0.410776
0.378146
0.3833
0.399068
0.425107
0.451498
0.484822
0.505925
0.529774
0.538137
0.544568
0.538226
0.512136
0.459206
0.373255
0.34897
-6.90117e-07
3.07853e-05
1.95542e-05
1.9075e-05
1.74015e-05
1.83848e-05
1.92049e-05
1.93806e-05
2.72838e-05
2.93852e-05
3.12621e-05
4.52288e-05
5.80796e-05
6.08023e-05
8.15664e-05
0.000109784
0.000122189
0.00014104
0.000181628
0.000212531
0.000233958
0.000267042
0.000321023
0.000364333
0.000393572
0.000432021
0.000493243
0.000553551
0.000608384
0.000636418
0.000676544
0.000736888
0.000806041
0.000842189
0.000826228
0.000811938
0.000718434
0.000732849
0.000712052
0.000668892
0.000657872
0.000566677
-0.00105936
-0.0105364
-0.0863658
-0.527479
-0.823551
-0.853698
-0.853484
-0.851731
-0.849459
-0.850615
-0.850337
-0.848314
-0.841838
-0.825774
-0.790714
-0.706461
-0.488887
-0.101057
0.203907
0.358777
0.426251
0.472783
0.492495
0.522756
0.539806
0.55152
0.562504
0.566048
0.576696
0.585702
0.594066
0.599432
0.608069
0.618712
0.632749
0.645059
0.658883
0.67195
0.688651
0.709768
0.735064
0.770563
0.809178
0.861686
0.915379
0.951201
0.977793
0.998062
1.01681
1.03068
1.04537
1.05488
1.05739
1.05687
1.05217
1.03944
1.01324
0.966708
0.876836
0.728822
0.54553
0.441351
0.39859
0.398751
0.413839
0.438416
0.464919
0.498275
0.521373
0.548053
0.556423
0.568529
0.567337
0.549308
0.49414
0.407996
0.374503
7.43098e-06
3.59172e-05
2.35284e-05
2.2269e-05
1.97459e-05
2.09124e-05
1.95688e-05
2.09021e-05
2.71426e-05
3.21912e-05
3.25482e-05
4.96168e-05
5.82013e-05
6.1288e-05
8.39026e-05
0.000112568
0.000126767
0.000143237
0.000183455
0.000219543
0.000237837
0.000272871
0.000327906
0.000372021
0.000390356
0.000431305
0.000490922
0.000553761
0.000587278
0.000612426
0.000623455
0.000693465
0.000749593
0.000825993
0.000789079
0.000902042
0.000873059
0.00107952