/*--------------------------------*- C++ -*----------------------------------*\
| =========                 |                                                 |
| \\      /  F ield         | OpenFOAM: The Open Source CFD Toolbox           |
|  \\    /   O peration     | Version:  2.2.x                                 |
|   \\  /    A nd           | Web:      www.OpenFOAM.org                      |
|    \\/     M anipulation  |                                                 |
\*---------------------------------------------------------------------------*/
FoamFile
{
    version     2.0;
    format      ascii;
    class       volScalarField;
    location    "1.4";
    object      pB;
}
// * * * * * * * * * * * * * * * * * * * * * * * * * * * * * * * * * * * * * //

dimensions      [1 1 -3 0 0 -1 0];

internalField   nonuniform List<scalar> 
14161
(
-0.0102866
0.00242822
-0.000758189
3.3846e-05
-0.000306844
-0.000235447
-0.000311501
-0.000307067
-0.000342134
-0.000349051
-0.000358604
-0.000375501
-0.000383563
-0.000374355
-0.000388902
-0.000374366
-0.000370321
-0.000352494
-0.000338181
-0.000314671
-0.000286441
-0.000249492
-0.000208356
-0.000161232
-0.00011742
-5.73087e-05
2.68538e-05
9.58952e-05
0.00020863
0.000300994
0.000429372
0.000540427
0.000711265
0.000839785
0.000988704
0.00109671
0.00126944
0.00142262
0.00152032
0.00157616
0.00138791
0.0013909
0.00068446
-0.000124973
-0.00202333
-0.00763398
0.00429994
-0.0480876
0.256606
-0.0226892
-0.0380305
-0.0122264
-0.00780698
-0.000546791
-0.000800398
-0.00338626
3.33975e-06
0.000404315
-0.000818725
-0.000588156
0.00064032
-0.000578851
-6.77656e-05
-0.000590694
0.000231781
-5.22285e-06
-0.0009753
-0.00127345
-0.000244433
0.000223652
0.00147243
0.00094698
-7.03202e-05
-0.00142996
-0.00186041
-0.00136796
0.000737551
0.00193374
-0.0011781
-0.000509419
0.000426143
0.00212337
0.00296881
0.00145469
0.00193558
-0.00115977
-0.00107312
-0.00165913
0.00151142
-0.0119947
-0.00894048
0.00843259
-0.0106101
0.0126465
-0.00145416
0.00161809
-0.000954164
0.0006291
-0.00255164
0.000837617
-0.00184103
0.00168804
-0.00156408
0.00191392
-0.00166439
0.0031224
-0.00235221
0.00289815
-0.00203931
0.00193273
-0.00296421
0.00288771
-0.00410606
0.00427549
-0.00651371
0.00671658
-0.0068839
0.00732654
-0.00841461
-0.0102957
0.00243531
-0.000758991
3.4162e-05
-0.000307822
-0.000235752
-0.000312411
-0.000306796
-0.000339827
-0.000348528
-0.000359446
-0.000372819
-0.000384153
-0.000373375
-0.000385412
-0.00038348
-0.000366781
-0.000353511
-0.000336349
-0.000314448
-0.00028613
-0.000247587
-0.000204559
-0.000157993
-0.00011405
-5.78213e-05
2.60113e-05
9.52146e-05
0.000213491
0.000293064
0.000432875
0.000533107
0.000701109
0.000828722
0.000968678
0.00108131
0.00122877
0.00136653
0.00144614
0.0015707
0.00171614
0.00183449
0.0020754
0.00185411
0.00286432
-0.000234745
-0.00109695
-0.0266265
0.0643502
0.0107225
0.00423616
0.00778502
0.00293207
0.00233106
0.00254086
0.000834766
-0.00188076
0.00191624
0.00158993
-0.00172401
0.00024464
-0.000268167
-0.000294505
-0.000219264
0.001418
0.00308859
0.00415383
0.000851027
-0.00335999
-0.00410433
-0.00300544
-0.00138622
0.00137833
0.00497554
0.00474248
-0.00184023
-0.0120999
-0.00842742
0.0171569
0.0172026
0.00562712
-0.00162087
0.00180834
0.0017656
-0.00740237
-0.00860819
0.0213447
-0.0020098
-0.0225339
0.015544
0.0169607
0.0161929
-0.00146538
0.00358503
-0.00291374
0.00217796
0.00191052
0.00204869
0.0011744
-0.00153779
-0.00277475
-0.00150926
-0.000386356
0.00226473
-0.000515138
0.000148242
-0.00207645
0.000379228
-0.00245771
0.0017874
-0.00252298
0.00301946
-0.00491968
0.00627883
-0.00662337
0.00544464
-0.010156
0.00752821
-0.0065971
-0.0102891
0.00243114
-0.000759026
3.31719e-05
-0.000308188
-0.000235185
-0.000312123
-0.000306442
-0.000344097
-0.000346267
-0.000364371
-0.000371005
-0.000383643
-0.000376042
-0.000388502
-0.000375261
-0.000372333
-0.000352992
-0.000340384
-0.000315713
-0.000288265
-0.000252306
-0.000210917
-0.000164891
-0.000119488
-6.71294e-05
1.86362e-05
8.85781e-05
0.000200211
0.000290269
0.000427305
0.000549346
0.000706377
0.000817036
0.000960951
0.00111027
0.00134166
0.0014662
0.00159217
0.00167157
0.00159711
0.00176092
0.000675733
0.00120005
-0.00178209
0.00328835
-0.00989378
0.061839
0.0343815
0.0213669
0.0144676
-0.00106364
0.00649326
-0.00638047
0.00116684
0.00244127
-0.00251658
-0.00323503
0.00255095
-0.00112628
-0.0017402
0.000622193
0.00176997
-0.00165022
-0.00514193
-0.00675429
-0.00271702
0.00247865
0.00597925
0.00519068
0.00182033
-0.0014068
-0.00575619
-0.00921145
-0.00635377
0.00102907
0.0147588
0.00472068
-0.0192128
-0.0264851
0.00478347
0.00610436
-0.00986914
-0.00442151
0.0464278
0.00410415
-0.0412974
0.0509665
0.0160863
-0.0264954
-0.0145053
-0.0161799
0.00614117
-0.00014201
0.00669676
7.1004e-05
-0.00430539
-0.000774764
-0.00474264
0.00636219
0.00123859
0.0051723
-0.00127463
-0.00101665
-0.00377596
0.00262777
-0.00440072
0.00411519
-0.00267442
0.00240123
-0.00351459
0.00353475
-0.00388725
0.0024172
-0.00563297
0.00743091
-0.00508829
0.00777505
-0.0116976
-0.0102865
0.00242657
-0.000759843
3.20497e-05
-0.00030895
-0.000235923
-0.000312621
-0.00030875
-0.000341392
-0.000347201
-0.000361071
-0.000375344
-0.000382411
-0.000381298
-0.000385881
-0.000378631
-0.000370314
-0.000354987
-0.000338441
-0.000315616
-0.000287777
-0.000250526
-0.000209558
-0.000164098
-0.000117654
-6.73625e-05
2.28725e-05
8.55132e-05
0.000205407
0.000289163
0.00041669
0.000507532
0.000645138
0.000735933
0.000940896
0.00103447
0.00113459
0.00118826
0.00140178
0.00175402
0.00233386
0.00295077
0.00410362
0.00645243
0.0068885
0.0177465
0.000243825
0.0537004
-0.0147627
0.0422709
-0.00750254
0.00510227
0.00154357
0.000886497
0.00210306
0.00308654
-0.00587603
-0.00388558
0.00688155
-0.00307383
-0.00461858
-0.00163352
0.00191988
-0.00296372
-2.67908e-05
0.00380843
0.00428931
0.00153052
-0.00292277
-0.00385622
-0.00402903
-0.00256024
0.00192041
0.00659918
0.00954776
0.00153969
-0.00511627
0.00296435
0.0211842
0.00372572
-0.0124812
-0.00293122
0.0387231
0.00488888
-0.0655818
0.0243788
0.0418865
-0.0684654
-0.0105666
0.0527152
0.0224448
0.00286436
-0.0104602
-0.00637706
-0.000558985
0.00134652
0.00673632
0.00728126
0.000969607
-0.00244863
-0.00630725
-0.000445143
0.000348714
0.00430923
-0.00111548
-0.00225529
-0.00313704
-0.000416003
-0.00301846
0.00488272
-0.00337877
0.00313068
-0.00489489
0.00612839
-0.00625096
0.00459368
-0.00874277
0.00656704
-0.00423293
-0.0102712
0.00241485
-0.000758795
3.03843e-05
-0.000309393
-0.000236279
-0.00031149
-0.000310242
-0.000338938
-0.000350789
-0.0003634
-0.000373394
-0.000384174
-0.000382374
-0.000386175
-0.000380068
-0.000374745
-0.000356453
-0.000344833
-0.00032062
-0.000293051
-0.000257259
-0.000220551
-0.000175713
-0.00012358
-8.1391e-05
5.35565e-06
6.60242e-05
0.000178735
0.000258025
0.000408444
0.000503521
0.000610964
0.000733439
0.000935504
0.00105289
0.00124641
0.00162362
0.00198504
0.00221563
0.00226578
0.00251626
0.0016909
0.00308509
0.00064024
0.00621676
-0.00725033
0.0191661
0.0577612
0.00426434
0.0258908
-0.0129094
0.00642688
0.00702766
-0.00259799
-0.00288
0.0118327
-0.0014891
-0.00730723
0.0026
0.00565545
-0.00161569
0.00117541
-0.000316084
0.000481769
-0.00275273
-0.00488121
-0.00353352
0.00100129
0.00393091
0.00550564
0.00446638
-0.000365117
-0.00778591
-0.00920198
-0.00429981
0.0148931
0.00910037
-0.0181115
-0.022906
0.0229226
0.0113539
-0.0378684
-0.0136685
0.0626027
-0.00474837
-0.0356884
0.0617493
0.0162057
-0.0444425
-0.0155836
0.015202
0.00700382
0.0149671
-0.00349406
-0.00153037
-0.00811152
-0.00598586
1.55368e-06
0.00769897
0.00403256
-0.00275508
-0.00818249
-0.00727799
-0.00179978
0.00882648
0.00347715
0.0053464
-0.00579151
-0.00312639
-0.0038115
0.00776934
-0.00409899
0.00115303
-0.00346248
0.00704444
-0.00474312
0.00540036
-0.00643989
-0.0102643
0.00240504
-0.000758162
2.85593e-05
-0.000310525
-0.000237425
-0.000312754
-0.000309593
-0.000340634
-0.000348413
-0.000364618
-0.000374374
-0.000382251
-0.000384299
-0.000384699
-0.000384572
-0.000374551
-0.000359754
-0.000342958
-0.000320792
-0.000292625
-0.000258563
-0.00021988
-0.000176578
-0.00012287
-8.13912e-05
7.55533e-06
7.09351e-05
0.000182522
0.000261936
0.000375836
0.000462867
0.000602149
0.000703016
0.000795273
0.000847503
0.00098504
0.00115067
0.00139614
0.00161305
0.00222872
0.00303543
0.0038981
0.00622346
0.00454368
0.018749
-0.0039676
0.0725994
-0.023892
0.0378035
-0.00308694
0.0119802
-0.010394
-0.000265059
0.00592372
-0.00438559
-0.0037062
0.00460772
-0.00398336
-0.00469043
0.00451201
-0.00428631
0.0011757
-0.00273678
-9.73207e-05
0.000747698
0.00166535
0.00189825
3.62359e-06
-0.00228366
-0.00240187
-0.000185641
0.00234894
0.00607589
0.00537945
0.00104703
-0.0101482
-0.0165832
0.0102283
0.0406599
0.00839909
-0.0351012
0.0290475
0.0239807
-0.0246787
-0.0112371
0.00982287
-0.0164509
-0.0307097
0.0455218
-0.00140948
0.00619527
-0.0066389
-0.00407755
-0.0034506
0.00695923
0.0072034
0.00635086
-0.00406243
-0.00620701
-0.00959696
0.00635239
0.00791739
0.015202
0.000999214
-0.0103155
-0.0148977
0.00465818
0.00150916
0.0139191
-0.00512696
-0.00393734
-0.0067559
0.00913152
-0.00654431
0.00261116
-0.00642891
0.00805993
-0.0083381
-0.0102421
0.00238716
-0.000757391
2.60163e-05
-0.000311345
-0.000237126
-0.000313117
-0.000311738
-0.000342156
-0.000348946
-0.000368187
-0.000373767
-0.00038254
-0.000388479
-0.00038472
-0.000383824
-0.000376925
-0.0003622
-0.000351195
-0.000326242
-0.000298902
-0.000271009
-0.000232129
-0.000190888
-0.000137565
-0.000100621
-2.55582e-05
4.11823e-05
0.000131264
0.000219624
0.000345237
0.000439816
0.000569782
0.000672724
0.000832289
0.0010145
0.00142333
0.00165962
0.00192351
0.00222507
0.0025155
0.00290035
0.00267814
0.00389172
0.000789849
0.0090314
-0.012393
0.0559659
0.00486418
0.0437813
0.00444436
-0.000182421
0.00493978
-0.00551183
0.00526568
-0.000318817
-0.00138975
0.00230349
0.000251194
0.000842264
0.0027023
-0.002411
0.00385058
-0.00296328
0.00108011
-0.00132294
-0.00182433
-0.00210424
-0.000799128
0.00145138
0.00343843
0.00377272
0.00168785
-0.00360416
-0.00569778
-0.0012138
0.00469647
0.0106327
0.00404401
-0.0144961
-0.00661395
0.00417127
0.0122149
-0.0223151
0.0119177
0.0107156
-0.00980207
0.0110015
-0.00816346
-0.000344717
-0.0244353
0.00623955
0.0128378
0.00771885
0.000427679
-0.0120435
-0.0120984
-0.00307182
0.00444781
0.0142234
0.00463524
-0.00345786
-0.0160288
-0.0111017
-0.00369596
0.0161104
0.00850607
0.00360894
-0.0107812
-0.00399614
-0.00680086
0.0141523
-0.000827301
-0.00352686
-0.00559571
0.00673545
-0.00438812
0.00272357
-0.00281655
-0.0102319
0.00237471
-0.000756904
2.39825e-05
-0.000312444
-0.000238198
-0.000314008
-0.000311797
-0.000341411
-0.000348847
-0.00036934
-0.000373372
-0.00038454
-0.000391918
-0.000385869
-0.000389393
-0.00037884
-0.000368543
-0.000351068
-0.000330384
-0.000302957
-0.000271889
-0.000233767
-0.000191982
-0.000142041
-9.74689e-05
-2.51304e-05
4.20098e-05
0.000134801
0.0002092
0.00030999
0.000393901
0.000486757
0.000553467
0.0005702
0.000616282
0.000634331
0.000609167
0.000517483
0.000592246
0.000694914
0.000984168
0.00103358
0.00156103
0.000992479
0.00260804
-0.000250349
0.0175516
0.0312992
0.0597434
-0.00339298
-0.00177737
0.00259318
-0.00426531
0.00161232
-0.00503267
-0.00188178
-0.00387347
-0.00377274
-0.00203235
-0.00167983
-0.00829359
0.00517183
-0.00595968
-0.00116718
-0.000876625
-0.000265899
0.000108673
-0.00120462
-0.000700703
-0.00455902
-0.00382909
-0.00317235
0.00204836
0.00229467
0.0044092
-0.00161827
9.37647e-05
-0.000762695
0.00475589
0.0158309
-0.00112644
0.00823409
0.00604075
0.0061407
-0.0038316
-0.00569069
0.00164196
-0.00668735
0.0108366
0.00645338
-0.0190707
-0.00116123
-0.0186445
0.00125113
0.0135228
0.0149988
0.00685505
-0.00306849
-0.0116562
-0.00905106
-0.00193568
0.0112779
0.0103612
0.00273907
-0.0134687
-0.0111092
-0.00241657
0.00170698
0.0115251
-0.00219013
-0.00589052
-0.00902401
0.0135329
-0.00242935
0.00128619
-0.00491731
0.00565873
-0.00407107
-0.0102071
0.00235629
-0.000756618
2.11456e-05
-0.000313667
-0.00023836
-0.00031324
-0.000316448
-0.000338528
-0.000352072
-0.000369321
-0.000376538
-0.000385158
-0.000395322
-0.00038604
-0.000392864
-0.000379991
-0.000374393
-0.000358201
-0.000338658
-0.000313395
-0.000288989
-0.000252593
-0.000214321
-0.000168644
-0.000122268
-7.13758e-05
-3.8825e-06
6.87657e-05
0.00014417
0.000249718
0.000340535
0.00046696
0.000569426
0.000726216
0.000985213
0.00129771
0.00155032
0.00189051
0.00220678
0.00256868
0.00285187
0.00333008
0.00259708
0.00403574
-0.000139833
0.0145023
-0.033502
0.149615
0.0246409
-0.0324523
-0.0238275
-2.5221e-05
-0.000382642
0.00976272
0.00114407
0.00396405
0.00425895
-0.00232572
0.00764477
-0.00229466
0.00127928
0.00052078
0.00136788
0.000346512
0.00153
-0.00125294
-0.000153244
0.000301874
0.000579712
0.000546067
-0.00012405
4.53694e-05
-6.24167e-05
-0.000845402
-0.00126801
0.000808504
-0.000418141
0.00087209
-0.00234427
-0.00274757
-0.00328983
0.00403886
-0.00137672
-0.000260064
0.000959707
0.00507616
0.00014019
0.00551291
-0.0289559
0.0102744
-0.0084725
0.0246928
0.0101532
0.00709082
-0.0105267
-0.0149616
-0.00907857
-0.000953851
0.00825411
0.00909792
0.00145647
-0.00882712
-0.00823251
-0.00442421
0.00865563
0.00702822
0.00818446
-0.00683078
-0.00856505
-0.00657513
0.0107707
0.00144498
0.00105923
-0.00784824
0.00678484
-0.00331029
0.00374415
-0.00438916
-0.0101951
0.00234263
-0.000756762
1.88764e-05
-0.000315266
-0.000240103
-0.00031545
-0.000313743
-0.000342423
-0.000353778
-0.000371543
-0.000377104
-0.000386187
-0.000396539
-0.000390464
-0.000394566
-0.000385881
-0.000378803
-0.000360842
-0.000343847
-0.000319002
-0.000291221
-0.000256783
-0.000217909
-0.000171788
-0.0001218
-6.79285e-05
-8.72753e-06
6.72721e-05
0.000133041
0.00020855
0.000268132
0.000333322
0.000352209
0.000349634
0.000280921
0.000153207
-3.57328e-05
-0.000402952
-0.000733176
-0.00143509
-0.00258189
-0.0029698
-0.00586757
-0.00262998
-0.015676
0.00450486
-0.0495997
0.142992
0.0442922
0.0209984
-0.0308006
-0.0106643
-0.019256
-0.0132883
-0.0161504
-0.00422437
-0.0120896
-0.00348627
-0.00831034
-0.00125552
-0.00531379
-0.00170061
-0.0033634
-0.00471969
0.000133105
-0.00282551
-0.00197932
-0.00188024
-0.00164679
-0.00155143
-0.000572319
-0.00160395
-0.000942428
-0.000790984
0.00197269
-0.00180173
0.000980052
-0.0048601
0.00383795
0.000846998
-0.0133981
0.00581605
-0.00144892
-0.000755622
-0.00352057
-0.00123338
-0.0137878
0.0131418
-0.0124743
0.0274007
-0.00672535
-0.00366555
-0.0149327
-0.00944309
0.00860691
0.00994876
0.0153715
0.00227901
-0.00346652
-0.00956069
-0.00140796
0.00217826
0.0101051
0.00360297
-0.00500295
-0.00848752
-0.0031422
-0.00169987
0.0117096
0.00193749
-0.00243787
-0.00829661
0.00583821
-0.0018365
0.00390983
-0.00694757
0.00528848
-0.00529838
-0.0101706
0.00232576
-0.000756705
1.59062e-05
-0.000316879
-0.000240865
-0.000316218
-0.000316947
-0.000342689
-0.000353137
-0.000373302
-0.000376871
-0.000390281
-0.000400427
-0.000394245
-0.000398777
-0.00039009
-0.000387407
-0.000370632
-0.000357307
-0.000333943
-0.000311704
-0.000281467
-0.000247191
-0.000207456
-0.000165343
-0.000120654
-7.13635e-05
-1.56162e-05
4.93381e-05
0.000130966
0.00022204
0.000310758
0.000425117
0.000613869
0.000809459
0.00113489
0.00136979
0.00170736
0.00225639
0.00272665
0.00289624
0.00352964
0.00387472
0.00463103
0.00553989
0.00588033
0.0219424
0.0122591
0.176664
-0.0481417
0.0087623
-0.00994661
0.00748316
-0.00551327
0.001527
0.000880126
0.000264159
0.00022254
0.00115272
-0.000237962
0.00064314
0.00125101
-0.00355633
-0.000344333
-0.000233909
0.00012721
-0.000733447
-0.000411214
0.000916749
-1.6216e-05
-0.000337961
5.87341e-05
-0.000542165
-0.000222663
-0.00191399
-0.00135799
-0.00435673
0.000783084
-0.00430535
-0.00357848
0.0121882
-0.00260988
-0.0141362
-0.00269274
0.0130719
0.0029354
-0.00967854
-0.00130159
-0.00898703
-0.00751972
-0.00657729
0.00108616
0.008663
0.00358335
-0.00441621
-0.0122167
-0.0131194
-0.0125914
0.00361411
0.000386075
0.00480591
0.000350894
-0.00319988
-0.00651547
0.00421641
0.000732773
0.00527862
-0.000223275
-0.00553386
-0.0079123
0.00543201
-0.00294483
0.00550689
-0.006901
0.00395464
-0.00373336
0.00491689
-0.00531699
-0.0101575
0.00231204
-0.000757476
1.34765e-05
-0.000318769
-0.000242557
-0.000317542
-0.00031684
-0.000344691
-0.000354592
-0.000376509
-0.000378345
-0.000393405
-0.000401357
-0.000401091
-0.000400613
-0.000397805
-0.000390746
-0.000375121
-0.00036316
-0.000341266
-0.000318067
-0.000288097
-0.000254083
-0.000213719
-0.00017164
-0.000124369
-7.35748e-05
-1.7905e-05
3.03236e-05
9.63911e-05
0.000116913
0.000132964
0.00011625
4.50286e-05
-5.7273e-05
-0.00022947
-0.00043926
-0.000858018
-0.00127818
-0.00151808
-0.00211984
-0.00186037
-0.0037525
-0.000933205
-0.00819486
0.0073196
-0.0331908
0.123449
0.084713
-0.0203206
-0.00398915
-0.0252015
0.00241415
-0.0114944
-0.00777988
-0.00314901
-0.0102574
-0.00135212
-0.00870797
-0.000731049
-0.00772726
-0.000886597
-0.00790928
-0.00247134
-0.00179596
0.000244483
-0.0025741
-0.00164736
-0.00127498
-0.00146301
-0.00130658
-0.00124508
-0.00184741
-0.00339304
-0.0047685
-0.00494121
-0.00381171
-0.00180628
0.010643
0.0182301
-0.00817284
-0.00948223
0.00208191
0.0137782
0.00243841
-0.0209666
-0.00474737
0.00022848
0.00598179
-0.00547926
0.00407219
-0.00144012
-0.00174918
-0.0084749
0.00424158
-0.00643523
0.0209486
0.0109633
0.00308368
-0.00320736
-0.0003263
-0.00403319
0.00166818
7.17384e-05
0.000904189
-0.0010178
-0.00284152
-0.003757
0.00504367
-0.00115997
0.00515283
-0.00558864
0.00304408
-0.00522095
0.00543958
-0.00514711
0.00497689
-0.00468877
-0.0101349
0.00229736
-0.00075698
1.06398e-05
-0.000320662
-0.000243621
-0.000318001
-0.000320309
-0.000344795
-0.000356222
-0.000376855
-0.000381553
-0.000395112
-0.000406731
-0.00040636
-0.000403207
-0.000406987
-0.000400628
-0.000388343
-0.000376944
-0.000361158
-0.000341648
-0.000317077
-0.00029009
-0.000258849
-0.000224941
-0.000188436
-0.000150949
-0.000111515
-6.25438e-05
-6.14696e-06
5.85782e-05
0.000148515
0.000234948
0.000418832
0.000630306
0.000988899
0.00129716
0.00173031
0.00221789
0.00246293
0.00296634
0.00359232
0.00474802
0.00511787
0.00589757
0.0102508
0.0122083
0.0642755
0.0782499
-0.0276295
0.0372941
-0.0181824
0.0203034
-0.0148801
0.00843185
-0.00638143
0.0122243
-0.00631126
0.00772642
-0.00387409
0.00450342
-0.00196175
-0.002135
0.00312507
-0.00146465
0.000318986
0.000524808
0.000695591
-0.000309946
-0.000149469
-0.00164247
-0.00117217
0.000418642
0.000907873
0.00300857
0.0016548
0.00417487
0.00404892
0.0058558
0.00173182
-0.0072938
0.00451438
0.00927214
-0.00608201
-0.0157353
-0.000846046
0.0109343
0.00345436
-0.00824933
-0.0121061
-0.00101553
-0.0104584
0.00168442
-0.0027875
0.00373989
-0.00432341
0.00113391
-0.0201374
-0.00524376
-0.00433458
0.00153407
7.0848e-05
0.000226518
-0.00214916
-0.000549241
-0.00195828
0.000750846
0.00226044
-0.000140045
-0.000343624
2.69365e-06
-0.00173772
0.00750626
-0.00338123
0.00546202
-0.00507302
0.00383889
-0.00360659
-0.0101216
0.00228472
-0.000758322
8.14619e-06
-0.000322517
-0.000245738
-0.000319633
-0.000319799
-0.000348174
-0.00035747
-0.000378952
-0.000386574
-0.000396285
-0.000408725
-0.000413021
-0.000408411
-0.000413244
-0.00040656
-0.000398896
-0.000384752
-0.000371492
-0.00035196
-0.000328608
-0.000301571
-0.000272335
-0.000238036
-0.000198705
-0.000161334
-0.000116174
-8.43329e-05
-5.32999e-05
-3.7986e-05
-4.36888e-05
-7.84237e-05
-0.000172983
-0.000255543
-0.000484367
-0.000763501
-0.00116202
-0.00120862
-0.00149881
-0.00180688
-0.00223619
-0.00309551
-0.00299807
-0.00330275
-0.00311677
0.0138951
0.0551078
0.0344268
-0.0014414
0.0380735
0.00164355
0.0200934
-0.0155487
0.00590891
-0.00882709
0.00336842
-0.00965352
0.00164176
-0.00858966
0.00261619
-0.00847958
-0.00242559
-0.00164357
-0.00421141
0.000167952
-0.00273731
-0.00154054
-0.00213111
-0.00111788
-0.000151692
0.000937307
-0.000315017
-0.00173124
-0.00420444
-0.0057509
-0.00210093
-0.00398688
-0.00438606
0.0166494
-0.00496192
-0.0114124
-0.000298608
-0.010874
-0.000584964
0.00738389
-0.00384769
-0.00624814
0.00100323
0.00730722
0.00272832
0.00332836
-9.22033e-05
0.0028631
-0.000874092
-0.00223384
0.00611737
0.00675232
0.00866545
0.000251526
-0.000896305
-0.00350323
-0.000411623
-9.02417e-05
0.000417886
-8.51423e-05
-0.000148372
-0.00251032
0.000842023
-0.0027744
0.00138973
-0.00272775
-0.000683708
-0.00719265
0.0043884
-0.00601686
0.00679907
-0.00575242
-0.0101027
0.0022722
-0.000757913
5.45095e-06
-0.000324583
-0.000246982
-0.000320403
-0.000321422
-0.000349274
-0.000360406
-0.000379167
-0.000389666
-0.000400093
-0.000413353
-0.000419881
-0.000416499
-0.000421292
-0.000419972
-0.000412783
-0.000402654
-0.000394753
-0.000379361
-0.000362176
-0.000341268
-0.000321228
-0.000299686
-0.000268604
-0.000247953
-0.000223662
-0.000196259
-0.000160435
-0.000108838
-3.58587e-05
5.85255e-05
0.000189103
0.000346944
0.000591281
0.000951578
0.00116525
0.00151182
0.00180571
0.00263907
0.00186023
0.00426338
-0.000510507
0.00890732
-0.0161275
0.0740533
0.0253604
0.0264065
-0.00540329
0.0180488
-0.00164677
0.0312164
-0.0169281
0.0118009
-0.00919698
0.00667574
-0.000331248
0.00250898
-0.00104911
0.00304642
-0.0041533
-0.000942243
-0.000276018
-0.00109543
0.00119489
0.000462243
0.00369679
0.00304575
0.00150052
-0.00169954
-0.00133201
-0.00354062
-0.000562438
-0.00402033
0.00903597
0.00488851
0.00236966
0.0110287
-0.0192334
-0.00958652
0.010892
0.00348219
-4.24777e-05
-0.00323586
-0.00707497
-0.00190509
0.00336562
0.00440489
-0.00309093
-0.00937165
-0.0016634
0.00304788
0.00105686
-0.00432272
-0.00132329
-0.00443509
-0.00518478
-0.00538547
-0.00465974
0.000130768
-0.000387191
0.000910809
-0.00174777
-6.30026e-05
-0.00152269
0.00106252
0.00055666
6.27344e-05
-0.000743443
0.000539701
-0.00312059
0.00499814
-0.00213996
0.00528502
-0.0052754
0.00390206
-0.00550334
-0.0100904
0.0022616
-0.000759254
3.06193e-06
-0.000326287
-0.000248955
-0.000321959
-0.000323081
-0.00035213
-0.000360863
-0.000381754
-0.000395554
-0.000404123
-0.000416544
-0.000424587
-0.000426146
-0.00042831
-0.00042917
-0.000425399
-0.000412249
-0.000408146
-0.000394566
-0.00038073
-0.000361242
-0.000340184
-0.000319403
-0.000294215
-0.000264106
-0.000238694
-0.00022074
-0.00020167
-0.000196079
-0.000211943
-0.000235256
-0.000345216
-0.000491762
-0.00070283
-0.000869137
-0.00114293
-0.0014468
-0.00200114
-0.00170763
-0.00285013
-0.000534889
-0.00454167
0.00751223
-0.0207259
0.0961865
0.0101745
-0.00293406
0.000934284
0.0180275
0.00243173
0.0191304
0.0130118
0.0150231
-0.0110377
0.00896547
-0.00820544
0.00656303
-0.0108985
0.00490231
-0.0103422
-0.000613091
-0.00183595
-0.00127134
-0.00121922
-0.00120263
0.000663844
-0.00390683
-0.00201132
-0.00212399
7.41871e-05
-0.000197044
-0.00269791
-0.000730645
0.00163612
-0.00880247
0.0279824
-0.0185775
-0.0118664
0.00738449
0.00927601
-0.00196393
-0.0172393
0.000255836
0.00410137
0.00611039
0.00150347
-0.000134672
-0.00152569
0.00375435
0.000246762
0.00342133
0.00137168
0.00803747
0.00243797
0.00348474
0.00601417
0.0062979
0.00125283
-0.000544512
-0.00245148
0.000742121
-0.000398795
0.000769815
-0.000275123
-0.000182947
-0.000924094
-0.000203959
-0.000741136
0.00085554
-0.000607801
0.00157458
-0.00412296
0.00332637
-0.0038401
0.0057411
-0.00482281
-0.0100744
0.00225134
-0.000758912
9.29625e-07
-0.000328327
-0.000250011
-0.000324479
-0.000322947
-0.000356346
-0.000362197
-0.000385705
-0.000397456
-0.000410126
-0.00041996
-0.000434545
-0.000433426
-0.000438376
-0.000443482
-0.00044419
-0.000433586
-0.000433304
-0.000426891
-0.000416113
-0.000406968
-0.000390738
-0.000384073
-0.000378587
-0.000354617
-0.000344079
-0.000340507
-0.000320608
-0.000294291
-0.000243655
-0.000179727
-6.76429e-05
8.90966e-05
0.000289468
0.000449716
0.000798563
0.00108489
0.00171385
0.00187526
0.00215093
0.00225865
0.00169935
0.00970861
-0.00184652
0.0863825
0.00169587
-0.0023488
-0.00700072
0.000824777
0.0165689
-0.000530828
0.0184124
0.0181333
0.0150006
-0.00878713
0.00683642
-0.00635031
0.00877124
-0.00354426
0.0013521
0.000372606
0.00404246
-0.00120723
-0.00105618
0.000200587
0.000970234
0.00254039
0.00357612
0.0023953
0.00413808
-0.000849776
0.00283882
0.00565231
0.00866107
0.0138762
-0.00349334
-0.00818287
-0.000926703
-0.000142398
-0.0118223
-0.0110625
-0.00815888
0.00490989
0.000111784
-0.00381989
-0.00433927
-0.00523158
-0.00260623
0.00024497
-0.00210725
-0.00458468
-0.00319149
-0.0014752
-0.00238872
-0.00158154
0.000213509
-0.003993
-0.00289463
0.00492562
0.00261029
0.00163549
-0.00167021
-0.000602761
-0.00104923
0.000804869
8.9271e-05
9.50311e-05
-0.000220463
0.000364015
-0.00160877
0.00212072
-0.00249129
0.00381881
-0.00559168
0.00425853
-0.00587365
-0.0100643
0.00224342
-0.000760202
-1.16978e-06
-0.000330108
-0.00025193
-0.000324846
-0.00032523
-0.000356994
-0.000365079
-0.000386819
-0.000404726
-0.000413212
-0.000426129
-0.000438127
-0.000447097
-0.000448647
-0.000452723
-0.000457216
-0.000451071
-0.00044781
-0.00044697
-0.000441659
-0.000431767
-0.000419497
-0.000410169
-0.000401045
-0.000388212
-0.000366015
-0.000362082
-0.00035865
-0.000359011
-0.000375596
-0.000415922
-0.000522359
-0.000693942
-0.000894837
-0.00108239
-0.0015895
-0.00199733
-0.00236371
-0.0028715
-0.0039369
-0.00489767
-0.00529495
-0.0115846
0.0265488
0.0534796
0.0181103
0.00498647
0.00138543
-0.00620879
-0.0140304
0.00987488
0.00784182
0.00637811
0.00276655
0.0207372
-0.0109502
0.00949774
-0.0080027
0.00759431
-0.00941558
0.00249934
-0.00177176
0.00109791
-0.00386444
0.00231773
0.00311449
0.0016072
0.00185778
0.00151547
0.00616056
-0.000645419
0.00571567
-0.00241695
0.00514265
-0.00224351
-0.0031987
-0.00247694
0.00633776
0.00246709
-0.0041799
-0.00147589
0.0021956
0.00400683
-0.00134207
0.00654803
0.00158821
0.00520259
-0.000898652
0.00277827
0.000989796
0.00451731
0.00475982
-0.00384902
-0.000810652
-0.00109494
-0.000142447
-0.00322855
0.00218765
-0.00264146
-0.00190684
0.000888081
0.000391665
0.000751694
-0.000291173
-0.00105008
-0.000710256
-0.000517333
-0.000128405
-0.000393889
-0.000871349
0.000555008
-0.00234894
0.00270472
-0.00305312
0.00540191
-0.00483441
-0.0100503
0.00223548
-0.0007594
-2.68339e-06
-0.000332072
-0.000253324
-0.000327221
-0.000326374
-0.000361313
-0.000366363
-0.00039195
-0.000407575
-0.000420225
-0.000432665
-0.00044952
-0.000454018
-0.000462856
-0.000468597
-0.000479176
-0.000477144
-0.000476066
-0.000480967
-0.000485107
-0.000473939
-0.00047971
-0.000476607
-0.000480187
-0.00048108
-0.000471642
-0.000485434
-0.000495257
-0.000494738
-0.000488757
-0.000460947
-0.000436745
-0.000349405
-0.000226232
-7.48718e-05
2.642e-05
0.00018699
0.000491414
3.11903e-05
0.00205086
-0.00229449
0.00949993
-0.0178092
0.085957
0.0382686
-0.00967663
-0.000650113
-0.00130368
0.000189804
-0.00254278
-0.00887396
0.00451144
-0.000355114
0.0218434
-0.00308335
0.0328321
-0.0123456
0.0138634
-0.00978986
0.00118408
0.000942251
0.00510971
0.00577921
-0.0012995
0.0137345
-0.000724317
0.00931431
0.00688233
0.00382789
0.00677604
0.00288631
0.00609016
0.000562385
0.00575769
-0.000896102
0.00164139
0.00305493
-0.000852296
0.00227904
0.00485366
0.00532337
0.00668511
0.00417896
0.00167852
0.0013106
0.000571584
0.0023902
0.00204662
-0.0030073
0.000273542
0.00118218
0.000381502
0.00386415
0.0031737
0.002967
0.00392762
-0.000211633
0.00275202
0.00325851
0.000574056
-0.00199641
-0.00270617
-0.00146711
-0.000418206
0.000944435
0.00045777
0.000282161
0.000358364
-0.000254424
-0.000311084
0.000884023
-0.000936728
0.00274287
-0.00449336
0.00452951
-0.00594755
-0.0100448
0.00223039
-0.000760488
-4.22768e-06
-0.000333623
-0.000254685
-0.000328435
-0.000327713
-0.000363034
-0.000369569
-0.000394182
-0.000413223
-0.00042661
-0.000436708
-0.000456972
-0.000468081
-0.000473944
-0.000480579
-0.000494099
-0.000494993
-0.000496852
-0.00050347
-0.000511509
-0.000510349
-0.00051071
-0.00050989
-0.000514558
-0.000520327
-0.000512549
-0.000512042
-0.000522438
-0.00054216
-0.000559052
-0.000575356
-0.000636399
-0.000705258
-0.000935279
-0.00103725
-0.00105083
-0.00121407
-0.000964388
-0.00127601
-0.000481125
-0.00192772
0.006485
-0.00706889
0.0883205
0.0147589
-0.00630855
-0.00403459
-0.00188531
0.00216059
0.000720464
2.4506e-05
-0.0099218
-0.00683946
0.0114694
0.0148183
0.0134182
0.00480837
0.00229574
0.00157849
-0.0138093
0.0254742
-0.0131686
0.0211431
0.00539467
0.00307768
0.00750148
0.00344214
0.00306897
0.000390236
0.00577614
-0.000971159
0.000624592
-0.000765737
0.0023763
0.00190326
0.00035051
0.00201898
-0.00158608
0.00141239
-0.000533073
-0.000944641
0.000249133
0.00210893
0.00538232
-7.02039e-05
-0.00057706
-0.000911056
0.000580835
0.0045728
0.00289183
0.00125514
-0.000527243
0.00470939
-0.00630397
0.00128253
0.00136652
-0.000311146
-0.000355054
-0.00138111
-0.00178486
0.00142376
-0.000143149
0.000985129
-0.000815484
-0.000630624
2.33135e-05
-0.000746588
0.000242835
-0.000774775
-0.0001532
-9.32453e-06
-0.00132628
0.00136853
-0.00322905
0.0043626
-0.00532188
-0.0100326
0.00222436
-0.000759587
-5.20112e-06
-0.000335313
-0.000256212
-0.000329823
-0.000330575
-0.000364996
-0.000374345
-0.000398022
-0.000417969
-0.000433969
-0.000446288
-0.000466486
-0.000480699
-0.000489756
-0.000498498
-0.00051741
-0.0005238
-0.000529965
-0.000538313
-0.000555551
-0.000558836
-0.000569198
-0.000577787
-0.000592036
-0.000612682
-0.000619233
-0.000638366
-0.000664628
-0.000718137
-0.000737712
-0.000740393
-0.000741713
-0.000726781
-0.000785268
-0.000564906
-0.000592597
-0.000697488
-0.000662516
-0.00148062
-0.0011077
-0.0024123
-0.000823833
0.00134572
0.0687758
0.0128157
0.00393487
0.00111841
-0.000758156
-0.0125766
-0.0134005
-0.00475077
0.0149345
0.0135468
-0.0286773
-0.0269531
0.0183949
0.0199958
-0.000611508
0.0100849
0.0277469
-0.0179983
0.0232762
0.002088
0.00774681
0.00407207
0.00252778
0.0027234
0.00315126
0.00149352
0.00111827
0.00177265
0.00214526
0.00265496
0.00291806
0.0027133
0.00303021
0.00146704
0.00440346
0.00205382
0.00384875
0.00794241
0.00637169
0.00733773
0.00839824
0.00918827
0.00742387
0.00683264
0.00222833
0.00148861
0.00194704
0.000844899
0.00236191
0.000417018