/*--------------------------------*- C++ -*----------------------------------*\
| =========                 |                                                 |
| \\      /  F ield         | OpenFOAM: The Open Source CFD Toolbox           |
|  \\    /   O peration     | Version:  2.2.x                                 |
|   \\  /    A nd           | Web:      www.OpenFOAM.org                      |
|    \\/     M anipulation  |                                                 |
\*---------------------------------------------------------------------------*/
FoamFile
{
    version     2.0;
    format      ascii;
    class       volScalarField;
    location    "0.05";
    object      By;
}
// * * * * * * * * * * * * * * * * * * * * * * * * * * * * * * * * * * * * * //

dimensions      [1 0 -2 0 0 -1 0];

internalField   nonuniform List<scalar> 
14161
(
5.35227e-17
-3.94e-17
1.62045e-16
-8.32249e-17
-3.9882e-16
-2.01426e-16
-3.61493e-18
1.79823e-16
2.83199e-16
1.52865e-16
-6.33908e-18
-4.24487e-16
-2.10505e-16
3.26358e-17
1.53929e-17
1.78653e-16
1.78079e-16
2.61002e-16
1.37023e-17
-6.20979e-17
-1.11637e-16
-1.68274e-16
-1.98077e-16
-1.12901e-16
4.06185e-17
3.53981e-17
-6.43689e-17
-3.22625e-16
-5.08322e-16
-6.26622e-17
-1.83609e-16
-1.42587e-16
-9.20743e-17
5.75473e-17
-4.01629e-17
-1.92479e-17
-1.77589e-16
-7.51072e-16
-2.33834e-15
-7.30739e-15
-2.29589e-14
-6.76006e-14
-1.8469e-13
-4.74005e-13
-1.14268e-12
-2.68954e-12
-6.21861e-12
-1.41075e-11
-3.14744e-11
-6.89207e-11
-1.48247e-10
-3.12909e-10
-6.47651e-10
-1.31369e-09
-2.60887e-09
-5.09285e-09
-9.76834e-09
-1.84451e-08
-3.42399e-08
-6.24238e-08
-1.09775e-07
-1.86309e-07
-2.91382e-07
-4.43073e-07
-6.21295e-07
-7.9383e-07
-8.66341e-07
-9.05858e-07
-1.10598e-06
-1.19115e-06
-1.55591e-06
-7.87303e-07
-2.07863e-06
5.08123e-07
-3.43828e-06
-1.07884e-06
-7.61406e-06
1.21485e-06
-4.98631e-06
-2.85612e-06
-6.85062e-06
-4.74117e-06
-9.37186e-06
-6.70443e-06
-9.05704e-06
5.75234e-07
-1.69752e-05
8.11355e-06
-3.95647e-05
-5.10095e-06
-3.10611e-05
-4.05928e-05
-2.70977e-05
-0.00010601
-8.88393e-05
-0.000224922
-0.000230737
-0.000443063
-0.000608319
-0.000918969
-0.00186088
-0.00391599
-0.0189788
0.00584722
0.0294348
0.0406109
0.0157553
0.0175401
0.0151123
0.0169402
0.0157738
0.0179579
0.0166897
0.018053
0.0184153
0.0181283
0.0167718
0.0191929
0.019557
1.56203e-16
-1.22769e-16
-4.01246e-17
-1.41722e-16
2.49917e-16
1.68569e-16
5.89306e-17
-9.67579e-17
-1.7622e-16
-1.6634e-17
6.48519e-17
2.21537e-16
-6.96326e-18
4.48584e-17
-1.50242e-17
-2.65086e-16
-2.35059e-16
5.35857e-18
1.68672e-16
2.85713e-16
1.15917e-16
-1.61224e-16
-5.1477e-17
-1.16255e-16
-4.43701e-17
1.7686e-16
4.08367e-16
2.32149e-16
-1.48125e-16
-3.58354e-16
-4.67563e-16
-3.20419e-16
-1.06695e-16
2.74963e-17
-2.19387e-16
1.86737e-16
-4.11222e-16
-1.49869e-15
-6.78535e-15
-2.28234e-14
-7.3392e-14
-2.18721e-13
-6.07556e-13
-1.58602e-12
-3.87614e-12
-9.40662e-12
-2.1707e-11
-4.86289e-11
-1.07338e-10
-2.32238e-10
-4.93983e-10
-1.03134e-09
-2.11215e-09
-4.23606e-09
-8.30475e-09
-1.58788e-08
-2.95447e-08
-5.34479e-08
-9.37813e-08
-1.59635e-07
-2.61929e-07
-4.1948e-07
-6.547e-07
-1.01621e-06
-1.45381e-06
-2.04581e-06
-2.43354e-06
-2.79733e-06
-3.29105e-06
-3.5959e-06
-4.80917e-06
-4.69905e-06
-6.68334e-06
-4.53342e-06
-8.5071e-06
-4.63109e-06
-1.36417e-05
-7.47284e-06
-1.25548e-05
-8.08887e-06
-1.28527e-05
-1.55213e-05
-1.36369e-05
-1.4097e-05
-1.9838e-05
-1.61666e-06
-2.5536e-05
3.6201e-05
-5.53694e-05
1.12922e-05
-1.32686e-05
-2.88157e-05
2.2511e-05
-4.41621e-05
5.80926e-05
-0.000106358
0.000193741
-0.000222193
1.33474e-05
-0.000243831
-0.000742066
-0.00108741
-0.00835583
0.0276775
0.0542563
0.0626969
0.0517101
0.0573304
0.0543847
0.054644
0.0479239
0.0528872
0.0533282
0.0549535
0.0588547
0.0550043
0.050495
0.0549405
0.0589905
1.33348e-16
-2.15084e-16
-1.03878e-16
2.73858e-16
8.44241e-17
-2.10651e-16
1.08203e-16
1.91936e-16
1.32775e-16
4.11796e-16
2.33678e-16
-6.00663e-17
-1.08259e-16
1.09496e-16
7.76986e-17
1.14985e-16
-6.28132e-17
2.29529e-17
1.06243e-16
6.04986e-17
8.09712e-17
-2.94963e-16
-3.7514e-16
-2.91812e-16
-4.38711e-16
-4.41034e-16
-1.97282e-16
-2.05823e-16
-3.64118e-16
-3.95697e-16
-3.62912e-16
-6.71028e-17
3.34328e-16
3.28647e-16
-9.99431e-17
-2.59563e-16
-1.18402e-15
-2.77914e-15
-8.79405e-15
-2.98241e-14
-9.36437e-14
-2.76031e-13
-7.5858e-13
-1.95404e-12
-4.72639e-12
-1.10375e-11
-2.55943e-11
-5.75774e-11
-1.27829e-10
-2.78288e-10
-5.95697e-10
-1.25118e-09
-2.57769e-09
-5.20403e-09
-1.03131e-08
-2.00991e-08
-3.84233e-08
-7.18961e-08
-1.30896e-07
-2.3081e-07
-3.90563e-07
-6.44569e-07
-1.01429e-06
-1.58929e-06
-2.30144e-06
-3.26928e-06
-4.40017e-06
-5.04237e-06
-5.46868e-06
-5.41267e-06
-6.34034e-06
-6.13223e-06
-8.51137e-06
-9.22021e-06
-1.42321e-05
-1.22748e-05
-1.82024e-05
-1.35947e-05
-2.23745e-05
-1.78168e-05
-2.24474e-05
-2.14972e-05
-2.91659e-05
-1.83744e-05
-4.28311e-05
8.21762e-07
-5.74793e-05
2.42906e-05
-8.75551e-05
-5.39867e-06
-6.53034e-05
-6.73304e-05
-8.13066e-05
-0.000217789
-0.000106873
-0.000414463
0.000201018
-0.00044994
-0.000289857
-0.000558322
-0.00096806
0.00300464
0.00785349
0.0497604
0.0941563
0.089411
0.0916613
0.0938686
0.0883137
0.0887417
0.0825949
0.0886874
0.0887189
0.0897246
0.0951915
0.0909144
0.0879785
0.0899755
0.095148
-1.18334e-16
-2.93572e-18
-9.11886e-18
1.36726e-17
-4.09308e-16
1.53535e-17
1.98663e-16
1.70293e-16
1.30376e-16
4.4618e-16
4.3761e-16
9.17941e-17
4.99062e-17
-7.55017e-17
-1.79773e-16
-7.43026e-17
2.79888e-17
-6.22645e-17
-1.69336e-16
1.62071e-16
6.64635e-17
-9.32732e-17
1.95992e-17
-1.76792e-16
9.3981e-17
2.74079e-17
2.94303e-17
-3.57224e-16
-1.85309e-16
2.57527e-16
-2.21948e-17
-2.12444e-16
-1.86432e-16
7.01732e-17
2.63906e-16
-1.91489e-16
-1.26765e-15
-4.31986e-15
-1.66887e-14
-5.46088e-14
-1.73578e-13
-5.11981e-13
-1.41689e-12
-3.66892e-12
-8.92502e-12
-2.10993e-11
-4.88057e-11
-1.10064e-10
-2.44325e-10
-5.31524e-10
-1.13607e-09
-2.38248e-09
-4.90404e-09
-9.90425e-09
-1.95917e-08
-3.78591e-08
-7.13666e-08
-1.30916e-07
-2.32961e-07
-4.02423e-07
-6.71952e-07
-1.09336e-06
-1.68595e-06
-2.5384e-06
-3.50879e-06
-4.68189e-06
-5.69741e-06
-6.49814e-06
-8.3064e-06
-8.83073e-06
-1.09353e-05
-1.09636e-05
-1.48411e-05
-1.50816e-05
-2.01389e-05
-1.85145e-05
-2.47763e-05
-2.24404e-05
-2.57272e-05
-2.45092e-05
-3.61074e-05
-2.89426e-05
-4.23358e-05
-2.8244e-05
-5.20159e-05
5.45337e-06
-5.43093e-05
2.49656e-05
-8.58794e-05
-7.70648e-06
-0.000100211
-3.43953e-05
-0.000100117
-0.00014575
-4.90717e-05
-0.000318384
0.000226221
-0.000280891
-0.000427064
-0.000221501
-0.00121265
0.00221121
-0.00222855
0.0692286
0.139531
0.127631
0.134065
0.129496
0.124405
0.120834
0.114803
0.129229
0.122917
0.127399
0.128333
0.124851
0.126384
0.126455
0.131559
6.73816e-17
-1.44875e-16
5.34894e-17
8.8806e-17
2.85123e-17
-2.04245e-16
3.43579e-16
3.26358e-16
3.82881e-16
3.02439e-16
-3.53627e-17
4.31038e-18
3.09752e-17
8.42831e-17
1.24337e-17
4.68517e-17
-1.48025e-16
-3.88269e-16
-2.3429e-16
1.8661e-16
3.41469e-16
-1.13752e-16
-2.06739e-16
-4.79469e-16
-4.62909e-16
-3.85397e-16
-4.53799e-16
-2.96402e-16
-2.65978e-16
-2.13958e-17
-2.60715e-16
-5.62206e-16
-5.72874e-16
-6.37025e-17
3.97089e-16
-3.67916e-17
-9.83705e-16
-3.97151e-15
-1.55727e-14
-5.34393e-14
-1.70807e-13
-5.02826e-13
-1.38587e-12
-3.5642e-12
-8.62614e-12
-2.01161e-11
-4.64958e-11
-1.04552e-10
-2.31498e-10
-5.02433e-10
-1.07345e-09
-2.24984e-09
-4.63006e-09
-9.34765e-09
-1.84797e-08
-3.57424e-08
-6.74606e-08
-1.24767e-07
-2.25722e-07
-4.01702e-07
-6.95782e-07
-1.1753e-06
-1.87259e-06
-2.88186e-06
-4.10558e-06
-5.56409e-06
-7.30569e-06
-8.69074e-06
-1.11872e-05
-1.19924e-05
-1.50413e-05
-1.49105e-05
-1.91662e-05
-1.98512e-05
-2.49573e-05
-2.52183e-05
-2.86419e-05
-3.19088e-05
-3.45791e-05
-3.24358e-05
-4.55448e-05
-3.82283e-05
-5.82377e-05
-2.87688e-05
-6.52988e-05
-1.4454e-05
-8.13541e-05
-1.12608e-05
-9.48353e-05
-4.0372e-05
-0.000114252
-9.24688e-05
-0.000111652
-0.000233762
0.000208381
-0.000354066
0.00025112
-0.000328083
-0.000901272
9.36698e-05
-0.00133717
0.00684428
-0.000259397
0.0983287
0.17897
0.161428
0.181349
0.165884
0.158577
0.156873
0.1488
0.167534
0.158301
0.165153
0.158666
0.159523
0.166714
0.160905
0.165761
-9.23449e-17
-1.9321e-16
-2.32122e-16
6.93626e-17
-1.40028e-16
-6.73006e-16
1.2728e-16
6.14831e-16
3.8753e-16
3.80464e-16
4.10544e-16
3.82916e-16
3.59877e-16
5.3016e-17
-1.34884e-16
4.95107e-17
7.461e-17
-7.13464e-17
-2.5179e-16
-5.81122e-16
-3.57905e-16
-3.3094e-16
-6.4418e-16
-1.73286e-16
4.08117e-16
2.73792e-16
-2.64875e-17
1.45063e-19
8.45198e-17
1.24052e-16
6.82503e-17
1.78862e-16
6.84889e-18
1.12463e-16
-7.24266e-17
-2.6025e-16
-1.45483e-15
-6.20517e-15
-2.39959e-14
-8.21314e-14
-2.61e-13
-7.70606e-13
-2.12948e-12
-5.49515e-12
-1.3341e-11
-3.13403e-11
-7.26825e-11
-1.64722e-10
-3.6813e-10
-8.0703e-10
-1.73493e-09
-3.65682e-09
-7.55238e-09
-1.52803e-08
-3.02697e-08
-5.87349e-08
-1.1172e-07
-2.0774e-07
-3.7665e-07
-6.62854e-07
-1.12075e-06
-1.82704e-06
-2.8185e-06
-4.20698e-06
-5.8763e-06
-7.75905e-06
-9.69404e-06
-1.06438e-05
-1.24545e-05
-1.34772e-05
-1.70363e-05
-1.94641e-05
-2.32354e-05
-2.63446e-05
-2.91025e-05
-3.34159e-05
-3.69825e-05
-3.858e-05
-4.2127e-05
-4.21351e-05
-5.31633e-05
-5.2893e-05
-6.4579e-05
-4.13563e-05
-7.14434e-05
-2.65684e-05
-7.76997e-05
-4.41627e-05
-0.000118462
-4.87849e-05
-0.000134024
-0.000102048
-0.000129474
-0.000229041
7.47957e-05
-0.000352049
-8.48354e-06
-0.000237062
-0.000574535
0.00103317
-0.00060693
0.00839974
-0.00165349
0.121609
0.224672
0.200634
0.227465
0.194806
0.19185
0.191467
0.181614
0.204199
0.194359
0.200887
0.18669
0.191538
0.202631
0.196979
0.204024
7.28431e-17
-3.53138e-17
-7.47556e-17
-3.66504e-17
-1.33126e-16
1.28026e-16
2.63824e-16
4.26986e-16
3.15079e-16
1.01561e-16
2.04624e-16
1.29909e-17
5.06923e-17
-3.54575e-16
-1.86315e-16
1.61941e-16
1.25431e-16
-1.32267e-16
-4.83074e-17
-3.20501e-16
-2.28628e-16
-1.15927e-16
-2.80708e-16
-3.06094e-16
-2.06e-17
-2.47869e-16
-2.29061e-16
-7.66188e-17
1.05837e-16
-1.06029e-16
-1.13952e-16
2.04753e-16
-7.33177e-17
-2.66632e-16
-3.1691e-16
-2.06845e-18
-1.60368e-15
-6.19068e-15
-2.35715e-14
-7.82483e-14
-2.48114e-13
-7.30502e-13
-2.01667e-12
-5.19651e-12
-1.2618e-11
-2.97917e-11
-6.9089e-11
-1.56477e-10
-3.48925e-10
-7.64501e-10
-1.64632e-09
-3.48018e-09
-7.22354e-09
-1.47052e-08
-2.93612e-08
-5.74048e-08
-1.09588e-07
-2.03307e-07
-3.64794e-07
-6.32136e-07
-1.05278e-06
-1.6983e-06
-2.62901e-06
-3.99046e-06
-5.83618e-06
-7.9178e-06
-1.06125e-05
-1.21962e-05
-1.53198e-05
-1.83085e-05
-2.21965e-05
-2.60297e-05
-2.92515e-05
-3.3061e-05
-3.39424e-05
-3.91779e-05
-3.84832e-05
-5.01835e-05
-4.91314e-05
-5.19866e-05
-6.32452e-05
-5.40285e-05
-8.74711e-05
-3.60914e-05
-9.26374e-05
-5.58801e-05
-9.61656e-05
-7.07652e-05
-0.000116762
-9.83742e-05
-9.78585e-05
-0.000165474
7.07876e-05
-0.000120302
0.000270944
-0.000181667
-0.000518627
-0.000159126
-0.000843459
0.00143056
-0.000472614
0.00867664
0.00970642
0.153656
0.261565
0.240986
0.267254
0.22968
0.222682
0.223574
0.216032
0.237243
0.232429
0.24113
0.215541
0.225987
0.237185
0.232739
0.248496
1.14066e-16
-2.47092e-16
-2.23121e-16
2.28172e-16
-4.98774e-17
1.39635e-16
6.4024e-16
7.55438e-16
4.9677e-16
4.45102e-16
2.49796e-16
-7.40936e-17
-4.69354e-16
-3.99811e-16
-2.29516e-16
-2.19043e-16
-4.80874e-17
-1.82556e-16
-4.18542e-16
-2.23922e-16
-8.81782e-17
-2.65015e-16
-4.90987e-16
-3.45333e-16
-4.13876e-16
-2.69665e-16
-1.44676e-16
-3.59013e-17
-1.22641e-16
-2.0396e-16
-1.94572e-17
-2.51698e-16
-2.36174e-16
-2.38612e-16
6.50158e-17
-5.25329e-16
-1.46062e-15
-8.40201e-15
-2.98379e-14
-1.03623e-13
-3.28258e-13
-9.69568e-13
-2.67741e-12
-6.92326e-12
-1.67652e-11
-3.90077e-11
-9.04048e-11
-2.04046e-10
-4.53142e-10
-9.85394e-10
-2.10399e-09
-4.40856e-09
-9.05799e-09
-1.82329e-08
-3.5923e-08
-6.91852e-08
-1.30693e-07
-2.41931e-07
-4.38601e-07
-7.79021e-07
-1.34851e-06
-2.27827e-06
-3.68794e-06
-5.67636e-06
-8.17187e-06
-1.09258e-05
-1.39539e-05
-1.63293e-05
-1.96618e-05
-2.24926e-05
-2.56911e-05
-2.87153e-05
-3.14904e-05
-3.72128e-05
-3.95318e-05
-4.80938e-05
-4.7048e-05
-5.84589e-05
-5.92457e-05
-6.54168e-05
-7.68981e-05
-6.28859e-05
-8.59241e-05
-6.06137e-05
-9.61836e-05
-7.79445e-05
-0.000120387
-0.000105188
-0.000119654
-0.000152756
-9.24551e-05
-0.000187466
-2.63231e-05
-0.000269938
-5.91111e-05
-0.000224552
-0.000476556
0.000237443
-0.000367314
0.00215717
-0.0018992
0.00752926
0.0369025
0.191644
0.301441
0.283757
0.307217
0.26283
0.256107
0.250798
0.256385
0.277265
0.271966
0.269031
0.247504
0.258074
0.2651
0.269182
0.292777
1.19154e-16
-7.21101e-17
-1.26696e-18
-2.09466e-16
-1.62863e-16
2.00227e-16
5.64265e-16
1.05913e-15
6.62987e-16
3.14148e-16
1.23325e-16
1.2796e-16
-2.744e-16
-6.81712e-16
-2.80375e-16
2.01678e-16
1.51054e-16
-8.92552e-17
-1.1438e-16
-8.39035e-17
-1.82114e-16
-3.19124e-16
-5.79428e-16
-5.33594e-16
-4.62301e-16
-1.89102e-16
5.76118e-17
3.29293e-17
-2.62134e-16
-5.13633e-16
-3.90805e-16
-3.76914e-16
-3.45504e-16
-1.13767e-16
1.74754e-17
-4.6669e-16
-2.1284e-15
-7.55164e-15
-2.88036e-14
-9.84226e-14
-3.12544e-13
-9.23747e-13
-2.55787e-12
-6.64186e-12
-1.62752e-11
-3.87594e-11
-9.0444e-11
-2.07292e-10
-4.67379e-10
-1.03584e-09
-2.25517e-09
-4.81487e-09
-1.00793e-08
-2.06773e-08
-4.15503e-08
-8.15882e-08
-1.55714e-07
-2.89652e-07
-5.23266e-07
-9.16661e-07
-1.54887e-06
-2.51498e-06
-3.88446e-06
-5.70729e-06
-8.0117e-06
-1.04998e-05
-1.35878e-05
-1.6891e-05
-2.04613e-05
-2.48049e-05
-2.87913e-05
-3.42384e-05
-3.76291e-05
-4.39175e-05
-4.41119e-05
-5.35028e-05
-5.4146e-05
-6.85519e-05
-6.88933e-05
-7.34065e-05
-8.6213e-05
-7.94111e-05
-0.00010094
-7.29401e-05
-0.000109241
-0.00011143
-0.000108925
-0.00016678
-7.45909e-05
-0.000207446
2.92543e-05
-0.000133498
3.47482e-05
-0.000128453
-0.000434995
-5.89515e-05
-0.00054891
0.000584014
-0.00045486
0.000235995
-0.00242694
0.0018506
0.0800188
0.234896
0.338378
0.322111
0.348467
0.299
0.290276
0.272748
0.286558
0.31047
0.301816
0.304094
0.277238
0.290723
0.293431
0.305811
0.336542
3.81333e-16
5.64133e-17
-1.17099e-16
-1.33583e-16
1.07334e-16
7.10903e-16
5.48865e-16
4.20245e-16
5.84035e-16
1.50396e-16
-1.91461e-16
-1.9655e-16
-1.48382e-16
-1.9578e-16
-1.88129e-16
-1.20232e-17
9.51424e-17
-1.4657e-16
-2.09126e-16
-1.44221e-16
-3.14008e-18
-2.17215e-16
-7.21997e-16
-1.04705e-15
-5.8198e-16
-2.84177e-16
2.03965e-16
2.07216e-16
-8.51092e-17
-2.26532e-16
-1.29765e-16
-3.71062e-16
-2.3239e-16
-3.09918e-16
-2.58416e-16
-5.09366e-16
-1.76719e-15
-8.85999e-15
-3.37286e-14
-1.17091e-13
-3.70951e-13
-1.09518e-12
-3.02926e-12
-7.81433e-12
-1.89482e-11
-4.42806e-11
-1.02753e-10
-2.32602e-10
-5.17533e-10
-1.12827e-09
-2.41345e-09
-5.06571e-09
-1.04308e-08
-2.10589e-08
-4.16336e-08
-8.06639e-08
-1.53384e-07
-2.84781e-07
-5.15359e-07
-9.07771e-07
-1.55069e-06
-2.56846e-06
-4.11323e-06
-6.3652e-06
-9.48595e-06
-1.34465e-05
-1.78216e-05
-2.19017e-05
-2.5663e-05
-3.02922e-05
-3.41489e-05
-3.92276e-05
-4.25426e-05
-4.90272e-05
-5.28557e-05
-6.18935e-05
-6.53579e-05
-7.38217e-05
-8.14173e-05
-8.8389e-05
-9.38774e-05
-8.65219e-05
-0.000119145
-0.00010017
-0.00012816
-0.000144038
-0.000123993
-0.000188687
-8.90406e-05
-0.000222168
-7.5426e-05
-0.000198302
-0.000161589
-0.000129543
-0.000385689
4.14185e-05
-0.00038251
0.000671447
-0.000580183
-0.000930691
-0.00114428
-0.00282451
0.120415
0.304784
0.369331
0.363125
0.380588
0.338178
0.323492
0.307769
0.317635
0.340409
0.333724
0.332665
0.30368
0.327479
0.323495
0.345519
0.373036
5.77749e-17
-7.64568e-17
-2.32735e-17
-1.00585e-16
1.71933e-16
4.3412e-16
3.40568e-16
5.59858e-16
7.66155e-16
4.66635e-16
-3.40869e-17
4.6359e-17
-4.14447e-16
-2.75343e-16
-2.49724e-16
-2.78518e-16
1.16679e-16
5.05841e-16
2.77619e-16
-3.45435e-18
-1.61423e-16
-2.45979e-16
-6.82076e-16
-7.28333e-16
-4.49629e-16
-1.85119e-16
-3.58992e-18
-1.17281e-16
-1.92985e-16
-3.52398e-16
-3.30526e-16
-1.63609e-16
-1.55255e-16
-1.48375e-16
5.97159e-17
-3.75233e-16
-1.8602e-15
-9.44535e-15
-3.24421e-14
-1.12655e-13
-3.54544e-13
-1.05777e-12
-2.93428e-12
-7.65986e-12
-1.87705e-11
-4.46636e-11
-1.04366e-10
-2.39579e-10
-5.40756e-10
-1.19958e-09
-2.61387e-09
-5.5887e-09
-1.17142e-08
-2.40528e-08
-4.83421e-08
-9.48474e-08
-1.81425e-07
-3.38461e-07
-6.14959e-07
-1.08506e-06
-1.85426e-06
-3.05987e-06
-4.85657e-06
-7.36968e-06
-1.06853e-05
-1.45377e-05
-1.84775e-05
-2.23132e-05
-2.57972e-05
-3.12464e-05
-3.57399e-05
-4.23018e-05
-4.65293e-05
-5.45243e-05
-5.82084e-05
-6.81724e-05
-7.57728e-05
-8.57861e-05
-9.15403e-05
-9.56176e-05
-0.000114304
-9.70646e-05
-0.000122847
-0.000126731
-0.000128758
-0.00017717
-0.000115454
-0.000212175
-2.97232e-05
-0.000212617
-9.80053e-05
-0.000133148
-0.000351781
-0.000123241
-0.00041784
0.000125805
-0.000549104
-0.000346247
-0.00112725
-0.00174679
0.0041285
-0.00279325
0.161964
0.357999
0.394345
0.403154
0.41646
0.3713
0.360216
0.341677
0.35296
0.360604
0.365307
0.357786
0.33129
0.356676
0.354705
0.391976
0.407083
-1.53956e-16
5.15132e-17
1.26915e-16
1.94589e-16
1.35214e-16
3.96998e-16
4.402e-16
4.68802e-16
4.71963e-16
1.76113e-16
-1.33221e-16
-1.14489e-16
-1.1626e-16
-2.56082e-16
-2.34268e-16
-7.20088e-17
1.45551e-16
1.15707e-16
3.82284e-16
2.5087e-16
1.25054e-16
6.15347e-17
-5.4278e-19
-4.05411e-16
-5.1999e-16
-6.26851e-16
-8.27238e-16
-6.55901e-16
-5.59145e-16
-5.19115e-16
-5.1084e-16
1.18827e-17
1.54433e-16
7.98574e-17
6.42072e-18
-3.82463e-16
-2.31217e-15
-9.29622e-15
-3.53005e-14
-1.19064e-13
-3.82631e-13
-1.1318e-12
-3.14458e-12
-8.15243e-12
-1.98816e-11
-4.68616e-11
-1.09256e-10
-2.49191e-10
-5.58364e-10
-1.22662e-09
-2.64373e-09
-5.58717e-09
-1.15807e-08
-2.35283e-08
-4.684e-08
-9.14072e-08
-1.74638e-07
-3.25663e-07
-5.91643e-07
-1.04524e-06
-1.79092e-06
-2.96823e-06
-4.74459e-06
-7.27668e-06
-1.072e-05
-1.50337e-05
-2.00087e-05
-2.57936e-05
-3.06933e-05
-3.70789e-05
-4.19631e-05
-4.89616e-05
-5.38536e-05
-6.30018e-05
-6.75472e-05
-7.62603e-05
-8.52836e-05
-9.15344e-05
-0.000110013
-9.99387e-05
-0.000131164
-0.000115024
-0.000149092
-0.000150616
-0.000147079
-0.000184727
-0.000150084
-0.000213366
-0.000105713
-0.000207672
-0.000173899
-0.000177518
-0.000316181
-0.000112767
-0.000394484
0.000312947
-0.000359546
-0.000560153
-0.000318659
-0.000941091
0.0124955
0.00780805
0.219777
0.430773
0.411018
0.456128
0.445965
0.410467
0.39277
0.376162
0.391172
0.383324
0.397349
0.371432
0.363878
0.386356
0.385835
0.432643
0.432439
6.0745e-18
-1.41635e-16
5.68488e-17
1.58222e-17
2.7173e-16
3.09918e-16
3.11245e-16
3.98015e-16
1.9226e-16
1.06863e-16
-4.80346e-17
-4.15377e-18
1.80903e-16
-7.38988e-17
-2.60122e-16
-3.46882e-16
-3.20382e-16
3.16918e-16
2.54056e-16
2.49882e-16
4.20469e-16
1.33337e-16
-2.5864e-16
-3.57612e-16
-3.47947e-16
-4.36119e-16
-2.55665e-16
-4.3002e-16
-4.16676e-16
-3.19806e-16
-2.3631e-16
-1.57179e-16
-6.2801e-17
-1.81538e-16
-5.91312e-16
-7.37842e-16
-2.70991e-15
-9.07573e-15
-3.35842e-14
-1.16209e-13
-3.6829e-13
-1.09803e-12
-3.05426e-12
-7.97419e-12
-1.95504e-11
-4.65155e-11
-1.0889e-10
-2.50379e-10
-5.65613e-10
-1.25564e-09
-2.73707e-09
-5.85785e-09
-1.22962e-08
-2.5301e-08
-5.0978e-08
-1.00414e-07
-1.9306e-07
-3.62244e-07
-6.6233e-07
-1.17802e-06
-2.0325e-06
-3.39289e-06
-5.45993e-06
-8.43035e-06
-1.24523e-05
-1.74476e-05
-2.30018e-05
-2.85163e-05
-3.32429e-05
-3.89582e-05
-4.3602e-05
-5.06569e-05
-5.64001e-05
-6.54326e-05
-7.32652e-05
-8.34977e-05
-9.71457e-05
-0.000101143
-0.000124033
-0.000114081
-0.00013794
-0.000136065
-0.000160204
-0.000180172
-0.00015738
-0.000201192
-0.000119276
-0.00022497
-0.000146324
-0.000189412
-0.000292433
-0.000221587
-0.000307827
8.5379e-06
-0.000445536
-5.76222e-05
-0.000241489
-0.000526866
0.00169243
-0.000724843
0.00965059
0.0346748
0.280082
0.463821
0.442671
0.48299
0.455611
0.445207
0.428348
0.408261
0.424099
0.410816
0.426294
0.394161
0.390112
0.412103
0.418605
0.467875
0.459185
1.98706e-16
-4.25779e-18
4.88903e-17
1.29934e-16
3.54584e-16
5.52341e-16
4.07748e-16
3.1042e-16
3.09738e-16
1.79779e-16
2.74195e-18
-6.43963e-19
2.80096e-17
-1.06189e-16
-1.10893e-17
-1.41448e-16
-2.98744e-16
-6.99416e-17
4.82974e-17
2.77658e-17
3.895e-17
-1.23255e-16
-2.4398e-16
-1.75384e-16
-2.29286e-16
-1.05952e-16
-2.00122e-16
-2.07888e-16
-1.15361e-16
-3.49941e-16
-1.54318e-16
-3.15859e-16
2.6814e-17
1.09171e-16
-1.91555e-16
-8.0008e-16
-2.77909e-15
-9.50762e-15
-3.48062e-14
-1.14751e-13
-3.69537e-13
-1.09489e-12
-3.05304e-12
-7.95754e-12
-1.94995e-11
-4.6255e-11
-1.08272e-10
-2.48635e-10
-5.60733e-10
-1.24074e-09
-2.69432e-09
-5.73725e-09
-1.19797e-08
-2.45141e-08
-4.91385e-08
-9.6509e-08
-1.85377e-07
-3.47675e-07
-6.35827e-07
-1.13131e-06
-1.95368e-06
-3.26687e-06
-5.2655e-06
-8.16389e-06
-1.20899e-05
-1.70746e-05
-2.27751e-05
-2.86403e-05
-3.45466e-05
-4.16712e-05
-4.87845e-05
-5.71949e-05
-6.4919e-05
-7.46472e-05
-8.28018e-05
-9.19981e-05
-0.000105135
-0.000111381
-0.000129272
-0.000135563
-0.000152286
-0.000167655
-0.000158721
-0.000199756
-0.000177244
-0.000228009
-0.000155807
-0.000258578
-0.000239702
-0.000213766
-0.000317812
-0.000236751
-0.000383632
0.000126905
-0.000360557
-0.000258356
0.000258422
-0.000188869
0.00237996
-0.000746542
0.00656633
0.0774657
0.351125
0.50965
0.485455
0.522411
0.471862
0.481069
0.451167
0.443166
0.450201
0.441463
0.451769
0.423235
0.415722
0.436408
0.448303
0.494694
0.485471
-1.41282e-17
-2.74976e-17
4.31385e-17
8.91832e-18
3.59154e-16
2.4714e-16
2.27734e-16
2.51752e-16
2.14678e-16
2.67935e-16
3.05485e-16
1.27798e-16
2.18454e-16
9.27705e-17
-9.60223e-17
-6.90749e-17
-7.42423e-17
-3.35413e-16
-6.88834e-17
3.3799e-16
2.30517e-16
-9.93966e-17
-2.08413e-16
-3.12063e-16
-3.38198e-16
-3.63941e-16
-2.04926e-16
-1.90652e-17
4.32755e-17
1.41767e-16
-1.0723e-16
-7.23783e-17
1.57421e-16
2.28874e-16
9.9223e-17
-6.11936e-16
-2.84598e-15
-9.05888e-15
-3.26379e-14
-1.09573e-13
-3.48423e-13
-1.03758e-12
-2.89324e-12
-7.56307e-12
-1.85725e-11
-4.43098e-11
-1.0419e-10
-2.40668e-10
-5.45795e-10
-1.21573e-09
-2.65775e-09
-5.70235e-09
-1.19992e-08
-2.47536e-08
-5.0024e-08
-9.89555e-08
-1.91439e-07
-3.61777e-07
-6.66678e-07
-1.19615e-06
-2.08417e-06
-3.51806e-06
-5.73e-06
-8.97806e-06
-1.34485e-05
-1.92154e-05
-2.58921e-05
-3.29166e-05
-3.92887e-05
-4.64379e-05
-5.35163e-05
-6.17071e-05
-6.99779e-05
-7.90175e-05
-9.04673e-05
-0.000100092
-0.000117603
-0.000125226
-0.000144556
-0.000153608
-0.00016394
-0.000191711
-0.000183741
-0.000223902
-0.000193628
-0.000231904
-0.000205456
-0.000215479
-0.000351513
-0.000218325
-0.000318095
-0.000150938
-0.000379739
-0.00013009
-0.000177581
-0.000405756
0.00042646
-0.000605286
-0.000171662
-0.00246356
0.00272169
0.144658
0.429826
0.545169
0.525266
0.559661
0.500668
0.508075
0.474015
0.477984
0.477623
0.468982
0.471156
0.448377
0.4394
0.46181
0.476867
0.516531
0.509474
9.48585e-17
1.62494e-16
1.78167e-16
-3.0013e-18
2.28867e-16
1.19396e-16
2.65965e-16
2.38731e-16
3.77221e-16
3.6531e-16
2.72806e-16
-1.05716e-17
-1.36055e-16
-1.29306e-16
1.65929e-16
4.42225e-17
1.23658e-16
1.48602e-16
9.40612e-17
2.19658e-16
2.49263e-16
2.55025e-16
1.34531e-16
-8.00985e-17
-3.14029e-16
-3.99636e-16
-8.95193e-17
2.75677e-16
1.61641e-16
4.56075e-17
-1.05819e-16
9.68678e-17
-1.18193e-16
-6.69251e-17
-1.94087e-16
-5.17533e-16
-2.15358e-15
-8.63145e-15
-3.03244e-14
-1.03917e-13
-3.33816e-13
-9.92652e-13
-2.77596e-12
-7.25836e-12
-1.78472e-11
-4.25925e-11
-1.00199e-10
-2.31416e-10
-5.24757e-10
-1.16825e-09
-2.55267e-09
-5.47223e-09
-1.15049e-08
-2.37113e-08
-4.78812e-08
-9.46654e-08
-1.83085e-07
-3.45932e-07
-6.37601e-07
-1.14438e-06
-1.99502e-06
-3.37065e-06
-5.49573e-06
-8.62507e-06
-1.29525e-05
-1.85448e-05
-2.51647e-05
-3.21656e-05
-3.8787e-05
-4.6306e-05
-5.38922e-05
-6.35238e-05
-7.33158e-05
-8.44235e-05
-9.57434e-05
-0.000107426
-0.000123173
-0.00013493
-0.000152602
-0.000169096
-0.00017687
-0.00021273
-0.000197889
-0.000244101
-0.000220115
-0.000262713
-0.000287302
-0.00022355
-0.000383466
-0.000265616
-0.000384272
-0.000130814
-0.000324721
-0.000367493
9.82629e-05
-0.000545975
9.12997e-05
-0.000955583
-0.00188847
-0.000394996
0.00806364
0.224004
0.483637
0.571688
0.571886
0.588396
0.534387
0.536511
0.501501
0.509538
0.499487
0.497533
0.485245
0.472741
0.462076
0.485626
0.504013
0.536384
0.528025
2.14489e-17
6.46422e-17
1.57287e-16
3.00406e-18
2.38112e-16
2.03134e-16
1.19422e-16
1.36873e-16
2.08603e-16
2.71957e-16
3.0337e-16
2.43318e-16
2.00474e-16
1.16375e-16
4.86037e-17
4.41969e-17
-1.93851e-16
-1.61887e-16
3.49575e-16
4.07629e-16
4.47975e-16
4.25506e-16
2.71589e-16
1.20503e-16
2.24882e-16
5.44007e-17
-3.68706e-17
1.23207e-16
2.39253e-16
8.49574e-17
3.78757e-17
3.24191e-16
2.54013e-16
-7.4465e-17
-2.39774e-16
-5.83034e-16
-2.00586e-15
-7.83402e-15
-2.81827e-14
-9.54821e-14
-3.00881e-13
-9.03775e-13
-2.51926e-12
-6.60774e-12
-1.6258e-11
-3.89147e-11
-9.18005e-11
-2.13027e-10
-4.8503e-10
-1.08551e-09
-2.38421e-09
-5.13998e-09
-1.08708e-08
-2.25447e-08
-4.58169e-08
-9.11785e-08
-1.77526e-07
-3.37806e-07
-6.2733e-07
-1.13514e-06
-1.99689e-06
-3.40749e-06
-5.62028e-06
-8.93309e-06
-1.36184e-05
-1.98131e-05
-2.74269e-05
-3.58006e-05
-4.39007e-05
-5.22105e-05
-6.07082e-05
-7.10139e-05
-8.19405e-05
-9.42181e-05
-0.00010659
-0.000120724
-0.000135732
-0.00015253
-0.000166792
-0.000189511
-0.000191943
-0.000231999
-0.000226039
-0.000258669
-0.000255252
-0.000257428
-0.000348628
-0.000251391
-0.000386187
-0.000263344
-0.000328802
-0.000252118
-0.00014475
-0.000407871
-7.17262e-05
-0.000571219
-0.000800309
-0.00096485
-0.00139173
0.00809016
0.0332529
0.308769
0.555883
0.576403
0.615965
0.619674
0.568955
0.568492
0.52852
0.543131
0.524853
0.529809
0.500982
0.491687
0.484865
0.508713
0.533128
0.554218
0.543777
1.35813e-16
2.09667e-16
9.77344e-17
-9.49313e-18
2.34449e-16
2.92566e-17
1.25796e-17
2.49082e-16
2.52229e-16
1.89367e-16
-5.81725e-17
-2.2828e-16
1.66536e-16
1.39116e-16
3.30345e-16
2.15067e-16
-6.99182e-17
-2.1054e-17
1.25018e-16
2.76388e-16
4.21296e-16
3.62971e-16
2.673e-16
1.15276e-16
1.13824e-16
2.82365e-16
1.5403e-16
-8.8349e-17
4.00708e-16
6.02528e-16
4.29391e-16
2.3844e-16
4.43843e-17
-1.31823e-16
-1.84754e-16
-2.86642e-16
-1.81199e-15
-6.93413e-15
-2.56237e-14
-8.74447e-14
-2.80949e-13
-8.35709e-13
-2.33982e-12
-6.14131e-12
-1.51293e-11
-3.63175e-11
-8.59318e-11
-1.99946e-10
-4.56476e-10
-1.02311e-09
-2.25026e-09
-4.85451e-09
-1.02708e-08
-2.13064e-08
-4.33137e-08
-8.6227e-08
-1.67954e-07
-3.19746e-07
-5.94139e-07
-1.07581e-06
-1.89411e-06
-3.23537e-06
-5.34345e-06
-8.50909e-06
-1.29961e-05
-1.89907e-05
-2.63571e-05
-3.4759e-05
-4.29212e-05
-5.13988e-05
-6.02567e-05
-7.04413e-05
-8.23681e-05
-9.44642e-05
-0.000108711
-0.000122682
-0.000140978
-0.000158914
-0.000176419
-0.00020404
-0.000210359
-0.000242675
-0.000249977
-0.000276105
-0.000303432
-0.00027745
-0.000374587
-0.00032309
-0.00037034
-0.000369447
-0.000217602
-0.000466883
-9.03156e-05
-0.000532323
-0.000366371
-0.000636644
-0.000999567
0.000213815
-0.00188359
0.00846812
0.0779416
0.388923
0.607614
0.59326
0.640716
0.628772
0.603889
0.598498
0.552805
0.569468
0.553641
0.557668
0.516305
0.507519
0.503664
0.529265
0.555555
0.566811
0.556222
6.87302e-17
2.61153e-16
1.0248e-16
1.14084e-16
2.18709e-16
1.24068e-17
-1.83248e-17
1.21251e-16
3.27751e-16
4.75717e-16
2.49833e-16
1.09698e-16
-1.80946e-16
-4.25815e-16
-3.43599e-16
1.66101e-16
2.61619e-16
2.76716e-16
3.05461e-16
1.18488e-16
2.15804e-16
2.0895e-16
2.58175e-16
1.2761e-16
2.91925e-16
7.41693e-16
6.06149e-16
6.7751e-16
4.40124e-16
5.89066e-16
5.81945e-16
5.34072e-17
-4.77733e-17
3.4964e-17
-2.54335e-16
-7.01611e-16
-1.67254e-15
-6.78362e-15
-2.20179e-14
-7.73163e-14
-2.44713e-13
-7.3606e-13
-2.05692e-12
-5.41015e-12
-1.33385e-11
-3.20925e-11
-7.6096e-11
-1.77488e-10
-4.06165e-10
-9.12828e-10
-2.01349e-09
-4.36068e-09
-9.26587e-09
-1.93056e-08
-3.94254e-08
-7.88592e-08
-1.54377e-07
-2.95475e-07
-5.52261e-07
-1.0065e-06
-1.78549e-06
-3.07872e-06
-5.14266e-06
-8.30197e-06
-1.28902e-05
-1.92052e-05
-2.72612e-05
-3.68715e-05
-4.70031e-05
-5.68597e-05
-6.70074e-05
-7.79496e-05
-9.17146e-05
-0.000105361
-0.000121867
-0.000137873
-0.000155876
-0.000175981
-0.000192911
-0.00022274
-0.000228539
-0.000260447
-0.000279583
-0.000293437
-0.000349769
-0.000321754
-0.000387455
-0.000361477
-0.000335618
-0.000372123
-0.000186861
-0.000452194
-0.000280754
-0.000661365
-0.000705672
-0.000459613
-0.000346834
0.00230857
-0.000197523
0.00846143
0.141445
0.485289
0.639663
0.62654
0.665857
0.63533
0.63529
0.614447
0.582566
0.595018
0.584189
0.585792
0.535068
0.523311
0.524145
0.548107
0.576569
0.575322
0.568799
-7.18587e-17
1.46608e-16
2.34949e-16
2.1476e-16
-2.26163e-16
-1.59417e-16
-5.48989e-17
1.94534e-16
3.86365e-16
4.6761e-16
4.19333e-16
6.21375e-16
2.15586e-16
-2.5597e-16
-3.65734e-16
-2.16248e-16
1.45098e-16
1.97033e-16
3.29733e-16
2.16167e-16
9.92244e-17
-4.56636e-17
6.47624e-17
1.41203e-16
3.88516e-16
8.98579e-16
9.66345e-16
7.73026e-16
6.27703e-16
4.75123e-16
5.34036e-16
3.82483e-16
2.9111e-16
-3.75574e-17
-2.52119e-16
-7.07781e-16
-1.87553e-15
-5.59641e-15
-2.08561e-14
-6.87165e-14
-2.18838e-13
-6.53979e-13
-1.83022e-12
-4.81413e-12
-1.18776e-11
-2.86261e-11
-6.80584e-11
-1.59201e-10
-3.65284e-10
-8.23447e-10
-1.82136e-09
-3.95479e-09
-8.4227e-09
-1.75943e-08
-3.60194e-08
-7.224e-08
-1.41812e-07
-2.72264e-07
-5.10625e-07
-9.34295e-07
-1.66485e-06
-2.87963e-06
-4.82363e-06
-7.8088e-06
-1.21704e-05
-1.82132e-05
-2.60127e-05
-3.54146e-05
-4.56148e-05
-5.56307e-05
-6.59478e-05
-7.70989e-05
-9.06708e-05
-0.00010514
-0.0001213
-0.000140148
-0.000156857
-0.000184995
-0.00019863
-0.000236562
-0.000248308
-0.000275579
-0.00030173
-0.000313459
-0.000372282
-0.000357352
-0.000380118
-0.000437997
-0.000257768
-0.000547011
-0.000218551
-0.000527682
-0.000482269
-0.000482119
-0.000580956
0.00028346
-0.00108758
0.000225478
-0.000638351
0.0106679
0.241421
0.588566
0.671743
0.665477
0.698365
0.653711
0.671217
0.628157
0.607586
0.616281
0.611412
0.608251
0.551462
0.538517
0.542131
0.569449
0.590137
0.579677
0.580628
2.65992e-17
3.20167e-16
1.35018e-16
-2.18808e-16
-1.75087e-16
1.27792e-16
1.07704e-16
-2.82681e-17
2.20945e-16
5.77783e-16
4.91954e-16
3.74411e-16
1.61689e-16
8.47884e-17
-9.58246e-17
-2.1275e-16
-2.04163e-17
3.00298e-16
2.26201e-16
3.02246e-16
1.51536e-16