/*--------------------------------*- C++ -*----------------------------------*\
| =========                 |                                                 |
| \\      /  F ield         | OpenFOAM: The Open Source CFD Toolbox           |
|  \\    /   O peration     | Version:  2.2.x                                 |
|   \\  /    A nd           | Web:      www.OpenFOAM.org                      |
|    \\/     M anipulation  |                                                 |
\*---------------------------------------------------------------------------*/
FoamFile
{
    version     2.0;
    format      ascii;
    class       surfaceScalarField;
    location    "0.05";
    object      phi;
}
// * * * * * * * * * * * * * * * * * * * * * * * * * * * * * * * * * * * * * //

dimensions      [1 0 -1 0 0 0 0];

internalField   nonuniform List<scalar> 
28084
(
0.000746224
0.000742988
0.000740213
0.000737877
0.000735962
0.000734443
0.000733299
0.000732503
0.000732031
0.000731856
0.00073195
0.000732288
0.00073284
0.000733581
0.000734484
0.000735523
0.000736673
0.00073791
0.00073921
0.000740553
0.000741918
0.000743286
0.000744639
0.000745961
0.000747237
0.000748455
0.000749601
0.000750665
0.000751637
0.000752509
0.000753273
0.000753923
0.000754452
0.000754855
0.000755128
0.000755267
0.000755269
0.00075513
0.000754848
0.000754419
0.000753842
0.000753114
0.000752233
0.000751195
0.00075
0.00075924
0.000768832
0.000778732
0.000788896
0.000799279
0.000809836
0.00082052
0.000831284
0.000842079
0.000852858
0.000863572
0.000874173
0.000884611
0.000894838
0.000904806
0.000914469
0.00092378
0.000932693
0.000941166
0.000949155
0.000956618
0.000963516
0.000969813
0.000975477
0.00098048
0.000984796
0.000988404
0.000991287
0.000993435
0.00099484
0.000995502
0.000995421
0.000994611
0.000993086
0.000990865
0.000987985
0.000984475
0.000980383
0.00097575
0.00097064
0.000965117
0.00095925
0.000953121
0.000946756
0.000940348
0.0009339
0.000927481
0.000921434
0.000915542
0.000909996
0.000904954
0.000900953
0.000897523
0.000895524
0.000894076
0.000893095
0.000901813
0.000784778
0.000606027
0.000550088
0.000470797
0.00041817
0.00039626
0.000380948
0.000343544
0.000285209
0.000237936
0.000211272
0.000192277
0.000157373
9.89801e-05
5.59206e-05
2.95577e-05
3.7119e-06
3.23513e-06
0.00074974
2.77572e-06
0.000748785
2.33538e-06
0.000748259
1.91574e-06
0.000748147
1.51833e-06
0.000748429
1.14451e-06
0.000749083
7.95452e-07
0.000750087
4.72133e-07
0.000751415
1.7529e-07
0.000753039
-9.458e-08
0.000754933
-3.37226e-07
0.000757068
-5.52641e-07
0.000759414
-7.41055e-07
0.000761942
-9.02918e-07
0.000764622
-1.03889e-06
0.000767426
-1.14981e-06
0.000770325
-1.23667e-06
0.000773292
-1.30061e-06
0.0007763
-1.34287e-06
0.000779324
-1.36477e-06
0.000782341
-1.36768e-06
0.000785328
-1.353e-06
0.000788266
-1.32213e-06
0.000791134
-1.27648e-06
0.000793916
-1.21739e-06
0.000796595
-1.14619e-06
0.000799159
-1.06412e-06
0.000801594
-9.72359e-07
0.00080389
-8.71996e-07
0.000806036
-7.64041e-07
0.000808025
-6.49412e-07
0.000809849
-5.28932e-07
0.000811502
-4.03328e-07
0.000812979
-2.73238e-07
0.000814276
-1.39202e-07
0.000815389
-1.68075e-09
0.000816315
1.38959e-07
0.000817052
2.82427e-07
0.000817598
4.28513e-07
0.000817951
5.77075e-07
0.00081811
7.28041e-07
0.000818073
8.81404e-07
0.00081784
1.03721e-06
0.000817409
1.19557e-06
0.000816778
-9.2401e-06
0.000815947
-9.59168e-06
0.00082469
-9.90005e-06
0.00083376
-1.01643e-05
0.000843115
-1.03835e-05
0.00085271
-1.0557e-05
0.0008625
-1.06839e-05
0.000872441
-1.07635e-05
0.000882485
-1.07953e-05
0.000892586
-1.07788e-05
0.000902697
-1.07137e-05
0.00091277
-1.05998e-05
0.000922758
-1.0437e-05
0.000932611
-1.02255e-05
0.000942283
-9.96569e-06
0.000951726
-9.65814e-06
0.000960892
-9.3037e-06
0.000969737
-8.90347e-06
0.000978214
-8.45884e-06
0.000986279
-7.97148e-06
0.000993891
-7.44335e-06
0.00100101
-6.87675e-06
0.00100759
-6.27431e-06
0.00101359
-5.63911e-06
0.00101899
-4.9744e-06
0.00102374
-4.28383e-06
0.00102783
-3.57228e-06
0.00103123
-2.84217e-06
0.00103392
-2.10115e-06
0.00103588
-1.35021e-06
0.00103711
-5.99688e-07
0.00103759
1.48698e-07
0.00103733
8.85084e-07
0.00103634
1.60863e-06
0.00103462
2.31107e-06
0.00103218
2.97932e-06
0.00102906
3.61927e-06
0.00102529
4.20932e-06
0.0010209
4.7581e-06
0.00101593
5.24574e-06
0.00101043
5.66791e-06
0.00100445
6.03897e-06
0.000998086
6.30161e-06
0.000991378
6.51072e-06
0.000984416
6.61915e-06
0.000977234
6.6251e-06
0.000969988
6.54582e-06
0.000962735
6.33105e-06
0.000955533
6.08012e-06
0.000948611
5.63773e-06
0.000942049
5.07964e-06
0.000935719
4.40343e-06
0.000929822
3.63384e-06
0.000925005
2.60698e-06
0.000920814
1.48515e-06
0.00091799
-5.92278e-08
0.000915769
-6.7705e-07
0.000912481
-3.86197e-05
0.000918658
4.33741e-06
0.000695924
3.34509e-05
0.000529462
4.93032e-05
0.000490612
4.33114e-05
0.000445821
4.50175e-05
0.000407285
4.07107e-05
0.000385957
3.53372e-05
0.000369964
3.09262e-05
0.000337487
3.48532e-05
0.000283531
3.83419e-05
0.000237049
4.02445e-05
0.000208189
3.56225e-05
0.000187812
3.2036e-05
0.000152148
3.52899e-05
9.63133e-05
3.95131e-05
5.46185e-05
4.36007e-05
2.84679e-05
5.11203e-06
4.19073e-06
0.000754435
3.30116e-06
0.00075573
2.44751e-06
0.000757426
1.63381e-06
0.00075951
8.63806e-07
0.000761963
1.40861e-07
0.000764765
-5.32086e-07
0.000767892
-1.15259e-06
0.000771318
-1.71876e-06
0.000775016
-2.22922e-06
0.000778956
-2.6832e-06
0.000783108
-3.08049e-06
0.00078744
-3.42139e-06
0.000791922
-3.70676e-06
0.00079652
-3.93789e-06
0.000801204
-4.11651e-06
0.000805943
-4.24472e-06
0.000810708
-4.32493e-06
0.000815468
-4.35978e-06
0.000820197
-4.35211e-06
0.00082487
-4.30488e-06
0.000829463
-4.22114e-06
0.000833953
-4.10392e-06
0.00083832
-3.95627e-06
0.000842545
-3.78114e-06
0.000846613
-3.58139e-06
0.000850509
-3.35973e-06
0.000854219
-3.11873e-06
0.000857733
-2.86077e-06
0.00086104
-2.58804e-06
0.000864134
-2.30254e-06
0.000867006
-2.00604e-06
0.000869651
-1.70014e-06
0.000872066
-1.38619e-06
0.000874246
-1.06539e-06
0.00087619
-7.38694e-07
0.000877894
-4.06907e-07
0.000879358
-7.0635e-08
0.000880581
2.69676e-07
0.000881562
6.13741e-07
0.000882301
9.61423e-07
0.000882799
1.31272e-06
0.000883054
1.66777e-06
0.000883067
2.02681e-06
0.000882838
-1.7983e-05
0.000882367
-1.8662e-05
0.000890605
-1.92547e-05
0.000899147
-1.97592e-05
0.000907948
-2.0174e-05
0.000916966
-2.04975e-05
0.000926155
-2.07282e-05
0.000935471
-2.08648e-05
0.000944868
-2.09063e-05
0.000954299
-2.08518e-05
0.000963718
-2.07007e-05
0.000973077
-2.04527e-05
0.00098233
-2.01078e-05
0.000991428
-1.96664e-05
0.00100033
-1.91292e-05
0.00100898
-1.84976e-05
0.00101733
-1.77732e-05
0.00102535
-1.69584e-05
0.00103299
-1.60559e-05
0.0010402
-1.50692e-05
0.00104694
-1.40022e-05
0.00105317
-1.28595e-05
0.00105886
-1.16464e-05
0.00106397
-1.03689e-05
0.00106845
-9.03427e-06
0.00107229
-7.64897e-06
0.00107546
-6.22196e-06
0.00107793
-4.76059e-06
0.00107969
-3.2772e-06
0.00108072
-1.77825e-06
0.00108102
-2.78038e-07
0.00108057
1.21562e-06
0.00107939
2.68775e-06
0.00107747
4.12556e-06
0.00107483
5.5238e-06
0.00107148
6.85711e-06
0.00106745
8.12727e-06
0.00106278
9.30127e-06
0.00105749
1.03877e-05
0.00105163
1.13547e-05
0.00104525
1.2191e-05
0.00103842
1.29166e-05
0.00103119
1.34408e-05
0.00102362
1.38558e-05
0.00101581
1.40532e-05
0.00100782
1.40618e-05
0.000999732
1.39063e-05
0.000991632
1.34749e-05
0.000983653
1.29097e-05
0.000975878
1.20567e-05
0.000968486
1.09413e-05
0.000961552
9.62831e-06
0.000954832
8.07969e-06
0.000949071
6.22856e-06
0.000944007
4.10606e-06
0.000940227
1.44419e-06
0.000937309
-7.58579e-07
0.000934114
-7.37738e-06
0.000938816
3.39174e-05
0.000737868
5.2023e-05
0.000571075
7.05764e-05
0.000517637
7.6083e-05
0.000461087
8.3532e-05
0.000416781
7.69209e-05
0.00038885
6.79397e-05
0.000367129
6.13515e-05
0.000330953
7.00064e-05
0.000282982
7.852e-05
0.000237415
7.98684e-05
0.000205408
7.16563e-05
0.000181076
6.41916e-05
0.000144827
6.9509e-05
9.59385e-05
7.67639e-05
5.54609e-05
8.65252e-05
2.73589e-05
4.23053e-06
2.89594e-06
0.000760308
1.6045e-06
0.000763821
3.63709e-07
0.000767708
-8.19269e-07
0.000771957
-1.93779e-06
0.000776551
-2.98585e-06
0.000781471
-3.95817e-06
0.000786692
-4.85036e-06
0.000792189
-5.6589e-06
0.000797933
-6.38124e-06
0.000803893
-7.01579e-06
0.000810036
-7.56192e-06
0.00081633
-8.01992e-06
0.000822741
-8.39094e-06
0.000829233
-8.67693e-06
0.000835774
-8.88057e-06
0.00084233
-9.00514e-06
0.000848869
-9.05446e-06
0.00085536
-9.03276e-06
0.000861774
-8.9446e-06
0.000868082
-8.79475e-06
0.00087426
-8.58811e-06
0.000880283
-8.32963e-06
0.00088613
-8.02421e-06
0.000891781
-7.67665e-06
0.00089722
-7.29157e-06
0.00090243
-6.87338e-06
0.000907399
-6.42625e-06
0.000912115
-5.95404e-06
0.000916569
-5.46029e-06
0.000920753
-4.94823e-06
0.00092466
-4.42076e-06
0.000928285
-3.88041e-06
0.000931625
-3.32941e-06
0.000934678
-2.76963e-06
0.00093744
-2.20265e-06
0.000939912
-1.62973e-06
0.000942094
-1.05182e-06
0.000943985
-4.69642e-07
0.000945586
1.16386e-07
0.000946898
7.06063e-07
0.000947922
1.29942e-06
0.000948659
1.89669e-06
0.000949111
2.4983e-06
0.000949278
-2.62213e-05
0.000949162
-2.72034e-05
0.000956889
-2.80562e-05
0.000964895
-2.8777e-05
0.000973136
-2.93635e-05
0.00098157
-2.98135e-05
0.000990151
-3.01249e-05
0.000998836
-3.02959e-05
0.00100758
-3.03249e-05
0.00101633
-3.02109e-05
0.00102505
-2.9953e-05
0.00103369
-2.95507e-05
0.0010422
-2.90044e-05
0.00105054
-2.83145e-05
0.00105865
-2.74825e-05
0.0010665
-2.65103e-05
0.00107404
-2.54006e-05
0.00108123
-2.41568e-05
0.00108802
-2.27833e-05
0.00109436
-2.12851e-05
0.00110023
-1.96684e-05
0.00110558
-1.79402e-05
0.00111037
-1.61083e-05
0.00111456
-1.41815e-05
0.00111813
-1.21711e-05
0.00112105
-1.00864e-05
0.00112329
-7.94151e-06
0.00112483
-5.74674e-06
0.00112566
-3.5203e-06
0.00112575
-1.27263e-06
0.0011251
9.72966e-07
0.00112372
3.20812e-06
0.0011216
5.41239e-06
0.00111875
7.564e-06
0.00111518
9.64939e-06
0.00111091
1.16399e-05
0.00110597
1.35346e-05
0.00110038
1.52842e-05
0.00109419
1.68982e-05
0.00108744
1.83423e-05
0.00108018
1.95814e-05
0.00107246
2.06517e-05
0.00106436
2.14337e-05
0.00105594
2.2035e-05
0.00104727
2.23186e-05
0.00103843
2.23339e-05
0.00102951
2.20797e-05
0.00102058
2.145e-05
0.0010118
2.05703e-05
0.00100319
1.92632e-05
0.000994909
1.76438e-05
0.000987316
1.5608e-05
0.00098
1.32701e-05
0.000973316
1.05627e-05
0.000967218
7.55196e-06
0.000962116
3.61565e-06
0.000958584
9.22949e-07
0.000954726
-7.36757e-06
0.000959945
6.32142e-05
0.00074412
8.646e-05
0.000590306
0.000110247
0.000523296
0.000119249
0.000471599
0.000122892
0.000434521
0.000110304
0.000400156
0.000102799
0.000371384
9.51195e-05
0.000336299
0.000106563
0.000293235
0.000117132
0.000249245
0.000118434
0.000210986
0.000107948
0.000178102
9.63431e-05
0.000139654
0.000103263
9.66492e-05
0.000112602
5.82979e-05
0.000129111
2.76686e-05
1.10116e-06
-6.16603e-07
0.000767362
-2.2826e-06
0.000773056
-3.88528e-06
0.000779098
-5.41361e-06
0.000785478
-6.85736e-06
0.00079218
-8.20725e-06
0.000799185
-9.45512e-06
0.000806469
-1.05941e-05
0.000814006
-1.16187e-05
0.000821766
-1.25248e-05
0.000829715
-1.33097e-05
0.000837821
-1.39723e-05
0.000846048
-1.45125e-05
0.000854359
-1.49319e-05
0.000862719
-1.5233e-05
0.00087109
-1.54195e-05
0.000879437
-1.54961e-05
0.000887725
-1.54679e-05
0.000895922
-1.53411e-05
0.000903995
-1.51222e-05
0.000911915
-1.48178e-05
0.000919655
-1.44351e-05
0.000927189
-1.39811e-05
0.000934495
-1.34628e-05
0.000941552
-1.28871e-05
0.000948341
-1.22606e-05
0.000954847
-1.15896e-05
0.000961056
-1.08801e-05
0.000966958
-1.01377e-05
0.000972541
-9.36732e-06
0.000977799
-8.5737e-06
0.000982725
-7.76094e-06
0.000987316
-6.93267e-06
0.000991568
-6.09205e-06
0.000995479
-5.24175e-06
0.000999049
-4.38399e-06
0.00100228
-3.52056e-06
0.00100517
-2.6528e-06
0.00100771
-1.78169e-06
0.00100993
-9.07823e-07
0.0010118
-3.14363e-08
0.00101334
8.47543e-07
0.00101456
1.72948e-06
0.00101544
2.61503e-06
0.001016
-3.39483e-05
0.00101623
-3.52092e-05
0.00102344
-3.62977e-05
0.0010309
-3.72107e-05
0.00103858
-3.7945e-05
0.00104642
-3.8498e-05
0.00105439
-3.88669e-05
0.00106244
-3.90496e-05
0.00107052
-3.90441e-05
0.00107859
-3.88491e-05
0.0010866
-3.84634e-05
0.00109452
-3.78869e-05
0.00110228
-3.71198e-05
0.00110985
-3.61632e-05
0.00111718
-3.50188e-05
0.00112422
-3.36896e-05
0.00113094
-3.2179e-05
0.00113729
-3.0492e-05
0.00114322
-2.86342e-05
0.0011487
-2.66127e-05
0.00115368
-2.44353e-05
0.00115814
-2.21119e-05
0.00116202
-1.96529e-05
0.00116531
-1.707e-05
0.00116796
-1.43779e-05
0.00116995
-1.15896e-05
0.00117125
-8.72405e-06
0.00117185
-5.7944e-06
0.00117174
-2.82515e-06
0.00117089
1.69806e-07
0.0011693
3.16413e-06
0.00116697
6.13848e-06
0.00116391
9.06769e-06
0.00116013
1.19242e-05
0.00115563
1.46979e-05
0.00115042
1.73394e-05
0.00114455
1.98433e-05
0.00113805
2.21695e-05
0.00113095
2.43021e-05
0.0011233
2.62102e-05
0.00111515
2.78457e-05
0.00110655
2.92458e-05
0.00109757
3.02887e-05
0.00108828
3.10633e-05
0.00107874
3.14251e-05
0.00106904
3.14408e-05
0.00105929
3.10623e-05
0.00104954
3.02302e-05
0.00103989
2.90438e-05
0.00103048
2.72496e-05
0.0010214
2.52004e-05
0.00101299
2.25013e-05
0.00100495
1.93651e-05
0.000997259
1.56421e-05
0.000990345
1.16916e-05
0.000984492
6.40392e-06
0.000980503
2.80419e-06
0.000975511
-1.70205e-05
0.000981218
8.53457e-05
0.000731029
0.000136187
0.000580885
0.000158247
0.000518796
0.000165387
0.000470092
0.000160076
0.00043316
0.000142453
0.000399127
0.000134514
0.000371377
0.000132568
0.000332347
0.00014601
0.000289051
0.000157116
0.000244558
0.000157593
0.000206644
0.000144601
0.000170697
0.000130409
0.000131394
0.000136864
9.503e-05
0.000148077
5.95699e-05
0.000171463
2.79038e-05
-4.23855e-06
-6.31051e-06
0.0007756
-8.32484e-06
0.000783435
-1.02651e-05
0.000791593
-1.21158e-05
0.000800066
-1.38623e-05
0.000808839
-1.54915e-05
0.000817893
-1.69919e-05
0.000827205
-1.83535e-05
0.000836747
-1.95684e-05
0.000846488
-2.06308e-05
0.000856394
-2.15365e-05
0.00086643
-2.22836e-05
0.000876558
-2.28719e-05
0.000886739
-2.33029e-05
0.000896934
-2.35801e-05
0.000907106
-2.3708e-05
0.000917214
-2.36927e-05
0.000927224
-2.35412e-05
0.000937098
-2.32614e-05
0.000946804
-2.2862e-05
0.00095631
-2.2352e-05
0.000965586
-2.17408e-05
0.000974606
-2.10377e-05
0.000983347
-2.02521e-05
0.000991785
-1.93932e-05
0.000999903
-1.847e-05
0.00100768
-1.74907e-05
0.00101511
-1.64634e-05
0.00102218
-1.53955e-05
0.00102887
-1.42938e-05
0.00103519
-1.31644e-05
0.00104111
-1.20128e-05
0.00104665
-1.08439e-05
0.0010518
-9.66187e-06
0.00105656
-8.47023e-06
0.00106092
-7.27194e-06
0.00106489
-6.06934e-06
0.00106848
-4.86422e-06
0.00107167
-3.65782e-06
0.00107448
-2.45089e-06
0.00107691
-1.24374e-06
0.00107897
-3.62123e-08
0.00108065
1.17222e-06
0.00108195
2.38247e-06
0.00108289
-4.11583e-05
0.00108347
-4.26733e-05
0.00109016
-4.39732e-05
0.00109708
-4.50541e-05
0.00110418
-4.59125e-05
0.00111143
-4.65449e-05
0.00111878
-4.69483e-05
0.00112618
-4.712e-05
0.0011336
-4.70579e-05
0.00114098
-4.67603e-05
0.00114828
-4.62262e-05
0.00115546
-4.54553e-05
0.00116247
-4.44483e-05
0.00116927
-4.32065e-05
0.00117581
-4.17324e-05
0.00118204
-4.00297e-05
0.00118793
-3.8103e-05
0.00119344
-3.59584e-05
0.00119851
-3.36032e-05
0.00120312
-3.10462e-05
0.00120722
-2.82977e-05
0.00121077
-2.53697e-05
0.00121375
-2.22754e-05
0.00121612
-1.90293e-05
0.00121784
-1.56497e-05
0.0012189
-1.21534e-05
0.00121927
-8.56279e-06
0.00121893
-4.89708e-06
0.00121786
-1.18179e-06
0.00121607
2.55914e-06
0.00121353
6.29704e-06
0.00121026
1.00063e-05
0.00120626
1.36619e-05
0.00120153
1.72212e-05
0.00119608
2.06689e-05
0.00118995
2.39576e-05
0.00118315
2.70718e-05
0.00117573
2.99606e-05
0.00116771
3.26017e-05
0.00115915
3.49708e-05
0.00115011
3.69977e-05
0.00114061
3.8716e-05
0.00113075
4.00028e-05
0.00112058
4.09396e-05
0.00111018
4.13792e-05
0.00109963
4.1388e-05
0.00108901
4.09095e-05
0.00107842
3.98453e-05
0.00106792
3.8345e-05
0.00105773
3.60984e-05
0.00104793
3.35086e-05
0.00103855
3.02611e-05
0.00102944
2.62818e-05
0.00102112
2.15736e-05
0.00101358
1.6705e-05
0.00100681
1.04597e-05
0.00100233
7.02737e-06
0.000996178
-1.51271e-05
0.00100086
9.95759e-05
0.000742335
0.000193002
0.000574782
0.000205437
0.000510685
0.000211474
0.000464678
0.000199806
0.000424046
0.00017876
0.000394103
0.000168037
0.000366356
0.000170576
0.000328691
0.000185696
0.00028585
0.000195909
0.0002441
0.000194272
0.000205166
0.000179374
0.000167466
0.000164069
0.000128809
0.000170017
9.33275e-05
0.000183687
6.08627e-05
0.000213091
3.16191e-05
-1.17471e-05
-1.41455e-05
0.000785028
-1.64831e-05
0.00079496
-1.87378e-05
0.000805191
-2.08888e-05
0.000815714
-2.29165e-05
0.000826517
-2.48033e-05
0.000837581
-2.65337e-05
0.000848881
-2.80945e-05
0.000860389
-2.94749e-05
0.000872075
-3.06667e-05
0.000883901
-3.16643e-05
0.000895831
-3.24647e-05
0.000907824
-3.30674e-05
0.00091984
-3.34741e-05
0.000931838
-3.36888e-05
0.000943776
-3.37173e-05
0.000955614
-3.3567e-05
0.000967312
-3.3247e-05
0.000978833
-3.27672e-05
0.000990141
-3.21385e-05
0.0010012
-3.13724e-05
0.00101199
-3.0481e-05
0.00102247
-2.9476e-05
0.00103261
-2.83697e-05
0.00104241
-2.71736e-05
0.00105183
-2.5899e-05
0.00106086
-2.45569e-05
0.00106949
-2.31573e-05
0.00107769
-2.17096e-05
0.00108548
-2.02226e-05
0.00109283
-1.8704e-05
0.00109974
-1.7161e-05
0.00110621
-1.55996e-05
0.00111224
-1.40251e-05
0.00111782
-1.24422e-05
0.00112296
-1.08544e-05
0.00112766
-9.26485e-06
0.00113193
-7.67564e-06
0.00113576
-6.08838e-06
0.00113916
-4.50397e-06
0.00114213
-2.92275e-06
0.00114468
-1.34449e-06
0.00114682
2.31544e-07
0.00114855
1.80654e-06
0.00114986
-4.7846e-05
0.00115078
-4.95907e-05
0.00115694
-5.10775e-05
0.0011633
-5.23023e-05
0.00116983
-5.32607e-05
0.00117648
-5.39491e-05
0.00118321
-5.43639e-05
0.00118996
-5.45021e-05
0.00119671
-5.43613e-05
0.0012034
-5.39397e-05
0.00120999
-5.32365e-05
0.00121643
-5.22514e-05
0.00122269
-5.09852e-05
0.00122871
-4.94401e-05
0.00123445
-4.7619e-05
0.00123987
-4.55264e-05
0.00124493
-4.31682e-05
0.00124959
-4.05518e-05
0.0012538
-3.76862e-05
0.00125753
-3.45819e-05
0.00126074
-3.12514e-05
0.0012634
-2.77088e-05
0.00126547
-2.39705e-05
0.00126692
-2.00546e-05
0.00126771
-1.59817e-05
0.00126784
-1.17726e-05
0.00126726
-7.45425e-06
0.00126598
-3.05058e-06
0.00126397
1.4084e-06
0.00126122
5.89628e-06
0.00125774
1.03795e-05
0.00125351
1.48232e-05
0.00124856
1.91949e-05
0.00124289
2.34551e-05
0.0012365
2.75773e-05
0.00122943
3.15047e-05
0.00122169
3.52165e-05
0.00121334
3.86635e-05
0.00120442
4.18036e-05
0.00119495
4.46237e-05
0.001185
4.70353e-05
0.00117461
4.90694e-05
0.00116385
5.05948e-05
0.0011528
5.16833e-05
0.00114153
5.21959e-05
0.00113012
5.2172e-05
0.00111863
5.15846e-05
0.00110723
5.02759e-05
0.0010959
4.84848e-05
0.00108485
4.58453e-05
0.00107424
4.26645e-05
0.0010639
3.86558e-05
0.00105399
3.40385e-05
0.00104477
2.82781e-05
0.0010366
2.24887e-05
0.00102915
1.52612e-05
0.00102457
1.20394e-05
0.00101749
-4.70805e-06
0.00102046
0.000123505
0.000744819
0.000244697
0.000584832
0.000247937
0.000518179
0.000260406
0.00046178
0.000236387
0.000416162
0.000218475
0.000385497
0.000202128
0.000358601
0.000206925
0.000322195
0.000223026
0.000280127
0.000234301
0.000236936
0.000228508
0.000199183
0.000214333
0.000160575
0.000198412
0.000124511
0.000204217
8.96015e-05
0.000218845
6.14135e-05
0.000255703
3.65485e-05
-2.13788e-05
-2.40774e-05
0.000795653
-2.67144e-05
0.000807633
-2.92614e-05
0.00081989
-3.16915e-05
0.000832419
-3.39798e-05
0.000845207
-3.61035e-05
0.000858235
-3.80425e-05
0.000871481
-3.97797e-05
0.000884914
-4.13012e-05
0.000898502
-4.25963e-05
0.000912208
-4.36576e-05
0.000925991
-4.44808e-05
0.000939811
-4.5065e-05
0.000953624
-4.54121e-05
0.000967386
-4.55266e-05
0.000981054
-4.54156e-05
0.000994585
-4.50881e-05
0.00100794
-4.45551e-05
0.00102107
-4.38289e-05
0.00103395
-4.29229e-05
0.00104653
-4.18513e-05
0.00105879
-4.06288e-05
0.0010707
-3.92703e-05
0.00108223
-3.77905e-05
0.00109335
-3.6204e-05
0.00110404
-3.45247e-05
0.0011143
-3.2766e-05
0.00112409
-3.09405e-05
0.00113342
-2.90597e-05
0.00114227
-2.71345e-05
0.00115063
-2.51744e-05
0.00115851
-2.31882e-05
0.00116589
-2.11834e-05
0.00117278
-1.91666e-05
0.00117917
-1.71433e-05
0.00118507
-1.51181e-05
0.00119049
-1.30946e-05
0.00119542
-1.10756e-05
0.00119987
-9.06274e-06
0.00120384
-7.05729e-06
0.00120735
-5.05956e-06
0.00121039
-3.06921e-06
0.00121298
-1.0853e-06
0.00121511
8.93691e-07
0.0012168
-5.40074e-05
0.00121804
-5.5957e-05
0.00122367
-5.76064e-05
0.00122948
-5.89508e-05
0.00123543
-5.99856e-05
0.00124148
-6.07064e-05
0.00124758
-6.11095e-05
0.00125368
-6.11917e-05
0.00125976
-6.09504e-05
0.00126575
-6.03836e-05
0.00127162
-5.94906e-05
0.00127733
-5.82714e-05
0.00128283
-5.67272e-05
0.00128807
-5.48605e-05
0.00129301
-5.26751e-05
0.00129762
-5.01765e-05
0.00130185
-4.73716e-05
0.00130566
-4.42692e-05
0.00130901
-4.088e-05
0.00131186
-3.72165e-05
0.00131418
-3.32933e-05
0.00131594
-2.91271e-05
0.0013171
-2.4737e-05
0.00131762
-2.01442e-05
0.00131749
-1.53726e-05
0.00131667
-1.04467e-05
0.00131516
-5.39703e-06
0.00131293
-2.51665e-07
0.00130997
4.95487e-06
0.00130627
1.01881e-05
0.00130183
1.54118e-05
0.00129666
2.05875e-05
0.00129076
2.56797e-05
0.00128413
3.06311e-05
0.0012768
3.54167e-05
0.00126879
3.99809e-05
0.00126013
4.42873e-05
0.00125085
4.82859e-05
0.001241
5.19206e-05
0.00123062
5.51812e-05
0.00121976
5.79675e-05
0.00120847
6.02989e-05
0.00119682
6.20568e-05
0.0011849
6.32977e-05
0.00117274
6.388e-05
0.00116046
6.3812e-05
0.00114813
6.31131e-05
0.00113587
6.15907e-05
0.00112375
5.94462e-05
0.00111192
5.6456e-05
0.0011003
5.26925e-05
0.00108914
4.79997e-05
0.00107844
4.26013e-05
0.00106819
3.60716e-05
0.00105934
2.93603e-05
0.00105158
2.09526e-05
0.0010456
1.7603e-05
0.00103636
1.34539e-05
0.0010353
0.000145819
0.000740483
0.000291455
0.000592127
0.000289751
0.000518335
0.000308281
0.000456819
0.000274422
0.000410576
0.000260781
0.00037683
0.00024065
0.000344188
0.000246047
0.000313813
0.000258907
0.000279669
0.000268207
0.000235106
0.000262382
0.000195076
0.000247628
0.000160354
0.000231743
0.000127594
0.000237072
9.18992e-05
0.000251228
6.34295e-05
0.000300525
3.79904e-05
-3.30838e-05
-3.60577e-05
0.000807485
-3.89715e-05
0.000821461
-4.17898e-05
0.000835692
-4.44792e-05
0.000850176
-4.70084e-05
0.000864899
-4.9349e-05
0.000879845
-5.14759e-05
0.000894989
-5.33677e-05
0.000910301
-5.50069e-05
0.000925746
-5.63799e-05
0.000941287
-5.74773e-05
0.000956881
-5.82936e-05
0.000972484
-5.88272e-05
0.000988052
-5.90801e-05
0.00100354
-5.90575e-05
0.00101889
-5.87677e-05
0.00103408
-5.82215e-05
0.00104905
-5.7432e-05
0.00106375
-5.6414e-05
0.00107816
-5.51836e-05
0.00109224
-5.37579e-05
0.00110594
-5.21546e-05
0.00111924
-5.03917e-05
0.00113211
-4.8487e-05
0.00114453
-4.64579e-05
0.00115647
-4.43214e-05
0.00116792
-4.20936e-05
0.00117886
-3.97897e-05
0.00118928
-3.74236e-05
0.00119916
-3.50083e-05
0.00120852
-3.25554e-05
0.00121733
-3.00755e-05
0.0012256
-2.75775e-05
0.00123333
-2.50694e-05
0.00124051
-2.25579e-05
0.00124716
-2.00483e-05
0.00125327
-1.75451e-05
0.00125885
-1.50513e-05
0.0012639
-1.25692e-05
0.00126844
-1.01002e-05
0.00127247
-7.64442e-06
0.00127599
-5.20158e-06
0.00127901
-2.77042e-06
0.00128154
-3.49073e-07
0.00128359
-5.96389e-05
0.00128515
-6.17689e-05
0.00129025
-6.35565e-05
0.00129551
-6.49965e-05
0.00130087
-6.60837e-05
0.00130631
-6.68137e-05
0.00131178
-6.71824e-05
0.00131724
-6.71862e-05
0.00132264
-6.68224e-05
0.00132793
-6.60894e-05
0.00133309
-6.49862e-05
0.00133805
-6.35132e-05
0.00134279
-6.1672e-05
0.00134725
-5.94657e-05
0.0013514
-5.6899e-05
0.00135519
-5.39783e-05
0.00135859
-5.07116e-05
0.00136155
-4.71094e-05
0.00136403
-4.31837e-05
0.00136601
-3.89493e-05
0.00136744
-3.44228e-05
0.0013683
-2.96233e-05
0.00136854
-2.4573e-05
0.00136815
-1.92958e-05
0.00136708
-1.38191e-05
0.00136533
-8.17191e-06
0.00136288
-2.38752e-06
0.0013597
3.50069e-06
0.00135579
9.4545e-06
0.00135114
1.54335e-05
0.00134575
2.14004e-05
0.00133963
2.73031e-05
0.00133278
3.31041e-05
0.00132521
3.87515e-05
0.00131693
4.41986e-05
0.00130798
4.93917e-05
0.00129838
5.42792e-05
0.00128818
5.88279e-05
0.00127741
6.29504e-05
0.00126612
6.66402e-05
0.00125434
6.97969e-05
0.00124215
7.24194e-05
0.0012296
7.4401e-05
0.0012168
7.57738e-05
0.00120378
7.6431e-05
0.00119066
7.63105e-05
0.00117745
7.54855e-05
0.0011643
7.37768e-05
0.0011514
7.12795e-05
0.00113863
6.78111e-05
0.00112616
6.3498e-05
0.00111418
5.81297e-05
0.00110275
5.19093e-05
0.0010917
4.45818e-05
0.00108225
3.70046e-05
0.00107302
2.81856e-05
0.0010655
2.42213e-05
0.00105441
4.92319e-05
0.00104146
0.000188339
0.000719021
0.000331118
0.000585153
0.000328173
0.000510338
0.000349646
0.000448772
0.000308689
0.000404705
0.000300313
0.000366582
0.000280575
0.000327745
0.000288022
0.000298721
0.000295645
0.000268544
0.000302087
0.000227836
0.000295505
0.000190725
0.000277894
0.000158518
0.000263526
0.000127277
0.00027032
9.17046e-05
0.000285874
6.30395e-05
0.000345831
3.52085e-05
-4.68079e-05
-5.00336e-05
0.000820535
-5.3203e-05
0.000836449
-5.6273e-05
0.000852599
-5.92028e-05
0.000868983
-6.19543e-05
0.000885589
-6.44928e-05
0.0009024
-6.67879e-05
0.000919391
-6.88132e-05
0.000936531
-7.05474e-05
0.000953785
-7.19738e-05
0.000971112
-7.30807e-05
0.000988469
-7.38611e-05
0.00100581
-7.43128e-05
0.00102309
-7.44377e-05
0.00104025
-7.42418e-05
0.00105725
-7.37349e-05
0.00107405
-7.29294e-05
0.00109059
-7.18409e-05
0.00110683
-7.04866e-05
0.00112273
-6.88857e-05
0.00113825
-6.70584e-05
0.00115336
-6.50257e-05
0.00116801
-6.28087e-05
0.00118219
-6.04286e-05
0.00119587
-5.7906e-05
0.00120903
-5.52611e-05
0.00122164
-5.25128e-05
0.00123369
-4.96791e-05
0.00124517
-4.67767e-05
0.00125607
-4.38207e-05
0.00126639
-4.0825e-05
0.00127611
-3.7802e-05
0.00128525
-3.47622e-05
0.00129379
-3.17152e-05
0.00130174
-2.86686e-05
0.00130911
-2.56289e-05
0.0013159
-2.26011e-05
0.00132211
-1.9589e-05
0.00132776
-1.65951e-05
0.00133284
-1.36209e-05
0.00133737
-1.06667e-05
0.00134136
-7.73199e-06
0.00134481
-4.81523e-06
0.00134773
-1.91415e-06
0.00135012
-6.47381e-05
0.001352
-6.70239e-05
0.00135657
-6.89254e-05
0.00136126
-7.04369e-05
0.00136605
-7.15531e-05
0.00137088
-7.2269e-05
0.00137572
-7.25804e-05
0.00138052
-7.24836e-05
0.00138525
-7.19759e-05
0.00138985
-7.10555e-05
0.00139428
-6.97218e-05
0.00139851
-6.79755e-05
0.00140248
-6.58187e-05
0.00140617
-6.3255e-05
0.00140952
-6.02901e-05
0.00141249
-5.69312e-05
0.00141506
-5.31878e-05
0.00141717
-4.90716e-05
0.00141879
-4.45967e-05
0.00141989
-3.97795e-05
0.00142043
-3.46389e-05
0.00142039
-2.91968e-05
0.00141972
-2.34782e-05
0.00141841
-1.75102e-05
0.00141642
-1.13231e-05
0.00141373
-4.95042e-06
0.00141034
1.57197e-06
0.00140622
8.20495e-06
0.00140136
1.49076e-05
0.00139576
2.16338e-05
0.00138942
2.83386e-05
0.00138235
3.49691e-05
0.00137455
4.14827e-05
0.00136603
4.78128e-05
0.00135682
5.3915e-05
0.00134693
5.97351e-05
0.0013364
6.52053e-05
0.00132526
7.02859e-05
0.00131358
7.48908e-05
0.00130136
7.90009e-05
0.00128868
8.2524e-05
0.00127559
8.54251e-05
0.00126216
8.7644e-05
0.00124847
8.91292e-05
0.00123458
8.9841e-05
0.00122058
8.96902e-05
0.00120655
8.86944e-05
0.00119258
8.68151e-05
0.00117871
8.39382e-05
0.00116502
8.00447e-05
0.00115174
7.51749e-05
0.00113891
6.92131e-05
0.00112688
6.2268e-05
0.00111543
5.40534e-05
0.00110455
4.53844e-05
0.0010937
3.66423e-05
0.00108427
2.00478e-05
0.001074
0.000105754
0.0010084
0.000259249
0.00068856
0.000372151
0.000580167
0.000367933
0.000512176
0.000388342
0.000453867
0.000342482
0.000407405
0.000338542
0.000361979
0.00031657
0.00031873
0.00032879
0.000287409
0.000334216
0.000255109
0.000334829
0.000220126
0.00032508
0.000185595
0.000305887
0.000155347
0.000294073
0.000125847
0.000301177
9.21549e-05
0.000321904
6.38455e-05
0.000388563
3.07244e-05
-6.24921e-05
-6.59478e-05
0.000834816
-6.93531e-05
0.000852607
-7.26565e-05
0.000870615
-7.58091e-05
0.00088884
-7.87653e-05
0.000907271
-8.14839e-05
0.000925891
-8.39282e-05
0.000944674
-8.60669e-05
0.000963588
-8.78744e-05
0.000982597
-8.93305e-05
0.00100166
-9.0421e-05
0.00102073
-9.11374e-05
0.00103975
-9.14766e-05
0.00105869
-9.14407e-05
0.00107748
-9.10365e-05
0.00109608
-9.02749e-05
0.00111444
-8.91707e-05
0.00113251
-8.77415e-05
0.00115024
-8.60076e-05
0.00116758
-8.39913e-05
0.00118451
-8.17161e-05
0.00120098
-7.92063e-05
0.00121695
-7.64868e-05
0.0012324
-7.35821e-05
0.00124731
-7.05164e-05
0.00126164
-6.7313e-05
0.00127537
-6.39942e-05
0.0012885
-6.05808e-05
0.00130102
-5.70923e-05
0.0013129
-5.35464e-05
0.00132415
-4.99592e-05
0.00133476
-4.63449e-05
0.00134473
-4.27162e-05
0.00135407
-3.90837e-05
0.00136277
-3.54566e-05
0.00137084
-3.18422e-05
0.00137828
-2.82464e-05
0.00138511
-2.46735e-05
0.00139133
-2.11264e-05
0.00139694
-1.76068e-05
0.00140196
-1.41149e-05
0.0014064
-1.065e-05
0.00141026
-7.21043e-06
0.00141356
-3.79334e-06
0.00141629
-6.93033e-05
0.00141848
-7.17204e-05
0.00142251
-7.37117e-05
0.00142664
-7.52709e-05
0.00143085
-7.63925e-05
0.00143507
-7.70713e-05
0.00143928
-7.73028e-05
0.00144343
-7.70833e-05
0.00144748
-7.64102e-05
0.00145138
-7.52817e-05
0.0014551
-7.36975e-05
0.00145859
-7.16585e-05
0.0014618
-6.91675e-05
0.00146471
-6.62288e-05
0.00146726
-6.28488e-05
0.00146943
-5.9036e-05
0.00147116
-5.48011e-05
0.00147242
-5.01574e-05
0.00147319
-4.51205e-05
0.00147341
-3.97091e-05
0.00147307
-3.39445e-05
0.00147213
-2.78508e-05
0.00147055
-2.14555e-05
0.00146832
-1.47894e-05
0.00146541
-7.88567e-06
0.00146179
-7.82346e-07
0.00145746
6.48175e-06
0.0014524
1.3862e-05
0.0014466
2.13139e-05
0.00144005
2.87862e-05
0.00143277
3.62302e-05
0.00142475
4.35852e-05
0.001416
5.08021e-05
0.00140654
5.78179e-05
0.00139639
6.45734e-05
0.00138556
7.10087e-05
0.00137411
7.70527e-05
0.00136205
8.26675e-05
0.00134944
8.77455e-05
0.00133632
9.22667e-05
0.00132272
9.61531e-05
0.00130875
9.93238e-05
0.00129442
0.000101762
0.00127985
0.00010336
0.0012651
0.000104119
0.00125024
0.000103947
0.00123534
0.000102802
0.00122043
0.000100632
0.00120575
9.74076e-05
0.00119127
9.30944e-05
0.00117717
8.76451e-05
0.00116362
8.10457e-05
0.00115083
7.3419e-05
0.0011381
6.41918e-05
0.00112613
5.37934e-05