/*--------------------------------*- C++ -*----------------------------------*\
| =========                 |                                                 |
| \\      /  F ield         | OpenFOAM: The Open Source CFD Toolbox           |
|  \\    /   O peration     | Version:  2.2.x                                 |
|   \\  /    A nd           | Web:      www.OpenFOAM.org                      |
|    \\/     M anipulation  |                                                 |
\*---------------------------------------------------------------------------*/
FoamFile
{
    version     2.0;
    format      ascii;
    class       volScalarField;
    location    "1.45";
    object      divBf;
}
// * * * * * * * * * * * * * * * * * * * * * * * * * * * * * * * * * * * * * //

dimensions      [1 -3 -2 0 0 -1 0];

internalField   nonuniform List<scalar> 
14161
(
642.766
338.528
312.011
268.238
224.934
181.551
138.88
98.5995
55.8264
10.8816
-36.7804
-88.5593
-145.002
-205.635
-271.901
-346.55
-429.241
-513.6
-613.561
-714.86
-826.379
-945.408
-1074.54
-1206.42
-1349.34
-1488.56
-1636.44
-1780.36
-1918.03
-2072.85
-2176.89
-2293.4
-2380.71
-2467.08
-2521.42
-2590.82
-2578.82
-2604.47
-2476.9
-2329.51
-2134.39
-1796.91
-1388.06
-1044.73
-2208.94
-23931.7
-33646
-24399.5
-28934.2
-28890.4
-28836.6
-28393.2
-28215.2
-27946.6
-27729.7
-27141.7
-27589
-26344.4
-25690.5
-24614.8
-23559.7
-23942.8
-20976.9
-19520.4
-19221.3
-17394.2
-15879.3
-14022.7
-11204.3
-10907.1
-9840.5
-7288.96
-5251.43
-3597.84
-1626.74
-1023.7
282.066
3278.83
4583.69
5966.39
7802.65
8527.83
9546.84
12470.5
12739.5
14586.3
14854.9
14927.2
14673.4
17305.3
17960.7
17832.5
18439.3
17298.2
16491.9
16876.9
17975.3
16935.7
16408.3
15337.4
11656.4
3984.38
-4813.23
-9400.79
-9855.59
-11556.4
-12108.6
-12425.2
-12373.8
-12246.9
-11994
-11546
-10801.7
-8909.88
-7054.11
-4572.09
4003.27
-6423.45
41752.2
394.64
92.0271
66.0462
21.9332
-22.3919
-67.6122
-112.86
-156.179
-202.386
-251.154
-303.899
-360.726
-422.187
-489.041
-563.657
-641.855
-727.076
-825.003
-924.449
-1035.28
-1154.86
-1284.29
-1414.33
-1558.7
-1698.8
-1853.12
-1999.42
-2159.28
-2316.33
-2462.19
-2589.2
-2717.07
-2819.48
-2926.35
-2992.62
-3098.73
-3066
-3135.95
-3042.33
-2933.88
-2741.69
-2270.82
-1843.49
-1143.46
-1754.83
-20429.4
-29063.9
-23908.5
-26466.3
-26033.6
-26395.4
-26321.3
-26145.9
-25912
-25428.2
-25077.5
-24523.6
-23877.6
-22402.6
-21637.3
-20877.3
-20218.6
-18523.5
-15847.6
-15524.1
-14855.3
-12847.2
-11601.9
-8872
-7794.67
-6978.95
-5447.9
-2716.51
-1233.1
274.652
1486.18
2589.19
4948.55
6985.23
7955.3
9793.79
10355.3
11294
13980.7
15086.5
16374
17022.1
16301.1
17655.3
19148.4
19732.3
18913
18568.7
18390
17760.7
16443.4
13644.2
10989.4
7794.48
3644.79
-1654.84
-7749.25
-13579.9
-14103.8
-14332.2
-14401
-14184.1
-13906.8
-13433.8
-12942.7
-12441.2
-11983.7
-10954.2
-8946.23
-7055.39
-5468.71
3464.64
-7364.84
36458.6
151.099
-148.123
-172.263
-215.253
-259.044
-304.531
-350.761
-395.769
-443.962
-495.431
-551.06
-610.881
-675.623
-746.34
-823.013
-906.063
-997.856
-1096.74
-1202.29
-1318.9
-1441.32
-1572.1
-1708.96
-1854.94
-2006.82
-2164.18
-2317.3
-2482.85
-2641.82
-2797.48
-2934.26
-3079.3
-3188.9
-3305.59
-3392.48
-3502.87
-3515.76
-3571.57
-3486.41
-3495.14
-3252.14
-2932.28
-2799.52
-3659.76
-5076.39
-20353.7
-30692.9
-22735.3
-21314.5
-21399.2
-20630.6
-20460.7
-20456.9
-20410
-20239.9
-20318.7
-19816.1
-19776.1
-18550
-18186.1
-17074.2
-16215.8
-15752.8
-13416.3
-13044.9
-12298.3
-10532.5
-9348.56
-7275.53
-6293.81
-5376.79
-3788.78
-1562.96
-325.84
1185.97
2457.33
3592.09
5817.15
7631.38
8735.35
10555.2
11224.3
12191.1
14012
15167.3
16281.2
17353
18684.7
19654.8
21006.4
20167.6
19594.7
20229.2
20382.1
19779.9
19108.1
18376.4
16644.8
16489.4
13644.5
4623.91
4449.48
-2112.86
-5415.65
-7185.06
-7604.52
-8284.24
-8920.47
-9351.27
-9640.77
-9514.92
-9454.19
-8855.12
-7510.25
-5620.84
-4634.28
3703.13
-6668.02
33020.7
-86.1769
-380.756
-401.772
-442.302
-484.243
-528.689
-574.595
-620.048
-668.818
-721.343
-778.378
-839.908
-906.759
-980.11
-1059.22
-1145.34
-1238.92
-1340.08
-1449.52
-1569.5
-1693.26
-1823.78
-1968.52
-2119.34
-2271.29
-2429.77
-2591.88
-2756.81
-2921.15
-3087.13
-3230.01
-3384.58
-3501
-3634.62
-3733.86
-3831.84
-3882.52
-3923.15
-3866.11
-3888.54
-3554.93
-3357.96
-2852.33
-3697.68
-4096.9
-22627.8
-31093.1
-24142
-23502.5
-22670.6
-22170.3
-21634.5
-21424.6
-21044.1
-20898.4
-20637.1
-20463.2
-19677.1
-18798.6
-17834
-16821.2
-16064.8
-15112.3
-12802
-11888.1
-10847
-9752.62
-8113.42
-5993.02
-5076.26
-3818.93
-2174.89
-456.753
1030.92
2239.57
3338.36
4526.33
6518.2
8211.9
9677.94
10966.5
11987.5
12833.4
14500.4
16422
17694.7
18916.6
20683.5
20523.8
21004.1
21114.9
21188.2
21571.2
21491.2
21763.2
20454.9
18009.5
14949.3
12968.9
10053.8
6149.01
2755.51
255.178
-3200.33
-3982.76
-5725.62
-6776.92
-7536.1
-7865.63
-8095.7
-8053.59
-8035.86
-7383.11
-6329.01
-4494.76
-4240.16
3344.35
-6119.44
29049.5
-315.947
-604.55
-621.295
-658.228
-697.194
-739.592
-783.989
-828.939
-876.972
-929.371
-986.491
-1048.77
-1117.06
-1190.89
-1271.22
-1358.37
-1453.03
-1556.72
-1668.44
-1787.45
-1913.11
-2047.05
-2194.41
-2344.7
-2500.11
-2661.17
-2822.53
-2994.88
-3161.81
-3327.65
-3488.47
-3643.87
-3769.76
-3920.62
-4017.75
-4116.96
-4193.56
-4237.39
-4238.41
-4167.63
-3935
-3712.55
-3422.67
-4058.84
-4362
-16781.1
-26545.5
-19691.7
-21908
-20967.9
-20355.4
-19956.5
-19463.7
-19056.1
-18867.7
-18527.2
-18019.2
-17069.1
-16450.7
-16030.5
-14463.8
-13415.9
-12499.3
-12110.9
-10123.6
-8868.74
-8395.35
-6789.66
-4810.84
-3483.41
-2275.2
-795.905
648.688
2432.72
3847.21
5220.18
6815.78
8569.7
10039.1
11576.6
12923.7
14607.8
15419.9
17206.8
17656.1
19353.7
21187.1
21003.6
22431.8
22797.3
23339.6
23761.4
23959.7
24856.3
26010.1
25869.8
24699.7
21563.1
16276.7
9987.78
7004.76
3752.9
98.1912
-1222.57
-2702.76
-3759.6
-4923.3
-5749.18
-6233.02
-6564.45
-6483.4
-6726.52
-6148.86
-5449.35
-3465.01
-3733.05
2690.6
-5672.06
25143.8
-536.712
-818.382
-829.866
-862.29
-897.365
-936.801
-978.754
-1022.41
-1068.84
-1120.51
-1176.89
-1238.88
-1306.64
-1380.59
-1461.66
-1549.34
-1644.23
-1748.58
-1860.39
-1979.44
-2106.2
-2242.18
-2388.67
-2539.93
-2698.65
-2860.37
-3022.22
-3196.55
-3365.36
-3536.62
-3704.5
-3861.31
-4006.11
-4153.26
-4276.01
-4361.17
-4453.02
-4536.88
-4492.46
-4400.94
-4171.68
-3862.4
-3451.08
-3285.01
-3686.78
-12926.2
-24287.1
-17615.8
-22402.6
-22116.5
-22454.9
-20910.6
-20146.4
-19823.7
-19570.5
-19190.9
-18563.9
-17831.4
-16941.7
-16347.8
-14433.1
-13879.4
-11893.6
-11267.8
-9254.42
-7098.21
-6653.71
-5335.22
-3977.45
-1846.44
-72.048
888.219
1710.8
3046.92
4753.08
6241.13
7609.77
8423.33
10710.9
12175.4
13723.1
15638.4
17502.4
19509.1
19808.9
20835.7
21542.8
23646.5
24176.6
25640.8
27034.7
28307.7
29089.7
30639.7
31896.8
30233.8
24473.6
18349.3
14466.9
10118.5
6746.18
3152.5
825.555
269.089
-1597.9
-2741.92
-3613.31
-4357.07
-4867.25
-5271.43
-5292.68
-5577.36
-5081.06
-4664.58
-2727.7
-3397.32
2060.65
-5326.28
21610.2
-747.285
-1021.15
-1026.57
-1053.85
-1084.16
-1119.93
-1158.79
-1200.61
-1244.76
-1294.59
-1349.35
-1410.37
-1477.37
-1550.76
-1631.06
-1718.71
-1813.4
-1916.87
-2028.95
-2147.12
-2273.99
-2412.15
-2556.89
-2710.25
-2865.32
-3029.12
-3197.48
-3369.72
-3535.74
-3718.24
-3884.21
-4047.53
-4201.65
-4360.71
-4492.28
-4591.77
-4686.01
-4708.44
-4700.29
-4643.32
-4483.44
-4186.15
-3840.48
-3639.35
-3221.84
-11889.3
-14110.9
-16853.2
-18973
-19999.9
-21199.3
-20643.4
-19751.3
-19209.9
-18616
-17865.6
-16720.5
-15994
-15392.2
-14282.5
-13196.3
-11796.7
-11141.1
-9442.74
-8516.33
-6280.15
-5534.28
-4805.36
-2762.76
-1963.99
241.024
1444.85
2531.93
4122.85
5368.29
6922.85
9134.2
10505.3
12381.2
13557
15220
17964.3
19267.7
19942.8
21599.9
23071
24414
25346.7
28083.4
31048.2
33358.2
35833.1
37577
39424.4
35202.4
27329.8
21297.9
15791.8
11730.3
8301.01
5545.15
2685.74
1936.56
459.051
-858.622
-1792.28
-2687.38
-3385.73
-3859.29
-4245.35
-4255.3
-4569.09
-4174.59
-4024.31
-2185.95
-3128.91
1469.45
-5097.02
18459
-946.469
-1211.95
-1210.72
-1232.36
-1257.27
-1288.77
-1324.12
-1363.69
-1404.81
-1452.52
-1505.37
-1564.67
-1630.32
-1702.37
-1781.49
-1868.42
-1962.32
-2064.02
-2175.95
-2292.42
-2421.95
-2558.46
-2700.13
-2854.55
-3007.63
-3173.56
-3347.25
-3515.41
-3686.91
-3867.32
-4034.22
-4210.46
-4374.38
-4538.47
-4665.12
-4801.21
-4866.82
-4884.09
-4914.5
-4908.67
-4704.16
-4331.7
-3937.36
-3102.54
-1871.03
-9805.34
-9418.29
-16695.3
-15774.4
-19606.2
-20590.4
-20972.2
-21157.7
-21647.1
-21197.6
-19945.8
-18975.2
-17845.9
-16606.9
-15170.9
-13347.8
-11882.7
-10558.5
-9656.44
-7464.84
-6573.61
-4294.96
-3958.55
-2992.02
-513.985
800.869
2486.46
4153.87
5429.32
7136.57
9655.13
11495.9
13216.4
14520.4
16858.5
18265.8
19035.5
20158
22493.2
24873.8
26767.5
28512.4
31335.6
35037.7
39777
42830.8
46861.6
44330
36061.2
28256
21827.4
16823.7
12804.8
9952.47
7164.59
4738.66
3199.95
2253.7
884.137
-124.137
-1112.51
-1834.74
-2469.94
-2884.06
-3291.46
-3337.43
-3677.9
-3356.63
-3405.5
-1830.45
-2857.45
1014.44
-4981.66
15840.9
-1133.13
-1389.91
-1381.68
-1397.32
-1416.56
-1443.2
-1474.92
-1511.11
-1550.12
-1594.51
-1645.5
-1702.69
-1766.25
-1836.48
-1914.16
-1999.78
-2092.56
-2192.01
-2302.65
-2419.75
-2547.87
-2683.68
-2821.96
-2972.61
-3131.24
-3295.15
-3470.96
-3639.91
-3813.2
-3988.23
-4161.97
-4344.96
-4521.05
-4694.25
-4823.87
-4971.55
-5007.05
-5056.54
-5125.37
-5092.73
-4947.43
-4575.09
-4201.61
-3289.4
-1499.09
-6558.09
-8086.45
-15374.5
-15530.7
-21387.9
-21146.2
-23977.4
-24033.9
-23981.7
-22634.4
-21229.1
-19408.3
-17907.7
-16423.2
-14886.7
-13231.9
-11360
-9893.08
-8715.81
-7616.41
-5282.01
-4029.23
-2012.9
-1437.8
651.373
2859.31
4530.01
6765.23
8126.17
9059.25
11424.8
13132.3
15747.8
17144.8
17836.5
19315.5
21851.1
24359.9
26739.4
29761.9
32894.8
36628.7
41445
46223.1
52977
52891.5
44078.8
34508.6
27894
21819.3
17455.3
13925.7
10886.8
8393.79
6049
4668.45
3516.05
2610.58
1352.02
521.581
-304.279
-972.762
-1600.75
-2032.71
-2453.7
-2556.36
-2881.04
-2738.83
-2839
-1551.21
-2677.76
680.053
-4911.38
13710.2
-1306.38
-1554.29
-1538.91
-1548.35
-1562.02
-1583.21
-1611.19
-1643.58
-1680.73
-1721.51
-1769.8
-1824.65
-1886.08
-1954.59
-2030.28
-2114.03
-2204.58
-2303.71
-2410.84
-2530.05
-2652.58
-2788.54
-2926.4
-3075.05
-3233.6
-3398.52
-3569.77
-3745.21
-3918.89
-4091.44
-4273.11
-4454.28
-4642.45
-4816.16
-4954.25
-5111.94
-5185.18
-5242.02
-5326.17
-5314.56
-5179.53
-4805.29
-4493.92
-3305.4
-2537.67
-4489.33
-7101.97
-15348.4
-17735.3
-22793
-22121
-25215.4
-26294.4
-25594.7
-23836.9
-22179.2
-20434.5
-18400.7
-16769.9
-14639.5
-12961.4
-11334.9
-9078.98
-7843.28
-6148.96
-4182.87
-1783.79
-361.83
1983.53
3455.88
5300.07
7194.84
8659.19
10031.2
12502.4
14690.4
15894.5
17002.9
18863.4
21965.1
24715.6
26961.7
29950.6
33967.3
38395.1
43733.2
49042.9
55669.9
59633.9
50634.5
40164.2
32789.8
26097.7
21193.8
17262
14083.4
11597.7
9139.4
7413.27
6121.66
5250.19
4073.21
3245.75
2068.84
1314.64
495.718
-92.43
-704.315
-1156.95
-1613.18
-1818.82
-2100.93
-2211.47
-2354.86
-1295.27
-2516.47
504.44
-4874.33
11990.6
-1465.31
-1704.51
-1681.95
-1685.2
-1693.51
-1708.91
-1732.79
-1761.54
-1796.68
-1834.14
-1879.29
-1931.42
-1990.7
-2057.14
-2130.7
-2211.83
-2300.36
-2398.69
-2503.68
-2620.81
-2741.1
-2873.16
-3014.23
-3157.63
-3315
-3482.66
-3647.1
-3825.16
-4005.85
-4175.37
-4357.7
-4552.8
-4732.94
-4906.01
-5088.82
-5208.54
-5345.7
-5431.11
-5501.51
-5516.72
-5423.99
-5145.14
-4886.75
-4443.13
-3865.27
-5142.91
-7525.9
-17610.9
-21237.6
-24459.7
-25223.7
-27834.5
-27905.8
-26572.4
-25243.8
-23264.1
-20811
-19543.8
-16402.1
-14989.9
-12428.9
-10267
-8244.75
-4991.25
-4218.74
-573.103
905.987
2787.53
5942.42
5970.91
7882
10336.7
11516.6
13635.6
14914.8
16503.9
19373
22204.2
25266.8
27827
31008.8
34844.9
39698.2
45660.6
51670.8
59194.5
63271.8
55376.9
44609.1
37237.4
29434.7
23989.9
19795.5
16486.8
13803.3
11617.2
9708.21
8328.44
7386.08
6357.46
5558.49
4516.82
3756.77
2658.8
2021.87
1172.85
654.744
-23.4364
-525.927
-986.369
-1274.64
-1532.15
-1805.62
-1933.41
-1080.02
-2446.56
328.509
-4890.07
10480.1
-1609.27
-1840.09
-1810.51
-1807.61
-1810.77
-1820.94
-1839.97
-1865.52
-1897.39
-1933.67
-1974.74
-2024.04
-2080.96
-2144.95
-2216.24
-2294.75
-2381.95
-2478.53
-2581.15
-2693.25
-2815.83
-2941.53
-3085.51
-3227.39
-3380.44
-3544.06
-3714.06
-3884.45
-4069.53
-4246.59
-4437.92
-4621.09
-4811.87
-4992.93
-5182.74
-5312.39
-5472.29
-5577.08
-5674.95
-5731.49
-5674.27
-5418.74
-5197.71
-4904.97
-4822.72
-6197.27
-11290.3
-21631.3
-24584.9
-27343.8
-29421.8
-31567.9
-29339.2
-27367.2
-24432.9
-22905.4
-21122.4
-17240.2
-16970.5
-11811.9
-11670.1
-6026.04
-4697.51
-1881.73
1685.05
2042.54
4850.85
5899.37
7545.87
10234.7
11952.8
13174.6
14572.8
17144.6
20122.1
22887.6
25887.9
29154.5
32680.5
37289.8
42594.2
48854.7
54347.9
62142.6
66794.9
58519.9
47416.7
39817.2
31804
25855.4
21370.9
17933.1
15235.2
13151.7
11355.7
9686.68
8734.74
8041.52
7338.46
6681.27
5989.51
5204.22
4537.05
3512.2
2869.63
2085.3
1484.81
767.609
247.765
-289.731
-696.749
-912.515
-1428.92
-1669.73
-1018.45
-2569.63
39.0941
-5087.15
9168.44
-1737.72
-1960.6
-1924.33
-1915.56
-1913.75
-1919.39
-1933.19
-1955.52
-1983.94
-2018.89
-2056.97
-2103.39
-2157.03
-2218.66
-2287.3
-2363.93
-2449.17
-2543.13
-2644.14
-2751.79
-2872.45
-2999.83
-3134.21
-3281.68
-3430.23
-3588.26
-3763.41
-3932.95
-4108.09
-4306.53
-4502.69
-4660.19
-4867.04
-5067.04
-5224.07
-5400.93
-5567.1
-5720.58
-5863.82
-5976.07
-5966.14
-5890.93
-5981.57
-6752.81
-7872.96
-11969.6
-20029
-29036.3
-30465.1
-31615.5
-33819.3
-33812.6
-32075.8
-27873.8
-26772.7
-21378.4
-20810.7
-15434.9
-13468.5
-8888.59
-5041.09
-2668.08
1130.56
2441.17
5330.6
6870.32
8686.23
10649.4
12140.7
13099.1
15706.6
18713.9
21589.1
24389.1
27650.1
31312
35618.3
40536.4
46511.4
52462.6
58754
66470.4
68956.4
59619.7
48483.6
40831.6
32548.6
26531
21932.9
18463.9
15846.4
13592.8
11930.3
10458.8
9287.4
8596.77
8086.23
7527.16
6999.23
6486.04
5938.05
5285.93
4707.64
3830.04
3222.64
2505.41
1827.24
1194.16
599.506
28.1722
-455.884
-625.959
-1351.54
-1599.83
-1045.84
-2673.72
-90.8226
-5131.09
8053.01
-1850.04
-2065.76
-2023.31
-2009.14
-2002.62
-2004.28
-2013.23
-2031.8
-2057.19
-2089.43
-2127.43
-2169.1
-2220.6
-2279.04
-2345.54
-2419.87
-2502.83
-2592.94
-2692.14
-2798.67
-2913.76
-3042.79
-3171.85
-3317.14
-3469.44
-3621.29
-3789.65
-3965.7
-4136.89
-4337.83
-4531.59
-4709.87
-4911.14
-5077.85
-5281.12
-5463.13
-5687.24
-5872.74
-6036.2
-6157.79
-6189.24
-6284.35
-6797.52
-9082.23
-13115.1
-23122.1
-33181.1
-38139.1
-37138.2
-35722.2
-32680.2
-30432.1
-26911.4
-25554.4
-21578.8
-20139.6
-14807.7
-11978.5
-7143.46
-3604.92
-63.8517
2539.44
5511.21
7745.91
9239.57
10971.2
11959.4
14518.2
16709
19727.4
22989
26692.4
30378.7
34679.1
39844.6
46349.4
52393.9
57389.1
64710.4
70860
67116.3
57729.2
47251.7
40616.9
32364.3
26402.2
21692
18063.5
15233.8
13197.3
11713.1
10442
9237.18
8397.37
7997.91
7658.67
7316.31
6942.96
6582.58
6178.72
5693.87
5175.68
4628.39
3952.19
3378.27
2809.58
2062.12
1596.18
923.583
390.004
-134.869
-231.777
-1082.63
-1369.32
-908.653
-2666.31
-191.309
-5135.12
6985.17
-1946.11
-2155.51
-2107.41
-2088.3
-2077.49
-2075.34
-2080.97
-2094.79
-2117.35
-2146.96
-2183.14
-2224.44
-2271.03
-2327.39
-2390.75
-2463.21
-2542.79
-2630.89
-2726.81
-2832.74
-2944.68
-3066.82
-3200.26
-3334.22
-3492.37
-3644.35
-3802.15
-3979.67
-4161.06
-4339.58
-4547.03
-4742.87
-4927.49
-5094.9
-5310.08
-5522.63
-5772.63
-5965.52
-6165.73
-6268.76
-6416.05
-6723.59
-7756.94
-11780.2
-20838.4
-43849
-56302.2
-49170.5
-44114.9
-34286.7
-24825
-20759.6
-17367.1
-15806.3
-13340.4
-11635.5
-7583.57
-4210.12
-23.4403
3792.68
6512.22
7513.33
9484.74
10726
12866.5
16654
18771.2
22290.3
25565.7
29776.9
35090.4
41007.4
47354.2
53117.1
58413.8
66496.5
72398.5
72108.3
63464.9
53830.5
46014.3
38110.4
30879.9
25284.9
20929.6
17438.2
14590.9
12413.8
10750.1
9569.11
8630.93
7783.43
7264.2
7008.92
6841.33
6676.26
6528.06
6331.99
6130.38
5841.04
5489.42
5093.31
4650.09
4094.8
3565
3038.02
2274.71
1843.86
1120.93
679.081
89.267
12.8468
-936.394
-1274.14
-948.478
-2825.08
-350.234
-5158.41
6073.36
-2025.65
-2229.72
-2176.68
-2153.25
-2138.56
-2133.07
-2135.71
-2146.03
-2164.97
-2191.95
-2225.81
-2266.17
-2311.64
-2363.17
-2424.79
-2493.46
-2570.83
-2656.29
-2750
-2851.68
-2963.36
-3080.2
-3211.28
-3347.21
-3492.12
-3652.81
-3806.6
-3976.52
-4166.09
-4328.52
-4537.83
-4749.06
-4921.88
-5109.15
-5322.98
-5528.63
-5733.82
-5974.63
-6170.94
-6294.61
-6623.22
-7161.92
-9150.77
-14888.4
-31775.4
-64133.5
-72731.8
-53879.6
-41881.7
-32772.5
-22052.2
-17875.5
-15069.9
-13016.8
-10147.7
-8019.84
-4065.07
-893.593
4339.61
6207.51
9188.72
11562.4
16616.9
17997.5
23242.5
25548.7
30866.3
35805.7
41618.9
48005.9
55291.2
62334.5
69838.7
74544.8
74717.3
67159.8
56992
48432.2
41946.3
34394.8
28436
23521.3
19508.8
16217.4
13644.5
11556.6
9940.86
8655.81
7639.26
6865.51
6217.28
5770.28
5824.69
5764.08
5796.18
5740.36
5717.99
5653.76
5565.04
5403.26
5176.71
4895.76
4557.36
4121.9
3647.63
3192.7
2456.49
2073.55
1370.16
974.149
319.546
275.98
-712.376
-1094.29
-859.891
-2763.73
-393.542
-4993.95
5296.63
-2088.67
-2288.53
-2231.28
-2204.23
-2186.15
-2177.65
-2177.69
-2185.53
-2200.76
-2224.99
-2256.4
-2294.59
-2339.8
-2390.13
-2446.01
-2512.93
-2587.38
-2669.8
-2760.73
-2859.4
-2968.54
-3083.46
-3207.14
-3346.36
-3484.26
-3639.74
-3802.15
-3961.25
-4145.49
-4324.52
-4503.79
-4718.08
-4911.92
-5099.58
-5311.18
-5496.43
-5657.5
-5904.37
-6043.12
-6226.37
-6663.97
-7587.01
-10951.5
-21472.5
-51179.4
-67339.3
-48691.8
-37707.1
-33133.6
-28308.2
-24569.3
-17503.1
-12193.6
-9796.12
-8476.56
-6697.75
-3426.23
2097.06
6382.71
10682.1
16055.3
21156.7
26045.7
31812.5
36667.8
43557.2
51229.1
58725.8
66187.2
73200.6
79800.5
76630.9
67694.7
57411.7
49944.8
43626
36843.5
30184.6
25460.1
21024.2
17594
14754.9
12370.7
10427.7
8867.65
7673.53
6787.69
6110.16
5533.85
5064.9
4676.4
4471.6
4607.64
4628.06
4732.56
4787.77
4884.08
4922.22
4944.16
4874.16
4782.15
4607.07
4380.99
4028.22
3630.86
3224.67
2539.63
2227.02
1500.33
1168.5
512.346
493.469
-504.877
-941.408
-863.158
-2771.36
-532.615
-4907.69
4613.4
-2135.33
-2332.13
-2271.46
-2241.37
-2220.62
-2209.55
-2207.24
-2212.93
-2226
-2246.79
-2275.84
-2311.61
-2354.81
-2404.23
-2460.64
-2521.11
-2591.68
-2673.01
-2759.52
-2857.46
-2959.48
-3076.05
-3194.69
-3326.55
-3470.16
-3612.32
-3776.71
-3941.39
-4107.26
-4296.77
-4473.64
-4660.85
-4876.82
-5057.72
-5261.22
-5418.11
-5604.94
-5717.84
-5899.83
-6228.34
-6637.02
-8134.09
-12676.7
-25682
-53734.3
-52172.3
-33831.4
-26510.1
-25573.9
-29429.8
-30858.9
-25520.9
-20611.9
-16780.4
-13273.2
-7527.19
259.061
6190.35
14005.1
22750.2
30385.4
39659.3
46449.3
55514
62874.2
71036.6
79620.3
84954.7
76910.9
67686.5
57961.1
50942.4
44125.5
37501.9
31275
26223.1
22366.9
18443.3
15764.3
13343
11163.6
9506.9
8048.42
6868.1
5883.56
5143.89
4629.25
4244.13
3932.28
3706.89
3521.46
3552.23
3665.88
3739.9
3850.22
3961.05
4099.79
4212.32
4323.47
4364.64
4381.27
4314.81
4188.65
3921.52
3603.04
3251.77
2642.65
2399.28
1625.1
1416.66
705.285
696
-302.458
-795.002
-872.843
-2552.33
-547.291
-4558.46
4026.93
-2165.86
-2360.78
-2297.52
-2265.15
-2242.23
-2229.18
-2224.91
-2228.68
-2239.95
-2258.4
-2284.4
-2318.08
-2358.76
-2406.3
-2460.39
-2522.57
-2588.07
-2663.65
-2747.93
-2842.86
-2942.05
-3053.15
-3172.68
-3298.35
-3436.29
-3583.15
-3731.95
-3904.3
-4068.34
-4244.5
-4427.37
-4600.98
-4804.38
-5002.43
-5178.01
-5329.17
-5519.64
-5621.23
-5832.95
-6114.44
-6737.75
-8606.72
-13839.4
-28867.3
-50054.7
-31216.1
-21741.6
-16795.9
-19387.4
-23182.5
-28056.3
-32314.6
-33344.4
-26801.8
-16720
-5443.37
4961.72
20287
33142.7
49043.6
58441.7
67794.8
77985.4
85969.3
85484.3
76506.2
66392.5
56484.5
50745.3
44217.2
37437.4
31692
27239.7
23269.4
19941.1
16772.1
14213.9
11946.7
10124.4
8771.83
7480.69
6403.21
5487.1
4717.04
4075.07
3624.13
3329.08
3088.76
2937.63
2821.62
2725.97
2789.79
2861.29
2964.64
3092.62
3238.74
3406.95
3571.8
3717.01
3826.79
3908.53
3921.21
3878.15
3703.23
3455.64
3163.5
2672.19
2453.86
1709.68
1565.94
862.375
860.912
-136.804
-585.65
-866.43
-2324.78
-651.318
-4313.72
3390.65
-2180.62
-2374.87
-2309.85
-2275.98
-2251.45
-2236.85
-2231.08
-2233.29
-2242.8
-2259.7
-2283.99
-2313.8
-2352.64
-2397.83
-2449.39
-2509.28
-2575.42
-2649.21
-2726.71
-2816.4
-2913.03
-3020.87
-3136.52
-3261.1
-3391.7
-3536.91
-3687.38
-3840.77
-4018.17
-4185.28
-4361.38
-4545.78
-4715.01
-4923.3
-5091.53
-5263.83
-5390.97
-5499.91
-5651.09
-5803.59
-6570.04
-9124.4
-16077.7
-35529.6
-44396.4
-21664
-15826.1
-13315.5
-14692.8
-16296.5
-18251.6
-18532.6
-18534.4
-15625.9
-7949.76
6618.82
26473.7
49198.4
67468.1
83842.3
92551.3
89004.6
78391.6
65768.8
56401.9
49941.7
43288.8
36444.6
31271
27316.3
23845.1
20888.7
18204.4
15658
13578.2
11562.2
9941.08
8766.71
7486.62
6590.42
5719.99
4953.26
4270.74
3694.64
3197.31
2809.98
2512.36
2291.37
2187.27
2108.39
2058.97
2136.07
2206.5
2290.75
2393.38
2538.2
2727.59
2934.19
3150.27
3343.06
3507.36
3601.13
3627.18
3526.76
3346.93
3128.25
2744.91
2547.4
1860.47
1706.24
993.587
943.785
-53.1505
-363.186
-875.374
-2044.75
-653.805
-3935.59
2880.26
-2180.16
-2374.94
-2308.97
-2274.21
-2248.79
-2233.09
-2226.25
-2227.14
-2235.17
-2250.82
-2273.16
-2301.23
-2337.1
-2379.38
-2428.84
-2486.05
-2549.73
-2620.02
-2697.79
-2785.04
-2874.73
-2977.69
-3087.74
-3210.76
-3340.67
-3476.86
-3628.44
-3778.24
-3941.66
-4114.92
-4286.59
-4469.12
-4638.34
-4818.84
-5012.11
-5171.4
-5289.87
-5455.89
-5590.53
-5975.52
-7001.76
-10120.1
-19094.2
-38326.9
-41972.3
-19785.2
-13677.4
-11506.2
-9613.11
-7722.42
-6533.1
-3339.73
491.963
4726.87
13252
33743.3
62067.6
91398.7
98904.8
83825.7
69280.9
58707.8
50505.9
42715.5
36072.1
31116.3
27291.2
24032.9
21151.7
18599.4
16470.7
14790.4
13498.1
12144.9
10952.4
9781.8
8662.16
7521.93
6503.95
5639.35
4895.52
4234.66
3623.2
3107.11
2728.72
2461.44
2224.15
2051.97
1907.62
1741.65
1600.9
1558.71
1624.03
1742.27
1846.35
1991.82
2171.64
2380.87
2614.49
2842.88
3043.22
3179.95
3258.18
3218.6
3119.95
2980.24
2682.25
2503.69
1889.76
1727.09
1062.97
1053.23
53.768
-167.555
-784.815
-1742.9
-707.328
-3667.2
2377.76
-2165.05
-2361.51
-2295.4
-2260.47
-2234.63
-2218.45
-2210.81
-2210.68
-2217.65
-2232.12
-2252.8
-2278.99
-2312.69
-2353.42
-2398.77
-2453.25
-2514.62
-2581.71
-2655.47
-2738.82
-2829.61
-2929.04
-3035.48
-3146.81
-3274.99
-3408.26
-3554.48
-3706.89
-3862.81
-4028.38
-4205.39
-4376.39
-4561.07
-4722.99
-4917.59
-5104.31
-5220.77
-5386.25
-5603.27
-6063.72
-7194.42
-10580
-19818.5
-37597.6
-40880
-18051.6
-12382.8
-8465.41
-4618.9
-590.282
3187.71
5899.85
11471.9
26052
50737.2
83097.1
111443
90528.9
69086.5
56079.4
45093.8
37226.5
31693
27577
24295.7
21499.5
19082.3
17205.4
15847.5
14668.8
13499.5
12543.3
11595
10789.3
10034.9
9265.68
8435.33
7773.44
6836.39
5841.08
5164.63
4457.24
3800.93
3232.55
2693.38
2209.28
1813.58
1613.52
1506.6
1400.61
1276.11
1186.56
1209.45
1245.53
1308.1
1411.04
1562.05
1773.22
2020.59
2305.16
2562.61
2777.08
2918.57
2963.77
2950.06
2893.18
2675.76
2533.95
1999.1
1819.47
1229.66
1040.32
212.675
-77.7875
-692.763
-1496.72
-726.819
-3260.79
1931.35
-2136.05
-2335.29
-2269.76
-2235.32
-2209.61
-2193.35
-2185.4
-2184.44
-2190.69
-2204.22
-2222.88
-2247.69
-2279.47
-2318.28
-2360.76
-2413.01
-2469.89
-2533.5
-2603.07
-2684.19
-2771.46
-2866.11
-2969.86
-3081.77
-3203.49
-3330.97
-3467.35
-3619.5
-3778.17
-3937
-4111.78
-4283.84
-4465.77
-4646.68
-4808.64
-4995.69
-5155.11
-5293.23
-5565.58
-6196.22
-7950.97
-12467.9
-24310.5
-39503.9
-34491.6
-15889
-10220.8
-5028.56
-301.167
4339.94
7364.64
18829.8
36369.5
63502.8
98414.1
120135
86196.9
63523.8
47363.4
37218
30276.5
25417.2
21966.6
19447.2
17656.8
16359.3
15197.3
14180.1
13148.5
12508.1
11867.3
11254.3
10726.7
10134.2
9538.8
8723.1
7966.01
7353.86
6596.65
5632.86
4900.12
4176.27
3538
3005.43
2535.93
2168.49
1834
1573.52
1411.07
1243.45
1096.56
958.699
907.92
957.66
1024.41
1102.62
1221.53
1389.24
1618.82
1879.83
2145.47
2377.86
2541.72
2637.39
2693.24
2692.37
2529.69
2402.5
1931.3
1746.49
1330.91
1106.29
317.462
14.4564
-561.924
-1202.06
-751.897
-2871.38
1498.77
-2093.96
-2296.98
-2232.72
-2199.35
-2174.29
-2158.43
-2150.37
-2149
-2154.86
-2167.3
-2184.17
-2207.97
-2238.54
-2273.94
-2315.39
-2363.21
-2417.71
-2478.62
-2542.45
-2618.99
-2704.47
-2794.49
-2892.53
-3001.35
-3117.03
-3241.82
-3383.6
-3530.42
-3680.85
-3836.7
-4003.5
-4185.48
-4366.2
-4552.45
-4738.46
-4920.58
-5106.98
-5337.31
-5765.97
-6675.94
-9383.47
-16457.8
-34499.2
-44432.6
-31638.1
-15769.5
-4790.5
-2036.84
4820.57
9458.8
22476
41359.7
70882.7
108751
126183
87777.2
61747.3
44355.2
33704.5
26556.3
21890.4
18731.5
16554.2
15015.3
13912.7
13180.9
12695.5
12240
11758.3
11334.6
10970.3
10507.1
10187.5
9729.95
9330.99
8846.94
8304.44
7782.67
7113.32
6314.3
5480.08
4650.77
3938.01
3303.51
2740.83
2246.9
1815.88
1435.43
1196.6
1026.79
832.2
733.221
569.474
557.603
597.072
688.964
814.913
978.229
1171.08
1423.5
1687.67
1947.05
2150.55
2314.82
2433.95
2495.08
2402.49
2323.05
1954.38
1825.47
1519.7
1304.9
448.723
113.369
-501.23
-953.812
-773.71
-2358.14
1074.36
-2039.69
-2247.41
-2185.03
-2153.25
-2129.32
-2114.23
-2106.35
-2104.86
-2110.52
-2121.94
-2137.44
-2160.48
-2189.15
-2221.66
-2261.57
-2306.13
-2357.53
-2412.95
-2476.21
-2546.09
-2627.49
-2716.65
-2803.79
-2908.15
-3023.77
-3142.18
-3277.29
-3425.13
-3574.44
-3736.31
-3908.76
-4065.06
-4254.39
-4447.88
-4651.78
-4861.22
-5068.41
-5360.86
-5905.48
-7181.11
-10705.5
-20281.4
-41903.6
-45809.6
-36534.2
-9474.09
-5428.48
4717.74
9346.09
23922.5
44932.1
76493.4
116567
128445
88840.4
61266.5
43057.2
31730.9
24279.6
19520.5
16399.1
14376.4
13043
12186.9
11612.3
11206.8
10972.2
10832.5
10677.3
10570.2
10425.7
10267.6
10301.9
10360.1
10174.1
9604.58
9070.42
8304.1
7576.36
6903.44
5961.02
5122.49
4321.42
3592.48
2959.77
2397.77
1905.58
1436.27
1085.84
884.046
683.379
528.15
273.858
211.873
245.364
330.379
446.447
587.837
761.954
991.108
1253.2
1528.41
1762.02
1988.16
2154.36
2261.31
2230.32
2154.72
1844.93
1748.01
1525.2
1244.9
515.3
205.497
-344.367
-623.188
-785.541
-1907.14
627.167
-1974.19
-2187.41
-2127.46
-2097.75
-2075.36
-2061.36
-2053.89
-2052.71
-2058.24
-2068.45
-2083.46
-2105.65
-2131.64
-2161.83
-2199.43
-2242.63
-2289.79
-2338.68
-2401.53
-2470.39
-2541.28
-2623.76
-2712.96
-2800.63
-2929.19
-3034.47
-3156.07
-3302.1
-3455.78
-3617.33
-3794.69
-3966.03
-4136.33
-4321.26
-4544.35
-4770.91
-5029.15
-5409.5
-6150.47
-8006.17
-12693.5
-24733.4
-44627.3
-51550.1
-27252.8
-5909.65
4377.88
9320.18
25657.6
47931.5
81343.3
123250
128399
88375.7
60492.3
42017.9
30371.7
22835.2
18031.4
14990.3
13032.5
11773.2
10913.7
10341
9954.84
9715.31
9614.83
9625.38
9674.17
9779.69
9788.57
9736.57
9593.91
9552.99
9544.19
9234.55
9108.27
8632.46
8236.82
7597.91
6623.53
5806.37
4918.56
4082.47
3325.87
2673.77
2079.51
1536.23
1049.94
744.326
524.573
307.384
51.8426
-91.2447
-143.321
-54.3476
32.4325
179.265
345.772
547.721
800.215
1071.33
1344.24
1622.07
1820.15
2012.23
2023.9
2019.38
1841.43
1839.48
1662.88
1299.59
793.054
348.896
-236.391
-465.701
-724.979
-1438.03
220.221
-1898.5
-2117.89
-2060.84
-2033.6
-2013.11
-2000.44
-1993.63
-1992.99
-1998.48
-2007.67
-2022.67
-2043.64
-2066.91
-2095.19
-2130.64
-2170.98
-2212.9
-2261.38
-2316.97
-2386.7
-2449.5
-2522.3
-2611.49
-2691.36
-2816.9
-2918.81
-3029.6
-3166.14
-3321.43
-3472.03
-3662.78
-3836.25
-4009.6
-4199.99
-4419.44
-4666.9
-4973.38
-5479.69
-6556.25
-9328.96
-16297
-33089
-50879.3
-37974.8
-14329.4
4514.1
9141.96
26400.9
50302.8
86080.6
129742
126333
86071.3
58588
40551.7
29126.9
21822.3
17151.8
14153.1
12249.9
11026.6
10261.9
9740.36
9413.37
9156.95
8998.3
8869.58
8811.63
8801.49
8872.62
8863.77
8967.65
8834.16
8849.48
8918.77
8596.94
8637.5
8077.89
7907.51
7591.19
7233.11
6331.51
5360.21
4493.44
3675.69
2929.31
2278.21
1646.58
1104.01
650.906
353.042
115.308
-108.456
-323.877
-447.394
-382.414
-342.482
-250.227
-80.4631
129.536
355.893
644.35
961.048
1280.16
1511.49
1794.61
1802.8
1886.32
1771.7
1728.74
1529.84
1150.69
866.443
388.253
-137.778
-219.66
-566.36
-1032.2
-167.147
-1813.66
-2039.79
-1986
-1961.56
-1943.25
-1932.1
-1926.25
-1926.42
-1931.76
-1940.41
-1955.13
-1974.51
-1995.91
-2022.1
-2055.2
-2091.83
-2130.03
-2177.14
-2228.72
-2287.58
-2353.24
-2415.5
-2499.53
-2581.76
-2681.5
-2805.42
-2893.57
-3022.15
-3162.52
-3320.33
-3501.65
-3690.82
-3875.43
-4058.34
-4282.2
-4578.29
-4972.04
-5705.71
-7350.94
-11749.7
-22509.6
-47357.3
-54477.9
-23509.8
-3012.47
9625.89
28443.1
54440.7
91697.4
135883
122528
82426
55706.7
38472.4
27559.4
20646.7
16226.3
13401.4
11598.4
10472.7
9759.46
9331.74
9021.6
8835.48
8646.88
8523.45
8364.75
8266.5
8112.63
8082.63
7938.69
8016.39
7905.4
7874.41
7868.94
7795.04
7941.68
7295.09
7257.14
6898.56
6575.82
6160.55
5678.96
4834.96
3986.04
3196.52
2470.27
1818.35
1183.94
618.905
236.529
-61.9814
-269.915
-496.734
-685.616
-650.287
-652.871
-618.677
-476.795
-268.005
-58.796
220.143
539.446
868.156
1104.51
1510.92
1480.69
1731
1647.94
1672.87
1588.43
1252.65
1141.01
500.676
33.684
-62.487
-500.675
-660.478
-484.876
-1720.79
-1954.05
-1903.82
-1882.45
-1866.52
-1857.04
-1852.37
-1853.49
-1858.64
-1867.18
-1881.33
-1899.27
-1918.76
-1943.48
-1973.59
-2005.05
-2043.36
-2085.36
-2134.15
-2182.65
-2245.47
-2307.67
-2375.37
-2466.91
-2531.46
-2674.64
-2763.21
-2869.42
-2989.83
-3172.44
-3289.3
-3538.62
-3704.59
-3903.18
-4128.97
-4467.93
-4949.29
-5947.72
-8361.27
-14449.2
-28517.6
-49708.8
-48294.9
-4084.5
4455.79
31385.2
58819.8
97296.9
142477
119036
78908.5
52783.8
36224.9
25800.7
19259.2
15151.7
12549.3
10913
9888.73
9273.76
8900.07
8695.33
8533.66
8441.52
8300.98
8195.52
8008.14
7844.16
7584.46
7395.43
7134.48
6999.21
6912.46
6787.28
6789.22
6877.45
7000.77
6468.77
6540.81
6124.29
5919.46
5400.35
5036.09
4648.03
4069.18
3273.31
2569.52
1901.68
1249.2
619.799
142.933
-211.619
-439.202
-669.614
-874.906
-899.669
-924.091
-950.514
-884.168
-676.52
-472.039
-160.553
150.277
474.412
731.996
1294.83
1149.18
1722
1529.01
1533.33
1471.43
1132.56
1044.85
469.69
167.129
206.047
-346.262
-333.688
-704.764
-1620.98