/*--------------------------------*- C++ -*----------------------------------*\
| =========                 |                                                 |
| \\      /  F ield         | OpenFOAM: The Open Source CFD Toolbox           |
|  \\    /   O peration     | Version:  2.2.x                                 |
|   \\  /    A nd           | Web:      www.OpenFOAM.org                      |
|    \\/     M anipulation  |                                                 |
\*---------------------------------------------------------------------------*/
FoamFile
{
    version     2.0;
    format      ascii;
    class       surfaceScalarField;
    location    "2.15";
    object      cfmax;
}
// * * * * * * * * * * * * * * * * * * * * * * * * * * * * * * * * * * * * * //

dimensions      [0 3 -1 0 0 0 0];

internalField   nonuniform List<scalar> 
28084
(
0.00125438
0.00117628
0.00116739
0.0011759
0.00120177
0.00121319
0.00120782
0.00119254
0.00115727
0.00113634
0.0011223
0.00113006
0.00113524
0.00115944
0.0011862
0.00119316
0.00118795
0.00117344
0.00115201
0.00115079
0.00114602
0.00116688
0.00119062
0.00121349
0.00123091
0.00124297
0.00124128
0.0012525
0.00128497
0.00138497
0.00114363
0.00100438
0.00106327
0.00108181
0.00108087
0.00106817
0.00106132
0.00105916
0.00105752
0.00105427
0.00104766
0.00103689
0.00102234
0.00100854
0.0010002
0.0010092
0.00101861
0.00103039
0.00103946
0.00104816
0.00105714
0.0010655
0.00107425
0.00108064
0.00108616
0.00108919
0.00109169
0.00109392
0.0010958
0.00109812
0.00110032
0.00110327
0.0011072
0.00111118
0.00111604
0.00112276
0.00113025
0.00113756
0.00114547
0.0011518
0.00115513
0.00115474
0.00115105
0.00114433
0.00113609
0.00112729
0.00112006
0.00111465
0.00111206
0.00111079
0.00111066
0.00111155
0.00111149
0.00111054
0.00110879
0.00110454
0.00109804
0.0010879
0.00107598
0.00106127
0.00104443
0.00102587
0.00100422
0.000977545
0.000947445
0.000913841
0.000884963
0.00086028
0.000843388
0.000828553
0.000817629
0.000806954
0.000800607
0.000795991
0.00079221
0.000789544
0.000788886
0.000788001
0.00079156
0.000796835
0.000802814
0.000806859
0.000803834
0.000792612
0.00077593
0.000760558
0.000750452
0.000756452
0.00322159
0.00347357
0.00111501
0.00344763
0.00126641
0.0034333
0.00127251
0.00338578
0.00124999
0.0031569
0.0011385
0.00303949
0.00109187
0.00304033
0.00109526
0.00310823
0.0011165
0.00313561
0.00117667
0.00303823
0.00125186
0.00298793
0.00126993
0.00291732
0.00125908
0.00286319
0.00122706
0.00264804
0.00117067
0.00248285
0.0011058
0.00241429
0.00110023
0.00241443
0.00111798
0.0024355
0.00116805
0.00235552
0.00124494
0.00227091
0.00128959
0.00220812
0.00129565
0.0021392
0.0012888
0.00203296
0.00127391
0.00189535
0.00122556
0.00181
0.00121687
0.00172908
0.00122587
0.00166418
0.00123922
0.00161107
0.00125988
0.00159304
0.00127708
0.00156064
0.00130595
0.00116805
0.000977219
0.00108909
0.000857439
0.0010262
0.000825701
0.000961849
0.000797601
0.000910997
0.000779825
0.000863069
0.000772433
0.000815168
0.000770095
0.000768309
0.000770474
0.000722341
0.000770771
0.000678697
0.000771365
0.00063631
0.000771726
0.000596024
0.000771102
0.00056025
0.000771736
0.000528523
0.000771941
0.000528011
0.00077244
0.000527846
0.000781763
0.000528463
0.000791167
0.000529536
0.000801491
0.000531016
0.000812298
0.000532992
0.00082357
0.000535395
0.000835317
0.000538176
0.000847244
0.000540631
0.000859279
0.000543062
0.000871801
0.000545197
0.000884474
0.000547399
0.000897471
0.000549844
0.000911032
0.000554486
0.000924743
0.000559163
0.000938411
0.000563762
0.000951899
0.0005682
0.000964853
0.000572237
0.000976824
0.000575574
0.000987218
0.000578202
0.000996079
0.000580862
0.00100351
0.000583176
0.00100934
0.000583711
0.00101215
0.000582981
0.00101351
0.000582541
0.00101481
0.000582672
0.00101558
0.000585713
0.00101681
0.000588413
0.00101729
0.000589586
0.00101747
0.000590112
0.00101629
0.000591573
0.00101401
0.000592214
0.00100969
0.000593922
0.00100297
0.000597801
0.000994885
0.000600973
0.000985696
0.000603883
0.000976564
0.000605375
0.00096706
0.00060733
0.000956893
0.000608663
0.000946172
0.000609771
0.000934663
0.000611609
0.000922546
0.000612436
0.000909632
0.000612634
0.000894267
0.000614555
0.000877401
0.000616291
0.000859895
0.000618207
0.000843122
0.000619773
0.000826923
0.000621433
0.000810966
0.00062308
0.000794856
0.000623774
0.000778799
0.000625429
0.000763506
0.00062291
0.000750108
0.00061809
0.000737633
0.000611805
0.000726001
0.000606164
0.000716194
0.000604179
0.000708155
0.000604717
0.000700713
0.000606552
0.00069499
0.000609246
0.000690917
0.000613904
0.000688926
0.000618973
0.00068947
0.000623727
0.000691935
0.000627112
0.000695475
0.000628975
0.000699776
0.000633704
0.00070398
0.000640927
0.000709164
0.000649487
0.000713062
0.000661228
0.000716946
0.000669732
0.000719067
0.000676993
0.000719551
0.000680108
0.000719907
0.000681448
0.000723411
0.000667216
0.000723037
0.00070825
0.000731426
0.00321026
0.003424
0.00131115
0.00307639
0.00110916
0.00311996
0.00109176
0.00343567
0.00114519
0.00324418
0.0013265
0.0030789
0.00141095
0.00304031
0.00139455
0.00310181
0.00133749
0.00312246
0.00124762
0.00285403
0.0011155
0.00273601
0.00109798
0.00270899
0.00111098
0.00282998
0.00116991
0.00269502
0.00128704
0.00252765
0.00141683
0.00242347
0.00142185
0.00240186
0.0013989
0.00245317
0.00135392
0.00228743
0.00123612
0.00211174
0.001168
0.00203108
0.00118291
0.00200229
0.00121444
0.00202095
0.00129239
0.00191657
0.00138979
0.00180162
0.00143713
0.00172616
0.00144206
0.00166454
0.00142778
0.00160974
0.00141539
0.00156653
0.00139164
0.0014673
0.00135831
0.0010758
0.000910493
0.000991496
0.000802234
0.000921146
0.000760241
0.000859981
0.000732606
0.000810486
0.000720337
0.000765689
0.000715899
0.000725527
0.000717438
0.000686328
0.000721118
0.000648337
0.000726409
0.000612407
0.000731992
0.00057914
0.000737438
0.000548136
0.000742496
0.000518914
0.000747384
0.00049163
0.000751605
0.000495691
0.00075439
0.000498543
0.000765018
0.000501315
0.000775625
0.000503993
0.000786909
0.000506755
0.000798551
0.000509268
0.000810451
0.000511796
0.000822587
0.000514302
0.000834924
0.000516741
0.000847327
0.000519277
0.000859669
0.000522028
0.000871956
0.000524943
0.000884341
0.000528183
0.000896748
0.000530948
0.000909135
0.000534134
0.000921503
0.000537051
0.00093341
0.000540211
0.000944931
0.000543137
0.000955974
0.00054614
0.000966239
0.00054945
0.000975275
0.000552503
0.000982691
0.00055505
0.000988736
0.000556336
0.000992553
0.000556505
0.000994517
0.000556627
0.000996303
0.000560247
0.000997689
0.000563682
0.000998339
0.000566748
0.000998078
0.000568815
0.000997038
0.000570741
0.000994636
0.000571688
0.000990535
0.000571271
0.000983769
0.000569825
0.0009735
0.000568009
0.000960712
0.000565907
0.00094599
0.00056578
0.000931327
0.000566318
0.000916076
0.000566855
0.000900128
0.000568254
0.000883783
0.000569022
0.00086688
0.00057118
0.000849827
0.000573816
0.00083251
0.000575812
0.000814068
0.000578632
0.000795183
0.000580238
0.000776585
0.000582013
0.000758571
0.000584965
0.000742896
0.000589694
0.000729002
0.0005941
0.000715945
0.000597481
0.00070394
0.000600538
0.000692513
0.000598644
0.000682795
0.000594943
0.000673761
0.000591885
0.000666693
0.000589305
0.000661573
0.000589028
0.000656417
0.000589899
0.000651786
0.000592994
0.000649295
0.000598383
0.000647456
0.000604423
0.000647027
0.000610293
0.000648399
0.00061679
0.000651549
0.000623544
0.000655661
0.000630307
0.000660139
0.000636072
0.000664235
0.000644525
0.00066787
0.00065296
0.000669581
0.00066686
0.000670638
0.000676825
0.000672444
0.000687758
0.000679087
0.000693894
0.000686707
0.00069673
0.000696439
0.000678643
0.000702585
0.000735233
0.000714659
0.00295859
0.00342844
0.00107713
0.00304328
0.00140246
0.00315052
0.00139778
0.00339354
0.00133719
0.00303286
0.00113249
0.00277313
0.00103401
0.00277217
0.00105962
0.00299795
0.00108873
0.00314007
0.00123741
0.00284237
0.00143004
0.00270293
0.00144907
0.00272692
0.00141696
0.00284802
0.00137823
0.00264639
0.0012618
0.00238269
0.00113245
0.00224316
0.00112792
0.00227525
0.00115357
0.00244116
0.00123147
0.0022889
0.00141208
0.00209922
0.00152908
0.00201791
0.00151735
0.00202062
0.00149179
0.00204842
0.00145263
0.0018939
0.00135814
0.00175787
0.00131324
0.00168151
0.00132153
0.00162148
0.00135132
0.00155483
0.00138353
0.0014838
0.00138987
0.00125068
0.00138923
0.00103693
0.000886578
0.000996532
0.000810618
0.000924072
0.000783057
0.00085784
0.000767064
0.000805299
0.000760099
0.000760827
0.000759636
0.000720746
0.000762972
0.000681241
0.000768448
0.00064372
0.000775082
0.000608188
0.0007821
0.000574986
0.000788178
0.000544064
0.000793719
0.000514682
0.000798885
0.000487899
0.000803471
0.000496821
0.00080707
0.00049964
0.000817567
0.000502062
0.000828018
0.000504402
0.000838851
0.000507175
0.0008499
0.00050971
0.000861811
0.000512669
0.000874028
0.000515539
0.000886528
0.000518517
0.000899222
0.000521628
0.000911874
0.000524954
0.000924486
0.000528454
0.000937015
0.00053217
0.000949362
0.0005351
0.000961541
0.000538427
0.000973681
0.000541214
0.000985001
0.000544121
0.000995594
0.000546477
0.00100527
0.000548438
0.00101365
0.000550255
0.00102024
0.000551409
0.00102467
0.000551952
0.00102703
0.000551585
0.00102746
0.000550292
0.00102665
0.000548556
0.00102553
0.000550281
0.00102396
0.000553543
0.00102163
0.000556309
0.00101791
0.000558542
0.00101303
0.00056009
0.00100656
0.000561859
0.00099852
0.000563119
0.000988552
0.000564891
0.000977159
0.000567668
0.000965825
0.000569405
0.000953793
0.000571303
0.000941161
0.000572509
0.000927681
0.00057338
0.00091377
0.000574684
0.000897002
0.000573459
0.000877967
0.000573797
0.000857269
0.000575056
0.000836521
0.000575115
0.000815528
0.000577392
0.000795482
0.000577639
0.000775363
0.000579611
0.000757032
0.000582755
0.00074094
0.000587586
0.000725419
0.000591659
0.000710618
0.000594917
0.000696754
0.000597125
0.000684083
0.00059593
0.000674396
0.000593278
0.000667248
0.00059024
0.000661629
0.000588797
0.000657514
0.000590964
0.000653972
0.000593901
0.000650679
0.000598743
0.000648416
0.000604504
0.000646551
0.000610222
0.000644573
0.000615345
0.000643221
0.000620834
0.000643022
0.000626707
0.000644537
0.000633275
0.000647079
0.000640503
0.000649294
0.000651756
0.000651032
0.00066116
0.000651448
0.000675704
0.00065394
0.000683308
0.00065792
0.000693708
0.000666027
0.000700403
0.000675373
0.000704682
0.00068674
0.000687488
0.000697407
0.000747622
0.000710002
0.00297956
0.00334603
0.0013568
0.00287881
0.00106748
0.00295132
0.00106263
0.003411
0.00113875
0.00308317
0.00142627
0.00282472
0.00155262
0.00278836
0.00152973
0.00297068
0.00147114
0.00313108
0.0013399
0.00276132
0.00113209
0.00259698
0.00111901
0.00259767
0.00114553
0.00274408
0.00120657
0.00263739
0.00138873
0.00238373
0.00160283
0.00224853
0.00161975
0.0022671
0.00159224
0.00244722
0.00150835
0.00226669
0.00135122
0.00203185
0.00121809
0.00192477
0.00123037
0.00191157
0.00126557
0.00194698
0.00137008
0.00186831
0.00151899
0.00174507
0.00161764
0.00166591
0.00163617
0.00162048
0.00160433
0.0015614
0.00158132
0.00148138
0.00154246
0.00125565
0.00152672
0.0010678
0.00102739
0.00101608
0.000907059
0.000939245
0.000861427
0.000866819
0.000838807
0.000811807
0.000832478
0.000765158
0.000833138
0.000721577
0.000836246
0.000680779
0.00084176
0.000643188
0.000847782
0.000608821
0.000853743
0.000577545
0.000858785
0.000547583
0.000862703
0.000518326
0.000866121
0.000489811
0.0008692
0.000503091
0.000872173
0.000505757
0.000881823
0.000507834
0.000891519
0.000509968
0.000901474
0.00051237
0.000911427
0.00051499
0.000922518
0.00051797
0.000934244
0.000520865
0.000946613
0.000523788
0.000959551
0.000526928
0.000972589
0.000530366
0.000985781
0.000534049
0.000999104
0.000537852
0.0010122
0.000540913
0.00102532
0.000544267
0.00103866
0.000546557
0.00105147
0.000549364
0.00106459
0.000551381
0.00107718
0.000553045
0.00108921
0.000554344
0.00110002
0.000553849
0.00110843
0.000553482
0.00111505
0.000552019
0.00111918
0.000549823
0.00112125
0.000548283
0.00112252
0.000553317
0.00112293
0.000557343
0.00112173
0.000560925
0.00111803
0.000564123
0.0011125
0.000566493
0.00110407
0.000569107
0.0010925
0.000570878
0.00107811
0.000572953
0.00105992
0.000576462
0.00104099
0.000578867
0.0010203
0.000581703
0.000999449
0.000583763
0.000979209
0.000586578
0.000959492
0.000589594
0.000939526
0.000587972
0.000919085
0.00058845
0.000895646
0.00058959
0.000872072
0.000588639
0.000848105
0.000590595
0.000825384
0.000589356
0.000802443
0.00059046
0.000781206
0.000592969
0.000762385
0.000596928
0.000744433
0.000599462
0.000727102
0.000600097
0.000710451
0.000599811
0.000696026
0.000597556
0.000685917
0.000594891
0.000679255
0.000592815
0.000674077
0.000592408
0.000670486
0.000594727
0.00066611
0.000597693
0.000661163
0.00060237
0.000658156
0.000608204
0.000654788
0.00061341
0.00065162
0.000617419
0.000649013
0.000622929
0.000647201
0.000629649
0.000645893
0.000638454
0.000645396
0.00064755
0.000644622
0.000661072
0.000644199
0.000669472
0.000643956
0.000683454
0.000646916
0.000688507
0.000651644
0.000697652
0.000660693
0.00070476
0.000670735
0.000711079
0.000682964
0.000696071
0.00069542
0.000756788
0.000709011
0.00288856
0.00334388
0.00108428
0.0028478
0.00153557
0.00299874
0.00149018
0.00345461
0.00138567
0.00298467
0.00117267
0.00265645
0.00105076
0.00259156
0.00108348
0.00287419
0.00111085
0.00312887
0.00128243
0.0027427
0.00156506
0.00251875
0.0016052
0.00260446
0.00157074
0.00280377
0.00151067
0.00268597
0.00138471
0.00235299
0.00121454
0.00216068
0.00118904
0.00215677
0.00122907
0.00235723
0.00128217
0.00225899
0.00151741
0.00201637
0.00173063
0.00188399
0.00173571
0.00191503
0.00170037
0.00200186
0.0016607
0.00193716
0.00153931
0.00176403
0.00145353
0.00165991
0.00144622
0.00160505
0.00147825
0.00156138
0.00152606
0.001529
0.00157146
0.00143279
0.00162764
0.00114722
0.00114485
0.00105636
0.000968567
0.000954565
0.000901325
0.000873744
0.000882651
0.000812853
0.000880182
0.000761544
0.000881284
0.000719893
0.000887836
0.000680777
0.000895421
0.000645006
0.000902608
0.000612373
0.000910042
0.000580593
0.00091681
0.000549835
0.000922986
0.000520007
0.000928224
0.000491323
0.00093305
0.000507423
0.000937919
0.00051057
0.000949569
0.000513012
0.000962146
0.000515577
0.00097444
0.000518568
0.0009872
0.000522007
0.00100022
0.000525662
0.00101436
0.000529353
0.00102885
0.000532625
0.00104411
0.000536076
0.00105974
0.000539795
0.00107528
0.00054373
0.00109039
0.000547846
0.00110521
0.000551273
0.00111921
0.000554733
0.00113303
0.000557428
0.00114622
0.000560506
0.0011586
0.000562025
0.00116926
0.000563632
0.00117889
0.000564324
0.00118729
0.000565043
0.00119484
0.000564568
0.00119999
0.000563375
0.0012046
0.000561937
0.00120893
0.00056004
0.00121241
0.000568796
0.00121468
0.000576665
0.00121548
0.000583278
0.0012131
0.000589265
0.00120856
0.000593104
0.00120105
0.000597468
0.00118922
0.000599775
0.00117448
0.000600648
0.0011546
0.000602381
0.00113242
0.000600987
0.00110795
0.000602245
0.00108108
0.000604107
0.00105526
0.000607431
0.00102933
0.000612287
0.00100459
0.000610957
0.000979403
0.000611126
0.000952998
0.000611543
0.000927092
0.000607925
0.00090138
0.000608543
0.00087509
0.000605153
0.000848316
0.000605244
0.000822899
0.000606581
0.000800063
0.000609331
0.000778476
0.000610279
0.000757389
0.000608603
0.000736899
0.000604586
0.000718517
0.000599675
0.000704611
0.000597205
0.000694944
0.000594326
0.000689299
0.000593489
0.000685038
0.000595699
0.000680071
0.000598832
0.000675819
0.000603355
0.00067194
0.000608427
0.000667217
0.000614292
0.000662662
0.00062084
0.000658925
0.000629363
0.000655722
0.000636873
0.000652137
0.000647506
0.00064933
0.000657063
0.000646431
0.000671316
0.000644953
0.000677203
0.000644364
0.000689987
0.000646267
0.000693336
0.000650525
0.00070204
0.000659419
0.000709011
0.000669904
0.000717078
0.000682162
0.000705732
0.000696171
0.000763585
0.000710313
0.00287844
0.0033285
0.00140857
0.00275467
0.00105987
0.00283539
0.00107842
0.00340487
0.0011406
0.00302583
0.00148403
0.00267368
0.00167063
0.00262344
0.0016722
0.00285573
0.0016086
0.00320448
0.00145337
0.00275088
0.00119766
0.00251029
0.0011762
0.00250237
0.00121744
0.00263247
0.0012455
0.00259648
0.00145105
0.00230793
0.0017442
0.00213427
0.00179185
0.00216001
0.00177902
0.00237262
0.00169377
0.00229893
0.0015277
0.00201628
0.00132878
0.00185179
0.00131318
0.00185798
0.001365
0.00188192
0.00143004
0.00185865
0.00159885
0.00172543
0.00177054
0.00164042
0.001816
0.00159865
0.0018146
0.00156537
0.00182404
0.00151901
0.00177271
0.00148321
0.00173683
0.00125516
0.00127613
0.00109762
0.00104645
0.000964871
0.00097022
0.000874219
0.00095243
0.000808542
0.000952337
0.00075872
0.000964422
0.000720307
0.000978077
0.000683187
0.000992704
0.000648445
0.00100646
0.00061564
0.00101895
0.000583662
0.00103014
0.000552911
0.00104034
0.000523985
0.00105021
0.000496585
0.00105928
0.000517598
0.00106691
0.000523431
0.00108048
0.000527588
0.00109676
0.00053224
0.00111259
0.000537179
0.00112884
0.000542785
0.00114544
0.000548464
0.00116358
0.000554674
0.00118112
0.000560191
0.00119859
0.000565824
0.0012157
0.000571203
0.0012322
0.000576661
0.00124749
0.000581898
0.00126133
0.000586509
0.00127328
0.000590509
0.00128397
0.000593538
0.00129229
0.000594627
0.00129918
0.000593906
0.00130373
0.000592823
0.00130754
0.000590784
0.00131042
0.000589016
0.00131287
0.000585928
0.0013145
0.000583904
0.00131518
0.000579832
0.00131621
0.000576553
0.00131797
0.000584333
0.00132151
0.000593675
0.00132519
0.000601781
0.00132838
0.000610275
0.00132958
0.000616605
0.00132784
0.000623544
0.00132034
0.00062962
0.00130927
0.000632341
0.00129318
0.00063767
0.00127137
0.000637012
0.00124569
0.000637826
0.00121348
0.000638541
0.00117985
0.000638871
0.00114372
0.000643061
0.00110951
0.000640269
0.00107586
0.000639786
0.00104036
0.000640035
0.00100824
0.000635372
0.000975705
0.000634992
0.000942732
0.000629066
0.000909766
0.000627238
0.00087751
0.000626322
0.000848441
0.000627473
0.000821447
0.000626181
0.000795396
0.000621159
0.000770772
0.000613735
0.00074722
0.000604314
0.000728269
0.000599485
0.000714777
0.000595433
0.000706331
0.0005941
0.000700486
0.000595589
0.000694512
0.000598571
0.000689692
0.000602746
0.000684363
0.000609675
0.000678876
0.000618043
0.000673845
0.000627562
0.000669674
0.000638889
0.000666282
0.000648212
0.000662485
0.000660691
0.000659409
0.000668853
0.000655943
0.000682771
0.000653466
0.000686127
0.000652095
0.00069628
0.000653014
0.000697524
0.000655811
0.000705615
0.000663592
0.000712592
0.000673763
0.000723304
0.000685467
0.000714296
0.000699076
0.000770109
0.000711945
0.00289556
0.00328614
0.00111045
0.00272306
0.00164138
0.00288639
0.00157805
0.00349786
0.00145595
0.00305159
0.00125303
0.0026433
0.00108696
0.00257515
0.00112882
0.00275058
0.00116826
0.0031587
0.00132254
0.00270582
0.00167256
0.00241545
0.00176863
0.00248513
0.00172791
0.00270919
0.00165749
0.00276686
0.00155024
0.00239836
0.00131829
0.00213907
0.00125676
0.00213588
0.00131449
0.00225371
0.00135717
0.00226394
0.00161864
0.00197425
0.0019475
0.00179468
0.00198588
0.00183705
0.00196337
0.00192332
0.00189479
0.00201836
0.00179847
0.00184606
0.00168189
0.00171695
0.00164701
0.00164761
0.00165547
0.00157185
0.00170853
0.00151361
0.00176453
0.00158277
0.00182864
0.00136478
0.00140093
0.00114224
0.00118039
0.000978952
0.00108819
0.000877897
0.00107186
0.000815185
0.0010818
0.000789061
0.00110115
0.000754279
0.00112165
0.000718657
0.00114038
0.000683782
0.00115709
0.000650638
0.00117257
0.000618131
0.00118743
0.000587664
0.00120201
0.000557879
0.00121538
0.000529214
0.00122678
0.000555515
0.00123733
0.000561465
0.00125469
0.000566883
0.00127502
0.000571875
0.00129308
0.000577541
0.00131105
0.000584098
0.00132849
0.000590254
0.00134619
0.000596563
0.00136308
0.000601957
0.00137926
0.000607126
0.00139489
0.000611137
0.00140929
0.000615395
0.00142305
0.000618742
0.00143402
0.000621606
0.00144415
0.000622968
0.00145202
0.000623032
0.00145753
0.000621538
0.00146269
0.00061906
0.00146681
0.000617383
0.00146946
0.00061409
0.00146979
0.000612978
0.00146827
0.000608552
0.00146448
0.000606848
0.001457
0.000600701
0.00144899
0.000598282
0.00144206
0.000602577
0.00143811
0.000615738
0.00143686
0.000626971
0.00143687
0.000639812
0.00143674
0.00065186
0.00143676
0.000660637
0.00143126
0.000672767
0.00142427
0.000678574
0.00141374
0.000688286
0.00139556
0.000692624
0.001373
0.00069509
0.00134609
0.000698016
0.00131559
0.000693897
0.00128022
0.000696023
0.00124123
0.0006891
0.00119925
0.000684275
0.00115242
0.000682527
0.00110968
0.000673783
0.00106784
0.000671533
0.00102563
0.000661952
0.000985329
0.000656984
0.000944878
0.000652472
0.000907796
0.000651354
0.000874021
0.000646944
0.000841588
0.000638561
0.000810545
0.000626569
0.000780081
0.000611883
0.000754936
0.000603973
0.000736886
0.000597608
0.000724573
0.000594933
0.000716304
0.000595907
0.000709467
0.000598817
0.000703576
0.000603658
0.000697443
0.000612877
0.000691222
0.000624091
0.000688143
0.000635717
0.000683894
0.000650487
0.000679656
0.0006615
0.000675436
0.000675123
0.000671899
0.000681978
0.000668611
0.000695019
0.000665879
0.000696287
0.000665165
0.000704411
0.000665328
0.000703347
0.000666474
0.000710574
0.000672319
0.000717916
0.000680653
0.000730999
0.000690445
0.000722515
0.000702478
0.000775439
0.00071316
0.00287895
0.00335071
0.00146874
0.00270364
0.00107649
0.00276413
0.00110159
0.00331073
0.00114847
0.00299577
0.00152787
0.00261058
0.00179253
0.00254037
0.00181049
0.00276727
0.00175329
0.00328693
0.00157902
0.00280009
0.00130726
0.00249303
0.00126058
0.00243163
0.00128311
0.00259336
0.00133107
0.00262181
0.00151523
0.00230443
0.00187154
0.0020734
0.00202151
0.00210729
0.00201338
0.00230453
0.0019377
0.00241076
0.00178546
0.00209067
0.00147875
0.00187426
0.00142892
0.00186309
0.0014856
0.00186994
0.00153707
0.00193591
0.00170332
0.00179102
0.00192014
0.00165967
0.00205744
0.00162393
0.00212403
0.00158613
0.0021506
0.00154119
0.00213769
0.00164706
0.0021242
0.00146267
0.00175079
0.00121594
0.00139896
0.00101554
0.00126589
0.000903765
0.0012463
0.00086444
0.00126511
0.000839397
0.00128945
0.000803915
0.00130757
0.000765615
0.00132519
0.000728473
0.00134216
0.000693337
0.00135907
0.000659629
0.00137559
0.000627016
0.001392
0.00059464
0.00140779
0.000564209
0.00142206
0.000600861
0.00143565
0.000608804
0.00145293
0.000616089
0.00147666
0.000623487
0.001497
0.000630972
0.00151866
0.000639421
0.00153815
0.000646859
0.00155909
0.000654257
0.00157806
0.000660789
0.00159522
0.000667097
0.00161073
0.000672224
0.00162445
0.00067629
0.00163687
0.00067939
0.00164653
0.000681683
0.00165405
0.000682528
0.00165859
0.000682733
0.00166061
0.000682757
0.00166213
0.000681634
0.00166394
0.000680943
0.00166491
0.00067756
0.00166371
0.000674838
0.00166124
0.000668058
0.00165899
0.000662232
0.00165371
0.000652502
0.0016478
0.000646303
0.00163774
0.000650532
0.0016288
0.000662804
0.00161562
0.00067243
0.00160417
0.00068656
0.00158864
0.000697256
0.00157712
0.000709734
0.0015665
0.000720002
0.00155611
0.000731317
0.00154212
0.000737184
0.00152631
0.000747313
0.00150266
0.000748585
0.00147966
0.000755756
0.00144898
0.000751807
0.00141638
0.000756255
0.00137733
0.000749347
0.00133496
0.000741253
0.00128428
0.000737288
0.00123416
0.000722634
0.00118075
0.000717887
0.00112672
0.000703971
0.0010741
0.000696335
0.00102334
0.000687733
0.000976563
0.000683414
0.000934789
0.000674727
0.000895533
0.000662194
0.000857172
0.000643997
0.000818885
0.000622383
0.000783444
0.000610645
0.000758868
0.000600786
0.0007412
0.000596446
0.000730895
0.000597426
0.00072287
0.000600433
0.000715923
0.000605811
0.000709126
0.000616071
0.000702636
0.000630559
0.000698486
0.000645109
0.000695619
0.000662515
0.000692257
0.000674868
0.0006896
0.000688548
0.000687235
0.000694307
0.00068516
0.000705467
0.000682151
0.000706194
0.000680626
0.00071418
0.000680076
0.000711009
0.000679463
0.000717564
0.000682957
0.000724744
0.000687774
0.00073892
0.000695253
0.000731028
0.00070492
0.000780504
0.000714441
0.00294835
0.00325236
0.00115014
0.00262297
0.00174868
0.00277502
0.00169544
0.00344457
0.00157126
0.0031456
0.00135943
0.00270325
0.00114128
0.00264012
0.00118987
0.00278107
0.00123628
0.00316984
0.00140933
0.00270694
0.00180028
0.00237415
0.00198689
0.0023811
0.00193413
0.00263813
0.0018713
0.00294905
0.00176693
0.00252965
0.00153575
0.00219779
0.00137019
0.0021795
0.00141222
0.00232463
0.00147905
0.00231782
0.00180475
0.00200467
0.0022554
0.00177163
0.00243452
0.00178927
0.00238886
0.00184702
0.0023215
0.00199375
0.00220678
0.00205884
0.00207351
0.00192714
0.00204252
0.0018408
0.00206725
0.00177317
0.00212093
0.00170313
0.00219801
0.00178984
0.00227232
0.00171235
0.00219182
0.00134859
0.00162521
0.00109667
0.00143119
0.000965436
0.00140062
0.000955364
0.00142786
0.000917592
0.00146492
0.000875424
0.00148699
0.000830939
0.00150401
0.000788959
0.00151948
0.000750749
0.00153552
0.000714921
0.00155206
0.000680854
0.00157079
0.000646025
0.00158815
0.0006123
0.00160487
0.000656878
0.00162195
0.000665412
0.00164251
0.000674925
0.00167093
0.000685691
0.00169631
0.00069602
0.00172078
0.000707066
0.00174401
0.000716099
0.00176578
0.000723613
0.00178536
0.00072982
0.00180264
0.000735135
0.00181771
0.000738713
0.00183079
0.000741147
0.00184094
0.000742546
0.00185021
0.000742748
0.00185712
0.000741243
0.00186158
0.000739321
0.00186319
0.000737716
0.00186215
0.00073463
0.00186387
0.000732247
0.00185819
0.000727917
0.00185566
0.000725392
0.00184657
0.000718516
0.00184156
0.000713225
0.00183211
0.000703233
0.00182437
0.000701006
0.00181368
0.000709265
0.00180787
0.000722147
0.00179347
0.000728893
0.00178068
0.000741343
0.00176162
0.000748857
0.00174493
0.000762969
0.00172511
0.000770381
0.0017075
0.000784626
0.00168405
0.000790442
0.0016633
0.000802936
0.00163243
0.000804349
0.00160287
0.000815827
0.00156912
0.000812293
0.00153575
0.000821217
0.00149664
0.000817528
0.00145808
0.000809442
0.00140939
0.000805244
0.00135877
0.000784584
0.0013006
0.000776255
0.00124044
0.000754879
0.0011782
0.000743446
0.00111755
0.000728963
0.00105999
0.000720615
0.00100718
0.000707794
0.000958095
0.000690943
0.000910226
0.000667766
0.000861712
0.000638176
0.000815701
0.000620891
0.000781377
0.000605878
0.000761213
0.000599025
0.000751802
0.000599885
0.000744033
0.000603011
0.000737058
0.000608897
0.000729668
0.000619423
0.000721812
0.000636209
0.000716312
0.000652994
0.00071295
0.000672729
0.000709482
0.00068671
0.000707808
0.000699999
0.00070636
0.000705966
0.000703965
0.000716033
0.000699458
0.000716447
0.000697048
0.000724567
0.00069486
0.00071964
0.000692711
0.000725937
0.000693035
0.00073254
0.000694684
0.000746901
0.000700445
0.000739835
0.000707748
0.000785667
0.000716145
0.00291409
0.00339023
0.00153578
0.00269709
0.00110302
0.00281741
0.00112965
0.0033007
0.00119037
0.00300028
0.00157852
0.0025948
0.00195301
0.00252477
0.00198391
0.00278103
0.00192935
0.00343352
0.00175929
0.00291603
0.00148073
0.00255858
0.00135034
0.00244888
0.00135444
0.00271168
0.00144989
0.00285323
0.00164037
0.00237354
0.00205523
0.00211781
0.00239208
0.00209932
0.00239013
0.00237161
0.00231606
0.00268791
0.00212819
0.00231303
0.00181861
0.00203189
0.00159621
0.00194742
0.00161559
0.00202237
0.00170458
0.00208587
0.00194847
0.00204867
0.00218458
0.0019063
0.0023372
0.00182972
0.00241764
0.00178122
0.00247039
0.00172297
0.0025136
0.001837
0.00256203
0.00184148
0.00260332
0.00140957
0.00184474
0.00113449
0.00165302
0.00103451
0.00161889
0.00103092
0.00164568
0.000989382
0.00167242
0.00094371
0.00169456
0.000896369
0.00171282
0.000850899
0.00172907
0.000808909
0.00174584
0.000770691
0.0017658
0.00073401
0.00178522
0.000697796
0.00180344
0.000661501
0.00182113
0.000717244
0.00184052
0.000729502
0.00185859
0.000741518
0.00188056
0.000752507
0.00190146
0.000761632
0.00192017
0.000769144
0.00193669
0.000775314
0.00195065
0.000780221
0.00196191
0.000784244
0.00197234
0.000786833
0.00198015
0.000787886
0.0019856
0.000788115
0.00199046
0.000787658
0.001996
0.000785758
0.00199941
0.000783447
0.00199998
0.000779183
0.00200246
0.000776507
0.00199974
0.000770959
0.00200032
0.00076726
0.00199355
0.00076066
0.00199042
0.000756348
0.00197845
0.000747876
0.00197328
0.000741604
0.00196122
0.000730858
0.00195788
0.000738954
0.00194659
0.000749124
0.00194051
0.000766015
0.00192836
0.000775576
0.00192261
0.000791174
0.00190617
0.000799351
0.00189051
0.000815452
0.00187296
0.00082289
0.00186014
0.00083798
0.00182875
0.000845273
0.00180402
0.000860184
0.00177359
0.000860935
0.00174396
0.00087505
0.00170758
0.000871689
0.00167243
0.000883259
0.00162435
0.000883359
0.00158264
0.000875827
0.00152864
0.00087292
0.00147342
0.000846464
0.00141093
0.00083643
0.00133948
0.000806818
0.00126455
0.000793506
0.00119164
0.000773291
0.00112002
0.000761318
0.00105692
0.000744617
0.00099914
0.000724155
0.000944116
0.000696426
0.000888654
0.000658254
0.000835934
0.000631873
0.000796698
0.000610293
0.000775819
0.000602334
0.00076492
0.00060323
0.000756271
0.000606912
0.000748917
0.000613042
0.000740935
0.000623861
0.000732786
0.000642036
0.000727527
0.000661066
0.000725601
0.000681903
0.000724115
0.000697681
0.000724331
0.000711297
0.000724876
0.000718488
0.000722892
0.000727382
0.000716378
0.000727633
0.000712677
0.000734972
0.000708868
0.000729795
0.000705356
0.000735197
0.000702343
0.000740563
0.000700738
0.000755244
0.000705348
0.000748983
0.000711177
0.000791142
0.000718016
0.0030516
0.00324712
0.00121264
0.00255017
0.00187434
0.00278553
0.00183433
0.0034344
0.00171094
0.00333688
0.00150731
0.00286745
0.00122958
0.00283522
0.00128131
0.00302068
0.00134918
0.00329847
0.00157503
0.00273801
0.00197377
0.00236742
0.00231502
0.00234904
0.00226139
0.0026826
0.00221501
0.00312447
0.00209964
0.00285761
0.00187496
0.00253545
0.00164058
0.00242623
0.00163952
0.00265325
0.00179928
0.00260107
0.00215758
0.00214044
0.00261768
0.00185866
0.00302716
0.00179117
0.00300509
0.00194535
0.00293468
0.0020776
0.00278993
0.00213848
0.00259165
0.00211005
0.00254747
0.00203456
0.00255993
0.0019656
0.0026077
0.00186441
0.00272681
0.00185829