/*--------------------------------*- C++ -*----------------------------------*\
| =========                 |                                                 |
| \\      /  F ield         | OpenFOAM: The Open Source CFD Toolbox           |
|  \\    /   O peration     | Version:  2.2.x                                 |
|   \\  /    A nd           | Web:      www.OpenFOAM.org                      |
|    \\/     M anipulation  |                                                 |
\*---------------------------------------------------------------------------*/
FoamFile
{
    version     2.0;
    format      ascii;
    class       volScalarField;
    location    "1.9";
    object      rho;
}
// * * * * * * * * * * * * * * * * * * * * * * * * * * * * * * * * * * * * * //

dimensions      [1 -3 0 0 0 0 0];

internalField   nonuniform List<scalar> 
14161
(
1
1
1
1
1
1
1
1
1
1
1
1
1
1
1
1
1
1
1
2.06482
2.78381
2.80163
2.81678
2.83106
2.84471
2.85779
2.87032
2.88235
2.89391
2.90506
2.91584
2.92632
2.93653
2.94649
2.95622
2.9657
2.97492
2.98382
2.99237
3.00053
3.00826
3.01554
3.02235
3.02871
3.03466
3.03813
3.04194
3.04538
3.04854
3.05139
3.05391
3.05603
3.05769
3.05883
3.0594
3.05932
3.05852
3.05688
3.05448
3.05154
3.04828
3.04496
3.0418
3.03901
3.03676
3.03515
3.03424
3.03403
3.03447
3.0355
3.03703
3.03895
3.04119
3.04366
3.04629
3.04904
3.05187
3.05475
3.05767
3.0606
3.06354
3.06648
3.06941
3.07234
3.07524
3.07813
3.08098
3.0838
3.08658
3.08932
3.09202
3.09467
3.09728
3.09986
3.10243
3.10501
3.1076
3.11025
3.11296
3.11579
3.11874
3.12186
3.12516
3.12869
3.13241
3.13636
3.14058
3.1451
3.14997
3.15517
3.16056
3.16593
3.17096
3.17512
3.17756
3.17703
3.17179
3.15969
3.19714
1
1
1
1
1
1
1
1
1
1
1
1
1
1
1
1
1
1
1
2.05538
2.7428
2.75134
2.75352
2.7521
2.74714
2.73876
2.7275
2.71446
2.70127
2.68973
2.68147
2.67758
2.67856
2.68422
2.69397
2.70693
2.72217
2.73882
2.75613
2.77352
2.7906
2.80711
2.82293
2.838
2.85231
2.86547
2.87822
2.89019
2.90147
2.91209
2.92208
2.93146
2.94026
2.94852
2.9563
2.96365
2.97065
2.97742
2.98388
2.98998
2.99567
3.00097
3.0059
3.01052
3.01487
3.01897
3.02286
3.02656
3.03008
3.03343
3.03662
3.03964
3.0425
3.04518
3.04768
3.04998
3.05205
3.05383
3.05529
3.05635
3.05693
3.05691
3.05622
3.05475
3.05245
3.04931
3.04541
3.04092
3.03611
3.03134
3.02706
3.02369
3.02166
3.0213
3.02282
3.0263
3.03167
3.03879
3.04741
3.05724
3.06799
3.07934
3.09096
3.10249
3.11358
3.12375
3.13247
3.13922
3.14345
3.14483
3.14342
3.13995
3.1358
3.13299
3.13329
3.13704
3.14211
3.14414
3.18884
1
1
1
1
1
1
1
1
1
1
1
1
1
1
1
1
1
1
1
2.05808
2.7551
2.76632
2.77243
2.77615
2.77781
2.77772
2.77643
2.77472
2.77346
2.77351
2.77545
2.77954
2.78569
2.79351
2.80249
2.81208
2.82181
2.83133
2.84045
2.84907
2.85719
2.86481
2.87194
2.8786
2.88479
2.8924
2.89962
2.90677
2.91379
2.9207
2.92752
2.93427
2.94096
2.9476
2.95419
2.96073
2.96717
2.97351
2.9797
2.98571
2.99152
2.9971
3.00245
3.00754
3.01236
3.01692
3.02123
3.02529
3.02913
3.03276
3.03619
3.03944
3.04252
3.04543
3.04817
3.05073
3.0531
3.05522
3.05707
3.05858
3.05967
3.06024
3.06021
3.05945
3.05789
3.05548
3.05223
3.04825
3.04374
3.03903
3.03452
3.03069
3.02799
3.02686
3.02757
3.03031
3.03505
3.04168
3.04994
3.05951
3.07004
3.08109
3.09222
3.1029
3.11253
3.12045
3.12602
3.12867
3.12816
3.1247
3.11918
3.11315
3.10852
3.10695
3.10913
3.11439
3.12054
3.12393
3.15114
1
1
1
1
1
1
1
1
1
1
1
1
1
1
1
1
1
1
1
2.05659
2.76582
2.77794
2.78723
2.79519
2.80205
2.80812
2.81377
2.81947
2.82567
2.83267
2.84064
2.84951
2.85906
2.86897
2.87885
2.88837
2.89724
2.90527
2.91237
2.91854
2.9238
2.92825
2.93198
2.93511
2.93772
2.94087
2.94323
2.94566
2.94812
2.95068
2.95341
2.95638
2.95964
2.96321
2.96709
2.97128
2.97572
2.98037
2.98517
2.99006
2.99497
2.99984
3.00462
3.00927
3.01376
3.01807
3.02219
3.02613
3.02988
3.03346
3.03688
3.04016
3.04329
3.0463
3.04918
3.05194
3.05455
3.057
3.05927
3.0613
3.06304
3.06444
3.0654
3.06586
3.06572
3.06493
3.06346
3.06135
3.05869
3.05568
3.05259
3.04976
3.04756
3.04634
3.04641
3.04794
3.05103
3.05563
3.06158
3.06867
3.07661
3.08511
3.0938
3.10224
3.10989
3.11605
3.11999
3.12103
3.11888
3.11388
3.10727
3.10104
3.09724
3.09706
3.10027
3.10571
3.11184
3.11614
3.13837
1
1
1
1
1
1
1
1
1
1
1
1
1
1
1
1
1
1
1
2.05385
2.78042
2.79369
2.80657
2.8189
2.83067
2.84202
2.8531
2.86409
2.87505
2.88601
2.89684
2.90734
2.91727
2.92636
2.93442
2.94129
2.94692
2.95134
2.95463
2.95695
2.95849
2.95942
2.95994
2.96022
2.9604
2.96002
2.9595
2.9593
2.95946
2.96006
2.96113
2.96272
2.96483
2.96746
2.97056
2.9741
2.97801
2.98221
2.98664
2.99122
2.99587
3.00051
3.00509
3.00957
3.01392
3.01812
3.02215
3.02602
3.02973
3.03329
3.03672
3.04002
3.04321
3.0463
3.0493
3.05221
3.05503
3.05775
3.06034
3.06279
3.06506
3.06711
3.06888
3.07032
3.07136
3.07195
3.07205
3.07165
3.07079
3.06956
3.06811
3.06667
3.06546
3.06475
3.06477
3.0657
3.06765
3.07063
3.07456
3.07932
3.08475
3.09066
3.09682
3.10298
3.10872
3.11346
3.11645
3.11694
3.11445
3.10921
3.10246
3.09629
3.09283
3.09302
3.09614
3.10089
3.10652
3.11159
3.13348
1
1
1
1
1
1
1
1
1
1
1
1
1
1
1
1
1
1
1
2.05076
2.78477
2.79786
2.81159
2.82498
2.83774
2.84981
2.86114
2.87167
2.88136
2.89014
2.89796
2.90479
2.91064
2.91557
2.91967
2.92306
2.92588
2.92826
2.93032
2.93219
2.93393
2.93564
2.93737
2.93917
2.94107
2.9419
2.94321
2.94477
2.94667
2.94895
2.95162
2.95469
2.95814
2.96194
2.96605
2.97043
2.97502
2.97977
2.9846
2.98947
2.99431
2.99909
3.00376
3.0083
3.01268
3.0169
3.02095
3.02484
3.02856
3.03215
3.03561
3.03895
3.0422
3.04537
3.04846
3.05149
3.05446
3.05737
3.0602
3.06294
3.06558
3.06808
3.07041
3.07254
3.07441
3.07598
3.07722
3.0781
3.07863
3.07884
3.0788
3.07863
3.07848
3.07852
3.0789
3.07976
3.08119
3.08322
3.08582
3.08893
3.09247
3.09634
3.10045
3.10467
3.10876
3.11228
3.11457
3.11485
3.1125
3.10752
3.10095
3.09477
3.09111
3.09087
3.09319
3.09679
3.10167
3.10739
3.1312
1
1
1
1
1
1
1
1
1
1
1
1
1
1
1
1
1
1
1
2.04835
2.77327
2.78452
2.79612
2.80746
2.81829
2.82852
2.83809
2.84695
2.85508
2.86249
2.8692
2.87527
2.88075
2.88572
2.89025
2.89444
2.89833
2.90201
2.90553
2.90894
2.91227
2.91557
2.91884
2.92212
2.92542
2.9278
2.93069
2.93378
2.93712
2.94073
2.94461
2.94877
2.95317
2.95779
2.9626
2.96755
2.97261
2.97771
2.98282
2.98789
2.99289
2.99777
3.00251
3.00708
3.01148
3.0157
3.01975
3.02362
3.02733
3.0309
3.03435
3.03769
3.04094
3.04412
3.04725
3.05032
3.05335
3.05634
3.05929
3.06219
3.06503
3.0678
3.07047
3.07302
3.07542
3.07763
3.07962
3.08137
3.08286
3.08409
3.08511
3.08595
3.0867
3.08746
3.08832
3.08936
3.09066
3.09223
3.09406
3.09613
3.0984
3.10086
3.10349
3.10628
3.10911
3.11168
3.11344
3.11364
3.11157
3.10704
3.10079
3.09457
3.09044
3.08934
3.09047
3.0927
3.09657
3.10264
3.12945
1
1
1
1
1
1
1
1
1
1
1
1
1
1
1
1
1
1
1
2.04715
2.77052
2.78179
2.79263
2.80307
2.81295
2.82225
2.83096
2.8391
2.84667
2.85369
2.8602
2.86621
2.87178
2.87695
2.88175
2.88625
2.89049
2.89453
2.8984
2.90216
2.90584
2.90946
2.91304
2.91658
2.92011
2.9231
2.92649
2.9301
2.93393
2.93799
2.94227
2.94678
2.95148
2.95636
2.96137
2.96648
2.97166
2.97686
2.98203
2.98713
2.99214
2.99701
3.00172
3.00626
3.01062
3.01479
3.01878
3.0226
3.02627
3.02979
3.03319
3.03649
3.0397
3.04285
3.04594
3.049
3.05202
3.05502
3.058
3.06095
3.06388
3.06677
3.06961
3.07239
3.07508
3.07765
3.08009
3.08237
3.08447
3.08638
3.08811
3.08967
3.09109
3.09242
3.09372
3.09501
3.09635
3.09772
3.09915
3.1006
3.10209
3.10364
3.1053
3.10713
3.1091
3.11102
3.11244
3.11265
3.11092
3.10688
3.10102
3.0948
3.09012
3.088
3.0878
3.08853
3.09119
3.09723
3.1273
1
1
1
1
1
1
1
1
1
1
1
1
1
1
1
1
1
1
1
2.04522
2.77003
2.78181
2.79269
2.80305
2.81282
2.82198
2.83054
2.83852
2.84595
2.85286
2.85926
2.8652
2.8707
2.87581
2.88057
2.88502
2.88923
2.89324
2.89709
2.90083
2.90449
2.9081
2.91167
2.9152
2.91871
2.9219
2.92539
2.92911
2.93305
2.93721
2.94159
2.94617
2.95094
2.95586
2.96091
2.96604
2.97122
2.9764
2.98154
2.98661
2.99156
2.99638
3.00103
3.00551
3.0098
3.01391
3.01783
3.02159
3.02519
3.02865
3.032
3.03524
3.03841
3.04151
3.04456
3.04757
3.05057
3.05354
3.0565
3.05945
3.06239
3.06531
3.06821
3.07108
3.0739
3.07666
3.07934
3.08191
3.08436
3.08667
3.08883
3.09085
3.09271
3.09445
3.09606
3.09757
3.09899
3.1003
3.10151
3.10262
3.10364
3.10465
3.10573
3.10698
3.10844
3.10999
3.11124
3.11155
3.11017
3.10663
3.10118
3.09501
3.08982
3.08666
3.08511
3.08434
3.08564
3.09125
3.12431
1
1
1
1
1
1
1
1
1
1
1
1
1
1
1
1
1
1
1
2.04228
2.76937
2.78148
2.7924
2.80276
2.8125
2.82162
2.83012
2.83804
2.8454
2.85222
2.85855
2.8644
2.86983
2.87486
2.87956
2.88396
2.88813
2.89212
2.89596
2.8997
2.90338
2.907
2.9106
2.91417
2.91772
2.92103
2.92458
2.92836
2.93237
2.93659
2.94102
2.94565
2.95046
2.9554
2.96046
2.96559
2.97076
2.97591
2.98101
2.98603
2.99092
2.99567
3.00025
3.00466
3.00888
3.01291
3.01677
3.02046
3.024
3.0274
3.03069
3.03388
3.037
3.04005
3.04306
3.04603
3.04898
3.05192
3.05485
3.05777
3.06068
3.06359
3.0665
3.06938
3.07224
3.07506
3.07783
3.08054
3.08316
3.08568
3.08808
3.09034
3.09247
3.09444
3.09625
3.0979
3.09938
3.10066
3.10176
3.10267
3.10344
3.10415
3.10491
3.10587
3.10708
3.10847
3.10971
3.11018
3.10916
3.10609
3.10104
3.09495
3.08932
3.0852
3.08236
3.08014
3.07998
3.08484
3.12031
1
1
1
1
1
1
1
1
1
1
1
1
1
1
1
1
1
1
1
2.03828
2.76925
2.78168
2.79278
2.80328
2.81313
2.82235
2.83092
2.83889
2.84627
2.85309
2.85937
2.86516
2.8705
2.87544
2.88002
2.88431
2.88837
2.89224
2.89599
2.89964
2.90324
2.90681
2.91035
2.91388
2.91739
2.92074
2.9243
2.9281
2.93211
2.93635
2.94079
2.94543
2.95023
2.95516
2.96019
2.96529
2.9704
2.97549
2.98053
2.98546
2.99027
2.99493
2.99943
3.00374
3.00787
3.01182
3.01559
3.01921
3.02268
3.02602
3.02925
3.03238
3.03545
3.03846
3.04142
3.04435
3.04726
3.05016
3.05305
3.05593
3.05881
3.06169
3.06456
3.06742
3.07027
3.07309
3.07588
3.07862
3.08129
3.08389
3.08639
3.08876
3.091
3.09309
3.09499
3.0967
3.09819
3.09945
3.10047
3.10127
3.1019
3.10247
3.1031
3.10394
3.10509
3.10647
3.1078
3.10849
3.10781
3.10518
3.1005
3.0945
3.0885
3.08352
3.07948
3.07588
3.07426
3.07812
3.11526
1
1
1
1
1
1
1
1
1
1
1
1
1
1
1
1
1
1
1
2.03325
2.76856
2.78113
2.79229
2.80282
2.8127
2.82193
2.83052
2.83849
2.84587
2.85267
2.85894
2.8647
2.87
2.87489
2.87944
2.8837
2.88773
2.89158
2.89532
2.89898
2.90259
2.90617
2.90973
2.91329
2.91682
2.92022
2.92383
2.92767
2.93173
2.936
2.94047
2.94512
2.94993
2.95485
2.95986
2.96491
2.96997
2.975
2.97995
2.98479
2.98951
2.99407
2.99846
3.00267
3.0067
3.01055
3.01424
3.01777
3.02116
3.02443
3.0276
3.03069
3.0337
3.03667
3.03959
3.04248
3.04536
3.04822
3.05107
3.05392
3.05676
3.0596
3.06243
3.06525
3.06806
3.07085
3.07361
3.07633
3.079
3.0816
3.0841
3.0865
3.08876
3.09086
3.09278
3.09448
3.09595
3.09716
3.09812
3.09885
3.09941
3.09992
3.10052
3.10138
3.10257
3.10405
3.10552
3.10644
3.10609
3.10383
3.09949
3.09359
3.08727
3.08153
3.0764
3.07151
3.06845
3.07114
3.10922
1
1
1
1
1
1
1
1
1
1
1
1
1
1
1
1
1
1
1
2.02712
2.76795
2.78065
2.79186
2.80241
2.8123
2.82151
2.83008
2.83801
2.84533
2.85207
2.85826
2.86394
2.86917
2.87399
2.87848
2.88269
2.88668
2.89053
2.89427
2.89794
2.90158
2.9052
2.90882
2.91242
2.91602
2.91949
2.92317
2.92707
2.93119
2.93552
2.94003
2.94471
2.94953
2.95444
2.95943
2.96444
2.96944
2.97438
2.97925
2.98399
2.9886
2.99304
2.99731
3.00141
3.00533
3.00908
3.01267
3.01611
3.01942
3.02262
3.02573
3.02876
3.03173
3.03464
3.03753
3.04039
3.04322
3.04605
3.04887
3.05168
3.05449
3.05729
3.06009
3.06287
3.06564
3.06839
3.0711
3.07378
3.0764
3.07896
3.08142
3.08378
3.08601
3.08807
3.08994
3.0916
3.093
3.09415
3.09504
3.09572
3.09624
3.09675
3.09739
3.09832
3.09963
3.10125
3.1029
3.10405
3.10398
3.10205
3.09798
3.09217
3.08558
3.07916
3.07304
3.06697
3.06252
3.06393
3.10226
1
1
1
1
1
1
1
1
1
1
1
1
1
1
1
1
1
1
1
2.01978
2.7674
2.78023
2.79153
2.80214
2.81207
2.82131
2.82988
2.8378
2.84509
2.85178
2.8579
2.86351
2.86865
2.87339
2.87779
2.88194
2.88589
2.8897
2.89343
2.89711
2.90076
2.90441
2.90806
2.91171
2.91534
2.91887
2.92263
2.9266
2.93077
2.93514
2.93969
2.94438
2.94919
2.95408
2.95902
2.96396
2.96888
2.97372
2.97847
2.98309
2.98756
2.99187
2.99601
2.99997
3.00377
3.0074
3.01088
3.01423
3.01745
3.02057
3.02361
3.02658
3.0295
3.03237
3.03521
3.03803
3.04084
3.04364
3.04642
3.04921
3.05198
3.05475
3.05751
3.06026
3.06299
3.06569
3.06836
3.07098
3.07355
3.07604
3.07845
3.08074
3.0829
3.08489
3.08668
3.08826
3.08958
3.09065
3.09147
3.0921
3.09261
3.09314
3.09385
3.09488
3.09633
3.09811
3.09995
3.1013
3.10148
3.09981
3.09597
3.09021
3.08338
3.07636
3.06936
3.0622
3.05642
3.05649
3.09447
1
1
1
1
1
1
1
1
1
1
1
1
1
1
1
1
1
1
1
2.01119
2.76652
2.7794
2.7907
2.80128
2.81116
2.82034
2.82883
2.83665
2.84384
2.85042
2.85644
2.86195
2.86701
2.87168
2.87605
2.88019
2.88416
2.88801
2.8918
2.89556
2.89931
2.90307
2.90682
2.91057
2.91431
2.91795
2.92182
2.92588
2.93014
2.93458
2.93917
2.94389
2.9487
2.95357
2.95846
2.96333
2.96815
2.97288
2.9775
2.98198
2.98631
2.99047
2.99446
2.99829
3.00195
3.00545
3.00882
3.01206
3.0152
3.01824
3.02121
3.02412
3.02698
3.02981
3.03261
3.0354
3.03817
3.04094
3.0437
3.04645
3.0492
3.05194
3.05467
3.05739
3.06008
3.06274
3.06536
3.06793
3.07044
3.07288
3.07521
3.07743
3.0795
3.08141
3.08311
3.08459
3.08582
3.0868
3.08755
3.08813
3.08863
3.0892
3.08998
3.09113
3.09272
3.09467
3.09667
3.09821
3.09858
3.09711
3.09344
3.08771
3.08066
3.07309
3.06529
3.05713
3.0501
3.0488
3.08593
1
1
1
1
1
1
1
1
1
1
1
1
1
1
1
1
1
1
1
2.00111
2.76582
2.7788
2.79016
2.80077
2.81065
2.81979
2.82821
2.83595
2.84302
2.84948
2.85536
2.86073
2.86567
2.87025
2.87454
2.87864
2.8826
2.88647
2.89031
2.89414
2.89798
2.90183
2.90568
2.90953
2.91335
2.91711
2.92108
2.92524
2.92958
2.93407
2.9387
2.94342
2.94821
2.95303
2.95785
2.96262
2.96732
2.97191
2.97638
2.9807
2.98486
2.98886
2.99269
2.99636
2.99987
3.00324
3.00649
3.00962
3.01266
3.01562
3.01851
3.02136
3.02416
3.02694
3.0297
3.03245
3.0352
3.03793
3.04067
3.0434
3.04612
3.04884
3.05154
3.05422
3.05688
3.05951
3.06209
3.06462
3.06708
3.06945
3.07172
3.07386
3.07585
3.07767
3.07927
3.08065
3.08178
3.08267
3.08335
3.08389
3.08438
3.08498
3.08584
3.08711
3.08884
3.09093
3.09308
3.09475
3.09527
3.09395
3.09038
3.08465
3.07738
3.06932
3.0608
3.05172
3.04351
3.04085
3.07672
1
1
1
1
1
1
1
1
1
1
1
1
1
1
1
1
1
1
1
1.98947
2.76495
2.77798
2.78935
2.79994
2.80976
2.81882
2.82713
2.83472
2.84164
2.84794
2.85367
2.85891
2.86373
2.86824
2.8725
2.8766
2.8806
2.88455
2.8885
2.89245
2.89642
2.90041
2.9044
2.90838
2.91232
2.91621
2.9203
2.92456
2.92898
2.93353
2.93818
2.9429
2.94765
2.9524
2.95711
2.96176
2.96631
2.97075
2.97504
2.97918
2.98315
2.98697
2.99063
2.99413
2.99749
3.00072
3.00384
3.00686
3.0098
3.01268
3.01549
3.01827
3.02103
3.02376
3.02648
3.02919
3.0319
3.03461
3.03731
3.04002
3.04272
3.04541
3.04809
3.05075
3.05338
3.05598
3.05853
3.06102
3.06343
3.06575
3.06796
3.07003
3.07195
3.07367
3.07518
3.07646
3.0775
3.0783
3.07892
3.07941
3.07989
3.08052
3.08146
3.08283
3.08468
3.08689
3.08916
3.09093
3.09154
3.09031
3.0868
3.08103
3.07354
3.06503
3.05584
3.04593
3.0366
3.03259
3.06689
1
1
1
1
1
1
1
1
1
1
1
1
1
1
1
1
1
1
1
1.97605
2.76412
2.77725
2.78867
2.79928
2.80908
2.81806
2.82627
2.83374
2.8405
2.84663
2.8522
2.8573
2.86202
2.86645
2.87069
2.8748
2.87885
2.8829
2.88695
2.89103
2.89514
2.89927
2.90339
2.90748
2.91152
2.91552
2.91972
2.92406
2.92853
2.9331
2.93774
2.94241
2.94708
2.95172
2.9563
2.96078
2.96515
2.96939
2.97348
2.97741
2.98119
2.9848
2.98827
2.9916
2.9948
2.99789
3.00088
3.00378
3.00662
3.00941
3.01215
3.01486
3.01756
3.02024
3.02291
3.02559
3.02826
3.03094
3.03362
3.0363
3.03898
3.04165
3.04431
3.04695
3.04956
3.05213
3.05465
3.05711
3.05948
3.06176
3.06391
3.06593
3.06777
3.06941
3.07084
3.07203
3.07297
3.0737
3.07424
3.07469
3.07517
3.07583
3.07683
3.07829
3.08024
3.08256
3.0849
3.08673
3.08739
3.08619
3.08269
3.07685
3.06913
3.0602
3.0504
3.03971
3.02935
3.02402
3.05649
1
1
1
1
1
1
1
1
1
1
1
1
1
1
1
1
1
1
1
1.96075
2.76304
2.77622
2.78764
2.79821
2.8079
2.81675
2.82479
2.83207
2.83865
2.8446
2.85003
2.85502
2.85968
2.86411
2.8684
2.87261
2.87681
2.88102
2.88526
2.88954
2.89384
2.89814
2.90242
2.90665
2.91081
2.91493
2.91922
2.92362
2.92812
2.93268
2.93727
2.94185
2.94641
2.9509
2.9553
2.95959
2.96375
2.96776
2.97162
2.97533
2.97889
2.9823
2.98557
2.98872
2.99176
2.9947
2.99756
3.00035
3.00309
3.00578
3.00845
3.0111
3.01374
3.01637
3.019
3.02164
3.02428
3.02692
3.02958
3.03223
3.03489
3.03754
3.04018
3.0428
3.04539
3.04794
3.05044
3.05287
3.05521
3.05745
3.05956
3.06152
3.06329
3.06487
3.06622
3.06733
3.06819
3.06884
3.06932
3.06974
3.0702
3.07089
3.07194
3.07348
3.07552
3.0779
3.08029
3.08215
3.0828
3.08159
3.07804
3.0721
3.06415
3.05482
3.04446
3.03305
3.02171
3.0151
3.04555
1
1
1
1
1
1
1
1
1
1
1
1
1
1
1
1
1
1
1
1.94333
2.76191
2.77519
2.78662
2.79712
2.8067
2.81538
2.82321
2.83027
2.83663
2.84239
2.84766
2.85256
2.8572
2.86166
2.86605
2.87042
2.8748
2.87923
2.8837
2.8882
2.89271
2.8972
2.90164
2.906
2.91026
2.91447
2.91882
2.92325
2.92774
2.93224
2.93674
2.9412
2.94558
2.94988
2.95407
2.95812
2.96204
2.96581
2.96943
2.9729
2.97623
2.97942
2.9825
2.98547
2.98834
2.99114
2.99387
2.99655
2.99919
3.0018
3.00439
3.00697
3.00955
3.01213
3.01472
3.01732
3.01992
3.02254
3.02517
3.0278
3.03043
3.03306
3.03568
3.03828
3.04085
3.04339
3.04587
3.04827
3.05059
3.0528
3.05487
3.05678
3.05851
3.06002
3.0613
3.06234
3.06313
3.06371
3.06414
3.06452
3.06498
3.06568
3.06679
3.06839
3.07048
3.07291
3.07532
3.07716
3.07778
3.0765
3.07287
3.06678
3.05858
3.04887
3.03799
3.02592
3.01366
3.00581
3.03411
1
1
1
1
1
1
1
1
1
1
1
1
1
1
1
1
1
1
1
1.92356
2.76064
2.77403
2.78547
2.7959
2.80533
2.8138
2.8214
2.82823
2.83437
2.83997
2.84515
2.85002
2.8547
2.85928
2.86385
2.86844
2.87307
2.87776
2.88249
2.88722
2.89194
2.8966
2.90118
2.90564
2.90996
2.9142
2.91857
2.92297
2.92738
2.93177
2.93611
2.94038
2.94455
2.94861
2.95254
2.95633
2.95998
2.96348
2.96684
2.97006
2.97316
2.97614
2.97902
2.98181
2.98453
2.98719
2.98979
2.99236
2.9949
2.99743
2.99995
3.00247
3.00499
3.00752
3.01007
3.01262
3.01519
3.01778
3.02038
3.02298
3.02559
3.0282
3.03081
3.03339
3.03595
3.03847
3.04093
3.04332
3.04561
3.04779
3.04983
3.05171
3.05339
3.05485
3.05607
3.05704
3.05777
3.05829
3.05867
3.05902
3.05948
3.0602
3.06134
3.06298
3.06513
3.06758
3.06998
3.07177
3.0723
3.07092
3.06716
3.06089
3.05245
3.04237
3.031
3.0183
3.00518
2.99612
3.02218
1
1
1
1
1
1
1
1
1
1
1
1
1
1
1
1
1
1
1
1.90118
2.75914
2.77268
2.78412
2.79443
2.80366
2.81189
2.81924
2.82583
2.8318
2.83729
2.84244
2.84738
2.85222
2.85703
2.86187
2.86676
2.87171
2.8767
2.8817
2.88667
2.89157
2.89638
2.90105
2.90555
2.90988
2.91409
2.9184
2.9227
2.92697
2.93117
2.9353
2.93932
2.94323
2.947
2.95064
2.95414
2.9575
2.96072
2.96381
2.96679
2.96966
2.97243
2.97512
2.97774
2.9803
2.98282
2.98531
2.98778
2.99023
2.99268
2.99512
2.99758
3.00004
3.00252
3.00502
3.00754
3.01007
3.01263
3.0152
3.01778
3.02037
3.02296
3.02554
3.02811
3.03066
3.03316
3.03561
3.03798
3.04026
3.04242
3.04443
3.04628
3.04792
3.04933
3.0505
3.05142
3.05209
3.05256
3.0529
3.05322
3.05367
3.05441
3.05558
3.05726
3.05943
3.06188
3.06424
3.06595
3.06637
3.06484
3.06091
3.05445
3.04573
3.03529
3.02346
3.01019
2.99624
2.98601
3.00977
1
1
1
1
1
1
1
1
1
1
1
1
1
1
1
1
1
1
1
1.87587
2.75739
2.77114
2.78256
2.79272
2.8017
2.80966
2.81675
2.82314
2.829
2.83449
2.83974
2.84488
2.84999
2.85513
2.86033
2.86559
2.87088
2.87618
2.88143
2.8866
2.89164
2.89652
2.9012
2.90568
2.90994
2.91403
2.9182
2.92232
2.92636
2.93032
2.93416
2.93789
2.94148
2.94494
2.94827
2.95146
2.95452
2.95747
2.9603
2.96303
2.96568
2.96825
2.97076
2.97323
2.97565
2.97804
2.98042
2.98278
2.98515
2.98752
2.98989
2.99229
2.9947
2.99713
2.99958
3.00206
3.00456
3.00708
3.00962
3.01218
3.01474
3.01732
3.01988
3.02244
3.02497
3.02746
3.0299
3.03226
3.03452
3.03666
3.03865
3.04047
3.04208
3.04345
3.04458
3.04544
3.04607
3.04649
3.0468
3.0471
3.04754
3.04829
3.04949
3.0512
3.05338
3.05581
3.05811
3.05971
3.05997
3.05827
3.05414
3.04745
3.03845
3.02765
3.01539
3.00156
2.98683
2.97548
2.99689
1
1
1
1
1
1
1
1
1
1
1
1
1
1
1
1
1
1
1
1.84723
2.75534
2.76937
2.78076
2.79071
2.79943
2.80712
2.81401
2.8203
2.82617
2.8318
2.83731
2.84279
2.8483
2.85387
2.85949
2.86513
2.87076
2.87631
2.88174
2.88702
2.8921
2.89695
2.90156
2.90591
2.91001
2.91387
2.91781
2.92167
2.92542
2.92906
2.93257
2.93596
2.93922
2.94234
2.94534
2.94823
2.951
2.95367
2.95626
2.95876
2.96121
2.9636
2.96594
2.96826
2.97055
2.97283
2.9751
2.97737
2.97965
2.98194
2.98426
2.98659
2.98894
2.99132
2.99373
2.99617
2.99863
3.00112
3.00363
3.00617
3.00871
3.01127
3.01382
3.01637
3.01888
3.02137
3.02379
3.02614
3.02839
3.03051
3.03249
3.03428
3.03586
3.0372
3.03828
3.0391
3.03969
3.04007
3.04035
3.04063
3.04107
3.04183
3.04305
3.04478
3.04695
3.04935
3.05156
3.05303
3.05311
3.0512
3.04684
3.03988
3.03059
3.01945
3.00676
2.99241
2.97695
2.96451
2.98355
1
1
1
1
1
1
1
1
1
1
1
1
1
1
1
1
1
1
1
1.8147
2.75299
2.76739
2.77872
2.78845
2.79691
2.8044
2.81121
2.81755
2.82364
2.82959
2.83552
2.84148
2.84749
2.85353
2.85956
2.86553
2.87139
2.87709
2.88258
2.88783
2.89281
2.89751
2.90191
2.90603
2.90986
2.91341
2.91703
2.92055
2.92395
2.92723
2.93038
2.93341
2.93631
2.93911
2.94179
2.94438
2.94688
2.9493
2.95166
2.95396
2.95622
2.95845
2.96064
2.96282
2.965
2.96717
2.96934
2.97153
2.97373
2.97595
2.97819
2.98047
2.98277
2.9851
2.98747
2.98986
2.99229
2.99475
2.99724
2.99975
3.00227
3.00481
3.00735
3.00988
3.01239
3.01486
3.01728
3.01962
3.02186
3.02397
3.02592
3.02769
3.02925
3.03055
3.0316
3.03239
3.03293
3.03329
3.03353
3.0338
3.03425
3.03502
3.03625
3.03799
3.04014
3.04248
3.04459
3.0459
3.04578
3.04362
3.039
3.03177
3.02218
3.01069
2.99759
2.98274
2.96657
2.95308
2.96974
1
1
1
1
1
1
1
1
1
1
1
1
1
1
1
1
1
1
1
1.77752
2.75043
2.76529
2.77657
2.7861
2.79439
2.80184
2.80877
2.8154
2.82191
2.82838
2.83486
2.84137
2.84787
2.85431
2.86064
2.86679
2.87272
2.87839
2.88375
2.88879
2.89351
2.8979
2.90197
2.90575
2.90923
2.91238
2.91562
2.91875
2.92176
2.92466
2.92744
2.93012
2.93269
2.93517
2.93756
2.93988
2.94214
2.94434
2.9465
2.94862
2.95072
2.95279
2.95486
2.95692
2.95898
2.96105
2.96314
2.96524
2.96737
2.96952
2.9717
2.97392
2.97617
2.97845
2.98078
2.98314
2.98553
2.98796
2.99042
2.99291
2.99542
2.99794
3.00047
3.00299
3.00549
3.00795
3.01036
3.01269
3.01492
3.01702
3.01896
3.02071
3.02224
3.02352
3.02454
3.02529
3.0258
3.02612
3.02635
3.02661
3.02705
3.02784
3.02908
3.03081
3.03294
3.03521
3.03719
3.03832
3.03797
3.03555
3.03064
3.02311
3.0132
3.00136
2.98788
2.97255
2.95569
2.94119
2.95546
1
1
1
1
1
1
1
1
1
1
1
1
1
1
1
1
1
1
1
1.73465
2.74797
2.76331
2.77456
2.78398
2.79228
2.79995
2.80727
2.81443
2.82154
2.82863
2.83568
2.84267
2.84952
2.85617
2.86257
2.86867
2.87443
2.87982
2.88484
2.88949
2.89379
2.89774
2.90138
2.90473
2.90781
2.91051
2.91334
2.91608
2.9187
2.92123
2.92367
2.92602
2.92829
2.93049
2.93263
2.93472
2.93677
2.93878
2.94077
2.94273
2.94469
2.94663
2.94858
2.95054
2.9525
2.95448
2.95648
2.95851
2.96057
2.96265
2.96478
2.96694
2.96914
2.97138
2.97366
2.97598
2.97835
2.98075
2.98319
2.98565
2.98815
2.99065
2.99317
2.99568
2.99817
3.00063
3.00303
3.00535
3.00758
3.00966
3.01159
3.01332
3.01483
3.01609
3.01708
3.0178
3.01828
3.01858
3.01879
3.01904
3.01948
3.02028
3.02152
3.02325
3.02534
3.02752
3.02935
3.03028
3.02968
3.02697
3.02176
3.01391
3.00367
2.99149
2.97763
2.96183
2.94432
2.92882
2.94073
1
1
1
1
1
1
1
1
1
1
1
1
1
1
1
1
1
1
1
1.6847
2.7463
2.76204
2.77329
2.78277
2.79134
2.79948
2.8074
2.81521
2.82294
2.83056
2.838
2.84521
2.85212
2.85868
2.86484
2.87058
2.8759
2.88079
2.88528
2.8894
2.89316
2.8966
2.89975
2.90264
2.90531
2.90756
2.91001
2.91237
2.91465
2.91686
2.91899
2.92107
2.92309
2.92506
2.92699
2.92889
2.93077
2.93262
2.93446
2.9363
2.93813
2.93997
2.94181
2.94367
2.94555
2.94744
2.94937
2.95133
2.95332
2.95534
2.95741
2.95952
2.96167
2.96387
2.96612
2.96841
2.97074
2.97312
2.97553
2.97798
2.98046
2.98296
2.98546
2.98796
2.99045
2.9929
2.9953
2.99761
2.99983
3.00191
3.00382
3.00554
3.00702
3.00825
3.00921
3.00991
3.01036
3.01064
3.01083
3.01108
3.01153
3.01233
3.01358
3.01529
3.01732
3.0194
3.02108
3.02178
3.02091
3.01789
3.01235
3.00417
2.9936
2.98107
2.96683
2.95059
2.93244
2.91599
2.92554
1
1
1
1
1
1
1
1
1
1
1
1
1
1
1
1
1
1
1
1.6259
2.74673
2.76253
2.7738
2.78349
2.7925
2.80121
2.80974
2.81807
2.82617
2.83397
2.84141
2.84844
2.855
2.86107
2.86666
2.87177
2.87642
2.88066
2.88451
2.88801
2.8912
2.89412
2.89679
2.89926
2.90154
2.90341
2.90553
2.90759
2.90959
2.91154
2.91344
2.91529
2.91712
2.91891
2.92068
2.92242
2.92416
2.92588
2.9276
2.92933
2.93105
2.93279
2.93455
2.93632
2.93812
2.93994
2.9418
2.94369
2.94562
2.94759
2.9496
2.95167
2.95378
2.95594
2.95815
2.96041
2.96272
2.96507
2.96747
2.9699
2.97237
2.97485
2.97735
2.97985
2.98232
2.98477
2.98716
2.98947
2.99168
2.99375
2.99565
2.99735
2.99881
3.00002
3.00096
3.00162
3.00205
3.00231
3.00249
3.00273
3.00318
3.00399
3.00524
3.00692
3.0089
3.01086
3.01236
3.01282
3.01165
3.00831
3.00242
2.9939
2.98298
2.97011
2.9555
2.93882
2.92005
2.90267
2.90989
1
1
1
1
1
1
1
1
1
1
1
1
1
1
1
1
1
1
1
1.5566
2.75103
2.76609
2.77712
2.78691
2.79622
2.80525
2.814
2.8224
2.83036
2.83784
2.84478
2.85117
2.857
2.86229
2.86707
2.8714
2.8753
2.87884
2.88205
2.88497
2.88765
2.89012
2.89239
2.89451
2.89648
2.89806
2.89994
2.90177
2.90357
2.90533
2.90705
2.90875
2.91042
2.91208
2.91372
2.91534
2.91697
2.91859
2.92021
2.92184
2.92347
2.92513
2.9268
2.9285
2.93022
2.93198
2.93377
2.93561
2.93748
2.9394
2.94137
2.94339
2.94547
2.94759
2.94977
2.95201
2.95429
2.95663
2.95901
2.96142
2.96388
2.96635
2.96884
2.97133
2.97381
2.97625
2.97863
2.98094
2.98313
2.98519
2.98708
2.98876
2.99021
2.99139
2.9923
2.99294
2.99335
2.99358
2.99376
2.99399
2.99445
2.99526
2.9965
2.99815
3.00005
3.00189
3.00319
3.0034
3.00192
2.99824
2.99199
2.9831
2.97183
2.95862
2.94365
2.92654
2.90716
2.88887
2.89378
1
1
1
1
1
1
1
1
1
1
1
1
1
1
1
1
1
1
1
1.47603
2.76085
2.77361
2.78361
2.7929
2.80189
2.8106
2.81892
2.82675
2.834
2.84065
2.84668
2.85212
2.85701
2.8614
2.86535
2.86891
2.87214
2.87508
2.87778
2.88026
2.88255
2.88467
2.88666
2.88852
2.89027
2.89166
2.89338
2.89506
2.89671
2.89834
2.89995
2.90153
2.90309
2.90464
2.90618
2.90771
2.90924
2.91077
2.91231
2.91386
2.91542
2.917
2.9186
2.92023
2.92189
2.92359
2.92533
2.92711
2.92893
2.93081
2.93273
2.93472
2.93675
2.93885
2.941
2.94321
2.94548
2.94779
2.95015
2.95256
2.955
2.95747
2.95995
2.96243
2.9649
2.96734
2.96972
2.97201
2.9742
2.97625
2.97812
2.97978
2.98121
2.98237
2.98325
2.98387
2.98425
2.98447
2.98463
2.98487
2.98533
2.98614
2.98736
2.98897
2.99079
2.99248
2.99358
2.99351
2.99171
2.98766
2.98104
2.97178
2.96016
2.9466
2.93127
2.91374
2.89377
2.8746
2.87722
1
1
1
1
1
1
1
1
1
1
1
1
1
1
1
1
1
1
1
1.38575
2.77584
2.7841
2.79177
2.79959
2.80745
2.81513
2.82242
2.82918
2.83535
2.84091
2.84589
2.85036
2.85437
2.85799
2.86128
2.86428
2.86704
2.86958
2.87194
2.87413
2.87617
2.87809
2.87988
2.88157
2.88317
2.88443
2.88605
2.88764
2.8892
2.89073
2.89225
2.89374
2.89522
2.89669
2.89815
2.8996
2.90105
2.90251
2.90397
2.90545
2.90694
2.90845
2.90999
2.91156
2.91316
2.9148
2.91649
2.91822
2.92
2.92183
2.92372
2.92566
2.92767
2.92973
2.93186
2.93404
2.93629
2.93859
2.94094
2.94333
2.94576
2.94822
2.95069
2.95317
2.95563
2.95806
2.96043
2.96272
2.9649
2.96693
2.96878
2.97043
2.97183
2.97297
2.97382
2.97441
2.97478
2.97498
2.97513
2.97536
2.97582
2.97662
2.97783
2.97939
2.98111
2.98264
2.98352
2.98317
2.98102
2.9766
2.96959
2.95996
2.94797
2.93406
2.91838
2.90043
2.87988
2.85984
2.86021
1
1
1
1
1
1
1
1
1
1
1
1
1
1
1
1
1
1
1
1.29073
2.79196
2.794
2.79834
2.80405
2.81034
2.81667
2.82271
2.8283
2.83337
2.83794
2.84207
2.84583
2.84925
2.85241
2.85532
2.85803
2.86054
2.86288
2.86505
2.86708
2.86898
2.87075
2.87242
2.87398
2.87547
2.87663
2.87818
2.8797
2.88119
2.88266
2.8841
2.88553
2.88693
2.88833
2.88971
2.89109
2.89248
2.89386
2.89526
2.89667
2.89809
2.89954
2.90102
2.90253
2.90407
2.90566
2.90729
2.90897
2.91071
2.9125
2.91435
2.91626
2.91823
2.92027
2.92237
2.92453
2.92675
2.92903
2.93137
2.93375
2.93617
2.93862
2.94108
2.94355
2.946
2.94842
2.95079
2.95306
2.95523
2.95724
2.95908
2.9607
2.96208
2.96319
2.96402
2.96458
2.96492
2.96511
2.96525
2.96547
2.96593
2.96673
2.96791
2.9694
2.97101
2.97238
2.97301
2.97236
2.96986
2.96506
2.95765
2.94762
2.93527
2.92101
2.90498
2.88661
2.86549
2.84461
2.84276
1
1
1
1
1
1
1
1
1
1
1
1
1
1
1
1
1
1
1
1.19871
2.80269
2.79888
2.80014
2.804
2.80892
2.81408
2.8191
2.82381
2.82815
2.83215
2.83586
2.83931
2.84253
2.84554
2.84833
2.85093
2.85334
2.85558
2.85765
2.85957
2.86136
2.86302
2.86457
2.86603
2.8674
2.86848
2.86997
2.87142
2.87285
2.87425
2.87562
2.87697
2.87831
2.87963
2.88095
2.88226
2.88357
2.88489
2.88621
2.88755
2.88891
2.8903
2.89171
2.89316
2.89465
2.89618
2.89777
2.8994
2.90109
2.90284
2.90465
2.90652
2.90846
2.91047
2.91254
2.91468
2.91688
2.91915
2.92147
2.92383
2.92624
2.92868
2.93114
2.9336
2.93604
2.93845
2.9408
2.94306
2.94521
2.94721
2.94903
2.95062
2.95197
2.95305
2.95385
2.95439
2.9547
2.95487
2.955
2.95522
2.95567
2.95645
2.95759
2.95902
2.96051
2.96168
2.96207
2.9611
2.95824
2.95303
2.94521
2.93479
2.92207
2.90746
2.89108
2.87229
2.85061
2.82891
2.82486
1
1
1
1
1
1
1
1
1
1
1
1
1
1
1
1
1
1
1
1.11712
2.80266
2.79636
2.79589
2.79876
2.803
2.80763
2.81223
2.81664
2.82085
2.82484
2.82859
2.8321
2.83536
2.83836
2.84113
2.84367
2.846
2.84814
2.8501
2.8519
2.85356
2.85509
2.85652
2.85785
2.85911
2.86006
2.86148
2.86287
2.86422
2.86555
2.86685
2.86812
2.86939
2.87063
2.87188
2.87311
2.87435
2.8756
2.87685
2.87813
2.87942
2.88074
2.88209
2.88349
2.88492
2.8864
2.88793
2.88951
2.89116
2.89286
2.89463
2.89647
2.89838
2.90036
2.90241
2.90453
2.90671
2.90895
2.91126
2.91361
2.916
2.91843
2.92088
2.92332
2.92576
2.92815
2.93049
2.93274
2.93486
2.93684
2.93863
2.9402
2.94152
2.94257
2.94334
2.94384
2.94413
2.94427
2.94439
2.9446
2.94504
2.9458
2.9469
2.94824
2.94959
2.95057
2.95068
2.94939
2.94615
2.94053
2.9323
2.92148
2.90838
2.89342
2.87668
2.85749
2.83524
2.81273
2.80653
1
1
1
1
1
1
1
1
1
1
1
1
1
1
1
1
1
1
1
1.05261
2.78604
2.78491
2.78568
2.78909
2.79368
2.79874
2.80387
2.80882
2.81348
2.81777
2.8217
2.82527
2.8285
2.83143
2.83408
2.83648
2.83866
2.84063
2.84242
2.84406
2.84556
2.84694
2.84821
2.8494