/*--------------------------------*- C++ -*----------------------------------*\
| =========                 |                                                 |
| \\      /  F ield         | OpenFOAM: The Open Source CFD Toolbox           |
|  \\    /   O peration     | Version:  2.2.x                                 |
|   \\  /    A nd           | Web:      www.OpenFOAM.org                      |
|    \\/     M anipulation  |                                                 |
\*---------------------------------------------------------------------------*/
FoamFile
{
    version     2.0;
    format      ascii;
    class       volScalarField;
    location    "1.9";
    object      T;
}
// * * * * * * * * * * * * * * * * * * * * * * * * * * * * * * * * * * * * * //

dimensions      [0 0 0 1 0 0 0];

internalField   nonuniform List<scalar> 
14161
(
1
1
1
1
1
1
1
1
1
1
1
1
1
1
1
1
1
1
1
2.40858
2.95539
2.96343
2.9692
2.97408
2.97831
2.982
2.98524
2.98809
2.9906
2.99281
2.99474
2.99641
2.9978
2.99893
2.99981
3.00045
3.00089
3.00118
3.00136
3.00149
3.00163
3.00182
3.00214
3.00262
3.00334
3.00495
3.00703
3.00916
3.01147
3.01404
3.01695
3.02027
3.02407
3.02845
3.03346
3.03921
3.04581
3.05335
3.06164
3.07048
3.07964
3.08886
3.09789
3.10652
3.11457
3.12192
3.12851
3.13434
3.13945
3.14392
3.14785
3.15135
3.15452
3.15743
3.16017
3.16279
3.16534
3.16784
3.17031
3.17277
3.17524
3.17771
3.18019
3.18268
3.18519
3.18772
3.19028
3.19286
3.19547
3.19809
3.20074
3.20339
3.20604
3.20867
3.21124
3.21373
3.2161
3.21831
3.22031
3.22205
3.22349
3.22456
3.22523
3.22545
3.22523
3.22448
3.2232
3.22139
3.21908
3.21642
3.21364
3.211
3.20887
3.20782
3.20862
3.2123
3.22017
3.23396
3.28089
1
1
1
1
1
1
1
1
1
1
1
1
1
1
1
1
1
1
1
2.45339
3.00671
3.02874
3.04987
3.07282
3.09819
3.12608
3.15607
3.18703
3.21726
3.24472
3.26749
3.28421
3.29432
3.29808
3.29632
3.29023
3.28105
3.26993
3.25781
3.24543
3.23328
3.22165
3.21072
3.20056
3.19121
3.18273
3.17512
3.16819
3.16203
3.15664
3.15201
3.14809
3.14485
3.14224
3.14019
3.13865
3.1375
3.13671
3.13637
3.13654
3.13721
3.13833
3.13985
3.14168
3.14377
3.14606
3.14851
3.15109
3.15378
3.15659
3.1595
3.16252
3.16565
3.1689
3.17229
3.17583
3.17955
3.18351
3.18775
3.19236
3.19742
3.20305
3.20934
3.2164
3.2243
3.23304
3.24258
3.25272
3.2632
3.27362
3.28351
3.29238
3.29976
3.30529
3.30871
3.30993
3.30901
3.30614
3.30156
3.2956
3.28858
3.28084
3.27272
3.26459
3.25685
3.25001
3.24461
3.24118
3.24025
3.24221
3.24714
3.25457
3.26321
3.27115
3.27659
3.27911
3.28062
3.28513
3.3078
1
1
1
1
1
1
1
1
1
1
1
1
1
1
1
1
1
1
1
2.44063
2.99249
3.01013
3.02619
3.04284
3.06027
3.07829
3.09643
3.11395
3.12998
3.14368
3.1545
3.16222
3.16705
3.16948
3.17014
3.1697
3.16869
3.1675
3.16633
3.16529
3.16436
3.16352
3.16273
3.16194
3.1611
3.15899
3.15696
3.15524
3.15372
3.15236
3.15113
3.14999
3.14893
3.14795
3.14706
3.14626
3.14559
3.14506
3.14471
3.14456
3.14463
3.14493
3.1455
3.14636
3.14751
3.14894
3.15064
3.1526
3.15479
3.15719
3.15979
3.16257
3.16551
3.16861
3.17186
3.17528
3.17887
3.18268
3.18674
3.19111
3.19588
3.20114
3.20698
3.21353
3.22087
3.22906
3.23808
3.24785
3.25813
3.2686
3.27881
3.28824
3.29639
3.30278
3.30708
3.3091
3.30884
3.30645
3.30221
3.29648
3.28966
3.2822
3.27457
3.26733
3.26107
3.25646
3.25415
3.25468
3.25834
3.26495
3.27364
3.28286
3.29063
3.2952
3.29583
3.29314
3.28921
3.28757
3.2907
1
1
1
1
1
1
1
1
1
1
1
1
1
1
1
1
1
1
1
2.42835
2.98263
2.99549
3.00717
3.01872
3.03009
3.0411
3.05141
3.06066
3.0685
3.07469
3.07919
3.08216
3.0839
3.08483
3.08537
3.08591
3.08673
3.08802
3.08987
3.09227
3.09517
3.09846
3.10202
3.10572
3.10944
3.11279
3.11599
3.11942
3.12288
3.12622
3.12935
3.13219
3.1347
3.13686
3.13867
3.14016
3.14138
3.14239
3.14324
3.14401
3.14476
3.14556
3.14645
3.14746
3.14864
3.15001
3.15157
3.15334
3.15531
3.15746
3.1598
3.1623
3.16496
3.16776
3.17071
3.17379
3.17702
3.18042
3.18401
3.18782
3.19192
3.19636
3.20122
3.20658
3.21252
3.2191
3.22635
3.23424
3.24266
3.25141
3.26019
3.26865
3.27637
3.28297
3.28812
3.2916
3.29331
3.29331
3.29175
3.28887
3.28496
3.28035
3.2754
3.27057
3.26641
3.2636
3.26289
3.26496
3.27014
3.27808
3.28752
3.29641
3.30254
3.30466
3.30295
3.29861
3.29311
3.28891
3.28601
1
1
1
1
1
1
1
1
1
1
1
1
1
1
1
1
1
1
1
2.41016
2.96863
2.97603
2.9831
2.98973
2.99583
3.00131
3.0061
3.01014
3.01347
3.01618
3.01847
3.02062
3.0229
3.0256
3.02892
3.033
3.03788
3.04352
3.0498
3.05658
3.06367
3.07091
3.07811
3.08514
3.09189
3.09853
3.10477
3.11073
3.11628
3.12134
3.12586
3.1298
3.13316
3.13596
3.13824
3.14008
3.14153
3.14268
3.14362
3.14443
3.14517
3.14593
3.14674
3.14766
3.14874
3.14998
3.15142
3.15304
3.15486
3.15686
3.15903
3.16135
3.16382
3.16642
3.16914
3.17198
3.17493
3.17801
3.18123
3.1846
3.18816
3.19195
3.19601
3.20041
3.2052
3.21043
3.21614
3.22234
3.22898
3.23597
3.24313
3.25025
3.25706
3.26328
3.26864
3.27296
3.2761
3.27805
3.27887
3.27869
3.27766
3.27597
3.27383
3.27151
3.26941
3.26811
3.26836
3.27094
3.27634
3.28435
3.29369
3.30216
3.30748
3.30862
3.30633
3.30196
3.29617
3.29036
3.2845
1
1
1
1
1
1
1
1
1
1
1
1
1
1
1
1
1
1
1
2.40352
2.96553
2.97118
2.97714
2.98285
2.98827
2.99349
2.9986
3.00374
3.00901
3.01454
3.0204
3.02666
3.0333
3.04028
3.04751
3.05488
3.06227
3.06955
3.07663
3.08342
3.08987
3.09592
3.10157
3.1068
3.11163
3.1163
3.12075
3.12475
3.12832
3.13144
3.13411
3.13635
3.13819
3.13966
3.14081
3.14169
3.14238
3.14292
3.14339
3.14385
3.14434
3.14492
3.14563
3.14649
3.14754
3.14878
3.15021
3.15184
3.15365
3.15564
3.15778
3.16006
3.16247
3.16499
3.16761
3.17033
3.17313
3.17602
3.17901
3.18209
3.1853
3.18866
3.19219
3.19593
3.19993
3.20422
3.20884
3.21381
3.21911
3.22472
3.23053
3.23644
3.24228
3.24786
3.25301
3.25758
3.26146
3.2646
3.26701
3.26875
3.26989
3.2705
3.27066
3.27046
3.27016
3.27016
3.27114
3.2739
3.27908
3.28668
3.29565
3.30389
3.3091
3.31032
3.30844
3.30479
3.29928
3.29226
3.28353
1
1
1
1
1
1
1
1
1
1
1
1
1
1
1
1
1
1
1
2.41622
2.97882
2.98692
2.99504
3.00283
3.01024
3.01734
3.02423
3.03102
3.03776
3.04451
3.05128
3.05804
3.06475
3.07136
3.07782
3.08407
3.09006
3.09574
3.10108
3.10607
3.11068
3.11491
3.11878
3.12229
3.12546
3.12834
3.1311
3.13351
3.13559
3.13733
3.13877
3.13991
3.1408
3.14145
3.14191
3.14224
3.14247
3.14266
3.14286
3.14312
3.14348
3.14398
3.14463
3.14548
3.14652
3.14776
3.1492
3.15084
3.15266
3.15465
3.15678
3.15905
3.16144
3.16393
3.1665
3.16915
3.17187
3.17466
3.17751
3.18043
3.18343
3.18652
3.18972
3.19305
3.19655
3.20023
3.20414
3.20828
3.21267
3.2173
3.22212
3.22708
3.23209
3.23705
3.24182
3.24633
3.25048
3.25424
3.2576
3.26057
3.26315
3.26536
3.26715
3.26853
3.26959
3.27061
3.27214
3.27495
3.27976
3.28679
3.29528
3.30335
3.30883
3.31067
3.30971
3.30715
3.30229
3.29445
3.28243
1
1
1
1
1
1
1
1
1
1
1
1
1
1
1
1
1
1
1
2.41749
2.98074
2.99017
2.99929
3.0081
3.01654
3.02461
3.03237
3.03985
3.0471
3.05416
3.06104
3.06775
3.07427
3.08059
3.08668
3.09252
3.09808
3.10331
3.10821
3.11274
3.1169
3.12068
3.12408
3.12712
3.12982
3.13204
3.13414
3.13597
3.13753
3.13881
3.13983
3.14062
3.14119
3.14157
3.14182
3.14197
3.14206
3.14215
3.14227
3.14247
3.14279
3.14327
3.14391
3.14475
3.14579
3.14703
3.14848
3.15012
3.15194
3.15393
3.15606
3.15832
3.1607
3.16317
3.16572
3.16834
3.17102
3.17375
3.17654
3.17937
3.18226
3.1852
3.18822
3.19132
3.19452
3.19785
3.20132
3.20495
3.20875
3.21273
3.21688
3.22118
3.22557
3.23
3.23441
3.23874
3.24294
3.24699
3.25086
3.25455
3.25802
3.26124
3.2641
3.26652
3.26849
3.27018
3.27205
3.27481
3.2792
3.28561
3.29354
3.30144
3.30728
3.30996
3.31012
3.3088
3.30485
3.29663
3.28107
1
1
1
1
1
1
1
1
1
1
1
1
1
1
1
1
1
1
1
2.41538
2.97987
2.98974
2.99901
3.00799
3.01661
3.02489
3.03285
3.04052
3.04794
3.05512
3.0621
3.06887
3.07544
3.08178
3.08789
3.09373
3.09928
3.10449
3.10936
3.11385
3.11795
3.12166
3.12499
3.12794
3.13053
3.1326
3.1345
3.13615
3.13755
3.13868
3.13958
3.14024
3.14071
3.14101
3.14118
3.14127
3.14132
3.14137
3.14148
3.14167
3.14199
3.14246
3.14312
3.14397
3.14502
3.14628
3.14774
3.14939
3.15122
3.15322
3.15536
3.15762
3.16
3.16247
3.16502
3.16763
3.1703
3.17302
3.17578
3.17859
3.18143
3.18432
3.18725
3.19024
3.19329
3.19643
3.19966
3.20299
3.20646
3.21005
3.21378
3.21764
3.22161
3.22567
3.22979
3.23394
3.2381
3.24226
3.24639
3.25048
3.25446
3.25826
3.26174
3.26476
3.26726
3.26932
3.27132
3.27391
3.27784
3.28362
3.29098
3.29866
3.30483
3.30835
3.30965
3.30959
3.30671
3.2985
3.27952
1
1
1
1
1
1
1
1
1
1
1
1
1
1
1
1
1
1
1
2.4128
2.9794
2.98956
2.99894
3.008
3.01671
3.02508
3.03314
3.0409
3.04841
3.05568
3.06272
3.06956
3.07617
3.08255
3.08867
3.0945
3.10002
3.1052
3.11
3.11442
3.11844
3.12207
3.12529
3.12814
3.13064
3.13263
3.1344
3.13592
3.13719
3.13821
3.139
3.13957
3.13995
3.14017
3.14028
3.14032
3.14033
3.14035
3.14044
3.14063
3.14096
3.14144
3.14212
3.14299
3.14407
3.14535
3.14684
3.14851
3.15036
3.15238
3.15453
3.15682
3.1592
3.16168
3.16424
3.16686
3.16954
3.17227
3.17503
3.17784
3.18068
3.18355
3.18646
3.18942
3.19242
3.19547
3.19859
3.20179
3.20508
3.20846
3.21195
3.21556
3.21927
3.2231
3.22703
3.23105
3.23516
3.23936
3.24361
3.2479
3.25215
3.25625
3.26003
3.26334
3.26605
3.26823
3.27018
3.27251
3.27597
3.28113
3.28791
3.29531
3.30172
3.30598
3.30835
3.30948
3.30773
3.29985
3.27783
1
1
1
1
1
1
1
1
1
1
1
1
1
1
1
1
1
1
1
2.40866
2.97835
2.98857
2.99792
3.00691
3.01556
3.02388
3.0319
3.03964
3.04714
3.05443
3.06151
3.0684
3.07507
3.08152
3.08771
3.09362
3.0992
3.10443
3.10927
3.11372
3.11775
3.12137
3.12458
3.12741
3.12987
3.13181
3.13352
3.13498
3.13618
3.13714
3.13786
3.13837
3.1387
3.13889
3.13897
3.13899
3.139
3.13903
3.13913
3.13934
3.13969
3.14021
3.14092
3.14183
3.14294
3.14426
3.14578
3.14749
3.14936
3.1514
3.15357
3.15587
3.15827
3.16076
3.16333
3.16596
3.16865
3.17139
3.17417
3.17699
3.17984
3.18273
3.18565
3.18861
3.19161
3.19465
3.19775
3.2009
3.20411
3.20741
3.2108
3.21428
3.21787
3.22157
3.2254
3.22935
3.23343
3.23764
3.24195
3.24633
3.25069
3.2549
3.25878
3.26215
3.26487
3.26697
3.26874
3.27075
3.27372
3.27828
3.28449
3.29157
3.29812
3.30301
3.30631
3.30851
3.30788
3.30057
3.27601
1
1
1
1
1
1
1
1
1
1
1
1
1
1
1
1
1
1
1
2.40436
2.978
2.98836
2.99777
3.00681
3.01547
3.0238
3.03181
3.03955
3.04704
3.05431
3.06138
3.06825
3.07491
3.08134
3.0875
3.09337
3.09891
3.10408
3.10886
3.11323
3.11718
3.12071
3.12384
3.12657
3.12895
3.13082
3.13244
3.1338
3.13491
3.13578
3.13642
3.13686
3.13713
3.13727
3.13732
3.13733
3.13733
3.13737
3.1375
3.13774
3.13814
3.13871
3.13946
3.14042
3.14159
3.14295
3.14452
3.14626
3.14817
3.15023
3.15243
3.15474
3.15716
3.15966
3.16224
3.16489
3.16759
3.17034
3.17313
3.17597
3.17884
3.18175
3.1847
3.18768
3.1907
3.19377
3.19687
3.20003
3.20325
3.20653
3.20989
3.21334
3.21689
3.22056
3.22435
3.22828
3.23236
3.23658
3.24093
3.24534
3.24972
3.25393
3.25777
3.26105
3.26364
3.26555
3.26706
3.26869
3.27119
3.27517
3.28083
3.28756
3.29416
3.29954
3.30363
3.30677
3.3072
3.30059
3.27404
1
1
1
1
1
1
1
1
1
1
1
1
1
1
1
1
1
1
1
2.39894
2.9775
2.98798
2.99746
3.00654
3.01524
3.0236
3.03164
3.03941
3.04693
3.05423
3.06132
3.06821
3.07488
3.0813
3.08745
3.09328
3.09877
3.10386
3.10855
3.11281
3.11665
3.12006
3.12305
3.12567
3.12792
3.12967
3.13117
3.13241
3.13341
3.13416
3.1347
3.13506
3.13526
3.13535
3.13536
3.13535
3.13536
3.13542
3.13558
3.13587
3.13632
3.13694
3.13776
3.13879
3.14001
3.14143
3.14304
3.14483
3.14677
3.14887
3.15109
3.15342
3.15585
3.15837
3.16095
3.16361
3.16632
3.16908
3.17188
3.17474
3.17763
3.18056
3.18353
3.18655
3.1896
3.1927
3.19584
3.19903
3.20228
3.20559
3.20898
3.21245
3.21602
3.2197
3.22351
3.22747
3.23157
3.23582
3.24018
3.24459
3.24895
3.25309
3.25681
3.25993
3.26229
3.26394
3.26513
3.26638
3.2684
3.27185
3.27698
3.28336
3.28994
3.29568
3.3004
3.30435
3.30574
3.29991
3.27187
1
1
1
1
1
1
1
1
1
1
1
1
1
1
1
1
1
1
1
2.39232
2.97684
2.98738
2.99687
3.00595
3.01464
3.02298
3.03101
3.03876
3.04628
3.05358
3.06068
3.06758
3.07426
3.08069
3.08682
3.09263
3.09807
3.10311
3.10771
3.11188
3.11561
3.1189
3.12178
3.12427
3.12641
3.12803
3.1294
3.13052
3.1314
3.13206
3.13251
3.13279
3.13294
3.133
3.133
3.133
3.13303
3.13313
3.13335
3.13371
3.13423
3.13493
3.13583
3.13693
3.13822
3.13971
3.14137
3.1432
3.14519
3.14731
3.14955
3.1519
3.15434
3.15687
3.15946
3.16212
3.16484
3.1676
3.17042
3.17328
3.17619
3.17914
3.18213
3.18518
3.18826
3.1914
3.19458
3.19782
3.20111
3.20447
3.20791
3.21143
3.21505
3.21878
3.22264
3.22664
3.23079
3.23507
3.23945
3.24385
3.24816
3.25219
3.25576
3.25865
3.26076
3.2621
3.26295
3.26381
3.26539
3.26834
3.27298
3.279
3.28549
3.29148
3.2967
3.30131
3.30356
3.29853
3.26944
1
1
1
1
1
1
1
1
1
1
1
1
1
1
1
1
1
1
1
2.38492
2.9765
2.98716
2.99676
3.00592
3.01468
3.02308
3.03116
3.03896
3.04651
3.05384
3.06096
3.06785
3.07451
3.08089
3.08695
3.09265
3.09796
3.10284
3.10727
3.11124
3.11477
3.11786
3.12054
3.12284
3.1248
3.12625
3.12746
3.12842
3.12915
3.12967
3.13002
3.13021
3.13029
3.13031
3.1303
3.13031
3.13037
3.13053
3.13082
3.13125
3.13186
3.13266
3.13364
3.13482
3.1362
3.13775
3.13948
3.14136
3.14338
3.14554
3.1478
3.15017
3.15262
3.15515
3.15775
3.16041
3.16313
3.1659
3.16872
3.17159
3.17451
3.17747
3.18049
3.18355
3.18666
3.18983
3.19306
3.19634
3.19968
3.2031
3.20659
3.21018
3.21386
3.21766
3.22159
3.22566
3.22986
3.23419
3.23858
3.24296
3.2472
3.25111
3.2545
3.25716
3.25898
3.26001
3.26051
3.261
3.26216
3.26465
3.26884
3.2745
3.28086
3.287
3.2926
3.29774
3.30073
3.29647
3.26671
1
1
1
1
1
1
1
1
1
1
1
1
1
1
1
1
1
1
1
2.37586
2.9758
2.98652
2.99614
3.00533
3.01412
3.02254
3.03064
3.03847
3.04607
3.05344
3.0606
3.06752
3.07418
3.08054
3.08656
3.09218
3.09737
3.1021
3.10636
3.11015
3.11348
3.11636
3.11884
3.12095
3.12272
3.12399
3.12502
3.12582
3.12641
3.1268
3.12705
3.12717
3.12721
3.12721
3.12721
3.12726
3.12738
3.12762
3.128
3.12853
3.12924
3.13014
3.13123
3.1325
3.13396
3.13559
3.13737
3.13931
3.14137
3.14356
3.14584
3.14822
3.15068
3.15322
3.15582
3.15848
3.16119
3.16396
3.16678
3.16965
3.17258
3.17555
3.17858
3.18166
3.1848
3.188
3.19126
3.19458
3.19797
3.20144
3.205
3.20865
3.2124
3.21628
3.22028
3.22442
3.22868
3.23305
3.23746
3.24182
3.24598
3.24977
3.25296
3.25538
3.25691
3.25763
3.2578
3.25794
3.25872
3.26079
3.26456
3.26988
3.27607
3.28228
3.28814
3.29368
3.29729
3.29377
3.2636
1
1
1
1
1
1
1
1
1
1
1
1
1
1
1
1
1
1
1
2.3655
2.97521
2.98602
2.99572
3.00497
3.01382
3.02229
3.03045
3.03834
3.04598
3.0534
3.06059
3.06752
3.07415
3.08045
3.08636
3.09183
3.09683
3.10135
3.10537
3.1089
3.11196
3.11459
3.11682
3.11869
3.12026
3.12131
3.12215
3.12278
3.12322
3.12349
3.12364
3.12371
3.12372
3.12373
3.12376
3.12387
3.12407
3.12441
3.12489
3.12555
3.12638
3.12739
3.12859
3.12996
3.1315
3.13321
3.13506
3.13704
3.13914
3.14135
3.14366
3.14605
3.14851
3.15105
3.15365
3.1563
3.15901
3.16178
3.1646
3.16747
3.1704
3.17338
3.17642
3.17951
3.18267
3.18589
3.18918
3.19254
3.19598
3.19949
3.20311
3.20682
3.21064
3.21458
3.21866
3.22287
3.22719
3.2316
3.23603
3.24036
3.24445
3.2481
3.25111
3.25328
3.25454
3.25496
3.25482
3.25463
3.25506
3.25676
3.26013
3.26512
3.27112
3.27733
3.28335
3.28917
3.29329
3.29046
3.26008
1
1
1
1
1
1
1
1
1
1
1
1
1
1
1
1
1
1
1
2.35332
2.97438
2.98524
2.99497
3.00424
3.01311
3.0216
3.02979
3.03771
3.04539
3.05284
3.06005
3.06697
3.07357
3.07978
3.08557
3.09087
3.09567
3.09995
3.10371
3.10698
3.10977
3.11214
3.11412
3.11576
3.11712
3.11798
3.11864
3.11911
3.11943
3.11962
3.11971
3.11975
3.11978
3.11983
3.11994
3.12014
3.12046
3.12092
3.12154
3.12232
3.12329
3.12443
3.12574
3.12722
3.12885
3.13063
3.13254
3.13456
3.1367
3.13893
3.14125
3.14365
3.14611
3.14864
3.15124
3.15388
3.15659
3.15935
3.16216
3.16503
3.16796
3.17094
3.17399
3.17709
3.18027
3.18351
3.18682
3.19021
3.19368
3.19725
3.20091
3.20468
3.20856
3.21257
3.21672
3.22099
3.22537
3.22982
3.23425
3.23856
3.24257
3.24609
3.24891
3.25086
3.25185
3.25198
3.25155
3.25106
3.25117
3.25253
3.25556
3.26023
3.26602
3.27216
3.27825
3.28426
3.28878
3.28656
3.2561
1
1
1
1
1
1
1
1
1
1
1
1
1
1
1
1
1
1
1
2.33957
2.97369
2.98467
2.9945
3.00386
3.01279
3.02134
3.02958
3.03755
3.04527
3.05273
3.05991
3.06677
3.07325
3.07929
3.08484
3.08987
3.09436
3.09831
3.10172
3.10464
3.1071
3.10916
3.11085
3.11225
3.11339
3.11404
3.11454
3.11488
3.1151
3.11522
3.1153
3.11535
3.11543
3.11556
3.11578
3.1161
3.11656
3.11717
3.11795
3.11888
3.11999
3.12126
3.12269
3.12427
3.12599
3.12783
3.1298
3.13187
3.13403
3.13628
3.13861
3.14101
3.14347
3.14599
3.14857
3.15121
3.15391
3.15666
3.15947
3.16233
3.16525
3.16824
3.17129
3.1744
3.17759
3.18085
3.18418
3.1876
3.1911
3.1947
3.19841
3.20223
3.20617
3.21024
3.21444
3.21877
3.2232
3.22768
3.23212
3.2364
3.24034
3.24373
3.24637
3.24809
3.24883
3.24869
3.24799
3.24723
3.24706
3.24811
3.25081
3.25518
3.26074
3.26678
3.27286
3.27896
3.28378
3.2821
3.25164
1
1
1
1
1
1
1
1
1
1
1
1
1
1
1
1
1
1
1
2.32369
2.97285
2.98396
2.99389
3.00334
3.01234
3.02097
3.02928
3.03731
3.04506
3.05253
3.05967
3.06642
3.07273
3.07854
3.0838
3.08848
3.0926
3.09615
3.09917
3.1017
3.1038
3.10553
3.10693
3.10808
3.10901
3.10948
3.10984
3.11008
3.11024
3.11035
3.11045
3.11056
3.11073
3.11098
3.11134
3.11182
3.11245
3.11323
3.11416
3.11526
3.11651
3.11791
3.11946
3.12113
3.12293
3.12484
3.12685
3.12895
3.13113
3.13339
3.13572
3.13812
3.14057
3.14308
3.14565
3.14828
3.15096
3.1537
3.1565
3.15936
3.16228
3.16526
3.16832
3.17144
3.17463
3.1779
3.18126
3.1847
3.18823
3.19186
3.19561
3.19947
3.20346
3.20759
3.21184
3.21622
3.2207
3.2252
3.22964
3.23388
3.23774
3.241
3.24347
3.24497
3.24547
3.24509
3.24414
3.24313
3.24271
3.24348
3.24589
3.24997
3.25529
3.26117
3.26719
3.27329
3.27831
3.27711
3.24669
1
1
1
1
1
1
1
1
1
1
1
1
1
1
1
1
1
1
1
2.30551
2.97195
2.98324
2.99329
3.00283
3.01192
3.02061
3.02898
3.03704
3.04479
3.0522
3.05922
3.06579
3.07183
3.07731
3.08218
3.08644
3.09011
3.09321
3.0958
3.09793
3.09967
3.10108
3.10222
3.10315
3.10391
3.10425
3.10452
3.10472
3.10488
3.10503
3.10521
3.10544
3.10575
3.10616
3.10669
3.10736
3.10817
3.10913
3.11024
3.11149
3.11288
3.11441
3.11606
3.11782
3.11968
3.12164
3.12368
3.12581
3.128
3.13026
3.13259
3.13497
3.13741
3.13991
3.14246
3.14507
3.14774
3.15047
3.15326
3.15611
3.15902
3.16201
3.16506
3.16819
3.17139
3.17468
3.17804
3.18151
3.18506
3.18873
3.19251
3.19641
3.20045
3.20462
3.20892
3.21334
3.21785
3.22237
3.22681
3.23101
3.23478
3.23792
3.24021
3.24151
3.24179
3.24117
3.23999
3.23876
3.2381
3.23864
3.24078
3.24458
3.24965
3.25534
3.26123
3.26727
3.27241
3.2716
3.24122
1
1
1
1
1
1
1
1
1
1
1
1
1
1
1
1
1
1
1
2.28482
2.97104
2.98259
2.99281
3.00248
3.01165
3.0204
3.0288
3.03684
3.04453
3.0518
3.05859
3.06484
3.07049
3.07551
3.07989
3.08363
3.08679
3.0894
3.09154
3.09327
3.09467
3.09579
3.09671
3.09747
3.09812
3.09838
3.09863
3.09886
3.09909
3.09935
3.09967
3.10007
3.10056
3.10117
3.10191
3.10278
3.10379
3.10493
3.1062
3.10761
3.10913
3.11076
3.11249
3.11432
3.11624
3.11823
3.1203
3.12243
3.12462
3.12688
3.12919
3.13155
3.13398
3.13646
3.13899
3.14158
3.14424
3.14695
3.14973
3.15257
3.15548
3.15846
3.16152
3.16465
3.16786
3.17116
3.17454
3.17802
3.18161
3.1853
3.18911
3.19305
3.19712
3.20133
3.20568
3.21014
3.21467
3.21921
3.22363
3.22778
3.23147
3.23447
3.2366
3.2377
3.23776
3.23693
3.23554
3.23411
3.23325
3.23356
3.23545
3.23899
3.24381
3.24928
3.25498
3.26089
3.26607
3.26559
3.23524
1
1
1
1
1
1
1
1
1
1
1
1
1
1
1
1
1
1
1
2.26123
2.97017
2.98206
2.9925
3.00229
3.01154
3.02032
3.02869
3.03664
3.04414
3.05114
3.05757
3.06336
3.06848
3.07292
3.0767
3.07987
3.08247
3.08459
3.08629
3.08766
3.08877
3.08968
3.09045
3.09112
3.09172
3.09199
3.09231
3.09265
3.09302
3.09345
3.09397
3.09457
3.09529
3.09612
3.09707
3.09815
3.09935
3.10066
3.10209
3.10362
3.10525
3.10697
3.10877
3.11065
3.1126
3.11461
3.11668
3.11881
3.12099
3.12323
3.12552
3.12786
3.13026
3.13272
3.13523
3.13781
3.14044
3.14314
3.14591
3.14874
3.15165
3.15463
3.15768
3.16082
3.16404
3.16735
3.17075
3.17425
3.17785
3.18157
3.18541
3.18939
3.19349
3.19774
3.20212
3.20661
3.21117
3.2157
3.2201
3.2242
3.2278
3.23068
3.23264
3.23355
3.23341
3.23237
3.23078
3.22917
3.22812
3.22823
3.2299
3.23319
3.23775
3.24297
3.24844
3.25416
3.25932
3.25909
3.22874
1
1
1
1
1
1
1
1
1
1
1
1
1
1
1
1
1
1
1
2.23431
2.96941
2.98175
2.99242
3.00233
3.0116
3.02032
3.02855
3.03627
3.04343
3.04998
3.05586
3.06103
3.06549
3.06926
3.07239
3.07495
3.07702
3.07869
3.08004
3.08114
3.08206
3.08286
3.08358
3.08425
3.0849
3.08526
3.08574
3.08625
3.08684
3.08749
3.08824
3.08908
3.09003
3.09109
3.09226
3.09353
3.0949
3.09636
3.09791
3.09955
3.10126
3.10304
3.10488
3.10678
3.10874
3.11075
3.11282
3.11493
3.11709
3.1193
3.12157
3.12389
3.12626
3.12869
3.13118
3.13373
3.13635
3.13903
3.14179
3.14461
3.14751
3.15049
3.15355
3.15669
3.15992
3.16324
3.16666
3.17018
3.1738
3.17755
3.18142
3.18542
3.18956
3.19384
3.19826
3.20277
3.20734
3.21187
3.21625
3.22029
3.22379
3.22654
3.22834
3.22906
3.22872
3.22748
3.22572
3.22393
3.22272
3.22265
3.22411
3.22716
3.23146
3.23641
3.24161
3.24709
3.25216
3.25213
3.22173
1
1
1
1
1
1
1
1
1
1
1
1
1
1
1
1
1
1
1
2.20344
2.96886
2.98174
2.99262
3.00256
3.01173
3.02024
3.02815
3.03543
3.04204
3.04793
3.05309
3.0575
3.06121
3.06427
3.06677
3.06879
3.07043
3.07177
3.07289
3.07386
3.07473
3.07554
3.07632
3.0771
3.07789
3.07842
3.07913
3.07989
3.08072
3.08163
3.08263
3.08372
3.08489
3.08616
3.08751
3.08894
3.09045
3.09203
3.09367
3.09538
3.09713
3.09894
3.1008
3.10271
3.10466
3.10665
3.10869
3.11078
3.11291
3.11509
3.11733
3.11961
3.12196
3.12436
3.12683
3.12936
3.13195
3.13462
3.13736
3.14018
3.14308
3.14605
3.14911
3.15226
3.1555
3.15884
3.16227
3.16581
3.16946
3.17323
3.17712
3.18116
3.18533
3.18964
3.19408
3.19862
3.20319
3.20772
3.21206
3.21603
3.21944
3.22206
3.22369
3.22423
3.22369
3.22227
3.22034
3.2184
3.21704
3.21681
3.21807
3.22088
3.22492
3.22958
3.23447
3.23967
3.2446
3.24471
3.21423
1
1
1
1
1
1
1
1
1
1
1
1
1
1
1
1
1
1
1
2.16768
2.96867
2.98208
2.99304
3.00282
3.01166
3.01972
3.02704
3.03362
3.03945
3.04451
3.04881
3.05242
3.05539
3.05783
3.05982
3.06146
3.06284
3.06404
3.06512
3.06612
3.06709
3.06805
3.06902
3.06999
3.07098
3.07175
3.07273
3.07376
3.07485
3.07602
3.07725
3.07855
3.07992
3.08136
3.08285
3.0844
3.086
3.08765
3.08934
3.09107
3.09285
3.09466
3.09651
3.09839
3.10032
3.10228
3.10429
3.10634
3.10843
3.11058
3.11278
3.11503
3.11735
3.11972
3.12216
3.12467
3.12725
3.1299
3.13263
3.13544
3.13834
3.14131
3.14438
3.14753
3.15078
3.15413
3.15758
3.16114
3.16481
3.16861
3.17253
3.17659
3.18079
3.18513
3.1896
3.19415
3.19873
3.20324
3.20754
3.21145
3.21475
3.21723
3.2187
3.21905
3.21833
3.21674
3.21465
3.21257
3.21107
3.21069
3.21177
3.21436
3.21812
3.22247
3.22703
3.23191
3.23665
3.23685
3.20623
1
1
1
1
1
1
1
1
1
1
1
1
1
1
1
1
1
1
1
2.12561
2.969
2.98276
2.9935
3.00277
3.01094
3.01821
3.02465
3.03029
3.03516
3.0393
3.04278
3.04566
3.04806
3.05007
3.05178
3.05329
3.05465
3.05593
3.05716
3.05837
3.05958
3.06079
3.06201
3.06323
3.06446
3.06548
3.06672
3.06801
3.06934
3.07072
3.07214
3.07361
3.07511
3.07666
3.07824
3.07985
3.0815
3.08317
3.08487
3.0866
3.08836
3.09014
3.09196
3.09381
3.0957
3.09762
3.09959
3.1016
3.10365
3.10576
3.10792
3.11014
3.11242
3.11477
3.11719
3.11968
3.12224
3.12488
3.1276
3.1304
3.13329
3.13627
3.13934
3.1425
3.14576
3.14913
3.15259
3.15617
3.15987
3.16369
3.16764
3.17173
3.17596
3.18032
3.18481
3.18937
3.19395
3.19844
3.2027
3.20653
3.20973
3.21206
3.21336
3.21354
3.21264
3.21088
3.20864
3.20643
3.20481
3.20428
3.20519
3.20756
3.21105
3.21507
3.21927
3.2238
3.22831
3.22855
3.19775
1
1
1
1
1
1
1
1
1
1
1
1
1
1
1
1
1
1
1
2.0749
2.9699
2.98349
2.9935
3.00178
3.00886
3.01501
3.02036
3.02497
3.02891
3.03225
3.0351
3.03753
3.03966
3.04155
3.04329
3.04493
3.04651
3.04806
3.04959
3.05111
3.05262
3.05413
3.05562
3.05709
3.05853
3.05976
3.06122
3.0627
3.0642
3.06572
3.06726
3.06882
3.0704
3.07199
3.0736
3.07522
3.07687
3.07852
3.0802
3.0819
3.08362
3.08536
3.08714
3.08894
3.09078
3.09266
3.09458
3.09654
3.09856
3.10063
3.10275
3.10494
3.10719
3.10951
3.11191
3.11437
3.11692
3.11955
3.12226
3.12506
3.12795
3.13093
3.134
3.13717
3.14045
3.14382
3.14731
3.15091
3.15463
3.15848
3.16246
3.16657
3.17083
3.17522
3.17972
3.18429
3.18886
3.19333
3.19753
3.20128
3.20437
3.20656
3.20769
3.20769
3.20661
3.20469
3.20231
3.19998
3.19824
3.19759
3.19833
3.20048
3.20369
3.20738
3.21119
3.21534
3.21959
3.21983
3.1888
1
1
1
1
1
1
1
1
1
1
1
1
1
1
1
1
1
1
1
2.01187
2.97114
2.98358
2.99212
2.99889
3.00457
3.00947
3.01375
3.01751
3.0208
3.02372
3.02633
3.02872
3.03095
3.03307
3.03511
3.03711
3.03907
3.04099
3.04288
3.04473
3.04653
3.04828
3.04998
3.05163
3.05322
3.05458
3.05617
3.05775
3.05933
3.06091
3.06249
3.06407
3.06566
3.06724
3.06883
3.07043
3.07203
3.07365
3.07528
3.07693
3.07859
3.08029
3.08201
3.08376
3.08555
3.08738
3.08926
3.09118
3.09315
3.09518
3.09728
3.09943
3.10166
3.10395
3.10632
3.10877
3.1113
3.11392
3.11662
3.11942
3.12231
3.12529
3.12837
3.13155
3.13484
3.13823
3.14174
3.14536
3.1491
3.15297
3.15698
3.16112
3.1654
3.16981
3.17433
3.17891
3.18347
3.1879
3.19205
3.19571
3.19867
3.20072
3.20168
3.2015
3.20025
3.19817
3.19566
3.19321
3.19137
3.1906
3.19118
3.19312
3.19604
3.19938
3.20279
3.20653
3.21049
3.21068
3.17939
1
1
1
1
1
1
1
1
1
1
1
1
1
1
1
1
1
1
1
1.93146
2.97216
2.9821
2.98847
2.99347
2.99779
3.0017
3.00532
3.00869
3.01183
3.0148
3.01763
3.02036
3.02299
3.02556
3.02805
3.03047
3.03282
3.03508
3.03726
3.03934
3.04133
3.04322
3.04502
3.04673
3.04836
3.04975
3.05137
3.05297
3.05455
3.05612
3.05767
3.05922
3.06076
3.0623
3.06384
3.06539
3.06693
3.06849
3.07007
3.07166
3.07327
3.07491
3.07658
3.07828
3.08002
3.08181
3.08364
3.08552
3.08745
3.08945
3.09151
3.09363
3.09583
3.0981
3.10045
3.10289
3.1054
3.10801
3.11071
3.1135
3.11639
3.11937
3.12246
3.12565
3.12895
3.13236
3.13588
3.13953
3.14329
3.14719
3.15122
3.15539
3.15969
3.16412
3.16864
3.17322
3.17777
3.18216
3.18625
3.18981
3.19265
3.19454
3.19534
3.19498
3.19355
3.19132
3.18868
3.18613
3.18419
3.1833
3.18374
3.18546
3.18809
3.19107
3.19406
3.19737
3.20102
3.20113
3.16954
1
1
1
1
1
1
1
1
1
1
1
1
1
1
1
1
1
1
1
1.82792
2.97207
2.97825
2.98224
2.98575
2.98924
2.99279
2.99637
2.99992
3.00342
3.00685
3.0102
3.01345
3.01659
3.01961
3.0225
3.02524
3.02784
3.03028
3.03258
3.03474
3.03676
3.03865
3.04042
3.04209
3.04367
3.04501
3.04658
3.04813
3.04966
3.05117
3.05267
3.05415
3.05564
3.05711
3.05859
3.06007
3.06156
3.06306
3.06458
3.06611
3.06767
3.06925
3.07087
3.07253
3.07422
3.07596
3.07775
3.07959
3.08149
3.08345
3.08547
3.08757
3.08974
3.09199
3.09432
3.09674
3.09924
3.10184
3.10453
3.10731
3.1102
3.11319
3.11628
3.11948
3.12279
3.12621
3.12976
3.13342
3.1372
3.14112
3.14518
3.14937
3.15369
3.15813
3.16267
3.16724
3.17177
3.17612
3.18013
3.1836
3.1863
3.18804
3.18866
3.18812
3.18653
3.18415
3.18139
3.17874
3.1767
3.1757
3.17598
3.17749
3.17983
3.18243
3.18499
3.18786
3.19117
3.19118
3.15926
1
1
1
1
1
1
1
1
1
1
1
1
1
1
1
1
1
1
1
1.69772
2.97037
2.97235
2.97443
2.97724
2.98069
2.98455
2.98863
2.99276
2.99687
3.00089
3.00477
3.00847
3.01196
3.01524
3.0183
3.02113
3.02375
3.02617
3.02841
3.03048
3.0324
3.03418
3.03585
3.03741
3.03888
3.04012
3.04162
3.04309
3.04455
3.04599
3.04742
3.04884
3.05026
3.05167
3.05309
3.05451
3.05594
3.05738
3.05884
3.06032
3.06183
3.06336
3.06493
3.06654
3.06819
3.06988
3.07163
3.07343
3.07529
3.07722
3.07921
3.08128
3.08342
3.08564
3.08795
3.09035
3.09284
3.09542
3.0981
3.10088
3.10376
3.10675
3.10985
3.11306
3.11638
3.11981
3.12337
3.12705
3.13085
3.13479
3.13887
3.14308
3.14742
3.15187
3.15641
3.16097
3.16547
3.16977
3.1737
3.17706
3.17963
3.1812
3.18164
3.18093
3.17917
3.17665
3.17377
3.17102
3.1689
3.16779
3.16792
3.16921
3.17125
3.17347
3.17558
3.178
3.18095
3.18084
3.14856
1
1
1
1
1
1
1
1
1
1
1
1
1
1
1
1
1
1
1
1.54425
2.96741
2.96588
2.96697
2.96988
2.97388
2.97844
2.9832
2.98797
2.99262
2.99705
3.00121
3.00506
3.0086
3.01184
3.01479
3.01748
3.01994
3.02218
3.02425
3.02615
3.02791
3.02955
3.03108
3.03251
3.03387
3.03501
3.03644
3.03784
3.03923
3.04061
3.04197
3.04333
3.04469
3.04605
3.0474
3.04877
3.05014
3.05153
3.05294
3.05436
3.05582
3.0573
3.05882
3.06038
3.06198
3.06363
3.06533
3.06709
3.06891
3.07079
3.07275
3.07478
3.0769
3.07909
3.08138
3.08375
3.08622
3.08879
3.09145
3.09422
3.0971
3.10009
3.10318
3.10639
3.10972
3.11316
3.11673
3.12043
3.12425
3.1282
3.1323
3.13652
3.14088
3.14534
3.14987
3.15442
3.15888
3.16312
3.16696
3.17021
3.17263
3.17404
3.1743
3.17341
3.17149
3.16882
3.16583
3.16299
3.16078
3.15957
3.15955
3.16062
3.16235
3.16418
3.16583
3.16778
3.17037
3.1701
3.13746
1
1
1
1
1
1
1
1
1
1
1
1
1
1
1
1
1
1
1
1.37995
2.96365
2.96024
2.96125
2.96477
2.96954
2.9748
2.98013
2.98529
2.99013
2.99459
2.99865
3.00231
3.00561
3.00858
3.01127
3.01371
3.01593
3.01797
3.01985
3.02159
3.02321
3.02471
3.02613
3.02746
3.02871
3.02977
3.03113
3.03247
3.0338
3.03512
3.03643
3.03773
3.03903
3.04033
3.04163
3.04294
3.04425
3.04559
3.04693
3.0483
3.0497
3.05113
3.05259
3.0541
3.05565
3.05724
3.0589
3.06061
3.06238
3.06422
3.06614
3.06814
3.07021
3.07237
3.07463
3.07697
3.07942
3.08196
3.08461
3.08737
3.09023
3.09321
3.0963
3.09951
3.10284
3.10629
3.10987
3.11357
3.11741
3.12137
3.12548
3.12971
3.13407
3.13854
3.14306
3.14758
3.152
3.15617
3.15992
3.16305
3.16532
3.16655
3.16664
3.16556
3.16348
3.16068
3.15758
3.15465
3.15234
3.15103
3.15085
3.1517
3.15313
3.15455
3.15573
3.15721
3.15942
3.15899
3.12596
1
1
1
1
1
1
1
1
1
1
1
1
1
1
1
1
1
1
1
1.22221
2.95774
2.95519
2.95727
2.96177
2.96722
2.9729
2.97842
2.98355
2.98819
2.99234
2.99604
2.99934
3.0023
3.00499
3.00743
3.00966
3.01171
3.01359
3.01534
3.01695
3.01845
3.01985
3.02117
3.0224
3.02356
3.02453
3.02583
3.02711
3.02839
3.02964
3.03089
3.03213
3.03337
3.03461
3.03584
3.03709
3.03834
3.03961
3.0409
3.0422
3.04354
3.04491
3.04631
3.04775
3.04924
3.05078
3.05238
3.05403
3.05575
3.05755
3.05942
3.06137
3.0634
3.06552
3.06774
3.07005
3.07246
3.07498
3.07761
3.08034
3.08319
3.08615
3.08924
3.09244
3.09576
3.09921
3.10279
3.1065
3.11034
3.11431
3.11842
3.12266
3.12703
3.13148
3.13599
3.14048
3.14484
3.14894
3.15259
3.15558
3.15769
3.15875
3.15865
3.1574
3.15515
3.15222
3.14901
3.14599
3.1436
3.14217
3.14184
3.14247
3.14358
3.14459
3.1453
3.14629
3.14812
3.1475
3.11407
1
1
1
1
1
1
1
1
1
1
1
1
1
1
1
1
1
1
1
1.09409
2.94906
2.95011
2.9535
2.95922
2.96549
2.97146
2.97684
2.9816
2.98582
2.98958
2.99295
2.99599
2.99874
3.00124