/*--------------------------------*- C++ -*----------------------------------*\
| =========                 |                                                 |
| \\      /  F ield         | OpenFOAM: The Open Source CFD Toolbox           |
|  \\    /   O peration     | Version:  2.2.x                                 |
|   \\  /    A nd           | Web:      www.OpenFOAM.org                      |
|    \\/     M anipulation  |                                                 |
\*---------------------------------------------------------------------------*/
FoamFile
{
    version     2.0;
    format      ascii;
    class       volScalarField;
    location    "0.06";
    object      p;
}
// * * * * * * * * * * * * * * * * * * * * * * * * * * * * * * * * * * * * * //

dimensions      [1 -1 -2 0 0 0 0];

internalField   nonuniform List<scalar> 
1024
(
0.1
0.1
0.1
0.1
0.1
0.1
0.1
0.1
0.1
0.1
0.1
0.1
0.1
0.1
0.1
0.1
0.1
0.1
0.1
0.1
0.1
0.1
0.1
0.1
0.1
0.1
0.1
0.1
0.1
0.1
0.1
0.1
0.1
0.1
0.1
0.1
0.1
0.1
0.1
0.1
0.1
0.1
0.1
0.1
0.1
0.1
0.1
0.1
0.1
0.1
0.1
0.1
0.1
0.1
0.1
0.1
0.1
0.1
0.1
0.1
0.1
0.1
0.1
0.1
0.1
0.1
0.1
0.1
0.1
0.1
0.1
0.1
0.1
0.1
0.1
0.1
0.1
0.1
0.1
0.1
0.1
0.1
0.1
0.1
0.1
0.1
0.1
0.1
0.1
0.1
0.1
0.1
0.1
0.1
0.1
0.1
0.1
0.1
0.1
0.1
0.1
0.1
0.1
0.1
0.1
0.1
0.1
0.1
0.1
0.1
0.1
0.1
0.1
0.1
0.1
0.1
0.1
0.1
0.1
0.1
0.1
0.1
0.1
0.1
0.1
0.1
0.1
0.1
0.1
0.1
0.1
0.1
0.1
0.1
0.1
0.1
0.1
0.1
0.1
0.1
0.1
0.1
0.1
0.1
0.1
0.1
0.1
0.1
0.1
0.1
0.1
0.1
0.1
0.1
0.1
0.1
0.1
0.1
0.1
0.1
0.1
0.1
0.1
0.1
0.1
0.1
0.1
0.1
0.1
0.1
0.1
0.1
0.1
0.1
0.1
0.1
0.1
0.1
0.1
0.1
0.1
0.1
0.1
0.1
0.1
0.1
0.1
0.1
0.1
0.1
0.1
0.1
0.1
0.1
0.1
0.1
0.1
0.1
0.1
0.1
0.1
0.1
0.1
0.1
0.1
0.1
0.1
0.1
0.1
0.1
0.1
0.1
0.1
0.1
0.1
0.1
0.1
0.1
0.1
0.1
0.1
0.1
0.1
0.1
0.1
0.1
0.1
0.1
0.1
0.1
0.1
0.1
0.1
0.1
0.1
0.1
0.1
0.1
0.1
0.1
0.1
0.1
0.1
0.1
0.1
0.1
0.1
0.1
0.1
0.1
0.1
0.1
0.1
0.1
0.1
0.1
0.1
0.1
0.1
0.1
0.1
0.1
0.1
0.1
0.1
0.1
0.1
0.1
0.1
0.1
0.1
0.1
0.0999998
0.0999994
0.0999987
0.0999973
0.0999946
0.09999
0.0999815
0.0999678
0.0999429
0.0999043
0.0998357
0.0997318
0.0995482
0.0992754
0.0988483
0.0985317
0.098205
0.097888
0.0977102
0.0973782
0.097109
0.0967665
0.0965279
0.0961792
0.0958744
0.09549
0.0952029
0.0948346
0.0945432
0.0941422
0.0937553
0.0931535
0.0928619
0.0924737
0.0922518
0.0921433
0.0917482
0.0914007
0.0911765
0.0908724
0.0906424
0.0902828
0.0901087
0.0897595
0.089524
0.089114
0.0888726
0.0885776
0.0885695
0.0881821
0.0882244
0.0879643
0.0880571
0.087806
0.0879383
0.0877287
0.0878128
0.0876923
0.0877922
0.0876971
0.0878119
0.0877719
0.0879385
0.0879566
0.0880993
0.0880678
0.0882161
0.0881396
0.0882621
0.0881649
0.0882729
0.0881798
0.0882587
0.0881769
0.0882485
0.0881618
0.0882166
0.0881421
0.0881994
0.0881307
0.0882025
0.0881362
0.0882178
0.0881721
0.0882681
0.088239
0.0883126
0.088266
0.0883376
0.0882629
0.088333
0.0882607
0.0883086
0.0882336
0.0882701
0.0882105
0.0882653
0.0882169
0.0882727
0.0882243
0.0882697
0.0882248
0.0882765
0.088246
0.0882972
0.0882615
0.0883091
0.0882689
0.088296
0.0882351
0.0882547
0.0881904
0.0882195
0.0881621
0.0882054
0.0881742
0.0882288
0.088221
0.0882617
0.0882635
0.0882947
0.0882742
0.0883234
0.0882905
0.088355
0.0883136
0.0883655
0.0882947
0.0883261
0.0882107
0.088192
0.0881004
0.0881541
0.0880658
0.0881958
0.0881508
0.0883161
0.0882811
0.0883636
0.0882128
0.0882762
0.0880326
0.0880823
0.087977
0.0882092
0.0881509
0.0884952
0.0884165
0.0885683
0.0881752
0.0881665
0.0876693
0.0878184
0.0878573
0.0897366
0.0961924
0.132966
0.30613
0.450578
0.49366
0.508771
0.512542
0.509621
0.509412
0.509878
0.51018
0.510405
0.510459
0.510317
0.510384
0.510422
0.510461
0.510355
0.510193
0.510083
0.510084
0.510037
0.510003
0.509988
0.509946
0.509981
0.510183
0.510311
0.51041
0.510434
0.51042
0.510372
0.510165
0.509917
0.509685
0.509586
0.509608
0.509656
0.509833
0.510039
0.510165
0.510211
0.510194
0.510131
0.509898
0.509556
0.50938
0.509369
0.509494
0.509734
0.509949
0.510004
0.509877
0.509629
0.509385
0.509279
0.50941
0.509935
0.510226
0.510203
0.50995
0.509267
0.508659
0.508408
0.508405
0.50906
0.509799
0.510151
0.510233
0.509601
0.508725
0.508421
0.50833
0.508949
0.510363
0.510859
0.510796
0.509775
0.50754
0.506593
0.506571
0.507216
0.510078
0.513034
0.515532
0.51648
0.516759
0.519989
0.525854
0.534186
0.545739
0.559914
0.573965
0.583296
0.590933
0.603507
0.619545
0.64041
0.668469
0.69396
0.708334
0.7255
0.690313
0.589747
0.509176
0.487599
0.482768
0.4818
0.481705
0.481786
0.481864
0.481899
0.481884
0.481719
0.481335
0.48084
0.480044
0.478907
0.477898
0.477166
0.47681
0.476618
0.476825
0.477693
0.478388
0.479685
0.482059
0.484858
0.487504
0.491488
0.496216
0.500522
0.505943
0.51172
0.517348
0.523397
0.529815
0.536228
0.542918
0.54955
0.55625
0.563123
0.570052
0.57714
0.584364
0.591616
0.598935
0.606345
0.613761
0.621308
0.628851
0.636537
0.644222
0.652067
0.659891
0.667919
0.67594
0.684188
0.692341
0.700782
0.709274
0.717915
0.726665
0.735481
0.744341
0.753275
0.762179
0.771215
0.780274
0.789461
0.798754
0.808126
0.817635
0.827187
0.836842
0.846545
0.85631
0.866125
0.875988
0.8859
0.895864
0.905723
0.915393
0.924843
0.93402
0.942848
0.951237
0.95909
0.966307
0.972802
0.978509
0.983396
0.987465
0.990757
0.993344
0.995318
0.996781
0.997837
0.998577
0.999084
0.999422
0.999642
0.999782
0.99987
0.999924
0.999956
0.999975
0.999986
0.999992
0.999996
0.999998
0.999999
0.999999
1
1
1
1
1
1
1
1
1
1
1
1
1
1
1
1
1
1
1
1
1
1
1
1
1
1
1
1
1
1
1
1
1
1
1
1
1
1
1
1
1
1
1
1
1
1
1
1
1
1
1
1
1
1
1
1
1
1
1
1
1
1
1
1
1
1
1
1
1
1
1
1
1
1
1
1
1
1
1
1
1
1
1
1
1
1
1
1
1
1
1
1
1
1
1
1
1
1
1
1
1
1
1
1
1
1
1
1
1
1
1
1
1
1
1
1
1
1
1
1
1
1
1
1
1
1
1
1
1
1
1
1
1
1
1
1
1
1
1
1
1
1
1
1
1
1
1
1
1
1
1
1
1
1
1
1
1
1
1
1
1
1
1
1
1
1
1
1
1
1
1
1
1
1
1
1
1
1
1
1
1
1
1
1
1
1
1
1
1
1
1
1
1
1
1
1
1
1
1
1
1
1
1
1
1
1
1
1
1
1
1
1
1
1
1
1
1
1
1
1
1
1
1
1
1
1
1
1
1
1
1
1
1
1
1
1
1
1
1
1
1
1
1
1
1
1
1
1
1
1
1
1
1
1
1
1
1
1
1
1
1
1
1
1
1
1
1
1
1
1
1
1
1
1
1
1
1
1
1
1
1
1
1
1
1
1
1
1
1
1
1
1
1
1
1
1
1
1
1
1
1
1
1
1
1
1
1
1
1
1
1
1
1
1
1
1
1
1
1
1
1
1
1
1
1
1
1
1
1
1
1
1
1
1
1
1
1
1
1
1
1
1
1
1
1
1
1
1
1
1
1
1
1
1
1
1
1
1
1
1
1
1
1
1
1
1
1
1
1
1
1
1
1
1
1
1
1
1
1
1
1
1
1
1
)
;

boundaryField
{
    front-back
    {
        type            empty;
    }
    inlet-outlet
    {
        type            zeroGradient;
    }
    top-down
    {
        type            empty;
    }
}


// ************************************************************************* //
