/*--------------------------------*- C++ -*----------------------------------*\
| =========                 |                                                 |
| \\      /  F ield         | OpenFOAM: The Open Source CFD Toolbox           |
|  \\    /   O peration     | Version:  2.2.x                                 |
|   \\  /    A nd           | Web:      www.OpenFOAM.org                      |
|    \\/     M anipulation  |                                                 |
\*---------------------------------------------------------------------------*/
FoamFile
{
    version     2.0;
    format      ascii;
    class       volScalarField;
    location    "0.06";
    object      rho;
}
// * * * * * * * * * * * * * * * * * * * * * * * * * * * * * * * * * * * * * //

dimensions      [1 -3 0 0 0 0 0];

internalField   nonuniform List<scalar> 
1024
(
0.125
0.125
0.125
0.125
0.125
0.125
0.125
0.125
0.125
0.125
0.125
0.125
0.125
0.125
0.125
0.125
0.125
0.125
0.125
0.125
0.125
0.125
0.125
0.125
0.125
0.125
0.125
0.125
0.125
0.125
0.125
0.125
0.125
0.125
0.125
0.125
0.125
0.125
0.125
0.125
0.125
0.125
0.125
0.125
0.125
0.125
0.125
0.125
0.125
0.125
0.125
0.125
0.125
0.125
0.125
0.125
0.125
0.125
0.125
0.125
0.125
0.125
0.125
0.125
0.125
0.125
0.125
0.125
0.125
0.125
0.125
0.125
0.125
0.125
0.125
0.125
0.125
0.125
0.125
0.125
0.125
0.125
0.125
0.125
0.125
0.125
0.125
0.125
0.125
0.125
0.125
0.125
0.125
0.125
0.125
0.125
0.125
0.125
0.125
0.125
0.125
0.125
0.125
0.125
0.125
0.125
0.125
0.125
0.125
0.125
0.125
0.125
0.125
0.125
0.125
0.125
0.125
0.125
0.125
0.125
0.125
0.125
0.125
0.125
0.125
0.125
0.125
0.125
0.125
0.125
0.125
0.125
0.125
0.125
0.125
0.125
0.125
0.125
0.125
0.125
0.125
0.125
0.125
0.125
0.125
0.125
0.125
0.125
0.125
0.125
0.125
0.125
0.125
0.125
0.125
0.125
0.125
0.125
0.125
0.125
0.125
0.125
0.125
0.125
0.125
0.125
0.125
0.125
0.125
0.125
0.125
0.125
0.125
0.125
0.125
0.125
0.125
0.125
0.125
0.125
0.125
0.125
0.125
0.125
0.125
0.125
0.125
0.125
0.125
0.125
0.125
0.125
0.125
0.125
0.125
0.125
0.125
0.125
0.125
0.125
0.125
0.125
0.125
0.125
0.125
0.125
0.125
0.125
0.125
0.125
0.125
0.125
0.125
0.125
0.125
0.125
0.125
0.125
0.125
0.125
0.125
0.125
0.125
0.125
0.125
0.125
0.125
0.125
0.125
0.125
0.125
0.125
0.125
0.125
0.125
0.125
0.125
0.125
0.125
0.125
0.125
0.125
0.125
0.125
0.125
0.125
0.125
0.125
0.125
0.125
0.125
0.125
0.125
0.125
0.125
0.125
0.125
0.125
0.125
0.125
0.125
0.125
0.125
0.125
0.125
0.125
0.125
0.125
0.125
0.125
0.125
0.125
0.125
0.125
0.124999
0.124998
0.124996
0.124993
0.124986
0.124976
0.124957
0.124929
0.124877
0.124801
0.124662
0.124463
0.124136
0.123909
0.123647
0.123432
0.123268
0.123046
0.12281
0.122586
0.122359
0.122144
0.121858
0.121623
0.121338
0.121123
0.120832
0.120601
0.12023
0.119914
0.119563
0.11939
0.119129
0.119052
0.118727
0.118492
0.118237
0.118082
0.117825
0.117625
0.117391
0.117219
0.116946
0.116719
0.116455
0.116326
0.116191
0.116057
0.115901
0.115894
0.115737
0.115747
0.115624
0.115653
0.115537
0.115599
0.11551
0.11558
0.11552
0.11561
0.115608
0.115747
0.115741
0.115841
0.115836
0.115907
0.115875
0.115926
0.115886
0.115939
0.115891
0.115943
0.115896
0.115932
0.115877
0.115911
0.11586
0.115901
0.115855
0.115896
0.115866
0.115916
0.115906
0.115967
0.11595
0.115997
0.115968
0.116002
0.115972
0.116004
0.115964
0.115988
0.11595
0.115979
0.11594
0.115966
0.115927
0.115952
0.115925
0.115956
0.115948
0.115999
0.115993
0.116018
0.115995
0.116007
0.115973
0.115987
0.115953
0.115953
0.115904
0.115912
0.1159
0.115924
0.11591
0.115938
0.115928
0.115962
0.115947
0.11599
0.115979
0.116022
0.116003
0.11604
0.116008
0.116033
0.115985
0.115984
0.115894
0.1159
0.115841
0.115877
0.115833
0.115902
0.115896
0.115989
0.115927
0.115988
0.11588
0.115876
0.11572
0.115819
0.115739
0.115922
0.115934
0.116161
0.116017
0.116125
0.11577
0.11577
0.115366
0.115802
0.116175
0.119527
0.13565
0.208636
0.254138
0.269964
0.27489
0.274346
0.274368
0.274219
0.274385
0.274463
0.274449
0.274605
0.274714
0.274796
0.274762
0.274637
0.274421
0.274235
0.274109
0.274032
0.273919
0.273816
0.273688
0.273572
0.273536
0.273565
0.273569
0.273546
0.273464
0.273297
0.273115
0.272983
0.272931
0.272964
0.273213
0.273856
0.275069
0.277306
0.281251
0.28821
0.300385
0.320876
0.353832
0.404309
0.465182
0.516157
0.555464
0.584191
0.604162
0.617429
0.625876
0.631147
0.634484
0.636667
0.638255
0.639754
0.641287
0.642429
0.643082
0.643403
0.6435
0.643573
0.643739
0.644191
0.645209
0.646146
0.6466
0.646733
0.646376
0.645985
0.645967
0.64618
0.647008
0.648188
0.64864
0.648533
0.647608
0.646265
0.64566
0.645723
0.64681
0.649576
0.651765
0.653351
0.653918
0.654557
0.657549
0.662346
0.668984
0.678246
0.688289
0.697927
0.704843
0.710604
0.719854
0.731875
0.748444
0.769563
0.789305
0.79135
0.80135
0.792973
0.709127
0.662303
0.648721
0.645769
0.645233
0.645223
0.645265
0.645298
0.645278
0.645245
0.645088
0.644778
0.644393
0.643696
0.642768
0.641956
0.641397
0.641171
0.641105
0.641417
0.642048
0.642652
0.643825
0.645786
0.647909
0.650082
0.653386
0.656937
0.660328
0.664687
0.669104
0.673482
0.678264
0.683143
0.688101
0.693228
0.698274
0.703398
0.708621
0.713794
0.719145
0.724495
0.729874
0.735293
0.74071
0.746166
0.751625
0.757114
0.762633
0.768157
0.773743
0.779308
0.784974
0.79062
0.796387
0.802068
0.807931
0.813775
0.819712
0.825685
0.831674
0.837672
0.843681
0.849656
0.855687
0.861702
0.867778
0.873889
0.880028
0.886221
0.892418
0.898651
0.904886
0.911133
0.917383
0.923636
0.929891
0.936153
0.942321
0.948346
0.95421
0.959881
0.965316
0.970462
0.975262
0.97966
0.983605
0.987062
0.990015
0.992469
0.994452
0.996007
0.997193
0.998071
0.998704
0.999148
0.999451
0.999654
0.999786
0.99987
0.999922
0.999954
0.999974
0.999985
0.999992
0.999995
0.999998
0.999999
0.999999
1
1
1
1
1
1
1
1
1
1
1
1
1
1
1
1
1
1
1
1
1
1
1
1
1
1
1
1
1
1
1
1
1
1
1
1
1
1
1
1
1
1
1
1
1
1
1
1
1
1
1
1
1
1
1
1
1
1
1
1
1
1
1
1
1
1
1
1
1
1
1
1
1
1
1
1
1
1
1
1
1
1
1
1
1
1
1
1
1
1
1
1
1
1
1
1
1
1
1
1
1
1
1
1
1
1
1
1
1
1
1
1
1
1
1
1
1
1
1
1
1
1
1
1
1
1
1
1
1
1
1
1
1
1
1
1
1
1
1
1
1
1
1
1
1
1
1
1
1
1
1
1
1
1
1
1
1
1
1
1
1
1
1
1
1
1
1
1
1
1
1
1
1
1
1
1
1
1
1
1
1
1
1
1
1
1
1
1
1
1
1
1
1
1
1
1
1
1
1
1
1
1
1
1
1
1
1
1
1
1
1
1
1
1
1
1
1
1
1
1
1
1
1
1
1
1
1
1
1
1
1
1
1
1
1
1
1
1
1
1
1
1
1
1
1
1
1
1
1
1
1
1
1
1
1
1
1
1
1
1
1
1
1
1
1
1
1
1
1
1
1
1
1
1
1
1
1
1
1
1
1
1
1
1
1
1
1
1
1
1
1
1
1
1
1
1
1
1
1
1
1
1
1
1
1
1
1
1
1
1
1
1
1
1
1
1
1
1
1
1
1
1
1
1
1
1
1
1
1
1
1
1
1
1
1
1
1
1
1
1
1
1
1
1
1
1
1
1
1
1
1
1
1
1
1
1
1
1
1
1
1
1
1
1
1
1
1
1
1
1
1
1
1
1
1
1
1
1
1
1
1
1
1
1
1
)
;

boundaryField
{
    front-back
    {
        type            empty;
    }
    inlet-outlet
    {
        type            calculated;
        value           nonuniform List<scalar> 2(1 0.125);
    }
    top-down
    {
        type            empty;
    }
}


// ************************************************************************* //
