/*--------------------------------*- C++ -*----------------------------------*\
| =========                 |                                                 |
| \\      /  F ield         | OpenFOAM: The Open Source CFD Toolbox           |
|  \\    /   O peration     | Version:  2.2.x                                 |
|   \\  /    A nd           | Web:      www.OpenFOAM.org                      |
|    \\/     M anipulation  |                                                 |
\*---------------------------------------------------------------------------*/
FoamFile
{
    version     2.0;
    format      ascii;
    class       volScalarField;
    location    "0.05";
    object      rho;
}
// * * * * * * * * * * * * * * * * * * * * * * * * * * * * * * * * * * * * * //

dimensions      [1 -3 0 0 0 0 0];

internalField   nonuniform List<scalar> 
14161
(
1
1
1
1
1
1
1
1
1
1
1
1
1
1
1
1
1
1
1
1
1
1
1
1
1
1
1
1
1
1
1
1
1
1
1
1
1
1
1
1
1
1
1
1
1
1
1
1
1
1
1
1
1
1
1
1
1
1
1
1
1
1
1
1
1
1
1
1
1
1
1
1
1
1
1
1
1
1
1
1
1
0.999999
0.999998
0.999996
0.999992
0.999984
0.99997
0.999941
0.999887
0.999785
0.999597
0.999253
0.998632
0.997532
0.995565
0.992269
0.986388
0.977053
0.961207
0.93625
0.899686
0.859246
1.95636
2.84985
3.03546
3.122
3.11083
3.09033
3.07583
3.0432
3.01416
2.9931
2.96028
2.9176
2.84123
2.74103
2.59874
2.53667
2.94708
1
1
1
1
1
1
1
1
1
1
1
1
1
1
1
1
1
1
1
1
1
1
1
1
1
1
1
1
1
1
1
1
1
1
1
1
1
1
1
1
1
1
1
1
1
1
1
1
1
1
1
1
1
1
1
1
1
1
1
1
1
1
1
1
1
1
1
1
1
1
1
1
1
1
1
1
1
1
1
1
1
1
0.999999
0.999999
0.999997
0.999994
0.999988
0.999976
0.999952
0.999902
0.999802
0.999604
0.999214
0.998455
0.996998
0.994187
0.988761
0.979394
0.961257
0.929439
0.886265
0.980296
2.17194
2.71381
2.89499
2.96832
2.97948
2.99344
2.99604
2.99247
2.98001
2.97363
2.95487
2.91415
2.83685
2.73751
2.59802
2.53359
2.95055
1
1
1
1
1
1
1
1
1
1
1
1
1
1
1
1
1
1
1
1
1
1
1
1
1
1
1
1
1
1
1
1
1
1
1
1
1
1
1
1
1
1
1
1
1
1
1
1
1
1
1
1
1
1
1
1
1
1
1
1
1
1
1
1
1
1
1
1
1
1
1
1
1
1
1
1
1
1
1
1
0.999999
0.999999
0.999997
0.999995
0.999989
0.999979
0.999959
0.999922
0.999854
0.999731
0.999513
0.999134
0.998485
0.997401
0.995644
0.992855
0.988658
0.982486
0.974555
0.961334
0.962508
1.03781
2.48066
3.16494
3.25018
3.18729
3.12942
3.0831
3.04401
3.01784
2.99866
2.98599
2.96265
2.91994
2.83833
2.73904
2.60102
2.52609
2.9525
1
1
1
1
1
1
1
1
1
1
1
1
1
1
1
1
1
1
1
1
1
1
1
1
1
1
1
1
1
1
1
1
1
1
1
1
1
1
1
1
1
1
1
1
1
1
1
1
1
1
1
1
1
1
1
1
1
1
1
1
1
1
1
1
1
1
1
1
1
1
1
1
1
1
1
1
1
1
1
1
1
1
1
0.999999
0.999998
0.999996
0.999992
0.999982
0.99996
0.999915
0.999821
0.999626
0.999227
0.99842
0.996816
0.993594
0.987228
0.974746
0.952714
0.907343
0.840741
1.11396
2.3025
2.70573
2.88685
2.93809
2.96402
2.97801
2.97202
2.96836
2.95995
2.95458
2.93985
2.90026
2.81828
2.72021
2.59099
2.51482
2.95332
1
1
1
1
1
1
1
1
1
1
1
1
1
1
1
1
1
1
1
1
1
1
1
1
1
1
1
1
1
1
1
1
1
1
1
1
1
1
1
1
1
1
1
1
1
1
1
1
1
1
1
1
1
1
1
1
1
1
1
1
1
1
1
1
1
1
1
1
1
1
1
1
1
1
1
1
1
1
1
1
0.999999
0.999999
0.999997
0.999995
0.999989
0.999979
0.999959
0.999923
0.999855
0.999732
0.999514
0.999134
0.998487
0.997412
0.995693
0.993016
0.989101
0.983369
0.975848
0.964644
0.952969
1.1188
2.70636
3.15815
3.20134
3.14518
3.09752
3.05827
3.01945
2.99192
2.96569
2.96041
2.93907
2.89229
2.80621
2.70883
2.587
2.51173
2.95697
1
1
1
1
1
1
1
1
1
1
1
1
1
1
1
1
1
1
1
1
1
1
1
1
1
1
1
1
1
1
1
1
1
1
1
1
1
1
1
1
1
1
1
1
1
1
1
1
1
1
1
1
1
1
1
1
1
1
1
1
1
1
1
1
1
1
1
1
1
1
1
1
1
1
1
1
1
1
1
1
1
1
0.999999
0.999998
0.999996
0.999993
0.999985
0.99997
0.999939
0.999877
0.999756
0.999517
0.999054
0.998159
0.996451
0.993205
0.987035
0.975766
0.953345
0.914205
0.837575
1.29092
2.41334
2.7863
2.92448
2.968
3.00003
3.00257
2.97934
2.96239
2.95009
2.94726
2.92579
2.87758
2.78926
2.69489
2.57885
2.50887
2.95853
1
1
1
1
1
1
1
1
1
1
1
1
1
1
1
1
1
1
1
1
1
1
1
1
1
1
1
1
1
1
1
1
1
1
1
1
1
1
1
1
1
1
1
1
1
1
1
1
1
1
1
1
1
1
1
1
1
1
1
1
1
1
1
1
1
1
1
1
1
1
1
1
1
1
1
1
1
1
1
1
0.999999
0.999999
0.999998
0.999995
0.999991
0.999982
0.999964
0.999931
0.999868
0.999753
0.999545
0.999175
0.998531
0.997436
0.995617
0.992686
0.988055
0.98093
0.970578
0.956117
0.921539
1.33669
2.80895
3.0707
3.09095
3.06913
3.05969
3.03791
2.99587
2.97569
2.95727
2.94441
2.91741
2.86653
2.7768
2.6831
2.57292
2.50645
2.96134
1
1
1
1
1
1
1
1
1
1
1
1
1
1
1
1
1
1
1
1
1
1
1
1
1
1
1
1
1
1
1
1
1
1
1
1
1
1
1
1
1
1
1
1
1
1
1
1
1
1
1
1
1
1
1
1
1
1
1
1
1
1
1
1
1
1
1
1
1
1
1
1
1
1
1
1
1
1
1
1
1
0.999999
0.999999
0.999997
0.999994
0.999989
0.999977
0.999956
0.999913
0.999832
0.999676
0.999383
0.998834
0.997813
0.995938
0.99252
0.98599
0.974818
0.956097
0.925772
0.842655
1.53185
2.56075
2.88243
2.96173
2.99023
3.00687
3.00238
2.97982
2.97027
2.95469
2.9344
2.90357
2.8521
2.76046
2.66771
2.56272
2.50247
2.96034
1
1
1
1
1
1
1
1
1
1
1
1
1
1
1
1
1
1
1
1
1
1
1
1
1
1
1
1
1
1
1
1
1
1
1
1
1
1
1
1
1
1
1
1
1
1
1
1
1
1
1
1
1
1
1
1
1
1
1
1
1
1
1
1
1
1
1
1
1
1
1
1
1
1
1
1
1
1
1
1
1
0.999999
0.999998
0.999996
0.999992
0.999983
0.999966
0.999935
0.999874
0.999761
0.999553
0.999175
0.9985
0.997319
0.995288
0.991872
0.986183
0.977057
0.96285
0.943254
0.884122
1.69473
2.75401
3.01537
3.04205
3.01919
3.02349
3.01716
2.99265
2.97897
2.95765
2.92837
2.89203
2.8374
2.7456
2.65353
2.55486
2.49932
2.95878
1
1
1
1
1
1
1
1
1
1
1
1
1
1
1
1
1
1
1
1
1
1
1
1
1
1
1
1
1
1
1
1
1
1
1
1
1
1
1
1
1
1
1
1
1
1
1
1
1
1
1
1
1
1
1
1
1
1
1
1
1
1
1
1
1
1
1
1
1
1
1
1
1
1
1
1
1
1
1
1
1
0.999999
0.999998
0.999997
0.999993
0.999986
0.999972
0.999945
0.999893
0.999795
0.999609
0.999262
0.998621
0.997449
0.995333
0.991565
0.984968
0.973514
0.954122
0.92473
0.853098
1.84097
2.67601
2.92715
2.99333
2.99217
2.9988
2.99519
2.97936
2.97238
2.95454
2.92081
2.87946
2.82039
2.72688
2.63549
2.54471
2.49533
2.9559
1
1
1
1
1
1
1
1
1
1
1
1
1
1
1
1
1
1
1
1
1
1
1
1
1
1
1
1
1
1
1
1
1
1
1
1
1
1
1
1
1
1
1
1
1
1
1
1
1
1
1
1
1
1
1
1
1
1
1
1
1
1
1
1
1
1
1
1
1
1
1
1
1
1
1
1
1
1
1
1
1
0.999999
0.999998
0.999996
0.999992
0.999983
0.999967
0.999934
0.999872
0.999755
0.999535
0.999132
0.998399
0.997091
0.994803
0.99085
0.984199
0.973122
0.955468
0.929848
0.88833
2.03013
2.77757
2.96286
3.01641
3.01449
3.00806
2.99898
2.98006
2.97063
2.95132
2.91355
2.8688
2.80522
2.71058
2.61873
2.53512
2.49047
2.95305
1
1
1
1
1
1
1
1
1
1
1
1
1
1
1
1
1
1
1
1
1
1
1
1
1
1
1
1
1
1
1
1
1
1
1
1
1
1
1
1
1
1
1
1
1
1
1
1
1
1
1
1
1
1
1
1
1
1
1
1
1
1
1
1
1
1
1
1
1
1
1
1
1
1
1
1
1
1
1
1
1
0.999999
0.999998
0.999996
0.999992
0.999984
0.999968
0.999937
0.999878
0.999764
0.99955
0.999151
0.998417
0.99708
0.994695
0.990445
0.983108
0.970603
0.950601
0.917618
0.91196
2.18031
2.75882
2.89569
2.97889
3.00492
3.00086
2.99246
2.96822
2.9586
2.94201
2.90286
2.85645
2.78919
2.6926
2.59999
2.52361
2.48438
2.94966
1
1
1
1
1
1
1
1
1
1
1
1
1
1
1
1
1
1
1
1
1
1
1
1
1
1
1
1
1
1
1
1
1
1
1
1
1
1
1
1
1
1
1
1
1
1
1
1
1
1
1
1
1
1
1
1
1
1
1
1
1
1
1
1
1
1
1
1
1
1
1
1
1
1
1
1
1
1
1
1
1
0.999999
0.999998
0.999996
0.999992
0.999983
0.999965
0.999931
0.999865
0.999739
0.9995
0.999056
0.998242
0.996769
0.994153
0.989563
0.981738
0.968801
0.948962
0.91016
0.997611
2.362
2.81912
2.90596
2.98867
3.01785
3.00446
2.99301
2.9608
2.94678
2.93065
2.89214
2.84528
2.77538
2.67708
2.58252
2.51171
2.47745
2.94605
1
1
1
1
1
1
1
1
1
1
1
1
1
1
1
1
1
1
1
1
1
1
1
1
1
1
1
1
1
1
1
1
1
1
1
1
1
1
1
1
1
1
1
1
1
1
1
1
1
1
1
1
1
1
1
1
1
1
1
1
1
1
1
1
1
1
1
1
1
1
1
1
1
1
1
1
1
1
1
1
1
0.999999
0.999998
0.999996
0.999992
0.999983
0.999965
0.999931
0.999864
0.999735
0.999491
0.999034
0.99819
0.996649
0.993889
0.989009
0.980562
0.966464
0.944088
0.888525
1.16405
2.44673
2.83045
2.88802
2.95862
2.99718
2.9925
2.98884
2.95504
2.93541
2.9175
2.87831
2.83059
2.75933
2.66181
2.56498
2.49847
2.46973
2.94279
1
1
1
1
1
1
1
1
1
1
1
1
1
1
1
1
1
1
1
1
1
1
1
1
1
1
1
1
1
1
1
1
1
1
1
1
1
1
1
1
1
1
1
1
1
1
1
1
1
1
1
1
1
1
1
1
1
1
1
1
1
1
1
1
1
1
1
1
1
1
1
1
1
1
1
1
1
1
1
1
1
0.999999
0.999998
0.999996
0.999991
0.999982
0.999963
0.999927
0.999855
0.999716
0.999451
0.998952
0.998026
0.996335
0.993298
0.987965
0.978723
0.963297
0.938984
0.872501
1.39321
2.54839
2.87164
2.89772
2.95505
2.99247
2.98977
2.98935
2.95201
2.92778
2.90578
2.86361
2.81535
2.74306
2.64721
2.54651
2.48519
2.46191
2.94135
1
1
1
1
1
1
1
1
1
1
1
1
1
1
1
1
1
1
1
1
1
1
1
1
1
1
1
1
1
1
1
1
1
1
1
1
1
1
1
1
1
1
1
1
1
1
1
1
1
1
1
1
1
1
1
1
1
1
1
1
1
1
1
1
1
1
1
1
1
1
1
1
1
1
1
1
1
1
1
1
1
0.999999
0.999998
0.999996
0.999991
0.999982
0.999963
0.999925
0.999851
0.999707
0.999431
0.998909
0.997936
0.996151
0.992923
0.987241
0.977233
0.960341
0.933592
0.864498
1.64337
2.59141
2.84664
2.88135
2.94635
2.98045
2.97029
2.97507
2.94231
2.91757
2.89326
2.84726
2.79912
2.72355
2.63385
2.52857
2.47245
2.45529
2.94399
1
1
1
1
1
1
1
1
1
1
1
1
1
1
1
1
1
1
1
1
1
1
1
1
1
1
1
1
1
1
1
1
1
1
1
1
1
1
1
1
1
1
1
1
1
1
1
1
1
1
1
1
1
1
1
1
1
1
1
1
1
1
1
1
1
1
1
1
1
1
1
1
1
1
1
1
1
1
1
1
1
0.999999
0.999998
0.999996
0.999991
0.999981
0.999962
0.999922
0.999844
0.999691
0.999395
0.998832
0.997775
0.995825
0.992268
0.985979
0.974864
0.956308
0.926887
0.880198
1.88313
2.65784
2.849
2.88864
2.9477
2.97908
2.95997
2.96694
2.93365
2.90649
2.87886
2.82877
2.78332
2.70211
2.62098
2.50796
2.45653
2.45009
2.94648
1
1
1
1
1
1
1
1
1
1
1
1
1
1
1
1
1
1
1
1
1
1
1
1
1
1
1
1
1
1
1
1
1
1
1
1
1
1
1
1
1
1
1
1
1
1
1
1
1
1
1
1
1
1
1
1
1
1
1
1
1
1
1
1
1
1
1
1
1
1
1
1
1
1
1
1
1
1
1
1
1
0.999999
0.999998
0.999996
0.999991
0.999981
0.999961
0.99992
0.999839
0.999679
0.999368
0.998774
0.997655
0.995585
0.991787
0.98505
0.973254
0.953884
0.920588
0.940258
2.1241
2.68331
2.80781
2.87328
2.93528
2.97604
2.9465
2.95449
2.92193
2.89399
2.86332
2.80945
2.7685
2.682
2.60654
2.48599
2.43946
2.44641
2.95281
1
1
1
1
1
1
1
1
1
1
1
1
1
1
1
1
1
1
1
1
1
1
1
1
1
1
1
1
1
1
1
1
1
1
1
1
1
1
1
1
1
1
1
1
1
1
1
1
1
1
1
1
1
1
1
1
1
1
1
1
1
1
1
1
1
1
1
1
1
1
1
1
1
1
1
1
1
1
1
1
1
0.999999
0.999998
0.999996
0.999991
0.999981
0.99996
0.999917
0.999832
0.999663
0.999331
0.998692
0.997475
0.995205
0.991019
0.983539
0.970511
0.94916
0.902014
1.07751
2.31539
2.73088
2.80241
2.8611
2.92724
2.97848
2.93377
2.94063
2.90885
2.87904
2.84744
2.78922
2.75153
2.66011
2.58955
2.46734
2.4243
2.4436
2.95602
1
1
1
1
1
1
1
1
1
1
1
1
1
1
1
1
1
1
1
1
1
1
1
1
1
1
1
1
1
1
1
1
1
1
1
1
1
1
1
1
1
1
1
1
1
1
1
1
1
1
1
1
1
1
1
1
1
1
1
1
1
1
1
1
1
1
1
1
1
1
1
1
1
1
1
1
1
1
1
1
1
0.999999
0.999998
0.999996
0.999991
0.999981
0.999959
0.999915
0.999826
0.999648
0.999298
0.998618
0.997316
0.994876
0.990384
0.982301
0.968212
0.944867
0.87934
1.31843
2.41838
2.73042
2.7788
2.83982
2.91119
2.97292
2.92278
2.92853
2.89496
2.8631
2.83131
2.76753
2.73159
2.63999
2.56964
2.45043
2.41095
2.44303
2.95968
1
1
1
1
1
1
1
1
1
1
1
1
1
1
1
1
1
1
1
1
1
1
1
1
1
1
1
1
1
1
1
1
1
1
1
1
1
1
1
1
1
1
1
1
1
1
1
1
1
1
1
1
1
1
1
1
1
1
1
1
1
1
1
1
1
1
1
1
1
1
1
1
1
1
1
1
1
1
1
1
1
0.999999
0.999998
0.999996
0.999991
0.99998
0.999958
0.999913
0.99982
0.999632
0.99926
0.99853
0.997122
0.994456
0.98951
0.980405
0.96432
0.937856
0.869079
1.56687
2.51054
2.74495
2.76662
2.82581
2.89915
2.96369
2.9127
2.91833
2.88186
2.84658
2.81258
2.74455
2.70894
2.622
2.5505
2.43329
2.39701
2.44294
2.96407
1
1
1
1
1
1
1
1
1
1
1
1
1
1
1
1
1
1
1
1
1
1
1
1
1
1
1
1
1
1
1
1
1
1
1
1
1
1
1
1
1
1
1
1
1
1
1
1
1
1
1
1
1
1
1
1
1
1
1
1
1
1
1
1
1
1
1
1
1
1
1
1
1
1
1
1
1
1
1
1
1
0.999999
0.999998
0.999996
0.999991
0.99998
0.999958
0.999911
0.999814
0.999617
0.999222
0.998443
0.996929
0.994038
0.988655
0.978683
0.961204
0.932597
0.879194
1.81922
2.56092
2.73328
2.75088
2.80877
2.88613
2.94699
2.90064
2.90773
2.86967
2.82887
2.79178
2.72234
2.6846
2.60644
2.53406
2.41844
2.38259
2.44176
2.97272
1
1
1
1
1
1
1
1
1
1
1
1
1
1
1
1
1
1
1
1
1
1
1
1
1
1
1
1
1
1
1
1
1
1
1
1
1
1
1
1
1
1
1
1
1
1
1
1
1
1
1
1
1
1
1
1
1
1
1
1
1
1
1
1
1
1
1
1
1
1
1
1
1
1
1
1
1
1
1
1
1
0.999999
0.999998
0.999996
0.999991
0.99998
0.999957
0.999909
0.999809
0.999602
0.999183
0.998348
0.996711
0.993543
0.987609
0.976585
0.95755
0.923409
0.943815
2.05037
2.6087
2.72203
2.74499
2.79663
2.87458
2.92791
2.88805
2.89668
2.85745
2.80978
2.77009
2.70273
2.66084
2.59355
2.5154
2.40304
2.36682
2.43973
2.97765
1
1
1
1
1
1
1
1
1
1
1
1
1
1
1
1
1
1
1
1
1
1
1
1
1
1
1
1
1
1
1
1
1
1
1
1
1
1
1
1
1
1
1
1
1
1
1
1
1
1
1
1
1
1
1
1
1
1
1
1
1
1
1
1
1
1
1
1
1
1
1
1
1
1
1
1
1
1
1
1
1
0.999999
0.999998
0.999996
0.999991
0.99998
0.999957
0.999908
0.999804
0.999587
0.999144
0.99825
0.996483
0.993032
0.986543
0.974533
0.953859
0.906968
1.09664
2.22311
2.62646
2.7029
2.73572
2.78821
2.86291
2.90871
2.87565
2.88408
2.84416
2.78947
2.74709
2.68104
2.64082
2.58077
2.49687
2.38646
2.35412
2.43992
2.98235
1
1
1
1
1
1
1
1
1
1
1
1
1
1
1
1
1
1
1
1
1
1
1
1
1
1
1
1
1
1
1
1
1
1
1
1
1
1
1
1
1
1
1
1
1
1
1
1
1
1
1
1
1
1
1
1
1
1
1
1
1
1
1
1
1
1
1
1
1
1
1
1
1
1
1
1
1
1
1
1
1
0.999999
0.999998
0.999996
0.999991
0.999981
0.999957
0.999907
0.999799
0.999573
0.999104
0.998149
0.996242
0.992495
0.985331
0.971956
0.948343
0.883806
1.32198
2.34309
2.63592
2.6841
2.72055
2.77723
2.85055
2.89133
2.86423
2.87089
2.83169
2.7703
2.7265
2.66262
2.62155
2.56502
2.47818
2.36883
2.33875
2.4383
2.98739
1
1
1
1
1
1
1
1
1
1
1
1
1
1
1
1
1
1
1
1
1
1
1
1
1
1
1
1
1
1
1
1
1
1
1
1
1
1
1
1
1
1
1
1
1
1
1
1
1
1
1
1
1
1
1
1
1
1
1
1
1
1
1
1
1
1
1
1
1
1
1
1
1
1
1
1
1
1
1
1
1
0.999999
0.999998
0.999996
0.999992
0.999981
0.999957
0.999906
0.999795
0.999559
0.999065
0.998046
0.995991
0.991917
0.983969
0.96895
0.942643
0.870217
1.55949
2.42362
2.63846
2.66846
2.70183
2.76433
2.83691
2.8754
2.85464
2.85793
2.81741
2.74907
2.70486
2.64255
2.60365
2.54706
2.45805
2.34974
2.32635
2.44063
2.98843
1
1
1
1
1
1
1
1
1
1
1
1
1
1
1
1
1
1
1
1
1
1
1
1
1
1
1
1
1
1
1
1
1
1
1
1
1
1
1
1
1
1
1
1
1
1
1
1
1
1
1
1
1
1
1
1
1
1
1
1
1
1
1
1
1
1
1
1
1
1
1
1
1
1
1
1
1
1
1
1
1
0.999999
0.999998
0.999996
0.999992
0.999981
0.999958
0.999905
0.999791
0.999546
0.999026
0.997943
0.995727
0.99129
0.982491
0.965939
0.937118
0.881609
1.78917
2.47996
2.63889
2.65526
2.67978
2.74975
2.82077
2.86171
2.84978
2.84553
2.80015
2.72802
2.68416
2.6236
2.58541
2.52928
2.43891
2.32853
2.3134
2.43934
2.99295
1
1
1
1
1
1
1
1
1
1
1
1
1
1
1
1
1
1
1
1
1
1
1
1
1
1
1
1
1
1
1
1
1
1
1
1
1
1
1
1
1
1
1
1
1
1
1
1
1
1
1
1
1
1
1
1
1
1
1
1
1
1
1
1
1
1
1
1
1
1
1
1
1
1
1
1
1
1
1
1
1
0.999999
0.999999
0.999997
0.999992
0.999982
0.999958
0.999905
0.999789
0.999534
0.998989
0.997839
0.995452
0.990636
0.981008
0.963134
0.93026
0.945007
1.98404
2.51812
2.63351
2.64544
2.65856
2.73137
2.80127
2.84646
2.84536
2.82778
2.78139
2.70555
2.66222
2.60455
2.56701
2.51137
2.41981
2.30635
2.30043
2.44046
2.99237
1
1
1
1
1
1
1
1
1
1
1
1
1
1
1
1
1
1
1
1
1
1
1
1
1
1
1
1
1
1
1
1
1
1
1
1
1
1
1
1
1
1
1
1
1
1
1
1
1
1
1
1
1
1
1
1
1
1
1
1
1
1
1
1
1
1
1
1
1
1
1
1
1
1
1
1
1
1
1
1
1
0.999999
0.999999
0.999997
0.999992
0.999982
0.999959
0.999906
0.999787
0.999524
0.998954
0.997736
0.995176
0.989966
0.979503
0.960114
0.917962
1.0716
2.12777
2.54076
2.61881
2.63248
2.64404
2.71104
2.78338
2.83106
2.83861
2.8135
2.76526
2.68333
2.64014
2.5865
2.55066
2.49344
2.40049
2.28543
2.28799
2.44445
2.98964
1
1
1
1
1
1
1
1
1
1
1
1
1
1
1
1
1
1
1
1
1
1
1
1
1
1
1
1
1
1
1
1
1
1
1
1
1
1
1
1
1
1
1
1
1
1
1
1
1
1
1
1
1
1
1
1
1
1
1
1
1
1
1
1
1
1
1
1
1
1
1
1
1
1
1
1
1
1
1
1
1
0.999999
0.999999
0.999997
0.999993
0.999983
0.99996
0.999907
0.999786
0.999516
0.998922
0.997636
0.994902
0.989269
0.977848
0.956323
0.90032
1.24533
2.2267
2.55094
2.6024
2.61445
2.62739
2.69042
2.76654
2.81464
2.82805
2.7966
2.74653
2.65943
2.61765
2.56788
2.53341
2.47534
2.38045
2.26583
2.27803
2.44192
2.98179
1
1
1
1
1
1
1
1
1
1
1
1
1
1
1
1
1
1
1
1
1
1
1
1
1
1
1
1
1
1
1
1
1
1
1
1
1
1
1
1
1
1
1
1
1
1
1
1
1
1
1
1
1
1
1
1
1
1
1
1
1
1
1
1
1
1
1
1
1
1
1
1
1
1
1
1
1
1
1
1
1
1
0.999999
0.999997
0.999993
0.999984
0.999961
0.999908
0.999786
0.99951
0.998893
0.997541
0.994629
0.98852
0.975968
0.952168
0.884692
1.43266
2.29705
2.55545
2.58504
2.5998
2.61084
2.66724
2.75155
2.80001
2.81632
2.77972
2.72617
2.63638
2.59727
2.54991
2.51807
2.45769
2.36218
2.24762
2.2709
2.44877
2.97266
1
1
1
1
1
1
1
1
1
1
1
1
1
1
1
1
1
1
1
1
1
1
1
1
1
1
1
1
1
1
1
1
1
1
1
1
1
1
1
1
1
1
1
1
1
1
1
1
1
1
1
1
1
1
1
1
1
1
1
1
1
1
1
1
1
1
1
1
1
1
1
1
1
1
1
1
1
1
1
1
1
1
0.999999
0.999997
0.999994
0.999984
0.999962
0.99991
0.999788
0.999507
0.998869
0.99745
0.994354
0.987733
0.974023
0.948324
0.87906
1.6159
2.34865
2.55522
2.57075
2.58546
2.59479
2.64074
2.73524
2.78791
2.80331
2.76128
2.70301
2.6123
2.57556
2.5299
2.50096
2.43909
2.34151
2.23071
2.26326
2.44961
2.96527
1
1
1
1
1
1
1
1
1
1
1
1
1
1
1
1
1
1
1
1
1
1
1
1
1
1
1
1
1
1
1
1
1
1
1
1
1
1
1
1
1
1
1
1
1
1
1
1
1
1
1
1
1
1
1
1
1
1
1
1
1
1
1
1
1
1
1
1
1
1
1
1
1
1
1
1
1
1
1
1
1
1
0.999999
0.999998
0.999994
0.999985
0.999964
0.999912
0.99979
0.999505
0.998849
0.997365
0.994084
0.986955
0.972194
0.944637
0.89419
1.78453
2.38459
2.554
2.55941
2.57158
2.57841
2.61242
2.71717
2.77779
2.78917
2.74532
2.68216
2.59148
2.55623
2.51247
2.48594
2.42318
2.31863
2.21509
2.2574
2.45475
2.95453
1
1
1
1
1
1
1
1
1
1
1
1
1
1
1
1
1
1
1
1
1
1
1
1
1
1
1
1
1
1
1
1
1
1
1
1
1
1
1
1
1
1
1
1
1
1
1
1
1
1
1
1
1
1
1
1
1
1
1
1
1
1
1
1
1
1
1
1
1
1
1
1
1
1
1
1
1
1
1
1
1
1
0.999999
0.999998
0.999995
0.999986
0.999966
0.999915
0.999794
0.999506
0.998834
0.997288
0.993827
0.986217
0.97048
0.940081
0.942979
1.92338
2.40707
2.54716
2.54862
2.55364
2.55656
2.58766
2.69617
2.76468
2.77095
2.72592
2.65942
2.56876
2.53606
2.49445
2.46755
2.40662
2.29589
2.20139
2.25172
2.45929
2.94583
1
1
1
1
1
1
1
1
1
1
1
1
1
1
1
1
1
1
1
1
1
1
1
1
1
1
1
1
1
1
1
1
1
1
1
1
1
1
1
1
1
1
1
1
1
1
1
1
1
1
1
1
1
1
1
1
1
1
1
1
1
1
1
1
1
1
1
1
1
1
1
1
1
1
1
1
1
1
1
1
1
1
0.999999
0.999998
0.999995
0.999987
0.999968
0.999919
0.999799
0.99951
0.998824
0.997222
0.993588
0.98551
0.968797
0.933328
1.02738
2.02522
2.4202
2.53292
2.53983
2.534
2.53379
2.5693
2.67639
2.74976
2.75275
2.70773
2.63751
2.54974
2.5202
2.47876
2.44829
2.3894
2.27394
2.1895
2.24565
2.45953
2.93546
1
1
1
1
1
1
1
1
1
1
1
1
1
1
1
1
1
1
1
1
1
1
1
1
1
1
1
1
1
1
1
1
1
1
1
1
1
1
1
1
1
1
1
1
1
1
1
1
1
1
1
1
1
1
1
1
1
1
1
1
1
1
1
1
1
1
1
1
1
1
1
1
1
1
1
1
1
1
1
1
1
1
0.999999
0.999998
0.999995
0.999988
0.99997
0.999922
0.999805
0.999516
0.99882
0.997169
0.993369
0.984808
0.966974
0.924157
1.13703
2.09429
2.42338
2.51925
2.52884
2.51405
2.51683
2.55369
2.65567
2.7304
2.72891
2.68872
2.61581
2.52856
2.50052
2.46233
2.4303
2.37091
2.25401
2.1781
2.23573
2.46741
2.92639
1
1
1
1
1
1
1
1
1
1
1
1
1
1
1
1
1
1
1
1
1
1
1
1
1
1
1
1
1
1
1
1
1
1
1
1
1
1
1
1
1
1
1
1
1
1
1
1
1
1
1
1
1
1
1
1
1
1
1
1
1
1
1
1
1
1
1
1
1
1
1
1
1
1
1
1
1
1
1
1
1
1
0.999999
0.999998
0.999996
0.999989
0.999972
0.999926
0.999812
0.999525
0.998823
0.997132
0.993177
0.984103
0.964923
0.912741
1.25598
2.14227
2.41968
2.50742
2.51322
2.49575
2.50441
2.53848
2.6359
2.71014
2.70135
2.67523
2.60005
2.51095
2.48225
2.44791
2.41281
2.3532
2.237
2.16908
2.22969
2.46791
2.91478
1
1
1
1
1
1
1
1
1
1
1
1
1
1
1
1
1
1
1
1
1
1
1
1
1
1
1
1
1
1
1
1
1
1
1
1
1
1
1
1
1
1
1
1
1
1
1
1
1
1
1
1
1
1
1
1
1
1
1
1
1
1
1
1
1
1
1
1
1
1
1
1
1
1
1
1
1
1
1
1
1
1
1
0.999999
0.999996
0.99999
0.999974
0.999931
0.99982
0.999537
0.998833
0.997114
0.993017
0.98341
0.96287
0.902956
1.37224
2.17616
2.41297
2.49438
2.49506
2.48114
2.48993
2.52032
2.61542
2.68843
2.6718
2.6611
2.57833
2.4901
2.46216
2.43195
2.39321
2.33449
2.21912
2.15904
2.22028
2.46564
2.89869
1
1
1
1
1
1
1
1
1
1
1
1
1
1
1
1
1
1
1
1
1
1
1
1
1
1
1
1
1
1
1
1
1
1
1
1
1
1
1
1
1
1
1
1
1
1
1
1
1
1
1
1
1
1
1
1
1
1
1
1
1
1
1
1
1
1
1
1
1
1
1
1
1
1
1
1
1
1
1
1
1
1
1
0.999999
0.999997
0.999991
0.999976
0.999935
0.999829
0.999553
0.998853
0.997113
0.992888
0.982775
0.960988
0.896312
1.48032
2.20087
2.40814
2.48143
2.47529
2.46515
2.47247
2.49938
2.59678
2.66833
2.65004
2.64123
2.55801
2.47422
2.44688
2.41944
2.37385
2.31647
2.20413
2.14771
2.21261
2.46124
2.88633
1
1
1
1
1
1
1
1
1
1
1
1
1
1
1
1
1
1
1
1
1
1
1
1
1
1
1
1
1
1
1
1
1
1
1
1
1
1
1
1
1
1
1
1
1
1
1
1
1
1
1
1
1
1
1
1
1
1
1
1
1
1
1
1
1
1
1
1
1
1
1
1
1
1
1
1
1
1
1
1
1
1
1
0.999999
0.999997
0.999992
0.999978
0.99994
0.999839
0.999571
0.998881
0.997132
0.992808
0.982242
0.959356
0.893609
1.57735
2.22036
2.39944
2.46623
2.45684
2.44865
2.45343
2.47751
2.57697
2.64811
2.63211
2.61952
2.5376
2.45593
2.42593
2.40304
2.35365
2.29906
2.18671
2.13494
2.20723
2.45928
2.87391
1
1
1
1
1
1
1
1
1
1
1
1
1
1
1
1
1
1
1
1
1
1
1
1
1
1
1
1
1
1
1
1
1
1
1
1
1
1
1
1
1
1
1
1
1
1
1
1
1
1
1
1
1
1
1
1
1
1
1
1
1
1
1
1
1
1
1
1
1
1
1
1
1
1
1
1
1
1
1
1
1
1
1
0.999999
0.999998
0.999993
0.99998
0.999945
0.999849
0.999593
0.998918
0.997175
0.992772
0.98182
0.957964
0.896704
1.66195
2.23345
2.38794
2.45044
2.44046
2.43087
2.43275
2.45907
2.55805
2.62804
2.61956
2.60106
2.51883
2.43766
2.40648
2.38441
2.33242
2.27884
2.1739
2.12377
2.2004
2.45028
2.85367
1
1
1
1
1
1
1
1
1
1
1
1
1
1
1
1
1
1
1
1
1
1
1
1
1
1
1
1
1
1
1
1
1
1
1
1
1
1
1
1
1
1
1
1
1
1
1
1
1
1
1
1
1
1
1
1
1
1
1
1
1
1
1
1
1
1
1
1
1
1
1
1
1
1
1
1
1
1
1
1
1
1
1
0.999999
0.999998
0.999994
0.999982
0.99995
0.999861
0.999616
0.99896
0.997234
0.992774
0.981509
0.956688
0.90621
1.72968
2.2454
2.37682
2.43208
2.42502
2.41218
2.41599
2.44069
2.53589
2.60329
2.60721
2.58166
2.49662
2.41623
2.38548
2.36498
2.31302
2.26553
2.16004
2.11662
2.19273
2.44761
2.84
1
1
1
1
1
1
1
1
1
1
1
1
1
1
1
1
1
1
1
1
1
1
1
1
1
1
1
1
1
1
1
1
1
1
1
1
1
1
1
1
1
1
1
1
1
1
1
1
1
1
1
1
1
1
1
1
1
1
1
1
1
1
1
1
1
1
1
1
1
1
1
1
1
1
1
1
1
1
1
1
1
1
1
0.999999
0.999998
0.999995
0.999984
0.999955
0.999872
0.999641
0.999008
0.997308
0.992817
0.98129
0.955502
0.920975
1.78256
2.25132
2.36558
2.41375
2.41039
2.39436
2.3992
2.4236
2.5142
2.57886
2.59799
2.56299
2.47675
2.39575
2.36383
2.34576
2.29659
2.24756
2.14834
2.10134
2.18087
2.44135
2.82309
1
1
1
1
1
1
1
1
1
1
1
1
1
1
1
1
1
1
1
1
1
1
1
1
1
1
1
1
1
1
1
1
1
1
1
1
1
1
1
1
1
1
1
1
1
1
1
1
1
1
1
1
1
1
1
1
1
1
1
1
1
1
1
1
1
1
1
1
1
1
1
1
1
1
1
1
1
1
1
1
1
1
1
0.999999
0.999998
0.999995
0.999986
0.99996
0.999883
0.999666
0.999059
0.997395
0.992909
0.981183
0.954491
0.939227
1.82163
2.25511
2.35543
2.39638
2.39486
2.37709
2.38004
2.40481
2.48916
2.55298
2.58543
2.54169
2.45564
2.37224
2.3399
2.32813
2.28062
2.23228
2.13619
2.09596
2.17328
2.44211
2.80964
1
1
1
1
1
1
1
1
1
1
1
1
1
1
1
1
1
1
1
1
1
1
1
1
1
1
1
1
1
1
1
1
1
1
1
1
1
1
1
1
1
1
1
1
1
1
1
1
1
1
1
1
1
1
1
1
1
1
1
1
1
1
1
1
1
1
1
1
1
1
1
1
1
1
1
1
1
1
1
1
1
1
1
1
0.999999
0.999996
0.999988
0.999964
0.999895
0.999692
0.999114
0.997497
0.993045
0.981188
0.95361
0.959957
1.85051
2.25487
2.34741
2.37813
2.38051
2.36474
2.36129
2.38749
2.46267
2.53259
2.56945
2.52163
2.43945
2.35196
2.31596
2.31265
2.26661
2.21221
2.13027
2.08628
2.15851
2.4474
2.7952
1
1
1
1
1
1
1
1
1
1
1
1
1
1
1
1
1
1
1
1
1
1
1
1
1
1
1
1
1
1
1
1
1
1
1
1
1
1
1
1
1
1
1
1
1
1
1
1
1
1
1
1
1
1
1
1
1
1
1
1
1
1
1
1
1
1
1
1
1
1
1
1
1
1
1
1
1
1
1
1
1
1
1
1
0.999999
0.999997
0.99999
0.999969
0.999905
0.999718
0.999173
0.997613
0.993229
0.981333
0.953092
0.981265
1.87055
2.253
2.33876
2.35885
2.36535
2.34885
2.34117
2.36794
2.43267
2.50846
2.5483
2.50109
2.42125
2.32855
2.29472
2.29485
2.25063
2.20167
2.12375
2.0823
2.14998
2.44715
2.77861
1
1
1
1
1
1
1
1
1
1
1
1
1
1
1
1
1
1
1
1
1
1
1
1
1
1
1
1
1
1
1
1
1
1
1
1
1
1
1
1
1
1
1
1
1
1
1
1
1
1
1
1
1
1
1
1
1
1
1
1
1
1
1
1
1
1
1
1
1
1
1
1
1
1
1
1
1
1
1
1
1
1
1
1
0.999999
0.999997
0.999991
0.999973
0.999916
0.999745
0.999234
0.997744
0.993465
0.981661
0.952926
1.00042
1.88256
2.24665
2.32765
2.34107
2.35061
2.33566
2.32311
2.34369
2.39905
2.48316
2.53149
2.48518
2.40772
2.31197
2.2715
2.27441
2.23511
2.1869
2.11425
2.07581
2.14755
2.45833
2.76624
1
1
1
1
1
1
1
1
1
1
1
1
1
1
1
1
1
1
1
1
1
1
1
1
1
1
1
1
1
1
1
1
1
1
1
1
1
1
1
1
1
1
1
1
1
1
1
1
1
1
1
1
1
1
1
1
1
1
1
1
1
1
1
1
1
1
1
1
1
1
1
1
1
1
1
1
1
1
1
1
1
1
1
1
0.999999
0.999998
0.999993
0.999977
0.999926
0.99977
0.999297
0.997885
0.993747
0.982122
0.953193
1.01372
1.8861
2.23666
2.31437
2.32222
2.33336
2.31776
2.30285
2.3183
2.36607
2.45579
2.50971
2.46656
2.39131
2.29258
2.25224
2.25504
2.21754
2.1755
2.10793
2.07298
2.14286
2.45825
2.74745
1
1
1
1
1
1
1
1
1
1
1
1
1
1
1
1
1
1
1
1
1
1
1
1
1
1
1
1
1
1
1
1
1
1
1
1
1
1
1
1
1
1
1
1
1
1
1
1
1
1
1
1
1
1
1
1
1
1
1
1
1
1
1
1
1
1
1
1
1
1
1
1
1
1
1
1
1
1
1
1
1
1
1
1
0.999999
0.999998
0.999994
0.99998
0.999935
0.999795
0.99936
0.998034
0.994065
0.982688
0.953963
1.02105
1.88234
2.22469
2.30051
2.30356
2.31496
2.2986
2.2815
2.30217
2.34633
2.43313
2.48698
2.4502
2.38069
2.27815
2.22947
2.2361
2.20087
2.16117
2.10779
2.07117
2.14418
2.465
2.73155
1
1
1
1
1
1
1
1
1
1
1
1
1
1
1
1
1
1
1
1
1
1
1
1
1
1
1
1
1
1
1
1
1
1
1
1
1
1
1
1
1
1
1
1
1
1
1
1
1
1
1
1
1
1
1
1
1
1
1
1
1
1
1
1
1
1
1
1
1
1
1
1
1
1
1
1
1
1
1
1
1
1
1
1
1
0.999998
0.999995
0.999983
0.999944
0.999819
0.999423
0.998187
0.994409
0.983319
0.95491
1.02134
1.87252
2.20961
2.28672
2.28427
2.29402
2.27861
2.25669
2.281
2.32359
2.40788
2.4653
2.43247
2.36954
2.26161
2.21039
2.21958
2.18301
2.15044
2.10799
2.07142
2.13782
2.47269
2.71153
1
1
1
1
1
1
1
1
1
1
1
1
1
1
1
1
1
1
1
1
1
1
1
1
1
1
1
1
1
1
1
1
1
1
1
1
1
1
1
1
1
1
1
1
1
1
1
1
1
1
1
1
1
1
1
1
1
1
1
1
1
1
1
1
1
1
1
1
1
1
1
1
1
1
1
1
1
1
1
1
1
1
1
1
1
0.999999
0.999996
0.999986
0.999952
0.999843
0.999487
0.998353
0.994809
0.984166
0.956609
1.01718
1.85977
2.18996
2.26907
2.26511
2.27601
2.26137
2.23641
2.25911
2.30613
2.38836
2.4544
2.41678
2.35914
2.24793
2.1877
2.20284
2.1642
2.13728
2.1109
2.07645
2.13463
2.47299
2.70184
1
1
1
1
1
1
1
1
1
1
1
1
1
1
1
1
1
1
1
1
1
1
1
1
1
1
1
1
1
1
1
1
1
1
1
1
1
1
1
1
1
1
1
1
1
1
1
1
1
1
1
1
1
1
1
1
1
1
1
1
1
1
1
1
1
1
1
1
1
1
1
1
1
1
1
1
1
1
1
1
1
1
1
1
1
0.999999
0.999997
0.999988
0.99996
0.999864
0.999546
0.998515
0.995226
0.985119
0.95881
1.01031
1.84519
2.16918
2.24826
2.2489
2.26052
2.2474
2.22155
2.24147
2.28454
2.36216
2.43593
2.39873
2.34806
2.22866
2.16991
2.18804
2.14956
2.1306
2.10347
2.08177
2.12693
2.47969
2.68885
1
1
1
1
1
1
1
1
1
1
1
1
1
1
1
1
1
1
1
1
1
1
1
1
1
1
1
1
1
1
1
1
1
1
1
1
1
1
1
1
1
1
1
1
1
1
1
1
1
1
1
1
1
1
1
1
1
1
1
1
1
1
1
1
1
1
1
1
1
1
1
1
1
1
1
1
1
1
1
1
1
1
1
1
1
0.999999
0.999997
0.99999
0.999966
0.999884
0.999604
0.998675
0.995653
0.986134
0.96128
0.999805
1.82619
2.15241
2.24752
2.24498
2.24907
2.23236
2.20499
2.22378
2.26539
2.3312
2.40797
2.37762
2.33793
2.21175
2.15844
2.17171
2.13854
2.12525
2.10276
2.09241
2.12449
2.46932
2.68296
1
1
1
1
1
1
1
1
1
1
1
1
1
1
1
1
1
1
1
1
1
1
1
1
1
1
1
1
1
1
1
1
1
1
1
1
1
1
1
1
1
1
1
1
1
1
1
1
1
1
1
1
1
1
1
1
1
1
1
1
1
1
1
1
1
1
1
1
1
1
1
1
1
1
1
1
1
1
1
1
1
1
1
1
1
0.999999
0.999998
0.999992
0.999972
0.999901
0.999656
0.998823
0.996058
0.987127
0.963592
0.986354
1.80286
2.13194
2.24343
2.23688
2.2334
2.21163
2.18618
2.20629
2.24616
2.30283
2.37728
2.35704
2.32845
2.19068
2.14356
2.15016
2.13213
2.13111
2.0958
2.09713
2.11672
2.45177
2.67347
1
1
1
1
1
1
1
1
1
1
1
1
1
1
1
1
1
1
1
1
1
1
1
1
1
1
1
1
1
1
1
1
1
1
1
1
1
1
1
1
1
1
1
1
1
1
1
1
1
1
1
1
1
1
1
1
1
1
1
1
1
1
1
1
1
1
1
1
1
1
1
1
1
1
1
1
1
1
1
1
1
1
1
1
1
1
0.999998
0.999994
0.999977
0.999917
0.999705
0.998969
0.996468
0.988169
0.965994
0.972379
1.77557
2.10437
2.23603
2.2294
2.22052
2.20239
2.17903
2.19325
2.22751
2.28286
2.35193
2.33858
2.31651
2.17431
2.1232
2.1308
2.12535
2.13442
2.0953
2.09675
2.1045
2.43547
2.6754
1
1
1
1
1
1
1
1
1
1
1
1
1
1
1
1
1
1
1
1
1
1
1
1
1
1
1
1
1
1
1
1
1
1
1
1
1
1
1
1
1
1
1
1
1
1
1
1
1
1
1
1
1
1
1
1
1
1
1
1
1
1
1
1
1
1
1
1
1
1
1
1
1
1
1
1
1
1
1
1
1
1
1
1
1
1
0.999999
0.999995
0.999981
0.999931
0.999749
0.999104
0.996864
0.989235
0.968426
0.959405
1.7412
2.07729
2.22629
2.21993
2.20725
2.19027
2.16773
2.17624
2.20602
2.25894
2.32735
2.31819
2.30582
2.15983
2.10338
2.10963
2.11573
2.12606
2.08609
2.09318
2.09073
2.41374
2.67209
1
1
1
1
1
1
1
1
1
1
1
1
1
1
1
1
1
1
1
1
1
1
1
1
1
1
1
1
1
1
1
1
1
1
1
1
1
1
1
1
1
1
1
1
1
1
1
1
1
1
1
1
1
1
1
1
1
1
1
1
1
1
1
1
1
1
1
1
1
1
1
1
1
1
1
1
1
1
1
1
1
1
1
1
1
1
0.999999
0.999996
0.999985
0.999943
0.999789
0.999231
0.99725
0.990326
0.970983
0.948432
1.69965
2.05261
2.2154
2.20782
2.19035
2.1761
2.1524
2.15765
2.18242
2.23067
2.30181
2.29978
2.29474
2.155
2.08757
2.0863
2.10643
2.11719
2.07365
2.08614
2.07586
2.38626
2.65554
1
1
1
1
1
1
1
1
1
1
1
1
1
1
1
1
1
1
1
1
1
1
1
1
1
1
1
1
1
1
1
1
1
1
1
1
1
1
1
1
1
1
1
1
1
1
1
1
1
1
1
1
1
1
1
1
1
1
1
1
1
1
1
1
1
1
1
1
1
1
1
1
1
1
1
1
1
1
1
1
1
1
1
1
1
1
0.999999
0.999997
0.999988
0.999953
0.999824
0.999343
0.997599
0.991351
0.973406
0.940423
1.65246
2.03647
2.21094
2.19574
2.17496
2.15989
2.13568
2.14134
2.16349
2.20297
2.27129
2.27916
2.28273
2.14827
2.0709
2.06651
2.09404
2.10768
2.06133
2.07255
2.06916
2.35867
2.64082
1
1
1
1
1
1
1
1
1
1
1
1
1
1
1
1
1
1
1
1
1
1
1
1
1
1
1
1
1
1
1
1
1
1
1
1
1
1
1
1
1
1
1
1
1
1
1
1
1
1
1
1
1
1
1
1
1
1
1
1
1
1
1
1
1
1
1
1
1
1
1
1
1
1
1
1
1
1
1
1
1
1
1
1
1
1
0.999999
0.999998
0.99999
0.999962
0.999854
0.999445
0.997929
0.992355
0.975839
0.936141
1.6004
2.01286
2.19766
2.17565
2.15822
2.14257
2.12274
2.13049
2.15048
2.18619
2.23925
2.25425
2.26494
2.14385
2.05899
2.04088
2.08285
2.09941
2.04338
2.06114
2.05588
2.32535
2.6197
1
1
1
1
1
1
1
1
1
1
1
1
1
1
1
1
1
1
1
1
1
1
1
1
1
1
1
1
1
1
1
1
1
1
1
1
1
1
1
1
1
1
1
1
1
1
1
1
1
1
1
1
1
1
1
1
1
1
1
1
1
1
1
1
1
1
1
1
1
1
1
1
1
1
1
1
1
1
1
1
1
1
1
1
1
1
1
0.999998
0.999992
0.99997
0.99988
0.999534
0.998222
0.993287
0.978183
0.934125
1.53801
1.98781
2.19261
2.1658
2.14903
2.13245
2.11432
2.11849
2.13462
2.16608
2.21215
2.23024
2.24696
2.14019
2.05026
2.01603
2.07037
2.09385
2.03021
2.04023
2.02986
2.29428
2.5988
1
1
1
1
1
1
1
1
1
1
1
1
1
1
1
1
1
1
1
1
1
1
1
1
1
1
1
1
1
1
1
1
1
1
1
1
1
1
1
1
1
1
1
1
1
1
1
1
1
1
1
1
1
1
1
1
1
1
1
1
1
1
1
1
1
1
1
1
1
1
1
1
1
1
1
1
1
1
1
1
1
1
1
1
1
1
1
0.999999
0.999994
0.999976
0.999903
0.999615
0.998503
0.994218
0.980624
0.936966
1.46779
1.96252
2.17569
2.14309
2.12756
2.11498
2.0972
2.10243
2.11573
2.14463
2.18845
2.20678
2.22738
2.13625
2.03521
1.98568
2.05687
2.07838
2.01431
2.018
2.00982
2.2638
2.5845
1
1
1
1
1
1
1
1
1
1
1
1
1
1
1
1
1
1
1
1
1
1
1
1
1
1
1
1
1
1
1
1
1
1
1
1
1
1
1
1
1
1
1
1
1
1
1
1
1
1
1
1
1
1
1
1
1
1
1
1
1
1
1
1
1
1
1
1
1
1
1
1
1
1
1
1
1
1
1
1
1
1
1
1
1
1
1
0.999999
0.999995
0.999981
0.999923
0.999688
0.99876
0.995117
0.983099
0.94363
1.38559
1.93332
2.15461
2.1155
2.11458
2.10304
2.09042
2.09126
2.10355
2.12565
2.16211
2.1832
2.20836
2.13076
2.0195
1.9432
2.03348
2.06153
2.00397
1.99783
1.97921
2.22541
2.56561
1
1
1
1
1
1
1
1
1
1
1
1
1
1
1
1
1
1
1
1
1
1
1
1
1
1
1
1
1
1
1
1
1
1
1
1
1
1
1
1
1
1
1
1
1
1
1
1
1
1
1
1
1
1
1
1
1
1
1
1
1
1
1
1
1
1
1
1
1
1
1
1
1