/*--------------------------------*- C++ -*----------------------------------*\
| =========                 |                                                 |
| \\      /  F ield         | OpenFOAM: The Open Source CFD Toolbox           |
|  \\    /   O peration     | Version:  2.2.x                                 |
|   \\  /    A nd           | Web:      www.OpenFOAM.org                      |
|    \\/     M anipulation  |                                                 |
\*---------------------------------------------------------------------------*/
FoamFile
{
    version     2.0;
    format      ascii;
    class       volScalarField;
    location    "2.25";
    object      divBf;
}
// * * * * * * * * * * * * * * * * * * * * * * * * * * * * * * * * * * * * * //

dimensions      [1 -3 -2 0 0 -1 0];

internalField   nonuniform List<scalar> 
14161
(
847.605
333.913
333.879
303.64
278.739
256.578
237.845
223.31
204.024
194.78
200.239
166.643
183.85
174.275
113.67
198.083
134.486
38.9643
127.241
36.4635
-49.6418
-65.1168
-200.436
-301.353
-389.232
-457.182
-639.589
-864.946
-1182.18
-1561.63
-2008.23
-2571.94
-3177.01
-3811.64
-4873.92
-5038.55
-5726.69
-6596.43
-5733.94
-3498.96
-1413.36
-160.337
2025.45
409.938
-307.923
-25978.7
-27497.8
-29677
-27890.5
-30455.3
-29283.7
-31941.2
-30390
-28263.2
-31587.9
-29168.7
-29937
-28882.3
-25804.8
-27766
-24295.1
-24142.2
-24330.4
-20959.4
-20050
-21036.9
-16676.4
-15973.9
-14545
-11533.2
-8990.57
-10032.4
-9043.94
-5544.46
-4476.03
-1719.97
351.608
800.05
1553.45
3173.83
4280.35
5330.73
8806.55
9960.7
10751.3
11274.3
13972.4
14410.5
14134.4
14556.1
15441.8
16103.6
15781.6
13349.1
12331.3
9357.52
9143.13
11362.5
12155
10419.1
7313.47
5997.72
2282.09
-2461.9
-5680.52
-6394.13
-5115.04
-8173.49
-11684.1
-7759.54
-4192.51
8410.82
24699.6
15828.1
-853.275
-2500.87
24174.2
3531.12
183540
598.614
87.3124
87.7124
56.7413
30.3647
6.00564
-15.946
-35.7349
-58.7121
-70.8812
-81.0582
-113.412
-104
-130.951
-176.309
-127.834
-202.942
-265.906
-260.843
-310.313
-397.073
-488.158
-603.913
-687.603
-814.467
-899.854
-1085.85
-1298.61
-1612.04
-1983.22
-2440.27
-2966.72
-3541.59
-4220.27
-4949.47
-5783.48
-6570.85
-6247.4
-6849.37
-4152.65
-3146.59
792.903
-429.344
739.286
-2303.24
-23473.2
-25427.7
-27401.2
-27201.1
-25759.7
-28417
-28725.7
-24668.7
-27490.6
-24322.8
-26522
-26365.5
-21545.5
-20549.4
-22782.9
-21649.1
-20763.1
-19062
-15529.1
-13788.6
-13773
-13719.2
-11707.3
-11675.2
-9362.27
-5335.27
-4312.53
-3050.75
-1039.21
-1006.4
-647.667
3391.16
4571.51
5757.28
8063.01
10737
12235.3
10905.8
12745.8
15140.5
15394
15536.8
16603.5
17785.1
20329.3
18127.7
15883.3
15918.5
18532.6
18550.7
18464.2
19086.7
15871.1
13283.9
7351.44
6137.34
3579.77
2146.27
3156.11
4798.64
400.507
-7395.48
-13401.7
-16360.7
-15657.1
-22957.6
-28664.4
-48605.3
-38453.1
-29531.3
-27631.9
-561.025
-14485.9
88189.8
353.415
-152.876
-150.947
-181.585
-207.266
-232.293
-256.517
-279.356
-303.454
-320.636
-339.211
-370.577
-376.868
-404.721
-447.389
-441.97
-496.725
-540.531
-594.397
-603.678
-750.356
-840.229
-909.767
-1023.55
-1174.19
-1287.95
-1463.92
-1669.47
-1942.96
-2294.08
-2743.98
-3244.49
-3810.94
-4530.02
-5121.68
-5925.57
-7155.58
-7166.14
-7199.46
-4887.49
-2266.04
954.627
-1204.5
-1222.77
-4354.75
-22656.3
-23878.8
-26987
-25493.5
-25465.3
-25728.2
-27540.6
-24866.8
-25331
-24602.2
-23285.8
-24659.7
-22323.2
-21215.9
-20823.5
-19106.6
-17229.5
-17170.8
-16407.8
-15331
-15066.6
-11910.4
-9668.89
-8061.25
-7820.29
-6194.67
-5195.87
-3537.45
-688.774
783.375
2170.33
4134.46
4800.94
5703.88
7092.32
8019.46
9452.19
11416.2
13147.2
14700.5
13988.3
15827
16621.3
15849.9
17011.8
18032.1
19578.2
19947.8
17869.6
16742.7
14906.6
13125.9
15044
8827.59
10227.8
10900.3
9252.71
5321.14
2746.03
2.08752
-4867.94
-4979.75
-8501.3
-11090.4
-7924.28
-7643.7
-10421.7
-15837.6
-25225.9
-20107.5
-13058.6
3430.09
-3670.19
69546
113.516
-385.528
-380.664
-409.662
-433.756
-458.037
-483.119
-508.295
-530.701
-552.411
-580.575
-601.606
-622.295
-666.48
-676.268
-724.218
-760.261
-793.81
-879.944
-875.948
-1049.7
-1170.89
-1194.5
-1306.8
-1480.57
-1607.27
-1783.87
-1979.82
-2215.82
-2542.63
-2958.28
-3446.48
-4053.82
-4716.82
-5333.34
-6322.83
-7216.12
-8004.4
-8491.88
-6512.52
2758.97
400.301
-1099.43
-3689.19
-7666.31
-23053.1
-23616
-27002.4
-24807.7
-26167
-24819.8
-25289
-25756
-22314.3
-24003.2
-22683.6
-20332.7
-21991.3
-20675.3
-17491.3
-17655
-17086.8
-14321
-15031.8
-14115.8
-12169.9
-9354.08
-10623.5
-6377.26
-5675.05
-5191.91
-3578.37
-1390.18
-296.83
1314.81
3696.03
5288.02
6124.03
7665.24
8814.77
11064.3
11623.2
13005.9
14177.1
14835.2
15064.5
16240.3
17796.8
17405
18907.8
18721.5
19572.2
18308.3
16982.9
16758.9
16962
16866.2
14095.7
14943.7
11559.8
12220.8
9580.26
6690.77
900.992
2521.1
-1845.16
-2714.46
-7165.8
-2785.26
-13337
-15397.1
-13166.6
-12604.2
-17146.8
-14885
-8083.86
1107.97
-1640.3
41503.9
-119.511
-609.261
-600.726
-626.292
-648.383
-671.067
-695.315
-721.522
-742.138
-767.224
-801.591
-812.969
-843.705
-902.596
-885.535
-959.591
-1017.01
-1033.08
-1124.61
-1138.64
-1303.83
-1408.99
-1463.29
-1550.25
-1739.93
-1868.94
-2056.38
-2230.93
-2432.86
-2706.86
-3067.66
-3564.3
-4199.82
-4752.93
-5463.21
-6594.1
-7201.32
-8135.72
-8520.38
-6706.15
8235.47
1300.84
-2179.09
-8813.72
-12670.5
-25951
-25269.8
-27846.2
-26566.2
-25559
-26177.4
-24172.6
-24837.4
-22717
-21539.4
-22441.6
-19643.7
-19059.1
-17746.1
-16696.1
-15804.7
-16019.5
-13936.2
-11605.8
-11286.9
-10235.2
-8315.6
-7885.42
-6660.8
-3280.16
-3826.46
-1245.85
611.88
1835.31
2958.2
4423.4
6495.77
7694.31
8298.64
9956.19
12880.3
12988.7
13019.2
16487.7
14943.1
16105.6
16746.2
17700.6
20638.3
17955.3
21597.5
17449.4
18810.4
20284.6
15725.6
17196.6
16864
15431.5
17775.7
15000.7
12272.4
11483.7
5778.51
6119.21
3418.2
1438.76
-390.25
-93.7545
-6475.73
-9102.3
-6842.99
-6202.6
-10210.9
-12142.9
-9430.8
-4268.97
360.827
-414.181
26039.1
-344.468
-823.101
-809.977
-830.903
-850.346
-870.557
-893.043
-918.933
-937.114
-964.841
-1001.91
-1006.94
-1047.98
-1107.53
-1082.92
-1170.94
-1241.03
-1230.29
-1329.64
-1407.59
-1533.88
-1587.29
-1707.08
-1775.89
-1966.57
-2085.33
-2245.96
-2416.96
-2607.55
-2865.36
-3176.49
-3575.59
-4175.79
-4736.31
-5502.87
-6553.47
-7281.57
-8658.1
-9169.47
-8839.19
13877.5
5787.75
-5880.89
-12904.3
-18694.3
-30024
-28098
-29599.1
-27972.4
-27086.3
-26727.7
-25424.7
-23590.7
-22346.1
-21377.5
-20950.5
-20482.4
-18230.3
-16612.6
-14790
-14480.6
-15093.4
-12802
-12055.5
-10214.7
-8498.82
-7127.28
-3995.63
-5560.21
-957.841
-1135.7
-827.297
2574.63
2170.72
4013.19
6625.88
8329.66
9740.79
9676.5
11814.9
13693
13651.2
13810.6
17376.1
18008.1
17004.4
18824.8
20069
19003.1
20611.2
18609.8
24035
18188
20370.8
21251.8
18505.1
17522.5
17979.6
13731.3
15214.3
10696.5
9188.03
7212.91
6119.69
6036.89
8854.38
7091.05
2209.9
-2272.18
-2721.34
-2380.92
-6005
-7425.95
-8482.74
-5758.08
-2473.13
121.996
-909.195
16377.2
-559.987
-1025.83
-1007.42
-1023.12
-1039.06
-1056.26
-1076.06
-1100.81
-1118.08
-1145.35
-1182.13
-1189.64
-1229.83
-1287.2
-1272.23
-1357.96
-1435.15
-1416.2
-1517.12
-1624.21
-1718.2
-1743.08
-1896.38
-2003.76
-2116.6
-2268.12
-2414
-2566.7
-2736.9
-2967.25
-3245.53
-3545.6
-3915.21
-4592.28
-5304.76
-6070.32
-7049.32
-8911.92
-8618.39
-9320.82
19978.6
3417.38
-6531.78
-19278
-24121.2
-35333.9
-31724.3
-31998.9
-29192
-28713.1
-26846.1
-26144.4
-22808.1
-22086.5
-20697.8
-19602.6
-18989
-17238.9
-16232.2
-14937.6
-13081.3
-10719.4
-11739.4
-10268.7
-6440.75
-6973.44
-4918.31
-3294.77
-2210.27
-1811.5
1974.08
3191.6
1766.45
5661.74
5345.78
7583.16
10171.1
12369.5
13859.7
13151.6
13869.4
15951.4
16166.7
16133.8
18860.1
19375.9
19882
19342.6
21653.3
21058.5
20513
21365.7
22240.1
20729.1
20912.8
20285.5
19065.6
18237.7
15418.4
13161
14986.4
12735.7
9929.39
8371.67
14879
12730.5
1657.03
693.093
2170.83
1194.27
-694.48
-5018.4
-5331.61
-4872.68
-3247.35
-759.917
-224.803
-1596.63
11311.4
-764.862
-1216.51
-1192.33
-1202.43
-1214.08
-1227.81
-1245.1
-1266.5
-1283.91
-1310.35
-1343.35
-1357.62
-1395.43
-1443.28
-1456.91
-1519.66
-1598.23
-1596.72
-1684.5
-1801.79
-1908.34
-1881.2
-2045.93
-2199.9
-2270.08
-2399.8
-2511.79
-2700.53
-2838.98
-3013.36
-3234.57
-3477.31
-3692.24
-4169.73
-4783.63
-5372.65
-6428.26
-7841.06
-8243.75
-10102.1
13824
2077.56
-8743.91
-25932.9
-29793.2
-39103.2
-36783.8
-34831.3
-30723.9
-29162.6
-27531.1
-23574.1
-24639.7
-21671
-20136.7
-18843.8
-14587.9
-15142.5
-14231.8
-12120.1
-13925.8
-11970.1
-7899.6
-4974.39
-7637.3
-3161.81
-3109.94
-1415.92
79.7597
2200.89
1782.34
4023.64
6582.29
6099.56
7527.52
9066.32
9508.56
12611.3
15808.9
17951.6
17878.7
17076.4
16623.1
17576.4
18420.7
21453.5
23930.2
24541.7
23095.3
23179.5
19387.3
21726.4
22246.6
23453.9
22113.8
20402.4
18559.1
17499.9
18022.4
19376.4
16627.6
15359.6
16029
18918.4
20295.7
10487.5
6052.34
3895.27
3993
1897.54
-1933.95
-3108.93
-3468.54
-2546.86
-2305.12
457.655
-854.83
-1747.85
8305.33
-958.027
-1394.3
-1364.09
-1368.32
-1375.33
-1385.47
-1399.62
-1416.93
-1434.98
-1459.84
-1486.4
-1509.72
-1544.58
-1583.04
-1618.11
-1661.9
-1730.91
-1759.48
-1834.15
-1949.27
-2060.62
-2022.61
-2165.6
-2333.43
-2473.7
-2466.21
-2585.95
-2745.73
-2911.01
-3051.12
-3193.4
-3321.41
-3537.75
-3666.63
-3928.9
-4430.89
-5047.27
-5591.23
-6023.1
-6962.08
719.768
-4322.38
-17918.4
-33741.1
-35815
-40817.7
-37530.1
-34546.2
-31778.9
-29000.5
-26226.6
-25103.7
-20737.2
-20393.1
-20003.4
-18029.9
-15612.9
-13487.9
-12203.4
-12846.5
-9322.12
-9401.69
-6983.09
-6526.41
-1721.09
-2487.48
-294.932
1447.05
2452.2
3383.03
4838.55
6072.44
7582
8666.61
11171
10540.1
12993.3
14942.4
16541.3
17487
18225.7
19016.5
20377
22404.7
23586.7
23926.5
23878.9
23066.6
22712
23325.3
23442.8
22209
22197.6
21593
21914.1
23106.8
21793
19827.9
20269.5
21562.4
20579.6
25466.3
26609.9
28477.5
16011.9
10814.9
6703.04
6115.49
4187.43
10.7893
-1479.45
-338.49
-1257.97
-639.743
-1880.61
834.513
-1088.44
-1899.56
5830.05
-1138.51
-1558.52
-1522.08
-1520.43
-1522.53
-1529.19
-1539.05
-1553.2
-1571.67
-1593.62
-1614.71
-1645.74
-1676.75
-1705.32
-1759.72
-1795.89
-1842.49
-1909.34
-1970.65
-2075.21
-2162.28
-2177.27
-2281.36
-2431.62
-2581.04
-2622.59
-2615.28
-2749.42
-2892.76
-3034.25
-3147.19
-3195.08
-3203.96
-3131.22
-3109.3
-3171.64
-2998.92
-3190.12
-3707.65
-5222.24
-21467.1
-6096.04
-26400.7
-39486.9
-39407.7
-39872.1
-32586.2
-29179.9
-25085.6
-24153.2
-20080.9
-20449.1
-16892.4
-16569.5
-14620
-13590.7
-11513.6
-9553.45
-9370.07
-8428.87
-5609.95
-4623.94
-3507.74
-2601.84
-2252.62
1123.18
1873.94
851.888
4380.32
5811.06
7991.84
7315.21
10116.7
11934.5
12053.9
14229.9
15940.4
15261.4
17294
18788.6
20356
21828.4
22828.3
24039.4
23861.2
23520.4
22166.1
24437.1
23961.5
24084.3
23749.6
26111.1
26080.1
26192.1
26292.6
25878.8
22598.1
22463.4
23548.4
28349.5
31181.2
34599.5
27309.1
17645.6
14207.4
10451.7
7177.89
5972.46
3712.23
-54.5433
514.584
384.088
10.4111
-889.863
-1230.87
-245.493
-1608.85
-2178.8
3772.09
-1305.43
-1708.53
-1665.92
-1658.51
-1655.53
-1658.72
-1664.23
-1675.36
-1693.93
-1711.91
-1730.52
-1764.67
-1793.99
-1814.36
-1873.83
-1923.98
-1936.67
-2029.08
-2102.37
-2166.96
-2235.96
-2326.41
-2394.44
-2507.53
-2605.41
-2745.94
-2745.57
-2749.63
-2864.08
-2946.98
-3031.63
-3097.94
-3041.96
-2810.55
-2566.08
-2057.25
-1411.39
-395.337
-978.051
-7955.31
-43199.7
-34980.1
-39563.8
-24203.6
-22337.6
-29650.6
-23983.3
-23474.2
-21667
-16670.8
-17440.3
-13566.7
-14365
-13135.1
-8634.82
-10019.8
-9587.62
-5791.25
-4048
-5178.07
-4206.97
-2532.5
-769.335
77.1286
1397.8
959.561
3248.31
4563.41
5397.35
6865.12
10442.1
11470.4
10530.8
13464.1
14855.8
15701.5
16860.9
17305.1
17438.6
21080.9
21799.9
24173.7
24112.2
23656.3
24719.3
23468.6
23982.7
25085.2
28037.4
27519
27228.4
27226.7
27673.4
27263.1
26009.2
28007.8
27243.8
32125.3
33879.4
41326
43286.4
30207.4
23185.1
15388.5
12272.3
8527.11
7130.89
4600.56
1454.84
2178.03
1674
291.752
36.1834
-1094.22
-1048.21
-1449.3
-2056
-1739.85
2339.55
-1458.03
-1843.81
-1795.31
-1782.4
-1774.27
-1774.05
-1775.6
-1783.48
-1802.22
-1815.42
-1831.64
-1869.59
-1896.93
-1910.61
-1969.93
-2034.93
-2016.9
-2127
-2224.16
-2227.12
-2311.23
-2433.83
-2515.96
-2558.23
-2639.37
-2778.89
-2842.31
-2856.46
-2817.63
-2851.51
-2897.11
-3020.53
-2938.88
-2517.37
-1974.52
-1284.36
12.6247
2191.39
6903.38
9052.12
-5799.1
-92901.7
-42148.2
-23144
-3935.66
-13303.4
-11038.7
-14138.9
-14218.1
-13673.7
-12937.7
-9663.37
-8316.21
-9350.48
-5404.88
-4775.59
-6644.98
-4113.08
758.261
-502.246
-702.257
824.559
1600.31
1758.35
4026.36
5455.6
4936.73
7039.24
7661.4
8718.59
10069.8
13614.8
13676.4
14643.7
16705.7
17367.3
19114.8
19398.6
19548.2
22603.3
24490.9
24238.4
24210.9
24375.8
24101.3
28598.5
27400.9
28195.3
29782.1
28479.2
29170.3
29163.1
30217.1
31044
32410.9
35911.3
36962.8
41482.3
48665.5
36059.8
25228.3
23158.6
15369.4
12352.8
9056.88
7559.45
5801.95
2694.7
2500
2560.77
1906.42
-222.286
-318.225
-241.044
-1554.4
-2052.18
-2774.33
-1702.14
1015.42
-1595.67
-1963.99
-1910.01
-1892.04
-1878.82
-1875.15
-1873.54
-1878.18
-1895.56
-1905.55
-1919.67
-1959.9
-1983.6
-1997.64
-2055.1
-2116.47
-2105.96
-2206.52
-2309.03
-2314.53
-2374.86
-2504.65
-2602.64
-2605.13
-2697.12
-2801.65
-2850.73
-2911.14
-2917.99
-2865.81
-2929.61
-2874.72
-2662.85
-2364.06
-1853.16
-1216.38
-350.148
380.002
71.8426
-6013.13
-37094
-141530
-107752
-22180.5
-6515.95
-9073.9
-2310.67
-7316.68
-8666.01
-10916.8
-11490.9
-9838.88
-4273.65
-4395.64
-3461.91
-358.617
-1377.66
-1451.27
1882.62
2609.5
2310.18
2866.06
3563.49
4636.1
5793.7
7918.61
8063.9
9078.7
9790.89
10962.9
12628.5
14176.8
15631
15522.9
17471.5
19189.9
20393.7
21590
22170.8
24529.8
25667.7
24528.4
28454.4
27859.2
27336.9
31341.7
30552.8
31389.4
32698.2
32331.3
34430.2
34330.2
36445.6
38604.4
41375.4
44884.2
53045
38876.9
32796
27854.1
19700.8
16553.7
11238.9
9067.92
7354.85
5591.41
4696.35
2011.09
3183.89
2394.32
1678.25
-443.369
-585.606
-195.326
-1346.92
-2457.98
-3191.78
-1953.99
-195.906
-1717.88
-2068.86
-2009.94
-1987.17
-1969.54
-1962.4
-1958.16
-1959.98
-1974.31
-1983.42
-1997
-2032.28
-2055
-2076.38
-2127.78
-2173.1
-2203.04
-2271.25
-2355.02
-2405.55
-2420.93
-2541.09
-2661.36
-2706.79
-2739.33
-2780.36
-2881.72
-2971.59
-2964.24
-2924.36
-2949.28
-2911.6
-2688.63
-2538.51
-2174.12
-1733.93
-1413.22
-163.273
-550.503
-5744.63
-42469.3
-146195
-70844.6
-47147.8
-18997.6
-13914.8
-3296.7
-6367.32
-6564.05
-6973.93
-4191.82
-7453.68
-3062.29
-587.214
-1402.49
1330.28
703.463
963.82
2308.5
5037.53
4057.62
4292.63
4834.56
5985.27
7007.67
8564.84
9735.39
10564
11979.6
12586.1
14037.7
15266
16945.8
18643.5
19508.5
19916.4
23195.6
27781.1
24193.1
25797.6
29401.9
25636.5
33865.4
32204.2
32088.2
34994.7
34613.5
37031.3
38142.3
40013.3
41866
40665.7
44930.8
47736.5
47638.4
36481.4
34456.3
29724.3
21862.3
17114.7
13341.1
10019.6
8350.48
6505.47
5604.58
4697.87
2806.17
2888.25
2576.82
2056.83
699.693
-376.672
-272.02
-562.572
-1484.7
-2101.94
-3255.4
-2171.14
-1360.01
-1824.33
-2158.27
-2095.01
-2067.88
-2046.5
-2036.05
-2029.57
-2029
-2039.22
-2049.2
-2063.29
-2091.31
-2116.1
-2142.05
-2186.04
-2226.52
-2272.32
-2324.86
-2383.94
-2469.76
-2495.02
-2561.39
-2678.82
-2816.6
-2779.05
-2780.65
-2893.8
-3004.82
-3063.59
-3045.99
-2991.86
-2963.27
-2839.37
-2780.28
-2609.46
-2484.95
-2111.5
-2737.41
-3669.21
-9854.07
-68096.2
-75253
-57137.2
-71769
-42572
-18781.5
-10576.4
253.208
-1090.35
-2328.04
-519.816
-550.869
-570.208
1203.17
571.586
2872.63
3823.02
2027.45
2671.27
4821.52
5578.68
5870.26
6963.26
7601.7
8863.79
9016.2
11173.5
14618.7
14272
14371.3
16645.9
19410.5
18769.7
21595.7
25564.2
22538.3
27924.5
32014.7
27190.9
33680.3
33911.9
33703.2
39459.2
37942.4
42464
42248.2
41652.7
41736.1
44832.8
47172.4
48520.8
44493.8
39208.3
33131.2
30380.7
25056.4
22587.9
15907.9
14758.5
10045.7
8353.95
6757.58
5686.74
4648.74
4196.09
3532.95
2258.36
2639.45
1857.17
1337.51
541.244
53.5336
-418.972
-1406.51
-1485.9
-1960.86
-3163.4
-2403.74
-2268.79
-1914.84
-2232.16
-2165.26
-2134.47
-2109.97
-2095.99
-2088.54
-2085.83
-2090.98
-2103.37
-2117.55
-2136.96
-2165.18
-2196.65
-2228.41
-2268.42
-2323.71
-2369.8
-2418.41
-2500.24
-2548.69
-2590.41
-2705.82
-2841.2
-2843.86
-2796.45
-2882.45
-3005.54
-3178.31
-3194.58
-3099.35
-3008.2
-3011.39
-3059.83
-3029.21
-2987.32
-3372.86
-4150.14
-6650.38
-20590.4
-94211
-10954.6
-22294.2
-55496.2
-68720.1
-23442.8
-17945.8
-4819.53
-3464.64
-1813.67
-543.296
557.961
712.664
2627.6
2711.15
3022.16
4665.49
3856.94
3027.35
4253.54
6410
9538.03
8954.02
8984.85
10380.8
10638
12539.9
17238.7
20621.9
17990.1
20835.9
24776.3
21512.4
31402.5
32610.6
28904.6
38180.5
35776.8
40530.9
43064.9
41454.6
44798.3
43429
48563.2
51111.8
48346.4
48683
45487.2
41014.7
33975.4
32534.3
29694
23923.3
20836.4
19042.9
12950.5
13286.6
9051.65
7430.24
6216.22
5000.27
4058.84
3639.99
3023.55
2971.46
2432.56
1980.87
2103.48
1362.78
751.22
563.983
146.419
-361.064
-1824.07
-1786.33
-1960.57
-2843.87
-2423.68
-2806.92
-1989.34
-2290.61
-2220.84
-2187.13
-2160.16
-2142.81
-2134.89
-2130.06
-2131.37
-2145.72
-2158.8
-2172.46
-2203.74
-2237.01
-2260.01
-2300.21
-2362.34
-2402.09
-2447.07
-2515.03
-2580.68
-2635.97
-2727.8
-2802.62
-2848.07
-2868.18
-2938.1
-3033.59
-3178.32
-3281.44
-3168.04
-3079.15
-3241.38
-3350.85
-3454.87
-3528.06
-3843.71
-4051.4
-6829.58
-35152.1
-63723.4
-6299.36
-15046.7
-30544.9
-58235.6
-60371.5
-35761.3
-18365.1
-8223.56
-5605.1
-2764.6
-2300.51
-1637.8
760.009
1250.04
130.467
3710.81
5275.48
4683.03
4055.24
6797.91
12140.2
12207.4
12336.5
15918.3
16141.5
16646.6
24868.8
27550.2
23871.9
31301
32193.3
35245.8
42951
42697.8
47053.9
46363.2
48912.8
52452.4
52543.1
52690.8
53965
50084.2
42667
37576.4
35258.6
31432.3
28117.4
24239.2
21867.7
20393.7
15959
13703.4
10894.9
10759.8
6805.63
5480.84
4827.64
3882.12
3184.82
2636.6
2058.27
2102.34
1959.43
1951.58
1602.06
874.521
1439.23
1260.93
434
531.465
-0.527816
-338.075
-1294.7
-1897.5
-2060.58
-2758.44
-2819.47
-3289.72
-2047.9
-2333.79
-2262.03
-2226.08
-2197.17
-2177.39
-2168.47
-2162.21
-2161.48
-2175.85
-2187.47
-2198.39
-2231.08
-2263.94
-2282.51
-2322.81
-2384.35
-2423.7
-2466.78
-2520.89
-2600.09
-2666.47
-2736.68
-2784.81
-2846.87
-2917.94
-2996.06
-3090.52
-3158.25
-3231.66
-3236.59
-3281.3
-3437.08
-3571.39
-3763.58
-4032.4
-4315.39
-4897.19
-8351.33
-50366.5
-40986.3
-10345.1
-10201
-17925.5
-30312.8
-39621.2
-56676.4
-44059.7
-21955.5
-14270.9
-9888.36
-5242.36
-4615.19
-1990.9
141.575
2299.66
4272.01
6568.02
9097.79
9616.39
11555.5
16954.4
19012
17675.3
26685.8
28136.6
28661.9
35333.6
37068.8
43641.6
46231.6
50511.2
53220.3
56030.9
59637.9
61237.1
57879.8
53177.8
47780.1
41843
38027.1
34881.5
31071.2
27009.6
23825.1
22495.3
19637.8
16120.3
13359.9
12131
10459.2
8500.98
7502.46
5131.92
4662.75
3371.98
2378.01
1495.83
1481.71
1117.14
1015.92
746.204
934.017
930.522
904.038
759.755
1068
889.946
1028.98
461.055
101.149
-29.0301
-698.887
-1073.37
-1898.69
-1894.54
-2644.32
-2883.82
-3763.23
-2090.74
-2362.01
-2289.2
-2251.64
-2221.34
-2200.1
-2189.81
-2182.87
-2181.4
-2193.75
-2205.01
-2215.58
-2246.48
-2277.62
-2297.86
-2336.24
-2394.24
-2437.35
-2469.43
-2521.31
-2612.35
-2677.5
-2730.72
-2760.12
-2857.45
-2931.48
-3018.37
-3128.72
-3179.99
-3239.29
-3316.4
-3407.86
-3569.72
-3813.93
-4079.74
-4435.26
-4806.88
-6086.58
-11434.9
-58750.3
-30121.1
-10675.8
-9958.96
-12437.1
-18071.9
-20227
-36243.3
-49892.1
-45918.7
-27482.4
-19997.2
-7339.66
-6430.22
403.477
3585.34
6867.87
9626.61
11814.3
17007.3
19343.7
20745.6
27199.5
29871.8
34526.5
39659
46768.5
49285.1
49876.3
56822.8
64520.1
67596.1
67268
62599.2
55635.5
48459.4
43283.2
38449.3
35355.7
31443.8
27677.8
24488.4
21013.5
17586.6
16183.2
13598.9
12438.1
11390.3
9069.52
7718.16
6423.93
4943.94
3704.47
3023.43
2445.91
1658.33
1180.81
606.523
-176.576
-152.082
-511.863
-129.976
-15.1293
-96.8852
190.5
246.416
-92.8666
778.732
302.198
557.479
30.3826
-178.734
-189.287
-759.616
-617.41
-1740.88
-1712.5
-2772.94
-2787.84
-4238.12
-2118.21
-2375.65
-2302.7
-2264.22
-2233.15
-2211.1
-2199.62
-2192.52
-2190.89
-2200.07
-2212.24
-2224.69
-2250.06
-2280.54
-2305.24
-2340.07
-2392.17
-2438.49
-2467.31
-2517.32
-2610.77
-2678.11
-2699.48
-2745.47
-2864.3
-2961.87
-3018.11
-3117.57
-3155.72
-3263.44
-3405.14
-3525.43
-3711.17
-3894.81
-4197.34
-4540.22
-4981.81
-6463.7
-16522.3
-57899.8
-3501.1
-5534.52
-4855.75
-7060.21
-11176
-10209.1
-19879.9
-35536.6
-54770.2
-49572.8
-32230.9
-14323.7
-3130.62
3383.55
10148.7
16879.8
21965.9
24185.1
28913.9
35711.2
40211.3
42310.9
52457.8
56095.7
63075.9
66934.1
71253.9
73312.3
63020.4
56765.4
51450.9
44657.9
41427.4
36563.8
31982
28056.8
24066.9
21127.3
18461.4
15652.9
13728
11737.7
10954.6
9527.56
8291.93
7877.28
6654.39
5221.72
4028.87
2973.71
2175.9
1637.03
970.454
694.141
16.3727
-336.847
-792.813
-1160.58
-1273.85
-1529.32
-1256.97
-1101.73
-550.707
-471.046
-203.014
-21.8008
-438.269
-227.479
111.838
383.026
-183.449
-313.766
-888.039
-819.298
-1557.46
-1691.32
-2580.34
-2543.31
-4621
-2130.78
-2375.23
-2303.02
-2264.26
-2233.09
-2210.76
-2198.36
-2191.83
-2190.01
-2196.54
-2209.65
-2223.81
-2244.23
-2273.76
-2302.69
-2333.75
-2381.47
-2427.4
-2458.15
-2508.36
-2595.59
-2659.01
-2676.26
-2733.18
-2841.48
-2978.33
-3023.21
-3049.14
-3151.19
-3286.69
-3435.67
-3572
-3702.32
-3871.44
-4001.14
-4337.23
-4890
-7083.76
-22930.8
-47287
-4332.5
-5744.86
-5838.64
-7340.31
-11317.3
-7040.46
-10789.1
-18908.3
-29258.8
-48827.9
-44140.6
-22373.7
2764.75
13171.2
25313.4
30470.9
42742.8
45754.9
50724.9
61043.4
64281.8
72198.7
74356.2
72199.9
67537.5
57757.7
50885.4
47944.5
42469.2
37297.5
33663.5
28352.4
24344.7
21612.8
19242.4
16948.3
14633.2
12708.9
11241.9
9304.44
8652.72
7589.71
6951.59
5935.74
5019.54
4668.34
3811.52
3032.69
2003.64
1431.31
829.268
644.478
22.8929
-283.168
-736.08
-1069.74
-1470.87
-1765.23
-2181.33
-2282.79
-1853.14
-1717.43
-1250.78
-1033.73
-660.056
13.4028
-1044.35
-596.56
-561.678
122.082
-205.925
-417.741
-591.681
-635.973
-1173.41
-1557.45
-2532.32
-2406.54
-5085.35
-2129.04
-2361.32
-2290.73
-2252.23
-2221.71
-2199.61
-2186.48
-2181.1
-2178.96
-2183.6
-2198.09
-2212.45
-2229.56
-2259.26
-2289.66
-2318.64
-2361.75
-2403.62
-2445.07
-2496.05
-2562.05
-2618.68
-2659.79
-2715.88
-2820.44
-2951.51
-3002.2
-3007.42
-3139.65
-3278.69
-3454.25
-3581.74
-3687.2
-3869.1
-3741.83
-3836.1
-3780.16
-5572.34
-30047.3
-31951.1
-5889.6
-5191.88
-5666.85
-7442.23
-8871.27
-3103.98
-4976.98
-8471.36
-11896
-22184.1
-24300.9
-15740.3
10793
34482.3
50107.1
61445.7
68289.1
74057.6
81052.6
74898.1
68608.4
61421.6
52228.4
48921.3
44515.8
38889.4
33756.1
29509.2
25612.4
23049.6
20334.4
17417.4
15135.8
13368.5
12013.8
10341.6
9185.69
8134.86
7030.03
6491.57
5647.27
4915.38
4362.39
4020.81
3337.68
3279.62
2466.27
2210.29
1697.01
1300.52
636.828
270.219
-372.439
-975.763
-1564.4
-1971.95
-2449.92
-2572.29
-2612.48
-2882.9
-2663.13
-2286.1
-1845.61
-1548.46
-1379.52
-709.069
-40.1665
-1015.05
-648.817
-99.2565
31.3121
-557.779
-550.524
-766.047
-1314.2
-1368.17
-2263.23
-2051.07
-5221.06
-2113.68
-2334.58
-2266.42
-2228.77
-2199.4
-2178.12
-2164.85
-2160.27
-2158.43
-2162.29
-2177.16
-2191.25
-2207.09
-2236.57
-2266.87
-2295.07
-2333.71
-2376.53
-2419.25
-2468.86
-2524.12
-2576.48
-2633.45
-2694.2
-2785.4
-2882.54
-2956.4
-2988.99
-3105.09
-3258.15
-3450.19
-3645.17
-3724.81
-3805.94
-3991.73
-4253.63
-4957.27
-8153.41
-44555.5
-25271.5
-4967.97
-5291.84
-6834.64
-7749.47
-7242.16
1383.38
912.07
1186.36
2388.58
2178.19
5778.87
16750
39661.2
72963.7
81636.2
81546.1
72969.9
65650.4
57579.1
49980.2
44907.4
40354.7
34865.8
30693.5
27201.6
24798.3
21949.6
19206.7
16376.1
13943.1
12501.4
11288.1
10440.7
9621.69
8552.91
7499.31
6961.57
6191.47
5808.59
5680.2
4824.78
4112.04
3371.29
2990.01
2411.56
2439.28
1900.96
1663.1
1272.18
934.38
401.72
-383.25
-886.929
-1331.17
-1729.88
-2210.46
-2732.72
-3169.98
-3296.16
-3223.42
-2971.07
-2792.53
-2367.98
-1979.02
-1785.72
-1504.47
-281.29
-464.571
-561.63
-898.797
-378.482
-673.97
-571.878
-563.035
-1006.93
-1091.94
-2293.88
-1893.92
-5402
-2085.49
-2295.74
-2230.7
-2194.6
-2166.75
-2146.82
-2134.03
-2129.85
-2129.04
-2132.95
-2147.18
-2161.55
-2177.18
-2205.25
-2236
-2262.73
-2296.92
-2341.04
-2386.71
-2430.49
-2478.28
-2532.06
-2596.61
-2654.74
-2735.19
-2816.56
-2910.03
-2957.61
-3080.1
-3213.49
-3389.86
-3626.82
-3769.85
-3957.46
-4267.06
-4557.32
-5507.99
-10403.3
-41906.5
-18814.6
-7009.88
-7146.11
-6232.65
-5359.13
-4981.5
3441.97
3695.74
5567.58
10599.2
24343
47499.3
82667.9
99623
78587.1
62602.4
53162.8
47345.3
41494.7
35588.4
30341.6
27427
25503.3
23004.7
20352.9
18170.3
16231.3
15161.5
13876.9
12762.3
11106.5
9571.72
8606.25
7877.84
7410.31
6487.25
5911.1
5383.39
4873.42
4662.95
4349.62
3632.79
3161.91
2711.85
2439.22
1876.05
1904.31
1681.28
1706.76
1209.8
747.42
123.779
-696.393
-1089.27
-1659.15
-2122.01
-2697.43
-2898.38
-3344.5
-3508.45
-3427.99
-3369.45
-3244.86
-2919.67
-2443.72
-2029.5
-1589.22
-1359.29
-612.826
-77.358
-474.69
-371.574
-223.507
-505.868
-754.244
-1189.6
-988.426
-2123.62
-1500.77
-5319.94
-2045.32
-2245.59
-2184.32
-2150.39
-2124.44
-2106.18
-2094.41
-2090.77
-2091.14
-2095.64
-2108.73
-2124
-2140.14
-2165.77
-2196.86
-2222.69
-2253.37
-2299.25
-2345.09
-2382.47
-2427.92
-2483.35
-2547.78
-2600.86
-2671.41
-2746.6
-2845.42
-2915.35
-3019.13
-3163.49
-3291.16
-3490.15
-3777.95
-3955.56
-4223
-4659.89
-6110.42
-15155.5
-44261.6
-3063.9
-3414.66
-3611.57
-3540.65
-3342.92
-3205.42
5776.28
9850.32
18532.5
38762
71608.5
113644
127047
81848
56777.9
43703.2
35644.5
29700.8
25457.4
22539.4
20316.1
18386.8
16942.9
15931.7
14784.2
14233
12092.9
11432.8
10697.9
10288.5
9983.96
9261.01
8284.83
7764.15
7291.3
6788.21
6766.89
5927.72
5523.52
5093.04
4439.04
3848.63
3230.19
2813.47
2560.58
1992.96
1830.45
1527.12
1733.11
1095.66
289.852
-347.193
-993.956
-1302.81
-1869.54
-2183.92
-2615.03
-2831.48
-3495.79
-3500.76
-3423.94
-3456.17
-3260.16
-2871.67
-2422.4
-2201.54
-1729.01
-1226.87
-1151.98
-606.858
-335.445
-555.293
-366.584
-622.518
-713.54
-737.878
-654.736
-2195.39
-1540.92
-5454.53
-1994.13
-2185
-2128.04
-2096.8
-2073.16
-2056.85
-2046.52
-2043.77
-2045.33
-2050.56
-2062.84
-2079.06
-2095.88
-2119.22
-2149.42
-2175.88
-2204.71
-2250.13
-2293.06
-2326.63
-2370.41
-2427.77
-2486.63
-2540.43
-2595.36
-2661.13
-2781.15
-2864.15
-2921.06
-3073.36
-3208.45
-3316.05
-3581.31
-3817.04
-4186.4
-4579.16
-6330.61
-20319.8
-39522.9
-5865.77
-5217.48
-4634.19
-4137.18
-3400.35
-2136.61
11611
22223.1
43361.6
79336.1
135055
134326
84224.9
56434.6
39946.5
30637.8
24268.3
19793.1
16844.1
15261.3
14392.9
13643.1
12704.7
11754.9
11049.1
10807.8
10429.6
9664.73
9845.4
9276.93
9448.44
9277.77
8479.07
7844.1
7327.7
6873.13
6776.48
5883.52
5571.05
4902.49
4126.87
3880.85
3231.31
2799.32
2434.77
1888.18
1715.83
1201.4
1354.64
786.245
180.608
-411.168
-772.729
-1052.46
-1547.45
-1854.13
-2382.22
-2837.15
-3462.46
-3595.05
-3891.85
-3766.82
-3367.1
-2919.59
-2614.97
-2337.04
-2026.19
-1299.73
-808.539
-840.044
-456.332
-398.988
-181.067
-388.01
-697.195
-873.592
-735.301
-1985.95
-1059.78
-5566.84
-1932.88
-2114.87
-2062.69
-2034.59
-2013.61
-1999.48
-1990.93
-1989.34
-1992.19
-1998.15
-2010.24
-2027.23
-2044.48
-2066.12
-2095.29
-2122.9
-2150.69
-2192.1
-2232.94
-2265.37
-2305.17
-2364.58
-2422.11
-2467.75
-2512.99
-2562.86
-2689.86
-2808.7
-2832.33
-2934.16
-3078.91
-3158
-3335.76
-3448.74
-3756.38
-3869.35
-6541.82
-27914.9
-30286.3
-6589.17
-5144.91
-3877.35
-2574.48
160.239
5993.59
25963.2
50327.7
89422.3
138084
128509
83969.6
55055.2
38091.9
27862.1
21531.8
17309.8
14304.9
12547.2
11779.5
11386.7
11172
10791
10459
10121.2
9570.05
9621.84
9582.03
9781.35
9342.61
9847.76
10233.5
9353.92
8734.66
8269.39
7668.13
7538.65
6657.74
6274.95
5413.45
4633.5
4593.12
3799.4
3090.39
2586.21
2010.04
1899.41
1349.41
1451.38
1001.62
371.074
-227.158
-633.004
-1123.12
-1726.5
-2019.45
-2602.01
-3061.75
-3013.14
-3458.34
-3895.69
-3716.61
-3406.38
-3147.14
-2752.12
-2364.3
-2052.16
-1787.14
-1120.21
-926.588
-636.839
-519.51
-363.168
-305.531
-502.365
-489.399
-351.172
-1816.35
-890.432
-5578.13
-1862.62
-2036.13
-1989.1
-1964.52
-1946.47
-1934.77
-1928.25
-1928
-1932.27
-1939.12
-1951.33
-1968.94
-1986.45
-2006.87
-2035.54
-2063.51
-2090.05
-2126.73
-2166.99
-2200.21
-2234.15
-2291.62
-2344.31
-2382.32
-2426.4
-2473.53
-2563.36
-2709.45
-2784.74
-2787.26
-2907.12
-3045.09
-3247.01
-3352.57
-3717.28
-4403.37
-7605.87
-41811.8
-28008.9
-5119.9
-4383.39
-3266.73
614.647
7943.96
24465.2
54936.7
98161.7
150896
121315
79130.2
52526.1
36162.9
25881.3
19580.1
15520.9
12763.1
11008.9
10134.1
9754.51
9473.26
9170.78
8827.67
8512.26
8381.9
8145.62
8459.52
8690.11
8877.81
9414.46
9677.14
9941.39
9366.31
9252.06
8901.05
8186.66
7875.46
7244.39
6584.63
6018.57
5108.44
5090.78
4159.55
3278.55
2683.08
1785.83
1523.55
561.35
535.667
398.336
524.292
-53.1032
-727.528
-1112.01
-1501.34
-1841.93
-2475.04
-2808.96
-3250.73
-3843.36
-4057.05
-3749.9
-3482.9
-3243.23
-2816.69
-2413.77
-1957.15
-2038.32
-1348.64
-791.365
-761.641
-620.184
-571.565
-255.163
-374.668
-809.743
-756.173
-1404.05
-140.112
-5710.05
-1784.39
-1949.74
-1908.15
-1887.37
-1872.47
-1863.41
-1859.12
-1860.36
-1866.08
-1874.2
-1886.68
-1904.51
-1922.68
-1942.35
-1970.18
-1998
-2023.51
-2056.53
-2095.53
-2129.64
-2159.49
-2209
-2263.31
-2300.33
-2329.11
-2374.89
-2444.73
-2557.61
-2682.55
-2648.04
-2702.27
-2932.34
-3123
-3415.4
-3799.35
-4969.23
-11773.4
-46005.5
-11703
-3309.15
-2993.45
-501.243
7048.01
24883.6
62110.4
108050
146881
106364
71608.9
48091.9
33243
23697.5
17846.1
14112.8
11582.6
9826.32
8777.15
8409.29
8294.44
8207.61
8126.78
7974.21
7894.7
7870.85
7856.22
8020.14
8177.96
8142.08
8614.43
8911.83
8972.54
8786.49
8978.21
8724.61
8580.08
8228.31
7658.87
6505.14
6306.57
5077.7
4778.67
4163.34
3545.72
2747.24
1867.46
1591.96
624.451
571.049
342.968
521.169
-144.956
-900.39
-1237.12
-1696.14
-2217.46
-2896.26
-2982.76
-3375.93
-3676.26
-3912.81
-3752.55
-3652.54
-3428.15
-3100.57
-2548.99
-2184.31
-1818.83
-1619.49
-976.022
-1001
-687.847
-696.786
-416.688
-189.191
-427.727
-156.989
-1382.85
-177.801
-5906.65
-1699.26
-1856.66