/*--------------------------------*- C++ -*----------------------------------*\
| =========                 |                                                 |
| \\      /  F ield         | OpenFOAM: The Open Source CFD Toolbox           |
|  \\    /   O peration     | Version:  2.2.x                                 |
|   \\  /    A nd           | Web:      www.OpenFOAM.org                      |
|    \\/     M anipulation  |                                                 |
\*---------------------------------------------------------------------------*/
FoamFile
{
    version     2.0;
    format      ascii;
    class       volScalarField;
    location    "0.04";
    object      rho;
}
// * * * * * * * * * * * * * * * * * * * * * * * * * * * * * * * * * * * * * //

dimensions      [1 -3 0 0 0 0 0];

internalField   nonuniform List<scalar> 
1024
(
0.125
0.125
0.125
0.125
0.125
0.125
0.125
0.125
0.125
0.125
0.125
0.125
0.125
0.125
0.125
0.125
0.125
0.125
0.125
0.125
0.125
0.125
0.125
0.125
0.125
0.125
0.125
0.125
0.125
0.125
0.125
0.125
0.125
0.125
0.125
0.125
0.125
0.125
0.125
0.125
0.125
0.125
0.125
0.125
0.125
0.125
0.125
0.125
0.125
0.125
0.125
0.125
0.125
0.125
0.125
0.125
0.125
0.125
0.125
0.125
0.125
0.125
0.125
0.125
0.125
0.125
0.125
0.125
0.125
0.125
0.125
0.125
0.125
0.125
0.125
0.125
0.125
0.125
0.125
0.125
0.125
0.125
0.125
0.125
0.125
0.125
0.125
0.125
0.125
0.125
0.125
0.125
0.125
0.125
0.125
0.125
0.125
0.125
0.125
0.125
0.125
0.125
0.125
0.125
0.125
0.125
0.125
0.125
0.125
0.125
0.125
0.125
0.125
0.125
0.125
0.125
0.125
0.125
0.125
0.125
0.125
0.125
0.125
0.125
0.125
0.125
0.125
0.125
0.125
0.125
0.125
0.125
0.125
0.125
0.125
0.125
0.125
0.125
0.125
0.125
0.125
0.125
0.125
0.125
0.125
0.125
0.125
0.125
0.125
0.125
0.125
0.125
0.125
0.125
0.125
0.125
0.125
0.125
0.125
0.125
0.125
0.125
0.125
0.125
0.125
0.125
0.125
0.125
0.125
0.125
0.125
0.125
0.125
0.125
0.125
0.125
0.125
0.125
0.125
0.125
0.125
0.125
0.125
0.125
0.125
0.125
0.125
0.125
0.125
0.125
0.125
0.125
0.125
0.125
0.125
0.125
0.125
0.125
0.125
0.125
0.125
0.125
0.125
0.125
0.125
0.125
0.125
0.125
0.125
0.125
0.125
0.125
0.125
0.125
0.125
0.125
0.125
0.125
0.125
0.125
0.125
0.125
0.125
0.125
0.125
0.125
0.125
0.125
0.125
0.125
0.125
0.125
0.125
0.125
0.125
0.125
0.125
0.125
0.125
0.125
0.125
0.125
0.125
0.125
0.125
0.125
0.125
0.125
0.125
0.125
0.125
0.125
0.125
0.125
0.125
0.125
0.125
0.125
0.125
0.125
0.125
0.125
0.125
0.125
0.125
0.125
0.125
0.125
0.125
0.125
0.125
0.125
0.125
0.125
0.125
0.125
0.125
0.125
0.125
0.125
0.125
0.125
0.125
0.125
0.125
0.125
0.125
0.125
0.125
0.125
0.125
0.125
0.125
0.125
0.125
0.125
0.125
0.125
0.125
0.125
0.125
0.125
0.125
0.125
0.125
0.125
0.125
0.125
0.125
0.125
0.125
0.125
0.125
0.125
0.125
0.125
0.125
0.125
0.125
0.125
0.125
0.125
0.125
0.125
0.125
0.125
0.125
0.125
0.125
0.125
0.125
0.125
0.125
0.125
0.125
0.125
0.125
0.125
0.125
0.125
0.125
0.125
0.125
0.125
0.125
0.125
0.124999
0.124998
0.124997
0.124995
0.124992
0.124987
0.124978
0.124964
0.124943
0.12491
0.124862
0.124793
0.124694
0.124558
0.124372
0.124121
0.123783
0.123356
0.123001
0.122643
0.122436
0.122053
0.121875
0.121541
0.121307
0.120961
0.120661
0.120328
0.119982
0.119603
0.119128
0.11875
0.118345
0.11817
0.117772
0.117658
0.117329
0.117121
0.116803
0.116541
0.116297
0.116071
0.115948
0.115741
0.115733
0.115581
0.115551
0.115462
0.115431
0.115404
0.115392
0.115402
0.115397
0.11546
0.115523
0.115614
0.115674
0.11575
0.115802
0.115839
0.115888
0.115895
0.115923
0.115928
0.115936
0.115943
0.115925
0.115923
0.115908
0.115896
0.115879
0.115886
0.11589
0.115911
0.115936
0.115964
0.11599
0.116017
0.116029
0.116028
0.116029
0.116023
0.11601
0.115984
0.115949
0.115924
0.1159
0.115894
0.115902
0.115902
0.115909
0.115923
0.11593
0.115949
0.115962
0.115988
0.116004
0.116023
0.116028
0.116013
0.115984
0.115956
0.115918
0.115893
0.11587
0.115852
0.11586
0.116028
0.117133
0.126497
0.188052
0.25185
0.269924
0.271733
0.276332
0.274983
0.274986
0.274511
0.274222
0.273847
0.273748
0.273517
0.273414
0.273357
0.273329
0.273326
0.27322
0.273076
0.272894
0.272746
0.272671
0.272651
0.27302
0.274354
0.277451
0.284203
0.297559
0.322303
0.364802
0.430766
0.496676
0.547071
0.582559
0.605721
0.620046
0.628663
0.633915
0.637525
0.640103
0.641474
0.642039
0.642147
0.642074
0.64239
0.643048
0.644306
0.646345
0.647561
0.647689
0.646801
0.645026
0.644037
0.644111
0.645521
0.649185
0.653896
0.658758
0.663571
0.667974
0.676516
0.688616
0.704453
0.724485
0.747942
0.772384
0.781007
0.806885
0.813703
0.728428
0.668011
0.650387
0.645904
0.644115
0.64372
0.642526
0.640907
0.639786
0.639469
0.639708
0.64007
0.640422
0.641991
0.644834
0.647448
0.65096
0.656091
0.661268
0.666762
0.673259
0.680047
0.686797
0.694263
0.701697
0.709141
0.716883
0.724786
0.73267
0.740726
0.748776
0.756794
0.765055
0.773164
0.781656
0.790106
0.798707
0.807272
0.815937
0.824471
0.833289
0.842008
0.850984
0.859969
0.869064
0.878184
0.88734
0.896514
0.905706
0.914897
0.924015
0.932887
0.941466
0.949691
0.957478
0.964732
0.971357
0.977265
0.982396
0.986722
0.990254
0.993044
0.995173
0.996743
0.997863
0.998635
0.99915
0.999485
0.999695
0.999823
0.9999
0.999945
0.99997
0.999984
0.999992
0.999996
0.999998
0.999999
0.999999
1
1
1
1
1
1
1
1
1
1
1
1
1
1
1
1
1
1
1
1
1
1
1
1
1
1
1
1
1
1
1
1
1
1
1
1
1
1
1
1
1
1
1
1
1
1
1
1
1
1
1
1
1
1
1
1
1
1
1
1
1
1
1
1
1
1
1
1
1
1
1
1
1
1
1
1
1
1
1
1
1
1
1
1
1
1
1
1
1
1
1
1
1
1
1
1
1
1
1
1
1
1
1
1
1
1
1
1
1
1
1
1
1
1
1
1
1
1
1
1
1
1
1
1
1
1
1
1
1
1
1
1
1
1
1
1
1
1
1
1
1
1
1
1
1
1
1
1
1
1
1
1
1
1
1
1
1
1
1
1
1
1
1
1
1
1
1
1
1
1
1
1
1
1
1
1
1
1
1
1
1
1
1
1
1
1
1
1
1
1
1
1
1
1
1
1
1
1
1
1
1
1
1
1
1
1
1
1
1
1
1
1
1
1
1
1
1
1
1
1
1
1
1
1
1
1
1
1
1
1
1
1
1
1
1
1
1
1
1
1
1
1
1
1
1
1
1
1
1
1
1
1
1
1
1
1
1
1
1
1
1
1
1
1
1
1
1
1
1
1
1
1
1
1
1
1
1
1
1
1
1
1
1
1
1
1
1
1
1
1
1
1
1
1
1
1
1
1
1
1
1
1
1
1
1
1
1
1
1
1
1
1
1
1
1
1
1
1
1
1
1
1
1
1
1
1
1
1
1
1
1
1
1
1
1
1
1
1
1
1
1
1
1
1
1
1
1
1
1
1
1
1
1
1
1
1
1
1
1
1
1
1
1
1
1
1
1
1
1
1
1
1
1
1
1
1
1
1
1
1
1
1
1
1
1
1
1
1
1
1
1
1
1
1
1
1
1
1
1
1
1
1
1
1
1
1
1
1
1
1
1
1
1
1
1
1
1
1
1
1
1
)
;

boundaryField
{
    front-back
    {
        type            empty;
    }
    inlet-outlet
    {
        type            calculated;
        value           nonuniform List<scalar> 2(1 0.125);
    }
    top-down
    {
        type            empty;
    }
}


// ************************************************************************* //
