/*--------------------------------*- C++ -*----------------------------------*\
| =========                 |                                                 |
| \\      /  F ield         | OpenFOAM: The Open Source CFD Toolbox           |
|  \\    /   O peration     | Version:  2.2.x                                 |
|   \\  /    A nd           | Web:      www.OpenFOAM.org                      |
|    \\/     M anipulation  |                                                 |
\*---------------------------------------------------------------------------*/
FoamFile
{
    version     2.0;
    format      ascii;
    class       surfaceScalarField;
    location    "0.5";
    object      cfmax;
}
// * * * * * * * * * * * * * * * * * * * * * * * * * * * * * * * * * * * * * //

dimensions      [0 3 -1 0 0 0 0];

internalField   nonuniform List<scalar> 
28084
(
0.00124496
0.00123929
0.0012348
0.00123095
0.00122789
0.0012255
0.00122379
0.00122267
0.00122213
0.00122211
0.00122257
0.00122348
0.00122476
0.00122639
0.00122831
0.00123049
0.00123286
0.00123541
0.00123808
0.00124082
0.0012436
0.00124636
0.00124916
0.00125184
0.00125448
0.00125699
0.00125932
0.00126148
0.00126349
0.00126536
0.00126697
0.00126834
0.00126946
0.00127035
0.00127099
0.00127135
0.00127144
0.00127126
0.00127082
0.00127013
0.00126916
0.00126788
0.00126625
0.00126427
0.00126204
0.00127735
0.00129329
0.00130971
0.00132649
0.00134344
0.00136046
0.00137694
0.00139352
0.00140813
0.00142362
0.00143434
0.00144318
0.000945052
0.000779484
0.000755747
0.000781811
0.000829351
0.000879409
0.000922423
0.000964483
0.00100003
0.00103484
0.00106717
0.00109553
0.0011156
0.00113008
0.00113978
0.00114352
0.00114151
0.00111967
0.00107759
0.00103577
0.00096341
0.000897504
0.000827255
0.000783371
0.000753365
0.0007263
0.000710422
0.000697299
0.00068597
0.000677291
0.00067128
0.00066648
0.000661124
0.000654768
0.000647607
0.000639976
0.000632217
0.00062417
0.000616919
0.000610369
0.000605209
0.000600705
0.000597389
0.000594592
0.000592871
0.000591768
0.000592073
0.000593195
0.000596116
0.000600171
0.000605781
0.000612139
0.000620338
0.000629526
0.000640976
0.000653708
0.00066818
0.00068484
0.000704036
0.000727551
0.000762447
0.00359672
0.0035902
0.00125083
0.00357746
0.00124896
0.00355694
0.00124822
0.00352926
0.00124808
0.00349452
0.0012487
0.00345305
0.00124994
0.00340515
0.00125181
0.00335121
0.00125424
0.00329163
0.00125721
0.00322707
0.00126065
0.00315809
0.00126454
0.00308482
0.0012688
0.00300778
0.00127341
0.00292746
0.00127829
0.00284437
0.00128341
0.00275899
0.00128872
0.00267181
0.00129416
0.0025833
0.00129969
0.00249391
0.00130526
0.00240401
0.00131085
0.00231405
0.00131636
0.00222441
0.00132184
0.00213538
0.00132715
0.00204733
0.00133233
0.00196048
0.00133734
0.00187509
0.00134213
0.00179136
0.00134667
0.00170953
0.00135095
0.00162981
0.00135497
0.00155223
0.00135873
0.00147692
0.00136215
0.00140398
0.00136522
0.0013335
0.00136795
0.00126552
0.00137034
0.00120006
0.00137239
0.00113714
0.00137409
0.00107702
0.00137542
0.00101943
0.00137639
0.000964367
0.00137702
0.000911751
0.00137732
0.000861533
0.00137724
0.000813642
0.00137676
0.000768032
0.00137581
0.000724646
0.00137449
0.00073283
0.00137285
0.000733187
0.00138731
0.000733661
0.00140232
0.000734119
0.00141785
0.000734645
0.00143357
0.000735043
0.00144951
0.000735473
0.00146533
0.000735592
0.0014809
0.000735456
0.0014968
0.000734853
0.00151129
0.000733328
0.00152762
0.000722717
0.00153881
0.000701828
0.00155424
0.000598965
0.00105535
0.000528881
0.000881447
0.000542264
0.000862681
0.000573562
0.000887691
0.000593146
0.000928197
0.000603642
0.000965396
0.00061473
0.00100281
0.00062784
0.00104253
0.000639652
0.0010755
0.000650158
0.00110738
0.000657953
0.00113422
0.000664848
0.00115795
0.000669757
0.00117597
0.000672771
0.00118638
0.000672514
0.00119201
0.000674626
0.00119251
0.000678961
0.00118124
0.000683147
0.00117083
0.000688869
0.001154
0.000680698
0.00111504
0.000652152
0.00107484
0.000632279
0.00103008
0.000596871
0.000970113
0.000578245
0.000915441
0.000565677
0.000865935
0.000557641
0.000821433
0.00055152
0.000790245
0.00055134
0.000763091
0.000552764
0.000740563
0.000555721
0.00072604
0.000560123
0.000715874
0.000564768
0.000707923
0.000569287
0.000700563
0.000573617
0.000692885
0.000577773
0.000684691
0.000581567
0.000676111
0.00058547
0.000667257
0.000588639
0.00065784
0.000592498
0.000648936
0.000595709
0.000640781
0.000599719
0.000633877
0.000603338
0.000627805
0.00060717
0.000622807
0.000610701
0.000618464
0.000614108
0.000615296
0.000617768
0.000612936
0.000621612
0.0006116
0.000625091
0.000610907
0.000629003
0.000612215
0.000633653
0.000615036
0.000638154
0.000619512
0.000642841
0.000625111
0.000646941
0.000632395
0.000651835
0.000640774
0.000656496
0.000651073
0.000662631
0.000662742
0.000668315
0.000676212
0.000675998
0.00069149
0.000684908
0.000709027
0.000700973
0.0007303
0.000734317
0.000760738
0.0035978
0.00359084
0.00125866
0.00357767
0.00126055
0.00355674
0.00126352
0.00352867
0.00126704
0.00349356
0.00127128
0.00345174
0.00127611
0.00340459
0.00128153
0.0033516
0.00128747
0.00329289
0.0012939
0.00322893
0.00130077
0.00316016
0.00130804
0.00308709
0.00131563
0.0030102
0.00132352
0.00293003
0.00133161
0.00284702
0.00133992
0.00276173
0.0013483
0.00267459
0.00135679
0.00258611
0.00136527
0.0024967
0.00137374
0.00240679
0.00138208
0.00231684
0.00139033
0.0022271
0.00139846
0.00213799
0.00140632
0.00204982
0.00141394
0.00196289
0.00142129
0.00187737
0.00142839
0.00179353
0.00143511
0.00171158
0.00144147
0.00163168
0.00144746
0.00155395
0.00145311
0.00147847
0.00145833
0.00140536
0.00146311
0.00133469
0.00146744
0.00126652
0.00147134
0.00120088
0.0014748
0.00113777
0.00147783
0.00107718
0.00148043
0.00101911
0.00148257
0.000964132
0.00148428
0.000911719
0.00148557
0.000861701
0.00148644
0.000814013
0.00148686
0.000768608
0.00148677
0.000725431
0.00148619
0.000742006
0.00148519
0.000742697
0.00149882
0.000743463
0.00151305
0.00074418
0.00152771
0.000744898
0.00154282
0.000745474
0.00155822
0.000745903
0.00157356
0.000746184
0.0015888
0.000746553
0.00160422
0.000745995
0.00161849
0.000746417
0.00163531
0.000729791
0.00164519
0.000791327
0.00167039
0.000667624
0.00129726
0.000558703
0.0010041
0.000589667
0.00098034
0.000618745
0.00101844
0.000630401
0.00106916
0.000641157
0.00110695
0.000646425
0.00113801
0.000655219
0.00117234
0.000660587
0.00119879
0.000667903
0.00122589
0.000670057
0.00124895
0.000673609
0.00126726
0.000674931
0.0012843
0.000675582
0.00129587
0.000674117
0.00130153
0.000679253
0.00130307
0.000685209
0.0012923
0.000706178
0.0012692
0.000720697
0.00124968
0.000731455
0.0012322
0.000734957
0.00121663
0.000715767
0.00119371
0.000694165
0.00115222
0.00066864
0.00110301
0.000633437
0.00104131
0.000611327
0.000969896
0.000590171
0.000903413
0.000577501
0.000850592
0.000569181
0.00080996
0.000566284
0.000785574
0.00056735
0.000768982
0.000570747
0.00075637
0.000575245
0.000745809
0.000579739
0.00073535
0.000584095
0.000724865
0.000588168
0.000713854
0.000592199
0.000702953
0.000595316
0.000691847
0.000599138
0.000681291
0.000601833
0.000671289
0.000605676
0.000662466
0.000608632
0.000654716
0.000612461
0.000647979
0.000615255
0.000642131
0.000618382
0.000637576
0.000621693
0.000633884
0.000625701
0.000631492
0.000628731
0.000629769
0.000632534
0.000629397
0.000636458
0.000630694
0.00064093
0.000633981
0.000645239
0.000638561
0.000649777
0.000644747
0.00065487
0.00065209
0.000660102
0.00066147
0.000666399
0.0006722
0.000673093
0.000684647
0.000681097
0.000698914
0.000690618
0.000714915
0.000705965
0.000733585
0.000741638
0.000760115
0.00359665
0.00358927
0.00126846
0.0035757
0.00127405
0.00355439
0.00128067
0.00352759
0.00128781
0.00349437
0.00129562
0.00345433
0.00130399
0.00340776
0.00131291
0.00335505
0.00132231
0.00329659
0.00133217
0.00323284
0.00134242
0.00316426
0.00135302
0.00309135
0.00136391
0.00301459
0.00137503
0.00293451
0.00138632
0.00285156
0.00139773
0.0027663
0.0014092
0.00267918
0.00142065
0.00259068
0.00143208
0.0025012
0.00144339
0.00241122
0.00145451
0.00232117
0.00146545
0.00223133
0.00147615
0.00214209
0.00148654
0.00205375
0.0014966
0.00196666
0.00150628
0.00188096
0.00151559
0.00179692
0.00152443
0.0017148
0.00153286
0.00163469
0.00154085
0.00155675
0.00154834
0.00148104
0.0015553
0.00140769
0.00156173
0.00133679
0.00156763
0.00126839
0.00157301
0.00120252
0.00157787
0.00113919
0.0015822
0.00107837
0.001586
0.00102007
0.00158926
0.000964263
0.001592
0.000911217
0.00159424
0.000861432
0.00159596
0.000814009
0.00159708
0.000768856
0.00159764
0.000725951
0.00159763
0.000750963
0.00159716
0.000751981
0.00160987
0.000752976
0.0016231
0.000753981
0.00163668
0.000754948
0.0016506
0.000755937
0.00166485
0.000756785
0.00167926
0.000757769
0.00169402
0.000758372
0.00170909
0.000759362
0.001724
0.00075615
0.00173932
0.000734214
0.00175228
0.000878122
0.00177561
0.000757812
0.00169532
0.000575259
0.0011695
0.000648717
0.00114014
0.000688964
0.00117767
0.000703751
0.00124719
0.000709658
0.00128358
0.000705066
0.00130697
0.000712109
0.00133559
0.000710301
0.0013576
0.000714906
0.00137562
0.000710721
0.00139472
0.000710194
0.00140711
0.000706928
0.00141818
0.000706156
0.00142463
0.000701418
0.00143092
0.000715077
0.00142843
0.000719413
0.00142767
0.000735051
0.00139551
0.00075402
0.00137665
0.000778767
0.00136327
0.000789981
0.00135149
0.000796311
0.00133901
0.000788502
0.00131689
0.00077316
0.00128041
0.000746123
0.00123513
0.000712274
0.00117397
0.000663376
0.00110481
0.000627269
0.00101999
0.000601681
0.000939421
0.000590445
0.000891181
0.000586583
0.000859662
0.000587334
0.000836669
0.000591152
0.000819018
0.000594767
0.000803156
0.000598519
0.00078711
0.000600764
0.000770538
0.000604295
0.00075548
0.000606512
0.000741123
0.000609382
0.000727714
0.000611639
0.000714674
0.00061439
0.000702695
0.000616771
0.00069154
0.000619878
0.000682254
0.000622057
0.000673994
0.00062478
0.000667463
0.000627066
0.000662353
0.000630828
0.00065876
0.000633278
0.0006556
0.000636501
0.000653484
0.000639596
0.000652905
0.000644015
0.000654426
0.000648061
0.000657414
0.00065293
0.000661969
0.000658047
0.000667802
0.000664112
0.000675742
0.000670931
0.000685127
0.000678607
0.00069631
0.000687251
0.000709274
0.000697706
0.000723279
0.000712515
0.000738831
0.0007505
0.000761347
0.0035933
0.00358678
0.00128023
0.00357616
0.00128945
0.0035577
0.00129968
0.00353198
0.00131037
0.00349909
0.00132171
0.00345936
0.00133355
0.00341306
0.00134592
0.0033606
0.00135873
0.00330237
0.00137197
0.00323881
0.00138555
0.0031704
0.00139944
0.0030976
0.00141357
0.00302094
0.00142788
0.0029409
0.00144232
0.002858
0.0014568
0.0027727
0.00147129
0.00268556
0.00148569
0.00259697
0.00150001
0.00250742
0.0015141
0.00241731
0.00152799
0.00232709
0.00154155
0.00223711
0.00155483
0.00214769
0.0015677
0.00205912
0.00158015
0.0019718
0.0015921
0.00188585
0.00160365
0.00180157
0.00161465
0.00171921
0.0016251
0.00163883
0.00163499
0.00156059
0.00164428
0.0014846
0.00165306
0.00141097
0.00166119
0.00133979
0.00166867
0.0012711
0.00167552
0.00120494
0.00168177
0.00114132
0.00168741
0.0010802
0.00169245
0.00102161
0.00169688
0.000965519
0.00170072
0.000911894
0.00170396
0.000860652
0.00170661
0.000813508
0.00170865
0.000768642
0.00171013
0.000726033
0.00171105
0.000759572
0.00171136
0.000760886
0.00172348
0.000762155
0.00173607
0.00076338
0.00174914
0.000764488
0.00176277
0.000765617
0.00177655
0.00076653
0.00179014
0.00076756
0.00180379
0.000768481
0.00181694
0.000769666
0.00183035
0.000768449
0.00184443
0.000764406
0.00186334
0.000842277
0.00188304
0.000855534
0.00191742
0.000634568
0.00143034
0.00072032
0.00130411
0.000756367
0.00136872
0.000769722
0.00143205
0.000766349
0.00145721
0.000753887
0.0014676
0.000754029
0.00148115
0.000743615
0.00149211
0.000742554
0.00149231
0.000733653
0.00150595
0.000732592
0.00151408
0.000724689
0.00152467
0.000722924
0.00152675
0.00071587
0.00153175
0.000733102
0.00152619
0.000743944
0.00152503
0.000764479
0.00150125
0.000787371
0.0014864
0.000813693
0.00147555
0.000829825
0.00146496
0.000845714
0.00145946
0.000848664
0.00143968
0.000848342
0.00141641
0.000836259
0.00138984
0.000822132
0.00135392
0.000786194
0.00131408
0.00073899
0.0012547
0.000678369
0.00117166
0.000643148
0.00108331
0.000624776
0.00101246
0.000618488
0.000962049
0.000618982
0.000924922
0.00062024
0.000893796
0.000621854
0.000866855
0.000622629
0.000842547
0.000624121
0.000818554
0.00062337
0.000795644
0.000625104
0.000776575
0.000624977
0.000758958
0.000626522
0.000742935
0.000626615
0.000727453
0.000628836
0.00071367
0.000629556
0.000701405
0.000631148
0.000691723
0.000632692
0.000684181
0.000636323
0.000678645
0.000638406
0.000673463
0.00064147
0.000669583
0.000643756
0.00066707
0.000648139
0.00066719
0.000651925
0.000668926
0.000657216
0.000672406
0.000662157
0.000677275
0.000668721
0.000684154
0.000676017
0.000692713
0.000685003
0.000703096
0.000695177
0.000715409
0.000707808
0.000728235
0.000723739
0.000742355
0.000762285
0.00076332
0.00359628
0.00359233
0.00129398
0.00358207
0.00130677
0.00356395
0.00132053
0.00353855
0.00133471
0.00350597
0.00134951
0.00346652
0.00136478
0.00342049
0.00138054
0.00336825
0.0013967
0.00331022
0.00141325
0.00324682
0.00143011
0.00317853
0.00144724
0.00310583
0.00146456
0.00302922
0.00148201
0.0029492
0.00149953
0.00286628
0.00151705
0.00278094
0.00153449
0.00269369
0.00155184
0.002605
0.00156895
0.0025153
0.00158582
0.00242503
0.00160237
0.00233462
0.00161859
0.00224439
0.00163437
0.00215472
0.00164967
0.00206591
0.00166448
0.00197829
0.00167874
0.0018921
0.0016924
0.00180753
0.00170551
0.0017248
0.00171795
0.00164408
0.00172971
0.00156553
0.00174081
0.00148924
0.00175127
0.00141529
0.00176102
0.00134377
0.00177002
0.00127474
0.00177831
0.00120824
0.00178591
0.00114426
0.00179279
0.00108282
0.00179898
0.00102391
0.00180449
0.000967491
0.00180931
0.000913523
0.00181346
0.000861954
0.00181692
0.000812763
0.00181969
0.000768272
0.0018218
0.000726006
0.00182317
0.000768051
0.00182388
0.000769693
0.00183491
0.000771193
0.00184635
0.000772623
0.00185814
0.000774027
0.00187027
0.000775419
0.00188272
0.00077695
0.00189573
0.000778318
0.00190978
0.000779037
0.00192327
0.000780496
0.00193853
0.000780734
0.00195095
0.00078037
0.00196747
0.000743507
0.00197617
0.000867415
0.00201871
0.000700805
0.00182662
0.000779438
0.00147824
0.000795518
0.0014916
0.000800576
0.0015411
0.00079479
0.00156047
0.000781595
0.00156855
0.000772164
0.00157358
0.000757222
0.001575
0.000750256
0.00157325
0.00074371
0.00157067
0.000740571
0.00158678
0.000733102
0.00159516
0.000730034
0.00159802
0.000725532
0.00159628
0.000740491
0.00159894
0.000756357
0.00158454
0.000783727
0.00157661
0.000810398
0.00154995
0.000831403
0.00154173
0.000861337
0.00154166
0.000876881
0.00153571
0.000885059
0.00151969
0.000893962
0.00150612
0.000892692
0.0014933
0.000889351
0.00147389
0.000872909
0.00144766
0.000843116
0.00140366
0.000797307
0.00134168
0.000743031
0.00126363
0.000700913
0.00117081
0.000677096
0.00109989
0.000666285
0.00104114
0.000659452
0.000993893
0.000655953
0.000956127
0.000651613
0.00092286
0.000648481
0.000888217
0.000644871
0.000861193
0.000643171
0.000835899
0.00064096
0.00081289
0.000640827
0.0007919
0.000639394
0.000772293
0.000640801
0.000754541
0.000639798
0.000737429
0.000640153
0.000722362
0.000639451
0.000710481
0.000643104
0.00070144
0.000644934
0.000693849
0.000647673
0.000688059
0.000649258
0.000684328
0.000653372
0.000683081
0.000656565
0.000683358
0.000662157
0.000685465
0.000666848
0.000689014
0.000674099
0.000694793
0.000681822
0.000702021
0.000692303
0.000711234
0.000704459
0.000722665
0.000719015
0.000734939
0.00073606
0.000748107
0.000774479
0.000766512
0.00360373
0.00360012
0.00130971
0.00359018
0.001326
0.00357238
0.00134322
0.00354729
0.00136083
0.00351499
0.00137901
0.00347581
0.00139764
0.00343001
0.00141672
0.00337799
0.00143618
0.00332012
0.00145598
0.00325687
0.00147606
0.00318867
0.00149637
0.00311603
0.00151681
0.00303944
0.00153735
0.00295941
0.0015579
0.00287642
0.0015784
0.00279101
0.00159876
0.00270362
0.00161895
0.00261475
0.00163886
0.00252486
0.00165843
0.00243439
0.00167763
0.00234371
0.00169641
0.00225319
0.00171467
0.00216323
0.00173236
0.00207413
0.00174946
0.00198614
0.00176597
0.00189959
0.00178175
0.00181468
0.00179692
0.00173155
0.00181134
0.00165045
0.00182499
0.0015715
0.00183788
0.00149482
0.00185
0.00142048
0.00186136
0.00134856
0.00187192
0.00127914
0.00188169
0.00121224
0.00189068
0.00114786
0.0018989
0.00108603
0.00190632
0.00102673
0.00191298
0.00096992
0.00191888
0.000915577
0.00192404
0.000863632
0.00192849
0.000814037
0.00193222
0.000767312
0.00193526
0.000725416
0.00193758
0.000776026
0.00193934
0.000777919
0.00194985
0.000779659
0.00196091
0.000781263
0.00197235
0.000782733
0.00198397
0.00078419
0.00199572
0.000785708
0.00200714
0.000786815
0.00201823
0.000787714
0.0020279
0.000787758
0.0020387
0.000790758
0.00204886
0.000792727
0.00206369
0.000808423
0.00207986
0.000861978
0.0020822
0.000746265
0.00168174
0.000786761
0.00147924
0.000791254
0.00149715
0.00079851
0.00154418
0.000795925
0.00157292
0.000788584
0.00159735
0.000776984
0.00161125
0.000762668
0.0016176
0.000750224
0.00162304
0.000749834
0.00162646
0.000742002
0.00162946
0.000739316
0.00164399
0.000730778
0.00164407
0.000734267
0.001648
0.00074981
0.00164233
0.00076952
0.00164399
0.000793579
0.00161301
0.000822374
0.00159956
0.00085747
0.00159358
0.000880256
0.00160319
0.000894911
0.00159346
0.000908402
0.0015805
0.00092019
0.00157412
0.000924894
0.00156597
0.00092483
0.00154951
0.000916325
0.001523
0.000897274
0.00148638
0.000862461
0.00143264
0.000814037
0.0013588
0.000767723
0.00126395
0.000732131
0.0011804
0.000712967
0.00111451
0.000697893
0.00105942
0.000687392
0.00100913
0.000678554
0.000969044
0.000672989
0.000938149
0.000666918
0.000908894
0.000661382
0.000880894
0.000656146
0.000855068
0.000654621
0.000832067
0.000652623
0.000811768
0.000653082
0.000793554
0.000650482
0.000776765
0.000648215
0.000761958
0.000645455
0.000747664
0.000648937
0.000735352
0.000650736
0.000725358
0.000653762
0.000717028
0.000654615
0.000710643
0.000658548
0.000706464
0.000661397
0.000703912
0.000667024
0.000703199
0.000671482
0.000703728
0.000679802
0.000706629
0.000688014
0.000711175
0.000700049
0.000717915
0.000714248
0.000727506
0.000731295
0.000739114
0.000750763
0.000752057
0.000789482
0.000770049
0.00361341
0.00361012
0.00132744
0.00360048
0.00134714
0.00358298
0.00136774
0.00355817
0.0013887
0.00352615
0.0014102
0.00348721
0.00143212
0.00344163
0.00145445
0.00338979
0.00147713
0.00333207
0.00150012
0.00326892
0.00152335
0.0032008
0.00154676
0.00312819
0.00157028
0.00305159
0.00159384
0.0029715
0.00161736
0.00288842
0.00164076
0.00280287
0.00166399
0.00271531
0.00168697
0.00262623
0.0017096
0.0025361
0.00173183
0.00244535
0.00175364
0.00235434
0.00177492
0.00226352
0.00179555
0.00217319
0.00181565
0.00208373
0.00183505
0.00199536
0.0018537
0.00190839
0.00187157
0.00182307
0.00188873
0.00173954
0.00190506
0.00165801
0.00192053
0.00157862
0.00193515
0.00150149
0.00194897
0.00142672
0.00196192
0.00135437
0.00197394
0.00128452
0.00198505
0.00121719
0.0019953
0.00115239
0.00200469
0.00109013
0.00201325
0.00103041
0.00202096
0.000973186
0.00202783
0.000918427
0.00203387
0.000866062
0.00203906
0.000816046
0.00204343
0.00076831
0.00204694
0.000724804
0.00204956
0.000783865
0.00205149
0.000786012
0.00206089
0.000787975
0.00207055
0.000789738
0.00208055
0.000791357
0.00209073
0.000792743
0.00210103
0.000793972
0.00211137
0.000794983
0.00212181
0.000795613
0.00213175
0.00079573
0.00214108
0.000794834
0.00214808
0.000802034
0.00215539
0.000845444
0.00215457
0.00092166
0.00214077
0.000799923
0.00163056
0.000778466
0.00151816
0.000774511
0.00151943
0.000787109
0.00156883
0.000791378
0.00161256
0.000793633
0.00165
0.000782968
0.0016724
0.000770059
0.00168486
0.000763207
0.00169346
0.000751311
0.00169518
0.000749169
0.00169056
0.00074012
0.00170609
0.0007357
0.00170609
0.000737877
0.00170648
0.000760788
0.00169967
0.00077934
0.00170105
0.000809327
0.00167331
0.000834748
0.00165671
0.000874187
0.00164387
0.000894135
0.00165695
0.000911194
0.00164078
0.000922629
0.00162644
0.000933399
0.00161536
0.000939968
0.00160332
0.000937471
0.00158339
0.000931505
0.00154979
0.000914851
0.00150869
0.000886032
0.00144606
0.000849329
0.00136524
0.000806284
0.00128082
0.000767213
0.00119718
0.000745129
0.00113036
0.000726095
0.00107458
0.000712238
0.00102681
0.000700421
0.000988391
0.000692273
0.000955258
0.000683505
0.000924592
0.000675968
0.000896476
0.000669345
0.00086911
0.000667017
0.0008457
0.000664528
0.000825701
0.000664699
0.000808202
0.00066145
0.000792059
0.000659195
0.000777169
0.000655807
0.000764875
0.000658319
0.000754667
0.000659139
0.00074502
0.000661628
0.000736206
0.000661574
0.000728819
0.000665359
0.000723145
0.000667894
0.000718948
0.000673673
0.000716224
0.000677837
0.000714186
0.000686401
0.000714274
0.000694774
0.000716444
0.000708152
0.000721358
0.000724497
0.000729763
0.000744605
0.000741156
0.000765855
0.000755124
0.000804695
0.000774051
0.00362531
0.0036223
0.00134718
0.00361295
0.00137021
0.00359573
0.00139411
0.00357119
0.00141834
0.00353941
0.00144307
0.0035007
0.00146819
0.00345531
0.0014937
0.00340364
0.00151953
0.00334604
0.00154563
0.00328298
0.00157193
0.0032149
0.00159838
0.00314229
0.0016249
0.00306564
0.00165141
0.00298546
0.00167783
0.00290226
0.00170409
0.00281652
0.0017301
0.00272875
0.00175582
0.00263941
0.0017811
0.00254901
0.00180594
0.00245791
0.00183028
0.00236655
0.001854
0.00227535
0.00187703
0.00218466
0.0018994
0.00209472
0.00192101
0.00200591
0.00194177
0.00191847
0.00196175
0.00183267
0.00198088
0.00174865
0.00199905
0.0016666
0.0020163
0.00158674
0.00203261
0.00150915
0.00204807
0.00143386
0.00206263
0.00136099
0.00207615
0.0012906
0.00208869
0.00122275
0.00210029
0.00115745
0.00211095
0.0010947
0.0021207
0.00103449
0.00212956
0.000976788
0.00213752
0.000921553
0.00214461
0.000868723
0.00215085
0.000818252
0.00215623
0.000770059
0.00216072
0.000724122
0.00216435
0.000791105
0.00216719
0.000793464
0.00217609
0.000795601
0.00218554
0.000797457
0.00219504
0.000799115
0.00220458
0.000800476
0.00221402
0.000801635
0.0022232
0.000802429
0.00223158
0.000803061
0.00224036
0.000802689
0.00224895
0.000803625
0.00225733
0.000810965
0.00226489
0.000874505
0.00226655
0.000956326
0.00227539
0.00086319
0.00174564
0.000810563
0.00163053
0.00078133
0.00161206
0.000795903
0.00164578
0.000794235
0.00168077
0.00080013
0.00171001
0.000787149
0.00173946
0.00077448
0.0017535
0.000761798
0.00175614
0.000749541
0.00175333
0.000746293
0.00175658
0.00073824
0.00177005
0.000734052
0.00177063
0.000742675
0.0017686
0.000765433
0.0017606
0.000790978
0.00174797
0.000823576
0.001726
0.000848876
0.00170594
0.000885262
0.00168392
0.000901322
0.00169095
0.000915419
0.00166477
0.000924751
0.00164445
0.000931994
0.00162275
0.000935227
0.00159406
0.00092957
0.00155043
0.000923434
0.00149798
0.000904933
0.00143824
0.000877148
0.00136261
0.000849632
0.00129043
0.000816393
0.00122495
0.000783005
0.00116336
0.000762131
0.00111278
0.000744224
0.00106671
0.000730815
0.00102764
0.000717725
0.000996048
0.000708751
0.000966588
0.000698392
0.000937655
0.000691209
0.000910138
0.000684035
0.000883775
0.000680749
0.00086133
0.000677087
0.000841913
0.000676181
0.000824422
0.00067231
0.000808379
0.000669287
0.000793416
0.000664954
0.000780961
0.000666737
0.000770509
0.000666807
0.000759323
0.000669048
0.000750175
0.000668424
0.000742576
0.000672577
0.000736765
0.000675479
0.000732268
0.000681924
0.00072891
0.000685915
0.000726272
0.000694993
0.000725224
0.000703593
0.000725639
0.000717983
0.000728757
0.000735496
0.000734902
0.000757571
0.000745167
0.000780477
0.000759081
0.000819893
0.000778338
0.00363939
0.00363665
0.00136895
0.00362756
0.00139522
0.0036106
0.00142233
0.00358632
0.00144972
0.00355477
0.00147761
0.00351627
0.00150585
0.00347106
0.00153445
0.00341952
0.00156333
0.00336203
0.00159247
0.00329903
0.00162177
0.00323097
0.00165118
0.00315833
0.00168061
0.0030816
0.00170999
0.0030013
0.00173924
0.00291792
0.00176828
0.00283197
0.00179701
0.00274393
0.00182538
0.0026543
0.00185327
0.00256356
0.00188064
0.00247209
0.00190744
0.00238033
0.00193355
0.00228869
0.00195889
0.00219752
0.0019835
0.00210708
0.00200726
0.0020178
0.00203009
0.00192988
0.00205213
0.0018435
0.00207318
0.00175893
0.00209318
0.00167633
0.00211216
0.00159592
0.00213009
0.00151779
0.0021471
0.00144197
0.00216315
0.00136858
0.0021781
0.00129768
0.00219198
0.00122931
0.00220482
0.00116348
0.00221663
0.00110021
0.00222744
0.00103948
0.00223727
0.000981284
0.00224614
0.000925529
0.00225402
0.000872194
0.0022609
0.000821201
0.0022668
0.000772536
0.00227169
0.000726126
0.00227561
0.000798311
0.00227881
0.000800891
0.00228669
0.00080321
0.00229476
0.00080518
0.00230294
0.00080689
0.00231118
0.000808247
0.00231936
0.000809338
0.00232751
0.000809965
0.00233542
0.000810102
0.00234259
0.00080929
0.00234778
0.000810811
0.00235366
0.000823517
0.00235576
0.000934796
0.00236274
0.00100693
0.00236163
0.000928694
0.00189515
0.000856943
0.00180517
0.00081108
0.0017702
0.000817959
0.00177404
0.000799312
0.00176905
0.000804188
0.00176763
0.000784314
0.00179938
0.000776182
0.0018127
0.000755494
0.00181269
0.000748019
0.00180758
0.000744642
0.00183358
0.000736681
0.00183796
0.000731642
0.00183438
0.000749659
0.00181816
0.000766551
0.00180478
0.000796797
0.00176142
0.00082875
0.00173045
0.000851576
0.00169332
0.000881189
0.00166164
0.000888209
0.00163602
0.000895751
0.00159073
0.000899091
0.00155077
0.000900706
0.00150693
0.000896084
0.00146062
0.000884685
0.00140663
0.0008728
0.00135141
0.000857213
0.00130103
0.000840988
0.00125429
0.000823433
0.00120878
0.00080049
0.00116498
0.000779812
0.00112585
0.000764333
0.0010909
0.000751523
0.00105805
0.00073956
0.00102929
0.000727385
0.00100445
0.000719424
0.00097855
0.000710158
0.000951832
0.000703758
0.000925078
0.000696125
0.00089945
0.000692124
0.000877084
0.00068757
0.000856964
0.000686182
0.000838637
0.000682223
0.000821098
0.000678706
0.000805418
0.000673625
0.000791744
0.000675427
0.000780262
0.000675287
0.000768038
0.000677648
0.000757929
0.000676725
0.000749834
0.000680985
0.000743377
0.000683825
0.000738204
0.000690752
0.000734453
0.000695305
0.000731671
0.000705238
0.000730306
0.00071417
0.000730071
0.000729305
0.000732171
0.000747278
0.000737137
0.000770797
0.000747117
0.000797113
0.000761756
0.00083565
0.000783155
0.00365562
0.00365313
0.00139278
0.0036443
0.00142218
0.00362758
0.00145239
0.00360353
0.00148287
0.0035722
0.0015138
0.00353389
0.00154507
0.00348884
0.00157667
0.00343742
0.00160853
0.00338002
0.0016406
0.00331705
0.00167281
0.00324897
0.00170509
0.00317627
0.00173737
0.00309944
0.00176954
0.00301897
0.00180154
0.00293539
0.00183327
0.00284918
0.00186466
0.00276085
0.0018956
0.00267086
0.00192601
0.00257974
0.00195585
0.00248784
0.00198504
0.00239562
0.00201343
0.0023035
0.00204106
0.00221179
0.00206787
0.00212084
0.00209371
0.00203101
0.00211857
0.00194253
0.0021425
0.00185559
0.00216542
0.00177041
0.00218724
0.00168717
0.00220796
0.00160612
0.00222759
0.00152737
0.00224612
0.00145094
0.00226362
0.00137695
0.00227997
0.00130544
0.0022952
0.00123645
0.00230932
0.00117003
0.00232235
0.00110614
0.00233436
0.00104482
0.00234536
0.000986041
0.00235533
0.000929713
0.00236424
0.000875828
0.00237207
0.00082431
0.00237887
0.000775067
0.00238473
0.000728144
0.00238966
0.000804719
0.00239372
0.000807471
0.00240123
0.000809912
0.00240924
0.00081191
0.00241668
0.000813593
0.00242418
0.000814888
0.00243116
0.000815892
0.0024376
0.000816412
0.00244377
0.000816339
0.00245102
0.000815722
0.00245757
0.000818878
0.0024668
0.000835834
0.00247376
0.00103462
0.00247027
0.00103061
0.00220405
0.000989116
0.00199119
0.000942114
0.00195362
0.000880108
0.0019177
0.000841334
0.00186642
0.000811895
0.00186407
0.000804952
0.001856
0.000788866
0.00186021
0.000770118
0.00185985
0.000753117
0.00186413
0.000748464
0.00187089
0.000741859
0.0018614
0.000729223
0.00188076
0.000723773
0.00185105
0.000733958
0.00177128
0.000749025
0.00170536
0.000775044
0.00163091
0.000796276
0.00156409
0.000816304
0.00152155
0.000829958
0.0014886
0.00082932
0.00145833
0.000829363
0.00141889
0.000828948
0.00138573
0.000828829
0.00135249
0.000828089
0.00132051
0.000828942
0.00128725
0.000829278
0.00125952
0.000827
0.00123578
0.00082201
0.0012102
0.000806119
0.00118123
0.000790376
0.00114662
0.000773292
0.00111521
0.000762894
0.00108435
0.000753565
0.00105576
0.00074457
0.00103171
0.000736275
0.00100831
0.00073134
0.00098438
0.000722956
0.000960272
0.000716039
0.000934944
0.000708509
0.000912557
0.000703687
0.000891926
0.000698168
0.000872199
0.000696243
0.000854031
0.000691714
0.000835427
0.000688005
0.000819224
0.000682468
0.000803659
0.00068444
0.000789926
0.000684045
0.00077663
0.000686469
0.000765713
0.000685447
0.000757188
0.000689877
0.000750101
0.000692326
0.000744194
0.000699557
0.000739635
0.00070468
0.000736037
0.000715459
0.00073383
0.00072537
0.000732939
0.000741759
0.000734496
0.000759539
0.00073913
0.000784509
0.000748796
0.000811459
0.000763855
0.000851324
0.00078785
0.00367399
0.00367172
0.00141869
0.00366312
0.00145111
0.00364664
0.00148432
0.0036228
0.00151776
0.00359168
0.00155165
0.00355354
0.00158584
0.00350863
0.00162034
0.00345732
0.00165507
0.00339997
0.00169
0.00333702
0.00172502
0.00326891
0.00176009
0.00319612
0.0017951
0.00311915
0.00182998
0.00303849
0.00186464
0.00295466
0.00189898
0.00286815
0.00193292
0.00277947
0.00196637
0.00268911
0.00199924
0.00259753
0.00203147
0.00250517
0.00206296
0.00241243
0.00209362
0.0023198
0.00212338
0.00222752
0.00215231
0.00213598
0.00218021
0.00204551
0.00220707
0.00195639
0.00223287
0.00186882
0.00225757
0.00178299
0.00228109
0.00169917
0.0023034
0.00161747
0.00232464
0.00153804
0.00234475
0.00146097
0.00236366
0.00138632
0.00238135
0.00131415
0.00239781
0.00124452
0.00241307
0.00117747
0.00242715
0.00111301
0.00244014
0.00105109
0.00245209
0.000991716
0.00246288
0.000934793
0.00247252
0.000880317
0.00248101
0.000828233