/*--------------------------------*- C++ -*----------------------------------*\
| =========                 |                                                 |
| \\      /  F ield         | OpenFOAM: The Open Source CFD Toolbox           |
|  \\    /   O peration     | Version:  2.2.x                                 |
|   \\  /    A nd           | Web:      www.OpenFOAM.org                      |
|    \\/     M anipulation  |                                                 |
\*---------------------------------------------------------------------------*/
FoamFile
{
    version     2.0;
    format      ascii;
    class       volScalarField;
    location    "0.5";
    object      pB;
}
// * * * * * * * * * * * * * * * * * * * * * * * * * * * * * * * * * * * * * //

dimensions      [1 1 -3 0 0 -1 0];

internalField   nonuniform List<scalar> 
14161
(
-0.00113367
0.00023161
-0.000157169
-7.72091e-05
-0.000170788
-0.000178976
-0.000229517
-0.000254514
-0.000299342
-0.000335437
-0.000375933
-0.000423051
-0.000460084
-0.000511003
-0.000548442
-0.00060085
-0.000634765
-0.000685024
-0.000719877
-0.000746744
-0.000807234
-0.000799649
-0.000850141
-0.000855211
-0.000883691
-0.000874108
-0.000893632
-0.000878857
-0.000851048
-0.0008445
-0.000814917
-0.000773253
-0.000721868
-0.000667386
-0.000591729
-0.000494096
-0.000382473
-0.000281553
-0.000206674
-0.000144026
-9.12954e-05
2.02139e-05
0.000203913
0.000506641
0.000702862
0.000926988
0.000973557
0.00107096
0.00107119
0.00117887
0.00151163
0.00258411
0.00267092
0.00758961
0.00135299
0.0208022
-0.00580794
0.0500737
0.051516
0.0031485
0.0163438
-0.000782996
-0.00173027
0.00768231
-0.0103363
0.000149857
0.00445982
-0.000813459
-0.00690003
-0.00333272
0.00370154
0.00264777
-0.00380016
-0.017078
-0.00723007
0.0342056
-0.00602923
-0.0191518
0.0176767
-0.0063895
0.0127053
-0.0206596
0.0174689
-0.001785
-0.00738376
0.00645283
-0.000366945
0.00142276
-0.00210215
-2.72302e-05
-0.00148921
0.000517069
-0.000538182
0.00234879
-0.00391833
0.0034862
-0.00454737
0.00319003
-0.0036523
0.00290754
-0.00233069
0.00268547
-0.00356332
0.00350956
-0.0040659
0.00429764
-0.0053869
0.00530049
-0.00729288
0.00635021
-0.00735199
0.00715949
-0.00870327
0.00892211
-0.0100771
0.0103524
-0.011312
0.0121793
-0.0123992
-0.00113506
0.000232495
-0.00015761
-7.72825e-05
-0.000170988
-0.000179154
-0.000229399
-0.000254822
-0.000300232
-0.000332826
-0.000382086
-0.000415964
-0.000467023
-0.000506419
-0.000552858
-0.00059891
-0.000638157
-0.000681103
-0.000720129
-0.000761929
-0.000774135
-0.000831743
-0.000839707
-0.000853831
-0.000884735
-0.00088433
-0.000894616
-0.000875091
-0.000862651
-0.000844765
-0.000810574
-0.000768245
-0.000716723
-0.00065425
-0.000573334
-0.000479115
-0.000368467
-0.000279577
-0.000204792
-0.000155418
-8.76872e-05
5.89815e-05
0.000287911
0.000622526
0.000801929
0.000985229
0.00106034
0.00106214
0.00122031
0.00132334
0.00168435
0.00281573
0.00185599
0.00666413
-0.000758398
0.0131772
-0.0131025
0.0511138
0.0449978
0.0162414
-0.000112685
-0.00885041
0.000685083
0.00492705
-0.00741785
0.00156713
0.00173817
0.000340264
-0.0022488
0.00168845
0.00189931
-0.00020035
0.00483398
0.00871225
0.00480854
-0.0150464
0.013086
0.0102398
-0.026787
0.0195056
0.00408419
-0.020248
0.0150955
0.00400214
-0.0106883
0.00196169
0.0032171
-0.00233235
-0.000669374
0.000502163
-0.000226847
0.00149502
0.000146593
-0.000504201
6.31643e-05
0.00236809
-0.00296385
0.00348288
-0.0042924
0.00354268
-0.00383324
0.0038026
-0.00379579
0.00364159
-0.00510021
0.00485894
-0.00559814
0.00521263
-0.00564172
0.00622216
-0.00749594
0.00785769
-0.00890286
0.00863271
-0.0105802
0.0102695
-0.0117439
0.0104776
-0.0113042
-0.00113424
0.000232
-0.000157538
-7.73998e-05
-0.000170965
-0.000179185
-0.000229471
-0.000254646
-0.000300891
-0.000331963
-0.000383034
-0.000414067
-0.000470469
-0.0005007
-0.000561239
-0.000587675
-0.000651283
-0.000668417
-0.000729011
-0.000756909
-0.000778824
-0.000830026
-0.000836309
-0.000859585
-0.0008776
-0.000901302
-0.000883404
-0.000878425
-0.000867452
-0.000849936
-0.000825497
-0.000783562
-0.000741131
-0.000683623
-0.000610682
-0.000517775
-0.000429494
-0.000315046
-0.000259384
-0.000179658
-0.000141915
-4.20321e-05
8.58984e-05
0.000324587
0.000470598
0.00071223
0.000641499
0.000743616
0.000363079
0.000508365
8.9341e-05
0.000914915
-1.51831e-05
0.00370237
-0.00382364
0.0189855
-0.0487625
0.184065
-0.0231418
0.0399746
-0.00888051
-0.00862248
-0.00500883
-0.00336045
-0.0110192
0.00290009
-0.00294351
-0.00427952
-0.00171493
-0.00231247
-0.00187409
-0.00485803
0.000588687
0.00586679
-0.000825843
-0.0152916
0.0104212
-0.00755734
-0.00326695
4.98185e-05
-0.00126871
-0.00263611
0.00401506
-0.00116008
0.00112156
0.00292675
0.00216543
-0.000114938
-0.00191196
0.00151685
0.000574894
0.00116034
-0.00500607
0.0018214
-0.00174825
-0.00019411
0.000452688
0.00142757
-0.000726084
0.0011217
-0.00338449
0.00328912
-0.0046282
0.00477583
-0.00516516
0.0052348
-0.00551314
0.00601336
-0.00722121
0.00600688
-0.0075888
0.00609248
-0.00860336
0.00893521
-0.010567
0.00955314
-0.0135023
0.0122972
-0.0114149
-0.00113391
0.00023162
-0.000157817
-7.75406e-05
-0.000171162
-0.000179193
-0.000229876
-0.000254589
-0.000299987
-0.000334872
-0.000378643
-0.00041953
-0.000464022
-0.000508299
-0.000551728
-0.000600289
-0.000637069
-0.000686845
-0.000717978
-0.000758782
-0.000791147
-0.000813302
-0.000839719
-0.000875276
-0.000863022
-0.000894848
-0.000885391
-0.000882789
-0.00087154
-0.000845346
-0.000815503
-0.000775445
-0.000720911
-0.000651376
-0.000566264
-0.000474071
-0.000391551
-0.000305871
-0.000247855
-0.000190328
-0.000111776
4.21611e-05
0.000235486
0.000502113
0.000683629
0.000974042
0.00105241
0.00122757
0.00128898
0.00116881
0.00113807
0.000750593
0.000253908
-4.9286e-06
-0.000668172
0.00117763
-0.00405737
0.0425906
0.0409468
0.0384647
0.0106252
-0.00528692
0.00874271
0.00563211
-0.00655406
-2.14012e-05
-0.00442229
-0.00230182
-0.00452383
-0.000469273
-0.00055979
-0.00259558
-0.00229058
-0.00223093
0.00865061
0.00573089
-0.00375439
0.000330955
0.00623593
-0.0059103
0.00886913
-0.00958913
0.0145366
-0.0161667
0.0133655
-0.00202755
0.00244895
-0.00141405
-0.00283291
0.00152919
-0.00046519
2.0082e-05
0.00171037
0.00447767
-0.00379386
0.00472964
-0.00496567
0.00419565
-0.00246504
0.00336739
-0.00407661
0.0024116
-0.00336926
0.00369343
-0.00487529
0.00461263
-0.00548956
0.00493721
-0.00476542
0.00686721
-0.00713475
0.0082785
-0.00988476
0.00772661
-0.0103256
0.0114754
-0.0105942
0.0125985
-0.0137685
-0.0011326
0.000230369
-0.000157772
-7.77656e-05
-0.000171164
-0.000179244
-0.000229913
-0.000254768
-0.000299825
-0.00033545
-0.000377469
-0.000422053
-0.000462651
-0.000510335
-0.000550695
-0.000602473
-0.000632046
-0.000694132
-0.000712416
-0.000765136
-0.00079129
-0.000821388
-0.000841279
-0.000874611
-0.000866136
-0.00090616
-0.000887495
-0.00087864
-0.000885413
-0.000858161
-0.000835885
-0.000804544
-0.000762999
-0.000703288
-0.000634586
-0.000559684
-0.000500494
-0.000423635
-0.000365737
-0.000291433
-0.000224037
-0.000114637
-3.75359e-05
6.06315e-05
0.00013529
0.000216591
0.00010342
-4.86537e-05
-0.000591493
-0.000966234
-0.000822989
-0.000889873
0.000425418
0.000672661
0.00176627
-0.00206115
-0.00222232
-0.0241173
0.194707
0.000425088
-0.0329332
-0.0158839
-0.00416697
0.00379019
0.000263017
0.00897801
-0.00226116
0.000696637
-0.00163642
-0.000481483
-0.000368955
-0.00136327
5.60178e-05
-0.00248335
0.00486099
-0.00638337
0.0012312
-0.00364682
0.00280157
-0.00296267
0.00434273
-0.0108423
0.0128647
-0.0120275
0.00675554
0.00137472
0.00112553
-0.00361575
0.000819542
0.00220726
-0.00439584
-0.000631319
-0.000975814
-0.00420453
-0.00134278
0.000842582
-0.00350145
-2.8017e-05
-0.00765356
0.00335407
-0.00236036
0.00548984
-0.00468291
0.00291944
-0.00472694
0.00391771
-0.00453517
0.00530424
-0.00650405
0.00560971
-0.00760443
0.0071617
-0.00733554
0.00985163
-0.00998091
0.00863888
-0.0138894
0.00999254
-0.0123437
-0.00113178
0.000229574
-0.000157963
-7.79576e-05
-0.000171264
-0.000179638
-0.000229679
-0.000255141
-0.000300387
-0.000333895
-0.000380156
-0.000418945
-0.000466025
-0.000506112
-0.000557938
-0.000591177
-0.000648954
-0.000674406
-0.000732985
-0.000750403
-0.000791174
-0.00082492
-0.000841047
-0.00086388
-0.000890715
-0.0008986
-0.000905765
-0.00089449
-0.000882429
-0.000863246
-0.000828484
-0.000793344
-0.000741651
-0.000670841
-0.000589376
-0.000501533
-0.00044797
-0.000386208
-0.000349326
-0.000287155
-0.000195313
-5.72497e-05
5.70006e-05
0.000222199
0.000429046
0.000646941
0.000959469
0.000951608
0.00110246
0.000849899
0.000392007
-0.00110784
-0.00107588
-0.00540768
0.000964356
-0.0149105
0.0217858
-0.0587785
0.245651
-0.00561491
0.00152123
-0.0257401
-0.00342264
-0.0154846
-0.00454627
-0.0157517
0.00328881
-0.0111847
-0.00184732
-0.00578725
0.000199791
-0.00422461
-0.00178103
0.00032743
-0.00227807
0.00702804
0.00153844
-0.00791511
-0.00164804
0.000884985
-0.000959709
-0.00549807
-0.000296076
-0.0077475
0.00500176
-0.00429195
-0.000904014
0.00743428
-0.000972639
-0.000732924
0.00107564
0.000254825
-0.00850913
0.00888393
-0.00146174
0.00200225
-0.00153066
0.00339771
0.00116019
0.00517313
-0.00476207
0.00188031
-0.00310605
0.00547953
-0.00322083
0.00533151
-0.005261
0.00498896
-0.00665071
0.00705608
-0.00778373
0.00829586
-0.00863991
0.00750428
-0.00795468
0.00905892
-0.00714286
0.0140199
-0.0117288
-0.00112978
0.000227794
-0.000158033
-7.8276e-05
-0.000171265
-0.000179708
-0.000229745
-0.000255269
-0.0003003
-0.000333858
-0.000381411
-0.000418256
-0.000466229
-0.000508346
-0.000555516
-0.000595889
-0.000646586
-0.000679231
-0.000731023
-0.000758433
-0.000797077
-0.000819621
-0.00086264
-0.000851065
-0.000902088
-0.000885506
-0.000904632
-0.00089614
-0.000888593
-0.000885162
-0.000852048
-0.000834094
-0.00079943
-0.00074725
-0.000689854
-0.000619792
-0.000584267
-0.000532326
-0.000497554
-0.000455176
-0.0004113
-0.00038564
-0.000361427
-0.000344093
-0.000336888
-0.00035197
-0.000633997
-0.000897152
-0.00130874
-0.00153766
-0.0012753
-0.000997926
0.000890153
0.000976236
0.0027952
-0.0017983
-0.0015795
-0.00528021
0.0943598
0.096158
-0.0630931
-0.00189486
-0.00826363
0.000915619
-0.00589621
0.00727976
-0.00934797
0.00804783
-0.00672954
-0.000527593
-0.00287482
-0.00131513
-0.000728536
-0.00173214
0.00195359
0.00713697
-0.002783
-0.00285424
0.00483887
-0.00472214
-0.00121172
-0.00454679
-0.00232386
-0.00348465
-0.00131845
0.00102608
0.000840579
0.00970167
-0.00661701
0.00369328
-0.00157425
0.000684937
0.00555283
-0.00115551
-0.00538365
0.00262801
-0.00341929
0.0030804
-0.0047379
0.00210902
-0.000709148
0.00381812
-0.00421314
0.00173076
-0.00430501
0.00392686
-0.00669912
0.00541332
-0.00631655
0.00526802
-0.00720706
0.00681313
-0.00910529
0.00909962
-0.0131064
0.0111141
-0.0144438
0.00554386
-0.0118446
-0.0011287
0.000226697
-0.000158207
-7.85166e-05
-0.000171472
-0.000179554
-0.000230182
-0.000255007
-0.000300729
-0.000334648
-0.000380251
-0.000419442
-0.000465407
-0.000509915
-0.000553086
-0.000598715
-0.000642266
-0.00068864
-0.000719089
-0.000763274
-0.000801655
-0.000817309
-0.000857884
-0.000873473
-0.000901389
-0.000910889
-0.000902889
-0.000922704
-0.000900798
-0.000882176
-0.000855747
-0.000824534
-0.000786396
-0.000725778
-0.000667499
-0.000586651
-0.00054736
-0.000486391
-0.000461715
-0.000424667
-0.000364694
-0.000253619
-0.00010875
0.000130365
0.000275186
0.00046656
0.000694871
0.00070618
0.000825087
0.000731495
0.000851488
0.00034775
0.00108717
-0.000132861
0.00470478
-0.00103256
0.0236159
-0.010876
0.11659
0.0703656
0.00145917
-0.00627451
-0.00431889
-0.00611474
-0.0133641
0.00398615
-0.0116375
0.00492748
-0.00827932
-0.000699305
-0.00179905
-0.000828082
-0.000700959
-0.00171846
-0.000463393
0.0102646
-0.00555429
-0.00678871
0.00573496
-0.000308466
-0.00611632
0.00131906
-0.00645385
0.00364982
-0.00196817
-0.00131309
0.00835399
0.00291109
-0.00428573
0.00613915
-0.000384147
0.00512388
-0.0007573
0.00172664
-0.000943086
0.0046159
-0.0016803
0.00362969
-0.00220266
0.00206904
-0.00547907
0.00219208
-0.00291556
0.00434647
-0.00451356
0.00509308
-0.00487304
0.00572515
-0.00632413
0.00720968
-0.00797935
0.00821931
-0.00911084
0.00834985
-0.00799284
0.00973267
-0.0121498
0.0204333
-0.014713
-0.00112611
0.000224899
-0.000158286
-7.88925e-05
-0.000171509
-0.000179812
-0.000230243
-0.00025519
-0.000300759
-0.000334668
-0.000380507
-0.000419393
-0.000467503
-0.000508479
-0.000557654
-0.000597691
-0.000646649
-0.000687725
-0.000727262
-0.000764268
-0.000801611
-0.000838791
-0.000843449
-0.00088992
-0.000895966
-0.000913644
-0.000915998
-0.000922197
-0.000923096
-0.000899669
-0.000901927
-0.000878235
-0.000845474
-0.000802865
-0.000776196
-0.000729524
-0.000710725
-0.000692994
-0.000684476
-0.000678572
-0.000701168
-0.000672188
-0.000647784
-0.000591283
-0.000598191
-0.00068533
-0.00114994
-0.00119476
-0.00158431
-0.00139809
-0.0012554
-0.000440756
-0.000248624
0.000211045
2.95628e-05
0.000459898
0.00405521
0.0212724
0.0669782
0.0375022
0.0102909
0.00902217
0.00426048
0.00152749
-0.0100068
0.0128032
-0.014927
0.0101226
-0.00919922
0.00016897
-0.00163674
-0.00131862
0.000796878
0.000841211
0.00287869
0.0127978
-0.00451255
-0.00022546
0.00494425
0.00387002
-0.00347021
0.00701668
-0.00108908
0.0178689
-0.000478373
0.0139296
0.00602907
0.00574597
0.0026935
0.00408655
0.000223502
0.00237418
-0.00205579
0.00310471
-0.00127698
0.00213099
-0.00212112
0.00352947
-0.00252096
0.00337589
-0.000796766
0.00295669
-0.00249789
0.0029605
-0.00284871
0.00541637
-0.0046545
0.00507567
-0.00664002
0.00584347
-0.00669544
0.00694052
-0.00858209
0.00836598
-0.0109584
0.00768697
-0.00697286
0.00646322
-0.01283
-0.00112488
0.000223633
-0.000158482
-7.91442e-05
-0.000171592
-0.000180156
-0.000230058
-0.000255529
-0.000300452
-0.000335078
-0.000380917
-0.000419273
-0.000467772
-0.000508448
-0.00055711
-0.000598763
-0.000646497
-0.000688969
-0.000726656
-0.000773641
-0.000797238
-0.000835651
-0.000854014
-0.000900419
-0.00089377
-0.000921709
-0.00094211
-0.000939143
-0.000931312
-0.000905043
-0.000896909
-0.000871133
-0.00084996
-0.00082587
-0.000792491
-0.000744519
-0.000694074
-0.000635469
-0.000612702
-0.000576244
-0.000492133
-0.000350941
-0.000180635
6.02326e-05
1.5311e-05
0.000151454
0.000111223
0.000264532
0.000294175
0.000451804
0.000462521
0.000707328
0.000843151
0.00296966
0.00229483
0.00917043
-0.000513314
0.0330378
0.067026
0.0205009
0.0357083
0.00325609
0.0169238
-0.00143328
-0.00631231
-0.00900584
-0.00113756
-0.00670122
-0.00497002
-0.00371239
-0.00216021
-0.000942774
0.00298208
0.00699476
-0.00206684
0.0126406
6.5585e-05
0.00320376
0.0101741
-0.00304342
0.0105503
-0.00634317
0.00945808
-0.00707398
0.00329389
-0.00468353
0.00237613
-0.00177757
-0.00327223
-0.00116012
-0.000545595
-6.16743e-05
-0.00253944
0.00172471
5.0959e-05
0.00397212
-0.00117856
0.00192792
-0.000964622
0.00187941
-0.00228672
0.00370348
-0.00280787
0.00365358
-0.00298839
0.00330373
-0.00397967
0.00575066
-0.00394312
0.00687164
-0.00722581
0.00826184
-0.0091985
0.00908961
-0.00973971
0.0109975
-0.0112333
0.00682691
-0.0064126
-0.00112237
0.000221933
-0.000158563
-7.95727e-05
-0.000171654
-0.000180181
-0.000230228
-0.000255731
-0.000300765
-0.000335706
-0.00038037
-0.000421779
-0.000466406
-0.000512238
-0.000555631
-0.000603094
-0.000646318
-0.000694205
-0.000723064
-0.000778825
-0.000803938
-0.000839265
-0.000873475
-0.000892107
-0.000924504
-0.000925696
-0.000951758
-0.000947809
-0.000942674
-0.000949623
-0.000945253
-0.000935449
-0.00092577
-0.000911772
-0.000893381
-0.000870863
-0.00086362
-0.000851015
-0.000875127
-0.000905464
-0.000903046
-0.00078902
-0.000757265
-0.000679006
-0.000749605
-0.000978611
-0.00176654
-0.00153593
-0.0020085
-0.00118064
-0.000959596
0.00045745
-0.000970946
0.00161822
-0.00438334
0.00555963
-0.0215728
0.110195
0.0330772
-0.0238568
-0.0174827
0.0319514
-0.00450767
0.0188711
-0.00762523
0.00650125
-0.0124961
0.000543036
-0.00213233
-0.00905848
0.0099218
0.00735045
0.0038738
0.00560774
0.00569187
0.00186182
-0.00254064
0.00499904
-0.000887683
0.00485217
-0.000494159
0.00797031
0.00573751
0.0110468
-0.000580645
0.00870647
-9.00882e-05
0.00608234
0.00136369
0.00295313
-0.000390823
0.00374222
0.00213782
0.00289914
-0.00270042
0.00144837
-0.00105392
0.00303749
-0.00272829
0.00260358
-0.00200511
0.00244143
-0.00174079
0.0026099
-0.00298756
0.00402998
-0.00596146
0.00465213
-0.00701215
0.00449783
-0.00650521
0.0060367
-0.00811702
0.00882938
-0.0103233
0.0102072
-0.0124071
0.0147739
-0.0113266
-0.00112091
0.000220612
-0.000158779
-7.98494e-05
-0.000171733
-0.000180307
-0.000230423
-0.000255609
-0.000301063
-0.00033547
-0.000380881
-0.000421358
-0.000467261
-0.000511108
-0.000557307
-0.000603063
-0.000649366
-0.000689062
-0.00073778
-0.000771237
-0.000819585
-0.000832289
-0.000884152
-0.000898602
-0.00093018
-0.000937933
-0.000973717
-0.000983998
-0.000954997
-0.000967776
-0.000952105
-0.000955178
-0.000953182
-0.000932348
-0.000887434
-0.000832721
-0.000792632
-0.000768372
-0.000757209
-0.000726365
-0.000659129
-0.000546324
-0.000448678
-0.000370761
-0.000369351
-0.000427044
-0.000463458
-0.000279309
-0.00032234
-0.000371522
-0.00115832
-0.000908285
-0.00195909
0.000684079
-0.00162924
0.0101411
-0.0136293
0.0883788
-0.00131834
-0.00160907
0.0130478
0.00576076
0.0296646
-0.0113652
0.0161004
-0.011351
-0.00579313
0.00658083
0.00748039
0.00093475
0.0122649
0.00880796
0.00571445
0.00396027
0.00360706
0.00790989
0.00511306
0.00593947
0.000356168
0.00170948
0.00176017
-0.000418405
0.000896573
-0.00224951
-0.0004209
7.16582e-05
0.00102878
0.00119647
-0.000737993
0.00178569
0.000362327
0.00113049
-0.00112897
0.00147184
-0.000643852
0.00322448
-0.00235288
0.00238866
-0.000744168
0.0004785
-0.00161529
0.00282849
-0.00392417
0.00392663
-0.00318452
0.00338134
-0.00342343
0.00559931
-0.00545941
0.00708015
-0.0074278
0.00656475
-0.00617908
0.00523043
-0.00718053
0.00656853
-0.00807718
0.00919692
-0.013029
-0.00111858
0.000219127
-0.000158914
-8.02942e-05
-0.000171867
-0.000180569
-0.00023063
-0.000255883
-0.00030132
-0.000335281
-0.000382265
-0.000419629
-0.000471385
-0.000509423
-0.000562493
-0.00060134
-0.00065278
-0.000688617
-0.000741566
-0.000768005
-0.000824574
-0.000848467
-0.000884557
-0.000917809
-0.000933772
-0.000968623
-0.000973045
-0.000987062
-0.000993802
-0.000992667
-0.000994489
-0.00102166
-0.00101999
-0.00101892
-0.00101163
-0.000991589
-0.00099049
-0.000990774
-0.00105703
-0.00109619
-0.00117216
-0.00114771
-0.00112858
-0.00108978
-0.000981295
-0.000905996
-0.000878673
-0.000788103
-0.000831004
-0.00111238
-0.00168084
-0.00133058
-0.00177231
0.000132563
-0.00108654
0.0065573
-0.0067132
0.0826558
-0.00419322
0.00405455
0.00310877
0.0316893
-0.00806346
0.0338558
0.00326002
0.00632325
0.0120737
0.00195822
0.014004
-0.00967885
0.00994254
-0.00161702
0.00408167
-0.000934453
0.000755615
-0.0065321
0.00227387
-0.00402627
0.00336249
-0.00318892
0.00027177
-0.00149224
0.000385515
0.000312727
0.00268688
-0.00099436
0.000534481
0.00128463
0.001069
0.000485867
0.000686331
0.00193688
-0.00172985
0.00192677
-0.00133273
0.00116514
0.000134759
0.00282773
-0.00241525
0.00229132
-0.00230722
0.00183672
-0.00169113
0.00212437
-0.00238083
0.00363906
-0.00483777
0.00401949
-0.00525177
0.00517336
-0.00673773
0.00866063
-0.00975586
0.00943223
-0.00819179
0.00810017
-0.00742375
0.00671421
-0.00670359
-0.00111694
0.000217892
-0.000159089
-8.0563e-05
-0.000172034
-0.000180529
-0.000230682
-0.000256089
-0.000301471
-0.000335927
-0.000382222
-0.000421517
-0.000469652
-0.000511395
-0.000561051
-0.00060496
-0.00065319
-0.000696893
-0.000742524
-0.000785636
-0.000810065
-0.000865865
-0.00088913
-0.00093024
-0.000939701
-0.000985766
-0.00100968
-0.000993883
-0.00102971
-0.00102917
-0.00102848
-0.00102597
-0.001039
-0.00101545
-0.0010125
-0.000978675
-0.000975683
-0.00101564
-0.00105766
-0.000997384
-0.000926264
-0.000885637
-0.000907391
-0.000970511
-0.000938453
-0.000914775
-0.000731822
-0.000769044
-0.00124099
-0.00185834
-0.00240255
-0.00205922
-0.00142516
-0.00145736
0.00492079
-0.00926943
0.0468904
0.0539706
-0.000715226
0.00349162
-0.00236754
-0.0294454
-0.0259078
0.0343288
0.0252335
-0.0141636
0.014936
0.00974772
0.00234696
-0.00265139
0.0051543
-0.00267719
0.00413224
-0.00629372
0.00410148
-0.00078809
0.00204103
-0.00320702
0.00228157
-0.000612255
0.0027486
-0.001258
6.48437e-05
-0.00212749
0.000471355
0.000204217
0.000191424
-0.00101006
0.00133799
0.00038591
-0.00199758
0.00185547
4.95676e-05
8.7342e-05
0.000717437
0.00218
-0.00110526
0.00197001
-0.00064605
0.00141902
-0.000727001
0.00239349
-0.0028437
0.0037866
-0.00321817
0.00324131
-0.00393122
0.00469251
-0.00492893
0.00531562
-0.00574163
0.00625314
-0.00729481
0.00828059
-0.00935478
0.010352
-0.00953491
0.0103583
-0.00888163
-0.00111487
0.000216634
-0.000159232
-8.10022e-05
-0.00017211
-0.000180834
-0.000230784
-0.000256351
-0.000301448
-0.000336393
-0.000381934
-0.000422581
-0.000468933
-0.000514397
-0.000559504
-0.000610016
-0.000649544
-0.000702277
-0.000743239
-0.000788153
-0.000823749
-0.000867086
-0.000906586
-0.000923724
-0.000981928
-0.000992319
-0.00102304
-0.00104209
-0.00105222
-0.00105857
-0.00107642
-0.00109199
-0.00112729
-0.00113839
-0.00116014
-0.00115632
-0.0011766
-0.00118627
-0.00128701
-0.00126648
-0.0012674
-0.00122525
-0.00124737
-0.0014087
-0.00143849
-0.00145916
-0.0010688
-0.000908605
-0.000296134
-0.000242988
0.000487409
-0.000148857
0.00189397
-0.00352627
0.00612411
-0.0262631
0.109627
0.033968
-0.013466
0.00722221
-0.00666904
-0.0128552
-0.0139548
0.0534966
0.000134252
-0.00427758
0.0172022
-0.00614969
0.00249965
-0.000882618
0.00227333
-0.00108997
0.0015398
-0.00247298
-0.000195838
0.000221182
0.00275203
-0.00127782
-3.82007e-05
-0.00423687
0.00148239
-0.00213831
0.00592439
0.00194317
-0.000681611
-0.00304769
0.00380065
5.84116e-05
-0.000791877
0.00122181
0.00129838
0.00014386
-0.000563395
0.00279055
-0.000760296
0.00100768
-0.000879387
0.00164934
-0.00140582
0.0012973
-0.0018222
0.00259574
-0.00191499
0.00279863
-0.00244589
0.00352611
-0.00428693
0.00423819
-0.00496802
0.00464073
-0.00476927
0.00442604
-0.00555898
0.00607979
-0.0060974
0.00704819
-0.00809013
0.00849237
-0.0107255
-0.00111321
0.000215521
-0.000159404
-8.13103e-05
-0.000172186
-0.000181018
-0.000230984
-0.00025652
-0.000301934
-0.000336803
-0.000382603
-0.000423163
-0.000470685
-0.000513935
-0.000563702
-0.000608934
-0.000655895
-0.000704815
-0.000750771
-0.000786626
-0.000838865
-0.000871043
-0.00091717
-0.000945122
-0.0009812
-0.00102568
-0.00102196
-0.00107446
-0.00108938
-0.00109012
-0.00110839
-0.0011304
-0.00114436
-0.00116644
-0.00115261
-0.00114757
-0.00112983
-0.00113065
-0.00119639
-0.0013058
-0.00156802
-0.00158797
-0.00167679
-0.00154493
-0.00144883
-0.00131193
-0.001586
-0.00200547
-0.00231049
-0.00297195
-0.0027478
-0.00400706
-0.00138517
-0.00319947
0.00581394
-0.0116719
0.0835267
0.0087729
-0.00180201
0.0139033
-0.00250447
-0.0278706
-0.00685628
0.0462858
-0.000560923
0.00313032
0.0101856
-0.00305294
0.000975821
-0.00176835
0.000940528
-0.00133543
0.00165235
-0.00107697
0.000154283
-0.00100683
0.00151111
0.00105382
0.00118802
0.0025516
-6.07078e-05
0.00324455
-0.00391895
0.00120015
6.25677e-05
0.00667378
-0.00451551
0.000273015
0.00160759
0.000586873
-0.000958689
0.00195375
0.000281824
-0.000715903
0.000517619
0.00160684
-0.000759053
0.00146902
-0.000530307
0.00123257
-0.00134699
0.00192603
-0.00240259
0.00256937
-0.00244012
0.00314907
-0.00270011
0.00407428
-0.00392208
0.00458107
-0.00599806
0.00513786
-0.00680042
0.00568685
-0.00595395
0.00547067
-0.00619817
0.00675675
-0.0076531
-0.00111135
0.000214503
-0.000159513
-8.16576e-05
-0.000172348
-0.000181223
-0.000231136
-0.000256666
-0.000302088
-0.000336793
-0.000383276
-0.000422891
-0.000472537
-0.000513909
-0.000566385
-0.000607198
-0.00065986
-0.000703439
-0.000753993
-0.000790937
-0.000845572
-0.000885497
-0.000912463
-0.000972534
-0.0010005
-0.00103686
-0.00107145
-0.00109705
-0.0011153
-0.00113895
-0.00116434
-0.00121367
-0.00125697
-0.00128317
-0.00131109
-0.00131473
-0.00131936
-0.00132127
-0.00136223
-0.00141783
-0.00145251
-0.00150869
-0.00161198
-0.00162609
-0.00166545
-0.00142461
-0.00123128
-0.000803839
-0.000809855
-0.00102915
-0.0011329
-0.00151634
-0.000680636
0.00030204
0.00471213
0.00248751
0.0712155
0.00198724
0.00594401
0.0284102
0.0115549
-0.0284194
0.011996
0.0431671
-0.00423738
-0.000344018
0.00106766
-0.00514984
-0.000209585
-0.00106599
0.000176092
-0.00192914
0.000423716
-0.00223795
-0.00169746
0.000782401
-0.00191366
0.00189095
-0.00412727
0.00224936
-0.00553541
0.0045533
-0.00147162
0.00452223
-0.00529571
-0.000102287
0.000215448
0.00513525
-0.00252678
0.00150271
0.00113442
0.000508455
-0.000394666
0.00179861
-3.86226e-05
0.0007583
-0.000435077
0.00097622
-0.000932386
0.00147633
-0.00111073
0.00139732
-0.00131294
0.00151082
-0.00227744
0.00244142
-0.00392898
0.00384706
-0.00415397
0.00477662
-0.0046579
0.0052448
-0.00561331
0.00591472
-0.00622426
0.00596956
-0.00547016
0.00589082
-0.00543373
-0.00110981
0.000213584
-0.000159674
-8.19609e-05
-0.000172493
-0.000181248
-0.000231236
-0.000257068
-0.000302484
-0.000337321
-0.000383965
-0.000424091
-0.000472509
-0.000516196
-0.000567149
-0.000611222
-0.000663811
-0.000710963
-0.000756379
-0.000803358
-0.000848568
-0.000895917
-0.00092931
-0.000974208
-0.00102183
-0.00104664
-0.00109666
-0.00112944
-0.00115235
-0.00117956
-0.00121204
-0.00123432
-0.00125184
-0.00126285
-0.00128029
-0.00131256
-0.00138663
-0.00144446
-0.00157129
-0.00144439
-0.00139702
-0.00132537
-0.00137409
-0.00165518
-0.00222332
-0.0022236
-0.00255774
-0.0022269
-0.00254383
-0.00203955
-0.00227665
-0.000537227
-0.00300122
0.00732937
-0.0160692
0.0674217
0.0386464
-0.000346504
0.0123968
0.0287501
0.0107049
-0.0286512
0.0199699
0.0254113
-0.0136306
0.00099511
-0.00226658
-0.00217143
0.000861701
0.00163834
0.000756305
0.000219757
-0.000565566
0.00144598
-0.00123149
0.00179978
-0.00190033
0.00277526
-0.003568
0.00483965
-0.00485488
0.00242557
-0.00542089
0.00221492
-0.00171764
0.00547003
-0.00508049
-0.000176216
0.00139003
0.0005255
-0.00118212
0.001382
3.6098e-05
-0.00024937
0.000186238
0.000976789
-0.000386228
0.00123096
-0.000558124
0.00108619
-0.000819229
0.00224407
-0.0016256
0.00261025
-0.00226014
0.00300225
-0.00266514
0.00353744
-0.00371033
0.00402671
-0.00464226
0.00474247
-0.00501118
0.00554972
-0.00538762
0.00572987
-0.00596766
0.0064285
-0.00604413
-0.00110816
0.000212824
-0.000159734
-8.22494e-05
-0.000172619
-0.000181539
-0.000231479
-0.000257197
-0.000302573
-0.000337509
-0.000384132
-0.000424721
-0.000472712
-0.000518315
-0.000566966
-0.000613964
-0.000663692
-0.000713376
-0.000758826
-0.000809079
-0.000858795
-0.000900918
-0.00094867
-0.000993554
-0.00103834
-0.00108056
-0.00111857
-0.00114724
-0.00118661
-0.00122468
-0.00129399
-0.00133977
-0.00136676
-0.0013968
-0.00140226
-0.00148288
-0.0015073
-0.00159313
-0.00161263
-0.00163935
-0.00162328
-0.00154173
-0.00156811
-0.00181633
-0.00215801
-0.00193721
-0.00199171
-0.00142267
-0.00142655
-0.0015716
-0.00396273
-0.00181423
-0.00826268
0.00620874
-0.0199364
0.100374
0.0283302
-0.0141045
-0.0135297
0.0183203
0.0159761
-0.024352
0.0287271
0.000224628
-0.00603935
8.86819e-05
0.000118211
0.000917383
5.55573e-05
0.00120465
-0.00103164
-0.000184491
-0.00146214
0.000618719
-0.00241967
0.000986794
-0.00341266
0.00204169
-0.00586238
0.00243614
-0.00453205
0.00486151
-0.00185482
0.00442402
-0.00341379
-0.00025898
0.00161535
0.00369588
-0.00340812
0.00202446
0.00120684
0.000252114
-0.000333305
0.000850285
-0.000338184
0.000552909
-0.000168755
0.00100885
-0.000676124
0.00136771
-0.00124252
0.00169347
-0.00131273
0.001562
-0.00155892
0.00192052
-0.00230805
0.00273464
-0.00305026
0.00371083
-0.00381124
0.00410125
-0.00429545
0.00432293
-0.00495469
0.00492294
-0.00527205
0.00593197
-0.00608733
-0.00110678
0.000212159
-0.000159831
-8.25413e-05
-0.000172695
-0.000181606
-0.000231583
-0.000257563
-0.000303211
-0.000338154
-0.000385064
-0.000425362
-0.000474126
-0.000519324
-0.000570117
-0.000615746
-0.00067035
-0.00071561
-0.000768444
-0.000817038
-0.00086352
-0.00090576
-0.000959309
-0.00100674
-0.00105133
-0.0011016
-0.00114995
-0.00119004
-0.00122948
-0.00127259
-0.00131406
-0.00134371
-0.0013544
-0.00137197
-0.00139645
-0.00150444
-0.00154729
-0.00164477
-0.00170472
-0.00180491
-0.00174391
-0.0015921
-0.0014954
-0.00150887
-0.00165609
-0.00209596
-0.00222581
-0.00243367
-0.00214653
-0.00195903
-0.0014837
-0.00133765
-0.000492993
0.00476336
0.00827827
0.0910447
0.0205261
-0.00044614
-0.00551983
0.022551
0.0238237
-0.00260035
0.0168615
-0.0112944
0.00134351
-0.0012381
-0.00321028
-0.00311823
-0.000588585
-0.000135739
-0.000806855
0.00127435
-0.000613134
0.000684879
-0.00121904
0.000566314
-0.00232276
0.00268782
-0.00345423
0.00334451
-0.00401627
0.00263488
-0.00284058
0.00061159
0.000787505
0.00146232
-0.00181938
-0.00146316
0.00317737
0.000748991
-0.00132862
0.00151977
0.000337334
0.000457321
3.92655e-05
0.000845165
-0.000132004
0.00097023
-0.000264488
0.00105458
-0.000410146
0.0009566
-0.000714471
0.001315
-0.0014973
0.00228736
-0.00202074
0.0025287
-0.00299169
0.00300365
-0.00360354
0.00345197
-0.00304751
0.00317891
-0.00315941
0.0036455
-0.00421975
0.00353891
-0.00509986
-0.00110536
0.000211612
-0.000159851
-8.27653e-05
-0.000172843
-0.000181898
-0.000231754
-0.000257694
-0.000303237
-0.000338276
-0.000385531
-0.00042596
-0.000475522
-0.000520254
-0.00057123
-0.000615925
-0.000672833
-0.000715117
-0.000770608
-0.000826348
-0.00087145
-0.000919911
-0.000981497
-0.0010185
-0.00107291
-0.00112019
-0.00116243
-0.00121145
-0.00125443
-0.00132085
-0.0013927
-0.00145696
-0.00149415
-0.00154443
-0.00160471
-0.00171859
-0.00176638
-0.00179807
-0.00188074
-0.0018928
-0.00180222
-0.00171805
-0.00162735
-0.00162524
-0.00191515
-0.00232733
-0.00200163
-0.00213906
-0.00177648
-0.00186689
-0.00334082
-0.00692342
-0.0085359
-0.0240055
0.0470061
0.0613375
0.0129583
0.000589773
-0.0135358
0.0188553
0.0266302
0.0113186
0.00175185
-0.00525291
-0.00066708
-0.00242953
0.000910694
0.00487214