/*--------------------------------*- C++ -*----------------------------------*\
| =========                 |                                                 |
| \\      /  F ield         | OpenFOAM: The Open Source CFD Toolbox           |
|  \\    /   O peration     | Version:  2.2.x                                 |
|   \\  /    A nd           | Web:      www.OpenFOAM.org                      |
|    \\/     M anipulation  |                                                 |
\*---------------------------------------------------------------------------*/
FoamFile
{
    version     2.0;
    format      ascii;
    class       volScalarField;
    location    "0.5";
    object      rho;
}
// * * * * * * * * * * * * * * * * * * * * * * * * * * * * * * * * * * * * * //

dimensions      [1 -3 0 0 0 0 0];

internalField   nonuniform List<scalar> 
14161
(
0.999407
0.999429
0.999408
0.999388
0.999338
0.99927
0.99918
0.999073
0.998946
0.998802
0.998639
0.998456
0.998262
0.998046
0.997816
0.99756
0.997315
0.997038
0.996757
0.996467
0.996193
0.995909
0.995602
0.995327
0.995027
0.994726
0.99447
0.994269
0.994052
0.993776
0.993538
0.993353
0.993203
0.993062
0.992925
0.992792
0.992685
0.992615
0.992557
0.992534
0.99252
0.99249
0.992502
0.992526
0.99257
0.992692
0.992728
0.9928
0.992951
0.993255
0.993455
0.994216
0.994265
0.996478
0.995474
0.999201
0.981124
1.61116
2.48095
2.69282
2.79959
2.75816
2.67095
2.61123
2.54598
2.51443
2.45009
2.38846
2.34156
2.3025
2.27158
2.24431
2.22981
2.23131
2.26104
2.32032
2.37582
2.48766
2.62167
2.71152
2.79795
2.86453
2.88057
2.87995
2.90091
2.90776
2.90692
2.90765
2.9114
2.9159
2.91972
2.92305
2.92397
2.92373
2.92256
2.92264
2.92164
2.92253
2.9241
2.92735
2.92973
2.93269
2.93501
2.93816
2.93932
2.94308
2.9463
2.94991
2.95275
2.95721
2.96176
2.96773
2.96972
2.96949
2.96379
2.94959
2.91941
2.83532
2.64474
0.999407
0.999428
0.999407
0.999387
0.999337
0.999269
0.999179
0.999072
0.998945
0.998801
0.998637
0.998458
0.998258
0.998046
0.997809
0.997566
0.997308
0.997043
0.996752
0.996472
0.996187
0.995889
0.99561
0.995321
0.995039
0.994752
0.994483
0.994253
0.994024
0.993764
0.993528
0.99334
0.993187
0.993058
0.992934
0.992814
0.992709
0.992645
0.992599
0.992574
0.992566
0.992554
0.992577
0.992603
0.992666
0.99281
0.992878
0.992932
0.993112
0.993382
0.993692
0.994387
0.994403
0.996147
0.994287
0.999676
0.978499
1.57369
2.33594
2.66819
2.72527
2.66906
2.62567
2.58464
2.52178
2.48486
2.43002
2.3769
2.33897
2.30625
2.27508
2.25602
2.25688
2.28179
2.30797
2.33917
2.4032
2.46584
2.52643
2.61395
2.6861
2.76688
2.82575
2.84561
2.87618
2.89295
2.89844
2.90414
2.91234
2.9174
2.91996
2.9232
2.92561
2.92757
2.92743
2.92713
2.92633
2.92705
2.92811
2.92932
2.93076
2.93275
2.93602
2.9398
2.9447
2.95126
2.95503
2.95668
2.95856
2.96128
2.96454
2.96846
2.97138
2.97158
2.96765
2.95635
2.9298
2.85903
2.67148
0.999407
0.999427
0.999407
0.999387
0.999337
0.999269
0.999179
0.999071
0.998945
0.9988
0.998636
0.998457
0.998258
0.998044
0.997805
0.997573
0.997311
0.997038
0.996748
0.996496
0.996197
0.995872
0.995588
0.995326
0.99505
0.994744
0.994474
0.994224
0.994
0.993752
0.993508
0.99331
0.993154
0.99303
0.992909
0.992785
0.992655
0.992577
0.992508
0.992469
0.992429
0.992374
0.992372
0.992395
0.992435
0.992522
0.992557
0.992618
0.992646
0.992698
0.992852
0.993167
0.993053
0.994106
0.992246
0.998702
0.984235
1.40703
2.22272
2.59858
2.66546
2.60153
2.54783
2.51612
2.46745
2.42158
2.371
2.31695
2.29517
2.26583
2.23907
2.22072
2.21765
2.2337
2.28393
2.33425
2.38718
2.42025
2.44908
2.46523
2.49295
2.54603
2.60982
2.68174
2.76043
2.8104
2.84827
2.86545
2.88283
2.89306
2.89856
2.90299
2.90797
2.91442
2.91624
2.91863
2.91847
2.91936
2.91912
2.91968
2.91994
2.92144
2.92511
2.92982
2.93597
2.94641
2.95434
2.9585
2.96213
2.96555
2.96873
2.97047
2.97155
2.97063
2.96619
2.95599
2.93294
2.87322
2.68988
0.999408
0.999427
0.999406
0.999386
0.999336
0.999268
0.999178
0.999071
0.998944
0.998799
0.998636
0.998454
0.998257
0.998038
0.99781
0.997567
0.997311
0.997027
0.996753
0.996487
0.996197
0.995883
0.995582
0.995313
0.995035
0.994746
0.994507
0.994258
0.993992
0.993731
0.993511
0.993323
0.993177
0.993044
0.992919
0.992792
0.992684
0.992623
0.992574
0.99254
0.992502
0.992504
0.992538
0.992616
0.992685
0.992746
0.992809
0.99293
0.99309
0.993212
0.99343
0.993604
0.993481
0.993715
0.993222
0.995811
0.99355
1.16165
2.01533
2.54523
2.61058
2.49874
2.42123
2.40302
2.37013
2.32896
2.3055
2.26262
2.24715
2.22156
2.21556
2.20024
2.20947
2.21159
2.26772
2.31566
2.35115
2.37431
2.3918
2.39121
2.40576
2.42414
2.46711
2.51233
2.58807
2.67815
2.754
2.79986
2.83438
2.85434
2.86684
2.87754
2.88834
2.89546
2.89868
2.90165
2.90566
2.9114
2.9162
2.9204
2.92213
2.92371
2.92692
2.93118
2.93705
2.94561
2.95569
2.96293
2.96857
2.97238
2.97628
2.97723
2.97772
2.97519
2.96963
2.95917
2.93818
2.88495
2.71054
0.999408
0.999427
0.999406
0.999386
0.999336
0.999267
0.999178
0.99907
0.998943
0.998799
0.998636
0.998453
0.998256
0.998039
0.997808
0.997561
0.997309
0.997032
0.996759
0.996476
0.996188
0.995875
0.995571
0.995307
0.995052
0.994746
0.994465
0.994204
0.993963
0.993744
0.993493
0.993269
0.9931
0.992964
0.992837
0.992713
0.9926
0.992511
0.992418
0.992356
0.992309
0.99226
0.992226
0.99219
0.992167
0.992126
0.992107
0.992084
0.992029
0.991934
0.991988
0.991834
0.992042
0.991676
0.992202
0.990962
0.995061
1.04035
1.65518
2.56731
2.53955
2.43197
2.33998
2.32424
2.30968
2.28713
2.28601
2.25515
2.23849
2.20449
2.20126
2.18718
2.20026
2.20262
2.26011
2.28623
2.33302
2.36865
2.34038
2.34546
2.35925
2.35356
2.37332
2.37587
2.39807
2.46841
2.55358
2.65937
2.7314
2.79016
2.83057
2.8502
2.86396
2.87666
2.89122
2.90672
2.91711
2.92474
2.93017
2.93506
2.93657
2.9391
2.94193
2.94432
2.94829
2.95413
2.96209
2.97081
2.97726
2.98168
2.98552
2.98586
2.98494
2.97976
2.97074
2.9577
2.93629
2.88327
2.72498
0.999408
0.999426
0.999406
0.999385
0.999335
0.999267
0.999177
0.999069
0.998942
0.998798
0.998634
0.998453
0.998253
0.998039
0.997809
0.997562
0.997294
0.997039
0.996769
0.996475
0.996163
0.995872
0.995591
0.995297
0.995028
0.99476
0.994466
0.994193
0.993964
0.993744
0.993515
0.993289
0.99312
0.99298
0.992851
0.99273
0.992638
0.992563
0.992502
0.992459
0.99242
0.992389
0.992393
0.992446
0.992503
0.992525
0.992567
0.992631
0.992786
0.992831
0.992852
0.992498
0.99251
0.9912
0.992199
0.989448
0.997325
1.01338
1.39998
2.60698
2.63725
2.51838
2.42294
2.36848
2.33239
2.29167
2.28455
2.27266
2.22851
2.19973
2.17874
2.17669
2.16962
2.18657
2.21092
2.28212
2.32978
2.30846
2.30423
2.32705
2.32546
2.30944
2.30847
2.30483
2.31311
2.34802
2.40418
2.54435
2.65103
2.7441
2.81917
2.87044
2.90437
2.91906
2.92375
2.9407
2.95651
2.96393
2.96444
2.96579
2.96963
2.97716
2.98041
2.98082
2.98217
2.98396
2.98671
2.99132
2.99668
3.00004
3.00255
3.00183
3.0005
2.99347
2.98163
2.96408
2.93876
2.88608
2.74347
0.99941
0.999426
0.999406
0.999385
0.999335
0.999266
0.999176
0.999069
0.998942
0.998797
0.998633
0.998452
0.998253
0.998037
0.997805
0.997559
0.997297
0.997032
0.996762
0.996468
0.996157
0.995865
0.995592
0.995305
0.995004
0.994744
0.994448
0.994169
0.993923
0.993698
0.993482
0.993256
0.993067
0.992901
0.992743
0.992589
0.992454
0.992356
0.992272
0.992195
0.99212
0.992043
0.99196
0.991874
0.991708
0.991652
0.991592
0.991504
0.991433
0.991256
0.991313
0.99126
0.991633
0.99128
0.99248
0.990238
0.993618
1.01945
1.51209
2.58707
2.58528
2.49821
2.40578
2.33572
2.2709
2.23822
2.20666
2.19511
2.18101
2.13673
2.13647
2.12851
2.14092
2.14238
2.18606
2.2492
2.27597
2.24586
2.25256
2.2756
2.26815
2.24923
2.24766
2.2577
2.27568
2.31673
2.38244
2.50302
2.62966
2.75119
2.83655
2.8955
2.93275
2.95848
2.97935
2.99709
3.02066
3.03259
3.03186
3.03024
3.03052
3.03639
3.03797
3.03475
3.02921
3.02195
3.01642
3.01444
3.01627
3.01692
3.01949
3.01941
3.01956
3.01228
2.99837
2.97308
2.94045
2.88416
2.75344
0.99941
0.999426
0.999406
0.999385
0.999334
0.999266
0.999176
0.999068
0.998941
0.998796
0.998632
0.998451
0.998252
0.998035
0.997805
0.997557
0.997297
0.997032
0.996755
0.996453
0.996165
0.995894
0.995578
0.995267
0.994988
0.994739
0.994438
0.994158
0.993928
0.993704
0.993462
0.993202
0.993011
0.992866
0.992732
0.992608
0.992492
0.992393
0.992311
0.992253
0.992214
0.992174
0.992133
0.992168
0.992184
0.992182
0.992231
0.992258
0.992343
0.992391
0.992489
0.992394
0.992493
0.992298
0.993222
0.992941
0.997371
1.01617
1.71058
2.49666
2.56511
2.49228
2.40989
2.32544
2.24514
2.21288
2.18103
2.17017
2.17411
2.13281
2.13011
2.1243
2.13955
2.13894
2.18128
2.23794
2.26762
2.22402
2.23792
2.26096
2.25696
2.23555
2.23093
2.25275
2.28308
2.33912
2.43006
2.54075
2.65554
2.76645
2.84391
2.8948
2.92922
2.94592
2.95863
2.97307
2.99651
3.01262
3.01655
3.02011
3.02389
3.03089
3.03506
3.03391
3.03675
3.03654
3.03362
3.03236
3.03288
3.03199
3.03378
3.03493
3.03729
3.03085
3.01708
2.98535
2.94513
2.8812
2.75957
0.999411
0.999427
0.999406
0.999384
0.999334
0.999265
0.999175
0.999067
0.99894
0.998795
0.998631
0.99845
0.99825
0.998034
0.997802
0.997555
0.997294
0.997033
0.996747
0.996445
0.996159
0.99588
0.995564
0.995257
0.994995
0.994705
0.994398
0.994138
0.993918
0.993704
0.993449
0.993146
0.992933
0.992756
0.992591
0.992442
0.992308
0.992174
0.99205
0.991937
0.99182
0.991683
0.991533
0.991448
0.991358
0.991311
0.991214
0.991088
0.990996
0.990913
0.990882
0.990942
0.990912
0.990901
0.990903
0.990948
0.994752
1.02733
1.84195
2.37426
2.53457
2.51692
2.46574
2.39626
2.29344
2.24936
2.20553
2.20649
2.19386
2.15077
2.13892
2.12896
2.13515
2.14833
2.1866
2.24688
2.27891
2.23648
2.25995
2.29541
2.29607
2.29832
2.31639
2.36093
2.42054
2.50646
2.59692
2.6751
2.74309
2.8198
2.87078
2.91341
2.94488
2.96201
2.97226
2.98509
3.00808
3.02191
3.02598
3.0286
3.03261
3.03985
3.04722
3.04884
3.05672
3.06218
3.06042
3.06042
3.05949
3.05397
3.0528
3.05121
3.0514
3.04362
3.02895
2.997
2.95052
2.87927
2.76566
0.999411
0.999427
0.999406
0.999384
0.999333
0.999265
0.999174
0.999067
0.998939
0.998794
0.99863
0.998449
0.998249
0.998033
0.9978
0.997554
0.997291
0.99703
0.996746
0.996438
0.99615
0.995868
0.995557
0.995251
0.994992
0.994665
0.994348
0.99409
0.993874
0.993677
0.993436
0.993146
0.99292
0.992739
0.992576
0.992432
0.992297
0.992175
0.992055
0.991949
0.99187
0.991796
0.991721
0.991746
0.991723
0.991682
0.991697
0.991711
0.991692
0.99174
0.991723
0.99174
0.991704
0.992239
0.991992
0.994211
0.997702
1.09794
1.91817
2.21577
2.34492
2.40083
2.42296
2.4153
2.32416
2.27027
2.22809
2.22161
2.17492
2.1487
2.14302
2.15873
2.16995
2.22294
2.26438
2.33353
2.36796
2.36478
2.39958
2.44136
2.46844
2.49285
2.52995
2.57956
2.63252
2.68432
2.7351
2.78431
2.82939
2.8703
2.9001
2.93157
2.95642
2.97107
2.98239
2.99581
3.01697
3.03003
3.03338
3.03581
3.04096
3.04833
3.05284
3.05245
3.06002
3.06528
3.06271
3.06171
3.0615
3.05719
3.05721
3.05556
3.05749
3.05152
3.03898
3.00559
2.95441
2.87715
2.76455
0.999412
0.999427
0.999406
0.999384
0.999333
0.999264
0.999174
0.999066
0.998939
0.998793
0.99863
0.998447
0.998248
0.998031
0.997798
0.997549
0.997293
0.997024
0.996735
0.996431
0.996157
0.995851
0.995529
0.995239
0.994971
0.994662
0.994337
0.994066
0.993813
0.993579
0.993346
0.993084
0.992839
0.992643
0.992467
0.992296
0.992114
0.991916
0.991745
0.991593
0.991455
0.991337
0.991196
0.991076
0.990951
0.990854
0.990662
0.990609
0.990384
0.990394
0.990483
0.990711
0.990245
0.990617
0.989232
0.990981
0.997759
1.31426
1.95846
2.09426
2.16305
2.27189
2.31324
2.32214
2.28773
2.23988
2.22317
2.19698
2.19833
2.14361
2.16112
2.24461
2.32385
2.43458
2.51847
2.57697
2.57905
2.59086
2.6328
2.67546
2.70423
2.72274
2.74839
2.76932
2.77998
2.78956
2.80473
2.84069
2.87444
2.90642
2.93388
2.95205
2.96208
2.97007
2.98219
3.00149
3.02411
3.03482
3.04001
3.04419
3.05332
3.06293
3.06472
3.06228
3.06818
3.07257
3.06916
3.06684
3.06746
3.06397
3.06482
3.06222
3.06386
3.05732
3.04498
3.01049
2.95727
2.87082
2.762
0.999412
0.999427
0.999406
0.999384
0.999333
0.999264
0.999173
0.999065
0.998938
0.998793
0.998629
0.998446
0.998246
0.998029
0.997797
0.997548
0.997286
0.997014
0.996728
0.996433
0.996148
0.995856
0.995526
0.995219
0.994924
0.994628
0.994313
0.994051
0.993818
0.993554
0.993272
0.992998
0.992766
0.992566
0.992402
0.992248
0.992082
0.991892
0.99173
0.991588
0.99148
0.991391
0.991281
0.991196
0.991147
0.991026
0.990913
0.990897
0.990835
0.990778
0.9906
0.990644
0.990034
0.990415
0.989818
0.993479
1.00699
1.60304
1.99603
2.07784
2.11974
2.16222
2.24523
2.25119
2.26557
2.25064
2.19389
2.2183
2.27931
2.31743
2.40153
2.54137
2.65326
2.71978
2.7552
2.77624
2.78095
2.77808
2.78858
2.80313
2.8112
2.81415
2.81479
2.81451
2.8146
2.81737
2.83299
2.8622
2.89096
2.9242
2.9453
2.95526
2.96057
2.96817
2.98058
3.00033
3.02067
3.03001
3.03786
3.04525
3.05859
3.06891
3.07199
3.0701
3.07761
3.08124
3.07815
3.07526
3.0763
3.07232
3.07225
3.06724
3.06732
3.06043
3.04791
3.0146
2.95829
2.86571
2.7601
0.999413
0.999428
0.999406
0.999384
0.999332
0.999263
0.999173
0.999065
0.998937
0.998792
0.998627
0.998445
0.998244
0.998028
0.997795
0.997546
0.997282
0.997008
0.996725
0.996433
0.996119
0.995819
0.995519
0.995237
0.99492
0.994581
0.994278
0.993997
0.993754
0.993522
0.993242
0.992918
0.992664
0.992431
0.992235
0.992056
0.991857
0.991639
0.991436
0.991247
0.991058
0.990894
0.990729
0.990558
0.990398
0.990312
0.990228
0.990141
0.990061
0.989957
0.989801
0.989779
0.989273
0.989229
0.989479
0.992797
1.02395
1.85616
2.07578
2.09922
2.10865
2.12497
2.14689
2.2331
2.27179
2.26744
2.33019
2.37679
2.5309
2.65204
2.714
2.76391
2.78851
2.78957
2.78765
2.78983
2.79395
2.79282
2.79769
2.81019
2.82108
2.82943
2.83201
2.83281
2.83499
2.84066
2.85521
2.87984
2.90699
2.93254
2.94475
2.95196
2.95845
2.96797
2.98537
3.00586
3.01924
3.02477
3.03193
3.04289
3.05694
3.06658
3.06937
3.0677
3.0771
3.08215
3.08018
3.0775
3.07858
3.07348
3.07409
3.06885
3.07026
3.064
3.05068
3.01573
2.95734
2.86235
2.75592
0.999414
0.999428
0.999406
0.999384
0.999332
0.999263
0.999172
0.999064
0.998936
0.998791
0.998626
0.998443
0.998243
0.998025
0.997791
0.997542
0.997278
0.997
0.996714
0.996427
0.996116
0.995805
0.995523
0.9952
0.994873
0.994552
0.994268
0.993974
0.993676
0.993417
0.993164
0.992876
0.99261
0.992384
0.992176
0.99197
0.991734
0.99151
0.991325
0.991179
0.991028
0.990879
0.990744
0.990587
0.9905
0.990362
0.990298
0.990206
0.989979
0.989711
0.989451
0.989231
0.989136
0.98832
0.990082
0.993251
1.12899
1.98
2.09641
2.10656
2.10828
2.10353
2.12406
2.19176
2.30149
2.44381
2.58204
2.66485
2.72738
2.75666
2.76534
2.76913
2.77785
2.78522
2.78011
2.7785
2.77883
2.78135
2.78785
2.80069
2.81228
2.82014
2.82683
2.83009
2.8353
2.84648
2.86683
2.89411
2.92058
2.9348
2.94338
2.94824
2.95746
2.97486
2.99859
3.01284
3.01774
3.02203
3.02999
3.04257
3.05338
3.06131
3.06579
3.06634
3.07676
3.08193
3.07993
3.07671
3.07732
3.07178
3.07318
3.06791
3.07054
3.06433
3.05118
3.01422
2.95464
2.85539
2.74976
0.999414
0.999429
0.999406
0.999384
0.999332
0.999263
0.999172
0.999064
0.998936
0.99879
0.998625
0.998442
0.998241
0.998023
0.997788
0.997539
0.997274
0.996993
0.99671
0.996414
0.996101
0.995792
0.995507
0.995167
0.994827
0.994554
0.994254
0.993916
0.993617
0.993339
0.993055
0.992764
0.992497
0.99226
0.992034
0.991775
0.991499
0.99127
0.991047
0.990859
0.990633
0.990404
0.990232
0.990019
0.989866
0.98968
0.989667
0.989632
0.989587
0.989417
0.989325
0.988797
0.989077
0.987686
0.989927
0.995169
1.36045
2.02134
2.06885
2.09249
2.10294
2.11753
2.15297
2.25865
2.46059
2.67438
2.731
2.77087
2.76883
2.77616
2.76952
2.7522
2.75129
2.75716
2.75653
2.75246
2.75235
2.75785
2.76881
2.78271
2.79353
2.80205
2.81061
2.81756
2.82738
2.84523
2.86802
2.89551
2.9209
2.9325
2.93818
2.94699
2.96075
2.98199
3.00151
3.0113
3.01428
3.01815
3.02675
3.03905
3.04752
3.05512
3.06144
3.06369
3.0741
3.07993
3.07883
3.07485
3.07533
3.06936
3.07148
3.06725
3.07019
3.0649
3.05101
3.01257
2.95171
2.84937
2.7434
0.999415
0.999429
0.999406
0.999384
0.999332
0.999262
0.999171
0.999063
0.998935
0.998789
0.998624
0.99844
0.998239
0.99802
0.997784
0.997534
0.997268
0.996989
0.996704
0.996401
0.996077
0.995787
0.995484
0.995135
0.994803
0.994512
0.994203
0.993857
0.993569
0.993297
0.992965
0.992645
0.992381
0.992149
0.99191
0.991617
0.991367
0.991173
0.991001
0.99079
0.990467
0.99013
0.989885
0.989691
0.989623
0.989502
0.989397
0.989253
0.989093
0.988469
0.987922
0.987041
0.987204
0.987036
0.990159
1.00706
1.64675
2.06278
2.11095
2.12208
2.11923
2.13109
2.20417
2.39079
2.62282
2.7564
2.76319
2.7609
2.76317
2.76622
2.76496
2.74915
2.73408
2.73262
2.73086
2.73044
2.72919
2.73301
2.74109
2.75272
2.7653
2.77719
2.78934
2.80308
2.81837
2.84076
2.86224
2.89108
2.91561
2.92958
2.94042
2.95159
2.97025
2.98787
3.00007
3.00565
3.0082
3.01257
3.02323
3.03347
3.03947
3.04598
3.0541
3.0582
3.0684
3.07492
3.07495
3.07076
3.07161
3.06533
3.0688
3.06555
3.06887
3.06417
3.04889
3.00962
2.94718
2.84386
2.73655
0.999415
0.999429
0.999407
0.999384
0.999332
0.999262
0.999171
0.999062
0.998934
0.998788
0.998622
0.998439
0.998237
0.998018
0.997781
0.99753
0.997262
0.996982
0.996696
0.996391
0.996066
0.995779
0.995461
0.995091
0.994776
0.994483
0.994131
0.993791
0.993506
0.993224
0.992881
0.992538
0.992251
0.991997
0.991697
0.991368
0.991114
0.990921
0.990751
0.990499
0.990122
0.989763
0.989514
0.989322
0.989204
0.989198
0.989276
0.989364
0.989196
0.988512
0.987803
0.987378
0.987448
0.988147
0.991339
1.03823
1.88116
2.12217
2.14742
2.15591
2.14767
2.17307
2.33186
2.61366
2.80181
2.79375
2.76582
2.74768
2.74695
2.75175
2.75348
2.74237
2.72409
2.71739
2.71346
2.71353
2.71389
2.71323
2.71573
2.72118
2.73231
2.74924
2.7649
2.78478
2.8024
2.82699
2.85236
2.8825
2.90656
2.92594
2.93952
2.95711
2.97496
2.98692
2.99371
2.9975
3.00169
3.00798
3.01862
3.02513
3.02939
3.03547
3.04581
3.05225
3.06247
3.069
3.07095
3.06605
3.06733
3.06118
3.06582
3.06383
3.06734
3.06211
3.0457
3.00405
2.94067
2.83844
2.72824
0.999415
0.99943
0.999407
0.999384
0.999332
0.999262
0.999171
0.999062
0.998933
0.998787
0.998621
0.998437
0.998235
0.998015
0.997778
0.997525
0.997256
0.996974
0.996682
0.996373
0.996055
0.995765
0.995444
0.995076
0.994753
0.994443
0.994069
0.99372
0.993429
0.993138
0.992779
0.99245
0.992169
0.991907
0.991575
0.99121
0.990939
0.990741
0.990527
0.990267
0.989809
0.989481
0.989227
0.989044
0.988827
0.988741
0.988635
0.988614
0.988308
0.987548
0.986385
0.986619
0.985599
0.987899
0.992872
1.18751
1.99918
2.12984
2.14987
2.15186
2.16152
2.24944
2.50539
2.74582
2.79981
2.79106
2.78101
2.75583
2.7372
2.72879
2.72885
2.72464
2.71635
2.7074
2.69681
2.69581
2.69919
2.69797
2.69691
2.69941
2.70667
2.72078
2.73596
2.75931
2.78006
2.80742
2.8346
2.86693
2.89499
2.91765
2.93644
2.95654
2.97248
2.98095
2.98442
2.98863
2.99533
3.00312
3.01151
3.01564
3.02013
3.02727
3.03779
3.0448
3.05608
3.06226
3.06579
3.0604
3.06177
3.05619
3.06181
3.06161
3.06501
3.0594
3.04175
2.99748
2.93359
2.83135
2.71825
0.999416
0.99943
0.999407
0.999384
0.999332
0.999262
0.99917
0.999061
0.998933
0.998786
0.99862
0.998436
0.998233
0.998012
0.997774
0.99752
0.997251
0.996971
0.996676
0.996362
0.996043
0.995741
0.995403
0.995045
0.994734
0.994404
0.994018
0.99367
0.993367
0.993057
0.992671
0.992321
0.992028
0.991747
0.991398
0.991002
0.990717
0.990497
0.990287
0.989998
0.989505
0.989161
0.988858
0.988655
0.988448
0.988489
0.988497
0.988543
0.988241
0.987587
0.986149
0.986427
0.9849
0.988157
1.00037
1.50687
2.05435
2.11084
2.11936
2.14967
2.21555
2.40312
2.6735
2.78338
2.78895
2.79167
2.77473
2.75322
2.73367
2.718
2.71542
2.70999
2.70398
2.69642
2.68506
2.68215
2.68456
2.68378
2.68129
2.68141
2.68765
2.69759
2.70859
2.7288
2.7492
2.7789
2.81169
2.84681
2.87942
2.90556
2.92862
2.95138
2.9657
2.97219
2.97586
2.98058
2.98907
2.99745
3.00295
3.00619
3.01176
3.01925
3.02992
3.03749
3.04987
3.05502
3.05925
3.05385
3.05493
3.05023
3.05696
3.05911
3.06215
3.05594
3.03665
2.99057
2.92684
2.82412
2.70822
0.999416
0.99943
0.999407
0.999384
0.999331
0.999262
0.99917
0.999061
0.998932
0.998785
0.998618
0.998434
0.99823
0.998009
0.99777
0.997516
0.997244
0.99696
0.996663
0.996351
0.996041
0.995717
0.995369
0.995021
0.994704
0.994356
0.993966
0.993622
0.993317
0.992977
0.992574
0.992224
0.991926
0.99164
0.991275
0.990879
0.990558
0.990312
0.990077
0.989775
0.989282
0.988904
0.988582
0.988398
0.988265
0.988064
0.988013
0.987945
0.987624
0.98709
0.986458
0.986451
0.986639
0.990338
1.02331
1.82536
2.1255
2.14775
2.16127
2.24473
2.40293
2.64652
2.7993
2.77033
2.75866
2.76546
2.75847
2.74851
2.74379
2.72744
2.71409
2.70072
2.69446
2.68816
2.67932
2.67451
2.67453
2.67241
2.6701
2.66938
2.67288
2.67765
2.68407
2.69837
2.71825
2.7466
2.78016
2.81822
2.85738
2.887
2.91644
2.93966
2.95327
2.96096
2.96775
2.97416
2.98291
2.98975
2.99402
2.99778
3.0041
3.01113
3.02179
3.03019
3.04291
3.04685
3.05115
3.04651
3.04733
3.04384
3.05206
3.05614
3.05821
3.05146
3.03051
2.98304
2.91824
2.81709
2.6977
0.999416
0.999431
0.999407
0.999384
0.999331
0.999261
0.999169
0.99906
0.998931
0.998784
0.998617
0.998432
0.998228
0.998006
0.997767
0.997511
0.997239
0.996956
0.996653
0.996338
0.996028
0.995692
0.995337
0.995012
0.994667
0.99429
0.993916
0.99358
0.993263
0.992885
0.992474
0.992116
0.991807
0.991486
0.991085
0.990672
0.990329
0.990049
0.989783
0.989466
0.989024
0.98867
0.988412
0.98819
0.987984
0.987742
0.987825
0.987624
0.987091
0.986314
0.985579
0.98374
0.984067
0.988393
1.14595
1.99582
2.14639
2.17283
2.20503
2.34047
2.58897
2.81353
2.81284
2.77896
2.77538
2.76412
2.74412
2.73316
2.72934
2.72346
2.70983
2.69386
2.68498
2.67995
2.67358
2.66966
2.6656
2.66126
2.66097
2.66087
2.66145
2.66142
2.66588
2.67443
2.69042
2.71176
2.74597
2.78412
2.8268
2.86315
2.89704
2.9223
2.93814
2.94852
2.95849
2.96716
2.97517
2.98093
2.9856
2.99047
2.99695
3.00249
3.01343
3.02309
3.03542
3.03815
3.04255
3.0387
3.03947
3.03727
3.04772
3.0525
3.05378
3.04575
3.02296
2.97511
2.91093
2.80916
2.68694
0.999416
0.999431
0.999408
0.999384
0.999331
0.999261
0.999169
0.99906
0.99893
0.998783
0.998616
0.99843
0.998226
0.998003
0.997763
0.997505
0.997232
0.996944
0.996642
0.996329
0.996015
0.995673
0.995316
0.994985
0.994637
0.994241
0.993879
0.993557
0.993183
0.992762
0.992383
0.992048
0.991749
0.991398
0.990987
0.990636
0.990294
0.990018
0.989667
0.989259
0.988834
0.988471
0.988174
0.987855
0.987489
0.987033
0.986793
0.986223
0.985676
0.984593
0.984439
0.983547
0.987441
0.997178
1.48778
2.077
2.134
2.15689
2.26658
2.48601
2.71538
2.795
2.79463
2.76732
2.76552
2.75295
2.72348
2.70995
2.71029
2.71365
2.70726
2.69194
2.67925
2.67242
2.66583
2.66077
2.65566
2.65237
2.65238
2.65148
2.64948
2.64755
2.65086
2.65555
2.66863
2.68301
2.71218
2.74782
2.79175
2.83366
2.87168
2.89994
2.92049
2.93445
2.94756
2.95737
2.96517
2.97135
2.97733
2.98356
2.99017
2.99424
3.00591
3.01677
3.0281
3.0299
3.03362
3.03046
3.0315
3.03101
3.04335
3.04818
3.04863
3.03877
3.01498
2.96583
2.90188
2.79907
2.67516
0.999416
0.999431
0.999408
0.999384
0.999332
0.999261
0.999169
0.999059
0.99893
0.998782
0.998614
0.998428
0.998223
0.998
0.997759
0.9975
0.997228
0.996938
0.996631
0.996317
0.99599
0.99565
0.995301
0.994951
0.994593
0.994205
0.993843
0.993516
0.993123
0.992692
0.992316
0.991987
0.991611
0.991152
0.990739
0.990398
0.990106
0.989771
0.989324
0.988847
0.988536
0.988249
0.988049
0.987972
0.987984
0.987898
0.987872
0.987804
0.987519
0.98725
0.987333
0.987498
0.991352
1.0319
1.83056
2.11469
2.19293
2.2847
2.50704
2.73952
2.78097
2.76101
2.74379
2.72595
2.72349
2.72577
2.71665
2.69894
2.69084
2.69096
2.6846
2.67385
2.66479
2.66068
2.65609
2.65171
2.64763
2.64462
2.64357
2.64211
2.64008
2.63663
2.63924
2.64066
2.64844
2.65938
2.68378
2.71437
2.75304
2.7993
2.84131
2.8742
2.90034
2.91865
2.93411
2.94489
2.9535
2.96099
2.96877
2.97638
2.98283
2.98607
2.9984
3.01009
3.02005
3.02121
3.02424
3.02138
3.02304
3.02428
3.03846
3.04291
3.04228
3.03133
3.00652
2.95651
2.89263
2.78873
2.66221
0.999416
0.999431
0.999408
0.999384
0.999332
0.999261
0.999169
0.999059
0.998929
0.998781
0.998613
0.998427
0.998221
0.997997
0.997755
0.997495
0.99722
0.996929
0.996624
0.996308
0.995977
0.995634
0.995285
0.994926
0.994555
0.994172
0.993799
0.993446
0.993044
0.992635
0.992288
0.991935
0.991501
0.991087
0.990751
0.990473
0.990206
0.989826
0.989296
0.988856
0.988534
0.98817
0.987797
0.987381
0.986805
0.986115
0.985394
0.984773
0.983744
0.983028
0.981446
0.98257
0.990798
1.2077
2.02442
2.1564
2.2393
2.41643
2.66333
2.82227
2.79348
2.77006
2.76082
2.73647
2.71741
2.71351
2.70612
2.6888
2.67421
2.67029
2.66432
2.65892
2.65403
2.65103
2.64719
2.64253
2.63605
2.63353
2.6329
2.63215
2.62977
2.62736
2.62878
2.62895
2.63236
2.64082
2.65837
2.68584
2.71893
2.76314
2.8073
2.84584
2.8773
2.90047
2.91763
2.92976
2.94034
2.94989
2.95918
2.96778
2.97448
2.97828
2.99062
3.00223
3.01114
3.01178
3.01437
3.01172
3.01454
3.01786
3.03335
3.0366
3.03497
3.02308
2.99705
2.9471
2.88298
2.77838
2.65058
0.999416
0.999431
0.999408
0.999384
0.999332
0.999261
0.999169
0.999059
0.998928
0.99878
0.998612
0.998425
0.998218
0.997994
0.997751
0.997491
0.997215
0.996921
0.996615
0.996295
0.995961
0.995617
0.995266
0.994903
0.994529
0.994167
0.993786
0.993377
0.992968
0.992607
0.992279
0.991861
0.991356
0.990929
0.990571
0.990273
0.989924
0.989458
0.988877
0.988472
0.988184
0.98793
0.987727
0.987519
0.987252
0.987068
0.9869
0.987268
0.987204
0.988126
0.987676
0.991874
1.01265
1.60563
2.11864
2.23691
2.37653
2.61425
2.74546
2.75556
2.73287
2.73933
2.75684
2.74336
2.71724
2.70183
2.69348
2.68056
2.66602
2.6616
2.65644
2.65133
2.6464
2.6426
2.63648
2.62902
2.62044
2.61895
2.62019
2.62061
2.61844
2.61772
2.6174
2.61779
2.61857
2.6265
2.63781
2.66098
2.68925
2.72872
2.77295
2.81517
2.85169
2.87836
2.89784
2.9124
2.92579
2.93755
2.94813
2.95741
2.96483
2.97023
2.98215
2.99314
3.00134
3.0018
3.00436
3.00185
3.00634
3.01171
3.02767
3.02949
3.02691
3.01385
2.98733
2.93758
2.87343
2.76903
2.63907
0.999416
0.999431
0.999408
0.999385
0.999332
0.999261
0.999168
0.999058
0.998928
0.998779
0.99861
0.998423
0.998216
0.997991
0.997747
0.997486
0.997208
0.996914
0.996607
0.996286
0.995952
0.995607
0.995251
0.994883
0.994506
0.994143
0.993755
0.993324
0.99291
0.99256
0.992243
0.991819
0.991321
0.990939
0.990624
0.990368
0.99008
0.989642
0.98921
0.9889
0.988608
0.988304
0.988037
0.987601
0.986918
0.986135
0.985235
0.984681
0.983861
0.982718
0.982915
0.986516
1.0768
1.93722
2.20876
2.3311
2.57592
2.77964
2.80181
2.79395
2.74054
2.72138
2.72308
2.71711
2.69557
2.67727
2.67108
2.66738
2.65879
2.65518
2.65026
2.64407
2.63699
2.62961
2.62184
2.61378
2.60565
2.60337
2.60566
2.60738
2.60583
2.60435
2.60484
2.60712
2.60604
2.61196
2.62054
2.63913
2.66495
2.69873
2.74089
2.78348
2.82336
2.85247
2.8751
2.89335
2.90993
2.92362
2.93536
2.94547
2.95394
2.9612
2.97281
2.98298
2.99106
2.99169
2.99436
2.99193
2.99808
3.00574
3.02132
3.02194
3.0182
3.00411
2.97724
2.92749
2.86346
2.75927
2.62696
0.999416
0.999431
0.999408
0.999385
0.999332
0.999261
0.999168
0.999058
0.998927
0.998778
0.998609
0.998421
0.998214
0.997988
0.997744
0.997483
0.997203
0.996909
0.9966
0.996275
0.99594
0.995595
0.995234
0.994863
0.994496
0.994138
0.993741
0.993321
0.992903
0.992538
0.992219
0.99183
0.991329
0.990884
0.990484
0.990158
0.989801
0.989289
0.988695
0.988262
0.987928
0.987696
0.987515
0.987321
0.987095
0.986444
0.986265
0.985922
0.986397
0.985355
0.989779
0.995678
1.46711
2.15207
2.24861
2.43796
2.6764
2.75552
2.75715
2.76731
2.74544
2.71464
2.70275
2.69251
2.67641
2.66536
2.66082
2.65909
2.65032
2.64399
2.6355
2.62909
2.62229
2.61661
2.60939
2.60212
2.59481
2.58948
2.59145
2.59297
2.59054
2.58682
2.58913
2.5935
2.5941
2.59788
2.60631
2.61918
2.64317
2.67166
2.71091
2.75158
2.79243
2.82346
2.84998
2.87224
2.89213
2.90805
2.92095
2.93169
2.94142
2.95057
2.96241
2.97199
2.98049
2.98163
2.98431
2.98173
2.98964
2.99977
3.01372
3.01384
3.00857
2.99383
2.96689
2.91729
2.85376
2.74892
2.61445
0.999415
0.999431
0.999408
0.999385
0.999332
0.999261
0.999168
0.999058
0.998927
0.998777
0.998608
0.99842
0.998212
0.997986
0.99774
0.997478
0.997198
0.996904
0.996594
0.996272
0.995936
0.995591
0.995231
0.994858
0.994485
0.994122
0.993734
0.993316
0.992888
0.992505
0.992175
0.991803
0.991325
0.990901
0.990573
0.990309
0.990038
0.989669
0.989248
0.988998
0.988757
0.988604
0.988457
0.988114
0.987536
0.986794
0.986524
0.985537
0.985392
0.985326
0.989708
1.03395
1.87784
2.29863
2.46157
2.70109
2.80219
2.77119
2.72586
2.70848
2.69534
2.68023
2.67055
2.66948
2.66433
2.65464
2.64986
2.6491
2.63872
2.6306
2.6229
2.61827
2.61325
2.60759
2.59894
2.59118
2.58468
2.5769
2.57689
2.57668
2.57483
2.57148
2.57529
2.57962
2.58333
2.58507
2.59425
2.60241
2.62239
2.64751
2.68133
2.72061
2.75988
2.79282
2.82345
2.8498
2.87277
2.89068
2.90481
2.91659
2.92756
2.93843
2.9508
2.96041
2.96971
2.97146
2.974
2.97136
2.98104
2.9938
3.00512
3.00463
2.99845
2.98302
2.95591
2.90697
2.84325
2.7382
2.60212
0.999415
0.999431
0.999408
0.999385
0.999332
0.999261
0.999168
0.999058
0.998926
0.998777
0.998607
0.998418
0.99821
0.997983
0.997739
0.997476
0.997196
0.996901
0.99659
0.996266
0.995929
0.995583
0.995223
0.994853
0.994478
0.994112
0.993764
0.993346
0.992911
0.992541
0.992223
0.991854
0.991376
0.99093
0.990551
0.990232
0.989882
0.989396
0.988807
0.988425
0.988088
0.98776
0.987421
0.98704
0.986337
0.985857
0.985076
0.985228
0.98418
0.987006
0.990677
1.28292
2.16519
2.36209
2.59193
2.78055
2.81064
2.80156
2.7471
2.71972
2.70188
2.6788
2.66562
2.66272
2.65948
2.64742
2.63558
2.62976
2.61943
2.61208
2.60761
2.60362
2.59976
2.59435
2.58628
2.57759
2.5718
2.56516
2.56362
2.56257
2.56011
2.55879
2.56181
2.56514
2.57144
2.57333
2.58045
2.58856
2.60257
2.62502
2.65359
2.69085
2.72736
2.76213
2.79644
2.82606
2.85176
2.87161
2.88741
2.90051
2.9126
2.9249
2.93836
2.94857
2.95863
2.961
2.96329
2.961
2.9728
2.98783
2.99586
2.99468
2.98778
2.97151
2.94414
2.89546
2.83265
2.72771
2.58959
0.999415
0.999431
0.999408
0.999385
0.999332
0.999262
0.999169
0.999057
0.998926
0.998776
0.998606
0.998417
0.998209
0.997982
0.997736
0.997472
0.997193
0.996897
0.996588
0.996266
0.995931
0.995585
0.995229
0.994863
0.994481
0.99412
0.993779
0.993357
0.992918
0.992556
0.992238
0.991855