/*--------------------------------*- C++ -*----------------------------------*\
| =========                 |                                                 |
| \\      /  F ield         | OpenFOAM: The Open Source CFD Toolbox           |
|  \\    /   O peration     | Version:  2.2.x                                 |
|   \\  /    A nd           | Web:      www.OpenFOAM.org                      |
|    \\/     M anipulation  |                                                 |
\*---------------------------------------------------------------------------*/
FoamFile
{
    version     2.0;
    format      ascii;
    class       volScalarField;
    location    "1.85";
    object      pB;
}
// * * * * * * * * * * * * * * * * * * * * * * * * * * * * * * * * * * * * * //

dimensions      [1 1 -3 0 0 -1 0];

internalField   nonuniform List<scalar> 
14161
(
-0.0014442
0.00021472
-8.70692e-05
-4.55484e-05
-8.51037e-05
-9.2022e-05
-0.000111326
-0.000125734
-0.000142127
-0.000152065
-0.000166624
-0.0001955
-0.000190811
-0.000195378
-0.000241038
-0.000250714
-0.000219713
-0.00023682
-0.000290902
-0.00031212
-0.000269236
-0.000227752
-0.000272879
-0.000322006
-0.000299706
-0.000238173
-0.000177941
-0.000149078
-0.000153029
-0.000109331
-1.49214e-05
0.000100433
0.000276772
0.000438012
0.000598634
0.000921333
0.00108207
0.00159758
0.00207546
0.00262688
0.00316931
0.00394947
0.0041492
0.00583972
0.00470483
0.00555919
-0.00903636
0.00561341
-0.00433311
0.00853885
0.00112213
0.00646297
0.00172236
0.00290985
0.00289137
0.0020342
0.00263253
0.00189142
0.0020609
0.00182204
0.00148499
0.00131353
0.000883558
0.000650238
0.000234266
1.4406e-05
-0.000239711
-0.000408305
-0.000595507
-0.000735208
-0.000902685
-0.000877169
-0.00113654
-0.00109289
-0.00124162
-0.00119386
-0.00153668
-0.00120923
-0.00153715
-0.00172301
-0.00146303
-0.00173392
-0.00185606
-0.00156302
-0.0019656
-0.0022264
-0.00215539
-0.00239755
-0.00254795
-0.00215506
-0.00278089
-0.00289319
-0.00289814
-0.00307147
-0.00338508
-0.00326487
-0.0038167
-0.00339634
-0.00454143
-0.0039283
-0.00505357
-0.00534081
-0.00602581
-0.00858075
-0.0105555
-0.0168981
-0.0225117
-0.021336
-0.0183383
-0.00945537
-0.0115013
-0.00178044
-0.00941143
0.0056339
-0.0125357
0.0128386
-0.0314887
0.033989
-0.0907717
-0.00144943
0.000215842
-8.74508e-05
-4.60366e-05
-8.4768e-05
-9.29672e-05
-0.000111477
-0.000125547
-0.00014257
-0.000151949
-0.000168144
-0.000193653
-0.000191727
-0.00019498
-0.000244361
-0.000244262
-0.000224824
-0.000236469
-0.000300929
-0.000298829
-0.000262358
-0.000242756
-0.000276941
-0.000320924
-0.000288406
-0.000227664
-0.000182136
-0.000170199
-0.000142735
-8.59336e-05
-1.34271e-05
8.76664e-05
0.000237802
0.000430463
0.000664602
0.000886273
0.00122665
0.00161681
0.00191986
0.00259992
0.00322377
0.0039993
0.00446287
0.00589969
0.00481977
0.00958551
-0.0140364
0.00609403
-0.00174012
0.00608018
0.00163307
0.00634004
0.00157157
0.00244538
0.00234575
0.00142949
0.0012263
0.000694706
-0.000287098
-0.000843445
-0.00182706
-0.00218497
-0.0027244
-0.0029227
-0.00308165
-0.00298286
-0.00294785
-0.00284946
-0.00273361
-0.00261289
-0.00248264
-0.00240717
-0.00217963
-0.00205307
-0.00208237
-0.00213134
-0.00219173
-0.00184803
-0.00218636
-0.00226542
-0.00183258
-0.00235988
-0.00234414
-0.00197956
-0.00269016
-0.00263778
-0.00260234
-0.00295125
-0.0030115
-0.00266894
-0.00331623
-0.00332512
-0.00334109
-0.00365838
-0.0039456
-0.00385648
-0.00437791
-0.00410265
-0.00529678
-0.00414818
-0.00647523
-0.00563847
-0.0061383
-0.00571002
-0.00576678
-0.00477608
-0.00462817
0.00163014
0.00115223
0.00394788
-0.00236656
0.00389063
-0.00482828
0.00839839
-0.00965304
0.014477
-0.0289658
0.0334037
-0.0844311
-0.00144447
0.00021577
-8.73436e-05
-4.63649e-05
-8.40391e-05
-9.32474e-05
-0.000111026
-0.000125718
-0.000142373
-0.000151874
-0.000168403
-0.000193283
-0.000191801
-0.000195479
-0.000243375
-0.000241455
-0.000227771
-0.000237367
-0.000301876
-0.000293575
-0.000261205
-0.000255015
-0.000283938
-0.000322183
-0.000286276
-0.000235024
-0.000201209
-0.00017303
-0.000143939
-9.29983e-05
-3.53746e-05
6.8729e-05
0.000196785
0.00039421
0.000534032
0.000753723
0.0010489
0.00131744
0.00183137
0.00245969
0.00289413
0.00376249
0.00440362
0.00563756
0.00347932
0.0116447
-0.0193544
0.00913294
0.000188499
0.00799827
6.25891e-05
0.00800675
0.00126093
0.0020529
0.00227088
0.00148262
0.00147699
0.00119807
0.000656622
0.000802698
0.000227268
0.000545961
0.000266273
9.52414e-05
-0.00014764
-0.000372545
-0.000663295
-0.000777983
-0.000962234
-0.00105921
-0.00118123
-0.00124728
-0.00140248
-0.00153218
-0.00157023
-0.00161476
-0.00162707
-0.00137187
-0.00191691
-0.00186342
-0.00164239
-0.00225813
-0.00195471
-0.00147099
-0.00259664
-0.00225506
-0.00221527
-0.00280911
-0.00256834
-0.00232873
-0.00298834
-0.00276158
-0.002574
-0.00336762
-0.00307485
-0.00353432
-0.00362621
-0.00364144
-0.00480213
-0.00510812
-0.00452524
-0.00557899
-0.00579731
-0.00853873
-0.0097229
-0.0175323
-0.00908799
-0.00854306
-0.00178045
0.00322678
-0.0019007
0.0035805
-0.00455363
0.00785135
-0.00897218
0.0134234
-0.0269058
0.030657
-0.0796543
-0.00144348
0.000214763
-8.80433e-05
-4.63326e-05
-8.34639e-05
-9.44646e-05
-0.000112159
-0.000125327
-0.000142173
-0.000152853
-0.000168601
-0.00019148
-0.000191094
-0.000199642
-0.000240309
-0.000236541
-0.000233073
-0.000252438
-0.000292461
-0.000280289
-0.000263997
-0.000280281
-0.000287122
-0.000295085
-0.000268087
-0.00023325
-0.000229048
-0.000191199
-0.000145439
-9.44703e-05
-3.92805e-05
5.35433e-05
0.000148263
0.000285577
0.000411169
0.000639301
0.000865951
0.00121214
0.00167362
0.00204064
0.00258121
0.00357683
0.00434196
0.00576455
0.00342941
0.0130191
-0.0249714
0.0127699
-0.0019499
0.00886382
0.000568507
0.0064177
0.00167392
0.0018401
0.00193537
0.00151606
0.00102999
0.00125519
0.000273002
0.000602294
-0.000138675
-0.000189775
-0.000461958
-0.00081335
-0.000926161
-0.00125067
-0.00139771
-0.00156894
-0.0016182
-0.00171348
-0.00170677
-0.00169154
-0.0016265
-0.00183619
-0.00184328
-0.00200004
-0.00180599
-0.00158962
-0.0020835
-0.00189795
-0.00175921
-0.00229622
-0.00200402
-0.00149299
-0.00282803
-0.00212221
-0.00236527
-0.00272652
-0.00268674
-0.00250925
-0.00326037
-0.00279424
-0.00278518
-0.00382953
-0.00342578
-0.00354087
-0.00414945
-0.0035714
-0.00435647
-0.00311889
-0.00626466
-0.00522406
-0.0059419
-0.00590722
-0.0083436
-0.00424138
-0.00835753
-0.0011566
-0.00199007
0.00295279
-0.00299898
0.0030801
-0.00433436
0.00695205
-0.0087315
0.0114938
-0.0250866
0.0268927
-0.0738538
-0.00144072
0.000213259
-8.76317e-05
-4.64752e-05
-8.3189e-05
-9.40086e-05
-0.000111392
-0.000124659
-0.000141745
-0.000153199
-0.000168989
-0.000187894
-0.000191556
-0.000209752
-0.00023406
-0.000229606
-0.000243089
-0.000263107
-0.0002796
-0.000268428
-0.000280987
-0.00030014
-0.000285659
-0.000276448
-0.000267273
-0.000264003
-0.000258816
-0.000213757
-0.0001643
-0.000114218
-6.10263e-05
-6.60281e-07
7.02393e-05
0.000154059
0.000264682
0.000447418
0.000629284
0.000933758
0.00118491
0.00156228
0.00219531
0.0028615
0.0035379
0.0051663
0.00462443
0.0131585
-0.0225533
0.0195088
-0.00279078
0.00868295
0.00122723
0.00594152
0.00214348
0.00268071
0.0022576
0.00244219
0.00112215
0.00172636
0.00049373
0.0011251
0.000476082
0.000460255
-8.09432e-05
-0.000115801
-0.000287275
-0.000240721
-0.0003186
-0.000509039
-0.000688
-0.000937033
-0.0011141
-0.00135802
-0.00141959
-0.00153823
-0.00145543
-0.00158864
-0.00155499
-0.00121164
-0.00208795
-0.00172116
-0.00178715
-0.00228227
-0.00211899
-0.0016965
-0.00284002
-0.00207325
-0.00244216
-0.00277906
-0.00252495
-0.00250518
-0.00330585
-0.00269094
-0.00241745
-0.00379305
-0.00226883
-0.00437321
-0.00361476
-0.00351772
-0.00384072
-0.00535659
-0.00454552
-0.00685534
-0.00570922
-0.0108023
-0.00643832
-0.00803809
-0.0034373
-0.00189541
0.00100299
0.0014582
-0.00188565
0.00280705
-0.00367278
0.00633016
-0.00753397
0.0105526
-0.0213666
0.0235307
-0.0673721
-0.00143762
0.000212121
-8.76721e-05
-4.67468e-05
-8.28026e-05
-9.49698e-05
-0.000112023
-0.000123705
-0.000141862
-0.000154117
-0.000170483
-0.000184108
-0.000193763
-0.000214289
-0.000223961
-0.000225033
-0.000254855
-0.000263902
-0.000267122
-0.00025692
-0.0002938
-0.000312911
-0.000295747
-0.000265243
-0.00025121
-0.000277464
-0.000278882
-0.000235381
-0.000173952
-0.000128541
-9.00892e-05
-4.6962e-05
-9.38554e-06
3.675e-05
9.67563e-05
0.000201821
0.000375531
0.000602379
0.000812888
0.0011264
0.0014261
0.00222292
0.00263898
0.00431392
0.00456143
0.0102313
-0.00783186
0.011119
0.00251286
0.00775151
0.00383342
0.00362494
0.00256572
0.0026325
0.00162552
0.00295505
0.000824694
0.00148945
0.000201075
0.000938324
-9.43727e-05
-0.000120994
-0.000578267
-0.000966417
-0.00105878
-0.0012612
-0.00121636
-0.00135259
-0.00129102
-0.00135972
-0.00138508
-0.00142126
-0.00138041
-0.00150382
-0.00151647
-0.0016367
-0.00182734
-0.00150453
-0.00234561
-0.00151524
-0.00187758
-0.00196976
-0.00215106
-0.00193226
-0.00235507
-0.00157471
-0.00228851
-0.00223183
-0.00246216
-0.00215885
-0.0033879
-0.00260175
-0.00275453
-0.00360059
-0.00328561
-0.0020259
-0.0031542
-0.00310214
-0.00552871
-0.00575912
-0.00400851
-0.00678518
-0.00632241
-0.00603517
-0.00578883
-0.00344021
-0.00513444
0.000156798
0.000292067
-7.77369e-05
-0.00130286
0.00185695
-0.00348627
0.00487598
-0.00720306
0.00875834
-0.0203032
0.019071
-0.0613901
-0.00143312
0.000210741
-8.74524e-05
-4.67298e-05
-8.29397e-05
-9.46379e-05
-0.000111909
-0.000122645
-0.000141689
-0.000154804
-0.00017146
-0.000177877
-0.000197814
-0.000217931
-0.000218356
-0.000220259
-0.00026581
-0.000271082
-0.000257077
-0.000248577
-0.000303959
-0.000326653
-0.000299061
-0.00025855
-0.000250092
-0.000297539
-0.000300976
-0.000261761
-0.000200766
-0.000158819
-0.000137726
-0.0001329
-0.000121921
-0.000110917
-9.14849e-05
-6.18392e-05
-6.91242e-06
3.44497e-05
6.20515e-05
4.72947e-05
3.24278e-05
6.25786e-05
8.21394e-05
7.45266e-05
0.000742418
0.000639206
0.00630698
0.00706653
0.0057357
0.00787739
0.00495305
0.00403444
0.000707768
0.00226491
-3.11075e-05
0.000917839
0.000494496
0.000552852
0.00142524
0.000307901
0.000714615
-0.000534437
-0.000251635
-0.000729955
-0.000726448
-0.00107122
-0.001099
-0.00112592
-0.00122105
-0.00129143
-0.00130923
-0.00148769
-0.00147205
-0.00163489
-0.00148946
-0.00162702
-0.00128788
-0.00168899
-0.0017526
-0.00130234
-0.00196102
-0.00180752
-0.00216719
-0.00242791
-0.00233405
-0.0021888
-0.00248053
-0.00219146
-0.00215076
-0.00278528
-0.00324086
-0.00269377
-0.00245262
-0.00224255
-0.00173838
-0.00396055
-0.00496205
-0.00512457
-0.0023787
-0.00581259
-0.00390563
-0.00960247
-0.00289276
-0.00574393
-0.00397049
-0.00371248
-0.00308167
0.000492214
-0.0019144
0.000209086
-0.000643961
0.00144958
-0.00258376
0.00420325
-0.00602921
0.007794
-0.0180852
0.0165239
-0.0545798
-0.0014283
0.000208682
-8.78397e-05
-4.69403e-05
-8.33575e-05
-9.48365e-05
-0.000111458
-0.000123192
-0.000140778
-0.000155172
-0.000172116
-0.000173326
-0.000201091
-0.000222554
-0.000209302
-0.00021585
-0.000281923
-0.000273007
-0.000234459
-0.000253864
-0.000327248
-0.000339129
-0.000290146
-0.000247645
-0.000258334
-0.000327091
-0.000323925
-0.000275677
-0.000234466
-0.000207307
-0.000197427
-0.000217334
-0.000243208
-0.000270879
-0.000295659
-0.000301559
-0.000313135
-0.000355382
-0.000473919
-0.000621514
-0.000758647
-0.00108687
-0.00121898
-0.0022772
4.2844e-05
-0.0107149
0.0304201
0.00211145
0.00943569
0.00861999
0.00659609
0.0038869
0.00261341
0.00287671
0.00122277
-1.25489e-05
0.00113782
-0.00106129
0.00114634
-0.00118449
0.000186084
-0.00177037
-0.00130467
-0.00133591
-0.00150074
-0.00152096
-0.00139764
-0.00128034
-0.0013391
-0.00139312
-0.0012875
-0.00134552
-0.00135016
-0.00137009
-0.00144751
-0.00152103
-0.0011895
-0.00190611
-0.00185459
-0.00167283
-0.00196574
-0.00201688
-0.00172245
-0.00229026
-0.00154948
-0.00187794
-0.00194997
-0.00203109
-0.00215502
-0.00193548
-0.00186248
-0.0019181
-0.0027196
-0.00389694
-0.00430548
-0.00387007
-0.0028592
-0.00333656
-0.00338302
-0.0065462
-0.00586935
-0.00281327
-0.00323966
-0.00402705
-0.00355096
-0.00297678
-0.00286727
0.00105913
-0.00289025
0.00113147
-0.00157296
0.000594738
-0.00250792
0.00251732
-0.00570808
0.00587311
-0.0167141
0.0133082
-0.0492765
-0.00142319
0.000206626
-8.81365e-05
-4.69641e-05
-8.36535e-05
-9.44734e-05
-0.000110614
-0.000124881
-0.000138643
-0.000158024
-0.000171592
-0.000166557
-0.000207832
-0.000225774
-0.000196699
-0.000220987
-0.000294385
-0.000270038
-0.000226705
-0.00025707
-0.000335866
-0.000329462
-0.000285386
-0.000251225
-0.000283101
-0.000345162
-0.000332541
-0.000289007
-0.000254631
-0.000253623
-0.000281751
-0.000316044
-0.000340429
-0.00039173
-0.000488876
-0.000592132
-0.00068391
-0.000842173
-0.00116642
-0.00175405
-0.00246938
-0.00343902
-0.00555055
-0.00735099
-0.010778
-0.0177222
0.0253087
-0.00721162
0.0289252
0.000884234
0.0146386
0.00248828
0.00622845
0.000741681
0.00217829
-0.000765594
0.00136755
-0.000979757
0.000378647
-0.00140118
-0.00085719
-0.00185638
-0.0012994
-0.00153725
-0.00121932
-0.00140613
-0.00148973
-0.0013141
-0.00144166
-0.001442
-0.00144481
-0.00147342
-0.00149088
-0.00155048
-0.0015667
-0.00161758
-0.0012285
-0.00172582
-0.00135624
-0.00139503
-0.00140197
-0.00172815
-0.00162995
-0.00252236
-0.00169834
-0.00247655
-0.00169582
-0.00180111
-0.00142022
-0.00281015
-0.00344993
-0.0036079
-0.00304431
-0.00300233
-0.00154862
-0.00324353
-0.0030598
-0.00438085
-0.00512991
-0.00201507
-0.00174744
-0.00359961
-0.00343865
-0.00321039
-0.00320853
-0.00293995
-0.000742852
-0.0020691
-0.00123733
-0.000330155
-0.00100833
0.00042788
-0.00181124
0.00200932
-0.00464157
0.00495823
-0.0144026
0.0114091
-0.0431582
-0.00141745
0.000204589
-8.81401e-05
-4.66758e-05
-8.42508e-05
-9.36588e-05
-0.00010976
-0.000127278
-0.000135435
-0.00016107
-0.00017037
-0.000162845
-0.00021599
-0.000219717
-0.000192273
-0.000230735
-0.000287898
-0.000260762
-0.00023754
-0.000278979
-0.000338571
-0.000316502
-0.00028246
-0.000289836
-0.000313755
-0.000338583
-0.00032272
-0.000297919
-0.000295162
-0.000319879
-0.000361915
-0.000390721
-0.000433674
-0.000516498
-0.000628288
-0.000771511
-0.000949959
-0.00127608
-0.00154132
-0.00193014
-0.00235089
-0.00298629
-0.00361397
-0.00446682
-0.00287156
-0.000472096
0.0177653
0.0241168
0.0315676
0.00022026
-0.00554437
-0.00612576
-0.00204282
-0.00187054
-0.000687666
-0.000726094
-0.0013269
-0.00243008
-0.00192491
-0.00322763
-0.00251221
-0.00120075
-0.00135187
-0.00130867
-0.00146441
-0.00156714
-0.0011413
-0.00105931
-0.000968194
-0.000632708
-0.000740646
-0.000672957
-0.000764094
-0.00079463
-0.00108262
-0.00110077
-0.00105132
-0.00164158
-0.00146082
-0.00169824
-0.00150752
-0.00183902
-0.00126459
-0.00247872
-0.00112037
-0.00158786
-0.00214974
-0.00235902
-0.00219365
-0.00220616
-0.00136198
-0.00257099
-0.00208305
-0.00277871
-0.00347394
-0.00273643
-0.00505587
-0.00285046
-0.00589683
-0.0013715
-0.00316812
-0.00247575
-0.00253615
-0.00265629
-0.00298707
-0.00123216
-0.00157683
-0.0012846
-0.00128976
-0.000513471
-0.000988757
-0.000300897
-0.00179579
0.000643717
-0.0044497
0.00295178
-0.0131652
0.00890675
-0.0385976
-0.00141096
0.000202731
-8.80699e-05
-4.70487e-05
-8.51851e-05
-9.25012e-05
-0.000109245
-0.000128777
-0.000131834
-0.000163074
-0.000166919
-0.000166411
-0.000218319
-0.000209389
-0.000202491
-0.000248842
-0.000274613
-0.000247647
-0.000262111
-0.000298674
-0.000318407
-0.000303113
-0.000295941
-0.000319897
-0.000330217
-0.000330483
-0.000335315
-0.000336499
-0.000363536
-0.000407907
-0.000422368
-0.00044837
-0.000527581
-0.000634623
-0.000729667
-0.00086439
-0.00108021
-0.00144616
-0.00206299
-0.00265977
-0.00313347
-0.00387236
-0.00499727
-0.00621367
-0.0075099
-0.00729485
9.71521e-05
0.0710223
0.00909255
0.00391367
0.00287173
0.00122088
-0.00115167
-0.00124588
-0.0012832
-0.0021568
-0.00292877
-0.00153958
-0.00362468
-0.00237735
-0.00241039
-0.002248
-0.001814
-0.00217129
-0.00183261
-0.00129106
-0.00171277
-0.00157043
-0.00161951
-0.00152582
-0.00163467
-0.00158923
-0.00163325
-0.00141263
-0.0012755
-0.00129781
-0.00118586
-0.00150018
-0.000647298
-0.000962901
-0.00127062
-0.00160466
-0.000960982
-0.00310794
-0.00111908
-0.00214313
-0.0017631
-0.00221868
-0.00157654
-0.00254228
-0.00195104
-0.00366277
-0.00203894
-0.00343403
-0.00231807
-0.00200309
-0.00395633
0.00392504
-0.00217123
-0.00290074
-0.00173286
-0.00273521
-0.00244339
-0.00262472
-0.00233581
-0.000942804
-0.00237014
-0.0012223
-0.0018322
-0.000338688
-0.000929646
-0.000184057
-0.00117588
0.000436196
-0.00370229
0.00225755
-0.0109442
0.00760256
-0.0332064
-0.00140438
0.000200668
-8.82367e-05
-4.76626e-05
-8.54111e-05
-9.0903e-05
-0.000110949
-0.000127421
-0.000132392
-0.000161583
-0.000162994
-0.000178646
-0.000207788
-0.000198789
-0.000218744
-0.000245425
-0.00025757
-0.000249489
-0.000284859
-0.000293502
-0.000303569
-0.000294447
-0.000320762
-0.00035822
-0.000350125
-0.000321278
-0.000313075
-0.000350844
-0.000424172
-0.000449897
-0.000465231
-0.000504372
-0.00058137
-0.000692827
-0.000851217
-0.00109242
-0.00129048
-0.00147721
-0.00166078
-0.00205397
-0.00248532
-0.00301833
-0.00341812
-0.00378336
-0.00345355
-0.000254768
0.0223433
0.033903
-0.0293383
0.00501402
-0.011793
-0.00913948
-0.00800833
-0.00664724
-0.00361129
-0.00387314
-0.0029575
-0.00181127
-0.00276114
-0.00172247
-0.00136378
-0.00175032
-0.00210038
-0.00202291
-0.00126153
-0.0012902
-0.000725654
-0.000599936
-0.00034353
-0.000104217
-0.000238345
-0.000200047
-0.00036851
-0.00048281
-0.00066874
-0.000844917
-0.00116592
-0.0018357
-0.00109625
-0.00171
-0.00228823
-0.00160819
-0.00119709
-0.00163536
-0.0018068
-0.00152511
-0.00185759
-0.00213515
-0.00151364
-0.00183647
-0.00211587
-0.00356203
-0.000196537
-0.00312724
-0.00098178
0.00250025
-0.00251843
-0.00117799
-0.00183021
-0.00171093
-0.00274989
-0.00189562
-0.00236286
-0.00221722
-0.0013102
-0.00204972
-0.00148516
-0.00141648
-0.00108895
-0.000455545
-0.000892591
-0.000486838
-0.00132615
-0.000323776
-0.00411433
0.00094034
-0.0100413
0.00580144
-0.029369
-0.00139667
0.000198774
-8.81899e-05
-4.789e-05
-8.50151e-05
-9.03699e-05
-0.000111857
-0.000125516
-0.000136506
-0.000158595
-0.000159951
-0.000188564
-0.000199123
-0.00019193
-0.000236071
-0.000245649
-0.00023219
-0.000250304
-0.000308992
-0.000307191
-0.000280955
-0.000278922
-0.00034744
-0.000389391
-0.000350196
-0.000316507
-0.000318594
-0.000399621
-0.000486633
-0.000487437
-0.000507701
-0.000542661
-0.000600975
-0.000719464
-0.000878581
-0.00106793
-0.0012307
-0.00135643
-0.00151466
-0.00168115
-0.0019219
-0.00198569
-0.00161211
-0.00110637
0.00113299
0.00258714
0.0616199
-0.00914267
0.00443434
-0.00640341
0.00406348
-0.00275298
-0.00133399
-0.00210157
-0.00181515
-0.00268751
-0.00250853
-0.00246282
-0.00289017
-0.0023089
-0.00194267
-0.00239144
-0.00204321
-0.00220709
-0.00117545
-0.00142478
-0.00105198
-0.00183396
-0.00104301
-0.00116933
-0.0012743
-0.00112053
-0.00147705
-0.00116818
-0.00142642
-0.00100629
-0.000976409
-0.00164354
-0.000526937
-0.00139832
-0.00191397
-0.00164481
-0.00141683
-0.00188353
-0.00174081
-0.00138056
-0.00125515
-0.00224302
-0.00161588
-0.00141341
-0.000856032
-0.000754687
-0.00245692
0.000690859
-0.000176572
-0.000424623
-0.00131465
-6.58394e-05
-0.00177929
-0.00184382
-0.00172528
-0.00203514
-0.00195254
-0.00172722
-0.00168141
-0.0016785
-0.00166064
-0.0015457
-0.00108524
-0.000712923
-0.000741575
-0.000478923
-0.00102078
-0.000423373
-0.00372711
0.000667163
-0.008437
0.00491973
-0.0250043
-0.00138923
0.00019654
-8.80175e-05
-4.8164e-05
-8.44431e-05
-9.08619e-05
-0.00011231
-0.000120777
-0.00014262
-0.000150622
-0.000161464
-0.000194485
-0.000184657
-0.000192403
-0.000254918
-0.000243939
-0.000208963
-0.000268649
-0.000333259
-0.000296572
-0.000255857
-0.000298709
-0.00038593
-0.000382686
-0.000345614
-0.000319804
-0.000353306
-0.000428489
-0.000483438
-0.000509734
-0.000530437
-0.000557316
-0.000612524
-0.000737062
-0.000893706
-0.00104694
-0.00112278
-0.00119711
-0.00128845
-0.00147787
-0.00181564
-0.00254382
-0.00346291
-0.0051878
-0.00626263
0.010021
0.0254763
-0.00758301
0.00288022
-0.00328845
-0.000680288
-0.00397083
-0.00472798
-0.00428531
-0.00385384
-0.00379343
-0.0039302
-0.0038944
-0.00294825
-0.00173137
-0.00231443
-0.00173213
-0.00140003
-0.00121583
-0.00114595
-0.00135037
-0.000671841
-0.00144361
-0.000366637
-0.000991846
-0.000579829
-0.000766191
-0.000591902
-0.000960712
-0.000985959
-0.000972588
-0.000956515
-0.00158888
-0.00136457
-0.00151922
-0.00132113
-0.00205813
-0.00070393
-0.00157948
-0.001813
-0.00092354
-0.000894402
0.00105662
2.48451e-05
-0.000891925
-0.00181762
0.00255561
0.00203074
-0.00176484
9.85096e-05
0.000417515
-0.00139457
-0.00107077
-0.00130394
-0.00167459
-0.00189365
-0.00176182
-0.00198359
-0.00132694
-0.00188609
-0.00135828
-0.00158044
-0.000895893
-0.000845332
-0.00045162
-0.000728138
-0.000561407
-0.00115359
-0.000776386
-0.00403571
2.42754e-05
-0.00776498
0.00362506
-0.0218681
-0.0013808
0.000194652
-8.77591e-05
-4.81939e-05
-8.30535e-05
-9.23616e-05
-0.000112693
-0.000117771
-0.000146266
-0.000144049
-0.000169185
-0.000193855
-0.000171242
-0.000202654
-0.00025658
-0.000229112
-0.000213098
-0.000285235
-0.000319764
-0.000288318
-0.000265697
-0.000320351
-0.000384045
-0.000366484
-0.000351806
-0.000370138
-0.000410561
-0.000446498
-0.000473808
-0.000514721
-0.000542274
-0.000583617
-0.000660266
-0.000766784
-0.00085361
-0.000901316
-0.000945891
-0.00100582
-0.00100939
-0.000965262
-0.000856171
-0.000338443
9.02268e-05
0.00396563
0.00233361
0.0413257
0.00505773
-0.000269619
-0.00032877
-0.00260084
-0.000346527
-0.000535333
0.000745023
0.000696127
-0.00334646
-0.00119486
-0.00180159
0.00027596
-0.0020132
-0.000371417
-0.00249629
-0.00144379
-0.00146273
-0.000752998
-0.00146789
-0.00102018
-0.00106349
-0.00136654
-0.00132917
-0.00157992
-0.0014886
-0.00157348
-0.00126691
-0.00174112
-0.000878633
-0.0018796
-0.000719104
-0.00153783
-0.000970183
-0.00103097
-0.00120384
-0.00195027
6.83088e-06
-0.000591671
0.00234256
-0.00035384
-0.00189561
0.000619432
0.0014813
0.00328908
3.63196e-05
-0.000345773
0.000810235
0.000502833
-0.000527235
-0.000425864
-0.000660995
-0.000990287
-0.00114778
-0.00143597
-0.00125281
-0.00187355
-0.000870513
-0.00173274
-0.0012483
-0.00150603
-0.00130798
-0.00118145
-0.000949243
-0.000660998
-0.000781955
-0.000636951
-0.00110981
-0.000868479
-0.00379025
-5.96859e-05
-0.00649935
0.00298352
-0.0184232
-0.0013722
0.000192567
-8.74813e-05
-4.79511e-05
-8.17989e-05
-9.50264e-05
-0.000108808
-0.000119848
-0.000144167
-0.000138415
-0.000178596
-0.000186871
-0.000169793
-0.000219848
-0.000243781
-0.000219632
-0.00023916
-0.000294959
-0.000305997
-0.000282625
-0.000313043
-0.000344272
-0.000367013
-0.000363362
-0.000370104
-0.000399818
-0.0004344
-0.000439593
-0.000460422
-0.000499762
-0.000536398
-0.000593893
-0.0006965
-0.000741752
-0.000758006
-0.00078659
-0.000785141
-0.000737198
-0.000624214
-0.000455948
-0.000241636
0.000109085
0.000717608
0.0022759
0.00511942
0.0376935
-0.013382
0.00112485
-0.00556243
-0.000369717
-0.00551234
-0.000553969
-0.00491975
0.00139321
-0.00362816
0.000906558
-0.00345685
-0.00204004
-0.00294352
-0.00147489
-0.00196365
-0.000974286
-0.00117769
-0.000472183
-0.00139659
-6.39518e-05
-0.00116936
-0.000805871
-0.00180976
-0.0017033
-0.00129014
-0.00176633
-0.000975802
-0.00141809
-0.000790017
-0.00190598
-0.000487662
-0.00264577
-0.0001146
-0.000442769
0.000780696
4.19006e-05
0.000735921
-0.00311043
0.0013942
0.00385767
0.00300099
0.000361746
0.000831943
0.00121658
0.00125526
-0.000103216
0.000643569
-7.252e-05
-0.00018324
-0.000357148
-0.000742743
-0.000977987
-0.00114246
-0.00129468
-0.00150351
-0.00127624
-0.00159388
-0.00135388
-0.0013613
-0.00119059
-0.00110568
-0.000755981
-0.000688498
-0.000545276
-0.000761172
-0.000671317
-0.00116899
-0.00101392
-0.0039196
-0.000360233
-0.00581831
0.00202271
-0.0157922
-0.00136287
0.000190628
-8.72863e-05
-4.79938e-05
-8.16878e-05
-9.54032e-05
-0.000105567
-0.000123971
-0.00014156
-0.000141321
-0.000178075
-0.000176046
-0.000183675
-0.000220771
-0.000226489
-0.000222259
-0.000264752
-0.000279057
-0.00027779
-0.000288792
-0.00033482
-0.000338654
-0.000339926
-0.000350481
-0.000397286
-0.000453484
-0.000454014
-0.000448043
-0.000437529
-0.000461749
-0.000547444
-0.000664137
-0.000697715
-0.000694414
-0.000705455
-0.000700307
-0.000690636
-0.000678797
-0.000711743
-0.000773086
-0.000897329
-0.0010044
-0.00137153
-0.000335788
0.00559592
0.0202531
-0.00787327
0.00445177
-0.00486849
0.00155414
-0.00254644
0.00131074
-0.00153783
0.000122207
-0.0014436
-0.00373264
0.00026931
-0.000114199
0.000854318
-0.00148204
-0.000556161
-0.00107421
-0.0013343
-0.00151672
-0.00157079
-0.000814866
-0.00230217
-0.00108401
-0.00239207
-0.00070806
-0.00190581
-0.000841178
-0.00144607
-0.000866378
-0.00218878
0.000594634
0.00125005
-0.00154238
0.000167891
-0.000972848
-0.00025692
0.00175036
0.00424451
0.00242865
-0.000414508
0.00178695
0.000757235
0.00194629
0.000919521
0.00100793
0.000662421
0.00066529
0.000452562
0.000401263
-0.000347416
-0.000335939
-0.000603293
-0.000756882
-0.000887333
-0.000938986
-0.00115043
-0.0010228
-0.00115882
-0.00107311
-0.00118091
-0.00102588
-0.000978781
-0.000823735
-0.000840273
-0.000717846
-0.000897501
-0.00080311
-0.00124791
-0.00117023
-0.00376908
-0.000370974
-0.0047604
0.00151018
-0.0131104
-0.00135303
0.000188807
-8.68947e-05
-4.80346e-05
-8.18397e-05
-9.37613e-05
-0.000104163
-0.00012589
-0.000133556
-0.000150755
-0.000172326
-0.00016411
-0.000202199
-0.000215445
-0.000201939
-0.000236667
-0.000283361
-0.000272078
-0.000249505
-0.000316729
-0.000369704
-0.00034298
-0.000313567
-0.000352656
-0.000440876
-0.000472072
-0.000458755
-0.000434583
-0.000430832
-0.000476111
-0.000574514
-0.000653065
-0.000652129
-0.000644354
-0.000637233
-0.000603878
-0.000579517
-0.000540498
-0.000490511
-0.00043124
-0.000208755
-0.000215172
0.000658884
-0.000934116
0.0200155
0.0160138
-0.00314391
0.00392567
-0.00253941
0.0014991
-0.00123353
0.0011506
-0.000737279
0.000349693
-0.000878181
0.00329302
0.00189777
-0.00412239
-0.000669111
-0.00495455
-0.000143699
-0.0020231
-0.000706508
-0.00143052
-6.14114e-05
-0.00203741
-0.000195303
-0.00136589
-0.00079165
-0.000721353
-0.00162945
5.54059e-05
0.000566493
0.000244752
-0.00191385
-0.000960327
0.00286835
0.00111994
0.00356989
0.00258641
0.000396377
4.58034e-05
0.00208837
0.00127349
0.00174623
0.0015313
0.000690526
0.0014837
0.000655883
0.00101899
0.000831999
0.000338828
0.00015992
7.91065e-05
-0.000228613
-0.000416027
-0.000495363
-0.000852385
-0.000933017
-0.00123013
-0.00108026
-0.00125665
-0.00111221
-0.00109537
-0.00109008
-0.00083784
-0.00101041
-0.000837449
-0.000907255
-0.000744549
-0.000920809
-0.000831195
-0.00119825
-0.00119605
-0.00360165
-0.000376324
-0.00402469
0.000857086
-0.0108944
-0.00134243
0.000186914
-8.63045e-05
-4.76185e-05
-8.12418e-05
-9.25293e-05
-0.000105233
-0.000126833
-0.000126616
-0.000160524
-0.000162779
-0.000162256
-0.000216998
-0.000208017
-0.000186787
-0.000259525
-0.000279191
-0.000249357
-0.000254036
-0.000340477
-0.000356957
-0.000330317
-0.000320351
-0.000374228
-0.000455767
-0.000452308
-0.000445521
-0.00044278
-0.000478109
-0.000530222
-0.000585976
-0.000613438
-0.000610647
-0.000597968
-0.000587813
-0.000571124
-0.000544944
-0.000515179
-0.000444886
-0.000359662
-4.15521e-05
0.000215637
0.00173074
0.00205548
0.0265215
0.000888486
-0.00122307
-0.000405835
-0.00188053
-0.000570396
-0.00317662
-0.00227274
-0.0023027
-0.00165131
-0.00146456
0.00112199
0.00174161
0.0020129
0.000242332
0.00076926
-0.00191544
0.000308513
-0.00279329
0.00159694
-0.00212341
-0.000170213
-0.000998023
-0.000828064
0.00018421
0.000220793
-0.00107252
-0.0010797
0.00158699
0.00255296
0.00325255
0.000917593
0.00119757
0.00105616
0.000601974
0.00209207
0.00108435
0.00179413
0.00141268
0.00146074
0.00139117
0.00147716
0.00112597
0.00115082
0.000956085
0.000546569
0.000643563
0.000538204
0.000233998
0.000233151
-0.000138789
-0.000291294
-0.000468298
-0.000593695
-0.000605451
-0.000615557
-0.000663422
-0.000651065
-0.000616666
-0.000716025
-0.000726764
-0.000774306
-0.000881709
-0.000767879
-0.000886727
-0.000883847
-0.000987163
-0.000977159
-0.00119658
-0.00125362
-0.00330247
-0.000440614
-0.00326601
0.000353265
-0.00878385
-0.00133132
0.00018482
-8.56531e-05
-4.72289e-05
-8.12402e-05
-8.96676e-05
-0.000108701
-0.000121128
-0.000129021
-0.000160819
-0.000151363
-0.0001728
-0.000212543
-0.000192743
-0.000198607
-0.000273104
-0.000268253
-0.000245708
-0.000285517
-0.000342544
-0.000344262
-0.000337302
-0.000372685
-0.000406582
-0.000432907
-0.000449582
-0.000449221
-0.00046552
-0.000503782
-0.000544803
-0.0005471
-0.000570299
-0.000581698
-0.000563905
-0.000531005
-0.000487147
-0.000423982
-0.000311774
-0.000159652
1.7046e-05
0.000374134
0.000811247
0.0021856
0.00545677
0.0299674
-0.00829216
0.00125787
-0.00206294
-3.52014e-05
-0.00155974
-0.000788427
-0.00106607
-0.00103618
-0.00093216
-0.00204264
-0.00266788
-0.00418242
-0.00462334
-0.00540127
-0.000657369
-0.00346348
0.00181483
-0.00356842
0.0047628
-0.00325372
0.001969
-0.00132363
-0.000988755
0.000917476
0.0018834
0.00308598
0.0019719
0.000649199
0.00129673
0.00114152
0.00122841
0.00202002
0.00198328
0.00183432
0.00116179
0.0015569
0.00107209
0.00158478
0.0014365
0.000910179
0.0014168
0.000724057
0.00104791
0.000925053
0.00049968
0.000399487
0.000225975
-5.58127e-05
-0.000179189
-0.000284977
-0.000488924
-0.000550928
-0.000830741
-0.000905463
-0.00105358
-0.000902845
-0.00098847
-0.00090748
-0.000886803
-0.000875687
-0.000915036
-0.000914749
-0.0008185
-0.000812399
-0.00090612
-0.000893969
-0.000983166
-0.00109395
-0.00132768
-0.00282471
-0.000517494
-0.00258573
2.76798e-05
-0.00694519
-0.00131941
0.000182887
-8.44991e-05
-4.70095e-05
-8.14411e-05
-8.6734e-05
-0.000110664
-0.000116134
-0.000135144
-0.000155587
-0.000145601
-0.000187388
-0.000200901
-0.000186787
-0.000226014
-0.00025538
-0.000248453
-0.000266321
-0.000305455
-0.000322913
-0.000315842
-0.000345221
-0.000396253
-0.000402148
-0.000411788
-0.000421702