/*--------------------------------*- C++ -*----------------------------------*\
| =========                 |                                                 |
| \\      /  F ield         | OpenFOAM: The Open Source CFD Toolbox           |
|  \\    /   O peration     | Version:  2.2.x                                 |
|   \\  /    A nd           | Web:      www.OpenFOAM.org                      |
|    \\/     M anipulation  |                                                 |
\*---------------------------------------------------------------------------*/
FoamFile
{
    version     2.0;
    format      ascii;
    class       surfaceScalarField;
    location    "2.4";
    object      cfmax;
}
// * * * * * * * * * * * * * * * * * * * * * * * * * * * * * * * * * * * * * //

dimensions      [0 3 -1 0 0 0 0];

internalField   nonuniform List<scalar> 
28084
(
0.0012604
0.00125105
0.00124749
0.00124344
0.00124052
0.00123815
0.00123646
0.00123535
0.00123478
0.00123471
0.00123508
0.00123584
0.00123692
0.0012383
0.00123991
0.00124178
0.00124389
0.00124604
0.00124826
0.00125052
0.00125278
0.00125502
0.00125721
0.00125926
0.00126124
0.00126312
0.00126484
0.00126643
0.00126777
0.00126894
0.00126994
0.00127075
0.00127143
0.00127176
0.00127175
0.00127127
0.00127077
0.00127016
0.00126951
0.00126894
0.00126929
0.00126963
0.00126883
0.00127087
0.00127533
0.00133685
0.0010847
0.000941851
0.000998633
0.00102451
0.00104176
0.00105761
0.00107273
0.00108697
0.00110123
0.00111479
0.00112851
0.0011422
0.00115704
0.00117224
0.00118663
0.00120088
0.00121472
0.00122816
0.00124108
0.00125335
0.00126516
0.00127605
0.00128576
0.00129434
0.00130204
0.0013093
0.00131571
0.00132127
0.00132562
0.00132911
0.00133162
0.00133362
0.00133436
0.00133363
0.00133101
0.00132672
0.00131939
0.00130978
0.00129189
0.0012723
0.00125693
0.00124196
0.00122387
0.00120181
0.00118023
0.00115873
0.0011381
0.00112153
0.00110945
0.00110044
0.00109184
0.00108371
0.00107643
0.00106024
0.00104407
0.00101997
0.000996039
0.000967294
0.000938151
0.000910907
0.00088456
0.000862168
0.000841827
0.000825027
0.000810994
0.000798616
0.000787645
0.000777547
0.000764771
0.000757505
0.000750071
0.000741893
0.00363684
0.00361615
0.00126634
0.00360706
0.00126081
0.00358565
0.00126106
0.00355815
0.00126075
0.00352322
0.00126154
0.00348154
0.00126283
0.0034333
0.00126478
0.00337891
0.00126726
0.00331875
0.00127023
0.0032535
0.00127365
0.0031837
0.00127747
0.00310949
0.00128162
0.00303134
0.00128604
0.00294985
0.0012907
0.00286554
0.00129553
0.002779
0.00130055
0.00269054
0.00130573
0.00260064
0.00131088
0.00250984
0.00131601
0.00241856
0.00132109
0.00232724
0.00132609
0.00223623
0.00133098
0.00214586
0.00133571
0.0020565
0.00134023
0.00196847
0.00134457
0.00188197
0.0013487
0.00179725
0.00135259
0.00171444
0.00135624
0.00163375
0.00135955
0.00155536
0.00136258
0.00147936
0.00136531
0.00140587
0.00136782
0.00133483
0.00137003
0.00126624
0.00137194
0.00120012
0.00137333
0.00113681
0.00137422
0.00107634
0.00137511
0.00101856
0.00137584
0.000963502
0.00137645
0.000911583
0.00137682
0.000861554
0.00137733
0.000814304
0.00137777
0.000771247
0.00137996
0.00073828
0.00138607
0.000810774
0.00139942
0.000835095
0.00136017
0.000638087
0.00093691
0.000636246
0.000926672
0.000642742
0.000948693
0.00064513
0.000971869
0.000647676
0.000989371
0.000649938
0.00100594
0.000652398
0.00102293
0.000654653
0.00104053
0.000657908
0.00105794
0.000659832
0.00107472
0.000662881
0.00109131
0.000667568
0.00110904
0.000671264
0.00112728
0.000675187
0.00114465
0.000678855
0.0011614
0.000682554
0.0011775
0.000686485
0.00119291
0.000690322
0.0012078
0.000693759
0.00122118
0.00069709
0.00123326
0.000700371
0.00124423
0.000703904
0.00125427
0.000707199
0.00126334
0.000710432
0.00127058
0.000713643
0.00127676
0.000716967
0.00128226
0.000720347
0.00128685
0.000724022
0.00129101
0.000727345
0.00129427
0.000732238
0.00129641
0.000737188
0.00129892
0.000742002
0.00129991
0.000746572
0.0012999
0.000750632
0.00129747
0.000754935
0.00129334
0.000756701
0.00128549
0.000751954
0.00126995
0.000750219
0.00124568
0.000755362
0.00122133
0.000758541
0.0012036
0.000755515
0.0011849
0.000755281
0.00116613
0.000765026
0.00115236
0.000766662
0.00114089
0.000762539
0.00112359
0.000757484
0.00109559
0.000754621
0.00106979
0.000750512
0.00104155
0.000747053
0.00101492
0.000742581
0.000987414
0.000736199
0.000957422
0.000733135
0.000930673
0.000728217
0.000904632
0.000722096
0.000876287
0.000715709
0.000851908
0.000708112
0.00083094
0.000701253
0.000813018
0.000695786
0.000796345
0.000688859
0.000781799
0.00068369
0.000768883
0.000677005
0.000757483
0.000672548
0.00074798
0.000667656
0.00074093
0.000665198
0.000735946
0.000662646
0.000732391
0.000662073
0.000729808
0.000660367
0.000727252
0.000661465
0.000723645
0.000663363
0.000722509
0.000671665
0.000725761
0.000685023
0.000727032
0.000706638
0.000730024
0.00363791
0.00361676
0.00127425
0.00360727
0.0012725
0.00358546
0.00127651
0.00355756
0.0012799
0.00352226
0.00128435
0.00348022
0.00128927
0.00343274
0.0012948
0.0033793
0.00130082
0.00332003
0.0013073
0.00325538
0.00131418
0.0031858
0.00132141
0.00311177
0.00132893
0.00303378
0.00133666
0.00295243
0.00134455
0.00286822
0.00135256
0.00278177
0.00136069
0.00269336
0.00136892
0.00260348
0.00137703
0.00251268
0.00138503
0.00242138
0.00139292
0.00233001
0.00140063
0.00223894
0.00140813
0.00214849
0.00141539
0.00205904
0.00142232
0.00197089
0.001429
0.00188427
0.00143538
0.0017994
0.0014414
0.00171648
0.00144707
0.0016356
0.00145237
0.00155706
0.00145718
0.0014809
0.00146171
0.00140721
0.00146586
0.00133603
0.00146957
0.00126725
0.00147297
0.00120083
0.00147559
0.00113725
0.0014774
0.00107638
0.00147921
0.00101785
0.00148065
0.00096211
0.0014814
0.000909136
0.00148131
0.00085793
0.00148105
0.000809818
0.00147964
0.00076526
0.00147852
0.000715628
0.00147048
0.000813149
0.00145741
0.000703671
0.00120974
0.000587424
0.000889838
0.000562351
0.000873771
0.000582035
0.000890831
0.000595266
0.00092334
0.000602712
0.000947544
0.000609751
0.000970456
0.000615011
0.00099368
0.000619546
0.00101402
0.000624187
0.00103348
0.000629578
0.00105468
0.000634067
0.00107374
0.000638386
0.00109335
0.000643044
0.00111335
0.00064771
0.00113251
0.000651946
0.00115104
0.000655827
0.00116821
0.000659475
0.00118423
0.000662853
0.00119919
0.000666261
0.00121325
0.000670203
0.00122622
0.000673521
0.0012372
0.00067606
0.0012463
0.000678753
0.00125432
0.000681977
0.00126176
0.000684919
0.00126827
0.000687826
0.00127363
0.000690618
0.00127765
0.000692991
0.00128106
0.000696009
0.0012839
0.000700875
0.0012864
0.000705956
0.00128875
0.000711673
0.00129028
0.000718111
0.00128994
0.000724059
0.00128768
0.00072692
0.00128207
0.000727628
0.00127036
0.000733363
0.00125342
0.000733943
0.0012351
0.000725983
0.00120654
0.000728957
0.00118001
0.000739784
0.00116436
0.000739959
0.00115003
0.00072497
0.00112364
0.000721522
0.0010771
0.000727656
0.00104149
0.000714451
0.000999415
0.00067943
0.00093665
0.000653323
0.000879264
0.000647707
0.000838267
0.000642089
0.000798658
0.000632278
0.000769273
0.000628478
0.000743794
0.0006277
0.000718611
0.000627363
0.00069953
0.000628619
0.000684046
0.000630002
0.000671629
0.00063351
0.000661347
0.000637353
0.000653719
0.000640982
0.000647898
0.000644397
0.000643295
0.000645948
0.000639774
0.000648478
0.000637391
0.000649687
0.000636525
0.000652489
0.000638029
0.000654993
0.000641075
0.000660416
0.000646751
0.000663561
0.000653035
0.000669824
0.000661682
0.00067677
0.000673727
0.000693329
0.000687182
0.000712187
0.00070125
0.000737153
0.000719194
0.00363673
0.00361515
0.00128417
0.00360528
0.00128613
0.00358308
0.00129384
0.00355646
0.00130088
0.00352307
0.00130895
0.00348283
0.00131744
0.00343594
0.00132651
0.00338278
0.00133603
0.00332376
0.00134597
0.00325933
0.00135626
0.00318995
0.00136686
0.00311608
0.00137769
0.00303821
0.00138868
0.00295695
0.00139978
0.0028728
0.00141093
0.00278638
0.00142215
0.00269798
0.00143338
0.00260807
0.00144442
0.00251723
0.00145527
0.00242585
0.00146591
0.00233438
0.0014763
0.0022432
0.00148638
0.0021526
0.00149615
0.00206299
0.00150547
0.00197469
0.00151446
0.00188788
0.00152305
0.00180282
0.00153119
0.0017197
0.00153889
0.00163861
0.00154607
0.00155985
0.00155275
0.0014835
0.00155899
0.00140955
0.00156478
0.00133812
0.00157009
0.00126911
0.00157493
0.00120247
0.00157905
0.00113866
0.00158245
0.00107747
0.00158572
0.0010188
0.00158865
0.000962785
0.00159117
0.000908702
0.00159307
0.000857936
0.00159498
0.000810025
0.00159468
0.0007638
0.00159518
0.000717346
0.00158752
0.000769481
0.00158528
0.000649496
0.00123459
0.000579817
0.000937109
0.000557178
0.000915664
0.000563738
0.000925109
0.000569732
0.000945596
0.000574141
0.000965348
0.000579905
0.000987512
0.0005868
0.0010106
0.000592854
0.00103474
0.000599391
0.00105724
0.000606076
0.00108098
0.00061309
0.00110084
0.000617487
0.0011215
0.000623189
0.00114312
0.000628604
0.00116397
0.000633979
0.00118401
0.000638275
0.00120214
0.000642393
0.00121913
0.000645655
0.00123517
0.000649195
0.00125071
0.000653693
0.00126335
0.000657328
0.00127318
0.000660634
0.00128225
0.000663274
0.00129092
0.000665954
0.00130059
0.000669385
0.00130706
0.000673361
0.00131189
0.000677689
0.00131575
0.000681391
0.00131956
0.000685385
0.00132359
0.000691736
0.00132808
0.000700132
0.00133279
0.000707945
0.0013364
0.000714557
0.00133602
0.000720143
0.00133239
0.000726822
0.00132527
0.000732329
0.00131651
0.00073202
0.00130048
0.000729794
0.00126743
0.000732511
0.00124408
0.000732764
0.00122192
0.000722075
0.00118367
0.000721605
0.00114441
0.000725647
0.00111407
0.000710101
0.00106795
0.000680054
0.00098122
0.000670413
0.000923458
0.000671325
0.000885536
0.000661186
0.000848546
0.00064453
0.000803399
0.000629895
0.000763385
0.000626661
0.000732433
0.000621628
0.000702179
0.000620177
0.00067783
0.000622855
0.000657793
0.000624287
0.000641563
0.000628019
0.000628401
0.000630125
0.000618297
0.000633962
0.00061075
0.000637226
0.000605728
0.000641104
0.000602765
0.000642904
0.000601501
0.000646865
0.000602596
0.000648684
0.00060532
0.000652351
0.000610155
0.000655254
0.000616207
0.000662093
0.000623602
0.000666116
0.00063267
0.000675874
0.000644414
0.000686377
0.000658164
0.000707207
0.000674364
0.000727204
0.000692071
0.000753797
0.000715231
0.00363329
0.00361274
0.00129606
0.00360573
0.00130168
0.00358641
0.00131303
0.00356088
0.00132366
0.00352783
0.00133529
0.00348791
0.00134731
0.0034413
0.00135987
0.00338839
0.00137283
0.0033296
0.00138617
0.00326535
0.00139983
0.00319613
0.00141376
0.00312238
0.00142786
0.0030446
0.00144206
0.00296339
0.00145632
0.00287929
0.00147056
0.00279287
0.0014848
0.00270442
0.00149901
0.00261444
0.00151293
0.00252349
0.00152658
0.00243199
0.00153995
0.00234037
0.00155297
0.00224902
0.00156561
0.00215822
0.00157783
0.00206842
0.00158952
0.00197989
0.00160078
0.00189285
0.00161155
0.00180755
0.00162177
0.00172413
0.00163147
0.00164282
0.00164049
0.00156376
0.001649
0.0014871
0.00165691
0.00141292
0.00166429
0.00134118
0.00167112
0.00127188
0.00167731
0.00120494
0.0016826
0.00114074
0.00168688
0.00107905
0.00169061
0.00101993
0.00169375
0.000963291
0.00169622
0.000908595
0.00169729
0.000856775
0.00169801
0.00080801
0.00169628
0.000761621
0.00169752
0.000721042
0.00169178
0.000736497
0.00170174
0.00062489
0.00142163
0.000579217
0.00103668
0.000565501
0.000999991
0.000570609
0.000999405
0.000576135
0.00100934
0.000580849
0.00102615
0.000586675
0.00104541
0.000592988
0.0010679
0.000599793
0.00109221
0.000606505
0.00111491
0.000613247
0.00113743
0.000619022
0.00116129
0.000623569
0.00118273
0.000629874
0.00120399
0.000634395
0.00122442
0.000639274
0.00124485
0.000643549
0.00126262
0.000647208
0.0012797
0.000650378
0.00129503
0.000653529
0.00130877
0.000656189
0.00132158
0.000659021
0.00133343
0.000662068
0.00134278
0.000664814
0.00135015
0.000667357
0.00135572
0.000669987
0.00136058
0.00067288
0.00136513
0.000675897
0.00136901
0.00067967
0.00137212
0.000684075
0.00137573
0.000688359
0.00137843
0.000696144
0.00138074
0.000704573
0.0013823
0.000713019
0.00138184
0.000722187
0.00137957
0.000730887
0.00137381
0.000736377
0.00136322
0.000740371
0.00134102
0.000740805
0.00131635
0.000736459
0.00128788
0.000731318
0.00124433
0.000734646
0.00120618
0.000738963
0.00117216
0.000717194
0.00111584
0.000720273
0.0010522
0.000708668
0.00101457
0.000697537
0.000973439
0.000687587
0.000911944
0.000676982
0.000863182
0.000668852
0.00082258
0.000653891
0.000785639
0.000647274
0.000751629
0.000639062
0.000718213
0.000635935
0.00069087
0.000634722
0.000669396
0.000634163
0.000650202
0.000635051
0.000633975
0.000635858
0.000622002
0.000638098
0.000612953
0.000640027
0.000606889
0.000643389
0.000602994
0.000645195
0.000601502
0.000649023
0.000602533
0.000650261
0.000605184
0.000654167
0.00060985
0.000657278
0.000616808
0.000665961
0.000623902
0.00067229
0.000634309
0.000684828
0.000646371
0.000696495
0.000659515
0.000718355
0.000676391
0.000735848
0.000695817
0.000761388
0.00071597
0.00363626
0.00361835
0.00130997
0.00361168
0.00131916
0.0035927
0.0013341
0.0035675
0.00134825
0.00353477
0.00136338
0.00349513
0.00137885
0.00344879
0.00139484
0.00339611
0.0014112
0.00333751
0.00142789
0.00327344
0.00144487
0.00320434
0.00146205
0.00313069
0.00147937
0.00305297
0.00149674
0.00297178
0.0015141
0.00288764
0.00153139
0.00280117
0.00154862
0.00271263
0.00156575
0.00262253
0.00158251
0.00253143
0.00159892
0.00243976
0.00161497
0.00234794
0.00163059
0.00225636
0.00164573
0.00216531
0.00166038
0.00207525
0.0016744
0.00198643
0.0016879
0.00189909
0.00170081
0.00181348
0.00171311
0.00172972
0.00172474
0.0016481
0.00173571
0.00156871
0.00174593
0.00149171
0.00175554
0.00141717
0.00176451
0.0013451
0.0017728
0.00127543
0.00178053
0.00120818
0.0017873
0.0011436
0.00179313
0.00108157
0.00179859
0.00102209
0.0018035
0.00096498
0.00180801
0.000910143
0.00181171
0.000857841
0.00181572
0.000807912
0.00181769
0.000761617
0.00182322
0.000721199
0.00182197
0.000758944
0.00183585
0.000605363
0.00146048
0.000577399
0.00108542
0.00057007
0.00104392
0.000577932
0.00104463
0.000584266
0.00105815
0.000592049
0.00108335
0.000601368
0.001111
0.000606591
0.0011358
0.00061411
0.00116227
0.0006209
0.00118727
0.000625516
0.00121242
0.000632458
0.00123652
0.000636425
0.00126058
0.000641627
0.00128369
0.00064485
0.00130521
0.000649113
0.00132524
0.00065174
0.00134391
0.000655743
0.0013614
0.000658009
0.00137663
0.000660224
0.00138931
0.000661819
0.00139967
0.000663496
0.00140944
0.000665875
0.00141893
0.000668413
0.00142563
0.000670377
0.00143014
0.000672589
0.00143315
0.000675052
0.00143568
0.000677432
0.00143837
0.000681069
0.00144164
0.000685233
0.00144315
0.000689412
0.00144429
0.000697297
0.00144518
0.00070653
0.00144517
0.000716318
0.0014436
0.000727113
0.00143917
0.000737704
0.00143138
0.00074596
0.00142082
0.000752014
0.00140077
0.000752265
0.0013581
0.000753418
0.00132461
0.000747716
0.00129417
0.000751985
0.00125404
0.000754729
0.00119012
0.000751546
0.00114735
0.000750932
0.00110839
0.000749036
0.00105772
0.000741107
0.00100632
0.000721805
0.000966566
0.000706026
0.000925385
0.000700881
0.000875633
0.000686008
0.000833641
0.000675922
0.000796438
0.000662861
0.000758956
0.000655669
0.000728572
0.000650236
0.000703378
0.000646733
0.000680388
0.000644613
0.000660033
0.000643848
0.000643218
0.000644894
0.000629932
0.000645629
0.000620576
0.000647774
0.00061407
0.000648407
0.000611302
0.000652149
0.000611708
0.000653648
0.000614192
0.000658579
0.000618565
0.000663992
0.000624731
0.000673877
0.000631745
0.000681
0.000640693
0.000694091
0.000653577
0.000704489
0.000668942
0.000725449
0.000685404
0.000740325
0.000701899
0.00076546
0.000718313
0.00364367
0.00362618
0.00132586
0.00361985
0.00133856
0.00360121
0.00135701
0.00357632
0.00137463
0.00354386
0.00139319
0.0035045
0.00141206
0.0034584
0.0014314
0.00340594
0.00145108
0.00334753
0.00147107
0.00328359
0.00149129
0.00321459
0.00151168
0.00314098
0.00153215
0.00306328
0.00155262
0.00298207
0.00157304
0.00289791
0.00159332
0.00281135
0.00161349
0.00272267
0.00163348
0.0026324
0.00165303
0.0025411
0.00167215
0.0024492
0.00169083
0.00235712
0.001709
0.00226527
0.0017266
0.00217391
0.00174362
0.00208353
0.00175993
0.00199437
0.00177563
0.00190669
0.00179064
0.0018207
0.00180495
0.00173663
0.00181853
0.00165459
0.00183128
0.00157481
0.00184323
0.00149742
0.00185449
0.00142249
0.00186504
0.00135006
0.0018749
0.00128012
0.0018839
0.00121248
0.00189189
0.00114758
0.00189856
0.00108516
0.00190479
0.0010252
0.00191001
0.000967498
0.00191395
0.000912223
0.00191656
0.000858573
0.0019176
0.000807411
0.00191528
0.000757619
0.00191276
0.000711738
0.00190149
0.000725771
0.00189502
0.000547452
0.00136088
0.000543552
0.00108394
0.000558619
0.00106301
0.000585098
0.00108477
0.000599431
0.00112121
0.000613104
0.00115086
0.000625323
0.00118189
0.000631104
0.00121567
0.000639768
0.00125052
0.000645839
0.00127672
0.000650873
0.00130492
0.000658653
0.00133072
0.000661459
0.00135524
0.000667168
0.00137946
0.000669262
0.00140076
0.000673554
0.00142162
0.000674662
0.00143992
0.000678043
0.00145649
0.000678937
0.00147067
0.000681067
0.0014833
0.000681761
0.00149526
0.000682798
0.00150363
0.000683721
0.00151067
0.000684624
0.00151581
0.000685925
0.00151905
0.000687672
0.00152132
0.000689957
0.00152275
0.000692464
0.00152274
0.00069482
0.00152212
0.000697465
0.00152065
0.000702088
0.00151919
0.000710585
0.00151723
0.000720213
0.00151408
0.000730907
0.00151025
0.000742204
0.00150403
0.000754621
0.00149462
0.000765521
0.00148018
0.000768841
0.00145568
0.000766573
0.00142554
0.000778579
0.00139387
0.000773502
0.0013306
0.000785637
0.00128625
0.000779842
0.00125562
0.000795356
0.00121018
0.000796092
0.00115242
0.000781773
0.00111607
0.000776916
0.00108042
0.00077479
0.00103671
0.000757452
0.000985708
0.000740983
0.000938856
0.000724197
0.000898191
0.000711521
0.000859497
0.000693704
0.00081952
0.000683034
0.000782803
0.000674457
0.000750967
0.000666318
0.000722556
0.000661426
0.000697644
0.000656523
0.00067671
0.00065483
0.000659483
0.000653561
0.000646427
0.000653719
0.000636187
0.000653642
0.000630189
0.000657364
0.000627761
0.000659362
0.000627821
0.000665488
0.000631072
0.000670955
0.000634353
0.000680566
0.000639843
0.000687103
0.000649156
0.000700725
0.000661321
0.000710037
0.000675613
0.000729291
0.00069059
0.000742258
0.000705681
0.00076849
0.000720255
0.0036534
0.00363626
0.0013438
0.00363024
0.00135991
0.00361191
0.00138179
0.00358729
0.00140279
0.00355511
0.0014247
0.00351599
0.00144689
0.00347012
0.00146953
0.00341785
0.00149247
0.00335958
0.00151568
0.00329575
0.00153908
0.00322682
0.00156261
0.00315324
0.00158617
0.00307552
0.00160969
0.00299427
0.00163309
0.00291002
0.00165631
0.00282332
0.00167935
0.00273447
0.00170215
0.00264398
0.00172443
0.00255243
0.00174621
0.00246025
0.00176747
0.00236786
0.00178813
0.00227567
0.00180816
0.00218395
0.0018275
0.0020932
0.00184606
0.00200364
0.00186391
0.00191555
0.00188101
0.00182915
0.00189728
0.00174461
0.00191277
0.00166213
0.00192733
0.0015819
0.00194101
0.0015041
0.00195388
0.00142873
0.00196593
0.00135582
0.00197713
0.00128535
0.00198757
0.00121725
0.00199689
0.00115185
0.00200504
0.00108903
0.00201264
0.00102856
0.00201953
0.000970457
0.00202565
0.000914411
0.00203088
0.00086027
0.00203531
0.000808519
0.00203763
0.000757698
0.00204109
0.000723745
0.00203716
0.000660835
0.00203842
0.000582302
0.00155141
0.000534379
0.0011746
0.000574776
0.00114171
0.000604184
0.00117264
0.000623855
0.00122559
0.00063873
0.00127318
0.000652874
0.00131444
0.0006631
0.00135018
0.000673712
0.00138359
0.000676945
0.00141367
0.000682108
0.00144386
0.000688085
0.00147096
0.000689516
0.00149387
0.000695591
0.0015171
0.000695013
0.00153549
0.000697949
0.00155345
0.00069706
0.00157098
0.000698402
0.0015855
0.000697456
0.00159778
0.000698686
0.00160802
0.000697649
0.00161607
0.000697358
0.00162195
0.000696946
0.00162946
0.000697118
0.00163304
0.000697704
0.00163546
0.000698515
0.001636
0.000699469
0.00163509
0.000700828
0.00163274
0.000702248
0.00163011
0.000704898
0.00162684
0.00071262
0.00162263
0.000720637
0.00161752
0.000729972
0.00161128
0.00074075
0.00160568
0.000753316
0.00159842
0.000766409
0.00158576
0.000778706
0.00156695
0.00079148
0.00155099
0.000799301
0.00151506
0.000798985
0.00145638
0.000797977
0.00141336
0.000819707
0.0013807
0.000836303
0.00132374
0.000835519
0.00127763
0.000826558
0.00124398
0.000838468
0.00120009
0.000835062
0.00115428
0.000820898
0.00111319
0.000802228
0.00106884
0.000786187
0.00102408
0.000770197
0.000975387
0.000753941
0.000926196
0.000733951
0.000880736
0.000719072
0.000837707
0.000704274
0.00079955
0.000691089
0.000767305
0.000682058
0.000739191
0.000673727
0.000714361
0.000669131
0.000692847
0.000665947
0.000675063
0.000664031
0.000660668
0.000663187
0.000650943
0.00066596
0.000645074
0.000666692
0.000642092
0.000672282
0.000642719
0.000676344
0.00064314
0.000685468
0.000647072
0.000691853
0.000655463
0.000706449
0.000667191
0.000714438
0.00067969
0.000732245
0.000693463
0.000743194
0.000707296
0.000770911
0.000721498
0.0036653
0.00364853
0.00136375
0.00364281
0.00138319
0.00362477
0.00140843
0.00360042
0.00143272
0.00356849
0.00145791
0.00352962
0.00148335
0.00348394
0.00150919
0.00343183
0.00153531
0.00337369
0.00156166
0.00330995
0.00158817
0.00324107
0.00161477
0.00316749
0.00164135
0.00308973
0.00166784
0.00300839
0.00169417
0.002924
0.00172024
0.00283713
0.00174609
0.00274806
0.00177163
0.00265731
0.00179658
0.00256547
0.00182096
0.00247297
0.00184474
0.00238022
0.00186784
0.00228764
0.00189023
0.00219552
0.00191185
0.00210433
0.0019326
0.00201432
0.00195256
0.00192576
0.00197168
0.0018389
0.0019899
0.00175389
0.0020072
0.00167092
0.00202355
0.00159021
0.0020389
0.00151187
0.00205339
0.00143596
0.00206699
0.00136255
0.00207965
0.00129159
0.00209148
0.00122312
0.002102
0.00115732
0.00211139
0.00109418
0.00212014
0.0010336
0.00212803
0.00097551
0.0021352
0.000919775
0.002141
0.000866136
0.00214591
0.000815472
0.00214884
0.000765761
0.00215216
0.000727365
0.0021498
0.000769925
0.00215137
0.000667879
0.00199993
0.00053589
0.00136633
0.000611358
0.00130487
0.00064821
0.00134602
0.000677073
0.00141691
0.000696947
0.0014663
0.000709739
0.00150993
0.000717626
0.0015443
0.000725118
0.00157476
0.000723915
0.00159607
0.000727758
0.00161896
0.00072656
0.00163662
0.000726697
0.00165003
0.000726853
0.00166907
0.000722575
0.00167704
0.000723
0.00168759
0.00071936
0.00170173
0.000718857
0.00171084
0.000716006
0.00172119
0.000714557
0.00172732
0.000711606
0.00173458
0.000711076
0.00173829
0.000709716
0.00174458
0.000709193
0.00174559
0.000709436
0.00174757
0.000708983
0.00174618
0.000708666
0.00174458
0.000708973
0.00174175
0.000711447
0.0017386
0.000719071
0.00173389
0.000727096
0.00172788
0.000735485
0.00172139
0.00074529
0.00171456
0.000758298
0.00170698
0.000771817
0.0016975
0.00078361
0.00168337
0.000805316
0.00166736
0.000819554
0.00165153
0.000827072
0.00159929
0.000830418
0.00156371
0.000856779
0.00151726
0.000867088
0.00146442
0.000875634
0.00142875
0.000890214
0.00138423
0.000894251
0.00133776
0.000886356
0.001295
0.000881355
0.00125186
0.000873745
0.00120822
0.000860686
0.00115556
0.000844653
0.00110294
0.000821591
0.00105037
0.00080208
0.000999353
0.000778284
0.000950656
0.000758125
0.00090078
0.000737384
0.000855228
0.000719591
0.000814824
0.000707928
0.000781193
0.000696051
0.000752431
0.000688295
0.000728413
0.000682265
0.000708555
0.000677644
0.000692318
0.000675119
0.000678865
0.000675722
0.000668107
0.00067478
0.000660452
0.000679269
0.000656597
0.000681645
0.000653702
0.000690489
0.000655834
0.000696743
0.000659617
0.000711099
0.000670609
0.000718361
0.000682264
0.000734927
0.00069533
0.000744573
0.000708656
0.000772828
0.000723121
0.00367945
0.00366298
0.00138578
0.00365753
0.00140843
0.00363976
0.00143693
0.00361568
0.00146443
0.00358399
0.00149281
0.00354532
0.00152139
0.00349983
0.00155036
0.00344786
0.00157958
0.00338983
0.00160899
0.00332615
0.00163853
0.00325728
0.00166812
0.00318367
0.00169765
0.00310584
0.00172704
0.00302437
0.00175621
0.00293981
0.00178508
0.00285272
0.00181366
0.00276339
0.00184188
0.00267234
0.00186944
0.00258015
0.00189635
0.00248727
0.00192258
0.0023941
0.00194807
0.00230109
0.00197276
0.0022085
0.0019966
0.00211682
0.00201949
0.00202631
0.00204152
0.00193724
0.00206261
0.00184982
0.00208273
0.00176427
0.00210184
0.00168076
0.00211989
0.00159948
0.00213688
0.00152059
0.00215287
0.00144415
0.0021679
0.00137017
0.00218194
0.00129866
0.00219493
0.00122962
0.00220652
0.00116327
0.00221699
0.00109954
0.00222672
0.00103854
0.00223558
0.000979876
0.00224358
0.000923734
0.00225093
0.000869255
0.00225764
0.000818822
0.00226395
0.000765899
0.00227079
0.000725605
0.00227837
0.000779065
0.00229059
0.000794701
0.00231438
0.000598184
0.00168751
0.000684317
0.00151389
0.000733211
0.00158015
0.000757454
0.00165351
0.000768337
0.00168866
0.000772294
0.0017102
0.000772482
0.00172558
0.000770663
0.00173647
0.000763934
0.00174288
0.000763939
0.00175371
0.000756993
0.00176178
0.000757356
0.00176933
0.000751434
0.00177844
0.000747206
0.00178151
0.000744605
0.00179386
0.000740566
0.00180164
0.00073895
0.00181169
0.000735383
0.00181778
0.000734015
0.00182549
0.000731072
0.00182947
0.000730559
0.00183497
0.000728557
0.00183764
0.000727914
0.00183953
0.000726625
0.00183798
0.000726523
0.00183771
0.000726773
0.00183449
0.000728498
0.00183033
0.000736827
0.00182535
0.000745373
0.00181941
0.00075447
0.00181314
0.000764224
0.00180647
0.000774991
0.00179893
0.000787887
0.0017919
0.000801656
0.00178407
0.000816223
0.00177205
0.00083899
0.00175401
0.000844111
0.00174067
0.000871084
0.00169495
0.000881329
0.00165099
0.000904375
0.00159502
0.000912033
0.00156362
0.000940346
0.00152724
0.000947548
0.00148728
0.000948164
0.00145074
0.00094664
0.00140699
0.000942783
0.00135262
0.000931842
0.00130119
0.000916146
0.00124506
0.000901164
0.00119059
0.000874175
0.00113277
0.000853879
0.00107369
0.000828232
0.00101768
0.000802741
0.000962038
0.000777015
0.000911888
0.000752476
0.000866583
0.000736367
0.000826907
0.000719989
0.000793103
0.000709662
0.000765073
0.000701457
0.000742708
0.000695457
0.000724327
0.000690435
0.00070753
0.000688748
0.000692257
0.000685624
0.00068007
0.000688168
0.000671812
0.000687906
0.000665538
0.0006962
0.000665194
0.000701699
0.000666141
0.000715593
0.00067365
0.000722122
0.000684389
0.000738599
0.000696987
0.000747735
0.000710229
0.000773822
0.000724646
0.00369573
0.00367959
0.00140988
0.00367439
0.00143564
0.00365689
0.0014673
0.00363304
0.00149791
0.00360157
0.00152938
0.0035631
0.00156102
0.00351777
0.00159303
0.00346593
0.00162525
0.00340798
0.00165763
0.00334435
0.00169011
0.00327548
0.00172261
0.00320182
0.001755
0.00312387
0.0017872
0.00304224
0.00181913
0.00295747
0.00185071
0.00287013
0.00188194
0.0027805
0.00191278
0.0026891
0.00194287
0.00259652
0.00197224
0.00250321
0.00200085
0.00240959
0.00202866
0.00231607
0.00205558
0.00222297
0.00208158
0.00213075
0.00210655
0.00203969
0.00213059
0.00195004
0.00215362
0.00186203
0.00217556
0.00177588
0.00219645
0.00169177
0.00221616
0.00160987
0.0022348
0.00153033
0.0022524
0.00145325
0.00226897
0.00137863
0.0022845
0.00130646
0.00229902
0.00123681
0.00231223
0.00116987
0.00232459
0.00110559
0.00233624
0.001044
0.00234714
0.000984905
0.00235787
0.000928654
0.00236794
0.00087451
0.00237778
0.000824315
0.00238905
0.000773683
0.00239935
0.000731211
0.00241711
0.000748578
0.00242522
0.000883917
0.00245873
0.000681405
0.00236262
0.000763285
0.00178944
0.000795502
0.00177483
0.000806881
0.00182623
0.000809614
0.00184382
0.000807628
0.00185027
0.000803455
0.00185214
0.000795707
0.00185095
0.000789278
0.00185298
0.000782974
0.00185642
0.000776978
0.00186236
0.000772423
0.00186736
0.00076616
0.00186398
0.000762396
0.00187227
0.000757606
0.00187742
0.000754972
0.00188774
0.000750872
0.00189223
0.000748595
0.00189972
0.000745322
0.00190247
0.000743226
0.00190794
0.000741028
0.00190947
0.000739372
0.00191318
0.000737568
0.00191113
0.000736612
0.00191064
0.000735724
0.00190653
0.000735403
0.0019019
0.000744392
0.0018977
0.000753759
0.00189202
0.000763361
0.00188617
0.000773563
0.00187937
0.000784286
0.00187187
0.000796286
0.00186396
0.000810308
0.00185513
0.000827646
0.00184863
0.000845413
0.00183976
0.000863911
0.00182849
0.000888214
0.00180312
0.00090091
0.0017719
0.000925812
0.0017084
0.000942553
0.0016705
0.000977411
0.00163824
0.000984989
0.00159873
0.000993015
0.00155474
0.00100756
0.00153087
0.00100438
0.00148867
0.000999317
0.00143858
0.000990729
0.00138859
0.000972398
0.00133093
0.000956458
0.00126532
0.000932056
0.00120415
0.000907506
0.00114183
0.000879471
0.00108438
0.000848254
0.00102791
0.00081906
0.000969323
0.000790191
0.000913308
0.000768589
0.000865291
0.000746445
0.000827391
0.000733091
0.000796836
0.000722812
0.000771805
0.00071601
0.000752409
0.00070882
0.000736286
0.000705075
0.000720199
0.000699146
0.000705739
0.000698768
0.000692997
0.000695278
0.000682212
0.000702988
0.000677747
0.00070756
0.000675279
0.000720991
0.000678044
0.000726933
0.000686008
0.000743473
0.000698267
0.000752339
0.000710846
0.000774625
0.000724798
0.00371419
0.00369832
0.00143609
0.00369336
0.00146484
0.0036761
0.00149955
0.00365249
0.00153316
0.00362123
0.00156762
0.00358293
0.00160222
0.00353774
0.00163717
0.00348602
0.00167229
0.00342813
0.00170756
0.00336452
0.00174288
0.00329561
0.00177819
0.00322186
0.00181335
0.00314377
0.00184828
0.00306194
0.00188289
0.00297692
0.00191709
0.00288929
0.00195091
0.00279931
0.00198427
0.00270752
0.00201682
0.0026145
0.00204857
0.00252071
0.0020795
0.00242658
0.00210955
0.00233252
0.00213865
0.00223884
0.00216673
0.00214604
0.00219373
0.00205436
0.00221971
0.00196407
0.00224461
0.00187543
0.00226834
0.00178862
0.00229092
0.00170387
0.00231225
0.00162134
0.00233241
0.00154117
0.00235142
0.00146345
0.00236925
0.00138814
0.00238595
0.00131529
0.00240128
0.00124502
0.00241504
0.0011774
0.00242772
0.00111227
0.00243927
0.00104994
0.00244949
0.000990034
0.00245872
0.000932847
0.00246708
0.000878235
0.00247381
0.000825156
0.00247896
0.000776448