/*--------------------------------*- C++ -*----------------------------------*\
| =========                 |                                                 |
| \\      /  F ield         | OpenFOAM: The Open Source CFD Toolbox           |
|  \\    /   O peration     | Version:  2.2.x                                 |
|   \\  /    A nd           | Web:      www.OpenFOAM.org                      |
|    \\/     M anipulation  |                                                 |
\*---------------------------------------------------------------------------*/
FoamFile
{
    version     2.0;
    format      ascii;
    class       volScalarField;
    location    "2.4";
    object      T;
}
// * * * * * * * * * * * * * * * * * * * * * * * * * * * * * * * * * * * * * //

dimensions      [0 0 0 1 0 0 0];

internalField   nonuniform List<scalar> 
14161
(
0.952927
0.962892
0.959962
0.960205
0.959495
0.958915
0.958222
0.95753
0.956833
0.956167
0.955508
0.954893
0.95434
0.953877
0.953616
0.953322
0.953006
0.952644
0.952554
0.952563
0.952635
0.952787
0.953027
0.953304
0.953887
0.954439
0.955082
0.955758
0.956484
0.95741
0.958423
0.959463
0.960624
0.961139
0.962225
0.963883
0.965828
0.967539
0.968318
0.967597
0.963573
0.958398
0.957839
0.949525
0.92177
0.888456
1.43401
2.49304
2.42308
2.38231
2.37372
2.36912
2.36834
2.36801
2.36716
2.36471
2.36039
2.35911
2.35675
2.35168
2.34479
2.33771
2.33201
2.32716
2.32027
2.31188
2.30345
2.29792
2.29271
2.28865
2.28403
2.27965
2.27437
2.26873
2.26307
2.25751
2.25163
2.24398
2.23621
2.23036
2.22607
2.22696
2.22905
2.23502
2.25701
2.29869
2.32224
2.32148
2.34
2.37092
2.39021
2.40967
2.43375
2.4495
2.46078
2.46634
2.46522
2.46555
2.46526
2.49291
2.51648
2.55657
2.59762
2.65425
2.70932
2.76297
2.81565
2.86097
2.90246
2.93666
2.96407
2.98796
3.00326
3.0159
3.01564
3.00098
3.01981
3.05855
3.1429
0.952989
0.962934
0.959992
0.960229
0.959509
0.958935
0.958235
0.95754
0.956838
0.95617
0.955513
0.954906
0.954358
0.953881
0.953647
0.95335
0.953022
0.952653
0.952559
0.952568
0.952637
0.952789
0.953027
0.953302
0.953873
0.954423
0.955057
0.955753
0.956455
0.95738
0.958425
0.959399
0.960474
0.961084
0.962137
0.963647
0.964948
0.965783
0.965868
0.965471
0.964003
0.963303
0.952643
0.925751
0.875788
1.02239
2.55218
2.84384
2.83712
2.80891
2.7912
2.77639
2.77276
2.76294
2.75323
2.74137
2.72876
2.71806
2.70544
2.69226
2.67896
2.66482
2.65244
2.64072
2.62829
2.616
2.60595
2.59872
2.59182
2.5855
2.57984
2.57423
2.5689
2.5645
2.5573
2.55204
2.54269
2.53352
2.52336
2.51815
2.50926
2.50653
2.52144
2.56261
2.59691
2.59933
2.61745
2.6602
2.66738
2.63824
2.65008
2.70731
2.7399
2.7435
2.75586
2.79088
2.84354
2.87732
2.9061
2.94205
2.97006
3.00209
3.02941
3.05849
3.07794
3.0964
3.10529
3.10998
3.10921
3.10852
3.10353
3.09651
3.08201
3.06457
3.04093
3.03271
3.04765
3.08327
3.15798
0.953069
0.962969
0.96003
0.960265
0.959551
0.95896
0.958273
0.957581
0.956889
0.956218
0.955553
0.954927
0.954382
0.953921
0.95366
0.953371
0.953054
0.952677
0.952583
0.952592
0.952661
0.952817
0.953055
0.953328
0.953904
0.954436
0.955061
0.955758
0.956437
0.957454
0.958335
0.959349
0.960558
0.961206
0.962595
0.964729
0.96669
0.968578
0.971294
0.975407
0.978734
0.984039
0.987821
1.00008
1.05925
1.471
2.91206
2.98423
3.00369
2.95779
2.9319
2.90618
2.89346
2.87899
2.86243
2.84744
2.83532
2.81513
2.79967
2.78627
2.7696
2.75424
2.73842
2.72181
2.70799
2.69757
2.68839
2.67976
2.66978
2.66163
2.65711
2.65166
2.64709
2.64251
2.63383
2.62459
2.61573
2.60596
2.59587
2.5862
2.58686
2.6053
2.62279
2.62693
2.67569
2.73676
2.742
2.71474
2.75777
2.87561
2.906
2.86984
2.96534
3.08625
3.14132
3.16271
3.16398
3.1955
3.21388
3.22021
3.23388
3.24336
3.25156
3.25736
3.25964
3.25656
3.2457
3.23042
3.20761
3.18534
3.15956
3.13129
3.10409
3.07734
3.05933
3.05891
3.07337
3.10644
3.1636
0.953132
0.963001
0.960059
0.960289
0.959573
0.958993
0.95829
0.957595
0.956898
0.95623
0.955565
0.95495
0.954403
0.953919
0.953695
0.953377
0.953027
0.952661
0.952565
0.952568
0.952637
0.952788
0.953014
0.953305
0.953859
0.954384
0.954992
0.955648
0.956386
0.957303
0.958246
0.95925
0.960324
0.960873
0.961871
0.963385
0.96463
0.965697
0.96611
0.966523
0.965715
0.97069
0.971496
0.990717
1.00245
1.61798
2.96199
3.0389
3.02477
3.00608
2.99278
2.97454
2.95809
2.92861
2.90873
2.89359
2.87678
2.85126
2.83428
2.81746
2.79649
2.78006
2.7636
2.74463
2.73244
2.72295
2.71236
2.699
2.69012
2.68377
2.67972
2.67419
2.66528
2.6554
2.64891
2.63878
2.62493
2.6093
2.59784
2.59308
2.59578
2.58723
2.59717
2.65983
2.6839
2.68044
2.75667
2.84017
2.82699
2.83042
2.99555
3.11175
3.12814
3.10752
3.14999
3.20233
3.2307
3.24483
3.25239
3.26117
3.27227
3.27836
3.28052
3.27943
3.27267
3.26336
3.24665
3.23047
3.20965
3.18926
3.16313
3.13931
3.11572
3.10212
3.09753
3.10642
3.11743
3.1474
3.17465
0.953241
0.963048
0.960095
0.960316
0.959614
0.959023
0.958319
0.957622
0.956934
0.956266
0.955594
0.95497
0.954432
0.953954
0.95371
0.953406
0.953061
0.952679
0.952579
0.952578
0.95264
0.952782
0.953016
0.953287
0.953832
0.954355
0.954962
0.955608
0.956322
0.957195
0.958231
0.959295
0.960476
0.961123
0.962427
0.964255
0.967085
0.970211
0.973364
0.97872
0.982789
0.993409
0.994393
1.01055
0.985808
1.39278
2.91059
2.98314
2.98792
2.97564
2.96165
2.94978
2.93284
2.90959
2.89353
2.87027
2.8563
2.84268
2.82236
2.803
2.78677
2.76916
2.75712
2.73972
2.72604
2.71297
2.70359
2.69593
2.6896
2.68137
2.67232
2.66608
2.66287
2.65877
2.65041
2.63883
2.62789
2.61759
2.61058
2.6013
2.59875
2.59852
2.62434
2.64731
2.66488
2.75114
2.81245
2.80359
2.86252
2.99566
3.0054
2.98671
3.08331
3.16916
3.19754
3.19036
3.21961
3.2399
3.24776
3.26139
3.27292
3.26794
3.26558
3.26066
3.25556
3.24841
3.23805
3.22814
3.21264
3.1994
3.1797
3.16958
3.15364
3.1565
3.15444
3.15985
3.16305
3.17494
3.18104
0.953301
0.963079
0.960118
0.960345
0.959625
0.959043
0.958338
0.957641
0.95694
0.956265
0.9556
0.954973
0.954432
0.953938
0.953711
0.953381
0.953017
0.95263
0.952525
0.952516
0.952574
0.952714
0.952924
0.953199
0.953715
0.954227
0.954776
0.955451
0.956087
0.956989
0.957915
0.958897
0.959893
0.960623
0.96163
0.962963
0.964473
0.965848
0.966381
0.967362
0.964925
0.966497
0.957132
0.960389
0.925864
1.51248
2.91377
2.99734
3.00614
3.01456
2.99717
2.98091
2.96597
2.93717
2.92098
2.89133
2.87233
2.85215
2.82983
2.80564
2.78855
2.76099
2.74495
2.72528
2.7112
2.69345
2.67541
2.66531
2.65671
2.65293
2.64503
2.63442
2.62405
2.61481
2.60654
2.59945
2.5879
2.57469
2.56523
2.55773
2.55692
2.54962
2.56648
2.6543
2.69253
2.68175
2.72672
2.86646
2.92021
2.87964
2.9513
3.0376
3.05984
3.077
3.11439
3.15566
3.20114
3.22316
3.24129
3.25416
3.26182
3.25761
3.24947
3.24762
3.24624
3.24364
3.23819
3.23524
3.22923
3.22538
3.21509
3.21371
3.20099
3.19725
3.18799
3.18519
3.18283
3.18135
3.17945
0.953416
0.963122
0.96015
0.960369
0.959652
0.959048
0.958367
0.957667
0.956958
0.956278
0.955608
0.954981
0.954452
0.953952
0.953725
0.953383
0.953011
0.952618
0.952507
0.952488
0.952547
0.952672
0.952877
0.953147
0.953633
0.954133
0.954696
0.955263
0.955953
0.956854
0.957801
0.958721
0.95973
0.960331
0.961503
0.96327
0.965398
0.968102
0.971805
0.976799
0.982993
0.996436
1.00762
1.03895
1.03755
2.17813
3.03048
3.05168
3.07781
3.04827
3.0249
2.98694
2.95713
2.93158
2.90695
2.86771
2.84113
2.79979
2.77698
2.74092
2.71841
2.68675
2.67091
2.64624
2.63287
2.61391
2.60145
2.59004
2.58219
2.57527
2.56938
2.56203
2.55578
2.55003
2.54468
2.53651
2.52777
2.52204
2.51474
2.50873
2.51001
2.5187
2.54878
2.57647
2.58032
2.7193
2.79741
2.76915
2.80253
2.92098
2.9478
2.92606
2.97109
3.03475
3.0818
3.11145
3.14567
3.17264
3.20456
3.22548
3.24729
3.24774
3.24247
3.23871
3.23861
3.24005
3.24136
3.24771
3.25057
3.25532
3.24807
3.2376
3.22251
3.21083
3.19862
3.19148
3.18588
3.18192
3.17785
0.953474
0.963151
0.960169
0.960385
0.95967
0.959084
0.958369
0.957671
0.956962
0.956277
0.955613
0.954977
0.954431
0.953924
0.953695
0.953339
0.952951
0.952537
0.952418
0.952378
0.95243
0.952539
0.952728
0.952975
0.953444
0.953892
0.954444
0.955006
0.955614
0.956445
0.957312
0.958264
0.959246
0.960061
0.961063
0.962475
0.964009
0.965503
0.966897
0.968079
0.969255
0.97286
0.973624
0.981969
1.00902
1.75172
2.94343
3.05859
3.03224
2.98506
2.9402
2.89844
2.84105
2.8105
2.77513
2.74976
2.714
2.68626
2.66763
2.63223
2.61476
2.58379
2.57223
2.54815
2.53961
2.52191
2.51709
2.50385
2.49335
2.48597
2.47932
2.47613
2.47342
2.46914
2.46265
2.45648
2.45114
2.44873
2.44162
2.42907
2.43046
2.45687
2.45643
2.47401
2.59557
2.64582
2.62913
2.72492
2.79417
2.79649
2.83153
2.89487
2.93173
2.95914
2.99228
3.03095
3.08304
3.11854
3.16181
3.19599
3.22585
3.23427
3.2294
3.22578
3.22758
3.23418
3.24495
3.25897
3.26477
3.26822
3.25868
3.24377
3.22756
3.21394
3.2003
3.19179
3.1848
3.17941
3.17616
0.953579
0.963188
0.960192
0.9604
0.959688
0.959078
0.958379
0.95768
0.956969
0.956284
0.955611
0.954964
0.954427
0.953912
0.95368
0.953321
0.952925
0.952493
0.952367
0.952299
0.952343
0.952439
0.952609
0.952839
0.953271
0.953701
0.954167
0.954761
0.955343
0.956093
0.956903
0.957699
0.958477
0.959073
0.959876
0.96128
0.962598
0.964115
0.965416
0.967012
0.968619
0.973625
0.975872
0.985246
1.0103
1.02439
2.76615
2.87363
2.92812
2.82064
2.76816
2.72501
2.69082
2.66484
2.63807
2.62262
2.58565
2.58034
2.55454
2.52943
2.52259
2.48598
2.48511
2.4579
2.45858
2.43825
2.44132
2.42527
2.42505
2.41638
2.41334
2.40882
2.40526
2.40091
2.39628
2.39299
2.38916
2.38176
2.37451
2.36812
2.36667
2.38116
2.36886
2.45487
2.47534
2.53389
2.62477
2.66593
2.65194
2.70945
2.74704
2.79874
2.8348
2.87649
2.92709
2.97531
3.03218
3.06042
3.1073
3.14956
3.18928
3.21069
3.21669
3.21421
3.21458
3.22531
3.24432
3.26294
3.27398
3.27516
3.26357
3.24573
3.22853
3.21251
3.19862
3.18972
3.18108
3.17606
3.1741
0.953635
0.963214
0.960214
0.960419
0.959699
0.95909
0.958381
0.957676
0.956967
0.956271
0.95559
0.954935
0.954392
0.953865
0.953626
0.953254
0.952842
0.952382
0.952225
0.95214
0.952159
0.952229
0.95238
0.952603
0.952982
0.953382
0.953819
0.954338
0.954905
0.955647
0.956476
0.957346
0.95832
0.95892
0.960003
0.961593
0.963368
0.964542
0.966049
0.967053
0.967345
0.965867
0.961665
0.959184
0.93394
1.00948
1.99405
2.76836
2.75364
2.67948
2.62088
2.59362
2.57208
2.55579
2.53603
2.52758
2.49467
2.50221
2.47051
2.48321
2.44449
2.44987
2.42082
2.42652
2.40434
2.40949
2.39308
2.39444
2.38412
2.38497
2.37698
2.37483
2.37188
2.36882
2.3652
2.36036
2.35305
2.34724
2.33775
2.32913
2.31537
2.34586
2.3247
2.39763
2.42284
2.52728
2.53898
2.55268
2.58669
2.62821
2.64784
2.69882
2.73877
2.78666
2.85097
2.89291
2.94626
2.99413
3.04763
3.09561
3.14358
3.18343
3.20311
3.20304
3.20145
3.21452
3.23957
3.26046
3.27718
3.27939
3.26648
3.2466
3.227
3.20903
3.19397
3.18579
3.17881
3.17542
3.17299
0.953722
0.96324
0.960224
0.96042
0.959702
0.959081
0.95838
0.957673
0.956957
0.956263
0.955572
0.954906
0.954347
0.953825
0.953588
0.95321
0.952788
0.9523
0.952117
0.95202
0.952006
0.952057
0.952193
0.952385
0.952713
0.953046
0.953493
0.953908
0.954429
0.955055
0.955691
0.956236
0.956751
0.956842
0.957151
0.957363
0.957137
0.956414
0.954514
0.951592
0.947015
0.938517
0.927391
0.901354
0.884359
0.902576
0.793691
2.39144
2.5762
2.48085
2.466
2.45242
2.45853
2.45161
2.46805
2.4489
2.46574
2.44705
2.47511
2.44321
2.45712
2.42515
2.43426
2.40914
2.41658
2.3969
2.40141
2.38649
2.38751
2.37929
2.37581
2.37299
2.36704
2.36193
2.35673
2.35078
2.34461
2.33629
2.32799
2.30666
2.31287
2.29085
2.34058
2.32735
2.44932
2.45148
2.56538
2.5046
2.52299
2.57684
2.56642
2.6093
2.66
2.70474
2.76659
2.81333
2.86996
2.93326
2.98568
3.04574
3.09925
3.14691
3.17392
3.18357
3.18482
3.19547
3.21726
3.24345
3.27224
3.28073
3.27122
3.24899
3.22636
3.20764
3.19216
3.18521
3.17838
3.1762
3.17421
0.953777
0.963263
0.960245
0.960431
0.959709
0.959098
0.958368
0.957661
0.95694
0.956235
0.955529
0.954858
0.954291
0.953758
0.953505
0.953109
0.952664
0.952133
0.951918
0.951803
0.951747
0.95177
0.95188
0.95204
0.952336
0.952619
0.952983
0.953402
0.95389
0.9545
0.955179
0.955958
0.956811
0.957522
0.9586
0.96033
0.962166
0.964387
0.966686
0.968591
0.970642
0.973774
0.980582
0.98451
0.99028
1.0317
1.47193
2.66892
2.62598
2.61195
2.56222
2.54435
2.52117
2.51945
2.50011
2.50799
2.47519
2.48884
2.46585
2.48964
2.45126
2.45894
2.42988
2.43748
2.41401
2.42083
2.39742
2.3987
2.38606
2.38313
2.38049
2.37748
2.37365
2.36911
2.3635
2.35636
2.34975
2.34259
2.32599
2.31293
2.29834
2.3048
2.31384
2.36919
2.46821
2.48445
2.48331
2.52572
2.51083
2.53942
2.51742
2.55519
2.60062
2.63881
2.68561
2.75271
2.80432
2.87061
2.92886
2.9911
3.05229
3.10157
3.15045
3.17292
3.17606
3.18155
3.1988
3.22617
3.26097
3.27806
3.27597
3.25313
3.2267
3.20713
3.19132
3.18473
3.17807
3.17581
3.17411
0.953841
0.963278
0.960245
0.960423
0.959701
0.95908
0.958355
0.957634
0.956908
0.956204
0.955494
0.95482
0.954232
0.953693
0.953437
0.953023
0.952564
0.951995
0.951748
0.951611
0.951531
0.951514
0.951588
0.951709
0.951956
0.952158
0.952416
0.952768
0.953166
0.953609
0.953991
0.954361
0.954632
0.954564
0.954555
0.954113
0.953447
0.952188
0.950625
0.948396
0.94629
0.943869
0.94398
0.941599
0.936199
1.0929
1.67395
2.70859
2.71124
2.71407
2.63885
2.61302
2.57313
2.55083
2.53545
2.53202
2.50042
2.50997
2.47402
2.49462
2.45338
2.458
2.42557
2.43113
2.40497
2.41215
2.38956
2.39122
2.37654
2.37753
2.36939
2.36531
2.35994
2.35433
2.34704
2.34108
2.33123
2.32499
2.30703
2.29572
2.28284
2.3057
2.30277
2.44127
2.44892
2.55478
2.45563
2.50466
2.47545
2.46981
2.52054
2.52227
2.5187
2.55794
2.61573
2.68769
2.74319
2.79519
2.85994
2.91758
2.98838
3.04892
3.12537
3.16129
3.16738
3.1638
3.17627
3.20541
3.23996
3.26489
3.27592
3.25849
3.23001
3.20957
3.19142
3.18397
3.17708
3.1739
3.17272
0.953886
0.963294
0.96026
0.960428
0.959702
0.959079
0.958332
0.957604
0.956875
0.956162
0.955434
0.954748
0.954143
0.953588
0.953332
0.952888
0.952409
0.951787
0.951489
0.951318
0.951205
0.951149
0.95116
0.951245
0.951451
0.951615
0.95185
0.952151
0.952538
0.953041
0.953542
0.954164
0.954772
0.955523
0.956505
0.958191
0.959887
0.962064
0.964647
0.967708
0.972177
0.977287
0.984557
0.992014
0.986217
1.11667
2.05695
2.58903
2.57675
2.67178
2.59972
2.58498
2.52855
2.51337
2.50914
2.47793
2.49576
2.45544
2.47445
2.44468
2.46141
2.43552
2.42351
2.41695
2.40205
2.40494
2.3887
2.3892
2.37776
2.37948
2.37276
2.37058
2.36494
2.35953
2.355
2.34582
2.33916
2.32721
2.31403
2.30278
2.29402
2.3202
2.32618
2.46096
2.48779
2.53015
2.45723
2.45496
2.51636
2.51983
2.51411
2.48018
2.47974
2.52031
2.55863
2.5941
2.64965
2.71708
2.80536
2.86595
2.92978
3.00164
3.08217
3.13434
3.15448
3.15447
3.16221
3.18473
3.21553
3.24298
3.26634
3.26108
3.23633
3.21373
3.19236
3.18356
3.17587
3.17073
3.16943
0.953931
0.963294
0.960253
0.96041
0.959676
0.959051
0.958306
0.957564
0.956825
0.956111
0.955387
0.954686
0.954064
0.953487
0.953228
0.95277
0.952278
0.951598
0.951255
0.95105
0.950905
0.950805
0.950757
0.950803
0.950906
0.951024
0.951142
0.951281
0.951544
0.951806
0.952075
0.95233
0.952258
0.95211
0.951937
0.951483
0.950771
0.94978
0.948861
0.946513
0.942568
0.937971
0.932037
0.926843
0.937561
0.982237
2.05828
2.36202
2.41934
2.60088
2.52494
2.56708
2.50232
2.51768
2.4921
2.49167
2.49635
2.46608
2.47544
2.45079
2.47991
2.43752
2.44094
2.41632
2.42478
2.40497
2.41005
2.39409
2.39161
2.39022
2.38811
2.38542
2.38005
2.37696
2.36955
2.3626
2.3574
2.34079
2.33264
2.31979
2.31122
2.30489
2.44519
2.52575
2.57729
2.4894
2.44417
2.47641
2.52334
2.50317
2.4421
2.47095
2.53454
2.56333
2.55699
2.54478
2.59871
2.66217
2.73161
2.78943
2.85265
2.93883
3.03073
3.1082
3.1518
3.15631
3.15509
3.16982
3.19638
3.22404
3.25216
3.26032
3.24467
3.21975
3.19467
3.18379
3.17306
3.16634
3.16458
0.953961
0.963302
0.96026
0.960407
0.959663
0.959028
0.958273
0.957523
0.956772
0.956047
0.955318
0.954594
0.953954
0.953354
0.95307
0.952601
0.95209
0.951347
0.950937
0.95068
0.950493
0.950344
0.950244
0.950213
0.95026
0.950323
0.950441
0.950566
0.950781
0.951083
0.951452
0.951906
0.952344
0.952832
0.953532
0.954769
0.956101
0.957654
0.959533
0.961718
0.964523
0.968534
0.969648
0.964117
1.01959
1.12923
2.16723
2.27782
2.33882
2.4637
2.46366
2.56857
2.51028
2.54911
2.50493
2.53223
2.4913
2.51247
2.47682
2.47272
2.47454
2.44881
2.44841
2.42677
2.43211
2.41432
2.42036
2.403
2.40312
2.39986
2.39893
2.39477
2.3933
2.39017
2.38787
2.37963
2.37057
2.35008
2.34004
2.32807
2.35577
2.38487
2.52059
2.59888
2.54052
2.50034
2.56415
2.59516
2.5234
2.43894
2.43243
2.4799
2.51498
2.49712
2.4918
2.52769
2.58156
2.65024
2.68956
2.74682
2.81298
2.89529
2.98043
3.06049
3.12695
3.14522
3.14164
3.15257
3.17438
3.20411
3.23498
3.25526
3.2519
3.2277
3.19783
3.18464
3.16982
3.15964
3.15747
0.953988
0.963292
0.960245
0.960383
0.959629
0.95899
0.958235
0.957477
0.956716
0.95598
0.95525
0.954505
0.953845
0.953225
0.952911
0.952442
0.951916
0.951107
0.950637
0.95033
0.950091
0.949894
0.949738
0.949641
0.949602
0.949584
0.949572
0.94958
0.949592
0.949638
0.9497
0.949727
0.949728
0.949552
0.94937
0.949082
0.948764
0.948306
0.947569
0.947188
0.946705
0.947723
0.949528
0.948234
1.04527
1.84206
2.20087
2.2304
2.26637
2.34376
2.37194
2.56005
2.5342
2.59342
2.54503
2.56307
2.51415
2.52557
2.47607
2.49079
2.45062
2.47211
2.4364
2.43945
2.41811
2.42734
2.41055
2.41181
2.40277
2.40676
2.40519
2.4004
2.39662
2.39489
2.3934
2.38623
2.36429
2.34604
2.34806
2.35801
2.38023
2.52594
2.56979
2.66192
2.58804
2.57596
2.55568
2.55787
2.51073
2.50834
2.53465
2.54386
2.49095
2.46599
2.48318
2.52121
2.53352
2.57765
2.62143
2.69143
2.76183
2.83657
2.92054
3.00546
3.09368
3.1386
3.13975
3.14475
3.161
3.18791
3.21608
3.23876
3.24937
3.23401
3.20417
3.18731
3.16849
3.15508
3.14773
0.954001
0.963289
0.960241
0.960369
0.959604
0.958955
0.958191
0.957426
0.956646
0.9559
0.955164
0.954392
0.953703
0.953061
0.952694
0.952229
0.951693
0.950815
0.950266
0.949889
0.949588
0.94933
0.94911
0.948942
0.94881
0.948737
0.948671
0.948646
0.948628
0.948683
0.948764
0.948906
0.949099
0.949416
0.949848
0.95046
0.951088
0.951692
0.952773
0.954118
0.955359
0.95598
0.955688
0.95495
1.03422
2.15558
2.22961
2.2181
2.21944
2.2248
2.32053
2.35646
2.53163
2.49409
2.56462
2.50423
2.52822
2.47267
2.50402
2.44292
2.44775
2.4132
2.43351
2.40409
2.40776
2.39525
2.40206
2.3912
2.38835
2.39089
2.39183
2.39116
2.39178
2.39283
2.39082
2.38019
2.36216
2.35948
2.35863
2.39844
2.4887
2.64667
2.61391
2.58042
2.63286
2.64954
2.57296
2.50717
2.48148
2.51048
2.5169
2.48576
2.47109
2.49525
2.531
2.5417
2.54138
2.54506
2.59282
2.65631
2.73317
2.79638
2.8777
2.96139
3.05746
3.12173
3.13264
3.13935
3.15088
3.17507
3.19852
3.22089
3.23857
3.23577
3.21307
3.19022
3.16626
3.15114
3.14128
0.954011
0.96327
0.960217
0.960338
0.959561
0.958903
0.958133
0.957362
0.956571
0.955812
0.955071
0.954277
0.953563
0.952907
0.952468
0.952013
0.951478
0.950547
0.949904
0.949453
0.949099
0.948775
0.948481
0.948233
0.948001
0.947849
0.947635
0.947465
0.947264
0.946954
0.946766
0.946541
0.946393
0.946196
0.946
0.945699
0.945228
0.94466
0.944033
0.942692
0.941242
0.936077
0.929278
0.982917
1.09705
2.20153
2.22682
2.23227
2.24184
2.25043
2.23513
2.24743
2.38297
2.38749
2.53064
2.47316
2.52865
2.46942
2.51549
2.44044
2.44656
2.40538
2.41065
2.40174
2.39966
2.39813
2.39522
2.39822
2.39069
2.39577
2.39461
2.39521
2.39534
2.39065
2.38077
2.37046
2.37391
2.3857
2.41234
2.56764
2.58364
2.70701
2.69013
2.60497
2.56201
2.60259
2.60111
2.58053
2.57913
2.56229
2.51575
2.47785
2.47641
2.49551
2.5065
2.50052
2.49942
2.50604
2.55594
2.61434
2.68205
2.74978
2.83789
2.92359
3.01445
3.09114
3.11701
3.13086
3.14109
3.16198
3.1814
3.20313
3.22537
3.2346
3.22112
3.19561
3.16552
3.14881
3.13494
0.953984
0.963241
0.960188
0.960301
0.95952
0.958852
0.95807
0.957292
0.956491
0.955714
0.95496
0.954147
0.9534
0.952714
0.952195
0.951746
0.951192
0.950237
0.949473
0.948934
0.948495
0.9481
0.947727
0.947375
0.947053
0.946867
0.946574
0.946379
0.94605
0.945679
0.945511
0.945375
0.945295
0.945206
0.945267
0.94537
0.945644
0.945848
0.946358
0.945899
0.947046
0.948732
0.944784
1.04033
1.79349
2.25709
2.25309
2.25688
2.25822
2.25978
2.25979
2.25666
2.29308
2.29098
2.48267
2.46015
2.55153
2.48151
2.536
2.45447
2.47409
2.42196
2.44796
2.4203
2.43
2.42275
2.41617
2.41698
2.41297
2.42319
2.42506
2.4245
2.418
2.41513
2.42016
2.42114
2.4617
2.54081
2.66063
2.72543
2.75517
2.71228
2.69853
2.66389
2.60301
2.55306
2.55228
2.55243
2.54328
2.51011
2.50024
2.50685
2.51769
2.50721
2.50488
2.50305
2.50625
2.52957
2.54989
2.5886
2.64221
2.71473
2.7979
2.87977
2.96556
3.04803
3.09721
3.12603
3.13742
3.15344
3.16726
3.18761
3.2085
3.22725
3.2257
3.20307
3.1648
3.14616
3.12891
0.953984
0.963214
0.960152
0.960252
0.959477
0.9588
0.958003
0.957213
0.9564
0.955606
0.954834
0.954021
0.953234
0.952521
0.951916
0.95147
0.950853
0.949997
0.949051
0.948412
0.947896
0.947426
0.94696
0.946515
0.946085
0.945857
0.945434
0.945048
0.94446
0.943769
0.94329
0.942792
0.942321
0.941835
0.941465
0.941162
0.941009
0.940819
0.940647
0.94164
0.942933
0.947671
0.951667
1.04875
2.17658
2.28187
2.26987
2.27137
2.26493
2.23881
2.22911
2.25264
2.26602
2.28445
2.27831
2.46086
2.4232
2.54168
2.46334
2.52696
2.43773
2.45919
2.42556
2.44828
2.42897
2.44399
2.43067
2.42606
2.4298
2.4456
2.45607
2.46367
2.46952
2.50585
2.58292
2.6382
2.75296
2.78388
2.83426
2.78111
2.73694
2.68838
2.64975
2.64132
2.62612
2.60424
2.60264
2.60425
2.57544
2.54247
2.51425
2.50586
2.49148
2.47643
2.46424
2.48301
2.49544
2.51104
2.53323
2.57114
2.62024
2.68863
2.75989
2.83802
2.9277
3.0159
3.08664
3.12641
3.13591
3.1469
3.15533
3.17663
3.19433
3.22104
3.22496
3.20916
3.16757
3.14498
3.12223
0.953926
0.963167
0.960103
0.960199
0.959417
0.958733
0.957931
0.957128
0.956298
0.955486
0.954681
0.953872
0.953039
0.952285
0.951594
0.951156
0.950458
0.949674
0.948574
0.947819
0.947198
0.94663
0.946081
0.945533
0.944993
0.944723
0.944212
0.943771
0.94302
0.942241
0.941724
0.941284
0.940863
0.940456
0.940236
0.939744
0.939069
0.938278
0.935712
0.933519
0.92718
0.917123
0.957455
1.00305
2.20059
2.27589
2.28687
2.29187
2.28558
2.28327
2.27634
2.24907
2.24505
2.24052
2.28445
2.27257
2.4521
2.41531
2.53746
2.4316
2.51728
2.42456
2.44562
2.42552
2.452
2.45049
2.47197
2.46319
2.51089
2.56353
2.62448
2.68234
2.75917
2.82091
2.87975
2.93687
2.97598
2.9733
2.9287
2.88106
2.8235
2.75845
2.67944
2.6351
2.61536
2.58966
2.57358
2.56147
2.54643
2.55505
2.55419
2.54046
2.51102
2.50007
2.49851
2.51009
2.51364
2.50931
2.51582
2.54532
2.59356
2.64988
2.71805
2.79707
2.88745
2.9795
3.06741
3.12101
3.13048
3.13894
3.1442
3.16294
3.1788
3.20785
3.21653
3.21406
3.17219
3.14462
3.1159
0.953901
0.963124
0.960052
0.960143
0.959355
0.958662
0.95785
0.957038
0.956192
0.955355
0.954526
0.953717
0.952838
0.952044
0.951273
0.950826
0.95008
0.94934
0.948103
0.947223
0.946492
0.945839
0.945197
0.944542
0.943892
0.943566
0.942888
0.942298
0.941177
0.940139
0.939303
0.938484
0.937559
0.936881
0.93586
0.934631
0.933085
0.932075
0.930758
0.931608
0.931965
0.925665
1.02068
1.50565
2.3436
2.32682
2.32381
2.31835
2.31526
2.31459
2.31675
2.31117
2.2841
2.24212
2.24372
2.28388
2.35903
2.31764
2.53771
2.44777
2.55848
2.45371
2.51126
2.5737
2.60489
2.66662
2.72265
2.79943
2.83826
2.89958
2.95251
3.01707
3.03373
3.06442
3.06141
3.05516
3.03588
3.00925
2.97089
2.9194
2.8661
2.80994
2.74715
2.70253
2.66639
2.64491
2.6103
2.58348
2.56638
2.55161
2.54196
2.5281
2.5107
2.50216
2.50153
2.49929
2.50075
2.51311
2.52763
2.54965
2.58151
2.62596
2.68714
2.76388
2.85331
2.94557
3.04314
3.1119
3.1229
3.1312
3.1339
3.14988
3.16427
3.19076
3.20392
3.21467
3.17512
3.14348
3.1104
0.953817
0.963058
0.959985
0.960075
0.95928
0.95858
0.95776
0.956937
0.956075
0.955213
0.954357
0.953534
0.952626
0.95178
0.950932
0.950438
0.949681
0.948951
0.947561
0.946574
0.945724
0.944951
0.944202
0.943443
0.942675
0.942305
0.94151
0.940875
0.93948
0.938471
0.937749
0.937071
0.936719
0.936445
0.936117
0.936069
0.936014
0.936406
0.93742
0.939436
0.945529
0.946414
1.05498
2.16136
2.35167
2.33101
2.32433
2.32046
2.32031
2.31496
2.29809
2.28349
2.28698
2.30313
2.31223
2.28492
2.2485
2.36902
2.49954
2.69159
2.71024
2.81754
2.844
2.93281
2.98163
3.04207
3.07253
3.09235
3.09849
3.09848
3.09273
3.11113
3.11076
3.10425
3.08868
3.07744
3.05716
3.03314
3.01018
2.98379
2.93887
2.87743
2.80055
2.73375
2.68804
2.65702
2.62336
2.59423
2.58028
2.57004
2.56274
2.55517
2.54222
2.52634
2.51243
2.50956
2.50264
2.50653
2.51784
2.53527
2.56298
2.60718
2.66581
2.7373
2.82229
2.91853
3.01763
3.09792
3.11514
3.12447
3.12688
3.14061
3.15413
3.17375
3.19284
3.21043
3.17739
3.14261
3.10512
0.953758
0.962996
0.959915
0.960007
0.959197
0.958501
0.957662
0.956827
0.955947
0.955058
0.954177
0.95332
0.952416
0.951511
0.95061
0.95001
0.949281
0.948519
0.947061
0.945919
0.944954
0.94407
0.943212
0.942344
0.941445
0.941015
0.940091
0.939266
0.937491
0.936244
0.935213
0.934017
0.933368
0.932105
0.930675
0.928462
0.92547
0.921631
0.917727
0.909189
0.899525
0.916871
0.987319
2.24528
2.3288
2.32888
2.32636
2.32459
2.33601
2.34406
2.3357
2.30871
2.3005
2.31605
2.36038
2.38125
2.36883
2.51946
2.7934
2.87823
2.99625
3.03329
3.07733
3.08693
3.10286
3.12531
3.13797
3.14889
3.14582
3.14143
3.12282
3.11739
3.10688
3.09735
3.08728
3.07998
3.06618
3.04933
3.03009
3.00795
2.98109
2.94456
2.88407
2.81413
2.75489
2.70227
2.66417
2.63704
2.61249
2.58362
2.55864
2.54756
2.53973
2.52596
2.51092
2.50512
2.51203
2.51651
2.52244
2.53371
2.55514
2.59251
2.64381
2.70767
2.78743
2.88412
2.98649
3.07727
3.10629
3.1196
3.12123
3.13172
3.1417
3.16004
3.18281
3.20115
3.17718
3.14047
3.09838
0.953649
0.962911
0.959827
0.959919
0.959109
0.958409
0.957552
0.956701
0.955808
0.954894
0.953986
0.953089
0.952188
0.951214
0.95028
0.949533
0.948834
0.947971
0.946607
0.94522
0.944107
0.943103
0.942135
0.941155
0.940117
0.939645
0.938597
0.937692
0.93573
0.934419
0.933402
0.932272
0.932037
0.931112
0.930335
0.928895
0.927814
0.927357
0.928488
0.92767
0.920228
0.99752
1.28499
2.38811
2.37364
2.36422
2.34926
2.34644
2.36104
2.36592
2.35538
2.33064
2.32844
2.37034
2.45546
2.52193
2.59419
2.89428
3.07147
3.1165
3.11232
3.12362
3.11714
3.12836
3.1249
3.12951
3.12675
3.131
3.13451
3.13605
3.12795
3.1186
3.10854
3.09688
3.08621
3.0773
3.0679
3.05781
3.04394
3.02773
3.00752
2.98107
2.94003
2.88046
2.81051
2.73718
2.68573
2.65056
2.62335
2.59953
2.5803
2.56367
2.55117
2.537
2.52707
2.52043
2.51335
2.51443
2.51824
2.52674
2.5445
2.57307
2.61704
2.67743
2.75561
2.8513
2.95582
3.05392
3.09655
3.11412
3.11295
3.12087
3.12531
3.14972
3.17138
3.19067
3.17602
3.13806
3.08901
0.953556
0.962828
0.959736
0.959832
0.959014
0.958303
0.957444
0.956569
0.955662
0.954723
0.95379
0.952861
0.951953
0.950911
0.949934
0.949055
0.948366
0.947383
0.946162
0.944526
0.943257
0.942135
0.94106
0.939975
0.938772
0.938242
0.937091
0.936057
0.933822
0.932271
0.931019
0.929574
0.929002
0.927658
0.926385
0.924935
0.923081
0.92225
0.923705
0.926179
0.923705
1.03169
2.01046
2.37985
2.36696
2.35038
2.33473
2.33502
2.35772
2.36543
2.35689
2.32928
2.35013
2.44906
2.57475
2.67219
2.91188
3.09391
3.11271
3.11169
3.10932
3.10699
3.11395
3.11097
3.11648
3.12093
3.12041
3.11412
3.11337
3.11644
3.11795
3.11137
3.10424
3.09485
3.08558
3.07539
3.06498
3.05697
3.0475
3.03726
3.02338
3.00507
2.97772
2.93549
2.87067
2.79149
2.7326
2.68847
2.65711
2.62843
2.60117
2.57488
2.55573
2.54099
2.5316
2.52621
2.52162
2.52469
2.52809
2.53397
2.54406
2.5654
2.60278
2.65824
2.73241
2.82579
2.93055
3.02834
3.08241
3.10675
3.1036
3.11137
3.11236
3.13977
3.15661
3.18072
3.17399
3.13529
3.08113
0.953418
0.962723
0.95963
0.959731
0.958908
0.958185
0.957323
0.95642
0.955507
0.954554
0.953589
0.95262
0.951693
0.950601
0.94956
0.948559
0.947862
0.946791
0.945651
0.943806
0.942384
0.941109
0.939909
0.938699
0.937348
0.936789
0.935488
0.934371
0.931913
0.930247
0.928981
0.927733
0.927094
0.92651
0.925583
0.924954
0.922643
0.922003
0.920666
0.919091
0.922051
1.01894
2.23195
2.35564
2.34011
2.33007
2.3212
2.32401
2.34939
2.36338
2.35677
2.3428
2.41624
2.58698
2.76409
2.9502
3.09695
3.12275
3.1222
3.10071
3.08813
3.08059
3.07986
3.08482
3.09019
3.09558
3.09643
3.09845
3.0975
3.09923
3.10431
3.10388
3.10051
3.09349
3.08323
3.07464
3.06508
3.05648
3.04777
3.03919
3.02936
3.01537
2.99607
2.96546
2.91959
2.8494
2.77905
2.72079
2.67822
2.64305
2.61087
2.58823
2.56973
2.55707
2.54702
2.53984
2.53345
2.52981
2.531
2.53543
2.54331
2.55971
2.59004
2.63996
2.70991
2.79861
2.90253
2.99827
3.06365
3.0965
3.09363
3.10146
3.10369
3.12724
3.13816
3.17003
3.16808
3.13216
3.0744
0.95329
0.962618
0.959517
0.959623
0.958794
0.958054
0.957194
0.956268
0.955331
0.954386
0.953381
0.952367
0.951405
0.950294
0.94918
0.948056
0.947327
0.946217
0.945107
0.943078
0.941524
0.940094
0.938759
0.93743
0.935916
0.935326
0.933921
0.932656
0.930052
0.928065
0.926608
0.92519
0.92355
0.922776
0.920892
0.918639
0.914818
0.912024
0.90796
0.899849
0.956396
1.06481
2.2868
2.34757
2.35848
2.3477
2.33799
2.34132
2.36881
2.39529
2.39981
2.41504
2.58001
2.83144
3.00875
3.09393
3.12454
3.12431
3.10392
3.09144
3.084
3.07401
3.06854
3.06945
3.0712
3.07169
3.07374
3.0781
3.07905
3.08159
3.08385
3.08749
3.08611
3.08485
3.07508
3.06744
3.05909
3.05353
3.04749
3.04048
3.03118
3.02115
3.00812
2.9876
2.9551
2.90219
2.82759
2.7593
2.70956
2.66956
2.63455
2.61008
2.59011
2.57396
2.55809
2.54666
2.53987
2.53744
2.53821
2.54061
2.54653
2.55925
2.58438
2.62604
2.68992
2.77415
2.87594
2.96955
3.04473
3.08708
3.08635
3.09352
3.09741
3.11021
3.11911
3.15764
3.15882
3.12691
3.06958
0.95312
0.962493
0.959393
0.959504
0.958671
0.957917
0.957061
0.956119
0.955151
0.954208
0.953161
0.952119
0.951083
0.949984
0.948787
0.947564
0.946744
0.945652
0.944511
0.942366
0.940647
0.939072
0.937582
0.936136
0.934476
0.933767
0.932379
0.931063
0.928308
0.925954
0.924216
0.922671
0.921057
0.920287
0.919497
0.918496
0.917625
0.919633
0.921112
0.918326
1.02159
1.7609
2.34108
2.3552
2.36765
2.36057
2.3515
2.35617
2.39315
2.45222
2.49308
2.57754
2.86333
3.06122
3.09614
3.10906
3.10554
3.09424
3.08606
3.08126
3.07692
3.06507
3.06218
3.06095
3.0591
3.05608
3.05723
3.05961
3.06228
3.06486
3.06773
3.06949
3.07084
3.07582
3.07072
3.06678
3.05665
3.04998
3.04381