/*--------------------------------*- C++ -*----------------------------------*\
| =========                 |                                                 |
| \\      /  F ield         | OpenFOAM: The Open Source CFD Toolbox           |
|  \\    /   O peration     | Version:  2.2.x                                 |
|   \\  /    A nd           | Web:      www.OpenFOAM.org                      |
|    \\/     M anipulation  |                                                 |
\*---------------------------------------------------------------------------*/
FoamFile
{
    version     2.0;
    format      ascii;
    class       volScalarField;
    location    "0.15";
    object      p;
}
// * * * * * * * * * * * * * * * * * * * * * * * * * * * * * * * * * * * * * //

dimensions      [1 -1 -2 0 0 0 0];

internalField   nonuniform List<scalar> 
14161
(
0.2
0.2
0.2
0.2
0.2
0.2
0.2
0.2
0.2
0.2
0.2
0.2
0.2
0.2
0.2
0.2
0.2
0.2
0.2
0.2
0.2
0.2
0.2
0.2
0.2
0.2
0.2
0.2
0.2
0.2
0.2
0.2
0.2
0.2
0.2
0.2
0.2
0.2
0.2
0.2
0.2
0.2
0.2
0.2
0.2
0.2
0.2
0.2
0.2
0.2
0.2
0.2
0.2
0.2
0.2
0.2
0.2
0.2
0.2
0.2
0.2
0.2
0.2
0.2
0.199998
0.199958
0.199402
0.195946
0.155483
0.655673
5.37372
8.83224
9.70824
9.87323
9.98106
10.0656
10.1287
10.1705
10.1942
10.2233
10.2672
10.3158
10.3565
10.3875
10.404
10.4055
10.4364
10.5036
10.5777
10.6336
10.6637
10.6555
10.6595
10.702
10.7647
10.8212
10.8607
10.8799
10.898
10.9199
10.9379
10.9458
10.9592
10.9994
11.0575
11.1097
11.1398
11.1415
11.1431
11.1677
11.2016
11.2301
11.2436
11.2373
11.2286
11.2316
11.2597
11.2979
11.3248
0.2
0.2
0.2
0.2
0.2
0.2
0.2
0.2
0.2
0.2
0.2
0.2
0.2
0.2
0.2
0.2
0.2
0.2
0.2
0.2
0.2
0.2
0.2
0.2
0.2
0.2
0.2
0.2
0.2
0.2
0.2
0.2
0.2
0.2
0.2
0.2
0.2
0.2
0.2
0.2
0.2
0.2
0.2
0.2
0.2
0.2
0.2
0.2
0.2
0.2
0.2
0.2
0.2
0.2
0.2
0.2
0.2
0.2
0.2
0.2
0.2
0.2
0.2
0.2
0.199998
0.199959
0.199417
0.196051
0.155932
0.654585
5.36929
8.83094
9.71252
9.87736
9.98329
10.0676
10.1304
10.1719
10.1957
10.2244
10.2675
10.316
10.3569
10.388
10.4053
10.4073
10.4373
10.5029
10.5762
10.6317
10.6623
10.6556
10.6599
10.7023
10.7639
10.8199
10.8595
10.8796
10.8979
10.9196
10.9373
10.9444
10.9578
10.9981
11.0566
11.1086
11.1384
11.1409
11.1432
11.1674
11.2008
11.2291
11.2427
11.2375
11.2296
11.2334
11.2609
11.2982
11.3267
0.2
0.2
0.2
0.2
0.2
0.2
0.2
0.2
0.2
0.2
0.2
0.2
0.2
0.2
0.2
0.2
0.2
0.2
0.2
0.2
0.2
0.2
0.2
0.2
0.2
0.2
0.2
0.2
0.2
0.2
0.2
0.2
0.2
0.2
0.2
0.2
0.2
0.2
0.2
0.2
0.2
0.2
0.2
0.2
0.2
0.2
0.2
0.2
0.2
0.2
0.2
0.2
0.2
0.2
0.2
0.2
0.2
0.2
0.2
0.2
0.2
0.2
0.2
0.2
0.199998
0.199961
0.199466
0.196368
0.156371
0.650103
5.35993
8.8243
9.71426
9.87947
9.98264
10.0658
10.1278
10.1688
10.1931
10.2218
10.2645
10.3128
10.354
10.3856
10.4038
10.4073
10.4368
10.5008
10.573
10.6277
10.6592
10.656
10.6613
10.703
10.763
10.818
10.857
10.8775
10.8959
10.9179
10.9353
10.9419
10.9552
10.9959
11.0544
11.1061
11.1357
11.139
11.1416
11.1653
11.1963
11.2221
11.2346
11.2297
11.2225
11.2262
11.2523
11.286
11.3136
0.2
0.2
0.2
0.2
0.2
0.2
0.2
0.2
0.2
0.2
0.2
0.2
0.2
0.2
0.2
0.2
0.2
0.2
0.2
0.2
0.2
0.2
0.2
0.2
0.2
0.2
0.2
0.2
0.2
0.2
0.2
0.2
0.2
0.2
0.2
0.2
0.2
0.2
0.2
0.2
0.2
0.2
0.2
0.2
0.2
0.2
0.2
0.2
0.2
0.2
0.2
0.2
0.2
0.2
0.2
0.2
0.2
0.2
0.2
0.2
0.2
0.2
0.2
0.2
0.199998
0.199962
0.199527
0.196815
0.156772
0.642605
5.34833
8.81817
9.71835
9.88475
9.98427
10.0648
10.125
10.1654
10.1903
10.2194
10.2618
10.3097
10.351
10.3827
10.4016
10.4067
10.4363
10.4993
10.5703
10.6244
10.6563
10.6561
10.6628
10.7037
10.7617
10.8153
10.8538
10.8744
10.893
10.9149
10.9318
10.9381
10.9517
10.9927
11.0507
11.1016
11.1308
11.1351
11.1385
11.1615
11.1901
11.2133
11.2245
11.2222
11.2163
11.2205
11.2454
11.2779
11.3066
0.2
0.2
0.2
0.2
0.2
0.2
0.2
0.2
0.2
0.2
0.2
0.2
0.2
0.2
0.2
0.2
0.2
0.2
0.2
0.2
0.2
0.2
0.2
0.2
0.2
0.2
0.2
0.2
0.2
0.2
0.2
0.2
0.2
0.2
0.2
0.2
0.2
0.2
0.2
0.2
0.2
0.2
0.2
0.2
0.2
0.2
0.2
0.2
0.2
0.2
0.2
0.2
0.2
0.2
0.2
0.2
0.2
0.2
0.2
0.2
0.2
0.2
0.2
0.2
0.199998
0.199961
0.199578
0.197245
0.156772
0.624414
5.32893
8.81205
9.72673
9.8926
9.98626
10.0635
10.1221
10.1626
10.1887
10.2181
10.2605
10.3078
10.3483
10.3797
10.3987
10.4047
10.4338
10.4958
10.5661
10.62
10.6527
10.6559
10.6633
10.7028
10.759
10.8111
10.8492
10.8699
10.889
10.9108
10.9274
10.9339
10.948
10.9887
11.0458
11.0957
11.1249
11.1307
11.1346
11.1566
11.1822
11.2021
11.2118
11.2119
11.2069
11.2103
11.2325
11.2621
11.2896
0.2
0.2
0.2
0.2
0.2
0.2
0.2
0.2
0.2
0.2
0.2
0.2
0.2
0.2
0.2
0.2
0.2
0.2
0.2
0.2
0.2
0.2
0.2
0.2
0.2
0.2
0.2
0.2
0.2
0.2
0.2
0.2
0.2
0.2
0.2
0.2
0.2
0.2
0.2
0.2
0.2
0.2
0.2
0.2
0.2
0.2
0.2
0.2
0.2
0.2
0.2
0.2
0.2
0.2
0.2
0.2
0.2
0.2
0.2
0.2
0.2
0.2
0.2
0.2
0.199998
0.199961
0.199569
0.197194
0.156712
0.599347
5.29684
8.79698
9.72888
9.89534
9.98502
10.0594
10.1166
10.1576
10.1848
10.2147
10.257
10.3036
10.3434
10.3744
10.3935
10.4014
10.4309
10.4919
10.5614
10.6153
10.6486
10.6542
10.6629
10.7012
10.7553
10.8058
10.8432
10.8642
10.8837
10.9054
10.9219
10.9291
10.9438
10.9835
11.0394
11.0889
11.1187
11.1259
11.1303
11.1503
11.1724
11.1888
11.1969
11.1987
11.1944
11.1974
11.2174
11.2454
11.272
0.2
0.2
0.2
0.2
0.2
0.2
0.2
0.2
0.2
0.2
0.2
0.2
0.2
0.2
0.2
0.2
0.2
0.2
0.2
0.2
0.2
0.2
0.2
0.2
0.2
0.2
0.2
0.2
0.2
0.2
0.2
0.2
0.2
0.2
0.2
0.2
0.2
0.2
0.2
0.2
0.2
0.2
0.2
0.2
0.2
0.2
0.2
0.2
0.2
0.2
0.2
0.2
0.2
0.2
0.2
0.2
0.2
0.2
0.2
0.2
0.2
0.2
0.2
0.2
0.199998
0.19996
0.199559
0.197131
0.156715
0.567699
5.25212
8.77455
9.72571
9.89418
9.98198
10.0546
10.1101
10.1506
10.1785
10.2089
10.2509
10.2965
10.3358
10.3668
10.3858
10.3953
10.4255
10.4863
10.555
10.6085
10.6422
10.6498
10.6605
10.6978
10.7494
10.7983
10.8349
10.8561
10.8761
10.8978
10.9144
10.9221
10.9376
10.9768
11.0315
11.0805
11.1111
11.1195
11.1242
11.1421
11.1605
11.1737
11.1802
11.1827
11.1792
11.1815
11.1999
11.2248
11.247
0.2
0.2
0.2
0.2
0.2
0.2
0.2
0.2
0.2
0.2
0.2
0.2
0.2
0.2
0.2
0.2
0.2
0.2
0.2
0.2
0.2
0.2
0.2
0.2
0.2
0.2
0.2
0.2
0.2
0.2
0.2
0.2
0.2
0.2
0.2
0.2
0.2
0.2
0.2
0.2
0.2
0.2
0.2
0.2
0.2
0.2
0.2
0.2
0.2
0.2
0.2
0.2
0.2
0.2
0.2
0.2
0.2
0.2
0.2
0.2
0.2
0.2
0.2
0.2
0.199998
0.19996
0.199558
0.197096
0.156923
0.531175
5.19515
8.74587
9.71496
9.88825
9.97729
10.049
10.1034
10.1426
10.1703
10.2009
10.2432
10.2889
10.328
10.359
10.3782
10.3881
10.4187
10.48
10.5492
10.6029
10.637
10.6459
10.6576
10.6936
10.7431
10.7904
10.8263
10.8475
10.8679
10.8895
10.9058
10.9137
10.9296
10.9683
11.0224
11.0716
11.1027
11.1119
11.1158
11.1311
11.1464
11.1567
11.1617
11.1639
11.1606
11.1624
11.1796
11.2018
11.2188
0.2
0.2
0.2
0.2
0.2
0.2
0.2
0.2
0.2
0.2
0.2
0.2
0.2
0.2
0.2
0.2
0.2
0.2
0.2
0.2
0.2
0.2
0.2
0.2
0.2
0.2
0.2
0.2
0.2
0.2
0.2
0.2
0.2
0.2
0.2
0.2
0.2
0.2
0.2
0.2
0.2
0.2
0.2
0.2
0.2
0.2
0.2
0.2
0.2
0.2
0.2
0.2
0.2
0.2
0.2
0.2
0.2
0.2
0.2
0.2
0.2
0.2
0.2
0.2
0.199998
0.199962
0.199567
0.197082
0.157326
0.483442
5.11738
8.70509
9.69724
9.88022
9.974
10.045
10.0977
10.1347
10.1622
10.1936
10.2366
10.2821
10.3205
10.3506
10.3683
10.3786
10.4107
10.4739
10.5436
10.5974
10.6312
10.6399
10.6518
10.6868
10.7345
10.7804
10.8159
10.8372
10.8581
10.8798
10.8954
10.9032
10.9197
10.9589
11.0128
11.0619
11.0929
11.1021
11.1055
11.1181
11.1306
11.138
11.1414
11.1424
11.1386
11.1404
11.1565
11.1765
11.1868
0.2
0.2
0.2
0.2
0.2
0.2
0.2
0.2
0.2
0.2
0.2
0.2
0.2
0.2
0.2
0.2
0.2
0.2
0.2
0.2
0.2
0.2
0.2
0.2
0.2
0.2
0.2
0.2
0.2
0.2
0.2
0.2
0.2
0.2
0.2
0.2
0.2
0.2
0.2
0.2
0.2
0.2
0.2
0.2
0.2
0.2
0.2
0.2
0.2
0.2
0.2
0.2
0.2
0.2
0.2
0.2
0.2
0.2
0.2
0.2
0.2
0.2
0.2
0.2
0.199999
0.200008
0.199913
0.197128
0.157739
0.426009
5.0158
8.64887
9.66823
9.86833
9.97042
10.0398
10.0895
10.1234
10.1512
10.1842
10.2285
10.2736
10.3113
10.3401
10.3547
10.3673
10.4025
10.4687
10.5388
10.5922
10.624
10.6302
10.6423
10.6775
10.7242
10.7689
10.8037
10.8254
10.847
10.8685
10.8832
10.8903
10.9076
10.9481
11.0021
11.0508
11.0811
11.0894
11.0917
11.1025
11.1125
11.117
11.1188
11.118
11.1136
11.1156
11.1307
11.1469
11.1509
0.2
0.2
0.2
0.2
0.2
0.2
0.2
0.2
0.2
0.2
0.2
0.2
0.2
0.2
0.2
0.2
0.2
0.2
0.2
0.2
0.2
0.2
0.2
0.2
0.2
0.2
0.2
0.2
0.2
0.2
0.2
0.2
0.2
0.2
0.2
0.2
0.2
0.2
0.2
0.2
0.2
0.2
0.2
0.2
0.2
0.2
0.2
0.2
0.2
0.2
0.2
0.2
0.2
0.2
0.2
0.2
0.2
0.2
0.2
0.2
0.2
0.2
0.2
0.2
0.199999
0.200012
0.199963
0.197177
0.158813
0.36445
4.88727
8.56839
9.626
9.85677
9.9692
10.0349
10.0792
10.109
10.1377
10.1738
10.2201
10.2647
10.3006
10.3276
10.3366
10.3529
10.3947
10.4653
10.5353
10.5865
10.6137
10.6155
10.6303
10.6667
10.7132
10.7566
10.7902
10.8118
10.8342
10.8556
10.8691
10.8754
10.8936
10.9362
10.9906
11.0384
11.0669
11.0736
11.075
11.0845
11.0925
11.0938
11.0938
11.0903
11.0859
11.0877
11.1017
11.1128
11.1105
0.2
0.2
0.2
0.2
0.2
0.2
0.2
0.2
0.2
0.2
0.2
0.2
0.2
0.2
0.2
0.2
0.2
0.2
0.2
0.2
0.2
0.2
0.2
0.2
0.2
0.2
0.2
0.2
0.2
0.2
0.2
0.2
0.2
0.2
0.2
0.2
0.2
0.2
0.2
0.2
0.2
0.2
0.2
0.2
0.2
0.2
0.2
0.2
0.2
0.2
0.2
0.2
0.2
0.2
0.2
0.2
0.2
0.2
0.2
0.2
0.2
0.2
0.2
0.2
0.199999
0.199991
0.199794
0.197424
0.160725
0.305389
4.73017
8.45438
9.57851
9.85162
9.97068
10.0291
10.0643
10.0927
10.1236
10.1645
10.2125
10.2551
10.2879
10.3108
10.3147
10.3372
10.3899
10.4657
10.5329
10.5791
10.5984
10.5962
10.6163
10.6559
10.7023
10.7435
10.775
10.796
10.8194
10.8408
10.8527
10.8582
10.8778
10.9233
10.9783
11.0246
11.0501
11.0547
11.0555
11.0645
11.0708
11.0687
11.0663
11.0585
11.0544
11.0573
11.0692
11.0745
11.0672
0.2
0.2
0.2
0.2
0.2
0.2
0.2
0.2
0.2
0.2
0.2
0.2
0.2
0.2
0.2
0.2
0.2
0.2
0.2
0.2
0.2
0.2
0.2
0.2
0.2
0.2
0.2
0.2
0.2
0.2
0.2
0.2
0.2
0.2
0.2
0.2
0.2
0.2
0.2
0.2
0.2
0.2
0.2
0.2
0.2
0.2
0.2
0.2
0.2
0.2
0.2
0.2
0.2
0.2
0.2
0.2
0.2
0.2
0.2
0.2
0.2
0.2
0.2
0.2
0.2
0.199995
0.199853
0.198184
0.163713
0.265116
4.53909
8.28724
9.5362
9.85482
9.97085
10.0167
10.0453
10.0749
10.1093
10.1556
10.2035
10.2428
10.2725
10.2862
10.2926
10.3232
10.3897
10.4675
10.5285
10.5673
10.5757
10.5746
10.601
10.6437
10.6898
10.7284
10.7565
10.7784
10.8031
10.8243
10.8338
10.8384
10.8611
10.9102
10.9657
11.0091
11.0302
11.032
11.0332
11.0419
11.0469
11.0408
11.0355
11.0236
11.0189
11.0245
11.0338
11.0324
11.0194
0.2
0.2
0.2
0.2
0.2
0.2
0.2
0.2
0.2
0.2
0.2
0.2
0.2
0.2
0.2
0.2
0.2
0.2
0.2
0.2
0.2
0.2
0.2
0.2
0.2
0.2
0.2
0.2
0.2
0.2
0.2
0.2
0.2
0.2
0.2
0.2
0.2
0.2
0.2
0.2
0.2
0.2
0.2
0.2
0.2
0.2
0.2
0.2
0.2
0.2
0.2
0.2
0.2
0.2
0.2
0.2
0.2
0.2
0.2
0.2
0.2
0.2
0.2
0.2
0.2
0.200003
0.199984
0.199323
0.173117
0.295212
4.26221
8.07382
9.51269
9.85779
9.96303
9.99609
10.0249
10.0564
10.0977
10.1476
10.1925
10.2272
10.2518
10.2556
10.2719
10.3171
10.3936
10.4679
10.5202
10.5487
10.5441
10.5526
10.5857
10.631
10.6753
10.7107
10.735
10.7593
10.7856
10.8056
10.8116
10.8168
10.8446
10.8971
10.952
10.991
11.0061
11.0053
11.0081
11.0171
11.0213
11.0105
11.0014
10.9862
10.9808
10.9886
10.9942
10.9867
10.9665
0.2
0.2
0.2
0.2
0.2
0.2
0.2
0.2
0.2
0.2
0.2
0.2
0.2
0.2
0.2
0.2
0.2
0.2
0.2
0.2
0.2
0.2
0.2
0.2
0.2
0.2
0.2
0.2
0.2
0.2
0.2
0.2
0.2
0.2
0.2
0.2
0.2
0.2
0.2
0.2
0.2
0.2
0.2
0.2
0.2
0.2
0.2
0.2
0.2
0.2
0.2
0.2
0.2
0.2
0.2
0.2
0.2
0.2
0.2
0.2
0.2
0.2
0.2
0.2
0.2
0.200001
0.200024
0.200301
0.195464
0.363545
3.87029
7.89556
9.49347
9.84799
9.94286
9.97324
10.004
10.0412
10.0894
10.1375
10.1767
10.2069
10.221
10.2271
10.2551
10.3207
10.4003
10.4636
10.5066
10.5161
10.509
10.5308
10.5712
10.6178
10.6584
10.6891
10.7116
10.7389
10.7667
10.7842
10.7859
10.7943
10.8289
10.8844
10.9364
10.9692
10.9766
10.9751
10.981
10.9909
10.9936
10.9774
10.9628
10.9459
10.9417
10.9492
10.9511
10.9376
10.9076
0.2
0.2
0.2
0.2
0.2
0.2
0.2
0.2
0.2
0.2
0.2
0.2
0.2
0.2
0.2
0.2
0.2
0.2
0.2
0.2
0.2
0.2
0.2
0.2
0.2
0.2
0.2
0.2
0.2
0.2
0.2
0.2
0.2
0.2
0.2
0.2
0.2
0.2
0.2
0.2
0.2
0.2
0.2
0.2
0.2
0.2
0.2
0.2
0.2
0.2
0.2
0.2
0.2
0.2
0.2
0.2
0.2
0.2
0.2
0.2
0.2
0.2
0.2
0.2
0.2
0.200001
0.20002
0.200367
0.206713
0.355085
3.47175
7.70859
9.45227
9.82387
9.91467
9.95103
9.98659
10.031
10.0795
10.1213
10.155
10.1782
10.185
10.2036
10.2536
10.3317
10.4029
10.4539
10.4787
10.4692
10.4784
10.5113
10.5579
10.6026
10.6382
10.6626
10.6869
10.7172
10.7455
10.7588
10.7576
10.7715
10.8149
10.8712
10.9179
10.9414
10.9422
10.9425
10.9528
10.9634
10.9628
10.9415
10.9189
10.9021
10.9018
10.9075
10.9046
10.885
10.8422
0.2
0.2
0.2
0.2
0.2
0.2
0.2
0.2
0.2
0.2
0.2
0.2
0.2
0.2
0.2
0.2
0.2
0.2
0.2
0.2
0.2
0.2
0.2
0.2
0.2
0.2
0.2
0.2
0.2
0.2
0.2
0.2
0.2
0.2
0.2
0.2
0.2
0.2
0.2
0.2
0.2
0.2
0.2
0.2
0.2
0.2
0.2
0.2
0.2
0.2
0.2
0.2
0.2
0.2
0.2
0.2
0.2
0.2
0.2
0.2
0.2
0.2
0.2
0.2
0.2
0.200001
0.200012
0.200252
0.204737
0.316791
3.0384
7.46571
9.38692
9.79333
9.88861
9.93271
9.97356
10.0189
10.0615
10.098
10.1262
10.141
10.1553
10.1953
10.2685
10.3418
10.3956
10.4291
10.4259
10.4254
10.4515
10.4963
10.5452
10.5846
10.6117
10.6327
10.6618
10.6939
10.7213
10.7283
10.7284
10.7511
10.802
10.8558
10.8942
10.9067
10.9042
10.9093
10.9236
10.9338
10.9276
10.9017
10.8711
10.8564
10.8605
10.8636
10.8543
10.8277
10.7714
0.2
0.2
0.2
0.2
0.2
0.2
0.2
0.2
0.2
0.2
0.2
0.2
0.2
0.2
0.2
0.2
0.2
0.2
0.2
0.2
0.2
0.2
0.2
0.2
0.2
0.2
0.2
0.2
0.2
0.2
0.2
0.2
0.2
0.2
0.2
0.2
0.2
0.2
0.2
0.2
0.2
0.2
0.2
0.2
0.2
0.2
0.2
0.2
0.2
0.2
0.2
0.2
0.2
0.2
0.2
0.2
0.2
0.2
0.2
0.2
0.2
0.2
0.2
0.2
0.2
0.2
0.200006
0.200123
0.202254
0.266146
2.55581
7.1529
9.29835
9.76233
9.87082
9.91719
9.95676
10.0002
10.0372
10.0683
10.0901
10.1074
10.1436
10.212
10.2826
10.3341
10.3695
10.3738
10.3689
10.3904
10.432
10.4853
10.5296
10.5605
10.578
10.6022
10.636
10.6693
10.6924
10.6935
10.6996
10.735
10.7898
10.8368
10.8624
10.8643
10.8657
10.8763
10.8927
10.9014
10.8867
10.8563
10.822
10.8102
10.8173
10.8169
10.7999
10.7655
10.6953
0.2
0.2
0.2
0.2
0.2
0.2
0.2
0.2
0.2
0.2
0.2
0.2
0.2
0.2
0.2
0.2
0.2
0.2
0.2
0.2
0.2
0.2
0.2
0.2
0.2
0.2
0.2
0.2
0.2
0.2
0.2
0.2
0.2
0.2
0.2
0.2
0.2
0.2
0.2
0.2
0.2
0.2
0.2
0.2
0.2
0.2
0.2
0.2
0.2
0.2
0.2
0.2
0.2
0.2
0.2
0.2
0.2
0.2
0.2
0.2
0.2
0.2
0.2
0.2
0.2
0.200001
0.200008
0.200055
0.200295
0.218511
2.01553
6.76472
9.19909
9.72674
9.84793
9.89437
9.9344
9.97433
10.0069
10.0332
10.0569
10.0955
10.1601
10.2225
10.2676
10.3018
10.3129
10.3073
10.3265
10.3648
10.4212
10.4725
10.5082
10.5257
10.5428
10.5728
10.6085
10.6425
10.6567
10.6566
10.6741
10.7227
10.7748
10.8119
10.8215
10.8172
10.8261
10.8438
10.8613
10.8638
10.8414
10.8053
10.773
10.7633
10.7719
10.7669
10.7419
10.6973
10.6142
0.2
0.2
0.2
0.2
0.2
0.2
0.2
0.2
0.2
0.2
0.2
0.2
0.2
0.2
0.2
0.2
0.2
0.2
0.2
0.2
0.2
0.2
0.2
0.2
0.2
0.2
0.2
0.2
0.2
0.2
0.2
0.2
0.2
0.2
0.2
0.2
0.2
0.2
0.2
0.2
0.2
0.2
0.2
0.2
0.2
0.2
0.2
0.2
0.2
0.2
0.2
0.2
0.2
0.2
0.2
0.2
0.2
0.2
0.2
0.2
0.2
0.2
0.2
0.2
0.2
0.2
0.200017
0.200511
0.203071
0.180363
1.42932
6.27849
9.06131
9.68011
9.81515
9.86735
9.91038
9.94657
9.97496
10.003
10.0455
10.1034
10.1555
10.197
10.2289
10.245
10.2427
10.2595
10.295
10.3524
10.411
10.453
10.4738
10.4852
10.5101
10.5442
10.5802
10.6088
10.6145
10.6219
10.6563
10.7114
10.7561
10.7762
10.7701
10.7711
10.7863
10.8103
10.8277
10.8216
10.7923
10.7509
10.7245
10.7167
10.7235
10.7133
10.6794
10.6232
10.5293
0.2
0.2
0.2
0.2
0.2
0.2
0.2
0.2
0.2
0.2
0.2
0.2
0.2
0.2
0.2
0.2
0.2
0.2
0.2
0.2
0.2
0.2
0.2
0.2
0.2
0.2
0.2
0.2
0.2
0.2
0.2
0.2
0.2
0.2
0.2
0.2
0.2
0.2
0.2
0.2
0.2
0.2
0.2
0.2
0.2
0.2
0.2
0.2
0.2
0.2
0.2
0.2
0.2
0.2
0.2
0.2
0.2
0.2
0.2
0.2
0.2
0.2
0.2
0.2
0.2
0.199999
0.199947
0.199499
0.194437
0.148717
0.880143
5.7072
8.88274
9.61345
9.776
9.84201
9.88835
9.9169
9.94258
9.98076
10.0304
10.0791
10.1214
10.1532
10.1728
10.1764
10.1913
10.2238
10.2803
10.3444
10.3919
10.4183
10.4296
10.4503
10.4797
10.5145
10.5484
10.565
10.5707
10.5932
10.6463
10.6976
10.7287
10.7266
10.7149
10.7255
10.7482
10.7739
10.789
10.7744
10.7384
10.696
10.676
10.6697
10.6717
10.6541
10.6111
10.5443
10.4422
0.2
0.2
0.2
0.2
0.2
0.2
0.2
0.2
0.2
0.2
0.2
0.2
0.2
0.2
0.2
0.2
0.2
0.2
0.2
0.2
0.2
0.2
0.2
0.2
0.2
0.2
0.2
0.2
0.2
0.2
0.2
0.2
0.2
0.2
0.2
0.2
0.2
0.2
0.2
0.2
0.2
0.2
0.2
0.2
0.2
0.2
0.2
0.2
0.2
0.2
0.2
0.2
0.2
0.2
0.2
0.2
0.2
0.2
0.2
0.2
0.2
0.2
0.2
0.2
0.2
0.200001
0.200049
0.200017
0.1972
0.154869
0.45838
5.11704
8.60346
9.52238
9.72993
9.80793
9.84216
9.86833
9.90396
9.94858
9.99617
10.0394
10.0738
10.0989
10.11
10.124
10.1538
10.2078
10.2735
10.3241
10.3561
10.3722
10.3911
10.4182
10.4493
10.4815
10.5048
10.5147
10.5324
10.5771
10.637
10.6789
10.6855
10.664
10.6632
10.6814
10.7106
10.7354
10.7415
10.7217
10.6815
10.644
10.6265
10.6211
10.6162
10.5886
10.5362
10.4613
10.3542
0.2
0.2
0.2
0.2
0.2
0.2
0.2
0.2
0.2
0.2
0.2
0.2
0.2
0.2
0.2
0.2
0.2
0.2
0.2
0.2
0.2
0.2
0.2
0.2
0.2
0.2
0.2
0.2
0.2
0.2
0.2
0.2
0.2
0.2
0.2
0.2
0.2
0.2
0.2
0.2
0.2
0.2
0.2
0.2
0.2
0.2
0.2
0.2
0.2
0.2
0.2
0.2
0.2
0.2
0.2
0.2
0.2
0.2
0.2
0.2
0.2
0.2
0.2
0.2
0.2
0.2
0.200002
0.199964
0.198801
0.171607
0.276258
4.44592
8.21533
9.39951
9.65932
9.74917
9.78987
9.82403
9.86382
9.91025
9.95476
9.9922
10.0228
10.0427
10.0594
10.088
10.1397
10.2022
10.2508
10.2859
10.3082
10.3295
10.357
10.3861
10.4147
10.438
10.4516
10.4683
10.506
10.5708
10.6224
10.6432
10.6212
10.6037
10.6144
10.6393
10.6709
10.6921
10.687
10.6633
10.6242
10.594
10.5763
10.5674
10.5573
10.5167
10.454
10.3763
10.2658
0.2
0.2
0.2
0.2
0.2
0.2
0.2
0.2
0.2
0.2
0.2
0.2
0.2
0.2
0.2
0.2
0.2
0.2
0.2
0.2
0.2
0.2
0.2
0.2
0.2
0.2
0.2
0.2
0.2
0.2
0.2
0.2
0.2
0.2
0.2
0.2
0.2
0.2
0.2
0.2
0.2
0.2
0.2
0.2
0.2
0.2
0.2
0.2
0.2
0.2
0.2
0.2
0.2
0.2
0.2
0.2
0.2
0.2
0.2
0.2
0.2
0.2
0.2
0.2
0.2
0.2
0.200001
0.200013
0.200231
0.203136
0.299269
3.57613
7.70612
9.2541
9.6018
9.70717
9.74583
9.78159
9.82389
9.86904
9.91054
9.9451
9.9728
9.99618
10.0278
10.0796
10.1334
10.1748
10.2091
10.2365
10.2619
10.2923
10.3231
10.3502
10.3712
10.3843
10.4003
10.4334
10.4973
10.5565
10.593
10.582
10.5502
10.5508
10.5693
10.5988
10.6262
10.6379
10.6275
10.6023
10.5676
10.5444
10.5265
10.5087
10.4916
10.4372
10.3677
10.2903
10.1764
0.2
0.2
0.2
0.2
0.2
0.2
0.2
0.2
0.2
0.2
0.2
0.2
0.2
0.2
0.2
0.2
0.2
0.2
0.2
0.2
0.2
0.2
0.2
0.2
0.2
0.2
0.2
0.2
0.2
0.2
0.2
0.2
0.2
0.2
0.2
0.2
0.2
0.2
0.2
0.2
0.2
0.2
0.2
0.2
0.2
0.2
0.2
0.2
0.2
0.2
0.2
0.2
0.2
0.2
0.2
0.2
0.2
0.2
0.2
0.2
0.2
0.2
0.2
0.2
0.2
0.2
0.2
0.200005
0.200081
0.201573
0.25418
2.63929
7.12725
9.11884
9.56633
9.67622
9.71783
9.75346
9.7932
9.83096
9.86988
9.90304
9.93369
9.97268
10.0219
10.0644
10.0991
10.1306
10.1596
10.1876
10.2205
10.2553
10.2848
10.307
10.3187
10.3309
10.3594
10.4178
10.4822
10.5282
10.5356
10.5041
10.4909
10.503
10.5276
10.5568
10.5728
10.574
10.5637
10.5408
10.5136
10.4945
10.4744
10.4477
10.4151
10.3496
10.2802
10.2034
10.0848
0.2
0.2
0.2
0.2
0.2
0.2
0.2
0.2
0.2
0.2
0.2
0.2
0.2
0.2
0.2
0.2
0.2
0.2
0.2
0.2
0.2
0.2
0.2
0.2
0.2
0.2
0.2
0.2
0.2
0.2
0.2
0.2
0.2
0.2
0.2
0.2
0.2
0.2
0.2
0.2
0.2
0.2
0.2
0.2
0.2
0.2
0.2
0.2
0.2
0.2
0.2
0.2
0.2
0.2
0.2
0.2
0.2
0.2
0.2
0.2
0.2
0.2
0.2
0.2
0.2
0.2
0.2
0.200001
0.199984
0.198798
0.195086
1.67918
6.4342
8.96242
9.53478
9.66485
9.70333
9.73744
9.77232
9.80917
9.84467
9.87805
9.91539
9.95469
9.99073
10.0241
10.0542
10.0807
10.1094
10.1424
10.1798
10.214
10.2414
10.2566
10.2653
10.2879
10.3367
10.3989
10.4489
10.4744
10.4549
10.4357
10.4411
10.4599
10.4869
10.5062
10.5096
10.5056
10.4979
10.4791
10.4615
10.4441
10.4184
10.3814
10.3295
10.2578
10.192
10.1142
9.98883
0.2
0.2
0.2
0.2
0.2
0.2
0.2
0.2
0.2
0.2
0.2
0.2
0.2
0.2
0.2
0.2
0.2
0.2
0.2
0.2
0.2
0.2
0.2
0.2
0.2
0.2
0.2
0.2
0.2
0.2
0.2
0.2
0.2
0.2
0.2
0.2
0.2
0.2
0.2
0.2
0.2
0.2
0.2
0.2
0.2
0.2
0.2
0.2
0.2
0.2
0.2
0.2
0.2
0.2
0.2
0.2
0.2
0.2
0.2
0.2
0.2
0.2
0.2
0.2
0.2
0.2
0.199998
0.199956
0.199357
0.195411
0.151858
0.7447
5.55523
8.71638
9.45921
9.62426
9.68246
9.72281
9.75646
9.77882
9.80431
9.83922
9.87671
9.91448
9.94845
9.97908
10.0043
10.0292
10.0608
10.0977
10.1359
10.1691
10.1925
10.2043
10.2224
10.2594
10.3103
10.3595
10.3953
10.3945
10.378
10.3797
10.3973
10.421
10.4394
10.4441
10.4395
10.4365
10.4303
10.417
10.4085
10.3923
10.3578
10.3063
10.2383
10.1667
10.1018
10.0214
9.88722
0.2
0.2
0.2
0.2
0.2
0.2
0.2
0.2
0.2
0.2
0.2
0.2
0.2
0.2
0.2
0.2
0.2
0.2
0.2
0.2
0.2
0.2
0.2
0.2
0.2
0.2
0.2
0.2
0.2
0.2
0.2
0.2
0.2
0.2
0.2
0.2
0.2
0.2
0.2
0.2
0.2
0.2
0.2
0.2
0.2
0.2
0.2
0.2
0.2
0.2
0.2
0.2
0.2
0.2
0.2
0.2
0.2
0.2
0.2
0.2
0.2
0.2
0.2
0.2
0.2
0.2
0.2
0.19999
0.199858
0.198569
0.168043
0.264737
4.54804
8.23036
9.31232
9.55124
9.6231
9.66249
9.69281
9.72527
9.75757
9.79284
9.82915
9.8665
9.90076
9.92928
9.95161
9.97976
10.0126
10.0501
10.0878
10.1201
10.1414
10.1592
10.1882
10.2253
10.2658
10.3015
10.3167
10.3119
10.3158
10.3341
10.3588
10.3766
10.3796
10.3741
10.3687
10.3659
10.3604
10.3556
10.3549
10.336
10.2907
10.2233
10.1467
10.0765
10.0092
9.92414
9.78024
0.2
0.2
0.2
0.2
0.2
0.2
0.2
0.2
0.2
0.2
0.2
0.2
0.2
0.2
0.2
0.2
0.2
0.2
0.2
0.2
0.2
0.2
0.2
0.2
0.2
0.2
0.2
0.2
0.2
0.2
0.2
0.2
0.2
0.2
0.2
0.2
0.2
0.2
0.2
0.2
0.2
0.2
0.2
0.2
0.2
0.2
0.2
0.2
0.2
0.2
0.2
0.2
0.2
0.2
0.2
0.2
0.2
0.2
0.2
0.2
0.2
0.2
0.2
0.2
0.2
0.2
0.2
0.2
0.200002
0.200017
0.201665
0.268128
3.43672
7.58431
9.0892
9.43565
9.53679
9.59118
9.63151
9.66934
9.70417
9.74052
9.77735
9.81464
9.84634
9.87268
9.89946
9.93
9.96318
9.99991
10.0365
10.0678
10.0919
10.1169
10.1468
10.1771
10.2056
10.2244
10.232
10.2437
10.265
10.2962
10.3175
10.318
10.3102
10.3025
10.2993
10.2927
10.2897
10.2965
10.2986
10.2712
10.2136
10.1341
10.0581
9.98769
9.91548
9.82355
9.6685
0.2
0.2
0.2
0.2
0.2
0.2
0.2
0.2
0.2
0.2
0.2
0.2
0.2
0.2
0.2
0.2
0.2
0.2
0.2
0.2
0.2
0.2
0.2
0.2
0.2
0.2
0.2
0.2
0.2
0.2
0.2
0.2
0.2
0.2
0.2
0.2
0.2
0.2
0.2
0.2
0.2
0.2
0.2
0.2
0.2
0.2
0.2
0.2
0.2
0.2
0.2
0.2
0.2
0.2
0.2
0.2
0.2
0.2
0.2
0.2
0.2
0.2
0.2
0.2
0.2
0.2
0.2
0.2
0.200002
0.200052
0.20066
0.229792
2.31553
6.82464
8.87373
9.35622
9.48257
9.53494
9.57387
9.60837
9.64454
9.68078
9.71603
9.75173
9.7855
9.81713
9.84666
9.87831
9.9107
9.94514
9.98021
10.0112
10.0396
10.0686
10.0955
10.117
10.1306
10.1419
10.1602
10.1871
10.2245
10.255
10.2627
10.2487
10.2386
10.2342
10.2275
10.2192
10.2211
10.2356
10.2349
10.1968
10.1259
10.0447
9.97177
9.89946
9.82054
9.72046
9.55486
0.2
0.2
0.2
0.2
0.2
0.2
0.2
0.2
0.2
0.2
0.2
0.2
0.2
0.2
0.2
0.2
0.2
0.2
0.2
0.2
0.2
0.2
0.2
0.2
0.2
0.2
0.2
0.2
0.2
0.2
0.2
0.2
0.2
0.2
0.2
0.2
0.2
0.2
0.2
0.2
0.2
0.2
0.2
0.2
0.2
0.2
0.2
0.2
0.2
0.2
0.2
0.2
0.2
0.2
0.2
0.2
0.2
0.2
0.2
0.2
0.2
0.2
0.2
0.2
0.2
0.2
0.2
0.2
0.200014
0.200163
0.199367
0.184284
1.21934
5.92704
8.6304
9.27265
9.4329
9.48821
9.52272
9.55239
9.58474
9.62049
9.65717
9.69108
9.72765
9.75948
9.79101
9.82374
9.8548
9.88558
9.91862
9.95083
9.98274
10.0122
10.0346
10.0464
10.053
10.0706
10.0999
10.1421
10.1803
10.2007
10.1935
10.1781
10.168
10.1639
10.154
10.1481
10.1545
10.1686
10.1602
10.1105
10.0335
9.9586
9.88685
9.81117
9.72355
9.61499
9.44192
0.2
0.2
0.2
0.2
0.2
0.2
0.2
0.2
0.2
0.2
0.2
0.2
0.2
0.2
0.2
0.2
0.2
0.2
0.2
0.2
0.2
0.2
0.2
0.2
0.2
0.2
0.2
0.2
0.2
0.2
0.2
0.2
0.2
0.2
0.2
0.2
0.2
0.2
0.2
0.2
0.2
0.2
0.2
0.2
0.2
0.2
0.2
0.2
0.2
0.2
0.2
0.2
0.2
0.2
0.2
0.2
0.2
0.2
0.2
0.2
0.2
0.2
0.2
0.2
0.2
0.2
0.2
0.2
0.200003
0.200081
0.198942
0.170049
0.368855
4.75285
8.23084
9.17489
9.39012
9.45247
9.48277
9.51465
9.54507
9.56964
9.59897
9.63141
9.66765
9.70071
9.73605
9.76872
9.79621
9.82262
9.85353
9.8873
9.92013
9.94826
9.96729
9.97527
9.98585
10.0104
10.0496
10.0929
10.1245
10.1304
10.1199
10.1107
10.0988
10.0889
10.0813
10.0816
10.0886
10.0902
10.0722
10.0128
9.94338
9.87487
9.80221
9.721
9.62252
9.50765
9.33163
0.2
0.2
0.2
0.2
0.2
0.2
0.2
0.2
0.2
0.2
0.2
0.2
0.2
0.2
0.2
0.2
0.2
0.2
0.2
0.2
0.2
0.2
0.2
0.2
0.2
0.2
0.2
0.2
0.2
0.2
0.2
0.2
0.2
0.2
0.2
0.2
0.2
0.2
0.2
0.2
0.2
0.2
0.2
0.2
0.2
0.2
0.2
0.2
0.2
0.2
0.2
0.2
0.2
0.2
0.2
0.2
0.2
0.2
0.2
0.2
0.2
0.2
0.2
0.2
0.2
0.2
0.2
0.2
0.2
0.199996
0.199888
0.198348
0.225645
3.43892
7.56404
8.98628
9.30777
9.39399
9.43207
9.46016
9.48528
9.51286
9.54257
9.57626
9.60895
9.64453
9.67965
9.70992
9.73462
9.75881
9.788
9.82201
9.85513
9.88338
9.89999
9.91039
9.93038
9.95777
9.99535
10.0313
10.052
10.054
10.0512
10.0421
10.0253
10.0135
10.0118
10.0155
10.0168
10.0023
9.96757
9.91168
9.8551
9.79307
9.71677
9.6263
9.51681
9.40023
9.22439
0.2
0.2
0.2
0.2
0.2
0.2
0.2
0.2
0.2
0.2
0.2
0.2
0.2
0.2
0.2
0.2
0.2
0.2
0.2
0.2
0.2
0.2
0.2
0.2
0.2
0.2
0.2
0.2
0.2
0.2
0.2
0.2
0.2
0.2
0.2
0.2
0.2
0.2
0.2
0.2
0.2
0.2
0.2
0.2
0.2
0.2
0.2
0.2
0.2
0.2
0.2
0.2
0.2
0.2
0.2
0.2
0.2
0.2
0.2
0.2
0.2
0.2
0.2
0.2
0.2
0.2
0.2
0.2
0.2
0.200001
0.200032
0.200178
0.217365
2.18111
6.659
8.70014
9.1836
9.31351
9.37046
9.40541
9.43586
9.46418
9.49242
9.52162
9.55287
9.58903
9.62206
9.6498
9.67204
9.6957
9.72364
9.75682
9.79056
9.81825
9.83614
9.85568
9.87755
9.90124
9.93019
9.95807
9.97168
9.9802
9.98328
9.96971
9.94866
9.94078
9.94444
9.94785
9.93315
9.89917
9.85529
9.81519
9.76728
9.70835
9.62645
9.52357
9.40948
9.29508
9.11839
0.2
0.2
0.2
0.2
0.2
0.2
0.2
0.2
0.2
0.2
0.2
0.2
0.2
0.2
0.2
0.2
0.2
0.2
0.2
0.2
0.2
0.2
0.2
0.2
0.2
0.2
0.2
0.2
0.2
0.2
0.2
0.2
0.2
0.2
0.2
0.2
0.2
0.2
0.2
0.2
0.2
0.2
0.2
0.2
0.2
0.2
0.2
0.2
0.2
0.2
0.2
0.2
0.2
0.2
0.2
0.2
0.2
0.2
0.2
0.2
0.2
0.2
0.2
0.2
0.2
0.2
0.2
0.2
0.199998
0.200008
0.199977
0.198827
0.184133
1.02122
5.5769
8.36966
9.06479
9.24355
9.31034
9.34736
9.38293
9.41447
9.4436
9.47166
9.49885
9.52779
9.55868
9.58603
9.60945
9.63391
9.66046
9.6918
9.72559
9.75416
9.77824
9.80023
9.81938
9.83715
9.85544
9.87741
9.89278
9.90746
9.91157
9.89435
9.87537
9.87043
9.87316
9.87432
9.83839
9.78676
9.74791
9.72059
9.6781
9.61646
9.52472
9.41357
9.30362
9.1916
9.01101
0.2
0.2
0.2
0.2
0.2
0.2
0.2
0.2
0.2
0.2
0.2
0.2
0.2
0.2
0.2
0.2
0.2
0.2
0.2
0.2
0.2
0.2
0.2
0.2
0.2
0.2
0.2
0.2
0.2
0.2
0.2
0.2
0.2
0.2
0.2
0.2
0.2
0.2
0.2
0.2
0.2
0.2
0.2
0.2
0.2
0.2
0.2
0.2
0.2
0.2
0.2
0.2
0.2
0.2
0.2
0.2
0.2
0.2
0.2
0.2
0.2
0.2
0.2
0.2
0.2
0.2
0.2
0.2
0.2
0.200003
0.200002
0.199758
0.188914
0.264799
4.22782
7.84272
8.92989
9.18017
9.25118
9.28651
9.31475
9.3467
9.38026
9.40628
9.42922
9.45709
9.49149
9.52056
9.54899
9.57485
9.59822
9.62625
9.65924
9.69007
9.71716
9.73969
9.75612
9.76582
9.77568
9.79452
9.81535
9.83479
9.83672
9.81931
9.80659
9.79794
9.79733
9.78463
9.73253
9.68155
9.64855
9.62305
9.58358
9.51587
9.41234
9.30193
9.19789
9.08731
8.90071
0.2
0.2
0.2
0.2
0.2
0.2
0.2
0.2
0.2
0.2
0.2
0.2
0.2
0.2
0.2
0.2
0.2
0.2
0.2
0.2
0.2
0.2
0.2
0.2
0.2
0.2
0.2
0.2
0.2
0.2
0.2
0.2
0.2
0.2
0.2
0.2
0.2
0.2
0.2
0.2
0.2
0.2
0.2
0.2
0.2
0.2
0.2
0.2
0.2
0.2
0.2
0.2
0.2
0.2
0.2
0.2
0.2
0.2
0.2
0.2
0.2
0.2
0.2
0.2
0.2
0.2
0.2
0.2
0.2
0.2
0.200003
0.200022
0.199959
0.217546
2.86146
7.10413
8.69617
9.06823
9.16643
9.21456
9.24804
9.27766
9.30638
9.33368
9.36174
9.39252
9.42524
9.45515
9.48835
9.51487
9.53576
9.55966
9.5906
9.62303
9.65138
9.67331
9.68571
9.68818
9.69574
9.71322
9.73713
9.75849
9.75945
9.74973
9.73883
9.71997
9.7093
9.67687
9.62671
9.588
9.55665
9.52098
9.47841
9.40108
9.29618
9.19242
9.09092
8.98079
8.78488
0.2
0.2
0.2
0.2
0.2
0.2
0.2
0.2
0.2
0.2
0.2
0.2
0.2
0.2
0.2
0.2
0.2
0.2
0.2
0.2
0.2
0.2
0.2
0.2
0.2
0.2
0.2
0.2
0.2
0.2
0.2
0.2
0.2
0.2
0.2
0.2
0.2
0.2
0.2
0.2
0.2
0.2
0.2
0.2
0.2
0.2
0.2
0.2
0.2
0.2
0.2
0.2
0.2
0.2
0.2
0.2
0.2
0.2
0.2
0.2
0.2
0.2
0.2
0.2
0.2
0.2
0.2
0.2
0.2
0.2
0.200001
0.200044
0.200281
0.198543
1.60268
6.05985
8.36285
8.93059
9.0852
9.14474
9.18085
9.21106
9.23958
9.26707
9.2963
9.32854
9.36012
9.39398
9.42409
9.44851
9.46909
9.48971
9.51667
9.54963
9.5784
9.6001
9.60975
9.61044
9.61818
9.63433
9.65765
9.67621
9.68423
9.67919
9.6632
9.63019
9.60242
9.56665
9.53295
9.50158
9.46748
9.41753
9.3585
9.27437
9.18122
9.08457
8.98295
8.87051
8.6624
0.2
0.2
0.2
0.2
0.2
0.2
0.2
0.2
0.2
0.2
0.2
0.2
0.2
0.2
0.2
0.2
0.2
0.2
0.2
0.2
0.2
0.2
0.2
0.2
0.2
0.2
0.2
0.2
0.2
0.2
0.2
0.2
0.2
0.2
0.2
0.2
0.2
0.2
0.2
0.2
0.2
0.2
0.2
0.2
0.2
0.2
0.2
0.2
0.2
0.2
0.2
0.2
0.2
0.2
0.2
0.2
0.2
0.2
0.2
0.2
0.2
0.2
0.2
0.2
0.2
0.2
0.2
0.2
0.2
0.200001
0.200003
0.199947
0.199366
0.184962
0.542127
4.76377
7.96571
8.81149
9.01912
9.09102
9.12793
9.1557
9.18099
9.2058
9.23243
9.25854
9.28669
9.32073
9.34958
9.37473
9.39612
9.41558
9.43878
9.47088
9.50058
9.52278
9.53233
9.53635
9.54335
9.55534
9.5755
9.59174
9.60545
9.5998
9.57433
9.52834
9.49252
9.46621
9.44567
9.41733
9.37718
9.31174
9.23311
9.14775
9.06426
8.97441
8.87212
8.75482
8.53315
0.2
0.2
0.2
0.2
0.2
0.2
0.2
0.2
0.2
0.2
0.2
0.2
0.2
0.2
0.2
0.2
0.2
0.2
0.2
0.2
0.2
0.2
0.2
0.2
0.2
0.2
0.2
0.2
0.2
0.2
0.2
0.2
0.2
0.2
0.2
0.2
0.2
0.2
0.2
0.2
0.2
0.2
0.2
0.2
0.2
0.2
0.2
0.2
0.2
0.2
0.2
0.2
0.2
0.2
0.2
0.2
0.2
0.2
0.2
0.2
0.2
0.2
0.2
0.2
0.2
0.2
0.2
0.2
0.2
0.2
0.2
0.199991
0.199905
0.19677
0.19263
3.33401
7.33327
8.62447
8.92397
9.01651
9.05826
9.08733
9.11056
9.13808
9.16421
9.18802
9.21104
9.23967
9.27162
9.2989
9.32303
9.34286
9.36213
9.39051
9.42062
9.44238
9.45615
9.46438
9.46946
9.47479
9.48811
9.50329
9.51631
9.50927
9.47746
9.42882
9.39133
9.37204
9.35967
9.32942
9.28095
9.20073
9.11239
9.02858
8.94597
8.8576
8.75167
8.63001
8.39858
0.2
0.2
0.2
0.2
0.2
0.2
0.2
0.2
0.2
0.2
0.2
0.2
0.2
0.2
0.2
0.2
0.2
0.2
0.2
0.2
0.2
0.2
0.2
0.2
0.2
0.2
0.2
0.2
0.2
0.2
0.2
0.2
0.2
0.2
0.2
0.2
0.2
0.2
0.2
0.2
0.2
0.2
0.2
0.2
0.2
0.2
0.2
0.2
0.2
0.2
0.2
0.2
0.2
0.2
0.2
0.2
0.2
0.2
0.2
0.2
0.2
0.2
0.2
0.2
0.2
0.2
0.2
0.2
0.2
0.2
0.2
0.200001
0.200022
0.200926
0.201767
2.03605
6.36529
8.30746
8.79489
8.93452
8.99023
9.02207
9.04271
9.06816
9.09311
9.11702
9.14114
9.16932
9.20018
9.22614
9.25181
9.27119
9.28643
9.309
9.33789
9.3623
9.37953
9.38898
9.39189
9.39079
9.39576
9.40645
9.41702
9.41042
9.38085
9.33857
9.30122
9.28005
9.26943
9.23415
9.17306
9.08648
9
8.91658
8.82934
8.73438
8.61968
8.49158
8.2559
0.2
0.2
0.2
0.2
0.2
0.2
0.2
0.2
0.2
0.2
0.2
0.2
0.2
0.2
0.2
0.2
0.2
0.2
0.2
0.2
0.2
0.2
0.2
0.2
0.2
0.2
0.2
0.2
0.2
0.2
0.2
0.2
0.2
0.2
0.2
0.2
0.2
0.2
0.2
0.2
0.2
0.2
0.2
0.2
0.2
0.2
0.2
0.2
0.2
0.2
0.2
0.2
0.2
0.2
0.2
0.2
0.2
0.2
0.2
0.2
0.2
0.2
0.2
0.2
0.2
0.2
0.2
0.2
0.2
0.2
0.2
0.2
0.199996
0.199654
0.188756
0.876482
5.12613
7.92655
8.66738
8.85251
8.91655
8.95427
8.97814
9.00269
9.03061
9.05634
9.07933
9.1039
9.1291
9.15377
9.17905
9.19794
9.20958
9.22573
9.25297
9.28054
9.29921
9.30845
9.30864
9.30307
9.30268
9.307
9.31313
9.30896
9.28816
9.25693
9.22119
9.18667
9.16613
9.12605
9.05766
8.97442
8.89314
8.81015
8.71517
8.60902
8.48361
8.34706
8.11149
0.2
0.2
0.2
0.2
0.2
0.2
0.2
0.2
0.2
0.2
0.2
0.2
0.2
0.2
0.2
0.2
0.2
0.2
0.2
0.2
0.2
0.2
0.2
0.2
0.2
0.2
0.2
0.2
0.2
0.2
0.2
0.2
0.2
0.2
0.2
0.2
0.2
0.2
0.2
0.2
0.2
0.2
0.2
0.2
0.2
0.2
0.2
0.2
0.2
0.2
0.2
0.2
0.2
0.2
0.2
0.2
0.2
0.2
0.2
0.2
0.2
0.2
0.2
0.2
0.2
0.2
0.2
0.2
0.2
0.2
0.2
0.199999
0.199995
0.199943