/*--------------------------------*- C++ -*----------------------------------*\
| =========                 |                                                 |
| \\      /  F ield         | OpenFOAM: The Open Source CFD Toolbox           |
|  \\    /   O peration     | Version:  2.2.x                                 |
|   \\  /    A nd           | Web:      www.OpenFOAM.org                      |
|    \\/     M anipulation  |                                                 |
\*---------------------------------------------------------------------------*/
FoamFile
{
    version     2.0;
    format      ascii;
    class       volVectorField;
    location    "0.1";
    object      U;
}
// * * * * * * * * * * * * * * * * * * * * * * * * * * * * * * * * * * * * * //

dimensions      [0 1 -1 0 0 0 0];

internalField   nonuniform List<vector> 
14161
(
(1.5 1.79201e-14 -8.27444e-23)
(1.5 1.04711e-14 -5.40682e-22)
(1.5 4.71236e-15 -5.07893e-22)
(1.5 2.68283e-15 -4.49784e-22)
(1.5 -2.10312e-17 -5.34897e-22)
(1.5 -1.08668e-15 -9.49038e-22)
(1.5 -4.19416e-15 8.09456e-22)
(1.5 -3.55634e-15 1.8098e-22)
(1.5 -4.49828e-16 4.94753e-22)
(1.5 -4.44765e-16 -9.86805e-23)
(1.5 -2.91183e-15 -7.70669e-23)
(1.5 -2.86302e-15 5.96543e-23)
(1.5 -3.89284e-15 -3.72614e-22)
(1.5 -3.38901e-15 5.87187e-22)
(1.5 -3.31666e-15 2.29141e-22)
(1.5 -3.87685e-15 7.05859e-23)
(1.5 -3.76885e-15 -2.5969e-22)
(1.5 -2.17459e-15 -2.82919e-22)
(1.5 -7.5438e-16 -3.28638e-22)
(1.5 1.29237e-15 -6.69443e-22)
(1.5 1.54189e-15 -7.35936e-22)
(1.5 2.30358e-15 -2.66229e-22)
(1.5 1.38385e-15 -4.98175e-22)
(1.5 4.18539e-16 -3.97302e-22)
(1.5 2.39227e-15 -7.58155e-22)
(1.5 1.21941e-14 -5.7577e-22)
(1.5 5.92051e-14 -5.57571e-22)
(1.5 2.25713e-13 -5.59495e-22)
(1.5 7.82096e-13 -5.64638e-22)
(1.5 2.54902e-12 -5.70528e-22)
(1.5 7.85702e-12 -2.96806e-22)
(1.5 2.29601e-11 -3.73694e-22)
(1.5 6.37069e-11 -3.51929e-22)
(1.5 1.68219e-10 -3.28625e-22)
(1.5 4.22659e-10 -2.4475e-22)
(1.5 1.01318e-09 -2.61475e-22)
(1.5 2.3199e-09 -1.74261e-22)
(1.5 5.0742e-09 -1.34303e-22)
(1.5 1.06389e-08 -1.05741e-22)
(1.5 2.13575e-08 -2.00609e-23)
(1.5 4.13132e-08 8.53935e-24)
(1.5 7.67087e-08 4.66662e-23)
(1.5 1.38641e-07 2.35027e-23)
(1.5 2.39362e-07 2.47796e-22)
(1.5 4.13007e-07 -1.16171e-22)
(1.5 6.69666e-07 7.75798e-22)
(1.5 1.09882e-06 5.60862e-22)
(1.5 1.84891e-06 1.11646e-21)
(1.50001 3.12722e-06 1.93339e-21)
(1.50001 5.30622e-06 1.60942e-21)
(1.50002 8.8611e-06 2.21374e-21)
(1.50004 1.49166e-05 2.63513e-21)
(1.50006 2.45351e-05 3.29032e-21)
(1.5001 4.06714e-05 3.14481e-21)
(1.50017 6.67363e-05 2.96487e-21)
(1.50027 0.000106971 2.8745e-21)
(1.50043 0.000177968 2.76118e-21)
(1.50069 0.000273028 2.74411e-21)
(1.50106 0.000455441 2.51136e-21)
(1.50167 0.000690608 2.55397e-21)
(1.50251 0.00109013 2.31869e-21)
(1.50381 0.00173458 2.64043e-21)
(1.5057 0.0024672 1.49615e-21)
(1.50807 0.0040429 1.56455e-21)
(1.51198 0.00570241 1.83181e-21)
(1.51617 0.00806102 9.67328e-22)
(1.52172 0.0127864 9.7502e-22)
(1.52988 0.0165329 7.85416e-22)
(1.53762 0.021984 1.2318e-21)
(1.5475 0.0321121 6.74046e-22)
(1.56161 0.0385404 8.77128e-22)
(1.57486 0.046037 6.44738e-22)
(1.59035 0.0608524 1.83958e-21)
(1.60918 0.0706511 3.88378e-22)
(1.63015 0.0788409 1.46706e-21)
(1.64262 0.0969717 9.04138e-22)
(1.6573 0.111742 8.08294e-22)
(1.66228 0.130946 8.7517e-22)
(1.65239 0.144138 7.89105e-22)
(1.63424 0.154911 1.06145e-21)
(1.61391 0.165066 1.22936e-21)
(1.59927 0.163544 6.05218e-22)
(1.5954 0.154126 8.19502e-22)
(1.60022 0.137036 6.58581e-22)
(1.64196 0.121768 8.53699e-22)
(1.66317 0.105549 2.48547e-23)
(1.71927 0.0967261 -2.11279e-22)
(1.77726 0.100095 1.3149e-24)
(1.82263 0.107395 -9.65046e-22)
(1.86763 0.137865 -6.25579e-23)
(1.899 0.133177 -2.37593e-22)
(1.71712 -0.0207972 -6.91467e-22)
(1.02703 0.0637046 -1.22363e-21)
(0.580782 0.128212 -1.24404e-21)
(0.42698 0.0939539 3.33633e-21)
(0.354276 0.0572294 -2.50243e-21)
(0.324061 0.0321004 4.64897e-21)
(0.306242 0.0194939 -1.66891e-21)
(0.293657 0.0135242 8.35612e-22)
(0.283769 0.0120441 -4.138e-21)
(0.277108 0.00959299 -4.79539e-22)
(0.273627 0.00760692 -1.0281e-20)
(0.270775 0.00545953 -3.96493e-21)
(0.264679 0.00258172 -7.25972e-21)
(0.25639 0.000636857 -8.22422e-21)
(0.247559 -0.00102914 -1.06188e-20)
(0.238698 -0.00160309 -1.43139e-20)
(0.229589 -0.00123965 -4.09481e-21)
(0.220153 -0.000139135 -1.70834e-20)
(0.210279 0.00126697 -1.73927e-20)
(0.199852 0.00243487 -2.63229e-20)
(0.187554 0.00454316 -3.8362e-20)
(0.173002 0.00783349 -3.92196e-20)
(0.155045 0.0119059 -5.34148e-20)
(0.134828 0.0168781 -5.21063e-20)
(0.111696 0.0210723 -7.09446e-20)
(0.0850302 0.0314507 -9.87762e-20)
(0.0503948 0.0379175 -1.0232e-19)
(0.0177009 0.0220951 -1.43973e-19)
(1.5 -6.85947e-15 2.44287e-22)
(1.5 -8.67525e-15 2.14118e-21)
(1.5 -3.93386e-15 4.59675e-21)
(1.5 -2.97713e-15 1.86111e-21)
(1.5 -4.92197e-16 1.19092e-21)
(1.5 1.06547e-15 1.37147e-21)
(1.5 -4.54473e-16 1.11045e-21)
(1.5 6.93185e-16 7.91579e-22)
(1.5 2.86854e-15 1.54737e-21)
(1.5 2.30263e-15 1.00172e-21)
(1.5 -8.03872e-17 1.15234e-21)
(1.5 4.41229e-16 8.76966e-22)
(1.5 -5.9659e-16 1.83238e-21)
(1.5 9.77796e-16 -5.91166e-22)
(1.5 -1.09975e-15 -2.45333e-21)
(1.5 -2.70247e-16 -2.12964e-21)
(1.5 6.90916e-16 -2.20402e-21)
(1.5 1.99691e-15 -3.40808e-21)
(1.5 2.40715e-15 -3.52201e-21)
(1.5 3.78165e-15 -5.05582e-21)
(1.5 2.34015e-15 -5.19963e-21)
(1.5 2.39901e-15 -5.49496e-21)
(1.5 5.92291e-16 -6.38107e-21)
(1.5 5.39993e-17 -6.60805e-21)
(1.5 -9.31193e-16 -4.99176e-21)
(1.5 -4.05479e-15 -4.70358e-21)
(1.5 -1.51955e-14 -5.13589e-21)
(1.5 -5.60545e-14 -5.0115e-21)
(1.5 -1.93605e-13 -5.3824e-21)
(1.5 -6.27244e-13 -4.57e-21)
(1.5 -1.92126e-12 -5.27307e-21)
(1.5 -5.57796e-12 -4.63126e-21)
(1.5 -1.53961e-11 -4.47902e-21)
(1.5 -4.04491e-11 -4.68011e-21)
(1.5 -1.00611e-10 -4.60273e-21)
(1.5 -2.38584e-10 -4.23504e-21)
(1.5 -5.4002e-10 -4.45916e-21)
(1.5 -1.16959e-09 -4.16347e-21)
(1.5 -2.41967e-09 -4.04121e-21)
(1.5 -4.79461e-09 -3.7185e-21)
(1.5 -9.02724e-09 -3.79569e-21)
(1.5 -1.63509e-08 -3.59147e-21)
(1.5 -2.78763e-08 -3.43776e-21)
(1.5 -4.73741e-08 -3.53095e-21)
(1.5 -7.0086e-08 -3.10674e-21)
(1.5 -2.05974e-07 -4.30285e-21)
(1.49999 -3.51626e-07 -2.84075e-21)
(1.49999 -5.94457e-07 -2.56459e-21)
(1.49998 -1.01524e-06 -4.69355e-21)
(1.49996 -1.71738e-06 -4.19626e-21)
(1.49994 -2.92417e-06 -4.28982e-21)
(1.4999 -4.86653e-06 -5.26022e-21)
(1.49983 -8.18756e-06 -6.56254e-21)
(1.49973 -1.3463e-05 -5.40246e-21)
(1.49956 -2.20537e-05 -5.99881e-21)
(1.49929 -3.6436e-05 -3.48099e-21)
(1.49886 -5.70931e-05 -3.24349e-21)
(1.4982 -9.55976e-05 -2.9855e-21)
(1.49719 -0.000144781 -3.28748e-21)
(1.49564 -0.000237734 -4.90668e-21)
(1.49332 -0.000368314 -3.59357e-21)
(1.48989 -0.000559922 -4.70998e-21)
(1.48494 -0.000920629 -4.8951e-21)
(1.47784 -0.00134516 -1.70953e-21)
(1.46835 -0.0021411 -5.41972e-21)
(1.45577 -0.00338848 -1.87272e-21)
(1.44 -0.00479192 -2.80948e-21)
(1.42209 -0.00744102 -9.15792e-22)
(1.40304 -0.0111831 -2.76627e-21)
(1.38363 -0.0140503 -2.35533e-21)
(1.36439 -0.0193466 -3.31184e-21)
(1.34629 -0.0267424 -2.73926e-21)
(1.32957 -0.0305636 -2.98288e-21)
(1.3178 -0.0381369 -2.86137e-21)
(1.30747 -0.0482374 -3.4589e-21)
(1.31056 -0.0474806 -1.93302e-21)
(1.31464 -0.049585 -3.55339e-21)
(1.33794 -0.0465144 -2.45252e-21)
(1.35998 -0.0324171 -2.60867e-21)
(1.39881 -0.0205461 -2.09371e-21)
(1.43591 -0.000722641 -2.18791e-21)
(1.47136 0.0110639 -2.83661e-21)
(1.48295 0.0179442 -1.52225e-21)
(1.48571 0.00959851 -1.11407e-21)
(1.4734 -0.00383726 -1.6621e-21)
(1.45753 -0.0178264 -4.36737e-22)
(1.4371 -0.0344597 -2.18061e-21)
(1.4179 -0.0463234 -2.8296e-21)
(1.40842 -0.0661656 1.05221e-21)
(1.40938 -0.055033 -7.39051e-22)
(1.49754 -0.103043 -9.8719e-22)
(0.354309 -0.0909871 2.33149e-22)
(0.0424147 0.0216527 -6.61057e-21)
(-0.0256718 0.0600266 5.21227e-21)
(-0.0136062 0.0347974 -4.53472e-21)
(0.00410905 0.0145704 2.13037e-20)
(0.00527905 0.00295427 1.6415e-20)
(0.00280027 -0.00528894 -2.53483e-21)
(0.00510723 -0.00965193 1.07584e-21)
(0.00781136 -0.00632397 2.70795e-20)
(0.0134407 -0.00169503 2.44644e-20)
(0.0194637 0.00252819 1.42201e-20)
(0.0220095 0.00578731 -1.72442e-21)
(0.0206833 0.00731986 1.80386e-20)
(0.0175228 0.00854311 3.21156e-20)
(0.0133376 0.00869775 3.23005e-20)
(0.00943308 0.00963319 3.39221e-20)
(0.00619126 0.0102462 3.17252e-20)
(0.00567925 0.0106999 3.48061e-20)
(0.00625932 0.0106756 4.1828e-20)
(0.00805338 0.00970838 3.93439e-20)
(0.0098323 0.00992707 5.03833e-20)
(0.0119913 0.0110322 4.61883e-20)
(0.0137629 0.0136462 6.1965e-20)
(0.0161363 0.0173764 6.17237e-20)
(0.0174385 0.0219319 8.01626e-20)
(0.0199336 0.0325844 7.56384e-20)
(0.0147901 0.0397426 1.17637e-19)
(0.0154 0.0443224 2.38141e-19)
(1.5 6.31127e-15 3.89385e-22)
(1.5 2.65372e-15 -1.77346e-21)
(1.5 -7.98826e-16 -2.91352e-21)
(1.5 1.08792e-15 -4.85637e-21)
(1.5 -7.16719e-16 -4.14944e-21)
(1.5 -2.96413e-15 -4.85894e-21)
(1.5 -1.01117e-15 -5.21678e-21)
(1.5 1.66571e-15 -4.99138e-21)
(1.5 1.7459e-15 -3.80608e-21)
(1.5 -6.66431e-16 -4.42046e-21)
(1.5 -1.19719e-15 -8.23263e-22)
(1.5 -6.06528e-16 -4.92401e-21)
(1.5 -1.98532e-15 -3.87705e-21)
(1.5 -1.50966e-15 -2.22148e-21)
(1.5 -1.86713e-15 -1.17413e-21)
(1.5 1.2749e-16 -1.91485e-21)
(1.5 1.61791e-15 -1.73294e-21)
(1.5 1.87517e-15 -2.14306e-21)
(1.5 1.24456e-15 1.52701e-22)
(1.5 1.96846e-15 -6.90016e-22)
(1.5 1.19465e-15 -2.55104e-21)
(1.5 2.67899e-15 -7.44043e-21)
(1.5 1.13575e-15 -3.95988e-21)
(1.5 5.36122e-16 -5.89943e-21)
(1.5 9.18646e-16 -9.57354e-21)
(1.5 3.7536e-15 -9.84795e-21)
(1.5 1.54012e-14 -1.07199e-20)
(1.5 5.67506e-14 -1.13721e-20)
(1.5 1.9907e-13 -1.0827e-20)
(1.5 6.49331e-13 -9.42335e-21)
(1.5 1.99447e-12 -9.59516e-21)
(1.5 5.80582e-12 -9.09986e-21)
(1.5 1.58997e-11 -9.62588e-21)
(1.5 4.13995e-11 -8.79319e-21)
(1.5 1.02899e-10 -9.34628e-21)
(1.5 2.42421e-10 -8.91144e-21)
(1.5 5.43964e-10 -8.82051e-21)
(1.5 1.16259e-09 -8.78533e-21)
(1.5 2.37091e-09 -8.71599e-21)
(1.5 4.62051e-09 -8.63172e-21)
(1.5 8.63467e-09 -8.61126e-21)
(1.5 1.52744e-08 -8.18255e-21)
(1.5 2.55284e-08 -8.28195e-21)
(1.5 4.06642e-08 -7.96321e-21)
(1.5 5.08722e-08 -8.43558e-21)
(1.50001 2.94344e-07 -5.26304e-21)
(1.50001 5.1707e-07 -3.47291e-21)
(1.50002 8.78786e-07 -1.0935e-21)
(1.50003 1.50557e-06 2.67725e-23)
(1.50005 2.5788e-06 9.2139e-22)
(1.50008 4.37073e-06 -9.40054e-22)
(1.50013 7.39842e-06 1.23587e-21)
(1.50022 1.23025e-05 1.15547e-21)
(1.50035 2.0482e-05 5.65121e-22)
(1.50057 3.35346e-05 2.46211e-21)
(1.50093 5.44559e-05 -1.90728e-21)
(1.50149 8.84355e-05 -2.64225e-22)
(1.50236 0.000138784 -3.5304e-21)
(1.50371 0.000223494 -2.25169e-21)
(1.50579 0.000340478 1.51355e-23)
(1.50891 0.000531671 -4.93876e-21)
(1.51356 0.000803912 -7.79971e-22)
(1.5203 0.00117534 1.53342e-21)
(1.52983 0.00176628 -3.47978e-21)
(1.543 0.00244511 -2.99046e-21)
(1.56043 0.00339938 -2.3437e-21)
(1.58245 0.00462333 -1.75593e-21)
(1.60841 0.00585865 -8.79465e-22)
(1.63721 0.00705326 7.35007e-22)
(1.66832 0.00852208 3.38653e-21)
(1.70089 0.00984125 1.01531e-21)
(1.73497 0.00966549 -1.45507e-22)
(1.7682 0.00977367 6.98234e-21)
(1.79793 0.0115756 5.25206e-21)
(1.82072 0.00934984 -2.47802e-21)
(1.83775 0.00951378 8.6344e-21)
(1.81874 0.0127595 4.20044e-21)
(1.80519 0.0113519 2.43759e-21)
(1.75616 0.0190801 1.95805e-21)
(1.68417 0.0229135 4.38598e-21)
(1.62383 0.0282702 1.01133e-21)
(1.58578 0.0326936 2.82697e-21)
(1.58866 0.0337851 8.79169e-22)
(1.58905 0.031493 4.00662e-21)
(1.62505 0.0223577 1.15564e-21)
(1.67295 0.0155599 4.84444e-22)
(1.74202 0.00630597 1.82027e-21)
(1.82136 -0.00171083 -4.87024e-21)
(1.88992 -0.00779477 -2.90424e-22)
(1.94598 -0.0102781 -9.75877e-22)
(1.94052 -0.0474421 -3.38381e-21)
(1.73933 -0.00247349 1.24446e-21)
(1.46955 0.00674321 -1.2395e-20)
(0.938192 0.0627065 -6.29006e-21)
(0.7131 0.0550945 -1.76238e-20)
(0.63215 0.0395676 -2.58568e-20)
(0.596029 0.024221 7.45496e-21)
(0.568589 0.0101226 -1.80209e-20)
(0.5399 0.00217953 -6.38094e-21)
(0.51287 0.00255932 -4.18273e-21)
(0.491252 0.00645462 1.06372e-20)
(0.472131 0.0113397 -1.2495e-20)
(0.454201 0.0161945 -1.26285e-20)
(0.434402 0.0200746 -1.10113e-20)
(0.412114 0.0232311 -1.41986e-20)
(0.387599 0.0261302 -5.36902e-21)
(0.361307 0.0290783 -7.45423e-21)
(0.333996 0.0317432 -1.87769e-20)
(0.305521 0.0339812 4.05497e-20)
(0.275621 0.0355276 2.41773e-20)
(0.245233 0.035161 2.6577e-20)
(0.214424 0.0357016 1.13907e-20)
(0.182245 0.0357443 1.31015e-20)
(0.149941 0.0372289 6.27912e-20)
(0.12032 0.0385355 2.41204e-20)
(0.0926516 0.0414065 1.04633e-19)
(0.0687102 0.0514793 8.14958e-20)
(0.0449636 0.0537735 2.6058e-20)
(0.0293458 0.0693774 6.49963e-20)
(1.5 8.11772e-16 -5.55195e-22)
(1.5 1.94027e-15 -8.95544e-22)
(1.5 -9.81932e-16 4.94416e-21)
(1.5 -8.63956e-16 4.76816e-21)
(1.5 -1.80501e-15 2.94954e-21)
(1.5 -3.97757e-15 1.2658e-21)
(1.5 -1.86733e-15 1.63591e-21)
(1.5 -1.12423e-15 1.79458e-21)
(1.5 -3.68333e-15 1.93579e-21)
(1.5 -3.8928e-15 1.7838e-21)
(1.5 -3.89164e-15 -1.28273e-22)
(1.5 -5.01915e-15 -2.39605e-21)
(1.5 -7.96603e-15 -1.89847e-21)
(1.5 -4.98432e-15 -2.04213e-21)
(1.5 -4.14174e-15 2.86052e-21)
(1.5 -1.94286e-15 5.10529e-21)
(1.5 -2.07516e-15 3.63541e-21)
(1.5 -1.34386e-15 2.83482e-21)
(1.5 -1.72953e-16 -5.37111e-21)
(1.5 2.28738e-15 2.00922e-21)
(1.5 6.60572e-17 5.97188e-21)
(1.5 8.97567e-16 7.64983e-21)
(1.5 1.10754e-16 6.9192e-21)
(1.5 4.99804e-16 9.25938e-21)
(1.5 1.19663e-16 9.39912e-21)
(1.5 -1.26958e-15 6.703e-21)
(1.5 -2.06806e-15 9.73089e-21)
(1.5 -3.27397e-15 1.30451e-20)
(1.5 -2.93764e-15 1.20217e-20)
(1.5 2.80012e-15 8.31332e-21)
(1.5 3.88088e-14 8.0497e-21)
(1.5 2.20148e-13 7.74524e-21)
(1.5 8.90786e-13 7.47985e-21)
(1.5 3.28235e-12 7.19633e-21)
(1.5 1.07011e-11 7.60335e-21)
(1.5 3.2249e-11 7.52149e-21)
(1.5 9.22084e-11 7.02012e-21)
(1.5 2.46317e-10 7.54545e-21)
(1.5 6.26853e-10 7.48658e-21)
(1.5 1.48745e-09 7.23475e-21)
(1.5 3.41465e-09 7.19281e-21)
(1.5 7.1529e-09 6.90974e-21)
(1.5 1.5234e-08 7.27488e-21)
(1.5 2.93206e-08 6.66621e-21)
(1.5 7.63283e-08 6.99949e-21)
(1.49999 -1.65073e-07 3.95992e-21)
(1.49999 -3.30364e-07 5.003e-21)
(1.49998 -5.82216e-07 2.01995e-22)
(1.49997 -1.02299e-06 -7.62631e-22)
(1.49995 -1.7757e-06 8.3414e-22)
(1.49992 -3.06316e-06 -1.92183e-21)
(1.49987 -5.20087e-06 1.36312e-21)
(1.49979 -8.7878e-06 -1.81108e-21)
(1.49965 -1.45918e-05 1.857e-21)
(1.49943 -2.40636e-05 -1.01261e-21)
(1.49907 -3.91885e-05 4.49196e-21)
(1.4985 -6.26342e-05 6.17724e-21)
(1.4976 -0.000100227 6.48661e-21)
(1.49619 -0.000154684 7.03167e-21)
(1.49403 -0.00024127 6.95226e-21)
(1.49075 -0.000362669 8.45433e-21)
(1.48585 -0.000540302 1.1609e-20)
(1.47864 -0.000804192 7.06932e-21)
(1.46851 -0.00113077 1.29035e-20)
(1.45448 -0.00163273 1.11121e-20)
(1.43596 -0.00226808 1.21289e-20)
(1.41305 -0.00316421 1.31089e-20)
(1.38746 -0.00433721 8.29177e-21)
(1.36131 -0.00617433 1.34761e-20)
(1.33683 -0.00776606 5.24691e-21)
(1.31486 -0.00914264 7.53043e-21)
(1.29727 -0.0112399 3.69801e-21)
(1.28752 -0.0111747 7.88495e-21)
(1.28644 -0.00627818 5.08112e-21)
(1.28949 -0.00338854 5.91493e-21)
(1.30788 0.00854629 4.119e-21)
(1.32781 0.0264152 6.62118e-21)
(1.35688 0.0459661 4.33934e-21)
(1.39984 0.0834287 6.00726e-21)
(1.46151 0.0986661 4.78349e-21)
(1.50388 0.102188 4.15834e-21)
(1.53517 0.101314 4.69613e-21)
(1.5594 0.0879944 3.95355e-21)
(1.53605 0.0870803 4.44149e-21)
(1.4973 0.0872382 4.26103e-21)
(1.46701 0.0884191 7.3992e-21)
(1.44388 0.093167 3.20472e-21)
(1.42103 0.108872 3.80332e-21)
(1.40389 0.129473 1.14408e-20)
(1.44885 0.173773 5.80912e-21)
(0.673838 0.185168 1.26206e-20)
(0.169553 0.205214 8.75248e-21)
(-0.0437912 -0.00109806 -5.98112e-20)
(-0.0318503 0.137128 -9.06081e-20)
(0.0390412 0.127855 8.39852e-20)
(0.0778317 0.0868914 -1.0078e-19)
(0.0946325 0.0642258 -1.73564e-19)
(0.100039 0.0446069 2.79273e-19)
(0.103598 0.0335835 -1.51048e-19)
(0.106025 0.0275805 -8.81451e-20)
(0.10931 0.0246195 -9.41315e-20)
(0.112882 0.0245119 4.72991e-20)
(0.116084 0.025034 -4.66355e-20)
(0.11835 0.026206 -4.02306e-20)
(0.120593 0.026419 -6.24048e-20)
(0.122182 0.0280072 -1.32442e-20)
(0.123369 0.0300412 -2.39833e-20)
(0.123853 0.0324103 -1.31355e-20)
(0.124599 0.0354277 -3.95644e-20)
(0.123751 0.0389786 -6.22648e-22)
(0.121237 0.0409562 -6.20136e-20)
(0.11639 0.0443317 1.53097e-20)
(0.108979 0.0467313 -5.72739e-20)
(0.0988534 0.0499595 3.20595e-20)
(0.085678 0.0542242 -2.61667e-20)
(0.0669021 0.0596563 2.57293e-20)
(0.0511079 0.0724044 5.12647e-20)
(0.0333842 0.0709103 2.28922e-19)
(0.028246 0.103133 1.42713e-20)
(1.5 -3.75613e-15 1.15368e-24)
(1.5 -4.02178e-15 2.07016e-21)
(1.5 -2.71494e-15 -5.10178e-21)
(1.5 -1.68509e-15 5.6595e-21)
(1.5 -4.34358e-16 3.91666e-21)
(1.5 -1.79403e-15 1.31741e-20)
(1.5 -1.9685e-15 1.16518e-20)
(1.5 -1.08582e-15 7.20932e-21)
(1.5 -2.74437e-15 1.17287e-20)
(1.5 -1.68448e-15 8.131e-21)
(1.5 -3.16711e-15 -2.39886e-21)
(1.5 -1.83778e-15 9.12642e-21)
(1.5 -4.62735e-15 7.10663e-21)
(1.5 -2.57808e-15 1.07072e-20)
(1.5 -3.47122e-15 1.31247e-21)
(1.5 5.46865e-16 -4.99236e-22)
(1.5 -6.00657e-16 7.97846e-21)
(1.5 -1.39788e-15 6.83069e-21)
(1.5 7.04622e-16 9.89106e-21)
(1.5 2.82794e-15 1.55503e-21)
(1.5 1.62339e-15 4.95787e-22)
(1.5 2.4516e-15 7.50761e-22)
(1.5 1.26854e-15 -4.84882e-21)
(1.5 1.22544e-15 -5.38362e-21)
(1.5 6.7841e-16 -3.38959e-21)
(1.5 -1.26173e-15 -1.07202e-21)
(1.5 -3.93118e-15 -2.2417e-21)
(1.5 -1.09925e-14 -4.50709e-21)
(1.5 -3.6023e-14 -2.78287e-21)
(1.5 -1.19761e-13 1.9498e-21)
(1.5 -3.95336e-13 1.81248e-21)
(1.5 -1.26245e-12 1.03722e-21)
(1.5 -3.75695e-12 2.07113e-21)
(1.5 -1.08703e-11 2.51076e-22)
(1.5 -3.01072e-11 -7.17322e-22)
(1.5 -7.97346e-11 1.48074e-21)
(1.5 -2.01772e-10 9.24071e-22)
(1.5 -4.8878e-10 -1.59119e-22)
(1.5 -1.1351e-09 8.197e-22)
(1.5 -2.52408e-09 4.79318e-22)
(1.5 -5.40953e-09 1.57198e-22)
(1.5 -1.10077e-08 6.37247e-22)
(1.5 -2.15654e-08 1.78948e-21)
(1.5 -3.89622e-08 6.36963e-22)
(1.5 -9.12895e-08 2.56658e-22)
(1.5 1.52371e-07 2.20324e-21)
(1.50001 3.20508e-07 1.31569e-21)
(1.50001 5.72962e-07 4.51561e-21)
(1.50002 1.01392e-06 -5.42288e-22)
(1.50004 1.77254e-06 -6.10997e-22)
(1.50006 3.06665e-06 2.91398e-23)
(1.50011 5.25579e-06 1.95468e-21)
(1.50018 8.88647e-06 4.70736e-21)
(1.5003 1.49079e-05 1.22685e-21)
(1.50049 2.4642e-05 1.21972e-21)
(1.50081 4.03373e-05 -1.43563e-21)
(1.50131 6.52171e-05 -2.44122e-21)
(1.50212 0.000103693 -5.02179e-22)
(1.50339 0.000163769 -3.46184e-22)
(1.50538 0.000252332 -1.69363e-21)
(1.50844 0.000386535 -4.76778e-21)
(1.5131 0.000578541 -1.98669e-21)
(1.52006 0.000850492 -3.6135e-21)
(1.53024 0.00123449 -6.30232e-21)
(1.54489 0.00171484 -4.92912e-21)
(1.56468 0.00238701 -8.13121e-21)
(1.59067 0.00306837 -6.38804e-21)
(1.6223 0.00393518 -9.5801e-21)
(1.65772 0.00446845 -3.36189e-21)
(1.695 0.00462561 -9.52484e-21)
(1.73374 0.00517796 -6.60189e-21)
(1.7682 0.00466431 1.66914e-21)
(1.79579 0.00299663 -1.30913e-20)
(1.81689 0.00385979 7.40418e-21)
(1.81237 0.00182743 -5.84942e-21)
(1.79882 0.000515922 1.19633e-21)
(1.77828 0.0012547 -8.38779e-21)
(1.71714 0.00113196 2.55221e-21)
(1.65564 0.00404741 -2.74067e-21)
(1.5881 0.00498854 4.12766e-22)
(1.54289 0.00857417 -8.94019e-21)
(1.50872 0.0149958 -6.96158e-21)
(1.50271 0.019601 6.45176e-21)
(1.50376 0.0193758 -2.22917e-21)
(1.51497 0.0209791 -3.41892e-23)
(1.53777 0.0197389 -1.57239e-21)
(1.56171 0.0166483 1.23036e-21)
(1.58816 0.0139805 1.45826e-21)
(1.59923 0.0106289 2.23672e-21)
(1.61034 0.0142433 3.31663e-21)
(1.51212 0.0945999 2.77413e-21)
(1.29836 0.139259 9.65714e-21)
(0.62731 0.0439033 3.99621e-20)
(0.434179 0.0432713 -4.45693e-20)
(0.381981 0.0528908 3.96458e-20)
(0.363187 0.0472054 4.01735e-21)
(0.348803 0.0437329 -7.45198e-21)
(0.332159 0.0336187 7.24349e-21)
(0.314757 0.0275128 1.14273e-20)
(0.298366 0.0254843 -2.79625e-20)
(0.282272 0.0263024 -1.63158e-20)
(0.266955 0.0289496 -2.98978e-20)
(0.251966 0.0328469 -1.76462e-20)
(0.237085 0.0369742 -4.82889e-20)
(0.22219 0.0389495 -5.4642e-20)
(0.208055 0.0411912 -2.80579e-20)
(0.194102 0.0426118 4.31289e-22)
(0.179898 0.0449475 5.5646e-21)
(0.16584 0.0477841 -1.45848e-20)
(0.152451 0.0519001 9.21519e-20)
(0.139883 0.0540591 2.27385e-20)
(0.127528 0.0582382 1.0144e-19)
(0.114713 0.0621026 1.00235e-19)
(0.100329 0.0677921 7.49248e-20)
(0.0857016 0.0767257 1.83833e-19)
(0.0675652 0.0828902 7.66745e-20)
(0.0522038 0.0944009 2.37207e-19)
(0.0343677 0.0890374 1.45051e-19)
(0.0295069 0.129818 7.03252e-19)
(1.5 -5.42417e-16 5.47477e-22)
(1.5 -1.2278e-15 -4.23931e-21)
(1.5 -1.07103e-15 3.53334e-21)
(1.5 6.87515e-17 -6.2447e-21)
(1.5 -3.47229e-16 -1.82437e-20)
(1.5 -1.53477e-15 -2.88588e-20)
(1.5 -1.52981e-15 -2.58838e-20)
(1.5 4.55659e-16 -2.32662e-20)
(1.5 -2.75665e-16 -3.15549e-20)
(1.5 8.52342e-16 -3.35512e-20)
(1.5 -3.36699e-16 -2.18467e-20)
(1.5 -3.39206e-15 -3.48081e-20)
(1.5 -4.59741e-15 -4.6179e-20)
(1.5 -5.33712e-15 -3.05062e-20)
(1.5 -4.28111e-15 -3.09631e-20)
(1.5 -1.0078e-15 -2.64548e-20)
(1.5 -1.81778e-16 -4.51008e-20)
(1.5 -7.94345e-16 -2.07609e-20)
(1.5 -4.38862e-16 -3.01364e-20)
(1.5 1.49608e-15 -3.1589e-20)
(1.5 4.06451e-15 -2.85036e-20)
(1.5 4.20836e-15 -2.76548e-20)
(1.5 6.00385e-15 -2.39819e-20)
(1.5 4.12852e-15 -1.97851e-20)
(1.5 2.28684e-15 -1.48141e-20)
(1.5 1.17454e-15 -1.07071e-20)
(1.5 4.51851e-15 -8.89802e-21)
(1.5 1.96428e-14 -9.27078e-21)
(1.5 7.05313e-14 -9.72302e-21)
(1.5 2.41289e-13 -1.12702e-20)
(1.5 7.71833e-13 -1.0637e-20)
(1.5 2.34001e-12 -1.21246e-20)
(1.5 6.83479e-12 -1.14844e-20)
(1.5 1.90184e-11 -1.20553e-20)
(1.5 5.05169e-11 -1.16515e-20)
(1.5 1.2833e-10 -1.12845e-20)
(1.5 3.12331e-10 -1.09762e-20)
(1.5 7.2734e-10 -1.06261e-20)
(1.5 1.62767e-09 -1.08379e-20)
(1.5 3.48033e-09 -1.11216e-20)
(1.5 7.19443e-09 -1.11067e-20)
(1.5 1.41549e-08 -1.13292e-20)
(1.5 2.72593e-08 -9.43722e-21)
(1.5 4.76336e-08 -1.12071e-20)
(1.5 1.01765e-07 -8.2593e-21)
(1.5 -9.32321e-08 -1.26675e-20)
(1.49999 -2.20487e-07 -8.93421e-21)
(1.49999 -4.07897e-07 -4.9788e-21)
(1.49998 -7.37147e-07 -6.54624e-22)
(1.49997 -1.30498e-06 -3.87349e-22)
(1.49995 -2.28408e-06 5.21661e-22)
(1.49992 -3.94028e-06 -7.94773e-21)
(1.49986 -6.72819e-06 -1.00086e-21)
(1.49977 -1.13206e-05 -7.03237e-21)
(1.49963 -1.88423e-05 -5.40312e-21)
(1.49938 -3.08724e-05 -6.51597e-21)
(1.49899 -4.98448e-05 -7.19141e-21)
(1.49835 -7.92343e-05 -6.31549e-21)
(1.49734 -0.00012314 -3.85814e-21)
(1.49576 -0.000188176 -9.82297e-22)
(1.49331 -0.00027849 -6.05209e-22)
(1.4896 -0.000400491 -7.25564e-21)
(1.48406 -0.0005526 -4.06162e-21)
(1.47594 -0.000712331 -2.66273e-21)
(1.4647 -0.00086744 -3.92019e-21)
(1.44935 -0.000861916 -3.61243e-21)
(1.42958 -0.000658228 -1.92122e-21)
(1.40596 0.000229741 -4.87369e-21)
(1.38029 0.00131027 2.9684e-21)
(1.35507 0.00376161 -5.26863e-21)
(1.33244 0.00745658 -1.28641e-21)
(1.31392 0.011948 2.64795e-21)
(1.30422 0.0213317 -9.15179e-21)
(1.30137 0.0325393 1.4531e-21)
(1.3076 0.0450329 -5.54015e-21)
(1.32623 0.0625768 5.19029e-22)
(1.34359 0.081905 -1.07251e-21)
(1.38276 0.0972505 -4.10871e-21)
(1.4226 0.101674 -9.08744e-21)
(1.45882 0.0929862 5.78136e-22)
(1.49012 0.0827915 -9.02067e-21)
(1.51646 0.077923 4.20785e-21)
(1.51773 0.0704102 -9.24634e-21)
(1.50694 0.0621202 1.78662e-21)
(1.50497 0.0597706 -1.39504e-21)
(1.48928 0.0606719 7.09939e-21)
(1.48212 0.061441 2.49635e-21)
(1.48226 0.0627015 4.07253e-21)
(1.49873 0.0638799 1.59481e-21)
(1.53133 0.0661614 -2.24231e-21)
(1.59407 0.130491 -3.78961e-21)
(0.999213 0.215277 -9.65759e-21)
(0.446169 0.171287 6.95485e-21)
(0.32087 0.0779506 -1.56141e-20)
(0.288615 0.067126 -7.42388e-22)
(0.284245 0.061207 -1.19953e-20)
(0.279295 0.0590982 4.53017e-21)
(0.270151 0.0502127 -5.49616e-20)
(0.257992 0.0447741 3.16472e-20)
(0.245765 0.0410618 -3.19976e-20)
(0.235164 0.040095 1.56626e-20)
(0.225175 0.0415452 -6.43888e-20)
(0.216826 0.0447835 -8.93515e-21)
(0.20846 0.0488073 -5.36939e-20)
(0.198259 0.0500651 -4.9631e-20)
(0.188979 0.0509462 -9.89893e-21)
(0.179964 0.0522805 -1.97722e-20)
(0.170069 0.0556024 -2.86124e-20)
(0.157341 0.0592474 2.09976e-20)
(0.142371 0.0641492 -2.51715e-19)
(0.126758 0.0661427 1.21435e-19)
(0.110809 0.0709022 -4.45903e-19)
(0.0946908 0.0756457 9.27157e-20)
(0.0783215 0.0790721 -4.07384e-19)
(0.0652506 0.0888905 8.15316e-20)
(0.0513398 0.0959348 -1.33197e-19)
(0.0422122 0.108072 -7.5526e-20)
(0.0279799 0.10453 1.3167e-19)
(0.0254672 0.151286 -1.36461e-19)
(1.5 -5.07683e-15 6.50177e-21)
(1.5 -4.73807e-15 5.40595e-21)
(1.5 -2.65144e-15 -1.32638e-22)
(1.5 1.02038e-16 -9.0266e-22)
(1.5 -9.48787e-16 1.1751e-20)
(1.5 -2.20621e-16 2.39554e-20)
(1.5 -1.83004e-16 1.10958e-20)
(1.5 7.84406e-16 2.1356e-20)
(1.5 -2.15593e-16 1.24084e-20)
(1.5 1.12791e-15 1.34293e-20)
(1.5 2.71557e-16 1.27108e-20)
(1.5 -2.94631e-15 1.84447e-20)
(1.5 -3.10981e-15 2.79061e-20)
(1.5 -4.69982e-15 9.57449e-22)
(1.5 -2.85922e-15 -9.89875e-21)
(1.5 -2.28758e-15 -1.02578e-20)
(1.5 -1.61504e-15 4.24718e-21)
(1.5 6.52839e-16 -1.63458e-23)
(1.5 -3.07447e-17 6.65935e-21)
(1.5 1.91747e-15 1.40661e-20)
(1.5 3.15353e-15 1.41577e-20)
(1.5 3.10417e-15 1.44432e-20)
(1.5 2.58942e-15 1.22714e-20)
(1.5 4.09071e-15 1.85439e-20)
(1.5 2.49374e-15 6.66044e-21)
(1.5 -1.56764e-15 4.58041e-21)
(1.5 -7.05682e-15 5.00209e-21)
(1.5 -1.88365e-14 7.36319e-21)
(1.5 -5.8647e-14 5.16484e-21)
(1.5 -1.91295e-13 9.9094e-22)
(1.5 -6.1216e-13 3.13408e-21)
(1.5 -1.87705e-12 4.86224e-21)
(1.5 -5.46941e-12 6.28098e-21)
(1.5 -1.52179e-11 6.61125e-21)
(1.5 -4.04705e-11 6.63378e-21)
(1.5 -1.02835e-10 7.55451e-21)
(1.5 -2.49982e-10 8.43491e-21)
(1.5 -5.81142e-10 9.1534e-21)
(1.5 -1.29605e-09 1.03028e-20)
(1.5 -2.76157e-09 1.17126e-20)
(1.5 -5.67943e-09 1.17585e-20)
(1.5 -1.10861e-08 1.04909e-20)
(1.5 -2.1222e-08 1.01372e-20)
(1.5 -3.71979e-08 1.03249e-20)
(1.5 -7.79273e-08 9.25088e-21)
(1.5 6.60938e-08 1.06654e-20)
(1.5 1.63563e-07 8.52227e-21)
(1.50001 3.0767e-07 3.78958e-21)
(1.50001 5.61401e-07 3.59091e-21)
(1.50002 1.00076e-06 1.15413e-21)
(1.50003 1.7617e-06 3.55271e-21)
(1.50006 3.0616e-06 2.71235e-21)
(1.50009 5.25453e-06 5.39789e-21)
(1.50016 8.9162e-06 1.07827e-20)
(1.50026 1.4918e-05 9.94435e-21)
(1.50044 2.46503e-05 6.71455e-21)
(1.50073 4.0105e-05 1.55532e-20)
(1.5012 6.42346e-05 1.392e-20)
(1.50195 0.000101203 1.1151e-20)
(1.50315 0.00015627 1.17955e-20)
(1.50503 0.000236882 1.02893e-20)
(1.50794 0.000350847 1.46616e-20)
(1.51237 0.000507456 1.84109e-20)
(1.51896 0.00072102 1.62202e-20)
(1.52859 0.000985282 2.10353e-20)
(1.54223 0.00132442 1.83568e-20)
(1.56059 0.00166283 1.72678e-20)
(1.58406 0.00218931 1.68695e-20)
(1.61177 0.00229494 1.64234e-20)
(1.64204 0.00237285 1.35506e-20)
(1.66876 0.00228526 1.03595e-20)
(1.6879 0.000950226 2.12135e-20)
(1.69911 2.32727e-05 1.27438e-21)
(1.69149 -0.00093087 1.00101e-20)
(1.67284 -0.00267928 1.09338e-20)
(1.6536 -0.00447374 1.15105e-20)
(1.61164 -0.00578726 9.50472e-21)
(1.57296 -0.0064869 1.25024e-20)
(1.5355 -0.005361 5.54175e-21)
(1.50428 -0.00388818 1.20916e-20)
(1.48491 -0.00105377 6.89242e-21)
(1.47321 0.00461504 1.05648e-20)
(1.46382 0.00671831 7.09506e-21)
(1.47619 0.011588 8.73611e-21)
(1.48792 0.0144735 1.39896e-20)
(1.49977 0.0171002 2.52502e-20)
(1.51225 0.0196926 1.67815e-20)
(1.53918 0.0200084 2.24378e-20)
(1.56164 0.0200177 1.74631e-20)
(1.59026 0.0216022 3.28468e-20)
(1.64981 0.0546378 2.72739e-20)
(1.43751 0.211794 1.8877e-20)
(0.62168 0.210462 1.09943e-20)
(0.459211 0.0836233 9.95125e-21)
(0.377823 0.0584617 1.09745e-20)
(0.350418 0.0564131 2.5357e-20)
(0.330032 0.0620116 5.21074e-20)
(0.310158 0.0585291 3.33049e-20)
(0.291411 0.0524274 -4.389e-20)
(0.277427 0.0481817 9.65644e-20)
(0.265303 0.0471719 -1.54559e-20)
(0.254031 0.0491017 1.05828e-19)
(0.243092 0.054787 7.08631e-20)
(0.231012 0.0612611 1.15875e-19)
(0.215363 0.0647025 1.2087e-19)
(0.199449 0.0651662 1.33278e-19)
(0.184297 0.0669367 1.14942e-19)
(0.17052 0.0725638 1.87101e-19)
(0.155163 0.0761144 1.00029e-19)
(0.139477 0.0807144 4.10905e-19)
(0.122915 0.0828949 8.27265e-20)
(0.105694 0.087593 7.77724e-19)
(0.0892571 0.0935459 2.52585e-19)
(0.0736409 0.0959092 1.07218e-18)
(0.0625668 0.105096 7.71472e-19)
(0.0498047 0.111978 1.48657e-18)
(0.0380279 0.120014 1.55062e-18)
(0.0255676 0.118114 1.78885e-18)
(0.0249112 0.165373 2.5157e-18)
(1.5 1.48514e-15 -4.7772e-21)
(1.5 -9.96383e-16 -4.9541e-21)
(1.5 -3.12395e-16 1.24742e-20)
(1.5 1.61871e-15 -4.92522e-21)
(1.5 1.19442e-15 -3.65693e-23)
(1.5 -3.15713e-15 1.69473e-21)
(1.5 -2.55436e-15 2.27313e-20)
(1.5 -3.19356e-15 1.40245e-20)
(1.5 -1.68251e-15 2.2835e-20)
(1.5 -2.98166e-16 2.38565e-20)
(1.5 -3.29753e-15 2.93528e-20)
(1.5 -1.97074e-15 2.34115e-20)
(1.5 -4.79642e-15 5.26893e-20)
(1.5 -1.49588e-15 7.31512e-20)
(1.5 -2.43645e-15 8.65438e-20)
(1.5 -1.34806e-15 8.39398e-20)
(1.5 -2.05121e-15 9.11251e-20)
(1.5 3.77394e-16 7.51791e-20)
(1.5 9.95101e-16 8.17367e-20)
(1.5 5.31148e-16 8.94274e-20)
(1.5 -2.46361e-16 6.74907e-20)
(1.5 7.31606e-16 5.84198e-20)
(1.5 1.29864e-15 5.78294e-20)
(1.5 2.97595e-15 5.82335e-20)
(1.5 1.39472e-15 6.82872e-20)
(1.5 -1.02553e-15 6.31219e-20)
(1.5 -1.08502e-15 5.87431e-20)
(1.5 7.91148e-15 5.64388e-20)
(1.5 3.8278e-14 5.64716e-20)
(1.5 1.34459e-13 5.69819e-20)
(1.5 4.34591e-13 5.28106e-20)
(1.5 1.33318e-12 5.12103e-20)
(1.5 3.90124e-12 4.76119e-20)
(1.5 1.08858e-11 4.83001e-20)
(1.5 2.89884e-11 4.32129e-20)
(1.5 7.37294e-11 4.01959e-20)
(1.5 1.79338e-10 3.8677e-20)
(1.5 4.16816e-10 3.51447e-20)
(1.5 9.28797e-10 3.35755e-20)
(1.5 1.97611e-09 3.33501e-20)
(1.5 4.05003e-09 3.20581e-20)
(1.5 7.90006e-09 3.14779e-20)
(1.5 1.49968e-08 2.84076e-20)
(1.5 2.64131e-08 2.8954e-20)
(1.5 5.46137e-08 3.01819e-20)
(1.5 -3.86366e-08 2.43641e-20)
(1.5 -1.02784e-07 2.25195e-20)
(1.5 -1.98281e-07 2.31188e-20)
(1.49999 -3.67512e-07 1.37941e-20)
(1.49999 -6.61965e-07 2.28634e-20)
(1.49998 -1.17559e-06 2.03103e-20)
(1.49997 -2.05727e-06 2.2177e-20)
(1.49994 -3.55712e-06 2.21106e-20)
(1.4999 -6.06513e-06 1.97128e-20)
(1.49983 -1.02065e-05 1.50093e-20)
(1.49971 -1.69011e-05 2.38258e-20)
(1.49952 -2.75371e-05 1.41099e-20)
(1.49921 -4.39934e-05 1.45761e-20)
(1.4987 -6.87536e-05 8.69656e-21)
(1.49789 -0.000104649 1.32201e-20)
(1.49662 -0.000154202 9.60508e-21)
(1.49466 -0.000217685 6.39371e-21)
(1.4917 -0.000290087 3.36173e-21)
(1.48732 -0.000352633 1.32267e-20)
(1.48099 -0.000360143 1.30281e-20)
(1.47229 -0.000232609 1.09633e-20)