/*--------------------------------*- C++ -*----------------------------------*\
| =========                 |                                                 |
| \\      /  F ield         | OpenFOAM: The Open Source CFD Toolbox           |
|  \\    /   O peration     | Version:  2.2.x                                 |
|   \\  /    A nd           | Web:      www.OpenFOAM.org                      |
|    \\/     M anipulation  |                                                 |
\*---------------------------------------------------------------------------*/
FoamFile
{
    version     2.0;
    format      ascii;
    class       volScalarField;
    location    "1.8";
    object      By;
}
// * * * * * * * * * * * * * * * * * * * * * * * * * * * * * * * * * * * * * //

dimensions      [1 0 -2 0 0 -1 0];

internalField   nonuniform List<scalar> 
14161
(
-0.0220541
-0.00837743
-0.00541573
-0.00536277
-0.00501023
-0.00361737
-0.00080412
0.00297009
0.0063662
0.00734433
0.0062386
0.00492303
0.00274061
-0.000115957
-0.00262765
-0.00366078
-0.00354711
-0.00287349
-0.00198722
-0.000988114
-0.000281849
-0.000117909
-0.000278353
-0.000376993
-0.000709383
-0.00107494
-0.00133761
-0.00138608
-0.00126801
-0.00106457
-0.000844382
-0.000632914
-0.000458243
-0.000309442
-0.000442101
-0.000715931
-0.00173884
-0.00293988
-0.0081924
-0.0102899
-0.06024
-0.183183
-0.0358148
0.0384259
0.0334575
0.0323056
0.028562
0.0277024
0.0272196
0.024735
0.0211234
0.0200937
0.0185532
0.0162078
0.0145236
0.0132051
0.0119255
0.0105498
0.00901927
0.00727592
0.00624547
0.00510959
0.0041503
0.00330944
0.00254832
0.00208762
0.0018786
0.00124079
0.000506834
0.000721138
0.00203122
0.00300959
0.00100737
-0.000764088
0.00247057
0.00628714
0.00187484
-0.00318033
0.00143227
0.00801777
0.00220639
-0.00392887
0.00125581
0.0103967
0.005548
0.000252067
0.0010331
0.00380922
0.00441124
0.00802024
0.0135589
0.0181461
0.0215064
0.0301178
0.0395579
0.0522872
0.0621501
0.0590419
0.0457537
0.0342497
0.0251389
0.019548
0.0177996
0.0167324
0.0154931
0.0163317
0.016854
0.0169616
0.0214305
0.0228736
0.0268897
0.0302147
0.036723
0.040014
0.0452142
0.056339
0.0530873
0.0587098
0.0314056
0.023595
0.00856887
0.00485961
0.00531208
0.00488183
0.00339626
0.000335379
-0.00319239
-0.00718637
-0.00758865
-0.00636206
-0.00471771
-0.0023706
0.000428004
0.00300629
0.0043664
0.00368009
0.00291855
0.00185574
0.000669474
0.000193787
-8.02711e-05
0.000112962
0.000367642
0.000711102
0.0011048
0.00148671
0.00146698
0.00127116
0.00107676
0.000858803
0.000533779
0.000246705
-9.85865e-05
-0.000240885
-0.000649286
-0.00140911
-0.00309803
-0.00849118
-0.0166859
-0.0641621
-0.190353
-0.0214146
0.00912629
-0.00881867
-0.0107555
-0.0178896
-0.0173131
-0.0156683
-0.0156361
-0.0203316
-0.0197859
-0.01874
-0.0189559
-0.0179765
-0.016804
-0.0155193
-0.014261
-0.0133687
-0.0126784
-0.0118328
-0.0110384
-0.0104751
-0.0100491
-0.00925127
-0.00852853
-0.00771946
-0.0071018
-0.0062563
-0.00502546
-0.00389485
-0.00355417
-0.00172389
0.00150919
0.000863923
-0.00105719
0.00240931
0.00702071
0.00203464
-0.00581187
-0.001811
0.010042
0.0021736
-0.0093367
-0.00785524
0.00288814
0.000754706
-0.000420914
0.00295133
0.0107746
0.00990028
0.0194213
0.0331885
0.0408458
0.0517151
0.0660591
0.0837397
0.0870742
0.0746579
0.0632237
0.0565369
0.0515828
0.0448702
0.0444851
0.044661
0.0421073
0.0447068
0.0463683
0.0505793
0.0500687
0.0563384
0.0537881
0.061283
0.0589584
0.0726461
0.0808458
0.0666683
0.0879188
0.0430357
-0.0214845
-0.00750058
-0.00473901
-0.00477246
-0.00456685
-0.00340596
-0.00134332
0.00205683
0.00585827
0.00662008
0.00541528
0.00452214
0.00266174
0.000565721
-0.00174149
-0.00300443
-0.0028987
-0.0026133
-0.0017371
-0.000954556
-0.000412493
-0.000100701
-0.000242007
-0.000354975
-0.000566981
-0.000890725
-0.00114559
-0.00118848
-0.00114619
-0.00103688
-0.000836825
-0.000513132
-0.000315755
-8.49913e-05
-2.08026e-05
-0.000226983
-0.000252883
-0.000839628
-0.00351284
-0.00229264
-0.0186378
-0.103445
0.0107861
0.0275825
0.00625674
-0.0150486
-0.0302126
-0.0381803
-0.0363257
-0.0407399
-0.0306394
-0.0249714
-0.0199905
-0.0193579
-0.017918
-0.0172053
-0.0163545
-0.0152471
-0.0143145
-0.0137628
-0.0128318
-0.0120471
-0.0109827
-0.0102157
-0.00975803
-0.00912467
-0.00791017
-0.00673648
-0.00498017
-0.00322399
-0.00193052
0.000291345
0.00363794
0.00587871
0.00916878
0.0123074
0.0159003
0.0231999
0.0296366
0.0337367
0.0362986
0.046742
0.0546786
0.0562887
0.0563718
0.0561892
0.0561261
0.0633885
0.0653605
0.0778645
0.0869472
0.093441
0.0981798
0.100781
0.10673
0.103186
0.100939
0.0910405
0.0764802
0.0592512
0.046003
0.0409011
0.0401839
0.0364976
0.0399183
0.0424826
0.0458312
0.0480248
0.0549609
0.0555559
0.0665419
0.0692263
0.0872787
0.0896113
0.105045
0.102514
0.0955329
0.0972425
0.0547841
0.0203535
0.00744668
0.00407042
0.00394516
0.00399728
0.00332919
0.0010165
-0.00141142
-0.00429925
-0.00574135
-0.00506729
-0.00445962
-0.00260666
-0.00096446
0.0010052
0.00236921
0.00262147
0.00220756
0.00150328
0.00129317
0.000264379
-5.53306e-05
0.00011461
0.000247368
0.00042302
0.000682882
0.00100202
0.00125203
0.000993
0.000821473
0.000605156
0.000393973
0.000184558
-0.000222229
-0.00060974
-0.00092469
-0.00123881
-0.00188188
-0.00151088
-0.00255308
0.00811802
0.0649671
0.031533
-0.0149587
-0.0563694
-0.0883839
-0.100114
-0.0990907
-0.093206
-0.0870236
-0.0688349
-0.0593837
-0.0539337
-0.0511529
-0.0473092
-0.0441535
-0.0413555
-0.0382966
-0.0352779
-0.033239
-0.0310991
-0.0289451
-0.0274442
-0.0251165
-0.0234447
-0.0210322
-0.0186967
-0.0164166
-0.0140344
-0.0101434
-0.00525367
-4.00268e-05
0.00348695
0.00775577
0.0176785
0.0281567
0.0322975
0.040667
0.0566196
0.0713267
0.0800641
0.0864702
0.0996618
0.115048
0.114144
0.112471
0.115252
0.129376
0.132148
0.149389
0.152699
0.161434
0.160406
0.151816
0.143754
0.136866
0.128284
0.111066
0.0899931
0.0759783
0.0680315
0.0578977
0.0582276
0.0611175
0.0631258
0.06967
0.0745895
0.0789459
0.0871834
0.0858844
0.0985961
0.0948392
0.105962
0.103406
0.117013
0.112153
0.102972
0.0976525
0.0573592
-0.0174096
-0.00522465
-0.00328792
-0.00316121
-0.00333039
-0.00296918
-0.0017756
0.000207697
0.00283914
0.00414501
0.00366178
0.00335529
0.00263839
0.00167383
0.000361835
-0.000662449
-0.00136056
-0.00125995
-0.00110063
-0.000456204
-0.00021528
-0.000179555
-7.36712e-05
-0.000111067
-0.000152116
-0.000269663
-0.000499884
-0.000619801
-0.000704785
-0.000687275
-0.000555976
-0.000235914
4.73085e-05
0.000414244
0.000583683
0.000763063
0.0011997
0.00193372
0.00275581
0.00559677
0.0313303
0.17097
0.0757483
-0.0278915
-0.0740431
-0.104066
-0.121812
-0.129505
-0.12729
-0.123244
-0.105233
-0.0989655
-0.0892048
-0.0853331
-0.0777279
-0.0723772
-0.0651661
-0.0589712
-0.051944
-0.046852
-0.0413703
-0.0375695
-0.0336264
-0.0305957
-0.0276874
-0.0248555
-0.0223182
-0.019508
-0.01633
-0.0122284
-0.00751852
-0.00177346
0.00558948
0.0147053
0.0222809
0.0304993
0.05006
0.0667805
0.0786712
0.0955886
0.12043
0.143252
0.15575
0.169802
0.172594
0.191843
0.195803
0.210461
0.218806
0.235917
0.22832
0.2416
0.230717
0.211243
0.193378
0.176387
0.157962
0.132511
0.107196
0.089654
0.0788465
0.0715942
0.069941
0.0765667
0.0820488
0.0926868
0.10016
0.107129
0.115272
0.116787
0.125146
0.116112
0.120299
0.115508
0.129732
0.119366
0.109397
0.0997553
0.0609478
0.0142086
0.00517569
0.002867
0.00193537
0.00235952
0.00235048
0.00141739
0.000669917
-0.00110341
-0.00224012
-0.00308815
-0.00347809
-0.00265437
-0.00223225
-0.00140505
-0.000267563
0.000372516
0.000540791
0.000714046
0.000764232
0.000163195
-2.97324e-05
-9.21919e-05
-9.07281e-05
-8.2232e-05
-5.32682e-05
0.000201023
0.000264496
0.000321443
0.000289959
0.000165329
-5.87171e-05
-0.000248322
-0.000521284
-0.000810583
-0.000600727
-0.000206901
0.000682933
0.00305476
0.00809973
0.0405672
0.207503
0.0823891
-0.0430261
-0.0981678
-0.116286
-0.123085
-0.132818
-0.12949
-0.118594
-0.102856
-0.0945458
-0.0862489
-0.0807016
-0.0758524
-0.0707982
-0.0657269
-0.0604548
-0.0564533
-0.0531195
-0.0482999
-0.0438166
-0.0404587
-0.0370903
-0.0335432
-0.0296283
-0.0264444
-0.0234712
-0.0195576
-0.015298
-0.00894808
-0.000863331
0.00821824
0.0190341
0.0291579
0.0435002
0.0596801
0.076805
0.0953017
0.121888
0.145204
0.168944
0.186561
0.215563
0.221025
0.233477
0.235114
0.260733
0.254728
0.275415
0.271604
0.285485
0.279544
0.262383
0.238184
0.209052
0.178372
0.149538
0.127012
0.106613
0.0950266
0.0898585
0.0898312
0.0940954
0.104055
0.119384
0.128059
0.141065
0.144905
0.149263
0.150552
0.136541
0.138179
0.127657
0.140621
0.121503
0.11733
0.0990431
0.0654404
-0.0103296
-0.0021087
-0.00142995
-0.00116108
-0.00156911
-0.0015144
-0.00171312
-0.00135747
-0.00021822
0.000721102
0.00139586
0.0017329
0.00227536
0.00195594
0.00217303
0.00159811
0.00104497
0.000612908
0.000466292
0.000374589
0.000289295
0.000247664
0.000373251
0.000419957
0.000464187
0.000447245
0.000285277
7.42778e-05
-0.00011974
-0.000182169
-8.44495e-05
-3.99223e-05
0.000136645
0.000357599
0.000695468
0.00101835
0.00172773
0.00270264
0.00469219
0.0096699
0.0398989
0.213178
0.121977
-0.14498
-0.179592
-0.180574
-0.182848
-0.178654
-0.169707
-0.153994
-0.138167
-0.124501
-0.11145
-0.104331
-0.0956802
-0.089427
-0.0812452
-0.0758837
-0.068717
-0.0636101
-0.0571912
-0.0528046
-0.0473223
-0.044211
-0.0390019
-0.0344536
-0.0302913
-0.0273969
-0.0226663
-0.0179537
-0.0108448
-0.00518234
0.00535246
0.016324
0.0294404
0.0449152
0.0612499
0.0849893
0.110297
0.138591
0.16131
0.193446
0.213418
0.242362
0.259324
0.290692
0.295932
0.323639
0.325
0.351939
0.349536
0.361686
0.357254
0.324844
0.300354
0.27016
0.232755
0.189011
0.150972
0.125141
0.110418
0.0998529
0.0998369
0.109202
0.122422
0.139612
0.153127
0.17331
0.17339
0.18147
0.176035
0.162015
0.16016
0.141659
0.151385
0.125305
0.127533
0.0995414
0.0717613
0.00585071
0.00239059
0.00167247
8.32067e-05
0.00037244
0.000481092
0.000997979
0.00142113
0.00148304
0.00073657
-0.000969652
-0.00168094
-0.00185434
-0.00271835
-0.00283034
-0.00243133
-0.00188863
-0.00107398
-0.000433721
1.49306e-05
3.98865e-06
-0.00030044
-0.000361791
-0.000341358
-0.000393363
-0.000460674
-0.000398314
-0.000387484
-0.000188665
-0.000151149
-0.000151604
-0.000318262
-0.000536953
-0.000899955
-0.00111964
-0.00118726
-0.00133207
-0.00138528
-0.00125269
-0.000473446
0.000579239
0.0346572
-0.0164975
-0.0940107
-0.126851
-0.126145
-0.134587
-0.138746
-0.135078
-0.126476
-0.114167
-0.105211
-0.0967875
-0.0916941
-0.0852497
-0.0805501
-0.0743167
-0.0693516
-0.0633845
-0.0594434
-0.0546624
-0.050504
-0.0469182
-0.0434545
-0.0409871
-0.0379573
-0.0337762
-0.0289451
-0.0240127
-0.0190361
-0.0121939
-0.00425812
0.0058265
0.0187893
0.032417
0.0496941
0.0695945
0.095307
0.120062
0.152201
0.181081
0.215315
0.238156
0.266992
0.289388
0.317327
0.327656
0.36405
0.372755
0.404687
0.408154
0.416448
0.415645
0.397223
0.38407
0.34086
0.27736
0.218584
0.181385
0.149918
0.134034
0.123494
0.126543
0.132776
0.145531
0.167634
0.182761
0.204769
0.205693
0.213747
0.205108
0.193694
0.185176
0.158225
0.164284
0.131812
0.138803
0.101963
0.079617
-0.000649056
0.000631791
1.69948e-05
0.000316257
0.000270739
0.000347688
-0.00106156
-0.00185806
-0.0024849
-0.00193712
-0.000419402
0.000102689
0.00103497
0.00139726
0.00266079
0.00280266
0.00267472
0.00188122
0.00140771
0.001044
0.000802601
0.00065047
0.000695119
0.00062481
0.000574226
0.000587741
0.000540995
0.000379607
0.000143401
-3.59426e-05
-0.000166345
-0.000297501
-0.000408334
-0.000317746
-0.000210915
-0.000221194
-0.000924646
-0.00177619
-0.00245714
-0.00640362
-0.0306936
-0.198155
-0.254021
-0.088426
-0.083931
-0.0950629
-0.111824
-0.120982
-0.121366
-0.118759
-0.110282
-0.10546
-0.10051
-0.0964734
-0.0914457
-0.0870531
-0.0809013
-0.0761635
-0.0693055
-0.0651201
-0.0593068
-0.0552921
-0.0507981
-0.0476923
-0.0442255
-0.0402952
-0.03596
-0.0320436
-0.0277229
-0.0222399
-0.0149587
-0.00565096
0.00649515
0.0206845
0.0376719
0.0584447
0.0820553
0.110846
0.139375
0.171284
0.197164
0.229715
0.255012
0.288341
0.31445
0.353336
0.378465
0.420636
0.428159
0.454452
0.461442
0.464744
0.471768
0.455593
0.442052
0.402396
0.354612
0.301434
0.239285
0.191909
0.166804
0.149902
0.148239
0.151483
0.164258
0.185351
0.203473
0.228632
0.233158
0.246498
0.24124
0.234877
0.217209
0.183297
0.181177
0.142977
0.152356
0.108544
0.091129
-0.00303739
-0.000473676
0.00034253
-0.00103929
-0.00133741
-0.00113519
0.000198953
0.00118709
0.00271191
0.00247687
0.00132681
0.000389098
-0.000572112
-0.00210861
-0.00272369
-0.00293549
-0.00247564
-0.00158991
-0.000970834
-0.000441185
-4.55395e-05
3.01561e-06
-9.37408e-05
-1.78146e-05
-5.56805e-05
-0.000177263
-0.000147261
-0.000193464
-0.000155696
-0.00013369
-0.000152251
-0.000273199
-0.000522658
-0.00079207
-0.00120913
-0.00257822
-0.00297707
-0.00442412
-0.00680695
-0.013139
-0.0509831
-0.268003
-0.226417
-0.152423
-0.132155
-0.130332
-0.144282
-0.146564
-0.143291
-0.13953
-0.128846
-0.123935
-0.115965
-0.112582
-0.105066
-0.098936
-0.0914226
-0.086878
-0.0794979
-0.0734356
-0.0659405
-0.0613636
-0.0552958
-0.0531497
-0.0493819
-0.0457466
-0.0407786
-0.0359143
-0.030346
-0.024487
-0.0173976
-0.0079406
0.00486385
0.0209829
0.03912
0.0612919
0.0869386
0.117444
0.149752
0.185573
0.217648
0.251802
0.277789
0.313841
0.343058
0.387188
0.418719
0.461575
0.477646
0.516949
0.538787
0.531537
0.537168
0.517343
0.504697
0.464669
0.423803
0.363919
0.297625
0.243645
0.205756
0.183829
0.178589
0.179049
0.190524
0.210849
0.230961
0.254928
0.264934
0.28007
0.276528
0.272558
0.250551
0.214315
0.203737
0.159918
0.168787
0.119293
0.105886
0.0088711
0.00225197
0.000915563
0.00164802
0.00171805
0.000762599
-0.000493851
-0.00189113
-0.00371182
-0.00349267
-0.00267007
-0.00144486
-0.000452474
0.000440947
0.00177185
0.00233116
0.00280983
0.00209208
0.00151632
0.00085507
0.000384879
0.000408824
0.000620656
0.000446308
0.000294271
0.000305009
0.000389769
0.000300891
-1.77136e-06
-0.000188007
-0.000585669
-0.000824163
-0.00108544
-0.00141216
-0.00141648
-0.00167476
-0.00219875
-0.00302439
-0.00247188
-0.00590586
-0.0324617
-0.187692
-0.23652
-0.223231
-0.187358
-0.189563
-0.192834
-0.196364
-0.190211
-0.180082
-0.162042
-0.153916
-0.140304
-0.13472
-0.123374
-0.117695
-0.107525
-0.101691
-0.0918096
-0.0840893
-0.0747426
-0.0696935
-0.0630815
-0.0591694
-0.0530988
-0.0482469
-0.0433126
-0.0393704
-0.0342093
-0.0279928
-0.0189054
-0.00739558
0.00761799
0.0244694
0.0450794
0.0693654
0.0968151
0.12856
0.161881
0.19839
0.232283
0.268475
0.297027
0.336949
0.372345
0.422097
0.457154
0.504227
0.521314
0.559825
0.586269
0.579364
0.587843
0.571432
0.558967
0.524197
0.490876
0.436814
0.374446
0.307892
0.259949
0.22772
0.213592
0.208414
0.215205
0.230014
0.249456
0.273032
0.288322
0.304557
0.309134
0.309716
0.288282
0.251541
0.237473
0.183955
0.190436
0.13407
0.124769
-0.0096617
-0.00218051
-0.000610823
-0.00151131
-0.00182876
-0.0013068
0.000142446
0.0013727
0.003009
0.00337717
0.00313858
0.00158267
0.00058097
-0.00048941
-0.00146759
-0.00204732
-0.00190031
-0.0013153
-0.000777333
-0.000362991
0.00033018
0.000544332
0.000422443
0.000627651
0.000766915
0.000700048
0.00044742
0.000194455
0.000199544
6.59328e-06
-7.7475e-05
-2.00863e-05
-0.000203316
-0.0003578
-0.000513012
-0.000598349
-0.00155036
-0.00272104
-0.0035589
-0.00670621
-0.0210819
-0.110798
-0.245006
-0.272937
-0.24983
-0.255776
-0.247703
-0.249008
-0.240487
-0.224392
-0.202424
-0.18932
-0.170132
-0.161826
-0.146035
-0.139701
-0.127067
-0.11949
-0.108099
-0.0989545
-0.0892825
-0.0818125
-0.0747581
-0.0689447
-0.062587
-0.0578346
-0.0510476
-0.0456744
-0.0380282
-0.0314658
-0.0226867
-0.0124803
0.00315056
0.0215794
0.0445245
0.0710772
0.101031
0.135059
0.169749
0.208607
0.245201
0.285989
0.319094
0.363985
0.407038
0.462331
0.499768
0.548338
0.572237
0.606782
0.635894
0.630805
0.639327
0.625845
0.612891
0.581363
0.547938
0.498789
0.44546
0.381857
0.318541
0.271193
0.245899
0.235672
0.23822
0.249488
0.267014
0.290963
0.31118
0.330513
0.339986
0.339514
0.322969
0.298249
0.27773
0.21591
0.214299
0.150714
0.142588
0.0143923
0.00260596
0.00138205
0.00143036
0.00129905
0.000456425
-0.000530721
-0.00181579
-0.00355482
-0.00407212
-0.00357699
-0.00225027
-0.00156771
-0.000534849
0.000319366
0.00126128
0.00135447
0.00137969
0.000871952
0.000324819
4.3063e-05
-0.000298548
-0.000367751
-0.000135285
0.000312677
0.000473371
0.000673443
0.000497874
0.000335224
-0.000123428
-0.00042779
-0.000785942
-0.00106422
-0.0014878
-0.00153259
-0.00207319
-0.000879042
-0.00150936
0.00190388
0.000840334
-0.00169058
-0.00580929
-0.251387
-0.337541
-0.328129
-0.318152
-0.304882
-0.295687
-0.282264
-0.263762
-0.242247
-0.222668
-0.203014
-0.191035
-0.171378
-0.160976
-0.144043
-0.133629
-0.118179
-0.10802
-0.0936906
-0.0850483
-0.0762643
-0.0716129
-0.0660205
-0.0626033
-0.0568306
-0.0521687
-0.0463743
-0.0389252
-0.0287942
-0.0153181
0.00285688
0.0249469
0.0514012
0.0803364
0.114801
0.152076
0.18744
0.228314
0.264972
0.309825
0.343661
0.3958
0.445362
0.50773
0.542891
0.59689
0.631906
0.652887
0.681376
0.683203
0.69293
0.683914
0.668636
0.638
0.600753
0.557019
0.510102
0.453263
0.380435
0.319639
0.280161
0.263916
0.261459
0.269631
0.285051
0.306118
0.329161
0.351378
0.366945
0.369975
0.365189
0.348953
0.32118
0.253738
0.240047
0.166802
0.160056
-0.0122633
-0.00249805
0.000132474
-0.000455664
-0.000955179
-0.000720978
0.000204339
0.00123016
0.00266094
0.00326529
0.00290078
0.00204626
0.00145703
0.000737962
-0.000281653
-0.000927643
-0.000899811
-0.000571768
-0.00025714
-8.04391e-05
0.000216349
0.000315462
0.000402496
0.00053365
0.000390724
0.000276191
1.24668e-05
-0.000167298
-0.000321865
-0.00046139
-0.000310948
-0.000214223
0.00015405
0.000323349
0.00107899
0.00148221
0.00332431
0.00398546
0.00754589
0.00708166
0.000310012
-0.0644867
-0.301002
-0.345231
-0.335802
-0.326303
-0.324065
-0.319802
-0.307088
-0.288859
-0.269276
-0.242013
-0.221408
-0.200985
-0.184019
-0.169482
-0.151322
-0.139752
-0.123506
-0.113062
-0.0996577
-0.0918039
-0.0824029
-0.0768439
-0.0705229
-0.0662317
-0.059373
-0.0538557
-0.0461163
-0.0375438
-0.0291791
-0.0171605
0.00143229
0.0245787
0.0524136
0.085272
0.124945
0.1647
0.20372
0.25084
0.29484
0.347261
0.385277
0.443667
0.493759
0.554248
0.591413
0.633441
0.67834
0.687712
0.715312
0.721879
0.732003
0.732903
0.71664
0.69055
0.653212
0.609268
0.566604
0.515117
0.446969
0.371968
0.317963
0.294037
0.286069
0.289301
0.302346
0.321838
0.345316
0.370975
0.391441
0.400949
0.403397
0.394634
0.363929
0.294347
0.269956
0.18484
0.17954
0.0147823
0.00240215
6.28045e-05
0.000353585
0.000384899
-8.23458e-05
-0.000590161
-0.00149334
-0.00282747
-0.00340903
-0.00324411
-0.00229976
-0.00175462
-0.000839851
-0.000400743
0.000116416
0.00040457
0.000550047
0.000447603
0.000262878
3.66744e-05
0.000118603
7.23432e-05
3.96428e-05
8.23281e-05
0.000304773
0.000383755
0.000537823
0.00037701
0.000230267
-2.23402e-05
-0.000417708
-0.000749831
-0.00118519
-0.0018511
-0.00234776
-0.00305938
-0.0034083
-0.00457616
-0.00907491
-0.0450495
-0.235658
-0.406734
-0.358133
-0.324367
-0.318309
-0.322275
-0.320612
-0.316475
-0.309495
-0.294535
-0.266305
-0.247945
-0.221177
-0.205153
-0.182349
-0.166618
-0.149749
-0.132866
-0.119066
-0.103696
-0.0948214
-0.0843078
-0.0796874
-0.073301
-0.0702943
-0.0645355
-0.0594596
-0.0516449
-0.0442795
-0.0353355
-0.0202147
0.00183029
0.027752
0.0592589
0.100013
0.140376
0.188569
0.231617
0.282787
0.333417
0.39426
0.449533
0.504448
0.561459
0.600777
0.655194
0.681529
0.720969
0.729239
0.757183
0.764899
0.770816
0.775608
0.759497
0.735199
0.698141
0.656055
0.61731
0.571312
0.510467
0.428806
0.36308
0.328259
0.313946
0.311359
0.320951
0.338712
0.362394
0.389721
0.414793
0.429746
0.438878
0.43413
0.405882
0.342621
0.304449
0.20527
0.199716
-0.010393
-0.00138493
0.000757225
0.000601898
0.000165901
-7.30398e-06
0.000321051
0.000819909
0.00164496
0.00208361
0.00217334
0.00165025
0.00119592
0.000913068
0.000232556
-0.000126907
-0.000191354
-0.000157476
-6.58515e-05
8.03576e-06
0.000142146
0.000248438
0.000285637
0.00027765
9.05097e-05
-9.96997e-05
-0.000368266
-0.000525047
-0.000786753
-0.000852224
-0.000975659
-0.000996851
-0.00108692
-0.00116614
-0.00126681
-0.00137191
-0.00166104
-0.00282947
-0.00494772
-0.0133532
-0.0678387
-0.342618
-0.432107
-0.40997
-0.364501
-0.353892
-0.358197
-0.356978
-0.356697
-0.352558
-0.333275
-0.303397
-0.281943
-0.252577
-0.233259
-0.207503
-0.192557
-0.169325
-0.155171
-0.135405
-0.122601
-0.105894
-0.0960207
-0.0885448
-0.0812981
-0.0772905
-0.0700051
-0.063
-0.0554285
-0.0491409
-0.038281
-0.0224931
-0.000465829
0.0287031
0.0687348
0.113985
0.160803
0.210042
0.266386
0.323056
0.39535
0.45226
0.530457
0.574259
0.632542
0.657873
0.698932
0.721626
0.757858
0.773101
0.805852
0.813242
0.816835
0.816412
0.801326
0.774684
0.738947
0.700216
0.665034
0.622395
0.565381
0.489852
0.413263
0.366953
0.345165
0.335623
0.341233
0.356412
0.378732
0.406066
0.434003
0.455476
0.469221
0.467895
0.448015
0.395481
0.340408
0.225281
0.221199
0.0113884
0.00196827
-0.000725501
-0.000617181
-0.000497488
-0.000411366
-0.000560901
-0.00107085
-0.00177959
-0.00222446
-0.00207124
-0.00167651
-0.00123626
-0.000635363
-0.00036586
-4.73136e-05
0.000136617
0.00025282
0.000312858
0.000263806
0.000158307
0.000149391
0.000116489
0.000151428
0.000147886
0.00016205
0.000181647
0.00022815
0.000232916
0.000151755
-0.000212444
-0.000399746
-0.00082511
-0.001303
-0.00184137
-0.00270523
-0.00326204
-0.00379597
-0.00551382
-0.0120789
-0.0616246
-0.342604
-0.496412
-0.498308
-0.448746
-0.422693
-0.418296
-0.406289
-0.400344
-0.384192
-0.358852
-0.326667
-0.303986
-0.271731
-0.250239
-0.221834
-0.203416
-0.180025
-0.162507
-0.143741
-0.126607
-0.111165
-0.10097
-0.0923696
-0.0857187
-0.0805004
-0.0747051
-0.0675349
-0.0617556
-0.0550597
-0.0440961
-0.0262997
-0.000145145
0.0359534
0.0799948
0.128402
0.184627
0.238266
0.308514
0.381188
0.468775
0.529648
0.603131
0.634696
0.688479
0.713803
0.759898
0.782861
0.819044
0.838827
0.867824
0.87408
0.869595
0.857724
0.837077
0.80675
0.77081
0.735957
0.70513
0.668112
0.61832
0.549781
0.46761
0.408615
0.376808
0.36019
0.3606
0.373662
0.395071
0.422204
0.45167
0.478999
0.496884
0.501023
0.489572
0.445216
0.375069
0.249282
0.247002
-0.00681969
-1.11831e-05
0.00176297
0.00104957
0.000546374
9.79423e-05
0.00012873
0.00027978
0.000617551
0.000853219
0.000972681
0.000897291
0.000664137
0.00061648
0.000345688
7.04845e-05
-6.24753e-05
-8.25305e-05
-5.94336e-07
-1.13832e-05
-7.90553e-06
-5.77226e-05
3.08166e-05
-2.3612e-05
-0.000231158
-0.000519511
-0.00062887
-0.000808679
-0.00098468
-0.00114688
-0.0012963
-0.00141623
-0.00172797
-0.00179907
-0.0018254
-0.001994
-0.00215142
-0.00203913
-0.00319166
-0.00935197
-0.0577752
-0.339495
-0.566675
-0.581849
-0.537176
-0.501798
-0.49303
-0.468033
-0.457875
-0.430528
-0.402427
-0.365016
-0.337881
-0.301449
-0.272638
-0.239938
-0.214969
-0.187251
-0.164216
-0.142648
-0.125493
-0.110677
-0.0991892
-0.0917451
-0.0859192
-0.0805746
-0.0752213
-0.0685803
-0.0639001
-0.0575221
-0.0448671
-0.0254759
0.000137463
0.0408754
0.0892547
0.145754
0.207249
0.279437
0.370734
0.456773
0.557416
0.623698
0.694521
0.729698
0.771147
0.774868
0.806818
0.824976
0.848793
0.883407
0.918548
0.931935
0.920583
0.902012
0.874549
0.840452
0.803131
0.772331
0.743429
0.710854
0.665943
0.602678
0.520981
0.45173
0.40864
0.386649
0.381609
0.392143
0.411639
0.437908
0.467667
0.499168
0.521682
0.531815
0.525905
0.488227
0.412959
0.279706
0.276826
0.00703793
0.00151548
-0.000762206
-0.000696331
-0.000563265
-0.000472093
-0.000513772
-0.000658887
-0.000871832
-0.00120724
-0.00110848
-0.000920102
-0.000682144
-0.000289991
-0.000124807
-6.12677e-06
0.000116684
0.000168582
0.00031748
0.000331748
0.000226872
8.20785e-05
0.000103701
0.000323226
6.19518e-05
-0.000202807
-0.000216876
-0.000341217
-0.000450846
-0.000522814
-0.000563436
-0.000828942
-0.00105447
-0.00136262
-0.00167221
-0.00208926
-0.00241496
-0.00297401
-0.00438425
-0.0131512
-0.0849487
-0.453443
-0.635475
-0.642688
-0.606076
-0.56563
-0.549836
-0.517084
-0.498201
-0.462822
-0.432085
-0.392569
-0.361492
-0.323152
-0.291635
-0.257378
-0.228194
-0.196659
-0.172331
-0.149425
-0.132142
-0.113574
-0.100189
-0.0902971
-0.0849481
-0.0797835
-0.074549
-0.0702359
-0.0659563
-0.0598374
-0.0464663
-0.0242577
0.00585688
0.0482063
0.110153
0.18957
0.267782
0.378784
0.463154
0.569247
0.637919
0.723363
0.765999
0.820672
0.860599
0.867816
0.896768
0.914322
0.924186
0.92751
0.934009
0.951018
0.945578
0.931138
0.902682
0.867666
0.832681
0.806146
0.780137
0.752181
0.711595
0.652564
0.571963
0.492891
0.442305
0.416422
0.405955
0.412981
0.429843
0.454428
0.483383
0.516956
0.542573
0.55826
0.555625
0.528094
0.451251
0.31311
0.30889
-0.003364
0.000967947
0.001656
0.00105341
0.000465111
-8.8304e-05
-0.000209598
-0.000204884
-7.93808e-05
5.38841e-05
0.000225645
0.000294052
0.000321421
0.00031574
0.000225757
0.000132379
7.89394e-05
-5.75798e-05
-1.97469e-05
0.000121271
7.83231e-05
2.07936e-05
-0.000260332
-0.000256833
-0.000345312
-0.000649324
-0.000909656
-0.0012318
-0.00132472
-0.0012263
-0.00146123
-0.00160658
-0.00184329
-0.002115
-0.0026526
-0.00322381
-0.00341512
-0.00354622
-0.00526153
-0.0188344
-0.125891
-0.583295
-0.714532
-0.710314
-0.670889
-0.633094
-0.602381
-0.565207
-0.542329
-0.501043
-0.470406
-0.425592
-0.391331
-0.347353
-0.312499
-0.272181
-0.23589
-0.200347
-0.173759
-0.151227
-0.133884
-0.114087
-0.100761
-0.0898959
-0.0841807
-0.0794891
-0.0747337
-0.0685505
-0.0661794
-0.0606546
-0.0476847
-0.0197759
0.0314915
0.0954026
0.196824
0.307981
0.438718
0.535604
0.643518
0.701008
0.777654
0.82677
0.876966
0.882171
0.900106
0.911197
0.934504
0.96619
0.98363
0.985421
0.981646
0.989792
0.98308
0.965012
0.935033
0.892569
0.853232
0.828821
0.805013
0.781752
0.747615
0.696677
0.622242
0.539349
0.477869
0.446891
0.430224
0.432775
0.447638
0.470979
0.499031
0.532917
0.561445
0.581553
0.58391
0.56481
0.488463
0.350953
0.341613
0.00369915
0.00135341
-0.000179363
-0.000338862
-0.000223115
-0.000387997
-0.00041073
-0.000522237
-0.00053079
-0.000648435
-0.000616944
-0.000464027
-0.000294331
-0.000150037
-6.78908e-06
0.00011537
0.000192938
0.000200226
0.000220966
0.000353746
0.000348277
0.000257963
6.2197e-05
-0.00014257
-0.000294749
-0.000474086
-0.000604749
-0.000910052
-0.000937531
-0.00114121
-0.00134974
-0.00184691
-0.00227315
-0.00265095
-0.00309066
-0.00352131
-0.00385892
-0.00389608
-0.00707154
-0.0267707
-0.188174
-0.722279
-0.782264
-0.770842
-0.737063
-0.69551
-0.666965
-0.625121
-0.596531
-0.550371
-0.517132
-0.467999
-0.42995
-0.380792
-0.340734
-0.292094
-0.249679
-0.207982
-0.176077
-0.154024
-0.1353
-0.114197
-0.101525
-0.0888978
-0.0876834
-0.0830432
-0.0776534
-0.0611796
-0.0538562
-0.0330019
0.0188921
0.086833
0.202562
0.346637
0.454594
0.560592
0.63914
0.712986
0.750508
0.791644
0.822948
0.85967
0.883851
0.933552
0.97363
0.988648
0.995891
0.988854
0.989841
0.99794
0.996796
1.00223
0.994435
0.980009
0.956028
0.916017
0.87744
0.854085
0.832476
0.811635
0.781323
0.735198
0.664758
0.58021
0.51312
0.477515
0.456503
0.454531
0.46718
0.488483
0.514927
0.548068
0.578394
0.6027
0.607482
0.598528
0.525788
0.39172
0.371715
-0.00145317
0.00145941
0.00134749
0.000978256
0.000418788
-0.000199894
-0.000398671
-0.000493376
-0.000346192
-0.000245403
-0.000156798
-3.54896e-06
0.000114432
4.0717e-05
9.24007e-05
0.000146048
0.000185844
0.00013565
1.12403e-05
9.35943e-05
0.000211779
0.000145928
-0.00017294
-0.000729963
-0.000932189
-0.00104235
-0.00119063
-0.00147059
-0.00146196
-0.00166335
-0.00198678
-0.00254287
-0.00328563
-0.00390062
-0.00429099
-0.0044091
-0.00498352
-0.00611028
-0.0121317
-0.0445099
-0.298212
-0.816656
-0.815176
-0.806807
-0.783281
-0.753963
-0.72888
-0.690127
-0.656693
-0.605154
-0.564054
-0.506382
-0.46187
-0.405056
-0.359675
-0.304934
-0.256787
-0.21179
-0.175985
-0.156205
-0.136535
-0.113953
-0.0977043
-0.0786753
-0.0777
-0.0563671
-0.0228873
0.0363349
0.132407
0.211943
0.282395
0.374385
0.465344
0.569766
0.640218
0.694393
0.748389
0.78941
0.824415
0.844184
0.867927
0.885221
0.912623
0.93374
0.942324
0.961601
0.982777
1.0167
1.03019
1.03211
1.03154
1.02518
1.01452
0.9927
0.95585
0.921286
0.892318
0.872475
0.854327
0.837678
0.812943
0.772556
0.704821
0.620535
0.5491
0.50895
0.484721
0.477624
0.487603
0.506568
0.530958
0.562346
0.59313
0.619648
0.628301
0.628297
0.558014
0.434612
0.400575
0.00177709
0.000981334
0.000626971
0.00016069
0.000129074
-0.000177575
-0.000296799
-0.0005881
-0.000454307
-0.000415248
-0.000405835
-0.000310737
-0.000153862
-0.000102017
-1.84427e-05
0.000151023
0.000202627
0.000283255
0.000234582
0.000166571
0.000254144
0.000187532
-0.000119049
-0.0005056
-0.000878825
-0.00109305
-0.00110166
-0.00129523
-0.0014445
-0.00191363
-0.00243291
-0.00308838
-0.00366719
-0.00427559
-0.00491992
-0.0054423
-0.00603392
-0.00791379
-0.0171265
-0.0745233
-0.439175
-0.815015
-0.840331
-0.834649
-0.82409
-0.807959
-0.788636
-0.755114
-0.726267
-0.677141
-0.638212
-0.576069
-0.524297
-0.457449
-0.399633
-0.331539
-0.270987
-0.212912
-0.166676
-0.125087
-0.113693
-0.0797233
-0.0310922
0.0443099
0.121152
0.177215
0.242615
0.309689
0.395123
0.469592
0.498409
0.549283
0.602687
0.669126
0.71965
0.754929
0.784373
0.811441
0.834183
0.852261
0.865939
0.880324
0.894461
0.918279
0.93584
0.961123
0.982084
0.999905
1.00652
1.01462
1.01951
1.01574
1.00585
0.987607
0.963473
0.936735
0.912942
0.895051
0.878789
0.862555
0.838218
0.800356
0.738686
0.659677
0.584915
0.539261
0.511961
0.499978
0.506874
0.524004
0.546881
0.576813
0.607355
0.637275
0.647555
0.654148
0.586571
0.483019
0.430402
-0.000247628
0.00111307
0.00129082
0.000887193
0.000422656
-0.000135134
-0.000381995
-0.000509496
-0.000464151
-0.000323455
-0.000234389
-0.000184653
-6.63259e-05
1.07603e-05
1.17895e-05
0.000100252
0.000171198
0.000233341
0.000135418
-2.24186e-05
-4.97191e-05
-6.51436e-05
-0.000298257
-0.000603295
-0.00106732
-0.00161295
-0.00162731
-0.00158439
-0.00219599
-0.00312671
-0.00390826
-0.00421176
-0.00449972
-0.00497352
-0.00553024
-0.00575472
-0.00577374
-0.00780181
-0.0207459
-0.116181
-0.565646
-0.833528
-0.865678
-0.864138
-0.857501
-0.849053