/*--------------------------------*- C++ -*----------------------------------*\
| =========                 |                                                 |
| \\      /  F ield         | OpenFOAM: The Open Source CFD Toolbox           |
|  \\    /   O peration     | Version:  2.2.x                                 |
|   \\  /    A nd           | Web:      www.OpenFOAM.org                      |
|    \\/     M anipulation  |                                                 |
\*---------------------------------------------------------------------------*/
FoamFile
{
    version     2.0;
    format      ascii;
    class       volScalarField;
    location    "1.8";
    object      divBf;
}
// * * * * * * * * * * * * * * * * * * * * * * * * * * * * * * * * * * * * * //

dimensions      [1 -3 -2 0 0 -1 0];

internalField   nonuniform List<scalar> 
14161
(
5930.97
-1845.68
592.915
512.169
231.148
-137.169
-398.622
-609.558
61.879
519.587
764.62
827.505
840.954
1084.84
687.419
12.1599
-301.967
-268.595
-310.061
-323.932
-238.481
-152.879
-68.6686
-156.009
-175.642
-364.941
-486.738
-706.932
-757.33
-934.358
-1064.5
-1056.66
-974.439
-771.741
-524.913
212.61
1892.83
4820.41
11891.6
14141.3
73328.5
-78288.2
17207.3
22499.9
826.073
-27887.9
-37225.2
-35348.9
-36401
-36459.4
-36484.1
-34698.3
-33412.1
-33381.7
-32207.2
-31172.3
-30130.7
-29212.6
-28252.3
-27128.8
-25633.8
-24223.7
-22479.7
-22152.9
-20781.5
-18307.2
-14982.1
-14309.5
-15034.9
-13102.1
-8489.86
-5292.27
-4500.58
-6714.85
-5627.88
5016.16
6890.51
-1068.45
-3854.74
11850.9
13816
7464.61
69.2142
14335.9
17412.2
14720.6
13255.4
12652.4
14225.8
18787.1
11482
14980.6
12871.7
8195.6
831.144
4740.46
-1643.01
-3358.21
-4969.36
-4354.77
-4852.09
-5938.42
-6275.09
-7421.84
-9107.49
-9810.12
-9441.71
-12879.4
-11374
-13278.4
-12157.4
-13369.1
-10514.1
-12034.6
-6872.46
-7439.47
-736.437
-1440.4
4882.21
-12433.3
6864.6
364.063
90.8117
335.074
2045.02
3989.04
4945.9
2386.16
516.472
-550.128
-1649.76
-2589.56
-4005.26
-3064.83
-1051.56
-235.215
681.809
1057.45
818.997
263.264
-325.28
-737.804
-1021.42
-1363.56
-1602.31
-1390.81
-1250.47
-1004.98
-917.642
-854.185
-953.244
-1159.73
-1309.55
-1558.19
-2021.11
-2305.88
-2922.99
-3371.65
-6218.18
-4039.94
-27644
-31462.9
707.282
-8741.19
-16717.3
-25790.1
-24727
-25640.5
-24539
-28022.2
-27283.4
-26586.7
-26542.3
-26556.8
-26272.5
-25703.9
-25052.5
-23996.6
-23206.5
-22758.1
-21852.8
-19630.3
-18151.8
-15780.1
-15352.3
-16669.8
-14147.4
-9924.05
-3399.04
-5546.57
-10726.7
-13556.9
9336.66
18395.7
-5477.86
-35446.8
29068.9
46292.9
7749.48
-64976.9
38404.9
67922.4
17846.4
-42379.5
19284.8
36164.3
9382.25
3046.88
22215.9
16075.8
-8262.47
14236
14637.1
10449.1
-1069.05
1447.34
5990.71
2660.13
-1086.03
-1501.86
1194.15
1322.25
-9467.38
-2113.01
-3008.93
-8972.42
-5986.98
-7416.17
-8237.08
-6424.66
-8792.48
-4711.86
-7162.21
-2581.49
-3978.07
686.746
-2071.43
2062.03
26939.4
-10408.2
-344.553
721.679
-611.245
-3210.19
-5987.98
-7991.8
-5463.24
-1135.91
206.437
2377.6
4094.86
5686.63
4495.43
1721.33
-716.964
-1776.77
-2617.57
-2923.17
-1921.66
-1214.09
-1015.36
-603.588
-221.084
-211.764
-843.181
-1389.74
-1841.81
-2245.81
-2533.17
-2731.61
-2733.98
-2587.15
-2413.24
-2312.62
-2422.77
-3237.43
-5143.32
-9728.4
-16380.2
-750.078
-49360.7
4182.69
-15106.6
-19644.7
-32713.2
-28119
-29811
-33570.8
-23573.6
-26590.4
-27149.6
-26446.1
-25836.1
-25023.1
-24289.5
-23572.3
-22467.1
-21280.4
-20087.7
-18537.3
-17721.5
-16047.3
-16105
-13107
-11064.3
-9245.46
-8955.25
-10036.6
-6424.76
1741.98
7963.95
-5270.14
-22238
22794.7
36783.4
-478.755
-53438.7
41797.3
84711.2
8886.83
-89537.5
42650.9
101138
24941.6
-34374
32239
49311.3
-19506
24739.4
46343
-1970.94
-5096.34
11342.5
13426.9
5537.93
1223.75
-2133.68
4986.91
5007.86
-12335.1
3320.21
7196.8
-12206.8
-2939.2
-997.735
-6318.95
-3559.96
-4588.54
-2890.15
-5267.26
-1197.08
-3242.15
394.833
-2284.21
1688.78
-1639.8
1711.42
-32527
14206.6
142.228
-829.189
197.873
3605.66
6816.04
9455.07
6160.79
1030.03
-1248.13
-3477.74
-5862.99
-7779.03
-6611.34
-3287.14
-864.572
660.996
1511.58
1387.26
220.857
-685.615
-1335.65
-1977.88
-2655.07
-3054.22
-2556.11
-2063.29
-1651.67
-1344.93
-1165.63
-1175.93
-1457.44
-1802.05
-2264.83
-2881.08
-3620.77
-4789.13
-6025.14
-8764.36
-9458.41
8288.86
-27066
-446.173
-16231.6
-21107.8
-27576.2
-24291.4
-22896.1
-27225.4
-24484
-25151.2
-25616.9
-25663.6
-24584.9
-24464.1
-22826.7
-22456.1
-20685.4
-19891.7
-17822.1
-17794.2
-16161.7
-15633.1
-13392.2
-11014.9
-10727.7
-8931.81
-8592.65
-5472.49
-1594.78
-3670.75
-9330.79
7879.43
19454.9
-1005.18
-14749.8
34219.5
49653.4
-4765.46
-35141.6
54399.7
73295.8
22284.8
-67608.4
37335.4
67733.3
2992.58
3071.64
43612.1
9743.14
-12606
23392.5
36460.1
-11324.6
-8527.43
7509.61
18532.4
2120.55
-10665.2
4052.65
13950.7
-14940.5
-1726.75
4971.53
-5517.89
-3752.86
-2616.57
-1245.14
-5232.73
-1170.09
-2803.58
-370.355
-2925.74
817.024
-2427.2
1295.83
-2056.24
1337.31
42880.9
-17647.7
-1198.11
200.649
-1185.54
-4826.02
-8545.42
-11775.8
-8529.78
-2957.64
-255.308
2966.13
5334.43
7203.1
6110.37
2282
-1234.44
-2348.92
-3919.22
-3921.57
-2869.61
-2055.13
-1676.2
-1020.02
-498.66
-291.889
-1085.37
-1987.54
-2438.85
-3239.15
-3764.23
-4084.99
-4127.46
-3962.99
-3856.02
-3731.05
-3845.84
-4538.07
-5460.67
-6662.15
-4960.82
-1258.8
-32949.3
-7330.86
-14560.4
-20091.6
-25452
-25489.6
-27448.4
-25066.9
-25340.7
-25473.6
-25674
-23629.4
-24105.8
-22513.4
-22140.6
-19792.6
-19853.9
-17855.5
-16709.6
-15438.2
-12592.9
-12792
-10083.7
-9261.56
-8534.68
-6076.33
-3663.88
-2546.84
-2224.87
-1719.41
2430.78
8868.38
3858.46
-2541.51
23076.3
24252.6
-12195.8
16277.3
47326.8
33942.8
-13934.8
34209.3
65213.3
35736.6
-1823.31
30986.4
41017.7
2799.48
23885.6
49379.1
-2657.94
-1840.97
21710.9
23181.9
2257.69
-10423.1
3624.41
13882
-3211.19
-4338.92
6928.67
3546.49
-7701.66
-247.912
500.323
-4475.77
-2646.46
-2339.55
-781.412
-3184.32
650.522
-2288.52
1175.29
-2019.21
1308.38
-1943.99
1484.59
-47990
20627.3
77.865
-1196.56
-301.676
3593.37
7471.87
11014.5
7951.31
1916.54
-1551.13
-4217.88
-6758.3
-9024.38
-8197.83
-4409.18
-1302.55
-122.874
1175.4
1397.77
-3.47415
-1038.13
-1769.41
-2502.51
-3305.59
-3864.14
-3327.45
-2687.9
-2183.93
-1784.22
-1348.4
-1234.98
-1331.85
-1660.81
-2212.2
-2644.07
-3175.72
-3931.05
-4319.03
-5436.81
-3730.58
-17895.7
-25574.9
-15151.2
-18011.8
-27471.7
-26488.5
-26815.5
-26065.7
-23753.9
-23481.7
-22830.7
-19499.9
-20706.3
-17381.7
-17754.2
-16225.6
-15714.5
-15777
-14732.8
-13545.7
-13089.3
-11060.1
-10353.8
-8588.63
-7122.28
-5661.84
-4316.23
-2771.44
-2116.12
-122.785
2758.87
3772.42
2507.12
5941.07
14624.9
9298.7
1288.76
18229.9
31276
4564.99
13998.3
30597.6
35735.2
1679.15
27642.9
36583.4
32809.3
19078
31750.6
23691.7
3915.93
27644.5
31040
9040.77
3250.8
6035.35
11425.1
6897.43
-2898.11
4302.05
7628.09
-4214.13
-4536.86
6132.7
-789.446
-6660.61
1173.66
-1536.53
-4004.65
-55.9534
-2941.39
504.95
-2543.14
875.587
-2419.31
1290.06
-2324.87
1554.69
53140.5
-23225.7
-2186
-596.463
-1419.36
-4973.47
-8891.91
-12537.4
-10101.8
-4179.2
-830.251
2121.63
3959.69
6772.15
5917.16
2078.37
-1401.59
-2519.41
-4187.89
-4383.9
-3491.17
-2623.01
-2192.31
-1617.79
-1098.85
-785.62
-1492.41
-2473.7
-2992.88
-3856.54
-4611.08
-5066.9
-5290.05
-5117.25
-4712.09
-4191.35
-3636.39
-3150.12
-1912.49
-2208.48
327.7
-45098.3
-62683.6
14346
-1006.56
-11834
-13946.8
-12281.9
-13237
-14660.1
-15182.1
-14275.3
-16470.6
-15423.1
-16229.1
-15199.6
-14653.9
-14157
-12981.6
-11728.5
-10766.4
-10405.6
-8545.55
-8348.93
-7192.56
-5336.55
-4490.28
-2878.7
-1449.53
-306.262
2907.79
2191.18
3744.08
7110.3
9567.15
9297.19
10266
19321
14433.3
16815.9
18538.6
25636.2
19914.7
23390.4
23662
31958.4
23694
30342.8
28847.2
28402.5
25856
32220.5
25338.4
11799.7
22753.5
21435.2
14271.6
4254.63
3267.84
8805.19
3764.25
-4180.7
3053.17
6401.03
-2892.66
-2700.74
3674.39
-3535.32
-1729.44
-750.816
-1254.69
-3016.19
594.533
-2402.89
1035.23
-2475.61
1481.05
-2424.2
1748.66
-56716.7
24901.2
827.444
-1287.36
-894.398
2657.32
6364.83
10046.7
8299.79
2525.25
-1553.35
-3902.49
-5699.31
-8311.67
-7925.39
-4741.79
-1863.18
-813.442
606.143
678.108
-275.814
-1251.39
-2052.98
-2597.85
-3342.06
-3995.87
-3804.74
-3181.97
-2669.51
-2257.41
-1656.94
-1339.19
-1242.79
-1400.06
-1772.2
-2120.42
-2583.18
-2466.66
-1327.51
-1172.72
-5237.53
-103593
-92075.2
-541.885
16441.3
-6404.05
-4532.26
-7187.36
-7457.69
-8372.21
-9222.59
-9040.45
-10944.3
-11452.3
-11430.9
-11454.2
-11121.9
-10321
-9655.74
-9205.13
-8584.62
-7185.63
-6625.32
-5543.71
-4101.19
-3296.28
-2342.8
-101.026
2318.76
3040.72
2988.54
5041.58
7648.27
7585.78
9086.54
13533.4
15150.2
17112.6
18950.7
20984.5
21043.1
22393.8
22321
26430
21290.1
28799.9
25600.8
32639.5
25435.1
29104.2
26257.2
24794.5
23887
23978
24344.6
16096.6
16465
13796.5
10396.3
4366.38
3732.38
7850.62
3266.78
-1658.85
374.103
2025.09
-1326.16
-1522.51
-686.949
-2889.46
-756.241
-1833.61
-343.825
-2694.89
664.319
-2651.47
1247.57
-2619.37
1794.75
56172.3
-26063.9
-3302.52
-1130.16
-1575.3
-4612.3
-8000.8
-11232.4
-10220
-5109.59
-1556.11
132.481
2256.25
4486.65
4260.9
1227.14
-1515.61
-2517.37
-3875.73
-4161.18
-3723.52
-3108.68
-2592.71
-2253.63
-1768.73
-1416.08
-1958.45
-2782.85
-3312.53
-4123.35
-4967
-5643.46
-6102.58
-6174.49
-5664.48
-5015.47
-4218.58
-3477.96
-1832.99
-1433.84
-3720.72
-66328
-81907.7
153.153
7813.03
3891.85
-1109.26
-2234.07
-3327.02
-7158.49
-7734.86
-10530.4
-9492.01
-10981.6
-9682.63
-10191.5
-8724.75
-9220.98
-8126.06
-7359.94
-5908.01
-5257.72
-3796.91
-3429.61
-2437.51
-1032.36
272.619
810.746
1126.05
1314.39
5721.05
5226.86
7166.51
8611.9
10228.7
12022.5
13487.8
15508.6
18429.4
19839.3
20397.1
21167.9
20440.9
23969.3
22621.3
28760.5
26596.8
33628.8
24586.8
33173
29429.2
25833
27037.9
21197.9
22764.2
18958
20959.4
17228.9
14365.3
10939.7
8293.85
2937.89
3531.8
3142.68
1953.74
-611.168
80.0554
-338.44
-1154.4
-1377.28
-818.774
-2518.73
167.785
-2479.02
725.532
-2889.49
1292.59
-2767.66
1914.48
-55306.9
25313.6
925.399
-1714.33
-1376.74
1973.67
4545.89
7443.86
7153.87
2558.87
-1468.83
-2528.31
-4536.02
-6706.64
-6432.79
-4298.81
-2319.89
-1576.73
-481.45
-193.816
-643.603
-1495.7
-2278.95
-2726.44
-3430.44
-4034.42
-4068.02
-3643.38
-3141.32
-2834.08
-2200.5
-1814.93
-1474.18
-1292.19
-1720.05
-2571.34
-3165.78
-3817.33
-3678.04
-6359.65
-981.041
-28239.8
-26859.7
-39823.7
-31239.5
-24226
-25605.9
-23075.1
-21420.2
-20306.3
-16898.8
-17600.2
-14489.1
-14765.9
-11141.1
-12050.9
-10234.2
-10551.9
-8895.14
-7846.27
-5345.07
-4890.88
-4061.59
-3122.43
-975.78
211.237
1186.34
2430.54
4296.38
5350.25
6099.49
6705.06
9631.62
10329.7
11933.5
14222.5
15464.4
16969.8
18565.9
20380.8
22134.3
24559.8
22639.1
24989.9
25392.9
28526.6
24714.6
30203.1
24919
28761.7
28486
23727.5
26463
19985.1
23325.7
17885
20194.6
17178
14867.6
11373.5
8313.14
6751.29
4732.02
2569.87
2790.99
854.547
579.684
-501.095
-651
-1181.74
-1365.36
-2178.2
-710.981
-2884.67
315.296
-2974.66
1011.37
-2946.7
1863.97
50804.1
-25939.8
-3901.64
-1511.28
-1789.48
-4349.29
-6689.98
-9246.96
-9062.63
-5320.05
-2231.73
-1340.78
642.709
2259.07
1866.69
294.996
-1442.33
-2445.5
-3238.49
-3646.22
-3549.03
-3142.03
-2788.53
-2581.93
-2218.73
-1992.46
-2220.78
-2862.9
-3419.16
-4155.31
-4972.44
-5746.79
-6569.75
-7159.5
-7501.57
-7721.35
-6941.62
-7129.33
-6618.32
-6768.79
-1165.63
14941
-31593.8
-16999.9
-29912.1
-26451.8
-24810.1
-24533.9
-23820.4
-22239
-19009.6
-17885.1
-13175.9
-14684.4
-12139.4
-13213.8
-10996.6
-9894.48
-7545.62
-7190.56
-6367.76
-4832.34
-4413.46
-3671.63
-1481.39
-390.65
891.955
2372.04
3560.92
4183.99
6189.59
7457.24
8906.04
10295.4
11364.6
13882.6
14488.1
16084.2
16334.5
17840.7
18291.3
21661.5
22239.9
26257.4
26220.3
30721.6
27812.3
33201.5
28029.7
29145.2
29851.5
24526.7
28321.3
21539.8
23927.5
18582.9
19711.4
18037.9
17497.4
14378.8
12164.9
7823.92
5959.72
4107.9
2646.69
1123.15
778.64
-328.148
-420.911
-1497.78
-972.459
-2192.64
-937.446
-2694.93
364.307
-3107.7
1214.17
-3062.31
1847.53
-44726.1
21597.9
815.387
-1530.79
-1409.07
671.845
2258.26
4300.93
4690.64
1930.12
-1019.14
-2252.6
-3414.16
-4695.08
-4827.24
-3536.48
-2546.56
-1936.37
-1613.44
-1285.95
-1542.04
-1912.9
-2351.05
-2958.95
-3701.01
-4067.92
-4268.91
-3930.59
-3607.99
-3419.06
-2990.03
-2517.13
-2119.78
-1857.87
-1800.12
-2529.87
-3338.32
-4133.46
-4936.58
-6544.77
-1985.72
17659.6
-33825.7
-23862.9
-41112.5
-33246.2
-32203.8
-26240
-25772.7
-24214.5
-21899.2
-20312.1
-17419.2
-17438.7
-12962.3
-12415.9
-9888.16
-9807.49
-6991.63
-6238.01
-3928.39
-2416.56
-553.556
209.919
1516.63
1858.16
2879.82
3342.86
4877
5447.36
6807.84
7696.74
9870.9
11750.8
13626.5
16520.5
18102.1
20332.9
20905
23129.3
22462.7
24917
22888
27148.5
26811.5
30490.9
25156.4
30067.5
29129.5
24244.6
27463.7
21792.4
26561.2
21091.1
23140
19183.9
18553.3
17587.6
17446
16121
12122.1
8038.35
6305.79
4306.07
3279.71
1658.05
1395.76
-48.0842
-46.9755
-1022.76
-882.264
-2108.24
-1063.56
-2412.03
88.115
-3205.32
1165.15
-3317.12
1714.85
38924
-22330.1
-4948.92
-2319.61
-2193.74
-3557.08
-4761.78
-6476.18
-7038.43
-4758.88
-2468.75
-1689.87
-965.376
-146.291
237
-548.87
-1750.1
-2356.89
-2618.91
-3000.08
-2980.82
-2873.58
-2874.13
-2784.49
-2272.03
-2153.53
-2316.52
-2843.03
-3456.51
-3911.43
-4661.99
-5520.15
-6294.92
-7115.75
-7459.9
-8073.43
-8004.19
-8439.56
-8256.6
-9644.44
-6577.79
-16490.5
-21330
-16410.9
-22805.2
-22044
-26832.4
-24201
-22842.8
-22731.9
-24048.1
-19549.8
-18476.9
-16235.7
-14992.7
-12552.1
-8981.4
-9496.72
-5498.68
-5840.9
-2706.95
-2152.71
-182.554
-230.648
647.752
1899.13
2611.53
4114.01
5115.67
6681.71
8347.87
10146.9
11540.8
13465.1
15340.8
17583.6
20888.1
21042.6
22273.9
24866.5
24228.9
28297.6
25410.7
31074.4
30516.6
33219.7
29711.5
28559.7
30973.2
23952.7
25127.5
20800.8
23960.3
21461.7
21541.6
20313.7
18768.7
17153.3
16825
15755.8
14345.2
10340.6
7362.19
4938.43
3763.14
2137.76
1564.58
443.155
123.649
-856.763
-604.635
-1773.55
-796.82
-2183.46
-6.28131
-2991.43
918.462
-3487.23
1536.19
-30387.6
15336.5
1019.74
-1525.79
-1743.18
-699.543
151.939
1334.74
2257.57
230.778
-1059.3
-2132
-2727.1
-3436.38
-3635.01
-3220.77
-2569.18
-2591.74
-2277.05
-2199.67
-2299.38
-2606.7
-2906.71
-3120.09
-3456.67
-3910.22
-4165.84
-4110.27
-3947.06
-3725.18
-3662.47
-3320.15
-2919.81
-2794.49
-2976.38
-2277.72
-3060.42
-2809.89
-2892.77
-5704.24
-1880.78
-71430.4
-75133.1
-10877.5
-4141.16
-4946.68
-9999.91
-9925.46
-12199.1
-12134.5
-14711.5
-10481.8
-12133.5
-7830.48
-9296.68
-4900.57
-5604.53
-3534.44
-2567.85
-1593.01
-280.85
280.151
1961.98
2615.56
3460.2
4542.58
4902.21
7322.67
7547.14
9557.03
9917.91
11546.9
13480.1
15798.3
17589.1
20692.9
24240.1
25250.2
27344.3
29985.4
29169
34348.6
31579.2
33214.3
33256.3
30521.3
30483.8
25365.4
25276.2
19877
21410.4
19339.4
20004.6
19590.7
19088.2
18265
17417
16152.6
15925.5
15500
15294.1
11442.5
8237.99
5791.69
4463.39
2631.43
2089.71
1012.16
474.616
-432.043
-339.353
-1417.36
-601.314
-2085.1
-451.29
-2941.32
690.329
-3579.44
1432.21
24580.5
-16962.8
-4602.46
-2453.53
-2222.01
-2802.65
-3404.39
-4224.1
-4860.88
-3593.07
-2494.43
-2116.52
-1573
-1173.35
-1101.28
-1459.31
-1745.32
-2000.22
-2399.95
-2593.1
-2755.04
-2801.47
-2841.37
-2843.72
-2685.22
-2613.16
-2644.01
-3012.22
-3411.95
-3885.73
-4273.96
-4756.62
-5211.61
-5589.87
-5939.05
-5639.56
-5646.39
-5046.44
-4889.38
-7404.67
-7580.94
-100582
-39418.1
-9762.55
-9961.35
-4860.58
-7945.01
-6371.97
-10800.8
-16516.8
-18477.2
-16190.3
-17878.9
-12828.1
-13337.7
-8247.29
-9156.77
-6913.26
-5433.41
-2385.71
-2970.44
425.045
575.638
2353.44
3306.91
4189
5821.86
6938.85
8280.55
8617.26
10518.8
12045.2
14280
15990.2
19066.7
19886.3
26488.6
22027.7
34649.8
26679.8
39309.3
32111.7
46136.4
36498.5
44221.6
25183.5
35240.3
23959.3
28787.5
24673.3
26855.2
21967.1
20102.3
19264.8
18199.5
16886.5
16290.2
15853.8
15150.6
14738.2
14581.3
12767.8
10004.6
6838.42
5280.17
3281.64
2549.61
1330.21
847.452
-181.768
-241.965
-1154.6
-545.025
-1952.86
-810.419
-2516.53
264.725
-3659.38
1313.21
-17091.3
8735.65
64.3558
-1785.86
-2042.62
-1646.32
-1214.22
-608.95
-73.8414
-773.33
-1523.19
-2150.01
-2407.55
-2769.1
-2921.43
-2806.11
-2646.77
-2599.88
-2468.77
-2502.78
-2573.39
-2747.19
-2951.6
-3150.89
-3369.39
-3641.55
-3877.25
-4032.44
-3994.05
-3926.8
-3972.54
-3883.59
-3817.65
-3703.55
-3682.85
-3859.64
-3868.89
-4295.82
-3950.32
-6389.33
2014.72
-49254.4
-42851.9
-31700.5
-32383.5
-18761.2
-18953.9
-17004.7
-19526.3
-16400.5
-13676.8
-10682.6
-11389.5
-9312.27
-8800.75
-7617.07
-6513.67
-3831.3
-5116.17
-1806.47
-1489.57
1914.83
3313.79
4241.83
5436.16
7257.44
7485.13
8946.11
8974.89
10693.4
10038.7
13751.6
13296.9
17347
18983.8
23013.8
25828.1
25803.8
31931.1
32276.3
43812.3
36270.3
43408.4
34938.5
34430
31274.5
27250.4
25089.9
25226.7
23190.8
25228.8
20719
21094.8
15193.1
16021.4
12908.7
13529.9
13150.9
13172.3
13290.7
13501.2
12619
10703.9
7615.53
5865.73
3824.12
2867.5
1722.89
1140.32
291.045
-114.815
-680.235
-525.676
-1661.76
-969.609
-2237.65
-121.055
-3674.85
1070.16
13161.3
-11570
-4175.7
-2403.72
-1921.34
-2247.63
-2460.72
-2930.76
-3277.88
-2824.15
-2438.09
-2179.52
-1902.63
-1790.95
-1732.68
-1867.41
-2046.6
-2218.68
-2382.95
-2537.65
-2656.59
-2761.82
-2838.69
-2892.41
-2940.96
-2970.47
-3025.19
-3248.18
-3526.85
-3829.55
-4151.58
-4444.62
-4813.16
-5047.05
-5301.19
-5583.55
-6071.96
-5983.74
-5399.61
-6713.93
41.2941
-29330.2
-48117.3
-37165.3
-49725.5
-35925.6
-36276.8
-29189.9
-28441.5
-18656.9
-20576.7
-15216
-16623
-12821.3
-10704.8
-7155.61
-4469.64
-2139.34
1180.98
2156.49
4206.8
4380.8
5579.16
6466.13
7112.48
8543.39
8728.2
9644.14
10061.5
10622.2
12079.8
13016
14906.1
16572.7
20494.3
20964
27648.2
27345.2
38053.8
37699.8
47032.8
43506.7
43858.4
36294
34376.7
31310.4
29354.4
27691
23976.8
24700.7
27588.3
26167
22979.9
18211.4
16907.3
13363.3
13993.2
12750.8
13261.7
12950.7
12749.1
12736.7
11530.5
8123.2
6170.05
4133.82
3276.83
2123.31
1495.43
530.062
-3.1209
-416.144
-584.379
-1298.02
-1044.92
-2015.85
-761.271
-3501.89
794.091
-8120.75
3582.2
-962.243
-2152.03
-2339.6
-2141.52
-1799.77
-1660.85
-1400.45
-1506.04
-1856.1
-2113.85
-2292.06
-2435.79
-2552.11
-2562.86
-2568.42
-2558.69
-2552.5
-2597.33
-2654.86
-2774.55
-2914.9
-3076.3
-3233.91
-3406.54
-3581.75
-3737.97
-3859.88
-3919.73
-3992.87
-4155.1
-4257.19
-4373.9
-4503.75
-4559.76
-4572.55
-4906.21
-5010.33
-6943.99
-2920.09
-39116
-57066.4
-32177.9
-47169.3
-33758.9
-36100.7
-27237.2
-26120.8
-17704.3
-19632.9
-13476.5
-13139.8
-8820.48
-7863.06
-5069.74
-3157.21
443.525
1608.85
3807.66
4345.23
6158.28
7204.89
8739.5
9175.44
9983.07
10678.1
10861
11367.3
11619.4
13415.3
15935.9
15476.6
19924.3
18876.4
27263.2
26071
37305.2
35643.5
46531.8
37031.2
45763.6
35387.7
41732.2
39095.5
32090.7
26691.5
24350.2
16782.1
17859.7
9179.09
15125.2
10839.4
13256.2
10374
10846.9
11160.9
11562.9
12032.1
12357.4
12514.1
12262.1
11014.4
8307.79
6073.24
4378.69
3190.42
2162.68
1581.46
803.026
377.563
-108.984
-692.863
-1129.01
-1270.09
-2084.53
-1242.81
-3534.32
780.969
5689.68
-7239.46
-3158.92
-2305.98
-1901.6
-2066.51
-2222.87
-2334.28
-2464.33
-2410.17
-2346.3
-2203.89
-2118.19
-2030.09
-2056.75
-2106.27
-2205.4
-2309.6
-2458.71
-2557.51
-2648.78
-2735.44
-2862.89
-2880.73
-2998.6
-3105.66
-3254.1
-3417.4
-3608.03
-3821.05
-4099.63
-4339.06
-4563.65
-4798.19
-5000.59
-5193.33
-5339.21
-5664.27
-5689.09
-8153.01
-16021.2
-82202.8
-47791.6
-26735.2
-29184.9
-24041.9
-15316.9
-12903.2
-11664.2
-8031.22
-10967.2
-8210.91
-8999.37
-7663.68
-7155.1
-5965.87
-759.483
2079.67
3117.85
3375.89
5728.03
6241.09
8114.21
9187.3
10528.3
10568.2
11886.4
12957.3
12356.6
13549.4
13973.7
16036.4
20452.7
21406.2
30266.1
37929.2
45327.5
51146
50673.9
44246.4
38747.3
38075.7
29667.3
29974.3
21265.8
25293.8
21680
28322.6
25995
20049.7
9662.45
15296.4
10944.8
13885.7
11613.6
10129
9297.69
9051.22
9295.86
9710.61
10424
10859.2
11102.6
9193.18
7134.29
5699.18
4283.44
3081.34
2194.06
1249.93
463.701
142.91
-653.983
-801.334
-1221.18
-1757.63
-1336.96
-3068.4
-267.016
-3306.14
174.921
-1702.26
-2218.3
-2429.28
-2284.28
-2124.5
-1968.25
-1896.34
-1897.05
-2012.15
-2117.92
-2214.7
-2291.1
-2332.13
-2397.2
-2454.52
-2495.27
-2542.89
-2558.15
-2655.81
-2753.38
-2876.93
-2969.75
-3070.57
-3230.36
-3376.49
-3530.67
-3629.18
-3812.02
-3966
-4080.4
-4252.31
-4486.69
-4756.08
-5060.95
-5276.91
-5461.07
-5904.59
-8630.52
-20354.8
-78443.5
-52321.8
-33203.1
-43038
-26953
-28581.8
-22466.6
-21913
-16613.4
-17045.8
-12577.3
-12105.3
-8634.13
-6681.75
797.219
-957.639
6313.27
6261.45
6692.83
7712.72
8814.48
9441.43
9948.91
10445.1
11072.9
11732.3
13889.9
14564.2
16198.1
19552.5
24787.5
34717.8
47713.6
57914.8
65875.2
65828.3
60009.6
47939.6
31562.4
25476.6
12931.5
15866.8
10019
11401.6
14781.5
12895.2
8745.14
6877.14
7668.75
8418.68
7574.07
5466.25
6334.59
7386.52
7903.89
7528.22
8105.16
8602.89
9010.67
9371.26
9761.26
9928.8
8942.62
7060.82
5459.71
4068.66
3003.81
2237.53
1552.9
732.073
340.312
-748.311
-642.358
-1336.32
-1607.17
-1860.63
-2808.56
-679.658
1972.2
-4556.5
-2597.9
-2269.41
-2027.13
-2032.82
-2111.17
-2161.25
-2208.47
-2233.9
-2224.24
-2167.27
-2161.53
-2130.81
-2152.58
-2207.81
-2274.7
-2359.56
-2451.3
-2506.07
-2601.18
-2702.06
-2782.25
-2904.48
-2964.87
-3092.89
-3257.02
-3391.91
-3577.76
-3789.64
-3962.76
-4183.28
-4365.15
-4590.78
-4712.91
-4832.58
-5064.3
-5224.26
-6049.99
-7400.51
-35202.4
-63654.3
-25843
-22675.7
-28576.6
-23648
-25411.9
-22645.8
-21125.5
-18178.1
-17272.5
-13499.7
-11273.3
-7263.99
-4731.33
-1036.91
2823.4
2988.28
6699.29
5642.47
7964.36
9004.43
10543.9
11961.5
10346.4
13290.4
16028.3
24544.7
30503.3
44056.5
58451.3
73164.8
88172.8
98540.5
84262.2
63432.5
39998.9
28089.8
12536.1
8396.1
-4125.89
-4833.07
-13368.3
-4668.39
-5079.01
483.309
1412.51
2707.42
1799.75
4605.84
4841.97
4279.1
2678.73
3574.03
2289.16
4419.61
5648.96
6327.99
7259.86
7372.21
8484.47
9172.66
9198.87
8327.05
6960.08
5578.11
4487.84
3228.04
2557.46
1733.18
818.918
452.28
-498.476
-185.208
-1426.67
-1034.04
-1842.55
-2509.22
-453.295
-1200.58
-1473.23
-2082.72
-2274.48
-2368.63
-2241.62
-2140.63
-2061.05
-2025.74
-2030.8
-2069.89
-2103.75
-2144.43
-2193.31
-2230.7
-2284.29
-2347.81
-2389.39
-2456.94
-2508.87
-2575.22
-2676.78
-2773.03
-2863
-2969.86
-3087.32
-3226.73
-3374.26
-3520.67
-3711.21
-3843.01
-3982.88
-4121.06
-4379.81
-4607.96
-4762.48
-5028.11
-5215.07
-7026.83
-8689.44
-66363.1
-21411.9
-24387.7
-20969.2
-29943.2
-25136.8
-28339.3
-29072.1
-28411.6
-23653.4
-21132
-14785.8
-12744.8
-7185.38
-7280.54
-3687.77
-296.691
6666.71
10199.4
10354.8
12502.9
13760.1
19073.2
28154.4
32803.2
48633.1
60833.6
80999.3
104610
118843
100031
86677.8
65109.5
42655.5
32234.1
19761.8
11564
2958.39
1225.13
-2512.77
-4717.7
-8606.81
-10727.3
-13782.3
-17368.2
-16673.6
-14564.6
-6168.11
-1648.14
-1901.48
-247.011
-1226.08
-263.223
128.452
640.741
2810.25
5584.12
6019.59
6763.24
6557.66
6754
6925.85
7847.32
7929.31
7221.78
5836.78
4803.97
3675.36
2849.35
2056.52
1182.57
804.265
-380.37
104.312
-1544.42
-810.61
-2328.13
-1973.25
-1415.27
553.331
-3238.09
-2411.6
-2260.32
-2088.29
-2028.66
-2059.58
-2102.18
-2102.72
-2103.01
-2120.52
-2108.71
-2098.11
-2127.56
-2166.61
-2194.38
-2244.79
-2295.12
-2375.63
-2461.57
-2510.62
-2590.29
-2680.71
-2769.86
-2915.25
-3008.54
-3131.67
-3272.44
-3508.17
-3597.36
-3775.06
-3933.04
-4104.68
-4260.81
-4379.9
-4361.39
-4620.19
-4325.46
-6717.4
-10448.7
-75080.6
-12956.9
-6137.96
-10710.3
-17081.7
-15833.9
-19165.2
-25063.1
-25323.9
-33087.1
-29751.2
-32728.5
-22958.3
-24372.6
-4505.78
3100.32
7471.45
14172.3
17153.7
30490.7
36027.9
50271.1
59797.7
85401.1
106031
113409
103862
94871.2
69643.2
60904.2
54888.1
46893.9
36297.5
21321.8
14163.9
9403.13
5040.25
-624.811
-5169.35
-6068.19
-7585.43
-8496.9
-11125
-13206.3
-13135.6
-13245.3
-12974.9
-14000.8
-12816.5
-9055.57
-7362.46
-5483.91
-5022.15
-3191.33
-427.753
1162.84
2829.48
4337.56
5663.31
5637.82
5860.11
6415.35
7422.62
7382.07
7142.42
5660.8
4817.47
3572.85
2848.16
2028.46
1359.9
927.814
-114.241
365.537
-1392.02
-620.785
-2430.6
-921.382
-2079.31
-438.814
-2262.91
-2100.75
-2188.01
-2212.54
-2123.89
-2093.25
-2037.84
-2035.29
-2019.1
-2025.57
-2066.79
-2069.32
-2100.22
-2155.91
-2184.61
-2223.48
-2287.44
-2336.61
-2429.85
-2462.33
-2532.47
-2633.21
-2754.93
-2835.44
-2947.38
-3100.77
-3231.14
-3447.26
-3517.67
-3702.91
-3838.37
-4015.29
-4184.99
-4446.79
-4770.38
-4977.37
-5583.95
-8098.25
-21036
-70904.9
-18616.3
-11859.2
-13477.4
-14438.3
-8499.94
-9766.58
-16405.9
-17825.8
-26710.2
-27697
-34671.6
-26362.3
-16401.9
-1050.47
11354
28822.8
51430.2
52327
84260.5
101962
123488
108135
83217.2
74573.1
62741
57410.4
53046.7
40799.2
35495
31451
26017.9
20230.9
12769.2
7624.6
4536.24
1671.82
215.478
-2299.9
-5170.78
-6733.92
-7604.67
-8429.69
-10435.8
-11259.2
-13934.4
-14102
-14773.9
-11885.6
-8050.49
-5680.81
-4349.55
-3979.29
-3912.58
-3387.52
-971.59
1207.06
2565.13
2800.93
3357.59
3832.76
4668.92
6152.39
6809.94
6674.98
5344.22
4616.9
3808.39
2973.04
2206.07
1524.35
1109.41
93.4449
495.127
-1406.08
74.9555
-1993.6
-481.145
-2675.35
-68.1327
-2601.08
-2198.92
-2120.17
-2059.07
-2022.75
-2018.49
-2011.43
-2035.7
-2005.36
-2000.6
-2027.11
-2033.36
-2045.63
-2091.43
-2129.77
-2162.71
-2222.3
-2272.19
-2349.12
-2413.02
-2484.42
-2571.16
-2659.62
-2740.49
-2869.11
-3025.05
-3158.77
-3248.11
-3398.74
-3458.46
-3674.21
-3928.39
-4142.79
-4283.93
-4321.72
-4581.78
-5527.39
-8155.35
-42510.4
-71227.8
-12096.4
-6577.94
-6195.62
-7461.56
-1212.24
-1939.98
-4845.75
-11897.9
-11112.1
-14533.9
-14141.3
-15582.2
369.888
11669.8
53501.3
74204.2
111930
122582
98766.5
92797.9
58027.2
72819.7
52990.9
56610.1
45744.9
41027.2
34292.6
29367.9
20423.5
18436
14998.7
12025.3
7857.8
5178.28
2789.66
1315.44
1107.52
-589.634
-1786.33
-3546.49
-4643.36
-6566.81
-8227.58
-9348.26
-10896.4
-12131.3
-13426.8
-15794.3
-16080
-14875.9
-13239.4
-10533.7
-6993.97
-4083.03
-1045.38
-75.2323
1626.77
2414.86
3017.18
3655.04
4300.13
5143.08
5618.87
6162.63
5175.12
4515.4
4001
3178.87
2521.69
1727.9
1318.71
276.456
606.323
-1007.01
165.213
-1811.11
-855.801
-2904.54
-335.071
-2306.27
-1997.42
-2053.67
-2061.34
-2045.94
-1983.15
-1971.33
-1956.26
-1936.76
-1947.65
-1961.38
-1993.07
-1993.45
-2031.43
-2075.2
-2109.02
-2168.94
-2215.76
-2251.26
-2360.01
-2406.45
-2491.27
-2591.54
-2653.6
-2848.52
-2901.79
-3085.24
-3200.99
-3363.85
-3488.6
-3628.65
-3674.1
-3712.08
-3780.15
-3940.99
-4358.84
-5979.15
-13166.1
-77857.2
-28619.3
-16464.6
-8466.38
-6974.91
-6512.03
1125.65
-834.319
273.456
1585.88
88.9967
-288.691
3290.88
9912.75
33383.3
69496.4
129790
118930
93303.6
77556.4
58155.7
59194.9
47174
42951.4
41415.2
30427.9
32465.2
25641.4
24336.8
22475.9
16988
16382.2
14159.9
12295.3
9510.72
6574.45
4643.35
2370.2
1859.29
747.65
-572.151
-2073.49
-3459.11
-4938.85
-6000.27
-7189.36
-8148.72
-9615.31
-10687.9
-12124.2
-12946.3
-12051.7
-10445.2
-7899.91
-5675.22
-4479.19
-3408.55
-2309.55
-758.394
205.794
836.229
2092.89
2962.98
4154.86
4714.29
5293.31
4464.76
4313.44
3832.25
3029.42
2512.27
1736.42
1479.88
395.47
858.64
-897.57
456.42
-1712.55
-313.404
-2157.09
-237.935
-2341.03
-1991.49
-1964.31
-1948.79
-1929.83
-1922.56
-1920.79
-1901.11
-1921.68
-1898.53
-1904.27
-1931.03
-1950.92
-1962.54
-2009.7
-2038.23
-2083.71
-2137.96
-2197.95
-2251.62
-2328.38
-2400.9
-2523.61
-2582.96
-2752.56
-2845.22
-2963.5
-3022.99
-3069.41
-3272.61
-3444.56
-3506.11
-3683.62
-3829.14
-4186.33
-4456.72
-7134.21
-22179.4
-81202.7
-8000.55
-6510.39
-7102.92
-7298.74
-7996.97
151.287
974.823
2427.11
4865.15
6592.89
8807.89
25418.8
58735.2
114802
146007
103309
60211.4
57786.5
43161.8
43103.2
33138.2
35517.6
25461.6
24202.7
25030.2
16353.8
18590.6
18508.8
13117.1
16289.3
13598.6
10719.7
11777
10176.2
8971.54
7131.34
4964.85
3756.93
3131.41
1678.26
-383.432
-1507.25
-3267.04
-4571.86
-6567.17
-7204.37
-8156.11
-8684.84
-9751.96
-11297.1
-11591.4
-10589.3
-9906.65
-7998.74
-5805.29
-3066.02
-1884.94
-1309.52
-603.413
498.445
1136.33
1896.17
2693.87
3624.78
4585.93
4261.97
4009.1
3768.24
3109.86
2625.4
1820.49
1716.24
636.496
1023.96
-586.564
687.994
-1401.37
-87.2068
-2236.86
-284.419
-2184.34
-1884.12
-1902.98
-1871.05
-1879.55
-1874.08
-1863.5
-1836.47
-1842.25
-1834.29
-1839.09
-1861.34
-1895.5
-1900.26
-1927.79
-1968.72
-2013.08
-2066.78
-2107.1
-2188.19
-2269.44
-2330.11
-2409.82
-2513.23
-2552.56
-2831.65
-2713.67
-2954.71
-3156.52
-3228.25
-3379.75
-3565.71
-3672.9
-3754.68
-4160.96
-5476.33
-9002.64
-42590.8
-60462.4
-9525.78
-4394.32
-4281.01
-4814.89
-4301.74
3629.66
4324.63
6287.55
8718.58
16033.1
36501.1
75762.2
142499
152457
81136.1
59957.8
50551.1
36465.3
27330.8
27067.5
20214.5
17893.8
22728.7
20841.6
15913.2
17297.5
16492
10903.5
15119.4
13163
9762.51
11967.9
9772.97
8904.89
9321.32
8068.85
5771.85
4198.78
3197.24
3230.74
1436.17
460.626
-731.168
-1741.37
-3006.52
-4778.3
-6294.14
-6872.22
-7686.21
-8431.88
-9603.02
-9418.74
-8689.33
-7238.38
-5893.73
-4723.31
-3479.51
-2756.81
-1811.11
-1232.78
-227.931
717.964
1794.56
2722.93
3638.03
3762.75
3707.34
3551.09
2995.62
2510.91
1814.55
1771.05
737.792
1172.66
-510.788
924.919
-1503.4
172.657
-2385.99
-248.946
-2132.17
-1811.51
-1797.6
-1786.41
-1785.72
-1791.42
-1782.39
-1780.7
-1763.49
-1791.37
-1768.08
-1787.8
-1819.74
-1837.52
-1849.95
-1899.43
-1938.78
-1991.15
-2021.1
-2070.41
-2170.57
-2243.64
-2272.5
-2454.95
-2443.49
-2602.15
-2697.1
-2758.33
-2943.25
-2937.63
-2971.7
-3009.5
-3039.66
-3135.47
-3292.03
-4789.16
-10501.4
-70940.8
-25595.7
-9796.29
-5610.06
-4347.35
-4240.36
-3367.55
5012.46
7349.59
12726
21459.5
40413.1
85730
152493
147680
76769.6
52720.1
43525.4
30563.6
23768.2
23010.1
13959.1
17708
18735.7
13746.9
13276.4
15397.1
12998.6
11692.3
13066.9
11688.7
8136.46
11572.7
10161.5
6378.99
9528.65
6969.19
6212.06
5557
5749.7
3281.02
4165.62
3218.64
1409.94
-438.351
-1099.07
-1932.81
-3001.75
-4447.29
-5736.57
-6665.72
-7102.25
-7917.07
-8257.35
-8284.67
-7607.94
-6531
-5227.2
-3847.19
-3150.1
-2598.27
-1812.62
-1017.98
-425.007
804.092
1899.48
2996.02
3155.6
3199.36
3241.29
2885.77
2471.87
1896.16
1761.55
856.138
1117.69
-353.293
1038.49
-1380.43