/*--------------------------------*- C++ -*----------------------------------*\
| =========                 |                                                 |
| \\      /  F ield         | OpenFOAM: The Open Source CFD Toolbox           |
|  \\    /   O peration     | Version:  2.2.x                                 |
|   \\  /    A nd           | Web:      www.OpenFOAM.org                      |
|    \\/     M anipulation  |                                                 |
\*---------------------------------------------------------------------------*/
FoamFile
{
    version     2.0;
    format      ascii;
    class       volScalarField;
    location    "1.8";
    object      pB;
}
// * * * * * * * * * * * * * * * * * * * * * * * * * * * * * * * * * * * * * //

dimensions      [1 1 -3 0 0 -1 0];

internalField   nonuniform List<scalar> 
14161
(
-0.0067141
0.00208698
0.000138634
-0.000342856
4.90771e-05
0.000413615
0.000842811
0.000881845
0.000696824
-1.8087e-05
-0.00061789
-0.000966762
-0.00109467
-0.00143398
-0.0012222
-0.0007758
-0.000313383
-6.38136e-06
0.000138303
0.000194523
3.44628e-05
-4.64714e-05
-0.000180021
-0.000234997
-0.000232143
-0.00014475
-6.94949e-05
0.000146089
0.00025171
0.000454126
0.000592181
0.000688885
0.000716946
0.000638723
0.000599113
0.000218027
-0.00082572
-0.00282782
-0.00694119
-0.00717049
-0.0489119
0.141665
-0.00910322
-0.0226831
0.00366426
-0.00406612
0.00501769
0.00257073
0.00440062
0.00433915
0.00406544
0.0028755
0.00142946
0.00164033
0.000852451
0.000602553
0.000399761
0.000244808
2.82178e-05
-5.56647e-05
-0.000284191
-0.000442439
-0.00107183
-0.000905562
-0.000205359
-0.00032684
-0.00149959
-0.00220192
-0.000970617
0.000196851
-0.000420323
-0.00173928
-0.00299112
-0.000711857
0.00275651
-0.00157561
-0.00582748
-0.00158906
0.00461851
0.00014008
-0.00604557
-0.00336919
0.00308325
-1.05084e-05
-0.00485931
-0.00530271
-0.00290635
-0.00210478
-0.000441915
-0.00434899
0.000289735
-0.000539776
0.000493058
0.00248812
0.00906644
0.00561504
0.00617505
0.00672596
0.00466704
0.00285502
0.00224823
0.00211799
0.00155912
0.000642756
0.000969454
0.00166338
-0.000647243
0.00150487
-0.000123676
0.00123257
-0.000619225
0.00207162
-0.00138695
0.00285318
-0.00207088
0.0026435
-0.00347186
0.00350752
-0.00611642
0.0119025
-0.0075672
-0.000793219
-0.000171923
-0.000608672
-0.00209586
-0.00351657
-0.00436535
-0.00278608
-0.000713482
0.000753729
0.00145524
0.00216483
0.0030877
0.0023942
0.000589194
-0.000452705
-0.00136247
-0.00179825
-0.00162667
-0.00106356
-0.000549092
-7.51603e-05
0.000135078
0.000440908
0.000682164
0.000529874
0.000328122
8.1657e-05
4.2918e-07
-6.27955e-05
-4.70673e-05
0.000152965
0.000327289
0.000602072
0.0010504
0.00137712
0.00202541
0.00227717
0.00532362
-6.4905e-06
0.0256904
0.0338323
0.00012001
0.00985891
-0.0059074
0.000519942
-0.00257551
-0.00151896
-0.00297993
-0.00190347
-0.00171801
-0.00209084
-0.0018618
-0.00177296
-0.001515
-0.00128295
-0.00109734
-0.00125864
-0.00124889
-0.000891074
-0.00043212
-0.000287628
-0.000291552
-0.00164965
-0.00132765
0.000323967
0.00134333
0.000963204
-0.00219385
-0.00460431
-0.000255537
0.00951108
0.00143412
-0.0145889
-0.00803942
0.0248057
0.00764897
-0.023296
-0.020326
0.0420407
0.0196379
-0.024122
-0.025977
0.0308305
0.0168895
-0.004755
-0.00357402
0.0112504
-2.26263e-05
-0.00422528
0.0130973
0.00546374
-0.00336684
-0.00319349
0.00255367
0.0013979
-0.000361243
-7.82897e-05
0.000125384
0.00208051
-0.000312596
-0.00434756
0.00440289
-3.31627e-05
-0.0031747
0.00200154
0.000329094
-0.000849146
0.00130596
-0.00174736
0.00221855
-0.00207883
0.00243584
-0.00161865
0.00258235
-0.00264927
0.00304337
-0.00303388
-0.0243708
0.0113104
0.000580506
-0.000525764
0.000755536
0.00273214
0.00489799
0.00625327
0.00412857
0.000130836
-0.00150023
-0.00314784
-0.00446317
-0.00566861
-0.00493754
-0.00210416
0.000210907
0.00113315
0.00184667
0.00189876
0.00109727
0.000224655
-0.000120559
-0.000499088
-0.000943808
-0.0010937
-0.00055689
-7.37924e-06
0.000415861
0.000858059
0.00118174
0.00140625
0.00140691
0.00130889
0.00122536
0.00108502
0.0012553
0.00207039
0.00383946
0.00896954
0.0145107
-0.00180962
0.0610913
-0.00855757
0.0105507
-0.00725595
0.00591296
-0.00159082
-0.000549423
-0.000955606
-0.0035243
0.000188557
0.000731258
0.00062207
0.000433252
1.24357e-05
-0.000253276
-0.00041558
-0.000586056
-0.000687733
-0.000816546
-0.000911634
-0.00113897
-0.00106053
-0.000311551
-0.000650602
-0.000865346
-0.00191589
-0.00157476
0.00102133
0.00248046
0.000386949
-0.0084311
-0.0043749
0.0185483
0.00383244
-0.022527
-0.0141083
0.0409944
0.0156577
-0.0400632
-0.0327803
0.0579847
0.0283815
-0.0359347
-0.0377469
0.0274335
0.00585864
-0.0184912
0.0111886
0.00675241
-0.0203517
-0.00254359
0.00933766
0.00199185
-0.00267223
-0.00474762
-0.000923455
0.00390592
-0.000112125
-0.0048348
0.00572968
0.00206415
-0.0067747
0.00276128
0.00359488
-0.00213194
0.000394792
-0.000633798
0.00132032
-0.00170883
0.00190301
-0.00208175
0.00189614
-0.00282286
0.00239536
-0.00275808
0.00194523
-0.00272426
0.0291078
-0.016704
-0.00136537
0.000144877
-0.00117742
-0.00412818
-0.00692674
-0.00901187
-0.00651462
-0.00117326
0.001472
0.00334622
0.00495129
0.00676499
0.00593317
0.00210607
-0.000743246
-0.00217551
-0.00324503
-0.00342345
-0.00195853
-0.000879695
-0.000185145
0.000417536
0.00112024
0.00156349
0.00115863
0.000537861
-3.11835e-05
-0.000406235
-0.00069786
-0.000804434
-0.000604255
-0.000233335
0.000234435
0.00105255
0.00188465
0.00347936
0.00504335
0.00882288
0.010621
0.0038723
0.0395401
-0.00683471
0.00519441
-0.00664966
-0.000369571
-0.0031708
-0.00300209
5.68032e-05
-0.00204057
-0.00168906
-0.00172352
-0.00171134
-0.00177297
-0.00166151
-0.00172947
-0.00125163
-0.0012325
-0.00110793
-0.00137143
-0.000712612
-0.000624274
0.000342872
-0.000191606
-0.000351167
-0.00056863
-0.000277641
0.00117198
0.000301431
-0.00186047
-0.00114416
0.00569116
0.00350914
-0.010338
-0.0055723
0.0246028
0.000920276
-0.0245161
-0.00637101
0.0450032
0.00578609
-0.0272323
-0.0256948
0.0446783
0.0239369
-0.0155876
-0.0112921
0.023762
-0.00874302
-0.0094073
0.0265361
0.00192024
-0.0196599
0.00135687
0.0130957
0.00465561
-0.00732286
-0.0058185
0.00754684
0.002109
-0.0093759
0.00239869
0.00527652
-0.00283196
-0.00118033
0.000411989
0.0012874
-0.00204479
0.000927496
-0.00145188
0.00160287
-0.00203784
0.00270113
-0.00254157
0.00279959
-0.00249654
0.00265087
-0.00238461
-0.0394385
0.0192895
0.0010539
-0.000743869
0.00108847
0.00429645
0.00736843
0.0100359
0.00722564
0.00117882
-0.00176467
-0.00464092
-0.00666319
-0.00866114
-0.00808881
-0.00373387
0.000285021
0.00153461
0.00309176
0.00311511
0.00179628
0.000674558
1.81878e-05
-0.0007418
-0.0014526
-0.00190495
-0.00120518
-0.000197108
0.000363802
0.00117303
0.00180425
0.00223498
0.00233893
0.00217245
0.00200003
0.0018247
0.00189378
0.00290799
0.00424321
0.00634497
0.00605716
0.0114504
0.051514
0.00338742
0.00806166
-0.000157345
0.00631464
0.000499583
0.00114366
-0.000823233
-0.00229174
-0.00207724
-0.00127397
-0.00145223
-0.00086406
-0.000545902
-0.000504681
-0.000576108
-0.000265864
-0.000437093
-8.32895e-05
-0.000519193
-0.000714706
-0.000177864
-0.00101737
-0.000330307
-0.000277948
-0.000187848
-0.00093048
-0.00133766
-0.000666562
0.00133998
0.00195038
-0.00217076
-0.00122581
0.00902305
-0.000786037
-0.0120733
0.00766637
0.0176176
-0.0130385
-0.0220729
0.0199419
0.0127128
-0.0154277
-0.0220367
0.0140158
0.00627925
-0.00819213
0.00354195
0.00642889
-0.0193077
-0.000263043
0.0141845
-1.60299e-05
-0.0113477
-0.00619341
0.0085926
0.00478663
-0.00643554
-0.0025202
0.00798143
-0.00145497
-0.00591461
0.00288488
0.00229266
-0.00224635
0.000259866
3.5665e-05
0.000863225
-0.00218916
0.00185393
-0.00254583
0.00195546
-0.00274514
0.0022586
-0.002648
0.00249163
-0.0025184
0.0432196
-0.0246956
-0.00174991
0.00035601
-0.00118433
-0.00484924
-0.00858904
-0.0118291
-0.00939547
-0.00271303
0.00142918
0.00392144
0.00617367
0.00874761
0.00835136
0.00366603
-0.000554894
-0.00196142
-0.00387739
-0.00412338
-0.00269775
-0.00135328
-0.000350473
0.000463336
0.00141055
0.00215211
0.00175255
0.000857548
-1.23228e-05
-0.000592836
-0.0012816
-0.00159535
-0.00166142
-0.00136674
-0.000774336
-0.000148208
0.000508546
0.00166779
0.00226509
0.00429584
0.00273258
0.0286689
0.0399208
-0.00290333
-0.00357418
-0.00196364
-0.00178716
0.000423839
-0.000255621
0.000538966
-0.00073547
0.000295716
-0.00108707
0.000506602
-0.00140819
0.000444417
-0.000636197
6.57744e-05
0.000329739
-8.3307e-05
0.000208948
0.000272987
-6.73554e-05
0.000200852
-0.000225275
0.000294434
9.37234e-05
-4.30008e-05
-9.0799e-05
0.000250575
0.000467845
1.94677e-05
-0.000822273
0.00140364
0.00228853
-0.00146635
-0.00282212
0.00820868
0.00464798
-0.0103942
0.00594871
0.0126369
-0.00141164
-0.0145611
0.0159583
0.00796463
-0.00144205
-0.00656699
0.00738852
-0.00264416
-0.00142949
0.0107964
0.00439613
-0.00854764
-0.00333371
0.00309379
0.00431356
-0.00205709
-0.00407844
0.00286539
0.00139211
-0.00409598
-0.00138894
0.0062068
-0.00195108
-0.00473887
0.00398185
0.000247025
-0.00205776
0.00188565
-0.00209826
0.00193851
-0.00229633
0.00235653
-0.00235116
0.00274303
-0.00259587
0.00287376
-0.00267698
-0.0502796
0.0253856
0.0013628
-0.000789763
0.000845549
0.00432118
0.00815421
0.0116793
0.0102664
0.00306732
-0.00161343
-0.0044734
-0.00659028
-0.00964409
-0.00965036
-0.00488375
-0.000567548
0.0012114
0.00308982
0.00340894
0.002294
0.00102775
0.000150174
-0.00066185
-0.00151078
-0.00221734
-0.00166884
-0.000479673
0.000292589
0.00127803
0.00224766
0.00294583
0.00331557
0.00317833
0.00254752
0.00180341
0.000813273
0.000152916
-0.00180968
-0.00181663
-0.0103789
0.0496217
0.0667401
-0.0415816
-0.00762624
-0.00532772
-0.000765096
-0.00109663
0.000471727
0.00149048
0.000510976
3.03723e-05
0.00194285
0.000868062
0.00213747
0.00107079
0.0010339
0.0005472
0.000707769
0.000770945
0.000371252
0.000330405
0.000114744
0.000371627
9.23618e-05
-0.000669205
-0.000805538
-0.000784337
-0.00082716
0.000203928
-0.00198235
-0.000970972
-0.00046595
-0.000518875
-0.00174518
-0.0018101
0.00262396
-0.00361149
-4.82648e-05
-0.000432224
0.00379535
-0.00317697
0.00302682
-0.00171936
0.00498748
-0.00456881
0.00263377
-0.00337562
0.00376153
-0.00382188
0.00369162
-0.00409052
-0.00658541
0.0060028
0.00382169
-0.00221328
-0.0027393
0.000529841
0.00323882
-0.00178628
-0.00266848
0.00381045
0.00163558
-0.00416633
4.53005e-05
0.00345463
-0.0029533
-0.000466296
0.000541948
1.13229e-05
-0.00130998
0.00194938
-0.00259167
0.00213295
-0.00284702
0.00276252
-0.00311393
0.00303511
-0.00301401
0.0517148
-0.029928
-0.00235395
0.000507261
-0.000676681
-0.00440414
-0.0084103
-0.0121858
-0.0116423
-0.00473568
0.000745194
0.00306934
0.00537241
0.00837954
0.00869779
0.00450503
0.000350947
-0.00141575
-0.00340398
-0.00385507
-0.00300522
-0.00165642
-0.000524378
0.000198337
0.00115834
0.00214477
0.00207923
0.00110115
0.000122132
-0.000569412
-0.00157658
-0.00229953
-0.00273885
-0.00279642
-0.00242565
-0.00205747
-0.00151718
-0.00182221
-0.0038285
-0.0057168
-0.0106391
0.0402978
0.0603766
0.00445094
-0.0118192
0.00916965
0.00339867
0.00459826
0.00355941
0.0021927
0.00258624
0.00036728
0.00105503
0.00127741
0.00014283
0.000112156
0.00011813
-0.000349805
-0.000416795
-0.000380325
0.000149895
-0.000392086
-0.000544091
-0.000532187
-0.00178356
-0.00116684
-0.000273334
-0.00102051
-0.00284653
-0.00272493
-0.000832943
0.000819081
-0.0020012
0.000246525
0.00142566
-0.00122221
0.00025224
-2.35588e-05
0.00062753
-0.000843071
-0.00148775
-0.00317951
0.000578612
-0.00460111
0.00339608
-0.0049894
0.00617606
-0.00297612
0.00721394
-0.00129153
0.00255919
-0.000133721
0.000132846
0.00101144
-0.00319512
0.00218389
0.000895372
0.00012091
-0.00147158
0.000852211
0.00184535
-0.00206862
-0.0019999
0.00178498
0.000632914
-0.00133826
-9.91698e-05
0.00102449
-0.00115645
0.000471109
-0.000920954
0.00101072
-0.00179432
0.00242446
-0.00254129
0.00280844
-0.00298787
0.00330515
-0.00318646
-0.0554618
0.0288526
0.00211517
-0.000901349
0.00012951
0.00352658
0.00734481
0.0108776
0.0111306
0.00472893
-0.000783926
-0.00266388
-0.00545784
-0.0083083
-0.00884084
-0.00513181
-0.0015029
0.000487382
0.00218486
0.00287317
0.00229894
0.00116725
0.000232349
-0.000393123
-0.0012595
-0.00206564
-0.00179634
-0.000701234
0.000124435
0.00116921
0.00242057
0.00343371
0.00423266
0.00440969
0.00365065
0.00253124
0.00108491
-0.000201495
-0.00328737
-0.00507326
-0.00880282
0.0342777
0.0604033
-0.0250439
-0.0103115
-0.00779038
-0.00448134
-0.00450215
-0.00454868
-0.00239409
-0.00341101
-0.00163234
-0.00301809
-0.000396348
-0.00233522
-0.000286697
-0.00183648
-0.000368367
-0.000664034
-1.36432e-05
-0.000790711
-0.000235602
-0.000483735
-0.000397296
0.000237916
-0.000162321
-0.000674295
-0.000181891
0.000934165
0.00280663
-0.00178257
0.000252655
0.000810626
0.000653195
0.00144755
0.00064421
0.00092437
0.000652654
-0.000271732
-0.000716429
0.00147275
0.000272369
0.00254193
-0.000646767
0.00256056
-0.00430179
0.00305696
-0.00932202
0.00587734
-0.00528083
0.00290676
0.00183652
-0.0011445
0.00206385
-0.00147571
0.00132289
-0.00178604
-0.000529427
-0.00106251
-0.000296868
-0.00197829
0.000509891
0.000175261
0.000316119
-0.00119247
0.000809997
-0.00010012
-0.00044112
9.84608e-06
0.000192095
-0.0013004
0.000904995
-0.00223923
0.00204638
-0.00302192
0.00298214
-0.00341504
0.00346159
-0.00350778
0.0519191
-0.0310196
-0.00257697
0.000471017
9.33424e-06
-0.00353448
-0.00694934
-0.0104156
-0.0115275
-0.00584014
-0.000387218
0.00118617
0.00370187
0.00667253
0.0068434
0.00416862
0.000942805
-0.0006395
-0.0023058
-0.00302192
-0.00277912
-0.00173363
-0.000700133
2.76937e-06
0.000937285
0.00186801
0.00207507
0.00131304
0.000320476
-0.000328248
-0.00150495
-0.00246991
-0.00330962
-0.00389863
-0.00374372
-0.0026298
-0.00177369
-0.000239946
-0.000386313
0.00467633
-0.00393841
0.0494706
0.0472172
0.00856251
-0.0018196
-0.00446816
0.00256963
-0.00122313
-0.00165885
-0.000482061
-0.00255792
-0.00050038
-0.00216596
-0.000485059
-0.00313912
-0.00113371
-0.00204248
-0.000672117
-0.00225627
-0.000975281
-0.00218759
-0.00128692
-0.000922279
-0.000922988
-0.00207634
-0.00189494
-0.00172777
-0.00207276
-0.00299075
-0.00231169
-0.00181443
0.000358179
-0.00174885
-8.48172e-05
0.000469496
-0.000917958
2.79564e-05
-0.000432272
6.40078e-05
-0.000537911
-0.00040836
-0.00211111
0.00104017
-0.00157207
0.00193812
-0.00229245
0.00542222
-0.00370101
0.00446014
-0.00214776
0.000571423
0.0025704
-0.00232612
0.00378692
-0.00167016
0.00255011
0.000773732
0.00136112
0.000897158
0.000374881
0.000188735
0.000640509
-0.000282801
0.000112443
-0.000672923
0.000310167
-0.00053993
-8.36248e-05
-0.00044521
-8.65897e-06
-0.000386728
0.000832346
-0.00155896
0.00195159
-0.00257663
0.00287599
-0.00331578
0.00361778
-0.00362658
-0.053546
0.0287834
0.00262862
-0.000826501
-0.000494192
0.00254556
0.00550702
0.00874344
0.010053
0.00524516
0.000735976
-0.00101893
-0.00356035
-0.00619478
-0.00657673
-0.00463458
-0.00200767
-5.54517e-05
0.00100776
0.00182039
0.0016996
0.000936607
0.000191864
-0.000302835
-0.00110563
-0.00174298
-0.00180765
-0.000962648
-5.81054e-05
0.000885292
0.00217568
0.00351259
0.00483295
0.00596599
0.00662405
0.00729092
0.00604089
0.0061647
0.00514369
0.00597943
0.00112617
0.0220951
0.048968
-0.0162586
0.00454652
-0.0103354
-0.00106292
-0.00439857
-0.00472389
-0.00349204
-0.00466046
-0.00307605
-0.00579748
-0.000934719
-0.00205906
-0.000255695
-0.00161769
-0.000159125
-0.00181235
-0.000107683
5.54942e-05
-0.000667609
-0.000453533
0.000824762
-0.000215706
9.98121e-05
0.000618262
0.0014666
0.00173734
0.00246043
0.00116854
0.00116409
0.000850288
0.000884688
0.00216332
0.000244393
0.00174117
0.00103972
0.00186578
0.00081285
0.00152179
-0.000718316
0.00202405
-0.0026157
0.0011467
-0.00434066
0.00178941
-0.00720506
0.000364483
-0.00338465
-0.00357192
0.00210661
-0.00505265
0.00334659
-0.00340775
0.00291061
-0.0010985
-0.00033419
-0.000171798
0.000810203
-0.000702042
-0.000174807
-0.000807023
4.2314e-05
-0.000168368
0.000311757
-0.000550825
0.000182469
-0.000368923
0.000318464
-0.000742515
0.000583965
-0.00144019
0.00163288
-0.00304799
0.00284781
-0.00383945
0.00371194
-0.00385966
0.0444871
-0.0277039
-0.00297714
0.000305914
0.000264709
-0.00242957
-0.00482519
-0.00764559
-0.00948283
-0.00592303
-0.00202461
0.00024603
0.00183336
0.00358048
0.00443008
0.0030246
0.00107221
-0.000274556
-0.00113417
-0.00187528
-0.0018765
-0.00135525
-0.000793842
-6.57121e-06
0.00103121
0.00166626
0.00193003
0.00142218
0.0006856
-1.62262e-06
-0.000827485
-0.00200525
-0.00298583
-0.00382545
-0.00437263
-0.00365559
-0.00195566
-0.00037036
0.00177363
0.00627153
0.00412585
0.0296692
0.0570815
-0.00391602
0.00801881
-0.00259014
0.00175665
-0.0015667
-0.000359331
0.000154128
-0.0018038
0.000827999
-0.00127203
0.000468607
-0.00193129
-0.000627059
-0.00226706
0.000675834
-0.00156111
-0.000577332
-0.00170054
-0.000492836
-0.00160685
-0.000808489
-0.00113869
-0.00127179
-0.000918679
-0.000513398
-0.00132255
-0.000691043
-0.00127306
-0.000462165
-0.000998311
1.46442e-05
0.000692955
-0.0012091
-0.00016957
-0.00141304
-0.00094803
-0.00254825
-0.000426605
-0.00230166
0.00228462
-0.00259076
0.00149266
-0.00320614
0.00394837
-0.00467049
0.00267939
0.00291131
-0.00318983
0.00518414
-0.00288439
0.00508874
-0.00176816
0.00345841
-0.000820928
0.00109335
0.000248369
0.000335449
-7.08895e-05
0.000787878
-0.000460856
9.63142e-05
-0.000524312
0.000277447
-0.000705423
0.000167422
-0.000580405
0.000159861
-0.000669594
0.00044108
-0.00104475
0.00124377
-0.00269783
0.00307404
-0.00392205
0.00400949
-0.00400271
-0.0448919
0.0248193
0.00303896
-0.000383121
-0.00048632
0.00139338
0.00338555
0.00580128
0.00749991
0.00465698
0.00143119
-0.000338596
-0.0016864
-0.00320771
-0.00388984
-0.00343873
-0.00176939
-0.000488629
-2.22195e-05
0.00056678
0.000634118
0.000276391
6.23267e-05
-0.000186293
-0.00129403
-0.00181987
-0.001876
-0.00128494
-0.000406588
0.00033028
0.00142785
0.00291946
0.0043369
0.00601822
0.00699438
0.00796968
0.00889363
0.00984674
0.0106445
0.0146397
0.0116794
0.0345788
0.0113685
-0.0154327
-0.0106432
-0.0034973
0.000335485
-0.000616157
0.000858669
0.00122457
0.000816737
0.0015245
-0.00040764
0.000649351
0.000132514
0.000953262
-0.00183069
0.0015443
-0.00131699
0.000702254
-0.00133271
0.000199453
-0.000795693
0.000205047
0.00101531
-0.000172354
0.000501242
0.00023248
0.000161141
0.000487427
0.000109436
-0.000173669
0.000740261
0.000300917
0.000892965
-0.000681643
-0.000294586
0.000951165
0.000424444
-0.00112021
0.00181324
-0.00225893
0.00366498
-0.00291403
-0.000103562
-0.00431984
-0.000171144
-0.00200863
-0.00270157
0.00096962
-0.00367709
0.00418371
-0.00395932
0.00282416
-0.00184791
0.00126724
-0.00038795
0.00090723
-0.000143907
0.000531284
-0.000104877
0.000160763
-0.000591309
0.000158854
-0.000407858
0.000197486
-0.00045941
-5.52815e-05
-0.00052513
0.000226731
-0.000763834
0.000504203
-0.00114767
0.00105497
-0.00247712
0.00256158
-0.00368499
0.00402918
-0.00402546
0.0323708
-0.0215708
-0.00310735
-8.74748e-06
0.000279563
-0.00135191
-0.00282513
-0.00469826
-0.00656274
-0.00450086
-0.00246496
-0.000392262
0.000447228
0.00156043
0.00218303
0.00158265
0.00047024
0.000286143
-0.000331076
-0.000693434
-0.000843949
-0.000544283
-0.000179269
0.00010832
0.00045507
0.00123881
0.00157703
0.00151639
0.000974032
0.000305373
-0.000155798
-0.000934181
-0.00215274
-0.00280175
-0.00311948
-0.00454705
-0.00416161
-0.00443932
-0.00585389
-0.000154506
-0.0167182
0.0547331
0.0693976
-0.00181686
0.00428473
-8.04607e-05
0.00159242
-0.00104438
-0.000849238
-0.00473776
-0.00299
-0.00582268
-0.00386223
-0.00368603
-0.00431754
-0.00377189
-0.0034742
-0.00287067
-0.00253918
-0.00226033
-0.00234578
-0.0016838
-0.00194684
-0.00146322
-0.000668083
-0.00145616
-0.000311861
-0.00219311
0.000269535
-0.00186585
-0.000700279
-0.000795996
-0.000777478
-0.000581044
-0.00157182
0.00234042
-0.00470576
0.00432468
-0.000285685
0.00106005
0.00325413
-0.000284565
0.00494745
0.00232858
-0.000580548
-0.0015845
0.00230165
0.00114369
0.000262851
0.00367959
-0.0019588
0.00322854
-0.00181736
0.00140665
-0.000664348
0.0013709
3.94927e-05
0.00078393
9.72371e-05
-0.000368179
-0.000158674
0.000199802
-0.000116742
5.65568e-06
-0.000436763
0.000121982
-0.00058818
-0.000186571
-0.000416463
0.000137988
-0.000655755
0.000446348
-0.00122658
0.000748371
-0.00207495
0.00223897
-0.00358765
0.00402955
-0.00414975
-0.032526
0.0184038
0.0029898
-1.88851e-05
-0.000456264
0.000490222
0.00170132
0.00306676
0.00443332
0.00311303
0.00123943
0.000210741
-0.000851944
-0.00170496
-0.00224664
-0.00200253
-0.0013447
-0.00115326
-0.000651934
-0.000414028
-0.000160702
-0.000161345
-0.000246039
-0.000390426
-0.000847303
-0.00131223
-0.00156849
-0.00124196
-0.000719447
8.33669e-06
0.000554355
0.00129596
0.0020358
0.00259752
0.00309287
0.00260313
0.00179758
-0.000425538
-0.00269873
-0.000988572
-0.0246069
0.0857316
0.0368401
-0.00819014
0.000846033
-0.0027152
0.00138427
-0.00254076
0.00164633
0.00192421
0.00347447
-0.000169124
0.00370868
-0.000535205
0.00229908
-0.000761805
-0.00053503
0.00305997
-0.000521002
0.00049712
0.0009932
-0.000559147
0.00079747
-0.000675953
-4.49041e-05
-0.000668721
-0.000750878
-0.000303273
-0.000909019
-0.000107285
-0.000669842
-0.000116529
-0.00132562
-0.000909109
0.0014768
0.00153528
-0.00318814
0.00312478
-0.00565351
0.00441703
-0.00478792
0.00254552
-1.15667e-06
0.0042463
-0.00168977
0.00614969
-0.00906328
0.00143584
-0.010326
-0.000744004
-0.0056966
-0.000429307
-0.00117738
-0.0020629
-0.000290437
-8.81422e-05
-9.54252e-05
0.00018771
0.000184181
-3.59914e-05
-0.000522683
0.000664063
-0.000248623
0.000102758
-0.000409612
0.000196487
-0.000518932
-7.1594e-05
-0.000488653
0.000155708
-0.0005353
0.000466764
-0.00124663
0.000478697
-0.00167872
0.00160121
-0.0031431
0.00394787
-0.0041833
0.0194636
-0.0143363
-0.00281776
-0.000234336
0.000214706
-0.000557549
-0.00137132
-0.00243334
-0.00356667
-0.00306617
-0.00187353
-0.000685147
-0.000172745
0.000433626
0.000750498
0.000668634
0.000312475
9.09833e-05
-0.00033069
-0.000498799
-0.00056702
-0.000409561
-0.000207122
-1.48908e-05
0.000234639
0.00057982
0.000889239
0.00107092
0.000811155
0.000442184
0.000141075
-0.000222217
-0.00070469
-0.00132667
-0.00165763
-0.00175831
-0.00205151
-0.0010771
-0.002238
0.00280626
-0.0172374
0.0800619
0.0471879
-0.0143315
-0.00171368
-0.00761725
-0.00198344
-0.00493548
-0.00231772
-0.0066337
-0.00220147
-0.00710005
-0.00213476
-0.00431495
-0.001863
-0.00250396
-0.00178819
-0.0032662
-0.000639148
-0.002612
-0.00075308
-0.00186357
-0.00329549
-0.000367147
-0.00118573
-0.00125988
-0.000471709
-0.000597821
-0.000204687
-0.0013145
0.00224406
-0.00274536
0.00262493
-0.00146021
0.00177428
-0.00122039
-0.000909359
0.00178659
-0.00327153
0.00513988
-0.00524027
0.00747214
-0.00396568
0.00214891
-0.00410838
-0.000673773
-0.000615881
0.00137588
-0.00217412
0.00402586
-0.000585925
0.0037551
0.000868781
0.00224561
0.00103146
0.00198694
0.000874156
0.000910848
0.000588947
8.66742e-05
-2.25619e-05
0.00104347
-5.39152e-05
0.00013427
-0.000341946
0.000110776
-0.000433072
-0.000114202
-0.000430795
-9.59779e-05
-0.000411493
9.2604e-05
-0.00102699
0.000354396
-0.00125984
0.00101579
-0.00278785
0.00379808
-0.00414289
-0.0207855
0.0118623
0.00235128
0.000213105
-0.00064305
2.88518e-05
0.000427879
0.00124979
0.00193853
0.00154836
0.000781626
0.000155248
-0.00055314
-0.000928067
-0.00129407
-0.00128329
-0.00110111
-0.00088193
-0.00070778
-0.000562466
-0.000463197
-0.000415754
-0.000443513
-0.000534769
-0.000637838
-0.000864525
-0.000989473
-0.00090779
-0.000602546
-0.000234367
0.000221745
0.000573621
0.00108804
0.00139277
0.00176563
0.00219559
0.00278845
0.00326635
0.00193871
0.00582309
-0.00866759
0.0607698
0.04962
-0.012484
3.46955e-05
-0.00466424
0.00128447
-0.00217429
0.00231458
-0.00343223
0.00667082
-0.00173159
0.0038139
-0.000850639
0.00149007
-0.00125943
0.000228821
-0.00109184
-0.000932156
-0.000802114
-0.000576924
1.84855e-05
6.30077e-05
-0.000217561
0.000312646
-0.000133392
4.73391e-06
7.33302e-05
0.000263537
0.00077814
0.00110157
0.00102757
0.000912106
0.00220755
0.000522702
0.00279022
-0.00289924
0.00442793
-0.00572265
0.0049232
-0.00545413
0.00177685
-0.00658448
-0.000472473
-0.00375544
-0.00356735
-0.00422168
-0.00386363
-0.00440594
-0.00131314
-0.00801704
-0.00187775
-0.00351108
-0.00129647
-0.00383966
-0.00031083
-0.00199601
-0.000103867
-0.00083602
-0.000551595
-0.000125601
-0.000265711
-0.000382659
0.000323875
-0.000584817
5.32232e-05
-0.000710415
-0.000209154
-0.000501564
-4.00995e-05
-0.000124913
-0.000108704
-0.000607867
2.15925e-05
-0.00100666
0.000449891
-0.0020082
0.00339347
-0.00422704
0.00914761
-0.00817352
-0.00207189
-0.000267021
0.000150265
-0.000126967
-0.000667575
-0.00103168
-0.00160576
-0.00171248
-0.00119691
-0.000718036
-0.000397345
-0.000122244
3.55521e-05
4.00516e-05
-1.72544e-05
-0.00016361
-0.00032827
-0.000439295
-0.000490579
-0.000444713
-0.000345063
-0.000258632
-0.000123702
3.02783e-05
0.000176257
0.000289608
0.00029416
0.000153804
1.76264e-05
3.10376e-05
-2.50305e-05
-9.93244e-07
3.20068e-05
7.89532e-05
8.94338e-05
0.000426471
0.000629228
0.00497198
-0.00910081
0.0612847
0.0562581
-0.0143906
0.00264265
-0.0053584
0.00245517
-0.00462682
0.0018241
-0.00596541
0.00135982
-0.00733527
-0.000512399
-0.00484497
0.000542839
-0.00142298
0.00064215
-0.00148604
0.00021309
-0.0012114
-0.000194278
-0.000774059
-0.00019866
-2.96491e-05
0.00037448
0.000379534
0.000208149
0.000879746
0.000651686
0.00138987
0.00120654
0.000295042
0.00198343
0.000654418
0.00454857
-0.000353612
0.00306865
0.00209279
0.0070024
-0.00258545
0.00417766
-0.00332966
0.00058312
-0.000633365
-0.00254804
0.00104432
0.00294267
0.00252924
0.00282001
-0.00122527
0.00416058
-0.000945073
0.00330797
0.00216981
0.00199039
0.00120478
0.000354549
0.000711605
-0.000116534
0.000171467
0.000188423
0.000314246
0.00037415
0.000437627
0.000185285
0.00059222
0.000179689
0.000243057
-0.00018899
-0.000100188
-0.000401345
-0.000377136
-0.000237999
-0.00015976
-0.000685349
0.000331147
-0.00153183
0.00302889
-0.0041142
-0.0120298
0.00651438
0.00140361
7.35122e-05
-0.000521522
-0.00021732
2.54314e-05
0.000240618
0.000463841
0.000454395
0.000282587
-9.47701e-05
-0.00036934
-0.000688508
-0.000798647
-0.000894334
-0.000861642
-0.000794717
-0.000665936
-0.000608296
-0.00058053
-0.000565006
-0.000505807
-0.000664022
-0.000671561
-0.000655302
-0.000633503
-0.000590865
-0.000432594
-0.000247208
6.48419e-05
0.000269115
0.000582905
0.000801252
0.000850238
0.0008842
0.000909669
0.00122388
0.000724217
0.00401285
-0.00310116
0.0674828
0.032502
-0.0134109
-0.0100061
-0.00973922
-0.00965696
-0.0102995
-0.00565536
-0.00769504
-8.78497e-05
-0.00365967
0.000999204
0.00015055
0.00284126
0.00239027
0.000866365
-0.00109307
-0.000459577
0.000431663
-0.00160512
0.00190102
-0.00123547
0.000905451
-0.0004584
0.000810066
-0.000159777
-0.000416651
0.00151515
0.000134982
0.000599994
0.000695407
0.000810667
0.00148348
0.00166316
0.000432524
0.00773388
0.0021764
0.00378224
0.00323356
0.00161035
-0.00362486
0.00655806
-0.00466378
0.00423011
-0.00255919
0.00139201
-0.00560122
-0.00138926
-0.00221307
0.00226739
-0.00703176
-0.000945236
-0.00354729
-0.00151583
-0.000460318
0.000221158
0.00095791
0.000189168
0.000276009
2.05247e-06
0.000252784
0.000110788
-8.62292e-05
-0.000548958
-0.00045673
-0.00062166
-0.000499415
-0.000576965
-0.000302575
-0.000186425
-0.000524096
0.000109618
-0.000519846
-0.000499042
-0.000184003
-0.00127929
0.00225209
-0.00310947
0.0025245
-0.00377172
-0.00132632
-0.000309597
0.000113505
-3.61081e-05
-0.000234823
-0.000511423
-0.000750997
-0.000879983
-0.000743191
-0.000605798
-0.000471161
-0.000347251
-0.000344576
-0.000326161
-0.000327723
-0.00034776
-0.000390364
-0.000535378
-0.000551595
-0.0005644
-0.000427931
-0.000498722
-0.000475336
-0.000388577
-0.000307333
-0.000286477
-0.000287196
-0.000233944
-0.000239887
-0.00026524
-0.000318308
-0.000193279
3.75256e-05
0.00042479
0.000688537
0.000979642
0.00132736
0.00409829
-0.000261004
0.0581848
0.0419343
-0.00186015
0.0125793
-0.000304885
0.00986567
3.8754e-05
0.00353142
-0.00274801
0.000831058
-0.00346571
0.000146323
-0.00101252
-0.0011168
-0.00294619
0.000880244
-0.0051249
-0.000345533
-0.00151048
-0.00141359
-0.000518537
-0.00109685
-0.000272589
-0.000404341
0.000105052
0.000222967
0.000276902
0.000882744
0.001333
0.00275409
0.00241363
0.0064065
0.00916297
0.00817799
0.00987298
0.0102985
0.00229151
0.00170062
0.00531851
0.000404943
0.00646356
-0.00267252
0.00680804
0.00500241
0.00490474
0.00236604
0.00289425
0.00311374
0.0034787
0.0033492
0.00125701
0.00334399
0.00251882
0.00220773
0.00133916
0.000675675
-0.000294517
-0.000646366
-0.000610178
-0.000202668
-8.96524e-06
-0.000124287
-0.000109788
-9.16345e-05
1.00638e-05
-2.53862e-05
-0.000204689
-0.000298963
-0.000369721
-0.000147567
-0.000491041
0.000487867
-0.000487238
-6.95684e-05
-0.000276379
-0.000573538
0.002092
-0.00305987
-0.00683016
0.00307409
0.000629498
1.30572e-05
-0.000423797
-0.000394504
-0.000216868
-0.000123707
-8.04135e-05
-5.53138e-05
-0.000107068
-0.000286655
-0.00038854
-0.000538215
-0.000652363
-0.000687494
-0.000723325
-0.000698207
-0.000627525
-0.000679669
-0.000688897
-0.000664376
-0.000641561
-0.000620058
-0.000717046
-0.000695015
-0.000640389
-0.000580303
-0.000474567
-0.000337882
-0.000218997
-0.000148264
-0.000118757
-1.00242e-05
6.32329e-06
2.06871e-05
-3.65184e-05
-0.000297742
-0.000315139
-0.00152686
0.0123284
0.0401105
0.0165083
2.43695e-05
0.00225784
0.00121055
0.00321965
-0.00182761
0.0019703
-0.000983005
0.0028689
0.000286904
0.00132058
-0.00073546
-0.00122489
-0.0027013
-0.00194116
-2.52704e-05
9.05958e-05
0.00219571
-0.00126092
0.000365152
-0.000623865
-0.000181796
0.00143943
-0.000258822
0.00233739
-0.000315007
0.0111914
0.00590941
0.0135313
0.0135198
0.00754728
0.00613248
0.00785032
0.00298858
0.00936752
0.00387705
0.0104637
0.00410948
0.0116634
0.00248814
0.011844
0.000603003
0.00263089
3.62579e-05
0.00249821
0.00197147
0.00461513
-0.000414573
0.00343124
-0.000655936
0.0023793
0.000810183
0.00153013
0.000672862
0.00109725
0.00093047