/*--------------------------------*- C++ -*----------------------------------*\
| =========                 |                                                 |
| \\      /  F ield         | OpenFOAM: The Open Source CFD Toolbox           |
|  \\    /   O peration     | Version:  2.2.x                                 |
|   \\  /    A nd           | Web:      www.OpenFOAM.org                      |
|    \\/     M anipulation  |                                                 |
\*---------------------------------------------------------------------------*/
FoamFile
{
    version     2.0;
    format      ascii;
    class       volScalarField;
    location    "0.95";
    object      Bx;
}
// * * * * * * * * * * * * * * * * * * * * * * * * * * * * * * * * * * * * * //

dimensions      [1 0 -2 0 0 -1 0];

internalField   nonuniform List<scalar> 
14161
(
0.98124
0.998393
1.01092
1.01683
1.01411
1.0106
1.00316
0.995482
0.988024
0.98467
0.990225
0.993025
0.99933
1.0031
1.01214
1.01956
1.01978
1.0147
1.01177
1.00894
1.00417
1.00193
1.0019
1.00466
1.00926
1.01248
1.01423
1.01638
1.01917
1.02123
1.0221
1.02137
1.02033
1.01908
1.01765
1.0164
1.0154
1.01429
1.01339
1.0127
1.0118
1.01282
1.01526
1.01932
1.02852
1.04439
1.11358
1.28093
1.30855
1.2612
1.23322
1.20598
1.19136
1.17939
1.17182
1.1633
1.15358
1.14759
1.14063
1.13648
1.1333
1.13014
1.1282
1.126
1.12358
1.12066
1.11649
1.11273
1.11158
1.11243
1.11416
1.11505
1.12273
1.13031
1.13526
1.14536
1.15553
1.16428
1.16816
1.168
1.15706
1.1412
1.13018
1.07658
0.983116
0.87891
0.742349
0.612282
0.51078
0.432279
0.373566
0.327237
0.295276
0.273975
0.261448
0.254851
0.252742
0.253455
0.254828
0.256106
0.257405
0.259035
0.259972
0.2608
0.260788
0.260036
0.258319
0.255205
0.250082
0.243447
0.231732
0.222368
0.19968
0.188558
0.150163
0.139185
0.0776127
0.0674612
0.00137568
1.06003
1.01742
0.976109
0.940523
0.926834
0.932796
0.949238
0.977352
1.0146
1.04308
1.05084
1.04694
1.0358
1.01494
0.982498
0.952055
0.939876
0.937561
0.944413
0.961592
0.982619
1.00219
1.01461
1.02072
1.02216
1.02111
1.01678
1.0104
1.00286
0.995999
0.992423
0.991338
0.991289
0.992118
0.994185
0.997152
1.00048
1.00317
1.00581
1.00795
1.0093
1.01017
1.01086
1.0127
1.02296
1.01625
1.05688
0.914924
0.908815
0.912174
0.937032
0.954707
0.979768
1.00192
1.02423
1.0438
1.05886
1.07308
1.08358
1.09326
1.10407
1.11135
1.11499
1.11603
1.11874
1.12315
1.12755
1.13104
1.13399
1.13641
1.13816
1.13929
1.13545
1.1292
1.12619
1.12044
1.10559
1.07714
1.04911
1.02663
0.995032
0.947322
0.89234
0.857682
0.855036
0.758827
0.685431
0.632688
0.537933
0.456963
0.387052
0.34098
0.309036
0.290355
0.280422
0.276195
0.273893
0.273625
0.274738
0.276024
0.277043
0.277933
0.27779
0.277345
0.275899
0.273565
0.270465
0.265704
0.259205
0.251249
0.238126
0.227942
0.203835
0.191592
0.151237
0.138129
0.0789703
0.0684755
0.00433683
0.884361
0.958846
1.02992
1.0986
1.1325
1.12371
1.09623
1.04738
0.980069
0.924053
0.902307
0.913416
0.936435
0.974126
1.02692
1.08063
1.11118
1.11987
1.10878
1.08338
1.05111
1.01904
0.996268
0.984005
0.982346
0.986894
0.996856
1.01074
1.02605
1.03905
1.04809
1.05267
1.05449
1.05297
1.04955
1.0447
1.03885
1.03275
1.02708
1.02262
1.01877
1.01565
1.01224
1.00738
0.994301
0.970582
0.919892
0.736358
0.76199
0.797241
0.864819
0.905933
0.951531
0.993815
1.02704
1.05661
1.08305
1.10549
1.13154
1.14353
1.15041
1.16026
1.17079
1.18151
1.18935
1.19613
1.20254
1.20964
1.2167
1.22308
1.22834
1.23289
1.23852
1.24654
1.25106
1.24842
1.23794
1.227
1.20874
1.15323
1.10757
1.05048
0.998205
0.913734
0.80196
0.753252
0.707569
0.60657
0.548412
0.487232
0.424936
0.381675
0.349226
0.330781
0.319445
0.313092
0.30972
0.309562
0.31059
0.310599
0.309445
0.307518
0.304582
0.300859
0.296383
0.290734
0.28435
0.276385
0.267096
0.256942
0.24034
0.22795
0.200301
0.187479
0.143784
0.131483
0.0741261
0.0655627
0.00412727
1.13793
1.04682
0.958806
0.870149
0.824728
0.831145
0.86864
0.929684
1.01335
1.08352
1.10891
1.10253
1.07899
1.03534
0.971147
0.902296
0.8616
0.848669
0.864715
0.895915
0.936984
0.979973
1.01037
1.02734
1.03307
1.02868
1.01882
1.00441
0.987477
0.972807
0.962871
0.957525
0.956399
0.957982
0.961994
0.967516
0.974054
0.980649
0.986019
0.989761
0.991771
0.991457
0.989241
0.985392
0.977523
0.966579
0.914273
0.721016
0.742152
0.770865
0.860195
0.911205
0.965479
1.00295
1.0374
1.06959
1.09203
1.10884
1.11918
1.13192
1.14372
1.15394
1.16697
1.17804
1.18937
1.20011
1.20847
1.21539
1.21939
1.22134
1.22353
1.22697
1.23032
1.23055
1.23124
1.22891
1.23088
1.21538
1.20454
1.17336
1.16101
1.09472
1.04091
0.956174
0.910113
0.83817
0.747893
0.701383
0.623899
0.547925
0.488844
0.437988
0.397671
0.372197
0.356054
0.347333
0.342437
0.340245
0.338336
0.33654
0.33396
0.330671
0.326391
0.320883
0.314364
0.30605
0.297257
0.286262
0.274283
0.261493
0.242269
0.228712
0.198715
0.185302
0.141651
0.130093
0.0760255
0.0660958
0.00656686
0.820373
0.934874
1.04021
1.14601
1.19686
1.19299
1.15276
1.08415
0.984242
0.892184
0.854581
0.861598
0.891991
0.947469
1.02537
1.10928
1.15844
1.17588
1.16149
1.12827
1.08291
1.03542
0.999553
0.979097
0.973343
0.979287
0.991464
1.00925
1.03047
1.04921
1.06267
1.07039
1.07272
1.07168
1.0675
1.06125
1.05301
1.04435
1.03659
1.02971
1.02561
1.02228
1.02105
1.01951
1.02367
1.00691
1.05092
0.872027
0.858519
0.909849
0.986174
1.03134
1.07336
1.09787
1.12563
1.14406
1.16501
1.1812
1.19571
1.20831
1.21933
1.22925
1.23767
1.24426
1.25036
1.25487
1.2591
1.26192
1.26494
1.26816
1.27007
1.27221
1.27366
1.2746
1.27586
1.27582
1.27778
1.26231
1.26913
1.23597
1.22104
1.17382
1.15166
1.08971
1.02153
0.966108
0.893774
0.814607
0.736494
0.661931
0.571321
0.502217
0.449807
0.414586
0.39385
0.38137
0.374721
0.370101
0.365553
0.361384
0.356507
0.350992
0.34451
0.33605
0.326537
0.314505
0.302605
0.288458
0.273807
0.259473
0.237907
0.22388
0.190868
0.178039
0.134556
0.125931
0.0769009
0.0671001
0.00935937
1.18286
1.06583
0.952813
0.832367
0.767224
0.770757
0.816756
0.891233
1.00125
1.10292
1.1425
1.13709
1.10922
1.05652
0.978311
0.887446
0.827558
0.808513
0.824522
0.857869
0.906436
0.961109
1.00459
1.02947
1.03701
1.03432
1.02462
1.00733
0.987314
0.969633
0.956733
0.94923
0.946318
0.948314
0.953359
0.960456
0.969149
0.978135
0.986628
0.99364
0.999493
1.00338
1.00648
1.00945
1.01451
1.02641
1.06205
1.14375
1.10622
1.13971
1.13766
1.14368
1.15769
1.16973
1.19466
1.20204
1.22328
1.22809
1.24335
1.25306
1.25959
1.2676
1.27086
1.27596
1.27984
1.28294
1.28499
1.28701
1.28842
1.29008
1.29222
1.29394
1.29579
1.29583
1.29788
1.29433
1.29883
1.28425
1.29221
1.26422
1.2546
1.21594
1.17201
1.13959
1.07975
1.04196
0.984918
0.936186
0.878049
0.79517
0.70059
0.604892
0.523435
0.470144
0.438162
0.418045
0.407137
0.399479
0.392106
0.384865
0.376955
0.368242
0.359589
0.348813
0.337128
0.322377
0.308242
0.291399
0.274322
0.25783
0.234421
0.219193
0.185558
0.172995
0.131323
0.123507
0.0792371
0.0704597
0.0143658
0.792566
0.919706
1.03684
1.16035
1.22305
1.22117
1.17889
1.10984
0.99901
0.88599
0.835247
0.837115
0.867736
0.926501
1.01078
1.1078
1.17298
1.19506
1.18378
1.15512
1.1111
1.05988
1.01611
0.992234
0.983337
0.987724
0.998629
1.01552
1.0357
1.05582
1.07017
1.07898
1.08301
1.08259
1.07867
1.07217
1.06388
1.05489
1.04586
1.03871
1.03226
1.02813
1.02512
1.02379
1.0219
1.02335
1.03239
1.1848
1.27762
1.25456
1.26118
1.25834
1.26325
1.26564
1.27869
1.27693
1.29272
1.29162
1.30578
1.30724
1.31626
1.31845
1.32453
1.32677
1.32987
1.33206
1.33361
1.33538
1.33673
1.33765
1.33856
1.33912
1.33891
1.3391
1.33708
1.33804
1.32906
1.33753
1.3152
1.33119
1.28859
1.28688
1.23098
1.22461
1.17542
1.14879
1.09658
1.0456
0.984359
0.92185
0.840694
0.731711
0.622689
0.535496
0.482678
0.451536
0.437524
0.426638
0.416449
0.406407
0.395411
0.384451
0.37409
0.361705
0.34803
0.330198
0.312781
0.292693
0.272838
0.254375
0.228013
0.211572
0.17534
0.163563
0.123596
0.116342
0.075897
0.070071
0.0219703
1.19336
1.07544
0.963111
0.833834
0.760639
0.760908
0.801945
0.87153
0.985813
1.10291
1.15704
1.15778
1.13118
1.08095
1.00775
0.916923
0.8505
0.827552
0.836039
0.864109
0.909361
0.960766
1.00538
1.03311
1.04505
1.04512
1.0384
1.02661
1.01064
0.992942
0.980355
0.972505
0.969375
0.970195
0.9737
0.979372
0.987123
0.9959
1.00464
1.01228
1.0187
1.02448
1.02907
1.03338
1.03625
1.04648
1.03645
1.12989
1.19565
1.26159
1.27596
1.29003
1.30138
1.30591
1.31668
1.31569
1.32825
1.32549
1.3357
1.33404
1.34056
1.3396
1.3439
1.34367
1.34627
1.34631
1.34853
1.34901
1.35041
1.35074
1.35109
1.35131
1.35143
1.35208
1.35104
1.35357
1.34514
1.35389
1.32983
1.33989
1.28937
1.29084
1.22892
1.22254
1.17199
1.15934
1.12843
1.09123
1.04186
0.989017
0.92111
0.841046
0.725638
0.618779
0.539476
0.499528
0.480339
0.464332
0.449453
0.433925
0.417391
0.400542
0.386192
0.369662
0.3531
0.332496
0.311547
0.288319
0.265402
0.244471
0.217322
0.201884
0.168491
0.157827
0.121163
0.116192
0.0795967
0.0756409
0.0305642
0.804806
0.91905
1.02417
1.14602
1.21349
1.2136
1.17926
1.12046
1.02217
0.911709
0.85733
0.852618
0.877555
0.926172
0.996826
1.08398
1.15142
1.17778
1.17366
1.15324
1.11667
1.07328
1.03445
1.00978
0.998312
0.99775
1.00395
1.0159
1.03055
1.04558
1.05709
1.06508
1.0685
1.06901
1.06673
1.06225
1.05633
1.04969
1.0429
1.03703
1.03202
1.02796
1.02454
1.02192
1.02016
1.02056
1.01319
1.02758
1.06954
1.12485
1.17848
1.20549
1.22778
1.24622
1.2644
1.27182
1.28916
1.29107
1.30404
1.3052
1.31471
1.31776
1.32402
1.32731
1.3328
1.33576
1.33947
1.34197
1.34362
1.3455
1.34663
1.34817
1.34892
1.35096
1.34976
1.35327
1.34762
1.35714
1.33018
1.33449
1.27431
1.27503
1.21861
1.2135
1.17526
1.15797
1.13664
1.11561
1.07825
1.03571
0.982884
0.916307
0.824275
0.712812
0.615504
0.56129
0.532723
0.506382
0.483637
0.460237
0.437072
0.413959
0.393832
0.374654
0.357882
0.338034
0.317182
0.292958
0.267601
0.244995
0.215568
0.200416
0.167386
0.15778
0.123672
0.119491
0.0849927
0.0808767
0.038028
1.1711
1.07286
0.98127
0.86877
0.803089
0.798289
0.829298
0.88449
0.979139
1.08689
1.14296
1.1504
1.12878
1.08891
1.03233
0.961102
0.902761
0.879755
0.881276
0.89845
0.929359
0.966744
1.003
1.02833
1.04218
1.04517
1.04314
1.03629
1.02611
1.01429
1.00543
0.999285
0.996362
0.995915
0.997473
1.00088
1.00516
1.00965
1.01398
1.01749
1.01967
1.02063
1.02015
1.01837
1.01545
1.01182
1.01133
1.00546
1.0425
1.0972
1.13428
1.17957
1.21018
1.22531
1.24232
1.2549
1.26995
1.27246
1.2874
1.28808
1.29962
1.30388
1.31118
1.31852
1.32263
1.3273
1.33121
1.33365
1.33641
1.33869
1.34109
1.34322
1.34485
1.34768
1.34715
1.35255
1.34581
1.35448
1.32642
1.32466
1.2708
1.2682
1.22208
1.20351
1.17741
1.16355
1.13804
1.12237
1.10185
1.06546
1.02551
0.978474
0.917961
0.830634
0.74016
0.662778
0.612294
0.569451
0.532186
0.498
0.466988
0.437267
0.410195
0.384855
0.362189
0.336608
0.311413
0.284769
0.257571
0.236255
0.208808
0.195923
0.166754
0.15865
0.127845
0.123183
0.0921087
0.0859688
0.0463654
0.856621
0.937182
1.01312
1.1123
1.17393
1.17917
1.15401
1.11012
1.03544
0.947502
0.898429
0.889154
0.90405
0.936228
0.98318
1.04298
1.09683
1.12138
1.12468
1.11375
1.09083
1.06236
1.03468
1.01433
1.00287
0.999072
1.00154
1.00727
1.01542
1.02505
1.03368
1.03875
1.04167
1.0425
1.04206
1.04024
1.03768
1.03489
1.03226
1.02998
1.02828
1.02682
1.02592
1.02479
1.02337
1.02095
1.01809
1.03124
1.06884
1.11727
1.14777
1.20326
1.2177
1.24166
1.24819
1.27529
1.27537
1.28672
1.29311
1.2966
1.30465
1.30427
1.3101
1.31205
1.31368
1.31814
1.31972
1.32228
1.32431
1.32652
1.32845
1.3305
1.33219
1.33493
1.3354
1.341
1.33195
1.34549
1.30678
1.31535
1.25462
1.25838
1.23134
1.22464
1.18965
1.17597
1.15646
1.13284
1.12461
1.10255
1.07894
1.04356
0.98936
0.920382
0.830584
0.744186
0.675551
0.613563
0.561814
0.520507
0.485083
0.452384
0.420855
0.391443
0.36464
0.338748
0.314219
0.289438
0.26303
0.243027
0.216179
0.204099
0.175816
0.167491
0.136775
0.130975
0.10027
0.0913169
0.0551641
1.11883
1.05375
0.993336
0.914689
0.862325
0.856579
0.874174
0.911529
0.976082
1.05301
1.09909
1.10999
1.09761
1.07312
1.03674
0.991484
0.951243
0.933033
0.930746
0.939141
0.956436
0.97877
1.00198
1.02088
1.03254
1.03773
1.03846
1.03583
1.03136
1.02634
1.0206
1.01695
1.01525
1.01487
1.01551
1.01672
1.01815
1.01944
1.02019
1.02024
1.01964
1.01837
1.01641
1.01371
1.0106
1.00979
1.01068
1.02373
1.06961
1.099
1.16418
1.1755
1.22807
1.23188
1.26551
1.26361
1.28728
1.28168
1.29646
1.29202
1.30083
1.2984
1.30454
1.30327
1.30834
1.30929
1.31348
1.3156
1.31808
1.31972
1.32146
1.32347
1.32604
1.32657
1.32919
1.32621
1.32767
1.31462
1.28418
1.28142
1.24898
1.23715
1.2098
1.20674
1.18572
1.16715
1.15704
1.13684
1.12002
1.10934
1.08983
1.06493
1.02936
0.974261
0.89456
0.806793
0.728615
0.662142
0.603893
0.555322
0.510313
0.471314
0.434127
0.400547
0.369857
0.340358
0.312973
0.289632
0.265307
0.246684
0.221465
0.209189
0.183735
0.174874
0.145366
0.136717
0.107728
0.0959828
0.0660756
0.915896
0.962413
1.00688
1.07107
1.1187
1.12593
1.11115
1.08166
1.0324
0.973995
0.93708
0.928306
0.935488
0.952883
0.978565
1.01309
1.04726
1.06528
1.07154
1.06827
1.05809
1.04388
1.02862
1.01528
1.00706
1.00362
1.0035
1.00526
1.00901
1.01351
1.01786
1.02187
1.02398
1.02527
1.0259
1.02609
1.02596
1.02587
1.02618
1.02669
1.02743
1.02878
1.03111
1.03363
1.03918
1.03345
1.08404
1.06651
1.08644
1.10518
1.16208
1.17632
1.238
1.23317
1.2702
1.25948
1.28461
1.27612
1.29239
1.28794
1.29774
1.29503
1.30099
1.29875
1.30303
1.30215
1.30696
1.30684
1.30966
1.31027
1.31164
1.31309
1.3159
1.315
1.31973
1.31026
1.31395
1.26543
1.26071
1.19456
1.21245
1.17789
1.17368
1.14692
1.14525
1.12668
1.11935
1.10476
1.08962
1.07555
1.05594
1.03135
1.00473
0.954889
0.891111
0.820293
0.735764
0.672649
0.616373
0.567163
0.518303
0.470231
0.422349
0.38271
0.347926
0.321299
0.297324
0.276911
0.255048
0.237972
0.214049
0.202542
0.178438
0.170679
0.143282
0.135874
0.110597
0.0989487
0.0723922
1.06635
1.03325
1.00192
0.957797
0.921569
0.914622
0.922835
0.94441
0.98082
1.02562
1.0575
1.06716
1.06345
1.05077
1.03114
1.00744
0.984144
0.971731
0.968707
0.972708
0.980301
0.991462
1.00388
1.01536
1.02343
1.0283
1.03003
1.03055
1.02972
1.02837
1.02692
1.02619
1.02605
1.02623
1.02664
1.02712
1.02755
1.02781
1.02788
1.02782
1.02764
1.02689
1.02624
1.02468
1.0277
1.01464
1.10299
1.02309
1.04743
1.05503
1.11607
1.12581
1.20151
1.19369
1.24302
1.23394
1.26455
1.25693
1.2753
1.27125
1.28266
1.27999
1.28686
1.28566
1.29058
1.28989
1.29492
1.29428
1.29821
1.29851
1.29785
1.29579
1.29431
1.28497
1.28049
1.24198
1.22372
1.13934
1.14841
1.08643
1.09186
1.06606
1.07239
1.05728
1.05295
1.04193
1.03575
1.0214
1.00989
0.997711
0.97388
0.953106
0.926234
0.890711
0.841554
0.783306
0.702881
0.640969
0.58734
0.543035
0.498234
0.456751
0.413145
0.375817
0.343653
0.319607
0.297135
0.277136
0.255248
0.238018
0.215249
0.203164
0.181088
0.17363
0.149226
0.14231
0.118815
0.105486
0.0839726
0.962082
0.98075
0.999787
1.03214
1.06359
1.06983
1.06488
1.04991
1.0235
0.991248
0.968495
0.96125
0.964205
0.971917
0.984835
1.00191
1.01963
1.03119
1.03611
1.03654
1.03374
1.02878
1.02239
1.01616
1.01223
1.01033
1.00976
1.01061
1.01216
1.0143
1.0165
1.01857
1.0201
1.02115
1.02194
1.0226
1.02321
1.02379
1.02459
1.02555
1.02665
1.02761
1.0287
1.02864
1.03219
1.02195
1.08298
1.03423
1.0456
1.05537
1.07711
1.08365
1.16092
1.1576
1.22009
1.21139
1.24801
1.23867
1.25671
1.24807
1.25691
1.25164
1.25678
1.25333
1.25707
1.25536
1.26017
1.25723
1.25867
1.2482
1.23042
1.19687
1.16079
1.09736
1.04022
0.952355
0.909014
0.827381
0.831299
0.813541
0.832629
0.833912
0.848739
0.851158
0.865791
0.875915
0.875769
0.872691
0.867962
0.859598
0.852851
0.842077
0.826938
0.806354
0.772917
0.729388
0.66993
0.617083
0.568544
0.524621
0.482425
0.445301
0.406194
0.370202
0.336952
0.312351
0.289223
0.270027
0.250769
0.235885
0.215376
0.205188
0.185929
0.180122
0.157202
0.15053
0.126786
0.111902
0.0924017
1.0304
1.01954
1.00805
0.986944
0.964283
0.958009
0.960597
0.971076
0.988807
1.01105
1.02956
1.03585
1.03562
1.03069
1.02227
1.0117
1.00064
0.993992
0.991815
0.993243
0.996481
1.00137
1.00704
1.01293
1.01794
1.02146
1.02358
1.02498
1.02577
1.02632
1.02652
1.02685
1.02752
1.02834
1.02934
1.03041
1.03148
1.03232
1.03289
1.03312
1.03287
1.03228
1.03154
1.03049
1.0322
1.02584
1.07372
1.06392
1.06982
1.07505
1.08928
1.09819
1.14352
1.15051
1.22531
1.2108
1.25153
1.23283
1.25002
1.23568
1.23949
1.22984
1.22994
1.21856
1.21174
1.18949
1.17215
1.13227
1.0885
1.03129
0.958678
0.868149
0.772102
0.690264
0.619936
0.560368
0.537041
0.512782
0.51452
0.519317
0.541005
0.55636
0.579073
0.600946
0.623125
0.642062
0.659049
0.676192
0.688752
0.698466
0.706332
0.710288
0.717406
0.710943
0.694888
0.668622
0.621275
0.582738
0.541242
0.504847
0.466478
0.434706
0.399218
0.367924
0.334586
0.30974
0.285454
0.266733
0.24873
0.234943
0.216622
0.207227
0.190063
0.185651
0.165144
0.158782
0.134918
0.119589
0.102442
0.987805
0.990624
0.995845
1.00907
1.02547
1.03217
1.03208
1.02616
1.01482
1.00059
0.988961
0.984335
0.985357
0.988458
0.994069
1.00154
1.00972
1.01598
1.0193
1.02057
1.02069
1.01971
1.0181
1.01653
1.01549
1.01516
1.01533
1.016
1.0171
1.01844
1.01983
1.02115
1.02222
1.02316
1.02401
1.02481
1.02562
1.0266
1.02772
1.02898
1.03091
1.03339
1.03614
1.04063
1.04074
1.0783
1.10008
1.09924
1.09976
1.09784
1.0929
1.10415
1.15604
1.14571
1.22122
1.20247
1.24343
1.21471
1.22076
1.19399
1.18043
1.15048
1.12726
1.07933
1.02625
0.95251
0.867373
0.794315
0.716713
0.653283
0.603103
0.557921
0.521639
0.478832
0.452196
0.420996
0.406259
0.394026
0.38968
0.391911
0.398299
0.412316
0.433108
0.455698
0.475818
0.497251
0.520275
0.544545
0.568679
0.587919
0.610086
0.625271
0.639981
0.644071
0.635812
0.614134
0.580433
0.553473
0.519317
0.48647
0.451457
0.423472
0.391282
0.363389
0.330318
0.305779
0.281445
0.263416
0.246077
0.233428
0.216842
0.208488
0.193238
0.191592
0.175018
0.168848
0.14271
0.128057
0.111837
1.01267
1.01247
1.00916
0.99952
0.98722
0.982293
0.983228
0.98776
0.995246
1.00482
1.01364
1.01737
1.01827
1.0169
1.01431
1.01076
1.00693
1.00438
1.0035
1.00389
1.00576
1.00792
1.01056
1.01344
1.0162
1.01848
1.02036
1.02185
1.02314
1.02427
1.02533
1.02646
1.02763
1.02899
1.03054
1.03224
1.03403
1.03593
1.03787
1.04005
1.04262
1.04559
1.04842
1.05628
1.04542
1.14949
1.02948
1.05966
1.06531
1.07765
1.09245
1.10834
1.09971
1.13608
1.1606
1.19991
1.17373
1.17167
1.1246
1.09351
1.03081
0.973043
0.893448
0.835508
0.769125
0.719131
0.668856
0.620351
0.576077
0.535172
0.500456
0.466863
0.441101
0.413262
0.396954
0.379494
0.371849
0.365634
0.36485
0.365739
0.367231
0.372578
0.380056
0.39505
0.412736
0.433855
0.454817
0.477826
0.503237
0.527799
0.553626
0.575655
0.592856
0.603089
0.596459
0.581012
0.555365
0.534009
0.504028
0.474632
0.442156
0.416253
0.38627
0.361071
0.330288
0.307012
0.281647
0.263688
0.246458
0.234162
0.218562
0.21049
0.196682
0.195051
0.182342
0.176525
0.150006
0.138544
0.122491
0.998628
0.995035
0.995799
1.00012
1.00805
1.01326
1.01441
1.01252
1.00869
1.00377
0.99897
0.996769
0.997073
0.998491
1.00088
1.00404
1.00768
1.01082
1.01297
1.01427
1.01533
1.01594
1.01607
1.01647
1.01691
1.01746
1.01825
1.01911
1.02014
1.0214
1.02273
1.02407
1.02533
1.02641
1.02736
1.02825
1.02908
1.03
1.03101
1.03212
1.033
1.03431
1.03483
1.03908
1.02479
1.06813
0.998596
1.00448
1.00957
1.01683
1.028
1.03915
1.05635
1.0621
1.09274
1.08503
1.07555
1.02084
0.969339
0.893149
0.844292
0.789585
0.749083
0.706796
0.673991
0.637997
0.612384
0.577079
0.550602
0.519072
0.494912
0.471957
0.450893
0.426477
0.410455
0.393345
0.385109
0.376566
0.372057
0.370806
0.371683
0.374775
0.380006
0.387386
0.398489
0.414743
0.431956
0.451728
0.474583
0.50025
0.527227
0.549896
0.565616
0.576105
0.569608
0.558584
0.536675
0.516709
0.489846
0.464505
0.433678
0.409666
0.381557
0.358272
0.329555
0.305802
0.28032
0.262274
0.244971
0.232679
0.218259
0.210095
0.196683
0.195128
0.186124
0.184793
0.160302
0.152564
0.133592
1.00527
1.0076
1.00758
1.00332
0.997169
0.994212
0.994397
0.996114
0.998776
1.00248
1.006
1.00836
1.00938
1.00974
1.00945
1.00903
1.00853
1.00813
1.00845
1.00908
1.01017
1.0116
1.01328
1.01502
1.01673
1.01835
1.01977
1.02118
1.02248
1.0238
1.02521
1.02667
1.02805
1.02935
1.03055
1.03173
1.03289
1.03396
1.03493
1.03598
1.03689
1.03792
1.03838
1.03969
1.03173
1.02893
0.96862
0.963574
0.957364
0.958045
0.961394
0.964423
0.973987
0.971636
0.969845
0.935507
0.897949
0.845397
0.806772
0.777668
0.736085
0.711186
0.681942
0.655274
0.631314
0.609574
0.586248
0.568739
0.549497
0.53072
0.515089
0.496904
0.483031
0.463065
0.45088
0.432901
0.420034
0.411059
0.400585
0.395857
0.392969
0.39343
0.396345
0.400861
0.409758
0.42235
0.43661
0.453676
0.472074
0.493324
0.515439
0.535286
0.547467
0.555807
0.549512
0.540703
0.51944
0.503482
0.480616
0.457854
0.430872
0.407769
0.381537
0.359759
0.332545
0.309118
0.282752
0.264187
0.246265
0.233427
0.219623
0.211258
0.19887
0.197853
0.191161
0.193994
0.172305
0.166032
0.145335
1.00197
0.998102
0.997831
0.999288
1.00288
1.00559
1.00652
1.00597
1.00501
1.00367
1.00231
1.00162
1.00191
1.00285
1.00416
1.00586
1.00775
1.00961
1.01122
1.01251
1.01374
1.0148
1.01578
1.0168
1.01776
1.01872
1.0197
1.02083
1.02201
1.02326
1.02454
1.02576
1.02692
1.02793
1.02873
1.02941
1.03001
1.03059
1.03103
1.03152
1.03191
1.03234
1.03303
1.03185
1.03159
0.989475
0.94683
0.927822
0.917778
0.91309
0.906792
0.903349
0.89709
0.886577
0.847717
0.811198
0.780631
0.749779
0.730918
0.711669
0.693506
0.677011
0.656463
0.636871
0.620759
0.602786
0.589313
0.574954
0.561682
0.548529
0.538023
0.522884
0.515188
0.50058
0.489804
0.479728
0.464632
0.456689
0.446759
0.437812
0.430959
0.427928
0.42607
0.426331
0.431224
0.440196
0.450186
0.46286
0.477111
0.491755
0.507445
0.523097
0.533027
0.539395
0.535087
0.52741
0.507762
0.495511
0.475155
0.453249
0.429121
0.406643
0.3811
0.36024
0.333507
0.310189
0.283749
0.26522
0.246869
0.233856
0.220697
0.212616
0.201354
0.201064
0.196905
0.203324
0.186787
0.182189
0.159857
1.00288
1.00477
1.00485
1.00361
1.00113
0.999344
0.999541
0.999836
1.00065
1.00201
1.00331
1.00451
1.00554
1.00644
1.00713
1.00772
1.00841
1.00922
1.01021
1.01128
1.01242
1.0138
1.01518
1.0165
1.0178
1.01908
1.02057
1.02207
1.02351
1.02488
1.02613
1.02734
1.02863
1.02977
1.03069
1.03138
1.03198
1.03238
1.03271
1.03282
1.03315
1.03311
1.03364
1.03149
1.03364
0.970953
0.921414
0.903391
0.893051
0.883609
0.871226
0.864112
0.845089
0.815955
0.772002
0.752308
0.721592
0.708832
0.69727
0.687067
0.674
0.662074
0.647955
0.636404
0.622545
0.612418
0.602078
0.589638
0.582617
0.572136
0.562027
0.555006
0.544921
0.537023
0.526053
0.518914
0.507295
0.497407
0.487775
0.481473
0.470326
0.463659
0.45937
0.457336
0.455637
0.457309
0.463778
0.471329
0.483407
0.493654
0.505545
0.516507
0.52359
0.527912
0.524485
0.516963
0.500858
0.490578
0.471254
0.451332
0.429428
0.408838
0.383933
0.36352
0.337208
0.315143
0.288823
0.269955
0.250978
0.237637
0.224797
0.216622
0.206302
0.205835
0.204325
0.211177
0.19919
0.19653
0.1731
1.0027
1.00025
1.00007
1.00078
1.00226
1.00337
1.00392
1.00357
1.00331
1.00306
1.00285
1.0029
1.00331
1.00413
1.00527
1.00658
1.00803
1.00948
1.01091
1.01228
1.01357
1.01489
1.01627
1.01755
1.01871
1.01979
1.021
1.02246
1.02388
1.02509
1.02608
1.02687
1.02759
1.02812
1.02862
1.02885
1.02884
1.02879
1.02865
1.02841
1.02869
1.02895
1.03007
1.02728
1.02794
0.953972
0.893969
0.883513
0.875433
0.862689
0.848494
0.838104
0.809578
0.77764
0.739088
0.714074
0.699264
0.693564
0.678801
0.671881
0.664562
0.653707
0.64584
0.638951
0.631134
0.622999
0.613774
0.606763
0.599381
0.589898
0.58544
0.577749
0.56851
0.563276
0.55439
0.547382
0.539542
0.531726
0.522056
0.514721
0.505951
0.499125
0.488443
0.48388
0.481857
0.478213
0.478434
0.481721
0.489479
0.497374
0.506391
0.514804
0.519369
0.521883
0.519151
0.51159
0.498596
0.488033
0.468902
0.451822
0.431706
0.411516
0.387888
0.366953
0.341196
0.319374
0.293372
0.274718
0.255127
0.24155
0.229026
0.220796
0.211432
0.210618
0.211888
0.22012
0.212661
0.211209
0.187685
1.00234
1.00321
1.00353
1.00345
1.00237
1.00162
1.00162
1.0016
1.00185
1.00229
1.00282
1.00348
1.0043
1.00519
1.00613
1.00719
1.00836
1.00959
1.01084
1.0121
1.0134
1.01475
1.01618
1.01763
1.01901
1.02036
1.02171
1.02326
1.02485
1.02621
1.02743
1.02853
1.02938
1.03018
1.03083
1.03125
1.03133
1.03092
1.02994
1.02816
1.02512
1.02034
1.01332
1.00511
0.996069
0.959518
0.887254
0.886252
0.882437
0.875889
0.860647
0.844371
0.805597
0.774593
0.727219
0.703724
0.693271
0.680863
0.673647
0.669396
0.659716
0.656084
0.651686
0.645046
0.641491
0.63607
0.629675
0.623178
0.616547
0.612679
0.606001
0.597285
0.592438
0.585062
0.577428
0.571659
0.564426
0.558273
0.54998
0.543666
0.533765
0.528531
0.516871
0.510515
0.502739
0.499551
0.495998
0.495407
0.497293
0.501175
0.507805
0.514052
0.517437
0.518996
0.516393
0.509218
0.499203
0.487179
0.469783
0.454236
0.436299
0.416262
0.394067
0.372848
0.347658
0.326266
0.300881
0.281494
0.261532
0.247513
0.234903
0.226198
0.217773
0.216257
0.219937
0.228201
0.224665
0.223738
0.201325
1.00267
1.00131
1.00159
1.0022
1.00273
1.00312
1.00329
1.00304
1.00292
1.00291
1.00299
1.00321
1.00377
1.00462
1.0057
1.00697
1.00825
1.00958
1.01089
1.01229
1.01372
1.01516
1.0166
1.01808
1.01961
1.02109
1.02251
1.02395
1.02529
1.02648
1.02744
1.02824
1.02878
1.02909
1.02912
1.0288
1.02809
1.02675
1.02492
1.02264
1.01977
1.01744
1.01478
1.01488
1.00356
1.05615
0.939219
0.978239
0.968437
0.961189
0.944662
0.91277
0.858231
0.803376
0.741436
0.710561
0.688392
0.672964
0.662705
0.656451
0.652806
0.649181
0.643638
0.641775
0.639411
0.63544
0.633352
0.630011
0.625897
0.622477
0.616537
0.612683
0.607026
0.599206
0.595595
0.590275
0.584892
0.579984
0.57413
0.568742
0.559419
0.554053
0.542465
0.535537
0.524244
0.51955
0.512151
0.510149
0.5087
0.509666
0.511657
0.514997
0.517387
0.517864
0.514779
0.508867
0.500158
0.48654
0.472578
0.457246
0.440594
0.420993
0.400677
0.378926
0.354143
0.332539
0.307394
0.287356
0.267035
0.252652
0.240012
0.23113
0.223886
0.222041
0.22785
0.237186
0.237012
0.23777
0.215714
1.00229
1.00231
1.00301
1.00323
1.00307
1.00277
1.00264
1.00266
1.00262
1.00276
1.00299
1.00349
1.00417
1.005
1.00607
1.00722
1.0084
1.00963
1.0109
1.01226
1.01371
1.01522
1.01675
1.01833
1.02006
1.02184
1.02349
1.02496
1.02632
1.02769
1.02895
1.03013
1.03125
1.03234
1.03334
1.03418
1.03474
1.03492
1.03464
1.03407
1.03316
1.03159
1.02919
1.03375
1.03461
1.09845
1.12593
1.13795
1.13129
1.10377
1.05848
0.991154
0.896192
0.819649
0.767969
0.743818
0.724167
0.699402
0.69086
0.676959
0.667979
0.662652
0.656176
0.652173
0.649045
0.647612
0.645741
0.642967
0.640479
0.636108
0.632104
0.628079
0.621012
0.616934
0.61265
0.606274
0.602699
0.598651
0.593416
0.589345
0.581828
0.576083
0.566046
0.558759
0.546273
0.538937
0.530226
0.525032
0.520725
0.519095
0.517591
0.518371
0.517746
0.51748
0.514004
0.508258
0.500621
0.486917
0.475496
0.459817
0.444312
0.425563
0.406824
0.385299
0.362377
0.340283
0.315507
0.294592
0.274309
0.259589
0.246924
0.238119
0.23156
0.229487
0.236399
0.24599
0.248142
0.251023
0.229561
1.00265
1.00188
1.00207
1.00265
1.00312
1.00344
1.00331
1.00311
1.00304
1.00308
1.00323
1.00372
1.00441
1.00508
1.00612
1.00725
1.00848
1.00975
1.01111
1.01249
1.01394
1.01547
1.01705
1.01867
1.02048
1.02235
1.0241
1.02568
1.02716
1.02856
1.02989
1.03117
1.03241
1.03359
1.03473
1.03576
1.03684
1.03803
1.03944
1.04127
1.04356
1.04703
1.0547
1.06516
1.1447
1.18058
1.20298
1.22062
1.20971
1.20851
1.12222
1.03605
0.930401
0.866241
0.816475
0.78625
0.761204
0.740299
0.726364
0.708064
0.697384
0.687708
0.674867
0.666737
0.6605
0.654614
0.650821
0.649024
0.646829
0.644754
0.643247
0.639793
0.636473
0.634564
0.628409
0.623861
0.62077
0.615273
0.611658
0.607944
0.601876
0.59674
0.588399
0.581521
0.569301
0.560199
0.550078
0.541387
0.533021
0.528509
0.525537
0.523511
0.520946
0.518909
0.51521
0.508768
0.500889
0.488617
0.478004
0.462079
0.447682
0.430082
0.412263
0.391915
0.370274
0.347687
0.32334
0.301662
0.281571
0.266349
0.253632
0.244663
0.238701
0.236656
0.243981
0.255496
0.2592
0.265598
0.244611
1.00219
1.00202
1.00251
1.00305
1.00335
1.00344
1.00335
1.00313
1.00307
1.00313
1.00341
1.00399
1.00466
1.00545
1.00642
1.00753
1.00873
1.00991
1.01124
1.0127
1.01428
1.01586
1.0173
1.01888
1.02071
1.02269
1.02468
1.02663
1.02847
1.03023
1.03194
1.03352
1.0352
1.03702
1.039
1.04119
1.04393
1.04714
1.05067
1.0546
1.05928
1.06617
1.07038
1.1246
1.16131
1.17498
1.18734
1.19307
1.19681
1.12298
1.05217
0.946539
0.89914
0.851211
0.820247
0.801913
0.779146
0.754551
0.737195
0.716206
0.70395
0.692358
0.680108
0.674856
0.667176
0.661616
0.65946
0.656589
0.654675
0.654431
0.65292
0.65088
0.650236
0.64635
0.641904
0.639702
0.634214
0.628472
0.625953
0.621898
0.617745
0.613911
0.607008
0.600857
0.589444
0.579955
0.566476
0.557786
0.547524
0.540477
0.53488
0.5308
0.526723
0.522342
0.517479
0.510851
0.502428
0.491574
0.480372
0.465534
0.451412
0.434856
0.417843
0.399038
0.378356
0.355936
0.33223
0.30988
0.28956
0.274289
0.261289
0.252616
0.247008
0.245588
0.253019
0.265535
0.27019
0.279537
0.259053
1.00208
1.00163
1.00192
1.00267
1.00316
1.00343
1.00352
1.00344
1.00341
1.00353
1.00382
1.00431
1.00496
1.00578
1.00664
1.00767
1.00881
1.01006
1.01141
1.01295
1.01458
1.01621
1.01783
1.01946
1.02138
1.02342
1.02549
1.0275
1.02951
1.03147
1.03338
1.03526
1.03717
1.03926
1.0416
1.04395
1.04655
1.04933
1.05234
1.05588
1.05935
1.06476
1.07338
1.12756
1.13488
1.14209
1.15318
1.14058
1.12054
1.03779
0.969252
0.922237
0.895243
0.872248
0.843908
0.828261
0.805109
0.786339
0.770604
0.74956
0.736652
0.719739
0.705957
0.696085
0.686009
0.679913
0.673094
0.667926
0.665776
0.66431
0.662469
0.662701
0.661606
0.657545
0.65612
0.651148
0.645039
0.641564
0.638325
0.633928
0.630902
0.628087
0.622504
0.617137
0.608612
0.599906
0.586758
0.57677
0.563236
0.552912
0.543835
0.537305
0.533049
0.526688
0.52124
0.513324
0.505572
0.494707
0.483698
0.469749
0.456558
0.440375
0.424331
0.406474
0.386005
0.36408
0.340422
0.317645
0.297432
0.281708
0.268844
0.260322
0.255199
0.253984
0.2617
0.275749
0.282046
0.29449
0.2742
1.00167
1.00144
1.00207
1.00279
1.00314
1.00342
1.00344
1.00341
1.00346
1.00365
1.00399
1.00449
1.0052
1.00609
1.00702
1.00802
1.00918
1.01045