/*--------------------------------*- C++ -*----------------------------------*\
| =========                 |                                                 |
| \\      /  F ield         | OpenFOAM: The Open Source CFD Toolbox           |
|  \\    /   O peration     | Version:  2.2.x                                 |
|   \\  /    A nd           | Web:      www.OpenFOAM.org                      |
|    \\/     M anipulation  |                                                 |
\*---------------------------------------------------------------------------*/
FoamFile
{
    version     2.0;
    format      ascii;
    class       volScalarField;
    location    "1.85";
    object      Bx;
}
// * * * * * * * * * * * * * * * * * * * * * * * * * * * * * * * * * * * * * //

dimensions      [1 0 -2 0 0 -1 0];

internalField   nonuniform List<scalar> 
14161
(
1.00063
1.00057
1.00061
1.00067
1.00076
1.00089
1.00105
1.00125
1.00149
1.00177
1.00209
1.00248
1.00289
1.00333
1.00391
1.00444
1.00495
1.00569
1.00636
1.00682
1.00755
1.00819
1.00855
1.00907
1.00946
1.00951
1.00955
1.00954
1.00938
1.00903
1.00836
1.00734
1.00592
1.00415
1.00201
0.999383
0.996204
0.992606
0.988518
0.984237
0.979692
0.975243
0.972551
0.966902
0.95457
0.948582
0.949289
0.954754
0.964421
0.975842
0.987889
1.00028
1.01266
1.02475
1.0353
1.04447
1.05494
1.06696
1.07757
1.08484
1.09007
1.09658
1.10654
1.11694
1.12428
1.12825
1.13133
1.13639
1.14524
1.15518
1.16277
1.16627
1.16818
1.17205
1.17992
1.19003
1.19926
1.20571
1.20981
1.21466
1.22251
1.23312
1.24421
1.25384
1.26015
1.2643
1.2698
1.27938
1.2918
1.30452
1.31554
1.32136
1.32364
1.32634
1.33187
1.34234
1.35626
1.37124
1.38364
1.39202
1.39677
1.39829
1.39952
1.40599
1.41865
1.43502
1.44903
1.45116
1.43438
1.38384
1.26498
1.10129
0.927171
0.759663
0.612658
0.479682
0.341745
0.209379
0.0665851
1.00064
1.00057
1.00061
1.00067
1.00076
1.00089
1.00105
1.00125
1.00149
1.00177
1.00209
1.00248
1.00288
1.00334
1.0039
1.00442
1.00498
1.00567
1.00632
1.00686
1.00754
1.00813
1.00861
1.0091
1.00941
1.00953
1.00959
1.00958
1.00943
1.00907
1.00841
1.0074
1.00601
1.00427
1.00215
0.999519
0.996334
0.992715
0.988639
0.984286
0.979232
0.974094
0.968847
0.961357
0.949195
0.946131
0.947834
0.954261
0.965237
0.978275
0.99144
1.00481
1.01809
1.03033
1.04097
1.05005
1.05994
1.07075
1.07997
1.08725
1.0937
1.10159
1.11078
1.11888
1.1254
1.13108
1.13614
1.14162
1.14881
1.15618
1.16266
1.1684
1.17321
1.17753
1.18449
1.19277
1.20105
1.20848
1.2144
1.21924
1.22545
1.23379
1.24329
1.25333
1.26268
1.27028
1.27569
1.28202
1.29117
1.30172
1.31229
1.32071
1.32792
1.33607
1.34361
1.35203
1.36082
1.36907
1.37667
1.38413
1.38993
1.39594
1.40371
1.41251
1.42118
1.42727
1.42213
1.40112
1.3465
1.24332
1.09559
0.930313
0.776604
0.642616
0.51458
0.390161
0.267597
0.162895
0.0652272
1.00063
1.00057
1.00061
1.00067
1.00077
1.00089
1.00105
1.00125
1.00149
1.00177
1.0021
1.00248
1.00288
1.00335
1.00388
1.00442
1.00501
1.00565
1.00629
1.00689
1.00752
1.00815
1.00869
1.0091
1.00939
1.00961
1.00969
1.00967
1.00952
1.00917
1.00855
1.00761
1.0063
1.00462
1.00252
0.999921
0.99678
0.99315
0.988965
0.984174
0.978895
0.972901
0.966646
0.955403
0.942378
0.941082
0.9428
0.951425
0.963723
0.978854
0.993573
1.00878
1.02353
1.03734
1.04941
1.06071
1.07136
1.08212
1.09036
1.0983
1.10527
1.1133
1.12191
1.1288
1.13477
1.14078
1.14701
1.15347
1.15975
1.1651
1.17065
1.17696
1.18331
1.18925
1.19541
1.20209
1.20833
1.21561
1.22406
1.23174
1.23769
1.2437
1.25036
1.25745
1.26702
1.27726
1.28643
1.29306
1.29978
1.3069
1.31373
1.32264
1.33277
1.34345
1.35335
1.36117
1.36799
1.37381
1.37895
1.3835
1.38897
1.39477
1.40184
1.40712
1.4088
1.39732
1.3654
1.29254
1.15336
0.979579
0.818841
0.691992
0.585667
0.49262
0.400476
0.307475
0.214606
0.134607
0.0606404
1.00063
1.00057
1.00061
1.00067
1.00077
1.00089
1.00105
1.00125
1.00149
1.00177
1.0021
1.00247
1.00288
1.00336
1.00386
1.00442
1.00503
1.00562
1.00628
1.00694
1.00751
1.00817
1.00878
1.00909
1.00941
1.00975
1.00986
1.00983
1.00967
1.00935
1.0088
1.00799
1.00681
1.00522
1.00316
1.00064
0.997604
0.99399
0.989737
0.984773
0.979411
0.97279
0.967552
0.954704
0.937004
0.936155
0.937943
0.950667
0.96487
0.981947
0.998172
1.01421
1.03009
1.04428
1.05787
1.07113
1.08364
1.09424
1.10396
1.11383
1.1226
1.13031
1.13785
1.14426
1.15101
1.15752
1.16388
1.17007
1.17569
1.17986
1.1846
1.19161
1.19933
1.20566
1.21061
1.21578
1.22096
1.22809
1.23704
1.24567
1.25304
1.25843
1.26282
1.26817
1.27585
1.28649
1.2974
1.30627
1.31201
1.31644
1.32166
1.33027
1.34148
1.35256
1.36204
1.36968
1.37427
1.3763
1.37865
1.38492
1.38998
1.39417
1.39863
1.3949
1.37362
1.32373
1.22102
1.05547
0.85692
0.708645
0.609026
0.525319
0.456549
0.387971
0.316731
0.244338
0.175811
0.115162
0.0601802
1.00063
1.00057
1.00061
1.00067
1.00077
1.00089
1.00105
1.00125
1.00149
1.00177
1.0021
1.00246
1.00288
1.00337
1.00384
1.00441
1.00506
1.00561
1.00627
1.00697
1.00752
1.00818
1.00882
1.00912
1.00944
1.00989
1.01007
1.01004
1.0099
1.00964
1.0092
1.00857
1.00759
1.00614
1.00418
1.00182
0.999015
0.995492
0.991219
0.986135
0.980528
0.971933
0.96504
0.948735
0.928259
0.930887
0.931832
0.949206
0.96636
0.98757
1.00732
1.0261
1.0439
1.06002
1.07573
1.09053
1.1036
1.11368
1.12384
1.13542
1.14635
1.15452
1.15987
1.16552
1.17333
1.18111
1.1871
1.19238
1.19721
1.20183
1.20602
1.21195
1.21993
1.22771
1.2336
1.2378
1.24198
1.2468
1.25364
1.26188
1.27006
1.27742
1.28305
1.28721
1.29207
1.29942
1.30934
1.31865
1.32602
1.33226
1.33643
1.34292
1.35258
1.36219
1.37024
1.3756
1.37796
1.37842
1.38136
1.38602
1.38877
1.38969
1.38063
1.35291
1.2852
1.15465
0.963359
0.76379
0.629399
0.536325
0.46845
0.415359
0.366963
0.313002
0.255904
0.200546
0.151504
0.104651
0.0626753
1.00063
1.00057
1.00061
1.00067
1.00076
1.00089
1.00105
1.00125
1.00148
1.00177
1.0021
1.00245
1.00288
1.00337
1.00384
1.00441
1.00507
1.00562
1.00626
1.00698
1.00756
1.00821
1.00879
1.0092
1.00959
1.01003
1.01031
1.01031
1.01022
1.01007
1.00978
1.00929
1.00852
1.00732
1.00563
1.00356
1.0011
0.997919
0.993888
0.989028
0.983295
0.97434
0.96186
0.944825
0.919817
0.929144
0.929939
0.952806
0.970894
0.995165
1.01961
1.04183
1.06206
1.08031
1.09916
1.11628
1.13067
1.14142
1.15267
1.16487
1.17588
1.18427
1.18969
1.19445
1.20066
1.20908
1.21672
1.2211
1.22382
1.22812
1.23419
1.23963
1.24566
1.25304
1.25966
1.26479
1.26901
1.27302
1.2771
1.28222
1.28962
1.29836
1.30663
1.31319
1.31765
1.32118
1.32603
1.33352
1.34241
1.35022
1.35667
1.36196
1.36707
1.37189
1.37722
1.37927
1.38104
1.3822
1.38255
1.38289
1.37954
1.36247
1.32185
1.23854
1.08376
0.872686
0.694261
0.575966
0.490743
0.42885
0.383948
0.347349
0.307067
0.262174
0.215417
0.171673
0.135815
0.0989782
0.0667933
1.00063
1.00057
1.00061
1.00067
1.00076
1.00089
1.00105
1.00125
1.00148
1.00177
1.0021
1.00245
1.00288
1.00337
1.00384
1.00441
1.00506
1.00564
1.00625
1.00698
1.00764
1.00824
1.0088
1.00935
1.00982
1.01019
1.01051
1.0107
1.01069
1.01068
1.01052
1.01018
1.00966
1.00882
1.00763
1.00603
1.00402
1.00144
0.998261
0.994342
0.989442
0.982358
0.97643
0.955105
0.925651
0.936697
0.941298
0.967798
0.989532
1.01495
1.04225
1.06743
1.08981
1.11075
1.1307
1.14923
1.16493
1.17876
1.19169
1.2037
1.21343
1.22094
1.22783
1.23391
1.23782
1.2418
1.24879
1.25557
1.25976
1.26269
1.26712
1.27257
1.27741
1.28277
1.28854
1.29448
1.3002
1.30554
1.30992
1.31338
1.31733
1.32267
1.32978
1.33765
1.34393
1.34856
1.35159
1.35577
1.36189
1.36751
1.37317
1.3775
1.37998
1.38068
1.3818
1.38164
1.38177
1.38222
1.37824
1.36478
1.34058
1.2871
1.17858
1.0103
0.806331
0.652233
0.541983
0.464116
0.40795
0.366836
0.335035
0.303424
0.2677
0.229711
0.190283
0.154362
0.126591
0.0970414
0.0717745
1.00063
1.00057
1.0006
1.00067
1.00076
1.00089
1.00105
1.00125
1.00148
1.00177
1.00209
1.00245
1.00288
1.00336
1.00384
1.0044
1.00504
1.00567
1.00625
1.00699
1.00774
1.00827
1.00882
1.00951
1.01008
1.01038
1.01072
1.01113
1.01139
1.01144
1.01143
1.01127
1.01102
1.01063
1.01009
1.00932
1.00809
1.00633
1.00416
1.00114
0.997219
0.991865
0.994446
0.974987
0.943389
0.954646
0.964566
0.991311
1.02093
1.04842
1.07888
1.10663
1.13184
1.1555
1.17634
1.19414
1.20956
1.22295
1.23535
1.2466
1.25487
1.26027
1.26592
1.27276
1.27751
1.28039
1.2842
1.28969
1.29593
1.30032
1.30341
1.30729
1.31095
1.31427
1.31809
1.32306
1.32917
1.33521
1.3407
1.34529
1.34823
1.35107
1.35405
1.3594
1.36583
1.37095
1.3748
1.37667
1.37919
1.3811
1.38373
1.38497
1.38551
1.38353
1.38263
1.38108
1.37731
1.37184
1.351
1.30781
1.23629
1.11476
0.926532
0.739867
0.612654
0.518994
0.450617
0.399664
0.361255
0.333015
0.305751
0.276093
0.243598
0.210531
0.176425
0.145958
0.122891
0.098616
0.0782298
1.00063
1.00056
1.0006
1.00067
1.00076
1.00089
1.00105
1.00125
1.00149
1.00177
1.00209
1.00245
1.00288
1.00335
1.00384
1.0044
1.00502
1.00567
1.00627
1.00699
1.00777
1.00829
1.00882
1.00962
1.01029
1.01058
1.01092
1.0115
1.01208
1.0124
1.01249
1.01249
1.01252
1.01269
1.01285
1.01305
1.01313
1.0129
1.01194
1.01027
1.00818
1.00516
1.01413
0.995711
0.971652
0.984254
1.00473
1.03502
1.07169
1.10449
1.13706
1.16361
1.18723
1.20988
1.22706
1.24298
1.25573
1.26562
1.27657
1.28395
1.29014
1.29818
1.3042
1.30767
1.31135
1.31543
1.31925
1.324
1.32888
1.33246
1.33553
1.33898
1.34205
1.34457
1.34698
1.35071
1.35567
1.36078
1.36417
1.36663
1.3694
1.3722
1.37539
1.37877
1.38138
1.38364
1.38509
1.38509
1.38553
1.3868
1.38729
1.38703
1.38505
1.37941
1.37561
1.36852
1.34938
1.31771
1.26564
1.16923
1.02236
0.840769
0.686813
0.575744
0.497518
0.440719
0.39758
0.36316
0.337126
0.31378
0.287534
0.260175
0.229993
0.200901
0.171024
0.144632
0.124489
0.103801
0.0869381
1.00062
1.00056
1.0006
1.00066
1.00076
1.00089
1.00104
1.00124
1.00148
1.00176
1.00208
1.00245
1.00287
1.00332
1.00384
1.0044
1.005
1.00566
1.0063
1.00702
1.00775
1.00835
1.00893
1.00971
1.01038
1.0109
1.01133
1.01195
1.01266
1.01332
1.01379
1.01396
1.01426
1.01491
1.01583
1.01694
1.01835
1.0199
1.02142
1.02237
1.02239
1.02118
1.02182
1.02464
1.01609
1.03323
1.07367
1.10862
1.15242
1.18524
1.21281
1.23208
1.25051
1.26409
1.2778
1.29057
1.30014
1.30901
1.31572
1.3195
1.32579
1.3303
1.33442
1.33997
1.34363
1.34419
1.34723
1.35091
1.35459
1.35892
1.36197
1.36426
1.36731
1.36947
1.37035
1.37188
1.37463
1.37784
1.38114
1.38285
1.38439
1.38579
1.3866
1.38733
1.38788
1.38792
1.38825
1.38755
1.38548
1.38609
1.38438
1.37883
1.37195
1.35789
1.33586
1.31182
1.26895
1.19
1.07998
0.921618
0.752329
0.632822
0.541529
0.475227
0.428771
0.393848
0.366251
0.345146
0.32451
0.303285
0.27811
0.252818
0.224897
0.198484
0.171787
0.148205
0.129731
0.111417
0.0970941
1.00062
1.00056
1.0006
1.00066
1.00075
1.00088
1.00104
1.00124
1.00148
1.00175
1.00207
1.00245
1.00286
1.0033
1.00384
1.0044
1.00498
1.00565
1.00634
1.00704
1.00773
1.00845
1.00913
1.00984
1.01053
1.01122
1.01183
1.01252
1.01324
1.01407
1.01486
1.0156
1.01635
1.01752
1.01913
1.02104
1.02336
1.02637
1.03061
1.03554
1.04119
1.04726
1.05011
1.07351
1.11396
1.12931
1.18152
1.20369
1.2312
1.2519
1.27196
1.28937
1.30496
1.31612
1.32612
1.33595
1.34327
1.34964
1.35423
1.35748
1.35996
1.36231
1.36458
1.36805
1.37181
1.3742
1.37213
1.37252
1.37608
1.3809
1.38425
1.38574
1.38584
1.38677
1.38783
1.38755
1.38773
1.38888
1.39161
1.39357
1.39321
1.39186
1.38995
1.38874
1.38909
1.3882
1.38734
1.38455
1.37721
1.36942
1.35987
1.34243
1.32259
1.29389
1.24877
1.18657
1.09644
0.957126
0.799621
0.674544
0.578591
0.504374
0.453752
0.415441
0.388092
0.366087
0.349211
0.333814
0.315608
0.295903
0.272437
0.249359
0.223306
0.198879
0.174449
0.153101
0.13626
0.120086
0.107854
1.00062
1.00056
1.00059
1.00066
1.00075
1.00088
1.00104
1.00123
1.00148
1.00174
1.00206
1.00245
1.00286
1.00329
1.00383
1.00441
1.00498
1.00563
1.00638
1.00709
1.00771
1.00853
1.00934
1.01001
1.01069
1.01153
1.01239
1.01317
1.01392
1.01475
1.01585
1.01718
1.01851
1.02011
1.02212
1.02457
1.02766
1.03189
1.0379
1.04684
1.05998
1.08096
1.10647
1.17238
1.25608
1.27624
1.31096
1.30729
1.30893
1.3128
1.32009
1.33218
1.34703
1.35952
1.36992
1.37736
1.3817
1.38584
1.38941
1.39029
1.38941
1.39002
1.39032
1.39128
1.39403
1.39571
1.39465
1.39213
1.39239
1.39496
1.39741
1.39792
1.39776
1.39669
1.39639
1.39599
1.39452
1.39434
1.39564
1.39701
1.39583
1.39266
1.38826
1.3841
1.38089
1.37618
1.36767
1.35749
1.33966
1.31952
1.29656
1.26253
1.21747
1.1623
1.07159
0.952675
0.816714
0.693292
0.604145
0.523693
0.468853
0.428324
0.399459
0.379327
0.36321
0.350013
0.338689
0.325026
0.309339
0.290592
0.269469
0.247594
0.223368
0.20037
0.177594
0.158646
0.143745
0.129614
0.11925
1.00061
1.00055
1.00059
1.00065
1.00075
1.00087
1.00103
1.00123
1.00147
1.00174
1.00205
1.00244
1.00285
1.00329
1.00383
1.00441
1.00498
1.00561
1.00639
1.00712
1.00772
1.00856
1.0095
1.01017
1.01077
1.01177
1.01287
1.0138
1.01463
1.01546
1.01664
1.01835
1.02026
1.02221
1.02444
1.02717
1.03046
1.03461
1.04005
1.04685
1.05485
1.0649
1.07657
1.12636
1.22781
1.35238
1.3587
1.35961
1.36158
1.3621
1.36411
1.36912
1.37765
1.38803
1.39647
1.40238
1.40651
1.40861
1.41059
1.41118
1.41038
1.40975
1.40947
1.40811
1.40854
1.40966
1.41017
1.4075
1.40494
1.40315
1.40373
1.40423
1.40396
1.40276
1.40101
1.39926
1.39691
1.3946
1.3924
1.39092
1.38628
1.37935
1.36999
1.35918
1.34747
1.33412
1.31249
1.28951
1.25722
1.21408
1.16775
1.10303
1.01509
0.916359
0.794165
0.686101
0.608363
0.527983
0.476105
0.434343
0.403062
0.382039
0.367254
0.356928
0.34707
0.339415
0.32981
0.318476
0.303944
0.287067
0.267696
0.24696
0.224626
0.203158
0.182191
0.165323
0.152018
0.139744
0.131052
1.00061
1.00055
1.00059
1.00065
1.00074
1.00087
1.00103
1.00122
1.00146
1.00173
1.00205
1.00242
1.00284
1.00329
1.00381
1.0044
1.00498
1.00562
1.00639
1.00712
1.00777
1.00862
1.00955
1.01033
1.011
1.01196
1.01318
1.01432
1.01532
1.01617
1.01732
1.01916
1.02141
1.02363
1.02593
1.02854
1.03159
1.03516
1.03933
1.04434
1.05
1.05479
1.06303
1.1063
1.21418
1.29321
1.34407
1.3687
1.37541
1.37833
1.38525
1.3901
1.39529
1.40347
1.40874
1.41324
1.41477
1.41582
1.41627
1.41619
1.41557
1.41615
1.41668
1.41445
1.41164
1.41187
1.41376
1.41388
1.41091
1.40734
1.40429
1.40314
1.40221
1.40112
1.39773
1.39288
1.38701
1.37955
1.37295
1.3633
1.35045
1.33556
1.31824
1.29761
1.26684
1.23433
1.19137
1.1441
1.08625
1.01057
0.929574
0.836071
0.736743
0.65341
0.589075
0.517182
0.472894
0.43204
0.401416
0.380478
0.364782
0.354528
0.347487
0.342043
0.337008
0.331399
0.323549
0.314184
0.300629
0.28539
0.266882
0.247231
0.22669
0.206949
0.188037
0.172808
0.160635
0.150072
0.142891
1.0006
1.00054
1.00058
1.00064
1.00074
1.00086
1.00102
1.00121
1.00144
1.00172
1.00204
1.0024
1.00282
1.00328
1.00379
1.00438
1.00498
1.00564
1.00636
1.00711
1.00786
1.0087
1.00958
1.01048
1.01132
1.0123
1.01344
1.01466
1.01584
1.01695
1.01819
1.01985
1.02202
1.02441
1.02669
1.02899
1.03162
1.03464
1.03776
1.041
1.04541
1.05187
1.07101
1.12104
1.1724
1.20263
1.27227
1.33736
1.36656
1.38176
1.39101
1.39526
1.39982
1.40485
1.40938
1.41276
1.4147
1.41584
1.4152
1.41481
1.4148
1.41457
1.41564
1.41406
1.4103
1.40775
1.40826
1.40955
1.40798
1.40264
1.39632
1.39152
1.3875
1.38283
1.37491
1.36405
1.35121
1.33427
1.31616
1.29249
1.26503
1.23445
1.19781
1.15532
1.09727
1.03485
0.966349
0.895439
0.818862
0.738836
0.666549
0.607382
0.549891
0.493986
0.457625
0.420764
0.394744
0.374244
0.359356
0.349385
0.34207
0.337821
0.334935
0.331884
0.329514
0.32536
0.319422
0.310948
0.298888
0.284473
0.266742
0.24822
0.229549
0.211891
0.195112
0.18146
0.170155
0.160952
0.154943
1.0006
1.00054
1.00057
1.00064
1.00073
1.00085
1.00101
1.0012
1.00143
1.00171
1.00203
1.00238
1.0028
1.00328
1.00377
1.00434
1.00497
1.00564
1.00633
1.00712
1.00795
1.00878
1.00963
1.01062
1.01166
1.01266
1.01373
1.01497
1.01628
1.0176
1.01906
1.02067
1.0225
1.02467
1.02687
1.02899
1.03114
1.03334
1.03566
1.0374
1.0399
1.04366
1.07672
1.11645
1.13246
1.15027
1.19284
1.25552
1.31977
1.35215
1.36892
1.37775
1.38557
1.39222
1.39763
1.4034
1.40595
1.40642
1.40587
1.40593
1.40568
1.40524
1.405
1.40363
1.39996
1.39603
1.39318
1.39087
1.38706
1.37961
1.36995
1.35712
1.34535
1.33082
1.31071
1.28835
1.25974
1.22757
1.18533
1.13906
1.08719
1.03169
0.968047
0.902183
0.831176
0.767663
0.701163
0.643603
0.595003
0.54699
0.504578
0.46299
0.435034
0.404575
0.384028
0.364564
0.35151
0.342223
0.334838
0.331116
0.328573
0.3273
0.3265
0.325567
0.324047
0.321258
0.316691
0.309083
0.298334
0.284784
0.268155
0.250617
0.23347
0.217657
0.202683
0.190505
0.180087
0.172069
0.167081
1.00059
1.00053
1.00057
1.00063
1.00072
1.00084
1.001
1.00119
1.00142
1.00169
1.00202
1.00236
1.00278
1.00326
1.00375
1.0043
1.00496
1.00565
1.00632
1.0071
1.008
1.00886
1.00968
1.01073
1.01189
1.01299
1.01403
1.01521
1.01664
1.01816
1.01977
1.02129
1.02288
1.02469
1.02673
1.02865
1.03037
1.0319
1.03344
1.03447
1.03483
1.0342
1.05644
1.08973
1.09489
1.1045
1.12569
1.1614
1.22291
1.27565
1.32083
1.34046
1.35869
1.36849
1.37782
1.38563
1.3896
1.392
1.39157
1.39013
1.38922
1.38831
1.38421
1.38088
1.37663
1.37047
1.36263
1.35142
1.33523
1.32022
1.30271
1.27738
1.24909
1.21332
1.17174
1.12692
1.07335
1.01274
0.949122
0.884661
0.82405
0.762672
0.703645
0.654481
0.610361
0.569547
0.529969
0.493697
0.462188
0.43068
0.410172
0.386472
0.371064
0.354583
0.343393
0.334173
0.327896
0.32437
0.321446
0.321348
0.32145
0.322039
0.322391
0.322367
0.321178
0.319201
0.315107
0.308417
0.298507
0.285905
0.270488
0.254387
0.238636
0.224264
0.210977
0.200071
0.190666
0.183793
0.179603
1.00058
1.00053
1.00056
1.00062
1.00071
1.00083
1.00099
1.00118
1.0014
1.00168
1.002
1.00234
1.00275
1.00324
1.00374
1.00428
1.00494
1.00565
1.00632
1.00709
1.00802
1.00893
1.00976
1.01078
1.01203
1.01326
1.01429
1.01542
1.01692
1.01858
1.02022
1.02172
1.02312
1.02464
1.02634
1.02807
1.02959
1.03089
1.03238
1.03422
1.03849
1.05132
1.07844
1.09075
1.09213
1.09752
1.10642
1.12313
1.15245
1.19654
1.26138
1.30507
1.33735
1.34722
1.36483
1.36888
1.37326
1.37515
1.37259
1.37098
1.36799
1.35968
1.34898
1.34165
1.32986
1.31458
1.29556
1.26942
1.2343
1.19919
1.16329
1.114
1.05671
0.996376
0.933891
0.869369
0.807957
0.749622
0.700146
0.654908
0.613418
0.575919
0.541351
0.509572
0.480338
0.455234
0.428968
0.408482
0.391337
0.371126
0.358866
0.344602
0.336654
0.328339
0.321796
0.318465
0.316038
0.31558
0.315838
0.317432
0.31892
0.320253
0.321204
0.321712
0.320866
0.318843
0.31494
0.309308
0.300229
0.288575
0.274461
0.25998
0.24521
0.231727
0.219571
0.209543
0.201133
0.195555
0.19219
1.00058
1.00052
1.00055
1.00061
1.00071
1.00082
1.00097
1.00117
1.00139
1.00166
1.00198
1.00233
1.00273
1.00321
1.00372
1.00427
1.00492
1.00563
1.00632
1.00712
1.00802
1.00895
1.00985
1.01088
1.01212
1.01338
1.01453
1.01564
1.01706
1.01884
1.02051
1.02196
1.0233
1.02456
1.02589
1.02742
1.02867
1.02951
1.02974
1.02951
1.02931
1.04662
1.07407
1.08034
1.08326
1.08739
1.0945
1.10221
1.11638
1.14062
1.18307
1.23385
1.29208
1.31839
1.34817
1.348
1.35384
1.34958
1.34462
1.33605
1.32253
1.30608
1.28035
1.25974
1.23341
1.19371
1.14771
1.10232
1.04568
0.984852
0.924208
0.858274
0.797766
0.743371
0.69663
0.653959
0.615469
0.58093
0.549685
0.5208
0.49449
0.469876
0.448036
0.428795
0.411517
0.394997
0.379875
0.36347
0.353263
0.33969
0.332409
0.323938
0.318481
0.314685
0.311693
0.31099
0.310121
0.311182
0.313203
0.315528
0.317644
0.319288
0.320603
0.321438
0.321168
0.319278
0.315442
0.310567
0.302621
0.292011
0.279115
0.266246
0.252381
0.240164
0.228751
0.21965
0.212213
0.20784
0.205216
1.00057
1.00051
1.00055
1.0006
1.00069
1.00081
1.00096
1.00115
1.00137
1.00163
1.00195
1.00231
1.0027
1.00317
1.00369
1.00425
1.00488
1.00559
1.00632
1.00713
1.00802
1.00896
1.00995
1.01101
1.01219
1.01345
1.01472
1.01592
1.01733
1.01898
1.02065
1.02206
1.0234
1.02453
1.02571
1.027
1.028
1.02856
1.02827
1.02728
1.02314
1.03087
1.05973
1.06461
1.06948
1.07434
1.07982
1.08888
1.10017
1.11543
1.14054
1.17479
1.22401
1.28095
1.31621
1.31803
1.31773
1.30465
1.28774
1.2628
1.23013
1.19752
1.14991
1.09908
1.04902
0.985741
0.91501
0.855709
0.798967
0.744613
0.698824
0.657335
0.620346
0.587343
0.558246
0.531807
0.507823
0.485122
0.466155
0.447359
0.432508
0.416469
0.402265
0.387817
0.375754
0.363875
0.354213
0.342473
0.335102
0.325286
0.319838
0.314256
0.310173
0.308406
0.307096
0.307329
0.307945
0.310454
0.312965
0.315499
0.317866
0.319665
0.321017
0.321893
0.322194
0.320884
0.317558
0.313102
0.306539
0.297377
0.285949
0.274113
0.260851
0.249702
0.238544
0.230096
0.223426
0.219937
0.21798
1.00056
1.0005
1.00054
1.00059
1.00068
1.0008
1.00094
1.00113
1.00136
1.00161
1.00192
1.00228
1.00267
1.00313
1.00366
1.00423
1.00484
1.00554
1.00631
1.00712
1.00799
1.00897
1.01003
1.01111
1.01226
1.01353
1.01486
1.01622
1.01762
1.01907
1.02061
1.02209
1.02334
1.02459
1.02579
1.02707
1.0283
1.02952
1.0304
1.03165
1.03756
1.0519
1.067
1.06453
1.06562
1.06806
1.07359
1.07982
1.08783
1.09936
1.11545
1.13673
1.16103
1.21812
1.24698
1.26273
1.2498
1.21254
1.17475
1.11597
1.05583
0.999848
0.930312
0.864932
0.80748
0.756288
0.710006
0.66921
0.632833
0.599849
0.571586
0.545799
0.521902
0.500723
0.482954
0.465484
0.452332
0.438137
0.425356
0.412783
0.401407
0.389879
0.380206
0.369404
0.360826
0.350895
0.343383
0.33372
0.327391
0.319734
0.314467
0.310434
0.307844
0.307624
0.307534
0.308499
0.309508
0.311661
0.314073
0.316568
0.319064
0.321054
0.322526
0.323601
0.324312
0.323649
0.32102
0.316595
0.310973
0.303253
0.293246
0.282571
0.269948
0.259928
0.249122
0.241309
0.235356
0.232642
0.230988
1.00055
1.00049
1.00053
1.00058
1.00067
1.00079
1.00093
1.00111
1.00133
1.00158
1.00189
1.00225
1.00264
1.00308
1.00361
1.00419
1.00478
1.00548
1.00629
1.0071
1.00795
1.00895
1.01005
1.01118
1.0123
1.01358
1.015
1.01647
1.01785
1.0192
1.02067
1.02222
1.0236
1.02489
1.02609
1.02737
1.02882
1.03088
1.03385
1.03777
1.04971
1.06226
1.0675
1.06581
1.06697
1.06821
1.07061
1.07262
1.07699
1.08483
1.09059
1.09277
1.11823
1.11817
1.1268
1.13258
1.085
1.03024
0.959928
0.896871
0.834316
0.78235
0.735814
0.692255
0.655871
0.623687
0.594629
0.56845
0.544803
0.523329
0.504915
0.488974
0.474788
0.461154
0.449163
0.436806
0.425536
0.416212
0.406746
0.397334
0.38962
0.379564
0.372052
0.362689
0.355792
0.347682
0.341212
0.333274
0.327666
0.321464
0.317097
0.313773
0.311853
0.311639
0.311715
0.312413
0.313311
0.315334
0.317193
0.319465
0.322047
0.324266
0.325882
0.326857
0.327464
0.327477
0.325785
0.321882
0.31686
0.310492
0.30187
0.292134
0.280639
0.270971
0.260419
0.252952
0.247523
0.24506
0.243956
1.00054
1.00048
1.00052
1.00057
1.00065
1.00077
1.00091
1.00109
1.00131
1.00156
1.00185
1.00221
1.0026
1.00304
1.00356
1.00414
1.00474
1.00544
1.00625
1.00708
1.00792
1.00892
1.01005
1.01122
1.01232
1.01356
1.01506
1.0166
1.01803
1.01932
1.02068
1.02233
1.02391
1.02526
1.02639
1.02725
1.02817
1.02884
1.02894
1.02775
1.03638
1.05532
1.05796
1.05907
1.06066
1.06225
1.06322
1.06338
1.06354
1.06211
1.06006
1.05426
1.04657
1.02561
0.990556
0.936351
0.873332
0.823247
0.776594
0.733896
0.694728
0.660904
0.630862
0.602783
0.578227
0.556114
0.537252
0.521302
0.506917
0.492207
0.478866
0.466118
0.454934
0.444497
0.435273
0.426029
0.417143
0.409151
0.402089
0.394318
0.388258
0.380281
0.374253
0.366632
0.36076
0.353943
0.347866
0.340933
0.335565
0.329792
0.325599
0.321785
0.319752
0.31901
0.318978
0.319237
0.320043
0.321337
0.322455
0.324465
0.32694
0.32931
0.331047
0.331873
0.332101
0.332072
0.331006
0.327999
0.323106
0.317409
0.309858
0.301114
0.291279
0.281913
0.272075
0.265419
0.260442
0.258029
0.257472
1.00052
1.00047
1.0005
1.00056
1.00064
1.00075
1.00089
1.00106
1.00128
1.00153
1.00181
1.00216
1.00256
1.00299
1.00349
1.00408
1.00469
1.00538
1.00618
1.00703
1.0079
1.0089
1.01004
1.01121
1.01236
1.01363
1.0151
1.01667
1.01816
1.01943
1.02078
1.02234
1.02412
1.02554
1.02665
1.02744
1.02805
1.02828
1.02734
1.02467
1.02363
1.04346
1.04442
1.04725
1.04892
1.05086
1.05164
1.05178
1.05047
1.04614
1.04048
1.03047
0.978695
0.918287
0.838093
0.774822
0.736796
0.701885
0.674264
0.647404
0.6227
0.600032
0.580578
0.562587
0.547233
0.531871
0.517705
0.504759
0.494915
0.48476
0.475016
0.465333
0.456205
0.447641
0.439945
0.432266
0.424471
0.416904
0.410367
0.40314
0.397418
0.390408
0.384918
0.378267
0.372714
0.366745
0.360546
0.353854
0.348331
0.342229
0.337849
0.333281
0.331147
0.329647
0.328895
0.328783
0.329204
0.329588
0.330312
0.332054
0.334093
0.336142
0.337733
0.338492
0.33855
0.338
0.337177
0.334961
0.330845
0.325622
0.319243
0.311337
0.302663
0.293497
0.284491
0.278129
0.273321
0.270813
0.270951
1.00051
1.00046
1.00049
1.00054
1.00062
1.00073
1.00087
1.00103
1.00124
1.00149
1.00177
1.00211
1.0025
1.00294
1.00342
1.004
1.00463
1.00531
1.00608
1.00695
1.00786
1.00886
1.00997
1.01116
1.01239
1.01371
1.01513
1.01666
1.01813
1.01959
1.02099
1.02251
1.02422
1.0258
1.02707
1.02822
1.0294
1.0309
1.03392
1.03933
1.04838
1.05417
1.04891
1.04753
1.04575
1.04485
1.04408
1.04347
1.0378
1.02773
1.00869
0.967373
0.889412
0.797538
0.735748
0.695298
0.666253
0.643309
0.624153
0.607606
0.592632
0.578676
0.565682
0.553008
0.542875
0.532287
0.523439
0.513056
0.504501
0.496741
0.488599
0.480494
0.47219
0.46384
0.455974
0.448385
0.440491
0.432718
0.425922
0.41844
0.412432
0.405625
0.399964
0.393811
0.388001
0.38273
0.376402
0.369692
0.364024
0.35733
0.352803
0.347594
0.345136
0.342965
0.341758
0.341101
0.340646
0.340251
0.340635
0.341638
0.342816
0.344042
0.345293
0.346164
0.346295
0.345427
0.344042
0.34183
0.338289
0.333301
0.327569
0.320686
0.31317
0.305079
0.297137
0.291031
0.286735
0.284205
0.284775
1.0005
1.00045
1.00048
1.00053
1.0006
1.00071
1.00084
1.00101
1.00121
1.00145
1.00173
1.00205
1.00244
1.00287
1.00334
1.00391
1.00455
1.00522
1.00597
1.00685
1.0078
1.00879
1.00987
1.01108
1.01238
1.01371
1.01512
1.01664
1.01823
1.0198
1.0213
1.02284
1.02437
1.02603
1.02759
1.02907
1.03067
1.03261
1.03534
1.04549
1.05013
1.05063
1.04793
1.04612
1.04441
1.04253
1.04009
1.03844
1.02407
0.998821
0.959889
0.872421
0.785799
0.724779
0.683282
0.656188
0.636448
0.621467
0.609052
0.59785
0.588377
0.579454
0.571618
0.563538
0.556616
0.54861
0.542692
0.535262
0.527039
0.520258
0.512499
0.504824
0.496577
0.487479
0.478628
0.470058
0.461589
0.453378
0.445881
0.437937
0.431319
0.424266
0.417968
0.412239
0.405898
0.400954
0.39516
0.3882
0.382559
0.375172
0.370337
0.364353
0.361067
0.358165
0.356367
0.354981
0.353786
0.353182
0.353126
0.353158
0.353152
0.353314
0.353782
0.354517
0.354873
0.354128
0.352576
0.350127
0.346857
0.342697
0.337528
0.331586
0.32503
0.31752
0.310328
0.303773
0.299713
0.296934
0.298134
1.00048
1.00043
1.00046
1.00051
1.00058
1.00068
1.00082
1.00097
1.00117
1.0014
1.00168
1.00199
1.00236
1.0028
1.00326
1.00381
1.00445
1.00511
1.00585
1.00673
1.0077
1.00867
1.00973
1.01097
1.01234
1.01369
1.01507
1.01659
1.01831
1.02001
1.02169
1.02318
1.02464
1.02616
1.02761
1.02863
1.02903
1.0281
1.02373
1.02419
1.03708
1.03818
1.03863
1.03907
1.03879
1.03728
1.03319
1.02388
1.00254
0.945267
0.866815
0.778458
0.721421
0.68328
0.65831
0.640854
0.628626
0.619264
0.611591
0.604606
0.59839
0.592502
0.587162
0.581809
0.577224
0.570993
0.566337
0.561258
0.553544
0.547182
0.539699
0.531693
0.523693
0.5146
0.505458
0.496318
0.48711
0.478312
0.469703
0.460855
0.453132
0.445349
0.437826
0.431683
0.424728
0.419189
0.413698
0.406397
0.400772
0.393009
0.38789
0.381348
0.377345
0.373889
0.37194
0.369846
0.368107
0.366924
0.366003
0.365204
0.364366
0.363745
0.363304
0.363416
0.363815
0.363383
0.361821
0.359349
0.355715
0.351758
0.346883
0.341461
0.335821
0.329289
0.322958
0.316535
0.312949
0.310199
0.311822
1.00046
1.00042
1.00044
1.00049
1.00056
1.00066
1.00078
1.00094
1.00112
1.00135
1.00162
1.00192
1.00228
1.00271
1.00317
1.0037
1.00432
1.00499
1.00573
1.00658
1.00755
1.00853
1.00961
1.01086
1.01225
1.01367
1.01503
1.01653
1.01829
1.02018
1.02193
1.02352
1.02502
1.0266
1.02816
1.02936
1.02967
1.02872
1.0264
1.01839
1.03299
1.03212
1.03337
1.03356
1.03253
1.02766
1.01738
0.984044
0.942452
0.850385
0.774621
0.720738
0.687123
0.664199
0.648876
0.637917
0.630034
0.62393
0.618846
0.614245
0.610027
0.605865
0.601923
0.597787
0.594039
0.589343
0.585018
0.581344
0.575446
0.569908
0.564234
0.556814
0.549553
0.541162
0.532241
0.522856
0.512592
0.502708
0.493069
0.483464
0.474881
0.466481
0.458288
0.451465
0.444183
0.438218
0.432985
0.425619
0.42001
0.411788
0.406188
0.398936
0.394154
0.389488
0.386766
0.384127
0.382019
0.380516
0.378722
0.377131
0.375738
0.374755
0.373678
0.372799
0.372598
0.372484
0.371508
0.369713
0.366202
0.362342
0.358192
0.353219
0.348245
0.342215
0.336158
0.329433
0.325829
0.323144
0.325182
1.00045
1.0004
1.00043
1.00047
1.00054
1.00063
1.00075
1.0009
1.00108
1.00129
1.00156
1.00185
1.00219
1.0026
1.00306
1.00357
1.00416
1.00484
1.00558
1.0064
1.00734
1.00836
1.00946
1.01071
1.01208
1.01353
1.01497
1.01657
1.01835
1.02027
1.02217
1.02395
1.02567
1.02745
1.02924
1.03147
1.03374
1.03736
1.04234
1.04427
1.0476
1.04393
1.04201
1.03929
1.03285
1.01605
0.996842
0.92657
0.84608
0.77229
0.723807
0.691991
0.670748
0.656377
0.646387
0.639227
0.633964
0.629828
0.626355
0.623195
0.620257
0.61727
0.614434
0.611282
0.608107
0.604534
0.600425
0.597173
0.59272
0.588056
0.583982
0.577631
0.571652
0.564113
0.55593
0.547384
0.537692
0.52788
0.517996
0.5077
0.498126
0.488814
0.47963
0.471814
0.463506
0.456572
0.450956
0.443149
0.437208
0.428704
0.422734
0.415038
0.409837
0.404427
0.400924
0.398155
0.395502
0.39396
0.391438
0.389328
0.38751
0.38628
0.384968
0.383397
0.382367
0.382032
0.381413
0.38004
0.37688
0.372776
0.368829
0.364409
0.359693
0.354252
0.348538
0.342169
0.338983
0.336587
0.338905
1.00043
1.00038
1.00041
1.00045
1.00051
1.0006
1.00071
1.00086
1.00103
1.00123
1.00148
1.00177
1.00209
1.00249
1.00293
1.00342
1.00399
1.00467
1.00539
1.00617
1.00709
1.00814
1.00926
1.01046
1.01181
1.0133
1.01487
1.01653
1.01835
1.02034
1.02244
1.02451
1.02665
1.02869
1.0309
1.03319
1.0352
1.03536
1.04108
1.0456
1.04815
1.04756
1.04512
1.0352
1.02223
0.978062
0.929208
0.839634
0.772725
0.727393
0.698183
0.678264
0.664562
0.654806
0.64801
0.642972
0.639226
0.636234
0.633648
0.631273
0.629123
0.626984
0.62481
0.622571
0.619907
0.617304
0.613844
0.610706
0.607206
0.603264
0.600073
0.595069
0.590205
0.583875
0.576603
0.569042
0.560025
0.550471
0.540303
0.529243