/*--------------------------------*- C++ -*----------------------------------*\
| =========                 |                                                 |
| \\      /  F ield         | OpenFOAM: The Open Source CFD Toolbox           |
|  \\    /   O peration     | Version:  2.2.x                                 |
|   \\  /    A nd           | Web:      www.OpenFOAM.org                      |
|    \\/     M anipulation  |                                                 |
\*---------------------------------------------------------------------------*/
FoamFile
{
    version     2.0;
    format      ascii;
    class       volScalarField;
    location    "1.85";
    object      divBf;
}
// * * * * * * * * * * * * * * * * * * * * * * * * * * * * * * * * * * * * * //

dimensions      [1 -3 -2 0 0 -1 0];

internalField   nonuniform List<scalar> 
14161
(
640.467
341.687
326.616
292.304
263.573
238.206
212.694
193.201
176.039
157.127
148.02
147.029
120.189
121.771
146.784
97.4142
83.6116
184.965
54.5734
-2.88595
144.024
-39.0055
-129.069
-56.0202
-273.349
-377.319
-454.769
-497.094
-664.159
-868.037
-1166.43
-1511.82
-1918.19
-2336.5
-2810.82
-3426.13
-4210.4
-4876.99
-5513.89
-5452.32
-6632.14
-4734.4
-1739.13
7400.87
1756.24
-21671.9
-27668.4
-28000.2
-29342.5
-28524.8
-30976.1
-30846.5
-30628.1
-31193.1
-30637.7
-32376.7
-29453.8
-29224.6
-28505.6
-26815.9
-27431.3
-24096.1
-22222.1
-23224.2
-19874.1
-18985.9
-18690.7
-14950.5
-12476.3
-14010.4
-10842.8
-8657.83
-8231.63
-5373.39
-2345.01
-3047.06
-1379.65
1647.53
2424.63
3883.38
6498.44
7925.23
7774.83
8643.65
10725.5
12552.6
13739.3
14828.9
14334.5
14509.7
15343.6
14417
13239.8
14761.2
14717
14331.6
12463.5
11688.1
12017.2
9006.89
4427.69
953.343
-248.431
-23.1787
455.658
-2555.86
-5920.68
-2172.2
1202.82
8784.28
3834.33
-1052.56
-12005.7
-10882.1
-7329.7
-7109.49
10255.1
-3147.68
109992
392.138
95.1974
80.5379
45.7395
15.6343
-12.2892
-40.0805
-64.1451
-86.1851
-108.855
-124.265
-137.357
-169.015
-166.016
-173.632
-225.004
-218.131
-200.789
-283.307
-331.049
-293.319
-420.003
-472.38
-542.648
-705.619
-791.766
-894.53
-974.378
-1144.42
-1359.09
-1644.44
-1995.21
-2379.22
-2799.2
-3263.71
-3885.74
-4611.63
-5287.42
-5841.44
-5984.5
-7433.98
-5960.56
-4013.72
8957.41
1742.73
-20173.6
-23116.4
-25805.4
-27916.8
-26412.7
-28867.4
-28500.1
-28692.4
-26873
-28595.7
-26235.7
-25952.7
-22784.2
-22914.9
-24796.4
-21877
-20861.6
-18323.9
-16246.3
-16426.5
-15987.2
-14049.7
-12280.3
-9633.93
-7839.65
-6201.21
-6713.6
-4678.87
-2321.88
396.686
1542.13
2528.89
2544.69
4519.03
7213.06
9647.6
11093.2
11261.8
11754.7
12108.8
13306
15565.8
17844.9
19377.3
16905.8
17693
17512.5
18061.7
19702.2
17876.8
18569.4
16841.6
13934.2
8757.11
6258.84
9056.85
10411.1
9285.54
7198.11
-4.86647
-4573.53
-10101.4
-15053.1
-23077.3
-33227.2
-41155.3
-32380.2
-25740.7
-20888.6
-16151.1
-15646.6
3758.08
-13137
74428.1
147.877
-144.889
-157.985
-191.76
-221.837
-250.796
-279.436
-306.915
-331.452
-357.011
-376.745
-399.181
-429.617
-437.981
-456.157
-497.588
-508.257
-520.999
-592.401
-637.407
-643.627
-723.445
-840.927
-916.034
-1067.23
-1145.13
-1281.7
-1382.71
-1551.02
-1760.03
-2018.81
-2346.5
-2718.62
-3120.49
-3603.22
-4197.25
-4866.95
-5515.39
-6294.91
-7065.69
-8076.94
-6137.32
-4448.9
13214.6
2523.2
-16926.7
-22988.6
-24025.2
-27947.3
-26474.5
-28057.1
-28691.1
-27689.5
-27115.2
-27736.7
-26208.5
-27115.9
-23205.3
-23220.7
-23379.6
-19836.4
-19421.5
-18736.4
-15484.1
-15976.8
-13851.4
-10381.2
-10477
-10420.1
-7962.03
-5404.94
-4676.76
-1550.89
683.364
-203.773
1101.89
3572.91
6157.42
6896.09
8057.52
8463.36
8774.81
10361.8
13862.3
15949.1
14450.3
15626.9
14881.3
15042.9
17610.5
20840.6
16184.2
18061.4
16596.4
16696.3
17083.6
15431.3
13587.6
11992.8
13113
10664.1
6841.09
7154.73
1239.12
-11.6393
-4174.08
-5166.43
-4507.76
-14124.1
-5686.2
-18037.9
-23941.4
-21482
-16643.7
-12126.1
-9454.98
5188.84
-8626.95
59119.5
-90.6287
-377.547
-387.742
-419.097
-448.072
-476.843
-504.828
-534.015
-560.764
-585.898
-612.161
-641.192
-664.797
-685.172
-724.442
-737.615
-775.795
-827.961
-838.358
-908.511
-980.866
-984.423
-1150.55
-1284.32
-1325.95
-1455.99
-1605.84
-1723.42
-1898.64
-2091.63
-2337.47
-2612.81
-2981.59
-3393.53
-3870.26
-4403.05
-5058.53
-5716
-6635.2
-7410.03
-8187.67
-6294.61
-4047.08
16936.6
353.933
-15599
-22833.4
-24436.6
-27319
-27384.7
-27247.7
-28611
-27001
-26130.7
-25588.5
-24603.4
-25140.8
-21675.8
-21603.5
-21078.6
-17534.9
-18670.1
-16681.4
-14226
-13458.7
-12185.9
-9611.88
-8682.63
-8148.88
-6185.91
-3249.11
-2895.49
-2477.05
2302.97
1620.81
2736.5
4926.99
7075.96
7424.61
9023.32
10473.3
11157.9
12741.9
14149.9
15550.2
15596.3
16102.4
16863.9
16843
18203.5
20024.2
18534.1
17704.2
18088.4
17584.6
17234.8
15981.2
15983.5
15685.7
14703.9
10609.1
8131.04
5529.3
2819.29
771.293
-805.317
-3347.56
-17037.3
-11024.3
-12855.9
-11759.5
-17108.4
-13858.1
-12356.1
-8706.65
-7410.36
3498.39
-6189.82
43346.2
-321.99
-601.312
-607.59
-635.566
-662.165
-689.658
-716.024
-745.326
-773.693
-797.418
-828.237
-862.759
-880.388
-907.283
-963.576
-960.017
-1007.29
-1087.45
-1069.82
-1158.58
-1263.92
-1242.09
-1419.07
-1557.24
-1608.28
-1692.12
-1877.48
-2018.83
-2184.2
-2360.44
-2578.66
-2803.15
-3136.17
-3555.88
-4037.62
-4469.74
-5014.21
-5835.24
-6815.12
-7976.22
-8768.77
-8745.49
-2844.42
21533.4
1244.26
-14166.8
-24988.3
-25699.5
-28794.3
-28876.6
-28130.5
-28639.6
-27166.5
-26281
-25378.1
-24062.7
-23178.1
-22594.4
-19571.3
-18556.3
-18195.7
-16079.2
-15836
-12654.7
-11239.1
-10283.9
-9246.48
-7146.5
-4909.1
-4267.35
-3885.19
-966.905
-1054.43
734.409
4929.31
5316.01
6287.09
7614.31
8937.71
9673.77
12302.1
13074.7
14312.2
14957.9
15487.3
17085
17262.9
18459.6
18841
19263
17130.8
19706.8
19146.7
18361.6
18256.2
18563.2
18913.6
17028.2
15598.6
14885.2
9264.22
10899.2
6596.38
4967.44
4539.14
3808.48
-3195.7
-6537.37
-6070.74
-5790.56
-11129.3
-13673.3
-10375.8
-9436.4
-6040.77
-5157.93
1837.12
-4483.15
31597.5
-544.809
-815.101
-816.482
-840.376
-863.417
-888.819
-913.089
-941.214
-970.082
-993.304
-1024.26
-1063.28
-1075.07
-1111.19
-1172.14
-1161.39
-1223.41
-1310.11
-1299.1
-1375.29
-1486.77
-1501.24
-1650.72
-1747.56
-1864.45
-1919.21
-2108.49
-2256.44
-2418.8
-2560.76
-2764.41
-3006.61
-3257.76
-3619.93
-4077.33
-4484.72
-4893.66
-5647
-6662.24
-7883.56
-8859.09
-9224.45
-4946.93
29530.3
-6488
-17279.8
-27764.2
-28229.5
-30245.6
-32028.9
-30224.4
-30086.8
-28319.4
-27558.2
-25988.3
-24614.3
-23211.9
-20206.6
-20391.8
-17785.1
-17842.6
-14647.8
-11410.6
-11738.3
-10057.1
-10549.5
-6824.38
-5850.92
-4202.8
-1005.51
-1555.19
-802.562
1739.95
2015.83
4323.07
7256.03
7980.03
9127.38
10139.5
11277.6
12229.6
13393.1
15436.3
16762.7
18334.7
17747.1
19014.5
19431.8
19695.1
20014.6
21346
21254
21159.7
20968.6
20381.8
20274.8
17066.9
17250.9
15083.5
13156
12898.7
13503.5
11425.4
11811.9
7049.06
227.744
-1342.48
-966.32
-1924.15
-5906.88
-9703.14
-8659.08
-7454.46
-6993.14
-4683.94
-3702.07
883.221
-3940.21
22997.7
-757.874
-1017.85
-1013.65
-1032.81
-1051.38
-1074.06
-1095.92
-1121.73
-1149.87
-1172.7
-1203.4
-1244.04
-1255.94
-1294.2
-1356.49
-1357.19
-1407.35
-1489.84
-1527.1
-1550.75
-1669.79
-1741.02
-1854.75
-1899.73
-2081.63
-2147.62
-2301.02
-2440.84
-2593.66
-2713.37
-2919.55
-3129.55
-3344.08
-3603.25
-3920.42
-4351.8
-4795.71
-5344.89
-5847.65
-6800.31
-7734.89
-6715.79
-4332.42
31293.7
-5205.53
-19972.2
-30508.1
-32567.2
-31033.4
-35605.6
-33538.4
-31567
-29346.2
-27977.8
-26576.9
-24271.1
-21964.6
-19270.4
-19565.5
-16644.6
-14134.4
-13293.6
-10433.1
-8408.61
-9123.59
-7894.92
-6043.12
-4239.75
-1045.11
-732.527
705.613
2071.75
3438.52
4431.15
6579.69
7277.6
9479.06
10800.1
12039.4
13825.5
13746.3
15488.8
17401.2
17412.3
17180.1
19876
20302
20856.8
22564.2
21712.4
20435.5
22020.2
23131
22181.2
19881.9
20311.7
17969.6
17523.2
18606.1
16490.9
15603.9
20260.8
19740.6
16501.7
8375.64
4646.64
2744.34
1073.9
-1763.53
-5783.08
-5991.96
-6341.03
-5268.51
-5227.68
-3441.2
-2488.74
378.807
-3839.29
17261.6
-959.975
-1208.6
-1198.27
-1212.14
-1226.07
-1245.04
-1264.54
-1287.06
-1313.42
-1336.95
-1367.14
-1403.44
-1421.62
-1459.62
-1517.11
-1534.62
-1571.72
-1642.17
-1721.07
-1700.88
-1838.12
-1953.98
-2023.77
-2042.87
-2224.08
-2381.21
-2449.6
-2552.53
-2709.19
-2883.73
-3021.75
-3200.4
-3397.41
-3575.52
-3694.69
-3918.27
-4359.66
-4879.99
-5187.25
-6117.73
-6564.69
-5606.52
-12713.8
29987.2
-8051
-24616.1
-34991.4
-37469.6
-35609.7
-36365.3
-37823.6
-34094.6
-31068
-28598.8
-25866.1
-22629.3
-20428.7
-18433
-14488.8
-12509.3
-12190.1
-9522.73
-7510.3
-7397.59
-4494.11
-3535.14
-5654.45
-2027.72
-1447.41
1684.62
3906.27
5296.17
6064.13
6567.44
7008.17
9272.09
10219.8
11986
13920.4
17141.6
17336.7
16755.2
17450.6
19024.3
20407.3
20724.1
23142.4
22653.4
23325.3
22943.6
22363.8
22475.2
22720
21121.6
20831.4
21110.8
22837.3
22152.6
20381.7
21796
24516.5
28881.7
17142.8
13606.3
9923.12
5272.29
4233.35
822.162
-2823.8
-3853.43
-3863.33
-4321.11
-3718.27
-3389.47
-2824.18
-1773.66
53.4711
-3989.07
13433.3
-1150.04
-1386.48
-1369.74
-1377.91
-1387.05
-1401.68
-1418.74
-1437.72
-1460.99
-1486.34
-1515.08
-1544.82
-1572.36
-1611.21
-1653.66
-1687.07
-1725.9
-1786.47
-1872.39
-1873.33
-1987.98
-2112.79
-2191.47
-2150.6
-2375.62
-2542.69
-2642.26
-2610.21
-2782.38
-2957.27
-3107.63
-3240.21
-3360.58
-3480.12
-3622.9
-3730.39
-3661.85
-3666.4
-4358.48
-4751.66
-4682.96
-3482.26
-17826
15052.6
-12162.2
-33436.2
-41068.8
-43336.9
-40188.4
-38331.2
-36448.3
-30998.9
-30569.1
-24533.6
-21811.3
-18146
-16707.8
-13353.6
-12657.7
-11612.7
-8488.89
-6722.17
-6118.08
-4539.08
-3215.77
-1134.43
-1481.67
1585.74
2246.59
3673.4
5056.91
6578.54
7788.14
9224.45
9855.83
11258.4
12149.2
14264.1
15887.5
16966.6
19021.7
18326.6
19469
21325.6
22275.9
23021.5
23326.2
23350.2
23081.3
23311.6
22884.7
23789.2
25819.5
26215.6
25668.9
22504.2
24950.1
24466.9
30643.2
32321.7
36655.6
23207.8
16164.1
12642.6
8341.01
6349.17
2818.54
-613.599
-831.85
-2103.92
-2204.65
-2785.38
-2878.19
-1708.69
-2356.15
-1484.28
-354.835
-3997.68
10529.2
-1327.09
-1550.79
-1527.55
-1529.79
-1534.18
-1543.95
-1558.58
-1574.01
-1594.07
-1620.42
-1646.67
-1670.22
-1706.55
-1745.55
-1774.15
-1824.63
-1868.52
-1914.37
-1990.17
-2022.65
-2123.94
-2225.95
-2322.13
-2325.21
-2486.8
-2583.95
-2744.68
-2796.18
-2838.28
-2949.2
-3093.68
-3284.37
-3352.21
-3321.23
-3408.84
-3483.96
-3209.15
-2945.88
-2641.33
-2878.82
-3090.76
-4423.04
-15346.2
-7733.56
-18863.2
-49292.7
-53089.9
-51860.8
-43606.3
-34194.4
-27257
-26337.3
-21580.7
-21866.5
-18742
-14989.8
-13285.5
-10875.3
-9048.74
-7963.48
-5415.5
-4462.79
-2865.62
-1454.69
-114.589
-411.288
3443.61
3661.74
3408.27
5048.14
7241.63
8005.05
9603.08
12317.7
13385.7
12685.3
15021.6
15333
16077.5
18805.3
19931.1
20643.5
22099.5
22592.8
23468.9
23233.3
23379.7
24505.8
24596.4
26860.4
27570.8
27041.1
27502.7
27263.4
27515.1
28411
34634.9
35026.6
44265
35126.4
30876.5
20776
13464.8
9979.46
7529.27
4520.31
1823.23
913.966
341.56
-789.171
-910.695
-2061.68
-2278.18
-778.023
-2228.2
-1721.26
-1035.03
-4123.63
8066.51
-1490.3
-1700.93
-1671.25
-1667.51
-1667.2
-1672.05
-1684.3
-1696.17
-1712.8
-1739.77
-1762.98
-1782.84
-1824.81
-1862.24
-1883.05
-1938.51
-1991.7
-2026.52
-2084.79
-2170.57
-2236.68
-2306.32
-2413.65
-2483.75
-2581.44
-2680.27
-2776.41
-2889.37
-2997.53
-2982.38
-3102.19
-3181.69
-3285.01
-3195.51
-3005.33
-2928.89
-2942.43
-2647.95
-1778.81
-1396.32
-1127.26
-5800.02
-16071.2
-67326.1
-30264.4
-58405.2
-44809.8
-37857.8
-29585.1
-27690
-26893.7
-24287.8
-21010.8
-15296.3
-13724.4
-10354.6
-9103.64
-8837.86
-4768.52
-3408.14
-2105.68
-279.456
-1378.61
133.137
2917.33
4907.34
4484.16
5121.53
4741.32
5904.47
9784.42
11683.3
11648
13524.4
15837.1
16286.9
16294.3
17212.3
17425.9
20775.2
20565.6
22833.4
22990.1
23697.3
23831
25566.9
26903.5
29281.8
28277.3
28636.1
29052.9
28805.3
30165.9
34075
36543
40288.4
46651.8
48284.4
37007.7
26152.4
22034.9
14147.9
10682.6
7822.07
6012.74
3592.84
1550.18
1755.69
779.748
24.4476
-852.169
-1608.32
-2054.41
-581.221
-2068.97
-2071.07
-1665.94
-4089.39
6091.04
-1638.88
-1836.38
-1800.55
-1790.9
-1786.05
-1786.44
-1795.3
-1804.61
-1817.69
-1844.99
-1865.55
-1882.25
-1925.8
-1964.09
-1980.08
-2031.11
-2097.4
-2130.53
-2168.77
-2267.62
-2368.04
-2365.26
-2474.76
-2609.64
-2692.02
-2729.91
-2804.26
-2938.08
-3080.52
-3120.5
-3108.57
-3106.17
-3158.82
-3114.62
-2913.9
-2670.1
-2304.91
-1685.78
-527.775
2038.82
6650.53
10382.8
23049.7
-108103
-84383.1
-62246.2
-13706.6
-3974.65
-8764.04
-9690.59
-13335.1
-15675.5
-15331.1
-12297.3
-8550.32
-8318.52
-4424.59
-3475.43
460.187
1822.25
1241.84
1943.38
2399.71
2374.87
4162.16
7455.8
7924.31
7342.32
8098.75
8437.67
11092.4
12904.5
14357.5
15488.2
16942.7
18126.5
18647.8
18940.4
19364
22065.7
24767.9
25599.7
26101.8
25116.7
25626.8
28940.5
29121.9
31598.5
32372.6
32833.4
33201
36373.9
39810.6
44161.1
47718.1
57189.9
40632.1
32578.5
27720.6
18433.6
14283.2
10373.2
7333.64
6133.31
4811.79
2155.34
2850.02
1550.89
1365.98
-308.337
-855.606
-1137.18
-1749.82
-1012.91
-1903.9
-2039.48
-2147.45
-4041.4
4438.17
-1772.29
-1956.77
-1915.19
-1899.84
-1890.78
-1887.31
-1891.75
-1899.71
-1910.28
-1933.32
-1953.66
-1970.92
-2010.71
-2048.94
-2066.04
-2114.88
-2184.51
-2224.17
-2240.4
-2349.43
-2461.01
-2433.92
-2547.13
-2688.97
-2826.52
-2750.3
-2844.62
-2968.45
-3111.83
-3248.36
-3226.4
-3075.39
-3017.31
-3072.82
-2946.19
-2635.65
-2197.6
-1670.97
-698.643
109.121
113.272
-2387.37
-27364.7
-119269
-256607
-54886.8
-12596.7
-2835.36
1119.06
53.4946
-4281.94
-6806.88
-9112.33
-8811.78
-4869.66
-3896
-1052.44
66.3365
2770.02
5496.58
3392.95
4567.52
5889.5
4989.27
5987
7228.72
11429.9
11674.5
11813.2
11388.4
12141
13805.8
16076
16094.8
18405.9
19076.2
19760.8
22629.7
21695.4
25314
27685.2
27144.5
28713.5
30463.1
30195.9
33433.8
34498.6
36007.7
40232.1
41499.9
43207.7
45696.7
52782.5
57139.3
42611.9
39292.1
29502.1
22639.3
16386.5
12385.9
9097.31
7100.6
5751.37
4476.27
2802.48
3024.52
2387.62
1431.61
1151.6
-281.433
-584.973
-802.681
-1178.96
-1517.89
-2000.22
-1853.61
-2439.74
-3880.57
3102.59
-1890.06
-2061.81
-2015.02
-1994.47
-1981.54
-1974.73
-1974.28
-1981.45
-1990.75
-2007.71
-2028.73
-2049.06
-2080.72
-2118.08
-2146.39
-2183.05
-2249.28
-2294.53
-2321.71
-2417.86
-2519.99
-2523.9
-2604.87
-2722.47
-2876.21
-2877.8
-2861.95
-2984.65
-3112.16
-3319.05
-3366.42
-3163.2
-3003.09
-3055.72
-3048.65
-2880.71
-2595.03
-2200.03
-2092.8
-1274.72
-2187.92
-5941.11
-33011.2
-159192
-113314
-74309.8
-32011.6
-8171.94
-2984.99
-1305.33
-3290.24
-662.978
70.5861
-1099.35
-1896.53
294.493
2397.37
3224.38
1615.1
4825.41
5842.21
4105.48
8565.52
9199
7847.94
7563.47
9568.61
11819.5
16239.6
14580.8
15265.9
16627.8
16244.1
18974.7
24014.1
21406.7
24137.7
26797.4
26282.7
28633.8
31396.7
32197.8
35735.1
38114.9
39076.8
41642.9
43835.9
45361
47238.4
51391.5
55132.2
48046.8
41854.2
35619.1
30678.2
24537
17255.8
14364.5
10028.3
7765.4
6271.79
5045.65
4212.35
3755.37
2572.67
2521.07
1757.29
1400.41
962.56
22.7237
-453.314
-597.186
-952.348
-1720.37
-2116.33
-1936.55
-2627.75
-3688.24
1845
-1991.89
-2151.37
-2099.95
-2074.86
-2058.39
-2048.34
-2044.29
-2050.01
-2058.22
-2069.97
-2091.49
-2114.65
-2139.14
-2175.1
-2210.57
-2244.03
-2301.77
-2346.72
-2396.07
-2472.56
-2539.69
-2604.06
-2660.98
-2762.34
-2853.44
-2939.67
-2974.63
-3022.53
-3121.31
-3230.03
-3352.97
-3394.05
-3160.47
-3090.78
-3151.21
-3175.96
-2973.08
-2755.85
-2617.24
-2978.21
-3928.25
-9402.75
-66145.2
-116435
-36406.8
-51244.9
-79576
-31835.3
-19989.1
-4893.98
-952.079
232.439
1539.33
1013.07
902.345
2498.28
2413.49
5657.67
6378.33
4111.67
5760.18
6813.15
9303.58
10275.8
10142.5
8357.02
10283.6
12856.9
19608.7
19045.2
17163.2
20065.1
20010.5
21706.9
29495.8
26629
31128.5
34770.1
33945.1
37170.5
40220.4
43849.9
46265.3
48491.4
49444.4
50931.8
52618.5
55889.3
46512.5
43918.5
37503.8
30656.2
27419.9
22625.2
16274.7
14632.1
10257.7
7745.75
6201.38
5046.82
3984.59
3375.47
2656.61
2352.43
2311.68
1736.26
1444.69
1228.06
907.11
74.8695
-223.69
-430.409
-816.169
-1738.85
-2077.19
-1898.77
-2692.95
-3505.26
777.452
-2077.64
-2225.4
-2170.09
-2141.18
-2121.33
-2108.77
-2101.78
-2105.47
-2112.98
-2121.08
-2141.32
-2167.66
-2186.78
-2218.06
-2262.21
-2295.59
-2338.82
-2392.71
-2453.95
-2501.28
-2556.39
-2654.1
-2732.69
-2782.37
-2834.52
-2969.04
-3054.57
-3080.44
-3170.75
-3239.65
-3255.32
-3404.24
-3448.71
-3258.99
-3290.49
-3377.89
-3324.95
-3258.23
-3236.62
-3854.8
-5834.1
-16104.2
-109421
-40574
-15897.3
-23468.4
-53669
-73702
-40986.2
-16442.5
-6651.58
-1185.04
-1696.52
125.478
1521.26
3128.86
5015.78
6239.44
5811.19
6313.11
7135.23
7726.85
10525.1
14943.1
12539.3
13349.2
13751.8
14991.3
21558.8
24772.9
22202.8
28971.7
28232.3
31509.5
35322.9
38776.2
44814.1
46387.6
47098.7
49201.1
52910.2
56606.4
57014.6
53553.6
51241
44638
37994.9
34681.2
30409.3
26422.2
22413
17278.5
14812.3
12806.3
9074.78
7501.3
5811.27
4296.89
3651.45
3000.05
2399.52
2055.21
2042.59
1580.77
1538.78
1318.14
1367.12
1121.74
808.708
282.199
-15.9294
-456.325
-856.195
-1488.75
-2068.74
-1951.88
-2769.31
-3215.41
-107.542
-2147.22
-2283.99
-2225.6
-2193.74
-2170.51
-2156.4
-2147.18
-2148.05
-2155.46
-2161.72
-2178.83
-2207.55
-2224.37
-2250.88
-2300.22
-2336.36
-2365.11
-2421.01
-2496.98
-2535.78
-2576.29
-2677.31
-2781.77
-2796.34
-2842.25
-2964.38
-3096.43
-3143.99
-3189.24
-3254.76
-3281.14
-3424.26
-3549.93
-3565.84
-3469.32
-3572.67
-3716.38
-3773.37
-4145.39
-4639.65
-6964.33
-28260.7
-102726
-11307.4
-9849.43
-10370.4
-22442.4
-43213.1
-62586.8
-48953.6
-23196.7
-15008
-8691.33
-3303.71
-1656.15
3860.7
5098.49
8505.37
9833.86
8360.7
9778.14
12835.1
14355.2
15900.4
15304.7
22568.8
21745.8
25448.8
30276
28958.2
37194.3
41089.9
43125.7
47038.1
50420.8
56486.4
60337.3
59576.7
63705.8
58012
50830.5
44226.4
40988.1
34898.5
31846
27675.4
23776.3
21522.5
16487.9
14526.7
11653.2
10117.1
7228.03
6349.96
4800.17
3821.62
2807.69
2095.2
1816.17
1372.67
1149.75
1110.81
885.131
1004.3
815.049
885.129
1005.39
1103.77
727.415
211.337
95.7334
-409.728
-951.87
-1152.24
-1912.96
-1904.6
-2701.07
-2918.07
-825.356
-2200.76
-2327.35
-2266.72
-2232.73
-2206.52
-2191.18
-2180.84
-2178.58
-2185.56
-2191.95
-2206.01
-2233.59
-2252.39
-2275.05
-2323.58
-2363.2
-2384.67
-2440.84
-2520.69
-2562.44
-2586.97
-2682.78
-2799.43
-2840.74
-2835.39
-2959.87
-3112.53
-3210.75
-3208.38
-3236.15
-3348.47
-3435.22
-3621.74
-3717.72
-3718.28
-3819.8
-3957.43
-3988.84
-4149.57
-4209.78
-7464.11
-45018.9
-61785.1
-8775.61
-11348.7
-5913.4
-11344.8
-19801.9
-34880.6
-56553.8
-54957.6
-34382.3
-16999.4
-7175.11
-4432.02
2811.05
5914.18
10216.8
9766.35
14382
15558.8
20530.9
20241.7
19964.8
29455
31828.6
34800.9
45460.8
43316.4
48713.7
55575.5
60641
63753.8
66962
68788.1
58643.5
53058.3
47086.5
41736.3
37333.6
32534.7
28272.3
25299.9
20900.5
18737.7
15105.1
13883.3
11613
8825.43
8468.79
5712.95
4786.35
3267.11
3067.33
2198
1304.59
761.359
493.836
182.24
238.866
438.64
604.701
336.789
607.196
609.714
699.301
990.549
1141.67
791.345
248.082
356.495
-335.521
-879.009
-1344.49
-1749.03
-1882.15
-2579.76
-2691.57
-1452.75
-2238.48
-2355.78
-2293.75
-2258.15
-2230.14
-2213.56
-2202.53
-2198.22
-2204.03
-2211.32
-2223.42
-2247.12
-2270.37
-2291.83
-2333.34
-2374.78
-2402.39
-2452.63
-2523.75
-2569.23
-2610.4
-2686.15
-2786.11
-2848.62
-2856.44
-2959.25
-3080.27
-3238.72
-3268.86
-3227.06
-3348.67
-3490.62
-3612.36
-3839.47
-3939.42
-4050.03
-4191.21
-4445.23
-4761.69
-6198.37
-12462
-76193.2
-45236.7
-10732.5
-9002.22
-3585.09
-5536.84
-10312
-17876.2
-31041.5
-47221.7
-56156.7
-35171.5
-19786.3
-3344.1
4237.2
10422.4
12816.3
17837.1
25685
27877.2
31501.6
33014.4
39450.5
48230.9
53564.2
56517.9
60947.3
68157.2
74573
68617.4
63143.5
56404.6
49173.3
43804.5
38637
33708.4
30347.3
26135.7
21596.4
19679.1
16420.5
14094.6
11829.4
10637.7
8835.98
8130.88
6664.49
4549.85
4338.73
2910.28
2364.83
1174.39
798.616
229.868
-312.091
-503.222
-600.57
-710.946
-628.794
-524.485
-350.165
-74.7569
13.805
581.444
682.945
478.454
760.701
707.151
305.411
316.262
-421.182
-509.606
-1472.72
-1561.52
-1743.51
-2338.72
-2322.3
-2022.03
-2260.77
-2369.66
-2307.08
-2270.57
-2241.65
-2223.9
-2212.84
-2207.17
-2211.38
-2220.37
-2230.85
-2250.45
-2277.2
-2300.03
-2332.98
-2376.57
-2412.01
-2455.7
-2515.84
-2566.46
-2618.45
-2689.7
-2754.62
-2830.9
-2895.27
-2952.6
-3047.71
-3188.95
-3295.47
-3247.55
-3370.14
-3478.81
-3629.59
-3880.38
-4046.94
-4166.8
-4406.35
-4725.64
-5147.73
-6700.14
-18871.1
-81270.3
-8399.76
-5132.53
-4972.15
-1686.86
-3671.25
-5993.32
-10290.9
-16462.3
-25447.3
-38947.9
-55514.5
-39359.7
-7884.74
6609.64
20905.1
25308.8
39032.8
38606.8
47348.2
53161.7
56969.8
66878.1
71627.8
75995.7
74705.6
65705.4
58282.9
52879.9
45901
40954.1
36231.8
31236.2
26291.1
22198.1
20355.3
17820.4
14830.1
13184.8
11640.9
9888.83
8793.57
7492.74
6357.98
5403.87
4099.79
4043.06
2548.4
2133.88
1257.27
644.368
75.9593
-439.651
-824.01
-1139.78
-1454.75
-1501.03
-1503.08
-1218.54
-891.055
-630.181
-532.828
-388.839
-21.8335
464.053
445.991
499.756
770.547
519.188
270.454
-363.864
-404.131
-1377.19
-1683.62
-1730.76
-2266.27
-2218.04
-2440.79
-2268.1
-2369.46
-2307.19
-2270.48
-2241.56
-2222.5
-2212.24
-2206.02
-2208.22
-2218.91
-2228.5
-2245.09
-2273.72
-2298.3
-2324.97
-2366.92
-2411.33
-2448.28
-2496.86
-2559.4
-2616
-2668.39
-2728.81
-2812.5
-2892.2
-2949.67
-3044.81
-3104.11
-3247.07
-3358.08
-3403.97
-3497.27
-3685.3
-3805.89
-4015.56
-4183.99
-4273.98
-4625.43
-5242.63
-8154.34
-30846.7
-63711.7
-8361.66
-6321.43
-5829.17
-948.997
-1975.34
-1995.37
-3855.16
-8411.28
-10075.7
-14899
-25734.9
-31391.8
-9803.77
22304.7
43685.3
50780.7
63153.4
66632.9
76814.8
79196.3
75435.9
70016.8
59859.1
52379.1
50038.3
43109.1
37291.1
32563.9
27690.7
24512.2
21487.7
18526.8
15704.4
13944.9
11652.4
10677.3
9020.03
8365.38
7231.82
6080.27
5467.34
4735.68
4080.57
3526.4
2498.49
2467.85
1643.83
1249.98
521.826
-130.337
-742.547
-1522.28
-1725.19
-1881.34
-1765.15
-1790.92
-1819.49
-1681.36
-1371.55
-1149.84
-877.868
-493.036
-402.18
155.334
235.85
60.8872
476.934
450.124
-31.6659
-231.699
-451.467
-781.004
-1606.47
-1488.35
-1909.69
-2091.67
-2763.68
-2261.06
-2355.76
-2294.68
-2258.39
-2230.05
-2210.42
-2200.74
-2194.97
-2195.74
-2206.86
-2217.14
-2231.46
-2260.14
-2286.91
-2308.75
-2348.72
-2400.76
-2432.56
-2470.08
-2540.81
-2605.76
-2645.49
-2695.87
-2778.5
-2875.78
-2934.08
-3009.59
-3055.37
-3207.19
-3356.12
-3378.95
-3513.41
-3662.17
-3760.89
-3927.73
-4033.12
-4077.17
-4037.54
-3988.6
-6680.47
-44752.2
-43840.8
-5466.22
-5092.37
-4872.55
1861.75
2619.03
3170.57
2307.01
603.395
1446.89
3385.09
1791.29
6503
26037.2
57958.2
74504.6
84277.4
78010.8
71680.6
64999.2
54899.1
50727.2
46000.5
39665.6
33450.9
29182.2
25956.5
23241.8
20352.8
17397.2
14704.2
12823.9
11480
10171.1
9280.36
7834.3
7055.28
6179.83
5861.17
5210.78
4797.54
4154.1
3739.46
3117.13
2772.37
1756.18
1549.01
838.92
575.176
47.1971
-880.75
-1219.19
-1688.49
-1912.15
-2225.33
-2283.08
-2308.18
-2369.44
-2112.26
-1909.35
-1610.25
-1109.47
-666.434
-490.761
48.5109
363.618
291.905
441.669
713.844
54.9896
-58.5399
-387.973
-544.36
-1551.44
-1415.6
-1849.54
-1847.17
-2994.32
-2240.35
-2329.23
-2270.17
-2234.89
-2207.52
-2188.33
-2179.02
-2174.17
-2174.47
-2184.76
-2197.13
-2210.27
-2236.25
-2265.52
-2287.29
-2322.47
-2375.55
-2408.43
-2441.23
-2507.8
-2580.06
-2618.74
-2657.25
-2731.55
-2855.1
-2930.27
-2940.66
-3023.84
-3124.56
-3319.75
-3465.99
-3447.27
-3603.66
-3757.33
-3907.69
-4118.57
-4302.11
-4714.59
-6044.4
-12149.1
-65458.9
-31554.4
-5600.51
-5700.9
-5712.03
1694.54
4104.51
4405.67
4014.61
5153.66
8904.85
11221.1
29238.7
67524
90919.6
91509.8
70144.3
59311.8
51910.4
45864.1
41139.4
35397.7
31441.4
28491.3
24839.1
21176.6
18312.1
16341.3
15386.6
14261.6
12925.7
11464.2
10162.3
9219.81
7967.21
7121.65
6314.68
5064.05
4574.6
4138.35
3368.6
3432.1
2908.68
2664.65
2069.76
2039.29
1304.74
1042.3
535.775
127.499
-439.13
-1340.71
-1547.87
-2105.95
-2181.35
-2276.95
-2383.52
-2643.07
-2597.95
-2303.83
-2233.69
-1935.66
-1541.13
-899.334
-585.362
-424.245
291.231
222.029
132.37
380.466
2.76274
-122.416
-368.822
-515.3
-1267.94
-1122.63
-1651.89
-1592.77
-3009.93
-2206.78
-2290.61
-2234.34
-2200.47
-2174.81
-2156.63
-2147.52
-2144.36
-2144.79
-2153.55
-2168.21
-2181.98
-2203.6
-2234.23
-2259.74
-2290.52
-2336.88
-2376.54
-2410.57
-2467.16
-2534.83
-2581.91
-2621.46
-2697.07
-2794.92
-2882.05
-2909.99
-2957.77
-3088.87
-3258.24
-3415.06
-3487.98
-3521.7
-3695.75
-3876.45
-4038.28
-4372.39
-4800.55
-6438.66
-17996
-65202.5
-4674.11
-3552.32
-3512.65
-3498.7
3580.53
4120.53
5601.61
7283.95
11920.4
25326.6
47260.7
89876.2
131704
111046
67595.9
51633.7
39931
33201
28840.8
26118.5
23345.2
20489.4
17956
16712.4
15331.4
14710.4
12619.5
11556.5
10767.5
10062.1
9496.16
8710.34
7697.65
6893.53
6631.97
6097.67
5799.67
5041.35
4553.2
3818.33
3552
2952.35
2703.5
2180.68
1956.29
1275.69
955.089
410.932
-201.854
-626.145
-1259.46
-1305.39
-1982.18
-2196.86
-2456.14
-2797.84
-2891.62
-2686.23
-2584.16
-2436.79
-2178.44
-1872.65
-1258.24
-696.098
-391.218
-43.5084
530.885
479.654
438.85
431.731
139.178
-254.362
-344.534
-1168.06
-1084.68
-1794.91
-1327.19
-3138.07
-2161.22
-2240.71
-2187.91
-2155.88
-2132.4
-2115.96
-2106.93
-2105.68
-2107.08
-2114.41
-2130.58
-2145.79
-2164.36
-2194.44
-2224.04
-2251.58
-2289.88
-2336.85
-2375.5
-2420.38
-2479.2
-2536.46
-2582.83
-2651.19
-2725.32
-2799.91
-2878.53
-2932.07
-3047.77
-3127.72
-3321.16
-3461.58
-3457.26
-3591.16
-3779.4
-3895.57
-4206.12
-4730.59
-7192.09
-30360.7
-52272.4
-3907.49
-3445.93
-2958.97
-2643.15
4435.92
5217.16
7586.01
13344.1
27483.7
51967.1
92857.4
151779
120999
75071.8
50827.2
37164.4
28878.7
23270.1
19940.8
17724.6
16078.4
14599.1
13866.7
12737.2
11874.4
12138.1
12039.6
10284.4
9966.64
9513.13
9406.52
8938
8007.38
7267.48
6797.1
6179.38
5801.73
4970.92
4241.84
3475.43
3072.13
2473.59
2328.09
1777.87
1575.3
1132.92
811.378
358.653
-196.016
-594.429
-1257.25
-1549.59
-2117.25
-2099.31
-2456.42
-2718.01
-2614.75
-2506.05
-2570.63
-2418.81
-2166.2
-1829.97
-1467.73
-971.652
-551.236
-278.58
-38.8817
287.036
5.30784
18.0348
-51.0561
-342.027
-446.978
-879.961
-646.752
-1550.83
-966.82
-3231.53
-2104.61
-2180.36
-2131.56
-2102
-2080.96
-2066.55
-2058.33
-2058.58
-2061.44
-2068.38
-2084.78
-2101.9
-2118.65
-2147.34
-2180.36
-2205.1
-2238.16
-2288.92
-2331.71
-2365.4
-2415.47
-2482.71
-2538.5
-2588.22
-2652.89
-2735.87
-2819.46
-2875.51
-2968.29
-3062.93
-3175.04
-3354.08
-3493.07
-3527.39
-3588.52
-3696.82
-3843.63
-3988.78
-7454.02
-45555.9
-37026.1
-4791.72
-3045.78
-2712.53
-1745.69
6622.55
8849.21
14451.6
29770.1
58403.8
99192.9
155009
114448
75042.7
49647.5
35135.4
26073.9
20552.2
17019.8
14709.6
13107
12128.7
11445.8
11411.4
11020.2
10754.4
10682.9
11175.4
9989.77
9723.38
9322.29
9213.01
9231.22
8722.9
8214.12
7589.92
6786.66
6479.49
5582.69
4950.04
4191.2
3719.25
3010.94
2728.37
2064.32
1748.84
1588.62
1131.52
693.425
35.7304
-379.617
-916.805
-1342.98
-1739.87
-2010.7
-2515.8
-2623.36
-2562.23
-2714.47
-2689.79
-2488.46
-2203.34
-1970.97
-1697.68
-1328.25
-723.177
-241.749
109.465
180.564
470.69
197.65
299.136
-0.481905
-290.535
-806.484
-654.506
-1583.02
-835.844
-3694.56
-2037.97
-2110.46
-2066.07
-2039.62
-2021.18
-2009
-2002.38
-2003.68
-2008.38
-2015.86
-2031.38
-2050.67
-2067.81
-2093.32
-2127.67
-2153.51
-2182.63
-2232.89
-2277.1
-2304.34
-2348.11
-2424.53
-2486.84
-2517.23
-2565.82
-2652.51
-2748.13
-2832.59
-2863.9
-2968.6
-3030.45
-3240.66
-3435.95
-3545.85
-3639.56
-3934.78
-4300
-5626.54
-12340
-59472.9
-20729.6
-3439.07
-3510.24
-2826.36
-879.239
9131.94
16942.4
29538.6
63221.8
111335
154873
108253
70778.8
46556.3
32322.1
23627.7
18149.6
14872.8
12852.6
11642.9
10700.6
10059.6
9486.32
9445.18
9020.2
9385.16
9097.94
9385.78
9743.29
9815.46
10292.6
9924.6
9738.4
9704.26
9279.61
8761.04
7660.72
7222.41
6179.8
5566.7
4715.86
4056.34
3382.16
2829.78
2186.01
1705.26
1285.61
914.016
655.608
117.18
-332.446
-837.123
-1311.62
-1942.65
-2220.02
-2463.19
-2433.65
-2431.83
-2632.03
-2617.87
-2364.69
-2107.16
-1952.95
-1616.36
-1367.86
-1081.84
-481.726
-96.6621
-206.967
296.231
104.607
-43.6922
-188.312
-286.982
-539.837
-238.114
-1134.95
-393.012
-3789.29
-1962.33
-2031.95
-1992.32
-1969.47
-1953.62
-1944.23
-1939.54
-1941.57
-1948.52
-1957.19
-1971.39
-1992.17
-2011.39
-2033.92
-2066.84
-2096.37
-2124.76
-2166.86
-2211.18
-2244.56
-2281.98
-2350.7
-2411.36
-2447.09
-2481.18
-2553
-2675.94
-2757.04
-2785.27
-2832.55
-2957.72
-3056.19
-3306.55
-3470.61
-3557.33
-3928.11
-4400.8
-6541.51
-19232.7
-56409.3
-4657.92
-3701.59
-3539.69
-2791.75
1880.23
16750.8
35092.2
64328
112916
147579
99291.7
65588
43804.9
29977.8
21752
16533
13344.6
11370
10115.1
9330.53
8783.15
8519.08
8357.12
8438.82
8340.29
8674.67
8549.03
8491.4
9002.21
9148.41
9561.81
8970.2
9234.12
9046.7
9043.56
8965.88
8587.55
7755.74
7086.32
6177.27
5366.69
4364.51
3777.24
2979.91
2284.7
1844.06
1379.92
976.192
676.666
68.7759
-439.206
-885.026
-1301.16
-1973.36
-2183.28
-2259.41
-2403.58
-2483.54
-2732.4
-2722.72
-2616.37
-2323.69
-2140.81
-1904.69
-1704.47
-1492.82
-741.788
-235.775
-18.2267
281.205
490.828
231.833
142.068
-58.7802
-505.072
-350.475
-1326.12
-319.926
-4147.01
-1878.72
-1945.79
-1911.22
-1892.33
-1879.1
-1872.7
-1870.41
-1873.2
-1882.14
-1892.46
-1906.12
-1927.48
-1948.48
-1969.62
-1999.97
-2032.94
-2061.46
-2094.54
-2139.17
-2181.1
-2216.53
-2265.67
-2322.2
-2369.74
-2405.52
-2470.41
-2559.01
-2630.67
-2696.26
-2736.26
-2821.7
-2927.77
-3042.6
-3323.09
-3478.05
-3780.72
-4030.69
-6637.11
-29724.7
-44497.8
-6253.18
-3011.24
-1436.22
2764.58
13635.1
36855.2
71662.1
127500
140973
93132.1
61530.2
41583
28604.4
20590.9
15509
12409.8
10487.4
9262.43
8433.15
7920.87
7656.26
7652.83
7722.52
7881.83
7937.09
8110.04
8073.35
7874.21
8083.67
8199.86
8343.55
8275.26
8630.22
8537.81
8656.17
8644.3
8206.17
7623.05
7200.4
6242.76
5329.75
4457.96
3919.39
3067.22
2287.06
1870.11
1151.91
903.508
418.76
79.6441
-352.59
-834.693
-1304.23
-1891.12
-2451.86
-2633.4
-2777
-2871.99
-2974.12
-2826.86
-2722.02
-2433.04
-2237.23
-1991.94
-1712.93
-1563.09
-937.354
-518.17
-235.645
-73.8366