/*--------------------------------*- C++ -*----------------------------------*\
| =========                 |                                                 |
| \\      /  F ield         | OpenFOAM: The Open Source CFD Toolbox           |
|  \\    /   O peration     | Version:  2.2.x                                 |
|   \\  /    A nd           | Web:      www.OpenFOAM.org                      |
|    \\/     M anipulation  |                                                 |
\*---------------------------------------------------------------------------*/
FoamFile
{
    version     2.0;
    format      ascii;
    class       volScalarField;
    location    "2.6";
    object      By;
}
// * * * * * * * * * * * * * * * * * * * * * * * * * * * * * * * * * * * * * //

dimensions      [1 0 -2 0 0 -1 0];

internalField   nonuniform List<scalar> 
14161
(
-4.02975e-06
-8.52243e-08
-8.30986e-07
-5.19884e-07
-1.80496e-06
-1.29873e-06
3.26962e-07
2.7512e-07
-1.32013e-06
-1.12132e-06
-1.94341e-07
-4.90879e-07
1.52317e-06
-3.15406e-06
1.69434e-06
2.05596e-06
1.77072e-06
1.23683e-06
-1.5157e-07
4.07998e-06
4.65508e-06
5.8363e-06
4.76619e-06
4.2174e-06
6.17339e-06
8.11692e-06
1.54948e-05
1.17761e-05
1.18355e-05
1.72816e-05
2.32716e-05
2.92376e-05
1.97803e-05
4.39498e-05
4.67453e-05
4.67247e-05
6.40084e-05
6.51161e-05
0.000129533
0.000160707
0.000172077
0.000635098
-0.000562938
0.00270873
0.0184854
0.00187303
-0.0161731
-0.0278433
-0.0237712
-0.0162401
-0.0112963
-0.0100355
-0.00855963
-0.00851429
-0.00639974
-0.00534204
-0.0049802
-0.00423637
-0.00331528
-0.00252718
-0.00214632
-0.00195396
-0.00171655
-0.00140246
-0.00104452
-0.000854358
-0.000731718
-0.000790771
-0.000742585
-0.000689556
-0.000829117
-0.000800551
-0.00074053
-0.00102211
-0.00114988
-0.00117942
-0.00108816
-0.00132966
-0.0015542
-0.00188449
-0.00229428
-0.00210979
-0.00204981
-0.00264923
-0.00187321
-0.00197112
-0.00245616
-0.00201138
-0.00199012
-0.00185203
-0.00185987
-0.00173515
-0.00149965
-0.00133147
-0.00108224
-0.00104521
-0.00177778
-0.00167787
-0.00224441
-0.00467507
-0.00523201
-0.00347639
-0.000972954
-0.000701186
-0.000710858
-0.00111651
-0.0020576
-0.00618542
-0.00810549
-0.00245724
0.0414616
0.0919582
0.156464
0.165757
0.150746
0.137641
0.128513
0.107013
0.0844141
-8.98533e-06
-1.11655e-06
-1.87036e-06
-5.84054e-07
-1.69598e-06
-1.2039e-06
-8.13931e-07
-7.92599e-07
-8.83451e-07
-7.69319e-07
-1.83945e-06
-8.18704e-07
3.04452e-06
-6.75499e-06
3.70149e-06
3.56579e-06
3.87428e-06
4.20204e-06
-7.11352e-07
8.64009e-06
9.96889e-06
1.53e-05
1.35838e-05
1.43171e-05
2.05621e-05
2.47456e-05
3.02518e-05
3.2223e-05
4.07221e-05
4.98038e-05
5.23411e-05
6.94706e-05
7.81706e-05
0.000109557
0.000132272
0.000145237
0.000183551
0.000188904
0.000402359
0.000463138
0.000856344
0.000954077
0.00122859
0.0238403
0.0237614
-0.00716385
-0.0430479
-0.0590449
-0.0526344
-0.0411668
-0.0338595
-0.029397
-0.0246417
-0.0229351
-0.0198803
-0.0176462
-0.0143035
-0.0110825
-0.00840709
-0.00645658
-0.00579355
-0.00536546
-0.00485232
-0.004043
-0.00337738
-0.00287048
-0.00253088
-0.00248602
-0.00220486
-0.00207776
-0.00200673
-0.00191813
-0.0018548
-0.00225201
-0.00200681
-0.00233248
-0.00238053
-0.00244099
-0.00291741
-0.00301903
-0.00435175
-0.00465294
-0.0048416
-0.00628482
-0.005498
-0.00547115
-0.00638419
-0.00577096
-0.00565008
-0.0052911
-0.00529791
-0.00504609
-0.00449696
-0.00420574
-0.00342639
-0.00312376
-0.00503123
-0.00449115
-0.00512042
-0.0107579
-0.0104309
-0.00760532
-0.00255302
-0.000870524
-0.00147209
-0.00269219
-0.00822553
-0.00959754
-0.00335748
0.0224498
0.124597
0.22809
0.268286
0.260795
0.234102
0.218659
0.214431
0.197621
0.170846
-1.42414e-05
-1.79879e-06
-3.33451e-06
-1.49135e-06
-2.40241e-06
-1.66795e-06
-2.29648e-06
-1.79152e-06
-2.28215e-06
-1.26034e-06
-2.76937e-06
-5.65709e-07
2.46576e-06
-1.11493e-05
6.1414e-06
7.14869e-06
7.76339e-06
5.8318e-06
-6.11977e-07
1.5478e-05
1.88856e-05
2.82879e-05
2.74172e-05
2.53002e-05
3.42183e-05
3.95547e-05
5.01572e-05
6.04509e-05
6.85566e-05
8.81253e-05
9.74333e-05
0.0001152
0.000163357
0.000161173
0.000200045
0.000269027
0.00027827
0.000362412
0.000599759
0.000901532
0.00182439
0.00226739
0.00563759
0.047621
0.0345711
-0.0483954
-0.079592
-0.0850492
-0.0765039
-0.063051
-0.0524954
-0.0459824
-0.0404789
-0.038639
-0.0345081
-0.0297293
-0.0243614
-0.0194475
-0.0155146
-0.0122207
-0.0108959
-0.00997098
-0.00918305
-0.00783382
-0.00683454
-0.00584615
-0.00532467
-0.00488524
-0.00455869
-0.00413497
-0.00398308
-0.00398145
-0.00387047
-0.00446073
-0.00399022
-0.00437964
-0.00480784
-0.00484544
-0.00572698
-0.00599567
-0.00738674
-0.00792278
-0.00804229
-0.0100566
-0.00925339
-0.00920224
-0.0107596
-0.0100292
-0.00983891
-0.0093974
-0.00950355
-0.00906107
-0.00842204
-0.00792686
-0.00688678
-0.00628714
-0.00953001
-0.00858547
-0.00939409
-0.0184472
-0.0161503
-0.0126069
-0.00603944
-0.0011574
-0.00164911
-0.00517285
-0.01148
-0.00661211
0.0308664
0.163299
0.332218
0.411795
0.420306
0.396361
0.373123
0.351199
0.321857
0.273196
0.253698
-1.86212e-05
-2.87703e-06
-5.02887e-06
-2.11409e-06
-2.21515e-06
-1.52291e-06
-3.51989e-06
-2.93966e-06
-3.31761e-06
-9.49915e-07
-3.62602e-06
-9.9112e-07
2.8134e-06
-1.30334e-05
6.54553e-06
1.02692e-05
1.06769e-05
8.15488e-06
1.36415e-06
1.85754e-05
2.69689e-05
3.8248e-05
3.80962e-05
3.59562e-05
4.56004e-05
5.42906e-05
7.09618e-05
7.89114e-05
9.61586e-05
0.000124494
0.000148835
0.000162119
0.000202329
0.00022339
0.000296393
0.000332029
0.000401418
0.00041281
0.000553187
0.000604207
0.00110413
0.00106947
0.00247321
0.0261033
0.0104635
-0.0526999
-0.0872433
-0.0942141
-0.0916402
-0.0810754
-0.0720022
-0.0622334
-0.0563248
-0.0542064
-0.0480573
-0.0425795
-0.0364095
-0.0302654
-0.0245481
-0.0200121
-0.018011
-0.0165325
-0.0154198
-0.0133835
-0.0114343
-0.0098239
-0.00869854
-0.0079873
-0.00739257
-0.00677983
-0.00627329
-0.00623104
-0.00634563
-0.00670206
-0.00545162
-0.00622224
-0.00711785
-0.00700752
-0.00846301
-0.0083343
-0.00978969
-0.0107806
-0.0107333
-0.012697
-0.0121536
-0.0119231
-0.014146
-0.013372
-0.0130551
-0.012715
-0.0130218
-0.0123834
-0.0117422
-0.0107977
-0.00971396
-0.00878324
-0.0132143
-0.0120273
-0.0125586
-0.0241936
-0.0213171
-0.0143611
-0.00872902
-0.0011755
-0.000377602
-0.0039608
0.00192291
0.045964
0.200096
0.369484
0.478664
0.520845
0.501086
0.467491
0.446392
0.423416
0.396776
0.341934
0.325367
-2.26805e-05
-4.03171e-06
-6.12627e-06
-2.79549e-06
-3.3586e-06
-1.79804e-06
-4.31153e-06
-3.1176e-06
-4.76889e-06
-1.66515e-06
-3.74846e-06
-9.92309e-07
3.9416e-07
-1.26286e-05
5.64802e-06
1.60971e-05
1.50549e-05
8.60557e-06
1.59095e-06
2.33307e-05
3.70497e-05
4.75458e-05
5.49271e-05
5.00641e-05
6.10384e-05
7.26148e-05
8.47193e-05
0.000108676
0.00014038
0.000154509
0.000188112
0.000228353
0.000267072
0.000315178
0.00037783
0.000426814
0.000486776
0.000540526
0.00056451
0.000533674
0.000547679
0.000510976
-0.000806064
0.003348
-0.0454764
-0.0720061
-0.0942361
-0.100698
-0.0996865
-0.0919285
-0.0876999
-0.0783037
-0.073197
-0.0700417
-0.0627043
-0.0570886
-0.0500171
-0.0417978
-0.0344782
-0.0290534
-0.0259444
-0.0231916
-0.0210645
-0.0178415
-0.0148567
-0.0126123
-0.0111824
-0.0102787
-0.00966637
-0.00894033
-0.00850455
-0.00814606
-0.00819494
-0.00884714
-0.00757032
-0.0084094
-0.00947043
-0.00947284
-0.010517
-0.0109059
-0.0125206
-0.0139559
-0.014026
-0.0157228
-0.0157873
-0.0156428
-0.01768
-0.0168646
-0.0166029
-0.0163752
-0.0168659
-0.0161859
-0.0156112
-0.0145554
-0.0133061
-0.0131729
-0.0177733
-0.0162608
-0.0176162
-0.0291322
-0.0252969
-0.0190186
-0.00828634
-0.00307342
0.00243353
0.0135403
0.0743365
0.245117
0.423385
0.550195
0.599763
0.598223
0.559602
0.520562
0.500717
0.475592
0.461435
0.409444
0.395179
-2.57801e-05
-5.45914e-06
-7.17646e-06
-3.06328e-06
-4.06873e-06
-2.70639e-06
-5.19337e-06
-3.70904e-06
-5.94221e-06
-1.96705e-06
-3.43623e-06
-1.6145e-06
-6.18799e-07
-1.11822e-05
2.89265e-06
1.91055e-05
2.20555e-05
6.96648e-06
7.42331e-06
2.20922e-05
4.58908e-05
5.68635e-05
7.02375e-05
6.39281e-05
6.91015e-05
8.67435e-05
0.000111925
0.000132037
0.000152325
0.000196383
0.000234175
0.000272899
0.000317973
0.000396611
0.000433536
0.000524346
0.00059053
0.00065438
0.000553889
0.000589663
0.000336381
0.000282952
-0.000369
-0.0148946
-0.0968817
-0.0961829
-0.104482
-0.117073
-0.118821
-0.111327
-0.108397
-0.0979586
-0.0910259
-0.0833388
-0.0733589
-0.0674519
-0.05656
-0.0463448
-0.0372886
-0.0313448
-0.0284212
-0.0271731
-0.0263407
-0.0229348
-0.0194877
-0.0169096
-0.0149793
-0.0135965
-0.0127678
-0.0118548
-0.0112133
-0.0101067
-0.0101321
-0.0115179
-0.0101173
-0.0111602
-0.01242
-0.012319
-0.0137335
-0.0137565
-0.0154644
-0.0177432
-0.0171972
-0.0187244
-0.0200911
-0.0197223
-0.02161
-0.0207552
-0.0200447
-0.0201912
-0.0207816
-0.0201167
-0.0196363
-0.0184534
-0.017295
-0.0171024
-0.0228783
-0.0210589
-0.0231745
-0.0369613
-0.0313523
-0.0221653
-0.0136492
0.00358469
0.0234652
0.0977739
0.290758
0.480513
0.595739
0.660836
0.684273
0.655004
0.60324
0.561116
0.539391
0.5146
0.50896
0.46748
0.456687
-2.9077e-05
-6.83002e-06
-8.74889e-06
-3.91634e-06
-4.27122e-06
-2.82366e-06
-6.54022e-06
-4.2721e-06
-7.40018e-06
-2.83686e-06
-3.35064e-06
-3.09332e-06
-2.80648e-06
-8.54421e-06
-1.67485e-06
2.3556e-05
2.8095e-05
7.2563e-06
8.47668e-06
2.2982e-05
5.44371e-05
6.93781e-05
8.83042e-05
8.1102e-05
8.3373e-05
0.000100595
0.000129874
0.000159873
0.000191135
0.000220868
0.000281275
0.000345118
0.000377695
0.00047452
0.000546438
0.000629427
0.000671032
0.000778907
0.000748132
0.000639665
0.000149529
-0.000414096
-0.00185404
-0.0297468
-0.118085
-0.122154
-0.124463
-0.140321
-0.145488
-0.140693
-0.137136
-0.128272
-0.120771
-0.111491
-0.0991157
-0.092262
-0.0793186
-0.062036
-0.0510153
-0.0445053
-0.039393
-0.0363945
-0.0337643
-0.0291745
-0.0237675
-0.0201965
-0.0174065
-0.0159716
-0.01474
-0.0138899
-0.013205
-0.0113046
-0.0115917
-0.0140192
-0.0129205
-0.0140876
-0.015698
-0.0154252
-0.0163621
-0.0170483
-0.0188623
-0.0215492
-0.0206185
-0.0221409
-0.0253146
-0.0248445
-0.026057
-0.0240704
-0.0238363
-0.0240315
-0.0249419
-0.0242314
-0.0236868
-0.0226234
-0.0207456
-0.0217066
-0.0281095
-0.0262247
-0.0288515
-0.0427315
-0.0365562
-0.0244825
-0.00776455
0.0254286
0.107508
0.324039
0.535325
0.66141
0.727128
0.750654
0.74397
0.699887
0.642671
0.599133
0.575429
0.552212
0.54646
0.513925
0.510298
-3.14356e-05
-8.28569e-06
-9.18794e-06
-4.63398e-06
-5.55068e-06
-4.34261e-06
-6.04822e-06
-4.53092e-06
-9.28088e-06
-4.62349e-06
-1.55871e-06
-2.92946e-06
-5.9786e-06
-5.61969e-06
-3.39541e-06
2.46815e-05
3.49473e-05
1.61099e-05
9.07757e-06
2.49148e-05
5.78603e-05
8.0228e-05
9.97958e-05
9.90153e-05
9.62769e-05
0.000119381
0.00014359
0.000181977
0.000218886
0.000267423
0.000304526
0.000364673
0.000466173
0.000534467
0.000625054
0.000734394
0.000857181
0.0010175
0.00107295
0.00106369
0.000648016
0.000254844
-0.00095765
-0.0238771
-0.112256
-0.139926
-0.164808
-0.188955
-0.194036
-0.181552
-0.172918
-0.159444
-0.147045
-0.133753
-0.115578
-0.104663
-0.0868717
-0.0670464
-0.054692
-0.0450434
-0.03697
-0.0368075
-0.0344327
-0.0296574
-0.0278701
-0.0251815
-0.0209587
-0.0189685
-0.0185517
-0.0164444
-0.0157257
-0.0134931
-0.0130208
-0.015963
-0.0168976
-0.0170089
-0.0191974
-0.0189037
-0.0201681
-0.0213661
-0.0222628
-0.0241936
-0.0239193
-0.0258223
-0.0288451
-0.0291468
-0.0297665
-0.0280377
-0.0268861
-0.0278627
-0.0290752
-0.0289883
-0.0287103
-0.027547
-0.0259955
-0.0259081
-0.0330125
-0.0313105
-0.0354657
-0.048784
-0.039644
-0.0205565
0.0131224
0.109719
0.333212
0.575698
0.709662
0.783156
0.828077
0.831489
0.80107
0.743853
0.682195
0.635999
0.608975
0.585836
0.580501
0.5544
0.555503
-3.40194e-05
-9.18999e-06
-1.07461e-05
-5.41404e-06
-5.56149e-06
-4.66295e-06
-7.33303e-06
-6.29048e-06
-9.51944e-06
-5.34058e-06
-2.10697e-06
-4.18741e-06
-6.55403e-06
-3.90143e-06
-4.15931e-06
2.42414e-05
3.91026e-05
2.59039e-05
9.09275e-06
2.38917e-05
6.21142e-05
9.2319e-05
0.000114789
0.000116788
0.000118047
0.000131572
0.000161974
0.000197637
0.000248842
0.000302488
0.000355618
0.000410148
0.000488085
0.000607631
0.000741471
0.000857007
0.0010101
0.00116173
0.00138066
0.00158762
0.00197185
0.00188261
0.00223331
-0.00539926
-0.0894492
-0.16837
-0.224848
-0.262191
-0.267117
-0.24109
-0.230537
-0.212928
-0.19223
-0.173457
-0.148843
-0.132148
-0.10903
-0.082017
-0.0678202
-0.0580713
-0.0462091
-0.0409503
-0.0368663
-0.0339752
-0.0310794
-0.0259339
-0.0246653
-0.023429
-0.0210326
-0.0194715
-0.0172873
-0.0171934
-0.0167805
-0.0171701
-0.0198788
-0.0197322
-0.0217689
-0.0220303
-0.0221388
-0.0249266
-0.025157
-0.0271945
-0.0275291
-0.0292377
-0.0330269
-0.0337641
-0.0324235
-0.0311086
-0.0305976
-0.0317357
-0.031919
-0.0315189
-0.0310873
-0.0308617
-0.0295128
-0.0305119
-0.0366082
-0.0344989
-0.038151
-0.0478815
-0.0366215
-0.000786814
0.0963387
0.338575
0.593719
0.760715
0.835478
0.872056
0.898585
0.887389
0.844622
0.781492
0.719811
0.671271
0.641345
0.618561
0.612775
0.590944
0.594091
-3.5643e-05
-1.07711e-05
-1.13044e-05
-6.17667e-06
-6.72822e-06
-5.41647e-06
-8.19161e-06
-6.9808e-06
-1.05612e-05
-8.44568e-06
-9.7244e-07
-2.83793e-06
-8.17461e-06
-3.33346e-06
1.61391e-07
1.88327e-05
4.33911e-05
3.55751e-05
1.38692e-05
2.35609e-05
6.58272e-05
0.000101291
0.000124071
0.00013559
0.00013827
0.000145034
0.000171152
0.000213515
0.000268308
0.000324265
0.000385418
0.000460888
0.000529802
0.000634348
0.000780851
0.000980025
0.00123895
0.00159367
0.00215807
0.00290668
0.00428562
0.00581008
0.00846204
0.023783
-0.0591619
-0.232046
-0.315678
-0.347856
-0.334241
-0.28772
-0.265246
-0.240553
-0.219055
-0.198261
-0.165077
-0.146736
-0.117743
-0.0935401
-0.0664114
-0.0568843
-0.0520467
-0.0436482
-0.0371226
-0.0360719
-0.0334423
-0.0264537
-0.0268086
-0.0257281
-0.0239572
-0.0208298
-0.0173591
-0.0190173
-0.0199123
-0.0198632
-0.0216349
-0.0225402
-0.0238961
-0.025197
-0.0253026
-0.0278616
-0.0282202
-0.0299581
-0.0304235
-0.0317847
-0.0356558
-0.0362491
-0.0347788
-0.032936
-0.0332817
-0.0341952
-0.0352717
-0.0354959
-0.0345432
-0.0333602
-0.031598
-0.0293477
-0.0354818
-0.0330357
-0.0345044
-0.0414829
-0.0121792
0.0900623
0.32176
0.600909
0.779925
0.885399
0.936587
0.955963
0.963522
0.935626
0.882108
0.814768
0.752561
0.703006
0.671721
0.649029
0.642262
0.623825
0.627961
-3.80003e-05
-1.1864e-05
-1.20412e-05
-7.06219e-06
-8.88891e-06
-6.71004e-06
-8.71555e-06
-7.24584e-06
-1.14396e-05
-1.10622e-05
-1.35837e-06
-3.18339e-06
-8.3217e-06
-2.58712e-06
3.53435e-06
1.28095e-05
4.31644e-05
4.42771e-05
2.65065e-05
2.16081e-05
6.8171e-05
0.000111582
0.000136555
0.000148231
0.000154672
0.000163975
0.000183139
0.000223732
0.000282394
0.000348903
0.000409301
0.000481658
0.000561138
0.000654032
0.000762569
0.00091199
0.00111588
0.00134251
0.00171145
0.00211498
0.00325201
0.00369882
0.00630057
0.0206658
-0.0724149
-0.336246
-0.386383
-0.414016
-0.406938
-0.3488
-0.31234
-0.274673
-0.243903
-0.219816
-0.178793
-0.157749
-0.12888
-0.104022
-0.0673084
-0.0505476
-0.0522779
-0.0447011
-0.0400571
-0.0386521
-0.0327514
-0.0283606
-0.0290476
-0.0278501
-0.0260441
-0.0235539
-0.0221093
-0.0228859
-0.0227304
-0.0219509
-0.0236009
-0.0233527
-0.0250767
-0.026445
-0.027257
-0.0297908
-0.0306531
-0.0317095
-0.0326213
-0.0337083
-0.0370827
-0.0379543
-0.0364135
-0.0335762
-0.0350627
-0.0355866
-0.0353035
-0.0345724
-0.033231
-0.0317014
-0.0295841
-0.0255652
-0.0300368
-0.0246803
-0.0174551
0.00241573
0.10856
0.335757
0.582289
0.778194
0.89022
0.959505
0.996953
1.01106
1.00378
0.971668
0.914884
0.845629
0.782105
0.732229
0.69996
0.67715
0.669515
0.653185
0.657075
-3.91133e-05
-1.29549e-05
-1.35975e-05
-8.22365e-06
-8.68254e-06
-6.9475e-06
-1.05317e-05
-8.55762e-06
-1.08626e-05
-1.21439e-05
-3.75029e-06
-2.8509e-06
-8.69643e-06
-2.53845e-06
9.1031e-06
1.02729e-05
4.17515e-05
5.14329e-05
4.22885e-05
2.71191e-05
6.71178e-05
0.000112527
0.000145079
0.000158924
0.000174115
0.000188428
0.000195589
0.000225458
0.000286298
0.000362866
0.000428845
0.000492078
0.000565521
0.000654451
0.000771184
0.000949447
0.00114553
0.00141349
0.00176214
0.00221906
0.00334387
0.00317391
0.00587302
0.00013148
-0.274988
-0.473716
-0.425264
-0.428896
-0.42877
-0.374569
-0.33366
-0.298767
-0.257702
-0.225316
-0.178331
-0.158364
-0.128428
-0.103942
-0.0622635
-0.0478321
-0.0517675
-0.0445589
-0.0411528
-0.0384417
-0.03222
-0.0290817
-0.0293302
-0.027998
-0.0269977
-0.0251137
-0.0254138
-0.0246117
-0.0245184
-0.0234971
-0.0247746
-0.0239676
-0.0259263
-0.0276522
-0.0288526
-0.0309962
-0.0322643
-0.0329068
-0.0334617
-0.0343745
-0.0367753
-0.0375114
-0.0351279
-0.0322448
-0.033721
-0.0343646
-0.0323797
-0.0308479
-0.0283293
-0.0252854
-0.0206297
-0.00979146
-0.00711254
0.0177667
0.0687802
0.182951
0.356117
0.574562
0.75348
0.89085
0.974314
1.02868
1.04912
1.04797
1.03082
0.994107
0.937571
0.869045
0.806526
0.75775
0.725539
0.702642
0.693657
0.679315
0.682926
-4.07793e-05
-1.42086e-05
-1.45646e-05
-9.10906e-06
-1.01062e-05
-9.30983e-06
-1.19449e-05
-9.2323e-06
-1.05909e-05
-1.44696e-05
-5.94399e-06
-2.00433e-06
-7.4839e-06
-4.09188e-06
1.03511e-05
1.11676e-05
3.55195e-05
5.54087e-05
5.57159e-05
3.73183e-05
6.43089e-05
0.000115039
0.00015019
0.000174702
0.000183451
0.000199485
0.000219671
0.000235665
0.000275486
0.000341045
0.000432448
0.000488517
0.000543449
0.000593813
0.000633965
0.000675445
0.000708023
0.000696102
0.000698481
0.000250601
0.000424117
-0.00236916
-7.38164e-05
-0.0648038
-0.596598
-0.646528
-0.529402
-0.470061
-0.443026
-0.376755
-0.337063
-0.304664
-0.259398
-0.222234
-0.178477
-0.155392
-0.12535
-0.100399
-0.0576835
-0.0466836
-0.0504763
-0.0422094
-0.0399251
-0.0370124
-0.0314978
-0.0301307
-0.0303877
-0.0290051
-0.0289727
-0.0273125
-0.0280884
-0.0261533
-0.0262637
-0.0249301
-0.0259173
-0.0243437
-0.0264576
-0.0285046
-0.0297893
-0.0314221
-0.0326485
-0.0328428
-0.0330008
-0.0335647
-0.03499
-0.0348636
-0.0309141
-0.0282767
-0.0286772
-0.0281653
-0.0232197
-0.0176882
-0.0099587
0.00170347
0.0211603
0.059
0.10063
0.185017
0.293476
0.414262
0.575539
0.725744
0.839421
0.944252
1.01355
1.06006
1.07516
1.07025
1.05149
1.01391
0.957073
0.8892
0.827837
0.7802
0.74827
0.725361
0.715467
0.702316
0.705139
-4.20144e-05
-1.54105e-05
-1.53582e-05
-1.05437e-05
-1.23305e-05
-1.01544e-05
-1.18759e-05
-1.18153e-05
-1.05703e-05
-1.41396e-05
-9.38571e-06
-1.6751e-06
-5.01287e-06
-6.16019e-06
1.3313e-05
1.63065e-05
2.98851e-05
5.81512e-05
6.66753e-05
5.789e-05
6.36699e-05
0.000108636
0.000153652
0.000182665
0.00019673
0.000212656
0.000243071
0.000248854
0.000265462
0.00032286
0.000409172
0.000498029
0.000517176
0.000547044
0.000536297
0.000513613
0.000341805
0.000290593
3.86097e-05
-0.00063258
-0.00141544
-0.00328065
-0.00528507
-0.251828
-0.750852
-0.723702
-0.622825
-0.548449
-0.485229
-0.403899
-0.363197
-0.319542
-0.268972
-0.227912
-0.18867
-0.156729
-0.127364
-0.0996743
-0.0555337
-0.0469008
-0.0502036
-0.0407012
-0.0401321
-0.0373182
-0.0309173
-0.0318012
-0.0321768
-0.0305704
-0.0314094
-0.0295752
-0.0304994
-0.0276383
-0.0280789
-0.0259155
-0.026557
-0.0240225
-0.0264309
-0.0287324
-0.0296157
-0.0304968
-0.0311762
-0.0303548
-0.0297758
-0.0286673
-0.0290396
-0.0268652
-0.0192166
-0.0135231
-0.0049688
0.00162742
0.017269
0.0421629
0.0721207
0.115746
0.174535
0.252895
0.304819
0.378277
0.485959
0.592185
0.696492
0.80829
0.906201
0.986751
1.03897
1.07449
1.083
1.07869
1.05957
1.02405
0.96883
0.904135
0.845261
0.799814
0.76874
0.746033
0.735356
0.72308
0.725109
-4.30219e-05
-1.64319e-05
-1.72463e-05
-1.19168e-05
-1.31277e-05
-1.07608e-05
-1.40395e-05
-1.37995e-05
-1.07677e-05
-1.39809e-05
-1.3083e-05
-2.34631e-06
-2.64153e-06
-5.81372e-06
1.24492e-05
2.45511e-05
2.18512e-05
5.64376e-05
7.45488e-05
7.37029e-05
7.43117e-05
0.000101548
0.000154603
0.000185101
0.0002085
0.000227984
0.000250308
0.000270268
0.0002739
0.000299117
0.000357633
0.000459471
0.000494274
0.000491254
0.000444209
0.000411887
0.000330735
0.000342906
0.000208239
0.000515526
0.000149417
0.00309925
-0.00172867
-0.434662
-0.798293
-0.784216
-0.734881
-0.676148
-0.594539
-0.470657
-0.411446
-0.340448
-0.285962
-0.243293
-0.200308
-0.166226
-0.133865
-0.100179
-0.055418
-0.0494902
-0.0534087
-0.0393749
-0.0401565
-0.0395145
-0.0309174
-0.0321978
-0.0327509
-0.0311317
-0.0324392
-0.0314747
-0.032117
-0.0297741
-0.029676
-0.0257385
-0.0262062
-0.0224547
-0.0234462
-0.0254245
-0.0254948
-0.0239305
-0.0215746
-0.0182305
-0.0121314
-0.00645885
0.000987318
0.0118792
0.0310274
0.0568931
0.0861986
0.118847
0.162013
0.216879
0.267806
0.313458
0.358482
0.426837
0.483762
0.538724
0.607535
0.682935
0.762618
0.848918
0.931488
1.00185
1.05152
1.08057
1.08653
1.0835
1.06606
1.03109
0.977271
0.915502
0.859726
0.816813
0.786806
0.76447
0.753187
0.741323
0.742339
-4.3974e-05
-1.75108e-05
-1.86795e-05
-1.36827e-05
-1.43571e-05
-1.27689e-05
-1.38785e-05
-1.54209e-05
-1.223e-05
-1.30615e-05
-1.66317e-05
-3.30649e-06
2.41267e-07
-4.28003e-06
1.15694e-05
2.762e-05
1.94224e-05
5.1083e-05
8.52557e-05
8.90667e-05
8.34668e-05
0.000100065
0.000144875
0.00019334
0.000212631
0.000233183
0.000255558
0.000295126
0.000299198
0.000297785
0.000326947
0.000409851
0.00048372
0.000476553
0.000410278
0.000326951
0.000219897
0.00016153
-9.16702e-05
7.7587e-05
-0.00116744
0.00288236
-0.0292618
-0.616099
-0.82295
-0.804157
-0.784997
-0.752583
-0.691098
-0.579701
-0.488814
-0.376566
-0.3181
-0.258933
-0.224212
-0.174823
-0.142636
-0.0976011
-0.0636752
-0.0560669
-0.0559609
-0.0410066
-0.0417214
-0.0411764
-0.0308731
-0.0342052
-0.0341417
-0.0323856
-0.0333947
-0.0322042
-0.0317149
-0.0274307
-0.0267827
-0.0209354
-0.0195812
-0.0122874
-0.0092883
-0.00589082
-0.00111142
0.0068279
0.017932
0.0352876
0.0575474
0.0804601
0.111581
0.14538
0.187308
0.241237
0.279945
0.310136
0.347052
0.395724
0.445997
0.477581
0.505349
0.544258
0.584737
0.62593
0.67492
0.731819
0.795884
0.869607
0.946223
1.0124
1.05479
1.07805
1.08277
1.0799
1.0644
1.03214
0.982098
0.924064
0.871764
0.831598
0.802951
0.7814
0.769555
0.758051
0.758253
-4.48879e-05
-1.86547e-05
-1.99179e-05
-1.52863e-05
-1.58353e-05
-1.44184e-05
-1.43919e-05
-1.71292e-05
-1.47417e-05
-1.24627e-05
-1.83925e-05
-6.79475e-06
2.59289e-06
-2.02645e-06
1.00673e-05
2.77034e-05
2.73085e-05
4.14355e-05
8.81043e-05
0.000106805
9.16623e-05
0.000103414
0.000139933
0.000191225
0.000225255
0.000226191
0.000253959
0.00030519
0.000332699
0.000317285
0.000315311
0.000352581
0.00042767
0.000470136
0.000412328
0.000314064
0.000174068
-4.14654e-05
-0.000487332
-0.00103902
-0.00218841
-0.00189055
-0.147772
-0.719683
-0.828067
-0.815426
-0.806247
-0.785494
-0.752805
-0.695834
-0.596709
-0.464303
-0.3638
-0.299871
-0.255863
-0.188313
-0.156227
-0.0992717
-0.0707534
-0.0604956
-0.057045
-0.0396535
-0.0407124
-0.03907
-0.0295684
-0.0310523
-0.0316567
-0.0277921
-0.0272183
-0.022931
-0.0205457
-0.0113696
-0.00177769
0.00709033
0.0185408
0.0350256
0.0525497
0.0689568
0.0917868
0.118915
0.150328
0.189201
0.231669
0.264667
0.296196
0.326661
0.364018
0.412883
0.450135
0.471447
0.495347
0.523398
0.548872
0.568418
0.588187
0.612018
0.643196
0.674525
0.712798
0.759157
0.813542
0.879204
0.949157
1.01036
1.05138
1.07473
1.08114
1.07687
1.0607
1.02982
0.98334
0.929859
0.881549
0.844215
0.817114
0.796451
0.784315
0.772867
0.771892
-4.57107e-05
-1.96914e-05
-2.17721e-05
-1.75628e-05
-1.71824e-05
-1.66167e-05
-1.47529e-05
-1.83713e-05
-1.76486e-05
-1.09765e-05
-1.75361e-05
-1.05882e-05
3.76279e-06
1.86372e-06
8.57068e-06
2.20763e-05
3.34768e-05
3.92326e-05
8.11575e-05
0.000116164
0.000106359
0.000102132
0.000135564
0.000193476
0.000231429
0.00024171
0.000241723
0.000289702
0.000351699
0.000375784
0.000351788
0.000347246
0.000400336
0.000464703
0.000501991
0.000506095
0.000517472
0.000414293
0.000536754
2.17168e-05
0.000677545
-0.000802182
-0.303528
-0.776973
-0.828897
-0.822065
-0.819497
-0.808046
-0.78825
-0.757464
-0.693709
-0.586973
-0.464482
-0.369614
-0.280663
-0.202911
-0.160549
-0.103581
-0.0725902
-0.056478
-0.0541419
-0.0356714
-0.0328471
-0.029909
-0.021348
-0.0158707
-0.0154993
-0.00733772
0.00588729
0.0173086
0.0382155
0.0593933
0.0833238
0.109686
0.136918
0.171226
0.206866
0.234446
0.257547
0.284721
0.31294
0.348746
0.392163
0.427389
0.45283
0.475965
0.499505
0.523107
0.543571
0.560501
0.575778
0.591688
0.606931
0.62328
0.639284
0.652687
0.675931
0.703061
0.735343
0.775298
0.8239
0.883418
0.949831
1.00823
1.0465
1.06701
1.0735
1.0694
1.05379
1.02509
0.982804
0.933921
0.889397
0.855198
0.829611
0.810421
0.79804
0.786875
0.784584
-4.64968e-05
-2.09464e-05
-2.27283e-05
-1.91079e-05
-1.97481e-05
-1.95871e-05
-1.54535e-05
-1.83595e-05
-2.10603e-05
-1.27847e-05
-1.53537e-05
-1.55406e-05
3.41154e-06
6.19835e-06
8.00277e-06
1.78246e-05
4.07788e-05
4.59739e-05
7.18394e-05
0.000117596
0.000125631
0.000102386
0.000133418
0.000194974
0.000232639
0.000255659
0.000243351
0.000253376
0.000331745
0.000405599
0.000422913
0.000378173
0.000405265
0.000454877
0.00056492
0.000618632
0.00069951
0.000912816
0.00151858
0.00183508
0.0042303
0.00211396
-0.451151
-0.82752
-0.841892
-0.83587
-0.834399
-0.826195
-0.812776
-0.797695
-0.764385
-0.704844
-0.599934
-0.475549
-0.335958
-0.226736
-0.151323
-0.107731
-0.0597538
-0.0393007
-0.039322
-0.0185191
-0.00192944
0.0061084
0.0176692
0.0422279
0.0563319
0.0793756
0.112974
0.147447
0.186479
0.214645
0.235043
0.256777
0.28172
0.312
0.348013
0.381587
0.405178
0.428032
0.449239
0.471941
0.494406
0.516393
0.535516
0.551655
0.568588
0.583537
0.597414
0.61188
0.623637
0.63188
0.641685
0.653878
0.669067
0.680234
0.699088
0.722235
0.750966
0.78635
0.83031
0.884476
0.946472
1.00181
1.03921
1.05956
1.06551
1.06103
1.04575
1.01888
0.980006
0.9358
0.895652
0.864451
0.840565
0.82278
0.810206
0.799658
0.795278
-4.72147e-05
-2.19804e-05
-2.48535e-05
-2.15242e-05
-2.10002e-05
-2.15953e-05
-1.71444e-05
-1.90702e-05
-2.36454e-05
-1.33158e-05
-1.2603e-05
-1.88473e-05
3.87568e-07
1.05953e-05
6.45031e-06
1.36931e-05
4.26332e-05
5.02351e-05
6.40197e-05
0.000109569
0.000133528
0.000117977
0.000126875
0.000191591
0.000240372
0.000264217
0.000266234
0.000234712
0.000286219
0.000396624
0.000469032
0.000495233
0.000456197
0.0004752
0.000580828
0.000601317
0.000802545
0.000650424
0.00129762
0.00066414
0.00442027
-0.0188862
-0.614181
-0.848208
-0.846746
-0.843723
-0.839744
-0.834876
-0.83004
-0.822912
-0.802864
-0.768624
-0.710576
-0.616488
-0.438305
-0.250988
-0.124776
-0.080095
-0.0291377
0.0159532
0.01881
0.040278
0.0803516
0.112468
0.146306
0.186463
0.206637
0.226041
0.251178
0.280098
0.315645
0.347123
0.368561
0.388054
0.406878
0.427925
0.446454
0.464746
0.482902
0.500258
0.517364
0.534511
0.551007
0.566736
0.582016
0.594923
0.607908
0.617983
0.628653
0.640155
0.650711
0.657829
0.665202
0.675389
0.688722
0.6998
0.716124
0.736474
0.762187
0.79397
0.834204
0.884271
0.942505
0.994989
1.03129
1.05065
1.05649
1.05174
1.03653
1.01111
0.975524
0.935665
0.900395
0.872766
0.850709
0.834297
0.821758
0.811309
0.80553
-4.80204e-05
-2.29148e-05
-2.67604e-05
-2.44409e-05
-2.15751e-05
-2.34312e-05
-2.03316e-05
-1.83583e-05
-2.45759e-05
-1.83207e-05
-1.12864e-05
-1.84379e-05
-4.91333e-06
1.26307e-05
7.66544e-06
1.03036e-05
4.19312e-05
6.03496e-05
6.0869e-05
9.68238e-05
0.000135858
0.000136392
0.000128286
0.000173822
0.000257766
0.000276507
0.000288708
0.000244733
0.00023163
0.000341538
0.000480934
0.000528063
0.000508283
0.000466954
0.000464477
0.000460711
0.000347214
0.000229823
8.77705e-06
-0.00121625
-0.000449069
-0.123957
-0.726293
-0.855666
-0.853226
-0.853121
-0.847568
-0.844549
-0.843962
-0.840061
-0.828774
-0.807687
-0.7745
-0.71174
-0.520618
-0.286539
-0.093553
0.00931152
0.0730113
0.138811
0.161939
0.175102
0.213279
0.239948
0.27278
0.309734
0.338213
0.358224
0.379509
0.40022
0.418064
0.434394
0.447963
0.462181
0.47526
0.491381
0.504746
0.517109
0.528913
0.541591
0.555074
0.568652
0.581087
0.59319
0.604719
0.616809
0.628531
0.638608
0.64848
0.65875
0.668523
0.675566
0.682436
0.691669
0.704147
0.71512
0.729898
0.748153
0.771191
0.799945
0.836674
0.883527
0.93865
0.988779
1.02244
1.04199
1.04755
1.04266
1.02805
1.00425
0.972035
0.936807
0.905426
0.880542
0.859923
0.844251
0.830893
0.820874
0.813539
-4.89107e-05
-2.40083e-05
-2.84031e-05
-2.67864e-05
-2.43196e-05
-2.53698e-05
-2.40719e-05
-1.9408e-05
-2.41205e-05
-2.2327e-05
-1.17116e-05
-1.45947e-05
-1.02097e-05
1.10462e-05
9.11718e-06
1.22539e-05
3.61409e-05
6.04015e-05
6.44618e-05
8.2314e-05
0.000132714
0.000150605
0.000137751
0.0001564
0.000249327
0.000291626
0.000310249
0.000290911
0.000231885
0.00028436
0.000402672
0.000576869
0.00056375
0.000544842
0.000462604
0.000468449
0.000317154
0.000306655
4.58037e-06
0.000161683
-0.000763237
-0.287523
-0.785941
-0.853648
-0.854734
-0.856697
-0.85525
-0.853952
-0.851716
-0.848943
-0.842754
-0.82301
-0.795593
-0.72607
-0.496029
-0.172427
0.0363465
0.139762
0.206307
0.249737
0.287403
0.306463
0.33595
0.360763
0.38595
0.40701
0.42273
0.438184
0.450425
0.465956
0.478337
0.490691
0.500346
0.510244
0.518971
0.529739
0.538125
0.548076
0.556026
0.565143
0.57553
0.586969
0.598322
0.608889
0.619302
0.630104
0.641215
0.651281
0.661607
0.671809
0.681491
0.688964
0.696127
0.704897
0.71643
0.727208
0.740789
0.757195
0.777869
0.804035
0.837993
0.882115
0.934084
0.981597
1.01331
1.03208
1.03681
1.03183
1.01773
0.996144
0.96802
0.937178
0.90979
0.887967
0.868613
0.853561
0.840289
0.829879
0.821167
-4.99778e-05
-2.53047e-05
-2.98327e-05
-2.91109e-05
-2.62927e-05
-2.58461e-05
-2.83222e-05
-2.10488e-05
-2.38053e-05
-2.60846e-05
-1.46335e-05
-1.01371e-05
-1.28232e-05
4.97659e-06
1.09366e-05
1.44405e-05
3.20976e-05
6.07138e-05
6.35321e-05
7.50584e-05
0.000126457
0.000153764
0.000142634
0.000152465
0.000230355
0.000304491
0.000321959
0.000317719
0.000275959
0.000256284
0.000335163
0.000494606
0.000603643
0.000581135
0.000582218
0.000640645
0.000744431
0.00131571
0.00133947
0.00313766
0.00114558
-0.432398
-0.842326
-0.864011
-0.86326
-0.863627
-0.862254
-0.85901
-0.854983
-0.851433
-0.843651
-0.813894
-0.75098
-0.604801
-0.284626
0.0224581
0.188222
0.275645
0.325839
0.359349
0.382453
0.398095
0.416079
0.433831
0.451422
0.470748
0.487556
0.5032
0.51216
0.522416
0.528741
0.537559
0.544511