/*--------------------------------*- C++ -*----------------------------------*\
| =========                 |                                                 |
| \\      /  F ield         | OpenFOAM: The Open Source CFD Toolbox           |
|  \\    /   O peration     | Version:  2.2.x                                 |
|   \\  /    A nd           | Web:      www.OpenFOAM.org                      |
|    \\/     M anipulation  |                                                 |
\*---------------------------------------------------------------------------*/
FoamFile
{
    version     2.0;
    format      ascii;
    class       volScalarField;
    location    "2.6";
    object      divBf;
}
// * * * * * * * * * * * * * * * * * * * * * * * * * * * * * * * * * * * * * //

dimensions      [1 -3 -2 0 0 -1 0];

internalField   nonuniform List<scalar> 
14161
(
1747.19
176.763
366.734
293.809
274.919
240.367
208.134
177.395
147.722
118.446
86.4772
57.0322
25.8074
-5.19414
-38.9788
-74.4058
-112.745
-150.579
-187.959
-234.675
-277.514
-324.545
-367.975
-405.728
-454.476
-508.584
-555.026
-614.559
-654.843
-708.709
-780.673
-782.244
-895.494
-909.043
-908.858
-995.804
-923.022
-903.709
-896.212
-984.709
-1094.59
-1219.37
-694.781
-3022.98
10706.6
-28743.5
-31636.8
-34268.6
-33869.8
-34642.4
-34123.9
-34361.1
-33400.4
-33847.7
-32955.3
-31971.1
-30965.6
-29918.7
-28350.9
-26789.2
-25558.6
-24153.3
-22742.5
-21185
-19507.7
-17848.9
-16148.5
-14545.9
-12802.6
-11069.3
-9403.2
-7723.97
-5960.67
-4517.48
-2682.66
-1237.32
502.142
1855.95
3264.6
4619.79
5729.78
7268.87
8459.41
9239.69
10728.8
11547.9
12142.2
13066.7
13467
13979.1
14035
14060.9
13762.8
13368.9
12568.9
11813.9
10077.9
9286.47
7502.35
4979.58
4509.86
1095.81
-579.112
-2847.37
-5542.59
-8133.28
-11203
-14498.7
-15532.8
-23919
-15444.4
-25504.3
-20394.9
-24455.3
-3970.77
-16198.7
21066.3
-22327.5
68009.9
1495.34
-69.5053
120.39
46.5209
24.9551
-11.2665
-44.5619
-78.9098
-114.443
-148.964
-185.263
-221.038
-259.581
-296.575
-339.595
-383.87
-430.99
-478.032
-524.992
-582.954
-637.985
-696.112
-755.621
-806.502
-871.563
-930.708
-1001.38
-1069.88
-1142.21
-1214.95
-1267.44
-1372.43
-1405.66
-1472.07
-1561.09
-1537.76
-1597.02
-1577.89
-1532.69
-1655.21
-1667.79
-1477.32
-3017.49
5197.15
-103.382
-30227.6
-32418.6
-33596.8
-30549.9
-30514.5
-28787.8
-28440.1
-28112.9
-27994.4
-27630.3
-26830.6
-26777.7
-25759.2
-24573.6
-23212.3
-22099.7
-20801.6
-19551.7
-18147.4
-16611.3
-15086.4
-13584.1
-12023.9
-10402.8
-8814.43
-7085.53
-5539.47
-3935.52
-2479.09
-584.582
816.828
2326.56
3875.35
5109.04
6718.75
7730.39
8931.36
10024.1
10607.6
11909.1
12709.6
13245.7
14106.1
14428.6
14909.4
14943.8
14966.3
14737.3
14318.3
13648.3
12943.2
11334.3
10596.2
8932.88
6175.4
5437.63
3038.74
825.01
-1116.92
-3640.37
-6501.86
-7309.15
-14575.1
-15070.3
-20456
-34243.3
-38461.2
-29530.7
-34169.2
-16804.2
-26508.1
7867.81
-21211
46561.5
1246.23
-308.902
-118.938
-191.532
-213.895
-250.54
-284.817
-321.251
-358.999
-397.214
-437.556
-477.47
-519.98
-563.861
-611.613
-663.579
-715.141
-770.238
-827.585
-891.536
-956.364
-1022.75
-1092.35
-1154.72
-1226.57
-1305.04
-1380.63
-1465.55
-1549.22
-1635.07
-1716.71
-1814.69
-1858.48
-1978.57
-2033.26
-2066.12
-2113.79
-2079.15
-2037.91
-1944.96
-2026.22
-1725.59
-3164.77
-1209.36
202.738
-28445.4
-24487.5
-23765.8
-26190.5
-27781
-29454.1
-29283.1
-29932.1
-29938.5
-29450.1
-28635
-26705.7
-25047.2
-23694.4
-22101
-20611.2
-19102.3
-17793.7
-16185.4
-14635.6
-12961.6
-11390.1
-9804.09
-8261.87
-6700.39
-5125.12
-3794.98
-2231.18
-775.22
920.979
2238.74
3540.32
4805.68
5890.14
7503.83
8874.95
10033.3
11265.7
11894.4
13321.2
13990
14379.4
15411.4
15774.8
16183.4
16185.8
16304.5
15997.2
15586.2
14915.5
13864.9
12180.7
11752.3
10099.5
6494.58
7707.64
5306.12
2922.65
164.209
-2509.2
-5862.77
-10067.2
-11900.2
-16438.5
-20702.5
-19095.5
-20909.7
-15119.1
-18113.3
-5099.52
-14946.4
10961
-15370.5
41100.1
1000.12
-540.193
-349.958
-419.727
-439.897
-476.711
-511.535
-548.379
-587.107
-627.369
-669.707
-712.755
-758.6
-806.92
-856.714
-915.311
-971.562
-1031.29
-1094.96
-1164.2
-1237.85
-1310.76
-1389.37
-1459.98
-1540.13
-1626.45
-1713.79
-1806.84
-1899.29
-1996.95
-2092.33
-2188.89
-2275.44
-2376.37
-2429.62
-2524.32
-2508.65
-2519.84
-2324.39
-2107.45
-1275.73
-1302.3
4164.05
-9292.24
-7864.8
-27321.5
-20488.7
-24616.6
-23518.8
-25043.7
-24207
-23787.3
-22857.4
-22665.5
-21482.3
-20693.3
-20938.5
-19962.3
-18894.9
-18086.4
-17066.5
-15790.7
-14675.9
-13372.9
-11844.6
-10457.7
-9021.84
-7620.88
-6200.1
-4728.89
-3219.4
-1622.54
-321.425
946.605
2553.02
4087.73
5336.52
6843.48
8118.54
9355.99
10539.2
11303.2
12444.3
13307.1
14360.9
15016.8
15413
16390.9
16565.1
16943.9
16872.6
16954.2
16646.1
16278
15813.9
14762.8
13280.7
12937.4
11305.1
7398
7994.06
5487.61
3676.04
1248.83
-1388.5
-4746.93
-8270.36
-15175
-16702.3
-21455
-16173.6
-13998.3
-12346.9
-14550.1
-5168.36
-12034.2
6415.96
-10180.7
35220.2
759.837
-762.305
-570.911
-636.511
-654.53
-689.574
-723.324
-760.259
-799.189
-839.811
-882.845
-928.346
-976.277
-1026.08
-1080.6
-1140.69
-1201.62
-1263.59
-1333.69
-1406.15
-1485.02
-1562.96
-1648.74
-1727.02
-1811.09
-1904.62
-2001.29
-2101.01
-2199.7
-2305.38
-2402.75
-2511.11
-2616.86
-2700.89
-2806.08
-2871.95
-2923.81
-2950.18
-2881.88
-2886.75
-2537.01
-2926.44
-2061.44
-13080.5
-31058.6
-15496.2
-15995.3
-16128.6
-20388.1
-22175.8
-25593
-26743.2
-26331
-25373.1
-23228.1
-23002.1
-20595.1
-19445.3
-17800.3
-16651.1
-15559.8
-14443.3
-13295.9
-11872.6
-10246.3
-8787.72
-7326.16
-5811.55
-4473.72
-2985.05
-1612.3
28.2152
1462.99
2479.5
3829.96
5330.69
6482.52
7961.76
9379.17
10488.8
11643.5
12369.3
13450.8
14525.1
15085.5
15852.4
16345.1
17258.3
17533.8
17830.7
17785.1
17800.6
17456.1
17118.6
16479.3
15644.9
14012.6
13822.9
12196.4
8528.28
9189.58
7142.03
4092.73
1883.25
-1133.23
-3596.28
-7795.73
-8606.58
-13273.3
-10595.5
-7317.45
-9817.91
-8150.54
-9252.43
-4089.13
-9117.39
4678.58
-7278.44
29263.4
525.774
-973.876
-780.532
-841.843
-856.745
-889.044
-920.599
-956.473
-994.599
-1035.03
-1078
-1125.06
-1172.59
-1224.69
-1282.05
-1342.68
-1408.36
-1472.52
-1544.54
-1619.2
-1702.4
-1785.85
-1875.69
-1960.56
-2048.9
-2148.81
-2247.19
-2354.06
-2456.3
-2571.42
-2674.13
-2788.04
-2899.67
-2981.87
-3115.63
-3164.54
-3271.2
-3265.02
-3205.81
-3086.5
-2590.87
-2543.8
-655.392
-11267.5
-20678.6
-26718.6
-18521.6
-24787.2
-24290.1
-24566.1
-24998.2
-25059.1
-24484.3
-22940.9
-21484.7
-21610
-19804.8
-18066
-15836.4
-14748
-14280.2
-13279.1
-11632.8
-10123.2
-8517.89
-7080.28
-5523.82
-4146.59
-2676.36
-1282.68
124.442
1732.19
3131.25
3727.54
5336.54
6643.18
7898.02
9265.08
10552
11645.5
12973.9
13324.5
14814.7
15738.1
15853.3
16912
17335.1
18453.1
18525.1
18858.2
18758.8
18856.3
18571.7
18193.8
17852.8
16647.5
14953.9
14860.7
13815.1
9234.21
10331.7
7403.77
6944.22
3846.41
1795.03
2979.95
-1019.41
-9977.85
-5736.87
-8151.36
-5010.36
-8953.04
-5705.01
-6988.13
-3934.48
-6239.15
3694.11
-6395.77
23895.7
300.167
-1174.26
-978.505
-1034.11
-1045.58
-1074.48
-1103.82
-1137.52
-1173.8
-1213.29
-1255.81
-1303.4
-1350
-1404.15
-1463.32
-1521.26
-1591.78
-1658.78
-1730.77
-1807.3
-1893.62
-1981.1
-2071.82
-2163.99
-2255.51
-2357.58
-2461.62
-2568.98
-2681.1
-2790.35
-2907.2
-3017.31
-3127.99
-3243.16
-3344.27
-3433.64
-3559.84
-3616.21
-3663.89
-3752.69
-3670.46
-3693.4
-3266.23
-4298.57
-3321.06
-21132.6
-24625.7
-27604.4
-27787.3
-27010.9
-25900.4
-25827
-23264.8
-22874.4
-20934.5
-19922.8
-18956.8
-15688.3
-14999.3
-13281
-10989.4
-10140.5
-9118.09
-7835.34
-7130.01
-5745.68
-4013.76
-2402.22
-1317.96
420.609
1618.44
3096.74
5033.98
5387.49
6615.79
8269.22
9132.27
10607.5
11828.6
12667.1
14231.2
14920.7
15983.5
17067.8
17048.1
18210.9
18388.9
19464
19750
19799.9
19583.7
19473.9
19135.8
18809.7
18126.6
17874.9
15408.8
15598.6
14020.5
9874.73
12622.2
9732.03
7687.51
7084.44
9239.78
9717.89
-750.537
-1983.65
-2066.7
-3129.9
-3409.87
-6054.34
-3705.04
-5118.64
-3171.55
-4687.31
2425.74
-4640.97
18852.1
83.4837
-1362.48
-1164.12
-1213.76
-1220.45
-1245.71
-1272.72
-1302.67
-1337.45
-1375.87
-1416.82
-1463.92
-1510.89
-1564.11
-1623.36
-1683.17
-1752.31
-1821.93
-1895.35
-1973.68
-2062.2
-2151.16
-2244.13
-2340.62
-2434.95
-2536.71
-2646.4
-2756.11
-2869.56
-2982.24
-3102.14
-3212.12
-3323.73
-3449.46
-3537.12
-3663.46
-3735.34
-3862.8
-3921.78
-3959.48
-3976.48
-3894.04
-3578.68
356.108
6480.02
-22886.1
-33340.5
-39994.6
-40276.3
-36804.1
-35250.7
-35256.1
-30151.6
-28953.9
-25088.1
-21821.4
-19054.7
-15393.3
-13452.1
-12219.8
-9184.05
-7510.46
-6214.24
-5763.86
-5418.44
-3864.67
-3015.93
-1872.16
-74.7894
1258.14
3135.57
4107.43
5116.07
7956.94
7896.34
9688.1
10829.8
12015.1
13579.2
14177.3
15594.7
16679.6
17319.6
18313.9
18582.8
19508.7
19977
20651.8
20651
20948.9
21034.3
21036.6
20603.4
19880.5
19434
17750.2
16661.9
16014.3
15166.9
13461.4
12415.3
10095.4
12823.5
16950.2
19532.8
7590.91
2598.32
-1725.63
-1615.73
-4572.36
-3122.74
-4580.71
-2358.6
-3868.64
-2346.78
-3500.46
1140.12
-4329.01
14755.6
-122.597
-1537.59
-1336.39
-1379.53
-1382.13
-1403.18
-1425.39
-1453.34
-1486.85
-1521.64
-1562.17
-1607.76
-1654.8
-1706.81
-1765.29
-1826.19
-1893.25
-1967.44
-2042.21
-2118.88
-2206.75
-2298.89
-2392.79
-2492.41
-2590.46
-2692.47
-2802.47
-2915.22
-3027.31
-3148.27
-3256.42
-3373.16
-3487.78
-3593.86
-3701.15
-3813.37
-3891.43
-4033.13
-4108.43
-4369.52
-4412.96
-5414.99
-5051.64
6452.64
8865.16
-26575.4
-42175.2
-47321
-44466.1
-34911.8
-29553
-27709.9
-25093.2
-26414.4
-21287.2
-19835.1
-16138
-15837.4
-10534.8
-9883.81
-9500.98
-6694.64
-4403.3
-4324.95
-3178.51
-559.259
-667.185
611.572
2022.92
3529.34
5694.81
5953.82
6960.73
8940.59
9935.45
11141.4
12688.7
13538.4
14863.1
15669.5
16854.1
17890.5
18703.9
19552.2
20123.8
20663.3
21527.7
21957.9
21696.7
21998.7
21695.1
21492.9
21150.5
20907.9
19835.2
20260.2
18596.2
17542.8
16120.9
14466.6
14174.4
16723.4
23227.1
29283.8
14495.7
9149.37
5432.28
2621.11
1034.38
-1944.45
-2063.24
-3057.63
-2391.47
-3491.48
-2249.43
-3422.83
-89.3162
-4109.09
11577
-316.801
-1698.93
-1495.3
-1531.58
-1528.7
-1545.93
-1565.43
-1590.3
-1619.3
-1653.18
-1691.88
-1735.57
-1782.6
-1833.15
-1890.05
-1953.89
-2017.71
-2093.13
-2168.63
-2246.26
-2332.49
-2427.17
-2520.89
-2621.46
-2722.29
-2827.09
-2935.16
-3049.04
-3166.77
-3279.1
-3394.19
-3507.29
-3619.08
-3725.26
-3831.45
-3919.85
-4000.35
-4056.51
-4106.46
-4181.76
-4285.4
-4235.91
-5419.25
241.286
-2147.83
-53100
-54582.3
-55904.6
-52480.1
-42671.5
-36225.7
-29653.7
-24542.4
-23443.1
-17072
-14450.2
-12440.4
-11958.7
-6289.86
-2055.82
-5844.52
-3580.73
-2793.07
-2129.62
105.313
279.273
1448.1
2651.86
3653.49
5520.94
5623.71
7483.94
8450.61
10014.8
11616.8
12904.1
14177.9
15064.1
15871.6
17104
17825.4
19083.9
19738.5
20539
21484.6
21451
22209.8
22574.7
22462
22722.6
22793.3
22755.2
22580.9
22079.2
21139.3
20072.1
18672.3
18176.5
16370.2
19284.2
20656.8
30653.2
35736.1
26135.4
15099.7
8477.43
1928.74
313.62
-698.251
-2674.7
-1026.15
-2613.49
-1815.27
-2797.46
-1894.9
-3139.56
-904.852
-4132.89
8818.39
-498.679
-1845.93
-1639.52
-1669.4
-1662.25
-1674.55
-1689.96
-1712.15
-1738.86
-1771.02
-1805.73
-1847.95
-1894.81
-1944.5
-2000.33
-2064.15
-2125.13
-2200.73
-2276.51
-2358.42
-2440.99
-2534.53
-2629.95
-2730.67
-2834.91
-2937.68
-3048
-3162.06
-3279.67
-3391.15
-3501.98
-3615.6
-3720.53
-3817.58
-3899.2
-3974.24
-4034.2
-4055.05
-4018.46
-3965.47
-3467.3
-3719.26
-1029.32
-7477.52
-33973.6
-84784
-42512.2
-32914.1
-34296.5
-33371.3
-23741.8
-24455.2
-16511.1
-14283.5
-8275.87
-8494.75
-7311.67
-6118.14
-2273.36
-350.917
-2623.87
-1350.59
-1583.71
379.89
2326.22
1921.76
3467.96
4726.42
5524.96
6757.45
6492.5
8852.54
10330.4
11370.5
13004.1
14369.6
15415.3
16372.4
17052.6
18237.4
18884.2
19956.1
20736.5
21387.6
22562.8
22673
23554.8
23705.1
23697
23453.3
23664.4
22841.2
22537.3
22057.2
21028.1
22376.3
20909.1
20969.5
22705.4
28965.4
38558.2
45728.3
28121
15705.1
9711.68
5721.21
4839.13
1161.78
-690.805
-974.648
-1195.1
-2631.68
-1859.4
-2838.96
-2130.14
-3279.92
-1722.81
-4106.48
6498.18
-666.844
-1978.2
-1769.34
-1792.87
-1781.55
-1789.05
-1800.69
-1819.95
-1843.79
-1874.08
-1907.16
-1946.41
-1992.34
-2041.23
-2095.89
-2158.15
-2219.15
-2292.75
-2369.23
-2452.69
-2534.14
-2624.7
-2721.88
-2821.34
-2927.71
-3033.1
-3142.3
-3256.36
-3371.23
-3487.9
-3594.17
-3706.31
-3810.07
-3906.3
-3994.42
-4055.74
-4131.61
-4178.78
-4171.49
-4250.08
-4241.93
-4758.38
-5075.43
-18036.9
-175780
-106764
-29620
-22232
-15721.2
-10090.3
-9569.89
-10586.8
-6467.12
-2138.39
-3268.55
-1414.16
-983.763
-299.91
1232.72
-39.1216
411.379
1831.8
1916.16
3135.25
3952.51
3947.64
5109.19
6349.29
6796.18
7883.27
8496.98
10268.4
11344.6
12383.3
13790.4
15207.4
16282.8
17113.2
17929.4
19087.4
19802.3
20706.1
21454.1
22070.3
22618.8
22996.4
23339.4
23661.1
23556.1
23882.9
24312.8
24657.1
24564
24589.5
24935.7
26163.4
26462.4
31211.9
35370.9
48654.5
44286.7
28931.3
18660.1
13637.7
7145.91
4857.92
2024.14
-94.241
-608.731
-310.456
-1154.34
-1882.69
-1594.19
-2472.03
-1973.96
-3112.47
-1948.25
-4033.31
4555.95
-820.625
-2095.24
-1884.91
-1901.99
-1885.74
-1889.84
-1898.35
-1914.08
-1934.92
-1963.02
-1994.18
-2031.79
-2076.16
-2124
-2176.72
-2237.58
-2300.26
-2369.16
-2447.41
-2529.08
-2614.49
-2699.44
-2796.52
-2897.29
-3002.64
-3110.72
-3216.69
-3333.57
-3447.99
-3564.78
-3671.4
-3777.41
-3887.96
-3971.64
-4046.5
-4083.7
-4107.1
-3928.48
-3806.91
-3274.62
-2661.32
-2043.8
1471.1
-48718.3
-131141
-59332.3
-44271.6
-15645.3
-6457.12
-4463.45
-4822.84
-4338.36
-3963.94
-1996.05
-3716.4
-1794.77
-1356.69
-304.216
807.212
622.266
1426.05
2671.96
3253.52
4032.49
5256.89
5753.58
6727.14
7927.05
8712.12
9663.73
10567.6
11967.4
12968
13935.8
15018.7
16170.7
17198.6
18092.4
18824.3
19741.6
20459.9
21275.3
21949.1
22587.5
23590.1
24342.8
25205.1
25222.8
26047.6
26093.6
27073.4
27942.1
28912.2
30940.4
33979
37372.4
41366.8
48019.8
51461.6
36480.7
27111.3
16881.4
10247.9
5859.2
3663.4
2571.02
1622.48
-877.666
303.329
-737.163
-1019.53
-1738.46
-1504.01
-2309.06
-2012.76
-3144.43
-2240.07
-4059.31
2990.67
-959.727
-2196.87
-1985.24
-1996.65
-1976.61
-1976.96
-1981.88
-1994.98
-2013.13
-2038.66
-2068.54
-2103.5
-2146.16
-2193.76
-2244.99
-2301.39
-2368.5
-2433.85
-2510.44
-2590.36
-2678.74
-2761.9
-2856.32
-2957.93
-3061.52
-3170.09
-3280.24
-3391.67
-3510.25
-3628.44
-3740.43
-3845.75
-3950.89
-4051.26
-4138.5
-4214.07
-4264.57
-4344.57
-4399.58
-4603.6
-4599.38
-6029.1
-2232.68
-124072
-46599.9
-34692.3
-56677.9
-55718.8
-34261.7
-21936.1
-18021.6
-9030.94
-7227.65
-4165.67
-6592.93
-715.342
-1563.06
1726.19
2769.21
1831.68
2511.66
4800.02
4327.02
4918.82
6357.85
6457.62
7120.04
8204.42
8667.3
9637.56
10523.4
12029.6
12840.1
14499.1
15505.7
16968.8
17835
18612.9
19542.3
20585.5
21874.9
22545.9
23585.7
24549.5
25331.1
26628.9
27954.2
29448.2
32123.2
33600.3
36259.6
39278.4
41900.4
45387.2
49462.2
52354.8
44296.9
34667.7
26220
21796.4
14749.4
8344.16
6959.61
3803.87
2868.12
415.816
228.027
-1447.4
-272.618
-1118.99
-946.859
-1798.82
-1377.93
-2230.8
-1959.2
-3046.43
-2291.78
-3975.24
1706.26
-1083.67
-2283.08
-2070.69
-2076.96
-2053.79
-2050.33
-2052.22
-2062.73
-2078.41
-2101.41
-2130.45
-2162.87
-2203.79
-2250.59
-2301.09
-2355.7
-2422.21
-2484.53
-2561.35
-2640.35
-2725.4
-2813.07
-2903.38
-3002.1
-3108.04
-3216.41
-3328.88
-3434.48
-3555.55
-3675.35
-3797.28
-3904.2
-4005.78
-4116.16
-4220.22
-4302.69
-4374.94
-4436.12
-4525.61
-4465.65
-4607.75
-4098.54
-5446.94
-108424
-19602.3
-17947.8
-33217.4
-47588.4
-56085.1
-37931.1
-27870.9
-12320.1
-12312.7
-5866.55
-6934.65
-2263.11
-2512.26
2736.65
558.408
741.235
2416.3
4990.48
5131.18
5473.73
7242.01
7681.91
8391.6
9448.31
10175.4
10954.8
11996.4
13262
14136.1
15882.8
16675.2
18504.5
19576.9
20930.5
21703.4
23548.7
24971.8
27052.8
29288.1
30948.6
34139.9
36378.2
38932
42413.9
44885.4
47879.4
50818.3
53817.3
51951.5
44621.4
33910.2
26660.9
25617.2
21226.1
15859.1
9447.83
6419.52
3250.26
2041.8
923.142
697.757
-70.047
-1250.78
-646.927
-605.099
-807.377
-962.788
-1396.17
-1238.36
-2038.2
-1883.01
-2947.91
-2352.76
-3889.71
693.553
-1191.76
-2353.73
-2141.67
-2143.2
-2116.79
-2110.47
-2109.68
-2117.96
-2131.22
-2151.93
-2180.12
-2210.56
-2249.33
-2295.52
-2344.6
-2397.86
-2460.35
-2526.52
-2598.3
-2676.54
-2761.78
-2848.09
-2940.47
-3034.33
-3138.98
-3250.46
-3358.59
-3471.9
-3586.77
-3710.36
-3835.5
-3950.47
-4062.38
-4171.26
-4279.18
-4379.63
-4462.45
-4521.71
-4566.92
-4457.39
-4628.89
-3709.1
-27335.3
-72620.7
-6864.41
-8072.8
-12695.3
-21217
-32837.9
-57996.6
-42922.4
-21709.1
-15912.7
-9053.99
-13774.3
-2252.93
-3769.67
3245.04
-540.575
1525.19
4281.42
5557.96
6138.66
7302.55
8288.2
8770.24
9656.49
10853.3
11986.1
13225.4
14436.6
16389.2
18212.2
19657.4
21466.5
23666.3
26064.6
28449.4
30742.6
33403.2
36264.6
40048.3
43048.6
46155.1
49394.5
51839.9
54337.6
57122
51968.1
45627.2
37614.7
30968.9
27874
23844.8
21380.9
16165.2
12346.3
10325.1
7019.21
4294.01
2135.06
350.258
-53.8699
-780.015
-794.619
-1017.54
-1841.19
-1216.11
-1398.85
-1187.35
-1419.64
-1452.61
-1334.42
-1996.93
-1863.35
-2894.37
-2329.7
-3833.54
-178.605
-1284.24
-2408.8
-2197.95
-2195.46
-2166.43
-2157.64
-2154.4
-2160.9
-2172.05
-2190.99
-2217.41
-2247.36
-2283.61
-2327.91
-2377
-2428.59
-2487.26
-2558.22
-2622.99
-2701.4
-2785.6
-2871.33
-2963.33
-3057.09
-3157.32
-3268.55
-3381.22
-3494.25
-3604.79
-3726.73
-3856.8
-3987.77
-4102.25
-4222.53
-4343.76
-4453.71
-4584.77
-4633.14
-4777.61
-4516.05
-5742.96
-1732.04
-77686.1
-37143.6
-5952.51
-3808.64
-7215.86
-12172.2
-19323.5
-36187
-47413.2
-47496.9
-26448
-23584.1
-9689.06
-5600.37
-720.324
2658.72
2566.72
4540.23
5876.04
7509.08
8886.54
9907.81
10627.5
12467.6
13459.9
15134.1
18001.4
19881.2
23365.3
25871.3
29983
31972.2
36005.6
38807.8
42758.2
45823.3
48588.4
51168.1
53628.4
55650
57630.6
54129.5
48635.1
42464
35981.9
29870.4
27260.7
25593
22606.6
18817.9
13709.9
12190.5
11051.4
8290
5652.21
4513.69
2869.21
1247.1
-142.612
-1194.67
-1747.63
-1965.18
-1836.59
-1662.58
-1954.02
-959.363
-1637.32
-1025.58
-1447.06
-1154.44
-1224.28
-1708.06
-1756
-2701.48
-2292.18
-3754.63
-810.421
-1361.03
-2448.66
-2239.94
-2234.08
-2202.75
-2192.16
-2186.99
-2191.76
-2201.5
-2218.67
-2243.34
-2273.06
-2306.88
-2349.34
-2397.92
-2448.47
-2505.36
-2573.76
-2641.18
-2714.6
-2794.68
-2885.44
-2972.98
-3067.07
-3168.64
-3270.56
-3390.63
-3504.26
-3616.19
-3731.24
-3858.78
-4001.92
-4121.23
-4255.6
-4382.27
-4507.25
-4620.23
-4860.24
-4958.77
-5038.93
-5533.56
-4249.09
-77019
-28314
-6705.77
-1926.04
-4753.64
-7611.37
-10599.2
-20130.1
-34984.3
-61146.9
-53446
-36962.5
-11542.3
-6372.43
5575
1613.98
6796.51
9519.63
9539.14
11055.6
14742.1
16872.2
16886.4
22825.6
24449.3
28302.2
34341.7
38929
45832.6
49666.2
52146.5
54748
56607.9
58162.7
60309.3
58169.5
53630.6
48351.4
42348.7
36274.6
30949.5
29022.8
26702
24461.6
21614.7
17173.5
13236.1
12788
11355.2
8929.82
6715.47
6010.96
5172.3
4463.95
2460.5
1727.84
596.348
-282.957
-1289.84
-2153.39
-2561.93
-2642.64
-2699.25
-2282.68
-2460.53
-1830.26
-2260.76
-1475.88
-1488.29
-1243.09
-1296.18
-1684.11
-1815.44
-2590.97
-2317.89
-3649.46
-1371.39
-1422.18
-2473.57
-2267.76
-2259.3
-2226.63
-2214.55
-2207.76
-2210.66
-2220.22
-2235.54
-2258.19
-2287.84
-2319.81
-2360.55
-2408.17
-2458.06
-2513.71
-2578.09
-2648.01
-2717.6
-2795.48
-2885.5
-2973.66
-3065.38
-3166.52
-3268.35
-3379.87
-3504.53
-3615.04
-3734.53
-3847.78
-3981.17
-4126.4
-4251.51
-4369.44
-4491.81
-4596.86
-4712.44
-4746.45
-4844.34
-4528.25
-5900.59
-78374.7
-17287.7
-10574.2
-4451.38
-2616.69
-3152.05
-6742.25
-11273.8
-18905.6
-33037.1
-55734.2
-54790.4
-29296.4
-5123.71
11376.3
6367.76
14994.5
19756.7
21788
21327.5
30487
34977.3
39857.8
48545.5
55195.9
59614.3
63247.7
67587.6
69256.2
65320.5
59525.1
53148.2
47049.3
40634.3
34321.9
31675.6
29877.4
27611.8
25500.8
22353.3
18008
14691.5
13087.7
11631.6
10274
8464.05
6976.04
6233.94
5579.37
4557.18
3324.89
2707.83
2045.2
2028.72
1137.89
247.053
-486.408
-1242.25
-1964.12
-2770.87
-3113.89
-3318.77
-3189.72
-2801.71
-2949.06
-2150.39
-2278.39
-1359.01
-1525.55
-1021.54
-1259.28
-1428.71
-1730.77
-2257.66
-2327.29
-3346.06
-1792.85
-1468.01
-2484.03
-2281.74
-2271.47
-2238.26
-2225.09
-2217.16
-2218.64
-2227.78
-2241.89
-2262.8
-2291.85
-2323.35
-2362.03
-2408.38
-2457.82
-2511.67
-2573.71
-2643.12
-2711.47
-2787.9
-2871.41
-2965.15
-3055.06
-3148.75
-3257.4
-3361.14
-3484.19
-3605.25
-3721.65
-3838.19
-3957.28
-4099.93
-4233.77
-4366.39
-4487.55
-4632.16
-4726.26
-4733.15
-5197.64
-4149.25
-21016.4
-68200.5
-8235.77
-9374.95
-2969.89
-2005.38
-3063.56
-5783.04
-6932.59
-11515.1
-18266.4
-32213.9
-51062.2
-41560.5
-4929.83
18370.9
30278.4
32186.4
46922.5
48669.6
52877.9
60005.6
68353.2
74831.3
75001.5
72067.2
66501.3
58316.4
51166.1
43082.3
39251.6
36141.8
33594
30425.3
27311.5
22943.6
18522
15922.2
13718.9
12269
10815.1
9083.38
7570.45
6040.56
5529.71
4796
4047
3522.92
2771.89
2360.42
2011.99
1572.96
1163.14
441.296
601.576
111.284
-516.387
-1156.27
-1847.84
-2528.24
-2999.28
-3470.18
-3335.72
-3897.66
-2921.8
-2853.54
-1770.13
-2123.88
-1508.36
-1676.05
-1033.67
-1324.45
-1421.51
-1818.05
-2133.22
-2506
-2968.08
-2353.1
-1498.79
-2480.35
-2282.79
-2271.27
-2237.79
-2224.08
-2215.62
-2216.33
-2224.69
-2238.45
-2257.85
-2285.67
-2317.65
-2353.91
-2398.5
-2447.41
-2500.93
-2559.78
-2626.83
-2696.77
-2769.83
-2850.81
-2942.02
-3035.43
-3124.71
-3230.22
-3336.69
-3449.89
-3578.99
-3695.98
-3816.11
-3926.18
-4054.21
-4176.82
-4306.08
-4375.83
-4458.64
-4590.97
-4377.4
-5126.81
-2517.49
-62913.8
-33245.4
-4103.92
-4330.07
1643.01
874.109
941.433
751.929
15.3379
-2112.47
-3990.08
-8665.95
-9288
-2866.1
16083.5
41629.9
63768.8
70456
74979.3
78863.3
75881.1
67188
60779.8
54479
47590.8
44349.8
42040.2
38071.3
34609.5
29788.2
25547.6
22702.9
20231.1
17825.3
15620.4
13297
11782.2
9664.87
8038.25
6652.99
5630.01
4644.8
3855.68
2854.53
2443.69
1947.01
1720.29
1633.61
1281.83
992.424
743.874
802.969
484.47
-103.55
-219.739
-478.635
-1061.17
-1467.19
-2068.97
-2583.36
-3176.9
-3461.32
-3982.35
-3931.21
-2660.45
-3098.91
-2482.95
-2509.91
-1727.51
-1649.6
-960.474
-1234.21
-1158.38
-1682.98
-1845.47
-2401.86
-2625.54
-2618.39
-1515.16
-2463.05
-2271.43
-2259.32
-2225.83
-2212.03
-2203.84
-2203.33
-2211.56
-2225.31
-2243.74
-2269.72
-2302.79
-2337.05
-2379.34
-2427.71
-2481.08
-2537.3
-2602.15
-2672.25
-2742.69
-2822.64
-2909.44
-3003.24
-3093.26
-3191.8
-3301.55
-3409.59
-3530.69
-3660.94
-3778.31
-3901.78
-4017.67
-4151.95
-4296.89
-4454.48
-4588.82
-4725.09
-4792.65
-5270.34
-4236.93
-69643.7
-29444.4
-5296
-6518.5
161.943
-367.601
128.593
1424.39
1693.47
1212.98
3785.37
6868.9
19278.1
46745.2
86278.9
85950.5
75032
65924.7
54597.4
50949.7
49673.4
44036.3
40796.3
36883.8
33477.4
31239.3
30321.5
27329
24739.9
21932.6
20056.5
18471.5
16480.4
15004.5
13036.9
10880.8
9774.03
7798.92
6292.13
4893.09
3846.51
3033.49
2145.9
1532.25
866.225
508.165
192.155
253.612
13.427
-146.553
-288.555
-111.159
-269.705
-729.039
-783.187
-989.16
-1443.46
-1904.69
-2438.35
-2878.87
-3401.93
-3949.45
-4149.61
-3979.83
-3333.36
-3090.49
-2675.53
-2425.33
-1782.97
-1560.99
-851.174
-1224.15
-1117.2
-1687.05
-1659.15
-2591.26
-2119.55
-2994.58
-1517.78
-2433.14
-2247.71
-2235.66
-2203.37
-2189.51
-2181.99
-2181.2
-2188.77
-2203
-2220.67
-2245.42
-2278.23
-2312.08
-2352.06
-2399.65
-2452.29
-2506.37
-2569.25
-2636.38
-2708.31
-2784.3
-2869.59
-2957.79
-3053.63
-3146.94
-3254.46
-3362.35
-3473.35
-3607.86
-3729.44
-3847.72
-3962.01
-4088.41
-4223.93
-4333.67
-4510.03
-4569.9
-4752.78
-4529.28
-5892.32
-69240.5
-14169.6
-6313.17
-4670.3
2359.36
2739.03
2628.03
3110.05
4921.49
7142.95
14234.3
40693.6
91118.2
133553
95156.1
61609.6
50966.4
43248.3
38471
33906.2
32807.6
29905.3
27551.2
25081.2
23436.4
23199.7
22996
22557.7
21348.2
18626.6
17262
16382.4
14651.8
13474.7
11351.8
10089.6
9132.74
7537.34
6336.69
4833.77
3534.33
2813.37
1922.97
1608.31
976.483
462.039
15.1824
-163.017
-293.238
-477.632
-621.465
-446.499
-568.404
-959.186
-1083.87
-1227.67
-1563.44
-1818
-2305.9
-2709.49
-3444.84
-3926.55
-3968.53
-3980.47
-4242.61
-3303.73
-3029.07
-2602.03
-1762.75
-1526.2
-844.168
-1206.51
-823.819
-1504.64
-1342.35
-2410.18
-1760.44
-3127.29
-1507.36
-2391.15
-2212.77
-2201.37
-2170.69
-2156.86
-2150.66
-2150.11
-2157.17
-2171.4
-2189.4
-2212.82
-2244.86
-2279.12
-2316.66
-2362.91
-2414.86
-2467.91
-2527.71
-2593.34
-2664.7
-2738.53
-2820.84
-2906.02
-3000.12
-3093.22
-3196.99
-3307.21
-3413.38
-3538.55
-3668.11
-3790.38
-3899.53
-4035.39
-4165.62
-4302.26
-4391.06
-4373.01
-4897.02
-4034.32
-18459.6
-62953.3
-4254.02
-2987.76
-2181.43
4432.29
4465.56
4205.82
4947.78
8563.83
19987.3
41984.8
97946.8
165926
114122
65672.3
45228.4
34886.9
29966.3
26520.2
24126.4
22646.4
20718.7
19349
18079.4
16553.5
15812.6
15648.4
16162.5
17588.3
18091.1
17372.9
16849.2
15249.3
14047.3
12358.8
11190.9
9963.03
8285.27
7034.68
5514.96
4220.7
3226.88
2192.46
1589.78
959.15
332.745
-70.8452
-444.798
-648.419
-875.027
-997.203
-917.314
-962.509
-1238.1
-1324.6
-1461.18
-1655.28
-1943.8
-2419.65
-2822.27
-3569.25
-3985.13
-4087.24
-4247.46
-4074.69
-3286.31
-2886.4
-2432.86
-1708.96
-1399.75
-685.755
-1022.26
-662.372
-1552.91
-1349.42
-2336.99
-1311.2
-3149.49
-1484.85
-2337.88
-2167.07
-2156.97
-2128.06
-2115.53
-2109.67
-2110.5
-2117.3
-2131.76
-2149.98
-2172.94
-2202.77
-2237.86
-2274.91
-2318.91
-2368.83
-2422.32
-2479.22
-2542.49
-2611.96
-2684.1
-2763.1
-2848.58
-2936.61
-3029.39
-3130.36
-3239.82
-3350.92
-3460.51
-3588.7
-3728.96
-3830.79
-3934
-4042.35
-4132.69
-4285.43
-4190.04
-4753.01
-2439.32
-53943.6
-29640.9
-1587.48
-1471.3
-1808.46
4939.27
4701.1
6505.46
9893.1
19354.7
51853.9
102979
163638
111452
70187
45821.8
33027.4
25920.9
21782.7
19315
17805.8
16686.1
15775.6
14777
13893.1
12936.3
11926.5
11244.4
11744.8
12483.6
14108.4
15092.1
15344.7
16300.9
15913.2
14632.2
13425.1
11448.3
9874.76
8967.72
7334.11
5916.73
4460.24
3423.77
2433.59
1722.08
841.453
445.555
-99.6218
-401.543
-699.915
-904.653
-947.37
-1031.07
-1276.1
-1429.99
-1597.73
-1721.13
-1991.33
-2370.08
-2776
-3463.41
-3957.4
-4415.96
-4353.24
-3912.18
-3556.01
-2969.04
-2396.51
-1726.76
-1168.79
-822.431
-893.22
-592.504
-1321.93
-1120.69
-1899.03
-992.942
-3167.08
-1451.08
-2274.25
-2111.42
-2103.06
-2076.58
-2065.42
-2060.33
-2063.3
-2069.41
-2084.18
-2102.6
-2126.18
-2153.68
-2188.91
-2225.64
-2267.74
-2315.64
-2367.78
-2423.54
-2483.99
-2552.35
-2622.17
-2697.79
-2781.45
-2869.1
-2955.67
-3054.32
-3160.08
-3272.3
-3381.99
-3504.03
-3654.56
-3778.57
-3915.88
-4053.24
-4217.3
-4391.56
-4513.22
-4881.77
-4125.75
-58672.3
-24492.4
-4011.17
-4248.5
-4460.35
4277.14
5559.64
10100.5
24403
48188.9
103789
168446
109902
69298.1
45427.8
31288.2
23526.8
19118.4
16594.6
14847.3
14032
13160.9
12789.9
12224.7
11593.8
11064.3
10353.9
9727.27
9662.42
9820.93
10721.2
11593.2
12741.4
13876
14715.2
14859.4
14549.2
12677.4
11786.1
10623.2
8870.1
7496.89
5634.39
4591.28
3320.24
2458.13
1431.89
882.708
242.88
-262.158
-660.112
-940.513
-1134.13
-1278.5
-1484.19
-1669.11
-1849.6
-1989.26
-2171.85
-2451.4
-2808.14
-3323.2
-3882.49
-4171.46
-4289.89
-4117.98
-3396.04
-2844.28
-2315.29
-1641.66
-1174.93
-705.74
-698.997
-488.788
-1308.49
-956.719
-1679.57
-720.77
-3145.73
-1406.98
-2201.08
-2046.77
-2040.55
-2016.51
-2007.32
-2003.86
-2007.43
-2015.28
-2028.7
-2048.37
-2072.04
-2098.69
-2132.18
-2169.71
-2210.87
-2256.57
-2307.73
-2361.74
-2419.41
-2485.13
-2552
-2624.56
-2706.72
-2794.06
-2878.5
-2965.88
-3068.84
-3180.32
-3292.17
-3416.32
-3540.77
-3689.44
-3811.59
-3914.83
-4072.14
-4163.36
-4363.78
-4253.99
-5363.53
-57337.3
-13979.4
-5687.41
-4712.46
-3672.21
4957.89
10455.8
20792.3
55066.2
113291
160202
104702
66840.2
43568.6
29769.9
21647.2
17057.5
14414.5
13015.9
12055.9
11611.9
11162.6
10994.1
10669.5
10555.8
10337.6
9952.07
9452.79
8946.29
8589.85
8502.34
8864.16
9670.91
10598.5
11538.1
12410.9
12742.5
12452.3
12577.3
10918.6
9923.37
8804.38
7144.93
6029.7
4358.78
3479.08
2381.91
1594.83
843.745
243.826
-281.663
-653.15
-953.581
-1191.14
-1403.25
-1666.56
-1885.5
-2083.11
-2286.69
-2581.73
-2968.31
-3398.04
-3906.19
-4261.54
-4320.77
-4113.67
-3470.75
-2768.01
-2146.99
-1519.16
-1095.42
-823.969
-787.3
-495.898
-964.454
-483.1
-1428.01
-305.309
-3201.95
-1353.56
-2119.34
-1973.89
-1970.15
-1948.83
-1942.36
-1939.82
-1944.68
-1954.2
-1967.04
-1987.52
-2011
-2037.74
-2069.39
-2106.82
-2147.43
-2190.3
-2238.67
-2292.17
-2351.32
-2409.02
-2477.64
-2544.69
-2626.05
-2708.78
-2797.93
-2876.26
-2973.17
-3079.35
-3189.57
-3310.57
-3430.14
-3570.51
-3725.86
-3899.64
-3962.5
-4090.92
-4515.08
-3842.82
-15321.2
-58944.4
-5707.65
-4262.11
-2814.38
-274.572
12594.3
27754.1
58287.1
112650
159395
100649
62997.9
41143.4
27942.7
20316.2
15866.3
13304.5
11902.4
10959
10388.3
10107.9
9920.15
9822.26
9605.38
9557.68
9377.08
9175.62
8798.21
8385.33
7933.31
7692.17
7548.41
7630.45
8101.58
8888.92
10095.2
10504.9
11751.1
11646.8
10722.3
10435.3
8878.05
7650.92
6380.13
4959.35
3949.67
2919.67
2044.09
1106.72
445.255
-130.984
-555.846
-961.393
-1296.01
-1528.51
-1848.3
-2071.14
-2316.61
-2534.1
-2760.91
-3054.07
-3366.76
-3849.34
-4128.14
-4165.74
-3898.9
-3343.49
-2716.89
-2242.44
-1604.78
-1137.18
-616.127
-495.764
-316.584
-815.959
-460.529
-1331.08
-130.033
-3212.65
-1291.87
-2029.98
-1893.61
-1892.66
-1874.43
-1870.39
-1869.46
-1875.76
-1886.38
-1899.95
-1920.19
-1944.24
-1970.54
-2001.72
-2038.11
-2078.07
-2118.98
-2167.12
-2216.89
-2274.56
-2330.55
-2393.38
-2459.47
-2537.42
-2612.76
-2704.23
-2781.45
-2868.5
-2966.44
-3069.95
-3177.25
-3290.36
-3435.46
-3529.06
-3628.36
-3762.19
-3630.48
-4161.21
-2100.67
-43739.8
-29635.2
-3733.17
-2680.69
-891.359
6421.2
27632.3
64183.4
128170
152105
96582.5
60908.5
39748.6
26973
19634.2
15205.3
12622.5
10904
10121.6
9464.49
9238.16
9170.01
9233.46
9170.6
8957.74
8822.15
8624.05
8484.44
8203.84
7955.41
7559.69
7238.73
6869.79
6538.26
6416
6763.98
7519.11
8153.88
9392.91
9403.93
9968.16
9728.41
8859.74
7946.8
6298.48
5317.42
4091.75
3187.21
2389.5
1537.29
890.298
202.698
-266.563
-774.35
-1191.9
-1485.14
-1863.31
-2136.19
-2452.92
-2710.37