/*--------------------------------*- C++ -*----------------------------------*\
| =========                 |                                                 |
| \\      /  F ield         | OpenFOAM: The Open Source CFD Toolbox           |
|  \\    /   O peration     | Version:  2.2.x                                 |
|   \\  /    A nd           | Web:      www.OpenFOAM.org                      |
|    \\/     M anipulation  |                                                 |
\*---------------------------------------------------------------------------*/
FoamFile
{
    version     2.0;
    format      ascii;
    class       volScalarField;
    location    "1";
    object      By;
}
// * * * * * * * * * * * * * * * * * * * * * * * * * * * * * * * * * * * * * //

dimensions      [1 0 -2 0 0 -1 0];

internalField   nonuniform List<scalar> 
14161
(
-4.47216e-07
-2.31413e-07
-3.20642e-07
-3.05846e-07
-3.97089e-07
-1.95784e-07
-3.24431e-07
-6.43801e-08
-3.82788e-07
-2.29179e-07
-1.13918e-06
-9.81143e-07
1.08726e-06
-1.96e-06
-1.49178e-06
2.28401e-06
-3.00283e-06
-1.52931e-06
4.02755e-06
-1.67579e-06
-4.38659e-06
2.69695e-06
6.24272e-06
-5.2793e-06
-4.45037e-06
1.2305e-05
-1.99789e-06
-7.22799e-06
2.19448e-05
-1.57595e-05
-1.66264e-05
2.90611e-05
4.35899e-05
6.35751e-06
2.95656e-06
1.22848e-05
3.06384e-05
4.27239e-05
5.77118e-05
8.19081e-05
9.64059e-05
8.24421e-05
0.00020234
0.000235276
0.000233782
0.000412353
0.000391837
0.000445862
0.000529634
0.000511842
0.000394813
0.0009619
0.00755775
0.0224068
0.00690835
-0.00485003
-0.0171792
-0.0207761
-0.0219207
-0.0219383
-0.0200091
-0.017904
-0.0149741
-0.0131382
-0.0105954
-0.00885458
-0.00729893
-0.0060973
-0.00505074
-0.00390353
-0.00274311
-0.00207464
-0.00218927
-0.00243944
-0.00215289
-0.00198743
-0.00203678
-0.0022332
-0.00271798
-0.00188113
-0.00162611
-0.00186769
-0.00229216
-0.00160914
-0.00149684
-0.00205901
-0.00211165
-0.00217137
-0.00203416
-0.00193048
-0.00194839
-0.00176931
-0.00143654
-0.00172767
-0.00203258
-0.0012318
0.00229112
0.00809843
0.0195368
0.0419704
0.0583664
0.0702146
0.063212
0.0500354
0.0401612
0.0337129
0.0290297
0.0258283
0.0237366
0.0223434
0.0216341
0.0215485
0.0218626
0.0220568
0.0231047
0.0242357
0.0250407
0.0239003
0.0231899
-1.73643e-06
-7.15796e-07
-9.06492e-07
-8.24807e-07
-1.01062e-06
-5.64702e-07
-1.01545e-06
-7.00971e-07
-1.00438e-06
-8.29501e-07
-2.12419e-06
-2.53729e-06
2.20285e-06
-4.38638e-06
-4.6583e-06
4.01052e-06
-5.46744e-06
-5.19165e-06
6.74769e-06
-3.05879e-06
-1.17944e-05
3.42927e-06
1.16764e-05
-7.44906e-06
-1.11251e-05
1.76179e-05
8.14959e-06
-6.01572e-06
1.59708e-05
-2.25257e-05
-1.3461e-05
7.39785e-05
0.0001021
3.76014e-05
2.9962e-06
3.00502e-05
9.45385e-05
0.000142419
0.000186365
0.000238062
0.000241461
0.000335334
0.000440207
0.000545782
0.000761508
0.000958343
0.00108115
0.00142731
0.00161517
0.00175715
0.00204115
0.00499075
0.0299444
0.0512888
0.0151424
-0.0174042
-0.0524754
-0.0671093
-0.0697325
-0.0668841
-0.0615454
-0.0557393
-0.0479785
-0.0426958
-0.0357054
-0.0307198
-0.0259845
-0.0217507
-0.0182458
-0.0145526
-0.0109772
-0.00870713
-0.00710561
-0.00636926
-0.00587534
-0.00576545
-0.00630546
-0.00724418
-0.00836855
-0.00643277
-0.00581167
-0.0065169
-0.00726408
-0.00567077
-0.00549915
-0.00714698
-0.00730579
-0.00753746
-0.00672377
-0.00627207
-0.00646298
-0.00602491
-0.00483279
-0.0054832
-0.00408105
-0.00077227
0.00669819
0.0217008
0.052979
0.126493
0.184097
0.201032
0.174642
0.144821
0.12014
0.101933
0.0883752
0.0786999
0.0721606
0.0677351
0.0653287
0.064356
0.0647346
0.0652716
0.0666161
0.0688922
0.0696836
0.0653453
0.0643724
-3.04327e-06
-1.30152e-06
-1.50852e-06
-1.29634e-06
-1.73504e-06
-1.04338e-06
-1.6003e-06
-1.54896e-06
-1.6338e-06
-1.2165e-06
-3.36161e-06
-3.76556e-06
2.66131e-06
-6.79705e-06
-7.18095e-06
3.57374e-06
-7.00306e-06
-7.5835e-06
7.19597e-06
-3.21036e-06
-1.61444e-05
3.92214e-06
1.48408e-05
-8.9377e-06
-1.31322e-05
7.51093e-06
2.67756e-05
1.6634e-05
-1.21164e-05
-4.26499e-05
2.64612e-05
0.000126434
0.00013479
6.51236e-05
1.18173e-05
6.51026e-05
0.000158751
0.000250956
0.000309555
0.000417779
0.000482154
0.000611571
0.000717253
0.000912296
0.00121731
0.00138738
0.0020089
0.00251942
0.00306696
0.00375501
0.00522281
0.0130144
0.0634868
0.0832248
0.0205179
-0.0413779
-0.0908818
-0.117714
-0.122127
-0.111705
-0.101766
-0.0918312
-0.0796851
-0.0707707
-0.0599192
-0.0516332
-0.0437249
-0.0362241
-0.0306135
-0.024487
-0.0189417
-0.0155263
-0.013249
-0.0115449
-0.0101203
-0.00945538
-0.00989087
-0.0121902
-0.0123497
-0.00941781
-0.0079744
-0.0100428
-0.0103522
-0.00826104
-0.00798162
-0.0109408
-0.011342
-0.0116973
-0.00970441
-0.00845043
-0.00905478
-0.00816869
-0.0071362
-0.00697107
-0.00274723
0.00534717
0.0233256
0.0661529
0.126819
0.243469
0.302187
0.301741
0.257395
0.215641
0.182645
0.157708
0.138797
0.125029
0.115555
0.109017
0.105914
0.104998
0.105917
0.107137
0.10866
0.112113
0.11307
0.10578
0.105691
-3.55496e-06
-1.75351e-06
-2.16429e-06
-1.88716e-06
-2.48657e-06
-1.53595e-06
-2.01228e-06
-2.29946e-06
-2.42466e-06
-1.39207e-06
-5.02004e-06
-5.4366e-06
1.65373e-06
-7.23378e-06
-1.0611e-05
2.85608e-06
-5.69604e-06
-1.11654e-05
4.57247e-06
3.97904e-07
-1.84835e-05
-1.55318e-06
1.91026e-05
-2.67534e-06
-2.3724e-05
-2.65378e-06
5.43356e-05
3.74581e-05
-4.42002e-05
-4.36583e-05
6.39708e-05
0.000171801
0.000156177
8.36707e-05
3.77021e-05
9.6588e-05
0.000206987
0.000335284
0.000416862
0.000561053
0.00068456
0.000799605
0.000932662
0.00129475
0.0015417
0.00195777
0.00261145
0.00309847
0.00390845
0.00510292
0.00701501
0.0200783
0.0928223
0.120293
0.0204122
-0.0813901
-0.14255
-0.173912
-0.178349
-0.159249
-0.14251
-0.125255
-0.107977
-0.0928505
-0.0770848
-0.0657195
-0.0547972
-0.0437636
-0.0365176
-0.02916
-0.0234953
-0.0196194
-0.0160772
-0.0135163
-0.0125829
-0.01222
-0.0130426
-0.0165903
-0.0161044
-0.013284
-0.0115111
-0.0147723
-0.01503
-0.0126445
-0.0127438
-0.0163705
-0.0172736
-0.0170877
-0.014064
-0.0122496
-0.0115031
-0.0100769
-0.00697215
-0.00332177
0.00582583
0.0266354
0.0625403
0.143364
0.258441
0.367444
0.409583
0.386554
0.330281
0.278768
0.238387
0.208109
0.185381
0.168719
0.157138
0.148953
0.144891
0.143449
0.144512
0.146043
0.148093
0.152415
0.153998
0.144107
0.14513
-4.57888e-06
-2.42644e-06
-2.91137e-06
-2.52076e-06
-2.90878e-06
-2.1835e-06
-2.16715e-06
-3.55126e-06
-3.0929e-06
-1.8352e-06
-6.29799e-06
-6.28438e-06
-1.80869e-07
-7.80572e-06
-1.31031e-05
9.40986e-08
-3.57346e-06
-1.50316e-05
1.76455e-06
4.80581e-06
-2.09487e-05
-9.89142e-06
2.55152e-05
4.58909e-06
-3.96778e-05
-4.38233e-06
7.93146e-05
4.74525e-05
-6.30075e-05
-3.20642e-05
8.41687e-05
0.000191358
0.000174579
9.24446e-05
6.8599e-05
0.00012024
0.000244144
0.000395121
0.000536668
0.000650414
0.000852766
0.00100831
0.00128022
0.00159503
0.00191629
0.00241479
0.00318069
0.00375928
0.00512565
0.00625439
0.00933882
0.0238621
0.113649
0.147162
0.00786036
-0.129102
-0.196856
-0.231524
-0.232718
-0.209222
-0.185851
-0.157929
-0.13559
-0.115185
-0.0957879
-0.0795717
-0.0647486
-0.0508263
-0.0421083
-0.0331382
-0.0271015
-0.0237036
-0.0206573
-0.0178037
-0.0167611
-0.0161079
-0.0167441
-0.0201591
-0.0193142
-0.0158594
-0.0139636
-0.017021
-0.0172173
-0.0157056
-0.0150715
-0.0192011
-0.020451
-0.0197425
-0.0160693
-0.012745
-0.00997642
-0.0082793
-0.00091681
0.0126226
0.0339736
0.0828644
0.155237
0.290594
0.402977
0.466795
0.477787
0.443393
0.385246
0.33004
0.286407
0.253072
0.227817
0.209149
0.195924
0.186539
0.181922
0.179995
0.181071
0.182791
0.185369
0.190163
0.19286
0.180952
0.183023
-5.11371e-06
-2.97823e-06
-3.3837e-06
-2.86535e-06
-3.34558e-06
-2.91593e-06
-2.14186e-06
-4.6521e-06
-3.81622e-06
-2.45568e-06
-7.44829e-06
-7.23747e-06
-2.86874e-06
-8.45038e-06
-1.43673e-05
-3.65062e-06
-3.92302e-06
-1.74429e-05
-6.32437e-07
5.20032e-06
-2.24472e-05
-1.41218e-05
2.90798e-05
7.17705e-06
-4.96312e-05
1.00182e-06
8.77501e-05
4.65486e-05
-4.5719e-05
-2.33413e-05
0.000104816
0.000196982
0.000164957
0.000131933
0.000106816
0.000146176
0.000255064
0.000431914
0.000596834
0.000751079
0.000905641
0.00112799
0.00136135
0.00162807
0.00200114
0.00240469
0.00302173
0.0036656
0.00468647
0.0054715
0.00823181
0.0182763
0.0964506
0.169057
-0.0094255
-0.192604
-0.266899
-0.289277
-0.278052
-0.249255
-0.221581
-0.188841
-0.160478
-0.130946
-0.107478
-0.0860046
-0.0696744
-0.0544029
-0.044588
-0.0349054
-0.0278009
-0.0238791
-0.0208699
-0.0185571
-0.0182346
-0.0183265
-0.0189464
-0.021866
-0.0215979
-0.0190184
-0.0172733
-0.0196804
-0.0200827
-0.0186103
-0.0193778
-0.0220211
-0.0215469
-0.0201846
-0.0152266
-0.0109936
-0.00454224
0.00446277
0.0197947
0.0522703
0.0976672
0.193982
0.318965
0.439074
0.505824
0.537318
0.522821
0.483072
0.427163
0.371007
0.326674
0.29226
0.265777
0.246011
0.231852
0.221657
0.216598
0.214225
0.215362
0.217126
0.220469
0.225614
0.229847
0.216591
0.219406
-5.91403e-06
-3.48316e-06
-3.92742e-06
-3.44346e-06
-3.91077e-06
-3.76148e-06
-2.44646e-06
-5.79371e-06
-4.71103e-06
-3.75331e-06
-8.13602e-06
-8.00012e-06
-5.73742e-06
-8.61165e-06
-1.28578e-05
-8.36369e-06
-6.96917e-06
-1.44562e-05
-1.06565e-06
1.38755e-07
-2.25238e-05
-9.52562e-06
2.44997e-05
-4.65874e-06
-3.89945e-05
1.83525e-05
7.07888e-05
3.12405e-05
-1.5276e-05
4.91451e-06
0.00010821
0.000163167
0.000162557
0.000157035
0.000161807
0.000197951
0.000287804
0.000427443
0.000592894
0.000790339
0.00100051
0.00119533
0.00145878
0.00177945
0.00219006
0.00267368
0.00329578
0.00403032
0.00507587
0.00574572
0.00831336
0.0133364
0.0632054
0.146577
-0.0628637
-0.268914
-0.339191
-0.34282
-0.318308
-0.280568
-0.243739
-0.20981
-0.17707
-0.142128
-0.115875
-0.0895528
-0.0717772
-0.0570298
-0.0432506
-0.0353687
-0.0276549
-0.0236995
-0.0221298
-0.0207423
-0.0204227
-0.0210707
-0.0215034
-0.0231598
-0.022838
-0.0212027
-0.0183961
-0.019239
-0.0201202
-0.0196241
-0.0197209
-0.0208497
-0.0195637
-0.0179713
-0.00896262
0.000894492
0.0143658
0.0383207
0.0711914
0.140588
0.23808
0.362553
0.474036
0.543559
0.576785
0.578356
0.555433
0.511737
0.458079
0.40354
0.360871
0.32663
0.300253
0.280107
0.265395
0.254796
0.249488
0.246714
0.247872
0.249575
0.253708
0.258844
0.264112
0.250535
0.254109
-6.3326e-06
-3.92325e-06
-4.45015e-06
-3.9481e-06
-4.6929e-06
-4.60263e-06
-3.22044e-06
-6.43689e-06
-5.42047e-06
-5.43257e-06
-8.01703e-06
-8.66903e-06
-1.03232e-05
-8.48882e-06
-8.85945e-06
-1.60769e-05
-1.23999e-05
-2.84043e-06
-5.95948e-06
-1.55542e-05
-1.27611e-05
2.49186e-06
4.71676e-06
-2.2749e-05
-7.48875e-06
3.7109e-05
3.27067e-05
-2.6229e-06
1.96058e-05
6.66403e-05
0.000100309
9.62079e-05
0.000130245
0.000174983
0.000220069
0.000247617
0.000283432
0.000366552
0.000491604
0.000685524
0.000922929
0.0011155
0.00126961
0.0014928
0.00175743
0.00205599
0.00226832
0.00270009
0.00315491
0.00376928
0.00447554
0.00530047
0.0137299
0.0443534
-0.179508
-0.34587
-0.384322
-0.376512
-0.352133
-0.311908
-0.266809
-0.221757
-0.185064
-0.146366
-0.11827
-0.0919833
-0.0706608
-0.0555721
-0.0402601
-0.0330509
-0.025541
-0.022763
-0.021764
-0.0203296
-0.0208683
-0.0212665
-0.0219676
-0.022984
-0.0229347
-0.0219483
-0.0192716
-0.016934
-0.0178025
-0.01694
-0.0157587
-0.0164199
-0.0107484
-0.00541525
0.0092263
0.0321776
0.0589681
0.115627
0.184472
0.302229
0.416334
0.514338
0.575372
0.608886
0.620113
0.606606
0.576285
0.533894
0.480794
0.429902
0.389501
0.356642
0.331034
0.311017
0.296347
0.285806
0.280466
0.277418
0.278679
0.280338
0.285199
0.290232
0.295972
0.283082
0.287214
-6.83932e-06
-4.43594e-06
-5.16417e-06
-4.65208e-06
-5.22642e-06
-5.6809e-06
-4.06523e-06
-5.93427e-06
-6.82513e-06
-6.86372e-06
-7.60813e-06
-1.05613e-05
-1.50729e-05
-8.13427e-06
-6.15645e-06
-2.46819e-05
-1.70784e-05
7.55779e-06
-1.39105e-05
-3.06981e-05
4.80819e-06
1.2339e-05
-2.90602e-05
-2.98676e-05
3.34872e-05
4.7653e-05
-1.35036e-05
-2.01652e-05
6.19456e-05
0.000131395
8.85236e-05
4.25327e-05
9.85078e-05
0.00019476
0.00025423
0.000328498
0.000320695
0.000341416
0.000424814
0.000564631
0.000771644
0.000995829
0.00118467
0.00137359
0.00157133
0.00179372
0.00184855
0.00201228
0.00182195
0.00202703
0.000779313
-0.00292985
-0.0366374
-0.167761
-0.377378
-0.387183
-0.382046
-0.37418
-0.356178
-0.324803
-0.282824
-0.235734
-0.192589
-0.149346
-0.11686
-0.0904786
-0.0658254
-0.0512789
-0.0356225
-0.0285211
-0.0235942
-0.0204763
-0.0201851
-0.0204893
-0.0218369
-0.0220275
-0.0216429
-0.0224319
-0.0216515
-0.0195687
-0.0160013
-0.011911
-0.0120301
-0.0103748
-0.00438786
-0.00238752
0.00973226
0.0277821
0.0545961
0.106456
0.162909
0.267938
0.366033
0.474537
0.553449
0.606346
0.636085
0.651488
0.645114
0.625253
0.592753
0.549163
0.498685
0.452058
0.414435
0.383476
0.358956
0.339515
0.325211
0.314982
0.309711
0.306502
0.307894
0.309551
0.315012
0.319747
0.325632
0.313664
0.318393
-7.43183e-06
-4.96507e-06
-5.74035e-06
-5.2759e-06
-5.53094e-06
-6.29188e-06
-5.14091e-06
-5.46794e-06
-8.66604e-06
-8.2753e-06
-6.95583e-06
-1.26436e-05
-1.95464e-05
-6.87885e-06
-8.27072e-06
-3.16399e-05
-1.77844e-05
1.11727e-05
-2.45767e-05
-3.69147e-05
1.47598e-05
1.32007e-05
-5.17747e-05
-2.57995e-05
5.6561e-05
4.63962e-05
-3.55924e-05
-1.34537e-05
8.95387e-05
0.000144604
6.46373e-05
1.25589e-05
9.30799e-05
0.000196916
0.000279635
0.000300622
0.000311681
0.000294581
0.000330954
0.000396298
0.000545754
0.000702578
0.000887399
0.000951131
0.00103215
0.00107917
0.00107875
0.00118057
0.00113761
0.00131844
-0.00015189
-0.0104895
-0.0978997
-0.443606
-0.590244
-0.474893
-0.401519
-0.368956
-0.347434
-0.324545
-0.289812
-0.244744
-0.194422
-0.14878
-0.11249
-0.0859835
-0.0585666
-0.0444351
-0.0306323
-0.0215661
-0.0201555
-0.0173948
-0.0169313
-0.0187131
-0.0194241
-0.0195114
-0.0179242
-0.0186373
-0.0170223
-0.0131978
-0.00961231
-0.00280953
0.00142421
0.00599689
0.022545
0.0347766
0.0603538
0.106435
0.159249
0.255724
0.343082
0.445839
0.529425
0.592298
0.634644
0.660066
0.67458
0.673561
0.660943
0.637456
0.604361
0.560523
0.513187
0.470577
0.435973
0.407095
0.38415
0.365745
0.3522
0.342533
0.337459
0.334175
0.335719
0.337338
0.343218
0.347386
0.353421
0.342525
0.347658
-7.85131e-06
-5.45643e-06
-6.35459e-06
-5.91315e-06
-5.78963e-06
-7.04663e-06
-6.46603e-06
-5.53847e-06
-1.08939e-05
-9.39173e-06
-7.39844e-06
-1.57793e-05
-2.05992e-05
-6.11938e-06
-1.06237e-05
-3.39307e-05
-1.25909e-05
4.05321e-06
-3.00523e-05
-2.90693e-05
1.44786e-05
-7.42125e-06
-5.05617e-05
-7.43786e-06
4.95776e-05
1.19277e-05
-2.4514e-05
1.39227e-05
8.55952e-05
0.000103957
4.39118e-05
3.49596e-05
0.000107
0.000185932
0.00024537
0.000259967
0.000286448
0.000282152
0.000303934
0.000317429
0.000334153
0.000380512
0.000489856
0.000535578
0.000487147
0.000332244
0.000196985
9.25428e-05
-0.000257008
-0.00131177
-0.0055474
-0.0334853
-0.211459
-0.688042
-0.722233
-0.589755
-0.445209
-0.387237
-0.360381
-0.329629
-0.292545
-0.250634
-0.196785
-0.149413
-0.108671
-0.0795256
-0.053328
-0.0359496
-0.0249049
-0.0152494
-0.0132548
-0.0105907
-0.0116658
-0.0140253
-0.0141428
-0.0147861
-0.0118093
-0.0124531
-0.00943057
0.000837513
0.00620512
0.0190881
0.0358268
0.0489757
0.0833081
0.122856
0.174017
0.26322
0.339923
0.435959
0.515023
0.579722
0.626685
0.660743
0.681798
0.693258
0.695042
0.686928
0.670527
0.646013
0.61185
0.569647
0.52572
0.487171
0.455232
0.428365
0.406996
0.389755
0.377148
0.368202
0.363507
0.360294
0.362116
0.363785
0.370002
0.373448
0.379684
0.369885
0.375341
-8.29976e-06
-5.88443e-06
-6.74951e-06
-6.41833e-06
-5.94465e-06
-8.03899e-06
-8.10303e-06
-5.78552e-06
-1.17957e-05
-1.12957e-05
-7.62839e-06
-1.80997e-05
-1.91496e-05
-9.5793e-06
-1.86617e-05
-2.49108e-05
-1.32955e-05
-1.82956e-05
-2.60928e-05
-8.80788e-06
-3.37988e-06
-2.95383e-05
-2.3261e-05
1.13752e-05
1.46601e-05
-1.74348e-05
7.41607e-06
5.21832e-05
5.30043e-05
2.5588e-05
5.36214e-05
0.000103121
0.000128359
0.00012772
0.000134621
0.000186785
0.00024215
0.000297334
0.000291951
0.000213042
0.00014402
0.000154927
0.000178701
0.000234519
0.000182964
-6.80456e-06
-0.000260903
-0.000571348
-0.00133202
-0.00254175
-0.00976585
-0.0577671
-0.394673
-0.801084
-0.780658
-0.693786
-0.573684
-0.454337
-0.396735
-0.348081
-0.304294
-0.257512
-0.195985
-0.14972
-0.1021
-0.0691208
-0.0455934
-0.0257786
-0.016844
-0.00831731
-0.00586725
-0.00394494
-0.00690564
-0.00921928
-0.00618648
-0.00672567
-0.00118649
0.00433534
0.0110514
0.0311159
0.0484634
0.0703388
0.112685
0.148707
0.212907
0.292906
0.357689
0.44319
0.51403
0.575001
0.621323
0.656271
0.682439
0.699043
0.709028
0.711439
0.705875
0.694655
0.676812
0.651022
0.617405
0.577035
0.536832
0.501935
0.472813
0.448168
0.428536
0.41251
0.400876
0.392634
0.388342
0.385221
0.387299
0.388962
0.395327
0.39783
0.404088
0.395274
0.400873
-8.77995e-06
-6.36766e-06
-7.25053e-06
-7.25103e-06
-6.54447e-06
-8.80297e-06
-9.86539e-06
-6.67993e-06
-1.17978e-05
-1.22281e-05
-1.13684e-05
-1.81527e-05
-1.62074e-05
-1.88556e-05
-2.29247e-05
-1.00204e-05
-2.15079e-05
-3.97167e-05
-1.06776e-05
2.71455e-06
-3.74509e-05
-4.06324e-05
1.25097e-05
1.77597e-05
-3.18214e-05
-2.46762e-05
4.02838e-05
7.85636e-05
2.15245e-05
-1.87951e-05
5.51298e-05
0.000144519
0.000135562
7.46866e-05
8.57815e-05
0.000178081
0.000260945
0.000253887
0.000171576
7.97017e-05
3.43421e-05
-5.07161e-05
-5.03226e-05
-2.60379e-05
2.02645e-05
-8.20406e-05
-0.00017915
-0.000353195
-0.000415528
-0.00186244
-0.0119952
-0.106304
-0.579991
-0.817047
-0.806132
-0.769981
-0.706441
-0.588683
-0.475453
-0.390254
-0.324638
-0.26366
-0.201577
-0.156426
-0.102031
-0.0601913
-0.0375008
-0.0156964
-0.00571448
-0.00204283
0.00304174
0.00544176
0.00284451
0.00206654
0.0113168
0.0155596
0.0263769
0.0462416
0.0646352
0.0981242
0.143356
0.192357
0.266032
0.324565
0.392877
0.466264
0.527166
0.580223
0.620895
0.654197
0.682412
0.701867
0.714038
0.721133
0.723615
0.719824
0.712162
0.699142
0.680099
0.654093
0.62154
0.583844
0.547086
0.515259
0.488568
0.465965
0.448038
0.433326
0.42281
0.415392
0.411677
0.408776
0.411218
0.412928
0.419425
0.421023
0.427192
0.419468
0.425108
-8.99814e-06
-6.63225e-06
-7.62624e-06
-8.07777e-06
-6.93842e-06
-9.23539e-06
-1.07783e-05
-8.22012e-06
-1.13687e-05
-1.44083e-05
-1.50621e-05
-1.34978e-05
-1.72038e-05
-3.06701e-05
-2.1996e-05
-2.35237e-06
-3.59532e-05
-5.01532e-05
1.82619e-06
-1.87827e-06
-5.91536e-05
-3.37107e-05
2.90925e-05
6.12064e-06
-5.37461e-05
-1.57225e-05
5.64197e-05
5.6247e-05
2.38939e-06
-5.14803e-06
5.29677e-05
0.000102848
9.04854e-05
8.21654e-05
0.000103022
0.000156843
0.000175676
0.000140614
0.000105347
5.68866e-05
4.24961e-05
-2.34377e-05
-5.252e-05
-0.000124193
-0.000171819
-0.000262577
-0.000310802
-0.000527728
-0.000895918
-0.00401536
-0.025178
-0.193516
-0.716142
-0.840469
-0.828159
-0.808057
-0.771715
-0.70746
-0.609406
-0.481702
-0.372937
-0.28882
-0.214512
-0.159244
-0.0939314
-0.0489421
-0.0218486
-0.00175836
0.00969379
0.0128953
0.0182478
0.0244861
0.0284824
0.0311224
0.048773
0.0719078
0.0927055
0.13781
0.185709
0.243659
0.314431
0.370484
0.43926
0.494882
0.546726
0.59204
0.62555
0.657405
0.683231
0.702035
0.716005
0.725655
0.731189
0.733414
0.730926
0.725462
0.715799
0.701696
0.681921
0.656276
0.625113
0.590268
0.556877
0.528184
0.504008
0.483374
0.466936
0.45335
0.443807
0.437077
0.433912
0.431229
0.433987
0.435659
0.442191
0.442857
0.448689
0.441806
0.447357
-9.59527e-06
-7.19618e-06
-8.18605e-06
-8.96713e-06
-7.92118e-06
-9.04805e-06
-1.20957e-05
-1.02815e-05
-1.1682e-05
-1.70429e-05
-1.89296e-05
-1.13479e-05
-2.11681e-05
-3.68051e-05
-1.60892e-05
-8.56361e-06
-4.5358e-05
-4.02652e-05
1.00053e-06
-2.50465e-05
-5.91154e-05
-1.7631e-05
1.43189e-05
-1.63114e-05
-4.17679e-05
1.02243e-06
3.7362e-05
1.83385e-05
1.27692e-05
2.49207e-05
3.63961e-05
2.66375e-05
7.07953e-05
0.000126699
0.000152448
0.00011433
6.51918e-05
6.94998e-05
8.86953e-05
9.24483e-05
8.36934e-05
-4.18538e-06
-0.000158482
-0.000341699
-0.000486895
-0.000567742
-0.000654815
-0.000962633
-0.00175113
-0.00681981
-0.0451985
-0.343372
-0.80578
-0.849423
-0.837583
-0.822976
-0.79985
-0.771011
-0.717252
-0.607716
-0.469219
-0.334535
-0.235667
-0.151437
-0.0812547
-0.0329915
-0.00490618
0.0184646
0.0353312
0.0408533
0.0515203
0.0657528
0.0878231
0.102369
0.134504
0.192066
0.241442
0.300312
0.360079
0.418158
0.478737
0.525119
0.570834
0.604523
0.632366
0.662809
0.685704
0.702927
0.717
0.727593
0.734822
0.739291
0.741125
0.739446
0.735445
0.728216
0.717684
0.70267
0.68296
0.658157
0.628868
0.596738
0.566147
0.539943
0.51789
0.49913
0.484224
0.471898
0.463433
0.457496
0.45493
0.452516
0.455595
0.457143
0.463839
0.463684
0.469159
0.463105
0.468485
-9.88444e-06
-7.51081e-06
-8.49297e-06
-9.3144e-06
-8.98279e-06
-8.81398e-06
-1.33696e-05
-1.27609e-05
-1.09284e-05
-1.93672e-05
-1.7732e-05
-1.22251e-05
-2.86757e-05
-3.3456e-05
-1.19853e-05
-2.63829e-05
-4.49235e-05
-2.27456e-05
-2.21345e-05
-4.07685e-05
-3.00961e-05
-1.51859e-05
-2.68316e-05
-2.24434e-05
-8.67562e-06
4.55276e-06
-2.39194e-06
5.70931e-06
3.27824e-05
3.88111e-05
-2.29596e-06
-5.75538e-06
7.84271e-05
0.00014925
0.000132123
5.74336e-05
2.37586e-05
5.45237e-05
0.000106194
0.000130245
8.78895e-05
-2.17813e-05
-0.000182101
-0.000265483
-0.000253048
-0.000179424
-4.03983e-05
6.04105e-06
-0.000791577
-0.00829047
-0.0763106
-0.513913
-0.8437
-0.852039
-0.847532
-0.838057
-0.82568
-0.80743
-0.778538
-0.712875
-0.596264
-0.423831
-0.262554
-0.142809
-0.0697987
-0.0080285
0.0250042
0.0515313
0.0828541
0.107476
0.122654
0.151644
0.206725
0.250082
0.292857
0.357977
0.41021
0.465512
0.510994
0.551407
0.588843
0.615955
0.642567
0.668512
0.687321
0.70321
0.717337
0.728613
0.736643
0.742183
0.745652
0.747399
0.746398
0.743411
0.738052
0.730197
0.718856
0.703687
0.684184
0.660505
0.633134
0.603695
0.575936
0.552139
0.531945
0.51474
0.501059
0.489775
0.482225
0.476925
0.474948
0.472778
0.47618
0.477416
0.484149
0.48317
0.488149
0.482644
0.487902
-1.04353e-05
-8.02255e-06
-8.9672e-06
-9.57184e-06
-1.04266e-05
-9.12059e-06
-1.47879e-05
-1.46768e-05
-1.08723e-05
-2.25564e-05
-1.87121e-05
-1.4868e-05
-3.44799e-05
-2.56364e-05
-1.84079e-05
-3.9701e-05
-3.02492e-05
-2.27931e-05
-5.12016e-05
-4.10904e-05
-1.33886e-05
-3.37436e-05
-5.19131e-05
-1.47875e-05
6.67781e-06
-1.41974e-05
-2.2454e-05
1.11921e-05
3.9572e-05
2.03615e-05
-2.88999e-05
-7.62954e-06
8.08396e-05
0.00012011
8.41501e-05
4.37368e-05
4.61037e-05
6.56416e-05
0.000133357
0.000137278
5.34569e-05
-3.60481e-05
-9.44313e-05
-8.96864e-05
-5.43404e-05
1.01306e-05
0.000132157
0.000147331
-0.00152036
-0.0161338
-0.138761
-0.663897
-0.851699
-0.857117
-0.855847
-0.850104
-0.84196
-0.830247
-0.810294
-0.769665
-0.68968
-0.531482
-0.305085
-0.135518
-0.0403909
0.032434
0.0891197
0.129719
0.173441
0.227304
0.270096
0.300734
0.35929
0.411707
0.457401
0.502097
0.540267
0.573531
0.601103
0.624539
0.651828
0.671544
0.687883
0.702772
0.716467
0.727628
0.736747
0.743551
0.748741
0.75085
0.752226
0.751811
0.749593
0.745565
0.739684
0.731227
0.719773
0.704777
0.68605
0.663559
0.637867
0.610528
0.584984
0.563212
0.544804
0.529157
0.516771
0.506613
0.500012
0.495341
0.494002
0.49215
0.495817
0.496712
0.50326
0.501774
0.506399
0.50148
0.506489
-1.089e-05
-8.36506e-06
-9.39739e-06
-9.92423e-06
-1.20597e-05
-9.87272e-06
-1.43391e-05
-1.62229e-05
-1.3128e-05
-2.14202e-05
-2.16323e-05
-2.18124e-05
-2.88128e-05
-2.7228e-05
-3.48351e-05
-3.73966e-05
-2.46095e-05
-4.27256e-05
-6.07726e-05
-3.02278e-05
-2.79887e-05
-5.02473e-05
-3.8995e-05
-9.07103e-06
-2.10649e-05
-4.13351e-05
-1.52282e-05
2.84672e-05
2.72477e-05
-6.54912e-06
-3.31137e-05
-1.39656e-06
5.57359e-05
6.96078e-05
6.92046e-05
7.26343e-05
7.90305e-05
8.9574e-05
7.48556e-05
5.62725e-05
7.80744e-06
6.37767e-07
1.07904e-05
3.00692e-05
3.20216e-05
8.27024e-06
-0.000138413
-0.000793372
-0.00484588
-0.0339674
-0.268695
-0.773377
-0.861301
-0.859469
-0.859204
-0.854374
-0.848929
-0.840407
-0.826856
-0.795444
-0.740072
-0.590531
-0.346139
-0.109273
0.033617
0.120257
0.208593
0.264136
0.313247
0.364893
0.41587
0.453906
0.496111
0.532979
0.563137
0.589354
0.609583
0.636062
0.657437
0.672171
0.687926
0.70188
0.714416
0.725074
0.734413
0.742153
0.748522
0.753034
0.756804
0.757497
0.757315
0.755699
0.752558
0.747893
0.741443
0.732614
0.72106
0.706341
0.688508
0.667457
0.64387
0.618642
0.595034
0.574864
0.557859
0.543447
0.532137
0.522925
0.517086
0.512918
0.51202
0.51042
0.514429
0.514853
0.521045
0.519224
0.523439
0.518881
0.523655
-1.13368e-05
-8.71131e-06
-9.82355e-06
-1.04034e-05
-1.31004e-05
-1.16623e-05
-1.36162e-05
-1.81629e-05
-1.62817e-05
-1.77278e-05
-2.67778e-05
-2.52883e-05
-2.06873e-05
-3.83567e-05
-4.11737e-05
-2.33357e-05
-4.0221e-05
-5.38097e-05
-3.70681e-05
-4.05545e-05
-6.11934e-05
-4.42185e-05
-1.01791e-05
-3.13081e-05
-6.64505e-05
-5.22849e-05
7.42251e-06
2.8313e-05
4.3499e-06
-1.83642e-05
-2.74891e-05
-8.89198e-06
1.1968e-05
4.77654e-05
8.34055e-05
9.88412e-05
0.000109172
6.3092e-05
-5.63269e-06
-1.79605e-06
2.84125e-05
7.77706e-05
0.000114068
0.000142649
0.000131453
0.00019
5.34719e-05
-0.000741504
-0.00696053
-0.0586417
-0.439664
-0.842929
-0.86473
-0.863335
-0.861057
-0.856527
-0.849943
-0.842688
-0.827406
-0.79358
-0.736024
-0.554971
-0.276439
-0.00162303
0.15578
0.262509
0.341076
0.405456
0.448996
0.490092
0.526864
0.554887
0.578982
0.600358
0.624577
0.644765
0.658828
0.672026
0.688107
0.699859
0.711752
0.72105
0.730583
0.739327
0.746734
0.752751
0.757387
0.759897
0.762238
0.762519
0.761144
0.758666
0.75489
0.74977
0.743009
0.734133
0.722805
0.70865
0.691668
0.671886
0.649963
0.626675
0.604757
0.586049
0.570321
0.557109
0.546827
0.538489
0.533409
0.529739
0.529269
0.527941
0.532324
0.532277
0.538
0.536029
0.53974
0.535586
0.540056
-1.18258e-05
-9.14596e-06
-1.04182e-05
-1.06421e-05
-1.35331e-05
-1.34098e-05
-1.26906e-05
-2.07989e-05
-1.95784e-05
-1.49804e-05
-3.27973e-05
-2.94578e-05
-1.80964e-05
-4.61038e-05
-4.51316e-05
-2.4072e-05
-5.36421e-05
-6.01254e-05
-3.2715e-05
-6.08407e-05
-8.19451e-05
-3.23935e-05
-1.44777e-05
-5.73657e-05
-8.73591e-05
-4.80593e-05
-3.79368e-07
5.01007e-06
-5.10649e-06
-8.45445e-06
-2.408e-05
-4.69206e-05
-1.9892e-05
4.14316e-05
0.000105588
0.000116052
8.33215e-05
2.50977e-05
-2.09859e-05
-1.3912e-05
8.86896e-05
0.000182571
0.000322727
0.000408352
0.000482892
0.000631982
0.000660416
-0.00076231
-0.0132091
-0.120718
-0.626341
-0.851019
-0.862306
-0.863329
-0.862849
-0.858786
-0.851001
-0.840974
-0.813565
-0.749385
-0.648151
-0.402352
-0.0866918
0.147676
0.294098
0.38817
0.455147
0.501794
0.538177
0.564297
0.593625
0.61709
0.63544
0.648732
0.660543
0.674788
0.687619
0.697763
0.709608
0.718774
0.727946
0.735763
0.742613
0.748952
0.754393
0.758828
0.762069
0.763544
0.7653
0.765936
0.764474
0.761649
0.757464
0.751927
0.744843
0.735929
0.724884
0.711438
0.695435
0.677039
0.656676
0.635172
0.614738
0.597351
0.582727
0.570518
0.5611
0.553534
0.549141
0.545877
0.545747
0.54451
0.549122
0.54859
0.553881
0.551813
0.555267
0.551417
0.555524
-1.23017e-05
-9.59838e-06
-1.10826e-05
-1.14087e-05
-1.34964e-05
-1.57903e-05
-1.33926e-05
-2.10013e-05
-2.20693e-05
-1.7489e-05
-3.04976e-05
-3.18063e-05
-2.67359e-05
-3.58495e-05
-4.6203e-05
-4.24624e-05
-4.07515e-05
-5.02562e-05
-6.15783e-05
-6.05309e-05
-5.56994e-05
-5.06246e-05
-4.93778e-05
-4.90945e-05
-6.8231e-05
-7.28404e-05
-5.03302e-05
-9.00443e-06
5.63046e-06
-2.09872e-06
-3.93105e-05
-7.77336e-05
-3.8118e-05
4.62587e-05
0.000108532
9.21125e-05
5.83616e-05
1.67047e-05
8.40579e-06
2.77669e-05
2.88268e-05
8.12442e-05
0.000110746
0.000146704
0.000130513
8.20364e-05
-0.000545253
-0.00438297
-0.031569
-0.247115
-0.758961
-0.861482
-0.860777
-0.861014
-0.860287
-0.855072
-0.843146
-0.827794
-0.773815
-0.648008
-0.452752
-0.139474
0.127324
0.294781
0.400615
0.473057
0.52258
0.56181
0.593668
0.617828
0.636575
0.653198
0.668043
0.680363
0.690697
0.699606
0.709267
0.716363
0.724393
0.731275
0.737769
0.743628
0.748504
0.753534
0.758084
0.76241
0.766008
0.768324
0.770078
0.770734
0.7689
0.765415
0.760536
0.754471
0.746968
0.737934
0.72706
0.714154
0.699067
0.682029
0.663275
0.643645
0.624621
0.608473
0.594843
0.583593
0.574916
0.567969
0.564091
0.561131
0.561485
0.560401
0.565162
0.564394
0.569282
0.567142
0.569987
0.566359
0.570069
-1.27794e-05
-1.00474e-05
-1.15147e-05
-1.20041e-05
-1.37808e-05
-1.70466e-05
-1.51681e-05
-1.95186e-05
-2.45582e-05
-2.22624e-05
-2.60312e-05
-3.85959e-05
-3.38435e-05
-3.02525e-05
-5.96931e-05
-6.0113e-05
-3.2458e-05
-6.20207e-05
-9.30384e-05
-5.55978e-05
-4.74053e-05
-8.33714e-05
-7.90265e-05
-4.30648e-05
-5.94393e-05
-0.000102206
-8.73559e-05
-2.35875e-05
3.55327e-06
-1.53567e-05
-3.57833e-05
-7.0954e-05
-4.61549e-05
9.42012e-06
7.31141e-05
6.96211e-05
4.42308e-05
1.52526e-05
1.72867e-06
2.11749e-05
-1.59703e-05
7.74261e-06
1.55007e-05
8.46909e-05
0.000162475
0.000142481
-0.000661184
-0.00718635
-0.0596024
-0.438276
-0.840745
-0.864275
-0.86142
-0.859447
-0.857691
-0.845357
-0.819254
-0.78189
-0.668815
-0.453188
-0.151492
0.118036
0.291376
0.40443
0.482631
0.535974
0.574705
0.603397
0.627421
0.647826
0.664737
0.678493
0.690845
0.701208
0.710058
0.716055
0.722552
0.727352
0.732774
0.738633
0.743782
0.750022
0.754971
0.759676
0.763618
0.767322
0.770086
0.771694
0.77288
0.773879
0.772289
0.768732
0.763747
0.757582
0.750052
0.741149
0.730614
0.718272
0.703975
0.688032
0.670587
0.652509
0.634767
0.619709
0.60695
0.596515
0.58845
0.582111
0.578752
0.576104
0.576842
0.575786
0.58045
0.579382
0.583696
0.581432
0.583897
0.580618
0.5841
-1.33277e-05
-1.053e-05
-1.21652e-05
-1.30553e-05
-1.3993e-05
-1.78505e-05
-1.73072e-05
-1.93106e-05
-2.71043e-05
-2.53977e-05
-2.64466e-05
-4.23555e-05
-3.57953e-05
-3.48053e-05
-5.86745e-05
-5.85511e-05
-4.12518e-05
-6.12978e-05
-8.99355e-05
-6.87377e-05
-4.42531e-05
-7.26219e-05
-0.00010132
-7.30783e-05
-4.42165e-05
-6.4862e-05
-9.70463e-05
-9.20921e-05
-4.51572e-05
-1.18772e-05
-2.23634e-06
-4.03355e-05
-6.50031e-05
-4.59389e-05
1.80608e-05
5.98372e-05
4.36652e-05
7.31015e-06
-1.58071e-05
9.5847e-06
2.47375e-05
2.61778e-05
8.66065e-05
0.000180474
0.000245371
0.000205028
-0.00167407
-0.0166088
-0.136982
-0.648836
-0.850139
-0.859154
-0.857443
-0.85289
-0.851138
-0.829126
-0.771311
-0.676605
-0.457928
-0.15229
0.117089
0.290404
0.405512
0.485274
0.540419
0.580277
0.610112
0.633797
0.653075
0.669296
0.683001