/*--------------------------------*- C++ -*----------------------------------*\
| =========                 |                                                 |
| \\      /  F ield         | OpenFOAM: The Open Source CFD Toolbox           |
|  \\    /   O peration     | Version:  2.2.x                                 |
|   \\  /    A nd           | Web:      www.OpenFOAM.org                      |
|    \\/     M anipulation  |                                                 |
\*---------------------------------------------------------------------------*/
FoamFile
{
    version     2.0;
    format      ascii;
    class       surfaceScalarField;
    location    "1";
    object      cfmax;
}
// * * * * * * * * * * * * * * * * * * * * * * * * * * * * * * * * * * * * * //

dimensions      [0 3 -1 0 0 0 0];

internalField   nonuniform List<scalar> 
28084
(
0.000746529
0.000743284
0.000740541
0.000738237
0.000736369
0.000734907
0.000733831
0.000733118
0.00073274
0.000732672
0.000732888
0.000733369
0.000734058
0.000734958
0.000736054
0.000737273
0.00073861
0.000740085
0.000741602
0.000743156
0.00074479
0.000746396
0.000747967
0.000749532
0.0007511
0.000752542
0.000753882
0.000755172
0.000756442
0.000757537
0.000758444
0.000759174
0.000759724
0.000760214
0.000760766
0.00076101
0.000761039
0.000760862
0.000760487
0.00075984
0.000758826
0.000757664
0.000756399
0.000754825
0.000753116
0.000761752
0.000770507
0.000779125
0.000788041
0.000797281
0.000806344
0.000816188
0.000612457
0.000439041
0.000428106
0.000433346
0.00044453
0.000456282
0.000469546
0.000482195
0.000494801
0.000506794
0.000518427
0.000528863
0.000539302
0.000549
0.000557746
0.000565593
0.000572808
0.000579149
0.00058435
0.000588521
0.000591899
0.000594691
0.000596527
0.000597817
0.000597674
0.000599457
0.000598938
0.000600985
0.000594538
0.000595733
0.000593918
0.000592272
0.000589272
0.000592024
0.000590723
0.00058895
0.000587106
0.000583088
0.000586007
0.000583915
0.00058439
0.000582559
0.000584407
0.000582276
0.000582679
0.000564543
0.000557586
0.000512604
0.000487957
0.000457067
0.000436529
0.000422413
0.000412327
0.000405382
0.000400686
0.000397886
0.000396442
0.000396024
0.000396725
0.000398579
0.000401287
0.000404872
0.00040915
0.000414183
0.000419948
0.000426181
0.00144562
0.0014432
0.000750047
0.00143794
0.000749083
0.00142965
0.000748591
0.00141844
0.000748512
0.00140438
0.000748843
0.0013876
0.000749557
0.00136824
0.000750632
0.00134644
0.000752045
0.00132237
0.000753769
0.00129632
0.000755775
0.00126851
0.000758038
0.00123898
0.000760535
0.00120794
0.000763208
0.00117559
0.000766059
0.0011421
0.000769066
0.00110771
0.000772159
0.00107261
0.000775328
0.00103697
0.000778588
0.00100098
0.000781849
0.000964817
0.000785095
0.000928623
0.000788367
0.000892562
0.000791564
0.000856773
0.000794674
0.00082136
0.000797718
0.000786444
0.000800711
0.000752143
0.000803526
0.000718523
0.000806182
0.000685695
0.000808707
0.000653656
0.000811189
0.000622467
0.000813423
0.000592191
0.000815393
0.000562914
0.000817128
0.00053464
0.00081868
0.000507439
0.000820093
0.000481166
0.00082149
0.000455913
0.000822534
0.000431773
0.000823309
0.000408637
0.000823841
0.000386458
0.000824086
0.000365286
0.000823969
0.000345071
0.00082351
0.000325816
0.00082297
0.000307465
0.000822055
0.000289997
0.000820823
0.000293846
0.000819401
0.000293788
0.00082732
0.000293736
0.000835472
0.000293696
0.000843788
0.000293623
0.000851825
0.000293515
0.000860133
0.000291855
0.000867856
0.000280673
0.000875902
0.000291359
0.000650734
0.000290245
0.000468708
0.000295141
0.00045739
0.000299037
0.000463676
0.000303935
0.000475007
0.000307164
0.000486828
0.000310608
0.00050035
0.000313842
0.000512934
0.000317072
0.000525375
0.000320009
0.000537202
0.00032254
0.000548721
0.000324894
0.000559362
0.000327201
0.000569544
0.00032953
0.000578902
0.000331423
0.000587345
0.000333407
0.000594934
0.000335399
0.000601713
0.000337149
0.000607635
0.00033889
0.000612599
0.0003408
0.000616481
0.000342739
0.000619284
0.000344716
0.00062142
0.000346449
0.000622575
0.00034843
0.000623218
0.00035079
0.000622461
0.000352698
0.000623967
0.000354426
0.000622793
0.000356869
0.000624489
0.000359802
0.000617342
0.000362293
0.000618551
0.000365096
0.000616828
0.000368002
0.000614839
0.000371071
0.000611467
0.000374041
0.000613771
0.000377221
0.000612101
0.000380311
0.000609877
0.000383511
0.000607501
0.000387058
0.000602856
0.000390242
0.000605244
0.000393772
0.000602557
0.000396962
0.000602353
0.000400611
0.000599458
0.000403949
0.000599949
0.000407615
0.000595028
0.000409893
0.000593532
0.000411089
0.000565095
0.000411935
0.000562007
0.000405109
0.00051716
0.000393852
0.000487411
0.000384056
0.000458775
0.000376237
0.000438782
0.00037084
0.000424972
0.000367923
0.000414846
0.00036674
0.000407795
0.000366715
0.000402923
0.000367493
0.000399905
0.000368703
0.000398159
0.000370387
0.000397419
0.000372502
0.000397769
0.000375376
0.000399181
0.000378458
0.000401591
0.000382274
0.00040492
0.000385992
0.000409038
0.000390503
0.000413902
0.000394395
0.000419539
0.000401018
0.000425397
0.00144619
0.00144356
0.000754744
0.00143808
0.00075603
0.00142958
0.000757763
0.00141817
0.000759881
0.00140393
0.000762385
0.00138698
0.000765248
0.00136798
0.000768449
0.00134666
0.000771964
0.00132303
0.000775767
0.00129727
0.000779823
0.00126958
0.000784111
0.00124014
0.000788601
0.00120918
0.000793239
0.00117689
0.000798019
0.00114345
0.000802916
0.0011091
0.000807865
0.00107402
0.000812846
0.00103839
0.00081787
0.0010024
0.000822862
0.000966229
0.000827779
0.000930013
0.000832668
0.000893925
0.000837444
0.000858093
0.000842079
0.000822634
0.000846582
0.000787662
0.000850985
0.000753305
0.000855163
0.000719614
0.000859119
0.00068671
0.00086287
0.000654602
0.000866541
0.000623329
0.000869892
0.000592967
0.000872935
0.00056361
0.000875677
0.000535262
0.00087822
0.000507963
0.000880576
0.000481594
0.000882774
0.000456222
0.000884623
0.000431844
0.000886139
0.000408467
0.000887366
0.000386379
0.000888235
0.000365298
0.000888752
0.000345227
0.000888848
0.000326074
0.000888749
0.00030783
0.000888269
0.000290494
0.000887549
0.0002984
0.000886462
0.000298516
0.000893891
0.000298596
0.00090166
0.000298673
0.000909325
0.000298705
0.000916864
0.000298495
0.00092467
0.000294716
0.000931585
0.000285306
0.000938921
0.000298136
0.000698669
0.000290787
0.000502483
0.000299859
0.000488542
0.000306744
0.000496672
0.00031358
0.000509298
0.000317114
0.000521283
0.000320213
0.000535227
0.000322571
0.000548026
0.000325476
0.000560611
0.000327804
0.000571945
0.000329723
0.000583354
0.000331478
0.00059364
0.000333112
0.000603411
0.000334639
0.000611964
0.00033589
0.000619003
0.00033722
0.000626192
0.000338521
0.00063214
0.000339718
0.000637336
0.000341002
0.000641711
0.000342358
0.00064509
0.000343827
0.000647402
0.000345461
0.000649011
0.000346898
0.00064964
0.00034876
0.000649844
0.000351157
0.000648426
0.00035282
0.000649535
0.000355332
0.000647799
0.000357992
0.000648789
0.000360969
0.000641498
0.000363629
0.000643443
0.000366678
0.000641757
0.00036971
0.000639346
0.000372734
0.000635751
0.000375753
0.000637295
0.000378994
0.000635202
0.000382195
0.000632428
0.000385624
0.000629589
0.000389195
0.000624345
0.00039236
0.000625891
0.000395614
0.000621524
0.000398225
0.000620428
0.000401715
0.000614461
0.000404423
0.000613
0.000407689
0.000600112
0.000409869
0.000595682
0.00041101
0.000565627
0.000417958
0.000549442
0.000414659
0.000509949
0.000408082
0.000481686
0.000396622
0.000458664
0.000386901
0.000441463
0.000380315
0.000428505
0.00037626
0.000418686
0.000374187
0.00041156
0.000373393
0.000406409
0.000373724
0.000402891
0.000374629
0.000400569
0.000376393
0.000399353
0.000378679
0.000399255
0.000381818
0.00040042
0.000385118
0.000402521
0.000389545
0.000405629
0.000393535
0.000409501
0.000398823
0.000414132
0.000403061
0.000419722
0.000410825
0.000425588
0.00144564
0.0014428
0.000760619
0.00143712
0.000764125
0.00142843
0.000768049
0.00141765
0.000772334
0.00140436
0.000776981
0.00138829
0.000781964
0.00136959
0.000787264
0.00134841
0.000792852
0.0013249
0.000798706
0.00129925
0.000804787
0.00127165
0.000811074
0.00124229
0.000817531
0.00121139
0.000824111
0.00117914
0.000830798
0.00114574
0.000837554
0.00111141
0.000844339
0.00107633
0.000851113
0.00104069
0.000857875
0.00100467
0.000864575
0.00096846
0.000871147
0.000932197
0.00087763
0.000896052
0.000883967
0.00086015
0.00089011
0.000824619
0.000896058
0.000789564
0.000901851
0.000755107
0.000907373
0.000721325
0.00091261
0.000688328
0.000917588
0.000656105
0.000922418
0.000624712
0.000926861
0.00059426
0.000930971
0.000564798
0.000934753
0.000536349
0.000938299
0.00050892
0.000941562
0.000482428
0.00094453
0.000456937
0.000947175
0.000432447
0.000949431
0.000408949
0.000951346
0.000386429
0.00095288
0.000365122
0.000954033
0.000345163
0.000954754
0.000326136
0.000955086
0.000308052
0.000955145
0.000290856
0.000954944
0.000302888
0.000954225
0.000303231
0.000961337
0.000303428
0.000968782
0.000303637
0.000976029
0.000303768
0.000983114
0.000303485
0.000990501
0.000297642
0.00099679
0.000294067
0.00100397
0.00030412
0.000769774
0.000292163
0.000540813
0.000305973
0.000522411
0.000316498
0.000533342
0.000324987
0.000547902
0.000329016
0.000560962
0.000331696
0.000575521
0.00033331
0.000588715
0.000335252
0.000600836
0.000336631
0.000610999
0.000337812
0.000621329
0.00033879
0.000630371
0.000339625
0.000639211
0.000340051
0.000646914
0.000340431
0.000652515
0.00034086
0.000659338
0.000341331
0.000664527
0.000341859
0.000669055
0.000342713
0.000672808
0.000343694
0.000675605
0.000344826
0.000677405
0.000346101
0.000678566
0.00034727
0.000678811
0.000348951
0.000678539
0.000351151
0.000676564
0.000352545
0.00067818
0.00035548
0.000676407
0.000358502
0.000674773
0.000361312
0.000668572
0.000364193
0.000672371
0.000367583
0.0006705
0.000370733
0.000667299
0.000373613
0.000663235
0.000376768
0.000664761
0.000380081
0.000661998
0.000383542
0.00065746
0.000387125
0.000652966
0.00039056
0.000646578
0.000393491
0.000647212
0.000396753
0.000640473
0.000398934
0.000637719
0.000401906
0.000625836
0.000403744
0.000620245
0.00040629
0.000598055
0.000410118
0.000590243
0.000413923
0.000552978
0.000422506
0.000523614
0.000424599
0.000495283
0.00041999
0.000473512
0.000408
0.000456958
0.000397122
0.00044265
0.000389874
0.000430996
0.000385125
0.000422023
0.000382494
0.000415251
0.0003811
0.00041013
0.000380911
0.000406359
0.000381465
0.000403655
0.000383055
0.000401999
0.000385099
0.000401511
0.000388518
0.000402185
0.000391903
0.000403915
0.000396789
0.000406693
0.00040102
0.000410278
0.000407013
0.000414675
0.00041165
0.000420226
0.000420197
0.000426155
0.00144399
0.00144157
0.000767676
0.00143737
0.000773363
0.00143011
0.000779444
0.00141987
0.000785861
0.00140674
0.000792618
0.00139083
0.000799689
0.00137226
0.000807055
0.0013512
0.000814687
0.0013278
0.000822561
0.00130225
0.000830639
0.00127473
0.000838895
0.00124544
0.000847287
0.00121458
0.000855782
0.00118235
0.000864352
0.00114897
0.000872936
0.00111463
0.000881528
0.00107952
0.000890081
0.00104385
0.000898555
0.00100778
0.000906921
0.000971507
0.00091514
0.000935171
0.0009232
0.000898937
0.000931069
0.000862942
0.000938695
0.00082731
0.000946079
0.000792143
0.000953234
0.000757558
0.000960076
0.000723664
0.000966587
0.000690532
0.000972821
0.000658169
0.000978736
0.000626654
0.000984268
0.000596073
0.000989436
0.000566478
0.000994291
0.000537882
0.000998799
0.000510281
0.00100292
0.000483665
0.00100667
0.000458036
0.00101008
0.000433404
0.00101311
0.000409783
0.00101572
0.000387138
0.00101795
0.000365474
0.00101975
0.000344898
0.00102115
0.000326047
0.00102201
0.000308132
0.00102262
0.000291089
0.00102285
0.000307325
0.0010226
0.000307854
0.00102941
0.000308227
0.00103646
0.000308602
0.00104339
0.000308819
0.00105051
0.000308679
0.00105789
0.00030215
0.00106436
0.000301289
0.00107121
0.000310216
0.000876671
0.00029328
0.000584095
0.000314941
0.000559171
0.000328782
0.000575604
0.000338367
0.000593475
0.000342944
0.000607989
0.000345228
0.000621547
0.000345535
0.000633956
0.00034575
0.000645149
0.000345523
0.000654983
0.000345155
0.000664213
0.000345113
0.000672071
0.000345035
0.000679811
0.00034451
0.000686559
0.000344076
0.000691004
0.000343578
0.00069719
0.000343321
0.000700674
0.000343477
0.00070484
0.000343825
0.000708684
0.000344388
0.000714375
0.000345171
0.000717505
0.000346249
0.000719118
0.000347134
0.000719441
0.000348402
0.000718498
0.000350444
0.000716356
0.000353369
0.000719049
0.000356611
0.000716376
0.000359846
0.000712138
0.000362607
0.000705829
0.000365864
0.000708459
0.000369509
0.0007058
0.000372787
0.000701956
0.000375608
0.000697037
0.000378831
0.000696133
0.000382117
0.000692008
0.000385834
0.000686002
0.000389252
0.000680643
0.000392293
0.00067154
0.000394545
0.000669155
0.000397654
0.000656929
0.000399773
0.000649134
0.000401383
0.000628143
0.000403212
0.000620135
0.000404253
0.000594723
0.000411111
0.00056685
0.00042014
0.000532575
0.000429032
0.000504802
0.000430471
0.00048366
0.000424941
0.000467823
0.000414454
0.000455188
0.000404411
0.000443241
0.000397165
0.000433104
0.000392382
0.000425041
0.000389632
0.000418777
0.000388088
0.000413803
0.000387782
0.000410004
0.000388059
0.000407188
0.00038957
0.000405152
0.00039165
0.0004042
0.000395255
0.000404491
0.000398737
0.000405867
0.000404025
0.000408261
0.000408499
0.000411561
0.00041507
0.000415659
0.000420155
0.000421071
0.000429354
0.000426975
0.0014455
0.00144436
0.000775917
0.00144034
0.000783746
0.00143324
0.000791944
0.00142317
0.000800456
0.00141019
0.000809285
0.00139442
0.000818409
0.00137598
0.000827806
0.00135504
0.000837446
0.00133174
0.000847306
0.00130626
0.000857347
0.0012788
0.000867541
0.00124956
0.000877836
0.00121873
0.000888213
0.0011865
0.000898635
0.00115311
0.000909022
0.00111875
0.000919389
0.0010836
0.000929689
0.00104786
0.000939845
0.00101173
0.000949851
0.000975366
0.0009597
0.000938927
0.000969315
0.000902577
0.000978661
0.000866465
0.000987765
0.000830706
0.000996581
0.000795393
0.00100505
0.00076066
0.00101318
0.000726621
0.00102099
0.000693313
0.00102842
0.000660793
0.00103542
0.000629128
0.001042
0.000598403
0.00104821
0.000568638
0.00105415
0.000539863
0.00105959
0.000512074
0.00106457
0.000485287
0.00106912
0.000459508
0.00107327
0.000434754
0.00107701
0.000410957
0.00108042
0.000388175
0.00108336
0.000366369
0.00108583
0.000345515
0.00108785
0.00032579
0.0010894
0.000308049
0.00109056
0.00029121
0.00109126
0.000311685
0.00109163
0.000312406
0.0010982
0.000313016
0.00110502
0.000313591
0.00111198
0.000314104
0.00111914
0.000314327
0.00112653
0.000310083
0.00113433
0.000300188
0.00114084
0.000317918
0.00104129
0.000298461
0.000640056
0.000327646
0.000602715
0.000344937
0.00062553
0.000354376
0.000646513
0.00035766
0.000662388
0.000358248
0.000675228
0.000357637
0.000685858
0.000356128
0.000695545
0.000354843
0.000704069
0.000353205
0.000711913
0.000351599
0.000718279
0.000350207
0.000723697
0.000348275
0.000729331
0.000346983
0.000731862
0.000345799
0.000740495
0.000345256
0.000746525
0.000344803
0.00075706
0.00034465
0.000763014
0.000344849
0.000766968
0.00034542
0.000768782
0.000346203
0.000768811
0.000346873
0.000767518
0.000348091
0.000765286
0.000350693
0.000762375
0.000353873
0.000761672
0.000357612
0.000758167
0.000360888
0.00075396
0.00036376
0.000746211
0.000366982
0.000745259
0.000370703
0.000741132
0.000373972
0.000735762
0.000376815
0.000729459
0.000380231
0.000724679
0.00038347
0.000719224
0.000387252
0.000710893
0.000390176
0.000704122
0.000393393
0.00068983
0.000395584
0.000682615
0.000397421
0.000659139
0.00039877
0.000651239
0.000399343
0.00062669
0.00040268
0.000606233
0.00040552
0.000571769
0.000419238
0.000538309
0.000429322
0.000512182
0.000434311
0.000492363
0.000434176
0.000477217
0.000428173
0.000465236
0.000418618
0.000455014
0.000409645
0.00044402
0.000403049
0.000435202
0.000398591
0.000427977
0.000395994
0.000422145
0.000394415
0.000417421
0.00039421
0.000413608
0.000394617
0.000410681
0.000396153
0.000408493
0.000398158
0.00040718
0.000401963
0.000407097
0.000405576
0.000408122
0.000411227
0.000410154
0.000415974
0.000413183
0.000423048
0.000417027
0.00042863
0.000422181
0.000438393
0.000427976
0.00144923
0.00144826
0.000785347
0.0014444
0.000795275
0.00143746
0.000805547
0.00142754
0.000816112
0.0014147
0.000826972
0.00139906
0.000838108
0.00138075
0.000849497
0.0013599
0.000861107
0.00133669
0.000872914
0.00131128
0.000884884
0.00128387
0.000896977
0.00125466
0.000909142
0.00122384
0.000921367
0.0011916
0.000933605
0.00115818
0.000945764
0.00112377
0.000957873
0.00108856
0.000969883
0.00105273
0.000981696
0.0010165
0.000993315
0.000980031
0.00100475
0.000943455
0.00101589
0.000906971
0.0010267
0.000870718
0.00103726
0.000834795
0.00104746
0.000799308
0.00105723
0.000764412
0.00106661
0.00073019
0.0010757
0.000696694
0.00108431
0.000663975
0.0010924
0.000632129
0.0011
0.000601234
0.00110721
0.000571272
0.00111422
0.00054229
0.00112059
0.000514292
0.00112642
0.000487315
0.00113176
0.000461347
0.00113663
0.000436428
0.00114109
0.000412492
0.00114516
0.000389529
0.00114896
0.000367554
0.00115214
0.000346548
0.00115482
0.000326488
0.00115704
0.000307843
0.00115881
0.000291218
0.00116014
0.000315924
0.00116108
0.000316861
0.00116746
0.000317712
0.00117421
0.000318487
0.00118126
0.000319393
0.00118835
0.000319872
0.00119617
0.000317982
0.00120522
0.00030504
0.0012128
0.000320767
0.00121805
0.000311841
0.00072293
0.000343177
0.000655443
0.000362067
0.000684201
0.000371729
0.000707295
0.000373182
0.000723643
0.000371133
0.000734984
0.000368381
0.000742134
0.000365917
0.000748982
0.000362898
0.000754818
0.000359992
0.000758523
0.000356346
0.00076382
0.000353857
0.000764923
0.000350625
0.000772426
0.00034932
0.000773576
0.00034737
0.000793264
0.000346463
0.000796813
0.000345487
0.000805012
0.000344797
0.000810141
0.000344519
0.000812166
0.000344734
0.000813034
0.000345236
0.00081216
0.000346049
0.00080963
0.000349298
0.000806459
0.000352305
0.000802442
0.000355776
0.000799373
0.000359448
0.000794903
0.000363122
0.000789082
0.000366393
0.000780931
0.000369447
0.000776672
0.000372984
0.000770799
0.000376106
0.00076471
0.000378849
0.000754947
0.000381948
0.000747244
0.000384965
0.000740196
0.000388828
0.00072558
0.000391747
0.000715508
0.000393917
0.000692209
0.000394983
0.00068316
0.000396019
0.000655747
0.000398442
0.000642011
0.000398994
0.000611047
0.000404841
0.000575563
0.000417463
0.000543275
0.000428747
0.00051841
0.000435698
0.000500311
0.000438437
0.000486231
0.000436607
0.000474746
0.00043036
0.00046493
0.000422041
0.000455391
0.000413828
0.000445737
0.000407967
0.000437864
0.000403931
0.000431168
0.000401623
0.000425606
0.000400335
0.000420934
0.000400311
0.000417078
0.000400867
0.000414068
0.000402602
0.000411752
0.000404636
0.000410176
0.000408645
0.000409769
0.000412419
0.000410459
0.00041839
0.000412184
0.000423436
0.00041498
0.000430961
0.000418621
0.000437087
0.000423438
0.000447341
0.000429087
0.00145407
0.00145325
0.000795976
0.00144954
0.000807953
0.00144276
0.000820252
0.00143297
0.000832823
0.00142027
0.000845671
0.00140476
0.000858774
0.00138654
0.000872113
0.00136579
0.00088565
0.00134265
0.000899363
0.0013173
0.00091322
0.00128992
0.000927173
0.00126072
0.00094117
0.00122989
0.000955206
0.00119763
0.000969218
0.00116416
0.000983117
0.00112969
0.000996933
0.00109438
0.00101061
0.00105845
0.00102405
0.0010221
0.00103726
0.000985492
0.00105024
0.000948761
0.00106287
0.000912118
0.00107511
0.000875684
0.0010871
0.000839572
0.00109864
0.000803887
0.0011097
0.000768812
0.00112031
0.000734365
0.00113065
0.000700643
0.0011404
0.000667716
0.00114957
0.000635662
0.00115819
0.000604561
0.00116641
0.000574372
0.0011744
0.000545154
0.00118168
0.00051693
0.00118837
0.000489738
0.00119451
0.00046356
0.00120012
0.00043844
0.00120527
0.000414342
0.00120999
0.000391191
0.0012145
0.000369036
0.00121848
0.000347855
0.00122187
0.000327631
0.00122479
0.00030833
0.00122721
0.000291103
0.00122919
0.00032007
0.00123077
0.000321296
0.00123709
0.000322411
0.00124379
0.000323369
0.00125072
0.000324647
0.00125795
0.000325677
0.00126526
0.00032582
0.00127604
0.000317742
0.00128273
0.000319163
0.00130641
0.000331088
0.000875611
0.00036285
0.000709516
0.000380723
0.000746932
0.000387476
0.000770012
0.000388158
0.00078376
0.000384072
0.000791757
0.000378731
0.000795623
0.000374251
0.000799165
0.000369073
0.000801963
0.000364751
0.000798241
0.000359626
0.000806953
0.000356751
0.000802881
0.000352143
0.00082078
0.000351175
0.000822711
0.000348511
0.000837613
0.000347098
0.000842949
0.00034585
0.000845574
0.000344978
0.000851587
0.000344658
0.000851979
0.000344658
0.000851729
0.000344965
0.000849875
0.000348184
0.000846199
0.000351677
0.000841734
0.000355069
0.000836605
0.000358757
0.000831516
0.000362445
0.00082637
0.000366289
0.000818483
0.000369868
0.000810296
0.000372883
0.000803971
0.000376297
0.000795543
0.000379075
0.000787577
0.000381654
0.00077267
0.000384897
0.000761956
0.000386859
0.000752262
0.000389922
0.000726511
0.000391979
0.00071515
0.000393631
0.000687657
0.000395645
0.000675188
0.000395107
0.00064411
0.000398897
0.000612541
0.000405817
0.000578337
0.00041847
0.000547642
0.000428237
0.000524422
0.000435991
0.000507836
0.000440112
0.000494658
0.000441143
0.000483602
0.000438381
0.000474461
0.00043241
0.00046577
0.000424683
0.000456498
0.000417427
0.000448127
0.000412277
0.000440893
0.000408736
0.000434677
0.000406838
0.000429283
0.000405837
0.000424675
0.00040605
0.00042081
0.000406831
0.000417708
0.00040883
0.000415231
0.000411004
0.000413417
0.000415226
0.000412692
0.000419209
0.000413025
0.000425478
0.000414429
0.000430855
0.000416961
0.000438793
0.000420375
0.000445497
0.000424829
0.000456187
0.000430251
0.00146
0.00145932
0.000807812
0.00145576
0.000821785
0.00144911
0.00083606
0.00143946
0.000850588
0.00142688
0.000865373
0.00141148
0.000880396
0.00139336
0.000895637
0.00137269
0.000911057
0.00134962
0.000926629
0.0013243
0.00094233
0.00129694
0.0009581
0.00126775
0.000973887
0.00123689
0.000989687
0.00120459
0.00100543
0.00117105
0.00102104
0.00113649
0.00103652
0.00110107
0.00105183
0.00106502
0.00106685
0.00102852
0.00108163
0.000991736
0.0010961
0.000954832
0.00111018
0.000918007
0.00112385
0.000881365
0.00113721
0.000845022
0.00115006
0.000809133
0.00116238
0.000773833
0.00117425
0.000739144
0.00118575
0.000705156
0.00119659
0.000671998
0.00120682
0.000639722
0.0012165
0.000608363
0.00122576
0.000577931
0.00123461
0.000548462
0.00124277
0.000519987
0.00125033
0.000492549
0.0012573
0.000466147
0.00126366
0.000440774
0.00126952
0.000416457
0.00127488
0.000393137
0.00127979
0.00037076
0.00128454
0.000349387
0.00128872
0.00032896
0.0012923
0.000309469
0.00129538
0.000290863
0.00129797
0.000323933
0.00130011
0.000325253
0.00130614
0.00032645
0.00131235
0.000327496
0.00131878
0.000328787
0.00132499
0.000330188
0.00133174
0.000331809
0.00134008
0.00033932
0.00134748
0.000338067
0.00134926
0.000370929
0.00110629
0.000384718
0.00079722
0.000391291
0.000799256
0.000394512
0.000819613
0.000393653
0.000831827
0.000390748
0.000838907
0.000386226
0.000842868
0.000380806
0.000843892
0.000372584
0.000850184
0.000368263
0.000837379
0.000361852
0.000847944
0.000358891
0.000845172
0.000354093
0.000863396
0.000352289
0.000869696
0.000349504
0.000875512
0.000347225
0.000885426
0.00034618
0.000885759
0.000345049
0.000890997
0.000344658
0.00089019
0.000344486
0.000888897
0.000347833
0.000886226
0.000351371
0.000879747
0.000355106
0.000873867
0.000358634
0.000867089
0.000362426
0.000860467
0.000366278
0.000853953
0.000370431
0.000843574
0.000374087
0.000834043
0.000377005
0.00082756
0.000380158
0.000812695
0.000382646
0.000800793
0.000384429
0.000781772
0.000387347
0.000761459
0.000388715
0.000750694
0.00039111
0.000720091
0.000393175
0.000708149
0.000392959
0.000674798
0.000395861
0.0006466
0.000397892
0.00061166
0.000409121
0.000577574
0.000419851
0.000551681
0.000429027
0.000531435
0.000436183
0.000515836
0.000440774
0.000503403
0.000443292
0.000492683
0.000442879
0.000483657
0.000439743
0.000475642
0.000434183
0.000467255
0.000426947
0.000458793
0.00042065
0.000451111
0.000416111
0.000444282
0.000413186
0.000438236
0.00041165
0.000432867
0.000410993
0.000428203
0.000411498
0.000424267
0.000412552
0.000421063
0.000414846
0.000418447
0.00041722
0.000416452
0.000421683
0.000415496
0.000425912
0.000415561
0.000432465
0.000416703
0.000438196
0.000418999
0.000446551
0.000422205
0.000453841
0.00042631
0.000464882
0.000431471
0.00146701
0.00146646
0.000820866
0.00146303
0.000836778
0.00145651
0.000852974
0.00144699
0.000869403
0.00143452
0.000886073
0.00141922
0.000902962
0.00140119
0.000920055
0.00138059
0.000937307
0.00135757
0.00095469
0.00133229
0.000972184
0.00130493
0.000989727
0.00127572
0.00100726
0.00124483
0.00102477
0.00121246
0.0010422
0.00117884
0.00105948
0.00114416
0.00107658
0.00110861
0.00109344
0.00107242
0.00111005
0.00103574
0.00112635
0.000998769
0.00114226
0.000961671
0.00115775
0.000924631
0.00117287
0.000887743
0.00118752
0.000851159
0.00120162
0.000815038
0.0012152
0.000779473
0.00122836
0.000744506
0.0012409
0.000710249
0.00125282
0.000676826
0.00126409
0.000644301
0.00127488
0.000612659
0.00128514
0.000581945
0.00129476
0.000552204
0.00130374
0.000523476
0.00131218
0.000495765
0.00132
0.000469094
0.00132719
0.000443472
0.00133374
0.000418859
0.0013397
0.000395315
0.00134517
0.000372732
0.00135019
0.000351125
0.00135513
0.00033048
0.00135946
0.000310787
0.00136312
0.000291997
0.00136636
0.000327521
0.00136908
0.000328913
0.00137468
0.000330206
0.00138025
0.000331309
0.00138593
0.000332452
0.00139236
0.000334109
0.00139878
0.000337973
0.00140605
0.000362833
0.00141569
0.000427526
0.00140774
0.000441375
0.00114185
0.000406313
0.000890937
0.000399685
0.000859928
0.000396683
0.000851408
0.000395589
0.000862211
0.000394851
0.000873922
0.000390673
0.000881806
0.000385439
0.000882836
0.000375306
0.000885735
0.000371522
0.000875801
0.000364408
0.000887207
0.000360584
0.000888796
0.000356378
0.000897835
0.0003529
0.000910546
0.000350584
0.000908263
0.000347795
0.000924507
0.000347014
0.000925049
0.000345587
0.000927624
0.000345067
0.000926208
0.000348439
0.000923237
0.000351764
0.000919138
0.000355349
0.000909531
0.000359153
0.000902237
0.000362633
0.000894693
0.000366527
0.000884835
0.000370381
0.000876203
0.000374242
0.000862866
0.00037852
0.000850306
0.000380905
0.00084036
0.000383567
0.000814566
0.000386408
0.000794783
0.000387509
0.000779868
0.000389493
0.000753603
0.000390238
0.000740802
0.000390901
0.000704348
0.000393615
0.000678675
0.000394215
0.000642006
0.000402949
0.000606855
0.000412702
0.00057933
0.0004218
0.000556109
0.000430115
0.000538534
0.000436778
0.00052443
0.000441415
0.000512707
0.000444415
0.000502433
0.00044544
0.000493394
0.000444248
0.000485569
0.000441046
0.000477734
0.000435607
0.000469743
0.000429074
0.000461711
0.000423726
0.000454551
0.000419915
0.000448082
0.000417474
0.000442239
0.00041627
0.00043694
0.000415919
0.000432242
0.000416705
0.000428196
0.000418028
0.00042481
0.000420625
0.000421988
0.000423236
0.000419745
0.000427964
0.0004185
0.00043249
0.00041825
0.00043932
0.000419098
0.000445421
0.000421114
0.000454201
0.000424078
0.000462093
0.000427801
0.000473411
0.000432678
0.00147508
0.00147465
0.000835151
0.00147134
0.00085294
0.00146495
0.000870996
0.00145554
0.000889268
0.00144318
0.000907766
0.00142798
0.000926465
0.00141002
0.000945353
0.00138948
0.000964385
0.0013665
0.000983525
0.00134124
0.00100276
0.00131387
0.00102202
0.00128463
0.00104125
0.00125368
0.00106042
0.00122124
0.00107949
0.00118751
0.00109839
0.00115269
0.00111705
0.001117
0.00113543
0.00108064
0.00115359
0.00104376
0.00117134
0.00100657
0.00118863
0.000969271
0.00120554
0.000931975
0.00122202
0.000894811
0.00123793
0.000857976
0.00125323
0.000821594
0.00126809
0.00078573
0.00128242
0.000750453
0.00129603
0.000715912
0.00130895
0.000682222
0.00132127
0.000649382
0.00133317
0.000617426
0.0013443
0.000586405
0.00135474
0.000556381
0.00136451
0.000527372
0.0013738
0.00049938
0.00138247
0.000472405
0.00139041
0.00044647
0.00139767
0.00042158
0.00140422
0.000397737
0.00141022
0.000374915
0.00141578
0.000353084
0.00142094
0.000332171
0.00142592
0.000312193
0.00143011
0.000293124
0.00143374
0.000330742
0.00143683
0.000332331
0.00144198
0.00033379
0.00144759
0.000335027
0.00145339
0.000336307
0.00145904
0.000338618
0.00146555
0.000346735
0.00147243
0.000397786
0.00148379
0.000518413
0.00144064
0.000476729
0.00107831
0.000435594
0.000960785
0.000408141
0.000934646
0.000401398
0.000893434
0.000399329
0.000897181
0.000399057
0.000902151
0.000394132
0.000912621
0.000388774
0.000916782
0.000378704
0.00091881
0.000373733
0.000913786
0.000366614
0.000921256
0.000361249
0.000924949
0.000357896
0.000925967
0.000353085
0.00094675
0.000351081
0.000940358
0.000348493
0.000956055
0.000346934
0.000958317
0.000345573
0.000955972
0.000348929
0.000955238
0.000352317
0.000951192
0.000355596
0.000944144
0.000359223
0.000932723
0.000363332
0.000923707
0.000366933
0.000915316
0.000370843
0.00089883
0.000374813
0.000886298
0.000378136
0.000871117
0.000382296
0.000845913
0.000384597
0.000834159
0.000386405
0.000806018
0.000389119
0.000787163
0.000388983
0.000769461
0.000389304
0.000733528
0.000390921
0.000706236
0.000391752
0.000668747
0.000399578
0.000634502
0.000407983
0.000606156
0.000416455
0.00058169
0.000424678
0.000562901
0.00043156
0.000547225
0.000437477
0.00053423
0.000441928
0.00052308
0.000445143
0.000512962
0.000446985
0.000504088
0.000447122
0.00049617
0.000445589
0.000488588
0.000442226
0.000480753
0.000436988
0.000472989
0.00043122
0.000465295
0.000426638
0.000458325
0.000423462
0.000451862
0.000421457
0.000445917
0.000420624
0.00044054
0.000420624
0.000435768
0.000421696
0.000431619
0.000423301
0.000428097
0.000426222
0.000425152
0.000429109
0.000422757
0.000434104
0.000421325
0.000438936
0.000420835
0.000446046
0.000421445
0.000452533
0.000423207
0.00046171
0.000425941
0.000470175
0.000429317
0.000481706
0.000433926
0.00148419
0.00148388