/*--------------------------------*- C++ -*----------------------------------*\
| =========                 |                                                 |
| \\      /  F ield         | OpenFOAM: The Open Source CFD Toolbox           |
|  \\    /   O peration     | Version:  2.2.x                                 |
|   \\  /    A nd           | Web:      www.OpenFOAM.org                      |
|    \\/     M anipulation  |                                                 |
\*---------------------------------------------------------------------------*/
FoamFile
{
    version     2.0;
    format      ascii;
    class       surfaceScalarField;
    location    "1.85";
    object      cfmax;
}
// * * * * * * * * * * * * * * * * * * * * * * * * * * * * * * * * * * * * * //

dimensions      [0 3 -1 0 0 0 0];

internalField   nonuniform List<scalar> 
28084
(
0.00101422
0.00100982
0.00100605
0.00100287
0.00100027
0.000998202
0.000996646
0.000995564
0.000994922
0.000994683
0.000994811
0.000995269
0.000996019
0.000997026
0.000998253
0.000999664
0.00100123
0.00100291
0.00100467
0.0010065
0.00100835
0.00101021
0.00101205
0.00101385
0.00101558
0.00101724
0.0010188
0.00102024
0.00102156
0.00102275
0.00102379
0.00102467
0.00102539
0.00102594
0.00102631
0.0010265
0.0010265
0.00102631
0.00102592
0.00102532
0.0010242
0.00101743
0.00102599
0.000868348
0.000772581
0.000756351
0.00075944
0.000766828
0.000774856
0.000782851
0.000790514
0.000798493
0.000806929
0.000815667
0.000824318
0.00083262
0.000840433
0.000847368
0.000854356
0.000861682
0.00086911
0.000876111
0.000882221
0.000887273
0.000891304
0.000895363
0.000899599
0.000903582
0.000906738
0.00090864
0.000908825
0.000908606
0.000908526
0.000908293
0.000907421
0.000905299
0.000901486
0.000896808
0.000892287
0.000887754
0.000882787
0.00087676
0.000869261
0.000861082
0.000853259
0.000845588
0.000837711
0.000829099
0.000819374
0.000809776
0.000800892
0.000792383
0.000783903
0.000775007
0.000765999
0.000758003
0.000750968
0.000744622
0.000738542
0.000732631
0.000728011
0.000724819
0.000722809
0.000721586
0.000721046
0.000722113
0.000724915
0.00072922
0.000734618
0.000741203
0.000749583
0.000759836
0.000771682
0.000784728
0.000799205
0.000815296
0.000832702
0.000851337
0.000725948
0.000724383
0.001019
0.000721305
0.0010177
0.000716739
0.00101698
0.00071072
0.00101683
0.000703295
0.00101721
0.000694525
0.0010181
0.000684478
0.00101946
0.000673231
0.00102127
0.000660871
0.00102347
0.000647708
0.00102605
0.000633965
0.00102895
0.000619332
0.00103214
0.00060391
0.00103557
0.000587804
0.00103921
0.000571117
0.00104303
0.00055395
0.00104696
0.000536403
0.001051
0.000518574
0.00105508
0.000500553
0.00105919
0.000482428
0.00106329
0.000464282
0.00106735
0.000446191
0.00107135
0.000428224
0.00107524
0.000410446
0.00107903
0.000392913
0.00108267
0.000375678
0.00108615
0.000358784
0.00108946
0.000342272
0.00109258
0.000326173
0.0010955
0.000310516
0.0010982
0.000295322
0.00110068
0.000280609
0.00110293
0.000266391
0.00110493
0.000252676
0.0011067
0.000239468
0.00110821
0.000226771
0.00110947
0.000214907
0.00111047
0.000203558
0.00111121
0.000192717
0.00111169
0.000182409
0.00111188
0.000173185
0.00111147
0.000177255
0.0011049
0.000372222
0.00111477
0.000472622
0.000944287
0.000502779
0.000839848
0.000508294
0.000820608
0.0005099
0.0008226
0.000510797
0.000829281
0.000511508
0.000836621
0.000512194
0.000843873
0.000512901
0.000850733
0.00051372
0.000857916
0.000514761
0.000865569
0.000515901
0.000873507
0.000517037
0.000881333
0.000518206
0.000888769
0.000519399
0.000895675
0.000520547
0.000901628
0.000521844
0.000907689
0.000523402
0.000914115
0.00052509
0.000920646
0.000526805
0.000926721
0.000528866
0.000931856
0.000530925
0.000935872
0.000532995
0.000938888
0.000535287
0.000941962
0.000537891
0.000945246
0.000540568
0.000948287
0.000543257
0.000950463
0.00054596
0.000951351
0.000548563
0.000950452
0.000551358
0.000949234
0.000554445
0.000948198
0.000557736
0.000947032
0.000561014
0.000945214
0.0005643
0.000942118
0.000567498
0.000937259
0.000570798
0.0009316
0.000574374
0.000926163
0.000578202
0.00092075
0.000582033
0.000914905
0.000585857
0.000907969
0.000589597
0.000899506
0.000593434
0.000890424
0.000597546
0.000881749
0.000601874
0.000873267
0.000606213
0.000864589
0.000610542
0.000855152
0.000614789
0.000844569
0.000619227
0.00083415
0.000623915
0.000824481
0.000628734
0.00081521
0.000633571
0.000805984
0.000638382
0.000796327
0.000643255
0.000786547
0.00064837
0.000777782
0.000653675
0.000769991
0.000659029
0.000762896
0.000664409
0.000756074
0.000669836
0.000749418
0.000675515
0.000744039
0.000681399
0.00074008
0.000687362
0.000737283
0.000693368
0.000735261
0.000699453
0.000733914
0.000705809
0.00073418
0.000712373
0.000736156
0.000719053
0.0007396
0.000725811
0.000744089
0.000732744
0.000749771
0.000739975
0.000757228
0.000747492
0.000766522
0.000755242
0.000777294
0.000763253
0.000789186
0.000771604
0.000802445
0.000780436
0.000817285
0.000789251
0.000833389
0.00080052
0.000850559
0.000727518
0.000725435
0.00102538
0.000721855
0.00102714
0.000716807
0.00102944
0.000710328
0.00103227
0.00070247
0.00103561
0.000693293
0.00103941
0.00068411
0.00104366
0.000673966
0.00104832
0.000662613
0.00105334
0.000650141
0.0010587
0.000636646
0.00106434
0.000622226
0.00107023
0.000606984
0.00107632
0.000591024
0.00108257
0.000574449
0.00108893
0.000557362
0.00109538
0.000539866
0.00110185
0.000522057
0.00110832
0.000504029
0.00111475
0.000485871
0.0011211
0.000467668
0.00112734
0.000449498
0.00113344
0.000431432
0.00113938
0.000413536
0.00114512
0.00039587
0.00115065
0.000378486
0.00115594
0.000361431
0.00116099
0.000344746
0.00116576
0.000328465
0.00117026
0.000312617
0.00117446
0.000297225
0.00117836
0.000282308
0.00118196
0.00026788
0.00118524
0.000253952
0.0011882
0.000240528
0.00119084
0.000227611
0.00119316
0.0002152
0.00119515
0.000203293
0.00119681
0.000192514
0.00119814
0.000182435
0.00119913
0.000173432
0.00119942
0.000177835
0.00119298
0.000374454
0.00120452
0.00047508
0.00102113
0.0005041
0.000908259
0.000509545
0.000885992
0.000511178
0.000886852
0.000512089
0.000892768
0.000512794
0.000899364
0.000513451
0.00090583
0.000514117
0.000911865
0.000514881
0.000918243
0.000515858
0.000925109
0.000516922
0.000932245
0.000517973
0.000939239
0.00051904
0.000945797
0.000520109
0.000951788
0.000521113
0.000956765
0.000522252
0.000961911
0.000523654
0.000967441
0.000525506
0.000973075
0.000527685
0.000978215
0.000529923
0.000982368
0.000532168
0.000985339
0.000534422
0.000987352
0.000536903
0.000989453
0.00053971
0.000991791
0.00054259
0.000993882
0.000545488
0.000995058
0.000548411
0.000994916
0.000551216
0.00099293
0.000554214
0.000990723
0.000557511
0.000988736
0.00056101
0.000986629
0.000564496
0.000983846
0.000567992
0.000979755
0.000571371
0.00097383
0.000574844
0.000967196
0.000578596
0.000960841
0.000582592
0.00095453
0.000586578
0.000947784
0.000590551
0.000939917
0.000594411
0.000930462
0.000598348
0.00092046
0.000602556
0.000910929
0.000606969
0.000901609
0.000611371
0.000892096
0.000615752
0.000881801
0.000620025
0.000870328
0.000624476
0.000859075
0.00062917
0.000848608
0.000633976
0.000838554
0.000638774
0.000828544
0.00064353
0.000818091
0.00064835
0.000807522
0.000653407
0.000797971
0.000658639
0.000789394
0.000663918
0.000781516
0.000669219
0.000773904
0.000674586
0.000766467
0.000680218
0.000760295
0.000686056
0.000755521
0.000691991
0.000751889
0.000697991
0.000749017
0.000704114
0.000746819
0.000710541
0.000746218
0.000717217
0.000747297
0.000724067
0.000749807
0.00073107
0.000753333
0.000738348
0.000758031
0.000746022
0.000764521
0.000754092
0.00077283
0.000762515
0.000782559
0.000771401
0.000793402
0.000780791
0.000805631
0.000790974
0.000819486
0.00080116
0.00083464
0.000813798
0.000850728
0.000726435
0.000723869
0.00103336
0.000719821
0.00103813
0.000714321
0.00104342
0.000709324
0.00104919
0.000703669
0.00105543
0.000696559
0.00106212
0.000688055
0.00106922
0.000678229
0.00107669
0.00066716
0.00108449
0.000654937
0.00109259
0.000641654
0.00110094
0.000627409
0.0011095
0.000612305
0.00111821
0.000596445
0.00112703
0.000579936
0.00113592
0.00056288
0.00114483
0.000545381
0.00115372
0.000527537
0.00116254
0.000509444
0.00117126
0.000491194
0.00117983
0.000472873
0.00118822
0.000454561
0.00119641
0.000436331
0.00120436
0.000418253
0.00121204
0.000400386
0.00121943
0.000382788
0.00122651
0.000365505
0.00123326
0.00034858
0.00123967
0.00033205
0.00124573
0.000315945
0.00125141
0.00030029
0.00125672
0.000285105
0.00126165
0.000270405
0.00126619
0.0002562
0.00127034
0.000242498
0.00127409
0.000229302
0.00127745
0.000216611
0.00128042
0.000204422
0.00128299
0.000192733
0.00128516
0.00018184
0.00128692
0.000173068
0.00128792
0.000177199
0.00128149
0.00037524
0.00129527
0.000477196
0.00109888
0.00050485
0.000978013
0.00051035
0.000952825
0.00051205
0.000952568
0.000512986
0.000957661
0.000513684
0.000963441
0.00051431
0.000969047
0.000514943
0.000974237
0.000515676
0.000979796
0.000516595
0.000985875
0.00051757
0.00099221
0.000518519
0.000998358
0.000519467
0.00100402
0.000520396
0.00100909
0.000521263
0.00101312
0.000522268
0.00101738
0.000524338
0.00102204
0.000526638
0.00102677
0.000528958
0.00103097
0.000531351
0.00103414
0.000533753
0.00103606
0.000536209
0.00103709
0.000538918
0.00103826
0.000541928
0.00103968
0.000544987
0.00104082
0.000548072
0.00104097
0.000551171
0.00103979
0.000554183
0.00103672
0.000557418
0.00103357
0.000560944
0.00103065
0.000564642
0.00102762
0.000568317
0.00102386
0.000571994
0.00101875
0.000575539
0.00101174
0.000579229
0.00100417
0.000583184
0.000996906
0.000587348
0.000989686
0.00059148
0.000982016
0.000595582
0.000973204
0.000599545
0.000962736
0.000603624
0.000951823
0.000607951
0.000941423
0.000612445
0.000931241
0.000616914
0.000920849
0.000621325
0.000909663
0.000625617
0.000897288
0.000630096
0.000885201
0.000634792
0.00087391
0.000639571
0.000863029
0.000644324
0.00085217
0.000649019
0.000840856
0.000653773
0.000829461
0.000658767
0.000819095
0.000663938
0.000809681
0.000669151
0.000800961
0.000674386
0.00079249
0.0006797
0.000784206
0.000685287
0.000777188
0.00069109
0.000771559
0.000697009
0.00076706
0.00070303
0.000763304
0.000709217
0.000760221
0.000715738
0.000758718
0.000722529
0.000758857
0.000729554
0.000760399
0.000736832
0.000762929
0.000744495
0.000766625
0.000752622
0.000772088
0.000761244
0.000779337
0.00077035
0.000787983
0.000780139
0.000797758
0.000790593
0.00080894
0.00080212
0.000821787
0.000813736
0.000835971
0.000827324
0.000851037
0.00072274
0.000721166
0.00104295
0.000720569
0.00105069
0.000718387
0.0010589
0.000714642
0.00106757
0.000709367
0.00107668
0.00070261
0.0010862
0.000694429
0.0010961
0.000684891
0.00110634
0.000674076
0.00111688
0.000662068
0.00112769
0.000648961
0.00113871
0.000634853
0.00114989
0.000619846
0.00116118
0.000604045
0.00117254
0.000587554
0.00118392
0.00057048
0.00119526
0.000552926
0.00120653
0.000534993
0.00121767
0.000516779
0.00122864
0.000498377
0.00123941
0.000479877
0.00124992
0.00046136
0.00126016
0.000442903
0.00127009
0.000424577
0.00127968
0.000406446
0.00128891
0.000388566
0.00129775
0.000370989
0.00130619
0.000353759
0.00131421
0.000336914
0.0013218
0.000320487
0.00132895
0.000304504
0.00133564
0.000288987
0.00134188
0.000273951
0.00134766
0.000259409
0.00135298
0.000245369
0.00135783
0.000231834
0.00136222
0.000218804
0.00136614
0.000206278
0.0013696
0.000194252
0.00137261
0.000182745
0.00137514
0.000172202
0.00137683
0.000174992
0.00137039
0.000373783
0.00138659
0.000478365
0.00117737
0.000505733
0.00104804
0.000511
0.0010197
0.000512614
0.00101833
0.000513543
0.00102267
0.000514248
0.00102771
0.000514869
0.00103251
0.000515468
0.00103691
0.000516153
0.0010417
0.000517003
0.00104705
0.00051789
0.00105261
0.000518737
0.00105795
0.00051957
0.00106275
0.000520372
0.00106688
0.000521522
0.00106998
0.000523528
0.00107338
0.000525864
0.00107723
0.000528322
0.00108109
0.00053081
0.00108438
0.000533366
0.00108657
0.000535916
0.00108741
0.000538545
0.00108749
0.000541458
0.00108779
0.000544677
0.00108835
0.000547933
0.00108858
0.00055122
0.00108773
0.000554508
0.00108549
0.000557719
0.00108134
0.000561152
0.00107729
0.000564903
0.00107349
0.000568809
0.00106957
0.000572693
0.00106485
0.000576561
0.00105874
0.00058028
0.00105064
0.000584151
0.00104216
0.00058829
0.00103403
0.000592621
0.00102591
0.000596909
0.0010173
0.000601145
0.00100755
0.000605219
0.000996082
0.000609407
0.000984291
0.000613826
0.000973038
0.000618389
0.000961969
0.000622909
0.000950671
0.000627347
0.000938572
0.000631649
0.000925296
0.000636143
0.000912391
0.000640842
0.000900258
0.000645602
0.000888511
0.000650313
0.000876741
0.000654946
0.0008645
0.000659635
0.000852236
0.000664566
0.00084105
0.000669671
0.000830788
0.00067481
0.000821182
0.000679967
0.000811781
0.000685215
0.000802591
0.000690747
0.000794708
0.000696514
0.000788189
0.000702421
0.000782792
0.000708461
0.000778121
0.000714714
0.000774142
0.000721334
0.000771719
0.000728268
0.000770908
0.000735503
0.000771477
0.000743086
0.00077301
0.000751143
0.000775696
0.000759729
0.000780106
0.000768927
0.000786276
0.000778749
0.000793842
0.000789447
0.000802554
0.000800938
0.000812667
0.000813743
0.000824457
0.000826766
0.000837473
0.000841173
0.000851552
0.000726371
0.00072778
0.00105414
0.00072759
0.00106479
0.000725803
0.00107588
0.000722434
0.0010874
0.000717514
0.00109932
0.000711084
0.00111162
0.000703198
0.00112428
0.000693921
0.00113725
0.000683329
0.00115049
0.000671505
0.00116395
0.00065854
0.00117759
0.000644532
0.00119135
0.000629582
0.00120519
0.000613796
0.00121905
0.000597278
0.00123287
0.000580136
0.00124661
0.000562476
0.00126021
0.0005444
0.00127363
0.000526008
0.00128683
0.000507397
0.00129974
0.000488657
0.00131235
0.000469874
0.00132461
0.000451127
0.00133649
0.00043249
0.00134796
0.000414028
0.00135899
0.000395803
0.00136957
0.000377866
0.00137966
0.000360266
0.00138927
0.000343041
0.00139836
0.000326228
0.00140695
0.000309853
0.001415
0.00029394
0.00142253
0.000278507
0.00142953
0.000263567
0.00143599
0.000249128
0.00144192
0.000235196
0.00144732
0.000221771
0.00145219
0.000208851
0.00145653
0.000196433
0.00146035
0.000184534
0.00146363
0.000173536
0.00146602
0.000172266
0.00145963
0.000371282
0.00147806
0.000479273
0.00125656
0.000506759
0.00111741
0.000511974
0.00108533
0.000513565
0.00108262
0.00051452
0.00108604
0.000515259
0.00109019
0.000515869
0.001094
0.000516439
0.00109767
0.000517075
0.00110169
0.000517861
0.00110628
0.000518666
0.00111096
0.000519413
0.00111539
0.000520132
0.00111919
0.000520919
0.00112222
0.000522816
0.00112446
0.000524968
0.00112702
0.000527441
0.00113004
0.000530009
0.00113298
0.000532622
0.0011352
0.000535321
0.00113633
0.000538018
0.001136
0.000540821
0.00113516
0.000543933
0.00113462
0.000547326
0.00113429
0.000550744
0.00113353
0.000554208
0.00113158
0.000557676
0.00112816
0.000561093
0.00112304
0.00056475
0.00111811
0.000568725
0.00111347
0.000572823
0.0011086
0.000576902
0.00110287
0.000580951
0.00109572
0.000584854
0.00108653
0.00058895
0.00107723
0.000593323
0.00106833
0.000597858
0.0010594
0.000602315
0.00104989
0.000606681
0.00103917
0.000610877
0.00102668
0.00061524
0.00101417
0.000619845
0.00100225
0.000624557
0.000990496
0.000629165
0.000978409
0.000633627
0.000965427
0.000637957
0.000951282
0.000642507
0.000937757
0.000647257
0.000925008
0.000652029
0.000912654
0.000656708
0.000900169
0.000661283
0.000887134
0.000665933
0.000874204
0.000670809
0.0008624
0.000675834
0.000851473
0.000680894
0.000841169
0.00068598
0.000830991
0.000691155
0.000821059
0.000696624
0.000812471
0.000702336
0.000805174
0.000708211
0.000798954
0.000714253
0.000793364
0.000720573
0.000788463
0.000727304
0.000785079
0.000734399
0.000783294
0.000741868
0.000782863
0.000749773
0.000783388
0.000758231
0.000785046
0.000767294
0.000788382
0.000777091
0.000793453
0.000787649
0.000799946
0.000799251
0.00080763
0.000811762
0.000816709
0.000825776
0.000827418
0.000840225
0.000839306
0.000855474
0.000852222
0.00073512
0.000736911
0.00106696
0.000737099
0.00108046
0.00073568
0.00109436
0.000732663
0.00110867
0.000728072
0.00112335
0.000721944
0.00113838
0.000714328
0.00115374
0.000705284
0.00116938
0.000694886
0.00118526
0.000683214
0.00120134
0.000670358
0.00121755
0.000656413
0.00123385
0.000641481
0.00125018
0.000625667
0.00126649
0.000609077
0.00128271
0.00059182
0.0012988
0.000574003
0.0013147
0.000555731
0.00133036
0.000537106
0.00134573
0.000518228
0.00136076
0.000499189
0.00137542
0.000480079
0.00138966
0.00046098
0.00140345
0.000441968
0.00141677
0.000423113
0.00142957
0.000404477
0.00144184
0.000386117
0.00145357
0.000368081
0.00146472
0.000350413
0.0014753
0.000333149
0.00148529
0.00031632
0.00149469
0.00029995
0.00150348
0.000284058
0.00151167
0.000268659
0.00151926
0.000253763
0.00152625
0.000239376
0.00153264
0.000225499
0.00153843
0.00021213
0.00154364
0.000199267
0.00154826
0.000186923
0.00155228
0.000175423
0.00155535
0.000169575
0.00154892
0.000369589
0.00157026
0.00048107
0.00133675
0.000507007
0.00118758
0.00051216
0.00115177
0.000513798
0.00114787
0.000514773
0.00115041
0.000515495
0.00115369
0.000516086
0.00115657
0.000516633
0.00115951
0.000517231
0.00116281
0.00051794
0.00116662
0.00051863
0.00117042
0.000519415
0.0011739
0.000521269
0.00117672
0.000523185
0.00117862
0.000525189
0.00118001
0.000527503
0.00118174
0.000530119
0.0011839
0.000532807
0.00118585
0.000535576
0.00118698
0.000538433
0.001187
0.00054126
0.00118552
0.00054425
0.00118376
0.000547574
0.00118235
0.000551146
0.00118103
0.000554734
0.00117918
0.000558382
0.00117607
0.000562041
0.00117139
0.000565682
0.00116536
0.000569567
0.00115948
0.000573779
0.00115389
0.000578057
0.00114803
0.000582319
0.00114113
0.00058655
0.00113278
0.000590662
0.00112251
0.000594977
0.00111239
0.000599559
0.00110263
0.000604229
0.00109276
0.000608824
0.00108218
0.000613315
0.00107034
0.000617624
0.00105682
0.000622119
0.0010436
0.000626831
0.00103092
0.000631587
0.00101833
0.000636208
0.00100529
0.000640643
0.00099127
0.000644968
0.000976361
0.000649491
0.000962182
0.000654235
0.000948747
0.000658939
0.000935683
0.000663546
0.000922394
0.000668002
0.000908468
0.000672562
0.000894931
0.000677388
0.000882601
0.00068235
0.000871141
0.000687318
0.000860179
0.000692277
0.000849255
0.000697375
0.000838676
0.000702792
0.000829488
0.000708471
0.000821547
0.000714347
0.000814628
0.000720446
0.00080825
0.000726839
0.000802611
0.000733678
0.000798468
0.000740939
0.000795828
0.000748645
0.000794438
0.000756873
0.000793896
0.000765734
0.000794498
0.000775282
0.000796787
0.000785685
0.000800775
0.000796966
0.000806177
0.000809453
0.000812791
0.000822974
0.000820852
0.000838173
0.000830466
0.00085411
0.00084121
0.000870254
0.000852897
0.000746369
0.000748512
0.0010814
0.000749051
0.00109768
0.000747974
0.00111434
0.000745285
0.00113137
0.000740999
0.00114875
0.000735149
0.00116646
0.000727778
0.00118446
0.000718942
0.00120272
0.00070871
0.00122119
0.00069716
0.00123981
0.000684379
0.00125855
0.000670462
0.00127733
0.000655509
0.0012961
0.000639626
0.00131481
0.00062292
0.00133338
0.0006055
0.00135177
0.000587476
0.00136992
0.000568956
0.00138777
0.000550043
0.00140527
0.000530841
0.00142238
0.000511445
0.00143904
0.000491948
0.00145522
0.000472436
0.00147089
0.000452987
0.001486
0.000433675
0.00150054
0.000414566
0.00151448
0.000395718
0.00152779
0.000377184
0.00154047
0.00035901
0.0015525
0.000341233
0.00156386
0.000323887
0.00157456
0.000306998
0.0015846
0.000290587
0.00159396
0.000274671
0.00160265
0.000259259
0.00161067
0.00024436
0.00161803
0.000229975
0.00162473
0.000216104
0.00163078
0.000202742
0.00163618
0.0001899
0.00164093
0.000177793
0.0016447
0.000167959
0.00163809
0.000365466
0.00166343
0.000482607
0.001418
0.000506857
0.00125936
0.000512103
0.0012196
0.00051376
0.00121446
0.000514737
0.00121607
0.000515426
0.00121844
0.000515986
0.00122042
0.000516518
0.00122264
0.000517096
0.00122529
0.000518261
0.00122832
0.000519956
0.00123124
0.00052176
0.00123371
0.000523704
0.00123554
0.000525697
0.00123635
0.000527823
0.00123692
0.000530329
0.0012379
0.00053309
0.00123919
0.000535881
0.00124012
0.000538776
0.00124006
0.000541764
0.00123892
0.000544736
0.00123634
0.000547955
0.00123374
0.000551514
0.00123143
0.000555259
0.00122914
0.000559012
0.00122613
0.000562829
0.00122174
0.000566634
0.00121575
0.000570521
0.00120887
0.000574693
0.00120213
0.000579135
0.00119562
0.000583615
0.00118868
0.00058806
0.00118052
0.000592435
0.00117078
0.000596757
0.00115966
0.000601322
0.00114869
0.000606144
0.00113801
0.000610994
0.00112713
0.000615726
0.00111535
0.000620303
0.00110222
0.000624757
0.0010878
0.00062941
0.00107378
0.000634257
0.00106023
0.000639059
0.00104668
0.000643706
0.00103255
0.000648123
0.00101732
0.000652492
0.00100162
0.000657063
0.000986719
0.000661776
0.000972485
0.000666396
0.000958512
0.00067087
0.000944241
0.000675159
0.000929306
0.000679652
0.000915116
0.000684402
0.000902151
0.000689247
0.000890021
0.000694087
0.000878261
0.00069889
0.000866441
0.000703879
0.00085524
0.000709239
0.00084553
0.000714886
0.000837039
0.00072075
0.000829423
0.000726852
0.000822254
0.000733332
0.000815905
0.000740332
0.00081114
0.000747842
0.000807845
0.000755872
0.000805669
0.000764389
0.000804251
0.000773632
0.000804012
0.000783655
0.000805288
0.000794664
0.000808229
0.000806646
0.000812511
0.000819983
0.000817974
0.000834514
0.000824966
0.000850918
0.000833437
0.000868366
0.000842985
0.000885403
0.000853492
0.000760067
0.000762533
0.00109748
0.000763397
0.00111648
0.000762639
0.00113582
0.000760254
0.00115551
0.000756252
0.00117552
0.000750656
0.00119583
0.000743506
0.00121641
0.000734852
0.00123722
0.000724759
0.00125822
0.000713301
0.00127934
0.000700564
0.00130053
0.000686639
0.00132174
0.000671628
0.0013429
0.000655635
0.00136395
0.00063877
0.00138482
0.000621141
0.00140546
0.000602862
0.0014258
0.000584041
0.00144579
0.000564787
0.00146537
0.000545205
0.0014845
0.000525395
0.00150312
0.000505452
0.0015212
0.000485466
0.00153869
0.00046552
0.00155557
0.000445689
0.0015718
0.000426044
0.00158736
0.000406647
0.00160223
0.000387552
0.00161639
0.000368808
0.00162983
0.000350457
0.00164254
0.000332533
0.00165452
0.000315065
0.00166576
0.000298076
0.00167626
0.000281584
0.00168602
0.0002656
0.00169506
0.000250133
0.00170336
0.000235186
0.00171095
0.000220758
0.00171782
0.000206847
0.00172398
0.000193454
0.00172944
0.000180674
0.0017339
0.000166165
0.00172721
0.000357434
0.00175675
0.000482855
0.00150014
0.000506658
0.00133077
0.000511915
0.00128664
0.000513819
0.00128033
0.000514784
0.0012809
0.000515501
0.00128211
0.000516384
0.00128334
0.000517517
0.00128491
0.00051902
0.00128706
0.000520693
0.00128941
0.000522478
0.00129152
0.000524371
0.00129301
0.000526348
0.00129372
0.000528401
0.0012934
0.000530706
0.0012934
0.000533423
0.00129391
0.000536323
0.0012945
0.000539295
0.00129447
0.000542323
0.00129324
0.000545348
0.00129063
0.000548462
0.00128728
0.000551913
0.00128406
0.000555762
0.00128121
0.000559741
0.00127812
0.000563733
0.00127397
0.000567712
0.00126837
0.000571598
0.00126088
0.000575688
0.00125334
0.00058015
0.00124601
0.000584912
0.00123867
0.000589617
0.00123066
0.000594272
0.0012213
0.000598774
0.00121008
0.000603318
0.00119809
0.00060813
0.00118641
0.000613217
0.00117486
0.000618235
0.00116295
0.000623138
0.00114997
0.000627805
0.00113545
0.000632423
0.0011201
0.000637249
0.00110527
0.000642237
0.00109078
0.000647095
0.0010762
0.000651772
0.00106087
0.000656172
0.00104434
0.000660599
0.00102772
0.000665214
0.001012
0.000669884
0.000996845
0.000674397
0.000981819
0.000678716
0.000966414
0.000682881
0.00095046
0.000687292
0.000935582
0.000691934
0.000921828
0.000696601
0.00090884
0.000701235
0.000896102
0.00070582
0.00088326
0.000710729
0.000871414
0.000716034
0.000861078
0.000721616
0.00085192
0.000727427
0.000843466
0.000733479
0.000835395
0.00074003
0.00082842
0.00074719
0.000823088
0.000754914
0.000819164
0.00076323
0.00081616
0.000772129
0.000813897
0.000781848
0.000812921
0.000792411
0.000813493
0.000804005
0.000815598
0.000816637
0.000818735
0.000830798
0.000823025
0.000846369
0.000828911
0.000864003
0.000836199
0.000882837
0.000844518
0.00090078
0.00085391
0.000776156
0.000778919
0.00111522
0.000780084
0.00113685
0.000779622
0.0011588
0.00077752
0.00118107
0.000773779
0.00120364
0.000768417
0.00122649
0.000761465
0.00124958
0.000752969
0.00127288
0.000742988
0.00129633
0.000731594
0.00131988
0.000718869
0.00134347
0.000704903
0.00136704
0.000689797
0.00139052
0.000673655
0.00141385
0.000656587
0.00143696
0.000638704
0.00145978
0.000620121
0.00148226
0.00060095
0.00150434
0.000581302
0.00152595
0.000561286
0.00154704
0.000541005
0.00156757
0.000520558
0.0015875
0.000500039
0.00160677
0.000479535
0.00162536
0.000459125
0.00164324
0.000438883
0.00166038
0.000418875
0.00167676
0.000399158
0.00169236
0.000379784
0.00170718
0.000360798
0.0017212
0.000342237
0.00173442
0.000324131
0.00174683
0.000306506
0.00175844
0.000289381
0.00176925
0.000272769
0.00177927
0.000256679
0.00178849
0.000241116
0.00179694
0.00022608
0.00180461
0.000211568
0.00181152
0.000197572
0.00181767
0.000184071
0.00182292
0.000165394
0.00181569
0.000348376
0.00185061
0.000483083
0.0015831
0.000506273
0.00140242
0.000514109
0.00135336
0.000516536
0.00134565
0.000517493
0.00134505
0.000518278
0.00134512
0.0005192
0.00134569
0.000520463
0.00134671
0.000522032
0.00134834
0.000523735
0.00134992
0.000525551
0.00135107
0.000527517
0.00135152
0.000529581
0.00135093
0.00053172
0.00134988
0.000534257
0.00134934
0.00053711
0.00134925
0.00054008
0.00134891
0.000543128
0.00134759
0.000546296
0.00134514
0.000549442
0.00134106
0.000552749
0.00133695
0.000556469
0.00133328
0.000560507
0.00132973
0.000564585
0.00132551
0.000568716
0.0013199
0.00057285
0.00131273
0.000576947
0.00130431
0.000581332
0.00129607
0.000586138
0.00128816
0.000591075
0.00127998
0.000595949
0.00127069
0.000600795
0.00125995
0.000605469
0.00124727
0.000610312
0.00123459
0.000615459
0.00122238
0.000620775
0.00121012
0.000625974
0.00119721
0.000631025
0.00118303
0.000635818
0.00116712
0.000640664
0.00115107
0.000645701
0.00113564
0.000650833
0.00112044
0.000655783
0.00110497
0.000660486
0.0010886
0.000664901
0.00107095
0.000669396
0.00105369
0.000674033
0.00103731
0.000678623
0.00102135
0.000683019
0.00100536
0.000687154
0.000988772
0.000691232
0.000972012
0.000695542
0.000956397
0.000700015
0.000941825
0.000704446
0.000927904
0.000708826
0.000914105
0.000713226
0.000900264
0.000718035
0.000887757
0.000723225
0.000876663
0.000728657
0.000866658
0.000734332
0.000857214
0.000740294
0.000848176
0.000746941
0.000840598
0.000754241
0.00083461
0.000762144
0.000829927
0.000770713
0.000825983
0.00077996
0.000822864
0.00079017
0.000821213
0.000801344
0.000821154
0.000813649
0.000822427
0.000826921
0.00082446
0.000841872
0.000827753
0.000858511
0.000832579
0.00087737
0.000838726
0.000897375
0.000845964
0.000916197
0.000854239
0.000794575
0.00079761
0.00113463
0.000799053
0.00115881
0.000798867
0.00118329
0.000797028
0.00120806
0.000793529
0.00123311
0.00078838
0.00125842
0.000781604
0.00128395
0.000773242
0.00130966
0.000763349
0.00133549
0.000751991
0.0013614
0.000739247
0.00138731
0.000725207
0.00141317
0.00070997
0.00143891
0.00069364
0.00146445
0.000676328
0.00148974
0.000658147
0.00151469
0.000639213
0.00153924
0.000619642
0.00156334
0.000599549
0.00158692
0.000579045
0.00160993
0.000558237
0.00163231
0.00053723
0.00165402
0.00051612
0.00167502
0.000494999
0.00169528
0.000473951
0.00171475
0.000453052
0.00173342
0.000432373
0.00175127
0.000411974
0.00176828
0.000391911
0.00178443
0.000372231
0.00179972
0.000352974
0.00181414
0.000334173
0.00182769
0.000315855
0.00184038
0.000298041
0.00185221
0.000280746
0.00186317
0.00026398
0.00187329
0.000247749
0.00188257
0.000232054
0.00189102
0.000216891
0.00189865
0.000202262
0.00190547
0.000188062
0.00191142
0.000164855
0.00190286
0.000336137
0.00194656
0.00048302
0.00166689
0.000507161
0.00147535
0.000517081
0.00142082
0.000519673
0.00141147
0.000520585
0.00140947
0.000521327
0.00140855
0.000522313
0.00140845
0.000523761
0.0014091
0.000525423
0.00141015
0.000527189
0.00141095
0.000529072
0.00141115
0.000531076
0.00141057
0.000533095
0.00140852
0.000535435
0.00140694
0.000538217
0.00140608
0.000541244
0.00140542
0.00054434
0.00140412
0.000547515
0.00140153
0.000550721
0.0013975
0.000553925
0.00139238
0.000557559
0.00138766
0.000561619
0.00138351
0.00056585
0.00137924
0.000570104
0.00137387
0.000574406
0.00136696
0.000578556
0.0013578
0.000582901
0.00134851
0.000587704
0.00133981
0.000592835
0.00133128
0.000597957
0.00132222
0.000603072
0.00131166
0.000608034
0.00129915
0.000612861
0.00128536
0.000618015
0.00127199
0.000623536
0.00125909
0.000629076
0.00124609
0.000634475
0.00123203
0.000639671
0.00121647
0.000644552
0.00119917
0.000649607
0.00118245
0.00065487
0.00116632
0.000660119
0.00115031
0.000665136
0.00113373
0.000669834
0.00111605
0.000674262
0.00109735
0.000678812
0.00107945
0.000683466
0.00106235
0.000687987
0.00104562
0.00069226
0.00102865
0.000696237
0.00101094
0.000700214
0.000993463
0.000704396
0.00097721
0.000708651
0.000961853
0.000712833
0.000946995
0.000716934
0.000932081
0.000721163
0.000917433
0.000725827
0.000904247
0.000730831
0.000892367
0.00073606
0.000881444
0.000741548
0.000870929
0.00074748
0.000861046
0.00075415
0.000852817
0.000761516
0.000846068
0.000769518
0.000840475
0.000778272
0.000835515
0.000787896
0.000831598
0.000798618
0.000829273
0.000810397
0.000828544
0.000823365
0.000828844
0.000837385
0.00082988
0.000853118
0.000832285
0.000870826
0.000836174
0.000890786
0.000841258
0.000911872
0.000847419
0.000931559
0.000854567
0.000815258
0.000818541
0.00115573
0.000820243
0.00118238
0.000820312
0.00120929
0.000818718
0.00123648
0.000815442
0.00126393
0.000810486
0.00129161
0.000803867
0.00131949
0.000795618
0.00134753
0.000785787
0.00137568
0.000774438
0.00140386
0.000761647
0.00143203
0.000747501
0.00146011
0.000732098
0.00148803
0.000715542
0.00151571
0.000697945
0.0015431
0.000679423