/*--------------------------------*- C++ -*----------------------------------*\
| =========                 |                                                 |
| \\      /  F ield         | OpenFOAM: The Open Source CFD Toolbox           |
|  \\    /   O peration     | Version:  2.2.x                                 |
|   \\  /    A nd           | Web:      www.OpenFOAM.org                      |
|    \\/     M anipulation  |                                                 |
\*---------------------------------------------------------------------------*/
FoamFile
{
    version     2.0;
    format      ascii;
    class       volScalarField;
    location    "1.85";
    object      p;
}
// * * * * * * * * * * * * * * * * * * * * * * * * * * * * * * * * * * * * * //

dimensions      [1 -1 -2 0 0 0 0];

internalField   nonuniform List<scalar> 
14161
(
0.2
0.2
0.2
0.2
0.2
0.2
0.2
0.2
0.2
0.2
0.2
0.2
0.2
0.2
0.2
0.2
0.2
0.2
0.2
0.2
0.2
0.2
0.2
0.2
0.2
0.2
0.2
0.2
0.2
0.2
0.2
0.2
0.2
0.2
0.2
0.2
0.2
0.2
0.200001
0.200014
0.20023
0.203668
0.259352
2.13439
6.43072
8.55741
9.04462
9.17237
9.22937
9.26361
9.28943
9.30874
9.33037
9.36396
9.4037
9.43976
9.46976
9.49399
9.5089
9.52739
9.56141
9.60258
9.6383
9.66629
9.68506
9.69521
9.71696
9.75469
9.79524
9.82748
9.85099
9.86113
9.87464
9.90543
9.94585
9.98095
10.0073
10.0201
10.0301
10.0571
10.0954
10.1304
10.157
10.1703
10.1812
10.2086
10.2452
10.2775
10.3015
10.3122
10.3283
10.3592
10.3933
10.421
10.438
10.4491
10.4738
10.506
10.5343
10.5543
10.5655
10.5862
10.6147
10.6412
10.6603
10.6718
10.691
10.7153
10.7375
10.7526
10.7642
10.7804
10.7989
10.8139
10.8229
10.8314
10.8393
10.8473
10.8553
0.2
0.2
0.2
0.2
0.2
0.2
0.2
0.2
0.2
0.2
0.2
0.2
0.2
0.2
0.2
0.2
0.2
0.2
0.2
0.2
0.2
0.2
0.2
0.2
0.2
0.2
0.2
0.2
0.2
0.2
0.2
0.2
0.2
0.2
0.2
0.2
0.2
0.2
0.200001
0.200014
0.20023
0.203669
0.259592
2.13024
6.42196
8.55508
9.04631
9.17617
9.23345
9.26728
9.29253
9.31149
9.33316
9.36701
9.40666
9.44265
9.47249
9.49644
9.51086
9.52963
9.56417
9.60546
9.64103
9.66873
9.68695
9.69703
9.7193
9.75741
9.79791
9.82996
9.85305
9.86247
9.87647
9.9079
9.94849
9.98341
10.0094
10.0214
10.0315
10.059
10.0977
10.1327
10.1589
10.1714
10.1824
10.21
10.2469
10.2793
10.303
10.3134
10.3292
10.3599
10.394
10.4219
10.4391
10.4504
10.4746
10.5062
10.5344
10.5545
10.5661
10.5868
10.6151
10.6411
10.6601
10.6715
10.6909
10.7151
10.7367
10.7511
10.7625
10.7791
10.7978
10.8123
10.8206
10.8289
10.8369
10.845
10.8527
0.2
0.2
0.2
0.2
0.2
0.2
0.2
0.2
0.2
0.2
0.2
0.2
0.2
0.2
0.2
0.2
0.2
0.2
0.2
0.2
0.2
0.2
0.2
0.2
0.2
0.2
0.2
0.2
0.2
0.2
0.2
0.2
0.2
0.2
0.2
0.2
0.2
0.2
0.200001
0.200014
0.200222
0.203548
0.256978
2.1107
6.40544
8.54947
9.04374
9.17463
9.23214
9.26585
9.29087
9.30975
9.33178
9.36606
9.40562
9.4414
9.47099
9.49475
9.50885
9.52818
9.56324
9.60443
9.63962
9.66699
9.68477
9.69509
9.71806
9.7565
9.79675
9.82842
9.85113
9.86001
9.87474
9.9069
9.94754
9.98209
10.0077
10.019
10.0296
10.0577
10.0967
10.1316
10.1574
10.1693
10.1805
10.2086
10.2458
10.2781
10.3015
10.3116
10.3275
10.3582
10.3923
10.4203
10.4375
10.449
10.4729
10.5039
10.5319
10.5521
10.5642
10.5849
10.6126
10.6383
10.657
10.6687
10.6883
10.7124
10.7337
10.7476
10.7587
10.7756
10.7942
10.8079
10.8152
10.8231
10.8308
10.8372
10.8415
0.2
0.2
0.2
0.2
0.2
0.2
0.2
0.2
0.2
0.2
0.2
0.2
0.2
0.2
0.2
0.2
0.2
0.2
0.2
0.2
0.2
0.2
0.2
0.2
0.2
0.2
0.2
0.2
0.2
0.2
0.2
0.2
0.2
0.2
0.2
0.2
0.2
0.2
0.200001
0.200013
0.200208
0.203295
0.251402
2.07576
6.38292
8.54207
9.04042
9.17176
9.22921
9.26307
9.28799
9.30721
9.32997
9.36497
9.40448
9.43981
9.46903
9.49256
9.50668
9.52692
9.56271
9.60353
9.63789
9.66472
9.68184
9.69283
9.71703
9.75602
9.79573
9.82672
9.84885
9.8571
9.87301
9.90618
9.94683
9.98085
10.0059
10.0164
10.0281
10.0569
10.0961
10.1306
10.1562
10.1674
10.1794
10.208
10.2453
10.2773
10.3004
10.3103
10.3268
10.3576
10.3911
10.4185
10.4354
10.4475
10.4716
10.5023
10.5298
10.5498
10.5622
10.5831
10.6106
10.636
10.6546
10.6665
10.6858
10.7095
10.7302
10.7437
10.7546
10.771
10.7886
10.801
10.8074
10.8147
10.8215
10.8257
10.8266
0.2
0.2
0.2
0.2
0.2
0.2
0.2
0.2
0.2
0.2
0.2
0.2
0.2
0.2
0.2
0.2
0.2
0.2
0.2
0.2
0.2
0.2
0.2
0.2
0.2
0.2
0.2
0.2
0.2
0.2
0.2
0.2
0.2
0.2
0.2
0.2
0.2
0.2
0.200001
0.200012
0.200191
0.203015
0.245242
2.0341
6.35323
8.53354
9.03978
9.17411
9.23256
9.26675
9.29123
9.31058
9.33414
9.37021
9.40992
9.44502
9.47407
9.49685
9.51082
9.53227
9.56945
9.61021
9.64394
9.67006
9.68581
9.69751
9.7234
9.76346
9.80264
9.83278
9.85374
9.86106
9.87835
9.91289
9.9535
9.98666
10.0106
10.0198
10.0324
10.062
10.1008
10.1342
10.1588
10.1688
10.1813
10.2098
10.246
10.2769
10.2989
10.3084
10.3256
10.3558
10.3882
10.4146
10.4309
10.4436
10.4687
10.4995
10.5265
10.5459
10.5585
10.5799
10.6073
10.6324
10.6507
10.6627
10.6818
10.705
10.7253
10.7385
10.7491
10.7647
10.781
10.7924
10.798
10.8039
10.8097
10.8106
10.8093
0.2
0.2
0.2
0.2
0.2
0.2
0.2
0.2
0.2
0.2
0.2
0.2
0.2
0.2
0.2
0.2
0.2
0.2
0.2
0.2
0.2
0.2
0.2
0.2
0.2
0.2
0.2
0.2
0.2
0.2
0.2
0.2
0.2
0.2
0.2
0.2
0.2
0.2
0.200001
0.200011
0.200176
0.202776
0.240231
1.98869
6.31328
8.51784
9.03262
9.17016
9.22813
9.26111
9.28424
9.30418
9.32947
9.36623
9.40445
9.43806
9.46592
9.48692
9.50112
9.52518
9.56332
9.60256
9.63449
9.65909
9.67323
9.68623
9.71401
9.75425
9.79175
9.82056
9.8394
9.84651
9.86584
9.90178
9.94151
9.97331
9.99585
10.0038
10.0183
10.0504
10.0893
10.1218
10.1451
10.1541
10.1689
10.2003
10.2374
10.268
10.2889
10.2979
10.3176
10.3502
10.3834
10.4097
10.425
10.4384
10.4644
10.4955
10.5224
10.541
10.5536
10.5755
10.6025
10.6271
10.6447
10.6572
10.6762
10.6989
10.7187
10.7318
10.7419
10.7564
10.7713
10.7815
10.7862
10.7906
10.7949
10.7933
10.7899
0.2
0.2
0.2
0.2
0.2
0.2
0.2
0.2
0.2
0.2
0.2
0.2
0.2
0.2
0.2
0.2
0.2
0.2
0.2
0.2
0.2
0.2
0.2
0.2
0.2
0.2
0.2
0.2
0.2
0.2
0.2
0.2
0.2
0.2
0.2
0.2
0.2
0.2
0.200001
0.200009
0.200153
0.202396
0.232016
1.91608
6.25456
8.49981
9.02838
9.16911
9.22619
9.25752
9.27933
9.30033
9.32814
9.36545
9.40252
9.43487
9.46172
9.48101
9.49671
9.52313
9.56216
9.60013
9.6308
9.65411
9.66755
9.68231
9.7125
9.75271
9.78864
9.81634
9.83367
9.84205
9.86384
9.90069
9.93943
9.96964
9.99075
9.99867
10.0159
10.0496
10.0877
10.1183
10.1397
10.1479
10.1658
10.1989
10.2345
10.2633
10.2813
10.2903
10.3129
10.3467
10.3791
10.4038
10.4162
10.4307
10.4586
10.4901
10.5162
10.5334
10.5463
10.5693
10.5967
10.6207
10.6375
10.6499
10.6686
10.6906
10.7096
10.7226
10.7325
10.7461
10.7598
10.7685
10.7719
10.7748
10.7776
10.7738
10.7675
0.2
0.2
0.2
0.2
0.2
0.2
0.2
0.2
0.2
0.2
0.2
0.2
0.2
0.2
0.2
0.2
0.2
0.2
0.2
0.2
0.2
0.2
0.2
0.2
0.2
0.2
0.2
0.2
0.2
0.2
0.2
0.2
0.2
0.2
0.2
0.2
0.2
0.2
0.2
0.200007
0.200121
0.20187
0.220492
1.81522
6.17859
8.47589
9.02068
9.16534
9.22137
9.25114
9.27219
9.2942
9.32506
9.36302
9.39878
9.42948
9.45552
9.47334
9.49068
9.52057
9.56008
9.59623
9.62489
9.64747
9.66064
9.67847
9.71115
9.75061
9.78408
9.80978
9.82583
9.83772
9.86251
9.90001
9.93637
9.96461
9.98294
9.99287
10.0141
10.0488
10.0851
10.1136
10.1323
10.1416
10.1632
10.1972
10.2312
10.258
10.2732
10.284
10.3094
10.3435
10.3739
10.3961
10.4063
10.4237
10.4536
10.4848
10.5093
10.5231
10.5367
10.5616
10.5896
10.6127
10.6276
10.64
10.6595
10.6815
10.6994
10.7104
10.7204
10.7333
10.7461
10.7535
10.7551
10.7561
10.7571
10.7513
10.7415
0.2
0.2
0.2
0.2
0.2
0.2
0.2
0.2
0.2
0.2
0.2
0.2
0.2
0.2
0.2
0.2
0.2
0.2
0.2
0.2
0.2
0.2
0.2
0.2
0.2
0.2
0.2
0.2
0.2
0.2
0.2
0.2
0.2
0.2
0.2
0.2
0.2
0.2
0.2
0.200006
0.20009
0.201367
0.209636
1.70214
6.08777
8.44655
9.01251
9.1637
9.2179
9.24297
9.26328
9.28705
9.32209
9.36084
9.39528
9.4238
9.44615
9.46091
9.48181
9.51775
9.55788
9.59122
9.61705
9.63396
9.64677
9.67074
9.7087
9.7476
9.77808
9.80033
9.81109
9.8273
9.8579
9.89657
9.93005
9.9557
9.96919
9.9811
10.0072
10.0436
10.0775
10.104
10.1188
10.1299
10.1554
10.1908
10.2234
10.2486
10.2616
10.2755
10.3039
10.3382
10.3669
10.3865
10.3964
10.4177
10.4489
10.4782
10.5002
10.511
10.5272
10.554
10.5817
10.6027
10.6142
10.628
10.649
10.6709
10.6866
10.6958
10.7055
10.7183
10.7301
10.7355
10.7354
10.7348
10.7333
10.7251
10.7113
0.2
0.2
0.2
0.2
0.2
0.2
0.2
0.2
0.2
0.2
0.2
0.2
0.2
0.2
0.2
0.2
0.2
0.2
0.2
0.2
0.2
0.2
0.2
0.2
0.2
0.2
0.2
0.2
0.2
0.2
0.2
0.2
0.2
0.2
0.2
0.2
0.2
0.2
0.2
0.200003
0.200048
0.200805
0.198625
1.56642
5.97569
8.41295
9.00674
9.16363
9.21513
9.23752
9.25761
9.28585
9.32411
9.36134
9.39328
9.41987
9.43838
9.45409
9.48179
9.52156
9.55888
9.58823
9.61113
9.62335
9.63951
9.67155
9.71172
9.74636
9.77281
9.78955
9.79822
9.82066
9.85745
9.89528
9.92466
9.94608
9.95459
9.97012
10.0022
10.0403
10.0716
10.0948
10.1052
10.1195
10.149
10.1852
10.216
10.2384
10.2488
10.2662
10.2972
10.3305
10.3579
10.3745
10.3858
10.4103
10.4421
10.4697
10.4888
10.4989
10.5187
10.5464
10.5719
10.5897
10.5989
10.6157
10.6381
10.6584
10.6708
10.678
10.6885
10.7018
10.7118
10.7139
10.7125
10.7111
10.7064
10.6958
10.6774
0.2
0.2
0.2
0.2
0.2
0.2
0.2
0.2
0.2
0.2
0.2
0.2
0.2
0.2
0.2
0.2
0.2
0.2
0.2
0.2
0.2
0.2
0.2
0.2
0.2
0.2
0.2
0.2
0.2
0.2
0.2
0.2
0.2
0.2
0.2
0.2
0.2
0.2
0.2
0.2
0.200035
0.200396
0.187829
1.40193
5.83424
8.36647
8.99514
9.15868
9.20608
9.22678
9.24829
9.28232
9.32216
9.35768
9.3869
9.41034
9.42349
9.443
9.47932
9.52069
9.55462
9.5806
9.59722
9.606
9.62905
9.66822
9.70851
9.73941
9.76157
9.76917
9.7815
9.81164
9.85311
9.8892
9.91621
9.92988
9.93607
9.95844
9.99564
10.0341
10.0638
10.0829
10.0892
10.1086
10.1424
10.1787
10.2077
10.2264
10.2354
10.2573
10.2901
10.3223
10.3474
10.3608
10.3749
10.402
10.4331
10.459
10.475
10.4863
10.5092
10.537
10.5602
10.5744
10.5842
10.6035
10.6257
10.6431
10.6518
10.659
10.6709
10.6839
10.6902
10.6895
10.6874
10.6846
10.6768
10.6632
10.6407
0.2
0.2
0.2
0.2
0.2
0.2
0.2
0.2
0.2
0.2
0.2
0.2
0.2
0.2
0.2
0.2
0.2
0.2
0.2
0.2
0.2
0.2
0.2
0.2
0.2
0.2
0.2
0.2
0.2
0.2
0.2
0.2
0.2
0.2
0.2
0.2
0.2
0.199999
0.19999
0.199965
0.200512
0.204607
0.180225
1.22216
5.66939
8.3173
8.98428
9.15103
9.19643
9.21904
9.24491
9.28198
9.32005
9.35294
9.37966
9.39893
9.41284
9.43717
9.47558
9.5148
9.54617
9.56992
9.58263
9.5953
9.62238
9.66261
9.70033
9.72852
9.74768
9.75265
9.76981
9.80449
9.84549
9.87875
9.90297
9.91137
9.92152
9.94957
9.98935
10.0252
10.0523
10.0646
10.0724
10.0979
10.1352
10.1704
10.1972
10.2103
10.2206
10.2468
10.2815
10.3124
10.3352
10.3459
10.3633
10.3923
10.4224
10.4464
10.4595
10.4732
10.4982
10.525
10.5462
10.5573
10.5692
10.5898
10.6107
10.6249
10.6312
10.6398
10.6522
10.6631
10.6654
10.6629
10.6602
10.6556
10.6442
10.6274
10.6001
0.2
0.2
0.2
0.2
0.2
0.2
0.2
0.2
0.2
0.2
0.2
0.2
0.2
0.2
0.2
0.2
0.2
0.2
0.2
0.2
0.2
0.2
0.2
0.2
0.2
0.2
0.2
0.2
0.2
0.2
0.2
0.2
0.2
0.2
0.2
0.2
0.2
0.2
0.200007
0.200084
0.200797
0.204154
0.165645
1.01033
5.47004
8.25777
8.97229
9.14358
9.18706
9.21206
9.24277
9.28032
9.31563
9.34537
9.36956
9.38451
9.4012
9.43193
9.4725
9.50871
9.53657
9.55688
9.56604
9.58314
9.61639
9.65782
9.69249
9.71804
9.731
9.73845
9.76057
9.79856
9.83824
9.86846
9.88835
9.89257
9.90828
9.94128
9.98141
10.0142
10.037
10.0439
10.0569
10.0877
10.1266
10.1593
10.1826
10.19
10.2046
10.2358
10.2715
10.3009
10.3201
10.3288
10.3499
10.3807
10.4101
10.4322
10.4429
10.4592
10.4853
10.5109
10.5299
10.5392
10.5533
10.5741
10.593
10.6047
10.6098
10.6192
10.6309
10.6387
10.6381
10.6348
10.6314
10.6234
10.6075
10.588
10.5568
0.2
0.2
0.2
0.2
0.2
0.2
0.2
0.2
0.2
0.2
0.2
0.2
0.2
0.2
0.2
0.2
0.2
0.2
0.2
0.2
0.2
0.2
0.2
0.2
0.2
0.2
0.2
0.2
0.2
0.2
0.2
0.2
0.2
0.2
0.2
0.2
0.2
0.2
0.200001
0.200016
0.200392
0.200655
0.151142
0.76135
5.21862
8.18385
8.95903
9.13623
9.17738
9.20584
9.24134
9.27825
9.31095
9.33777
9.35873
9.36984
9.38935
9.42564
9.46731
9.50123
9.52677
9.54331
9.55067
9.57111
9.60863
9.64986
9.68224
9.70571
9.71436
9.72384
9.75085
9.79079
9.82799
9.85602
9.87186
9.87524
9.89518
9.93174
9.97104
10.0013
10.0204
10.0244
10.0422
10.0766
10.1149
10.1456
10.1642
10.1694
10.1897
10.2239
10.2593
10.2871
10.3011
10.3104
10.3351
10.3674
10.3961
10.4158
10.4252
10.4435
10.47
10.4945
10.5116
10.5201
10.5356
10.5558
10.5728
10.5823
10.5875
10.5966
10.6064
10.6111
10.609
10.6049
10.5992
10.5877
10.5676
10.5458
10.5092
0.2
0.2
0.2
0.2
0.2
0.2
0.2
0.2
0.2
0.2
0.2
0.2
0.2
0.2
0.2
0.2
0.2
0.2
0.2
0.2
0.2
0.2
0.2
0.2
0.2
0.2
0.2
0.2
0.2
0.2
0.2
0.2
0.2
0.2
0.2
0.2
0.2
0.2
0.199997
0.199926
0.199066
0.194264
0.148356
0.541988
4.95069
8.07134
8.94313
9.1297
9.17267
9.20251
9.23599
9.27015
9.3013
9.32642
9.34315
9.35746
9.38048
9.41805
9.45783
9.4904
9.51459
9.52731
9.53656
9.562
9.60057
9.63835
9.66808
9.68945
9.69513
9.70747
9.73805
9.77971
9.81531
9.84223
9.8551
9.85917
9.88188
9.91935
9.95726
9.98651
10.0027
10.0067
10.0279
10.0636
10.1003
10.1288
10.1433
10.1513
10.175
10.2105
10.2442
10.269
10.2787
10.2916
10.3197
10.3525
10.3799
10.3966
10.4057
10.4261
10.4526
10.4763
10.4915
10.4999
10.516
10.5352
10.5505
10.5583
10.5634
10.5715
10.5791
10.5809
10.5776
10.5725
10.5634
10.5485
10.5249
10.5001
10.4584
0.2
0.2
0.2
0.2
0.2
0.2
0.2
0.2
0.2
0.2
0.2
0.2
0.2
0.2
0.2
0.2
0.2
0.2
0.2
0.2
0.2
0.2
0.2
0.2
0.2
0.2
0.2
0.2
0.2
0.2
0.2
0.2
0.2
0.2
0.2
0.2
0.2
0.200001
0.200017
0.200192
0.200794
0.198559
0.15712
0.289156
4.59366
7.90258
8.90435
9.11175
9.1687
9.20463
9.23543
9.26305
9.2877
9.30612
9.3227
9.34897
9.38463
9.41769
9.44598
9.47019
9.49016
9.5038
9.52182
9.55202
9.59067
9.62438
9.65023
9.66951
9.68083
9.69591
9.72345
9.76218
9.79738
9.82287
9.83504
9.84476
9.86806
9.90266
9.93731
9.96619
9.98329
9.99011
10.0131
10.0479
10.0816
10.1081
10.122
10.1338
10.1597
10.1945
10.2252
10.2468
10.2561
10.2738
10.3041
10.3356
10.3603
10.3731
10.3845
10.4074
10.4339
10.4561
10.4689
10.4779
10.4944
10.5125
10.526
10.5322
10.537
10.5439
10.5498
10.5488
10.5434
10.5362
10.5247
10.5067
10.4798
10.4513
10.4042
0.2
0.2
0.2
0.2
0.2
0.2
0.2
0.2
0.2
0.2
0.2
0.2
0.2
0.2
0.2
0.2
0.2
0.2
0.2
0.2
0.2
0.2
0.2
0.2
0.2
0.2
0.2
0.2
0.2
0.2
0.2
0.2
0.2
0.2
0.2
0.2
0.2
0.200001
0.200015
0.200172
0.200577
0.197533
0.170557
0.306732
4.12846
7.63038
8.80097
9.07195
9.14373
9.16696
9.18598
9.2137
9.25286
9.29187
9.32468
9.34975
9.36421
9.37925
9.40199
9.43941
9.47931
9.5125
9.53817
9.55066
9.56291
9.5832
9.61509
9.64963
9.67915
9.70302
9.72097
9.74004
9.76318
9.78831
9.81272
9.83571
9.85894
9.88721
9.91569
9.9402
9.95923
9.9749
9.99983
10.0316
10.0606
10.0846
10.0999
10.1162
10.1442
10.1763
10.2036
10.2219
10.234
10.2566
10.2871
10.3155
10.3366
10.3466
10.3628
10.3881
10.414
10.4334
10.4433
10.4536
10.4707
10.4879
10.4992
10.5036
10.5082
10.5142
10.5183
10.5145
10.5071
10.4966
10.4835
10.4619
10.4324
10.3992
10.347
0.2
0.2
0.2
0.2
0.2
0.2
0.2
0.2
0.2
0.2
0.2
0.2
0.2
0.2
0.2
0.2
0.2
0.2
0.2
0.2
0.2
0.2
0.2
0.2
0.2
0.2
0.2
0.2
0.2
0.2
0.2
0.2
0.2
0.2
0.2
0.2
0.2
0.2
0.200001
0.200008
0.200033
0.200148
0.200451
0.38126
3.65364
7.3227
8.69957
9.03028
9.12228
9.14771
9.1655
9.19328
9.23363
9.27389
9.30595
9.33097
9.34242
9.35347
9.37722
9.41582
9.45565
9.48685
9.5096
9.52014
9.52757
9.55067
9.58966
9.62865
9.65827
9.67845
9.6885
9.70094
9.72647
9.76365
9.8003
9.82918
9.84943
9.86256
9.88117
9.90445
9.93078
9.95877
9.9863
10.0122
10.0365
10.0582
10.0757
10.0982
10.1274
10.1552
10.1786
10.1949
10.2123
10.2383
10.2674
10.2921
10.3089
10.3204
10.3416
10.3679
10.391
10.4064
10.4141
10.4277
10.4455
10.4613
10.47
10.4724
10.4774
10.4825
10.4839
10.4775
10.4683
10.4549
10.4396
10.4142
10.382
10.3438
10.2865
0.2
0.2
0.2
0.2
0.2
0.2
0.2
0.2
0.2
0.2
0.2
0.2
0.2
0.2
0.2
0.2
0.2
0.2
0.2
0.2
0.2
0.2
0.2
0.2
0.2
0.2
0.2
0.2
0.2
0.2
0.2
0.2
0.2
0.2
0.2
0.2
0.2
0.2
0.2
0.200002
0.200028
0.200449
0.207561
0.356171
3.0722
6.98575
8.60646
8.99694
9.10274
9.1312
9.15075
9.18125
9.22199
9.25932
9.28942
9.31275
9.3264
9.33954
9.36694
9.40628
9.44148
9.46796
9.48686
9.49359
9.50768
9.53869
9.57779
9.6111
9.63511
9.6475
9.65142
9.66933
9.70621
9.74709
9.77872
9.80008
9.80939
9.81854
9.84172
9.87781
9.91608
9.94782
9.97065
9.98497
10.0022
10.0232
10.0487
10.0786
10.1073
10.1312
10.1498
10.1676
10.1905
10.2182
10.2441
10.265
10.2788
10.2956
10.3197
10.3445
10.3637
10.3746
10.3847
10.4014
10.4192
10.4321
10.4373
10.4394
10.4443
10.4487
10.4463
10.4377
10.4269
10.4112
10.393
10.3633
10.3287
10.2854
10.223
0.2
0.2
0.2
0.2
0.2
0.2
0.2
0.2
0.2
0.2
0.2
0.2
0.2
0.2
0.2
0.2
0.2
0.2
0.2
0.2
0.2
0.2
0.2
0.2
0.2
0.2
0.2
0.2
0.2
0.2
0.2
0.2
0.2
0.2
0.2
0.2
0.2
0.2
0.2
0.200001
0.200015
0.200233
0.203603
0.274755
2.43327
6.60032
8.50947
8.96096
9.07516
9.10996
9.13587
9.17015
9.20886
9.24217
9.26947
9.29124
9.30564
9.32366
9.3555
9.39326
9.42398
9.44772
9.46329
9.47251
9.49216
9.52641
9.56244
9.59018
9.60997
9.61777
9.62721
9.65272
9.69038
9.72513
9.74983
9.76358
9.76571
9.78289
9.81939
9.8612
9.89568
9.919
9.93024
9.93889
9.96059
9.99237
10.0287
10.0614
10.0867
10.1011
10.1175
10.1397
10.1676
10.1951
10.2177
10.2334
10.2489
10.2709
10.2958
10.3172
10.3321
10.3414
10.356
10.3741
10.3901
10.3987
10.401
10.4054
10.41
10.4111
10.4058
10.3956
10.3835
10.3648
10.3435
10.3095
10.2725
10.2243
10.1561
0.2
0.2
0.2
0.2
0.2
0.2
0.2
0.2
0.2
0.2
0.2
0.2
0.2
0.2
0.2
0.2
0.2
0.2
0.2
0.2
0.2
0.2
0.2
0.2
0.2
0.2
0.2
0.2
0.2
0.2
0.2
0.2
0.2
0.2
0.2
0.2
0.2
0.2
0.2
0.200001
0.200009
0.2001
0.200803
0.206537
1.76316
6.11531
8.38619
8.93097
9.0564
9.09667
9.13091
9.16619
9.19866
9.22697
9.25056
9.26811
9.28414
9.31022
9.346
9.37926
9.40607
9.42705
9.43973
9.45291
9.47623
9.50996
9.54179
9.56622
9.58378
9.59092
9.60587
9.63525
9.66981
9.69774
9.71845
9.72727
9.73719
9.76226
9.80039
9.83598
9.86115
9.87464
9.87785
9.89781
9.93438
9.97638
10.0118
10.0365
10.0489
10.0581
10.0795
10.1095
10.1417
10.1689
10.1862
10.199
10.2197
10.2448
10.2682
10.2859
10.2966
10.309
10.3266
10.3443
10.3558
10.3604
10.3632
10.3692
10.3743
10.3702
10.3618
10.3508
10.3381
10.3156
10.2903
10.2528
10.2137
10.1605
10.0857
0.2
0.2
0.2
0.2
0.2
0.2
0.2
0.2
0.2
0.2
0.2
0.2
0.2
0.2
0.2
0.2
0.2
0.2
0.2
0.2
0.2
0.2
0.2
0.2
0.2
0.2
0.2
0.2
0.2
0.2
0.2
0.2
0.2
0.2
0.2
0.2
0.2
0.2
0.2
0.200005
0.200064
0.200695
0.203346
0.168235
1.06237
5.5336
8.24778
8.91139
9.05461
9.0998
9.12981
9.15673
9.18294
9.20689
9.22772
9.24505
9.26827
9.29899
9.32922
9.35543
9.37795
9.39698
9.41205
9.43183
9.45902
9.48891
9.5149
9.53716
9.55343
9.56624
9.5872
9.61728
9.64623
9.66859
9.68511
9.69465
9.71176
9.74196
9.77597
9.803
9.82167
9.8286
9.84164
9.8732
9.91423
9.95063
9.97605
9.98893
9.99301
10.0146
10.0478
10.0857
10.1189
10.1414
10.1473
10.1636
10.1896
10.2162
10.2373
10.2498
10.2598
10.2766
10.2954
10.3105
10.3176
10.3198
10.3254
10.3317
10.3354
10.3263
10.3153
10.3037
10.2902
10.2633
10.2339
10.1935
10.1519
10.0938
10.0119
0.2
0.2
0.2
0.2
0.2
0.2
0.2
0.2
0.2
0.2
0.2
0.2
0.2
0.2
0.2
0.2
0.2
0.2
0.2
0.2
0.2
0.2
0.2
0.2
0.2
0.2
0.2
0.2
0.2
0.2
0.2
0.2
0.2
0.2
0.2
0.2
0.2
0.2
0.2
0.199998
0.199964
0.199605
0.197294
0.156188
0.36377
4.83599
8.0409
8.87078
9.0532
9.10667
9.13592
9.15545
9.17266
9.1913
9.21648
9.24566
9.27344
9.29717
9.31691
9.33247
9.34804
9.3681
9.39425
9.4223
9.44747
9.46823
9.48513
9.49631
9.51298
9.53488
9.56188
9.58985
9.61506
9.63484
9.64736
9.66273
9.68615
9.71757
9.74539
9.76682
9.78003
9.79112
9.81437
9.85055
9.88616
9.91201
9.92665
9.93122
9.95116
9.9865
10.0274
10.0625
10.0866
10.0943
10.1018
10.1266
10.1572
10.1843
10.2025
10.209
10.2231
10.2425
10.2609
10.2721
10.2757
10.2795
10.2865
10.2924
10.2906
10.279
10.2675
10.254
10.2385
10.2078
10.1752
10.1316
10.0867
10.0238
9.93523
0.2
0.2
0.2
0.2
0.2
0.2
0.2
0.2
0.2
0.2
0.2
0.2
0.2
0.2
0.2
0.2
0.2
0.2
0.2
0.2
0.2
0.2
0.2
0.2
0.2
0.2
0.2
0.2
0.2
0.2
0.2
0.2
0.2
0.2
0.2
0.2
0.2
0.2
0.2
0.2
0.199995
0.199952
0.199678
0.189562
0.278838
3.94349
7.55146
8.68369
8.94137
9.02431
9.06486
9.08926
9.11026
9.13414
9.16457
9.19486
9.22136
9.24346
9.2604
9.27431
9.29399
9.32222
9.35206
9.37789
9.39905
9.41526
9.42891
9.44781
9.47485
9.5051
9.53222
9.55468
9.57316
9.5859
9.60395
9.62726
9.65743
9.68622
9.70974
9.72554
9.73795
9.75721
9.78809
9.8216
9.8482
9.86619
9.87428
9.89037
9.92368
9.96377
9.99897
10.0228
10.032
10.0368
10.0599
10.0923
10.1254
10.1523
10.1605
10.1667
10.1857
10.2067
10.2227
10.2294
10.2313
10.2386
10.2462
10.2473
10.2409
10.23
10.2188
10.2014
10.1822
10.1492
10.1141
10.0672
10.0178
9.95034
9.85585
0.2
0.2
0.2
0.2
0.2
0.2
0.2
0.2
0.2
0.2
0.2
0.2
0.2
0.2
0.2
0.2
0.2
0.2
0.2
0.2
0.2
0.2
0.2
0.2
0.2
0.2
0.2
0.2
0.2
0.2
0.2
0.2
0.2
0.2
0.2
0.2
0.2
0.2
0.2
0.2
0.200001
0.200012
0.200222
0.203544
0.279257
2.97312
6.95901
8.52548
8.89481
9.00298
9.04559
9.06796
9.08851
9.11494
9.14535
9.17304
9.19648
9.21593
9.22905
9.24268
9.26579
9.29525
9.32236
9.3445
9.36207
9.3734
9.38803
9.41201
9.44266
9.47131
9.49492
9.513
9.5243
9.54142
9.56596
9.59635
9.62586
9.6507
9.66884
9.67994
9.69798
9.72512
9.75771
9.78513
9.80546
9.81719
9.83071
9.85865
9.89669
9.93105
9.95447
9.96523
9.97154
9.99502
10.0295
10.0662
10.0962
10.1097
10.1081
10.1239
10.1471
10.1684
10.181
10.1819
10.1865
10.195
10.2031
10.1978
10.1882
10.1794
10.1681
10.1458
10.1218
10.0884
10.0494
9.99975
9.9455
9.87447
9.77426
0.2
0.2
0.2
0.2
0.2
0.2
0.2
0.2
0.2
0.2
0.2
0.2
0.2
0.2
0.2
0.2
0.2
0.2
0.2
0.2
0.2
0.2
0.2
0.2
0.2
0.2
0.2
0.2
0.2
0.2
0.2
0.2
0.2
0.2
0.2
0.2
0.2
0.2
0.2
0.2
0.199999
0.199992
0.199953
0.198923
0.197294
1.91227
6.26909
8.35712
8.85522
8.98566
9.02804
9.05026
9.07189
9.09763
9.12437
9.14895
9.17005
9.18778
9.20056
9.21673
9.24116
9.26879
9.29278
9.31265
9.32812
9.33873
9.35503
9.38086
9.40934
9.43363
9.45329
9.46649
9.47935
9.49892
9.52704
9.55735
9.58386
9.60528
9.61682
9.63208
9.65668
9.68913
9.71969
9.74353
9.75742
9.76993
9.79332
9.82779
9.86177
9.88653
9.89974
9.90715
9.92866
9.96383
10.0012
10.032
10.0479
10.0476
10.0581
10.0821
10.108
10.1292
10.1332
10.1318
10.1407
10.15
10.155
10.1454
10.1342
10.1264
10.1136
10.0877
10.0575
10.0243
9.98164
9.92957
9.87065
9.79662
9.68909
0.2
0.2
0.2
0.2
0.2
0.2
0.2
0.2
0.2
0.2
0.2
0.2
0.2
0.2
0.2
0.2
0.2
0.2
0.2
0.2
0.2
0.2
0.2
0.2
0.2
0.2
0.2
0.2
0.2
0.2
0.2
0.2
0.2
0.2
0.2
0.2
0.2
0.2
0.2
0.2
0.199997
0.199948
0.19958
0.194341
0.142426
0.792634
5.43076
8.18797
8.84186
8.98285
9.01593
9.03312
9.05176
9.07368
9.09594
9.11666
9.13589
9.15208
9.16883
9.18866
9.21312
9.23705
9.25816
9.27696
9.29261
9.30699
9.32698
9.35266
9.37706
9.3979
9.41527
9.42744
9.44331
9.46528
9.49201
9.51735
9.53931
9.55589
9.56827
9.58854
9.61618
9.64748
9.67516
9.69606
9.70585
9.72464
9.75595
9.79043
9.81764
9.83508
9.84343
9.86137
9.89506
9.93236
9.96257
9.97866
9.98097
9.99049
10.0147
10.0446
10.0726
10.0818
10.0763
10.0818
10.0936
10.1039
10.101
10.0899
10.0793
10.0707
10.0547
10.027
9.99194
9.95741
9.91098
9.85607
9.79259
9.7155
9.60164
0.2
0.2
0.2
0.2
0.2
0.2
0.2
0.2
0.2
0.2
0.2
0.2
0.2
0.2
0.2
0.2
0.2
0.2
0.2
0.2
0.2
0.2
0.2
0.2
0.2
0.2
0.2
0.2
0.2
0.2
0.2
0.2
0.2
0.2
0.2
0.2
0.2
0.2
0.2
0.2
0.2
0.199993
0.199894
0.198012
0.169935
0.129068
4.28334
7.73005
8.70756
8.91156
8.96232
8.9887
9.01183
9.03337
9.05436
9.07467
9.09508
9.11708
9.1398
9.16216
9.18318
9.20244
9.2203
9.23646
9.25329
9.27306
9.29548
9.31687
9.336
9.3533
9.36694
9.38293
9.40409
9.42913
9.4533
9.47496
9.49342
9.50698
9.52578
9.54908
9.57694
9.60473
9.62957
9.64497
9.65798
9.68298
9.71613
9.74598
9.76838
9.77963
9.79363
9.82303
9.85984
9.89055
9.90804
9.91317
9.92263
9.94718
9.97948
10.0095
10.025
10.0184
10.0192
10.0328
10.0475
10.0528
10.0416
10.0321
10.0225
10.0123
9.99115
9.96191
9.92548
9.88814
9.83686
9.77892
9.71178
9.63194
9.51099
0.2
0.2
0.2
0.2
0.2
0.2
0.2
0.2
0.2
0.2
0.2
0.2
0.2
0.2
0.2
0.2
0.2
0.2
0.2
0.2
0.2
0.2
0.2
0.2
0.2
0.2
0.2
0.2
0.2
0.2
0.2
0.2
0.2
0.2
0.2
0.2
0.2
0.2
0.2
0.2
0.2
0.2
0.200005
0.200111
0.202308
0.264895
3.03986
6.9881
8.46356
8.8094
8.90881
8.95096
8.97703
8.99645
9.01389
9.03069
9.04863
9.06801
9.08809
9.10771
9.12625
9.1437
9.16026
9.17665
9.19545
9.21705
9.23867
9.2588
9.2774
9.29416
9.31045
9.33066
9.35516
9.38019
9.403
9.42312
9.43885
9.45756
9.48119
9.50797
9.53436
9.55847
9.57891
9.59277
9.61285
9.64091
9.67165
9.69705
9.71458
9.72566
9.74849
9.78253
9.81427
9.83548
9.84461
9.85348
9.87796
9.91111
9.94128
9.95955
9.95661
9.95417
9.9673
9.98513
10.0004
9.99261
9.97962
9.97367
9.96381
9.95132
9.92359
9.89322
9.85709
9.81648
9.75977
9.6987
9.62821
9.54543
9.4184
0.2
0.2
0.2
0.2
0.2
0.2
0.2
0.2
0.2
0.2
0.2
0.2
0.2
0.2
0.2
0.2
0.2
0.2
0.2
0.2
0.2
0.2
0.2
0.2
0.2
0.2
0.2
0.2
0.2
0.2
0.2
0.2
0.2
0.2
0.2
0.2
0.2
0.2
0.2
0.2
0.2
0.199999
0.199991
0.199932
0.198785
0.188626
1.7081
6.09573
8.23194
8.73942
8.86388
8.91004
8.93605
8.95653
8.97553
8.99475
9.0144
9.03369
9.0525
9.07049
9.08763
9.10432
9.12123
9.13896
9.15823
9.17811
9.19744
9.21586
9.2337
9.25071
9.26819
9.28878
9.31131
9.33304
9.3533
9.37117
9.38717
9.4076
9.43256
9.45867
9.48306
9.50447
9.52085
9.54079
9.56573
9.59433
9.62212
9.64492
9.65846
9.67647
9.70527
9.73684
9.76134
9.77603
9.78406
9.80476
9.8372
9.86796
9.88736
9.88954
9.88711
9.89834
9.92036
9.94185
9.94064
9.92443
9.91814
9.91489
9.90293
9.88446
9.8536
9.82348
9.78508
9.74094
9.67991
9.61635
9.54278
9.45661
9.32138
0.2
0.2
0.2
0.2
0.2
0.2
0.2
0.2
0.2
0.2
0.2
0.2
0.2
0.2
0.2
0.2
0.2
0.2
0.2
0.2
0.2
0.2
0.2
0.2
0.2
0.2
0.2
0.2
0.2
0.2
0.2
0.2
0.2
0.2
0.2
0.2
0.2
0.2
0.2
0.2
0.2
0.199998
0.19996
0.199588
0.197312
0.157914
0.343401
4.89693
7.95126
8.68986
8.84721
8.88889
8.90785
8.92334
8.93933
8.95706
8.97601
8.99383
9.0105
9.02652
9.04235
9.05978
9.07905
9.09857
9.11732
9.13513
9.15218
9.16949
9.18777
9.20675
9.22627
9.24598
9.2656
9.28466
9.30279
9.31979
9.33858
9.36017
9.38399
9.40768
9.4298
9.44845
9.46552
9.48835
9.51466
9.54195
9.56727
9.58673
9.6016
9.62628
9.65704
9.68387
9.7036
9.71446
9.73105
9.76028
9.79086
9.81168
9.81856
9.81863
9.82955
9.85253
9.87751
9.88443
9.86663
9.85883
9.85686
9.85587
9.83758
9.81049
9.78165
9.75278
9.70878
9.66106
9.59802
9.53234
9.45464
9.36423
9.22279
0.2
0.2
0.2
0.2
0.2
0.2
0.2
0.2
0.2
0.2
0.2
0.2
0.2
0.2
0.2
0.2
0.2
0.2
0.2
0.2
0.2
0.2
0.2
0.2
0.2
0.2
0.2
0.2
0.2
0.2
0.2
0.2
0.2
0.2
0.2
0.2
0.2
0.2
0.2
0.2
0.2
0.2
0.199998
0.199997
0.200091
0.201454
0.254713
3.39369
7.19736
8.43094
8.72127
8.80759
8.84554
8.86943
8.89062
8.91107
8.93042
8.94851
8.96526
8.98049
8.99572
9.01312
9.03193
9.05013
9.06732
9.08371
9.09893
9.11469
9.13224
9.15124
9.17092
9.19047
9.20968
9.22846
9.2467
9.26623
9.28779
9.31068
9.33347
9.35524
9.37541
9.3933
9.4146
9.43821
9.46368
9.48898
9.51219
9.52881
9.54829
9.5754
9.6039
9.62717
9.64258
9.65606
9.68082
9.71048
9.73354
9.74492
9.74862
9.75943
9.7819
9.80597
9.81882
9.80799
9.79436
9.79625
9.79705
9.79399
9.76528
9.73458
9.70912
9.67902
9.62914
9.5784
9.51396
9.44591
9.36402
9.26988
9.11999
0.2
0.2
0.2
0.2
0.2
0.2
0.2
0.2
0.2
0.2
0.2
0.2
0.2
0.2
0.2
0.2
0.2
0.2
0.2
0.2
0.2
0.2
0.2
0.2
0.2
0.2
0.2
0.2
0.2
0.2
0.2
0.2
0.2
0.2
0.2
0.2
0.2
0.2
0.2
0.2
0.2
0.2
0.200001
0.200007
0.200017
0.199015
0.187727
1.73553
6.12634
8.16437
8.65357
8.76846
8.80278
8.82445
8.84557
8.86706
8.8874
8.90624
8.92319
8.93903
8.95508
8.97324
8.99191
9.00916
9.02548
9.04046
9.05462
9.07047
9.08775
9.10566
9.12327
9.14052
9.15659
9.17314
9.19126
9.21072
9.23164
9.25323
9.27446
9.29516
9.3141
9.33577
9.3597
9.3845
9.40911
9.43258
9.45337
9.47179
9.49443
9.52109
9.54659
9.56733
9.5811
9.60112
9.62837
9.65314
9.66907
9.67675
9.68648
9.70779
9.73123
9.74629
9.74128
9.72997
9.73057
9.73847
9.73518
9.7191
9.68833
9.66221
9.63476
9.60056
9.54624
9.49316
9.42663
9.35545
9.26943
9.17227
9.01789
0.2
0.2
0.2
0.2
0.2
0.2
0.2
0.2
0.2
0.2
0.2
0.2
0.2
0.2
0.2
0.2
0.2
0.2
0.2
0.2
0.2
0.2
0.2
0.2
0.2
0.2
0.2
0.2
0.2
0.2
0.2
0.2
0.2
0.2
0.2
0.2
0.2
0.2
0.2
0.2
0.2
0.200001
0.20001
0.200117
0.200501
0.198856
0.163152
0.219482
4.69526
7.82795
8.58847
8.75136
8.79125
8.81111
8.82773
8.84403
8.85974
8.87486
8.88865
8.90351
8.91948
8.93561
8.95144
8.96631
8.9796
8.99159
9.00618
9.02229
9.03887
9.05557
9.07195
9.08677
9.10244
9.12005
9.13857
9.15813
9.17848
9.19908
9.21867
9.23669
9.25708
9.27911
9.30264
9.32672
9.35008
9.37167
9.39109
9.41297
9.43695
9.46211
9.48702
9.50509
9.5214
9.54512
9.57059
9.59023
9.60236
9.61164
9.63007
9.65254
9.66996
9.67147
9.66258
9.66281
9.67063
9.6809
9.66313
9.6335
9.61215
9.59196
9.55747
9.51768
9.4619
9.40555
9.33652
9.26166
9.1726
9.07248
8.91187
0.2
0.2
0.2
0.2
0.2
0.2
0.2
0.2
0.2
0.2
0.2
0.2
0.2
0.2
0.2
0.2
0.2
0.2
0.2
0.2
0.2
0.2
0.2
0.2
0.2
0.2
0.2
0.2
0.2
0.2
0.2
0.2
0.2
0.2
0.2
0.2
0.2
0.2
0.2
0.2
0.2
0.2
0.2
0.200002
0.200013
0.200049
0.200725
0.232417
3.01993
6.96486
8.30701
8.61316
8.69697
8.73273
8.75416
8.77061
8.78536
8.79984
8.81452
8.82979
8.84544
8.86103
8.87657
8.89188
8.90643
8.92099
8.93731
8.95505
8.97306
8.99083
9.00836
9.02438
9.04209
9.06092
9.08058
9.10073
9.12094
9.14049
9.15815
9.1775
9.19857
9.22056
9.24321
9.26596
9.28758
9.30776
9.32985
9.35332
9.37747
9.40173
9.42492
9.44182
9.46185
9.48614
9.50822
9.52464
9.53527
9.5508
9.57168
9.58944
9.59629
9.59481
9.59341
9.6029
9.6102
9.60791
9.5794
9.55223
9.53686
9.51855
9.47641
9.43022
9.37639
9.31483
9.24332
9.1645
9.074
8.97155
8.80737
0.2
0.2
0.2
0.2
0.2
0.2
0.2
0.2
0.2
0.2
0.2
0.2
0.2
0.2
0.2
0.2
0.2
0.2
0.2
0.2
0.2
0.2
0.2
0.2
0.2
0.2
0.2
0.2
0.2
0.2
0.2
0.2
0.2
0.2
0.2
0.2
0.2
0.2
0.2
0.2
0.2
0.2
0.200001
0.200013
0.20004
0.199798
0.198022
0.173745
1.16582
5.60428
7.92987
8.49838
8.63811
8.68399
8.70738
8.72454
8.7397
8.75451
8.76931
8.78412
8.79875
8.81314
8.82733
8.84103
8.85454
8.86949
8.88536
8.90166
8.91824
8.93471
8.95056
8.96661
8.98438
9.00298
9.02215
9.04166
9.0608
9.07853
9.09649
9.11687
9.13843
9.16059
9.18295
9.20474
9.22456
9.24553
9.26819
9.29175
9.31569
9.33917
9.35992
9.37735
9.39966
9.42293
9.44291
9.45681
9.4701
9.48914
9.50787
9.51829
9.52144
9.52207
9.53049
9.54195
9.53703
9.5192
9.49721
9.47928
9.4612
9.4369
9.39069
9.34126
9.28941
9.22333
9.14847
9.06485
8.97312
8.86748
8.69727
0.2
0.2
0.2
0.2
0.2
0.2
0.2
0.2
0.2
0.2
0.2
0.2
0.2
0.2
0.2
0.2
0.2
0.2
0.2
0.2
0.2
0.2
0.2
0.2
0.2
0.2
0.2
0.2
0.2
0.2
0.2
0.2
0.2
0.2
0.2
0.2
0.2
0.2
0.2
0.2
0.2
0.2
0.2
0.200001
0.200001
0.199996
0.199965
0.199126
0.195279
3.72352
7.28118
8.33742
8.57812
8.63979
8.6623
8.67871
8.69183
8.70477
8.71881
8.73308
8.74682
8.75961
8.77262
8.7862
8.80036
8.81502
8.8301
8.8454
8.86056
8.87527
8.89042
8.90689
8.92421
8.94208
8.96047
8.97907
8.99678
9.01466
9.03444
9.05544
9.07709
9.09921
9.12115
9.14159
9.16129
9.1831
9.20589
9.22915
9.25233
9.27367
9.29274
9.31254
9.33442
9.35671
9.37543
9.38864
9.40528
9.4237