/*--------------------------------*- C++ -*----------------------------------*\
| =========                 |                                                 |
| \\      /  F ield         | OpenFOAM: The Open Source CFD Toolbox           |
|  \\    /   O peration     | Version:  2.2.x                                 |
|   \\  /    A nd           | Web:      www.OpenFOAM.org                      |
|    \\/     M anipulation  |                                                 |
\*---------------------------------------------------------------------------*/
FoamFile
{
    version     2.0;
    format      ascii;
    class       volScalarField;
    location    "0.75";
    object      T;
}
// * * * * * * * * * * * * * * * * * * * * * * * * * * * * * * * * * * * * * //

dimensions      [0 0 0 1 0 0 0];

internalField   nonuniform List<scalar> 
14161
(
1
1
1
1
1
1
1
1
1
1
1
1
1
1
1
1
1
1
1
1
1
1
1
1
1
1
1
1
1
1
1
1
1
1
1
1
1
1
1
1
1.00001
1.00011
1.00212
1.0469
1.99595
7.8424
11.1908
12.1768
12.3765
12.4277
12.4567
12.482
12.5038
12.5216
12.536
12.5458
12.5566
12.5745
12.5943
12.6114
12.6275
12.642
12.6507
12.6627
12.6829
12.7037
12.7193
12.7323
12.74
12.7469
12.7617
12.7851
12.8056
12.8227
12.8341
12.8391
12.8495
12.8686
12.8873
12.9017
12.9114
12.9153
12.9252
12.9439
12.9647
12.9836
12.9988
13.0089
13.0271
13.0525
13.0749
13.0915
13.0997
13.1081
13.1198
13.1295
13.1344
13.1325
13.1283
13.1327
13.1463
13.1601
13.1715
13.1818
13.198
13.2163
13.2323
13.2446
13.2555
13.2689
13.2859
13.3039
13.3166
13.3297
13.3424
13.3531
13.3614
13.3686
13.3748
1
1
1
1
1
1
1
1
1
1
1
1
1
1
1
1
1
1
1
1
1
1
1
1
1
1
1
1
1
1
1
1
1
1
1
1
1
1
1
1
1.00001
1.00011
1.00209
1.04633
1.98819
7.83142
11.1928
12.185
12.3851
12.436
12.4646
12.4894
12.5106
12.5281
12.5421
12.5517
12.5626
12.5806
12.6003
12.617
12.6327
12.6467
12.6551
12.6671
12.6876
12.7087
12.7243
12.7372
12.7449
12.7514
12.7655
12.7883
12.8083
12.8248
12.8362
12.8413
12.8516
12.8705
12.8891
12.9037
12.9136
12.9171
12.9266
12.945
12.9651
12.9824
12.9959
13.0051
13.0222
13.0472
13.07
13.0875
13.0968
13.1055
13.1172
13.1265
13.131
13.1289
13.1252
13.1301
13.1439
13.158
13.1696
13.1801
13.1965
13.2148
13.2309
13.2434
13.2545
13.2681
13.2847
13.3014
13.3142
13.3278
13.3407
13.3515
13.3602
13.3674
13.3737
1
1
1
1
1
1
1
1
1
1
1
1
1
1
1
1
1
1
1
1
1
1
1
1
1
1
1
1
1
1
1
1
1
1
1
1
1
1
1
1
1.00001
1.00011
1.00201
1.0443
1.95248
7.78109
11.1804
12.1821
12.3836
12.4349
12.4637
12.4883
12.5094
12.5267
12.5404
12.5501
12.5614
12.5798
12.5992
12.6156
12.6308
12.6443
12.6527
12.6648
12.6855
12.707
12.7232
12.7364
12.7444
12.7507
12.7641
12.7863
12.806
12.8222
12.8336
12.839
12.8494
12.8678
12.8861
12.9008
12.9112
12.9152
12.9251
12.9441
12.9648
12.9823
12.9959
13.0053
13.0216
13.0451
13.0678
13.0859
13.0965
13.1055
13.1166
13.125
13.1284
13.1252
13.1224
13.1287
13.1426
13.1565
13.1684
13.1796
13.1966
13.2149
13.2305
13.2423
13.2527
13.2671
13.2834
13.2983
13.3094
13.323
13.3367
13.348
13.356
13.3617
13.3664
1
1
1
1
1
1
1
1
1
1
1
1
1
1
1
1
1
1
1
1
1
1
1
1
1
1
1
1
1
1
1
1
1
1
1
1
1
1
1
1
1.00001
1.0001
1.00188
1.04118
1.89822
7.70526
11.1589
12.1723
12.3752
12.427
12.4557
12.4798
12.5005
12.518
12.532
12.5423
12.5544
12.5728
12.5918
12.6081
12.623
12.6362
12.6448
12.657
12.6774
12.6989
12.7159
12.7296
12.7384
12.7453
12.759
12.781
12.801
12.8174
12.8293
12.8353
12.8459
12.8639
12.8817
12.8963
12.907
12.9114
12.9218
12.9409
12.9618
12.9794
12.9932
13.0025
13.0182
13.0409
13.0635
13.0817
13.0932
13.1025
13.1134
13.1211
13.1241
13.1204
13.1185
13.1258
13.1398
13.1542
13.1675
13.1807
13.1992
13.2178
13.2329
13.2429
13.2526
13.2666
13.2823
13.2952
13.3048
13.3182
13.3329
13.3452
13.3532
13.3581
13.3615
1
1
1
1
1
1
1
1
1
1
1
1
1
1
1
1
1
1
1
1
1
1
1
1
1
1
1
1
1
1
1
1
1
1
1
1
1
1
1
1
1.00001
1.0001
1.00174
1.03793
1.84051
7.62021
11.1384
12.1674
12.3729
12.4248
12.4528
12.4758
12.4959
12.5132
12.5274
12.5383
12.5508
12.5687
12.5873
12.6037
12.6185
12.6317
12.6409
12.6536
12.6739
12.6952
12.7133
12.729
12.7393
12.7476
12.7617
12.7835
12.8026
12.8183
12.8298
12.8361
12.8472
12.8656
12.883
12.897
12.907
12.9114
12.9216
12.9407
12.9608
12.9775
12.9905
12.9998
13.0157
13.0389
13.0615
13.08
13.0912
13.1008
13.1121
13.1198
13.1223
13.1183
13.1166
13.1243
13.1387
13.1535
13.1671
13.1809
13.2001
13.2186
13.2329
13.2413
13.2509
13.2648
13.2796
13.2912
13.3001
13.3125
13.3272
13.3398
13.3477
13.3514
13.3514
1
1
1
1
1
1
1
1
1
1
1
1
1
1
1
1
1
1
1
1
1
1
1
1
1
1
1
1
1
1
1
1
1
1
1
1
1
1
1
1
1.00001
1.00009
1.00159
1.03432
1.77392
7.51434
11.114
12.1652
12.3741
12.4267
12.4549
12.4778
12.4973
12.5143
12.5288
12.5409
12.5543
12.5726
12.591
12.607
12.6214
12.634
12.6438
12.657
12.6775
12.6979
12.7146
12.7288
12.7373
12.7453
12.7602
12.7818
12.8005
12.8163
12.8279
12.8352
12.8475
12.8673
12.8851
12.899
12.908
12.912
12.9222
12.9411
12.9598
12.9752
12.9866
12.9963
13.013
13.0369
13.0591
13.0775
13.0881
13.0983
13.11
13.1178
13.1201
13.1159
13.1143
13.1221
13.1365
13.1514
13.1648
13.1789
13.1981
13.2159
13.2295
13.237
13.2466
13.2601
13.2741
13.2849
13.2941
13.3056
13.3192
13.3313
13.3396
13.3439
13.3432
1
1
1
1
1
1
1
1
1
1
1
1
1
1
1
1
1
1
1
1
1
1
1
1
1
1
1
1
1
1
1
1
1
1
1
1
1
1
1
1
1
1.00008
1.00141
1.03
1.69081
7.37177
11.0784
12.159
12.3732
12.4273
12.4558
12.4783
12.4973
12.5137
12.5274
12.5395
12.5538
12.5722
12.59
12.6055
12.6193
12.6306
12.6399
12.6544
12.6757
12.6949
12.7098
12.7218
12.728
12.7363
12.7528
12.7745
12.7926
12.8086
12.8195
12.8278
12.8418
12.8623
12.8797
12.8935
12.9014
12.9065
12.9179
12.9366
12.9531
12.9673
12.9768
12.9866
13.0053
13.0295
13.0511
13.0687
13.0791
13.0904
13.1035
13.1118
13.1142
13.11
13.1087
13.1166
13.1311
13.1459
13.1592
13.1739
13.1929
13.2101
13.223
13.2303
13.24
13.2531
13.2666
13.2774
13.2869
13.2984
13.3102
13.3209
13.3292
13.3329
13.3315
1
1
1
1
1
1
1
1
1
1
1
1
1
1
1
1
1
1
1
1
1
1
1
1
1
1
1
1
1
1
1
1
1
1
1
1
1
1
1
1
1
1.00007
1.00121
1.02504
1.59156
7.1849
11.0298
12.1471
12.3675
12.423
12.4523
12.4744
12.492
12.5075
12.5198
12.531
12.5465
12.5655
12.5823
12.5968
12.6103
12.6202
12.6291
12.6458
12.6686
12.6868
12.7017
12.713
12.7183
12.728
12.7466
12.7687
12.7874
12.8033
12.8118
12.8211
12.8373
12.8579
12.8747
12.8882
12.8954
12.9031
12.9177
12.9371
12.9529
12.966
12.9729
12.9837
13.0032
13.027
13.0476
13.0632
13.0719
13.0839
13.0976
13.1057
13.1076
13.1029
13.1016
13.1101
13.1247
13.1396
13.1529
13.168
13.1868
13.2039
13.2167
13.2243
13.2339
13.2461
13.2585
13.2689
13.2782
13.2892
13.2999
13.309
13.3164
13.3201
13.3189
1
1
1
1
1
1
1
1
1
1
1
1
1
1
1
1
1
1
1
1
1
1
1
1
1
1
1
1
1
1
1
1
1
1
1
1
1
1
1
1
1
1.00006
1.00099
1.01987
1.48285
6.95602
10.9713
12.1334
12.3613
12.4198
12.4503
12.4715
12.4878
12.5011
12.512
12.5237
12.5419
12.5614
12.5779
12.5927
12.6056
12.6142
12.6251
12.6455
12.6682
12.6862
12.7011
12.7111
12.7175
12.729
12.7498
12.7698
12.7871
12.801
12.8087
12.8198
12.838
12.8577
12.8735
12.8856
12.8909
12.9004
12.9177
12.9374
12.9538
12.9662
12.9725
12.9848
13.0055
13.0279
13.0465
13.0589
13.0673
13.079
13.0923
13.0997
13.1005
13.095
13.0946
13.104
13.1186
13.1332
13.1463
13.1617
13.1805
13.1972
13.2095
13.2173
13.2272
13.239
13.2503
13.2598
13.2691
13.2791
13.2888
13.2966
13.3022
13.3052
13.304
1
1
1
1
1
1
1
1
1
1
1
1
1
1
1
1
1
1
1
1
1
1
1
1
1
1
1
1
1
1
1
1
1
1
1
1
1
1
1
1
1
1.00004
1.00076
1.01458
1.365
6.6716
10.8981
12.1157
12.3545
12.417
12.4482
12.4678
12.4835
12.4958
12.5061
12.5208
12.541
12.5594
12.5754
12.5908
12.6017
12.6102
12.6252
12.648
12.6674
12.684
12.6979
12.7056
12.7151
12.7323
12.7543
12.7719
12.7872
12.7974
12.8055
12.819
12.8396
12.8568
12.8699
12.8783
12.884
12.8955
12.9159
12.9349
12.9506
12.9619
12.9699
12.9847
13.0071
13.0279
13.0448
13.0541
13.0622
13.0748
13.0867
13.0929
13.0918
13.0876
13.0893
13.1005
13.1148
13.1287
13.1413
13.1573
13.1756
13.1915
13.2024
13.2102
13.22
13.2316
13.2419
13.2502
13.2592
13.2682
13.2765
13.2831
13.2872
13.2895
13.2889
1
1
1
1
1
1
1
1
1
1
1
1
1
1
1
1
1
1
1
1
1
1
1
1
1
1
1
1
1
1
1
1
1
1
1
1
1
1
1
1
1
1.00003
1.00053
1.00933
1.24097
6.31787
10.8058
12.0914
12.3459
12.4134
12.4434
12.4616
12.4752
12.4866
12.4999
12.5187
12.5372
12.5527
12.5676
12.5808
12.5903
12.6029
12.6239
12.6447
12.6612
12.6747
12.6838
12.6918
12.7066
12.7286
12.7478
12.7651
12.7774
12.7845
12.7934
12.8111
12.8315
12.8464
12.8578
12.8627
12.8697
12.8855
12.9072
12.9252
12.9403
12.95
12.9605
12.9791
13.0031
13.0246
13.0401
13.0471
13.056
13.0692
13.0794
13.0838
13.0816
13.0796
13.0849
13.0976
13.1112
13.124
13.1357
13.1528
13.1712
13.186
13.1949
13.2024
13.2123
13.2237
13.2329
13.2402
13.2482
13.2563
13.263
13.2687
13.2719
13.2734
13.2713
1
1
1
1
1
1
1
1
1
1
1
1
1
1
1
1
1
1
1
1
1
1
1
1
1
1
1
1
1
1
1
1
1
1
1
1
1
1
1
1
1
1.00002
1.0003
1.00442
1.11824
5.88437
10.691
12.0603
12.3346
12.4082
12.4368
12.4518
12.4634
12.4763
12.4954
12.5156
12.5321
12.5469
12.5607
12.5694
12.5817
12.6031
12.6276
12.6464
12.662
12.6724
12.6785
12.6885
12.7084
12.7291
12.7458
12.7595
12.765
12.7721
12.786
12.8074
12.8243
12.8375
12.8461
12.8507
12.8612
12.8813
12.9019
12.9195
12.9339
12.9421
12.9558
12.9772
13.0001
13.0187
13.0303
13.0372
13.0477
13.0607
13.069
13.0722
13.0697
13.0708
13.0798
13.0932
13.1063
13.1178
13.1301
13.148
13.166
13.1795
13.1867
13.194
13.2042
13.2154
13.2234
13.2297
13.2362
13.2433
13.2489
13.2532
13.2544
13.2549
13.2514
1
1
1
1
1
1
1
1
1
1
1
1
1
1
1
1
1
1
1
1
1
1
1
1
1
1
1
1
1
1
1
1
1
1
1
1
1
1
1
1
1
1.00001
1.00007
0.999988
1.00632
5.3618
10.5506
12.0246
12.3235
12.403
12.4315
12.4453
12.4569
12.4745
12.4978
12.5185
12.5358
12.5507
12.56
12.5665
12.5797
12.6038
12.6262
12.6444
12.6584
12.6626
12.6686
12.6831
12.7065
12.7239
12.7383
12.7471
12.7502
12.7598
12.7811
12.8033
12.8199
12.8328
12.836
12.843
12.8586
12.8825
12.9025
12.9185
12.9276
12.9369
12.953
12.9757
12.9944
13.0084
13.0146
13.0229
13.0366
13.0493
13.0567
13.0593
13.0572
13.061
13.0734
13.0888
13.1024
13.1113
13.1254
13.1433
13.1603
13.1722
13.1776
13.1851
13.1956
13.2061
13.2129
13.2182
13.2234
13.2288
13.2334
13.2358
13.2347
13.2347
13.2298
1
1
1
1
1
1
1
1
1
1
1
1
1
1
1
1
1
1
1
1
1
1
1
1
1
1
1
1
1
1
1
1
1
1
1
1
1
1
1
1
0.999996
0.99998
1.00006
0.997671
0.917917
4.74331
10.3819
11.9867
12.3164
12.4026
12.4306
12.4438
12.4552
12.4741
12.4976
12.5166
12.5319
12.5445
12.5492
12.5548
12.5694
12.5932
12.6127
12.6298
12.643
12.6456
12.6535
12.6726
12.6958
12.7123
12.7258
12.7318
12.7354
12.748
12.7733
12.796
12.814
12.8258
12.8271
12.8353
12.8546
12.8796
12.8995
12.9135
12.9171
12.9263
12.9449
12.9662
12.9819
12.9919
12.9957
13.0056
13.0217
13.0358
13.0443
13.0464
13.0458
13.0522
13.0676
13.0848
13.0973
13.1055
13.12
13.1373
13.1526
13.1623
13.1672
13.1749
13.1853
13.1947
13.2002
13.2044
13.2086
13.2123
13.2158
13.2162
13.2133
13.2132
13.2059
1
1
1
1
1
1
1
1
1
1
1
1
1
1
1
1
1
1
1
1
1
1
1
1
1
1
1
1
1
1
1
1
1
1
1
1
1
1
1
0.999995
0.999902
0.999527
1.00413
1.02676
0.850806
3.99336
10.1754
11.9448
12.3078
12.3961
12.4221
12.434
12.4456
12.4644
12.4858
12.5025
12.5161
12.5268
12.5307
12.5371
12.5536
12.5757
12.5929
12.6094
12.6232
12.6265
12.6365
12.6557
12.6784
12.6958
12.7101
12.7146
12.719
12.7314
12.7551
12.7781
12.7969
12.8084
12.8108
12.8215
12.8432
12.8664
12.8853
12.8976
12.9007
12.911
12.9316
12.9519
12.9669
12.9748
12.9789
12.9891
13.006
13.0214
13.0315
13.0341
13.036
13.0462
13.0633
13.0787
13.0893
13.0985
13.1128
13.1289
13.1414
13.1493
13.1551
13.1634
13.1738
13.1816
13.186
13.1893
13.1925
13.1951
13.1972
13.1959
13.1909
13.1906
13.1795
1
1
1
1
1
1
1
1
1
1
1
1
1
1
1
1
1
1
1
1
1
1
1
1
1
1
1
1
1
1
1
1
1
1
1
1
1
1
1
1
1
1.00013
1.00296
1.00589
0.740305
3.0637
9.9124
11.885
12.289
12.3789
12.401
12.4146
12.43
12.4484
12.4663
12.4822
12.4953
12.5045
12.5104
12.5197
12.5363
12.5543
12.5706
12.5855
12.6003
12.6096
12.6198
12.6349
12.6554
12.6738
12.6891
12.698
12.706
12.7166
12.7349
12.7555
12.7739
12.7871
12.7954
12.8087
12.8287
12.8472
12.8641
12.8756
12.882
12.8959
12.9159
12.9332
12.9478
12.9552
12.9619
12.9744
12.9914
13.0065
13.0169
13.0208
13.0277
13.0415
13.0579
13.0711
13.079
13.0893
13.1035
13.1173
13.1277
13.1343
13.1417
13.1512
13.1611
13.1672
13.1707
13.1734
13.1751
13.1763
13.1768
13.1745
13.1672
13.1659
13.1529
1
1
1
1
1
1
1
1
1
1
1
1
1
1
1
1
1
1
1
1
1
1
1
1
1
1
1
1
1
1
1
1
1
1
1
1
1
1
1
1
0.999994
0.999869
0.99831
0.983879
0.751869
1.88588
9.59007
11.8191
12.268
12.3576
12.3785
12.3928
12.409
12.4286
12.4465
12.4626
12.4778
12.486
12.4968
12.512
12.5274
12.5395
12.5501
12.5591
12.5755
12.5979
12.616
12.6316
12.6418
12.6513
12.6648
12.6824
12.6974
12.7111
12.7232
12.7353
12.7473
12.7616
12.7791
12.7969
12.8135
12.829
12.8424
12.8514
12.8646
12.8826
12.9003
12.9162
12.9289
12.9352
12.946
12.9622
12.9799
12.9941
13.0042
13.0099
13.0214
13.0377
13.0522
13.0624
13.0685
13.0791
13.0923
13.1038
13.1125
13.1191
13.128
13.1387
13.1473
13.1517
13.1545
13.1571
13.1574
13.1569
13.1554
13.1509
13.1424
13.1399
13.1252
1
1
1
1
1
1
1
1
1
1
1
1
1
1
1
1
1
1
1
1
1
1
1
1
1
1
1
1
1
1
1
1
1
1
1
1
1
1
1
1
0.999996
0.999853
0.998386
0.991989
0.817217
0.884069
9.36337
11.6756
12.2155
12.3248
12.3604
12.3815
12.3974
12.41
12.4229
12.4395
12.4635
12.4851
12.503
12.5173
12.5231
12.5303
12.538
12.5568
12.5781
12.596
12.6111
12.622
12.6289
12.6384
12.6561
12.6743
12.6892
12.7014
12.7085
12.716
12.7284
12.7486
12.7691
12.7862
12.8001
12.8095
12.8194
12.8331
12.8533
12.8722
12.8883
12.9009
12.9076
12.9181
12.9337
12.9533
12.9715
12.9855
12.9922
13.0025
13.0184
13.0349
13.047
13.0521
13.0581
13.0683
13.0801
13.0897
13.0964
13.1043
13.1146
13.1256
13.1324
13.1354
13.1378
13.1399
13.1386
13.1364
13.1327
13.1258
13.1164
13.1125
13.0964
1
1
1
1
1
1
1
1
1
1
1
1
1
1
1
1
1
1
1
1
1
1
1
1
1
1
1
1
1
1
1
1
1
1
1
1
1
1
1
1
1.00003
1.00047
1.00252
0.993926
0.869232
1.12132
8.96153
11.4345
12.1395
12.2927
12.348
12.3802
12.4013
12.4147
12.4262
12.4443
12.4702
12.4918
12.5108
12.5263
12.5305
12.536
12.5476
12.5703
12.5896
12.6055
12.6182
12.6225
12.6294
12.6433
12.6647
12.6817
12.6951
12.7033
12.7054
12.7122
12.7302
12.7531
12.7707
12.7848
12.7919
12.7961
12.8073
12.8281
12.8493
12.8671
12.8796
12.8834
12.8911
12.9061
12.9281
12.9489
12.9655
12.9742
12.9831
12.998
13.0162
13.0306
13.0382
13.0398
13.0463
13.0569
13.0671
13.0748
13.0799
13.0898
13.1013
13.111
13.1156
13.1184
13.1205
13.1211
13.1184
13.1148
13.1086
13.0996
13.0892
13.0839
13.0651
1
1
1
1
1
1
1
1
1
1
1
1
1
1
1
1
1
1
1
1
1
1
1
1
1
1
1
1
1
1
1
1
1
1
1
1
1
1
1
1
1
1.00002
1.00012
1.00063
1.01226
1.42332
8.18504
11.2169
12.114
12.3024
12.3635
12.3926
12.4076
12.4166
12.427
12.4468
12.4711
12.4894
12.505
12.5179
12.5229
12.531
12.5477
12.57
12.5865
12.6002
12.6111
12.6154
12.624
12.6417
12.6624
12.6784
12.6915
12.6982
12.7034
12.7148
12.7353
12.7549
12.7711
12.7824
12.7851
12.7928
12.8101
12.8327
12.8507
12.8637
12.8673
12.8715
12.8839
12.9055
12.9268
12.9445
12.9541
12.9602
12.9738
12.993
13.0099
13.0207
13.0212
13.0245
13.0329
13.0437
13.0522
13.0577
13.0646
13.0753
13.0868
13.0945
13.0973
13.0999
13.1015
13.1006
13.0966
13.0921
13.0829
13.0717
13.0605
13.0533
13.0322
1
1
1
1
1
1
1
1
1
1
1
1
1
1
1
1
1
1
1
1
1
1
1
1
1
1
1
1
1
1
1
1
1
1
1
1
1
1
1
1
1
1
1.00003
1.00047
1.00776
1.26683
6.97642
10.919
12.0525
12.2772
12.3415
12.3676
12.3802
12.389
12.4017
12.4228
12.4437
12.4598
12.4739
12.4858
12.4933
12.505
12.5255
12.5471
12.5629
12.5752
12.5837
12.5896
12.6006
12.621
12.6406
12.6566
12.6702
12.6764
12.6864
12.7044
12.7275
12.7461
12.7617
12.771
12.7779
12.7901
12.8109
12.8304
12.8453
12.8535
12.8554
12.8639
12.8823
12.9032
12.9209
12.932
12.9349
12.9459
12.9645
12.9831
12.9965
13.0004
13.0001
13.0063
13.0176
13.0283
13.0355
13.0395
13.0487
13.0604
13.0701
13.0756
13.0781
13.0804
13.0808
13.0789
13.0734
13.0677
13.0558
13.0422
13.03
13.0213
12.9988
1
1
1
1
1
1
1
1
1
1
1
1
1
1
1
1
1
1
1
1
1
1
1
1
1
1
1
1
1
1
1
1
1
1
1
1
1
1
1
1
0.999999
0.999997
1.00001
1.00016
0.996781
0.985645
5.4676
10.5089
11.9493
12.2327
12.3019
12.3251
12.339
12.3525
12.3699
12.3874
12.402
12.4157
12.4295
12.4402
12.4526
12.4712
12.4942
12.5125
12.5278
12.5401
12.5456
12.5537
12.5695
12.5907
12.6084
12.6248
12.637
12.6444
12.6582
12.6809
12.7052
12.7252
12.7411
12.7488
12.7599
12.7775
12.7993
12.8168
12.8302
12.8347
12.8412
12.8552
12.8752
12.8925
12.9049
12.9079
12.9158
12.9321
12.9515
12.967
12.9741
12.9716
12.9764
12.9871
13.0003
13.0105
13.0158
13.0215
13.032
13.0444
13.0519
13.0551
13.0573
13.0598
13.0585
13.0555
13.0483
13.0414
13.0271
13.0112
12.9978
12.9885
12.9642
1
1
1
1
1
1
1
1
1
1
1
1
1
1
1
1
1
1
1
1
1
1
1
1
1
1
1
1
1
1
1
1
1
1
1
1
1
1
1
0.999999
0.999993
1.00001
1.00028
1.00354
1.01088
0.801798
3.56058
9.97843
11.8296
12.1913
12.2659
12.286
12.2982
12.3111
12.3265
12.3419
12.3558
12.3695
12.3831
12.3948
12.411
12.4336
12.4563
12.4751
12.4909
12.5025
12.5095
12.5198
12.5374
12.555
12.5708
12.5858
12.5946
12.6061
12.6235
12.6485
12.6725
12.6944
12.7105
12.7203
12.7344
12.7555
12.777
12.7936
12.8054
12.8114
12.8217
12.8393
12.8575
12.8716
12.8799
12.8849
12.8972
12.9163
12.9327
12.9423
12.9425
12.9446
12.9536
12.9683
12.9819
12.9899
12.9923
13.0016
13.014
13.026
13.031
13.0324
13.0346
13.0376
13.0347
13.03
13.0209
13.0135
12.9967
12.9791
12.964
12.9539
12.9274
1
1
1
1
1
1
1
1
1
1
1
1
1
1
1
1
1
1
1
1
1
1
1
1
1
1
1
1
1
1
1
1
1
1
1
1
1
1
1
1
1
1.00003
1.00045
1.00167
0.990287
0.799714
1.21475
9.36521
11.7027
12.1541
12.2426
12.2625
12.274
12.2848
12.2967
12.3097
12.324
12.3385
12.3529
12.368
12.3847
12.4028
12.422
12.4421
12.4599
12.4738
12.4857
12.4976
12.5086
12.5191
12.5307
12.5422
12.5514
12.565
12.5841
12.6069
12.6298
12.652
12.6672
12.6834
12.702
12.7248
12.7459
12.7641
12.7746
12.7839
12.7983
12.8182
12.8349
12.8478
12.8531
12.8622
12.8782
12.8952
12.907
12.9123
12.912
12.919
12.9333
12.9492
12.9601
12.9638
12.9699
12.9817
12.9957
13.0047
13.0057
13.0075
13.0096
13.0127
13.0083
13.0023
12.9917
12.9834
12.9643
12.9453
12.9288
12.9177
12.8885
1
1
1
1
1
1
1
1
1
1
1
1
1
1
1
1
1
1
1
1
1
1
1
1
1
1
1
1
1
1
1
1
1
1
1
1
1
1
1
1
1
1
1.00001
0.999989
0.99848
0.939209
1.11968
8.69155
11.3234
12.0201
12.172
12.2226
12.2484
12.2658
12.2809
12.2964
12.3114
12.3249
12.338
12.3515
12.3656
12.3805
12.3973
12.4161
12.4338
12.4487
12.4608
12.4698
12.4772
12.4854
12.494
12.5027
12.513
12.5256
12.5413
12.5607
12.5816
12.6015
12.6198
12.6399
12.6625
12.6846
12.7056
12.7241
12.7364
12.7512
12.7705
12.7908
12.8075
12.819
12.8269
12.8391
12.8558
12.8697
12.8784
12.8799
12.8849
12.8971
12.9135
12.9269
12.9341
12.9381
12.9486
12.963
12.9754
12.9796
12.9787
12.9817
12.9834
12.9861
12.9797
12.9729
12.9614
12.9516
12.9302
12.9098
12.8919
12.8797
12.8474
1
1
1
1
1
1
1
1
1
1
1
1
1
1
1
1
1
1
1
1
1
1
1
1
1
1
1
1
1
1
1
1
1
1
1
1
1
1
1
1
1
1
1
1.00002
1.00042
1.00485
1.21993
7.31312
10.9629
11.9623
12.1686
12.2251
12.2485
12.2628
12.2758
12.2907
12.3056
12.3192
12.3318
12.3434
12.3538
12.3648
12.3793
12.3967
12.4145
12.431
12.445
12.4541
12.461
12.4682
12.4756
12.483
12.4908
12.4992
12.5089
12.5218
12.5404
12.5608
12.5815
12.6018
12.6213
12.6409
12.6595
12.6758
12.6926
12.7127
12.7343
12.7556
12.7745
12.7868
12.7995
12.8151
12.8305
12.8418
12.8483
12.8517
12.861
12.8764
12.8912
12.9016
12.906
12.9155
12.9289
12.9437
12.9508
12.9513
12.9529
12.9568
12.9563
12.957
12.9489
12.9422
12.9296
12.918
12.894
12.8725
12.8536
12.84
12.805
1
1
1
1
1
1
1
1
1
1
1
1
1
1
1
1
1
1
1
1
1
1
1
1
1
1
1
1
1
1
1
1
1
1
1
1
1
1
1
1
1
1
0.999997
0.999958
0.999565
0.988821
0.915553
5.20968
10.391
11.8591
12.1381
12.1969
12.2138
12.2252
12.2368
12.2508
12.2658
12.2804
12.2933
12.3048
12.3149
12.3259
12.3406
12.3578
12.3758
12.3944
12.4115
12.4241
12.4369
12.4497
12.4618
12.4703
12.4773
12.4834
12.4899
12.5005
12.5171
12.5369
12.5556
12.5733
12.5886
12.6019
12.6169
12.6347
12.6541
12.6746
12.6951
12.7147
12.7331
12.75
12.7681
12.7871
12.8026
12.8134
12.8184
12.8262
12.8388
12.854
12.8658
12.8743
12.8818
12.8944
12.9092
12.9196
12.9229
12.9244
12.9269
12.9327
12.9278
12.925
12.9172
12.9109
12.8963
12.8825
12.8562
12.8337
12.8138
12.7987
12.7612
1
1
1
1
1
1
1
1
1
1
1
1
1
1
1
1
1
1
1
1
1
1
1
1
1
1
1
1
1
1
1
1
1
1
1
1
1
1
1
1
1
0.999999
0.999989
0.999756
0.996812
0.96899
0.702534
2.26339
9.57677
11.6949
12.097
12.1703
12.1852
12.195
12.2064
12.2187
12.231
12.243
12.2539
12.2636
12.273
12.2848
12.2981
12.3113
12.3262
12.3429
12.3588
12.3748
12.3947
12.4144
12.4336
12.4491
12.4606
12.4687
12.4754
12.4861
12.5012
12.5169
12.5331
12.5482
12.56
12.5717
12.586
12.6037
12.6215
12.6392
12.656
12.6715
12.6895
12.7102
12.7321
12.7525
12.77
12.781
12.7901
12.8015
12.8164
12.8298
12.8404
12.8485
12.859
12.8729
12.8857
12.8925
12.8945
12.8987
12.9012
12.9048
12.8973
12.8927
12.8849
12.8785
12.8617
12.8449
12.8172
12.7936
12.7726
12.7568
12.7165
1
1
1
1
1
1
1
1
1
1
1
1
1
1
1
1
1
1
1
1
1
1
1
1
1
1
1
1
1
1
1
1
1
1
1
1
1
1
1
1
1
1
1.00003
1.0005
1.00297
0.997965
0.893376
0.858993
8.58329
11.2704
11.9227
12.0697
12.1173
12.1426
12.1643
12.1826
12.1976
12.2105
12.2209
12.2294
12.2385
12.2491
12.2588
12.2681
12.278
12.2894
12.3037
12.3224
12.3463
12.3729
12.3982
12.4186
12.4337
12.4447
12.4549
12.4669
12.4794
12.4925
12.506
12.5178
12.5306
12.5453
12.561
12.5756
12.59
12.6036
12.6161
12.632
12.6524
12.6742
12.6958
12.7153
12.7314
12.7435
12.758
12.7747
12.7912
12.8045
12.8134
12.8243
12.836
12.8494
12.8586
12.8635
12.8675
12.8724
12.8731
12.8736
12.8656
12.8613
12.8524
12.8443
12.8248
12.8053
12.7769
12.7519
12.73
12.7134
12.67
1
1
1
1
1
1
1
1
1
1
1
1
1
1
1
1
1
1
1
1
1
1
1
1
1
1
1
1
1
1
1
1
1
1
1
1
1
1
1
1
1
1
1
1.00001
1.00005
1.00026
0.999182
1.07219
6.65631
10.7431
11.7877
12.0155
12.0789
12.1073
12.1314
12.152
12.1694
12.1846
12.1974
12.2088
12.2212
12.2331
12.2424
12.25
12.2561
12.2634
12.2738
12.2885
12.3078
12.3322
12.3584
12.381
12.4002
12.4168
12.4322
12.4459
12.4574
12.468
12.4779
12.4879
12.502
12.5192
12.5343
12.5473
12.5588
12.569
12.583
12.6013
12.6219
12.642
12.6607
12.6766
12.6896
12.705
12.7228
12.7438
12.7624
12.7753
12.7863
12.7991
12.8118
12.8231
12.8295
12.8339
12.8394
12.8451
12.8416
12.8401
12.8343
12.8297
12.819
12.8079
12.7864
12.7639
12.7346
12.7085
12.686
12.6684
12.6222
1
1
1
1
1
1
1
1
1
1
1
1
1
1
1
1
1
1
1
1
1
1
1
1
1
1
1
1
1
1
1
1
1
1
1
1
1
1
1
1
1
1
1
1.00002
1.00031
1.00381
1.01468
0.827687
3.48608
9.8613
11.6336
11.9616
12.0306
12.0569
12.0792
12.1001
12.1191
12.1361
12.1528
12.1683
12.1833
12.198
12.2102
12.2193
12.2254
12.2306
12.2373
12.2469
12.2609
12.2807
12.3041
12.3277
12.352
12.3758
12.3977
12.415
12.4289
12.4393
12.4477
12.4578
12.4728
12.4897
12.5042
12.5171
12.5271
12.5386
12.5546
12.5741
12.5923
12.6082
12.6222
12.6351
12.6508
12.6697
12.6901
12.7107
12.7284
12.7413
12.7563
12.7716
12.7852
12.7946
12.7987
12.8043
12.8093
12.8147
12.8096
12.8067
12.8016
12.7965
12.7839
12.7692
12.7473
12.7215
12.6907
12.6634
12.6404
12.6215
12.5723
1
1
1
1
1
1
1
1
1
1
1
1
1
1
1
1
1
1
1
1
1
1
1
1
1
1
1
1
1
1
1
1
1
1
1
1
1
1
1
1
1
1
1
1
0.999995
0.999783
0.992959
0.856925
0.634126
8.62792
11.2834
11.847
11.9577
11.9927
12.017
12.0411
12.0631
12.0825
12.102
12.1219
12.1407
12.1573
12.1718
12.1834
12.1913
12.1968
12.2014
12.2057
12.2145
12.2293
12.2485
12.2721
12.2992
12.3281
12.3546
12.3758
12.3924
12.4044
12.4141
12.4256
12.4399
12.4548
12.4695
12.4827
12.4962
12.5115
12.5301
12.5484
12.5631
12.5751
12.5851
12.5984
12.6162
12.6365
12.6564
12.6739
12.6873
12.7039
12.7218
12.7405
12.7549
12.7628
12.7672
12.7733
12.7775
12.7813
12.7762
12.7731
12.7677
12.7604
12.7458
12.7283
12.707
12.6781
12.6455
12.6168
12.593
12.573
12.5209
1
1
1
1
1
1
1
1
1
1
1
1
1
1
1
1
1
1
1
1
1
1
1
1
1
1
1
1
1
1
1
1
1
1
1
1
1
1
1
1
1
1
1
0.999999
0.999997
1.00001
0.999922
0.994552
1.01352
6.58426
10.7048
11.7182
11.9217
11.973
11.9919
12.0067
12.0213
12.0375
12.0548
12.0739
12.0936
12.1119
12.1279
12.142
12.1534
12.1629
12.1711
12.1758
12.1823
12.193
12.208
12.2283
12.2546
12.2832
12.3088
12.331
12.3484
12.3643
12.3772
12.3884
12.4004
12.4136
12.4276
12.4427
12.461
12.4819
12.5028
12.5201
12.5331
12.5424
12.5524
12.5665
12.5841
12.6022
12.6178
12.6312
12.6456
12.6645
12.6844
12.7055
12.7199
12.7264
12.734
12.7415
12.7435
12.745
12.741
12.7387
12.7334
12.722
12.7055
12.6856
12.6648
12.6336
12.5988
12.5684
12.5438
12.5226
12.4668
1
1
1
1
1
1
1
1
1
1
1
1
1
1
1
1
1
1
1
1
1
1
1
1
1
1
1
1
1
1
1
1
1
1
1
1
1
1
1
1
1
1
1
0.999991
0.999957
1.00029
1.00318
1.00919
0.812023
2.98837
9.64897
11.5166
11.8641
11.937
11.9565
11.9654
11.9744
11.9855
11.9997
12.0162
12.0335
12.0512
12.0685
12.0864
12.1018
12.1149
12.1269
12.1361
12.1437
12.1519
12.1632
12.1804
12.2037
12.2298
12.256
12.2797
12.3002
12.3206
12.3368
12.3499
12.3613
12.3722
12.3864
12.4044
12.426
12.4504
12.473
12.4911
12.5033
12.5126
12.5228
12.5367
12.5512
12.564
12.5755
12.5888
12.6063
12.6277
12.6486
12.6672
12.6773
12.686
12.6978
12.7075
12.7082
12.7073
12.7041
12.7027
12.6973
12.6819
12.6639
12.6412
12.6205
12.5873
12.5508
12.5182
12.4926
12.4703
12.4117
1
1
1
1
1
1
1
1
1
1
1
1
1
1
1
1
1
1
1
1
1
1
1
1
1
1
1
1
1
1
1
1
1
1
1
1
1
1
1
1
1
1
1
1
0.999999
1
1.00006
0.999846
0.986941
0.951887
7.99719
10.9994
11.6885
11.8345
11.8821
11.9029
11.9172
11.9316
11.9466
11.9613
11.9758
11.9909
12.0081
12.0269
12.0453
12.063
12.0784
12.0916
12.1018
12.1092
12.1168
12.1298
12.148
12.1709
12.1963
12.2212
12.2449
12.2694
12.2902
12.3071
12.3194
12.3307
12.346
12.3654
12.3883
12.4136
12.4376
12.457
12.472
12.4842
12.4957
12.5067
12.5162
12.525
12.5352
12.5515
12.5716
12.5927
12.6098
12.621
12.6301
12.6428
12.6572
12.67
12.6698
12.6683
12.6665
12.6636
12.6581
12.6402
12.6212
12.5955
12.5741
12.5389
12.5009
12.4662
12.4394
12.416
12.3528
1
1
1
1
1
1
1
1
1
1
1
1
1
1
1
1
1
1
1
1
1
1
1
1
1
1
1
1
1
1
1
1
1
1
1
1
1
1
1
1
1
1
1
1
1
1
1.00001
0.999813
0.990732
0.881784
4.9538
10.1841
11.4849
11.7557
11.8222
11.8467
11.8623
11.8771
11.8899
11.9029
11.9179
11.9344
11.952
11.9716
11.9916
12.0123
12.0314
12.0484
12.0631
12.0733
12.0805
12.0889
12.1026
12.1209
12.1417
12.1642
12.1888
12.2143
12.2387
12.2588
12.2752
12.289
12.3056
12.3259
12.3489
12.3737
12.3975
12.4186
12.4383
12.4547
12.4672
12.4757
12.482
12.489
12.5003
12.5182
12.5376
12.5542
12.5641
12.5726
12.5856
12.6009
12.6182
12.6288
12.6261
12.6275
12.6275
12.622
12.6156
12.5967
12.5773
12.5481
12.5253
12.4883
12.449
12.4121
12.3839
12.3592
12.2936
1
1
1
1
1
1
1
1
1
1
1
1
1
1
1
1
1
1
1
1
1
1
1
1
1
1
1
1
1
1
1
1
1
1
1
1
1
1
1
1
1
1
1
1
1
1.00004
1.00051
1.00295
0.995712
0.829478
0.820103
8.66912
11.2215
11.6904
11.7804
11.803
11.8129
11.8234
11.8348
11.8459
11.8608
11.878
11.8948
11.9131
11.9334
11.9544
11.9748
11.9939
12.0116
12.0273
12.0402
12.0501
12.0609
12.0753
12.0928
12.1129
12.1351
12.1594
12.1845
12.2071
12.2285
12.2458
12.2635
12.2839
12.3057
12.3283
12.3526
12.3776
12.4007
12.42
12.4343
12.4436
12.4496
12.4563
12.4687
12.4855
12.4996
12.5107
12.5186
12.5299
12.545
12.5619
12.576
12.5793
12.5783
12.5838
12.5862
12.5786
12.5697
12.551
12.5321
12.4993
12.4741
12.4351
12.3947
12.3563
12.327
12.3009
12.2308
1
1
1
1
1
1
1
1
1
1
1
1
1
1
1
1
1
1
1
1
1
1
1
1
1
1
1
1
1
1
1
1
1
1
1
1
1
1
1
1
1
1
1
1
1
0.999996
1.00002
1.00007
0.999747
0.989658
0.890599
6.28193
10.5319
11.514
11.7147
11.7581
11.7713
11.7796
11.7859
11.7927
11.8039
11.8174
11.8309
11.8473
11.8663
11.8877
11.9114
11.9356
11.9586
11.9788
11.9967
12.0107
12.0219
12.034
12.0487
12.0662
12.0858
12.1078
12.1319
12.1565
12.1808
12.2023
12.2222
12.2413
12.2597
12.2803
12.3054
12.332
12.3586
12.381
12.3969
12.4082
12.4161
12.4249
12.4373
12.4503
12.4596
12.4681
12.4782
12.4914
12.5067
12.5187
12.5253
12.5268
12.5314
12.5392
12.5439
12.5325
12.5203
12.5024
12.485
12.4499
12.4211
12.3791
12.338
12.2984
12.2685
12.2421
12.1692
1
1
1
1
1
1
1
1
1
1
1
1
1
1
1
1
1
1
1
1
1
1
1
1
1
1
1
1
1
1
1
1
1
1
1
1
1
1
1
1
1
1
1
1
1
1
1.00001
1.00012
1.00218
1.00507
0.825365
2.18044
9.15071
11.2241
11.6171
11.7074
11.7345
11.7481
11.755
11.759
11.7666
11.7761
11.7856
11.7975
11.812
11.8295
11.8511
11.8766
11.9023
11.9244
11.9442
11.9636
11.9794
11.993
12.0058
12.0195
12.0365
12.0569
12.0805
12.1062
12.1324
12.1576
12.1797
12.1977
12.2152
12.2353
12.259
12.2856
12.3134
12.3375
12.3538
12.3686
12.38
12.3919
12.4038
12.414
12.4211
12.4297
12.4413
12.4545
12.4649
12.4689
12.473
12.4797
12.4878
12.4942
12.4957
12.4809
12.4701
12.4516
12.4356
12.3986
12.3659
12.3207
12.2792
12.239
12.209
12.1821
12.1043
1
1
1
1
1
1
1
1
1
1
1
1
1
1
1
1
1
1
1
1
1
1
1
1
1
1
1
1
1
1
1
1
1
1
1
1
1
1
1
1
1
1
1
1
1
1
1
1.00001
1.00005
0.999657
0.984203
0.828861
6.61512
10.5411
11.421
11.6152
11.6662
11.6893
11.7024
11.7105
11.7196
11.7289
11.7379
11.7484
11.761
11.7764
11.7954
11.8177
11.8423
11.8671
11.8916
11.9144
11.9336
11.9498
11.9636
11.9771
11.9924
12.0111
12.0332
12.0583
12.0849
12.1114
12.1346
12.1549
12.1726
12.1919
12.2144
12.2398
12.2659
12.2877
12.3068
12.324
12.3392
12.3548
12.3675
12.3774
12.3846
12.3935
12.4049
12.4144
12.4185
12.4206
12.4272
12.435
12.4446
12.4444
12.4394
12.4276
12.42
12.3987
12.3825
12.345
12.3094
12.2606
12.2187
12.178
12.1477
12.1222
12.04
1
1
1
1
1
1
1
1
1
1
1
1
1
1
1
1
1
1
1
1
1
1
1
1
1
1
1
1
1
1
1
1
1
1
1
1
1
1
1
1
1
1
1
1
1
1
1
0.999999
0.999982
0.999402
0.988785
0.840143
2.68136
9.28019
11.1399
11.5021
11.5916
11.6249
11.6444
11.659
11.6713
11.6828
11.6935
11.7041
11.7158
11.7292
11.7461
11.7648
11.7853
11.8089
11.8349
11.8608
11.8826
11.9003
11.9167
11.9341
11.9499
11.9668
11.9874
12.0112
12.0365
12.0614
12.0878
12.1109
12.1305
12.1495
12.1705
12.1926
12.2151
12.2374
12.2586
12.2776
12.2958
12.3134
12.3266
12.3394
12.3485
12.3577
12.3667
12.3718
12.3737
12.3779
12.3845
12.3911
12.3956
12.3881
12.3833
12.3754
12.3706
12.344
12.3244
12.2894
12.2519
12.1992
12.1569
12.1159
12.0854
12.0607
11.9725
1
1
1
1
1
1
1
1
1
1
1
1
1
1
1
1
1
1
1
1
1
1
1
1
1
1
1
1
1
1
1
1
1
1
1
1
1
1
1
1
1
1
1
1
1
1
1
1
1.00001
0.999936
0.999299
0.981439
0.801668
6.54427
10.4456
11.2965
11.4909
11.5472
11.5741
11.5964
11.6144
11.6303
11.6454
11.659
11.6712
11.6839
11.699
11.7153
11.733
11.7533
11.7768
11.8028
11.8266
11.8468
11.8661
11.8871
11.9065
11.9246
11.9445
11.9657
11.9885
12.0136
12.0405
12.0651
12.087
12.1066
12.1244
12.1431
12.1655
12.1886
12.2102
12.2313
12.2513
12.2685
12.2822
12.2986
12.3105
12.3208
12.3276
12.3301
12.3327
12.3372
12.3424
12.3426
12.3401
12.3332
12.3333
12.3248
12.3183
12.2862
12.2646
12.2306
12.1932
12.1375
12.0944
12.0535
12.023
11.9977
11.9042
1
1
1
1
1
1