/*--------------------------------*- C++ -*----------------------------------*\
| =========                 |                                                 |
| \\      /  F ield         | OpenFOAM: The Open Source CFD Toolbox           |
|  \\    /   O peration     | Version:  2.2.x                                 |
|   \\  /    A nd           | Web:      www.OpenFOAM.org                      |
|    \\/     M anipulation  |                                                 |
\*---------------------------------------------------------------------------*/
FoamFile
{
    version     2.0;
    format      ascii;
    class       volScalarField;
    location    "0.09";
    object      Ma;
}
// * * * * * * * * * * * * * * * * * * * * * * * * * * * * * * * * * * * * * //

dimensions      [0 0 0 0 0 0 0];

internalField   nonuniform List<scalar> 
1024
(
0
0
0
0
0
0
0
0
0
0
0
0
0
0
0
0
0
0
0
0
0
0
0
0
0
0
0
0
0
0
0
0
0
0
0
0
0
0
0
0
0
0
0
0
0
0
0
0
0
0
0
0
0
0
0
0
0
0
0
0
0
0
0
0
0
0
0
0
0
0
0
0
0
0
0
0
0
0
0
0
0
0
0
0
0
0
0
0
0
0
0
0
0
0
0
0
0
0
0
0
0
0
0
0
0
0
0
0
0
0
0
0
0
0
0
0
0
0
0
0
0
0
0
0
0
0
0
0
0
0
0
0
0
0
0
0
0
0
0
0
0
0
0
0
0
0
0
0
0
0
0
0
3.26147e-17
2.13347e-16
2.56351e-15
1.24038e-14
4.60971e-14
1.67974e-13
5.80699e-13
1.99164e-12
6.80954e-12
2.32123e-11
7.91487e-11
2.69811e-10
9.19894e-10
3.13673e-09
1.06971e-08
3.64842e-08
1.24449e-07
4.24546e-07
1.44844e-06
4.94223e-06
1.68651e-05
5.7546e-05
0.000196339
0.000669968
0.00204947
0.00313151
0.0037356
0.00311398
0.00329055
0.00276011
0.00296892
0.00238297
0.00258796
0.00206214
0.00230582
0.00178588
0.00202521
0.00152177
0.00100764
0.00127637
0.00780024
0.0259547
0.0751007
0.187154
0.25062
0.320583
0.270368
0.301508
0.281645
0.298842
0.289078
0.290981
0.289857
0.291684
0.291332
0.290844
0.290876
0.291173
0.291477
0.291402
0.29163
0.291837
0.292276
0.292534
0.293002
0.293402
0.294027
0.294548
0.29525
0.295863
0.296641
0.297317
0.298066
0.301733
0.30914
0.318833
0.328691
0.323912
0.32829
0.326323
0.328383
0.326723
0.323889
0.316759
0.300978
0.285921
0.292025
0.284682
0.288637
0.285366
0.283835
0.276245
0.267755
0.260192
0.266562
0.265469
0.270251
0.281995
0.315075
0.340916
0.362104
0.345117
0.351399
0.340713
0.321076
0.276057
0.23327
0.255106
0.235188
0.247384
0.249963
0.278431
0.322424
0.315686
0.33334
0.318431
0.318605
0.312269
0.307897
0.304595
0.295597
0.293428
0.291487
0.28993
0.288806
0.287021
0.285726
0.28242
0.276887
0.273524
0.270089
0.271714
0.273757
0.281214
0.307291
0.338025
0.335388
0.351063
0.340905
0.335354
0.308596
0.274164
0.248033
0.266639
0.254802
0.263707
0.262056
0.275598
0.304872
0.333892
0.324355
0.337434
0.329658
0.333074
0.329096
0.32948
0.325741
0.313953
0.278728
0.246291
0.258463
0.245329
0.25434
0.256133
0.2686
0.293375
0.30971
0.33161
0.322997
0.334365
0.331106
0.336109
0.332716
0.327127
0.311261
0.285593
0.262372
0.274427
0.264364
0.270364
0.266205
0.272493
0.287574
0.308792
0.31165
0.326753
0.320598
0.326151
0.322338
0.323076
0.317851
0.29865
0.274273
0.277419
0.266613
0.274262
0.270024
0.275351
0.283359
0.303068
0.314916
0.330351
0.320186
0.326256
0.322025
0.324026
0.319568
0.307598
0.280723
0.260653
0.268418
0.261773
0.265247
0.270688
0.277751
0.296638
0.320894
0.324623
0.341372
0.334354
0.331655
0.329621
0.316235
0.297378
0.283525
0.266183
0.273797
0.272666
0.271276
0.276092
0.278732
0.295251
0.314975
0.324332
0.335495
0.353233
0.700984
0.942234
0.982827
0.983634
0.98844
0.9857
0.981081
0.985127
0.986112
0.988263
0.989729
0.989321
0.989468
0.989749
0.989521
0.989144
0.98724
0.9863
0.986245
0.986084
0.98593
0.985421
0.987202
0.988913
0.989375
0.989644
0.989418
0.988614
0.986224
0.985141
0.984655
0.98458
0.984927
0.98542
0.986273
0.988229
0.989945
0.990422
0.990431
0.990463
0.989112
0.986814
0.985549
0.984669
0.984098
0.983852
0.983856
0.984161
0.985036
0.986941
0.987639
0.987438
0.987098
0.985452
0.983677
0.982738
0.98387
0.988754
0.996553
1.00906
1.03178
1.06844
1.12399
1.20473
1.295
1.36228
1.40998
1.4435
1.46665
1.48351
1.496
1.50268
1.5063
1.50846
1.50842
1.50849
1.50911
1.51154
1.51483
1.51592
1.51664
1.51693
1.51406
1.51191
1.51181
1.51247
1.51557
1.51829
1.51957
1.51974
1.51745
1.5154
1.51466
1.51411
1.51733
1.52044
1.52114
1.52194
1.52064
1.51616
1.51457
1.51442
1.5153
1.5198
1.52225
1.52304
1.52192
1.51736
1.51537
1.51458
1.51508
1.521
1.52397
1.52476
1.52522
1.52056
1.51586
1.51486
1.51459
1.51928
1.52391
1.52482
1.52539
1.52118
1.5107
1.50324
1.49788
1.49769
1.49626
1.49232
1.48419
1.47158
1.45387
1.43527
1.41979
1.41456
1.40224
1.38018
1.35872
1.34085
1.31816
1.29465
1.27127
1.24053
1.21425
1.2009
1.18855
1.14997
1.06793
0.922469
0.899148
0.673376
0.661392
0.661168
0.660976
0.661105
0.661354
0.661555
0.661855
0.662158
0.662463
0.662717
0.662861
0.66293
0.662972
0.663011
0.662977
0.662845
0.662756
0.66264
0.662598
0.662509
0.662542
0.662643
0.662758
0.663072
0.663731
0.664651
0.665718
0.667434
0.669075
0.67018
0.670776
0.670663
0.670045
0.669727
0.668274
0.666225
0.66359
0.660394
0.656103
0.651227
0.646101
0.639658
0.633202
0.626085
0.618311
0.610498
0.602525
0.594286
0.586128
0.577655
0.56937
0.561065
0.552921
0.544616
0.536452
0.528217
0.520156
0.512
0.503969
0.495822
0.487833
0.479782
0.471862
0.463854
0.456017
0.448083
0.440328
0.432496
0.42477
0.416967
0.409339
0.401616
0.394054
0.386392
0.37887
0.371263
0.363799
0.356256
0.348837
0.341319
0.33395
0.326501
0.319187
0.311778
0.304491
0.297104
0.28987
0.282565
0.27538
0.268105
0.260966
0.253779
0.246729
0.239597
0.232562
0.225468
0.218499
0.21148
0.204548
0.197702
0.191073
0.184592
0.17818
0.17154
0.164653
0.157242
0.149238
0.140486
0.131088
0.121899
0.113624
0.107191
0.101896
0.0976203
0.0942432
0.0931697
0.0904416
0.0891439
0.084964
0.0801052
0.0685003
0.0529824
0.0395411
0.0304155
0.023498
0.0179658
0.0134891
0.00990626
0.00710251
0.00496808
0.00339047
0.00225859
0.00146977
0.00093516
0.000582323
0.000355221
0.000212467
0.000124716
7.19016e-05
4.07434e-05
2.27075e-05
1.24549e-05
6.72668e-06
3.57909e-06
1.87694e-06
9.70538e-07
4.95025e-07
2.4914e-07
1.23765e-07
6.07052e-08
2.94066e-08
1.40724e-08
6.65424e-09
3.10984e-09
1.43674e-09
6.56308e-10
2.96487e-10
1.32484e-10
5.85649e-11
2.56146e-11
1.10872e-11
4.74754e-12
2.0123e-12
8.41876e-13
3.47619e-13
1.41153e-13
5.61388e-14
2.13301e-14
8.04278e-15
2.98865e-15
6.26058e-16
8.69144e-17
0
0
0
0
0
0
0
0
0
0
0
0
0
0
0
0
0
0
0
0
0
0
0
0
0
0
0
0
0
0
0
0
0
0
0
0
0
0
0
0
0
0
0
0
0
0
0
0
0
0
0
0
0
0
0
0
0
0
0
0
0
0
0
0
0
0
0
0
0
0
0
0
0
0
0
0
0
0
0
0
0
0
0
0
0
0
0
0
0
0
0
0
0
0
0
0
0
0
0
0
0
0
0
0
0
0
0
0
0
0
0
0
0
0
0
0
0
0
0
0
0
0
0
0
0
0
0
0
0
0
0
0
0
0
0
0
0
0
0
0
0
0
0
0
0
0
0
0
0
0
0
0
0
0
0
0
0
0
0
0
0
0
0
0
0
0
0
0
0
0
0
0
0
0
0
0
0
0
0
0
0
0
0
0
0
0
0
0
0
0
0
0
0
0
0
0
0
0
0
0
0
0
0
0
0
0
0
0
0
0
0
0
0
0
0
0
0
0
0
0
0
0
0
0
0
0
0
0
0
0
0
0
0
0
0
0
0
0
0
0
0
0
0
0
0
0
0
0
0
0
0
0
0
0
0
0
0
0
0
0
0
0
0
0
0
0
0
0
0
0
0
0
0
0
0
0
0
0
0
0
0
0
0
0
0
0
0
0
0
0
0
0
0
0
0
0
0
0
0
0
0
0
0
0
0
0
0
0
0
0
0
0
)
;

boundaryField
{
    front-back
    {
        type            empty;
    }
    inlet-outlet
    {
        type            calculated;
        value           uniform 0;
    }
    top-down
    {
        type            empty;
    }
}


// ************************************************************************* //
