/*--------------------------------*- C++ -*----------------------------------*\
| =========                 |                                                 |
| \\      /  F ield         | OpenFOAM: The Open Source CFD Toolbox           |
|  \\    /   O peration     | Version:  2.2.x                                 |
|   \\  /    A nd           | Web:      www.OpenFOAM.org                      |
|    \\/     M anipulation  |                                                 |
\*---------------------------------------------------------------------------*/
FoamFile
{
    version     2.0;
    format      ascii;
    class       volScalarField;
    location    "0.15";
    object      T;
}
// * * * * * * * * * * * * * * * * * * * * * * * * * * * * * * * * * * * * * //

dimensions      [0 0 0 1 0 0 0];

internalField   nonuniform List<scalar> 
14161
(
1
1
1
1
1
1
1
0.999999
0.999998
0.999997
0.999994
0.999989
0.999981
0.999968
0.999948
0.999919
0.999876
0.999818
0.999738
0.999633
0.999497
0.999326
0.999115
0.998858
0.998559
0.998198
0.997798
0.997332
0.996806
0.996262
0.995638
0.994959
0.994266
0.993508
0.992721
0.991916
0.991077
0.990208
0.989299
0.988382
0.987492
0.986643
0.985833
0.984888
0.983945
0.983038
0.982085
0.981138
0.980152
0.979304
0.978219
0.976819
0.975571
0.974323
0.973087
0.971961
0.970637
0.968874
0.967196
0.965454
0.964425
0.96289
0.96083
0.959424
0.95784
0.95581
0.953731
0.951289
0.947846
0.945934
0.94436
0.94325
0.942855
0.942033
0.939723
0.934308
0.927925
0.923295
0.92277
0.924198
0.932418
0.936131
0.938805
0.924163
0.862062
1.30631
3.26994
3.24699
3.25675
3.2641
3.28139
3.3101
3.34183
3.39135
3.42177
3.44314
3.46997
3.48879
3.50503
3.51963
3.5349
3.54838
3.56028
3.57094
3.58718
3.60191
3.62178
3.63619
3.6551
3.66807
3.6904
3.70975
3.74262
3.77447
3.82456
3.88486
4.01189
4.26645
4.31521
1
1
1
1
1
1
1
0.999999
0.999998
0.999997
0.999994
0.999989
0.999981
0.999968
0.999948
0.999918
0.999876
0.999817
0.999737
0.999632
0.999496
0.999326
0.999114
0.998861
0.998553
0.998204
0.997795
0.997324
0.996829
0.996237
0.995638
0.994983
0.994261
0.993485
0.992732
0.991908
0.991045
0.990205
0.989316
0.9884
0.98751
0.986666
0.985744
0.984834
0.983966
0.983064
0.982144
0.98121
0.980259
0.979291
0.977982
0.976668
0.975443
0.974316
0.973241
0.972318
0.970935
0.968925
0.967149
0.965405
0.964098
0.96283
0.961012
0.959456
0.95769
0.955667
0.95314
0.950626
0.947753
0.946149
0.94456
0.943114
0.942443
0.941349
0.938813
0.932263
0.925478
0.920707
0.920295
0.921522
0.928913
0.934677
0.941788
0.94262
0.951298
1.8006
3.38495
3.43723
3.42704
3.43908
3.45788
3.43435
3.44159
3.49369
3.49411
3.48977
3.51221
3.52654
3.54601
3.5605
3.57284
3.582
3.59306
3.60252
3.61813
3.63017
3.64795
3.65996
3.67709
3.68862
3.71053
3.72826
3.76056
3.7906
3.84099
3.90124
4.03307
4.28515
4.31508
1
1
1
1
1
1
1
0.999999
0.999998
0.999997
0.999994
0.999989
0.999981
0.999968
0.999948
0.999918
0.999876
0.999817
0.999738
0.999632
0.999497
0.999325
0.999114
0.998859
0.998554
0.998206
0.997789
0.997339
0.996819
0.996243
0.995636
0.994972
0.994259
0.993509
0.992722
0.991908
0.991044
0.990153
0.989312
0.988419
0.9875
0.986581
0.985746
0.984863
0.983908
0.983024
0.982111
0.981309
0.980276
0.979101
0.977909
0.97671
0.975586
0.974398
0.973222
0.972195
0.970893
0.96902
0.967286
0.965512
0.964031
0.962679
0.961308
0.959608
0.957842
0.95589
0.953421
0.950737
0.948104
0.946426
0.945061
0.943338
0.942498
0.941283
0.939213
0.934054
0.929039
0.924666
0.924017
0.924576
0.930536
0.938166
0.955606
0.968983
0.974076
1.79957
3.4042
3.44881
3.41184
3.41347
3.41385
3.4577
3.47412
3.47025
3.50772
3.53201
3.538
3.56186
3.58201
3.59453
3.61154
3.61941
3.6309
3.64207
3.65824
3.66876
3.68565
3.69557
3.71204
3.72153
3.74411
3.75933
3.79077
3.81752
3.86677
3.9256
4.06538
4.31169
4.31349
1
1
1
1
1
1
1
0.999999
0.999998
0.999997
0.999994
0.999989
0.999981
0.999968
0.999948
0.999918
0.999876
0.999817
0.999737
0.999632
0.999497
0.999325
0.999115
0.998857
0.998559
0.998199
0.997797
0.997335
0.99682
0.996257
0.995639
0.994971
0.994256
0.993526
0.992715
0.991894
0.99108
0.990192
0.989285
0.988441
0.987525
0.986626
0.985723
0.98489
0.98394
0.983049
0.982151
0.981316
0.980348
0.979072
0.977896
0.976737
0.975666
0.974561
0.973187
0.971876
0.970541
0.968988
0.967503
0.96571
0.964093
0.962531
0.961003
0.959437
0.957602
0.955548
0.952959
0.950265
0.947802
0.946325
0.94492
0.942809
0.940992
0.93892
0.935343
0.929477
0.924878
0.921735
0.922805
0.924519
0.927686
0.927433
0.922261
0.898737
0.840729
1.32104
3.26151
3.29449
3.24128
3.26051
3.34748
3.37042
3.37977
3.41177
3.45327
3.47667
3.508
3.53523
3.56003
3.57766
3.59583
3.60745
3.62718
3.64103
3.66012
3.67302
3.69108
3.70195
3.72008
3.73029
3.75523
3.77129
3.80423
3.83164
3.88342
3.94639
4.10066
4.33811
4.30965
1
1
1
1
1
1
1
0.999999
0.999998
0.999997
0.999994
0.999989
0.999981
0.999968
0.999948
0.999918
0.999876
0.999817
0.999738
0.999632
0.999496
0.999325
0.999115
0.998859
0.998557
0.998201
0.9978
0.997333
0.996822
0.996261
0.995628
0.994978
0.994266
0.993515
0.992727
0.991915
0.991075
0.99021
0.989335
0.988442
0.987548
0.986642
0.985717
0.984847
0.983953
0.983042
0.98214
0.981253
0.980301
0.9791
0.977941
0.976766
0.975733
0.974594
0.973181
0.97185
0.970483
0.969007
0.967545
0.965887
0.964234
0.962646
0.96106
0.959367
0.957658
0.955832
0.953638
0.951376
0.948931
0.946794
0.944848
0.942814
0.941078
0.939418
0.937303
0.933953
0.931109
0.927303
0.926258
0.926119
0.928508
0.930178
0.927571
0.910165
0.864134
1.34783
3.19642
3.20573
3.26879
3.24351
3.29042
3.31689
3.34737
3.37732
3.42178
3.4465
3.4757
3.50044
3.52384
3.5391
3.55701
3.57475
3.59969
3.61832
3.64014
3.65464
3.67345
3.68586
3.70583
3.71916
3.74741
3.76675
3.80209
3.83052
3.88327
3.94663
4.10389
4.33712
4.3034
1
1
1
1
1
1
1
0.999999
0.999998
0.999997
0.999994
0.999989
0.999981
0.999968
0.999948
0.999918
0.999876
0.999817
0.999737
0.999632
0.999496
0.999326
0.999114
0.998859
0.998557
0.998202
0.997797
0.997335
0.996824
0.996258
0.995641
0.994983
0.994268
0.993521
0.992729
0.991923
0.991075
0.990207
0.989335
0.98846
0.987557
0.986644
0.985739
0.98489
0.983995
0.983086
0.982139
0.981248
0.980261
0.97911
0.977994
0.976805
0.975739
0.974533
0.973173
0.971846
0.970408
0.968992
0.967407
0.965726
0.964122
0.962638
0.960938
0.959024
0.957258
0.955321
0.953264
0.950893
0.948319
0.946072
0.944037
0.941981
0.939796
0.937183
0.933864
0.930208
0.927101
0.924338
0.923438
0.922352
0.921504
0.916572
0.906657
0.904946
0.882937
2.07911
3.28743
3.29591
3.34471
3.29677
3.32381
3.35177
3.37953
3.39771
3.42908
3.45627
3.47976
3.49813
3.51502
3.53028
3.55031
3.56641
3.58928
3.60636
3.62764
3.64358
3.66368
3.67708
3.69836
3.71449
3.74494
3.76681
3.80267
3.83086
3.8818
3.94434
4.10209
4.33555
4.29991
1
1
1
1
1
1
1
0.999999
0.999998
0.999997
0.999994
0.999989
0.999981
0.999968
0.999948
0.999918
0.999876
0.999818
0.999738
0.999633
0.999497
0.999326
0.999115
0.998862
0.998556
0.998208
0.997794
0.997344
0.996822
0.996261
0.995639
0.994975
0.994267
0.993519
0.992738
0.99192
0.991084
0.990214
0.989345
0.988453
0.987568
0.986664
0.985775
0.98488
0.984005
0.983107
0.982185
0.981229
0.980251
0.97917
0.978049
0.976867
0.975674
0.974495
0.973214
0.971876
0.970481
0.968993
0.967509
0.965893
0.964265
0.96264
0.961021
0.959185
0.957419
0.955585
0.953784
0.951509
0.949039
0.946604
0.944437
0.94242
0.940584
0.938675
0.936623
0.934546
0.931155
0.925699
0.919843
0.913855
0.90827
0.902782
0.88858
0.900097
0.921523
2.56121
3.30301
3.37004
3.39739
3.33602
3.36533
3.37854
3.42121
3.43292
3.45339
3.48006
3.49512
3.5066
3.51871
3.52956
3.54578
3.56062
3.58116
3.59865
3.61932
3.63525
3.65348
3.66571
3.68765
3.70662
3.73883
3.7621
3.79812
3.82547
3.87602
3.93858
4.09524
4.32852
4.29748
1
1
1
1
1
1
1
0.999999
0.999998
0.999997
0.999994
0.999989
0.999981
0.999968
0.999948
0.999919
0.999876
0.999818
0.999738
0.999633
0.999497
0.999326
0.999115
0.998861
0.998556
0.998207
0.997796
0.997341
0.996825
0.996263
0.995646
0.994983
0.994276
0.993529
0.992742
0.991928
0.991087
0.990227
0.989347
0.988462
0.987569
0.986677
0.985795
0.984903
0.984003
0.983092
0.982208
0.981253
0.980219
0.979154
0.978015
0.976935
0.975721
0.974475
0.973171
0.971806
0.970449
0.968962
0.967428
0.965818
0.964273
0.962532
0.960739
0.95885
0.95693
0.954894
0.952961
0.950536
0.948163
0.945797
0.943683
0.941448
0.939149
0.936865
0.934469
0.931351
0.927205
0.92256
0.917813
0.914183
0.908417
0.904788
0.888234
0.89775
0.911827
2.79923
3.23753
3.31928
3.37761
3.33839
3.34459
3.36616
3.41262
3.42874
3.4587
3.49197
3.50998
3.52384
3.53181
3.53839
3.54902
3.56222
3.58067
3.5967
3.61549
3.63034
3.64784
3.65991
3.68269
3.70265
3.73424
3.75794
3.79297
3.82021
3.87018
3.93328
4.08906
4.3231
4.29548
1
1
1
1
1
1
1
0.999999
0.999998
0.999997
0.999994
0.999989
0.999981
0.999968
0.999948
0.999919
0.999877
0.999818
0.999738
0.999633
0.999498
0.999327
0.999117
0.998861
0.998561
0.998205
0.997805
0.997339
0.996832
0.996263
0.995648
0.99499
0.994274
0.993533
0.992739
0.991935
0.991087
0.990238
0.989348
0.988473
0.987576
0.986693
0.985794
0.984913
0.984031
0.983146
0.982214
0.981251
0.980242
0.979186
0.97808
0.97693
0.975734
0.974479
0.973173
0.971819
0.970454
0.968987
0.967492
0.965954
0.964463
0.962762
0.960845
0.958947
0.957113
0.955217
0.953426
0.951293
0.949117
0.946683
0.944406
0.942078
0.939655
0.937185
0.934471
0.931143
0.9273
0.923655
0.918522
0.915716
0.911747
0.914079
0.910671
0.916719
1.03299
3.06968
3.31052
3.29379
3.39959
3.38404
3.36782
3.37559
3.38982
3.41595
3.44837
3.4792
3.50472
3.52688
3.53786
3.54789
3.55783
3.57001
3.58577
3.60093
3.61548
3.62804
3.64327
3.655
3.67813
3.69917
3.73083
3.75385
3.78761
3.81402
3.86314
3.92659
4.08133
4.31502
4.29416
1
1
1
1
1
1
1
0.999999
0.999998
0.999997
0.999994
0.999989
0.999981
0.999968
0.999948
0.999919
0.999877
0.999818
0.999738
0.999633
0.999498
0.999327
0.999118
0.998862
0.998561
0.998208
0.997803
0.997345
0.996833
0.99627
0.995656
0.994989
0.994285
0.993536
0.992758
0.991943
0.991106
0.990244
0.989367
0.988482
0.987594
0.986708
0.985818
0.984934
0.984055
0.983157
0.982221
0.981252
0.980241
0.979197
0.978095
0.976943
0.975731
0.974461
0.973121
0.971792
0.970402
0.968939
0.96744
0.965886
0.964353
0.962485
0.960494
0.95845
0.95658
0.954694
0.95291
0.950878
0.948678
0.946126
0.943147
0.940303
0.937341
0.934388
0.931622
0.928997
0.926972
0.925515
0.923
0.921577
0.918353
0.918237
0.917773
0.931041
1.39279
3.22169
3.39187
3.34549
3.41636
3.4242
3.40265
3.39191
3.38995
3.41771
3.4397
3.46421
3.49272
3.51858
3.53072
3.54856
3.56405
3.57909
3.59543
3.61019
3.6215
3.62954
3.64212
3.65325
3.67601
3.69727
3.72812
3.75016
3.78289
3.80904
3.85799
3.92175
4.07702
4.30963
4.29341
1
1
1
1
1
1
1
0.999999
0.999998
0.999997
0.999994
0.999989
0.999981
0.999968
0.999948
0.999919
0.999877
0.999819
0.999739
0.999634
0.999499
0.999329
0.99912
0.998864
0.998564
0.998211
0.997807
0.997347
0.996839
0.996268
0.99566
0.994993
0.99429
0.99354
0.992761
0.991946
0.991112
0.990253
0.989381
0.988495
0.987607
0.986718
0.985831
0.984949
0.984073
0.983185
0.982247
0.981278
0.980268
0.979218
0.978121
0.976971
0.975768
0.974496
0.973167
0.971836
0.970464
0.969041
0.967555
0.965992
0.964317
0.962541
0.960735
0.958723
0.956878
0.955153
0.953258
0.951381
0.949178
0.946771
0.943876
0.940946
0.937969
0.935417
0.932923
0.930339
0.927569
0.926109
0.923842
0.921459
0.915744
0.908835
0.912673
0.911395
1.72217
3.23166
3.41347
3.38853
3.36456
3.41361
3.40615
3.39435
3.41062
3.43126
3.44024
3.46146
3.48349
3.50544
3.51783
3.53935
3.55857
3.57619
3.59425
3.61068
3.62302
3.63132
3.64277
3.65301
3.67478
3.69544
3.72535
3.74599
3.77839
3.8044
3.85373
3.91913
4.0741
4.30704
4.29208
1
1
1
1
1
1
1
0.999999
0.999998
0.999997
0.999994
0.999989
0.999981
0.999968
0.999948
0.999919
0.999877
0.999819
0.999739
0.999635
0.9995
0.99933
0.99912
0.998866
0.998566
0.998213
0.997812
0.997352
0.996843
0.996279
0.995667
0.995003
0.994301
0.99355
0.992772
0.991957
0.991126
0.990265
0.989396
0.988509
0.98762
0.98673
0.985846
0.984969
0.984098
0.98321
0.982273
0.981294
0.980276
0.979221
0.978117
0.976971
0.975761
0.974502
0.973174
0.971807
0.970382
0.968956
0.967474
0.965865
0.964151
0.96243
0.960499
0.958537
0.956601
0.954764
0.952687
0.950607
0.948306
0.945654
0.94259
0.939862
0.937515
0.935385
0.933165
0.930678
0.927715
0.924456
0.919902
0.915469
0.909729
0.895066
0.895693
0.892037
2.40994
3.26581
3.41084
3.42641
3.35836
3.39208
3.38478
3.39487
3.39964
3.42139
3.43318
3.46387
3.48559
3.50636
3.51595
3.53618
3.55501
3.57297
3.59378
3.61054
3.62349
3.63321
3.64553
3.65581
3.67575
3.69483
3.72313
3.74223
3.77482
3.80116
3.85181
3.91895
4.07538
4.30796
4.28915
1
1
1
1
1
1
1
0.999999
0.999998
0.999997
0.999994
0.999989
0.999981
0.999968
0.999949
0.999919
0.999878
0.999819
0.99974
0.999636
0.999501
0.999332
0.999122
0.99887
0.998567
0.998219
0.997812
0.997355
0.996845
0.996281
0.99567
0.995004
0.994306
0.993555
0.992781
0.991967
0.991135
0.990278
0.989408
0.988525
0.987637
0.986749
0.985866
0.984992
0.984122
0.983236
0.982295
0.981323
0.980301
0.979247
0.978148
0.977004
0.97581
0.974553
0.973242
0.971858
0.97041
0.969024
0.967493
0.965919
0.964268
0.962651
0.960783
0.958926
0.957049
0.955114
0.952915
0.950559
0.948422
0.946295
0.944031
0.941954
0.939868
0.937412
0.933909
0.928592
0.923103
0.917661
0.912428
0.905232
0.906182
0.90357
0.918836
0.958737
2.95692
3.28226
3.38913
3.4427
3.39403
3.38541
3.38157
3.38746
3.3951
3.40769
3.43019
3.45755
3.48089
3.50619
3.51711
3.53447
3.55263
3.56844
3.58703
3.60461
3.61849
3.6313
3.64538
3.65778
3.67654
3.69429
3.72098
3.73866
3.77217
3.79948
3.85118
3.92008
4.07702
4.30757
4.28624
1
1
1
1
1
1
1
0.999999
0.999998
0.999997
0.999994
0.999989
0.999981
0.999968
0.999949
0.99992
0.999878
0.99982
0.999741
0.999637
0.999502
0.999333
0.999124
0.998873
0.99857
0.998224
0.997815
0.997366
0.99685
0.996295
0.995675
0.995024
0.994313
0.993575
0.992794
0.991986
0.991149
0.990295
0.989426
0.988544
0.987657
0.986769
0.985889
0.985012
0.984148
0.983254
0.982318
0.981331
0.980312
0.979247
0.978153
0.977011
0.97582
0.97457
0.973252
0.971848
0.970388
0.968985
0.967415
0.965837
0.96418
0.962535
0.960657
0.958765
0.956846
0.954827
0.952523
0.95009
0.947879
0.945692
0.943313
0.940934
0.93842
0.935639
0.932282
0.928082
0.923965
0.919747
0.919045
0.917249
0.915008
0.909261
0.905858
1.18513
3.22353
3.34722
3.38012
3.44155
3.41373
3.38913
3.38604
3.38043
3.39903
3.40278
3.43277
3.45178
3.48362
3.50886
3.52057
3.53421
3.55165
3.56405
3.58
3.59691
3.61279
3.62848
3.64461
3.65811
3.6758
3.69247
3.71887
3.73623
3.77069
3.79903
3.8519
3.92232
4.08065
4.3086
4.28272
1
1
1
1
1
1
1
0.999999
0.999998
0.999997
0.999994
0.999989
0.999981
0.999968
0.999949
0.99992
0.999878
0.999821
0.999742
0.999638
0.999504
0.999335
0.999126
0.998873
0.998573
0.998224
0.99782
0.997367
0.996855
0.996298
0.995685
0.995027
0.994324
0.993581
0.992804
0.991995
0.991162
0.990309
0.989445
0.988562
0.98768
0.986794
0.985913
0.98504
0.984176
0.983293
0.982354
0.981378
0.980356
0.979298
0.978199
0.977056
0.975866
0.974626
0.973318
0.971914
0.970521
0.969074
0.967493
0.965873
0.964305
0.962634
0.960859
0.959049
0.95725
0.955275
0.953032
0.950604
0.948403
0.946108
0.943756
0.941323
0.938835
0.93562
0.932021
0.928648
0.926115
0.922809
0.920712
0.921841
0.923309
0.940013
0.948936
1.80045
3.31659
3.40552
3.42259
3.40994
3.40804
3.38639
3.38503
3.38287
3.39825
3.39471
3.42203
3.44383
3.47901
3.50624
3.52328
3.53517
3.54989
3.56048
3.57352
3.59109
3.60848
3.62625
3.64438
3.65776
3.67504
3.69046
3.71659
3.73459
3.77013
3.79979
3.85315
3.92399
4.08453
4.30916
4.27877
1
1
1
1
1
1
1
0.999999
0.999998
0.999997
0.999994
0.999989
0.999981
0.999969
0.999949
0.99992
0.999879
0.999821
0.999743
0.999639
0.999506
0.999337
0.99913
0.998877
0.998582
0.998227
0.997831
0.997372
0.996867
0.996305
0.995695
0.995038
0.994335
0.993598
0.992816
0.992014
0.991176
0.990329
0.989458
0.988585
0.987698
0.986814
0.985931
0.985058
0.984194
0.983313
0.98238
0.981405
0.980383
0.979318
0.978209
0.977055
0.975855
0.974625
0.973324
0.971934
0.970533
0.969064
0.967467
0.965808
0.964245
0.962564
0.960799
0.958963
0.957179
0.95509
0.952838
0.95049
0.948314
0.945685
0.942885
0.940095
0.937641
0.93523
0.933384
0.932215
0.930611
0.928079
0.923734
0.917091
0.897284
0.89242
0.887022
2.64072
3.36611
3.46822
3.46401
3.40705
3.40944
3.38383
3.38747
3.38221
3.39635
3.38798
3.41405
3.43631
3.47217
3.4978
3.52034
3.53288
3.54865
3.55976
3.57071
3.58863
3.60593
3.62399
3.64273
3.65601
3.67402
3.68923
3.71536
3.7338
3.77025
3.80059
3.85501
3.92573
4.08961
4.30968
4.275
1
1
1
1
1
1
1
0.999999
0.999998
0.999997
0.999994
0.999989
0.999981
0.999969
0.99995
0.999921
0.99988
0.999822
0.999744
0.999641
0.999508
0.99934
0.999132
0.998881
0.998583
0.998233
0.997834
0.997377
0.996874
0.99631
0.995707
0.995045
0.994349
0.993605
0.992831
0.992026
0.991193
0.990345
0.989478
0.988605
0.987724
0.986842
0.985964
0.985092
0.984233
0.983353
0.982419
0.981448
0.980426
0.979365
0.978254
0.977108
0.97591
0.974692
0.973401
0.972023
0.970599
0.969157
0.967557
0.965966
0.964421
0.962832
0.961081
0.959253
0.957421
0.955266
0.952852
0.95054
0.948589
0.946651
0.944502
0.942403
0.940149
0.93752
0.934498
0.930509
0.924967
0.917275
0.90713
0.904941
0.901035
0.904256
1.02966
3.1834
3.40531
3.42557
3.46394
3.41956
3.3968
3.39145
3.38418
3.37853
3.39016
3.38248
3.40868
3.42708
3.46039
3.48507
3.51188
3.52783
3.54566
3.55907
3.57073
3.58798
3.60446
3.62127
3.64033
3.65295
3.67237
3.68788
3.71439
3.73345
3.77036
3.8018
3.85657
3.92719
4.09647
4.31022
4.27075
1
1
1
1
1
1
1
0.999999
0.999998
0.999997
0.999994
0.999989
0.999982
0.999969
0.99995
0.999921
0.99988
0.999823
0.999745
0.999642
0.99951
0.999342
0.999135
0.998886
0.998588
0.998239
0.997841
0.997386
0.996882
0.99632
0.995715
0.995055
0.994361
0.993616
0.992848
0.992037
0.991213
0.990357
0.989499
0.98862
0.987745
0.98686
0.985983
0.985109
0.98425
0.983367
0.982434
0.981464
0.980447
0.979388
0.978278
0.977129
0.975931
0.974683
0.97341
0.972047
0.970587
0.969169
0.967652
0.966125
0.96452
0.96293
0.961039
0.95899
0.956784
0.954759
0.952837
0.951069
0.94927
0.947369
0.945018
0.942122
0.938399
0.933931
0.929443
0.92712
0.925248
0.925339
0.925061
0.926525
0.932497
0.94844
1.54417
3.3609
3.43655
3.44174
3.42526
3.41348
3.38981
3.38251
3.37771
3.37113
3.37818
3.37735
3.3996
3.41611
3.44874
3.47282
3.50245
3.5208
3.54071
3.55765
3.57124
3.58939
3.6037
3.61877
3.63733
3.64967
3.67055
3.68713
3.71412
3.73367
3.77143
3.80274
3.85872
3.92948
4.10583
4.31069
4.26689
1
1
1
1
1
1
1
0.999999
0.999998
0.999997
0.999994
0.999989
0.999982
0.999969
0.99995
0.999922
0.999881
0.999824
0.999747
0.999645
0.999512
0.999346
0.999139
0.99889
0.998592
0.998246
0.997846
0.997395
0.996888
0.996332
0.995724
0.99507
0.99437
0.993633
0.992859
0.992057
0.991229
0.990378
0.98952
0.988642
0.98777
0.986886
0.986012
0.985144
0.984286
0.983402
0.982469
0.981499
0.980485
0.979433
0.97833
0.977187
0.975992
0.97475
0.973448
0.972111
0.970689
0.969224
0.967806
0.966234
0.964631
0.962906
0.96112
0.95914
0.957315
0.955575
0.953904
0.951982
0.949868
0.947497
0.944288
0.940881
0.937532
0.93568
0.93411
0.933272
0.932299
0.930025
0.925869
0.912711
0.908275
0.902249
2.46035
3.43222
3.4528
3.45181
3.40464
3.41669
3.37989
3.37267
3.37193
3.36151
3.36851
3.37062
3.38649
3.40623
3.43696
3.46271
3.49133
3.51332
3.53537
3.55474
3.56965
3.58946
3.60182
3.61596
3.63271
3.64531
3.6678
3.68651
3.71441
3.73473
3.77255
3.80369
3.86074
3.93189
4.11848
4.31247
4.26365
1
1
1
1
1
1
1
0.999999
0.999998
0.999997
0.999994
0.99999
0.999982
0.999969
0.999951
0.999922
0.999882
0.999825
0.999748
0.999646
0.999515
0.999349
0.999143
0.998896
0.998597
0.998254
0.997854
0.997406
0.996898
0.996348
0.995734
0.995088
0.994381
0.993651
0.992869
0.992071
0.99124
0.990393
0.989531
0.988656
0.987783
0.986902
0.986027
0.985156
0.984299
0.983415
0.982482
0.981509
0.980494
0.979441
0.978337
0.977191
0.975996
0.974754
0.973458
0.972143
0.970765
0.969325
0.967843
0.966291
0.964585
0.962828
0.961098
0.959378
0.957616
0.955849
0.953985
0.951913
0.949508
0.94665
0.943872
0.941363
0.939416
0.938084
0.936375
0.933812
0.929459
0.921905
0.917097
0.910304
0.921675
0.991832
3.08189
3.44057
3.47991
3.45559
3.40474
3.39931
3.3717
3.36547
3.36221
3.35664
3.35966
3.36835
3.3736
3.40529
3.42486
3.45541
3.48176
3.50646
3.53121
3.55172
3.56769
3.58681
3.59825
3.6122
3.6288
3.64171
3.66577
3.68644
3.71488
3.73565
3.77275
3.8034
3.86292
3.9358
4.13276
4.31252
4.25922
1
1
1
1
1
1
1
0.999999
0.999998
0.999997
0.999994
0.99999
0.999982
0.99997
0.999951
0.999923
0.999883
0.999827
0.99975
0.999649
0.999518
0.999352
0.999148
0.998899
0.998604
0.998259
0.997861
0.997413
0.996906
0.996355
0.995743
0.995095
0.994393
0.993659
0.992885
0.992085
0.991257
0.990411
0.989547
0.988677
0.987797
0.98692
0.986043
0.985178
0.984318
0.983438
0.982501
0.981531
0.980512
0.979457
0.978353
0.977208
0.976018
0.974788
0.973514
0.97219
0.97082
0.969397
0.967911
0.966346
0.964729
0.96305
0.961352
0.959593
0.957911
0.956065
0.954179
0.952151
0.94979
0.946962
0.944425
0.942301
0.940429
0.939333
0.937713
0.935186
0.930922
0.925208
0.918696
0.907316
0.897568
1.53207
3.37025
3.43608
3.45414
3.43255
3.41074
3.38443
3.36208
3.35892
3.35315
3.35117
3.34925
3.36489
3.36499
3.39882
3.40942
3.44811
3.47309
3.50108
3.52686
3.54824
3.56348
3.58154
3.59312
3.60829
3.62589
3.63941
3.66446
3.68711
3.71584
3.73585
3.772
3.80288
3.86561
3.94186
4.14806
4.31259
4.25369
1
1
1
1
1
1
1
0.999999
0.999999
0.999997
0.999994
0.99999
0.999982
0.99997
0.999951
0.999924
0.999884
0.999828
0.999752
0.999651
0.999521
0.999356
0.999153
0.998905
0.998613
0.998266
0.997875
0.99742
0.996923
0.996363
0.995762
0.995104
0.994411
0.993669
0.9929
0.992093
0.991266
0.990417
0.989552
0.988679
0.987799
0.986923
0.986046
0.985182
0.984321
0.983439
0.982496
0.98152
0.9805
0.97944
0.978336
0.977189
0.975999
0.974767
0.973492
0.97216
0.970766
0.969354
0.967836
0.96624
0.964705
0.963059
0.961394
0.959684
0.958031
0.956091
0.954041
0.951835
0.949709
0.947546
0.94579
0.944031
0.941986
0.939483
0.935829
0.92996
0.921221
0.916283
0.912854
0.927928
0.942481
2.52304
3.4869
3.4357
3.44462
3.40329
3.39948
3.37107
3.3547
3.34993
3.34481
3.34521
3.33496
3.35674
3.35433
3.38535
3.40003
3.44005
3.46761
3.49583
3.52179
3.54297
3.55725
3.5756
3.5889
3.60585
3.62482
3.63911
3.66441
3.68823
3.71533
3.73353
3.77083
3.80237
3.86931
3.94878
4.16482
4.31199
4.24351
1
1
1
1
1
1
1
0.999999
0.999999
0.999997
0.999994
0.99999
0.999982
0.99997
0.999952
0.999925
0.999885
0.999829
0.999754
0.999654
0.999525
0.999361
0.999158
0.998912
0.998619
0.998274
0.997883
0.997429
0.996934
0.996373
0.995773
0.995118
0.994421
0.993684
0.99291
0.992107
0.991275
0.990428
0.989561
0.988688
0.98781
0.986929
0.986054
0.985181
0.984323
0.983431
0.982489
0.981507
0.980492
0.979431
0.978333
0.977181
0.975981
0.974728
0.973443
0.972109
0.970715
0.969337
0.967855
0.966324
0.964765
0.963188
0.961449
0.959636
0.957922
0.956171
0.954385
0.952614
0.950759
0.948694
0.946308
0.943511
0.940281
0.937501
0.935587
0.935839
0.937905
0.942779
0.942352
0.949862
1.00266
3.11039
3.4286
3.45865
3.44057
3.39855
3.38643
3.36236
3.34339
3.34133
3.33698
3.33351
3.3229
3.3439
3.34551
3.37206
3.39353
3.42795
3.46197
3.48889
3.51379
3.53556
3.54992
3.56938
3.58447
3.60302
3.62316
3.63894
3.66495
3.68815
3.71328
3.73108
3.76944
3.80357
3.87294
3.9552
4.18153
4.30995
4.23136
1
1
1
1
1
1
1
0.999999
0.999999
0.999997
0.999995
0.99999
0.999983
0.999971
0.999953
0.999925
0.999886
0.999831
0.999756
0.999657
0.999528
0.999366
0.999164
0.99892
0.998627
0.998286
0.997891
0.997444
0.996943
0.996389
0.995785
0.995131
0.994433
0.993694
0.992919
0.992114
0.991281
0.99043
0.989562
0.988684
0.987801
0.986917
0.986036
0.985161
0.984298
0.983403
0.982456
0.981466
0.98044
0.979365
0.97825
0.977085
0.975883
0.974639
0.973364
0.972049
0.970663
0.969226
0.967734
0.966123
0.96451
0.962968
0.961336
0.959748
0.958099
0.956452
0.954472
0.952197
0.949731
0.947429
0.945644
0.944966
0.944213
0.943954
0.942373
0.939979
0.934518
0.919486
0.894925
0.867301
1.62363
3.40778
3.40661
3.42342
3.40497
3.38972
3.37228
3.35715
3.3345
3.33089
3.32604
3.32129
3.31913
3.33207
3.34381
3.35456
3.38934
3.41177
3.45362
3.47862
3.50632
3.52846
3.54304
3.56376
3.58064
3.60086
3.62287
3.64002
3.66429
3.68631
3.70981
3.72794
3.76796
3.80478
3.87632
3.96361
4.19833
4.30477
4.21769
1
1
1
1
1
1
1
0.999999
0.999999
0.999997
0.999995
0.99999
0.999983
0.999971
0.999953
0.999926
0.999887
0.999833
0.999759
0.99966
0.999532
0.999371
0.99917
0.998927
0.998635
0.998297
0.9979
0.997459
0.996952
0.996404
0.995794
0.995143
0.994443
0.993704
0.992928
0.992118
0.991284
0.990427
0.989559
0.988674
0.987787
0.986897
0.986013
0.985135
0.98427
0.983371
0.982412
0.981411
0.980367
0.979284
0.978167
0.977011
0.975813
0.974566
0.973256
0.971884
0.970452
0.968974
0.967518
0.966024
0.964506
0.962977
0.96135
0.959555
0.957538
0.955625
0.953673
0.951879
0.950624
0.949635
0.948345
0.946643
0.944073
0.938709
0.930263
0.926051
0.925335
0.930561
0.953309
0.964213
2.72126
3.47055
3.40904
3.42848
3.36654
3.37087
3.35671
3.33643
3.32492
3.32274
3.31933
3.30766
3.32239
3.31886
3.34188
3.33886
3.38115
3.39859
3.44289
3.46863
3.49874
3.5226
3.53719
3.55931
3.57764
3.59877
3.62128
3.6381
3.66137
3.68298
3.70653
3.72463
3.76743
3.80617
3.87962
3.96996
4.21005
4.29807
4.20429
1
1
1
1
1
1
1
0.999999
0.999999
0.999997
0.999995
0.99999
0.999983
0.999972
0.999954
0.999927
0.999889
0.999835
0.999761
0.999664
0.999537
0.999376
0.999177
0.998934
0.998645
0.998305
0.997912
0.997468
0.996967
0.996416
0.995809
0.995157
0.994454
0.993714
0.992933
0.992124
0.991284
0.990426
0.989549
0.988662
0.987766
0.98687
0.985977
0.985092
0.984215
0.983303
0.982328
0.981317
0.980267
0.97918
0.978041
0.976855
0.975613
0.974322
0.972993
0.971649
0.970274
0.968854
0.967357
0.965831
0.964138
0.962372
0.960556
0.958849
0.957259
0.955903
0.954414
0.952626
0.950666
0.948172
0.945004
0.942045
0.939906
0.939126
0.942457
0.949741
0.955168
0.954056
0.943908
1.06023
3.14439
3.40545
3.40984
3.39619
3.38012
3.35183
3.34251
3.32034
3.31665
3.31045
3.31198
3.29593
3.31648
3.31041
3.33303
3.33344
3.36819
3.38705
3.42986
3.45736
3.48991
3.51642
3.53228
3.55593
3.57476
3.59584
3.61765
3.63442
3.65783
3.67926
3.70319
3.72151
3.7664
3.80711
3.88197
3.97687
4.22405
4.29141
4.18941
1
1
1
1
1
1
1
0.999999
0.999999
0.999997
0.999995
0.999991
0.999983
0.999972
0.999955
0.999928
0.99989
0.999837
0.999764
0.999668
0.999542
0.999382
0.999185
0.998943
0.998657
0.998316
0.997929
0.99748
0.996985
0.996428
0.995824
0.995167
0.994466
0.993721
0.992938
0.992122
0.991278
0.990413
0.989529
0.988636
0.987731
0.986828
0.985923
0.985028
0.98414
0.98322
0.982238
0.981217
0.980148
0.979032
0.977864
0.976651
0.975407
0.974132
0.972818
0.971444
0.969992
0.968441
0.966822
0.965247
0.963661
0.962101
0.960565
0.958894
0.957101
0.955061
0.952876
0.950558
0.948443
0.947283
0.946903
0.946757
0.946666
0.945154
0.942006
0.93353
0.913395
0.899777
0.882301
1.90306
3.39373
3.34828
3.40589
3.36971
3.35947
3.33251
3.33369
3.30988
3.30994
3.30249
3.29976
3.28884
3.3045
3.30167
3.31805
3.32992
3.34648
3.38012
3.41579
3.44679
3.48072
3.50992
3.52713
3.55154
3.57048
3.591
3.61275
3.62942
3.6534
3.67474
3.7
3.71887
3.76593
3.80819
3.88404
3.98223
4.23817
4.28418
4.17425
1
1
1
1
1
1
1
0.999999
0.999999
0.999997
0.999995
0.999991
0.999984
0.999973
0.999955
0.999929
0.999892
0.999839
0.999767
0.999672
0.999547
0.999389
0.999192
0.998953
0.998666
0.998328
0.997941
0.997493
0.996999
0.99644
0.99584
0.995178
0.994479
0.993729
0.992946
0.992122
0.991275
0.990398
0.98951
0.988604
0.987693
0.986779
0.985866
0.984959
0.984062
0.983127
0.982126
0.98108
0.979985
0.978845
0.977668
0.976452
0.975187
0.973855
0.972452
0.970988
0.969484
0.967992
0.966493
0.964958
0.963348
0.961623
0.959706
0.957623
0.955591
0.953736
0.952316
0.951217
0.949979
0.948418
0.946402
0.943102
0.936894
0.930338
0.928615
0.931163
0.941566
0.97748
1.00498
2.83431
3.40877
3.3472
3.37213
3.33466
3.33095
3.31468
3.3149
3.298
3.29295
3.28819
3.28269
3.28477
3.28779
3.29689
3.29968
3.31943
3.33286
3.36635
3.40211
3.43721
3.47032
3.50252
3.52152
3.54647
3.56506
3.58524
3.60735
3.62468
3.64904
3.67056
3.69697
3.71669
3.76496
3.80723
3.88391
3.98537
4.24893
4.27822
4.15937
1
1
1
1
1
1
1
0.999999
0.999999
0.999997
0.999995
0.999991
0.999984
0.999973
0.999956
0.999931
0.999894
0.999842
0.999771
0.999676
0.999553
0.999397
0.999201
0.998964
0.998678
0.998345
0.997954
0.997514
0.997013
0.996461
0.995852
0.995194
0.994486
0.993734
0.992942
0.992116
0.99126
0.990379
0.98948
0.988563
0.987644
0.986712
0.985788
0.984863
0.983952
0.982997
0.981977
0.980907
0.979798
0.978641
0.977438
0.976177
0.974855
0.973476
0.972058
0.970624
0.969155
0.967615
0.965979
0.964241
0.962386
0.960476
0.958676
0.957116
0.955603
0.953993
0.952116
0.949801
0.946788
0.9434
0.940838
0.939358
0.93916
0.943546
0.950761
0.953391
0.950153
0.929616
1.13778
3.12615
3.351
3.36532
3.32451
3.32975
3.30583
3.30407
3.2945
3.28441
3.27212
3.27775
3.27133
3.28452
3.28131
3.28999
3.28691
3.3005
3.32472
3.3453
3.39073
3.42547
3.46029
3.49471
3.51509
3.54055
3.55935
3.57943
3.60184
3.61982
3.64394
3.6667
3.693
3.71401
3.76345
3.80614
3.88401
3.99199
4.25905
4.27126
4.14462
1
1
1
1
1
1
1
0.999999
0.999999
0.999997
0.999995
0.999991
0.999984
0.999974
0.999957
0.999932
0.999896
0.999845
0.999774
0.999681
0.999559
0.999404
0.999211
0.998974
0.998691
0.998358
0.997969
0.99753
0.997028
0.996479
0.995868
0.99521
0.9945
0.993746
0.992951
0.992118
0.991251
0.99036
0.989449
0.988524
0.987587
0.986646
0.985704
0.984765
0.983837
0.982863
0.981819
0.980725
0.979588
0.978397
0.977154
0.975861
0.974521
0.973131
0.971688
0.970174
0.968577
0.966875
0.965162
0.963461
0.961765
0.960138
0.958393
0.956512
0.954278
0.951766
0.949172
0.946903
0.945191
0.945123
0.944998
0.944571
0.942634
0.938084
0.926821
0.904416
0.895827
0.879354
2.12122
3.35769
3.26618
3.34547
3.30589
3.31237
3.28724
3.29135
3.27499
3.27151
3.25542
3.25831
3.25422
3.26802
3.27222
3.2729
3.281
3.28187
3.31397
3.33169
3.378
3.41396
3.45059
3.48613
3.5075
3.53417
3.55363