/*--------------------------------*- C++ -*----------------------------------*\
| =========                 |                                                 |
| \\      /  F ield         | OpenFOAM: The Open Source CFD Toolbox           |
|  \\    /   O peration     | Version:  2.2.x                                 |
|   \\  /    A nd           | Web:      www.OpenFOAM.org                      |
|    \\/     M anipulation  |                                                 |
\*---------------------------------------------------------------------------*/
FoamFile
{
    version     2.0;
    format      ascii;
    class       surfaceScalarField;
    location    "2.9";
    object      phi;
}
// * * * * * * * * * * * * * * * * * * * * * * * * * * * * * * * * * * * * * //

dimensions      [1 0 -1 0 0 0 0];

internalField   nonuniform List<scalar> 
28084
(
0.000746224
0.000742992
0.000740219
0.000737882
0.000735968
0.000734465
0.000733333
0.000732543
0.000732084
0.000731932
0.000732057
0.000732432
0.000733017
0.000733778
0.0007347
0.000735771
0.000736963
0.000738236
0.000739632
0.000741091
0.000742486
0.000743812
0.000745141
0.00074656
0.000747956
0.00074916
0.000750233
0.000751328
0.000752435
0.00075352
0.000754526
0.000755456
0.000756438
0.000757757
0.000759988
0.000764254
0.00077036
0.000776397
0.000782955
0.000789033
0.000794602
0.000799766
0.000804552
0.000809132
0.00081344
0.000829187
0.00084537
0.000862555
0.000880971
0.000899807
0.000917283
0.00093457
0.000952735
0.000971698
0.000992021
0.0010096
0.00102595
0.00104247
0.00105983
0.00107883
0.0010975
0.0011125
0.00112653
0.00114052
0.00115494
0.00117112
0.00118594
0.00119661
0.00120632
0.00121579
0.00122532
0.00123632
0.00124567
0.00125108
0.00125544
0.00125937
0.00126318
0.0012675
0.00127129
0.00127176
0.00127076
0.00126981
0.00126886
0.0012686
0.0012647
0.00125918
0.00125364
0.00124794
0.00124305
0.00123998
0.00123771
0.00123256
0.00122587
0.0012192
0.00121329
0.0012088
0.00120599
0.00120555
0.00120691
0.00120778
0.00120878
0.00121069
0.00121298
0.00121713
0.00122567
0.00123634
0.00124338
0.00124253
0.00122398
0.00117381
0.00108814
0.000970476
0.000843174
0.000720872
0.000595077
0.000465816
0.000324079
0.000193009
3.7167e-06
3.23713e-06
0.000749741
2.77559e-06
0.000748788
2.33821e-06
0.000748265
1.91541e-06
0.000748152
1.5072e-06
0.000748438
1.13219e-06
0.000749108
7.86858e-07
0.000750119
4.56857e-07
0.000751454
1.52316e-07
0.000753091
-1.24535e-07
0.000755007
-3.71593e-07
0.000757171
-5.90043e-07
0.000759554
-7.75023e-07
0.000762117
-9.3538e-07
0.000764819
-1.07933e-06
0.000767644
-1.20387e-06
0.000770574
-1.28551e-06
0.000773581
-1.34555e-06
0.000776625
-1.37343e-06
0.00077975
-1.38763e-06
0.000782895
-1.40611e-06
0.000785915
-1.41293e-06
0.000788808
-1.40139e-06
0.000791652
-1.36247e-06
0.000794553
-1.26709e-06
0.000797342
-1.15437e-06
0.000799892
-1.07983e-06
0.000802254
-1.01255e-06
0.000804586
-9.51038e-07
0.000806867
-8.80113e-07
0.000809073
-9.06848e-07
0.000811128
-1.17383e-06
0.000812995
-1.85215e-06
0.000814723
-3.61042e-06
0.000816606
-5.85459e-06
0.000818915
-6.55448e-06
0.000823402
-5.98522e-06
0.000830447
-6.46376e-06
0.000838147
-5.96873e-06
0.000846298
-5.43574e-06
0.00085394
-5.06662e-06
0.000860885
-4.75293e-06
0.000867527
-4.58642e-06
0.000874253
-4.39243e-06
0.000880874
-1.59631e-05
0.000887093
-1.64426e-05
0.000903892
-1.71185e-05
0.000920905
-1.80875e-05
0.000938746
-1.87878e-05
0.000957659
-1.85462e-05
0.000976331
-1.80007e-05
0.000993575
-1.7984e-05
0.00101071
-1.84671e-05
0.00102882
-1.91201e-05
0.00104761
-1.88295e-05
0.00106744
-1.76967e-05
0.00108434
-1.69497e-05
0.00109999
-1.69238e-05
0.00111592
-1.72788e-05
0.0011329
-1.74404e-05
0.00115154
-1.6561e-05
0.00116917
-1.52512e-05
0.00118295
-1.42122e-05
0.00119594
-1.38189e-05
0.00120933
-1.38026e-05
0.00122316
-1.35978e-05
0.00123923
-1.25198e-05
0.00125275
-1.10635e-05
0.00126184
-9.79102e-06
0.0012702
-9.09783e-06
0.00127894
-8.86081e-06
0.00128778
-8.49394e-06
0.00129871
-7.43892e-06
0.00130701
-5.96575e-06
0.00131073
-4.53026e-06
0.0013136
-3.44703e-06
0.00131652
-2.84467e-06
0.00131955
-2.37983e-06
0.00132355
-1.42972e-06
0.00132636
-7.09966e-08
0.00132503
1.05576e-06
0.00132267
1.47083e-06
0.00132067
1.39966e-06
0.00131834
1.39092e-06
0.00131844
2.06131e-06
0.00131447
3.17108e-06
0.00130708
4.41304e-06
0.0012995
5.64998e-06
0.00129237
6.43941e-06
0.00128631
5.89576e-06
0.00128177
4.57096e-06
0.00127921
3.92089e-06
0.00127344
3.96765e-06
0.00126525
4.21757e-06
0.00125696
4.47284e-06
0.0012496
3.94311e-06
0.001244
2.53422e-06
0.00124018
5.75622e-07
0.00123838
-1.09404e-06
0.00123824
-2.73762e-06
0.00123794
-4.62119e-06
0.00123718
-4.95763e-06
0.00123637
-5.40157e-06
0.00123597
-6.55788e-06
0.00123651
-6.65243e-06
0.00123912
-4.9706e-06
0.00124208
1.21566e-06
0.00123929
1.7888e-05
0.00122277
4.7868e-05
0.00117711
8.36061e-05
0.00108581
0.00011785
0.000960459
0.000129398
0.000834589
0.000123205
0.000719795
0.000124881
0.00060989
0.000128453
0.000495732
0.000141806
0.000384629
0.000131534
0.000265626
0.000193277
0.000142153
5.12123e-06
4.19529e-06
0.000754435
3.30161e-06
0.000755733
2.45234e-06
0.000757431
1.63073e-06
0.000759517
8.40538e-07
0.000761981
1.23446e-07
0.000764794
-5.48677e-07
0.000767925
-1.1805e-06
0.00077136
-1.76169e-06
0.000775072
-2.28635e-06
0.000779035
-2.75056e-06
0.000783219
-3.15656e-06
0.000787591
-3.48973e-06
0.000792109
-3.77438e-06
0.000796734
-4.02241e-06
0.000801444
-4.22888e-06
0.000806222
-4.34801e-06
0.000811027
-4.42079e-06
0.000815821
-4.43082e-06
0.000820647
-4.40475e-06
0.000825448
-4.38092e-06
0.000830076
-4.34911e-06
0.000834542
-4.28047e-06
0.000838916
-4.11914e-06
0.000843283
-3.89141e-06
0.000847442
-3.60297e-06
0.000851275
-3.40213e-06
0.000854905
-3.19557e-06
0.000858468
-3.01542e-06
0.000861944
-2.80473e-06
0.000865297
-2.75766e-06
0.000868433
-3.11656e-06
0.000871332
-4.30913e-06
0.00087407
-7.38729e-06
0.000877347
-1.2032e-05
0.000881483
-1.40677e-05
0.000887427
-1.36507e-05
0.00089574
-1.45086e-05
0.000905187
-1.34846e-05
0.000914872
-1.22421e-05
0.000923903
-1.1599e-05
0.000932144
-1.14089e-05
0.000940111
-1.12064e-05
0.000947804
-1.06842e-05
0.000955396
-3.30601e-05
0.000962737
-3.38011e-05
0.000979352
-3.48851e-05
0.000996081
-3.65342e-05
0.00101344
-3.73851e-05
0.00103199
-3.68875e-05
0.00105053
-3.58631e-05
0.00106808
-3.58457e-05
0.00108572
-3.68563e-05
0.00110389
-3.76352e-05
0.00112248
-3.67963e-05
0.00114149
-3.47501e-05
0.00115848
-3.33242e-05
0.00117429
-3.33734e-05
0.00119005
-3.40876e-05
0.0012063
-3.38274e-05
0.00122353
-3.20714e-05
0.0012396
-2.97269e-05
0.00125301
-2.76847e-05
0.00126581
-2.69816e-05
0.00127888
-2.69096e-05
0.00129201
-2.61186e-05
0.00130657
-2.39567e-05
0.00131829
-2.12554e-05
0.00132677
-1.87293e-05
0.00133469
-1.73664e-05
0.00134286
-1.67672e-05
0.001351
-1.58365e-05
0.00136044
-1.37504e-05
0.00136697
-1.10903e-05
0.00136982
-8.28902e-06
0.00137192
-6.00814e-06
0.00137411
-4.713e-06
0.00137642
-3.69827e-06
0.00137916
-1.55549e-06
0.00138001
9.06042e-07
0.00137704
3.22583e-06
0.00137321
4.36451e-06
0.00136989
4.44682e-06
0.00136633
4.43014e-06
0.00136604
5.46977e-06
0.00136257
7.21093e-06
0.00135443
9.78605e-06
0.00134612
1.21489e-05
0.00133845
1.31617e-05
0.0013311
1.2457e-05
0.00132449
1.05448e-05
0.00131975
9.48384e-06
0.00131261
9.39808e-06
0.00130336
9.82014e-06
0.00129447
9.99122e-06
0.00128638
8.62695e-06
0.00127984
5.94296e-06
0.00127448
2.41942e-06
0.00127069
-9.75579e-07
0.00126853
-3.40709e-06
0.00126545
-5.71097e-06
0.00126183
-7.12081e-06
0.00125806
-8.6158e-06
0.00125414
-8.76342e-06
0.00124885
-6.24747e-06
0.00123991
1.18169e-06
0.00122277
1.99948e-05
0.00119045
6.37859e-05
0.00112825
0.000137701
0.0010189
0.000207809
0.000888386
0.000243857
0.000771214
0.000246049
0.000670024
0.000233155
0.000578671
0.000237911
0.000490439
0.000239335
0.000398654
0.000260973
0.000307495
0.000255396
0.000209937
0.000335609
0.000106227
4.24517e-06
2.9026e-06
0.000760308
1.60635e-06
0.000763822
3.68898e-07
0.000767711
-8.2968e-07
0.000771969
-1.96959e-06
0.000776577
-3.00625e-06
0.000781499
-3.98372e-06
0.000786726
-4.8945e-06
0.000792231
-5.7246e-06
0.000797991
-6.46495e-06
0.000803974
-7.11411e-06
0.000810148
-7.67144e-06
0.000816483
-8.12232e-06
0.000822931
-8.49747e-06
0.000829454
-8.8169e-06
0.000836028
-9.0614e-06
0.000842632
-9.16917e-06
0.000849204
-9.2095e-06
0.000855725
-9.15096e-06
0.000862212
-9.02364e-06
0.000868656
-8.91116e-06
0.000874884
-8.80119e-06
0.000880914
-8.61211e-06
0.000886841
-8.26203e-06
0.000892628
-7.82596e-06
0.000898111
-7.32996e-06
0.000903198
-6.94902e-06
0.000908099
-6.55479e-06
0.000912876
-6.20663e-06
0.000917526
-5.808e-06
0.000922009
-5.65451e-06
0.000926244
-6.09092e-06
0.000930194
-8.20009e-06
0.000934034
-1.31089e-05
0.000938676
-1.9819e-05
0.000944434
-2.2904e-05
0.000952775
-2.31666e-05
0.000962443
-2.41176e-05
0.000974083
-2.24212e-05
0.000985358
-2.04138e-05
0.000996274
-1.95447e-05
0.00100639
-1.90847e-05
0.00101635
-1.8795e-05
0.0010259
-1.80652e-05
0.00103511
-5.00322e-05
0.0010435
-5.08769e-05
0.00106024
-5.22536e-05
0.00107707
-5.46124e-05
0.00109424
-5.60558e-05
0.00111212
-5.52631e-05
0.00112921
-5.39698e-05
0.00114555
-5.40001e-05
0.00116174
-5.52646e-05
0.00117856
-5.57754e-05
0.00119589
-5.40397e-05
0.00121258
-5.1227e-05
0.00122857
-4.92725e-05
0.00124416
-4.91955e-05
0.0012597
-5.02607e-05
0.00127542
-4.94492e-05
0.00129087
-4.65058e-05
0.00130478
-4.31608e-05
0.00131809
-4.05184e-05
0.00133089
-3.95428e-05
0.00134367
-3.94041e-05
0.00135718
-3.76318e-05
0.00136904
-3.4219e-05
0.00137858
-3.02706e-05
0.00138719
-2.68711e-05
0.00139494
-2.5044e-05
0.00140234
-2.39788e-05
0.00141035
-2.20585e-05
0.00141707
-1.87191e-05
0.00142136
-1.46562e-05
0.00142425
-1.10102e-05
0.00142591
-8.19596e-06
0.00142723
-5.90849e-06
0.00142932
-3.88022e-06
0.00142999
-6.32217e-07
0.00142865
3.1271e-06
0.00142485
6.43524e-06
0.00142
8.43925e-06
0.00141531
8.97048e-06
0.00141101
8.80021e-06
0.00140912
1.02542e-05
0.00140602
1.28943e-05
0.00139769
1.6571e-05
0.00138848
1.98364e-05
0.00138061
2.07878e-05
0.00137218
1.9547e-05
0.0013636
1.74104e-05
0.00135616
1.6312e-05
0.0013478
1.62948e-05
0.00133827
1.7055e-05
0.00132915
1.71386e-05
0.00132116
1.48436e-05
0.00131424
1.07875e-05
0.00130715
6.06554e-06
0.00130056
2.15193e-06
0.00129347
-6.01913e-07
0.00128638
-3.37277e-06
0.00127955
-5.41523e-06
0.0012711
-5.57761e-06
0.00125811
-1.01e-06
0.00123725
1.16117e-05
0.00120053
3.54588e-05
0.00114577
8.36001e-05
0.0010495
0.000173184
0.000905981
0.000268304
0.000770008
0.00032585
0.000669202
0.000346151
0.00058767
0.000338181
0.000519091
0.000320614
0.000454467
0.00032892
0.000386772
0.000330524
0.000315568
0.00035884
0.000240779
0.00035939
0.000162189
0.000441948
7.83324e-05
1.12174e-06
-6.05651e-07
0.000767361
-2.27953e-06
0.000773056
-3.88637e-06
0.000779101
-5.43157e-06
0.000785493
-6.88831e-06
0.000792209
-8.23162e-06
0.000799214
-9.49128e-06
0.000806506
-1.06573e-05
0.000814055
-1.17089e-05
0.000821831
-1.26345e-05
0.000829804
-1.34381e-05
0.000837942
-1.41136e-05
0.000846208
-1.4649e-05
0.000854562
-1.50781e-05
0.000862955
-1.54356e-05
0.000871374
-1.56655e-05
0.000879776
-1.57223e-05
0.000888083
-1.56785e-05
0.000896299
-1.55134e-05
0.000904407
-1.52298e-05
0.000912452
-1.49875e-05
0.000920291
-1.47423e-05
0.000927903
-1.43795e-05
0.000935391
-1.37799e-05
0.000942504
-1.3075e-05
0.000949232
-1.23337e-05
0.00095559
-1.17017e-05
0.000961743
-1.10671e-05
0.000967719
-1.04978e-05
0.000973517
-9.8937e-06
0.000979122
-9.60918e-06
0.000984399
-1.01891e-05
0.000989288
-1.35002e-05
0.000993917
-2.05754e-05
0.00099889
-3.01624e-05
0.00100498
-3.32002e-05
0.00101379
-3.48699e-05
0.00102507
-3.53481e-05
0.0010391
-3.32832e-05
0.00105297
-3.05095e-05
0.00106656
-2.95781e-05
0.00107946
-2.87014e-05
0.0010922
-2.80432e-05
0.00110457
-2.67367e-05
0.00111552
-6.72119e-05
0.00112462
-6.78814e-05
0.00114117
-6.95116e-05
0.00115777
-7.20279e-05
0.00117459
-7.33823e-05
0.00119183
-7.21598e-05
0.00120799
-7.05918e-05
0.00122397
-7.09013e-05
0.00124024
-7.21034e-05
0.00125632
-7.24953e-05
0.00127328
-7.028e-05
0.00128892
-6.68127e-05
0.00130369
-6.47143e-05
0.00131892
-6.44588e-05
0.00133386
-6.51104e-05
0.00134886
-6.37328e-05
0.0013639
-6.02021e-05
0.00137682
-5.58621e-05
0.00138878
-5.29484e-05
0.00140133
-5.15951e-05
0.00141374
-5.08553e-05
0.00142659
-4.81171e-05
0.00143766
-4.35619e-05
0.00144546
-3.83636e-05
0.00145251
-3.4359e-05
0.00146023
-3.18991e-05
0.00146738
-3.02575e-05
0.00147569
-2.69232e-05
0.00148053
-2.22687e-05
0.0014815
-1.67455e-05
0.00148229
-1.25818e-05
0.00148394
-1.0203e-05
0.00148529
-7.28549e-06
0.00148877
-3.52296e-06
0.00148684
1.11807e-06
0.00148118
6.44798e-06
0.00147608
1.116e-05
0.00147114
1.4306e-05
0.00146544
1.54784e-05
0.00146017
1.52129e-05
0.0014556
1.69766e-05
0.00145214
2.00896e-05
0.0014444
2.41043e-05
0.00143457
2.75442e-05
0.00142582
2.83526e-05
0.00141681
2.70459e-05
0.0014065
2.51796e-05
0.00139657
2.45711e-05
0.0013861
2.46592e-05
0.00137548
2.52891e-05
0.00136517
2.46152e-05
0.00135579
2.21199e-05
0.00134631
1.78378e-05
0.00133534
1.41691e-05
0.00132292
1.04416e-05
0.00131079
6.98383e-06
0.00129825
5.22549e-06
0.00128319
6.72474e-06
0.00126175
1.35472e-05
0.00122671
3.36335e-05
0.00117475
6.48129e-05
0.00108822
0.0001309
0.000954167
0.000226663
0.000796532
0.000310339
0.000667295
0.000371344
0.000570974
0.000408813
0.000500718
0.000414782
0.000446941
0.0004018
0.000400253
0.000387774
0.000355811
0.000400058
0.000305251
0.000405485
0.000248975
0.000437673
0.00018902
0.000443432
0.000127041
0.000520406
5.92809e-05
-4.21206e-06
-6.29645e-06
0.000775599
-8.32111e-06
0.000783435
-1.02735e-05
0.000791596
-1.21417e-05
0.000800083
-1.38881e-05
0.000808868
-1.55212e-05
0.000817925
-1.70424e-05
0.000827246
-1.84369e-05
0.0008368
-1.96846e-05
0.000846556
-2.07712e-05
0.000856487
-2.16994e-05
0.000866555
-2.24633e-05
0.000876722
-2.30453e-05
0.000886947
-2.34964e-05
0.000897181
-2.38563e-05
0.000907422
-2.40086e-05
0.000917573
-2.39695e-05
0.00092759
-2.37913e-05
0.000937481
-2.34861e-05
0.000947228
-2.3032e-05
0.000956827
-2.26067e-05
0.00096626
-2.2176e-05
0.000975489
-2.15156e-05
0.000984403
-2.06091e-05
0.000992812
-1.96188e-05
0.00100077
-1.86017e-05
0.00100837
-1.76554e-05
0.00101575
-1.67057e-05
0.00102293
-1.58589e-05
0.00102993
-1.49741e-05
0.00103664
-1.44763e-05
0.00104298
-1.50805e-05
0.00104886
-1.9186e-05
0.00105425
-2.85246e-05
0.0010593
-4.1154e-05
0.001064
-4.5203e-05
0.00107182
-4.89757e-05
0.00108389
-4.92301e-05
0.00110034
-4.69091e-05
0.00111784
-4.34884e-05
0.00113521
-4.24015e-05
0.00115196
-4.11396e-05
0.00116817
-3.91524e-05
0.00118303
-3.62457e-05
0.00119565
-8.40361e-05
0.00120591
-8.45381e-05
0.00122271
-8.63166e-05
0.00123944
-8.90817e-05
0.00125664
-8.99444e-05
0.00127317
-8.86236e-05
0.00128899
-8.68622e-05
0.00130466
-8.69363e-05
0.00132059
-8.85631e-05
0.00133712
-8.82821e-05
0.00135345
-8.56908e-05
0.00136839
-8.20975e-05
0.00138262
-7.94619e-05
0.001397
-7.93208e-05
0.00141162
-7.92272e-05
0.00142637
-7.68214e-05
0.0014398
-7.27221e-05
0.00145213
-6.79423e-05
0.00146393
-6.46961e-05
0.00147564
-6.32651e-05
0.00148746
-6.11185e-05
0.00149827
-5.71481e-05
0.00150688
-5.18379e-05
0.00151444
-4.59512e-05
0.00152117
-4.13213e-05
0.00152794
-3.80209e-05
0.00153557
-3.49331e-05
0.00154201
-2.99956e-05
0.00154497
-2.41029e-05
0.00154554
-1.76739e-05
0.00154534
-1.28524e-05
0.00154553
-1.00451e-05
0.00154561
-7.46598e-06
0.00154843
-2.2671e-06
0.00154718
3.57878e-06
0.00154011
1.02826e-05
0.00153261
1.63592e-05
0.00152627
2.03685e-05
0.00151969
2.24056e-05
0.00151293
2.31692e-05
0.00150638
2.49182e-05
0.00150064
2.84848e-05
0.00149176
3.24563e-05
0.00148132
3.6039e-05
0.00147141
3.74166e-05
0.00146037
3.68891e-05
0.00144812
3.56244e-05
0.0014357
3.51841e-05
0.00142335
3.50573e-05
0.00141113
3.50408e-05
0.00139884
3.40622e-05
0.00138626
3.2393e-05
0.00137204
2.96346e-05
0.001356
2.63452e-05
0.00133711
2.42918e-05
0.00131441
2.43809e-05
0.00128728
2.89579e-05
0.00125153
4.29119e-05
0.00120232
6.52451e-05
0.00112503
0.000118795
0.00100411
0.00019696
0.000850313
0.000287565
0.000702578
0.000357033
0.000588519
0.000409211
0.000501179
0.000443178
0.000435274
0.000462123
0.000385846
0.000459906
0.000347233
0.000445437
0.000314337
0.000438804
0.000280625
0.000456727
0.000240353
0.000465348
0.000195917
0.000499545
0.000148351
0.000511494
9.97672e-05
0.000580015
4.55522e-05
-1.1716e-05
-1.41289e-05
0.000785027
-1.64785e-05
0.00079496
-1.87527e-05
0.000805196
-2.09202e-05
0.000815733
-2.29391e-05
0.000826543
-2.48405e-05
0.000837615
-2.66e-05
0.000848928
-2.81962e-05
0.00086045
-2.96171e-05
0.000872152
-3.08401e-05
0.000884
-3.1868e-05
0.000895959
-3.2686e-05
0.000907992
-3.32859e-05
0.000920048
-3.37303e-05
0.000932104
-3.40296e-05
0.00094413
-3.40646e-05
0.000955992
-3.3891e-05
0.000967693
-3.35482e-05
0.000979237
-3.30499e-05
0.000990606
-3.24285e-05
0.00100178
-3.17429e-05
0.0010127
-3.10344e-05
0.00102349
-3.00018e-05
0.00103379
-2.87538e-05
0.00104347
-2.74362e-05
0.00105265
-2.61084e-05
0.00106148
-2.47963e-05
0.00107008
-2.34973e-05
0.0010785
-2.2277e-05
0.00108668
-2.10606e-05
0.00109447
-2.03266e-05
0.00110186
-2.07894e-05
0.00110869
-2.50789e-05
0.00111491
-3.52679e-05
0.00112073
-5.13609e-05
0.00112671
-5.80886e-05
0.00113557
-6.56285e-05
0.0011508
-6.68004e-05
0.00117081
-6.43766e-05
0.00119141
-6.04246e-05
0.00121124
-5.87185e-05
0.00123093
-5.59803e-05
0.00124957
-5.20185e-05
0.00126556
-4.69011e-05
0.00127872
-0.00010098
0.00128957
-0.000101408
0.00130634
-0.000103226
0.00132304
-0.000105763
0.00134005
-0.000106329
0.00135615
-0.000104537
0.00137117
-0.000102945
0.00138672
-0.000103051
0.00140245
-0.000104163
0.00141858
-0.000103555
0.00143499
-0.000100382
0.00144903
-9.65022e-05
0.00146236
-9.42005e-05
0.0014765
-9.33142e-05
0.00149045
-9.25516e-05
0.0015057
-8.93535e-05
0.00151831
-8.40441e-05
0.00152897
-7.90417e-05
0.00154038
-7.54834e-05
0.00155154
-7.33957e-05
0.00156274
-7.02455e-05
0.00157307
-6.52543e-05
0.00157951
-5.86088e-05
0.001585
-5.2189e-05
0.00159139
-4.74733e-05
0.00159741
-4.36557e-05
0.00160537
-3.90151e-05
0.00160988
-3.24673e-05
0.00160954
-2.47879e-05
0.00160865
-1.75396e-05
0.00160817
-1.18439e-05
0.00160696
-7.79228e-06
0.00160595
-4.66688e-06
0.00160572
1.75676e-07
0.0016053
7.01449e-06
0.00159957
1.44512e-05
0.0015914
2.15597e-05
0.00158357
2.68024e-05
0.00157563
3.03104e-05
0.0015661
3.22977e-05
0.00155642
3.47135e-05
0.00154689
3.83499e-05
0.00153692
4.28823e-05
0.00152712
4.68344e-05
0.0015154
4.86625e-05
0.00150183
4.8741e-05
0.00148738
4.82929e-05
0.00147245
4.77074e-05
0.00145671
4.75502e-05
0.00144036
4.78542e-05
0.00142423
4.77073e-05
0.00140738
4.68345e-05
0.00138714
4.60781e-05
0.00136123
4.66695e-05
0.00132741
5.1135e-05
0.00128308
6.27398e-05
0.00122908
8.1785e-05
0.00115549
0.000122607
0.00104821
0.000186818
0.000906029
0.000272066
0.000754411
0.00034312
0.000628545
0.000401807
0.000527838
0.000446308
0.000450548
0.000476702
0.000391176
0.000492197
0.000345106
0.000499066
0.000308999
0.000491856
0.000280043
0.000479471
0.000253754
0.000479932
0.000224898
0.000501373
0.000190911
0.000512556
0.000154484
0.000547951
0.00011662
0.00056605
7.84777e-05
0.000625977
3.52087e-05
-2.13428e-05
-2.40588e-05
0.000795652
-2.67106e-05
0.000807634
-2.928e-05
0.000819897
-3.17232e-05
0.000832438
-3.40076e-05
0.000845231
-3.61541e-05
0.000858272
-3.81265e-05
0.000871531
-3.99029e-05
0.000884979
-4.14697e-05
0.000898587
-4.28031e-05
0.000912318
-4.39036e-05
0.000926134
-4.47453e-05
0.000939994
-4.53435e-05
0.000953853
-4.57504e-05
0.00096769
-4.59136e-05
0.000981431
-4.58032e-05
0.000994976
-4.54595e-05
0.00100833
-4.4921e-05
0.00102149
-4.42042e-05
0.00103443
-4.33307e-05
0.00104713
-4.2341e-05
0.00105954
-4.12462e-05
0.00107179
-3.97965e-05
0.00108345
-3.82298e-05
0.00109443
-3.6529e-05
0.0011048
-3.48242e-05
0.00111484
-3.31077e-05
0.00112465
-3.13693e-05
0.00113426
-2.96494e-05
0.00114357
-2.81198e-05
0.00115248
-2.71622e-05
0.00116094
-2.74753e-05
0.0011687
-3.1902e-05
0.00117596
-4.34913e-05
0.00118347
-6.27974e-05
0.00119222
-7.42255e-05
0.00120397
-8.59701e-05
0.00122237
-8.76252e-05
0.00124509
-8.44504e-05
0.00126927
-8.03771e-05
0.00129254
-7.75112e-05
0.00131453
-7.2043e-05
0.0013332
-6.54542e-05
0.00134912
-5.80567e-05
0.00136259
-0.000117835
0.00137407
-0.000118154
0.0013907
-0.000119907
0.00140746
-0.000121982
0.00142418
-0.000121976
0.00143992
-0.000120337
0.0014549
-0.000118671
0.00147001
-0.000118891
0.00148563
-0.000119399
0.0015012
-0.000117967
0.00151642
-0.000114681
0.00153038
-0.000110669
0.00154332
-0.000108252
0.00155694
-0.000107044
0.00157047
-0.000104945
0.00158387
-0.000100635
0.00159591
-9.49314e-05
0.00160565
-8.94117e-05
0.00161532
-8.54939e-05
0.00162543
-8.22803e-05
0.0016355
-7.77926e-05
0.00164536
-7.17238e-05
0.00165103
-6.43065e-05
0.00165481
-5.7355e-05
0.00165978
-5.19209e-05
0.00166514
-4.74359e-05
0.0016727
-4.14955e-05
0.00167647
-3.41479e-05
0.00167373
-2.53287e-05
0.00167029
-1.66292e-05
0.00166779
-9.56477e-06
0.00166466
-4.21785e-06
0.00166114
1.67224e-07
0.00165777
5.02131e-06
0.00165557
1.20532e-05
0.00165248
2.01647e-05
0.00164575
2.80928e-05
0.00163698
3.46717e-05
0.00162714
3.94072e-05
0.00161577
4.26545e-05
0.00160353
4.58837e-05
0.00159149
5.02292e-05
0.00157955
5.59027e-05
0.00156861
5.96025e-05
0.00155521
6.19204e-05
0.00153889
6.32024e-05
0.00152099
6.4149e-05
0.00150133
6.4667e-05
0.00148008
6.48502e-05
0.00145772
6.58528e-05
0.00143437
6.78072e-05
0.00140764
7.05524e-05
0.00137337
7.5689e-05
0.00132612
8.67049e-05
0.00126653
0.000103676
0.00118689
0.000138561
0.00108009
0.000192569
0.000945714
0.000266879
0.000802448
0.000338192
0.00067592
0.000396539
0.000569554
0.000443181
0.000482942
0.00047995
0.000414541
0.000506968
0.000361813
0.000522812
0.000320252
0.000527211
0.000285984
0.000526606
0.000257773
0.000517974
0.00023359
0.00050936
0.000210067
0.000514347
0.000183905
0.000537582
0.00015399
0.000550476
0.000123446
0.000586197
9.18359e-05
0.000609533
6.07575e-05
0.000661372
2.64281e-05
-3.30439e-05
-3.6037e-05
0.000807485
-3.89681e-05
0.000821463
-4.18113e-05
0.000835699
-4.45073e-05
0.000850192
-4.70456e-05
0.000864924
-4.94152e-05
0.000879884
-5.15785e-05
0.000895044
-5.35158e-05
0.000910373
-5.52038e-05
0.000925841
-5.66213e-05
0.000941405
-5.77637e-05
0.000957031
-5.86097e-05
0.000972672
-5.91727e-05
0.000988288
-5.94898e-05
0.00100387
-5.94827e-05
0.00101928
-5.92017e-05
0.00103448
-5.86491e-05
0.00104945
-5.78722e-05
0.00106419
-5.68966e-05
0.00107867
-5.57243e-05
0.00109287
-5.43616e-05
0.00110676
-5.27893e-05
0.00112039
-5.09331e-05
0.00113338
-4.8987e-05
0.00114565
-4.68893e-05
0.00115717
-4.47287e-05
0.00116839
-4.25457e-05
0.00117936
-4.02991e-05
0.00119007
-3.80011e-05
0.00120049
-3.61608e-05
0.00121058
-3.50109e-05
0.00122008
-3.53335e-05
0.00122874
-4.05551e-05
0.0012369
-5.46459e-05
0.00124585
-7.73002e-05
0.00125675
-9.36702e-05
0.00127244
-0.000109097
0.001296
-0.000112062
0.00132235
-0.000107983
0.0013489
-0.000102595
0.00137433
-9.63726e-05
0.00139791
-8.80834e-05
0.00141788
-7.91677e-05
0.00143456
-6.97304e-05
0.00144869
-0.000134547
0.00146084
-0.000134861
0.0014775
-0.000136362
0.00149419
-0.000137867
0.00151061
-0.000137452
0.00152597
-0.00013564
0.00154056
-0.000134351
0.00155556
-0.000134206
0.00157052
-0.000134086
0.00158583
-0.000132074
0.00159948
-0.000128191
0.00161175
-0.000124213
0.00162422
-0.000121364
0.00163661
-0.000119597
0.00164971
-0.000116329
0.00166168
-0.000110828
0.00167134
-0.00010447
0.00167997
-9.86224e-05
0.00168833
-9.43778e-05
0.0016973
-9.02208e-05
0.00170651
-8.43272e-05
0.0017149
-7.67179e-05
0.0017198
-6.85284e-05
0.00172257
-6.11311e-05
0.00172584
-5.51438e-05
0.00173026
-4.98906e-05
0.00173618
-4.25941e-05
0.00174155
-3.41287e-05
0.00173921
-2.42949e-05
0.00173432
-1.42235e-05
0.001731
-5.90507e-06
0.00172651
7.62987e-07
0.00172069
5.94612e-06
0.00171515
1.17201e-05
0.00171035
1.9245e-05
0.00170616
2.76486e-05
0.00170117
3.60388e-05
0.00169168
4.35316e-05
0.00167862
4.95411e-05
0.00166396
5.45049e-05
0.00164832
5.94309e-05
0.00163233
6.46719e-05
0.0016168
7.02111e-05
0.0016036
7.46796e-05
0.00158799
7.84956e-05
0.00156774
8.14122e-05
0.00154412
8.40191e-05
0.00151701
8.69351e-05
0.00148546
9.03004e-05
0.00144994
9.53926e-05
0.00140979
0.000103153
0.00136184
0.000115823
0.00130095
0.000130929
0.00121887
0.000162731
0.00110887
0.000209903
0.000975799
0.000274556
0.000837472
0.000338491
0.000714882
0.000394109
0.000610084
0.000443491
0.000521293
0.000482006
0.000448377
0.000511595
0.000389467
0.000533643
0.000342373
0.000548897
0.000303995
0.00055652
0.000272254
0.000554607
0.000245586
0.000550189
0.000222478
0.000541803
0.000201145
0.0005364
0.000179021
0.000543909
0.000154399
0.00056773
0.00012693
0.000582534
0.000100385
0.000617631
7.35651e-05
0.000644028
4.79125e-05
0.000687895
2.05096e-05
-4.67649e-05
-5.00109e-05
0.000820536
-5.31976e-05
0.000836454
-5.62956e-05
0.000852607
-5.92289e-05
0.000868993
-6.20005e-05
0.000885612
-6.45751e-05
0.00090244
-6.69091e-05
0.000919448
-6.89867e-05
0.000936607
-7.07715e-05
0.000953887
-7.22476e-05
0.000971235
-7.34057e-05
0.000988623
-7.42354e-05
0.00100601
-7.47303e-05
0.00102334
-7.48981e-05
0.0010406
-7.47202e-05
0.00105766
-7.42341e-05
0.00107448
-7.34303e-05
0.00109102
-7.23766e-05
0.00110731
-7.10872e-05
0.00112331
-6.95501e-05
0.00113894
-6.77434e-05
0.00115424
-6.56807e-05
0.00116923
-6.33819e-05
0.00118353
-6.09879e-05
0.00119705
-5.84666e-05
0.00120973
-5.57822e-05
0.00122205
-5.30721e-05
0.00123414
-5.02888e-05
0.0012459
-4.73727e-05
0.00125736
-4.51033e-05
0.0012686
-4.38006e-05
0.00127917
-4.42232e-05
0.00128887
-5.07561e-05
0.0012983
-6.80764e-05
0.0013093
-9.58566e-05
0.00132389
-0.000118307
0.00134593
-0.000135813
0.00137686
-0.000138808
0.00140721
-0.00013358
0.00143664
-0.000126244
0.00146372
-0.000116417
0.00148791
-0.000104862
0.00150788
-9.3444e-05
0.00152442
-8.19936e-05
0.00153845
-0.000151159
0.00155054
-0.000151551
0.00156641
-0.000152737
0.00158196
-0.000153455
0.0015968
-0.000152443
0.00161073
-0.000150608
0.00162449
-0.000149271
0.00163855
-0.000148796
0.00165336
-0.000147575
0.001667
-0.000144749
0.001679
-0.000140675
0.00168993
-0.000136408
0.00170121
-0.000133538
0.00171314
-0.000130843
0.00172576
-0.000126169
0.00173645
-0.00011975
0.00174386
-0.0001126
0.00175075
-0.000106688
0.0017583
-0.000102023
0.00176626
-9.71717e-05
0.00177627
-8.98648e-05
0.00178253
-8.0634e-05
0.00178543
-7.15281e-05
0.00178747
-6.37246e-05
0.00178942
-5.73993e-05
0.0017919
-5.15562e-05
0.00179459
-4.40169e-05
0.00180154
-3.41105e-05
0.00180203
-2.31445e-05
0.00179725
-1.15223e-05
0.00179242
-1.63793e-06
0.00178731
6.24976e-06
0.00178053
1.28183e-05
0.00177227
1.97893e-05
0.00176399
2.80608e-05
0.00175586
3.77134e-05
0.00174998
4.69311e-05
0.00173963
5.52338e-05
0.00172445
6.3068e-05
0.00170691
6.98322e-05
0.00168752
7.6097e-05
0.00166613
8.19809e-05
0.00164581
8.8315e-05
0.00162678
9.44047e-05
0.0016052
0.000100415
0.00157736
0.000106207
0.00154234
0.00011283
0.00150027
0.000121153
0.00144908
0.000132133
0.00139129
0.000146372
0.0013216
0.00016552
0.00123507
0.000196474
0.00112411
0.000238137
0.00099589
0.000294673
0.000863714
0.0003493
0.000745621
0.000399252
0.000644035
0.00044448
0.000557432
0.000482314
0.000483627
0.000514934
0.00042197
0.000540439
0.000371574
0.000559358
0.0003299
0.000572799
0.000295253
0.000580601
0.000266035
0.000582378
0.000240804
0.00057694
0.000218546
0.000571537
0.000197978
0.00056448
0.000178064
0.000561565
0.000157134
0.000570583
0.00013312
0.000594016
0.000108009
0.000609957
8.47842e-05
0.000643767
6.15941e-05
0.00067155
3.98186e-05
0.000708475
1.74929e-05
-6.24473e-05
-6.59252e-05
0.000834817
-6.93425e-05
0.000852611
-7.26732e-05
0.000870622
-7.58384e-05
0.00088885
-7.88207e-05
0.000907294
-8.158e-05
0.000925931
-8.4069e-05
0.00094473
-8.62691e-05
0.000963669
-8.81246e-05
0.000982702
-8.96361e-05
0.00100179
-9.07961e-05
0.00102091
-9.15699e-05
0.00103997
-9.19571e-05
0.00105894
-9.19478e-05
0.00107784
-9.15764e-05
0.00109651
-9.08319e-05
0.00111488
-8.97444e-05
0.00113295
-8.83942e-05
0.00115075
-8.67204e-05
0.00116822
-8.47341e-05
0.00118523
-8.24633e-05
0.00120188
-7.99107e-05
0.00121821
-7.71421e-05
0.00123379
-7.4215e-05
0.00124854
-7.11777e-05
0.00126236
-6.79753e-05
0.00127583
-6.46745e-05
0.00128904
-6.13307e-05
0.00130181
-5.776e-05
0.00131418
-5.49398e-05
0.00132641
-5.35346e-05
0.001338
-5.44544e-05
0.0013486
-6.31785e-05
0.00135928
-8.55395e-05
0.00137366
-0.000121068
0.00139573
-0.000150404
0.00142896
-0.000166491
0.00146564
-0.000168354
0.00149773
-0.000160688
0.00152656
-0.000150321
0.00155203
-0.000136316
0.00157443
-0.000121424
0.00159295
-0.000107497
0.00160858
-9.41435e-05
0.00162229
-0.000166612
0.00163427
-0.000166902
0.00164893
-0.000167753
0.00166323
-0.000167738
0.00167659
-0.000166314
0.00168914
-0.000164404
0.00170174
-0.000163226
0.00171504
-0.000161957
0.00172872
-0.000159851
0.00174116
-0.000156173
0.00175157
-0.00015185
0.00176174
-0.000147689
0.00177245
-0.000144369
0.00178385
-0.000140694
0.0017967
-0.00013461
0.00180645
-0.000127438
0.00181313
-0.000119905
0.00181912
-0.000113963
0.00182602
-0.000109104
0.00183321
-0.000102768
0.00184283
-9.43169e-05
0.00184706
-8.42463e-05
0.00184818
-7.3764e-05
0.00185005
-6.51506e-05
0.00185189
-5.78075e-05
0.0018532
-5.10791e-05
0.00185546
-4.39671e-05
0.00186047
-3.46825e-05
0.00186531
-2.30365e-05
0.00186352
-1.00502e-05
0.00185787
1.9971e-06
0.00184975
1.2383e-05
0.00183941
2.11344e-05
0.00182788
2.95956e-05
0.00181484
3.88602e-05
0.00180157
4.958e-05
0.00179188
6.00989e-05
0.00178193
7.01145e-05
0.00176524
7.93204e-05
0.00174353
8.78797e-05
0.00171773
9.67136e-05
0.00168769
0.000105643
0.0016562
0.000114422
0.00162509
0.000123762
0.00158985
0.000134181
0.00154414
0.000145504
0.00148831
0.000160932
0.00142058
0.0001773
0.00133938
0.000202443
0.00123988
0.0002343
0.00112431
0.000276787
0.00100026
0.000324115
0.000879811
0.000369276
0.00076938
0.000412787
0.000671959
0.000451915
0.000588564
0.000486971
0.000516789
0.000518173
0.000456477