/*--------------------------------*- C++ -*----------------------------------*\
| =========                 |                                                 |
| \\      /  F ield         | OpenFOAM: The Open Source CFD Toolbox           |
|  \\    /   O peration     | Version:  2.2.x                                 |
|   \\  /    A nd           | Web:      www.OpenFOAM.org                      |
|    \\/     M anipulation  |                                                 |
\*---------------------------------------------------------------------------*/
FoamFile
{
    version     2.0;
    format      ascii;
    class       volVectorField;
    location    "2.9";
    object      U;
}
// * * * * * * * * * * * * * * * * * * * * * * * * * * * * * * * * * * * * * //

dimensions      [0 1 -1 0 0 0 0];

internalField   nonuniform List<vector> 
14161
(
(1.50536 1.46671e-06 1.19441e-12)
(1.50517 1.16227e-08 8.00659e-12)
(1.5051 -1.03306e-06 2.71108e-11)
(1.50496 -2.52841e-07 7.27545e-12)
(1.50475 -1.08327e-06 7.79739e-11)
(1.50444 -3.60389e-06 -5.201e-11)
(1.504 -4.25995e-06 2.57197e-10)
(1.50342 -2.41481e-06 2.57985e-11)
(1.50269 -4.1494e-06 3.2203e-10)
(1.5018 -7.06311e-06 -1.11821e-10)
(1.50073 -1.03481e-05 5.56442e-10)
(1.49947 -1.29573e-05 -3.11866e-10)
(1.49799 -1.42969e-05 6.08196e-10)
(1.49628 -1.40459e-05 -2.09835e-10)
(1.49436 -1.43309e-05 3.85277e-10)
(1.49222 -1.74255e-05 -6.90566e-11)
(1.48985 -2.39894e-05 8.55339e-11)
(1.48726 -2.44456e-05 8.12539e-11)
(1.48446 -2.49451e-05 2.65291e-10)
(1.48136 -1.76339e-05 -1.15925e-10)
(1.47778 -1.4796e-05 4.20856e-10)
(1.4742 -2.1529e-05 -5.29148e-11)
(1.47068 -2.73786e-05 2.6647e-10)
(1.46705 -2.78865e-05 1.56826e-10)
(1.46321 -3.2642e-05 3.05939e-10)
(1.45916 -2.54476e-05 2.95658e-10)
(1.45519 -1.02646e-05 -5.3054e-12)
(1.45138 -1.16342e-05 -1.31324e-09)
(1.44751 -2.84906e-05 -8.07365e-10)
(1.44375 -4.94686e-05 -1.14468e-09)
(1.44004 -8.11849e-05 9.29463e-09)
(1.4359 -0.000183837 4.39534e-08)
(1.42855 -0.000470245 1.05893e-07)
(1.40157 -0.000927466 1.52132e-07)
(1.24176 -0.00178086 7.99905e-08)
(0.852909 -0.00213098 -3.71364e-07)
(0.657771 -0.00219913 -1.29281e-06)
(0.602249 -0.00203157 -2.90791e-06)
(0.593218 -0.00207274 -5.21686e-06)
(0.595392 -0.00205268 -8.36875e-06)
(0.602656 -0.00199868 -9.69031e-06)
(0.610626 -0.0020034 -2.58902e-05)
(0.618216 -0.00206882 -6.8836e-05)
(0.625374 -0.00223935 -0.000111951)
(0.632314 -0.00253773 -0.000111099)
(0.639425 -0.00270528 -9.08056e-05)
(0.646989 -0.00285355 -0.000176838)
(0.654825 -0.00304558 -0.000321476)
(0.663079 -0.00331382 -0.000267324)
(0.671619 -0.00350782 -1.50022e-05)
(0.679758 -0.00339409 4.05296e-05)
(0.687217 -0.0031654 -0.000296906)
(0.694364 -0.00316033 -0.000579643)
(0.701636 -0.00337549 -0.000368113)
(0.709379 -0.00365308 0.000170165)
(0.716964 -0.00366664 0.000368841)
(0.723462 -0.00339168 -0.000152142)
(0.729493 -0.00314781 -0.000708272)
(0.735183 -0.00312858 -0.000588389)
(0.741441 -0.00324678 8.21531e-05)
(0.748353 -0.00332197 0.00058643)
(0.754476 -0.00320879 0.000296316)
(0.75995 -0.00296785 -0.00037232)
(0.765063 -0.00275573 -0.000656919)
(0.769878 -0.00273941 -0.000332531)
(0.775338 -0.00285643 0.000252547)
(0.781474 -0.00292679 0.000542208)
(0.786697 -0.00289068 0.00021393)
(0.791626 -0.00273112 -0.000289337)
(0.796226 -0.00257328 -0.000498698)
(0.800654 -0.00258164 -0.000256221)
(0.805714 -0.00272305 0.000249348)
(0.811496 -0.00279826 0.000538445)
(0.816612 -0.00276171 0.000207141)
(0.82169 -0.0026158 -0.000328319)
(0.826541 -0.00245297 -0.000542939)
(0.831299 -0.00242913 -0.000204433)
(0.836443 -0.00253675 0.000530543)
(0.842275 -0.00262738 0.000966593)
(0.847936 -0.00263295 0.000338974)
(0.853361 -0.00246845 -0.000733741)
(0.858746 -0.00234097 -0.00106763)
(0.86413 -0.00244039 -0.000159213)
(0.869962 -0.00268894 0.00117844)
(0.876079 -0.0028032 0.00123916)
(0.881803 -0.00263411 -0.000148165)
(0.888115 -0.00240554 -0.00147436)
(0.894316 -0.002165 -0.00158362)
(0.900526 -0.00187605 -0.000448314)
(0.907354 -0.00166803 0.00128663)
(0.915024 -0.00195725 0.00157233)
(0.922823 -0.0022961 6.25087e-05)
(0.930778 -0.00229904 -0.00138778)
(0.93882 -0.00197691 -0.00163032)
(0.946159 -0.00151145 -0.000750848)
(0.953618 -0.00113249 0.000879278)
(0.961489 -0.000965617 0.00186588)
(0.969927 -0.000917666 0.00126027)
(0.97936 -0.00104051 -0.000411074)
(0.988245 -0.00104353 -0.00162648)
(0.996079 -0.00100895 -0.00134318)
(1.0017 -0.000504 -5.77124e-05)
(1.00477 0.000921694 0.00120188)
(1.00497 0.00282164 0.00100788)
(1.0043 0.004536 0.000331729)
(0.997718 0.00822139 -0.000528354)
(0.977731 0.0143908 -0.000734767)
(0.939385 0.0238266 -0.000343097)
(0.873182 0.0367494 0.000205598)
(0.773639 0.0479414 0.000329476)
(0.653634 0.0559978 0.000105374)
(0.539567 0.0587556 -0.000121488)
(0.44263 0.0553615 0.000116481)
(0.361001 0.0463984 -0.000131743)
(0.291072 0.040953 0.000253414)
(0.225093 0.0370848 -1.49419e-05)
(0.163425 0.0382772 0.0010495)
(0.102461 0.0302911 0.00107345)
(0.0521843 0.0512779 0.00298062)
(1.50537 1.57659e-06 1.20853e-12)
(1.50517 5.44571e-07 8.40343e-12)
(1.50511 -8.14485e-07 2.6752e-11)
(1.50497 7.12516e-07 8.84145e-12)
(1.50476 -3.74973e-07 7.1436e-11)
(1.50444 -5.08957e-06 -4.52723e-11)
(1.504 -6.60438e-06 2.29349e-10)
(1.50342 -5.87672e-06 3.05516e-11)
(1.50269 -9.6782e-06 3.10521e-10)
(1.5018 -1.48579e-05 -9.90245e-11)
(1.50073 -2.01123e-05 5.24695e-10)
(1.49947 -2.42184e-05 -2.79943e-10)
(1.49799 -2.71069e-05 5.5359e-10)
(1.49628 -2.56527e-05 -1.7562e-10)
(1.49436 -2.54227e-05 3.60266e-10)
(1.49221 -3.07678e-05 -4.03948e-11)
(1.48984 -4.18621e-05 4.51945e-11)
(1.48725 -4.1619e-05 1.15606e-10)
(1.48445 -3.82376e-05 2.13422e-10)
(1.48135 -2.85845e-05 -9.47125e-11)
(1.47779 -2.4721e-05 3.79849e-10)
(1.47421 -3.55028e-05 -3.84652e-11)
(1.47068 -5.85828e-05 2.51809e-10)
(1.46705 -8.1598e-05 3.68585e-10)
(1.46319 -8.09086e-05 -1.03722e-11)
(1.45914 -5.57512e-05 2.0371e-10)
(1.45519 -1.5145e-05 -9.45441e-11)
(1.45139 -2.32665e-05 -5.91318e-10)
(1.44752 -5.07855e-05 -7.76415e-10)
(1.44374 -9.81648e-05 -4.78908e-11)
(1.44001 -0.000147121 9.76915e-09)
(1.4358 -0.000332601 5.05172e-08)
(1.42828 -0.000868113 1.30439e-07)
(1.40108 -0.00195025 2.33124e-07)
(1.2407 -0.00379659 2.44455e-07)
(0.851515 -0.00504368 -1.76367e-07)
(0.656213 -0.00513294 -8.6335e-07)
(0.600789 -0.00509445 -2.46121e-06)
(0.592109 -0.00584047 -4.21513e-06)
(0.594473 -0.00599009 -9.12073e-06)
(0.602104 -0.00603176 -8.61324e-06)
(0.610456 -0.00624793 2.59478e-06)
(0.618605 -0.00670885 -5.82341e-05)
(0.626507 -0.00709338 -0.000188488)
(0.634312 -0.00730415 -6.4609e-05)
(0.642253 -0.0075601 0.000220218)
(0.650456 -0.00748265 7.96073e-06)
(0.658743 -0.00761286 -0.000564021)
(0.667232 -0.00817416 -0.000556474)
(0.675838 -0.00847509 0.000249577)
(0.683872 -0.00796172 0.000786625)
(0.691398 -0.00706453 0.000135411)
(0.698705 -0.00670331 -0.00093844)
(0.706109 -0.00707419 -0.00104106)
(0.713859 -0.00758301 0.00017531)
(0.72113 -0.00733091 0.00142627)
(0.727399 -0.00610514 0.00102846)
(0.733254 -0.00516943 -0.000422978)
(0.739049 -0.00525531 -0.00136149)
(0.745351 -0.00598395 -0.000811249)
(0.752103 -0.00657597 0.000815938)
(0.757848 -0.00614493 0.00167084)
(0.763144 -0.00509124 0.00100486)
(0.768201 -0.00431042 -0.000401582)
(0.773182 -0.00441817 -0.00122587)
(0.778813 -0.00505546 -0.000795196)
(0.784922 -0.00565726 0.00062175)
(0.789784 -0.00542919 0.00147786)
(0.794555 -0.00466632 0.0011246)
(0.799108 -0.0040018 -4.37023e-05)
(0.803665 -0.00402534 -0.0010366)
(0.808924 -0.00460414 -0.000931197)
(0.814737 -0.0052674 0.000280031)
(0.819577 -0.00530813 0.00124473)
(0.824595 -0.00489986 0.00112771)
(0.829386 -0.00432464 0.000162572)
(0.834199 -0.00397535 -0.000802748)
(0.839501 -0.00420349 -0.000732911)
(0.845432 -0.00464294 0.000302398)
(0.850828 -0.00468424 0.000970491)
(0.85618 -0.00429637 0.000455598)
(0.861454 -0.00386017 -0.000484644)
(0.866765 -0.00397548 -0.000638132)
(0.872668 -0.00469848 9.46197e-05)
(0.87905 -0.00555047 0.000701847)
(0.884655 -0.00579283 0.000205806)
(0.890735 -0.00540038 -0.000559889)
(0.896704 -0.00435301 -0.000833766)
(0.902843 -0.00314575 -0.000292178)
(0.909617 -0.00242996 0.000746854)
(0.917411 -0.00278591 0.0012046)
(0.925358 -0.00389729 0.000421435)
(0.932853 -0.00448107 -0.000687593)
(0.940417 -0.00423078 -0.00111886)
(0.947319 -0.00353703 -0.00064055)
(0.954438 -0.00245145 0.000552143)
(0.962059 -0.00173329 0.0015515)
(0.970126 -0.00192465 0.00112885)
(0.97874 -0.00249126 -0.00026003)
(0.986725 -0.00261824 -0.00124229)
(0.993101 -0.00198187 -0.00116581)
(0.996484 -0.00120753 -7.92311e-06)
(0.996556 0.000349841 0.000970404)
(0.993713 0.00274062 0.00103894)
(0.986216 0.00583994 0.000244939)
(0.969217 0.0099258 -0.000468595)
(0.93587 0.0158874 -0.000619983)
(0.879502 0.0257187 -0.000249052)
(0.79448 0.0420065 0.000243444)
(0.681693 0.0663463 0.000222555)
(0.563485 0.0918269 3.19542e-05)
(0.459316 0.0979375 -9.83677e-05)
(0.375097 0.0924793 0.000119269)
(0.306032 0.085617 -0.000112753)
(0.244494 0.0846968 0.000176393)
(0.187014 0.0845218 4.40568e-06)
(0.13554 0.0896812 0.000734657)
(0.0817676 0.0834662 0.000742556)
(0.0380036 0.109733 0.00162392)
(1.50538 4.17854e-06 3.46642e-13)
(1.50518 7.71392e-07 7.25582e-12)
(1.50511 -2.00058e-06 2.05043e-11)
(1.50498 4.48821e-07 1.36013e-11)
(1.50477 -4.08173e-06 6.93176e-11)
(1.50446 -1.33893e-05 -3.1543e-11)
(1.50401 -9.11237e-06 1.94621e-10)
(1.50343 -1.00625e-05 4.83557e-11)
(1.50271 -1.65989e-05 2.81392e-10)
(1.50182 -2.48996e-05 -7.79164e-11)
(1.50075 -3.29531e-05 4.76252e-10)
(1.49948 -4.00576e-05 -2.39631e-10)
(1.49801 -4.61044e-05 4.59485e-10)
(1.4963 -4.37484e-05 -9.70158e-11)
(1.49438 -4.4984e-05 2.90067e-10)
(1.49223 -5.67737e-05 3.10136e-11)
(1.48986 -7.5331e-05 -4.25983e-11)
(1.48726 -7.2881e-05 1.71779e-10)
(1.48447 -7.34531e-05 6.60802e-11)
(1.48139 -6.55027e-05 4.79806e-11)
(1.47785 -4.63739e-05 2.72402e-10)
(1.47428 -6.1429e-05 -3.36884e-11)
(1.47072 -0.00011433 2.02789e-10)
(1.46708 -0.000144129 5.77669e-10)
(1.46317 -0.000132335 -3.21188e-10)
(1.45915 -0.000100807 3.92204e-10)
(1.45524 -2.42216e-05 1.19087e-10)
(1.45143 -4.43778e-05 8.83135e-10)
(1.44756 -8.24262e-05 -1.34651e-09)
(1.44374 -0.000160355 1.86632e-09)
(1.43998 -0.000234974 1.12309e-08)
(1.43575 -0.000526319 7.00639e-08)
(1.42823 -0.00132183 2.01377e-07)
(1.40119 -0.00328502 4.40424e-07)
(1.2405 -0.00610085 6.71938e-07)
(0.851553 -0.00817149 3.72561e-07)
(0.656911 -0.00858114 -8.69748e-09)
(0.601654 -0.00896997 -1.60706e-06)
(0.593523 -0.0101598 -2.84924e-06)
(0.596078 -0.0103661 -9.10525e-06)
(0.604267 -0.0103647 -7.99851e-06)
(0.613203 -0.0108231 2.79287e-05)
(0.621725 -0.0117551 -4.24996e-05)
(0.629732 -0.0128839 -0.000246432)
(0.637612 -0.0138343 -9.3411e-05)
(0.645597 -0.0143839 0.000352766)
(0.653712 -0.014233 0.00017153)
(0.661718 -0.0143787 -0.000620734)
(0.669921 -0.0152228 -0.000805927)
(0.678273 -0.0155967 0.000124683)
(0.68635 -0.0147097 0.000994808)
(0.694088 -0.0132136 0.000496697)
(0.701622 -0.0126635 -0.000954611)
(0.709183 -0.0133235 -0.0014354)
(0.716772 -0.0139188 -0.00020311)
(0.723912 -0.013163 0.00145812)
(0.730118 -0.0112159 0.00144414)
(0.736008 -0.00980348 -0.000109042)
(0.741956 -0.00995869 -0.00146848)
(0.748122 -0.0112119 -0.00123424)
(0.75444 -0.0120369 0.000383022)
(0.760097 -0.0111281 0.00167836)
(0.7653 -0.00939079 0.00136987)
(0.770387 -0.0082813 -0.000119682)
(0.77564 -0.00851298 -0.00138088)
(0.781257 -0.00961964 -0.00124059)
(0.786996 -0.0105073 0.000267693)
(0.791808 -0.00985595 0.00154767)
(0.796474 -0.00850973 0.00147329)
(0.801009 -0.00759155 0.000209898)
(0.805771 -0.00777119 -0.00118436)
(0.811072 -0.00878498 -0.00135128)
(0.816608 -0.00979892 -5.27794e-05)
(0.821394 -0.00960019 0.00130025)
(0.826245 -0.00875136 0.00147228)
(0.830902 -0.00799862 0.000443789)
(0.835852 -0.00767925 -0.000947735)
(0.841339 -0.00807209 -0.001189)
(0.847002 -0.00882459 -8.46957e-05)
(0.852084 -0.00871922 0.000982564)
(0.857201 -0.00799547 0.000850012)
(0.862202 -0.0073056 -0.000129742)
(0.867335 -0.0074074 -0.000742149)
(0.873212 -0.00843484 -0.000413871)
(0.879951 -0.00975317 0.000350103)
(0.886009 -0.00998906 0.000342795)
(0.892333 -0.00926768 -0.00020558)
(0.898448 -0.00759367 -0.000619375)
(0.904629 -0.00573279 -0.000281751)
(0.911244 -0.00506822 0.000505004)
(0.918529 -0.0058456 0.000981012)
(0.926159 -0.00734501 0.000549234)
(0.933369 -0.00781548 -0.000405203)
(0.940526 -0.00703508 -0.000979092)
(0.947126 -0.00538932 -0.000768716)
(0.953792 -0.00368723 0.000414057)
(0.960736 -0.00326474 0.00136783)
(0.967725 -0.00355719 0.00105976)
(0.974358 -0.004119 -0.000154221)
(0.979648 -0.00399544 -0.000984217)
(0.982186 -0.00269377 -0.000844223)
(0.981326 -0.000414739 -0.000101327)
(0.976932 0.00374517 0.000702307)
(0.965605 0.0093255 0.000762799)
(0.94418 0.0175927 0.000177204)
(0.907741 0.0307091 -0.000397666)
(0.848315 0.0497521 -0.000464664)
(0.761713 0.07436 -6.73108e-05)
(0.654697 0.109994 0.000288688)
(0.54435 0.146708 2.88154e-05)
(0.447043 0.164804 -4.34753e-06)
(0.368409 0.165378 -5.37691e-05)
(0.305355 0.152887 0.000107324)
(0.251156 0.138756 -0.000102183)
(0.201368 0.136691 0.000140009)
(0.154063 0.132851 1.06782e-05)
(0.111618 0.139614 0.000593081)
(0.0666528 0.135153 0.00063788)
(0.0334053 0.16389 0.0010664)
(1.5054 5.70572e-06 -3.02944e-14)
(1.5052 1.61093e-06 5.71177e-12)
(1.50513 -9.15054e-07 1.56624e-11)
(1.50501 -3.72642e-07 2.17513e-11)
(1.5048 -5.80711e-06 4.73079e-11)
(1.50447 -1.55542e-05 2.36383e-11)
(1.50402 -1.13817e-05 1.41901e-10)
(1.50345 -1.48547e-05 7.1379e-11)
(1.50272 -2.52463e-05 2.03756e-10)
(1.50184 -3.67257e-05 8.86167e-13)
(1.50077 -4.59929e-05 3.34047e-10)
(1.49951 -5.48575e-05 -8.53638e-11)
(1.49803 -6.18335e-05 2.05783e-10)
(1.49633 -6.11366e-05 2.34491e-10)
(1.49441 -6.66198e-05 -7.29185e-11)
(1.49227 -8.7959e-05 6.76171e-10)
(1.48988 -0.000112854 -4.63336e-10)
(1.48728 -0.000107986 2.78247e-10)
(1.48448 -0.000107327 -3.51164e-10)
(1.4814 -9.6209e-05 3.56364e-10)
(1.47793 -6.16778e-05 3.84336e-11)
(1.47437 -9.16239e-05 4.27511e-10)
(1.47081 -0.000158445 -2.23941e-10)
(1.46712 -0.000208853 4.49368e-10)
(1.46312 -0.00017656 -5.04813e-10)
(1.45914 -0.000134121 4.81304e-10)
(1.45531 -4.38939e-05 -7.3719e-10)
(1.4515 -7.77456e-05 -1.42943e-10)
(1.4476 -0.000131612 -8.88313e-10)
(1.44372 -0.00024883 5.87424e-09)
(1.43992 -0.000374554 1.94687e-08)
(1.43572 -0.000766363 9.67587e-08)
(1.42831 -0.00187075 3.10823e-07)
(1.40143 -0.00495533 8.6247e-07)
(1.24002 -0.00910932 1.61163e-06)
(0.85148 -0.0122081 1.81898e-06)
(0.65791 -0.0126221 2.35452e-06)
(0.603422 -0.0137383 7.07333e-07)
(0.595824 -0.0151617 2.03245e-07)
(0.598838 -0.0154125 -6.95323e-06)
(0.607831 -0.0154027 -6.43257e-06)
(0.617632 -0.0163372 4.63e-05)
(0.627096 -0.0174283 4.20243e-07)
(0.635875 -0.0187538 -0.000240665)
(0.64434 -0.0198114 -0.000178911)
(0.652552 -0.0201807 0.00032633)
(0.660753 -0.0196465 0.00046571)
(0.668657 -0.0197125 -0.000323057)
(0.676468 -0.0208004 -0.000992347)
(0.684181 -0.0214492 -0.000301635)
(0.691285 -0.0203061 0.000902046)
(0.698098 -0.0187119 0.00084723)
(0.704792 -0.0183624 -0.000413141)
(0.711681 -0.0191506 -0.00141096)
(0.718502 -0.0196492 -0.00080641)
(0.724796 -0.018594 0.000686875)
(0.730697 -0.0163527 0.00137799)
(0.736586 -0.0148378 0.00054145)
(0.74247 -0.0151708 -0.000835523)
(0.748288 -0.0165409 -0.00131743)
(0.75404 -0.0170113 -0.000392817)
(0.759434 -0.0158115 0.000890672)
(0.764654 -0.0137632 0.00137896)
(0.769952 -0.0127096 0.000554298)
(0.775427 -0.0132546 -0.000801455)
(0.781016 -0.0145414 -0.00135005)
(0.786184 -0.0149536 -0.0003875)
(0.79108 -0.0140665 0.00102478)
(0.795746 -0.0124085 0.00159533)
(0.800391 -0.0115668 0.000728171)
(0.805267 -0.0121078 -0.000762309)
(0.810452 -0.0132812 -0.00141163)
(0.815471 -0.0139356 -0.000470158)
(0.820303 -0.0135162 0.000985653)
(0.824907 -0.0122875 0.00161431)
(0.829465 -0.0117057 0.0008285)
(0.834438 -0.0120483 -0.00070629)
(0.840092 -0.0125104 -0.00141268)
(0.845545 -0.0128575 -0.000486012)
(0.850627 -0.0124382 0.000849896)
(0.855543 -0.0111543 0.00114912)
(0.860432 -0.0101007 0.000336037)
(0.865463 -0.0099954 -0.000738013)
(0.871176 -0.0110572 -0.000998591)
(0.87774 -0.0130023 -0.000177958)
(0.884021 -0.013701 0.000598892)
(0.890413 -0.0129776 0.00049078)
(0.896823 -0.0112325 -0.000134637)
(0.903327 -0.00916668 -0.000490284)
(0.910048 -0.00842142 -0.000108464)
(0.916954 -0.00901648 0.000456965)
(0.924075 -0.0101516 0.000536588)
(0.930772 -0.0103394 -2.35328e-05)
(0.937262 -0.00937565 -0.000597614)
(0.94353 -0.00736729 -0.000768429)
(0.949855 -0.00531194 3.37314e-05)
(0.955565 -0.00425218 0.000872643)
(0.960121 -0.0043051 0.000786987)
(0.962716 -0.00395441 4.18386e-05)
(0.962883 -0.00258085 -0.000558012)
(0.959875 0.000220823 -0.000590801)
(0.950721 0.0043272 -8.75952e-05)
(0.93287 0.00999898 0.000446774)
(0.902216 0.0184852 0.00048044)
(0.854262 0.0320672 5.70914e-05)
(0.782619 0.0522454 -0.000304168)
(0.687044 0.0795333 -0.000189804)
(0.577118 0.120569 0.000120024)
(0.472717 0.155109 0.00011899)
(0.391729 0.185848 -7.1735e-05)
(0.332614 0.205656 3.51978e-05)
(0.284104 0.205037 -4.61913e-05)
(0.242327 0.190946 9.33248e-05)
(0.202995 0.176561 -7.99468e-05)
(0.164742 0.175066 0.000105081)
(0.127098 0.171183 1.16964e-05)
(0.0925336 0.179275 0.00043095)
(0.056026 0.1769 0.000437455)
(0.0333714 0.20388 0.000595526)
(1.50543 8.56002e-06 -6.82896e-13)
(1.50522 3.41352e-06 2.172e-12)
(1.50516 -1.449e-07 6.56187e-12)
(1.50504 -4.34391e-06 1.74768e-11)
(1.50483 -1.15718e-05 2.4845e-11)
(1.5045 -1.36863e-05 4.24999e-11)
(1.50405 -1.33899e-05 9.47899e-11)
(1.50348 -1.99626e-05 8.41725e-11)
(1.50276 -3.26234e-05 1.28668e-10)
(1.50188 -4.61364e-05 1.13065e-10)
(1.50082 -5.67677e-05 1.11268e-10)
(1.49956 -6.6938e-05 2.02365e-10)
(1.49809 -7.62451e-05 -6.95113e-11)
(1.4964 -7.52764e-05 4.12858e-10)
(1.49448 -8.22062e-05 -2.33196e-10)
(1.49235 -0.000114228 8.85856e-10)
(1.48994 -0.000140314 -7.8992e-10)
(1.48734 -0.000136416 5.21364e-10)
(1.48451 -0.000125163 -5.4161e-10)
(1.48144 -0.000114467 7.62519e-10)
(1.47808 -7.44061e-05 -6.45717e-10)
(1.47456 -0.000127172 6.21639e-10)
(1.47096 -0.000196669 -5.90885e-10)
(1.46711 -0.000268064 8.14814e-10)
(1.46308 -0.000221593 -6.13597e-10)
(1.45914 -0.000156817 1.52221e-10)
(1.45542 -8.22983e-05 2.30558e-10)
(1.45161 -0.000105219 -2.64197e-10)
(1.44767 -0.000171717 -5.15513e-10)
(1.44371 -0.000338184 2.48816e-09)
(1.43979 -0.000518031 2.1764e-08)
(1.43538 -0.00105144 1.12511e-07)
(1.42761 -0.00255508 3.72914e-07)
(1.39964 -0.00705367 1.11136e-06)
(1.23596 -0.0131045 2.21672e-06)
(0.848162 -0.0173086 2.93558e-06)
(0.65595 -0.017472 3.35872e-06)
(0.602701 -0.0197588 2.62523e-06)
(0.596132 -0.0212614 1.6186e-06)
(0.600095 -0.0217743 8.95413e-07)
(0.610596 -0.0219156 8.33248e-06)
(0.621777 -0.0234349 -2.11858e-05)
(0.632533 -0.0249338 -4.2217e-05)
(0.642379 -0.0263526 5.62207e-05)
(0.651171 -0.0274368 -1.14061e-05)
(0.659393 -0.0274183 -0.000274943)
(0.667377 -0.0264673 -6.47254e-05)
(0.675067 -0.0264343 0.000399068)
(0.68254 -0.0275145 0.000207482)
(0.689828 -0.0277586 -0.000554166)
(0.696482 -0.0261614 -0.000700192)
(0.702876 -0.0241087 0.000187547)
(0.709478 -0.0234461 0.000968995)
(0.715885 -0.0243979 0.000540985)
(0.722288 -0.0247376 -0.000701059)
(0.728154 -0.0232517 -0.00114555)
(0.733708 -0.0209014 -0.000320075)
(0.739509 -0.0192921 0.000972644)
(0.745293 -0.0197965 0.00121491)
(0.750926 -0.0211939 0.000150833)
(0.756446 -0.0213906 -0.00105846)
(0.761453 -0.0199526 -0.00106103)
(0.766457 -0.0178447 9.21857e-05)
(0.771882 -0.0168647 0.00124446)
(0.777419 -0.0176078 0.00112102)
(0.782967 -0.0188793 -0.000183046)
(0.787817 -0.0189313 -0.00118416)
(0.792337 -0.0177816 -0.000895349)
(0.796947 -0.0160654 0.000404689)
(0.801948 -0.0152576 0.00127055)
(0.807147 -0.0158844 0.000833066)
(0.812334 -0.0172144 -0.000398016)
(0.816688 -0.0176163 -0.00102348)
(0.820999 -0.0169311 -0.000682672)
(0.825424 -0.0156232 0.000455206)
(0.830209 -0.0151813 0.00104528)
(0.835509 -0.0159605 0.000471853)
(0.840978 -0.0170284 -0.000565381)
(0.845703 -0.017125 -0.000762052)
(0.850695 -0.0165032 -0.000226138)
(0.855656 -0.0149321 0.000533469)
(0.860764 -0.0133396 0.000454663)
(0.865989 -0.013111 -0.00029471)
(0.871646 -0.0141487 -0.000876025)
(0.878045 -0.0160174 -0.000664087)
(0.884384 -0.0170087 0.000385546)
(0.8906 -0.0161492 0.000947202)
(0.896955 -0.0142685 0.000477979)
(0.903538 -0.0120221 -0.000541083)
(0.90985 -0.0111444 -0.000883946)
(0.915928 -0.0116609 -0.000441872)
(0.921787 -0.0123761 0.000422634)
(0.927387 -0.0119258 0.000811478)
(0.932591 -0.0106569 0.00024912)
(0.937268 -0.00836469 -0.000548719)
(0.941359 -0.00615617 -0.000510018)
(0.943873 -0.00421759 0.000118411)
(0.943422 -0.00234199 0.00040906)
(0.940219 0.00018634 0.000208747)
(0.93209 0.00365782 -0.000127163)
(0.917012 0.00849654 -0.000230576)
(0.891639 0.0161168 -8.36129e-06)
(0.851852 0.0283164 0.00026558)
(0.791271 0.0460524 0.000221532)
(0.710431 0.0717703 -6.93775e-05)
(0.608349 0.105966 -0.000176522)
(0.503016 0.144954 5.07915e-05)
(0.409184 0.178522 6.09113e-05)
(0.33883 0.205295 1.15826e-05)
(0.289475 0.223728 -2.93504e-05)
(0.252824 0.233351 4.47519e-05)
(0.221457 0.228401 -5.49187e-05)
(0.194307 0.216746 7.74265e-05)
(0.165799 0.2051 -5.0179e-05)
(0.136691 0.205391 7.84401e-05)
(0.106719 0.202667 1.92234e-05)
(0.0797413 0.211688 0.000272541)
(0.0503232 0.21128 0.00025515)
(0.0345779 0.23519 0.000303389)
(1.50546 1.04998e-05 -6.40034e-13)
(1.50526 4.49586e-06 8.67794e-13)
(1.5052 1.75849e-07 1.82457e-12)
(1.50509 -5.28463e-06 1.35391e-11)
(1.50487 -1.51137e-05 3.65806e-12)
(1.50454 -1.21785e-05 4.80155e-11)
(1.50409 -1.55977e-05 2.21931e-11)
(1.50352 -2.74154e-05 1.04897e-10)
(1.50281 -4.3189e-05 3.35759e-11)
(1.50193 -5.98015e-05 1.78527e-10)
(1.50088 -7.3619e-05 -3.96127e-12)
(1.49963 -8.66129e-05 2.75119e-10)
(1.49816 -9.79572e-05 -1.83529e-10)
(1.49649 -9.80032e-05 4.11256e-10)
(1.49459 -0.000112542 -3.14863e-10)
(1.49243 -0.000159573 9.43918e-10)
(1.49002 -0.000172947 -6.78258e-10)
(1.48742 -0.000162575 4.50889e-10)
(1.4846 -0.000148863 -6.52402e-10)
(1.48156 -0.000132052 7.17537e-10)
(1.47829 -0.000128729 -6.31517e-10)
(1.47484 -0.000178365 7.49109e-10)
(1.47116 -0.000288044 -4.76135e-10)
(1.4671 -0.000302047 6.75979e-10)
(1.46306 -0.000254757 -7.14178e-10)
(1.45918 -0.000177452 1.33292e-10)
(1.45557 -0.000126847 4.19079e-10)
(1.45178 -0.000145498 -1.0237e-09)
(1.44784 -0.000226674 3.06078e-10)
(1.44377 -0.00042688 2.89448e-09)
(1.43967 -0.000633994 2.60362e-08)
(1.43504 -0.00128438 1.4427e-07)
(1.42688 -0.00305822 4.77205e-07)
(1.39762 -0.00813079 1.43988e-06)
(1.23104 -0.0150764 2.78749e-06)
(0.843389 -0.0206389 3.82738e-06)
(0.652376 -0.0214739 4.21276e-06)
(0.600293 -0.0259331 3.65841e-06)
(0.594973 -0.0283773 1.73645e-06)
(0.600857 -0.029665 1.24404e-05)
(0.61347 -0.0302899 1.67037e-05)
(0.626325 -0.032363 -0.000134166)
(0.638214 -0.0339637 -5.6288e-05)
(0.648645 -0.0349753 0.000433295)
(0.657684 -0.0353124 0.000208815)
(0.665812 -0.0345476 -0.000815599)
(0.673663 -0.0331814 -0.000766205)
(0.681193 -0.0329414 0.000649765)
(0.688558 -0.0337518 0.00128832)
(0.695458 -0.0335603 1.86989e-05)
(0.701789 -0.0316133 -0.00143291)
(0.708067 -0.0294953 -0.00110123)
(0.714384 -0.0289799 0.000631981)
(0.720766 -0.0297188 0.00165287)
(0.726903 -0.0298292 0.000635683)
(0.732481 -0.0281569 -0.00109871)
(0.737995 -0.0256459 -0.00155244)
(0.743669 -0.0243441 -0.000222331)
(0.749388 -0.024858 0.00142353)
(0.755085 -0.0260087 0.00146992)
(0.760323 -0.0258218 -0.000132688)
(0.765239 -0.0238963 -0.00161392)
(0.770209 -0.0217885 -0.00127347)
(0.775296 -0.0212813 0.000510126)
(0.780466 -0.0222859 0.00179195)
(0.785437 -0.0233796 0.00107842)
(0.790147 -0.0231507 -0.000668307)
(0.794721 -0.0215232 -0.00168676)
(0.799281 -0.0199648 -0.00091632)
(0.804182 -0.0196334 0.00093713)
(0.809549 -0.0204667 0.00194813)
(0.814662 -0.0214112 0.000888772)
(0.819271 -0.0210354 -0.00093993)
(0.823686 -0.0195485 -0.00159642)
(0.828043 -0.0181351 -0.000617784)
(0.832662 -0.0178667 0.00112446)
(0.837981 -0.0190901 0.00174543)
(0.84353 -0.0211288 0.00067913)
(0.848073 -0.0213701 -0.00075331)
(0.852847 -0.0204136 -0.00117418)
(0.857763 -0.0187996 -0.000591183)
(0.86284 -0.0170197 0.000574491)
(0.868259 -0.0163753 0.000744476)
(0.873745 -0.016953 -2.05552e-05)
(0.879628 -0.0184182 -0.000710327)
(0.885411 -0.0196131 -0.000226351)
(0.890922 -0.0188566 0.000686638)
(0.896596 -0.0169837 0.000683281)
(0.901946 -0.0149536 -0.000355146)
(0.906976 -0.0139351 -0.000983209)
(0.911846 -0.0138086 -0.000622383)
(0.915985 -0.0138899 0.000464597)
(0.919609 -0.0130584 0.00104086)
(0.922315 -0.0114699 0.00042298)
(0.924212 -0.00871804 -0.000412103)
(0.92412 -0.00517679 -0.000608301)
(0.92092 -0.00121585 -0.000217249)
(0.912641 0.00295569 0.000236978)
(0.897749 0.00787224 0.000328618)
(0.874498 0.0152582 8.66484e-05)
(0.839576 0.0260951 -9.01789e-05)
(0.788146 0.0420586 -7.17625e-06)
(0.717768 0.0628605 0.000120993)
(0.62844 0.0933098 4.01008e-05)
(0.528977 0.131457 -7.64273e-05)
(0.434124 0.166305 -9.29164e-06)
(0.356231 0.197691 4.85834e-05)
(0.300292 0.222687 -6.89127e-06)
(0.258258 0.240202 1.8599e-05)
(0.226007 0.248875 -1.67171e-06)
(0.201067 0.251114 3.40849e-05)
(0.179297 0.245021 -5.34181e-05)
(0.160003 0.234023 5.80591e-05)
(0.137813 0.226857 -3.30146e-05)
(0.115528 0.229397 5.95522e-05)
(0.0915113 0.227748 1.72292e-05)
(0.0712587 0.237588 0.000148493)
(0.0472835 0.239435 0.000130693)
(0.0363268 0.260241 0.000141026)
(1.5055 1.26482e-05 -1.45322e-12)
(1.50531 5.34951e-06 -2.08516e-12)
(1.50525 6.46321e-07 -2.85952e-12)
(1.50514 -7.27717e-06 1.23896e-11)
(1.50492 -1.45406e-05 -6.34932e-12)
(1.50459 -1.13653e-05 4.77178e-11)
(1.50415 -1.99696e-05 -3.26985e-11)
(1.50359 -3.26167e-05 1.25469e-10)
(1.50288 -4.83376e-05 -1.00314e-10)
(1.50201 -6.81095e-05 1.96772e-10)
(1.50097 -8.54781e-05 -1.30053e-10)
(1.49972 -0.000102537 2.43403e-10)
(1.49827 -0.000109962 -1.48573e-10)
(1.49662 -0.000116485 1.94694e-10)
(1.49475 -0.000133518 -1.73191e-10)
(1.49255 -0.000181537 5.01377e-10)
(1.49015 -0.000188812 -3.4418e-10)
(1.48757 -0.000183402 3.72525e-10)
(1.48477 -0.000182622 -5.90727e-10)
(1.48176 -0.000185598 5.4972e-10)
(1.47855 -0.000193597 -3.97384e-10)
(1.47513 -0.000237406 6.21744e-10)
(1.47128 -0.000350675 -4.88322e-10)
(1.46711 -0.000334939 5.81057e-10)
(1.46311 -0.00029176 -5.8293e-10)
(1.45929 -0.00020709 1.3254e-10)
(1.45578 -0.000178158 3.92756e-10)
(1.45204 -0.000214709 -1.90996e-09)
(1.44806 -0.000294479 2.17159e-09)
(1.44387 -0.000461655 1.65512e-09)
(1.4395 -0.000751975 3.23571e-08)
(1.43454 -0.00159573 1.91313e-07)
(1.42612 -0.00361247 6.31206e-07)
(1.39658 -0.00903188 1.87524e-06)
(1.22847 -0.0164794 3.44023e-06)
(0.841381 -0.0242953 4.73329e-06)
(0.651999 -0.0271585 5.11548e-06)
(0.602021 -0.0338082 4.4643e-06)
(0.597871 -0.0369412 3.17645e-06)
(0.605597 -0.0384795 1.30148e-05)
(0.619509 -0.0398919 5.38397e-06)
(0.633384 -0.0423767 -8.74191e-05)
(0.645431 -0.0435173 -2.75224e-05)
(0.655597 -0.0438374 0.000241222)
(0.664234 -0.0433288 0.000223858)
(0.671985 -0.0418902 -0.000305341)
(0.679465 -0.040199 -0.000646492)
(0.686832 -0.0397679 -6.28697e-05)
(0.693861 -0.0401821 0.000793925)
(0.700448 -0.0394647 0.000663521)
(0.706445 -0.0373815 -0.000414827)
(0.712643 -0.0352367 -0.00121053)
(0.718998 -0.0347063 -0.000675751)
(0.725259 -0.0352101 0.000742183)
(0.731357 -0.034779 0.00139828)
(0.736745 -0.0329854 0.000448207)
(0.742187 -0.0306376 -0.00116353)
(0.748079 -0.0294507 -0.00146679)
(0.753847 -0.0298526 -0.000144364)
(0.759569 -0.0304318 0.00150152)
(0.764662 -0.0296563 0.00131352)
(0.769386 -0.0278802 -0.000361804)
(0.774407 -0.0259705 -0.001625)
(0.779573 -0.025579 -0.000951337)
(0.784606 -0.0264651 0.00072956)
(0.789194 -0.0271287 0.00137338)
(0.793425 -0.0267445 0.00045439)
(0.797704 -0.0251426 -0.00101801)
(0.802345 -0.0235569 -0.00119245)
(0.807289 -0.0235299 -3.33528e-06)
(0.812468 -0.0246848 0.00121361)
(0.816871 -0.025519 0.000850489)
(0.821379 -0.0250987 -0.000303771)
(0.825971 -0.0234344 -0.00130648)
(0.830727 -0.0217338 -0.00082489)
(0.83545 -0.0214303 0.000762012)
(0.840515 -0.022584 0.00173021)
(0.846091 -0.024559 0.00107186)
(0.85138 -0.0254964 -0.000666462)
(0.856313 -0.0246176 -0.00163227)
(0.861207 -0.0230047 -0.00119224)
(0.866001 -0.0211396 0.000434682)
(0.870839 -0.0201504 0.00132274)
(0.87546 -0.0203983 0.000703065)
(0.879983 -0.0214678 -0.00061323)
(0.884726 -0.0220148 -0.000760152)
(0.889413 -0.0212474 0.000140754)
(0.894013 -0.0191646 0.00054018)
(0.897649 -0.0171284 -6.10834e-05)
(0.900839 -0.0158206 -0.000597851)
(0.903419 -0.0149436 -0.000336454)
(0.904591 -0.0138198 0.000416136)
(0.904513 -0.0120264 0.000740857)
(0.903244 -0.00923005 0.000282611)
(0.89967 -0.0050222 -0.000377219)
(0.891575 0.000253401 -0.000562089)
(0.877379 0.00622966 -0.000195632)
(0.855144 0.01397 0.000270231)
(0.822116 0.0245649 0.0003331)
(0.77567 0.0402491 5.56223e-05)
(0.713864 0.0602774 -9.87719e-05)
(0.635883 0.0875246 -1.09866e-05)
(0.547461 0.123538 5.89416e-05)
(0.458465 0.157956 -1.6621e-05)
(0.378645 0.189595 -1.35613e-05)
(0.317615 0.216815 4.96511e-06)
(0.271324 0.238996 1.16814e-05)
(0.23635 0.254875 -3.32491e-06)
(0.208795 0.264229 2.8465e-05)
(0.186566 0.266814 -2.49622e-06)
(0.168504 0.265678 3.18607e-05)
(0.152114 0.257739 -4.42304e-05)
(0.136408 0.248998 3.75148e-05)
(0.118064 0.245022 -2.14036e-05)
(0.100294 0.248807 4.32797e-05)
(0.0807749 0.2481 1.18298e-05)
(0.0658138 0.25842 7.03361e-05)
(0.0460381 0.262412 5.64542e-05)
(0.0385685 0.2804 5.5393e-05)
(1.50556 1.51166e-05 -1.13132e-12)
(1.50536 6.67923e-06 -1.3517e-12)
(1.50531 2.16691e-07 -4.20152e-12)
(1.5052 -9.58959e-06 1.12304e-11)
(1.50498 -1.26704e-05 -1.24505e-11)
(1.50466 -1.47938e-05 3.93313e-11)
(1.50422 -2.57724e-05 -3.86387e-11)
(1.50367 -4.18751e-05 1.07285e-10)
(1.50297 -6.0874e-05 -1.14963e-10)
(1.50211 -8.08278e-05 1.86676e-10)
(1.50108 -9.92111e-05 -1.37476e-10)
(1.49985 -0.000119647 2.00237e-10)
(1.49842 -0.000134097 -9.4476e-11)
(1.49679 -0.000147635 1.5324e-10)
(1.49492 -0.000179213 -1.09302e-10)
(1.49271 -0.000202538 2.68085e-10)
(1.49033 -0.000211605 -1.70239e-10)