/*--------------------------------*- C++ -*----------------------------------*\
| =========                 |                                                 |
| \\      /  F ield         | OpenFOAM: The Open Source CFD Toolbox           |
|  \\    /   O peration     | Version:  2.2.x                                 |
|   \\  /    A nd           | Web:      www.OpenFOAM.org                      |
|    \\/     M anipulation  |                                                 |
\*---------------------------------------------------------------------------*/
FoamFile
{
    version     2.0;
    format      ascii;
    class       volScalarField;
    location    "2.8";
    object      divBf;
}
// * * * * * * * * * * * * * * * * * * * * * * * * * * * * * * * * * * * * * //

dimensions      [1 -3 -2 0 0 -1 0];

internalField   nonuniform List<scalar> 
14161
(
-17732.7
-1492.81
11191.3
11819.1
2444.28
-8832.59
-9013.4
-6481.96
-748.086
5802.96
8726.44
7534.61
6193.13
4773.23
4272.94
6964.6
8662.26
11662.4
12218.5
14864.1
25004
67264.8
57587
58125.5
38183.7
20680.4
6760.77
810.096
211.353
579.333
9119.77
18526.8
11525.8
5088.32
2908.53
2690.62
-5767.08
-8486.44
-11250.4
-5637.22
-6381.48
-8956.06
-7688.72
-13717.8
-18079
-59213.5
-71314.8
-73369.8
-79497.4
-79010.5
-77703.9
-77670.3
-65165.3
-57251.4
-46405.1
-35098.8
-27362.4
-28077.6
-21611.7
-25373.8
-22226.6
-21013.4
-20716.6
-19588.3
-18434.9
-17264.1
-16064.7
-11347.2
-6977.29
-3288.01
-660.838
4495.22
5508.04
7519.36
7633.2
7939.52
3894.7
5633.85
3621.86
4353.04
6328.02
6071.33
9045.67
7489.59
8912.69
7304.09
7844.2
9091.57
9279.71
9006.96
6204.16
5315.71
5479.67
5814.04
6528.39
4831.5
3228.14
2561.53
1386.09
-420.171
-3432.02
-3739.62
-5417.91
-8541.07
-12237.2
-14501.7
-15437.3
-18392.9
-16887.2
-15505.4
-14001.7
-11406.3
-11366
-7390.17
-6889.5
-4860.81
515.379
-4042.83
9197.15
-20395.1
13728.4
-10753
-39437.6
-10070.7
3219.16
21861.4
31929.9
8216.95
-854.604
-7965.66
-13696.2
-7166.41
-1022.27
2325.87
4187.99
6394.45
7021.05
9806.86
16508.2
27699.2
39795.8
-18230.2
-55654.1
-102844
-58117.8
-16166.6
-5742.02
-4321.47
-15065.1
-28653.7
-34102.4
-22922.4
-17361
-17885.9
-11898.7
-2551.42
993.511
-1673.96
-4408.37
-14789.1
-5504.83
361.992
4493.43
13530.4
7259.75
12836.1
14959.6
16699.2
15404
15651
12848.3
-4184.86
-5389.81
-3744.97
-9935.72
-13743.4
-15921.4
-20991.6
-16726.1
-15449.8
-14120.7
-13737.6
-12200.4
-11220.9
-10711.6
-9203.78
-7178.33
-5200.11
-3533.06
-2194.26
-2280.22
-1511.09
-277.2
2270.15
3744.4
5015.54
7342.85
10240.1
9143.62
9501.57
6824.45
8732.26
6841.27
9160.81
5305.59
9247.06
7420.46
8708.67
4243.91
5142.06
4595.59
5652.04
6104.89
3948.62
2836.55
1522.04
2054.2
712.98
-51.0792
-1640.72
-938.363
-3290.69
-3309.78
-2803.09
-3355.95
-1821.76
-3219.86
-3523.44
-5056.14
-4796.21
-7123.1
-4308.85
-3813.71
-2772.88
-1503.65
-95.0047
-767.884
1035.78
-11648.2
-21366.6
11884.8
71160.6
22458.1
-3465.4
-38053.5
-53656.9
-13122.4
1829.65
18881.5
28094.6
18941.7
9584.94
5457.52
4875.19
6313.72
13236.1
11450.9
-1660.53
-7881.17
-27424.3
-46849.6
-177460
-53486.3
-20889.5
-14514.6
-15337.6
-1787.69
636.01
13298.3
12504.2
19674.8
20180
19463.8
12567.8
7826.28
7092.52
3588.17
5194.35
4071.27
-94.663
589.871
-724.215
-2733.65
-20840.8
-27242.1
-31311.6
-38141.8
-33046
-42391.2
-32007.2
-32556.6
-26970.1
-32702.9
-30267.4
-26196.8
-23446.6
-21278.8
-19189.9
-15436.1
-11667.9
-7715.04
-3797.01
-228.987
1098.33
2692.98
2847.98
3041.35
3265.64
3016.98
4777.85
5859.84
7843.21
8578.96
10569.7
10678.9
11636.8
11968.4
10967.6
11595.7
21046
21475.3
17702.3
19413.6
14157.7
17906.5
13097.5
12067.7
9886.14
6188.2
5336.19
3415.61
2892.23
2053.97
2379.37
1740.44
2203.93
1993.21
1817.64
1327.99
1095.64
251.594
-443.934
-661.33
-1325.19
-1330.86
-2442.36
-1753.17
-2537.64
-1241.33
-2026.14
-391.614
-1770.4
379.69
-1980.68
490.593
-1814.31
2496
-8833.31
24179.7
-21096.8
-90354.5
-27170.9
4421.2
45048.4
67694.3
18434.4
-1657.8
-16090
-26670.9
-13692.7
-1752.56
3336.13
5075.32
8046.5
6784.2
7952.49
6588.58
-3516.97
-45094.2
-141118
-56350.4
-16644.1
-11741.1
-7075.98
-3579.05
822.608
1922.95
3489.8
5330.76
2883.87
3179.72
2422.1
1708.61
3238.07
1544.54
1772.59
967.275
725.971
221.895
-2312.53
-3316.76
-4737.55
-16904
-11586.4
-9330.02
-7781.31
-4358.51
-3713.93
-9322.03
-8070.25
-8824.93
-9407.37
-8859.1
-7740.05
-6887.22
-5973.72
-6110.57
-5864.32
-5248.63
-4039.45
-1984.87
418.959
2771.2
6103.65
7636.85
9081.23
9728.28
9477.77
10008.5
10273.7
10712.7
9505.06
10829.6
12477.9
13355.6
17061.3
16796.5
18197.8
6209.8
10946.4
8410.87
12233.3
9903.25
12992.5
11149
11556.5
9789.8
6485.84
6359.98
3659.79
3003.94
792.056
896.597
-530.824
869.497
-489.272
293.993
-691.169
-227.203
-569.668
-348.539
165.251
-81.6663
1416.77
122.879
1620.22
194.125
1536.2
-329.315
1214.95
-792.799
636.965
-869.236
334.32
-1367.54
323.973
-36761.5
-23234.9
23462.3
103879
30320.1
-4893.26
-46141
-78343.7
-24339.4
470.78
19408.9
29117.6
21511.2
8529.98
1607.92
175.829
1575
9462.19
6981.17
-2779.72
-7223.52
-28849.2
-99584.8
-96427.5
-26899.2
-7473.22
524.457
4174.05
4967.2
2994.28
4594.5
5081.04
7327.97
7465.72
8609.81
8708.03
6671.98
5197.74
3412.55
2205.33
235.892
-1131.04
-3183.56
-2667.3
-5763.51
-13627.6
-17463.8
-20143.9
-20147.9
-21174.1
-19781.2
-21189.2
-19720
-18743
-19580.6
-17402.6
-16336.8
-14927.5
-13613.6
-12350.2
-11367.9
-10257.2
-9199.11
-7698.02
-6658.66
-5476.93
-5275.22
-4111.79
-103.013
1724.35
5013.87
6244.27
8530.14
11031.8
11513.5
15113.6
17894.8
18537.1
23136.2
19348.2
25104.5
23749.7
27282.7
21951.4
24742.2
19984.9
23355.6
20189
20118.3
17310.5
12459.1
10052.3
6938.59
5222.95
2385.28
2144.45
1314.6
1955.84
1833.35
2226.1
2087.7
2199.49
1494.45
693.459
-31.116
-405.831
-572.028
-1351.64
-585.988
-1602.21
173.992
-1261.64
949.924
-1514.03
1175.58
-2304.73
1371.33
-2139.58
1103.23
16810.3
25418.2
-31952.8
-112438
-38165.6
3441.93
51159.4
83990.2
27158.7
-631.056
-16555.3
-21024.7
-8416.07
-2838.05
2869.07
9750.9
7723.47
7093.09
8212.81
9154.22
2449.65
-6723.4
-55839.7
-95345.2
-49827
-23855.7
-17644.6
-10046.5
-4865.2
-1656.57
536.101
1306.3
495.389
299.141
579.799
484.922
1642.15
-919.785
-932.08
-3692.45
-4111.16
-6734.66
-8015.55
-11089
-11552.1
-22908.4
-20635.8
-20524.3
-18134.6
-16285
-15851.4
-14790.2
-13956.2
-12583.5
-12280.1
-10314.3
-9163.12
-8070.14
-6366.02
-5681.01
-6319.41
-6844.43
-7184.38
-7439.53
-8143.76
-8898.96
-5825.13
-2506
-998.629
1603.76
2854.91
5157.29
7762.42
10463.4
13807.3
19072.8
23145.2
24815.5
28963.7
25895.1
31435.9
23448.7
28320.5
22784.9
26706
23292
24557.3
23506.4
23214.6
21825.9
17582.2
14379
10499.2
7244.98
2719.77
1737.28
-726.83
353.148
-1353.98
-505.201
-924.745
-267.373
-344.81
527.163
1201.97
-813.772
813.538
-541.005
1446.97
-230.618
1432.8
-517.827
1199.26
-759.206
815.361
-838.132
1385.69
-1374.14
-10.9125
-70461.9
-17661.2
30281.6
114907
37476.1
-3985.44
-43778.4
-85004.5
-32542.3
-1994.14
13837.8
23326.1
11586.2
3560.26
-1559.57
-4033.27
-4124.85
-3047.78
805.826
1646.15
8164.78
32282.2
-28451
-19451.3
-48268.3
-17845
-2718.17
2029.02
-145.67
-1893.15
-5161.69
-2344.84
-2781.86
-492.415
59.9046
583.926
1222.11
-1966.8
-2181.75
-4528.88
-6675.76
-8314.95
-10887.8
-11813.4
-9678.55
-22446.2
-21529.1
-23633.9
-25242.3
-26522.8
-26901.9
-27369.4
-26470.3
-25377.5
-24108.1
-21734
-19544.3
-16206.3
-14790.7
-12011.1
-10162
-7855.68
-6974.72
-5758.69
-4559.58
-2966.58
-2005.32
-1763.73
-920.991
-1005.07
228.707
1290.63
5033.87
5611.68
10030.3
11163.5
17006.7
16998.3
27189
25734.3
39160.7
34654.6
41475.7
32837.2
36968.2
28435.5
30116.7
28765.5
29974.4
30499.5
27932.7
20553.6
18259.8
12381.4
6987.14
3832.68
1753.92
1037.32
923.002
2006.34
1858.76
2181.78
1306.67
918.354
-1017.81
1581.87
-171.986
-1099.9
-785.009
-2315.45
217.484
-1756.91
824.891
-1803.74
1174.31
-2025.44
2039.25
-1822.77
612.65
52722.3
13464.7
-35063.1
-115841
-43751.9
1509.71
44876.7
82389.6
31461.7
912.51
-12176.7
-16010
-6228.33
-1804.07
4212.62
10790.4
15426.5
16613.3
21227.4
24817
29384.7
14619.5
-75903.1
-39237.5
-60555.6
-22420.2
-5569.02
-5438.84
-8110.65
-5104.06
-4268.35
-4642.67
-6945.36
-7918.87
-7151
-8124.31
-6915.39
-9400.84
-9096.62
-11612.6
-11599.9
-12137.5
-12247.7
-12376.7
-11154.7
-26179.9
-20551.3
-20100
-18212.5
-17484.9
-17881.2
-18538.9
-18329.2
-17678.5
-17250.7
-16470.8
-13847.2
-12494.6
-10422.6
-8374.62
-6973.35
-4940.66
-3499.66
-2169.7
-1220.94
1465.53
3436.44
6044.21
8559.92
10575.7
14309.4
15737.8
18721
21523.3
22132.4
23446
25203.4
26771.3
31936.2
30654.1
39688
33604
52361.9
38436.3
51767.2
35910.4
35304.4
33676.4
34457.4
34989.7
39157.7
27449.1
27618
19287.5
12254.7
7206.51
1671.99
1252.04
-829.327
-1468.53
-1972.78
-1246.37
-1144.42
876.061
490.357
-1220.43
-1041.23
97.9172
-416.347
-585.665
338.819
-1180.72
900.396
-1293.24
866.274
-1013.85
1558.24
-1691.26
899.352
-91051.8
-12965.7
29278
112742
40909.8
-2550.43
-36174.1
-70903.2
-33500.3
-3708.83
7219.61
15358.4
11146.4
4076.67
-889.85
-4652.64
-8652.69
-10520.4
-12665
-16758.5
-8622.38
7739.39
84285.9
11703.2
6668.03
-1374.67
2765.02
-277.321
-5223.15
-6817.99
-4213.64
-1549.27
-5067.59
-3151.66
-2199.6
-6306.66
-2157.32
-4677.7
-5609.66
-6695.79
-7877.87
-7921.65
-7323.6
-8447.19
-5552.25
-22262
-19922.1
-21620.6
-20163.2
-21043.7
-20027.2
-20018.2
-19515.5
-19695.9
-17702.1
-16954.1
-15730.8
-13445
-13754.5
-10058.8
-9786.51
-6513.86
-4741.61
-2231.61
82.186
1344.74
4270.6
5734.67
8664.06
10976.7
12706
15370.8
14669.6
17411.3
20344.1
22349.1
27190
27846.6
33040.5
33637.9
37509.5
38926.9
49401.7
43197.1
59803.1
42593.7
50154.6
42722
31714.3
25035.5
32456.4
24543.2
31999.7
22906.6
18001.4
12301.4
7410.82
4767.22
2615.43
2789.8
2151.15
1428.43
-489.336
-1448.68
-698.454
367.069
134.999
-1829.79
2749.35
-1722.51
168.758
-2154.93
349.117
-2447.81
1275.49
-2095.88
1799.41
-2072.74
1499.07
81783.2
5925.07
-33756.4
-102944
-42389.6
-447.765
32825.8
60346.8
29433
1769.25
-8065.1
-11718.3
-5873.74
-2187.16
6003.92
9979
14365.5
21356.2
28883.4
39523.1
54273.4
48083.2
-39883.7
-84053.7
-80234
-41852.7
-10431.6
4859.49
-186.518
-5898
-10099.7
-6715.91
-7669.67
-8506.68
-5824.52
-8907.27
-5606.02
-8728.79
-8517.63
-9174.45
-7849.11
-7869.92
-8025.14
-7811.34
-6724.21
-14323.1
-12749.4
-13287.9
-12879.4
-12573.6
-11173.2
-10627.2
-9109.89
-9204.71
-7879.61
-8557.44
-7987.55
-7598.31
-6307.84
-6316.42
-4664.51
-3213.4
-1137.69
601.872
1536.39
2591.07
3180.73
4698.99
6384.3
8873.69
11133
15577.6
19296.6
22109.1
25990
31101.1
33067.1
33430.6
32909.3
37589
41396.5
37520.6
47170.6
41407.9
56861.7
40036.3
46072.3
53076.3
38715.3
33023.4
40886.8
29420.7
40042.4
31395.6
26603.2
19257.2
11972
7187.57
4209.19
2604.12
1258.84
964.071
1303.38
1639.19
-380.271
-2980.66
-909.6
-475.756
-3466.87
50.3365
-1891.15
-1244.17
-286.979
-1497.37
533.761
-1619.5
1384.97
-2140.28
1737.95
-98813
-8938.96
27929.6
92607.7
39730.7
-874.89
-24486.5
-46270.5
-23574.4
-3724.96
1312.28
8972.34
9404.3
4459.52
-761.61
-3808.46
-6617.33
-10798.4
-19708.2
-32065.6
-53175.7
-78278.5
-7635.58
143116
95536.4
36420
7590.06
-17493.5
-6122.97
-6926.79
-2165.42
-5313.02
-4184.97
-5797.86
-4192.4
-4772.17
-6023.28
-6162.48
-6387.75
-6309.92
-5937.79
-6755.71
-7241.77
-7079.63
-6153.65
-10328.4
-8477.16
-8886.65
-8509.59
-8397.19
-7802.83
-7749.95
-6537.71
-5685.89
-4221.81
-4203.7
-4176.02
-4228.23
-3570.79
-2986.6
-2272.79
-1599.25
-570.255
1427.3
3706.41
5644.48
6589.13
6755.43
8262.91
9574.48
11465.2
12825.6
17053.4
20234.5
21232.9
22961.9
25610.6
27940.6
33458
35272.5
42700.5
44515.9
50148.6
42716.5
53929.7
43750.8
47607.5
75280.4
44918.4
53339.1
55439.3
35143.8
45665.1
34561.5
28931.1
23272.5
17487.3
12844.9
11006.9
8430.04
6687.05
3386.77
3395.74
1178.67
-326.537
44.7827
-2216.35
-1552.01
-1352.3
-1256.8
820.976
-195.57
843.975
-1276.03
961.331
-2132.89
1631.13
-2382.39
1906.37
102272
1595.78
-32764
-80511.1
-33101
-3158.12
15103.2
30300.4
18764.1
2142.25
-2699.58
-6637.78
-5625.34
-2510.99
4551.82
6682.05
12485.1
17831.9
30909.5
49439.8
75616.6
107782
56623.3
-29599.2
-78370.6
-116379
-42799.2
-14864
-10472.8
-11757.4
-18177.1
-14396.3
-11211.7
-10450.2
-10416.1
-11058.3
-10640.3
-8829.69
-8579.57
-8143.01
-7667.05
-7178.55
-6564.44
-6849.54
-6221.76
-9646.96
-9776.47
-9503.79
-8892.01
-8962.45
-8335.51
-7211.17
-5425.09
-4404.05
-3694.43
-1580.01
-1172.37
74.3293
207.29
702.092
1006.42
2865.6
3026.5
3756.69
3613.52
3943.1
6004.5
8070.54
9990.05
11042.5
13196.7
15533.7
16228.3
19805.5
22659.9
24083.6
30803.3
32458.3
36211.2
43902
44067.3
40158.4
53698.2
44359.4
58306.2
52239.4
43726
65342.7
35844.2
40443.1
62212.8
31833.3
51064
33155.8
30017.5
20291.3
15035
13761.1
13059.2
12413.8
10020.8
6516.41
5139.06
2817.6
2944.7
656.659
865.642
-394.615
-1452.54
-3776.32
-2247.14
-438.192
-1203.12
-1925.56
-561.051
-2505.96
1206.69
-2705.34
2444.5
-92238.2
-1989.75
31794.5
59641
26559.9
141.391
-9869.21
-22181.6
-12833.3
-3634.84
50.2867
2921.16
6125.91
3968.72
-1470.71
-2186.11
-2592.45
-5667.14
-12898.4
-26924.8
-44737.5
-42792.1
-28789.2
-49112
63618.7
99071.1
41381.7
11032.6
-6275.07
-10792.1
-7706.03
-2642.32
-2484.2
-1241.37
-3742.95
-3499.07
-3200.71
-5634.55
-4724.21
-4691.63
-4642.22
-5726.34
-5629.28
-5762.79
-5941.03
-4617.47
-4555.9
-3287.43
-3222.72
-2258.21
-2384.78
-1824.04
-582.981
170.975
976.301
3254.82
2761
4402.07
4481.51
4324.27
4411.79
4471.8
5296.07
4755.22
6407.79
6725.58
8632.64
9334.46
10344.9
11814.2
12585.2
13729
15383.8
17497.8
23532.9
25846.8
31097.8
31203.3
36424.1
36572.4
39472.6
45884.1
42896.2
40748.5
49252.9
59188.9
42213.8
39773.5
29985.3
29391.1
58820
25537.2
41269.6
33597.3
31810.6
21556
15047.6
12647.7
10742.9
7139.94
10940.9
5394.53
4634.93
2573.3
1517.29
87.5801
-218.864
-1017.96
-1772.18
-3428.68
-3269.37
-1380.09
395.814
-344.368
443.333
-2291.54
2530.83
-2820.48
2863.07
96713.6
-5907.67
-33262.1
-50129.7
-23104.9
-4244.16
3286.49
10994
7544.39
4285.69
-1.25806
-2482.97
-2869.31
-628.414
1823.67
4030.19
5175.85
12728.3
17329.7
31789.7
49163.8
62176.9
21257.4
-59230.1
-67538
-57522.6
-11319.3
-12049.2
-16043.6
-16281.7
-13908
-8347.46
-8132.6
-13220.6
-9156.21
-7163.23
-7765.49
-5313.47
-4658.07
-4738.34
-4307.44
-4147.47
-3635.36
-3820.19
-2588.36
3475.8
3919.26
5875.51
4441.16
5361.37
5607.26
5941.73
4211.23
4688.8
4106.33
5157.43
3580.81
4184.84
3970.19
3475.41
4688.02
3609.01
5007.26
6062.39
6434.63
8768.2
9328.17
12186
13208.5
16010
14140.5
18913
12344.9
21018
19505.1
22915.9
24655.9
27891.3
27603.2
31372.8
29085.8
35227.9
34017
40326.4
40118.6
54258.3
46189.7
23617.6
26463.7
16833.8
28522.1
6207.33
24385
29320.2
26402.2
24460.5
13110.5
12744.6
7726.94
11451.3
10206
7915.83
7091.91
5626.23
5650.66
3902.83
2687.49
559.364
-140.445
884.815
295.741
-4603.68
762.697
-2618.28
162.325
-2084.75
1025.06
-3644.6
2998.06
-58503.4
2361.31
25248.9
31545.3
11836.2
-1057.32
-5802.97
-8384.85
-6311.16
-2980.43
-133.305
1133.2
1530.7
2831.61
382.876
-387.326
-85.3749
619.855
16.034
2535.66
9399.97
16089.7
23293.3
-24226.6
60110.5
30157.7
-1033.31
-17697.5
-19683.5
-20684.6
-18042
-11662.2
-9752.57
-4568.28
-3782.01
-5341.72
-4236.69
-5062.59
-3589.43
-3531.44
-3630.23
-3361.98
-3755.79
-3379.42
-4361.61
7013.77
5274.39
5677.1
5715.07
6844.5
6022.07
7081.54
6963.72
7198.76
6595.74
6778.33
7019.47
8156.67
7092.01
8249.12
6359.86
6967.9
6518.84
8331.97
6787.46
10114.2
9585.68
12847
12585.2
14453.5
13952.5
18100.1
18851
22980.5
22848.9
25429.8
21997.9
25277.7
20525.9
28457.1
24068.5
31421.8
19803.7
35982.5
14905.6
11004.3
25183.1
19444.9
21281.4
21452.8
16905.5
10017.5
10000.7
16372.5
16225.7
21258.5
17666.1
10176.9
5358.48
6750.34
6533.34
5158.28
3878.14
3554.87
2752.89
1546.54
761.653
-19.6509
192.274
-162.985
-2120.45
-2237.56
-622.577
-2853.28
187.791
-2394.88
699.411
-3501.2
3237.72
72175.3
-17511.4
-21337.9
-26396.6
-13042.5
-3351.55
20.9314
2105.27
3529.51
1769.21
891.627
251.806
250.034
970.504
87.2803
128.826
1360.83
3933.22
5719.16
8661.2
11563.1
4801.1
-28877.9
-45359.7
-94232.4
-28614
-6764.31
8698.89
16109.2
10878.9
5306.1
1321.27
-6243.16
-6634.82
-5644.51
-6020.56
-6226.12
-5585.87
-5240.19
-4143.67
-3341.08
-2465.97
-2339.64
-2337.21
-4598.38
7764.92
4642.41
7512.77
7563.92
8945.45
9872.19
11866.9
10817.8
12863.2
12237.7
12868.1
12918.8
14402.7
14778
17211.4
17456.8
19972.5
19121
21683.5
21017.8
21221
19396.9
16576.2
14598.8
12172.8
10718.1
6427.43
3887.95
-1439.16
-4344.75
-8049.21
-10410.7
-12592
-13128.2
-13017.5
-11212.5
-6488.09
4575.79
2728.74
21402.2
13877.8
-2632.54
12256.2
15241.1
13513.7
21027.3
21615
14950.8
19070.9
16868.7
19144.4
15358.5
12469.6
7702.69
6292.78
7645.19
3407.18
3298.57
3993.01
3006.09
2189.9
1808.79
341.432
629.175
-641.646
343.596
-1342.97
-2475.26
-2779.92
809.642
-1872.57
642.503
-3531.4
3204.44
-26543
10801.9
11637
9849.54
1602.21
-1953.85
-3344.02
-4068.58
-2972.61
-1679.62
213.937
740.85
839.949
-476.683
-829.096
-277.72
-360.332
425.285
2773.07
4377.38
6721.1
3782.07
-31270.5
-17852.1
-28778.9
-5644.01
-4034.4
-7630.14
-4144.45
-3725.28
-4837.32
-1924.17
-1780.39
-3323.85
-3655.01
-1574.42
-1644.25
552.082
1429.73
3063.43
4801.51
6378.39
6505.87
6987.01
4727.7
17278.6
16788.2
20005.3
18560.6
19729.5
18487.8
18680
18170.1
17546.1
17137.7
16141.7
16301.9
15104
16168.1
15694.7
17410.3
17519.1
18925.4
18316.8
19107.2
18104.9
18358.9
16915.7
16806.7
15150.3
14361
12176.6
10595.7
7117.36
3567.44
-1134.26
-5821.68
-10252.6
-15419.5
-17414.3
-21991.8
-14560.1
-7467.71
817.413
3034.7
3881.76
15263.2
8863.11
10353.6
9704.47
6426.18
9033.15
15873.8
17383.8
13423.2
17563.5
12243.4
8633.94
6192.82
5493.61
4678.83
1940.97
2166.02
3026.99
1951.9
1850.82
1211.37
576.503
435.907
-545.347
-81.5278
-1534.57
-123.597
-5191.17
3224.49
-3227.35
-897.597
-4033.26
2971.21
42201.7
-13386.3
-11796
-11791.2
-6581.62
-2620.54
-1814.46
-32.0201
1629.29
474.185
1397.13
-196.021
-1992.39
-1416.77
-956.542
-442.805
-346.695
271.985
1669.62
1207.89
1693.6
4894.83
-38564.1
-25172.2
-35444.1
-14808.9
-8060.18
-1143.9
10.7039
-398.138
-2536.99
-3643.76
-5170.38
-5596.54
-3816.96
-4376.42
-3233.86
-2236.14
-531.369
-198.96
1134.27
2365.16
2957.83
4180.05
3541.94
13324.2
12446.1
13858.7
13763.4
14120.7
13608.2
13410.9
12726.3
12093
11218.2
11348.4
11508.7
12175.2
12758.2
13702.8
14033.4
14505.2
14196
14125
14126.3
14324.4
14823.5
14825
14932.5
13752.3
13102.2
11030.9
10091.3
7795.1
6274.56
3798.43
1191.56
-1599.99
-6408.91
-9372.3
-14371.3
-14264.1
-17026.7
-12604.2
-6623.91
-1619.12
214.787
3010.97
4462.53
5948.6
6030.35
6565.9
8391.8
10421.8
13868.8
14691.3
13992.8
8418.64
6514.29
6860.98
3741.18
2412.55
3433.59
3020.98
3043.36
2274.89
1912.96
1018.09
861.072
-120.516
185.628
-852.628
-611.854
-3962.02
2507.77
-3935.41
-834.631
-4296.56
2982.54
510.09
6322.3
1855.96
0.331689
-1819.82
-3397.16
-2987.74
-2609.07
-2053.34
-670.954
472.817
2470.79
223.706
-1244.59
-1094.78
-1107.7
-976.165
-143.248
248.54
717.832
-965.679
2729.86
-30086.8
-53148.1
-26527.6
-12838.1
-8599.52
-4119.35
-3920.48
-2239.9
-3186.9
-2571.26
-1921.84
132.112
794.142
1699.94
3229.57
4255.71
7023.11
7804.22
10111.4
11115
12239
14081.6
13371.3
19615.8
18309.7
18676.3
18340.9
17318.4
16287.4
14873.2
13721.2
12063.6
11693.6
10760.3
10535.8
9655.85
9306.56
8562.81
8378.58
7678.52
7869.59
7595.32
8377.84
9081.98
10629.4
11205.6
11784.6
11178.2
10525
9221.99
7744.95
6035.88
4802.49
3239
1939.49
600.98
-1337.83
-3560.22
-8622.5
-12183.5
-17851.6
-15848
-8273.09
-5164.44
-3875.4
-4299.73
-1012.32
164.304
5167.58
6836.02
9097.37
5680.46
8495.65
11783.1
12038
7915.84
8706.87
6948.62
4280.31
3472.17
3928.63
2879.17
2800.65
2114.13
2152.26
1245.23
1305.89
79.7167
821.203
-565.722
480.379
-2311.97
1683.16
-4254.08
-205.371
-4487.94
2986.65
23266.2
-7520.22
-5329.36
-4321.09
-3657.6
-2546.69
-2106.13
-1048.75
-37.3384
-50.7165
307.02
-837.451
-2070.84
-2028.29
-1595.9
-1072.35
-970.202
-888.128
-769.64
-1592.85
-2718.72
-244.067
-26598.2
-50544.6
-14507.8
-8620.6
-5640.42
-3684.42
-3088.16
-3720.02
-3633.11
-3077.3
-3916.18
-3679.3
-4554.4
-3931.77
-3545.3
-3045.75
-1759.6
-1297.34
186.95
1100.6
3069.01
4945.34
6440.53
9354.02
8921.31
9634.13
10047
9490.52
8633.41
7580.49
7274
7162.69
7443.11
7299.39
6749.21
5822.95
4753.29
3563.3
2740.49
2159.22
1931.58
2219.29
3051.34
3672.42
4889.33
6118.77
8254.46
10198.1
11869.5
12244
11730.5
8238.97
7406.26
6044.19
4964.44
2948
1172.85
-1871.29
-5928.62
-10454.8
-16887.7
-20209.5
-24822.1
-18557.7
-12785.6
-3988.68
-606.595
2217.37
2117.69
4111.18
5758.02
3768.41
5520.42
6654.38
13077.2
10063
12197.8
8523.24
6192.19
5588.67
5422.72
4277.23
3877.66
3184.01
2762.22
1672.53
1489.8
268.077
540.453
-854.335
304.663
-1826.51
621.666
-4320.48
844.03
-5240.97
2870.62
13890.3
-2055.99
-1405.47
-2274.85
-2447.78
-2671.29
-2433.08
-1885.51
-1074.16
-1146.84
-539.978
-593.2
-1272.46
-1539.85
-1426.6
-1236.6
-1018.28
-995.464
-463.616
-350.848
-1182.77
1857.57
-14540.4
-51656.1
-15575.9
-10248.8
-8050.9
-5953.09
-4374.52
-3223.82
-2213.81
-1744.04
-1032.37
-707.606
589.859
1489.2
2742.78
3588.33
4890.03
6105.65
7729.79
9183.09
11636.4
13762
18183.3
22583.6
25000.7
23400.8
20389.2
17080.6
14288.1
11643.8
10687.1
9753.61
8827.35
7705.17
6583.09
4969.78
3482.19
2758.18
2015.54
1587.89
1554.13
1056.53
533.509
159.769
221.61
1012.03
2693.57
3677.09
4340.68
4965.21
6073.15
7408.5
6243.04
4831.11
3933.59
3092.74
2571.73
1059.67
-1989.69
-9902.6
-16708.8
-22180.5
-27773.9
-19339
-15384.6
-9351.62
-5759.9
-1295.83
1518.89
-2569.08
-1421.52
-2240.34
24.4921
2873.56
12915.6
13946
17511.2
12116.1
9414.77
8765.58
7567.28
6038.89
5140.37
4024.13
3612.33
2299.52
2109.83
751.398
1206.1
11.734
703.048
-30.8389
-503.95
-4362.03
2107.07
-4950.96
2629.12
16665.2
-4262.04
-3021.22
-2668.93
-2496.21
-2347.36
-2108.53
-1585.54
-848.023
-1037.52
293.277
-102.666
-1311.07
-1252.43
-1276.98
-1402.3
-1758.27
-2730.77
-3231.32
-6277.55
-14495.5
-31569.8
-50565.7
-19366.6
-6337.39
-1735.24
337.101
755.001
-1789.54
-3113.41
-4048.17
-4368.99
-5462.2
-5878.82
-5695.27
-5291.39
-4064.58
-3309.13
-2400.51
-1569.7
-707.856
86.6753
913.909
1979.07
4021.99
7054.43
8073.52
7399.06
6832.04
7176.26
7435.38
7302.41
7105.74
6748.3
7064.33
6774.1
6903.36
6663.12
6515.31
5680.98
5284.57
4545.84
3624.79
2630.48
1808.71
928.195
466.669
-74.9519
218.914
1457.17
2776.04
4117.33
5323.93
7030.07
8405.44
8789
7946.2
6584.73
4161.48
1642.99
-2027.16
-4664.89
-12690.9
-20287.6
-29827
-27346.6
-28127.3
-18228.5
-13286.5
-7369.09
-3674.18
2032.4
-5388.47
-7216.24
-5737.75
6226.38
19445.3
17525.9
20325.8
15709.7
12278
11315.3
10144.4
8098.61
6998.12
5169.13
4769.84
2706.86
2346.44
851.021
940.844
-314.981
-61.3873
-1059.87
-749.643
-5561.67
5004.57
-5142.67
2219.15
14830.2
-3081.16
-2265.65
-2400.99
-2168.93
-1859.86
-1758.05
-1424.42
-505.94
-622.047
-1332.11
-2393.76
-1854.42
-1882
-1488.63
-1090.96
-1089.16
-1077.27
-906.146
661.339
3364.32
13401.2
-18596.2
-64890.1
-20357.9
-11304.9
-3048.14
-5634.81
-6550.02
-5347.1
-3472.31
-2835.47
-2429.08
-1468.81
-236.387
1244.75
2103.55
3259.99
4117.47
5915.24
7325.13
10127.5
12073.2
16113.8
19464.7
19691.1
17398.8
16326.3
15705
16066.8
17604.9
18491.5
17937.2
17448.7
16322.8
13040.3
9405.58
5659.34
3552.38
2062.61
1639.23
1907.66
2587.48
2647.78
2618.09
2322.3
2411.42
2659.2
2376.1
2110.39
2236.71
2342.04
3145.75
4592.66
6382.68
8012.63
9631.32
8483.1
7608.03
4140.02
1619.83
-1891.59
-6731.15
-11884.4
-23974.3
-32441.3
-37184.2
-32242.6
-26838.9
-21941.6
-12608.4
-9645.46
-5574.73
-1626.53
2093.11
7067.35
15618.4
22488.3
29467.1
25339
21042.2
18186.9
15024.9
11742
9121.63
7096.39
6354.6
3417.09
3031.74
1512.25
1818.92
508.251
1010.6
309.567
-476.588
-3059.29
4915.3
-5279.48
1483.36
14199.8
-3248.7
-2343.95
-2173.3
-1890.36
-1860.17
-1776.12
-1374.85
-944.613
-1372.48
-1359.5
-1946.85
-1759.64
-1718.99
-1352.14
-1194.03
-1048.78
-1350.62
-2156.23
-3414.37
-5955.47
-11043
-21234.5
-9738.48
2110.87
482.013
354.54
-2767.02
-7053.06
-6630.6
-4346.53
-6477.52
-4646.12
-5705.55
-1814.78
-825.082
-34.5703
1184.91
4168.43
6000.87
10273.1
13292.5
16557
18372.9
20875.1
16181
13718
12048
11206.9
11942
13154.8
16503.1
19378.1
21331.4
19910.7
17037.7
10528.8
5348.25
1193.67
47.8759
230.519
1697.7
4270.35
6040.97
7771.98
9049.18
10297.8
12271.3
13067.1
13589.7
12775.8
11937.2
10780.2
10723.4
10652.6
10672.7
11521.5
10361.9
10583.4
7870.82
6059.47
2625.78
-1085.77
-7064.54
-12572.6
-20366.9
-30531.9
-33336
-34708.1
-29910
-28404.8
-17966.3
-12988.4
-9669.86
-5423.41
787.997
10420.9
20481.5
25122.7
25964.7
21957.4
19665.7
15367.8
12168.7
9334.24
7218.38
5907.11
3513.03
2825.35
1573.08
1488.73
823.192
544.82
149.328
-378.18
-3040.73
3975.3
-5640.44
1235.29
13443.6
-3014.28
-2144.92
-2007.85
-1794.79
-1468.9
-1204.66
-213.99
-512.569
-1239.73
-876.261
-1258.94
-1594.3
-1770.9
-1568.3
-1227.7
-764.895
-494.974
702.997
2942.45
8963.28
20722.3
31747.7
-39097.5
-52190.5
-40151.5
-18317
3606.03
-1591.94
-4415.17
-6439.79
-10477
-10668.7
-8780.08
-9033.3
-11175.8
-8004.56
-3927.1
-1126.33
370.055
532.748
390.188
2677.1
4302.86
9946.16
16996.1
20792.5
23116.5
25711.7
26225.9
26744.9
26644.1
26611.4
27046.1
28595.2
33912.3
38234
41073.9
38971.1
36896.5
35537.4
33703.8
32431.8
32977.3
34236.8
33756.1
31479.8
28984.2
29470.7
29735
29025.5
29790.9
29636.2
28263.4
25662.5
20822.2
17756
12619.5
10945.3
9903
10482.9
10182
5244.02
2727.29
-2136.62
-9656.44
-15334.1
-22162.3
-24277.6
-26491
-28942.5
-23204.3
-15039.4
-13774.6
-4801.41
3811.01
6249.69
15431.3
22918.5
22931.1
24864.5
24611.1
19009.5
15814.6
12373.9
9950.1
7967.54
5950.71
4607.2
2846.16
2568.78
1862.07
831.924
962.146
336.633
-2030.89
3412.88
-5057.87
1280.51
12695.5
-2894.59
-2034.28
-1887.77
-1683.6
-1267.24
-856.258
-1406.93
-1556.23
-2088.4
-1465.59
-1943.66
-1685.6
-1393.33
-1166.6
-957.891
-737.4
-1087.47
-2366.07
-4006.16
-11357.9
-32032.3
-87030.1
-52491.9
-368.933
91976.9
29288.1
-13871.1
-9806.78
-7612.05
-7501.98
-2042.71
-2695.7
-2620.04
-5196.93
-4699.93
-5659.39
-5707.94
-5229.67
-5569.64
-6717.88
-6421.25
-4719.66
-2083.42
2363.15
9628.68
12292.6
13537
15562.6
17187.3
19010.8
18952.4
19939.8
21243
24022.9
27737.1
33165
40122.1
46064.7
47065.3
45511.9
43028.9
40221.6
38358.1
40972.2
45026.7
51506.4
54194.3
54147.4
52649
46887.4
45617.4
43769
39893.6
38594.3
34012.1
29352.3
23255.6
16131
12277.1
10519.2
12807.8
11059.9
8487.55
6031.67
6843.07
1757.85
-5636.14
-13060.2
-18711.3
-17958.9
-17940.9
-11363.9
-6650.18
-1958.21
3623.57
6435.68
10634.7
18235.6
18664.8
20272.1
22283.5
18282.7
17211.3
12876.2
9760.2
7386.25
5136.41
3385.85
2020.58
1951.7
1180.23
1077.07
1140.61
1118.3
-1465.66
2741.42
-4831.2
1323.71
12046.2
-2781.02
-1951.48
-1752.5
-1453.37
-1192.43
-1285.39
-961.665
-1579.93
-1800.59
-1691.13
-2023.78
-1648.76
-1392.56
-1148.34
-907.45
-234.176
295.742
3057.1
7048.87
17997.8
42541.7
91486.2
67328.6
-37205.9
-57683.5
-88768.3
-37906.4
-14826.3
-8736.8
-6729.07
-7375.16
-7281.19
-6521.86
-4832.85
-3168.77
-4011.01
-4582.06
-5244.95
-5603.05
-4267.28
-4612.54
-5470.47
-6596.38
-5848.68
7051.77
7546.74
7383.36
8535.48
8474.8
9178.67
9680.59
10159.2
10399.7
11115.1
13326
14064.7
16387.9
20507.3
23276.3
24616
30966.6
33350.2
38007.8
40263.6
43253
46159.5
51039.9
52712.5
56500.6
56745.4
60042.3
67323.2
64689.5
67591.1
59123
62187.2
53182.6
47259.9
33788.5
27279
25251.7
31233
29033.5
24072.2
18100.3
11871.8
8197.66
4991.97
701.304
-2641.39
-7214.15
-6358.11
-1276.84
-1586.63
4525.33
4115.98
9502.89
15169.8
14808.3
16468.5
18524.2
16598.1
18739.2
12713.2
9950.81
8109.12
5839.17
4863.08
3825.95
3612.19
3159.18
2428.28
2124.81
1600.83
-705.689
2257.65
-3941.48
1588.44
11357.5
-2667.24
-1894.81
-1570.26
-1137.71
-805.877
-276.736
57.4601
-397.849
-452.263
-1465.89
-1865.91
-1637.51
-1650.92
-1568.05
-761.654
-95.3057
541.509
2116.49
5162.82
8883.09
12253.6
5774.93
-10236.1
-36659.2
6925.91
46679.6
35263.6
20670.4
8620.75
5614.5
4560.58
1776.93
2384.69
1472.26
600.321
-2177.02
-4440.7
-5072.2
-4664.29
-4420.61
-5537.62
-5132.1
-4449.23
-3719.53
7441.68
6785.41
8613.74
9571.72
9871.5
9904.24
10763.2
10744.6
10982.2
10080.5
8672.2
9510.01
9972.88
11433.7
13963.8
18532.9
19749.6
24333.7
27419.8
30871.4
32625.8
38149.8
36945.5
46375.1
52305.5
65368.6
58979.4
64919.6
62408.4
66457.9
61547.6
64691.5
61101.2
66999.3
60553.2
49029.5
40156.1
34439.5
27181.6
23395.1
22396.3
19937.4
16684.1
12191.2
8244.06
6806.91
5061.19
2439.98
2632.73
339.119
3033.15
6477.22
8827.87
13861
13719.2
14579.4
15346.4
15660
18430.1
14124.4
12577.1
10543.6
7690.97
6259.63
4982.07
4223.78
3145.22
2311.17
1767.47
1677.13
281.734
2421
-3865.42
1658.84
10732.8
-2504
-1672.02
-1273.06
-948.245
-900.234
-1003.64
-1131.99
-1889.78
-1062.32
-1810.27
-1880.99
-1450.24
-1368.49
-1378.76
-762.969
42.6853
1048.6
2908.63
5758.89
9820.22
16725.6
10996.5
-34278
-47451.1
-33026.9
-13819.5
-14024.8
-6944.52
-2454.03
-526.153
-295.612
-30.7772
-1040.74
-2399.75
-4798.74
-3745.47
-3303.58
-2355.5
-2019.83
-2749
-1482.92
-2233.95
-1557.47
-2515.06
8099.9
7072.06
6424.01
5074.56
5032.62
5449.68
4360.78
4086.34
4583.2
6022.66
7845.4
8910.67
10450.5
9817.22
10493.6
11740
13413.1
14588.5
17296.6
20694.5
25757
26265.7
28068.3
34886.9
37973.3
46752.4
43194.9
42988.7
35492.7
38888.1
40854.5
43243.9
40458.9
50525.2
57990
55538.3
45254.2
31351.8
23653.6
21031.2
18332.3
17156.5
18136.6
17372.1
14309.7
11495.9
9327.96
6817.71
5791.9
4680.56
4943.87
4879.61
7197.75
11462.2
12610.4
12565.2
13796
15460.8
17302.4
12874.9
14554.9
10409.7
7967.1
5901.41
4652.96
3973.38
3218.43
2738.92
1941.57
1682.66
1242.74
248.445
-3785.65
2707.1
10161.6
-2361.63
-1513.84
-1262.25
-834.074
-845.676
-893.41
-1275.39
-1418.41
-1014.45
-1833.8
-1656.55
-1606.24
-1377.22
-1061.41
-433.804
97.3697
1246.44
2853.28
5761.81
9041.04
9969.94
2140.66
-37685.9
-29041.1
-18447.9
-1684.08
-6172.41
-6352.15
-2667.93
-3967.5
-3989.4
-4053.85
-4714.59
-3553.65
-4028.55
-4451.39
-3990.83
-4868.63
-4383.11
-6772.09
-5926.01
-8065
-7919.99
-9513.11
331.159
1009.86
1070.71
1078.11
532.217
653.728
514.619
-600.37
-1478.25
-3250.5
-4163.73
-1671.27
203.444
4494.77
8333.41
11143
15454.4
19464.8
23519.4
26580.3
29909
31211.7
31263.6
33862.8
28925.1
28598.1
26151.5
31767.6
24300.3
28311.4
27450.4
26147.2