/*--------------------------------*- C++ -*----------------------------------*\
| =========                 |                                                 |
| \\      /  F ield         | OpenFOAM: The Open Source CFD Toolbox           |
|  \\    /   O peration     | Version:  2.2.x                                 |
|   \\  /    A nd           | Web:      www.OpenFOAM.org                      |
|    \\/     M anipulation  |                                                 |
\*---------------------------------------------------------------------------*/
FoamFile
{
    version     2.0;
    format      ascii;
    class       volScalarField;
    location    "2.8";
    object      rho;
}
// * * * * * * * * * * * * * * * * * * * * * * * * * * * * * * * * * * * * * //

dimensions      [1 -3 0 0 0 0 0];

internalField   nonuniform List<scalar> 
14161
(
1.00015
1.02279
1.03974
1.0599
1.05133
1.03006
1.02261
1.0269
1.02852
1.02957
1.02909
1.02759
1.02669
1.03106
1.04345
1.06037
1.07639
1.09423
1.11175
1.12733
1.15291
1.13285
1.64593
2.1824
2.16423
2.14668
2.11049
2.08691
2.08503
2.09523
2.08226
2.04585
2.01448
1.98639
1.97942
1.98249
1.99368
2.01086
2.0252
2.02306
2.0188
2.02192
2.03071
2.04638
2.07516
2.11226
2.16229
2.23651
2.33487
2.42952
2.54322
2.68878
2.85232
3.02664
3.13965
3.16092
3.12899
3.0489
2.95448
2.88757
2.85086
2.83704
2.82881
2.8238
2.82275
2.82727
2.82942
2.81353
2.78286
2.73867
2.68145
2.62669
2.58964
2.5524
2.50685
2.48678
2.49037
2.49319
2.5113
2.53954
2.57597
2.62398
2.67769
2.74233
2.80456
2.86176
2.89643
2.91112
2.90619
2.88841
2.88704
2.88942
2.91975
2.97105
3.02706
3.08878
3.14712
3.16364
3.15886
3.14295
3.11889
3.08657
3.07065
3.07425
3.09544
3.13449
3.1782
3.21064
3.23217
3.26059
3.31948
3.39307
3.40615
3.3799
3.34779
3.36304
3.35404
3.30477
3.33722
1.03122
1.0565
1.05246
1.02793
0.969152
0.945841
0.962205
0.986137
1.0161
1.02574
1.02205
1.02489
1.01952
1.01615
1.02156
1.02848
1.03443
1.04158
1.04825
1.05625
1.08407
1.08781
1.62787
2.18327
2.50137
2.59474
2.62451
2.62045
2.61463
2.60143
2.58873
2.59574
2.61378
2.63307
2.62795
2.62903
2.63078
2.6269
2.61784
2.58108
2.51616
2.50494
2.51569
2.53737
2.56435
2.59802
2.63918
2.68613
2.72632
2.7579
2.78884
2.82397
2.85557
2.87028
2.86124
2.83295
2.79549
2.76476
2.74248
2.73053
2.72103
2.71413
2.70704
2.69817
2.68886
2.67976
2.6715
2.65995
2.64932
2.63748
2.62835
2.62644
2.62605
2.63136
2.64493
2.65896
2.67316
2.6797
2.68718
2.69408
2.7099
2.73509
2.76428
2.80276
2.84439
2.88682
2.91546
2.94042
2.96975
3.00762
3.07467
3.13337
3.17048
3.18036
3.1692
3.1483
3.12425
3.10821
3.09903
3.09931
3.11234
3.14121
3.1649
3.18088
3.19826
3.2176
3.24053
3.26777
3.29763
3.33065
3.36003
3.37757
3.37663
3.37772
3.38198
3.38992
3.368
3.29022
3.33853
1.00418
0.983367
1.00087
1.07101
1.18617
1.19363
1.18073
1.13867
1.06229
1.03073
1.02703
1.03697
1.05787
1.07793
1.10202
1.12204
1.14044
1.15928
1.18312
1.2151
1.27698
1.30865
2.0019
2.76057
3.03401
3.14355
3.22432
3.21897
3.19516
3.17337
3.16421
3.16187
3.15034
3.13027
3.11379
3.09678
3.07821
3.0598
3.05089
3.03724
3.03905
3.03451
3.03132
3.02708
3.0271
3.01114
2.98947
2.96867
2.95109
2.93466
2.91581
2.88288
2.85813
2.83141
2.80531
2.78667
2.77232
2.75945
2.74934
2.74272
2.74006
2.74084
2.7437
2.74927
2.75763
2.76645
2.77392
2.77871
2.77908
2.77564
2.77432
2.77549
2.77944
2.78538
2.79315
2.79979
2.80471
2.8099
2.81335
2.82087
2.81685
2.83013
2.8436
2.86236
2.8804
2.90848
2.93863
2.98192
3.03373
3.06964
3.09964
3.11428
3.12258
3.12635
3.12473
3.12205
3.12022
3.1212
3.11946
3.11832
3.12168
3.12996
3.14133
3.15641
3.17918
3.20558
3.23553
3.26444
3.28816
3.30776
3.31995
3.3309
3.33787
3.35288
3.35416
3.35218
3.32466
3.22471
3.29606
1.02449
1.05933
1.04171
0.991243
0.898426
0.849124
0.86719
0.911567
0.980158
1.00875
1.03016
1.03402
1.01938
0.993965
0.993261
0.986061
0.987322
0.994957
1.00595
1.02558
1.07931
1.14298
2.18315
2.62884
2.85461
3.01743
3.01729
2.99338
2.98232
2.97906
2.96953
2.95475
2.93551
2.91329
2.89341
2.87249
2.85486
2.83934
2.82741
2.81595
2.80931
2.79959
2.78902
2.77828
2.77629
2.77158
2.76385
2.75867
2.75924
2.75993
2.75965
2.75653
2.7539
2.7498
2.75447
2.75858
2.76357
2.76921
2.77308
2.77388
2.77345
2.77251
2.77329
2.77533
2.77927
2.78416
2.78841
2.78975
2.7876
2.78169
2.77847
2.77966
2.78375
2.78987
2.79945
2.81052
2.82635
2.84174
2.86053
2.88056
2.90446
2.92466
2.93457
2.9474
2.95462
2.97354
2.99327
3.02378
3.05156
3.06842
3.09235
3.10582
3.12263
3.12451
3.12341
3.11882
3.11067
3.09825
3.08187
3.07458
3.0725
3.07932
3.09265
3.11307
3.14268
3.17105
3.20353
3.22944
3.25227
3.27194
3.28993
3.30689
3.31882
3.32524
3.31736
3.30524
3.26216
3.17861
3.25738
1.00331
0.933164
0.951834
1.05396
1.215
1.23473
1.23775
1.18591
1.07704
1.01629
1.00196
1.016
1.03155
1.07189
1.09017
1.10131
1.11062
1.12101
1.13929
1.17022
1.23676
1.28212
2.08995
2.64699
2.83442
2.93474
2.94185
2.92798
2.93132
2.94632
2.95146
2.94898
2.94425
2.93818
2.93661
2.92996
2.92227
2.91448
2.90868
2.90109
2.88991
2.87533
2.86016
2.84894
2.83606
2.82966
2.81641
2.80467
2.79921
2.79377
2.78951
2.78669
2.78319
2.78075
2.78083
2.7816
2.78193
2.77918
2.77348
2.76616
2.75925
2.75561
2.75315
2.74964
2.74583
2.73995
2.72926
2.7132
2.69954
2.68984
2.68642
2.68991
2.6988
2.70655
2.72154
2.73686
2.75595
2.77653
2.79715
2.81547
2.83556
2.85488
2.87136
2.88975
2.90664
2.93425
2.95804
2.988
3.0139
3.03309
3.06278
3.08686
3.11339
3.1281
3.12711
3.11332
3.08904
3.05729
3.03062
3.02445
3.02876
3.04139
3.05885
3.08237
3.11101
3.13798
3.16305
3.18448
3.20867
3.22927
3.24998
3.2666
3.27861
3.27899
3.26661
3.23538
3.20359
3.18124
3.23388
1.02249
1.08772
1.06666
1.0128
0.908701
0.831924
0.851242
0.900801
0.979971
1.02314
1.06627
1.07883
1.06884
1.06403
1.05759
1.06433
1.0733
1.0806
1.09235
1.11251
1.1629
1.17433
1.88855
2.61455
2.86182
2.95102
2.97808
2.97044
2.96072
2.95565
2.95102
2.94336
2.93749
2.93281
2.93496
2.93202
2.92724
2.92451
2.9236
2.92059
2.91275
2.90159
2.88897
2.87487
2.86822
2.86402
2.8472
2.83697
2.82885
2.82025
2.81321
2.80445
2.79832
2.79311
2.79227
2.79289
2.79231
2.78899
2.78551
2.7825
2.78073
2.78087
2.78194
2.779
2.77048
2.75666
2.74047
2.71962
2.70173
2.68225
2.66887
2.66066
2.65585
2.65537
2.66249
2.67246
2.68432
2.6978
2.70991
2.72565
2.74419
2.76248
2.78112
2.80337
2.82551
2.85693
2.89024
2.92736
2.9568
2.9849
3.01961
3.05541
3.09145
3.11439
3.11548
3.10165
3.07284
3.03532
3.01073
3.00565
3.00915
3.01526
3.02363
3.03683
3.06351
3.09755
3.12762
3.15039
3.17039
3.18624
3.20622
3.22289
3.23102
3.22796
3.21862
3.20435
3.19921
3.19324
3.21032
0.998899
0.880389
0.899757
1.01971
1.17651
1.20698
1.23126
1.17868
1.05596
0.979933
0.962049
0.975887
1.00537
1.0375
1.05868
1.06509
1.06641
1.05932
1.05429
1.05878
1.05202
1.02376
1.53658
2.20961
2.60979
2.80037
2.85408
2.85519
2.84146
2.83973
2.85856
2.88474
2.91581
2.92582
2.93222
2.93311
2.9235
2.91568
2.90151
2.88956
2.87556
2.8576
2.83607
2.81745
2.80191
2.78499
2.76166
2.73605
2.71924
2.70222
2.68591
2.66875
2.6547
2.64151
2.62924
2.61702
2.60632
2.59707
2.5888
2.58427
2.58364
2.58252
2.58169
2.57871
2.57488
2.57129
2.56737
2.5643
2.55448
2.53658
2.51844
2.50573
2.49771
2.49867
2.50225
2.52069
2.53595
2.55991
2.57838
2.60739
2.63448
2.66548
2.69265
2.72264
2.74858
2.7789
2.80926
2.84069
2.86996
2.9042
2.94964
3.00601
3.05371
3.09487
3.11087
3.10467
3.08265
3.05123
3.02494
3.01501
3.01669
3.01905
3.02041
3.02203
3.0272
3.03972
3.06829
3.10706
3.13814
3.16107
3.17914
3.18822
3.1959
3.20101
3.1991
3.2056
3.20971
3.20397
3.19484
1.01777
1.11103
1.09905
1.05639
0.952657
0.863774
0.872012
0.909003
0.982375
1.02879
1.08144
1.11709
1.11543
1.11461
1.11768
1.1128
1.11594
1.12069
1.12506
1.14412
1.15951
1.19248
1.59151
2.32246
2.64994
2.80815
2.76426
2.70878
2.70896
2.70499
2.70805
2.69644
2.69298
2.69073
2.69517
2.70043
2.69582
2.69068
2.67284
2.65251
2.63028
2.60746
2.58456
2.56406
2.54693
2.54086
2.52484
2.51297
2.50407
2.49654
2.49037
2.48373
2.47418
2.4631
2.45391
2.4419
2.43123
2.42208
2.4174
2.41661
2.41938
2.4266
2.43459
2.43967
2.43944
2.43992
2.44086
2.44159
2.43906
2.43213
2.42104
2.40739
2.3964
2.38959
2.38692
2.39422
2.40208
2.41917
2.43147
2.45516
2.48048
2.52157
2.55951
2.61189
2.64804
2.70035
2.74734
2.7766
2.8007
2.82397
2.86902
2.93638
2.99583
3.05727
3.09976
3.11528
3.10405
3.08462
3.06029
3.04875
3.04261
3.0373
3.03916
3.0377
3.03179
3.02784
3.03029
3.04918
3.08791
3.13108
3.15655
3.17409
3.17921
3.18851
3.19474
3.21888
3.23295
3.21304
3.18821
0.987985
0.841063
0.855017
0.963139
1.1017
1.13887
1.16219
1.11737
1.0114
0.947839
0.935817
0.950192
0.97694
1.00852
1.02536
1.0239
1.01538
0.995919
0.962532
0.924729
0.870011
0.789323
0.905255
1.81906
2.24427
2.48588
2.45978
2.41368
2.38957
2.39436
2.40833
2.41678
2.43179
2.45938
2.47836
2.50039
2.48546
2.47927
2.45756
2.42592
2.39467
2.37269
2.35319
2.34047
2.32625
2.32446
2.31464
2.31111
2.30945
2.31301
2.31184
2.31186
2.30503
2.29885
2.28732
2.28201
2.2709
2.26398
2.25986
2.25837
2.25204
2.25344
2.25107
2.25247
2.2477
2.24356
2.23704
2.23918
2.24251
2.24893
2.24964
2.2484
2.24954
2.25446
2.258
2.27279
2.28982
2.31566
2.33762
2.36527
2.38308
2.41189
2.43617
2.47917
2.52323
2.5882
2.65211
2.69761
2.73309
2.75114
2.7694
2.82734
2.89307
2.97534
3.05462
3.10331
3.11643
3.11313
3.1042
3.09626
3.0872
3.07896
3.07353
3.06312
3.04704
3.04005
3.02667
3.01947
3.02749
3.0657
3.11377
3.1511
3.16729
3.18421
3.19645
3.23983
3.26097
3.22524
3.19035
1.01151
1.12768
1.12464
1.09414
1.00111
0.922354
0.904598
0.911657
0.955829
0.999655
1.05306
1.10494
1.10978
1.11184
1.11442
1.0994
1.09257
1.09301
1.09622
1.10431
1.10041
1.13138
1.36154
2.19121
2.59234
2.65278
2.61398
2.53257
2.47152
2.43641
2.43143
2.41711
2.40127
2.395
2.37263
2.35402
2.31141
2.28831
2.268
2.25158
2.24006
2.23562
2.23072
2.22426
2.21993
2.22207
2.21327
2.214
2.21024
2.22438
2.22374
2.22839
2.22531
2.21922
2.19998
2.20051
2.18124
2.18145
2.1709
2.17351
2.1622
2.16275
2.1592
2.16147
2.15995
2.16102
2.15842
2.16193
2.16171
2.16452
2.16238
2.16742
2.16243
2.16298
2.16531
2.17662
2.19057
2.21676
2.23878
2.26583
2.291
2.30832
2.328
2.37103
2.39382
2.41855
2.48277
2.55783
2.62816
2.66049
2.68122
2.73278
2.77894
2.86112
2.96001
3.05189
3.09707
3.11736
3.12019
3.11945
3.11489
3.1102
3.10289
3.09525
3.07952
3.06175
3.0435
3.02044
3.00998
3.01897
3.05678
3.11323
3.15303
3.18166
3.20909
3.25637
3.27578
3.24486
3.20651
0.96583
0.805297
0.805962
0.876725
0.992182
1.03135
1.0467
1.01836
0.962201
0.919157
0.916079
0.927521
0.95714
0.993731
1.01039
1.00672
0.992375
0.974369
0.947316
0.898918
0.818501
0.693387
0.527955
1.02765
1.44561
1.60247
1.72765
1.77223
1.80363
1.85104
1.91279
1.98991
2.04797
2.10679
2.12841
2.15298
2.17552
2.19428
2.20206
2.20735
2.20788
2.20782
2.20736
2.19788
2.18676
2.19136
2.19318
2.18767
2.1843
2.1954
2.19942
2.20331
2.20418
2.20024
2.19117
2.17879
2.1541
2.14816
2.14524
2.13418
2.12911
2.12565
2.11896
2.11791
2.11464
2.11617
2.11278
2.11535
2.11416
2.11944
2.11561
2.1172
2.1085
2.11239
2.1193
2.13943
2.15363
2.18396
2.21345
2.23169
2.22004
2.22876
2.26407
2.26944
2.26602
2.28931
2.32227
2.35984
2.43846
2.5149
2.56652
2.64044
2.70212
2.77143
2.85612
2.95241
3.0364
3.08721
3.10702
3.11837
3.12065
3.12175
3.11709
3.11052
3.10089
3.0878
3.06699
3.04101
3.00831
3.00084
3.01029
3.05661
3.1163
3.16661
3.20575
3.25888
3.28147
3.26744
3.23191
1.00472
1.12715
1.13296
1.09935
1.01596
0.967355
0.922813
0.910443
0.929172
0.958034
0.998308
1.04601
1.05433
1.05805
1.06597
1.05509
1.04275
1.04357
1.04408
1.04073
1.03133
1.00607
1.08077
1.46382
2.12463
2.8084
2.79202
2.72087
2.68749
2.71761
2.73157
2.69711
2.63072
2.5398
2.44226
2.3833
2.34867
2.3149
2.27986
2.24715
2.22026
2.19329
2.16492
2.1497
2.14092
2.12277
2.11827
2.12042
2.12092
2.11769
2.11896
2.11785
2.12403
2.116
2.11459
2.11215
2.09949
2.09667
2.09444
2.0798
2.07223
2.06912
2.0626
2.06013
2.05808
2.06577
2.06621
2.07267
2.07228
2.08044
2.07954
2.08475
2.07785
2.07602
2.06386
2.07018
2.06647
2.08822
2.12008
2.14127
2.16185
2.2058
2.18923
2.17608
2.18487
2.21548
2.23788
2.23996
2.26935
2.35953
2.41547
2.51125
2.59581
2.67816
2.79624
2.90947
2.97093
3.02759
3.04856
3.07505
3.09809
3.1215
3.12766
3.12903
3.12229
3.11016
3.09345
3.06578
3.03354
2.99471
2.99265
3.00083
3.04017
3.12075
3.18696
3.25182
3.28228
3.2778
3.26709
0.952104
0.80702
0.779844
0.823311
0.902556
0.950901
0.965947
0.954399
0.92885
0.916606
0.9211
0.930353
0.946375
0.976938
1.00152
0.998365
0.99259
0.988306
0.973351
0.935424
0.863386
0.74547
0.605112
0.814775
1.08105
1.30339
1.42847
1.542
1.61615
1.73135
1.83665
1.86796
1.8921
1.91718
1.95028
1.98092
1.99079
2.00936
2.01936
2.02313
2.02304
2.01683
2.00572
2.00137
2.00257
2.00378
2.005
2.01561
2.02894
2.02833
2.03471
2.04544
2.05435
2.05167
2.05922
2.05561
2.05546
2.06102
2.05509
2.04871
2.04251
2.04567
2.04274
2.04708
2.05389
2.07201
2.08456
2.09969
2.10379
2.11346
2.11286
2.11859
2.11534
2.11996
2.10682
2.10321
2.09174
2.09463
2.09299
2.10066
2.11455
2.13485
2.13484
2.13702
2.14715
2.1878
2.23511
2.24596
2.25031
2.30677
2.32535
2.42792
2.53443
2.61972
2.73119
2.86962
2.93154
2.98686
3.02115
3.05828
3.09086
3.12192
3.12983
3.13101
3.13106
3.12993
3.1254
3.10996
3.0795
3.03884
3.00626
3.00357
3.01811
3.07235
3.15502
3.23872
3.27697
3.27674
3.3076
1.00134
1.08522
1.1122
1.0896
1.0298
0.973481
0.939786
0.924938
0.931826
0.942378
0.960138
0.98627
0.9986
1.00727
1.01314
1.01279
1.01462
1.02302
1.02489
1.0094
0.977054
0.93769
0.998286
1.48124
2.0599
2.46722
2.41589
2.35275
2.38421
2.47156
2.4976
2.46823
2.39579
2.35828
2.30805
2.24867
2.22109
2.19787
2.17722
2.15903
2.13978
2.11634
2.09837
2.08831
2.08265
2.08246
2.08779
2.0875
2.09588
2.10027
2.10686
2.11081
2.124
2.12525
2.1299
2.12651
2.11804
2.10736
2.09571
2.09483
2.08878
2.0915
2.09041
2.09022
2.09234
2.0932
2.09574
2.10085
2.10863
2.11393
2.12589
2.12327
2.13428
2.13664
2.13621
2.13919
2.13797
2.13994
2.14521
2.14901
2.15589
2.1454
2.13448
2.13642
2.14137
2.16272
2.21072
2.2544
2.26808
2.30373
2.2969
2.37501
2.47886
2.58446
2.72252
2.87713
2.96222
3.00546
3.03231
3.06468
3.08782
3.09638
3.10489
3.11268
3.11644
3.1176
3.118
3.11052
3.09103
3.06051
3.01656
2.99847
2.99291
3.01483
3.08801
3.19952
3.26121
3.27156
3.31393
0.929801
0.854835
0.832521
0.850283
0.887489
0.929481
0.950882
0.947486
0.937396
0.92895
0.929965
0.937495
0.947244
0.967265
0.988383
0.992887
1.00134
1.01325
1.00608
0.970161
0.910589
0.856904
0.885738
1.54466
1.82822
1.79298
1.8356
1.86848
1.89997
1.95671
2.05306
2.12935
2.18686
2.19809
2.19056
2.18243
2.17259
2.16085
2.15191
2.14397
2.13661
2.13187
2.12759
2.12584
2.12543
2.1315
2.14312
2.15277
2.16453
2.17542
2.18851
2.19749
2.20887
2.21971
2.22413
2.22958
2.23306
2.2328
2.2337
2.23415
2.23538
2.2367
2.2415
2.24425
2.25027
2.2508
2.2514
2.24725
2.24065
2.23649
2.24081
2.24483
2.25103
2.25755
2.25414
2.25304
2.24502
2.2403
2.23468
2.23338
2.22786
2.2141
2.19549
2.2067
2.23405
2.20324
2.22538
2.28558
2.3268
2.35978
2.35688
2.38029
2.44172
2.546
2.70431
2.89332
3.02144
3.0413
3.05856
3.08051
3.09924
3.10266
3.11273
3.1149
3.11778
3.12145
3.1233
3.11868
3.10583
3.08256
3.04492
3.00789
2.99301
3.00081
3.04937
3.15725
3.24469
3.2642
3.32091
0.992744
1.04139
1.04598
1.03271
1.00515
0.972752
0.961499
0.944581
0.937694
0.939277
0.945359
0.954816
0.963547
0.991819
1.00711
1.00853
1.01579
1.0322
1.03068
1.00363
0.977611
0.978479
1.12163
1.95367
2.54316
2.44424
2.35289
2.37926
2.37625
2.38768
2.42534
2.46742
2.50361
2.52426
2.52257
2.51217
2.50026
2.48479
2.46875
2.45431
2.445
2.44162
2.44278
2.44457
2.44655
2.445
2.45635
2.46964
2.47998
2.49199
2.49926
2.50948
2.51915
2.52725
2.53065
2.53328
2.53386
2.53414
2.5377
2.54065
2.54991
2.5595
2.57448
2.59079
2.60748
2.62072
2.63008
2.63609
2.63454
2.6294
2.61352
2.59827
2.57543
2.552
2.52563
2.49571
2.46718
2.44624
2.42701
2.41219
2.38757
2.35782
2.3317
2.33144
2.31205
2.29589
2.32204
2.34955
2.37287
2.40615
2.40789
2.40155
2.45675
2.54096
2.67729
2.86893
3.03346
3.07672
3.09884
3.10252
3.114
3.11155
3.12108
3.12135
3.124
3.12997
3.1315
3.12719
3.11511
3.09653
3.06702
3.02382
2.98857
2.98398
3.01013
3.10409
3.21318
3.24647
3.32085
0.937019
0.888101
0.887871
0.902171
0.926345
0.944361
0.955812
0.956121
0.949559
0.943084
0.943813
0.948567
0.962298
0.999125
1.01169
1.01299
1.02131
1.03224
1.02562
1.00133
0.981276
0.982991
1.17741
2.05029
2.56691
2.79252
2.77596
2.71994
2.70102
2.67452
2.66852
2.66945
2.67162
2.67184
2.67136
2.6651
2.65517
2.65145
2.65025
2.65379
2.66033
2.66802
2.67775
2.68468
2.69487
2.69889
2.7113
2.72552
2.74201
2.75406
2.76485
2.77303
2.78215
2.78958
2.79705
2.80384
2.80977
2.81577
2.82273
2.83095
2.84011
2.85047
2.85876
2.8669
2.87295
2.87905
2.88063
2.8832
2.88021
2.87803
2.87154
2.86212
2.8463
2.82285
2.79565
2.76146
2.72737
2.69016
2.66236
2.62757
2.60213
2.56123
2.51473
2.46176
2.41799
2.39838
2.39067
2.39272
2.4205
2.45182
2.44235
2.40961
2.4287
2.50494
2.64703
2.84412
3.03346
3.08069
3.09858
3.09785
3.10962
3.11236
3.12031
3.12413
3.1288
3.13318
3.13356
3.12942
3.11909
3.10442
3.08052
3.04255
2.99289
2.97938
2.98906
3.04675
3.16704
3.22405
3.31378
0.97636
0.999912
0.997249
0.988349
0.974283
0.961491
0.956902
0.951264
0.944673
0.945224
0.948896
0.957244
0.970946
1.00186
1.01164
1.01011
1.01599
1.0281
1.03345
1.02023
1.01106
1.00364
1.31211
2.14985
2.65455
2.83468
2.81915
2.77764
2.76772
2.7821
2.80283
2.80466
2.79891
2.79052
2.78407
2.78612
2.78718
2.80033
2.81117
2.82307
2.83474
2.84403
2.85132
2.85463
2.86205
2.86086
2.87378
2.889
2.90237
2.91434
2.92337
2.93386
2.94424
2.95334
2.96139
2.96944
2.97644
2.98353
2.99015
2.99613
3.00003
3.00356
3.00369
3.0041
3.00101
2.99775
2.99077
2.985
2.9757
2.96729
2.958
2.94606
2.92859
2.90506
2.87782
2.84841
2.81969
2.78586
2.7608
2.73097
2.70613
2.66943
2.62143
2.569
2.52871
2.49137
2.45229
2.45093
2.46116
2.4671
2.44975
2.41705
2.42028
2.47743
2.61079
2.81169
3.0199
3.08751
3.10254
3.09897
3.10868
3.11451
3.12141
3.12859
3.13332
3.13501
3.13559
3.13192
3.1233
3.11047
3.09179
3.06083
3.00937
2.97441
2.97703
3.00982
3.12375
3.20433
3.30746
0.940478
0.927943
0.932902
0.942
0.952281
0.95759
0.959595
0.958673
0.95274
0.95001
0.952043
0.958655
0.972577
1.01723
1.03732
1.03217
1.0314
1.03512
1.03911
1.03338
1.03224
1.01775
1.4222
2.33687
2.76703
2.94449
2.94494
2.93983
2.941
2.94709
2.95155
2.94317
2.93157
2.92249
2.91659
2.91338
2.91488
2.92468
2.93431
2.94533
2.95506
2.96146
2.96672
2.97211
2.98076
2.98131
2.9905
3.00273
3.01444
3.02629
3.0366
3.04557
3.05185
3.05671
3.06103
3.06596
3.06719
3.06844
3.0676
3.06632
3.06228
3.05819
3.05178
3.04723
3.04105
3.0345
3.02366
3.01314
3.00189
2.99088
2.98172
2.97325
2.96254
2.94984
2.93424
2.91431
2.89211
2.86365
2.82971
2.79157
2.7614
2.72372
2.67688
2.62185
2.57796
2.53212
2.49908
2.4929
2.48375
2.46571
2.4384
2.40914
2.40327
2.45006
2.58354
2.77169
2.99387
3.08306
3.09554
3.08996
3.10478
3.11241
3.11972
3.12859
3.13094
3.13567
3.13826
3.13663
3.12811
3.1157
3.09835
3.07302
3.0306
2.97683
2.97644
2.97823
3.07045
3.18235
3.29594
0.960707
0.967418
0.964664
0.960479
0.956466
0.95303
0.953914
0.953387
0.949137
0.950236
0.961073
0.97091
0.983648
1.02377
1.04287
1.03601
1.03432
1.03787
1.03961
1.03662
1.03671
1.01612
1.50712
2.46336
2.78098
2.96026
2.97622
2.97867
2.99201
2.99973
3.00057
2.99438
2.98366
2.97303
2.97026
2.97231
2.97786
2.98714
2.99696
3.00728
3.01864
3.02846
3.03339
3.03895
3.03751
3.03777
3.04629
3.06031
3.07507
3.09046
3.10004
3.10638
3.10873
3.11006
3.11113
3.11166
3.1101
3.10758
3.10387
3.09878
3.09129
3.08311
3.07407
3.06905
3.0609
3.05285
3.04348
3.03226
3.02127
3.01086
2.9982
2.98625
2.97405
2.96347
2.95132
2.93518
2.91528
2.89525
2.86875
2.83421
2.8047
2.76663
2.72568
2.67362
2.62931
2.58661
2.54499
2.50637
2.46655
2.43457
2.40818
2.39006
2.38874
2.42833
2.5521
2.73853
2.95745
3.07372
3.08465
3.07536
3.09756
3.10566
3.11533
3.12393
3.12828
3.13614
3.14224
3.14226
3.13486
3.12364
3.10623
3.0814
3.04843
2.98514
2.97438
2.96348
3.03091
3.155
3.27689
0.946696
0.947951
0.950026
0.953499
0.955062
0.955435
0.956615
0.95736
0.954312
0.954426
0.966427
0.977874
0.983719
1.01738
1.04115
1.03559
1.03265
1.03529
1.03988
1.04011
1.0449
1.03361
1.70277
2.67934
2.89132
3.01451
3.05096
3.04432
3.02779
3.01697
3.00677
2.99703
2.98689
2.98048
2.97977
2.98435
2.99128
3.00115
3.01297
3.02704
3.04361
3.05978
3.07012
3.0739
3.07278
3.0733
3.07885
3.08874
3.10084
3.11407
3.12356
3.12942
3.12933
3.12866
3.12773
3.12563
3.12146
3.11687
3.11133
3.10366
3.09385
3.08392
3.07593
3.07123
3.0673
3.06153
3.05266
3.04221
3.03058
3.0176
3.00439
2.9924
2.98035
2.97084
2.9618
2.9542
2.9429
2.92632
2.90124
2.87067
2.83751
2.80977
2.7751
2.72778
2.66912
2.62377
2.57501
2.51922
2.4596
2.41861
2.39836
2.38522
2.3861
2.41883
2.52255
2.69661
2.90034
3.04213
3.0612
3.04712
3.07552
3.08954
3.10129
3.11269
3.12
3.1298
3.14026
3.14362
3.13957
3.12895
3.11164
3.08688
3.05818
2.99825
2.97732
2.95001
3.0039
3.1209
3.2657
0.950643
0.953523
0.954016
0.953742
0.952922
0.951647
0.951966
0.954157
0.954079
0.955485
0.964761
0.984565
0.999145
1.02986
1.05785
1.05368
1.04609
1.04375
1.03977
1.03795
1.04465
1.03689
1.87846
2.60453
2.77969
2.86172
2.88897
2.89881
2.90562
2.91261
2.93131
2.95402
2.96993
2.98064
2.99265
3.00786
3.0207
3.03249
3.04393
3.05466
3.06459
3.07599
3.0853
3.08835
3.08771
3.08509
3.08816
3.09197
3.09641
3.10088
3.11094
3.12213
3.1273
3.1273
3.12907
3.1279
3.1255
3.12389
3.12044
3.11477
3.10563
3.09429
3.0847
3.07905
3.07593
3.07256
3.06646
3.05741
3.04524
3.03073
3.01378
2.99687
2.98005
2.96807
2.95819
2.9506
2.94334
2.93364
2.92043
2.8985
2.87132
2.84401
2.81789
2.77957
2.72232
2.66912
2.61461
2.54915
2.48063
2.42115
2.40815
2.37802
2.38384
2.41985
2.51243
2.65568
2.83191
2.98713
3.03932
3.0223
3.0519
3.07429
3.08751
3.1025
3.11132
3.12269
3.13865
3.14409
3.14307
3.13388
3.11753
3.09266
3.06473
3.01133
2.97984
2.93912
2.98862
3.09319
3.24977
0.948702
0.951201
0.952424
0.953342
0.952925
0.952423
0.952764
0.955092
0.957199
0.957977
0.978063
0.998999
1.01041
1.03615
1.05958
1.05751
1.04779
1.04197
1.03457
1.02787
1.02808
1.01567
1.3947
2.57705
2.7048
2.8486
2.97785
2.99296
2.98435
2.97109
2.98391
2.99944
3.01954
3.02498
3.02983
3.03687
3.04263
3.04574
3.05015
3.05135
3.04722
3.04217
3.04159
3.04621
3.05668
3.07939
3.0963
3.10184
3.10211
3.10021
3.10054
3.10441
3.11363
3.12743
3.14247
3.14308
3.14365
3.14248
3.14312
3.13958
3.13315
3.12323
3.11045
3.09433
3.08206
3.07572
3.0693
3.06283
3.05512
3.04491
3.02954
3.00877
2.9861
2.96698
2.95
2.93756
2.92928
2.92225
2.91452
2.9024
2.88996
2.87363
2.85403
2.82378
2.78449
2.73154
2.67405
2.62551
2.54947
2.47489
2.43574
2.40716
2.39694
2.41622
2.47312
2.58574
2.73398
2.90133
2.99595
2.98974
3.0154
3.04563
3.06295
3.08331
3.09588
3.10992
3.1304
3.13835
3.1405
3.13319
3.1166
3.09396
3.06459
3.01894
2.97511
2.92666
2.96831
3.0677
3.23358
0.950133
0.952023
0.951833
0.951326
0.951962
0.952297
0.951995
0.953496
0.956826
0.959035
0.981654
1.0056
1.01248
1.03351
1.05659
1.05737
1.04955
1.03885
1.02901
1.02011
1.01113
0.998179
1.08457
1.81166
2.22292
2.40543
2.52953
2.676
2.79112
2.84121
2.84926
2.86785
2.88938
2.91686
2.93186
2.93636
2.94055
2.95004
2.98085
3.01855
3.0311
3.02594
3.00707
2.97768
2.94488
2.94815
2.96071
2.98646
3.01071
3.02375
3.02985
3.03249
3.03527
3.04165
3.05154
3.06457
3.07257
3.07283
3.06973
3.06707
3.06169
3.05456
3.04544
3.03666
3.02198
3.0148
3.00912
3.00742
3.00728
3.00749
3.00656
2.99967
2.98519
2.9638
2.94225
2.91946
2.90609
2.89613
2.89294
2.88927
2.8842
2.87876
2.8722
2.85898
2.83696
2.7978
2.74453
2.70926
2.6488
2.57674
2.52634
2.48408
2.44204
2.45848
2.49921
2.57446
2.67815
2.81019
2.93009
2.95992
2.97747
3.0085
3.03356
3.06028
3.07935
3.09771
3.11845
3.12933
3.13726
3.13001
3.11596
3.09443
3.06511
3.0256
2.97375
2.91173
2.94495
3.04005
3.21221
0.950836
0.95263
0.952296
0.951791
0.951584
0.951719
0.952991
0.956832
0.964883
0.972318
0.997092
1.02727
1.03519
1.0518
1.06499
1.06379
1.05521
1.03967
1.02507
1.0142
1.00424
0.999799
1.06069
1.57003
2.71169
2.78451
2.74306
2.55008
2.48835
2.46187
2.42909
2.41418
2.41682
2.41331
2.42018
2.43899
2.46822
2.4843
2.48122
2.46333
2.44234
2.41933
2.41063
2.41053
2.40929
2.41772
2.4334
2.46098
2.49513
2.53033
2.56272
2.58989
2.61746
2.64359
2.67299
2.7058
2.7454
2.78745
2.81147
2.82477
2.82552
2.81967
2.81435
2.8178
2.83143
2.86194
2.90094
2.92016
2.91652
2.9144
2.91636
2.92053
2.9214
2.91821
2.90803
2.88861
2.87134
2.85675
2.85454
2.85384
2.85619
2.85882
2.86402
2.86407
2.85316
2.83873
2.81313
2.78
2.72775
2.66983
2.62183
2.56809
2.51615
2.52802
2.55061
2.59073
2.66357
2.761
2.866
2.92172
2.95707
2.97878
3.0027
3.02751
3.05313
3.07691
3.1009
3.11629
3.12793
3.12291
3.11079
3.09014
3.06165
3.0249
2.97399
2.89489
2.92176
3.01425
3.19993
0.951775
0.953274
0.952343
0.951604
0.95106
0.951065
0.952274
0.958151
0.96886
0.978679
1.00755
1.03396
1.04209
1.05684
1.06644
1.0632
1.05294
1.03715
1.02238
1.0068
0.988122
0.958269
0.94204
0.921316
1.4781
1.28879
1.40319
1.69748
1.86133
1.95748
1.99594
1.97357
1.92974
1.88902
1.87434
1.87495
1.89908
1.93763
1.95124
1.95161
1.94895
1.95001
1.95314
1.96869
1.99257
2.02386
2.06126
2.08726
2.10884
2.12588
2.13934
2.15071
2.16166
2.17351
2.18894
2.21734
2.26751
2.33729
2.41277
2.48154
2.53446
2.57713
2.629
2.67649
2.70535
2.72324
2.73248
2.73932
2.73823
2.72968
2.71061
2.71461
2.72541
2.75277
2.77974
2.80581
2.80597
2.80558
2.80055
2.79643
2.79333
2.80212
2.81839
2.8354
2.83758
2.8289
2.81245
2.79368
2.76698
2.7332
2.70031
2.67834
2.63354
2.59632
2.61267
2.62306
2.66548
2.73353
2.80635
2.87143
2.92081
2.94357
2.96292
2.98499
3.01559
3.0453
3.07146
3.09503
3.11327
3.11323
3.10364
3.08451
3.05631
3.02003
2.97004
2.87499
2.89691
2.98703
3.18528
0.952869
0.954152
0.953447
0.952405
0.951704
0.95171
0.950626
0.955043
0.96566
0.975692
1.00742
1.03205
1.04445
1.05958
1.06666
1.0629
1.05149
1.0298
1.01132
0.992152
0.961466
0.902595
0.78767
0.816481
1.06471
1.47368
1.95418
2.10985
2.11424
2.11793
2.12598
2.11692
2.07273
2.03687
2.04264
2.04764
2.02857
1.97025
1.91743
1.90076
1.89944
1.90953
1.92694
1.94573
1.97195
1.99259
2.01273
2.04221
2.05966
2.07395
2.08332
2.09078
2.0984
2.10437
2.11924
2.15288
2.20177
2.27372
2.35768
2.44648
2.52559
2.56341
2.56826
2.55716
2.55968
2.57831
2.60463
2.62735
2.63319
2.62083
2.5927
2.56297
2.53572
2.51124
2.52663
2.57617
2.62891
2.68491
2.70932
2.71561
2.71867
2.71884
2.72259
2.73499
2.75031
2.75808
2.76047
2.76365
2.7632
2.75109
2.72632
2.70585
2.69168
2.66187
2.66691
2.66661
2.68553
2.73102
2.7742
2.82662
2.87856
2.90991
2.93615
2.95662
2.99321
3.02833
3.0562
3.08116
3.10108
3.10132
3.09371
3.07536
3.04731
3.00935
2.96067
2.85354
2.8705
2.95978
3.1727
0.95402
0.955013
0.954599
0.953533
0.95194
0.950761
0.953788
0.963812
0.978753
0.996493
1.03433
1.05012
1.06286
1.07416
1.07302
1.06641
1.05137
1.02594
1.00307
0.983014
0.955856
0.906146
0.838576
0.872317
1.56398
1.9993
1.86155
1.83628
1.86854
1.8928
1.88829
1.86323
1.82092
1.77332
1.74673
1.74253
1.74344
1.7517
1.75653
1.75547
1.75025
1.74616
1.7486
1.75566
1.76221
1.76993
1.78205
1.78974
1.79696
1.81449
1.82664
1.84081
1.86456
1.90139
1.93676
1.96621
1.99647
2.02493
2.06651
2.11286
2.15247
2.18886
2.21383
2.23454
2.2497
2.26697
2.2853
2.32161
2.36731
2.38348
2.37935
2.38585
2.37476
2.36573
2.35041
2.33256
2.35159
2.41004
2.47624
2.5521
2.62514
2.66708
2.67804
2.67789
2.68849
2.69864
2.70354
2.70818
2.71652
2.7248
2.72423
2.71148
2.69941
2.6884
2.70173
2.69841
2.70718
2.73036
2.75822
2.79556
2.83755
2.8742
2.90568
2.92007
2.95525
3.00037
3.02938
3.05797
3.08084
3.08168
3.0759
3.05718
3.03097
2.9918
2.94513
2.82983
2.83999
2.93013
3.15889
0.95508
0.9564
0.956122
0.955132
0.953604
0.953661
0.957449
0.969705
0.985547
1.00687
1.04428
1.05525
1.06571
1.07573
1.07293
1.06409
1.0471
1.02094
0.997731
0.975042
0.951208
0.909338
0.89873
1.07453
2.34788
2.75663
2.66363
2.52594
2.43246
2.34571
2.28292
2.23956
2.19646
2.14006
2.09182
2.06049
2.02225
1.98165
1.95204
1.93031
1.90775
1.88753
1.87577
1.8723
1.8734
1.87977
1.88427
1.88557
1.88686
1.88833
1.89052
1.8927
1.89455
1.90213
1.91967
1.94327
1.96793
1.98939
2.00998
2.02493
2.0353
2.03442
2.02852
2.0211
2.01366
2.00673
2.00957
2.02601
2.07007
2.11184
2.14433
2.19324
2.22833
2.26424
2.27396
2.26189
2.25988
2.27547
2.32409
2.3948
2.47783
2.54605
2.58808
2.62357
2.65421
2.65553
2.66484
2.66955
2.67551
2.68196
2.68702
2.68956
2.69055
2.67827
2.69336
2.70193
2.71731
2.73791
2.75866
2.78349
2.81257
2.83991
2.86817
2.87901
2.91175
2.96074
2.99305
3.02803
3.0578
3.065
3.06242
3.04619
3.0194
2.97707
2.93152
2.80853
2.8065
2.90177
3.14508
0.956079
0.957578
0.957533
0.956462
0.954922
0.955356
0.959161
0.969399
0.981032
1.00963
1.04256
1.05285
1.06643
1.07559
1.07327
1.06411
1.04566
1.01823
0.996955
0.975426
0.955177
0.927677
0.922548
1.16397
2.45776
2.75799
2.71849
2.66951
2.6287
2.59173
2.54579
2.49211
2.44154
2.40325
2.36385
2.32068
2.28073
2.24039
2.20831
2.17964
2.16265
2.14482
2.13131
2.11541
2.09829
2.08383
2.0707
2.07099
2.06925
2.05819
2.05088
2.04957
2.05284
2.06026
2.06873
2.07505
2.07643
2.07564
2.0715
2.07075
2.0643
2.04984
2.02772
1.99861
1.9753
1.95994
1.96175
1.96608
1.98302
2.02051
2.04816
2.09486
2.15144
2.20487
2.22442
2.21615
2.21874
2.2327
2.26906
2.31482
2.37445
2.45382
2.52468
2.58025
2.63383
2.66832
2.68163
2.6715
2.66097
2.65397
2.65005
2.65561
2.66455
2.6576
2.66545
2.68981
2.71775
2.73917
2.75352
2.77001
2.79506
2.81389
2.83518
2.84433
2.87763
2.9236
2.96337
3.00141
3.03619
3.04741
3.04636
3.03306
3.00474
2.96061
2.91416
2.78355
2.77235
2.8683
3.1261
0.956982
0.958593
0.958361
0.957825
0.957723
0.959808
0.967016
0.981705
0.999564
1.03806
1.05827
1.06756
1.07981
1.08047
1.07601
1.0658
1.04545
1.01981
1.00176
0.983878
0.968137
0.941858
0.925091
1.31242
2.50694
2.69835
2.65368
2.62116
2.60508
2.60965
2.58568
2.52656
2.45291
2.40049
2.3587
2.32475
2.29697
2.27225
2.26379
2.25027
2.23756
2.22441
2.20965
2.20148
2.19283
2.18807
2.18118
2.18201
2.17834
2.17528
2.17598
2.18161
2.1991
2.21331
2.22224
2.22429
2.21713
2.21389
2.20299
2.17875
2.15367
2.12161
2.0807
2.04517
2.02419
2.00354
1.99687
2.02066
2.04772
2.06396
2.0801
2.10196
2.14474
2.20123
2.2273
2.23102
2.24152
2.25917
2.30503
2.33519
2.36026
2.39384