/*--------------------------------*- C++ -*----------------------------------*\
| =========                 |                                                 |
| \\      /  F ield         | OpenFOAM: The Open Source CFD Toolbox           |
|  \\    /   O peration     | Version:  2.2.x                                 |
|   \\  /    A nd           | Web:      www.OpenFOAM.org                      |
|    \\/     M anipulation  |                                                 |
\*---------------------------------------------------------------------------*/
FoamFile
{
    version     2.0;
    format      ascii;
    class       volScalarField;
    location    "2.2";
    object      By;
}
// * * * * * * * * * * * * * * * * * * * * * * * * * * * * * * * * * * * * * //

dimensions      [1 0 -2 0 0 -1 0];

internalField   nonuniform List<scalar> 
14161
(
5.66354e-07
1.89286e-06
1.68759e-06
1.58137e-06
1.61201e-06
1.42477e-06
1.0988e-06
1.27757e-06
9.59793e-07
9.57437e-07
9.78195e-07
1.17545e-06
1.95955e-06
2.76872e-06
2.73673e-06
2.69754e-06
2.98009e-06
2.76743e-06
1.86823e-06
-2.75211e-07
1.56391e-07
3.95072e-06
6.68443e-06
2.23676e-06
-9.67527e-07
-6.9234e-06
-4.43182e-06
6.51964e-06
1.04993e-05
2.72011e-05
1.00584e-05
-1.03347e-05
-3.47649e-05
-3.52953e-05
-0.000216704
-7.80062e-05
-0.00129389
-0.00307848
-0.0048423
-0.0100011
-0.011846
-0.0128655
-0.0126812
-0.0104931
-0.00861849
-0.00743829
-0.00671917
-0.00609541
-0.00546494
-0.00499623
-0.00470562
-0.00445946
-0.00397844
-0.00349119
-0.00331891
-0.00333784
-0.00322764
-0.00279331
-0.00237584
-0.00235045
-0.00261022
-0.00262429
-0.00238685
-0.00218112
-0.00229844
-0.00250733
-0.00269312
-0.00278782
-0.00278954
-0.00280613
-0.0028896
-0.00292305
-0.00286939
-0.00285257
-0.00283019
-0.00273775
-0.00264095
-0.00259831
-0.00259226
-0.00253362
-0.0022964
-0.00202371
-0.00196536
-0.00212979
-0.00241843
-0.00249906
-0.00220052
-0.00180181
-0.00167165
-0.00170949
-0.00184137
-0.00224218
-0.00271445
-0.00289973
-0.00218447
-0.00145518
-0.00110717
-0.00111773
-0.000964053
-7.18705e-05
0.00149987
0.0038726
0.00707891
0.0120758
0.020173
0.0319086
0.0463849
0.0595379
0.0710648
0.0788479
0.0722468
0.0626478
0.055214
0.0524796
0.0530006
0.0538836
0.0605702
0.0645864
0.0636416
2.69568e-06
4.84828e-06
4.60842e-06
4.6212e-06
4.81016e-06
4.55344e-06
4.10035e-06
3.46082e-06
3.1904e-06
3.07598e-06
3.3437e-06
3.48418e-06
4.5494e-06
5.72748e-06
5.42006e-06
5.06656e-06
5.49092e-06
5.55907e-06
3.01803e-06
4.30646e-07
5.41613e-06
1.81187e-05
2.40389e-05
1.15108e-05
-5.17348e-06
-1.79395e-05
-1.12111e-05
2.48101e-05
3.75162e-05
7.72528e-05
2.99759e-05
-3.51342e-05
-7.29957e-05
-0.000197667
-0.000114008
-0.000579904
-0.00296717
-0.00839219
-0.012321
-0.0250657
-0.028514
-0.0282198
-0.0262294
-0.0220197
-0.0185107
-0.0162526
-0.0148292
-0.0135296
-0.0120279
-0.0111819
-0.0105596
-0.00986382
-0.00877929
-0.0076586
-0.00733446
-0.00751747
-0.00732806
-0.00615216
-0.0048979
-0.00487471
-0.00583657
-0.00622664
-0.0054907
-0.00448035
-0.00449382
-0.00500706
-0.00526798
-0.00527709
-0.00533335
-0.00564672
-0.00610551
-0.00627384
-0.00628089
-0.00650977
-0.006813
-0.00687148
-0.00669268
-0.00656684
-0.00686354
-0.00696389
-0.0063969
-0.00558571
-0.00531456
-0.00570844
-0.00628567
-0.0064795
-0.00618803
-0.00550464
-0.00526831
-0.00542245
-0.00577123
-0.0062425
-0.006457
-0.00633233
-0.00577865
-0.0048342
-0.00407682
-0.00291681
-0.000835711
0.00123867
0.00412397
0.00721212
0.0131828
0.0237335
0.0413932
0.0688252
0.109076
0.161983
0.202275
0.210831
0.192301
0.170117
0.15139
0.142051
0.140552
0.146305
0.155213
0.151991
0.148837
4.81635e-06
7.45594e-06
7.29092e-06
7.60728e-06
7.745e-06
7.16709e-06
6.38078e-06
5.94628e-06
5.82056e-06
5.87255e-06
6.40428e-06
6.80919e-06
7.94182e-06
8.18494e-06
8.57882e-06
9.30129e-06
1.05405e-05
9.97196e-06
3.37512e-06
3.71699e-07
1.40344e-05
3.15389e-05
3.7569e-05
2.27688e-05
-1.12442e-05
-3.36845e-05
-2.17265e-05
4.42643e-05
7.25422e-05
0.0001423
4.96012e-05
-5.24265e-05
-0.000145951
-0.000336171
-0.000172332
-0.00171582
-0.00600482
-0.0180181
-0.0266699
-0.0470466
-0.0520285
-0.0504254
-0.0453092
-0.0373883
-0.0314325
-0.0274057
-0.0249869
-0.022645
-0.0203855
-0.0188543
-0.0177609
-0.0164838
-0.0147477
-0.0132748
-0.0127255
-0.0127627
-0.0122751
-0.0106317
-0.00918272
-0.00907581
-0.0101256
-0.010525
-0.00948735
-0.00845809
-0.00864244
-0.00926515
-0.00957098
-0.00951683
-0.00965524
-0.010147
-0.0106738
-0.0108573
-0.0107225
-0.0108831
-0.0113812
-0.011596
-0.0113028
-0.010982
-0.0112801
-0.0115057
-0.0108762
-0.00971189
-0.00908828
-0.00947352
-0.0102441
-0.0106533
-0.0103141
-0.00946945
-0.00917141
-0.00962583
-0.00985818
-0.00971539
-0.00962566
-0.00961876
-0.00902438
-0.00779083
-0.00562971
-0.00265321
0.00113252
0.0060905
0.0120905
0.0215545
0.0360676
0.0601721
0.0970836
0.146491
0.212516
0.271722
0.297728
0.294005
0.268916
0.243288
0.22378
0.217046
0.218751
0.230341
0.241107
0.233438
0.233156
8.46677e-06
1.07173e-05
1.0548e-05
1.07759e-05
1.05995e-05
9.91592e-06
8.96562e-06
8.19322e-06
7.63895e-06
7.64779e-06
8.38591e-06
8.94925e-06
1.03951e-05
1.17708e-05
1.08911e-05
1.48719e-05
1.43871e-05
1.54136e-05
5.24913e-06
1.779e-06
1.03271e-05
4.01725e-05
5.06493e-05
3.51526e-05
-4.51101e-06
-4.16549e-05
-3.41123e-05
4.25601e-05
0.00010677
0.000206201
6.42124e-05
-7.09477e-05
-0.000219308
-0.000427035
-0.00041525
-0.00269508
-0.0092689
-0.0278514
-0.0429691
-0.0689128
-0.0760929
-0.0734718
-0.0652451
-0.0539655
-0.0459315
-0.0402727
-0.0366139
-0.0331353
-0.0301754
-0.0280115
-0.0260609
-0.0238924
-0.0214593
-0.0198465
-0.0189916
-0.018387
-0.0172626
-0.0152273
-0.0140042
-0.0142485
-0.014964
-0.0147259
-0.0133264
-0.0127007
-0.0132877
-0.0139198
-0.0138221
-0.0136586
-0.0140613
-0.0149189
-0.0155969
-0.0156525
-0.0152889
-0.0153294
-0.0159291
-0.0163113
-0.0158892
-0.0151904
-0.0152304
-0.0157134
-0.0153613
-0.0142542
-0.013333
-0.013615
-0.0146347
-0.0153547
-0.0149357
-0.0141794
-0.0137892
-0.013774
-0.0133914
-0.0130033
-0.0124139
-0.0116365
-0.00999341
-0.00728635
-0.00333403
0.0017081
0.00798483
0.0169968
0.0298908
0.0492926
0.0779175
0.12054
0.183805
0.262216
0.325728
0.371728
0.387108
0.370066
0.33584
0.306467
0.285618
0.278583
0.282784
0.299441
0.312166
0.300762
0.304074
1.10429e-05
1.38079e-05
1.3785e-05
1.40635e-05
1.38118e-05
1.29734e-05
1.21106e-05
1.14095e-05
1.14431e-05
1.14789e-05
1.24265e-05
1.3645e-05
1.53503e-05
1.58399e-05
1.36115e-05
1.7819e-05
2.00343e-05
2.34521e-05
7.91851e-06
5.63359e-06
1.62463e-05
5.53262e-05
6.52665e-05
5.50502e-05
-2.00702e-05
-4.92078e-05
-5.25833e-05
7.13549e-05
0.000155433
0.000270839
5.72502e-05
-9.12825e-05
-0.000335122
-0.00044841
-0.000617125
-0.00348045
-0.0117632
-0.0354719
-0.0578641
-0.0903701
-0.100518
-0.0968892
-0.0851859
-0.0701746
-0.0602673
-0.0533046
-0.0480749
-0.0432911
-0.0394067
-0.0358748
-0.0325365
-0.0298371
-0.0273074
-0.0254813
-0.0239463
-0.0225187
-0.0212945
-0.0198726
-0.0189934
-0.0188304
-0.0184326
-0.0176167
-0.0170636
-0.0173195
-0.0178665
-0.0178846
-0.0176119
-0.01782
-0.0185521
-0.019352
-0.019818
-0.0197571
-0.0194279
-0.0196016
-0.0205548
-0.0214212
-0.0212136
-0.0204202
-0.0203026
-0.0208246
-0.0209494
-0.0201819
-0.0190901
-0.0188558
-0.019375
-0.0199209
-0.0196457
-0.0189319
-0.0179256
-0.0172162
-0.0161741
-0.0146648
-0.0125033
-0.0102562
-0.00679436
-0.00258804
0.0035043
0.0126549
0.0260143
0.0456373
0.0726162
0.111395
0.164591
0.23432
0.304594
0.372383
0.41646
0.440961
0.441448
0.418113
0.38268
0.353732
0.334124
0.328647
0.336174
0.356884
0.371363
0.35886
0.364604
1.53871e-05
1.74613e-05
1.716e-05
1.74981e-05
1.70537e-05
1.60617e-05
1.50793e-05
1.34638e-05
1.31077e-05
1.33518e-05
1.46765e-05
1.56945e-05
1.68899e-05
2.049e-05
1.68233e-05
2.23587e-05
2.88743e-05
2.74921e-05
1.09959e-05
8.9363e-06
2.28721e-05
5.38909e-05
7.34248e-05
6.67975e-05
-1.48962e-05
-3.13598e-05
-5.9042e-05
0.000106591
0.000162057
0.000281409
2.07601e-05
-0.000132331
-0.000408638
-0.00033606
-0.000874519
-0.00434657
-0.0145465
-0.0442577
-0.0736602
-0.113365
-0.126311
-0.121312
-0.10696
-0.0894281
-0.0778044
-0.068248
-0.0603431
-0.0541795
-0.049137
-0.0449485
-0.0412302
-0.0386252
-0.03635
-0.0339704
-0.0317175
-0.0297104
-0.0284868
-0.0273567
-0.0262266
-0.0254543
-0.0244036
-0.0232655
-0.0228774
-0.0232901
-0.023545
-0.0229658
-0.0222363
-0.0226773
-0.0239875
-0.0249072
-0.0253561
-0.0254425
-0.0255594
-0.0261688
-0.0272232
-0.0281525
-0.0277314
-0.0263427
-0.0259066
-0.0263722
-0.0266755
-0.0263678
-0.0255833
-0.0248947
-0.0242697
-0.0236763
-0.0230531
-0.022125
-0.0208409
-0.0187736
-0.0161698
-0.0133249
-0.00971216
-0.00512866
0.001345
0.0104211
0.0232244
0.04157
0.0671271
0.104213
0.153734
0.219805
0.287813
0.357997
0.413925
0.455043
0.47752
0.486691
0.477315
0.452357
0.419957
0.392725
0.375066
0.371139
0.381026
0.403967
0.419113
0.408385
0.416062
1.80355e-05
2.05893e-05
2.06478e-05
2.11806e-05
2.05775e-05
1.95939e-05
1.8309e-05
1.7503e-05
1.79648e-05
1.81262e-05
1.94464e-05
2.11835e-05
2.32103e-05
2.49942e-05
2.07575e-05
2.54476e-05
3.89306e-05
3.35797e-05
2.47248e-05
1.53404e-05
2.42731e-05
6.06433e-05
8.41506e-05
6.30593e-05
-8.72032e-06
-2.20158e-05
-3.54816e-05
0.000125475
0.000131735
0.000295497
-4.99387e-05
-0.000104867
-0.000357572
-0.000182409
-0.0011733
-0.0053696
-0.0176934
-0.0533265
-0.0908434
-0.136984
-0.151056
-0.1438
-0.126078
-0.105648
-0.0913292
-0.0799165
-0.0715775
-0.0653277
-0.060243
-0.0556856
-0.0516976
-0.0484702
-0.0456168
-0.0424403
-0.0397398
-0.0375994
-0.0357251
-0.0341753
-0.032564
-0.0313751
-0.0302523
-0.0288932
-0.0282198
-0.0287662
-0.0294061
-0.0290391
-0.0283452
-0.0289251
-0.0308362
-0.0322227
-0.0324569
-0.0322367
-0.0324028
-0.0330224
-0.0341618
-0.0352144
-0.0348854
-0.0334515
-0.0327606
-0.0330951
-0.0335209
-0.0331779
-0.031707
-0.0299976
-0.0281067
-0.0263752
-0.0249324
-0.0230884
-0.0205333
-0.0169899
-0.0126874
-0.00747453
-0.000634901
0.00897438
0.0226245
0.041132
0.0660497
0.101229
0.148396
0.212336
0.278018
0.348544
0.408742
0.454724
0.487305
0.508929
0.518385
0.518166
0.503437
0.478621
0.450511
0.426185
0.411062
0.408602
0.420196
0.443315
0.458598
0.450694
0.459643
2.26243e-05
2.48297e-05
2.45656e-05
2.46406e-05
2.37818e-05
2.29419e-05
2.18612e-05
2.01882e-05
2.00341e-05
1.95826e-05
2.06988e-05
2.33847e-05
2.44027e-05
2.89673e-05
2.82426e-05
3.12567e-05
3.90331e-05
3.51136e-05
3.52029e-05
3.67937e-05
2.96849e-05
5.66057e-05
7.5502e-05
6.00372e-05
1.76152e-05
9.79187e-06
-1.99939e-06
0.000127072
5.50787e-05
0.00026305
-9.18549e-05
-2.41565e-06
-0.000270648
-4.53315e-05
-0.00136069
-0.00614068
-0.0200652
-0.0597868
-0.106802
-0.160908
-0.174082
-0.165076
-0.144724
-0.122183
-0.105497
-0.0933514
-0.0844643
-0.0778144
-0.0720746
-0.0670378
-0.0629856
-0.0594527
-0.0560121
-0.052752
-0.0498893
-0.0473776
-0.0449542
-0.0425884
-0.0408106
-0.0394874
-0.038476
-0.0371366
-0.0359667
-0.0360542
-0.0369567
-0.0368453
-0.0358409
-0.0359326
-0.0378476
-0.0395659
-0.0399531
-0.0399575
-0.0405497
-0.041737
-0.0430212
-0.0440586
-0.0440902
-0.0426168
-0.0406404
-0.0396403
-0.0393036
-0.0382585
-0.0358006
-0.0329109
-0.0299725
-0.0270151
-0.0240033
-0.0200483
-0.0155824
-0.00965669
-0.00205315
0.0081654
0.0222322
0.0415062
0.0679846
0.103493
0.149427
0.210471
0.273748
0.342762
0.403868
0.452733
0.490801
0.518764
0.53728
0.547668
0.549057
0.541555
0.524703
0.502325
0.477893
0.456333
0.443892
0.442606
0.455
0.476806
0.492048
0.486976
0.497001
2.57201e-05
2.79058e-05
2.79092e-05
2.81569e-05
2.74832e-05
2.63897e-05
2.53096e-05
2.43014e-05
2.46116e-05
2.46314e-05
2.59012e-05
3.02176e-05
3.0798e-05
3.49819e-05
3.85035e-05
3.57982e-05
3.62748e-05
4.51454e-05
4.69522e-05
6.01194e-05
3.3781e-05
5.79751e-05
6.70882e-05
6.079e-05
3.62505e-05
7.47842e-05
1.85995e-05
9.29907e-05
-4.58494e-06
0.000160856
-7.26211e-05
0.000117689
-0.000128792
4.97667e-05
-0.00170747
-0.00703188
-0.0225294
-0.0668635
-0.122936
-0.184577
-0.195972
-0.186283
-0.16584
-0.142198
-0.123639
-0.110255
-0.1004
-0.0931378
-0.0866372
-0.0814501
-0.0771173
-0.072831
-0.068809
-0.0650038
-0.0616944
-0.058614
-0.0551566
-0.0521748
-0.0495965
-0.0480753
-0.0469285
-0.0455949
-0.0440799
-0.0433365
-0.0445011
-0.0454544
-0.045162
-0.0449427
-0.0463251
-0.0482186
-0.0488148
-0.04863
-0.0491177
-0.0505962
-0.0522653
-0.0529956
-0.0523916
-0.0501455
-0.0471401
-0.0446177
-0.0422408
-0.0401061
-0.0370915
-0.0335325
-0.0290455
-0.0236541
-0.0177936
-0.011111
-0.00263193
0.00916108
0.0247363
0.0446134
0.0718841
0.10804
0.155863
0.215766
0.275849
0.341913
0.402189
0.45183
0.491793
0.523339
0.547553
0.56396
0.572984
0.576631
0.573151
0.562275
0.545184
0.525375
0.503675
0.485052
0.475142
0.474518
0.486899
0.506517
0.521629
0.519195
0.529904
3.02515e-05
3.22582e-05
3.21836e-05
3.20487e-05
3.08333e-05
2.97222e-05
2.86821e-05
2.7181e-05
2.70903e-05
2.70576e-05
2.71818e-05
3.14125e-05
3.44015e-05
4.05668e-05
4.38609e-05
3.9246e-05
3.64355e-05
4.97296e-05
5.66748e-05
7.35215e-05
4.93165e-05
5.55665e-05
5.13413e-05
6.27983e-05
6.72517e-05
0.000137588
3.97695e-05
8.3858e-05
-0.00010407
1.93037e-05
-2.19217e-05
0.000230039
0.000100538
6.80922e-05
-0.00208337
-0.00810788
-0.0253564
-0.0747682
-0.139883
-0.206599
-0.214652
-0.204246
-0.184687
-0.160602
-0.140156
-0.12482
-0.114439
-0.106444
-0.0999088
-0.0955024
-0.0910856
-0.086636
-0.0820592
-0.0782751
-0.0747068
-0.0708473
-0.0668341
-0.0631411
-0.0608058
-0.058741
-0.0572453
-0.0560316
-0.0539651
-0.0523299
-0.0525816
-0.0543649
-0.0551131
-0.054553
-0.0554068
-0.0575913
-0.0592296
-0.0595501
-0.0596857
-0.0604147
-0.0614839
-0.0611327
-0.0589659
-0.055452
-0.050904
-0.0463915
-0.0423611
-0.0389121
-0.0346011
-0.0290102
-0.0217161
-0.0130739
-0.00261355
0.0109361
0.0283285
0.0509534
0.0808277
0.117663
0.166575
0.226231
0.285145
0.348539
0.405371
0.45311
0.492649
0.525236
0.55234
0.573107
0.587584
0.596625
0.600644
0.600653
0.593976
0.581861
0.565998
0.548277
0.528814
0.51305
0.505552
0.505288
0.517087
0.533806
0.548719
0.548321
0.559857
3.3579e-05
3.55743e-05
3.58322e-05
3.55573e-05
3.42568e-05
3.3106e-05
3.26122e-05
3.16973e-05
3.19253e-05
3.26436e-05
3.16898e-05
3.7277e-05
4.37306e-05
4.66757e-05
5.03262e-05
5.15898e-05
4.29013e-05
4.92615e-05
6.59127e-05
8.50236e-05
7.56752e-05
5.65224e-05
2.5161e-05
6.26914e-05
9.69512e-05
0.000209909
6.70814e-05
5.59689e-05
-0.000149002
-0.000129006
-2.12024e-05
0.000327878
0.00028234
4.78807e-05
-0.00232738
-0.00873148
-0.0269521
-0.079407
-0.151485
-0.222606
-0.229004
-0.220484
-0.203714
-0.181244
-0.159304
-0.143708
-0.133525
-0.12525
-0.119145
-0.114525
-0.109699
-0.104171
-0.0985025
-0.093607
-0.089247
-0.0843565
-0.0791588
-0.0750821
-0.0718998
-0.0695316
-0.067582
-0.0663565
-0.065148
-0.0628774
-0.0620354
-0.0644116
-0.0668822
-0.0675237
-0.0676805
-0.0689695
-0.0705986
-0.0707161
-0.0699818
-0.0685998
-0.067277
-0.0647666
-0.0611391
-0.0566869
-0.0513402
-0.0452826
-0.0385363
-0.0320564
-0.0246034
-0.0150093
-0.00221412
0.0139365
0.0337292
0.05933
0.0920082
0.132659
0.185233
0.243414
0.300464
0.361088
0.414087
0.458638
0.496457
0.527968
0.554847
0.577058
0.59515
0.609231
0.61832
0.62276
0.623623
0.620925
0.613311
0.601765
0.587847
0.571922
0.55485
0.541541
0.536092
0.535454
0.546334
0.56007
0.574394
0.575645
0.587891
3.82829e-05
3.98756e-05
4.05298e-05
3.96489e-05
3.7816e-05
3.61768e-05
3.54604e-05
3.45327e-05
3.44199e-05
3.44688e-05
3.5176e-05
3.95738e-05
4.52694e-05
5.04149e-05
5.70559e-05
6.16861e-05
4.34377e-05
4.41188e-05
7.33724e-05
9.78728e-05
0.000103427
7.6374e-05
1.02987e-05
4.84351e-05
0.000120751
0.000255278
0.00011779
3.7102e-05
-0.000261856
-0.000236041
-9.68797e-05
0.000323384
0.000442945
3.59808e-05
-0.00252819
-0.00930055
-0.0279834
-0.0815192
-0.158878
-0.235897
-0.245357
-0.241461
-0.22758
-0.207346
-0.184988
-0.168462
-0.157113
-0.147596
-0.140831
-0.135106
-0.129244
-0.122623
-0.115851
-0.109984
-0.104779
-0.0992604
-0.0936513
-0.0886228
-0.0846221
-0.0816972
-0.0795651
-0.0785867
-0.0774711
-0.0756771
-0.0744911
-0.0760468
-0.0795979
-0.0811337
-0.0806026
-0.080269
-0.0801398
-0.0788196
-0.0767408
-0.0732629
-0.0690961
-0.0643653
-0.0591548
-0.0531019
-0.045745
-0.0368897
-0.0264867
-0.0143674
0.000199414
0.0186947
0.042358
0.0719024
0.107443
0.152875
0.208521
0.264317
0.320409
0.377674
0.427199
0.468988
0.503963
0.533146
0.558823
0.58075
0.598822
0.614205
0.627219
0.63741
0.642597
0.643992
0.643369
0.639469
0.631593
0.621472
0.609138
0.594847
0.580101
0.569177
0.566174
0.564677
0.57435
0.585631
0.599662
0.601937
0.614321
4.16417e-05
4.30013e-05
4.50884e-05
4.32475e-05
4.12932e-05
3.96047e-05
3.88284e-05
3.87215e-05
3.90664e-05
4.06079e-05
4.16084e-05
4.54034e-05
4.79567e-05
5.91336e-05
6.94102e-05
7.39742e-05
4.34271e-05
5.02762e-05
8.02184e-05
0.000114285
0.000111667
9.10436e-05
1.51323e-05
3.59505e-05
0.000144319
0.000277099
0.00019353
4.31721e-05
-0.000318133
-0.00023687
-0.000137282
0.00016038
0.000381317
-1.48052e-05
-0.00261104
-0.00954448
-0.0286761
-0.0835309
-0.167526
-0.250044
-0.263117
-0.263173
-0.252073
-0.234082
-0.212892
-0.196483
-0.184913
-0.175009
-0.167717
-0.160374
-0.152573
-0.144295
-0.135651
-0.127575
-0.120645
-0.1143
-0.108518
-0.102818
-0.0980925
-0.0944484
-0.0923994
-0.0917666
-0.0917236
-0.0903835
-0.087907
-0.0882137
-0.0916492
-0.0928913
-0.0908685
-0.0880335
-0.0852442
-0.0814512
-0.0769438
-0.0722423
-0.0666318
-0.0595257
-0.0510748
-0.0410773
-0.0287933
-0.013559
0.00458601
0.0267402
0.0544186
0.0882508
0.129719
0.180994
0.23652
0.290082
0.346016
0.39873
0.442381
0.480937
0.513518
0.541406
0.565494
0.585538
0.602449
0.61846
0.632299
0.642682
0.651636
0.659973
0.663526
0.662859
0.660844
0.656354
0.64957
0.640813
0.630024
0.617502
0.605362
0.596625
0.595879
0.593222
0.601519
0.610696
0.62403
0.626989
0.63936
4.66273e-05
4.74596e-05
4.91121e-05
4.89579e-05
4.4716e-05
4.30654e-05
4.17933e-05
4.14364e-05
4.16746e-05
4.32764e-05
4.43089e-05
4.60577e-05
5.08346e-05
6.65982e-05
7.28606e-05
7.11008e-05
5.97389e-05
5.63899e-05
8.54368e-05
0.000127291
0.000115573
9.51394e-05
5.51557e-05
4.74699e-05
0.000109987
0.000285848
0.000184082
6.00662e-06
-0.000284294
-0.000290485
-0.000122256
8.32568e-05
0.000243228
-0.000158767
-0.00281183
-0.0100184
-0.0300276
-0.0874337
-0.178945
-0.266904
-0.283804
-0.287276
-0.277714
-0.260297
-0.239936
-0.224246
-0.212468
-0.202948
-0.196145
-0.187858
-0.17883
-0.169254
-0.159206
-0.150313
-0.141499
-0.13366
-0.126522
-0.120241
-0.114859
-0.110636
-0.107666
-0.106273
-0.106058
-0.105114
-0.102628
-0.100572
-0.0987682
-0.0976498
-0.0951754
-0.0912085
-0.0857866
-0.0794581
-0.0723206
-0.064658
-0.0555532
-0.0434545
-0.0283497
-0.0105281
0.0109765
0.0381995
0.0711708
0.110197
0.158384
0.214089
0.26804
0.320913
0.374932
0.421677
0.461156
0.495062
0.524114
0.54993
0.572618
0.592098
0.608594
0.622814
0.63534
0.647131
0.657724
0.665204
0.671661
0.678657
0.681302
0.679774
0.677124
0.67312
0.667613
0.660143
0.651086
0.640373
0.630964
0.623576
0.624258
0.620278
0.627137
0.634646
0.647291
0.650894
0.663166
5.00715e-05
5.0647e-05
5.3112e-05
5.24971e-05
4.87449e-05
4.66779e-05
4.5525e-05
4.59153e-05
4.64762e-05
4.73772e-05
5.16683e-05
5.50302e-05
5.45728e-05
7.10818e-05
8.2094e-05
7.98084e-05
8.22661e-05
6.10437e-05
8.44571e-05
0.000128287
0.000129701
0.000108711
0.000119167
6.03196e-05
5.55507e-05
0.000266729
0.000195518
3.85738e-05
-0.000134332
-0.000206541
-0.000188852
-0.000159903
-1.52484e-05
-0.000324697
-0.00300463
-0.0105439
-0.0315769
-0.0919241
-0.193578
-0.289198
-0.309929
-0.316403
-0.308412
-0.291304
-0.271772
-0.256712
-0.243653
-0.234263
-0.225443
-0.214189
-0.203014
-0.191589
-0.180724
-0.170429
-0.161825
-0.154269
-0.146159
-0.139339
-0.133769
-0.129418
-0.125687
-0.122568
-0.118964
-0.115191
-0.110746
-0.106647
-0.102841
-0.0982997
-0.0931206
-0.0866809
-0.078993
-0.0690521
-0.0572908
-0.0433747
-0.0264482
-0.00476227
0.0224949
0.05504
0.093155
0.139829
0.194387
0.250819
0.303423
0.356809
0.405139
0.445075
0.480189
0.510491
0.537273
0.560006
0.57973
0.597867
0.613915
0.628267
0.640919
0.651531
0.660506
0.669846
0.678633
0.684196
0.688893
0.695152
0.697224
0.695471
0.693012
0.69005
0.685758
0.679488
0.672184
0.663123
0.656598
0.649732
0.651055
0.646115
0.652016
0.658234
0.670056
0.673989
0.685765
5.50136e-05
5.51806e-05
5.73354e-05
5.59509e-05
5.46465e-05
5.06665e-05
4.93378e-05
4.83362e-05
4.87646e-05
5.03019e-05
5.57569e-05
5.80595e-05
5.61699e-05
6.86284e-05
8.58207e-05
8.4786e-05
0.000102157
6.81653e-05
8.01223e-05
0.000125886
0.000140048
0.000126153
0.000163305
0.000101384
3.0415e-05
0.000168714
0.000177194
0.000130365
9.62118e-05
-0.000118309
-0.000229006
-0.00042522
-0.000344737
-0.000547309
-0.00330664
-0.0113213
-0.0337837
-0.0973944
-0.210761
-0.315585
-0.340451
-0.349539
-0.342981
-0.326251
-0.308727
-0.293868
-0.281778
-0.274018
-0.262363
-0.248608
-0.234122
-0.220531
-0.207338
-0.194652
-0.185057
-0.175826
-0.167717
-0.160273
-0.152411
-0.145515
-0.138867
-0.132317
-0.127137
-0.120917
-0.115018
-0.107197
-0.099235
-0.0904376
-0.0815768
-0.0714401
-0.0584959
-0.0407433
-0.0185514
0.00758983
0.0385177
0.0765197
0.123451
0.178222
0.235484
0.287919
0.33995
0.392629
0.434938
0.470299
0.500757
0.526626
0.54999
0.57024
0.588499
0.604863
0.618347
0.631545
0.644556
0.655499
0.665371
0.674232
0.681369
0.688679
0.69623
0.700857
0.704575
0.710243
0.712253
0.710585
0.708853
0.706967
0.703682
0.698654
0.693029
0.685431
0.681825
0.675008
0.676425
0.670901
0.675868
0.680903
0.691754
0.695758
0.706985
5.86191e-05
5.8502e-05
6.05256e-05
5.94957e-05
5.67729e-05
5.69664e-05
5.38312e-05
5.33128e-05
5.28389e-05
5.45381e-05
5.94943e-05
6.73172e-05
6.20504e-05
7.53496e-05
9.17184e-05
9.42739e-05
0.000116355
9.34433e-05
7.98336e-05
0.000123071
0.000147512
0.000150366
0.000188483
0.000152859
3.55248e-05
4.15177e-05
0.00016332
0.000228705
0.000274407
6.37091e-06
-0.000180141
-0.000606468
-0.000650078
-0.000840654
-0.00382651
-0.012673
-0.0376996
-0.107848
-0.235308
-0.344615
-0.372326
-0.382771
-0.37612
-0.359069
-0.344012
-0.329035
-0.318477
-0.312755
-0.300147
-0.285523
-0.269756
-0.255482
-0.240283
-0.227388
-0.214823
-0.203854
-0.192952
-0.181237
-0.170673
-0.158236
-0.148665
-0.138664
-0.12965
-0.119657
-0.109411
-0.0980674
-0.0850606
-0.0703893
-0.0537812
-0.0336568
-0.00818585
0.0245258
0.063719
0.110268
0.16373
0.221591
0.275569
0.327941
0.38114
0.425063
0.461737
0.494123
0.521264
0.543983
0.56395
0.581596
0.596743
0.611167
0.623972
0.636321
0.646939
0.656507
0.66736
0.676949
0.685489
0.693129
0.699131
0.705074
0.711888
0.716094
0.719265
0.72465
0.726736
0.725458
0.724587
0.723668
0.721364
0.717631
0.713461
0.707212
0.706231
0.699434
0.700691
0.694882
0.698947
0.702933
0.71281
0.71662
0.727002
6.35226e-05
6.30929e-05
6.30443e-05
6.38839e-05
6.09838e-05
6.21657e-05
5.98599e-05
5.64327e-05
5.64291e-05
5.63976e-05
6.00951e-05
7.0551e-05
7.26362e-05
7.72955e-05
9.30994e-05
9.99713e-05
0.000118793
0.00012312
8.68641e-05
0.000120523
0.000150877
0.000183045
0.000186672
0.000208567
7.85346e-05
-2.0482e-05
0.000101334
0.000331265
0.000378386
0.000122106
-7.59284e-05
-0.00060113
-0.00077253
-0.00115765
-0.00453706
-0.0145414
-0.0429909
-0.121215
-0.268346
-0.382833
-0.413563
-0.424848
-0.417291
-0.399437
-0.384626
-0.368864
-0.358202
-0.350574
-0.336339
-0.32087
-0.304607
-0.288704
-0.274562
-0.259673
-0.246831
-0.23013
-0.21355
-0.19545
-0.17983
-0.164923
-0.149208
-0.135176
-0.120369
-0.105808
-0.0902399
-0.0718733
-0.0483993
-0.0200879
0.0119773
0.0487
0.0955749
0.152473
0.213532
0.267143
0.319119
0.373011
0.417422
0.454182
0.487237
0.515545
0.539493
0.559929
0.577792
0.593344
0.606065
0.618542
0.630093
0.639441
0.649773
0.659809
0.668422
0.675839
0.685285
0.694363
0.702227
0.709386
0.71481
0.719834
0.72625
0.730506
0.733289
0.738577
0.740914
0.740217
0.740209
0.740193
0.73886
0.736272
0.73328
0.728251
0.729429
0.722729
0.723767
0.717782
0.720972
0.723927
0.732673
0.735999
0.745565
6.74718e-05
6.67272e-05
6.62009e-05
6.49232e-05
6.3323e-05
6.43397e-05
6.80295e-05
6.34187e-05
6.14271e-05
6.07839e-05
6.25068e-05
7.515e-05
8.45986e-05
8.60062e-05
9.49744e-05
0.000112385
0.000125508
0.000153287
0.000105808
0.000121797
0.000147053
0.000199756
0.000203916
0.000238564
0.000140829
1.48797e-05
4.70773e-05
0.000305964
0.00048091
0.000239997
8.24278e-05
-0.000471975
-0.000680756
-0.00156561
-0.00567854
-0.0174735
-0.0508932
-0.140558
-0.304976
-0.423406
-0.457084
-0.470291
-0.463794
-0.446458
-0.431476
-0.417453
-0.40918
-0.39973
-0.384746
-0.369985
-0.351926
-0.336544
-0.318168
-0.296994
-0.27373
-0.249781
-0.225227
-0.201533
-0.179852
-0.158696
-0.136659
-0.11493
-0.0927188
-0.0697308
-0.0419924
-0.00728459
0.0353356
0.0860796
0.141863
0.202194
0.259962
0.314829
0.368797
0.413463
0.45056
0.483391
0.510865
0.534198
0.555471
0.574227
0.590617
0.603835
0.615096
0.626778
0.636024
0.643986
0.653883
0.66207
0.668348
0.677392
0.685701
0.692204
0.700152
0.708932
0.716674
0.723655
0.728995
0.733549
0.739791
0.744233
0.746818
0.752027
0.754739
0.754771
0.75553
0.756315
0.755887
0.754337
0.752407
0.748654
0.751403
0.745203
0.746128
0.740031
0.742272
0.74413
0.751656
0.754411
0.763028
7.25205e-05
7.13064e-05
6.99713e-05
6.78732e-05
6.59979e-05
6.75934e-05
7.07205e-05
7.37506e-05
6.77538e-05
6.33927e-05
6.57166e-05
7.57292e-05
9.00387e-05
8.95087e-05
9.26892e-05
0.000117201
0.000134007
0.00017198
0.000134367
0.00011508
0.000145881
0.000200052
0.000235554
0.000227796
0.000223278
9.27022e-05
6.40601e-05
0.000193143
0.000523125
0.000357394
0.000368972
-0.000198005
-0.000508114
-0.0021261
-0.00742077
-0.022164
-0.0637725
-0.172464
-0.352761
-0.467833
-0.501559
-0.51456
-0.507599
-0.48962
-0.474495
-0.463164
-0.458793
-0.450316
-0.437606
-0.423933
-0.406624
-0.387197
-0.360232
-0.328484
-0.293996
-0.259342
-0.225536
-0.192832
-0.161808
-0.131762
-0.100249
-0.0654047
-0.0258136
0.0157118
0.0649929
0.125278
0.194828
0.255425
0.308575
0.365212
0.412606
0.450108
0.482361
0.510057
0.533552
0.553546
0.571305
0.586946
0.600044
0.612335
0.624479
0.633966
0.640944
0.650223
0.658109
0.66382
0.670755
0.678432
0.684544
0.691163
0.699223
0.706432
0.712955
0.721263
0.729284
0.73643
0.742074
0.746374
0.752643
0.757393
0.759867
0.765101
0.768272
0.769157
0.770628
0.77214
0.772554
0.771898
0.770916
0.76835
0.772095
0.76669
0.767266
0.76114
0.762255
0.762991
0.769379
0.771538
0.779088
7.66416e-05
7.51656e-05
7.36614e-05
6.87559e-05
7.0245e-05
6.51954e-05
7.46568e-05
7.69373e-05
8.00086e-05
7.05192e-05
7.28329e-05
8.07076e-05
9.39466e-05
9.93604e-05
0.000100864
0.000120562
0.000143744
0.000171024
0.000185859
0.000128587
0.00016068
0.000191094
0.000239101
0.000229537
0.000265106
0.000181153
0.000123321
0.000111614
0.000421283
0.000535818
0.000597575
9.03356e-05
-0.000274828
-0.0026943
-0.00950018
-0.0281899
-0.0807288
-0.212929
-0.407592
-0.520703
-0.556163
-0.569023
-0.560869
-0.542846
-0.530191
-0.521622
-0.51963
-0.512686
-0.50164
-0.483803
-0.4576
-0.426519
-0.386636
-0.342613
-0.295997
-0.252131
-0.20537
-0.157893
-0.112202
-0.0659247
-0.0155492
0.0445997
0.111027
0.179863
0.242568
0.302917
0.36233
0.410372
0.449007
0.482794
0.510924
0.534225
0.554507
0.571327
0.586459
0.599648
0.609832
0.621087
0.631084
0.638561
0.647661
0.655613
0.660906
0.667096
0.674153
0.679758
0.684586
0.691308
0.697838
0.703339
0.710845
0.718536
0.724318
0.732161
0.740464
0.748059
0.754223
0.758499
0.764917
0.769913
0.772428
0.777751
0.781425
0.78318
0.78529
0.787428
0.788581
0.788733
0.788664
0.787175
0.791745
0.787498
0.787657
0.781816
0.781591
0.781147
0.786334
0.787755
0.794136
8.16875e-05
7.97026e-05
7.72315e-05
7.23717e-05
7.33098e-05
6.67471e-05
7.15846e-05
8.48452e-05
8.2555e-05
7.95736e-05
7.89069e-05
8.94189e-05
9.60726e-05
0.000105552
0.000110888
0.000121357
0.00015101
0.000166448
0.000208491
0.000165119
0.000172327
0.000192325
0.000231192
0.000255043
0.000273889
0.000306716
0.000209355
0.000151373
0.000283191
0.000549535
0.000792066
0.000396174
-0.000155108
-0.00327323
-0.0115342
-0.0342115
-0.0978353
-0.253089
-0.463955
-0.579514
-0.617844
-0.631559
-0.624732
-0.610361
-0.602366
-0.599787
-0.60092
-0.591091
-0.571314
-0.540599
-0.500048
-0.451349
-0.395761
-0.33683
-0.273982
-0.210108
-0.142737
-0.0713842
0.00221694
0.0773835
0.156206
0.231775
0.293216
0.353351
0.406448
0.448691
0.483062
0.511228
0.534791
0.555134
0.572424
0.587067
0.600362
0.611805
0.620593
0.630184
0.638048
0.643603
0.651724
0.658604
0.664024
0.67112
0.676726
0.680531
0.686502
0.692238
0.695996
0.70225
0.708881
0.714152
0.721064
0.728664
0.73497
0.742169
0.750559
0.758616
0.765346
0.769922
0.776578
0.781816
0.784577
0.790101
0.794347
0.796866
0.799621
0.802368
0.80421
0.805139
0.8059
0.805245
0.810388
0.807144
0.806696
0.801074
0.799408
0.797856
0.801853
0.802569
0.807741
8.5778e-05
8.36281e-05
8.046e-05
7.63335e-05
7.45557e-05
7.03892e-05
7.00698e-05
8.22633e-05
9.25093e-05
7.88455e-05
8.90946e-05
0.000101544
0.000109473
0.000112108
0.000117301
0.000124565
0.000153539
0.000183355
0.00021469
0.000221043
0.000168272
0.00020296
0.000240997
0.00026732
0.000255446
0.000349706
0.00031159
0.000291162
0.000238247
0.000448006
0.000809625
0.000707263
-0.000228062
-0.00415226
-0.0144023
-0.0423817
-0.11931
-0.299479
-0.5222
-0.639644
-0.680035
-0.694362
-0.691315
-0.688123
-0.689911
-0.686464
-0.678365
-0.656282
-0.622739
-0.576821
-0.520266
-0.453716
-0.378193
-0.293309
-0.199737
-0.0994907
0.00470218
0.111189
0.20107
0.273124
0.342123
0.399208
0.443178
0.479616
0.510624
0.535411
0.555682
0.572928
0.587324
0.599974
0.611685
0.62152
0.630259
0.638575
0.644919
0.649834
0.656761
0.661958
0.667286
0.673022
0.677562
0.683243
0.688678
0.692233
0.697018
0.702279
0.706665
0.712105
0.718392
0.724133
0.730412
0.737644
0.74461
0.751418
0.759858
0.768299
0.775545
0.780679
0.787646
0.793189
0.796408
0.802167
0.806968
0.81005
0.813401
0.816677
0.819085
0.820774
0.822322
0.822391
0.828045
0.825617
0.825065
0.819704
0.816936
0.814416
0.816707
0.816482
0.820453
9.05886e-05
8.80863e-05
8.41722e-05
7.96381e-05
7.5501e-05
7.71644e-05
6.83143e-05
8.27882e-05
8.96154e-05
9.01222e-05
8.45636e-05
0.000107692
0.000132636
0.000122693
0.000124125
0.000129124
0.000150255
0.000188427