/*--------------------------------*- C++ -*----------------------------------*\
| =========                 |                                                 |
| \\      /  F ield         | OpenFOAM: The Open Source CFD Toolbox           |
|  \\    /   O peration     | Version:  2.2.x                                 |
|   \\  /    A nd           | Web:      www.OpenFOAM.org                      |
|    \\/     M anipulation  |                                                 |
\*---------------------------------------------------------------------------*/
FoamFile
{
    version     2.0;
    format      ascii;
    class       volScalarField;
    location    "2.6";
    object      Ma;
}
// * * * * * * * * * * * * * * * * * * * * * * * * * * * * * * * * * * * * * //

dimensions      [0 0 0 0 0 0 0];

internalField   nonuniform List<scalar> 
14161
(
2.59808
2.59808
2.59808
2.59808
2.59808
2.59808
2.59808
2.59808
2.59808
2.59808
2.59808
2.59808
2.59808
2.59808
2.59808
2.5847
2.63485
2.38184
1.53235
0.559251
0.53153
0.523394
0.51526
0.507141
0.499034
0.491182
0.483659
0.47652
0.469732
0.463241
0.457003
0.451017
0.445307
0.439907
0.434849
0.430098
0.425623
0.421396
0.417376
0.41356
0.409892
0.406421
0.403076
0.399923
0.396884
0.393946
0.390958
0.387985
0.385013
0.382039
0.379056
0.376056
0.373035
0.369988
0.366912
0.363796
0.360637
0.357428
0.354162
0.350839
0.347474
0.344091
0.340696
0.33729
0.333875
0.330449
0.327001
0.323514
0.319966
0.316342
0.312622
0.308809
0.304887
0.300864
0.29676
0.292589
0.288343
0.284003
0.279584
0.275131
0.270754
0.266481
0.262288
0.258142
0.254021
0.249909
0.245794
0.241658
0.237461
0.233141
0.228601
0.223819
0.218753
0.213397
0.207732
0.201756
0.195483
0.188952
0.182215
0.175325
0.16833
0.161251
0.154084
0.146811
0.139398
0.131809
0.124
0.115926
0.107544
0.0988148
0.0897172
0.0802568
0.0704665
0.0603687
0.0499933
0.0393782
0.0285965
0.0178595
0.00866883
2.59808
2.59808
2.59808
2.59808
2.59808
2.59808
2.59808
2.59808
2.59808
2.59808
2.59808
2.59808
2.59808
2.59808
2.59808
2.59431
2.60733
2.38681
1.53001
0.558554
0.530094
0.521499
0.513156
0.505046
0.49707
0.489364
0.48193
0.474834
0.468072
0.461614
0.455424
0.449502
0.443863
0.438532
0.433535
0.428839
0.424418
0.42024
0.41627
0.412507
0.40889
0.405468
0.402168
0.399057
0.396057
0.393133
0.390153
0.387188
0.384224
0.38126
0.378288
0.375298
0.372288
0.36925
0.366178
0.363061
0.359896
0.356676
0.353397
0.350058
0.346676
0.343278
0.339872
0.336456
0.333037
0.329612
0.32617
0.322697
0.319172
0.315573
0.311879
0.308092
0.304201
0.300244
0.296228
0.292157
0.288026
0.283839
0.279591
0.275272
0.270898
0.266553
0.262291
0.258083
0.253905
0.249744
0.245587
0.241417
0.237199
0.232869
0.228336
0.223568
0.218522
0.213185
0.207565
0.201682
0.195572
0.18927
0.182803
0.176189
0.169425
0.162513
0.155456
0.148251
0.140886
0.133345
0.125607
0.117648
0.109436
0.100943
0.0921537
0.0830664
0.073696
0.0640465
0.054153
0.0441522
0.0343882
0.0253242
0.0200043
2.59808
2.59808
2.59808
2.59808
2.59808
2.59808
2.59808
2.59808
2.59808
2.59808
2.59808
2.59808
2.59808
2.59808
2.59808
2.5967
2.60183
2.39103
1.52096
0.556424
0.527466
0.518664
0.510247
0.50219
0.49438
0.48685
0.479531
0.472484
0.465713
0.459245
0.45308
0.447218
0.441662
0.436414
0.431478
0.42684
0.422462
0.418327
0.414396
0.410679
0.407115
0.403756
0.400522
0.397476
0.394545
0.391656
0.388707
0.385768
0.382827
0.379885
0.376933
0.373968
0.370984
0.367975
0.364932
0.361846
0.358709
0.355514
0.352253
0.348924
0.345546
0.342144
0.33873
0.335303
0.331867
0.328419
0.324952
0.321458
0.317928
0.314353
0.310725
0.307037
0.303283
0.299478
0.295625
0.291721
0.287763
0.283752
0.279678
0.275528
0.271291
0.266973
0.262633
0.258336
0.254071
0.249823
0.245577
0.241317
0.237023
0.232641
0.228084
0.223321
0.218309
0.213023
0.207475
0.201695
0.195714
0.189558
0.183242
0.176765
0.170122
0.163307
0.156317
0.149146
0.141794
0.134266
0.126567
0.118699
0.110656
0.102424
0.0940002
0.0854019
0.0766711
0.0678633
0.059121
0.0506421
0.0429041
0.0361083
0.0333071
2.59808
2.59808
2.59808
2.59808
2.59808
2.59808
2.59808
2.59808
2.59808
2.59808
2.59808
2.59808
2.59808
2.59808
2.59808
2.59732
2.60009
2.39626
1.51203
0.554379
0.525344
0.516484
0.508036
0.499953
0.492139
0.484615
0.477294
0.470241
0.463449
0.456977
0.450824
0.445002
0.439495
0.434302
0.429418
0.424832
0.420498
0.416411
0.412524
0.408854
0.405337
0.402028
0.398845
0.395855
0.39298
0.390148
0.387255
0.384366
0.381471
0.378567
0.375652
0.372721
0.36977
0.366793
0.363786
0.360739
0.357644
0.354495
0.351282
0.348003
0.344673
0.341315
0.337936
0.33454
0.331123
0.327685
0.324221
0.320729
0.317206
0.313653
0.310064
0.306437
0.302768
0.299068
0.295336
0.291571
0.287771
0.283929
0.280025
0.276041
0.271956
0.267762
0.263465
0.259094
0.254713
0.250326
0.245927
0.241508
0.237052
0.232519
0.227845
0.222994
0.217945
0.212678
0.207191
0.201498
0.195627
0.189602
0.183431
0.177113
0.170641
0.164013
0.157221
0.150258
0.14312
0.13581
0.12834
0.120726
0.112981
0.105108
0.097126
0.089074
0.0810222
0.0730708
0.06546
0.0584436
0.0526059
0.0479739
0.046967
2.59808
2.59808
2.59808
2.59808
2.59808
2.59808
2.59808
2.59808
2.59808
2.59808
2.59808
2.59808
2.59808
2.59808
2.59808
2.5977
2.59935
2.39661
1.5108
0.554558
0.525289
0.516249
0.507631
0.499399
0.491462
0.483845
0.476448
0.469334
0.46249
0.455988
0.449814
0.443985
0.438469
0.433271
0.428375
0.423781
0.419443
0.415367
0.411488
0.407834
0.404328
0.40103
0.397852
0.394873
0.392005
0.389205
0.386355
0.383506
0.380648
0.377778
0.374891
0.371981
0.369047
0.366085
0.363094
0.360064
0.356995
0.353879
0.35071
0.347485
0.344217
0.34093
0.337624
0.3343
0.330953
0.327578
0.324173
0.320736
0.317269
0.313772
0.310245
0.306686
0.303097
0.299484
0.295847
0.292188
0.288509
0.284793
0.281021
0.277164
0.273202
0.269117
0.264908
0.260579
0.256166
0.251688
0.247167
0.242614
0.238026
0.233375
0.22861
0.223691
0.218593
0.2133
0.20782
0.202168
0.196358
0.190401
0.184304
0.178066
0.171689
0.165174
0.158521
0.151722
0.144771
0.137673
0.130446
0.123118
0.115718
0.108266
0.100802
0.0933878
0.0861364
0.0791935
0.0728723
0.0674187
0.0633895
0.0606617
0.0611714
2.59808
2.59808
2.59808
2.59808
2.59808
2.59808
2.59808
2.59808
2.59808
2.59808
2.59808
2.59808
2.59808
2.59808
2.59808
2.59783
2.59955
2.39412
1.51383
0.556065
0.526888
0.517761
0.508999
0.50058
0.492471
0.484726
0.477247
0.470072
0.46318
0.456643
0.450429
0.444553
0.438975
0.433708
0.428726
0.424056
0.419662
0.415546
0.411635
0.407956
0.40442
0.401092
0.397875
0.394861
0.391946
0.38913
0.386274
0.383414
0.38055
0.377674
0.37478
0.371866
0.368924
0.365954
0.362952
0.359911
0.35683
0.353704
0.350529
0.347303
0.344038
0.340756
0.337459
0.334145
0.33081
0.327451
0.324063
0.320648
0.317207
0.31374
0.31025
0.306741
0.30321
0.299664
0.296102
0.292527
0.288942
0.285322
0.281642
0.277869
0.273974
0.269937
0.265751
0.261415
0.256947
0.252398
0.247806
0.243191
0.238558
0.233894
0.229159
0.224288
0.219262
0.214063
0.208686
0.203139
0.197427
0.191559
0.185546
0.179392
0.173103
0.166688
0.160157
0.153505
0.146728
0.139839
0.132871
0.125868
0.118875
0.11193
0.105085
0.0984142
0.0920542
0.0861642
0.0811127
0.0771229
0.0746888
0.0736079
0.0755012
2.59808
2.59808
2.59808
2.59808
2.59808
2.59808
2.59808
2.59808
2.59808
2.59808
2.59808
2.59808
2.59808
2.59808
2.59808
2.59773
2.6015
2.39151
1.51637
0.557134
0.52829
0.519322
0.510668
0.502311
0.49421
0.486464
0.478988
0.471826
0.464941
0.458416
0.452194
0.446291
0.440646
0.435292
0.43019
0.425392
0.420878
0.416671
0.412675
0.408933
0.405332
0.401946
0.398652
0.395556
0.392551
0.389653
0.386728
0.383804
0.380887
0.37797
0.375046
0.372113
0.36916
0.366188
0.363186
0.360153
0.357081
0.353964
0.350798
0.347576
0.344313
0.341028
0.337727
0.334406
0.331064
0.327698
0.324308
0.320893
0.317455
0.313993
0.310509
0.307006
0.303485
0.299949
0.2964
0.292842
0.289271
0.28567
0.28201
0.278258
0.274387
0.270374
0.266207
0.261884
0.257403
0.252793
0.248109
0.243395
0.238683
0.233976
0.22925
0.224441
0.21955
0.214549
0.209404
0.204094
0.19861
0.192946
0.187113
0.181118
0.174968
0.168686
0.162292
0.155793
0.149189
0.14251
0.135805
0.129137
0.12257
0.116157
0.10996
0.104056
0.098603
0.0937565
0.0899378
0.0873346
0.0864002
0.0869763
0.0900459
2.59808
2.59808
2.59808
2.59808
2.59808
2.59808
2.59808
2.59808
2.59808
2.59808
2.59808
2.59808
2.59808
2.59808
2.59805
2.5979
2.60123
2.39019
1.5187
0.557778
0.528885
0.520017
0.511482
0.503242
0.495221
0.487504
0.480018
0.472824
0.465894
0.45933
0.453074
0.447172
0.441548
0.436246
0.431174
0.42636
0.421717
0.417329
0.41315
0.409278
0.405588
0.402161
0.39886
0.39579
0.392815
0.389964
0.387103
0.384245
0.381395
0.378545
0.375687
0.372816
0.369926
0.367012
0.364067
0.361085
0.358059
0.354985
0.351857
0.348666
0.345424
0.34215
0.338848
0.335516
0.332156
0.328767
0.325353
0.321915
0.318455
0.31497
0.311459
0.307918
0.304347
0.30075
0.297129
0.293496
0.28985
0.286176
0.282452
0.278651
0.274744
0.270711
0.26654
0.262218
0.257739
0.253111
0.248362
0.243552
0.238742
0.233969
0.22924
0.224512
0.219734
0.214886
0.209937
0.204858
0.199625
0.194222
0.18865
0.182907
0.176995
0.170938
0.164767
0.158491
0.152117
0.145685
0.139268
0.132953
0.126824
0.12095
0.115407
0.11027
0.105714
0.101875
0.0992168
0.097859
0.0983212
0.100556
0.104497
2.59808
2.59808
2.59808
2.59808
2.59808
2.59808
2.59808
2.59808
2.59808
2.59808
2.59808
2.59808
2.59808
2.59808
2.59808
2.59803
2.59924
2.39141
1.52018
0.557772
0.52842
0.519439
0.510835
0.502606
0.494621
0.486983
0.479576
0.472463
0.465592
0.459082
0.452853
0.446976
0.441367
0.436109
0.431102
0.426428
0.421974
0.417819
0.413843
0.410124
0.406535
0.403186
0.399938
0.396921
0.393985
0.391171
0.388345
0.385518
0.382698
0.379875
0.377045
0.374202
0.371343
0.368461
0.365553
0.362611
0.359628
0.3566
0.353522
0.350385
0.347197
0.343978
0.340729
0.337452
0.334144
0.330806
0.327442
0.324051
0.320636
0.317193
0.313721
0.310213
0.306672
0.303099
0.299496
0.295873
0.292227
0.288547
0.284812
0.280993
0.277063
0.272998
0.268785
0.26441
0.259858
0.255128
0.250235
0.245251
0.240253
0.235303
0.230434
0.225617
0.220794
0.215928
0.211003
0.205991
0.200871
0.195627
0.190251
0.184734
0.179066
0.173267
0.167366
0.161371
0.155287
0.149163
0.14309
0.137173
0.131513
0.126195
0.12131
0.116927
0.113236
0.110355
0.108772
0.108536
0.110389
0.114275
0.118831
2.59808
2.59808
2.59808
2.59808
2.59808
2.59808
2.59808
2.59808
2.59808
2.59808
2.59808
2.59808
2.59808
2.59808
2.59808
2.59803
2.59865
2.39289
1.52081
0.557334
0.527721
0.518788
0.51023
0.502053
0.494109
0.486521
0.479152
0.472096
0.465277
0.458838
0.452672
0.446871
0.441326
0.436147
0.431207
0.426608
0.422213
0.418112
0.414165
0.410478
0.406903
0.403577
0.400335
0.397331
0.394391
0.391567
0.388725
0.385878
0.383035
0.380192
0.377345
0.374492
0.371626
0.368743
0.365841
0.362909
0.359944
0.356937
0.353884
0.350777
0.347623
0.34444
0.341227
0.337988
0.33472
0.331425
0.328104
0.324757
0.321385
0.317985
0.314551
0.311079
0.307567
0.304022
0.300448
0.296849
0.293228
0.289573
0.28587
0.282091
0.278207
0.274189
0.270023
0.265699
0.261218
0.256573
0.251774
0.246853
0.24187
0.236897
0.231989
0.227151
0.222345
0.217521
0.212641
0.207686
0.202635
0.197483
0.192237
0.186886
0.18142
0.17586
0.170235
0.164548
0.1588
0.15304
0.147373
0.141914
0.136773
0.132044
0.127833
0.1242
0.121335
0.119353
0.118716
0.119561
0.122603
0.128028
0.132986
2.59808
2.59808
2.59808
2.59808
2.59808
2.59808
2.59808
2.59808
2.59808
2.59808
2.59808
2.59808
2.59808
2.59808
2.59808
2.59802
2.59884
2.3921
1.52628
0.558157
0.528238
0.519321
0.510778
0.502625
0.494701
0.487134
0.479777
0.472753
0.465962
0.459566
0.453428
0.447667
0.442144
0.437002
0.432082
0.427515
0.423129
0.419048
0.415102
0.411433
0.40787
0.404564
0.401332
0.39834
0.395411
0.392627
0.389846
0.387049
0.38426
0.381469
0.378671
0.375865
0.373044
0.370205
0.367343
0.364451
0.361522
0.35855
0.35553
0.352453
0.349327
0.346163
0.342964
0.339732
0.336465
0.333165
0.329831
0.326466
0.323071
0.319644
0.316179
0.312674
0.309129
0.305544
0.30193
0.298285
0.294612
0.29091
0.287168
0.283371
0.279489
0.275496
0.271373
0.267104
0.26268
0.258093
0.253355
0.248495
0.243572
0.238659
0.233805
0.229031
0.224304
0.219572
0.214796
0.209945
0.205001
0.199964
0.194848
0.189647
0.184357
0.179006
0.173626
0.168223
0.162797
0.1574
0.152144
0.147154
0.14254
0.138399
0.134848
0.131937
0.129844
0.128692
0.12891
0.130847
0.134928
0.141704
0.147014
2.59808
2.59808
2.59808
2.59808
2.59808
2.59808
2.59808
2.59808
2.59808
2.59808
2.59808
2.59808
2.59808
2.59808
2.59808
2.59793
2.60021
2.38914
1.53501
0.559861
0.529773
0.520902
0.512383
0.504257
0.496349
0.4888
0.481449
0.474445
0.46766
0.461285
0.455156
0.44942
0.443907
0.438797
0.43389
0.429357
0.424985
0.420935
0.417009
0.413373
0.409832
0.406557
0.403345
0.400384
0.397467
0.394699
0.391921
0.389133
0.386353
0.383574
0.380793
0.378005
0.375206
0.372393
0.369561
0.366705
0.363819
0.360894
0.357927
0.35491
0.351847
0.348748
0.345615
0.34245
0.339249
0.336016
0.332749
0.329449
0.326119
0.322752
0.319347
0.315897
0.312402
0.308864
0.305284
0.30166
0.297992
0.294276
0.290509
0.286676
0.282754
0.278717
0.274544
0.27022
0.265727
0.261055
0.256234
0.251291
0.246298
0.241323
0.236421
0.23161
0.226871
0.222158
0.217428
0.212647
0.207795
0.20287
0.197888
0.192845
0.187735
0.182593
0.177455
0.172328
0.167215
0.162169
0.157317
0.152787
0.148682
0.145104
0.142177
0.139951
0.138579
0.138184
0.139336
0.142239
0.147346
0.155236
0.160807
2.59808
2.59808
2.59808
2.59808
2.59808
2.59808
2.59808
2.59808
2.59808
2.59808
2.59808
2.59808
2.59808
2.59808
2.59808
2.59801
2.59966
2.38708
1.54361
0.561007
0.530503
0.521579
0.512999
0.504817
0.496852
0.48927
0.481891
0.474877
0.468071
0.461681
0.455528
0.449797
0.444286
0.439206
0.434318
0.429821
0.425471
0.421461
0.417562
0.413967
0.410458
0.407221
0.404039
0.401112
0.398216
0.395456
0.392683
0.389896
0.387118
0.384344
0.381569
0.378791
0.376006
0.373209
0.370398
0.367568
0.364711
0.361824
0.358899
0.35593
0.352922
0.349878
0.346802
0.343693
0.34055
0.337371
0.334159
0.330914
0.327638
0.324331
0.320987
0.317602
0.314176
0.310714
0.307212
0.303667
0.300074
0.296428
0.292724
0.288955
0.285096
0.281124
0.277019
0.272769
0.268363
0.263794
0.259073
0.254224
0.24931
0.244388
0.239514
0.23471
0.229965
0.225258
0.220558
0.215832
0.211056
0.20623
0.201374
0.196477
0.19154
0.186596
0.181687
0.176819
0.172002
0.167293
0.162841
0.158765
0.155172
0.152166
0.149869
0.148338
0.147652
0.148033
0.150063
0.153856
0.15994
0.168673
0.174391
2.59808
2.59808
2.59808
2.59808
2.59808
2.59808
2.59808
2.59808
2.59808
2.59808
2.59808
2.59808
2.59808
2.59808
2.59808
2.59795
2.59914
2.38765
1.55105
0.56129
0.530471
0.521735
0.513321
0.505291
0.497462
0.490006
0.482744
0.475858
0.469171
0.462923
0.456892
0.451284
0.445856
0.440849
0.435996
0.431526
0.42718
0.423182
0.41928
0.415694
0.412182
0.408954
0.405777
0.40286
0.399972
0.397238
0.394504
0.391748
0.389006
0.386265
0.383525
0.38078
0.378026
0.375261
0.37248
0.369677
0.366851
0.363993
0.3611
0.358163
0.355185
0.352173
0.349126
0.346042
0.342923
0.339768
0.336577
0.333351
0.330091
0.326799
0.323471
0.320102
0.316696
0.313252
0.309771
0.306248
0.30268
0.299059
0.295383
0.291645
0.287826
0.283898
0.279832
0.27562
0.271264
0.266768
0.262139
0.257401
0.2526
0.247783
0.242993
0.238251
0.233556
0.228882
0.224214
0.219531
0.214817
0.21008
0.205339
0.200581
0.195808
0.191066
0.186399
0.181817
0.177335
0.173008
0.169001
0.165417
0.162362
0.159933
0.158246
0.15736
0.157276
0.15841
0.161122
0.165741
0.172742
0.182127
0.187915
2.59808
2.59808
2.59808
2.59808
2.59808
2.59808
2.59808
2.59808
2.59808
2.59808
2.59808
2.59808
2.59808
2.59808
2.59808
2.59799
2.59934
2.38656
1.56208
0.56252
0.531057
0.52236
0.513995
0.506022
0.49825
0.490859
0.483662
0.476855
0.470239
0.46408
0.458124
0.452604
0.447244
0.44232
0.437536
0.433152
0.42888
0.424969
0.421136
0.417622
0.414164
0.410992
0.407859
0.404992
0.402138
0.399448
0.39675
0.394033
0.391326
0.38862
0.385912
0.383199
0.380478
0.377744
0.374996
0.372229
0.369441
0.366626
0.36378
0.360902
0.357993
0.355051
0.352075
0.349064
0.346013
0.34292
0.339782
0.3366
0.333371
0.330099
0.326778
0.323408
0.319992
0.316533
0.313033
0.309494
0.305911
0.302279
0.298593
0.294843
0.291021
0.28711
0.283086
0.278932
0.274644
0.270221
0.265675
0.261029
0.256321
0.25159
0.246873
0.242196
0.237558
0.232944
0.22834
0.223729
0.219102
0.214476
0.209874
0.205283
0.200705
0.196187
0.191775
0.187479
0.183312
0.17934
0.17574
0.172596
0.170017
0.168103
0.166961
0.166612
0.167173
0.168926
0.172288
0.177676
0.185664
0.195569
0.20136
2.59808
2.59808
2.59808
2.59808
2.59808
2.59808
2.59808
2.59808
2.59808
2.59808
2.59808
2.59808
2.59808
2.59808
2.59809
2.59806
2.59955
2.38495
1.57492
0.563916
0.531804
0.523161
0.514857
0.506947
0.499226
0.491883
0.484727
0.477968
0.47139
0.465287
0.459383
0.453937
0.448635
0.443777
0.43904
0.434712
0.430482
0.426619
0.422822
0.419354
0.415928
0.412798
0.409695
0.406863
0.404043
0.401379
0.398708
0.396019
0.393343
0.39067
0.387997
0.385323
0.382643
0.379955
0.377255
0.37454
0.371803
0.369043
0.366255
0.363437
0.360591
0.357715
0.354809
0.351865
0.34888
0.345849
0.34277
0.339641
0.33646
0.333232
0.329955
0.326627
0.32325
0.319829
0.316362
0.312852
0.309302
0.305708
0.302073
0.298386
0.294635
0.290799
0.286847
0.282762
0.278543
0.274189
0.269715
0.265143
0.260507
0.255837
0.251168
0.246522
0.241909
0.23732
0.23275
0.228187
0.223628
0.219094
0.214608
0.210156
0.20574
0.201406
0.197209
0.19316
0.189273
0.185641
0.182439
0.179736
0.177642
0.176267
0.175686
0.175901
0.177148
0.179527
0.183575
0.189699
0.198594
0.20893
0.214604
2.59808
2.59808
2.59808
2.59808
2.59808
2.59808
2.59808
2.59808
2.59808
2.59808
2.59808
2.59808
2.59808
2.59808
2.59808
2.59802
2.59997
2.38232
1.59053
0.565941
0.533091
0.524551
0.516363
0.508581
0.500963
0.493711
0.48662
0.47992
0.473376
0.467304
0.461406
0.455975
0.450676
0.445837
0.441113
0.436808
0.432593
0.428762
0.424992
0.421563
0.418173
0.415088
0.412019
0.409232
0.406448
0.403826
0.401203
0.39856
0.395932
0.393305
0.390679
0.388052
0.385419
0.382776
0.380122
0.377449
0.374756
0.372037
0.369291
0.366515
0.363714
0.360884
0.358023
0.355126
0.352185
0.349196
0.346156
0.343062
0.339916
0.336718
0.333472
0.330175
0.326829
0.323437
0.320001
0.316524
0.313006
0.30945
0.305856
0.302221
0.298531
0.294759
0.290877
0.286866
0.28272
0.278445
0.274055
0.269572
0.265022
0.260433
0.255834
0.251251
0.246698
0.242173
0.237674
0.233187
0.228712
0.224281
0.219922
0.215623
0.211388
0.207267
0.203313
0.199543
0.195962
0.192688
0.18988
0.187601
0.18596
0.185076
0.184977
0.185783
0.187547
0.190521
0.19515
0.20195
0.211613
0.222384
0.227866
2.59808
2.59808
2.59808
2.59808
2.59808
2.59808
2.59808
2.59808
2.59808
2.59808
2.59808
2.59808
2.59808
2.59808
2.59806
2.59794
2.59942
2.38237
1.60596
0.567165
0.533382
0.524888
0.516763
0.509069
0.501536
0.494385
0.487392
0.480832
0.474441
0.468562
0.462853
0.457632
0.452517
0.44785
0.443271
0.439103
0.435
0.43127
0.427584
0.424234
0.420909
0.417889
0.414876
0.412139
0.409398
0.406809
0.404213
0.401599
0.398997
0.396397
0.393797
0.391193
0.388584
0.385963
0.383333
0.38069
0.378034
0.375362
0.372676
0.369973
0.367249
0.364503
0.361728
0.358918
0.356063
0.353156
0.350194
0.347173
0.344089
0.340947
0.337748
0.334496
0.33119
0.327837
0.324439
0.321
0.317523
0.314008
0.31046
0.306872
0.303227
0.299496
0.295653
0.291677
0.287568
0.283332
0.278988
0.274555
0.27006
0.265524
0.260972
0.256431
0.251919
0.247444
0.24301
0.238606
0.234237
0.229933
0.225722
0.22159
0.217545
0.213638
0.209926
0.206423
0.20314
0.20022
0.197791
0.195921
0.194717
0.194282
0.19467
0.195979
0.19824
0.201748
0.206924
0.214381
0.224744
0.235948
0.241202
2.59808
2.59808
2.59808
2.59808
2.59808
2.59808
2.59808
2.59808
2.59808
2.59808
2.59808
2.59808
2.59808
2.59808
2.59808
2.59798
2.59957
2.38179
1.62352
0.568867
0.534116
0.525746
0.517737
0.51017
0.502743
0.495692
0.488785
0.482309
0.475993
0.470197
0.464556
0.459418
0.454375
0.449784
0.445271
0.441178
0.437141
0.433482
0.429861
0.426575
0.423311
0.420348
0.417386
0.414702
0.41201
0.409464
0.406908
0.40434
0.401782
0.39923
0.396678
0.394123
0.391562
0.388989
0.386406
0.383807
0.381192
0.378564
0.375924
0.37327
0.370598
0.36791
0.365197
0.362452
0.359666
0.356833
0.353948
0.351004
0.348001
0.344939
0.341823
0.338655
0.335438
0.332175
0.328871
0.325529
0.322147
0.318728
0.315272
0.311774
0.308213
0.304559
0.300785
0.296871
0.292818
0.288635
0.284343
0.279964
0.275524
0.271037
0.266532
0.262032
0.257556
0.25312
0.248741
0.244414
0.24014
0.235956
0.231885
0.227907
0.224035
0.220322
0.216835
0.213577
0.210578
0.207996
0.205923
0.204438
0.203659
0.203612
0.204538
0.206295
0.209054
0.213065
0.218784
0.226889
0.237889
0.249395
0.254518
2.59808
2.59808
2.59808
2.59808
2.59808
2.59808
2.59808
2.59808
2.59808
2.59808
2.59808
2.59808
2.59808
2.59808
2.59808
2.59803
2.60024
2.37933
1.64621
0.571704
0.535756
0.527421
0.519444
0.511948
0.504598
0.497628
0.49077
0.484327
0.478038
0.47229
0.466699
0.461636
0.456681
0.452193
0.44779
0.443809
0.439883
0.436327
0.432799
0.429593
0.426401
0.4235
0.420596
0.417965
0.415325
0.412827
0.410316
0.407797
0.405281
0.40277
0.400258
0.39774
0.395211
0.392666
0.39011
0.387543
0.384963
0.382372
0.379769
0.377153
0.374521
0.371874
0.369208
0.366512
0.363775
0.360996
0.358166
0.35528
0.352337
0.349334
0.346278
0.343173
0.340022
0.33683
0.333601
0.330338
0.327041
0.323708
0.320336
0.316923
0.313442
0.309867
0.306166
0.302323
0.298334
0.294213
0.289983
0.285665
0.281283
0.276855
0.272403
0.267957
0.263533
0.259147
0.254821
0.250557
0.246367
0.242289
0.238346
0.234514
0.230805
0.227279
0.224007
0.220983
0.218265
0.216006
0.214272
0.213159
0.212758
0.213146
0.214512
0.216726
0.219951
0.224448
0.230688
0.239437
0.251054
0.262786
0.267804
2.59808
2.59808
2.59808
2.59808
2.59808
2.59808
2.59808
2.59808
2.59808
2.59808
2.59808
2.59808
2.59808
2.59808
2.59808
2.59806
2.59993
2.37856
1.67021
0.574278
0.53702
0.528792
0.520913
0.51355
0.50635
0.49956
0.492857
0.486552
0.480385
0.474755
0.469275
0.464325
0.459485
0.455107
0.450812
0.446935
0.443109
0.439644
0.4362
0.433059
0.429924
0.427057
0.424184
0.42157
0.418953
0.416462
0.413952
0.411436
0.408917
0.406398
0.403876
0.401357
0.398839
0.396324
0.393807
0.391285
0.38876
0.386232
0.383693
0.381146
0.378587
0.376015
0.373428
0.370811
0.368154
0.365455
0.362706
0.359902
0.357038
0.354112
0.35113
0.348097
0.345015
0.341893
0.338735
0.335546
0.332325
0.329068
0.325773
0.322434
0.319027
0.315523
0.311892
0.30812
0.304195
0.30014
0.29597
0.291714
0.287391
0.28302
0.278625
0.274238
0.269873
0.265552
0.261297
0.257111
0.253012
0.249045
0.245233
0.24155
0.238005
0.234667
0.231607
0.228809
0.226365
0.224408
0.222993
0.222226
0.222137
0.222978
0.224711
0.227366
0.231011
0.23597
0.242689
0.252053
0.264237
0.276115
0.280991
2.59808
2.59808
2.59808
2.59808
2.59808
2.59808
2.59808
2.59808
2.59808
2.59808
2.59808
2.59808
2.59808
2.59808
2.59808
2.59804
2.5997
2.37902
1.69515
0.576738
0.537914
0.529797
0.52202
0.514771
0.507696
0.501065
0.494512
0.488353
0.482314
0.476817
0.471463
0.466642
0.46193
0.457672
0.453494
0.44972
0.445991
0.442609
0.439239
0.436157
0.433076
0.430252
0.427421
0.424837
0.422253
0.419781
0.417284
0.414787
0.412292
0.409796
0.407305
0.40482
0.402348
0.399888
0.397434
0.394985
0.392545
0.390113
0.387682
0.385247
0.382807
0.380357
0.377894
0.375398
0.372862
0.370286
0.367656
0.36497
0.362218
0.359401
0.356521
0.353581
0.350585
0.347541
0.344455
0.341336
0.338184
0.334995
0.331768
0.328492
0.325148
0.321704
0.318133
0.314421
0.310556
0.306559
0.302444
0.298241
0.293973
0.28966
0.28533
0.281011
0.27672
0.272481
0.268317
0.264226
0.260234
0.256388
0.252709
0.249165
0.245772
0.242606
0.239739
0.23715
0.23496
0.233278
0.232161
0.2317
0.231956
0.233133
0.235232
0.238264
0.242313
0.24769
0.254855
0.264792
0.277489
0.289436
0.294165
2.59808
2.59808
2.59808
2.59808
2.59808
2.59808
2.59808
2.59808
2.59808
2.59808
2.59808
2.59808
2.59808
2.59808
2.59808
2.59806
2.60002
2.37888
1.72463
0.580094
0.539376
0.531366
0.523693
0.516556
0.509611
0.503157
0.496789
0.49081
0.484925
0.479555
0.474317
0.4696
0.464991
0.46082
0.456729
0.45303
0.449376
0.446058
0.442752
0.439727
0.436708
0.433939
0.43117
0.428638
0.426114
0.423677
0.421206
0.418734
0.416267
0.413813
0.41137
0.408941
0.406539
0.404153
0.401778
0.399416
0.397073
0.394744
0.392421
0.390103
0.387784
0.385458
0.383121
0.38075
0.37834
0.375886
0.373376
0.370802
0.36816
0.365445
0.362658
0.3598
0.356875
0.353891
0.350857
0.34778
0.344665
0.341509
0.33831
0.335058
0.331736
0.32831
0.324758
0.321064
0.317218
0.313235
0.309129
0.304932
0.300666
0.296364
0.292053
0.28776
0.283502
0.279311
0.275209
0.271194
0.267297
0.263572
0.260032
0.256646
0.253433
0.250477
0.247837
0.245505
0.243619
0.242246
0.241475
0.241307
0.241983
0.243503
0.245988
0.249393
0.253839
0.259613
0.267205
0.277677
0.290836
0.302781
0.307334
2.59808
2.59808
2.59808
2.59808
2.59808
2.59808
2.59808
2.59808
2.59808
2.59808
2.59808
2.59808
2.59808
2.59808
2.59808
2.59808
2.60019
2.37931
1.75746
0.583846
0.540985
0.533059
0.525447
0.51836
0.511485
0.50515
0.498928
0.493108
0.487354
0.482072
0.476898
0.47222
0.467646
0.463494
0.45943
0.455739
0.452095
0.448779
0.445486
0.44248
0.439495
0.436774
0.434075
0.43162
0.429194
0.426853
0.424494
0.422155
0.419842
0.417556
0.415286
0.413046
0.410839
0.408646
0.40646
0.404285
0.402123
0.399966
0.397808
0.395651
0.393483
0.3913
0.38909
0.386839
0.384542
0.382195
0.379789
0.377317
0.374773
0.372152
0.369448
0.366661
0.363791
0.360844
0.357833
0.354769
0.351662
0.348514
0.34532
0.342076
0.338765
0.335358
0.331832
0.328172
0.324366
0.320423
0.316356
0.312194
0.307965
0.303707
0.29945
0.295215
0.291025
0.286912
0.282895
0.278971
0.275178
0.27157
0.26816
0.264904
0.261836
0.259047
0.256585
0.254462
0.25282
0.251708
0.251202
0.251324
0.252311
0.254159
0.25698
0.260743
0.265557
0.271711
0.279711
0.290697
0.304278
0.316171
0.320565
2.59808
2.59808
2.59808
2.59808
2.59808
2.59808
2.59808
2.59808
2.59808
2.59808
2.59808
2.59808
2.59808
2.59808
2.59808
2.59808
2.6001
2.38084
1.79327
0.587981
0.542567
0.534776
0.527309
0.52035
0.5136
0.507404
0.501343
0.495701
0.490102
0.48493
0.479837
0.475223
0.470723
0.466634
0.46265
0.459024
0.455465
0.452229
0.449037
0.446129
0.443266
0.440659
0.438095
0.435761
0.433472
0.431263
0.429046
0.426858
0.424708
0.422588
0.42049
0.418418
0.416367
0.414321
0.412283
0.410248
0.408214
0.406173
0.404126
0.402068
0.399992
0.397891
0.395754
0.393567
0.391331
0.389045
0.386702
0.384295
0.381816
0.37926
0.37662
0.373891
0.371069
0.368159
0.36517
0.362113
0.359008
0.355858
0.352661
0.349414
0.346104
0.342707
0.339203
0.335573
0.331804
0.327896
0.323863
0.319727
0.315528
0.311302
0.30708
0.302888
0.298745
0.294689
0.290735
0.286884
0.28318
0.279684
0.276398
0.273278
0.270363
0.267755
0.265477
0.263588
0.26219
0.261357
0.261078
0.261547
0.262809
0.264987
0.268128
0.27224
0.277405
0.283934
0.292337
0.303822
0.317786
0.329592
0.333823
2.59808
2.59808
2.59808
2.59808
2.59808
2.59808
2.59808
2.59808
2.59808
2.59808
2.59808
2.59808
2.59808
2.59808
2.59808
2.59806
2.59986
2.38381
1.83098
0.59228
0.543832
0.536135
0.528786
0.521924
0.515272
0.509197
0.503291
0.497854
0.492485
0.487549
0.482682
0.478276
0.473979
0.470071
0.466281
0.462818
0.459441
0.456358
0.453346
0.450596
0.447918
0.44547
0.443091
0.440909
0.438789
0.436731
0.434668
0.432636
0.430635
0.428654
0.426688
0.424737
0.422787
0.42083
0.418869
0.416897
0.414913
0.412918
0.410909
0.408887
0.406846
0.404783
0.402689
0.400556
0.398377
0.396152
0.393872
0.391529
0.389117
0.386627
0.384055
0.381389
0.378623
0.375758
0.372801
0.369764
0.366666
0.363517
0.360316
0.357063
0.35375
0.350362
0.346877
0.343279
0.339551
0.335683
0.331689
0.327594
0.323437
0.319257
0.315084
0.310944
0.306857
0.302858
0.298959
0.295165
0.291536
0.288131
0.284948
0.281943
0.27916
0.276713
0.274603
0.272934
0.271767
0.271187
0.271132
0.271894
0.27344
0.27592
0.279372
0.283811
0.289315
0.296197
0.304993
0.316973
0.331307
0.343014
0.347138
2.59808
2.59808
2.59808
2.59808
2.59808
2.59808
2.59808
2.59808
2.59808
2.59808
2.59808
2.59808
2.59808
2.59808
2.59808
2.59804
2.59996
2.3873
1.87492
0.597744
0.545689
0.5381
0.53091
0.524197
0.517732
0.511868
0.506223
0.501068
0.496008
0.491346
0.486733
0.482537
0.478456
0.474725
0.471141
0.467841
0.464664
0.461759
0.458961
0.456394
0.453926
0.451646
0.449451
0.447406
0.445441
0.443492
0.441521
0.439575
0.437649
0.435733
0.433827
0.43192
0.430004
0.428077
0.426136
0.424181
0.422209
0.420224
0.418229
0.416223
0.414204
0.412164
0.410093
0.407984
0.405835
0.403641
0.401396
0.399093
0.396722
0.394281
0.391757
0.389143
0.386427
0.383605
0.380681
0.377665
0.374573
0.371423
0.368211
0.364938
0.361604
0.358201
0.354708
0.35111
0.347386
0.343526
0.339538
0.335458
0.331321
0.327167
0.323032
0.318941
0.314914
0.310983
0.307154
0.303438
0.299907
0.296619
0.293562
0.290692
0.288064
0.285795
0.283877
0.282435
0.281516
0.281161
0.281406
0.282398
0.284234
0.286993
0.290747
0.295492
0.301319
0.308535
0.317715
0.330176
0.344834
0.356419
0.36043
2.59808
2.59808
2.59808
2.59808
2.59808
2.59808
2.59808
2.59808
2.59808
2.59808
2.59808
2.59808
2.59808
2.59808
2.59808
2.59788
2.59883
2.39372
1.91893
0.603021
0.546803
0.539599
0.532929
0.526773
0.52082
0.515317
0.509991
0.505067
0.500236
0.495791
0.491388
0.487332
0.483391
0.479763
0.476316
0.473165
0.470175
0.467439
0.464841
0.462435
0.460151
0.458005
0.455967
0.454021
0.452177
0.450298
0.448373
0.446462
0.44456
0.442665
0.440773
0.43888
0.436978
0.435068
0.433147
0.431212
0.429264
0.427304
0.425338
0.423367
0.42139
0.419396
0.417377
0.415324
0.413235
0.411105
0.408925
0.406688
0.404389
0.402018
0.399572
0.397037
0.3944
0.391655
0.388804
0.385849
0.382806
0.379695
0.376516
0.373267
0.369956
0.36658
0.363126
0.359575
0.355906
0.3521
0.348163
0.344133
0.340042
0.33593
0.331837
0.327789
0.323805
0.319913
0.316114
0.312428
0.308943
0.30572
0.302736
0.29995
0.297431
0.295291
0.29354
0.292286
0.291598
0.291417
0.291941
0.293151
0.295254
0.298272
0.302308
0.307338
0.313466
0.320989
0.330525