/*--------------------------------*- C++ -*----------------------------------*\
| =========                 |                                                 |
| \\      /  F ield         | OpenFOAM: The Open Source CFD Toolbox           |
|  \\    /   O peration     | Version:  2.2.x                                 |
|   \\  /    A nd           | Web:      www.OpenFOAM.org                      |
|    \\/     M anipulation  |                                                 |
\*---------------------------------------------------------------------------*/
FoamFile
{
    version     2.0;
    format      ascii;
    class       volScalarField;
    location    "2.6";
    object      rho;
}
// * * * * * * * * * * * * * * * * * * * * * * * * * * * * * * * * * * * * * //

dimensions      [1 -3 0 0 0 0 0];

internalField   nonuniform List<scalar> 
14161
(
1
1
1
1
1
1
1
1
1
1
1
1
1
1
1
0.997403
1.00205
1.01953
1.46322
2.72967
2.78695
2.79975
2.81239
2.82349
2.83365
2.84316
2.85245
2.86152
2.87012
2.87786
2.88489
2.8914
2.89752
2.90324
2.90867
2.91379
2.91857
2.92301
2.92724
2.93117
2.93502
2.93864
2.94224
2.94563
2.94905
2.95232
2.95576
2.95916
2.96256
2.96593
2.96929
2.97264
2.97597
2.97931
2.98265
2.986
2.98937
2.99277
2.9962
2.99968
3.00318
3.00665
3.01009
3.01352
3.01695
3.02039
3.0238
3.02717
3.03048
3.03376
3.03699
3.04022
3.04348
3.04675
3.05003
3.05331
3.05663
3.06002
3.06348
3.06675
3.06999
3.07322
3.07643
3.07967
3.08301
3.0865
3.09022
3.09418
3.09842
3.10285
3.10699
3.11063
3.11396
3.11709
3.12015
3.12322
3.12634
3.12955
3.1329
3.13642
3.14007
3.14374
3.14741
3.15108
3.15448
3.15716
3.15886
3.15978
3.16034
3.1609
3.16179
3.16353
3.16665
3.17034
3.17292
3.17437
3.17506
3.17512
3.17558
1
1
1
1
1
1
1
1
1
1
1
1
1
1
1
1.0011
0.996655
1.01429
1.46403
2.73116
2.78681
2.79935
2.81192
2.82321
2.83357
2.84322
2.85262
2.86174
2.87035
2.8781
2.88512
2.89163
2.89774
2.90345
2.90888
2.91399
2.91876
2.92319
2.92741
2.93133
2.93517
2.93877
2.94236
2.94573
2.94915
2.95241
2.95584
2.95924
2.96263
2.96599
2.96935
2.97268
2.97602
2.97934
2.98268
2.98603
2.9894
2.99279
2.99622
2.9997
3.0032
3.00666
3.0101
3.01352
3.01694
3.02037
3.02377
3.02713
3.03043
3.03369
3.03693
3.04017
3.04345
3.04673
3.05001
3.0533
3.05663
3.06004
3.06347
3.06678
3.06996
3.07317
3.07637
3.07961
3.08293
3.08641
3.09011
3.09406
3.09828
3.1027
3.10683
3.11046
3.11378
3.11692
3.12001
3.12311
3.12624
3.12946
3.1328
3.1363
3.13993
3.1436
3.14728
3.15096
3.15436
3.15704
3.15876
3.15967
3.16022
3.16078
3.16165
3.16337
3.16645
3.17012
3.17271
3.17421
3.17495
3.1753
3.17562
1
1
1
1
1
1
1
1
1
1
1
1
1
1
0.999999
1.00103
0.997373
1.01326
1.4638
2.72749
2.78405
2.79646
2.80894
2.82056
2.83139
2.84139
2.85105
2.86026
2.86895
2.87682
2.88397
2.89061
2.89682
2.90263
2.90814
2.9133
2.91811
2.92257
2.92683
2.93079
2.93466
2.93831
2.94193
2.94535
2.94877
2.95206
2.95551
2.95892
2.96232
2.96569
2.96905
2.97239
2.97573
2.97906
2.9824
2.98576
2.98913
2.99252
2.99594
2.99942
3.00291
3.00637
3.00981
3.01322
3.01663
3.02004
3.02343
3.02679
3.0301
3.03337
3.03662
3.03989
3.04318
3.04647
3.04977
3.05308
3.05644
3.05987
3.0633
3.0666
3.06982
3.07302
3.07619
3.07943
3.08275
3.08622
3.08991
3.09382
3.09802
3.10241
3.10652
3.11015
3.11347
3.11663
3.11973
3.12283
3.12597
3.12918
3.13251
3.13599
3.13961
3.14327
3.14693
3.15059
3.15397
3.15662
3.1583
3.15917
3.15968
3.16017
3.16098
3.16262
3.1656
3.16918
3.17166
3.173
3.17358
3.17373
3.17405
1
1
1
1
1
1
1
1
1
1
1
1
1
1
0.999999
1.00066
0.998497
1.01423
1.4647
2.72432
2.782
2.79438
2.80661
2.81823
2.82928
2.83944
2.84927
2.85846
2.86719
2.87514
2.88242
2.88918
2.89548
2.90137
2.90693
2.9121
2.91695
2.92147
2.92577
2.92981
2.93375
2.93747
2.94115
2.94463
2.94811
2.95144
2.95491
2.95833
2.96173
2.96511
2.96848
2.97183
2.97518
2.97853
2.98189
2.98526
2.98863
2.99203
2.99546
2.99893
3.00242
3.00588
3.0093
3.0127
3.01609
3.01947
3.02284
3.02618
3.02949
3.03277
3.03604
3.03934
3.04267
3.04601
3.04936
3.05274
3.05615
3.05963
3.06307
3.06638
3.0696
3.07277
3.07595
3.07921
3.08253
3.08598
3.08962
3.09349
3.09762
3.10196
3.10606
3.10969
3.11302
3.11618
3.11927
3.12236
3.12549
3.1287
3.13201
3.13547
3.13907
3.14272
3.14638
3.15003
3.15339
3.15601
3.15765
3.15849
3.15894
3.15939
3.16013
3.1617
3.1646
3.1681
3.17049
3.17174
3.17225
3.17228
3.17243
1
1
1
1
1
1
1
1
1
1
1
1
1
1
0.999999
1.00033
0.999172
1.01418
1.46557
2.72349
2.78158
2.79396
2.80603
2.81749
2.8285
2.8386
2.84834
2.8574
2.86605
2.87397
2.88128
2.88807
2.89438
2.90024
2.90573
2.91084
2.91569
2.92022
2.92455
2.92863
2.93263
2.9364
2.94013
2.94366
2.94718
2.95054
2.95402
2.95745
2.96087
2.96426
2.96765
2.97102
2.97439
2.97776
2.98112
2.9845
2.98788
2.99128
2.99471
2.99819
3.00167
3.00512
3.00853
3.01191
3.01526
3.01859
3.02192
3.02523
3.02854
3.03184
3.03517
3.03852
3.04193
3.04535
3.04879
3.05226
3.05578
3.05934
3.06278
3.06608
3.06926
3.07239
3.07553
3.07872
3.08199
3.0854
3.08898
3.09277
3.09681
3.10106
3.10517
3.10887
3.11225
3.11546
3.1186
3.12172
3.12487
3.12807
3.13138
3.13482
3.13839
3.14203
3.14567
3.14929
3.15261
3.15518
3.15676
3.15754
3.15795
3.15833
3.159
3.16049
3.1633
3.16664
3.1688
3.1698
3.17013
3.16998
3.16975
1
1
1
1
1
1
1
1
1
1
1
1
1
1
1
1.00014
0.99954
1.01399
1.4659
2.72408
2.78224
2.79427
2.80598
2.81729
2.82824
2.83834
2.84801
2.857
2.86558
2.87347
2.88081
2.88759
2.8939
2.89972
2.90514
2.91018
2.91496
2.91947
2.92378
2.92787
2.93187
2.93566
2.9394
2.94292
2.94642
2.94979
2.95325
2.95668
2.96009
2.96349
2.96688
2.97026
2.97363
2.977
2.98036
2.98372
2.9871
2.9905
2.99393
2.99739
3.00087
3.0043
3.00768
3.01103
3.01434
3.01763
3.0209
3.02418
3.02747
3.03078
3.03413
3.03753
3.04099
3.0445
3.04805
3.05164
3.0553
3.05894
3.06239
3.06567
3.06881
3.07189
3.07498
3.07811
3.08134
3.08468
3.08818
3.09186
3.09577
3.09991
3.10403
3.10782
3.11129
3.11457
3.11777
3.12093
3.12411
3.12733
3.13063
3.13405
3.13758
3.14118
3.14479
3.14837
3.15163
3.15411
3.1556
3.1563
3.15663
3.15694
3.15754
3.15894
3.16164
3.16482
3.16673
3.16751
3.16772
3.16744
3.16675
1
1
1
1
1
1
1
1
1
1
1
1
1
1
1
0.999993
1.00011
1.01415
1.46529
2.72427
2.78307
2.7951
2.80666
2.81775
2.8285
2.83849
2.84804
2.85698
2.8655
2.87333
2.88066
2.88738
2.89367
2.89945
2.90484
2.90981
2.91455
2.91901
2.92329
2.92737
2.93136
2.93516
2.9389
2.94243
2.94592
2.94928
2.95272
2.95614
2.95954
2.96292
2.96629
2.96964
2.97299
2.97632
2.97965
2.98299
2.98634
2.98972
2.99313
2.99659
3.00005
3.00346
3.00683
3.01015
3.01344
3.0167
3.01996
3.02321
3.02649
3.02979
3.03314
3.03655
3.04003
3.04358
3.04719
3.05087
3.05465
3.05835
3.06181
3.06507
3.06819
3.07122
3.07424
3.07731
3.08045
3.08371
3.08711
3.09069
3.09446
3.09844
3.10253
3.10644
3.11
3.11337
3.11663
3.11986
3.1231
3.12636
3.12968
3.13309
3.1366
3.14017
3.14375
3.14728
3.15045
3.15282
3.15419
3.15479
3.15502
3.15524
3.15574
3.15706
3.15965
3.16261
3.16423
3.16477
3.16476
3.16406
3.16283
1
1
1
1
1
1
1
1
1
1
1
1
1
1
0.999997
1.00002
1.00013
1.01419
1.46446
2.72417
2.78343
2.79566
2.80732
2.8184
2.82906
2.83893
2.84836
2.85719
2.86557
2.87323
2.88044
2.88705
2.89333
2.89912
2.90457
2.90955
2.9143
2.91874
2.92295
2.927
2.93095
2.93472
2.93842
2.94193
2.94537
2.94873
2.95214
2.95553
2.9589
2.96226
2.9656
2.96894
2.97226
2.97558
2.9789
2.98222
2.98556
2.98893
2.99232
2.99575
2.9992
3.00259
3.00594
3.00925
3.01252
3.01578
3.01903
3.02229
3.02557
3.02889
3.03226
3.0357
3.03921
3.0428
3.04648
3.05023
3.0541
3.05786
3.06135
3.06461
3.06769
3.07066
3.07358
3.07652
3.07954
3.08265
3.08591
3.08933
3.09295
3.09679
3.10081
3.10475
3.1084
3.11184
3.11518
3.11848
3.12177
3.12509
3.12844
3.13186
3.13536
3.13891
3.14247
3.14595
3.14902
3.15126
3.15251
3.15298
3.1531
3.15321
3.1536
3.15482
3.15728
3.15996
3.16125
3.16157
3.16133
3.16014
3.15833
1
1
1
1
1
1
1
1
1
1
1
1
1
1
1
1.00003
0.999703
1.01415
1.4633
2.72309
2.7823
2.79451
2.80618
2.81727
2.82801
2.83802
2.84763
2.8566
2.8651
2.87284
2.8801
2.88671
2.89298
2.89872
2.90415
2.90911
2.91387
2.91833
2.92258
2.92665
2.93058
2.93433
2.93798
2.94147
2.94488
2.94823
2.95161
2.95497
2.95832
2.96165
2.96497
2.96828
2.97159
2.9749
2.9782
2.98152
2.98484
2.98819
2.99156
2.99497
2.99838
3.00174
3.00506
3.00833
3.01156
3.01478
3.01799
3.02121
3.02445
3.02774
3.03108
3.0345
3.038
3.04159
3.04527
3.04905
3.05295
3.05674
3.06025
3.0635
3.06654
3.06945
3.0723
3.07517
3.0781
3.08114
3.08434
3.08769
3.09123
3.09498
3.09894
3.10291
3.10665
3.11018
3.11358
3.11693
3.12027
3.12361
3.12698
3.13039
3.13386
3.13738
3.14092
3.14434
3.14732
3.14942
3.15051
3.15085
3.15086
3.15085
3.15113
3.15225
3.15455
3.15691
3.15789
3.15794
3.15729
3.15566
3.15311
1
1
1
1
1
1
1
1
1
1
1
1
1
1
1
1.00003
0.999723
1.01444
1.46143
2.72125
2.78136
2.79388
2.80574
2.81692
2.82768
2.8377
2.84732
2.85631
2.86484
2.87259
2.8799
2.88652
2.89281
2.89853
2.90398
2.90892
2.91365
2.91808
2.9223
2.92632
2.93018
2.93389
2.93748
2.94091
2.94428
2.94758
2.95091
2.95424
2.95754
2.96083
2.9641
2.96737
2.97063
2.9739
2.97717
2.98044
2.98372
2.98702
2.99034
2.99369
2.99705
3.00036
3.00363
3.00685
3.01004
3.0132
3.01636
3.01952
3.02271
3.02594
3.02923
3.03259
3.03606
3.03961
3.04328
3.04706
3.05098
3.05481
3.05838
3.06167
3.06474
3.06766
3.07051
3.07337
3.07627
3.07926
3.08238
3.08567
3.08915
3.09286
3.0968
3.10086
3.1047
3.10832
3.1118
3.11521
3.11859
3.12195
3.12531
3.12869
3.13212
3.1356
3.1391
3.14246
3.14531
3.14726
3.14819
3.14837
3.14828
3.14815
3.14835
3.14936
3.15147
3.15348
3.15415
3.15391
3.15271
3.15059
3.14736
1
1
1
1
1
1
1
1
1
1
1
1
1
1
1
1.00001
0.999788
1.01441
1.45846
2.72013
2.78115
2.79373
2.80562
2.81679
2.82747
2.83744
2.84701
2.85599
2.86452
2.87226
2.87961
2.88625
2.89257
2.8983
2.90377
2.90871
2.91344
2.91785
2.92205
2.92605
2.92988
2.93356
2.9371
2.94052
2.94382
2.9471
2.95036
2.95365
2.9569
2.96014
2.96336
2.96658
2.96979
2.97301
2.97623
2.97945
2.98269
2.98595
2.98924
2.99256
2.99589
2.9992
3.00247
3.00571
3.00892
3.01212
3.0153
3.01849
3.02169
3.02493
3.02821
3.03156
3.03497
3.03848
3.04208
3.04578
3.04961
3.05339
3.05693
3.0602
3.06325
3.06613
3.06894
3.07173
3.07456
3.07748
3.08051
3.08371
3.08709
3.0907
3.09457
3.09862
3.10252
3.10621
3.10977
3.11325
3.11667
3.12005
3.12341
3.12677
3.13016
3.13359
3.13705
3.14033
3.14304
3.1448
3.14553
3.14556
3.14534
3.14509
3.14521
3.1461
3.148
3.14963
3.14997
3.14934
3.14761
3.14491
3.14094
1
1
1
1
1
1
1
1
1
1
1
1
1
1
1
0.999985
1.00004
1.01438
1.45505
2.72031
2.78157
2.79392
2.80572
2.81684
2.82745
2.83735
2.84685
2.85578
2.86427
2.87196
2.8793
2.88593
2.89224
2.89795
2.90343
2.90837
2.91309
2.91747
2.92164
2.92561
2.9294
2.93304
2.93654
2.93992
2.94319
2.94643
2.94967
2.95293
2.95615
2.95936
2.96254
2.96571
2.96888
2.97204
2.97521
2.97839
2.98157
2.98477
2.988
2.99127
2.99456
2.99782
3.00107
3.00428
3.00748
3.01067
3.01384
3.01701
3.02019
3.02339
3.02664
3.02993
3.03328
3.0367
3.04021
3.04381
3.04752
3.05124
3.05476
3.05802
3.06108
3.06399
3.06682
3.06963
3.07249
3.07543
3.07846
3.08163
3.08498
3.08853
3.09231
3.09631
3.10022
3.10394
3.10755
3.11106
3.11451
3.11789
3.12124
3.12458
3.12793
3.13133
3.13474
3.13792
3.14047
3.14202
3.14252
3.14243
3.14203
3.14166
3.1417
3.14246
3.14414
3.14534
3.14527
3.14425
3.14196
3.13865
3.13385
1
1
1
1
1
1
1
1
1
1
1
1
1
1
1
1.00002
0.999928
1.01436
1.45103
2.71994
2.78176
2.79385
2.80541
2.81639
2.82684
2.83666
2.84606
2.85496
2.86341
2.87112
2.87849
2.88512
2.89142
2.89713
2.90258
2.9075
2.91218
2.91655
2.92069
2.92463
2.92838
2.93198
2.93543
2.93878
2.94202
2.94522
2.94843
2.95166
2.95484
2.958
2.96113
2.96425
2.96735
2.97046
2.97356
2.97667
2.97978
2.98291
2.98607
2.98926
2.99249
2.9957
2.9989
3.00208
3.00525
3.00841
3.01156
3.0147
3.01785
3.02102
3.02423
3.02748
3.03078
3.03416
3.03761
3.04115
3.0448
3.04848
3.052
3.05531
3.05841
3.06136
3.06422
3.06707
3.06995
3.07291
3.07597
3.07917
3.08252
3.08608
3.08985
3.09381
3.09774
3.1015
3.10513
3.10866
3.1121
3.11547
3.1188
3.12212
3.12545
3.12882
3.13219
3.13526
3.13763
3.13894
3.13922
3.13901
3.13844
3.13795
3.13791
3.13856
3.13996
3.14069
3.14019
3.13875
3.13585
3.13196
3.12625
1
1
1
1
1
1
1
1
1
1
1
1
1
1
0.999999
0.999996
0.999856
1.01459
1.44557
2.718
2.78129
2.79346
2.80502
2.81601
2.82639
2.83616
2.8455
2.85439
2.86284
2.87056
2.87793
2.88454
2.89081
2.8965
2.9019
2.90681
2.91148
2.91583
2.91997
2.9239
2.92764
2.93124
2.93466
2.93798
2.94115
2.94433
2.94745
2.95062
2.95373
2.95681
2.95987
2.96291
2.96594
2.96897
2.972
2.97503
2.97808
2.98115
2.98425
2.9874
2.99058
2.99376
2.99695
3.00014
3.00332
3.00647
3.0096
3.01272
3.01583
3.01895
3.02209
3.02527
3.0285
3.03179
3.03515
3.03859
3.04214
3.04573
3.0492
3.05249
3.0556
3.05856
3.06144
3.06432
3.06722
3.07019
3.07327
3.07649
3.07986
3.08342
3.08719
3.09113
3.09506
3.09882
3.10246
3.106
3.10944
3.11279
3.1161
3.11939
3.12269
3.12604
3.12934
3.13229
3.13446
3.13551
3.1356
3.13525
3.13448
3.13386
3.13373
3.13431
3.13534
3.13545
3.13471
3.13278
3.12927
3.12483
3.11816
1
1
1
1
1
1
1
1
1
1
1
1
1
1
1
1.00001
0.999885
1.01465
1.43932
2.71596
2.78083
2.79314
2.80474
2.8157
2.826
2.83568
2.84491
2.85374
2.86214
2.86982
2.87716
2.88375
2.89
2.89569
2.90107
2.90596
2.91061
2.91494
2.91906
2.92297
2.92668
2.93026
2.93364
2.93693
2.94006
2.94317
2.94623
2.94933
2.95235
2.95535
2.95832
2.96127
2.96421
2.96714
2.97008
2.97303
2.976
2.979
2.98203
2.98512
2.98825
2.9914
2.99457
2.99777
3.00096
3.00411
3.00723
3.01033
3.0134
3.01647
3.01956
3.02268
3.02584
3.02905
3.03233
3.03569
3.03914
3.04265
3.04607
3.04935
3.05247
3.05546
3.05837
3.06128
3.06422
3.06722
3.07034
3.07359
3.07699
3.08056
3.08432
3.08823
3.09212
3.09587
3.09949
3.10301
3.10642
3.10975
3.11304
3.11631
3.11959
3.12291
3.12615
3.12898
3.13092
3.13169
3.13165
3.13111
3.13014
3.12938
3.12918
3.12961
3.13015
3.12986
3.12871
3.12624
3.12205
3.11711
3.10939
1
1
1
1
1
1
1
1
1
1
1
1
1
1
1
1.00002
0.999932
1.01475
1.43246
2.71456
2.78087
2.79315
2.80468
2.81554
2.82573
2.83531
2.84443
2.85317
2.86148
2.86911
2.87638
2.88291
2.88912
2.89479
2.90016
2.90504
2.90967
2.91398
2.91808
2.92196
2.92565
2.92919
2.93253
2.93576
2.93882
2.94188
2.94486
2.94787
2.95081
2.95371
2.95658
2.95944
2.96228
2.96512
2.96796
2.97082
2.9737
2.97661
2.97957
2.98258
2.98564
2.98875
2.9919
2.99509
2.99828
3.00143
3.00454
3.00761
3.01065
3.01368
3.01671
3.01976
3.02285
3.02599
3.02918
3.03244
3.03579
3.03923
3.04263
3.0459
3.04904
3.05206
3.05502
3.05797
3.06096
3.06402
3.06719
3.07048
3.07392
3.07751
3.08126
3.08514
3.08897
3.09268
3.09628
3.09977
3.10316
3.10647
3.10974
3.113
3.11626
3.11955
3.12271
3.12537
3.12704
3.12753
3.12735
3.12659
3.1254
3.12452
3.12427
3.12448
3.12447
3.12391
3.12229
3.11926
3.11433
3.10893
3.10015
1
1
1
1
1
1
1
1
1
1
1
1
1
1
0.999999
1
0.999953
1.01476
1.42494
2.71332
2.78112
2.79326
2.80466
2.81537
2.82543
2.83487
2.84386
2.85247
2.86066
2.86819
2.87534
2.88181
2.88795
2.89363
2.89898
2.90387
2.90852
2.91284
2.91694
2.92083
2.9245
2.92802
2.93132
2.9345
2.93749
2.94048
2.94337
2.94629
2.94913
2.95193
2.9547
2.95745
2.96019
2.96292
2.96567
2.96843
2.97123
2.97406
2.97694
2.97988
2.98289
2.98596
2.98908
2.99227
2.99547
2.99862
3.00172
3.00476
3.00776
3.01074
3.01371
3.01669
3.01969
3.02274
3.02584
3.029
3.03224
3.03559
3.03895
3.04222
3.04536
3.04839
3.05138
3.05437
3.0574
3.06052
3.06374
3.06708
3.07055
3.07416
3.07792
3.08175
3.08551
3.08916
3.0927
3.09613
3.09948
3.10277
3.10602
3.10925
3.1125
3.11576
3.11885
3.12134
3.12275
3.123
3.12271
3.12175
3.12035
3.11939
3.11908
3.1189
3.11851
3.11754
3.11546
3.11187
3.10615
3.10026
3.09047
1
1
1
1
1
1
1
1
1
1
1
1
1
1
0.999999
0.999992
0.999829
1.01492
1.41582
2.71082
2.78049
2.79252
2.8038
2.81442
2.82436
2.83372
2.84262
2.85118
2.85933
2.86683
2.87397
2.88041
2.88654
2.89219
2.89754
2.90243
2.90709
2.91141
2.91552
2.9194
2.92306
2.92655
2.9298
2.93291
2.93584
2.93874
2.94153
2.94434
2.94707
2.94976
2.95241
2.95505
2.95767
2.9603
2.96295
2.96562
2.96833
2.97108
2.97389
2.97677
2.97973
2.98276
2.98588
2.98908
2.9923
2.99545
2.99853
3.00155
3.00451
3.00744
3.01036
3.01327
3.0162
3.01916
3.02218
3.02525
3.0284
3.03165
3.03499
3.03826
3.04142
3.04448
3.0475
3.05053
3.05362
3.05679
3.06006
3.06345
3.06695
3.07058
3.07432
3.07808
3.08176
3.08533
3.0888
3.09219
3.09551
3.09877
3.102
3.10522
3.10845
3.11168
3.11468
3.11698
3.1181
3.11817
3.11772
3.11652
3.11493
3.1139
3.11339
3.11287
3.11211
3.11072
3.10814
3.10399
3.09746
3.091
3.08021
1
1
1
1
1
1
1
1
1
1
1
1
1
1
1
1
0.999852
1.01501
1.40598
2.70793
2.78011
2.79202
2.80316
2.81369
2.82356
2.83288
2.84171
2.8502
2.85826
2.86569
2.87276
2.87913
2.88519
2.89078
2.89608
2.90095
2.90558
2.90989
2.91399
2.91786
2.92148
2.92492
2.9281
2.93114
2.93397
2.93678
2.93946
2.94215
2.94476
2.94732
2.94986
2.95238
2.95489
2.95741
2.95995
2.96252
2.96514
2.9678
2.97053
2.97334
2.97623
2.97922
2.98232
2.98551
2.98872
2.99186
2.99491
2.99789
3.0008
3.00368
3.00653
3.00937
3.01223
3.01513
3.01807
3.02106
3.02414
3.02732
3.03062
3.03392
3.03711
3.04022
3.04329
3.04639
3.04954
3.05277
3.0561
3.05954
3.06308
3.06672
3.07043
3.07411
3.07769
3.08118
3.08459
3.08792
3.0912
3.09443
3.09764
3.10083
3.10403
3.10723
3.11011
3.11218
3.113
3.11295
3.11229
3.11085
3.10912
3.10798
3.10715
3.10637
3.10524
3.1034
3.10029
3.09557
3.08827
3.08123
3.06949
1
1
1
1
1
1
1
1
1
1
1
1
1
1
1
1.00001
0.999952
1.01497
1.39497
2.70528
2.78
2.79162
2.80255
2.81293
2.82268
2.83188
2.8406
2.84898
2.85693
2.8643
2.87127
2.87759
2.88361
2.88919
2.89447
2.89935
2.90398
2.90829
2.91239
2.91621
2.91978
2.92316
2.92625
2.9292
2.93193
2.93462
2.93718
2.93972
2.9422
2.94463
2.94704
2.94943
2.95183
2.95423
2.95667
2.95914
2.96166
2.96425
2.9669
2.96965
2.97249
2.97545
2.97853
2.98172
2.98492
2.98802
2.99104
2.99397
2.99683
2.99965
3.00243
3.00521
3.00799
3.0108
3.01366
3.01658
3.01958
3.02268
3.02592
3.02923
3.03247
3.03563
3.03875
3.04191
3.04513
3.04842
3.05181
3.0553
3.05887
3.06252
3.06619
3.06977
3.07326
3.07667
3.08002
3.08331
3.08655
3.08975
3.09292
3.09607
3.09924
3.10238
3.10513
3.10693
3.10747
3.1073
3.10643
3.10476
3.10291
3.10156
3.10046
3.0994
3.0979
3.09561
3.09194
3.08663
3.07857
3.07099
3.05824
1
1
1
1
1
1
1
1
1
1
1
1
1
1
0.999999
1
0.999865
1.01507
1.38284
2.70237
2.77998
2.79129
2.80197
2.81219
2.8218
2.83086
2.83944
2.8477
2.85552
2.8628
2.86967
2.87593
2.88189
2.88743
2.89268
2.89755
2.90218
2.90647
2.91053
2.91428
2.91778
2.92105
2.92404
2.92688
2.92947
2.93203
2.93444
2.93684
2.93917
2.94146
2.94373
2.946
2.94827
2.95056
2.95287
2.95522
2.95763
2.96015
2.96276
2.96548
2.96831
2.97126
2.97434
2.97755
2.98074
2.98382
2.98681
2.9897
2.99252
2.99529
2.99802
3.00074
3.00347
3.00622
3.00901
3.01186
3.01479
3.01782
3.021
3.02429
3.02757
3.03077
3.03394
3.03714
3.04041
3.04376
3.0472
3.05073
3.05433
3.05798
3.06157
3.06507
3.06848
3.07182
3.07511
3.07835
3.08155
3.08472
3.08785
3.09097
3.09411
3.0972
3.09979
3.10133
3.10163
3.10134
3.10025
3.09837
3.09639
3.09471
3.09344
3.09199
3.09012
3.08736
3.08313
3.07721
3.06841
3.06025
3.04649
1
1
1
1
1
1
1
1
1
1
1
1
1
1
0.999999
0.999998
0.999859
1.01519
1.36952
2.69804
2.77948
2.79069
2.80124
2.81135
2.82084
2.82978
2.83825
2.84637
2.85405
2.86122
2.86798
2.87416
2.88004
2.88551
2.89072
2.89554
2.90015
2.90438
2.90838
2.91203
2.91543
2.91858
2.92146
2.92415
2.92661
2.92902
2.9313
2.93354
2.93573
2.93788
2.94001
2.94214
2.94428
2.94645
2.94866
2.95092
2.9533
2.95579
2.95839
2.9611
2.96393
2.96688
2.96996
2.97316
2.97632
2.97937
2.98233
2.98519
2.98798
2.99071
2.9934
2.99607
2.99875
3.00145
3.00418
3.00696
3.00983
3.0128
3.01592
3.01917
3.02246
3.02569
3.02889
3.03212
3.03542
3.0388
3.04227
3.04582
3.04942
3.05301
3.05653
3.05995
3.0633
3.06659
3.06982
3.07302
3.07619
3.07932
3.08243
3.08552
3.08863
3.09164
3.09404
3.09529
3.09541
3.09494
3.09362
3.09156
3.08931
3.08745
3.08594
3.08418
3.08191
3.07867
3.07385
3.06731
3.0578
3.04903
3.03424
1
1
1
1
1
1
1
1
1
1
1
1
1
1
1
1
0.999907
1.01511
1.35506
2.69332
2.7791
2.79008
2.80036
2.81029
2.81966
2.82851
2.83688
2.84491
2.85247
2.85954
2.8662
2.87228
2.87807
2.88343
2.88854
2.89329
2.89782
2.90197
2.90585
2.90937
2.91264
2.91562
2.91837
2.92091
2.92323
2.9255
2.92764
2.92975
2.93182
2.93387
2.9359
2.93791
2.94
2.94215
2.94434
2.94664
2.94906
2.95159
2.9542
2.95689
2.95969
2.96259
2.9656
2.96871
2.97179
2.97478
2.97768
2.9805
2.98325
2.98593
2.98858
2.99121
2.99384
2.99649
2.99916
3.00189
3.0047
3.00761
3.01067
3.01388
3.01717
3.02042
3.02365
3.02691
3.03023
3.03362
3.03709
3.04064
3.0442
3.04771
3.05113
3.05448
3.05776
3.06099
3.06416
3.0673
3.07041
3.0735
3.07656
3.0796
3.08267
3.08559
3.08777
3.08872
3.0887
3.08805
3.08654
3.08425
3.08174
3.07974
3.07798
3.07591
3.07324
3.06951
3.06412
3.05694
3.04675
3.03732
3.02154
1
1
1
1
1
1
1
1
1
1
1
1
1
1
1
1
0.999906
1.015
1.33945
2.68851
2.77907
2.78965
2.79954
2.80914
2.81833
2.82705
2.83532
2.84323
2.85068
2.85766
2.86424
2.8702
2.87589
2.88113
2.88613
2.89077
2.89517
2.89918
2.9029
2.90627
2.90937
2.9122
2.91478
2.91718
2.91935
2.92149
2.92355
2.92558
2.9276
2.92961
2.9316
2.93364
2.93579
2.938
2.94023
2.94255
2.94497
2.94748
2.95004
2.95269
2.95542
2.95823
2.96116
2.96415
2.96711
2.97001
2.97284
2.9756
2.97829
2.98093
2.98352
2.9861
2.98869
2.99128
2.9939
2.99659
2.99935
3.00221
3.00521
3.00837
3.01162
3.01488
3.0181
3.02136
3.02467
3.02804
3.03149
3.03499
3.03847
3.04188
3.04523
3.04851
3.05174
3.05491
3.05804
3.06114
3.06422
3.06728
3.0703
3.07332
3.07635
3.07917
3.08113
3.08179
3.08167
3.08083
3.07912
3.07656
3.07381
3.07164
3.06961
3.06722
3.06414
3.05991
3.05392
3.0461
3.03524
3.02513
3.0083
1
1
1
1
1
1
1
1
1
1
1
1
1
1
1
1
0.999881
1.01491
1.32257
2.68251
2.77876
2.78904
2.79857
2.80782
2.81673
2.82531
2.8335
2.84133
2.84872
2.85565
2.86217
2.86805
2.87366
2.87879
2.88367
2.8882
2.89244
2.89634
2.89991
2.90319
2.90617
2.90891
2.9114
2.91371
2.9158
2.91788
2.91991
2.92191
2.9239
2.9259
2.92788
2.9299
2.932
2.93413
2.9363
2.93855
2.94088
2.94329
2.94577
2.94834
2.95098
2.95371
2.95654
2.95942
2.96228
2.96507
2.96781
2.97049
2.97312
2.9757
2.97824
2.98075
2.98328
2.98582
2.98838
2.99101
2.99372
2.99654
2.99949
3.00259
3.00581
3.00904
3.01226
3.01551
3.01881
3.02216
3.02557
3.02899
3.03237
3.0357
3.03896
3.04218
3.04534
3.04846
3.05155
3.05461
3.05764
3.06066
3.06365
3.06662
3.0696
3.07229
3.07399
3.0744
3.07415
3.07312
3.07118
3.06833
3.06541
3.06304
3.06072
3.058
3.05452
3.0498
3.04323
3.03476
3.02327
3.01243
2.99461
1
1
1
1
1
1
1
1
1
1
1
1
1
1
0.999999
1
0.999895
1.0148
1.30471
2.67513
2.7781
2.78817
2.7974
2.80639
2.81508
2.82357
2.83177
2.83959
2.84695
2.85383
2.86025
2.86607
2.8716
2.8766
2.88135
2.88575
2.88984
2.89364
2.8971
2.90029
2.90317
2.90582
2.90822
2.91045
2.91246
2.91448
2.91645
2.91839
2.92033
2.92226
2.92419
2.92615
2.92814
2.93017
2.93225
2.93442
2.93666
2.93898
2.94137
2.94385
2.94639
2.94902
2.95173
2.95448
2.9572
2.95988
2.9625
2.96508
2.96762
2.97013
2.9726
2.97506
2.97752
2.98001
2.98252
2.9851
2.98776
2.99052
2.99341
2.99645
2.99962
3.00282
3.00602
3.00925
3.01253
3.01584
3.01919
3.02253
3.02582
3.02906
3.03226
3.03542
3.03854
3.04162
3.04466
3.04768
3.05068
3.05367
3.05661
3.05954
3.06246
3.06497
3.0664
3.06661
3.0662
3.06496
3.06275
3.0596
3.05654
3.05395
3.05136
3.0483
3.0444
3.03919
3.03204
3.02294
3.01085
2.99927
2.9804
1
1
1
1
1
1
1
1
1
1
1
1
1
1
0.999999
0.999995
0.999871
1.0143
1.28555
2.66692
2.7773
2.78706
2.79609
2.80498
2.81361
2.82208
2.83028
2.8381
2.84543
2.85223
2.85857
2.86431
2.86975
2.87464
2.87926
2.88351
2.88747
2.89112
2.89447
2.89752
2.90029
2.90282
2.9051
2.90722
2.90914
2.91104
2.91294
2.9148
2.91665
2.91847
2.92031
2.92216
2.92404
2.92597
2.92796
2.93003
2.93218
2.93441
2.93673
2.93912
2.94157
2.94409
2.94668
2.94928
2.95187
2.95441
2.95692
2.95939
2.96184
2.96426
2.96665
2.96903
2.97143
2.97386
2.97632
2.97885
2.98146
2.98417
2.987
2.98997
2.99308
2.99625
2.99944
3.00266
3.00591
3.0092
3.01248
3.01574
3.01894
3.0221
3.02522
3.0283
3.03135
3.03437
3.03735
3.04032
3.04327
3.04621
3.0491
3.05198
3.05483
3.05715
3.05829
3.05833
3.05773
3.05631
3.0538
3.05038
3.04719
3.04438
3.04151
3.03811
3.03379
3.02808
3.02037
3.01063
2.99796
2.9856
2.96579
1
1
1
1
1
1
1
1
1
1
1
1
1
1
1
1
0.999807
1.01393
1.26549
2.65631
2.776
2.78596
2.79515
2.80411
2.81273
2.82112
2.82921
2.83696
2.84424
2.85091
2.85712
2.86272
2.86803
2.87276
2.87726
2.88134
2.88512
2.88861
2.89181
2.89473
2.89738
2.89981
2.90197
2.90399
2.90581
2.90758
2.90938
2.91113
2.91285
2.91455
2.91626
2.91798
2.91973
2.92153
2.92339
2.92533
2.92735
2.92945
2.93163
2.93389
2.93621
2.93858
2.94101
2.94345
2.94589
2.94831
2.9507
2.95308
2.95544
2.95779
2.96014
2.96246
2.9648
2.96718
2.9696
2.97209
2.97465
2.97731
2.98009
2.983
2.98606
2.9892
2.99236
2.99555
2.99877
3.002
3.00522
3.0084
3.01153
3.01462
3.01769
3.02072
3.02372
3.0267
3.02966
3.0326
3.03553
3.03843
3.04128
3.0441
3.04686
3.04898
3.04981
3.04972
3.04892
3.04728
3.04443
3.04079
3.03741
3.0344
3.03121
3.02747
3.02274
3.01651
3.0082
2.99783
2.98462
2.97153
2.95069
1
1
1
1
1
1
1
1
1
1
1
1
1
1
1
1.00002
0.999927
1.01354
1.24407
2.6444
2.77558
2.78556
2.79491
2.80394
2.81251
2.82071
2.82857
2.83615
2.84324
2.84979
2.85584
2.86124
2.8663
2.87078
2.87506
2.87894
2.88249
2.88582
2.88879
2.89159
2.89406
2.89638
2.89841
2.90031
2.90201
2.90367
2.90537
2.90699
2.90858
2.91016
2.91173
2.91331
2.91492
2.91658
2.91829
2.92007
2.92194
2.92389
2.92592
2.92803
2.93019
2.93242
2.93468
2.93697
2.93927
2.94158
2.94388
2.94617
2.94845
2.95074
2.95304
2.95532
2.95761
2.95994
2.96231
2.96475
2.96727
2.96987
2.97259
2.97544
2.97843
2.98154
2.98468
2.98785
2.99102
2.9942
2.99737
3.0005
3.00358
3.00663
3.00965
3.01264
3.01561
3.01856
3.02149
3.02441
3.02731
3.03018
3.03299
3.03577
3.03844
3.04033
3.04089
3.04068
3.03971
3.03779
3.03463
3.03075
3.0272
3.02396
3.02048
3.01637
3.01122
3.00447
2.99557
2.98456
2.97085
2.95698
2.93516
1
1
1
1
1
1
1
1
1
1
1
1
1
1
1
0.999997
0.999948
1.01268
1.22033
2.63208
2.77672
2.78648
2.79572
2.80432
2.81256
2.82036
2.82781
2.83507
2.84185
2.84824
2.85393
2.85907
2.86379
2.86808
2.87201
2.87572
2.87899
2.88211
2.88487
2.88747
2.88976
2.8919
2.89379
2.89554
2.89712
2.89868
2.9003
2.90182
2.9033
2.90475
2.90619
2.90764
2.90911
2.91061
2.91216
2.91377
2.91547
2.91724
2.9191
2.92105
2.92307
2.92515
2.92727
2.92943
2.93162
2.93384
2.93606
2.93828
2.94052
2.94277
2.94503
2.9473
2.94958
2.9519
2.95426
2.95668
2.95917
2.96176
2.96445
2.96727
2.97022
2.97331
2.97647
2.97964
2.98281
2.98596
2.9891
2.99219
2.99524
2.99826
3.00124
3.0042
3.00714
3.01005
3.01295
3.01583
3.0187
3.02153
3.02429
3.02702
3.02957
3.03122
3.03155
3.0312
3.03006
3.02783
3.02439
3.02031
3.01659
3.01311
3.00931
3.00485
2.99927
2.99197
2.98249
2.97083
2.95663
2.94202
2.91908
1
1
1
1
1
1
1
1
1
1
1
1
1
1
0.999999
0.999998
0.999906
1.01138
1.19539
2.62096
2.78021
2.78845
2.79666
2.80459
2.81224
2.81963
2.82653
2.83322
2.83944
2.84544
2.85074
2.85563
2.85984
2.86388
2.86739
2.87081
2.87378
2.87659
2.87911
2.88146
2.88355
2.88552
2.88724
2.88884
2.89027
2.89178
2.89334
2.89478
2.89617
2.89754
2.8989
2.90025
2.90161
2.90298
2.9044
2.90588
2.90742
2.90906
2.91079
2.91261
2.91453
2.91651
2.91855
2.92062
2.92273
2.92488
2.92704
2.92921
2.93141
2.93363
2.93589
2.93818
2.9405
2.94285
2.94524
2.94768
2.95019
2.9528
2.95549
2.95831
2.96126
2.96436
2.96757
2.97078
2.97398
2.97715
2.98031
2.98341
2.98647
2.98947
2.99244
2.99538
2.99829
3.00116
3.00402
3.00686
3.00968
3.01246
3.01515
3.01781
3.02021
3.0216
3.02176
3.02124
3.01989
3.01737
3.01365
3.00939
3.00549
3.00178
2.99767
2.99285
2.98682
2.97898
2.96893
2.95666
2.94198
2.92648
2.9026
1
1
1
1
1
1
1
1
1
1
1
1
1
1
1
1
0.9998
1.01009
1.17086
2.60727
2.78277
2.7893
2.79642
2.80364
2.81072
2.81744
2.82362
2.82955
2.83513
2.84052
2.84528
2.84985
2.8536
2.85729
2.86043
2.8635
2.86617
2.8687
2.87099
2.87313
2.87506
2.87688
2.87848
2.87999
2.88129
2.88278
2.88433
2.88574
2.88711
2.88846
2.8898
2.89114
2.89248
2.89383
2.89522
2.89666
2.89817
2.89977
2.90146
2.90328
2.90518
2.90716
2.90918
2.91121
2.91328
2.91537
2.91748
2.9196
2.92174
2.92393
2.92618
2.92847
2.93082
2.9332
2.9356
2.93805
2.94055
2.94314
2.94582
2.9486
2.95151
2.95457
2.95777
2.96104
2.9643
2.96754
2.97077
2.97395
2.97707
2.98014
2.98315
2.98612
2.98904
2.9919
2.99474
2.99754
3.00031
3.00302
3.00565
3.00822
3.01042
3.01152
3.01152
3.01083
3.00922
3.0064
3.00241
2.99797
2.99391
2.98996
2.98552
2.98036
2.97388
2.96552
2.9549
2.94204
2.92685
2.91054
2.88554
1
1
1
1
1
1
1
1
1
1
1
1
1
1
1
1
0.999904
1.0089
1.14899
2.58725
2.78102
2.78705
2.79363
2.80026
2.80666
2.81262
2.81806
2.82329
2.82816
2.83293
2.83728
2.84143
2.84504
2.84863
2.85173
2.8547
2.85724
2.85958
2.86171
2.86372
2.86556
2.86731
2.86888
2.87036
2.87164
2.87316
2.87476
2.87621
2.87761
2.87898
2.88034
2.88171
2.88308
2.88447
2.88589
2.88734
2.88885
2.89041
2.89206
2.89381
2.89565
2.89756
2.89951
2.90149
2.90349
2.90551
2.90755
2.90961
2.9117
2.91385
2.91609
2.9184
2.92078
2.92321
2.92565
2.92811
2.93062
2.93319
2.93585
2.9386
2.94147
2.94447
2.94764
2.95091
2.95418
2.95744
2.9607
2.96394
2.96713
2.97027
2.97335
2.97638
2.97934
2.98223
2.98507
2.98786
2.9906
2.99325
2.9958
2.99827
3.00027
3.00105
3.00092
3.00005
2.99813
2.99502
2.99074
2.98613
2.98188
2.97768
2.97293
2.9674
2.96045
2.95156
2.94038
2.92693
2.91126
2.89409
2.86813
1
1
1
1
1
1
1
1
1
1
1
1
1
1
1
1
0.999985
1.00617
1.12639
2.56187
2.77745
2.78279
2.78867
2.79462
2.7998
2.80484
2.80974
2.81479
2.81997
2.82469
2.82901
2.83306
2.83678
2.84041
2.84373
2.84686
2.84947
2.85179
2.8538
2.85566
2.85733
2.85894
2.86042
2.86183
2.8631
2.86459
2.8662
2.86764
2.86901
2.87033
2.87162
2.8729
2.8742
2.87554
2.87692
2.87833
2.87977
2.88125
2.8828
2.88441
2.88609
2.88783
2.88963
2.89147
2.89333
2.89524
2.89717
2.89916
2.90118
2.90328
2.9055
2.90783
2.91027
2.91277
2.91528
2.91778
2.92031
2.92289
2.92554
2.92827
2.93111
2.93407
2.93719
2.94046
2.94378
2.94709
2.9504
2.9537
2.95694
2.96011
2.96321
2.96626
2.96922
2.97211
2.97495
2.97773
2.98045
2.98306
2.98556
2.98795
2.98972
2.99022
2.98993
2.98888
2.98667
2.98325
2.97868
2.97389
2.96944
2.96497
2.9599
2.95398
2.94656
2.93715
2.9254
2.91136
2.89519
2.87728
2.85019
1
1
1
1
1
1
1
1
1
1
1
1
1
1
1
1
0.999989
1.00473
1.10557
2.53228
2.77085
2.77482
2.77981
2.7853
2.79078
2.79605
2.80149
2.8075
2.81347
2.81862
2.82309
2.82705
2.83062
2.83405