/*--------------------------------*- C++ -*----------------------------------*\
| =========                 |                                                 |
| \\      /  F ield         | OpenFOAM: The Open Source CFD Toolbox           |
|  \\    /   O peration     | Version:  2.2.x                                 |
|   \\  /    A nd           | Web:      www.OpenFOAM.org                      |
|    \\/     M anipulation  |                                                 |
\*---------------------------------------------------------------------------*/
FoamFile
{
    version     2.0;
    format      ascii;
    class       surfaceScalarField;
    location    "1.7";
    object      phi;
}
// * * * * * * * * * * * * * * * * * * * * * * * * * * * * * * * * * * * * * //

dimensions      [1 0 -1 0 0 0 0];

internalField   nonuniform List<scalar> 
28084
(
0.000746224
0.000742988
0.000740213
0.000737877
0.000735962
0.000734443
0.000733299
0.000732503
0.000732031
0.000731856
0.00073195
0.000732288
0.00073284
0.000733581
0.000734484
0.000735523
0.000736673
0.00073791
0.00073921
0.000740553
0.000732021
0.000726286
0.000720632
0.000715144
0.000709893
0.000704935
0.000700306
0.000696031
0.000692125
0.000688588
0.000685409
0.000682569
0.000680039
0.000677783
0.000675762
0.000673936
0.000672259
0.000670691
0.000669188
0.000667707
0.000666203
0.000664625
0.000662908
0.000660972
0.000658707
0.000664479
0.000670488
0.000676667
0.000682986
0.000689427
0.000695972
0.000702605
0.000709312
0.000716073
0.000722868
0.000729677
0.000736471
0.000743222
0.000749893
0.000756443
0.000762824
0.000768977
0.000774833
0.000780306
0.000785292
0.000789659
0.000793238
0.000795812
0.000797088
0.000796731
0.000794542
0.000790397
0.00078423
0.000776032
0.000765866
0.000753864
0.000740225
0.000725206
0.000709103
0.000692234
0.000674914
0.000657433
0.000640047
0.000622966
0.00060635
0.00059032
0.00057496
0.000560326
0.000546457
0.00053338
0.000521115
0.000509679
0.00049909
0.000489364
0.000480521
0.000472581
0.000465564
0.000459488
0.000454368
0.000450211
0.000447012
0.000444746
0.000443367
0.000442794
0.000442901
0.000443514
0.000444414
0.000445271
0.000445592
0.000444701
0.000441738
0.000435573
0.000424752
0.000407473
0.000381592
0.000344717
0.000294436
0.000228649
3.7119e-06
3.23513e-06
0.00074974
2.77572e-06
0.000748785
2.33538e-06
0.000748259
1.91574e-06
0.000748147
1.51833e-06
0.000748429
1.14451e-06
0.000749083
7.95452e-07
0.000750087
4.72133e-07
0.000751415
1.7529e-07
0.000753039
-9.45799e-08
0.000754933
-3.37226e-07
0.000757068
-5.52641e-07
0.000759414
-7.41055e-07
0.000761942
-9.02918e-07
0.000764622
-1.03889e-06
0.000767426
-1.14981e-06
0.000770325
-1.23667e-06
0.000773292
-1.30061e-06
0.0007763
-1.34287e-06
0.000779324
9.27453e-07
0.000782341
5.54661e-06
0.000769536
5.50237e-06
0.000763053
5.36778e-06
0.000755921
5.16225e-06
0.00074815
4.90541e-06
0.000739709
4.61131e-06
0.000730568
4.29208e-06
0.000720709
3.95923e-06
0.000710132
3.62394e-06
0.000698865
3.29675e-06
0.000686958
2.98716e-06
0.000674489
2.70313e-06
0.000661559
2.45079e-06
0.000648292
2.23437e-06
0.000634823
2.05632e-06
0.000621304
1.91801e-06
0.000607886
1.81943e-06
0.000594724
1.76068e-06
0.00058196
1.74276e-06
0.000569723
1.76868e-06
0.000558119
1.84489e-06
0.000547227
1.983e-06
0.000537099
2.20187e-06
0.000527751
2.53003e-06
0.000519174
-5.5015e-06
0.00051133
-5.72685e-06
0.000509882
-5.88228e-06
0.00050921
-6.00307e-06
0.000509265
-6.09901e-06
0.000510025
-6.17322e-06
0.000511461
-6.22652e-06
0.000513531
-6.25869e-06
0.000516177
-6.26879e-06
0.00051933
-6.25531e-06
0.000522908
-6.21619e-06
0.000526823
-6.1488e-06
0.000530984
-6.04991e-06
0.000535298
-5.91559e-06
0.000539677
-5.74098e-06
0.000544034
-5.52008e-06
0.000548292
-5.24517e-06
0.000552379
-4.90618e-06
0.000556234
-4.48948e-06
0.000559804
-3.97668e-06
0.000563047
-3.34365e-06
0.000565931
-2.55789e-06
0.000568441
-1.57741e-06
0.000570577
-3.54315e-07
0.000572364
1.13788e-06
0.000573866
2.7775e-06
0.000575125
4.49789e-06
0.000576022
6.25161e-06
0.000576391
7.98896e-06
0.000576065
9.65921e-06
0.000574894
1.12132e-05
0.000572756
1.26066e-05
0.000569561
1.38032e-05
0.000565253
1.47769e-05
0.000559815
1.55137e-05
0.00055326
1.60115e-05
0.000545628
1.62789e-05
0.000536981
1.63333e-05
0.000527394
1.61983e-05
0.000516954
1.59006e-05
0.000505751
1.5468e-05
0.000493883
1.49269e-05
0.000481451
1.43009e-05
0.000468558
1.36099e-05
0.000455317
1.28698e-05
0.000441842
1.20922e-05
0.000428256
1.12854e-05
0.000414683
1.04547e-05
0.000401246
9.60293e-06
0.000388062
8.73177e-06
0.000375235
7.84229e-06
0.000362849
6.93599e-06
0.000350965
6.01558e-06
0.000339614
5.08597e-06
0.000328801
4.1552e-06
0.0003185
3.23544e-06
0.000308661
2.34413e-06
0.00029921
1.50535e-06
0.000290055
7.5155e-07
0.000281088
1.26102e-07
0.000272192
-3.25051e-07
0.000263242
-5.57295e-07
0.000254099
-4.70389e-07
0.000244601
9.20268e-08
0.0002346
1.30616e-06
0.000223988
3.35206e-06
0.000212657
6.49353e-06
0.000200445
1.10479e-05
0.000187134
1.73692e-05
0.000172391
2.58097e-05
0.000155699
3.66437e-05
0.000136311
4.99325e-05
0.000113272
6.54119e-05
8.55463e-05
0.000228362
5.22097e-05
5.11203e-06
4.19073e-06
0.000754435
3.30115e-06
0.00075573
2.44751e-06
0.000757426
1.63381e-06
0.00075951
8.63806e-07
0.000761963
1.40861e-07
0.000764765
-5.32086e-07
0.000767892
-1.15259e-06
0.000771318
-1.71876e-06
0.000775016
-2.22922e-06
0.000778956
-2.6832e-06
0.000783108
-3.08049e-06
0.00078744
-3.42139e-06
0.000791922
-3.70676e-06
0.00079652
-3.93789e-06
0.000801204
-4.11651e-06
0.000805943
-4.24472e-06
0.000810708
-4.32493e-06
0.000815468
-4.35978e-06
0.000820197
5.64566e-06
0.00082487
1.17089e-05
0.000813306
1.23129e-05
0.000808271
1.27937e-05
0.000802716
1.32173e-05
0.000796672
1.36022e-05
0.000790146
1.39473e-05
0.000783137
1.42425e-05
0.00077565
1.44731e-05
0.0007677
1.4624e-05
0.000759313
1.46818e-05
0.000750529
1.46367e-05
0.000741403
1.44839e-05
0.000731997
1.42243e-05
0.000722386
1.38643e-05
0.000712649
1.34158e-05
0.000702871
1.28954e-05
0.000693137
1.23224e-05
0.000683531
1.17189e-05
0.000674132
1.11093e-05
0.000665012
1.05194e-05
0.000656236
9.97797e-06
0.000647861
9.51676e-06
0.000639936
9.17281e-06
0.000632508
8.99028e-06
0.000625624
-5.26495e-06
0.000619342
-6.06389e-06
0.000620427
-6.7158e-06
0.000621833
-7.2895e-06
0.000623582
-7.79882e-06
0.000625637
-8.24291e-06
0.000627941
-8.61713e-06
0.000630426
-8.91617e-06
0.000633017
-9.13515e-06
0.000635636
-9.26989e-06
0.000638201
-9.317e-06
0.000640633
-9.27385e-06
0.000642854
-9.13851e-06
0.000644791
-8.90956e-06
0.000646379
-8.58589e-06
0.000647558
-8.16627e-06
0.00064828
-7.64888e-06
0.000648505
-7.03058e-06
0.000648201
-6.30572e-06
0.000647349
-5.46526e-06
0.000645937
-4.49702e-06
0.000643966
-3.38234e-06
0.000641446
-2.0971e-06
0.000638401
-6.15594e-07
0.000634852
1.09371e-06
0.000630796
3.04093e-06
0.00062624
5.19727e-06
0.0006212
7.51617e-06
0.00061568
9.93987e-06
0.000609672
1.24025e-05
0.000603157
1.48341e-05
0.000596111
1.71658e-05
0.000588507
1.93346e-05
0.000580317
2.12871e-05
0.000571518
2.29829e-05
0.000562094
2.43958e-05
0.000552035
2.55136e-05
0.000541339
2.63368e-05
0.000530014
2.68762e-05
0.000518075
2.715e-05
0.000505548
2.71813e-05
0.000492469
2.69953e-05
0.000478885
2.66175e-05
0.000464856
2.60724e-05
0.000450452
2.53828e-05
0.000435757
2.45697e-05
0.000420867
2.36517e-05
0.000405888
2.2646e-05
0.000390928
2.1568e-05
0.000376099
2.04322e-05
0.000361503
1.92522e-05
0.000347228
1.8042e-05
0.000333343
1.68162e-05
0.000319889
1.55914e-05
0.00030688
1.43868e-05
0.000294299
1.32257e-05
0.0002821
1.21362e-05
0.000270212
1.11522e-05
0.000258537
1.03153e-05
0.000246961
9.67677e-06
0.000235355
9.30177e-06
0.000223589
9.26817e-06
0.00021154
9.67774e-06
0.000199104
1.0675e-05
0.000186206
1.24598e-05
0.000172809
1.52922e-05
0.000158902
1.9511e-05
0.000144485
2.55433e-05
0.000129531
3.38924e-05
0.000113961
4.5091e-05
9.7631e-05
5.9589e-05
8.03338e-05
7.75509e-05
6.17955e-05
9.86547e-05
4.16746e-05
0.00028047
1.96043e-05
4.23053e-06
2.89594e-06
0.000760308
1.6045e-06
0.000763821
3.63709e-07
0.000767708
-8.19269e-07
0.000771957
-1.93779e-06
0.000776551
-2.98585e-06
0.000781471
-3.95817e-06
0.000786692
-4.85036e-06
0.000792189
-5.6589e-06
0.000797933
-6.38124e-06
0.000803893
-7.01579e-06
0.000810036
-7.56192e-06
0.00081633
-8.01992e-06
0.000822741
-8.39094e-06
0.000829233
-8.67693e-06
0.000835774
-8.88057e-06
0.00084233
-9.00514e-06
0.000848869
-9.05446e-06
0.00085536
-9.03276e-06
0.000861774
8.67418e-06
0.000868082
1.64326e-05
0.000857971
1.75708e-05
0.000854496
1.85336e-05
0.000850673
1.94236e-05
0.000846559
2.02634e-05
0.000842191
2.10461e-05
0.000837592
2.17504e-05
0.000832777
2.2349e-05
0.000827762
2.28142e-05
0.000822563
2.31222e-05
0.000817198
2.32559e-05
0.000811689
2.32067e-05
0.000806061
2.29754e-05
0.000800341
2.25716e-05
0.00079456
2.2013e-05
0.000788749
2.13234e-05
0.000782941
2.05306e-05
0.000777167
1.9665e-05
0.000771458
1.87575e-05
0.000765841
1.78387e-05
0.000760343
1.69387e-05
0.000754993
1.60864e-05
0.000749818
1.53108e-05
0.000744852
1.46413e-05
0.000740138
-6.87726e-06
0.000735731
-7.88701e-06
0.000738626
-8.76576e-06
0.000741575
-9.52868e-06
0.000744588
-1.01736e-05
0.00074762
-1.06931e-05
0.000750609
-1.10793e-05
0.000753484
-1.1325e-05
0.000756173
-1.14249e-05
0.000758605
-1.13755e-05
0.000760711
-1.11749e-05
0.000762425
-1.08231e-05
0.000763684
-1.03216e-05
0.000764432
-9.67324e-06
0.000764618
-8.88211e-06
0.000764198
-7.95294e-06
0.000763137
-6.8907e-06
0.000761404
-5.69982e-06
0.000758977
-4.38313e-06
0.000755842
-2.94265e-06
0.00075199
-1.37824e-06
0.000747414
3.15202e-07
0.000742105
2.15738e-06
0.000736047
4.19465e-06
0.000729243
6.44245e-06
0.000721738
8.89702e-06
0.000713583
1.15343e-05
0.00070483
1.43165e-05
0.000695525
1.71949e-05
0.000685705
2.01125e-05
0.000675397
2.30071e-05
0.000664616
2.58155e-05
0.000653373
2.84774e-05
0.000641668
3.09391e-05
0.000629501
3.31564e-05
0.00061687
3.50965e-05
0.000603775
3.67384e-05
0.000590217
3.8072e-05
0.000576203
3.90971e-05
0.000561745
3.98207e-05
0.000546861
4.02554e-05
0.000531577
4.04173e-05
0.000515923
4.03243e-05
0.000499941
3.99956e-05
0.00048368
3.94509e-05
0.0004672
3.87107e-05
0.000450569
3.77956e-05
0.000433865
3.67274e-05
0.00041717
3.55285e-05
0.000400569
3.42225e-05
0.000384144
3.2834e-05
0.000367969
3.1389e-05
0.000352102
2.99154e-05
0.000336583
2.84436e-05
0.000321427
2.70072e-05
0.000306626
2.56435e-05
0.000292149
2.43946e-05
0.000277937
2.33075e-05
0.000263912
2.2435e-05
0.000249977
2.18372e-05
0.000236019
2.15842e-05
0.000221926
2.1758e-05
0.000207594
2.24609e-05
0.000192943
2.3834e-05
0.000177934
2.60717e-05
0.000162572
2.94353e-05
0.000146899
3.42703e-05
0.000130967
4.10167e-05
0.000114805
5.02006e-05
9.84065e-05
6.23954e-05
8.17354e-05
7.81242e-05
6.47435e-05
9.76537e-05
4.73484e-05
0.000120723
2.93709e-05
0.000300072
1.05026e-05
1.10116e-06
-6.16603e-07
0.000767362
-2.2826e-06
0.000773056
-3.88528e-06
0.000779098
-5.41361e-06
0.000785478
-6.85736e-06
0.00079218
-8.20725e-06
0.000799185
-9.45512e-06
0.000806469
-1.05941e-05
0.000814006
-1.16187e-05
0.000821766
-1.25248e-05
0.000829715
-1.33097e-05
0.000837821
-1.39723e-05
0.000846048
-1.45125e-05
0.000854359
-1.49319e-05
0.000862719
-1.5233e-05
0.00087109
-1.54195e-05
0.000879437
-1.54961e-05
0.000887725
-1.54679e-05
0.000895922
-1.53411e-05
0.000903995
9.78172e-06
0.000911915
1.96095e-05
0.000903088
2.11201e-05
0.000901002
2.23851e-05
0.000898691
2.35376e-05
0.000896228
2.46129e-05
0.000893667
2.56088e-05
0.000891043
2.65046e-05
0.000888373
2.72717e-05
0.000885669
2.78807e-05
0.00088293
2.83059e-05
0.000880152
2.8529e-05
0.000877327
2.85416e-05
0.000874444
2.83455e-05
0.000871492
2.79523e-05
0.00086846
2.73823e-05
0.000865337
2.66618e-05
0.000862115
2.58211e-05
0.000858787
2.4892e-05
0.000855347
2.39054e-05
0.000851792
2.28899e-05
0.000848119
2.18708e-05
0.000844328
2.08692e-05
0.000840421
1.99026e-05
0.000836404
1.89846e-05
0.000832285
-9.77041e-06
0.000828077
-1.07726e-05
0.000829916
-1.16564e-05
0.000831661
-1.23862e-05
0.000833266
-1.29438e-05
0.000834685
-1.33174e-05
0.000835867
-1.3499e-05
0.000836766
-1.34829e-05
0.000837335
-1.32659e-05
0.000837535
-1.2847e-05
0.000837326
-1.22273e-05
0.000836677
-1.14094e-05
0.000835556
-1.0398e-05
0.000833939
-9.19893e-06
0.000831804
-7.81922e-06
0.000829132
-6.26665e-06
0.000825907
-4.54916e-06
0.000822113
-2.67417e-06
0.000817735
-6.47437e-07
0.000812752
1.52774e-06
0.000807155
3.85658e-06
0.000800947
6.34388e-06
0.000794142
8.99289e-06
0.000786756
1.18065e-05
0.000778809
1.47864e-05
0.000770321
1.79216e-05
0.000761313
2.11867e-05
0.000751803
2.45455e-05
0.000741806
2.79532e-05
0.00073133
3.13584e-05
0.000720378
3.47061e-05
0.000708951
3.79409e-05
0.000697044
4.10095e-05
0.000684652
4.38643e-05
0.000671772
4.64652e-05
0.000658398
4.87809e-05
0.000644532
5.07898e-05
0.000630178
5.2479e-05
0.000615347
5.38437e-05
0.000600053
5.48849e-05
0.000584319
5.56087e-05
0.000568173
5.60243e-05
0.000551649
5.61431e-05
0.000534789
5.59787e-05
0.000517637
5.55463e-05
0.000500247
5.48632e-05
0.000482677
5.39495e-05
0.00046499
5.28281e-05
0.000447256
5.1525e-05
0.000429542
5.00699e-05
0.000411918
4.84958e-05
0.000394445
4.68393e-05
0.000377177
4.51406e-05
0.000360153
4.34433e-05
0.000343395
4.17951e-05
0.000326906
4.02473e-05
0.000310672
3.88549e-05
0.000294656
3.76761e-05
0.000278804
3.67721e-05
0.000263043
3.62074e-05
0.000247283
3.60524e-05
0.000231429
3.63861e-05
0.000215387
3.73055e-05
0.00019909
3.89421e-05
0.000182507
4.14785e-05
0.000165657
4.51646e-05
0.000148599
5.03328e-05
0.000131405
5.74082e-05
0.000114127
6.69073e-05
9.67831e-05
7.94169e-05
7.93751e-05
9.55236e-05
6.19093e-05
0.000115623
4.437e-05
0.000139598
2.66328e-05
0.000310619
8.39809e-06
-4.23855e-06
-6.31051e-06
0.0007756
-8.32484e-06
0.000783435
-1.02651e-05
0.000791593
-1.21158e-05
0.000800066
-1.38623e-05
0.000808839
-1.54915e-05
0.000817893
-1.69919e-05
0.000827205
-1.83535e-05
0.000836747
-1.95684e-05
0.000846488
-2.06308e-05
0.000856394
-2.15365e-05
0.00086643
-2.22836e-05
0.000876558
-2.28719e-05
0.000886739
-2.33029e-05
0.000896934
-2.35801e-05
0.000907106
-2.3708e-05
0.000917214
-2.36927e-05
0.000927224
-2.35412e-05
0.000937098
-2.32614e-05
0.000946804
9.1289e-06
0.00095631
2.14015e-05
0.000947757
2.3167e-05
0.000946403
2.46093e-05
0.000944756
2.58869e-05
0.000942892
2.70537e-05
0.00094087
2.81203e-05
0.000938737
2.90759e-05
0.000936527
2.98992e-05
0.000934259
3.05661e-05
0.000931942
3.10549e-05
0.000929577
3.13499e-05
0.000927153
3.14441e-05
0.000924656
3.13401e-05
0.000922066
3.10496e-05
0.000919363
3.05921e-05
0.000916525
2.9993e-05
0.000913531
2.9281e-05
0.000910364
2.84858e-05
0.000907008
2.76361e-05
0.000903451
2.67578e-05
0.000899683
2.58728e-05
0.000895693
2.49989e-05
0.000891474
2.4149e-05
0.000887016
2.33319e-05
0.000882307
-1.14607e-05
0.000877332
-1.23664e-05
0.000876853
-1.31182e-05
0.000876311
-1.36771e-05
0.000875633
-1.40241e-05
0.000874773
-1.41488e-05
0.000873693
-1.4045e-05
0.000872363
-1.37096e-05
0.000870755
-1.31416e-05
0.000868847
-1.23418e-05
0.000866618
-1.13125e-05
0.000864051
-1.00575e-05
0.000861134
-8.58176e-06
0.000857856
-6.89098e-06
0.000854209
-4.99144e-06
0.000850186
-2.88929e-06
0.000845785
-5.89875e-07
0.000841002
1.90644e-06
0.000835839
4.58107e-06
0.000830311
7.42183e-06
0.000824418
1.04217e-05
0.000818153
1.35771e-05
0.000811503
1.68859e-05
0.000804455
2.03451e-05
0.000796995
2.39489e-05
0.000789108
2.76822e-05
0.000780782
3.15188e-05
0.000772003
3.54231e-05
0.000762755
3.93514e-05
0.000753023
4.32545e-05
0.00074279
4.70801e-05
0.000732041
5.07757e-05
0.000720759
5.42911e-05
0.000708931
5.75806e-05
0.000696546
6.06053e-05
0.000683598
6.33339e-05
0.000670086
6.57433e-05
0.000656015
6.78178e-05
0.000641395
6.95485e-05
0.000626246
7.09319e-05
0.00061059
7.19688e-05
0.00059446
7.26633e-05
0.000577892
7.30219e-05
0.000560927
7.30538e-05
0.000543611
7.27706e-05
0.000525996
7.21874e-05
0.000508135
7.13229e-05
0.000490086
7.02006e-05
0.000471909
6.88488e-05
0.000453665
6.73017e-05
0.000435413
6.55988e-05
0.00041721
6.37853e-05
0.000399104
6.19117e-05
0.000381137
6.00338e-05
0.000363337
5.8212e-05
0.000345719
5.65105e-05
0.000328285
5.49968e-05
0.000311018
5.37395e-05
0.000293888
5.28076e-05
0.000276844
5.22692e-05
0.000259818
5.21935e-05
0.00024273
5.26546e-05
0.000225498
5.37408e-05
0.000208056
5.55714e-05
0.000190371
5.83148e-05
0.000172459
6.22049e-05
0.000154378
6.75562e-05
0.000136204
7.47729e-05
0.000117997
8.43554e-05
9.97843e-05
9.68985e-05
8.15815e-05
0.000113049
6.34155e-05
0.000133336
4.5301e-05
0.00015782
2.71463e-05
0.000319078
8.66539e-06
-1.17471e-05
-1.41455e-05
0.000785028
-1.64831e-05
0.00079496
-1.87378e-05
0.000805191
-2.08888e-05
0.000815714
-2.29165e-05
0.000826517
-2.48033e-05
0.000837581
-2.65337e-05
0.000848881
-2.80945e-05
0.000860389
-2.94749e-05
0.000872075
-3.06667e-05
0.000883901
-3.16643e-05
0.000895831
-3.24647e-05
0.000907824
-3.30674e-05
0.00091984
-3.34741e-05
0.000931838
-3.36888e-05
0.000943776
-3.37173e-05
0.000955614
-3.3567e-05
0.000967312
-3.3247e-05
0.000978833
-3.27672e-05
0.000990141
7.72607e-06
0.0010012
2.24311e-05
0.000992862
2.45125e-05
0.000992119
2.61933e-05
0.000990986
2.76489e-05
0.000989517
2.89479e-05
0.000987768
3.01141e-05
0.000985787
3.11486e-05
0.000983614
3.20414e-05
0.000981277
3.27777e-05
0.000978798
3.33436e-05
0.000976189
3.37292e-05
0.000973453
3.39312e-05
0.000970588
3.3954e-05
0.000967586
3.38091e-05
0.000964437
3.35149e-05
0.00096113
3.30946e-05
0.000957653
3.25743e-05
0.000953995
3.19813e-05
0.000950149
3.13423e-05
0.000946109
3.06822e-05
0.00094187
3.00229e-05
0.00093743
2.93834e-05
0.000932787
2.87791e-05
0.00092794
2.82225e-05
0.000922887
-1.1093e-05
0.000917624
-1.19656e-05
0.000915909
-1.26167e-05
0.00091417
-1.30314e-05
0.000912345
-1.32e-05
0.00091039
-1.31164e-05
0.000908268
-1.27773e-05
0.00090595
-1.21814e-05
0.00090341
-1.13292e-05
0.000900624
-1.02228e-05
0.000897571
-8.86551e-06
0.000894234
-7.26209e-06
0.000890599
-5.41815e-06
0.000886653
-3.34008e-06
0.000882387
-1.03467e-06
0.000877792
1.4928e-06
0.000872863
4.2298e-06
0.000867603
7.16454e-06
0.000862007
1.02905e-05
0.000856069
1.36003e-05
0.000849781
1.70868e-05
0.000843135
2.07445e-05
0.000836119
2.45676e-05
0.000828724
2.85492e-05
0.000820937
3.26783e-05
0.000812746
3.69363e-05
0.000804138
4.12953e-05
0.0007951
4.57187e-05
0.000785616
5.01627e-05
0.000775668
5.45779e-05
0.00076524
5.89123e-05
0.000754311
6.31135e-05
0.000742864
6.71308e-05
0.000730883
7.09183e-05
0.000718355
7.44353e-05
0.000705273
7.76484e-05
0.000691631
8.0531e-05
0.000677434
8.30634e-05
0.00066269
8.52319e-05
0.000647415
8.7028e-05
0.00063163
8.84476e-05
0.000615365
8.94897e-05
0.000598652
9.01567e-05
0.000581529
9.0454e-05
0.000564039
9.03903e-05
0.000546226
8.99785e-05
0.000528138
8.92365e-05
0.000509825
8.81879e-05
0.000491339
8.6863e-05
0.000472732
8.52991e-05
0.000454055
8.35409e-05
0.000435357
8.16405e-05
0.000416684
7.96572e-05
0.000398075
7.76568e-05
0.000379561
7.57112e-05
0.000361165
7.38965e-05
0.0003429
7.22917e-05
0.000324765
7.09759e-05
0.000306746
7.0026e-05
0.000288811
6.95147e-05
0.000270908
6.95108e-05
0.000252969
7.00838e-05
0.000234921
7.13132e-05
0.000216696
7.33056e-05
0.000198255
7.62139e-05
0.000179603
8.02553e-05
0.000160788
8.57255e-05
0.000141881
9.30081e-05
0.000122941
0.000102587
0.000104002
0.000115062
8.50841e-05
0.000131131
6.62223e-05
0.000151449
4.74494e-05
0.000176264
2.87031e-05
0.000327797
9.72256e-06
-2.13788e-05
-2.40774e-05
0.000795653
-2.67144e-05
0.000807633
-2.92614e-05
0.00081989
-3.16915e-05
0.000832419
-3.39798e-05
0.000845207
-3.61035e-05
0.000858235
-3.80425e-05
0.000871481
-3.97797e-05
0.000884914
-4.13012e-05
0.000898502
-4.25963e-05
0.000912208
-4.36576e-05
0.000925991
-4.44808e-05
0.000939811
-4.5065e-05
0.000953624
-4.54121e-05
0.000967386
-4.55266e-05
0.000981054
-4.54156e-05
0.000994585
-4.50881e-05
0.00100794
-4.45551e-05
0.00102107
-4.38289e-05
0.00103395
5.6333e-06
0.00104653
2.28173e-05
0.00103861
2.53109e-05
0.00103854
2.73419e-05
0.00103802
2.9091e-05
0.00103708
3.06344e-05
0.00103576
3.20051e-05
0.00103411
3.32137e-05
0.00103216
3.42593e-05
0.00102996
3.51362e-05
0.00102753
3.58382e-05
0.00102488
3.63617e-05
0.00102203
3.67078e-05
0.00101899
3.68835e-05
0.00101576
3.69017e-05
0.00101234
3.67802e-05
0.00100873
3.65409e-05
0.00100493
3.62081e-05
0.00100094
3.58072e-05
0.000996753
3.53633e-05
0.000992383
3.48999e-05
0.000987829
3.44387e-05
0.000983098
3.39987e-05
0.000978197
3.35965e-05
0.000973135
3.3246e-05
0.000967922
-9.6442e-06
0.000962566
-1.05187e-05
0.000960115
-1.11109e-05
0.000957631
-1.14224e-05
0.000955071
-1.14515e-05
0.000952395
-1.11966e-05
0.000949569
-1.06571e-05
0.000946562
-9.83351e-06
0.000943346
-8.72799e-06
0.000939896
-7.34389e-06
0.00093619
-5.68586e-06
0.000932209
-3.75977e-06
0.000927936
-1.5725e-06
0.000923357
8.68684e-07
0.000918459
3.5547e-06
0.000913233
6.47441e-06
0.000907673
9.61903e-06
0.00090177
1.29797e-05
0.000895516
1.6548e-05
0.000888906
2.03151e-05
0.000881933
2.42722e-05
0.000874589
2.84111e-05
0.000866868
3.27228e-05
0.000858761
3.71967e-05
0.000850258
4.18184e-05
0.00084135
4.65669e-05
0.000832025
5.14135e-05
0.000822272
5.63217e-05
0.000812077
6.12485e-05
0.000801426
6.61455e-05
0.000790303
7.09618e-05
0.00077869
7.56454e-05
0.000766575
8.01462e-05
0.000753942
8.44172e-05
0.000740781
8.84165e-05
0.000727087
9.2108e-05
0.000712858
9.54618e-05
0.000698099
9.8454e-05
0.000682819
0.000101066
0.000667035
0.000103285
0.000650769
0.000105101
0.000634048
0.000106509
0.000616902
0.000107507
0.000599367
0.000108097
0.00058148
0.000108284
0.000563283
0.00010808
0.000544816
0.000107501
0.000526124
0.00010657
0.00050725
0.00010532
0.000488239
0.00010379
0.000469134
0.000102027
0.000449978
0.000100091
0.000430811
9.80466e-05
0.00041167
9.59687e-05
0.000392586
9.39388e-05
0.000373586
9.20438e-05
0.000354689
9.03733e-05
0.000335905
8.90163e-05
0.000317229
8.80579e-05
0.000298642
8.7576e-05
0.000280103
8.76409e-05
0.000261555
8.83188e-05
0.000242927
8.96813e-05
0.00022415
9.18232e-05
0.000205177
9.48823e-05
0.000186
9.9059e-05
0.000166653
0.000104631
0.000147198
0.000111962
0.000127691
0.000121522
0.000108167
0.000133909
8.86485e-05
0.000149859
6.91757e-05
0.000170141
4.97938e-05
0.000195191
3.0469e-05
0.000337549
1.09757e-05
-3.30838e-05
-3.60577e-05
0.000807485
-3.89715e-05
0.000821461
-4.17898e-05
0.000835692
-4.44792e-05
0.000850176
-4.70084e-05
0.000864899
-4.9349e-05
0.000879845
-5.14759e-05
0.000894989
-5.33677e-05
0.000910301
-5.50069e-05
0.000925746
-5.63799e-05
0.000941287
-5.74773e-05
0.000956881
-5.82936e-05
0.000972484
-5.88272e-05
0.000988052
-5.90801e-05
0.00100354
-5.90575e-05
0.00101889
-5.87677e-05
0.00103408
-5.82215e-05
0.00104905
-5.7432e-05
0.00106375
-5.6414e-05
0.00107816
2.63753e-06
0.00109224
2.24997e-05
0.00108478
2.54736e-05
0.00108539
2.7941e-05
0.00108549
3.00775e-05
0.00108509
3.19613e-05
0.00108424
3.36311e-05
0.00108299
3.51044e-05
0.00108136
3.63878e-05
0.0010794
3.74825e-05
0.00107714
3.83888e-05
0.00107459
3.91086e-05
0.00107178
3.96472e-05
0.00106873
4.00142e-05
0.00106544
4.02238e-05
0.00106192
4.02942e-05
0.00105818
4.02465e-05
0.00105423
4.01039e-05
0.00105007
3.98901e-05
0.0010457
3.96285e-05
0.00104115
3.93414e-05
0.00103642
3.9049e-05
0.00103151
3.87696e-05
0.00102645
3.85191e-05
0.00102124
3.83109e-05
0.0010159
-7.50406e-06
0.00101043
-8.36516e-06
0.00100726
-8.90025e-06
0.00100404
-9.11485e-06
0.00100073
-9.01122e-06
0.000997307
-8.59076e-06
0.000993731
-7.85512e-06
0.000989974
-6.80682e-06
0.000986008
-5.44948e-06
0.00098181
-3.78785e-06
0.000977357
-1.82786e-06
0.000972631
4.23592e-07
0.000967614
2.95887e-06
0.000962293
5.76759e-06
0.000956656
8.84009e-06
0.000950692
1.21663e-05
0.000944393
1.57357e-05
0.00093775
1.95378e-05
0.000930757
2.3562e-05
0.000923406
2.77974e-05
0.00091569
3.22332e-05
0.000907603
3.68581e-05
0.000899135
4.16601e-05
0.000890277
4.6625e-05
0.000881018
5.17353e-05
0.000871347
5.69678e-05
0.000861252
6.22928e-05
0.000850719
6.76739e-05
0.000839736
7.30685e-05
0.000828288
7.84298e-05
0.000816359
8.37076e-05
0.000803937
8.88512e-05
0.000791008
9.38108e-05
0.000777563
9.85391e-05
0.000763595
0.000102993
0.000749103
0.000107135
0.00073409
0.000110932
0.000718564
0.000114357
0.00070254
0.000117386
0.000686036
0.000120003
0.000669076
0.000122195
0.00065169
0.00012395
0.000633909
0.000125265
0.000615767
0.000126137
0.000597302
0.000126569
0.000578552
0.000126572
0.000559554
0.000126161
0.000540348
0.000125359
0.000520974
0.000124197
0.000501469
0.000122718
0.000481872
0.000120972
0.000462221
0.000119023
0.00044255
0.000116941
0.000422895
0.000114808
0.000403286
0.000112715
0.000383751
0.000110757
0.000364313
0.000109033
0.000344987
0.000107643
0.000325776
0.00010668
0.000306668
0.000106226
0.00028763
0.000106355
0.000268608
0.000107131
0.000249535
0.000108621
0.00023034
0.000110907
0.000210967
0.000114114
0.000191397
0.000118425
0.00017165
0.000124102
0.000151775
0.000131491
0.000131825
0.000141045
0.000111833
0.000153357
9.18258e-05
0.000169189
7.18452e-05
0.000189403
5.19467e-05
0.000214618
3.2124e-05
0.000348524
1.21924e-05
-4.68079e-05
-5.00336e-05
0.000820535
-5.3203e-05
0.000836449
-5.6273e-05
0.000852599
-5.92028e-05
0.000868983
-6.19543e-05
0.000885589
-6.44928e-05
0.0009024
-6.67879e-05
0.000919391
-6.88132e-05
0.000936531
-7.05474e-05
0.000953785
-7.19738e-05
0.000971112
-7.30807e-05
0.000988469
-7.38611e-05
0.00100581
-7.43128e-05
0.00102309
-7.44377e-05
0.00104025
-7.42418e-05
0.00105725
-7.37349e-05
0.00107405
-7.29294e-05
0.00109059
-7.18409e-05
0.00110683
-7.04866e-05
0.00112273
-1.31813e-06
0.00113825
2.14836e-05
0.00113128
2.49957e-05
0.00113254
2.79696e-05
0.00113324
3.05686e-05
0.00113338
3.28694e-05
0.00113301
3.49139e-05
0.00113216
3.67249e-05
0.00113087
3.8315e-05
0.00112919
3.96914e-05
0.00112714
4.08599e-05
0.00112475
4.18273e-05
0.00112205
4.26023e-05
0.00111905
4.31975e-05
0.00111577
4.36283e-05
0.00111222
4.39135e-05
0.00110843
4.4074e-05
0.0011044
4.41321e-05
0.00110014
4.41105e-05
0.00109567
4.40316e-05
0.001091
4.39164e-05
0.00108614
4.37844e-05
0.00108111
4.36533e-05
0.00107591
4.35386e-05
0.00107058
4.34539e-05
0.00106511
-4.66764e-06
0.00105953
-5.49508e-06
0.00105561
-5.96183e-06
0.00105163
-6.073e-06
0.00104755
-5.83221e-06
0.00104334
-5.24263e-06
0.00103898
-4.30772e-06
0.00103444
-3.0316e-06
0.00102969
-1.4195e-06
0.0010247
5.22604e-07
0.00101946
2.7879e-06
0.00101395
5.36751e-06
0.00100814
8.25227e-06
0.00100204
1.14322e-05
0.000995622
1.48965e-05
0.00098888
1.86338e-05
0.000981805
2.26322e-05
0.000974389
2.68798e-05
0.000966627
3.1364e-05
0.000958509
3.6072e-05
0.000950029
4.09905e-05
0.000941178
4.61057e-05
0.000931945
5.14023e-05
0.000922319
5.68631e-05
0.000912289
6.24674e-05
0.000901839
6.81895e-05
0.000890956
7.39982e-05
0.000879624
7.98565e-05
0.000867829
8.5722e-05
0.000855555
9.1548e-05
0.000842787
9.72851e-05
0.000829513
0.000102883
0.000815723
0.000108292
0.000801409
0.000113465
0.000786568
0.000118357
0.000771204
0.000122929
0.000755323
0.000127146
0.000738938
0.000130976
0.000722069
0.000134396
0.000704738
0.000137382
0.000686973
0.000139919
0.000668806
0.000141994
0.00065027
0.000143598
0.000631403
0.000144727
0.00061224
0.000145383
0.000592819
0.000145574
0.000573178
0.000145314
0.000553354
0.000144627
0.000533382
0.000143546
0.0005133
0.000142113
0.000493141
0.000140383
0.00047294
0.000138421
0.000452728
0.000136304
0.000432539
0.00013412
0.000412403
0.000131967
0.000392348
0.000129948
0.000372399
0.000128172
0.000352575
0.000126747
0.000332884
0.000125773
0.000313316
0.00012534
0.000293843
0.000125525
0.000274416
0.000126389
0.000254966
0.000127996
0.000235421
0.000130421
0.00021572
0.000133773
0.000195831
0.000138224
0.000175762
0.000144015
0.000155551
0.000151477
0.000135245
0.000161046
0.000114878
0.000173306
9.44775e-05
0.000189032
7.40877e-05
0.000209159
5.37724e-05
0.000234477
3.35508e-05
0.000360687
1.32825e-05
-6.24921e-05
-6.59478e-05
0.000834816
-6.93531e-05
0.000852607
-7.26565e-05
0.000870615
-7.58091e-05
0.00088884
-7.87653e-05
0.000907271
-8.14839e-05
0.000925891
-8.39282e-05
0.000944674
-8.60669e-05
0.000963588
-8.78744e-05
0.000982597
-8.93305e-05
0.00100166
-9.0421e-05
0.00102073
-9.11374e-05
0.00103975
-9.14766e-05
0.00105869
-9.14407e-05
0.00107748
-9.10365e-05
0.00109608
-9.02749e-05
0.00111444
-8.91707e-05
0.00113251
-8.77415e-05
0.00115024
-8.60076e-05
0.00116758
-6.26012e-06
0.00118451
1.97896e-05
0.00117805
2.38953e-05
0.00117996
2.74381e-05
0.00118126
3.05654e-05
0.00118195
3.33498e-05
0.00118207
3.58348e-05
0.00118166
3.80472e-05
0.00118076
4.00043e-05
0.0011794
4.17187e-05
0.00117763
4.32009e-05
0.00117547
4.44618e-05
0.00117295
4.55138e-05
0.00117008
4.63715e-05
0.0011669
4.70521e-05
0.00116342
4.75752e-05
0.00115965
4.79617e-05
0.00115562
4.82338e-05
0.00115134
4.84138e-05
0.00114683
4.85234e-05
0.0011421
4.85836e-05
0.00113717
4.86136e-05
0.00113206
4.86315e-05
0.00112679
4.86532e-05
0.00112137
4.86931e-05
0.00111581
-1.11081e-06
0.00111013
-1.88945e-06
0.00110549
-2.27641e-06
0.00110078
-2.27559e-06
0.00109597
-1.89098e-06
0.00109102
-1.12697e-06
0.0010859
1.15183e-08
0.0010806
1.51908e-06
0.00107508
3.38933e-06
0.00106931
5.61494e-06
0.00106329
8.18758e-06
0.00105699
1.10979e-05
0.00105039
1.43357e-05
0.00104348
1.78899e-05
0.00103626
2.17487e-05
0.0010287
2.58995e-05
0.00102081
3.03293e-05
0.00101257
3.50245e-05
0.00100398
3.9971e-05
0.000995037
4.51541e-05
0.000985726
5.05585e-05
0.000976042
5.61676e-05
0.000965972
6.19634e-05
0.000955506
6.79257e-05
0.000944629
7.40308e-05
0.000933327
8.02505e-05
0.000921582
8.65518e-05
0.000909379
9.28964e-05
0.000896701
9.92412e-05
0.000883532
0.000105539
0.000869857
0.000111741
0.000855665
0.000117796
0.000840946
0.000123654
0.000825696
0.000129267
0.000809915
0.00013459
0.000793609
0.00013958
0.00077679
0.0001442
0.000759475
0.000148417
0.000741687
0.000152203
0.000723452
0.000155534
0.000704802
0.000158389
0.000685772
0.000160755
0.000666398
0.000162619
0.000646717
0.000163977
0.00062677
0.000164829
0.000606592
0.000165181
0.000586223
0.000165048
0.000565698