/*--------------------------------*- C++ -*----------------------------------*\
| =========                 |                                                 |
| \\      /  F ield         | OpenFOAM: The Open Source CFD Toolbox           |
|  \\    /   O peration     | Version:  2.2.x                                 |
|   \\  /    A nd           | Web:      www.OpenFOAM.org                      |
|    \\/     M anipulation  |                                                 |
\*---------------------------------------------------------------------------*/
FoamFile
{
    version     2.0;
    format      ascii;
    class       volScalarField;
    location    "1.3";
    object      Bz;
}
// * * * * * * * * * * * * * * * * * * * * * * * * * * * * * * * * * * * * * //

dimensions      [1 0 -2 0 0 -1 0];

internalField   nonuniform List<scalar> 
14161
(
-1.84353e-20
-1.85377e-20
-1.8296e-20
-1.81256e-20
-1.70379e-20
-1.87269e-20
-1.68533e-20
-1.75649e-20
-1.76973e-20
-1.64856e-20
-1.8461e-20
-1.60954e-20
-1.81641e-20
-1.59522e-20
-1.68692e-20
-1.59303e-20
-1.67173e-20
-1.61873e-20
-1.6326e-20
-1.58462e-20
-1.64211e-20
-1.54954e-20
-1.56439e-20
-1.50873e-20
-1.53553e-20
-1.4891e-20
-1.47837e-20
-1.47012e-20
-1.45685e-20
-1.45099e-20
-1.41661e-20
-1.42025e-20
-1.4092e-20
-1.40668e-20
-1.38934e-20
-1.38988e-20
-1.37987e-20
-1.37683e-20
-1.37351e-20
-1.36638e-20
-1.3656e-20
-1.36256e-20
-1.36702e-20
-1.34807e-20
-1.35661e-20
-1.24299e-20
-7.42683e-21
5.94706e-20
5.77976e-19
2.78712e-18
3.12227e-18
2.23072e-18
1.73674e-18
1.6831e-18
1.44579e-18
1.2782e-18
8.519e-19
7.62566e-19
6.88781e-19
6.36389e-19
5.25082e-19
4.40097e-19
4.04451e-19
3.92113e-19
3.57467e-19
3.24726e-19
3.21368e-19
3.2384e-19
3.19513e-19
3.09806e-19
3.01743e-19
2.91085e-19
2.86974e-19
2.78457e-19
3.02033e-19
3.49232e-19
3.98446e-19
5.22135e-19
6.2406e-19
8.20381e-19
9.97326e-19
1.21923e-18
1.43146e-18
1.68719e-18
1.88389e-18
2.06777e-18
2.24835e-18
2.57131e-18
3.10755e-18
3.72897e-18
4.4892e-18
3.83156e-18
3.85661e-18
2.36022e-18
2.52627e-18
1.79599e-18
7.69958e-19
1.34059e-18
5.50087e-19
5.52551e-19
1.25944e-18
6.3934e-19
-9.76863e-20
6.13457e-19
9.29342e-19
7.3871e-19
3.32736e-19
6.75645e-19
8.39273e-19
1.08832e-18
9.75162e-19
1.3532e-18
1.33333e-18
1.79272e-18
1.95645e-18
2.20791e-18
2.07555e-18
1.87557e-18
1.63752e-18
4.1426e-20
4.23787e-20
4.21369e-20
4.1343e-20
4.1958e-20
4.01311e-20
4.27283e-20
3.81787e-20
4.31208e-20
3.80968e-20
4.27655e-20
3.78968e-20
4.30502e-20
3.81801e-20
4.03713e-20
3.72347e-20
4.09823e-20
3.70515e-20
3.90918e-20
3.68561e-20
3.74768e-20
3.70163e-20
3.65055e-20
3.58477e-20
3.77025e-20
3.76544e-20
3.72777e-20
3.7522e-20
3.6505e-20
3.73472e-20
3.6374e-20
3.69368e-20
3.68493e-20
3.65954e-20
3.61998e-20
3.66849e-20
3.6045e-20
3.62682e-20
3.60996e-20
3.62555e-20
3.61173e-20
3.60933e-20
3.60807e-20
3.5794e-20
3.591e-20
3.52353e-20
3.80601e-20
-3.18387e-20
-2.00065e-19
2.89508e-18
2.64942e-18
1.66047e-18
1.10557e-18
7.43438e-19
6.12812e-19
5.02822e-19
4.0701e-19
3.28423e-19
3.03187e-19
2.99769e-19
3.1356e-19
3.19828e-19
3.29213e-19
3.89223e-19
3.81343e-19
4.63021e-19
5.40191e-19
6.6855e-19
7.8719e-19
8.64712e-19
1.13396e-18
1.30933e-18
1.50217e-18
1.64851e-18
1.81318e-18
2.05663e-18
2.37309e-18
2.5887e-18
2.80675e-18
2.99867e-18
3.06156e-18
3.01038e-18
2.92849e-18
2.84831e-18
2.79192e-18
2.699e-18
2.46428e-18
2.70785e-18
2.37762e-18
2.87659e-18
3.4981e-18
1.70617e-18
3.11557e-18
1.94552e-18
6.12026e-19
2.23486e-18
2.76226e-18
1.40408e-18
4.05014e-19
1.02352e-18
1.77288e-18
1.6623e-18
8.69584e-19
3.26996e-19
2.30327e-19
1.04323e-18
1.41233e-18
1.41763e-18
1.00242e-18
1.15753e-18
1.13603e-18
1.5462e-18
1.39361e-18
1.83338e-18
1.88997e-18
2.02054e-18
2.25531e-18
8.54273e-19
-1.21117e-18
8.06049e-20
7.91133e-20
7.87822e-20
7.90453e-20
8.10922e-20
7.62824e-20
8.16136e-20
7.28858e-20
8.13529e-20
6.96313e-20
7.97382e-20
6.99583e-20
7.33266e-20
6.75957e-20
7.19486e-20
6.49664e-20
6.9166e-20
6.18221e-20
6.81523e-20
6.3365e-20
6.49935e-20
5.85939e-20
5.95331e-20
5.7641e-20
5.28671e-20
5.14027e-20
5.03421e-20
4.86782e-20
4.76875e-20
4.89065e-20
4.7624e-20
4.85125e-20
4.70019e-20
4.81774e-20
4.72023e-20
4.74562e-20
4.74712e-20
4.73728e-20
4.70878e-20
4.70553e-20
4.66871e-20
4.68371e-20
4.64952e-20
4.63285e-20
4.65438e-20
4.74137e-20
5.82306e-20
1.4664e-19
5.9306e-19
9.67374e-19
7.12334e-19
3.73873e-19
1.76941e-19
1.47604e-19
1.18936e-19
1.19257e-19
1.68952e-19
1.92579e-19
2.20083e-19
2.03003e-19
3.11485e-19
3.62951e-19
3.30769e-19
3.85149e-19
5.9317e-19
7.13932e-19
8.42755e-19
1.0291e-18
1.32274e-18
1.65331e-18
1.88336e-18
2.21261e-18
2.45695e-18
2.6832e-18
2.9047e-18
3.06557e-18
3.17261e-18
3.22556e-18
3.1886e-18
3.00206e-18
2.6506e-18
2.30453e-18
1.81995e-18
1.57296e-18
6.99016e-19
1.49204e-18
7.76663e-20
1.47187e-18
3.26914e-19
5.71457e-19
1.63428e-18
4.89912e-19
1.5281e-18
2.97223e-18
4.99799e-19
-2.81209e-18
3.62728e-18
6.95714e-18
1.6544e-18
-2.1779e-18
-5.16397e-19
2.7082e-18
3.67027e-18
2.19063e-18
1.07695e-18
1.81661e-18
2.66527e-18
2.53782e-18
2.19273e-18
2.26e-18
2.38409e-18
2.25014e-18
2.19441e-18
2.67975e-18
3.07597e-18
3.19602e-18
3.96404e-18
1.48324e-18
-9.10448e-19
-4.74321e-20
-4.63078e-20
-4.52083e-20
-4.52637e-20
-4.59368e-20
-4.71341e-20
-4.96404e-20
-4.45711e-20
-4.77971e-20
-4.14661e-20
-4.63019e-20
-4.15306e-20
-4.70603e-20
-3.52927e-20
-4.38508e-20
-2.57435e-20
-4.02571e-20
-2.38796e-20
-4.22525e-20
-2.79392e-20
-3.27336e-20
-2.58033e-20
-2.9462e-20
-2.44913e-20
-2.12661e-20
-2.24987e-20
-1.86052e-20
-1.51486e-20
-1.26426e-20
-1.51775e-20
-1.38979e-20
-1.27231e-20
-1.1219e-20
-1.01415e-20
-9.18409e-21
-7.7008e-21
-8.04482e-21
-7.07932e-21
-6.67462e-21
-6.74484e-21
-6.54675e-21
-6.82991e-21
-6.25837e-21
-7.44018e-21
-6.05571e-21
-2.11298e-21
1.13112e-20
7.27546e-20
9.25684e-19
1.21838e-18
9.04156e-19
2.77746e-19
2.16475e-19
1.95343e-19
2.03774e-19
2.573e-19
2.32958e-19
2.45161e-19
2.82609e-19
3.10077e-19
3.86893e-19
3.95093e-19
3.94584e-19
5.87181e-19
6.33149e-19
7.0285e-19
7.76512e-19
9.27884e-19
1.22333e-18
1.48774e-18
1.82202e-18
2.05394e-18
2.37992e-18
2.65866e-18
2.90997e-18
3.08991e-18
3.16803e-18
3.18848e-18
3.14312e-18
2.88919e-18
2.35964e-18
1.65737e-18
8.30065e-19
5.10613e-19
-1.67811e-19
1.62143e-19
-1.05809e-18
-1.98398e-19
-4.21635e-19
-1.19799e-18
-2.63333e-19
1.04291e-18
-3.92811e-18
5.24793e-18
3.39018e-18
-2.50737e-18
-5.07704e-18
4.51704e-18
1.15204e-17
-2.62221e-18
-8.07084e-18
-2.59163e-19
4.37656e-18
3.92829e-18
7.22975e-19
-1.36294e-18
-5.33444e-19
4.37312e-19
6.48565e-20
-5.93924e-19
-1.05745e-18
-4.60419e-19
-2.53476e-20
7.12615e-19
1.86219e-18
2.64122e-18
3.08402e-18
1.71805e-18
-1.66531e-18
-6.7007e-21
-4.23708e-21
-5.01287e-21
-2.46396e-21
-5.07889e-21
1.25045e-20
1.26865e-20
1.66285e-20
8.90522e-21
3.86067e-20
1.52449e-20
3.28177e-20
4.67607e-20
3.78614e-20
5.40635e-20
3.49412e-20
6.23546e-20
5.45345e-20
6.72241e-20
6.22912e-20
6.0705e-20
6.54137e-20
6.28447e-20
6.33995e-20
6.54327e-20
7.19876e-20
7.34155e-20
7.36428e-20
7.53606e-20
8.30723e-20
8.53674e-20
8.51563e-20
8.74648e-20
8.8345e-20
8.73358e-20
9.04379e-20
9.13047e-20
9.04408e-20
9.27537e-20
9.26701e-20
9.35655e-20
9.25749e-20
9.48355e-20
9.37873e-20
8.99585e-20
1.26915e-19
9.40185e-20
-3.35272e-19
2.80401e-18
3.88336e-18
2.30071e-18
3.74047e-19
3.93647e-19
4.20138e-19
4.38817e-19
4.56344e-19
4.74541e-19
5.10364e-19
4.71034e-19
4.86822e-19
5.99486e-19
5.81179e-19
5.22623e-19
7.21557e-19
9.17835e-19
7.34668e-19
8.07183e-19
1.14549e-18
1.34417e-18
1.43616e-18
1.55485e-18
1.76455e-18
2.07941e-18
2.28097e-18
2.43282e-18
2.66245e-18
2.90643e-18
3.12097e-18
3.14166e-18
3.05511e-18
2.62523e-18
1.9086e-18
9.03044e-19
3.08094e-19
-2.43451e-19
-2.01125e-19
-9.42252e-19
-1.07556e-18
-1.01411e-18
-2.23316e-18
-1.48896e-18
-7.96892e-19
-2.04306e-18
-2.91275e-18
3.3774e-18
6.36167e-18
-1.42809e-17
-4.93915e-18
1.17004e-17
-8.80545e-19
-7.30398e-18
-6.18376e-18
-2.48642e-18
-7.97583e-20
-1.08245e-18
-3.71937e-18
-3.58183e-18
-3.0386e-18
-2.75759e-18
-3.81275e-18
-3.09199e-18
-3.14545e-18
-2.3871e-18
-1.02326e-18
-2.57155e-19
1.37939e-18
3.24486e-18
9.45535e-19
-1.88988e-18
2.34529e-19
2.33175e-19
2.34194e-19
2.32687e-19
2.28345e-19
2.25203e-19
2.02281e-19
2.39714e-19
2.09373e-19
2.21817e-19
2.088e-19
2.35492e-19
1.7956e-19
2.33336e-19
1.95166e-19
2.38619e-19
1.89763e-19
2.2064e-19
2.1994e-19
2.10252e-19
2.16565e-19
2.13327e-19
2.22182e-19
2.21632e-19
2.25927e-19
2.29877e-19
2.31812e-19
2.30945e-19
2.30932e-19
2.28198e-19
2.3027e-19
2.29135e-19
2.30265e-19
2.30079e-19
2.31135e-19
2.31592e-19
2.32505e-19
2.3333e-19
2.33551e-19
2.33612e-19
2.33663e-19
2.3421e-19
2.3446e-19
2.38277e-19
2.24619e-19
1.77211e-19
3.33298e-19
7.50648e-19
4.74227e-18
5.68421e-18
4.21899e-18
2.1158e-18
1.47752e-18
1.4602e-18
1.51037e-18
1.5024e-18
1.42221e-18
1.37322e-18
1.3134e-18
1.17735e-18
1.1125e-18
1.04455e-18
1.13991e-18
1.01415e-18
1.02199e-18
1.01873e-18
1.03559e-18
1.06331e-18
1.02332e-18
8.52395e-19
9.08715e-19
9.23886e-19
9.20881e-19
9.58412e-19
1.01692e-18
1.20805e-18
1.50341e-18
1.99549e-18
2.58345e-18
3.1233e-18
3.26644e-18
2.75507e-18
1.58099e-18
1.07902e-18
3.98673e-20
-8.06937e-20
-5.28897e-19
-1.38167e-18
-1.11655e-18
-2.55827e-18
-2.11151e-18
-3.40039e-18
9.43355e-19
-9.18826e-18
-2.48644e-19
9.93964e-18
-1.70947e-17
-8.6986e-18
1.06396e-17
3.53306e-19
-9.39139e-18
-8.27872e-18
-2.99638e-18
-2.56194e-19
-2.57045e-18
-5.29811e-18
-4.47105e-18
-2.78449e-18
-3.32823e-18
-4.65983e-18
-4.60973e-18
-4.36192e-18
-5.28037e-18
-2.80088e-18
-1.85877e-18
-6.6302e-19
-2.28238e-19
-1.23749e-18
-5.64581e-18
3.03565e-19
2.96822e-19
2.92948e-19
2.90085e-19
2.88766e-19
3.02225e-19
2.75921e-19
2.86426e-19
2.76077e-19
2.60713e-19
2.67586e-19
2.51162e-19
2.79605e-19
2.51717e-19
2.40188e-19
2.35672e-19
2.41928e-19
2.55833e-19
2.35627e-19
2.60838e-19
2.56824e-19
2.63116e-19
2.56935e-19
2.66959e-19
2.53227e-19
2.51833e-19
2.57017e-19
2.62587e-19
2.63921e-19
2.61172e-19
2.63094e-19
2.64941e-19
2.67539e-19
2.70039e-19
2.71796e-19
2.7356e-19
2.75822e-19
2.77899e-19
2.80405e-19
2.81883e-19
2.83508e-19
2.83106e-19
2.84066e-19
2.84739e-19
2.92216e-19
3.17142e-19
4.1921e-19
1.2006e-18
4.75725e-18
8.09264e-18
5.98057e-18
3.30422e-18
2.89488e-18
3.47695e-18
3.48473e-18
3.26958e-18
3.24995e-18
3.01229e-18
2.57287e-18
2.27891e-18
2.15293e-18
1.97842e-18
1.73018e-18
1.68068e-18
1.6297e-18
1.43041e-18
1.303e-18
1.22717e-18
1.22623e-18
1.14613e-18
1.05576e-18
1.01697e-18
9.86305e-19
9.90385e-19
9.66698e-19
9.77296e-19
1.02379e-18
1.17368e-18
1.78884e-18
2.64783e-18
3.8641e-18
3.72607e-18
2.65614e-18
1.57769e-18
9.61624e-19
-1.20035e-19
-2.13965e-19
-1.02358e-18
-1.21524e-18
-2.25058e-18
-2.02579e-18
-5.41284e-18
2.81649e-18
-1.17651e-17
-2.1227e-18
1.08816e-17
-1.7865e-17
-1.08755e-17
8.40704e-18
-1.09108e-18
-1.0588e-17
-8.39909e-18
-2.7868e-18
-6.53698e-19
-3.57904e-18
-4.79443e-18
-3.04369e-18
-1.98837e-18
-3.60013e-18
-3.20804e-18
-3.44028e-18
-3.12918e-18
-4.45351e-18
-4.95472e-18
-4.06326e-18
-2.38462e-18
-1.36598e-18
-3.33034e-18
-6.56934e-18
1.17827e-19
1.24617e-19
1.29671e-19
1.30029e-19
1.34929e-19
1.40512e-19
1.85582e-19
1.62323e-19
1.89009e-19
1.76046e-19
2.02022e-19
1.98956e-19
2.25581e-19
2.29925e-19
2.88772e-19
2.60083e-19
2.97439e-19
2.86085e-19
2.82094e-19
3.06537e-19
3.08152e-19
2.91289e-19
3.12835e-19
3.00527e-19
3.32064e-19
3.41011e-19
3.43426e-19
3.50914e-19
3.5596e-19
3.65328e-19
3.64399e-19
3.67702e-19
3.64056e-19
3.7034e-19
3.69098e-19
3.67853e-19
3.69621e-19
3.68457e-19
3.68694e-19
3.69881e-19
3.7008e-19
3.70952e-19
3.6952e-19
3.7117e-19
3.72014e-19
3.71216e-19
3.67207e-19
5.02423e-19
9.66195e-19
1.97102e-17
1.863e-17
1.39031e-17
1.05754e-17
9.51687e-18
9.03115e-18
7.65057e-18
6.73838e-18
5.55643e-18
5.01784e-18
3.82451e-18
3.17491e-18
2.46928e-18
2.18757e-18
2.0797e-18
1.91174e-18
1.80707e-18
1.56664e-18
1.46286e-18
1.43184e-18
1.38503e-18
1.29966e-18
1.2004e-18
1.11992e-18
1.08088e-18
1.03288e-18
1.0063e-18
1.0003e-18
1.04717e-18
1.31814e-18
2.70219e-18
4.08429e-18
4.05774e-18
3.69763e-18
2.10813e-18
1.508e-18
2.21217e-19
-1.29706e-20
-4.7635e-19
-7.77101e-19
-2.22369e-18
-1.17166e-18
-6.39446e-18
2.78455e-18
-1.11754e-17
-6.1097e-18
1.09374e-17
-1.5564e-17
-1.01655e-17
6.92878e-18
-2.44467e-18
-8.75859e-18
-6.37586e-18
-1.50258e-18
-4.04303e-19
-3.40393e-18
-3.44798e-18
-2.52817e-18
-2.30878e-18
-2.7097e-18
-3.09466e-18
-3.07588e-18
-2.75495e-18
-3.45574e-18
-3.85076e-18
-4.63666e-18
-5.01959e-18
-3.84946e-18
-6.22758e-18
-7.24199e-18
2.63885e-19
2.82045e-19
2.94794e-19
3.21469e-19
3.17239e-19
3.31672e-19
3.4666e-19
3.32811e-19
3.82331e-19
3.76602e-19
3.88988e-19
4.16664e-19
3.95573e-19
4.3949e-19
4.033e-19
4.54797e-19
4.19637e-19
4.5083e-19
4.6411e-19
4.65586e-19
4.60364e-19
4.99255e-19
4.90778e-19
5.03019e-19
4.88925e-19
4.86296e-19
4.91627e-19
4.89625e-19
4.7883e-19
4.87957e-19
4.74923e-19
4.79059e-19
4.74361e-19
4.71676e-19
4.64999e-19
4.62203e-19
4.60565e-19
4.57796e-19
4.56967e-19
4.55046e-19
4.54607e-19
4.54255e-19
4.5273e-19
4.53201e-19
4.5398e-19
4.53723e-19
4.69346e-19
9.61641e-19
4.18826e-18
2.19289e-17
3.80481e-17
2.52671e-17
1.92369e-17
1.59993e-17
1.31028e-17
1.14358e-17
8.97557e-18
7.51358e-18
5.82312e-18
4.14679e-18
3.52294e-18
2.80282e-18
2.41011e-18
2.06999e-18
1.90722e-18
1.73647e-18
1.53033e-18
1.41239e-18
1.36744e-18
1.24037e-18
1.20335e-18
1.04841e-18
9.85222e-19
9.41215e-19
8.36988e-19
8.50763e-19
8.79137e-19
1.06054e-18
1.53485e-18
3.07224e-18
4.33367e-18
4.32317e-18
3.16402e-18
2.26245e-18
1.18616e-18
5.57985e-19
2.61097e-20
-5.04355e-20
-2.61206e-19
-1.59921e-18
-1.08213e-21
-5.88223e-18
1.11063e-18
-6.90444e-18
-9.65766e-18
1.08908e-17
-1.37148e-17
-9.23629e-18
5.13407e-18
-2.99821e-18
-8.40211e-18
-4.79044e-18
-9.34087e-19
-1.06768e-18
-3.82033e-18
-3.60706e-18
-3.46568e-18
-4.39932e-18
-4.86168e-18
-4.86988e-18
-4.65929e-18
-3.28054e-18
-3.60213e-18
-2.3338e-18
-4.00835e-18
-5.90699e-18
-6.77636e-18
-7.8743e-18
-1.03291e-17
5.06472e-19
5.00766e-19
4.99033e-19
4.88281e-19
5.02121e-19
5.24595e-19
4.52515e-19
4.98721e-19
4.51105e-19
5.14021e-19
4.94616e-19
4.79386e-19
5.40748e-19
4.44547e-19
5.16792e-19
4.70084e-19
4.97122e-19
4.7561e-19
4.87213e-19
4.68504e-19
4.76275e-19
4.55185e-19
4.3145e-19
4.37309e-19
4.19104e-19
4.40876e-19
4.26044e-19
4.22067e-19
4.26194e-19
4.06988e-19
4.15058e-19
4.03677e-19
4.08659e-19
4.08735e-19
4.10979e-19
4.13513e-19
4.13438e-19
4.12805e-19
4.13577e-19
4.14283e-19
4.13925e-19
4.13466e-19
4.13807e-19
4.11843e-19
3.98824e-19
3.4861e-19
1.44772e-19
-6.46189e-19
3.52652e-18
1.46324e-17
4.65332e-17
3.27438e-17
2.09916e-17
1.6431e-17
1.30423e-17
1.11466e-17
8.67629e-18
6.98503e-18
5.37907e-18
4.38212e-18
3.33894e-18
2.68532e-18
2.14044e-18
1.75935e-18
1.67855e-18
1.55192e-18
1.36676e-18
1.18452e-18
1.19577e-18
1.23926e-18
1.11396e-18
1.0015e-18
9.26847e-19
9.03069e-19
9.1036e-19
8.83312e-19
1.00814e-18
1.48079e-18
2.28117e-18
3.78688e-18
4.56686e-18
3.89005e-18
2.68931e-18
1.92018e-18
8.36372e-19
7.86023e-19
5.5311e-20
1.98255e-19
4.29266e-20
-1.23527e-18
4.87218e-19
-4.58434e-18
-5.13944e-19
-2.9851e-18
-1.13568e-17
8.02388e-18
-9.97015e-18
-1.0013e-17
3.2973e-18
-2.19962e-18
-7.76818e-18
-3.78808e-18
-5.43967e-19
-1.41329e-18
-3.10736e-18
-2.98049e-18
-4.13353e-18
-5.48274e-18
-5.9786e-18
-7.06756e-18
-8.09973e-18
-7.41749e-18
-5.85462e-18
-1.11779e-18
-2.71857e-18
-3.89062e-18
-7.53709e-18
-7.9054e-18
-1.0533e-17
4.80168e-19
4.70193e-19
4.67344e-19
4.72693e-19
4.62719e-19
4.2173e-19
4.54052e-19
4.55874e-19
4.48984e-19
4.2521e-19
3.89876e-19
4.23294e-19
3.61827e-19
4.17278e-19
3.42306e-19
3.65153e-19
3.32281e-19
3.47894e-19
3.01036e-19
3.33255e-19
3.186e-19
3.05199e-19
3.47909e-19
3.33774e-19
3.54044e-19
3.32693e-19
3.39113e-19
3.60125e-19
3.47891e-19
3.63245e-19
3.55471e-19
3.63999e-19
3.71789e-19
3.81194e-19
3.82989e-19
3.85922e-19
3.93633e-19
3.9578e-19
3.98761e-19
4.01615e-19
4.039e-19
4.0356e-19
4.03493e-19
4.056e-19
4.04313e-19
4.0524e-19
4.13344e-19
5.84429e-19
2.18807e-18
1.12974e-17
4.6884e-17
3.22885e-17
1.99665e-17
1.58803e-17
1.22552e-17
9.1002e-18
7.5722e-18
5.1272e-18
4.75423e-18
3.2375e-18
2.55226e-18
2.04726e-18
1.48397e-18
1.20456e-18
1.1453e-18
1.12081e-18
9.59255e-19
7.85834e-19
8.29825e-19
9.10118e-19
8.04525e-19
7.06838e-19
7.56798e-19
7.88536e-19
7.93089e-19
8.24745e-19
1.02511e-18
1.81559e-18
2.96417e-18
4.5286e-18
3.94946e-18
3.03289e-18
1.34528e-18
1.34091e-18
1.6851e-19
5.97668e-19
1.64459e-19
-1.96095e-20
4.82905e-19
-1.63923e-18
1.02311e-18
-3.70647e-18
-1.38715e-18
-1.23418e-18
-9.54444e-18
4.34246e-18
-6.10745e-18
-9.93162e-18
2.72203e-18
-1.70571e-18
-6.96058e-18
-3.01296e-18
2.56898e-20
-5.85057e-19
-2.18311e-18
-2.83238e-18
-4.0536e-18
-5.42932e-18
-6.59372e-18
-7.94459e-18
-8.82883e-18
-9.20426e-18
-8.69098e-18
-4.67377e-18
-3.00902e-18
-2.6757e-18
-4.68371e-18
-3.37957e-18
-5.67488e-18
4.00215e-19
4.01479e-19
4.02147e-19
3.94157e-19
4.18429e-19
3.675e-19
4.34505e-19
3.39993e-19
3.92714e-19
3.52553e-19
4.42687e-19
3.41009e-19
4.1536e-19
3.59178e-19
3.95218e-19
3.77915e-19
4.12676e-19
3.89044e-19
4.26671e-19
4.20519e-19
4.1646e-19
4.62434e-19
4.50245e-19
4.53391e-19
4.62476e-19
4.67131e-19
4.89701e-19
4.53521e-19
4.95564e-19
4.9177e-19
5.03689e-19
5.00051e-19
4.96925e-19
4.98148e-19
4.95292e-19
4.9649e-19
4.9189e-19
4.90694e-19
4.89835e-19
4.89011e-19
4.87533e-19
4.88454e-19
4.87209e-19
4.90193e-19
4.8702e-19
4.89359e-19
5.10492e-19
7.11212e-19
2.11097e-18
1.30073e-17
2.9713e-17
2.62597e-17
1.9298e-17
1.46998e-17
1.12525e-17
6.9717e-18
5.94418e-18
4.30737e-18
3.61626e-18
2.74612e-18
2.06318e-18
1.60422e-18
1.1101e-18
8.69358e-19
8.16773e-19
9.1722e-19
8.7134e-19
7.60585e-19
8.14678e-19
7.81901e-19
8.24613e-19
7.85475e-19
7.81066e-19
7.75601e-19
8.26263e-19
9.22528e-19
1.32349e-18
2.14236e-18
3.39019e-18
4.18989e-18
3.03397e-18
2.35748e-18
5.70248e-19
1.02842e-18
-2.62015e-19
1.68191e-19
2.07543e-19
-5.7152e-19
5.97028e-19
-9.31374e-19
5.31716e-19
-1.84873e-18
-1.91179e-18
-4.301e-19
-7.03272e-18
-2.70927e-19
-1.61943e-18
-9.35387e-18
1.77611e-18
2.48266e-19
-5.13168e-18
-1.71967e-18
9.55614e-19
1.02989e-18
-6.59741e-19
-1.64789e-18
-3.98531e-18
-5.39815e-18
-6.92117e-18
-8.00338e-18
-8.48128e-18
-1.01793e-17
-9.90521e-18
-9.00572e-18
-4.98824e-18
-5.63784e-19
-8.03589e-19
-3.50848e-19
-1.41977e-19
4.68135e-19
4.71787e-19
4.69793e-19
4.57171e-19
4.51402e-19
4.71632e-19
4.87313e-19
4.90109e-19
4.87376e-19
4.90883e-19
4.76633e-19
4.875e-19
5.07422e-19
4.7979e-19
5.29e-19
5.01001e-19
5.05569e-19
5.20755e-19
5.52587e-19
5.35545e-19
5.66147e-19
5.46973e-19
5.22701e-19
5.45549e-19
5.06896e-19
5.50694e-19
5.22289e-19
5.54169e-19
5.33707e-19
5.30183e-19
5.25624e-19
5.30406e-19
5.18766e-19
5.22086e-19
5.19313e-19
5.20844e-19
5.17824e-19
5.1611e-19
5.13728e-19
5.11074e-19
5.08401e-19
5.05055e-19
5.03212e-19
5.03369e-19
5.03327e-19
5.02293e-19
5.13523e-19
6.5519e-19
1.83706e-18
8.88141e-18
1.61285e-17
2.00947e-17
1.92346e-17
1.53141e-17
1.14995e-17
7.45487e-18
6.03817e-18
4.0539e-18
3.08826e-18
2.36948e-18
1.9413e-18
1.47468e-18
1.19962e-18
1.01464e-18
9.7666e-19
9.7939e-19
9.6109e-19
9.30637e-19
9.93112e-19
9.66172e-19
9.07924e-19
9.43077e-19
9.64134e-19
9.87667e-19
1.10299e-18
1.1749e-18
1.65387e-18
2.67584e-18
3.53185e-18
3.56645e-18
1.74549e-18
1.46358e-18
8.67249e-20
9.39019e-19
5.78522e-20
1.93616e-19
2.28774e-19
-1.19164e-18
-1.17816e-19
-8.93805e-19
-1.62442e-19
-9.42941e-19
-2.25341e-18
-7.73399e-19
-4.96709e-18
-2.64452e-18
-6.28315e-19
-7.7804e-18
6.70481e-19
1.39601e-18
-3.62626e-18
-1.55911e-18
1.50481e-18
1.64612e-18
1.94742e-19
-2.39973e-18
-3.31937e-18
-5.9541e-18
-8.10575e-18
-8.23578e-18
-8.7175e-18
-9.45552e-18
-9.73405e-18
-1.04173e-17
-9.44815e-18
-2.93032e-18
-5.85317e-19
1.01364e-18
2.86113e-18
5.0457e-19
5.06976e-19
5.29107e-19
5.24366e-19
4.92088e-19
5.67052e-19
4.28373e-19
4.85939e-19
5.00545e-19
5.72983e-19
4.76412e-19
5.8853e-19
4.91252e-19
5.78495e-19
5.78881e-19
5.59912e-19
5.87485e-19
5.30557e-19
5.98339e-19
5.55805e-19
5.97082e-19
5.18417e-19
5.56472e-19
5.17315e-19
5.52494e-19
5.23154e-19
5.347e-19
5.22974e-19
5.17812e-19
5.11019e-19
5.16368e-19
5.12396e-19
5.09802e-19
5.0326e-19
5.03996e-19
4.99038e-19
5.00316e-19
4.95354e-19
4.92089e-19
4.90172e-19
4.92144e-19
4.85387e-19
4.83718e-19
4.79805e-19
4.80417e-19
4.85728e-19
4.98411e-19
6.54876e-19
1.81797e-18
6.02655e-18
9.08371e-18
1.19318e-17
1.60931e-17
1.51122e-17
1.21645e-17
8.77204e-18
6.55091e-18
4.77616e-18
3.57502e-18
2.86568e-18
2.32839e-18
1.8557e-18
1.55877e-18
1.30901e-18
1.25249e-18
1.33166e-18
1.19756e-18
1.07753e-18
1.13123e-18
1.09388e-18
9.80851e-19
9.62656e-19
9.73011e-19
1.0293e-18
1.09354e-18
1.32887e-18
1.78976e-18
2.6874e-18
2.67844e-18
2.28924e-18
9.52799e-19
6.23025e-19
-1.87472e-19
-3.22156e-19
-7.14126e-19
-5.78547e-19
-1.5002e-19
-8.73632e-19
-1.7043e-19
-6.47356e-19
-4.55571e-19
-6.53029e-19
-2.22714e-18
-1.24328e-18
-4.08353e-18
-3.67225e-18
-5.69445e-19
-5.55846e-18
-9.72429e-19
2.94191e-18
-1.9376e-18
-1.03479e-18
2.04309e-18
2.43607e-18
-4.16096e-19
-2.69984e-18
-6.20702e-18
-7.13465e-18
-8.59557e-18
-9.39117e-18
-8.755e-18
-9.4198e-18
-9.01316e-18
-1.13869e-17
-1.16293e-17
-8.70876e-18
-4.76014e-18
-1.08954e-18
7.81146e-19
5.1531e-19
5.09829e-19
4.87404e-19
4.98784e-19
4.97923e-19
5.09756e-19
5.28894e-19
6.50225e-19
5.28028e-19
5.10978e-19
5.6222e-19
5.96786e-19
5.51797e-19
6.31761e-19
5.31458e-19
6.22147e-19
5.57015e-19
6.33645e-19
5.33627e-19
5.68329e-19
5.19804e-19
5.68271e-19
5.49535e-19
5.48219e-19
5.85683e-19
5.56973e-19
5.64171e-19
5.144e-19
5.21479e-19
5.07946e-19
5.15386e-19
5.00351e-19
4.96184e-19
4.94699e-19
4.78684e-19
4.82139e-19
4.63353e-19
4.62475e-19
4.57387e-19
4.46864e-19
4.47449e-19
4.40648e-19
4.38991e-19
4.34182e-19
4.34722e-19
4.31639e-19
4.60405e-19
7.59466e-19
2.32596e-18
3.82043e-18
5.30429e-18
6.73108e-18
1.00594e-17
1.31979e-17
1.39991e-17
1.13874e-17
8.01071e-18
5.9156e-18
3.86475e-18
2.94689e-18
2.34636e-18
1.69527e-18
1.50261e-18
1.26753e-18
1.15295e-18
1.13974e-18
1.08271e-18
9.42153e-19
8.52716e-19
9.20006e-19
9.27675e-19
8.38818e-19
8.14345e-19
8.48962e-19
9.41799e-19
1.0922e-18
1.40589e-18
1.8304e-18
1.08706e-18
7.88832e-19
-2.55093e-19
4.93357e-19
4.08693e-19
2.53333e-19
8.90644e-20
-3.34789e-19
-3.85076e-20
-6.58069e-19
-3.72364e-19
-8.89151e-19
-1.12048e-18
-1.11633e-18
-2.09745e-18
-1.80259e-18
-3.08882e-18
-3.8164e-18
-1.81383e-18
-4.10905e-18
-2.48648e-18
2.65119e-18
-8.92781e-19
-1.13781e-18
1.65984e-18
1.86046e-18
-1.88886e-19
-3.48487e-18
-6.32265e-18
-8.38389e-18
-9.4888e-18
-9.89465e-18
-9.19265e-18
-8.40665e-18
-7.83194e-18
-8.38154e-18
-1.07525e-17
-1.28843e-17
-1.08624e-17
-6.98289e-18
-1.21467e-17
5.54816e-19
5.32522e-19
5.22335e-19
5.39951e-19
5.38853e-19
6.18974e-19
6.01881e-19
6.55259e-19
6.13637e-19
6.97583e-19
5.80651e-19
5.14683e-19
6.35901e-19
5.21229e-19
5.58175e-19
5.53287e-19
5.11616e-19
5.27592e-19
4.08457e-19
5.06799e-19
4.38493e-19
4.94786e-19
4.10974e-19
4.8029e-19
3.75603e-19
4.30639e-19
3.68186e-19
3.84998e-19
3.74439e-19
3.65344e-19
3.60056e-19
3.38427e-19
3.49613e-19
3.28642e-19
3.29201e-19
3.2579e-19
3.3174e-19
3.27397e-19
3.30177e-19
3.22409e-19
3.30475e-19
3.24905e-19
3.22266e-19
3.17511e-19
3.1927e-19
3.10581e-19
3.48526e-19
6.67225e-19
2.19688e-18
2.82856e-18
3.48296e-18
3.938e-18
5.60803e-18
7.51327e-18
1.06304e-17
1.13471e-17
8.81098e-18
7.42522e-18
4.8206e-18
3.83547e-18
2.69e-18
2.15204e-18
1.75602e-18
1.36662e-18
1.31054e-18
1.21159e-18
1.15812e-18
1.0127e-18
9.79811e-19
9.77776e-19
9.70175e-19
9.66412e-19
8.93432e-19
8.5559e-19
8.86012e-19
9.33224e-19
1.02644e-18
1.01876e-18
2.09375e-19
7.31602e-19
-7.02592e-19
-7.15814e-19
-9.82242e-19
-8.13739e-19
-3.76604e-19
-3.8375e-19
-3.6161e-19
-9.18107e-19
-7.15289e-19
-1.28178e-18
-1.71085e-18
-1.81732e-18
-2.53248e-18
-2.16415e-18
-3.16248e-18
-4.35324e-18
-3.34853e-18
-3.93554e-18
-3.75594e-18
1.71188e-18
6.59884e-19
-1.0486e-18
1.10904e-18
1.31333e-18
-1.31555e-18
-2.74441e-18
-7.39604e-18
-8.57253e-18
-1.10643e-17
-1.05864e-17
-9.29376e-18
-8.24163e-18
-7.09657e-18
-5.30928e-18
-6.15286e-18
-1.05011e-17
-1.51897e-17
-1.51179e-17
-1.4168e-17
5.82681e-19
6.18904e-19
5.98506e-19
5.745e-19
5.52085e-19
4.92603e-19
4.78553e-19
4.93473e-19
4.2974e-19
5.32981e-19
3.85217e-19
5.64698e-19
4.00621e-19
5.41221e-19
3.86145e-19
4.60057e-19
4.05722e-19
4.36885e-19
4.49738e-19
4.13396e-19
3.31987e-19
3.56385e-19
3.38357e-19
3.43345e-19
3.4263e-19
2.84349e-19
3.25688e-19
3.29e-19
3.23395e-19
2.923e-19
2.9889e-19
2.89831e-19
2.68371e-19
2.71325e-19
2.72142e-19
2.71124e-19
2.66489e-19
2.54863e-19
2.50966e-19
2.42656e-19
2.41479e-19
2.30383e-19
2.29108e-19
2.25504e-19
2.20973e-19
2.19999e-19
2.68867e-19
7.25775e-19
1.77086e-18
2.05875e-18
2.31533e-18
2.46699e-18
2.68817e-18
4.00592e-18
5.83618e-18
7.69332e-18
8.33342e-18
7.33476e-18
6.13072e-18
4.3038e-18
3.31189e-18
2.47398e-18
1.86543e-18
1.51247e-18
1.43107e-18
1.3854e-18
1.24045e-18
1.05638e-18
1.02796e-18
9.46606e-19
8.55104e-19
6.81009e-19
5.98912e-19
5.14292e-19
5.60312e-19
4.62223e-19
3.53719e-19
-2.77051e-19
-1.55807e-18
-4.19301e-19
-2.16195e-19
-1.62489e-20
-2.95028e-19
-5.24415e-19
-4.51066e-19
-8.79311e-19
-8.20871e-19
-1.13115e-18
-1.15492e-18
-1.59467e-18
-2.15947e-18
-2.44381e-18
-2.99368e-18
-3.35876e-18
-3.6922e-18
-4.79447e-18
-4.47032e-18
-4.32243e-18
-4.98849e-18
-1.20319e-18
-3.4323e-19
-2.14996e-18
1.39181e-19
8.98436e-19
-1.93938e-18
-3.1151e-18
-6.89464e-18
-9.62283e-18
-1.12263e-17
-1.15914e-17
-9.4333e-18
-7.856e-18
-6.70814e-18
-6.5224e-18
-6.20929e-18
-7.63731e-18
-1.33012e-17
-1.6278e-17
-2.00129e-17
4.90193e-19
4.78938e-19
5.09271e-19
5.18924e-19
5.94054e-19
5.11719e-19
6.27568e-19
4.99534e-19
5.88479e-19
4.78894e-19
5.79435e-19
5.23448e-19
4.06139e-19
4.91011e-19
3.50627e-19
5.01901e-19
2.95812e-19
5.14026e-19
3.07775e-19
4.74365e-19
3.37389e-19
4.54815e-19
3.60014e-19
3.61389e-19
2.82757e-19
3.48145e-19
2.713e-19
2.58169e-19
2.24947e-19
2.17685e-19
2.09879e-19
1.87897e-19
1.56498e-19
1.6775e-19
1.33968e-19
1.047e-19
9.68105e-20
8.47599e-20
7.67596e-20
7.28788e-20
6.01737e-20
5.89247e-20
6.15391e-20
5.51394e-20
5.19509e-20
6.76755e-20
1.46714e-19
6.96999e-19
1.16478e-18
1.58763e-18
1.80724e-18
1.91417e-18
2.15926e-18
2.69653e-18
3.28852e-18
4.48766e-18
5.68013e-18
6.39996e-18
6.25788e-18
4.9329e-18
3.86305e-18
2.7898e-18
1.86877e-18
1.67804e-18
1.59066e-18
1.47231e-18
1.2696e-18
8.9519e-19
7.48259e-19
5.48006e-19
3.81123e-19
2.54872e-19
7.05928e-20
-1.27303e-19
-4.06837e-19
-5.84437e-19
1.65452e-18
2.84093e-18
1.97267e-19
-6.34765e-19
-9.70333e-19
-7.03571e-19
-7.42328e-19
-8.24595e-19
-4.92846e-19
-7.55062e-19
-9.89816e-19
-1.24257e-18
-1.24954e-18
-1.85481e-18
-2.98579e-18
-3.30461e-18
-3.48246e-18
-4.20366e-18
-4.52139e-18
-5.6908e-18
-5.72146e-18
-5.46828e-18
-6.71908e-18
-3.36561e-18
-1.39787e-18
-3.53157e-18
-1.86124e-18
-2.84302e-19
-3.01692e-18
-4.71334e-18
-6.71819e-18
-1.05049e-17
-1.14084e-17
-1.08029e-17
-1.02122e-17
-7.12784e-18
-4.24137e-18
-5.14266e-18
-5.6366e-18
-3.67979e-18
-7.04933e-18
-1.37382e-17
-1.85965e-17
4.9343e-19
4.91016e-19
4.42197e-19
4.07346e-19
4.16537e-19
5.03383e-19
4.37917e-19
4.4309e-19
4.20059e-19
3.52283e-19
4.27431e-19
2.1094e-19
4.80099e-19
2.43924e-19
4.00787e-19
1.79034e-19
3.5816e-19
1.81487e-19
2.81565e-19
1.57861e-19
1.73502e-19
1.71939e-19
8.53943e-20
1.10484e-19
8.04519e-20
8.29355e-20
1.90302e-20
2.91655e-20
-1.3372e-20
1.95635e-20
-8.46292e-21
-2.47937e-20
-4.88811e-21
-3.43354e-20
-3.35116e-20
-1.44246e-20
-2.41559e-20
-1.2275e-20
-1.38607e-20
-8.48283e-21
-3.153e-21
-1.71927e-21
-2.91688e-21
-5.79559e-21
3.6664e-21
1.47562e-20
1.19547e-19
7.00754e-19
1.15585e-18
1.42356e-18
1.63935e-18
1.72443e-18
1.827e-18
2.07053e-18
2.40496e-18
2.76447e-18
3.66621e-18
3.92664e-18
6.02435e-18
4.80177e-18
4.03791e-18
2.94586e-18
2.76955e-18
1.27375e-18
1.39148e-18
1.07208e-18
5.11687e-19
6.39014e-19
1.36178e-19
-6.00269e-19
-1.26036e-18
5.10096e-19
7.04672e-19
2.20233e-18
8.39369e-19
-3.69397e-18
-3.18292e-18
-8.82714e-19
-1.74038e-18
-1.16303e-18
-1.02775e-18
-8.54644e-19
-7.77728e-19
-5.79657e-19
-7.50666e-19
-5.42252e-19
-7.57103e-19
-1.33335e-18
-1.82491e-18
-2.53171e-18
-3.2469e-18
-3.63817e-18
-4.29354e-18
-5.21222e-18
-5.32899e-18
-6.20333e-18
-7.01119e-18
-7.08822e-18
-8.32232e-18
-6.79287e-18
-4.1407e-18
-5.77686e-18
-4.6696e-18
-3.09765e-18
-3.34494e-18
-6.45182e-18
-8.22797e-18
-1.11558e-17
-1.20832e-17
-1.08066e-17
-8.38361e-18
-7.22379e-18
-4.40782e-18
-4.78868e-18
-4.95186e-18
-3.51037e-18
-4.44779e-18
-6.68608e-18
-4.90943e-18
4.3799e-19
4.63999e-19
5.01045e-19
4.8656e-19
4.59721e-19
5.29033e-19
4.1476e-19
3.32603e-19
1.53263e-19
3.56111e-19
2.26716e-19
4.01923e-19
2.1935e-19
2.78238e-19
3.51507e-19
1.60679e-19
2.78681e-19
2.63533e-21
1.36963e-19
-5.07689e-21
9.5248e-20
-1.77744e-19
1.99547e-20
-1.18625e-19
-5.14118e-20
-1.34595e-19
-5.41766e-20
-7.85684e-20
-4.05922e-20
-6.21252e-20
-9.11964e-20
-3.57549e-20
-5.59802e-20
-4.12329e-20
-5.76151e-20
-4.20954e-20
-4.39244e-20
-4.13042e-20
-2.99455e-20
-3.10136e-20
-2.70475e-20
-2.18397e-20
-1.70557e-20
-1.86355e-20
-8.77213e-21
2.03317e-20
2.37298e-19
9.52061e-19
1.29176e-18
1.47697e-18
1.63346e-18
1.71179e-18
1.7463e-18
1.82795e-18
1.93924e-18
2.15853e-18
2.61091e-18
2.3274e-18
5.7592e-18
1.25477e-18
4.41e-18
2.35968e-18
1.66253e-18
2.13437e-18
-2.76359e-18
8.92798e-18
-3.59091e-18
-9.42352e-18
3.07986e-18
4.91209e-18
1.71918e-18
-3.99421e-18
-4.7717e-18
-1.05194e-18
1.2488e-18
-5.95923e-19
-1.78122e-19
1.63987e-18
1.55237e-18
8.80555e-19
-3.86255e-20
-2.41748e-19
-4.18459e-19
-5.75498e-19
-4.009e-19
-6.94039e-19
-8.37372e-19
-1.94669e-18
-1.88573e-18
-2.54765e-18
-3.82093e-18
-4.6889e-18
-5.18764e-18
-5.65842e-18
-5.87005e-18
-6.7907e-18
-7.73879e-18
-7.99831e-18
-9.5242e-18
-8.54264e-18
-6.15332e-18
-6.87918e-18
-6.81185e-18
-4.57043e-18
-5.58973e-18
-7.13915e-18
-8.24123e-18
-9.71832e-18
-1.27735e-17
-1.03167e-17
-8.82889e-18
-6.0392e-18
-2.44215e-18
-5.58527e-18
-4.82759e-18
-5.54568e-18
-5.93383e-18
-1.74004e-18
1.36271e-18
1.69378e-19
2.1681e-19
2.68369e-19
3.66928e-19
4.62604e-19
-1.19962e-20
1.94279e-19
6.97473e-20
2.70102e-19
2.51301e-20
2.35007e-19
-2.60303e-20
1.21192e-19
-5.95396e-20