/*--------------------------------*- C++ -*----------------------------------*\
| =========                 |                                                 |
| \\      /  F ield         | OpenFOAM: The Open Source CFD Toolbox           |
|  \\    /   O peration     | Version:  2.2.x                                 |
|   \\  /    A nd           | Web:      www.OpenFOAM.org                      |
|    \\/     M anipulation  |                                                 |
\*---------------------------------------------------------------------------*/
FoamFile
{
    version     2.0;
    format      ascii;
    class       volScalarField;
    location    "1.85";
    object      pB;
}
// * * * * * * * * * * * * * * * * * * * * * * * * * * * * * * * * * * * * * //

dimensions      [1 1 -3 0 0 -1 0];

internalField   nonuniform List<scalar> 
14161
(
0.000358163
-0.00256769
0.00233003
0.00755497
0.00390649
0.00266877
-0.00072467
-0.00391082
-0.00707835
-0.00465192
-0.00121357
0.000942037
0.0053995
0.00652628
0.00545178
-0.000782133
-0.00203634
-0.0060089
-0.00719923
-0.00442014
0.00017297
0.00196257
0.0046026
0.00260607
0.00329142
-0.00214534
-0.00322169
-0.00326121
-0.00630785
-0.00780719
-0.00206089
0.0472695
-0.0169812
-0.00960477
-0.00323805
-0.00117979
7.94619e-05
0.000601539
-1.50784e-05
0.00135931
0.00158459
0.00258566
0.00363956
0.00249251
0.00223968
0.00135202
0.00201036
0.00170657
0.00146892
0.00114597
0.000890659
0.000786201
0.000684067
0.000594779
0.000254496
-0.00010327
-0.000302083
-0.000192783
2.60637e-05
6.06622e-05
0.000446552
0.00153376
0.00207013
0.00315596
0.00401105
0.00385803
0.00317671
0.00266035
0.0019269
0.000774827
0.000125314
-0.000367849
-0.000387109
-0.000787255
-0.00082026
-0.00113537
-0.00272576
-0.00238248
-0.0020105
-0.00140594
-0.000923367
-0.00122404
0.00130813
-0.000644836
0.000142335
-0.000341936
-0.000657627
-0.000647232
-0.000176922
-7.49761e-05
0.00132723
0.00259305
0.00457717
0.00440655
0.00436806
0.00219976
0.00152291
0.00109962
0.000953713
0.000779727
0.000347764
0.000154445
-0.00019031
-1.09619e-05
-2.76527e-05
-0.000128182
4.62889e-05
-9.10846e-05
-0.000210783
-7.0611e-05
-0.000595519
-0.000163241
-0.000796714
-0.000165347
-0.000659612
0.00040655
-0.00118844
0.00131971
-0.00645135
0.0238623
0.00366176
-0.00995324
-0.0233159
-0.0112236
-0.00150881
0.00427336
0.011961
0.0208999
0.0130719
0.00230513
-0.0049382
-0.0145062
-0.0208075
-0.00793973
8.09339e-05
0.00772119
0.0153217
0.0204348
0.00712531
-0.000642423
-0.00864714
-0.0167096
-0.0121608
-0.00426847
-9.56823e-05
0.00374899
0.00527324
0.00471697
0.00143731
0.000519865
0.00152527
0.0139685
0.00549159
0.00334895
0.000632114
0.0003828
0.000910673
0.000777126
0.000951358
0.000519198
0.000207923
3.49309e-06
-0.000262274
0.00118079
-0.000861186
-0.000738651
-0.00116462
-0.00114761
-0.00117895
-0.000899037
-0.000692348
-0.000491326
-0.000296496
-2.97151e-05
0.000371288
0.000515787
0.000398284
0.000117697
-3.73684e-05
-0.000527916
-0.00150562
-0.00194548
-0.00184373
-0.00243612
-0.003001
-0.00382751
-0.00428807
-0.0042972
-0.00416125
-0.00311369
-0.00310432
-0.0011288
-0.000682272
0.00244516
0.00215344
0.00266513
0.00235008
0.00210976
0.00225104
0.00200275
0.000830943
0.00228675
0.000408355
0.00194607
0.00148329
0.00178626
0.0023844
0.00271926
0.00257861
0.00229904
0.00221171
0.00157368
0.000524018
0.00146823
0.00138912
0.00106149
0.000120708
-0.000148659
-0.000690989
-0.000601615
-0.000135823
-0.000423551
-0.000242508
0.000136525
-0.000286911
-7.73727e-05
-3.03556e-05
-3.39153e-05
6.40477e-05
-0.000269334
0.000193141
6.02423e-05
0.000620109
-0.000989586
0.000475443
-0.00159936
0.00139455
-0.00135062
-0.0264973
0.00112701
0.00888025
0.0339882
0.0222728
0.00266186
-0.00484391
-0.0183039
-0.0336471
-0.0199633
-0.00166608
0.00617736
0.0226296
0.033229
0.0137846
0.000243303
-0.0119375
-0.026024
-0.0327783
-0.0124405
0.000226391
0.0107329
0.0218491
0.019934
0.00532789
-0.00123771
-0.00661077
-0.0113987
-0.0122824
-0.00456753
-0.000357321
0.0289702
0.0153009
0.00544107
0.00262268
0.00114932
0.00189918
0.000293712
-0.00100507
-0.00148932
-0.00176483
-0.00128643
-0.000964405
-0.000844176
-0.000252164
-0.000220078
0.000133099
0.000453408
0.000467237
0.000517036
0.00047511
0.000416804
0.000313147
5.08205e-05
-0.000143149
-0.00031439
-0.000518269
-0.0003118
-0.000375585
0.000105601
-0.000345617
7.00376e-05
0.000169196
0.000535649
0.000801705
0.000932394
0.00147204
0.00190091
0.00442241
0.00588253
0.00583032
0.00430105
0.00348841
0.00138348
-0.00227612
-0.00416944
-0.00495948
-0.00510205
-0.00351335
-0.00351935
-0.00230005
-0.00231323
-0.000761481
-0.00224196
-0.000967439
-0.00149932
-0.000949601
-0.000864618
-0.000399922
-0.000720888
-0.000339405
-0.00106877
-0.000445368
-0.000944808
-0.000330064
-0.000486906
-2.38433e-05
0.000176207
0.000627412
0.000441511
0.000677016
0.00029111
0.000499761
-2.67003e-05
5.9514e-05
-0.000222996
0.000126522
-0.000492453
-0.000249305
-0.00057065
-0.000584827
-0.000563011
-0.000863814
-0.000130331
-0.000994007
0.00071913
-0.0019345
0.0012441
-0.00311136
0.0460391
0.00459473
-0.0163343
-0.0453723
-0.0283434
-0.00262788
0.00721198
0.0227217
0.0412893
0.0312145
0.00421021
-0.00747887
-0.0301176
-0.0447907
-0.0186924
-0.0003269
0.0132636
0.0301472
0.0440228
0.0190423
-0.000218335
-0.013414
-0.0312936
-0.0301584
-0.0101883
-0.000882604
0.00749591
0.0126113
0.0171412
0.0122045
0.0128962
-0.00680409
-0.00514963
0.000672892
0.00130054
0.000669004
0.000247445
0.00106795
0.000496163
0.00104207
0.000418982
0.000287626
-1.3071e-05
-0.000268864
-9.67127e-05
-0.000458848
-0.00100477
-0.000620947
-0.000969066
-0.00106765
-0.001025
-0.00096396
-0.000809231
-0.000611402
-0.000392291
-0.00027586
-0.000199737
-0.000453225
-0.000376121
-0.00035654
-0.000590345
-0.000480728
-0.000530544
-0.000218982
-0.000321586
-0.000740923
-0.00154428
-0.00281013
-0.00549955
-0.00731195
-0.0104977
-0.00489395
-0.00513088
-0.00264567
0.00379238
0.00723639
0.00830311
0.00745948
0.00670188
0.00473847
0.00465732
0.00235086
0.00423788
0.00181307
0.00317706
0.00241795
0.00223383
0.0019385
0.00169987
0.00110583
0.00127407
-1.14442e-06
0.00133141
-0.00032095
0.00126295
3.04884e-05
0.000692375
-5.46695e-05
2.04929e-05
-0.000170826
-0.00022894
-0.000642192
-0.000308795
-0.000680767
6.29121e-05
-0.00044557
0.000109085
0.000112445
5.96327e-05
0.000417136
-3.14646e-05
0.000199244
-0.000391175
0.000700334
-0.00131459
0.000916573
-0.00188253
0.00146018
-0.00170336
-0.0426198
-0.00122128
0.0125877
0.0510251
0.0395644
0.00426313
-0.00580763
-0.0271863
-0.0491698
-0.0338567
-0.00428271
0.00654389
0.0311634
0.0522666
0.0277178
0.000939959
-0.0144336
-0.0372264
-0.0509776
-0.0238426
-0.00128779
0.0111011
0.0299466
0.0359031
0.0151536
-0.000204373
-0.00828863
-0.0141671
-0.0152572
-0.00647283
-0.000210444
0.0230801
0.0148984
0.0076281
0.00391901
0.00204045
0.0012816
6.03062e-05
-0.000614065
-0.00147764
-0.00140256
-0.00107674
-0.00117075
-0.000912018
-0.000917314
-0.000404127
-0.000589055
0.000287307
-3.70099e-05
0.00024343
0.000102696
0.000140424
-2.02937e-05
-0.000165783
-0.000392305
-0.000649361
-0.000896418
-0.000883619
-0.00100476
-0.000610377
-0.000946175
-0.000793456
-0.000661219
-0.000102722
0.000242236
0.00183711
0.00245518
0.00356972
0.00425058
0.00662136
0.00594793
0.00393039
0.00308105
0.000860895
-0.00191752
-0.00726784
-0.00687405
-0.00677868
-0.00505043
-0.00575496
-0.00303432
-0.0035754
-0.00100731
-0.00278827
-0.00105839
-0.00174517
-0.00124452
-0.00117404
-0.000675901
-0.00146359
-0.00033402
-0.00183551
-0.000233774
-0.00146919
-0.000452027
-0.000679108
-0.000110947
-4.86403e-05
-0.000220716
0.000236814
9.15428e-05
0.000311564
0.000116761
2.23566e-05
-0.000285185
-0.000327257
-0.000132747
-0.000492713
-0.000399247
-0.000415373
-0.000706744
1.86402e-05
-0.00103254
0.000691627
-0.00136083
0.00105586
-0.00178343
0.00150763
-0.00160269
0.059369
0.00686127
-0.0164133
-0.0594137
-0.0429212
-0.00614068
0.00678847
0.0271719
0.0504932
0.0453881
0.00994054
-0.00680592
-0.0343327
-0.0607147
-0.0312606
-0.00343459
0.0132755
0.0349091
0.0568762
0.0326563
0.00368085
-0.0101707
-0.0348428
-0.0436035
-0.0211848
-0.00292913
0.00561416
0.0121767
0.0150386
0.00268851
0.0132223
-0.0107058
0.00804858
0.00401898
0.00214384
0.00148368
0.000611778
0.00176237
0.00140466
0.00128774
0.000728864
0.000967258
0.000521849
0.000515049
0.000255084
0.000882388
-0.000265218
0.000605256
0.000254944
0.000301005
9.7043e-05
4.04357e-05
-4.42327e-05
-9.89388e-05
-0.000111634
6.48256e-05
-6.39188e-05
-0.000121979
9.34611e-05
9.88471e-06
-0.000379799
-0.000135472
-0.0011916
-0.00138568
-0.0021847
-0.00221694
-0.00288281
-0.00294165
-0.00260252
-0.00169899
-0.00139063
-0.00129157
0.00199125
-0.00137707
0.00393433
0.00206883
0.00387084
0.00255047
0.00459205
0.000478714
0.0045402
0.00127226
0.00402076
0.00131366
0.00278935
0.00150391
0.00131813
0.000953957
0.0011642
-0.000647701
0.00231723
-0.000556611
0.00225875
-0.000371077
0.00137551
0.000471838
0.000535413
0.000301795
-0.000408545
0.000155297
-0.000361361
-0.000151635
-0.000282509
-0.000273698
0.000144573
0.000184415
0.000134754
-0.000139177
7.23327e-05
-5.65259e-05
-8.42415e-05
0.000392977
-0.000880491
0.000909406
-0.00141633
0.00111984
-0.00171938
0.00162654
-0.00151091
-0.0506731
-0.00556806
0.0131805
0.0579471
0.0538285
0.010406
-0.00561051
-0.0298301
-0.0549277
-0.044568
-0.00981143
0.00453151
0.030504
0.0620206
0.0430469
0.00482477
-0.0109545
-0.0402071
-0.0591157
-0.036141
-0.0049533
0.0064192
0.0281581
0.0428518
0.0259994
0.00324007
-0.00310449
-0.0125474
-0.0127924
-0.00587863
0.00806647
-0.00174844
0.0197008
0.00938913
0.00283954
0.000952233
0.000720848
-0.000734801
-0.000628903
-0.00105565
-0.00106787
-0.000858729
-0.00115166
-0.000512799
-0.00108131
-0.000376071
-0.00140306
-0.000109708
-0.000723768
-0.000448682
-0.000551004
-0.000188409
-0.000263224
-0.000242849
1.35376e-05
-9.60542e-05
0.000145681
-0.000142447
-0.000377335
-0.000426215
-0.000195819
-0.000202813
-0.00050971
-0.000305513
-0.000882822
-0.000256698
-0.000446651
-0.000202602
-0.00069721
0.000169301
-0.000499085
0.000266658
-0.000595798
-0.0010726
-0.000553014
-0.00359049
-0.000179524
-0.00252742
0.000787024
-0.00172647
0.00125643
-0.00237677
0.00186678
-0.00184885
0.000252992
-0.000964423
-5.28909e-05
-0.000308375
0.00100582
-0.0013885
0.00212148
-0.00181899
0.0017162
-0.00148821
0.000240414
-0.00114821
-0.000514551
-0.000725782
-0.000517464
-0.000798327
-0.000171074
-0.000138057
9.43851e-05
0.000126527
-0.000365921
-0.000473098
-0.00029377
-0.000447476
-0.000367576
-0.000741415
-0.0006063
0.000431854
-0.00120546
0.000954274
-0.00148489
0.00128546
-0.00162948
0.00171412
-0.00159254
0.0631366
0.00998708
-0.0123998
-0.0638733
-0.0554884
-0.0106239
0.00467647
0.0273321
0.0508251
0.0546429
0.0166847
-0.00407003
-0.0315626
-0.0676889
-0.0445622
-0.0065813
0.00828507
0.0339714
0.0547192
0.0452283
0.00854309
-0.00531991
-0.0293543
-0.044021
-0.0296028
-0.00852647
0.00134929
0.00816843
0.0139787
0.00565851
0.00689123
0.000661779
0.0180464
0.00694159
0.00219098
0.00118312
0.00150398
0.00128419
0.00162729
0.00119503
0.000938301
0.00119883
0.000205856
0.000922897
-0.000288211
0.00113127
-0.000301146
7.73818e-05
-7.53739e-05
-0.00034555
-0.000627062
-0.000741437
-0.000855958
-0.000943932
-0.00135591
-0.00141128
-0.00115602
-0.000852389
-0.00109833
-0.000670006
-0.00112274
-0.000550231
-0.00116868
-0.000387395
-0.000760436
-0.000627511
0.000360989
0.000334354
0.000509301
-5.89479e-05
6.54996e-06
-0.000494018
-0.00019195
-0.000279765
0.000241214
-0.000847169
0.000771244
-0.00244031
0.00167442
-0.000797577
0.00227256
-0.000254216
0.00390564
0.000227986
0.00301061
0.00194229
0.000390945
0.000604269
0.00119601
-0.000615316
0.00267647
-0.0021218
0.00256376
-0.000708939
0.00183573
0.000132846
-6.59725e-05
3.97805e-05
-5.56797e-05
-0.00018709
0.000211328
4.47435e-05
-0.000228528
-0.000149511
-0.000296794
-0.00014309
-0.000247407
-3.97913e-05
8.94384e-05
0.000155935
-2.23953e-05
0.000702779
-0.00102455
0.00106507
-0.00133898
0.00126712
-0.0016936
0.00167587
-0.00166529
-0.0528251
-0.00937079
0.0110275
0.0567162
0.0648771
0.0178464
-0.00450162
-0.0294574
-0.0532758
-0.0530257
-0.0157989
0.00319277
0.0275874
0.0605939
0.0550143
0.0109923
-0.00684363
-0.0378042
-0.0583387
-0.0461517
-0.0121776
0.00402028
0.0226907
0.0363266
0.024864
0.00862726
-0.000165133
-0.00741447
-0.0100981
-0.00485807
0.0035453
0.0066565
0.0229728
0.00793203
0.000249501
-0.0021258
-0.000118174
-0.00273755
-0.00132047
-0.00110053
-0.000766941
-0.000386306
-0.000227053
0.000173351
-0.000562443
0.000714173
-0.000585013
0.000375157
6.26477e-05
0.000139522
0.000325082
0.0001957
0.000606846
0.00089635
0.000770649
0.000853838
0.000480329
0.00066231
7.86262e-05
-0.00103971
0.00142099
0.000374929
2.86262e-05
-0.000257135
-0.00149915
8.00912e-05
-0.00181866
-0.000695783
-0.000724768
-0.00174828
-0.000874489
-0.00159334
-0.000499335
-0.000834422
-0.00120463
-0.00120749
-0.00123512
-0.00141025
-0.00016522
-0.00148396
0.000927703
-0.00389772
0.00240515
-0.00346263
0.00036548
0.000848755
0.00075353
0.000616494
0.000291627
-0.00211452
0.000944543
-0.00408783
0.00100344
-0.00268936
0.000733574
-0.00116392
-0.000574647
-0.00110472
-0.000490093
-0.000349821
-0.000307738
1.73522e-05
5.02969e-05
8.49351e-05
-0.000593628
-0.000276772
-0.000455315
-0.000449129
-0.000448382
-0.000449951
-0.000593423
0.000219056
-0.00115592
0.000879445
-0.00139856
0.00112049
-0.00172456
0.00161288
-0.0016933
0.0580817
0.0137793
-0.00972578
-0.0579873
-0.0648388
-0.0163474
0.00357666
0.0258436
0.0453312
0.0581908
0.0202066
-0.00182692
-0.0266112
-0.0624435
-0.0533461
-0.011737
0.00496378
0.0298631
0.0466206
0.0452746
0.0116762
-0.00253924
-0.0185039
-0.0311744
-0.024831
-0.0103736
-0.000956636
0.0053052
0.0104348
0.00764087
-1.02558e-05
0.0153533
0.0242139
0.00580548
-0.00215776
-0.000932174
0.000680883
-2.29873e-05
0.000742227
1.02505e-05
-8.33201e-05
-0.00040782
-0.000125309
-0.000285706
-0.000609401
-0.000125289
-0.001191
-0.000302778
-0.0008646
-0.000597267
-0.000834159
-0.00106057
-0.000945865
-0.00133871
-0.00136229
-0.00158062
-0.000616036
-0.000291987
-0.000941923
-0.000878318
-0.000784536
-0.00226876
0.000449892
-0.000724484
-0.00116979
-1.63348e-05
-0.000756143
-0.000724411
-0.000926112
-0.000323593
-0.000443063
-0.000917861
-0.00118699
-0.000322646
-0.000837021
-0.000105086
-0.00170083
0.000839959
-0.000672886
0.000644169
0.000218572
-0.00421584
0.00199644
-0.00134603
-0.000151954
0.0064779
-0.000735356
0.00599164
0.0019541
0.00201716
0.00290536
-0.000385631
0.00335264
0.000362907
0.003023
0.000230334
6.30023e-05
-0.000221692
0.000210393
-0.00011689
1.6639e-05
-0.000150106
-0.000303056
-0.00015143
-0.000111441
-9.84892e-05
3.46796e-05
-0.000379114
0.000207773
-0.000271145
-5.27053e-05
0.000180738
-0.00078751
0.000880224
-0.00109187
0.00114831
-0.0015509
0.00158024
-0.00168222
-0.049146
-0.0118567
0.00783672
0.0485094
0.0708715
0.0221062
-0.00293594
-0.0270681
-0.046788
-0.0562079
-0.0187298
0.00206077
0.0222314
0.0514364
0.0559101
0.0136549
-0.00477074
-0.0293862
-0.0452625
-0.0425004
-0.0129506
0.00149987
0.0122656
0.0223805
0.0180869
0.00582731
0.000296328
-0.0059992
-0.0132165
-0.00942842
-0.00939629
0.0308319
0.0230822
-0.000681139
-0.00373098
-0.000471919
0.000314858
-0.000739027
1.96361e-05
1.02534e-05
0.000127079
-0.000692822
0.000393761
-0.000403022
-0.000772818
0.000382659
-0.000632478
-9.0397e-05
-0.00067996
-0.000329619
-0.000433329
-0.000423953
-0.00044021
-0.00040537
-0.00056673
0.000187603
0.000118471
-0.000555811
-0.00111548
0.000503912
-0.00170857
-0.00109711
-0.000799692
-0.000988488
-0.000965139
-0.000823019
-0.000720921
0.000337893
0.000370603
0.000503164
-0.000564006
0.000372414
0.000508887
0.000820944
0.000166289
-0.000206224
-0.000385305
-0.000807178
-0.000650659
-0.00263407
-0.00107981
-0.00790076
0.00424809
0.00243933
-0.00813373
0.00862004
-0.00460376
0.00619263
0.00120997
-0.0018365
-0.00141637
-0.00368187
-0.00102072
-0.00239841
-0.000838378
2.59367e-05
-0.00118647
-0.000366691
-0.000672862
-0.000670018
6.37806e-05
-5.75216e-05
1.91093e-05
0.000120876
-9.69888e-05
-0.000243296
-0.000215958
-0.000188946
6.26065e-05
-0.000545357
-0.00035727
-3.5438e-06
-0.000785984
0.000710097
-0.00132792
0.00106011
-0.00174755
0.00156524
-0.00188699
0.0435981
0.0177413
-0.00653394
-0.0472363
-0.0677804
-0.019123
0.00267483
0.0227203
0.038463
0.0472439
0.0181914
-0.000240408
-0.0181024
-0.0444051
-0.0490945
-0.0119716
0.00315863
0.0231401
0.0342438
0.0305868
0.0113999
-3.63305e-05
-0.00829177
-0.0152859
-0.0158213
-0.00992919
-0.00345805
-0.000333109
0.00216427
0.00271247
-7.67503e-05
0.0506759
0.0184277
-0.000398381
-0.00757266
-0.00470168
-0.00197277
-0.00182268
-0.00143894
9.64451e-05
-0.000596973
-0.00101491
-0.000238415
-0.000373834
-0.00212581
7.22463e-05
-0.0012696
-0.00117499
-0.00108103
-0.00106009
-0.000732328
-0.000564074
-0.000494559
-4.48309e-05
2.39576e-05
0.000493075
-1.6195e-05
-0.000311914
0.000766854
-0.00019778
0.000392745
0.000177606
-0.000256841
0.000782819
-0.00136252
0.000368925
-0.000738462
-0.000282886
-0.000787146
2.40419e-05
0.000160254
-0.000135102
0.000224745
-0.000694282
7.93761e-05
-0.000541361
-0.00096611
-0.000811265
-0.00266576
-0.00233898
-0.00481199
0.000982919
0.000610521
-0.00223077
-0.0156729
0.00602786
-0.0075186
0.00461635
-0.000798007
4.12888e-06
0.000457225
0.000769317
0.0018397
3.7303e-05
0.00120469
0.00230417
0.000193207
0.00030529
8.61782e-05
-0.000678547
-1.06711e-05
-4.45899e-05
-0.000378434
-6.04434e-05
-0.000377129
-0.000247465
-0.000602337
-0.000141331
-0.000149661
-0.000103027
-0.000307076
8.31497e-05
-0.00046279
0.00057456
-0.00109687
0.00107369
-0.00147513
0.00150878
-0.00187233
-0.0377786
-0.0168561
0.0053002
0.0386774
0.0645844
0.0194872
-0.00233677
-0.0219408
-0.0362345
-0.0421377
-0.0157402
0.00103169
0.0137781
0.0298694
0.0347322
0.0104314
-0.0023287
-0.01556
-0.0251593
-0.024228
-0.0107726
-0.000960461
0.00408854
0.00870856
0.00964309
0.00567672
0.000580349
-0.00169048
-0.00646757
-0.00473479
-0.00407464
0.0522269
0.01983
-0.00330665
-0.000734154
-0.000648012
-0.00184159
-0.00155906
-3.89379e-05
-0.00157524
-0.000710191
-0.000749679
-0.00119187
-0.000792616
-0.0018521
2.77864e-05
-0.000565585
-0.000657255
-0.000698061
-0.000733398
-0.000816373
-0.000902989
-0.0010024
-0.000972064
-0.000880853
-0.000845006
-0.000596647
-0.000512383
-0.000987281
-0.000127547
-0.00106547
-0.000669426
-0.000161336
-0.00109645
0.000654302
-0.00064711
0.000800215
0.000291287
0.000546673
0.000186607
0.000204463
-0.00101919
-0.00109229
-0.00140065
-0.00193954
-0.00216043
-0.00125034
-0.00311864
-0.00236652
-0.003152
-0.00609156
-0.00178684
-0.00765652
-0.0015341
-0.011249
0.00280834
-0.0057863
0.00156047
-0.00219197
-0.00458123
0.00150412
-0.00609571
0.00103399
-0.00358865
0.000336573
0.00222668
-0.000741266
-5.42719e-05
-0.000241058
-8.44151e-05
-0.00025259
7.01654e-05
-5.32788e-05
0.000164744
7.34689e-05
0.000125408
-3.2453e-05
0.000153083
-0.000148055
-6.91306e-05
-0.000664851
0.000169189
-0.000551331
0.000251496
-0.0012324
0.00082659
-0.00169156
0.0013514
-0.00207554
0.0153149
0.0253494
-0.00210087
-0.0329846
-0.05782
-0.0152267
0.00209105
0.0189453
0.0308557
0.0271681
0.0113565
0.000527885
-0.00843665
-0.018885
-0.0255382
-0.0075978
0.00132122
0.0107884
0.0167467
0.0148009
0.00564987
0.000201356
-0.00329687
-0.00632831
-0.00813566
-0.00806601
-0.00692421
-0.00504061
-0.00459698
-0.00234706
0.00204551
0.0322358
0.0445728
-0.00811199
-0.00459218
-0.00157514
-0.00152242
-0.000368932
-0.000953353
-0.00173338
-0.000685481
-0.00107042
-0.000662252
-0.000855318
-0.00129132
-0.000195122
-0.000207444
0.000117594
-1.15129e-05
0.000255133
0.000270722
0.00038053
0.00043951
0.000537745
0.000811296
-0.000204494
0.000442652
-0.000738016
-0.000470265
-0.000687204
-0.000118817
-0.000479703
-0.000335859
-0.000713866
-9.13567e-05
-0.000619572
3.78764e-05
-0.000259254
0.000528781
0.000486902
0.000570741
0.000343873
-0.00122555
-0.00162927
-0.0030987
-0.00304824
-0.00452465
-0.00207556
-0.00341891
-0.00140371
-0.00637532
-0.00167741
-0.00669384
-0.00304231
-0.00808613
-0.00335629
-0.00800292
-0.00102837
-0.00130566
-0.0102006
0.00157229
-0.00440737
0.00407335
-0.00290022
-0.000552168
0.00294299
-0.00038756
0.000135261
-0.000105229
0.000187956
-0.000967323
4.01723e-05
-0.000498095
0.000120864
-0.000393559
0.000216607
-0.000666222
-3.96574e-05
-0.000726411
0.000160611
-0.000636696
-0.000263578
-0.000383993
6.27522e-05
-0.000764815
0.000697773
-0.00136521
0.00119456
-0.00181769
-0.0147216
-0.0241935
0.00241658
0.0247706
0.0421901
0.0129299
-0.00147984
-0.0134374
-0.0225884
-0.0223479
-0.00910237
-1.158e-05
0.00513134
0.011233
0.0142746
0.00491229
-1.3554e-05
-0.00490437
-0.00937228
-0.0104243
-0.00553111
-0.00166263
-5.2046e-05
0.00139707
0.00138104
-9.11852e-06
-0.00096787
-0.00281252
-0.00466555
-0.00338759
0.00491304
0.030997
0.0601048
-0.0143353
-0.00819853
-0.00507129
-0.00342633
-0.00229862
-0.000990023
-0.00134802
-0.000497831
-0.00065724
-0.000508112
-0.000353418
2.59236e-05
-0.000536902
-0.000629212
-0.000870912
-0.00110712
-0.00106777
-0.00098819
-0.00108424
-0.00108311
-0.000989421
-0.00139473
-0.00154141
-0.00151286
-0.000594233
-0.00115299
-0.00110275
-0.000995182
-0.000376155
-0.000646717
0.000243296
0.000432491
0.00108082
0.00139182
0.00122072
0.00284276
0.000258004
0.00329517
0.000975663
0.000736735
0.00108055
-0.00111735
0.000297276
-0.00315061
0.00154487
-0.00149859
0.00289864
-0.00303357
-0.00323455
-0.0117026
-0.00296554
-0.00518885
-0.00565656
-0.0150743
0.00453717
0.00399409
-0.0102539
0.00108279
-0.00592232
0.0015651
-0.00225511
9.80168e-05
0.00403144
-0.0012905
-0.000512174
-0.000440274
0.000511869
-0.000423389
0.000299271
-0.00026482
0.000298214
-0.000160444
0.000334302
-0.000226534
0.000350542
-0.00026785
0.000286868
-0.000380967
-0.00040135
-0.000180866
-6.68459e-05
-0.00058755
0.000517147
-0.00132373
0.00104917
-0.00164038
-0.00458943
0.022657
0.000614132
-0.0164211
-0.031523
-0.00854736
0.0015019
0.011532
0.0176907
0.0139531
0.00485114
0.000416457
-0.00313831
-0.00638023
-0.00914081
-0.00386555
0.00016735
0.00271111
0.00516565
0.00493264
0.00212374
0.000108044
-0.00148138
-0.00230721
-0.00328602
-0.00322207
-0.00197723
-0.00161037
-0.000944267
-0.000683852
0.00580709
0.0201843
0.0548066
-0.0103842
-0.00449543
-0.00323748
-0.00475314
-0.00145312
-0.000404675
-0.00135986
-0.00068527
-0.00106092
-0.000585778
-0.000724869
-0.000849205
-0.000868787
-0.000671878
-0.000680177
-0.000825167
-0.00137027
-0.00123583
-0.00148709
-0.0012162
-0.00126936
-0.00137588
-0.000342905
-0.00166875
-0.00087073
-0.00232557
-0.00142727
-0.00163171
-0.00173482
-0.00168669
-0.00145647
-0.000685088
-0.00259717
0.00158632
0.000932893
0.00182984
0.00302339
0.00299094
0.00348727
0.00380495
0.00295078
0.00313311
0.00442905
0.00213678
0.00498066
-0.00171138
-7.32163e-05
0.00381971
-0.00297607
-0.00103399
0.00331263
0.00580724
0.00834025
-0.00218697
0.00234259
0.00214791
-0.00133305
0.00462153
-0.00627658
0.00134058
-0.000379835
0.000631621
0.00551038
0.00185803
0.00102623
0.000473232
0.000886185
-0.000410682
0.000305259
-0.000187382
0.000296857
3.14987e-07
0.000392841
-0.000166743
-7.05476e-05
1.66975e-07
-0.00030575
0.000103128
-0.000640262
-0.000143774
-0.000507856
-0.0004218
0.000187238
-0.000980096
0.000913031
-0.00121806
-0.00368853
-0.0177934
0.000419622
0.0127146
0.0189061
0.00558927
-0.000205669
-0.0054312
-0.00986874
-0.00893686
-0.00384161
-0.000409855
0.00176847
0.00361856
0.00413968
0.00162614
0.000369905
-0.00114655
-0.00279622
-0.00339088
-0.002558
-0.00177971
-0.0015246
-0.00149776
-0.00179976
-0.00295025
-0.00406472
-0.00683503
-0.00919169
-0.0103391
-0.00764141
0.00894538
0.0283713
0.0191758
-0.00524473
-0.00417288
0.0020225
0.00170289
0.000340573
0.00122128
0.00134489
9.30562e-05
0.000365489
0.000524076
0.000785767
0.00021486
0.000694125
0.000294032
0.000201956
0.000125373
5.2277e-05
9.25907e-06
-9.58742e-05
-0.000232427
-0.000330565
-0.000388732
-0.00114136
-0.000845166
-0.0011151
-0.00104938
-0.00043287
-0.000829903
0.000855764
-0.000809911
0.00140196
0.00023231
0.00305758
0.00133679
0.00385979
0.00144979
0.00480752
0.00144012
0.00467488
0.00155296
0.00582326
0.000826474
0.00548821
0.000533279
-0.00086079
0.00178595
-0.00045347
-0.00314952
0.00329402
0.0018754
-0.00562502
0.00363555
0.0131332
0.00533307
0.0146507
0.0081548
0.00362836
0.00432597
0.00539202
0.000682135
0.00447025
0.00118977
-0.000344443
-0.000704219
1.97996e-05
8.57255e-05
0.000382353
0.000247536
0.000114669
7.54977e-05
-0.000188902
-0.000164676
-0.00029654
-1.13547e-05
-3.96382e-05
-0.000311556
-0.000187777
-2.44634e-05
-0.000463485
-5.21161e-05
-0.00012381
0.000502534
-0.000820362
0.000874325
-0.00108253
-0.00977506
0.0140763
0.00160322
-0.00560764
-0.0115355
-0.00355779
0.000641458
0.00451371
0.00714859
0.00596578
0.00189557
-0.000254218
-0.00140302
-0.002052
-0.0024596
-0.00154267
-0.000417066
0.000357921
0.000945881
0.000836549
0.000305836
-0.000214462
-0.000827059
-0.00162857
-0.00231547
-0.00272757
-0.00324309
-0.00376022
-0.00390344
-0.0022839
-0.00448705
0.0506538
0.0117192
-0.00842714
-0.00941532
-0.00477921
-0.00401324
-0.000162881
0.000708785
-0.000198827
0.000519587
-0.000770859
-7.02266e-05
-0.000900915
-0.000598202
-0.0014488
-0.000548514
-0.00099217
-0.00108485
-0.000999705
-0.00113462
-0.0010683
-0.000676843
-0.00067145
-0.000447452
-0.000788993
-0.000221838
-0.000341453
5.33994e-06
0.00027357
0.00138077
0.00105242
0.00487249
0.00302542
0.00529108
0.00202982
0.00165027
0.0010513
0.000727659
0.00062277
0.00129077
0.00158143
0.00212565
0.00226565
0.00291706
0.00304683
0.00405936
0.00328574
0.00465123
0.0035256
0.000214876
0.00351363
0.00658582
0.00362602
0.00298071
0.0023199
0.00285197
0.00491479
0.00381048
-0.00348215
0.00513638
0.00367362
-2.11174e-05
0.0020961
0.00721482
0.00562456
0.00136295
0.000968987
0.00105454
0.000146784
0.000321964
0.000236761
0.000151293
8.51076e-05
-0.000120627
5.44163e-05
-0.00024269
-0.00020133
4.37464e-05
-0.000105515
-0.000300725
0.000183676
-0.000728692
7.67224e-05
-0.00069324
0.00011741
-0.000994108
0.000790362
-0.000966897
-0.00222677
-0.00898091
-0.000175668
0.00544338
0.00697107
0.00171675
5.90595e-05
-0.00159155
-0.00308307
-0.00252912
-0.00102528
-0.000411301
0.000543759
0.000955711
0.000843187
0.000314911
-0.000140252
-0.000542689
-0.000829886
-0.00109647
-0.00134089
-0.00146424
-0.00153804
-0.00156829
-0.00187395
-0.00214279
-0.00300918
-0.00374762
-0.00214339
-0.00153357
0.0116475
0.0284204
0.0139565
0.00962993
0.00512366
0.00132804
0.00140129
0.000543322
-0.00087956
-0.00135792
-0.000499702
-0.0010974
-0.000507799
-0.000583833
0.000163348
-0.00171559
-0.000400474
-0.00142711
-0.000985504
-0.00149634
-0.00108883
-0.00117063
-0.000445938
-0.000231727
0.000643104
0.000991198
0.00163018
0.00210972
0.0025272
0.00263883
0.00265778
0.00223493
0.001924
0.00109443
0.00180717
0.00188521
0.00153022
0.00118129
0.000867
0.000446944
0.00066462
0.000576795
0.00124313
0.00133884
0.00228008
0.00189087
0.00270216
0.00196652
0.00278874
0.00288795
0.000951527
0.00371447
0.0013818
0.0018554
0.00609199
0.00269612
0.00460546
0.00295889
-0.0014001
0.00141929
0.00242097
-0.00268891
0.00386577
0.00540659
0.00533747
0.00200568
0.00230296
0.000260352
0.000882248
-5.51287e-05
0.00052602
0.000392506
0.000225583
0.000381373
0.000106192
0.00013926
-1.04546e-05
-0.000103233
-0.00023877
4.6219e-05
-0.000534278
0.000584202
-0.00104762
0.000762397
-0.00104235
0.000713125
-0.000882933
0.00102939
-0.000976404
-0.00596756
0.00516682
0.000557269
-0.0013637
-0.00290061
-0.00117585
0.000266078
0.00135584
0.00212432
0.00186262
0.000691245
-8.16984e-05
-0.000371508
-0.000528575
-0.0008226
-0.000627615
-0.000453841
-0.000378664
-0.000319883
-0.000540965
-0.000518955
-0.000658934
-0.000888142
-0.00126896
-0.00180101
-0.00215549
-0.00289433
-0.00324793
-0.0024653
-0.00432202
0.014682
0.0116258
0.0206914
0.00751215
0.00374699
0.000543306
0.00109757
0.000626613
0.000698501
0.000675893
0.00105594
-0.000199001
0.0011269
0.000153109
0.00164405
-0.000206884
0.00204284
0.000157506
0.00156759
0.000498997
0.00110716
0.000632206
0.000733819
0.000535152
0.000442533
0.000182264
0.000129546
0.000160392
0.000358391
-1.96241e-05
-0.00023584
-0.000804817
-0.00105824
-0.00122667
-0.00157405
-0.00224869
-0.00286994
-0.00311313
-0.00353501
-0.00321702
-0.00321962
-0.00300742
-0.00254046
-0.00222451
-0.00151188
-0.00110899
-0.000318099
8.93513e-05
0.000597331
0.000614633
0.00098673
0.00137163
-0.000392622
0.000366599
-0.0023271
-0.000186059
-0.00129815
-0.00138719
-0.0036511
-4.27629e-05
0.00135086
0.00201416
0.00127152
0.00538326
0.00279181
0.0014449
-0.000399613
0.000288097
0.000591158
0.000334906
0.000152244
0.000205773
2.14145e-05
4.48043e-05
-0.000278268
-2.0231e-05
-0.000191321
-0.000137051
-0.000125822
6.27628e-05
-0.00036088
0.000443179
-0.00105596
0.000999529
-0.00149133
0.000535501
-0.00101766
0.000807751
-0.00117462
-0.00403803
-0.00234786
-0.000194938
0.00203997
0.00232505
0.000653423
2.20863e-05
-0.000390411
-0.000713053
-0.000471777
-3.70508e-05
-0.000153903
5.52963e-05
4.06095e-05
4.66908e-06
-7.03911e-05
-0.000321605
-0.000488864
-0.000699822
-0.000764954
-0.000701076
-0.000508662
-0.000899751
-0.00123015
-0.00089963
-0.000677302
-0.000770169
-0.000722706
-0.000643865
-0.00369209
0.032576
-0.00333681
0.00570651
0.00553263
0.0020263
0.000175087
0.000493399
0.000192246
0.000559031
-0.000251349
5.80503e-05
-0.000262794
6.54157e-05
-0.000182774
0.000991404
-0.000473252
0.00152702
-0.000377704
0.001396
3.58346e-05
0.0010944
0.000457237
0.000891994
0.000614409
0.000680537
0.000658017
0.000488382
0.00043842
-0.000154576
9.7783e-05
-0.000649988
-0.000195099
-0.00103844
-0.000317119
-0.00108834
-0.000331957
-0.000202191
-0.000215933
-0.000219144
0.000293657
1.80839e-05
0.000601031
0.000355325
0.000885115
0.000526393
0.000250323
9.6875e-05
-8.18336e-05
0.000435207
0.000595555
0.00103746
0.00255601
0.00102619
0.00277404
-0.000895131
0.00264162
0.00143172
0.00090148
-0.000122502
-0.00162605
-0.00378642
-0.00299721
0.00136947
0.00133069
0.00116726