/*--------------------------------*- C++ -*----------------------------------*\
| =========                 |                                                 |
| \\      /  F ield         | OpenFOAM: The Open Source CFD Toolbox           |
|  \\    /   O peration     | Version:  2.2.x                                 |
|   \\  /    A nd           | Web:      www.OpenFOAM.org                      |
|    \\/     M anipulation  |                                                 |
\*---------------------------------------------------------------------------*/
FoamFile
{
    version     2.0;
    format      ascii;
    class       volVectorField;
    location    "1.85";
    object      U;
}
// * * * * * * * * * * * * * * * * * * * * * * * * * * * * * * * * * * * * * //

dimensions      [0 1 -1 0 0 0 0];

internalField   nonuniform List<vector> 
14161
(
(1.49048 0.0122284 -2.07555e-16)
(1.4907 0.0422452 -2.76515e-16)
(1.46682 0.0402456 -6.71026e-16)
(1.45415 0.02321 -1.15637e-15)
(1.43321 -0.0205428 -1.25532e-15)
(1.42947 -0.0443515 -1.31095e-15)
(1.42528 -0.0429918 -1.47548e-15)
(1.43381 -0.0318201 -1.48718e-15)
(1.45473 -0.00818642 -1.5138e-15)
(1.46842 0.0241279 -1.40764e-15)
(1.46766 0.0440533 -1.53468e-15)
(1.46911 0.045032 -1.49952e-15)
(1.44666 0.0340912 -1.69841e-15)
(1.42533 0.0112489 -1.96685e-15)
(1.41682 -0.0230971 -2.1761e-15)
(1.4242 -0.0339819 -2.21239e-15)
(1.42854 -0.0292647 -2.2361e-15)
(1.45054 -0.0138378 -2.29933e-15)
(1.46904 0.00649558 -2.24057e-15)
(1.48494 0.0316871 -2.27628e-15)
(1.4861 0.0446998 -2.3231e-15)
(1.47395 0.0427177 -2.40616e-15)
(1.45827 0.0322231 -2.57515e-15)
(1.44755 0.0128992 -2.59852e-15)
(1.44386 -0.00516423 -2.68078e-15)
(1.45118 -0.00608579 -2.37188e-15)
(1.4551 -0.00232173 -2.75061e-15)
(1.4653 0.00459735 -2.49066e-15)
(1.48581 0.0128677 -2.6897e-15)
(1.52121 0.0192795 -2.51746e-15)
(1.54186 -0.0203103 7.78045e-15)
(1.07416 -0.0790641 1.8967e-14)
(0.911165 0.00506763 1.78215e-14)
(0.959968 0.0311181 1.27344e-14)
(0.969598 0.038336 9.73325e-15)
(0.972331 0.0421332 8.89797e-15)
(0.986875 0.0451285 8.68599e-15)
(0.99573 0.0501938 8.65984e-15)
(0.997968 0.0533064 8.17382e-15)
(0.991856 0.0554813 7.6877e-15)
(0.977086 0.0566038 6.88597e-15)
(0.953472 0.0561602 5.66496e-15)
(0.925518 0.0522576 3.89379e-15)
(0.902687 0.0473147 3.23381e-15)
(0.88638 0.0418042 2.44571e-15)
(0.875078 0.0401683 1.49661e-15)
(0.864562 0.0376064 7.70877e-16)
(0.856423 0.0351848 3.49664e-16)
(0.850358 0.0332817 1.96502e-16)
(0.84574 0.0317573 7.95999e-17)
(0.842743 0.0305369 -2.60836e-16)
(0.840817 0.0294987 -6.04954e-16)
(0.839622 0.0289223 -8.63775e-16)
(0.838547 0.0284437 -8.77669e-16)
(0.838612 0.0278695 -8.95602e-16)
(0.840618 0.0277336 -1.04673e-15)
(0.84392 0.0281522 -1.14442e-15)
(0.847213 0.0287374 -1.28334e-15)
(0.850537 0.028769 -1.32226e-15)
(0.854161 0.0287932 -1.3555e-15)
(0.857151 0.0293249 -1.34098e-15)
(0.856137 0.0310212 -1.26981e-15)
(0.84902 0.0319427 -1.47923e-15)
(0.838134 0.0303459 -1.87152e-15)
(0.826007 0.028168 -2.08266e-15)
(0.815482 0.0254117 -2.24396e-15)
(0.806482 0.0221155 -2.3764e-15)
(0.798115 0.0187575 -2.41424e-15)
(0.789417 0.0151229 -2.45596e-15)
(0.781667 0.0121384 -2.48985e-15)
(0.772867 0.00927793 -2.61859e-15)
(0.761917 0.00727459 -2.6572e-15)
(0.74903 0.0061054 -2.79065e-15)
(0.737243 0.00446858 -2.83647e-15)
(0.729146 0.00459281 -2.84007e-15)
(0.724799 0.00573842 -2.87411e-15)
(0.728124 0.00714989 -2.87388e-15)
(0.734217 0.00929123 -2.86827e-15)
(0.738595 0.013318 -2.74873e-15)
(0.741527 0.0156464 -2.74578e-15)
(0.742798 0.0182983 -2.63199e-15)
(0.741693 0.0214535 -2.481e-15)
(0.733844 0.0220167 -2.28619e-15)
(0.725975 0.0211131 -2.19489e-15)
(0.72067 0.0175919 -2.09757e-15)
(0.719043 0.0147185 -2.11594e-15)
(0.721291 0.0140361 -2.30368e-15)
(0.725576 0.0143985 -2.42909e-15)
(0.730416 0.0157975 -2.51675e-15)
(0.732622 0.0198486 -2.57715e-15)
(0.729939 0.027538 -2.59219e-15)
(0.714717 0.0398469 -2.49415e-15)
(0.676408 0.0519383 -2.32547e-15)
(0.623155 0.0643181 -2.14111e-15)
(0.553408 0.0703175 -2.08018e-15)
(0.483919 0.0632148 -1.97619e-15)
(0.424893 0.0503112 -2.0035e-15)
(0.379458 0.038657 -2.05157e-15)
(0.344138 0.028731 -1.81074e-15)
(0.31761 0.0205682 -1.58776e-15)
(0.297293 0.0151788 -1.71474e-15)
(0.280004 0.0128344 -2.01532e-15)
(0.264528 0.011372 -1.96096e-15)
(0.250799 0.0100252 -1.95392e-15)
(0.239259 0.00815875 -2.0576e-15)
(0.230438 0.00611803 -2.11061e-15)
(0.224611 0.00443378 -2.02698e-15)
(0.220372 0.004137 -2.00733e-15)
(0.216217 0.00520863 -2.07267e-15)
(0.211484 0.00591488 -2.16858e-15)
(0.206225 0.00608499 -2.08475e-15)
(0.200719 0.00692047 -1.9919e-15)
(0.194409 0.00792665 -1.92224e-15)
(0.187027 0.00970304 -1.87108e-15)
(0.177754 0.0143593 -1.79143e-15)
(0.163446 0.0193782 -1.7175e-15)
(0.141667 0.0353297 -1.57736e-15)
(0.0999549 0.0534991 -1.62756e-15)
(0.0590848 0.080059 -1.19608e-15)
(1.40606 -0.00777017 -3.57345e-16)
(1.4002 -0.0110904 -2.01102e-15)
(1.4308 -0.0193835 -2.57055e-15)
(1.50211 -0.0171488 -2.30332e-15)
(1.55493 -0.00509706 -1.60801e-15)
(1.52827 0.00584419 -1.40552e-15)
(1.49205 0.0147176 -1.37098e-15)
(1.46565 0.0229531 -1.57398e-15)
(1.41713 0.017829 -2.00734e-15)
(1.38266 0.0018399 -2.73676e-15)
(1.36456 -0.0153628 -2.54938e-15)
(1.40621 -0.023702 -2.36305e-15)
(1.4299 -0.0235064 -2.18008e-15)
(1.47993 -0.013493 -1.7534e-15)
(1.50089 -0.00461402 -1.78314e-15)
(1.51007 0.00499304 -1.69827e-15)
(1.46986 0.0112447 -2.03533e-15)
(1.43349 0.0138033 -2.27943e-15)
(1.39372 0.00965257 -2.77301e-15)
(1.37245 -0.00294648 -3.07041e-15)
(1.38698 -0.0135014 -3.22305e-15)
(1.40702 -0.0170033 -3.27005e-15)
(1.43965 -0.0189778 -3.20824e-15)
(1.46113 -0.017755 -3.00534e-15)
(1.4698 -0.0132932 -3.06447e-15)
(1.46624 -0.0048142 -2.90984e-15)
(1.45964 0.00178916 -3.05717e-15)
(1.44239 0.00446357 -3.18128e-15)
(1.43873 -0.000310967 -3.39831e-15)
(1.45384 -0.00165227 -3.64392e-15)
(1.44451 -0.0812095 3.68299e-15)
(0.843235 -0.138952 1.48832e-14)
(0.665063 -0.0212622 1.30316e-14)
(0.580334 0.00693149 7.59978e-15)
(0.543886 0.0150614 6.09485e-15)
(0.527095 0.0196162 4.8742e-15)
(0.519899 0.0219896 3.49415e-15)
(0.516358 0.0248317 2.37119e-15)
(0.515132 0.0267417 1.00588e-15)
(0.51498 0.0285075 -2.06248e-16)
(0.517513 0.0307919 -7.72894e-16)
(0.522128 0.0329027 -1.37844e-15)
(0.527732 0.031794 -1.74353e-15)
(0.534723 0.0298647 -2.34739e-15)
(0.540247 0.0260741 -2.4169e-15)
(0.545126 0.0212789 -2.65448e-15)
(0.552373 0.0190365 -2.84671e-15)
(0.559492 0.0169615 -3.05453e-15)
(0.566086 0.0152384 -3.29874e-15)
(0.571927 0.0137561 -3.5076e-15)
(0.57685 0.0123261 -3.69852e-15)
(0.580863 0.0107387 -3.93225e-15)
(0.584272 0.009379 -4.09473e-15)
(0.586952 0.00795666 -4.09974e-15)
(0.588997 0.00661018 -4.03825e-15)
(0.590616 0.00572284 -4.10322e-15)
(0.592139 0.00584822 -4.26169e-15)
(0.593385 0.00631352 -4.43257e-15)
(0.594243 0.00656388 -4.56848e-15)
(0.594846 0.00732993 -4.64572e-15)
(0.594251 0.00896724 -4.65517e-15)
(0.593332 0.011414 -4.68174e-15)
(0.592766 0.012937 -4.6758e-15)
(0.592378 0.0124325 -4.64306e-15)
(0.593691 0.0109407 -4.59747e-15)
(0.59638 0.00900442 -4.48861e-15)
(0.599569 0.00669915 -4.41457e-15)
(0.602591 0.003668 -4.33116e-15)
(0.604703 0.00157198 -4.09774e-15)
(0.602526 0.00253747 -3.96201e-15)
(0.597028 0.00389932 -3.71037e-15)
(0.58855 0.00394692 -3.3946e-15)
(0.578191 0.00473561 -3.12097e-15)
(0.567135 0.00735487 -2.86787e-15)
(0.557887 0.0114901 -2.65402e-15)
(0.551905 0.0137863 -2.46282e-15)
(0.548467 0.0148095 -2.42906e-15)
(0.545212 0.0155291 -2.39911e-15)
(0.542144 0.0177595 -2.51893e-15)
(0.536483 0.0190134 -2.62173e-15)
(0.529027 0.021069 -2.89358e-15)
(0.521481 0.0247174 -2.91477e-15)
(0.510298 0.0246589 -3.049e-15)
(0.5004 0.0235658 -3.36384e-15)
(0.491449 0.0190606 -3.42117e-15)
(0.482797 0.0158644 -3.65648e-15)
(0.474171 0.0147973 -3.61608e-15)
(0.46386 0.0146995 -3.50331e-15)
(0.450701 0.0157423 -3.36931e-15)
(0.434755 0.0201645 -3.23626e-15)
(0.415119 0.0285358 -3.05396e-15)
(0.388459 0.043148 -2.76419e-15)
(0.355479 0.0568377 -2.50891e-15)
(0.325552 0.068987 -2.42054e-15)
(0.299741 0.075183 -2.47978e-15)
(0.27799 0.0674306 -2.46753e-15)
(0.262914 0.0550207 -2.53071e-15)
(0.251315 0.0427195 -2.34329e-15)
(0.239092 0.0328122 -2.23292e-15)
(0.227278 0.025455 -2.30874e-15)
(0.217889 0.0194339 -2.25165e-15)
(0.210508 0.0167428 -2.168e-15)
(0.205363 0.0150004 -2.25338e-15)
(0.201724 0.013405 -2.26664e-15)
(0.199333 0.0105502 -2.15817e-15)
(0.196975 0.00761012 -2.13783e-15)
(0.194541 0.00518264 -2.21719e-15)
(0.191422 0.00513676 -2.26071e-15)
(0.187466 0.00664192 -2.25353e-15)
(0.181424 0.0075733 -2.20588e-15)
(0.172081 0.00770986 -2.11682e-15)
(0.159159 0.00889639 -2.02561e-15)
(0.14141 0.0102875 -1.90014e-15)
(0.119649 0.012582 -1.75968e-15)
(0.0961936 0.0179083 -1.73577e-15)
(0.0695101 0.0223747 -1.67402e-15)
(0.04764 0.0408693 -1.56154e-15)
(0.0220083 0.0574529 -1.46983e-15)
(0.0187071 0.0922503 -1.07011e-15)
(1.56183 -0.0010936 6.39227e-16)
(1.5889 0.018449 1.95562e-15)
(1.50105 0.0236837 2.16275e-15)
(1.412 0.0239651 6.38262e-16)
(1.33174 -0.00577646 -6.24079e-16)
(1.37816 -0.0369113 -1.52583e-15)
(1.39703 -0.0351694 -2.05746e-15)
(1.44211 -0.0236444 -2.15872e-15)
(1.52069 -0.00643962 -1.64872e-15)
(1.57159 0.00648105 -1.40572e-15)
(1.5417 0.0173792 -1.02378e-15)
(1.53327 0.0225058 -1.44546e-15)
(1.44721 0.0194475 -2.10222e-15)
(1.38183 0.0130692 -3.01939e-15)
(1.34312 -0.00543741 -4.06212e-15)
(1.37088 -0.0266821 -4.17101e-15)
(1.41274 -0.0243085 -4.0345e-15)
(1.45503 -0.0133774 -3.58462e-15)
(1.5239 -0.001911 -2.92452e-15)
(1.55786 0.00778678 -2.15009e-15)
(1.54271 0.0165981 -2.22194e-15)
(1.48288 0.0217784 -2.3699e-15)
(1.43874 0.0183136 -2.68508e-15)
(1.39965 0.0105893 -3.06802e-15)
(1.37345 0.00111143 -3.30575e-15)
(1.41984 -0.00634721 -3.12458e-15)
(1.43286 -0.00620744 -3.05845e-15)
(1.46017 -0.00182143 -2.79351e-15)
(1.4868 -0.00113792 -3.08979e-15)
(1.5147 0.000548091 -2.22072e-16)
(1.3289 -0.085913 5.09684e-15)
(0.623864 -0.027299 1.26566e-14)
(0.458286 0.0501151 8.89065e-15)
(0.375041 0.0317317 5.38024e-15)
(0.342778 0.012906 -9.90646e-16)
(0.331539 0.00554234 6.18408e-16)
(0.330989 0.00381323 -3.34323e-16)
(0.333666 0.00334897 -1.40593e-15)
(0.339896 0.00402683 -2.26536e-15)
(0.347583 0.0049857 -3.29141e-15)
(0.35663 0.00538298 -4.35518e-15)
(0.367643 0.00621667 -5.11442e-15)
(0.38032 0.00602718 -5.57784e-15)
(0.393291 0.00560027 -5.78306e-15)
(0.406248 0.00441283 -5.73282e-15)
(0.417467 -0.00206076 -5.4639e-15)
(0.4304 -0.00380177 -5.33432e-15)
(0.442859 -0.00409939 -5.05031e-15)
(0.454884 -0.00374708 -4.86355e-15)
(0.466629 -0.00339284 -4.77617e-15)
(0.477971 -0.00307868 -4.60521e-15)
(0.488897 -0.00330385 -4.50624e-15)
(0.499473 -0.00312936 -4.60072e-15)
(0.509671 -0.0027936 -4.44676e-15)
(0.519448 -0.00292327 -4.33627e-15)
(0.528725 -0.00326983 -4.50478e-15)
(0.537303 -0.00352769 -4.45412e-15)
(0.544734 -0.00324229 -4.27887e-15)
(0.551195 -0.00383639 -4.19259e-15)
(0.556656 -0.0027118 -4.14527e-15)
(0.560516 -0.000317911 -4.13901e-15)
(0.563379 0.00206984 -3.8395e-15)
(0.565119 0.00387117 -3.80752e-15)
(0.566294 0.00386534 -3.53654e-15)
(0.565692 0.00299071 -3.41266e-15)
(0.563957 0.0025684 -3.25187e-15)
(0.561115 0.00244526 -3.09717e-15)
(0.555729 0.0039851 -2.94418e-15)
(0.547383 0.0064345 -2.80406e-15)
(0.537074 0.00657842 -2.67305e-15)
(0.525325 0.00638332 -2.57722e-15)
(0.511555 0.007475 -2.4734e-15)
(0.498591 0.00965201 -2.3698e-15)
(0.487351 0.00665235 -2.3126e-15)
(0.47631 0.00402101 -2.3233e-15)
(0.46491 0.00301777 -2.32481e-15)
(0.453496 0.00591991 -2.342e-15)
(0.441092 0.0100955 -2.28239e-15)
(0.428023 0.0165748 -2.32482e-15)
(0.413616 0.0211947 -2.37537e-15)
(0.398769 0.0234162 -2.6159e-15)
(0.384841 0.0281031 -2.58925e-15)
(0.368777 0.0260746 -2.68599e-15)
(0.353278 0.0251111 -2.81952e-15)
(0.338132 0.020066 -2.85407e-15)
(0.322833 0.0170191 -3.02164e-15)
(0.307115 0.0170633 -3.23678e-15)
(0.289757 0.0181877 -3.394e-15)
(0.269825 0.0208067 -3.68942e-15)
(0.247401 0.0263123 -3.72984e-15)
(0.22362 0.0387469 -3.80185e-15)
(0.202791 0.0582124 -3.57674e-15)
(0.178344 0.0675673 -3.13242e-15)
(0.163632 0.0794421 -3.07809e-15)
(0.151339 0.0798675 -2.99662e-15)
(0.14491 0.0717044 -2.9844e-15)
(0.141158 0.0582713 -2.97047e-15)
(0.140552 0.0450186 -2.81124e-15)
(0.14124 0.0358426 -2.73869e-15)
(0.141678 0.026492 -2.55706e-15)
(0.144087 0.0189822 -2.42295e-15)
(0.148098 0.0142398 -2.38305e-15)
(0.152505 0.0105893 -2.37398e-15)
(0.156606 0.00788358 -2.33411e-15)
(0.159619 0.00618912 -2.30899e-15)
(0.161163 0.0061204 -2.13651e-15)
(0.161379 0.00647581 -2.03726e-15)
(0.161134 0.00901141 -1.98385e-15)
(0.159106 0.013456 -1.94587e-15)
(0.155057 0.0192954 -1.87683e-15)
(0.147675 0.0251498 -1.77611e-15)
(0.137363 0.0314749 -1.68054e-15)
(0.123332 0.0368732 -1.61552e-15)
(0.106869 0.0430092 -1.54147e-15)
(0.0863388 0.0514441 -1.49814e-15)
(0.061185 0.0553969 -1.45021e-15)
(0.0424071 0.0755045 -1.33563e-15)
(0.0199784 0.0806369 -1.34993e-15)
(0.0174313 0.117427 -9.66144e-16)
(1.38148 -0.00864952 -1.43577e-15)
(1.30948 -0.00646619 -3.26052e-15)
(1.42484 -0.000612868 -4.04261e-15)
(1.5693 0.0106575 -2.76381e-15)
(1.66081 0.00119448 -9.85231e-16)
(1.62067 -0.00835952 -3.75045e-16)
(1.54428 -0.00342498 -4.35545e-16)
(1.48471 0.000404141 -9.56333e-16)
(1.38588 0.00678066 -1.7994e-15)
(1.315 -0.000605219 -2.99034e-15)
(1.29025 -0.00469342 -2.93702e-15)
(1.38024 -0.00532731 -2.47704e-15)
(1.4333 -0.0046052 -1.90483e-15)
(1.53747 -0.000532322 -1.09092e-15)
(1.58143 0.00126885 -7.54187e-16)
(1.57486 -0.00450669 -7.34411e-16)
(1.50182 -0.000531702 -8.90739e-16)
(1.43572 0.0039716 -1.29152e-15)
(1.34978 0.00689378 -1.98227e-15)
(1.3005 -0.00045245 -2.62772e-15)
(1.31969 -0.00232442 -2.94354e-15)
(1.37732 0.001771 -2.98251e-15)
(1.42136 -0.00285292 -2.74204e-15)
(1.47502 -0.00349384 -2.28255e-15)
(1.5036 -0.00223732 -2.18788e-15)
(1.49569 -0.0038684 -1.9387e-15)
(1.4536 -0.00162788 -2.29037e-15)
(1.43242 0.00187146 -1.84485e-15)
(1.41345 -0.000998325 -3.29554e-15)
(1.40696 0.00219961 -2.16497e-15)
(0.858452 0.00819005 4.014e-15)
(0.392264 0.00549302 1.09032e-14)
(0.301885 0.0459471 8.30514e-15)
(0.281745 0.0302483 2.78212e-15)
(0.276156 0.00889868 -4.25591e-16)
(0.275312 -0.00339868 -1.64073e-15)
(0.283558 -0.00679413 -2.37474e-15)
(0.292149 -0.00841918 -2.68817e-15)
(0.302617 -0.00879646 -3.25776e-15)
(0.314139 -0.00855246 -3.5733e-15)
(0.326732 -0.00943125 -3.82949e-15)
(0.340452 -0.0105241 -3.87666e-15)
(0.354768 -0.0120732 -3.87963e-15)
(0.369048 -0.0134877 -3.81479e-15)
(0.383112 -0.014432 -3.74603e-15)
(0.395589 -0.0214749 -3.70294e-15)
(0.410807 -0.0232191 -3.71163e-15)
(0.425136 -0.0231633 -3.64328e-15)
(0.438758 -0.0226636 -3.62256e-15)
(0.452049 -0.0220545 -3.66144e-15)
(0.464875 -0.0214266 -3.64148e-15)
(0.477042 -0.021458 -3.69685e-15)
(0.488571 -0.0209842 -3.64456e-15)
(0.499794 -0.0202009 -3.68007e-15)
(0.510668 -0.0197627 -3.63278e-15)
(0.521178 -0.0191044 -3.59209e-15)
(0.530938 -0.0171913 -3.51284e-15)
(0.539446 -0.0145381 -3.41703e-15)
(0.547001 -0.0131489 -3.28164e-15)
(0.552713 -0.00887264 -3.11473e-15)
(0.55706 -0.00388754 -3.02625e-15)
(0.560356 -0.000150849 -2.85569e-15)
(0.561652 0.00277775 -2.79425e-15)
(0.561055 0.00428194 -2.65168e-15)
(0.55815 0.00554539 -2.55796e-15)
(0.553601 0.00724121 -2.46966e-15)
(0.548665 0.0079178 -2.35043e-15)
(0.544412 0.00784686 -2.30112e-15)
(0.541105 0.00942017 -2.20826e-15)
(0.536656 0.0112927 -2.09926e-15)
(0.528924 0.0137236 -2.07049e-15)
(0.515988 0.0168742 -2.01628e-15)
(0.499963 0.0204041 -1.99337e-15)
(0.478082 0.024133 -1.96829e-15)
(0.455681 0.0271667 -2.03526e-15)
(0.43469 0.0283847 -2.038e-15)
(0.416438 0.0326246 -2.10995e-15)
(0.400267 0.0376544 -2.1115e-15)
(0.385957 0.0435596 -2.14168e-15)
(0.372648 0.0477752 -2.17698e-15)
(0.359526 0.0485928 -2.3223e-15)
(0.34786 0.0526343 -2.27702e-15)
(0.334706 0.0489246 -2.3847e-15)
(0.320953 0.0479278 -2.49493e-15)
(0.306695 0.0413124 -2.61596e-15)
(0.290542 0.0374415 -2.78532e-15)
(0.273317 0.0383361 -2.95538e-15)
(0.253709 0.0414209 -3.06097e-15)
(0.23126 0.0471868 -3.26858e-15)
(0.206003 0.0551077 -3.3203e-15)
(0.180049 0.0653148 -3.41719e-15)
(0.160207 0.0840764 -3.49541e-15)
(0.136883 0.0862156 -3.20725e-15)
(0.122048 0.0910512 -3.15284e-15)
(0.109581 0.0846954 -3.31442e-15)
(0.106093 0.072356 -3.37461e-15)
(0.106995 0.0575752 -3.27623e-15)
(0.111514 0.0410444 -3.18494e-15)
(0.118769 0.0299614 -3.01084e-15)
(0.122817 0.0191093 -2.80188e-15)
(0.125038 0.0101337 -2.72188e-15)
(0.127299 0.00503209 -2.60206e-15)
(0.129461 0.00278637 -2.44514e-15)
(0.130676 0.00222018 -2.43923e-15)
(0.130841 0.00260485 -2.35999e-15)
(0.13039 0.00391532 -2.24498e-15)
(0.12834 0.00368915 -2.15306e-15)
(0.124495 0.00643935 -2.03592e-15)
(0.120025 0.0124935 -1.9525e-15)
(0.113527 0.0191321 -1.81742e-15)
(0.105541 0.0249943 -1.71186e-15)
(0.0985864 0.0337316 -1.62433e-15)
(0.0891641 0.0438329 -1.55518e-15)
(0.0753646 0.0550362 -1.49422e-15)
(0.061792 0.071287 -1.39632e-15)
(0.0420676 0.0751904 -1.29861e-15)
(0.0323561 0.0977371 -1.17268e-15)
(0.0202343 0.0958449 -1.20019e-15)
(0.0187581 0.136843 -9.20095e-16)
(1.60177 -0.00373574 5.65887e-16)
(1.64768 0.007591 1.77632e-15)
(1.53136 0.0183306 2.1224e-15)
(1.4082 0.0263681 1.11899e-15)
(1.31669 0.00430528 -2.69925e-16)
(1.35033 -0.0296155 -6.90328e-16)
(1.38283 -0.037517 -1.38488e-15)
(1.454 -0.029825 -1.43212e-15)
(1.55865 -0.010363 -9.71601e-16)
(1.62784 -0.000430129 -4.1582e-16)
(1.58708 0.00985924 -2.80964e-16)
(1.59366 0.0138043 -4.35538e-16)
(1.45176 0.0170311 -8.83864e-16)
(1.36314 0.0143243 -1.64791e-15)
(1.31388 0.00343176 -2.48598e-15)
(1.33822 -0.0201525 -2.64936e-15)
(1.38455 -0.0241416 -2.61785e-15)
(1.4545 -0.0187387 -2.24276e-15)
(1.55877 -0.00845992 -1.54305e-15)
(1.61191 -0.00031103 -1.05756e-15)
(1.5711 0.00692381 -9.32328e-16)
(1.52706 0.0145571 -1.13206e-15)
(1.43248 0.0146907 -1.38674e-15)
(1.37604 0.0112553 -1.66088e-15)
(1.34421 0.00669017 -1.99575e-15)
(1.37278 -0.00287895 -1.91071e-15)
(1.40696 -0.00588229 -1.93415e-15)
(1.4383 -0.00973667 -1.67241e-15)
(1.4712 -0.0112725 -1.82701e-15)
(1.50908 -0.00379165 -1.28641e-16)
(1.28656 0.102128 5.32981e-15)
(0.567523 0.0582146 1.08457e-14)
(0.434662 0.0660871 7.97874e-15)
(0.376288 0.0439537 2.56291e-15)
(0.349449 0.015071 1.78924e-16)
(0.337364 -0.00384372 -1.02386e-15)
(0.329982 -0.0104053 -1.28401e-15)
(0.328217 -0.0145154 -1.71694e-15)
(0.330412 -0.0155756 -2.36701e-15)
(0.337097 -0.0165106 -2.86026e-15)
(0.346663 -0.019115 -3.38574e-15)
(0.358632 -0.0219789 -3.65331e-15)
(0.37196 -0.0244657 -3.85428e-15)
(0.385251 -0.0263844 -3.81023e-15)
(0.398191 -0.0268676 -3.8421e-15)
(0.409319 -0.0333846 -3.78252e-15)
(0.423512 -0.0352626 -3.69297e-15)
(0.437033 -0.0350062 -3.64297e-15)
(0.450379 -0.0346156 -3.48407e-15)
(0.463948 -0.0337421 -3.36982e-15)
(0.477432 -0.0328207 -3.21713e-15)
(0.490587 -0.0328683 -3.03671e-15)
(0.503282 -0.0326683 -2.86744e-15)
(0.515591 -0.0321871 -2.69899e-15)
(0.527786 -0.03256 -2.47916e-15)
(0.539775 -0.0318685 -2.30199e-15)
(0.55043 -0.0292728 -2.12108e-15)
(0.560307 -0.0263859 -1.99708e-15)
(0.570503 -0.0241985 -1.85285e-15)
(0.579662 -0.0184247 -1.71535e-15)
(0.587689 -0.0113963 -1.60458e-15)
(0.5961 -0.00554489 -1.53664e-15)
(0.601252 0.000618436 -1.45109e-15)
(0.606862 0.00411188 -1.36046e-15)
(0.608738 0.00771873 -1.29623e-15)
(0.607376 0.00933736 -1.22753e-15)
(0.603055 0.00987192 -1.18229e-15)
(0.595456 0.0100225 -1.13193e-15)
(0.58517 0.0123046 -1.08399e-15)
(0.570101 0.0143709 -1.03514e-15)
(0.555886 0.019793 -9.81334e-16)
(0.540642 0.0258233 -9.43524e-16)
(0.52223 0.0317837 -9.2352e-16)
(0.505007 0.0393446 -9.21993e-16)
(0.490537 0.0488614 -9.80138e-16)
(0.476957 0.0556507 -1.02735e-15)
(0.463165 0.0620273 -1.15025e-15)
(0.448858 0.0673285 -1.25735e-15)
(0.433595 0.0719205 -1.35586e-15)
(0.417831 0.07663 -1.50043e-15)
(0.399935 0.075695 -1.66608e-15)
(0.382101 0.0794251 -1.75352e-15)
(0.362759 0.0745348 -1.87005e-15)
(0.342653 0.0753697 -1.96658e-15)
(0.32175 0.0692245 -2.11212e-15)
(0.300605 0.0653036 -2.26035e-15)
(0.279665 0.0667528 -2.45535e-15)
(0.258232 0.0720231 -2.58398e-15)
(0.23455 0.0818931 -2.77124e-15)
(0.208014 0.0927923 -2.83879e-15)
(0.181227 0.0999633 -2.88791e-15)
(0.161502 0.1175 -3.08811e-15)
(0.137614 0.112795 -3.04191e-15)
(0.119781 0.109309 -2.95156e-15)
(0.109725 0.0921394 -3.15144e-15)
(0.107959 0.071285 -3.28011e-15)
(0.107657 0.051244 -3.2297e-15)
(0.110314 0.028358 -3.28697e-15)
(0.119372 0.0174564 -3.06331e-15)
(0.126193 0.00957556 -2.96607e-15)
(0.131119 0.00310252 -2.93491e-15)
(0.134767 -0.000309998 -2.77496e-15)
(0.136405 -0.000907053 -2.56255e-15)
(0.136149 0.000213217 -2.53734e-15)
(0.134461 0.00231138 -2.43637e-15)
(0.131831 0.0058344 -2.35443e-15)
(0.1267 0.0105204 -2.2849e-15)
(0.119641 0.0165822 -2.17823e-15)
(0.109754 0.0230108 -2.05425e-15)
(0.0976909 0.0292227 -1.90228e-15)
(0.0850584 0.0343649 -1.79178e-15)
(0.0720362 0.0409869 -1.7169e-15)
(0.0622812 0.0534491 -1.53672e-15)
(0.0492299 0.0668851 -1.44435e-15)
(0.0430717 0.0852855 -1.25133e-15)
(0.0285255 0.0889933 -1.18355e-15)
(0.0226432 0.110449 -1.07092e-15)
(0.0149913 0.106538 -1.10854e-15)
(0.0156597 0.152161 -8.60706e-16)
(1.36011 -0.00398224 -1.00432e-15)
(1.27989 -0.00774836 -2.2595e-15)
(1.43556 0.00508496 -2.88456e-15)
(1.6084 0.0174288 -1.7838e-15)
(1.71146 0.00496274 -3.27845e-16)
(1.68398 -0.005388 1.51823e-16)
(1.58087 -0.00733048 8.18829e-17)
(1.50297 -0.00900915 -3.216e-16)
(1.37712 0.000457935 -9.10466e-16)
(1.27964 2.8933e-06 -1.84725e-15)
(1.23646 9.24512e-05 -1.9885e-15)
(1.34839 -0.00497788 -1.45924e-15)
(1.41589 0.0013457 -1.10359e-15)
(1.5515 0.00118028 -4.82422e-16)
(1.61486 0.00344161 -1.42992e-16)
(1.61707 -0.00108672 -8.0497e-17)
(1.53436 -0.000960476 -1.8165e-16)
(1.44734 -0.00261883 -4.48873e-16)
(1.33856 0.00317582 -8.64282e-16)
(1.27306 0.00265145 -1.32986e-15)
(1.26999 0.000323677 -1.56385e-15)
(1.34229 -0.000134384 -1.51638e-15)
(1.39534 0.001789 -1.32641e-15)
(1.47453 -0.00250013 -1.06695e-15)
(1.51605 -0.00163837 -8.48974e-16)
(1.53747 -0.00326662 -7.88551e-16)
(1.47836 -0.00146572 -8.48841e-16)
(1.45703 -0.00266323 -9.07885e-16)
(1.43169 -0.00619065 -9.93645e-16)
(1.43751 0.00311593 -3.42835e-16)
(1.38351 0.124464 3.51842e-15)
(0.605798 0.164256 8.20927e-15)
(0.45136 0.131267 6.04922e-15)
(0.376741 0.0761748 2.52036e-15)
(0.348619 0.0305633 6.78372e-16)
(0.337053 0.00380207 -3.34156e-16)
(0.332293 -0.00997869 -7.70249e-16)
(0.330966 -0.0185226 -9.56412e-16)
(0.334799 -0.0278087 -1.33397e-15)
(0.344864 -0.035175 -1.50813e-15)
(0.35739 -0.0416702 -1.75845e-15)
(0.371136 -0.0461945 -1.78913e-15)
(0.384643 -0.0487661 -1.95416e-15)
(0.397454 -0.050394 -1.91005e-15)
(0.409559 -0.0498852 -1.9815e-15)
(0.420687 -0.0561163 -1.8239e-15)
(0.435337 -0.0580921 -1.68378e-15)
(0.449683 -0.0579745 -1.69976e-15)
(0.464022 -0.0580152 -1.5001e-15)
(0.478581 -0.0565445 -1.39887e-15)
(0.493063 -0.0546617 -1.27337e-15)
(0.507314 -0.0536662 -1.19969e-15)
(0.521008 -0.051444 -1.07029e-15)
(0.534448 -0.0491851 -1.02702e-15)
(0.54797 -0.0483433 -9.76299e-16)
(0.561114 -0.0443691 -9.63711e-16)
(0.573508 -0.0389828 -9.06568e-16)
(0.585966 -0.0357669 -8.55848e-16)
(0.598023 -0.0330705 -8.06114e-16)
(0.608704 -0.0268251 -7.86803e-16)
(0.619128 -0.0204053 -7.86644e-16)
(0.629661 -0.0151119 -7.48497e-16)
(0.639562 -0.00838823 -7.17601e-16)
(0.649439 0.000278116 -6.87832e-16)
(0.657819 0.00727176 -6.79057e-16)
(0.666128 0.012669 -6.41859e-16)
(0.669931 0.0189701 -6.18446e-16)
(0.673484 0.0215868 -5.70609e-16)
(0.673369 0.0256081 -5.27439e-16)
(0.668703 0.0273012 -5.01957e-16)
(0.658856 0.0313045 -4.82028e-16)
(0.647205 0.0368232 -4.68054e-16)
(0.628319 0.043441 -4.54863e-16)
(0.610099 0.0491719 -4.58085e-16)
(0.589281 0.0521205 -4.74667e-16)
(0.567436 0.0521966 -4.86901e-16)
(0.546539 0.0595063 -5.54863e-16)
(0.526807 0.071549 -6.38778e-16)
(0.506565 0.0839932 -6.73868e-16)
(0.488051 0.0955307 -8.52998e-16)
(0.464226 0.0981379 -9.94493e-16)
(0.440684 0.103864 -1.10909e-15)
(0.415184 0.0993305 -1.23121e-15)
(0.389029 0.100463 -1.33762e-15)
(0.362774 0.0921834 -1.52164e-15)
(0.337663 0.0864493 -1.67542e-15)
(0.313064 0.0892149 -1.90798e-15)
(0.288717 0.0973285 -2.05927e-15)
(0.264259 0.112023 -2.30711e-15)
(0.238202 0.126018 -2.53516e-15)
(0.210375 0.128762 -2.52235e-15)
(0.188217 0.143554 -2.70818e-15)
(0.1614 0.134987 -2.78257e-15)
(0.137748 0.123045 -2.77685e-15)
(0.125258 0.0967388 -3.02947e-15)
(0.119555 0.0688471 -3.1506e-15)
(0.121465 0.0456114 -3.37357e-15)
(0.124966 0.0198529 -3.2657e-15)
(0.133638 0.0104687 -3.26217e-15)
(0.138461 0.00510112 -3.24369e-15)
(0.138961 -0.000601148 -3.07745e-15)
(0.138842 -0.00267716 -2.83236e-15)
(0.13755 -0.00243101 -2.69353e-15)
(0.136158 0.000320161 -2.63621e-15)
(0.132653 0.00446352 -2.59334e-15)
(0.126443 0.00992245 -2.53761e-15)
(0.118379 0.0169514 -2.48251e-15)
(0.108279 0.022018 -2.33361e-15)
(0.104808 0.0352676 -2.22383e-15)
(0.0945055 0.0446874 -2.06105e-15)
(0.0798138 0.051481 -1.85793e-15)
(0.0644051 0.0570176 -1.85933e-15)
(0.0518899 0.0671742 -1.58787e-15)
(0.0394399 0.0792389 -1.53133e-15)
(0.0344663 0.0962356 -1.23165e-15)
(0.0220821 0.100521 -1.12963e-15)
(0.018436 0.121045 -9.9451e-16)
(0.0121959 0.115317 -1.0261e-15)
(0.0143476 0.161813 -8.04663e-16)
(1.6245 -0.00287638 2.83131e-16)
(1.69057 0.00143851 9.72541e-16)
(1.5641 0.0139319 1.12343e-15)
(1.4306 0.0249671 7.04957e-16)
(1.32516 0.0115105 -3.63061e-17)
(1.33703 -0.0148933 -3.09747e-16)
(1.36387 -0.0385775 -6.57208e-16)
(1.44901 -0.0384676 -6.1583e-16)
(1.55794 -0.0173689 -3.70436e-16)
(1.6395 -0.00540192 2.07673e-17)
(1.6375 0.00549956 -9.758e-18)
(1.61522 0.00778062 2.66839e-17)
(1.47551 0.0153581 -1.75271e-16)
(1.37403 0.0112509 -4.84646e-16)
(1.30632 0.0066519 -8.47839e-16)
(1.30952 -0.0115022 -9.6717e-16)
(1.36011 -0.0269635 -9.88816e-16)
(1.44707 -0.0297281 -7.94919e-16)
(1.56626 -0.0211845 -5.05046e-16)
(1.62621 -0.00596525 -2.44766e-16)
(1.63068 0.00330477 -2.25837e-16)
(1.5589 0.00664057 -2.28174e-16)
(1.48205 0.00413688 -3.56391e-16)
(1.39487 0.00397054 -3.79351e-16)
(1.36296 0.00459971 -7.04971e-16)
(1.36254 -0.00127522 -5.05869e-16)
(1.40506 -0.00489842 -5.28836e-16)
(1.44528 -0.00862761 -4.47011e-16)
(1.46888 -0.0142574 -5.50877e-16)
(1.48573 -0.00762779 -1.6941e-17)
(1.44481 0.102684 2.89586e-15)
(0.682522 0.230957 5.64006e-15)
(0.522029 0.180605 4.18924e-15)
(0.441251 0.105729 2.60072e-15)
(0.403561 0.0444058 1.23756e-15)
(0.396536 0.00469394 3.87189e-16)
(0.401344 -0.0166174 -1.7732e-16)
(0.408028 -0.0298073 -2.92299e-16)
(0.416502 -0.038567 -6.66394e-16)
(0.425987 -0.0440755 -6.38055e-16)
(0.434851 -0.0497391 -7.62305e-16)
(0.444523 -0.0533347 -6.67192e-16)
(0.454794 -0.055341 -7.67188e-16)
(0.465131 -0.0568158 -6.97395e-16)
(0.475296 -0.0562982 -7.70913e-16)
(0.485858 -0.0608917 -7.29153e-16)
(0.500133 -0.0627599 -6.53768e-16)
(0.513806 -0.0625949 -7.72993e-16)
(0.527142 -0.0633666 -7.30227e-16)
(0.540498 -0.0624399 -7.48725e-16)
(0.553908 -0.0614204 -7.33905e-16)
(0.567238 -0.061301 -7.15391e-16)
(0.580155 -0.0605454 -6.85102e-16)
(0.593361 -0.0608369 -6.91702e-16)
(0.606822 -0.0624459 -6.69392e-16)
(0.620553 -0.0605021 -6.26111e-16)
(0.634181 -0.0561989 -5.53629e-16)
(0.648418 -0.0540441 -5.24758e-16)
(0.661869 -0.0498519 -4.86904e-16)
(0.672354 -0.0416848 -4.29888e-16)
(0.682663 -0.0343476 -3.85653e-16)
(0.692898 -0.0286498 -3.1164e-16)
(0.700784 -0.0214423 -2.83195e-16)
(0.705983 -0.0140185 -2.33972e-16)
(0.710184 -0.00721733 -2.13397e-16)
(0.712483 -0.000418262 -1.64995e-16)
(0.711737 0.0082632 -1.39793e-16)
(0.716261 0.0190062 -1.11686e-16)
(0.713265 0.0294763 -8.85999e-17)
(0.715927 0.0414763 -7.64096e-17)
(0.707879 0.0495478 -5.55338e-17)
(0.704136 0.0592773 -5.67333e-17)
(0.691902 0.0672576 -3.96032e-17)
(0.684622 0.0766607 -5.45177e-17)
(0.668118 0.0857118 -2.39656e-17)
(0.654916 0.095438 -4.06746e-17)
(0.634487 0.10221 4.66955e-18)
(0.618301 0.114246 -4.17734e-17)
(0.596195 0.119452 -2.90367e-17)
(0.578708 0.130125 -1.88294e-16)
(0.554529 0.13386 -3.02786e-16)
(0.529262 0.141413 -4.83777e-16)
(0.498267 0.138394 -6.40594e-16)
(0.464651 0.140655 -7.38281e-16)
(0.429233 0.129401 -9.50753e-16)
(0.393932 0.121201 -1.07581e-15)
(0.360289 0.124259 -1.33967e-15)
(0.329352 0.131312 -1.50477e-15)
(0.303402 0.147203 -1.6707e-15)
(0.278693 0.160929 -2.13617e-15)
(0.250738 0.161145 -2.23366e-15)
(0.226015 0.174549 -2.47397e-15)
(0.194822 0.165661 -2.57152e-15)
(0.167688 0.14363 -2.60043e-15)
(0.148589 0.107852 -2.77777e-15)
(0.138632 0.0684575 -2.96092e-15)
(0.132592 0.0390177 -3.1334e-15)
(0.133436 0.00938051 -3.08831e-15)
(0.136681 0.00245627 -2.99501e-15)
(0.138883 0.00188958 -3.03962e-15)
(0.138531 -0.00200371 -2.98126e-15)
(0.137434 -0.00366167 -2.76723e-15)
(0.135307 -0.00200687 -2.6783e-15)
(0.132264 0.00242087 -2.577e-15)
(0.127652 0.00903114 -2.49624e-15)
(0.121126 0.0185853 -2.44554e-15)
(0.112139 0.0271001 -2.44055e-15)
(0.10055 0.0315239 -2.43569e-15)
(0.0900394 0.039052 -2.28869e-15)
(0.0873419 0.0566172 -2.17042e-15)
(0.0752347 0.066417 -1.97573e-15)
(0.0610937 0.0713965 -1.94042e-15)
(0.0502054 0.0817316 -1.62912e-15)
(0.0379663 0.0922969 -1.51438e-15)
(0.0335849 0.108137 -1.17421e-15)
(0.0223068 0.111812 -1.07337e-15)
(0.0193638 0.131336 -9.32935e-16)
(0.0133139 0.123528 -9.63089e-16)
(0.0160171 0.169048 -7.41079e-16)
(1.36189 0.000551249 -2.80984e-16)
(1.27594 -0.0082354 -8.39363e-16)
(1.45668 -0.00102744 -1.07104e-15)
(1.62695 0.0145099 -6.85281e-16)
(1.73219 0.00832535 -6.68438e-17)
(1.71794 0.00363188 1.60571e-16)
(1.60114 -0.00133495 1.48346e-16)
(1.51992 -0.0099942 -1.30908e-17)
(1.39458 -0.00442901 -2.1726e-16)
(1.27852 -0.00109161 -5.31857e-16)
(1.21782 -0.00430926 -6.17988e-16)
(1.32673 -0.0167992 -4.22977e-16)
(1.40472 0.00658422 -2.89941e-16)
(1.55255 -0.00216556 -5.59556e-17)
(1.64212 0.00408156 8.20412e-17)
(1.66841 0.00553795 1.53407e-16)
(1.59217 0.00238022 9.09091e-17)
(1.48515 -0.00446243 -2.54408e-18)
(1.38137 -0.00126056 -1.25366e-16)
(1.29773 0.00574648 -2.73162e-16)
(1.24716 -0.000501455 -3.48008e-16)
(1.34422 -0.00767307 -2.99196e-16)
(1.40506 -0.00935479 -2.47581e-16)
(1.48959 -0.00734124 -1.68038e-16)