/*--------------------------------*- C++ -*----------------------------------*\
| =========                 |                                                 |
| \\      /  F ield         | OpenFOAM: The Open Source CFD Toolbox           |
|  \\    /   O peration     | Version:  2.2.x                                 |
|   \\  /    A nd           | Web:      www.OpenFOAM.org                      |
|    \\/     M anipulation  |                                                 |
\*---------------------------------------------------------------------------*/
FoamFile
{
    version     2.0;
    format      ascii;
    class       volScalarField;
    location    "0.75";
    object      Ma;
}
// * * * * * * * * * * * * * * * * * * * * * * * * * * * * * * * * * * * * * //

dimensions      [0 0 0 0 0 0 0];

internalField   nonuniform List<scalar> 
14161
(
2.59904
2.59895
2.5991
2.59928
2.59956
2.59988
2.60031
2.60083
2.60145
2.60222
2.60311
2.60414
2.60533
2.6067
2.60824
2.60996
2.61187
2.61394
2.6162
2.61871
2.62115
2.62395
2.62689
2.62969
2.63267
2.63603
2.63899
2.64181
2.64523
2.64844
2.65095
2.65342
2.65675
2.65947
2.66137
2.66289
2.66482
2.66743
2.66882
2.66934
2.66929
2.66886
2.66848
2.66785
2.66667
2.66482
2.66123
2.65392
2.64801
2.63905
2.62959
2.61859
2.60354
2.57361
2.55754
1.77775
0.623983
0.480454
0.470161
0.491953
0.518342
0.563478
0.604001
0.646135
0.685901
0.723862
0.758196
0.791998
0.82513
0.857948
0.889657
0.91862
0.943461
0.962746
0.977131
0.985843
0.993847
0.999481
1.00299
0.991889
1.00185
1.0094
1.0167
1.02245
1.02212
1.03839
1.04541
1.04955
1.05212
1.07027
1.08415
1.09554
1.10713
1.10718
1.08189
0.930067
0.739256
0.592743
0.490559
0.425879
0.379802
0.344318
0.315221
0.290612
0.268776
0.248431
0.229436
0.211594
0.194087
0.176902
0.159768
0.142693
0.125316
0.107627
0.0892768
0.070472
0.051753
0.0330986
0.0200233
2.59904
2.59895
2.5991
2.59928
2.59956
2.59988
2.60031
2.60083
2.60146
2.60222
2.60311
2.60414
2.60533
2.6067
2.60824
2.60996
2.61187
2.61393
2.61622
2.61869
2.62115
2.62395
2.62689
2.6297
2.63271
2.636
2.63894
2.64183
2.64529
2.64842
2.65099
2.6535
2.6568
2.65938
2.66128
2.66303
2.6651
2.66741
2.66895
2.6697
2.67003
2.66975
2.66949
2.6687
2.66664
2.66362
2.66026
2.65822
2.6542
2.64607
2.63309
2.61513
2.59349
2.5563
2.53028
1.73379
0.619919
0.481497
0.472059
0.503082
0.534407
0.581307
0.621823
0.660854
0.700771
0.7368
0.774409
0.811024
0.842391
0.873632
0.902823
0.92895
0.952037
0.970203
0.984171
0.992682
1.00081
1.00595
1.00893
0.999117
1.00778
1.016
1.02335
1.02896
1.02856
1.04539
1.05242
1.05638
1.05872
1.07525
1.08562
1.09168
1.09918
1.07767
1.02315
0.885861
0.724725
0.599154
0.508577
0.441829
0.392325
0.353311
0.321082
0.2931
0.268042
0.24538
0.225025
0.206486
0.188648
0.171445
0.154392
0.137612
0.120963
0.104103
0.0876741
0.0708744
0.055615
0.0406656
0.0370286
2.59904
2.59895
2.5991
2.59928
2.59956
2.59988
2.60031
2.60083
2.60145
2.60221
2.60311
2.60414
2.60533
2.6067
2.60823
2.60995
2.61186
2.61393
2.6162
2.61867
2.62118
2.62395
2.62687
2.62969
2.63277
2.63595
2.63893
2.64189
2.64532
2.64837
2.65098
2.65368
2.65679
2.65932
2.66139
2.66351
2.66577
2.66763
2.66884
2.66971
2.67038
2.67072
2.67075
2.67024
2.66908
2.66794
2.66616
2.66336
2.65958
2.65278
2.641
2.62574
2.60959
2.57909
2.54228
1.82626
0.635386
0.494961
0.485099
0.530307
0.563199
0.612439
0.653663
0.691682
0.732479
0.766632
0.80269
0.836947
0.865998
0.898044
0.925545
0.950156
0.971243
0.987958
1.00132
1.00909
1.01663
1.02109
1.02352
1.01614
1.01941
1.03017
1.0373
1.04257
1.04282
1.05876
1.06466
1.06768
1.06796
1.07841
1.0872
1.07565
1.07463
1.0097
0.908718
0.773747
0.657557
0.562396
0.490434
0.430839
0.384825
0.347543
0.316124
0.28908
0.265176
0.243212
0.222894
0.203965
0.185774
0.168453
0.151843
0.135657
0.120373
0.104881
0.091113
0.0769918
0.0661682
0.0552104
0.0568985
2.59904
2.59895
2.5991
2.59928
2.59956
2.59988
2.60031
2.60083
2.60145
2.60221
2.60311
2.60413
2.60533
2.60669
2.60823
2.60995
2.61185
2.61393
2.61619
2.61862
2.62119
2.62397
2.62682
2.62969
2.63282
2.63591
2.63891
2.64204
2.64529
2.64824
2.65106
2.65397
2.65682
2.6592
2.66152
2.66419
2.6664
2.66803
2.66906
2.67011
2.67114
2.6727
2.67343
2.67346
2.67347
2.67296
2.67136
2.66887
2.66495
2.6618
2.65655
2.64669
2.63843
2.61963
2.5882
2.12325
0.693409
0.515126
0.512603
0.580904
0.619128
0.668282
0.707891
0.745142
0.787398
0.817124
0.854992
0.887319
0.909909
0.941997
0.967798
0.988813
1.00791
1.02187
1.03545
1.04158
1.04699
1.05023
1.0523
1.04663
1.0445
1.05742
1.06353
1.06802
1.06839
1.07957
1.08177
1.08028
1.07947
1.07607
1.08156
1.03355
1.00464
0.880577
0.76136
0.652168
0.577065
0.510133
0.455324
0.403582
0.363742
0.331213
0.303378
0.279066
0.257164
0.236904
0.218032
0.200317
0.183281
0.167157
0.151668
0.136522
0.123076
0.109246
0.0983189
0.0867524
0.0797215
0.0713637
0.0755473
2.59904
2.59895
2.59909
2.59928
2.59955
2.59988
2.6003
2.60083
2.60145
2.60221
2.6031
2.60413
2.60532
2.60668
2.60822
2.60994
2.61184
2.61392
2.61618
2.61857
2.62121
2.62397
2.6267
2.62972
2.63281
2.63583
2.63886
2.64221
2.64527
2.64809
2.65118
2.65434
2.65691
2.65916
2.66172
2.66492
2.66716
2.66888
2.66974
2.671
2.67256
2.67526
2.6768
2.67777
2.67851
2.67865
2.67782
2.67707
2.67574
2.67593
2.67572
2.67455
2.6749
2.67448
2.66244
2.64476
0.81445
0.540837
0.555872
0.653805
0.705593
0.750313
0.7877
0.821377
0.860857
0.879768
0.92417
0.943102
0.973083
0.995256
1.01967
1.03744
1.05565
1.06494
1.0796
1.08278
1.08592
1.08765
1.0886
1.08309
1.07826
1.08781
1.091
1.09215
1.09046
1.09672
1.0904
1.08485
1.08096
1.05
1.04036
0.951502
0.864062
0.733296
0.626149
0.563073
0.52158
0.476444
0.432648
0.385954
0.348903
0.31871
0.292812
0.270375
0.250024
0.231121
0.213768
0.197516
0.181735
0.166829
0.152963
0.139191
0.12783
0.115928
0.107842
0.0985208
0.0942806
0.0876603
0.0934075
2.59904
2.59895
2.59909
2.59928
2.59955
2.59988
2.6003
2.60083
2.60145
2.6022
2.6031
2.60412
2.60531
2.60667
2.60821
2.60991
2.6118
2.61391
2.61613
2.61854
2.62121
2.62391
2.62661
2.62972
2.63279
2.63571
2.63887
2.64229
2.64524
2.64801
2.65134
2.65464
2.65711
2.65927
2.66202
2.66553
2.66808
2.66961
2.67068
2.67192
2.6747
2.67771
2.68
2.68166
2.68325
2.68364
2.68408
2.68441
2.6879
2.69315
2.69918
2.7053
2.71407
2.72168
2.73613
2.67993
1.13467
0.581861
0.616849
0.750791
0.809733
0.844302
0.876494
0.901755
0.935959
0.941461
0.987591
0.992795
1.02927
1.04525
1.06056
1.08115
1.09784
1.10444
1.11848
1.11915
1.11986
1.11973
1.1189
1.11245
1.10458
1.109
1.10612
1.10287
1.09986
1.09915
1.07903
1.06049
1.04957
0.981946
0.92435
0.805459
0.69442
0.596797
0.542282
0.513177
0.482498
0.451492
0.411205
0.371723
0.337753
0.309675
0.285483
0.264261
0.244962
0.227396
0.211095
0.195732
0.181199
0.167671
0.155538
0.143219
0.134008
0.124015
0.118437
0.111046
0.10897
0.103674
0.110407
2.59904
2.59895
2.59909
2.59928
2.59955
2.59988
2.6003
2.60082
2.60144
2.6022
2.60307
2.60411
2.6053
2.60664
2.60818
2.60989
2.61178
2.61387
2.61608
2.6185
2.62118
2.62382
2.62655
2.62973
2.63273
2.63562
2.6389
2.64234
2.64518
2.64793
2.65153
2.65481
2.65719
2.65954
2.66254
2.66609
2.66862
2.67007
2.67166
2.67372
2.67771
2.68064
2.68335
2.68579
2.68773
2.6885
2.69026
2.69435
2.70097
2.71008
2.72165
2.73927
2.75709
2.79115
2.82215
2.8584
1.91913
0.71695
0.717258
0.846805
0.893748
0.917541
0.955669
0.959479
0.994284
0.98993
1.02883
1.03525
1.06164
1.08134
1.08573
1.11232
1.12631
1.13178
1.14471
1.14292
1.14035
1.13743
1.13421
1.12818
1.11753
1.11621
1.10899
1.09795
1.08955
1.07611
1.04292
0.995395
0.955705
0.847934
0.745577
0.644997
0.562681
0.520427
0.498556
0.481917
0.457936
0.431956
0.39587
0.361258
0.329833
0.303551
0.280655
0.260434
0.242027
0.225173
0.20978
0.195395
0.181946
0.169636
0.159161
0.148217
0.141003
0.132795
0.129387
0.123674
0.123351
0.119189
0.126506
2.59903
2.59895
2.59909
2.59927
2.59955
2.59987
2.60029
2.6008
2.60143
2.60217
2.60306
2.60408
2.60527
2.60662
2.60815
2.60984
2.61173
2.61381
2.61603
2.61845
2.62111
2.62374
2.62653
2.62968
2.63266
2.63556
2.63899
2.64226
2.64511
2.64803
2.65177
2.65474
2.65722
2.65999
2.66359
2.66673
2.66885
2.67048
2.67291
2.67699
2.68031
2.68351
2.68638
2.68923
2.69082
2.69407
2.6981
2.70605
2.71365
2.72454
2.73243
2.73938
2.7512
2.77021
2.79039
2.75223
2.1492
0.9757
0.836339
0.889067
0.931246
0.950687
1.00067
0.989334
1.03132
1.0253
1.05179
1.06599
1.07404
1.10489
1.11157
1.13423
1.14485
1.15228
1.16117
1.15659
1.14968
1.14397
1.1373
1.13333
1.11597
1.10776
1.0981
1.07161
1.05411
1.00793
0.953018
0.864593
0.783933
0.680293
0.587373
0.529612
0.500752
0.485732
0.475143
0.459178
0.440974
0.415513
0.384582
0.353201
0.324384
0.299584
0.277973
0.258743
0.241235
0.225276
0.210688
0.197078
0.184663
0.173441
0.164394
0.154654
0.149137
0.142434
0.140702
0.136283
0.137278
0.134075
0.141712
2.59901
2.59895
2.59909
2.59927
2.59953
2.59987
2.60029
2.60079
2.60142
2.60216
2.60304
2.60406
2.60525
2.60658
2.60811
2.60981
2.61168
2.61375
2.61597
2.6184
2.62101
2.62364
2.62652
2.62956
2.63255
2.63558
2.639
2.6421
2.64511
2.64837
2.65171
2.6545
2.65746
2.66098
2.66447
2.66703
2.66875
2.67114
2.67526
2.67935
2.6827
2.68581
2.68911
2.69083
2.69415
2.69938
2.70674
2.71332
2.71941
2.72713
2.73712
2.74635
2.7562
2.78055
2.80268
2.82505
1.83462
1.29218
0.997007
0.91546
0.936668
0.943348
0.997398
0.998025
1.02872
1.04807
1.05874
1.08702
1.07967
1.11974
1.13416
1.14328
1.15186
1.16147
1.16558
1.15937
1.15082
1.14131
1.12803
1.12502
1.0951
1.07426
1.05358
0.998459
0.954563
0.866637
0.790131
0.692751
0.606382
0.539691
0.500568
0.484494
0.475855
0.468797
0.458649
0.444699
0.427155
0.403106
0.375158
0.346424
0.320429
0.297405
0.276792
0.258103
0.241145
0.225799
0.211906
0.199089
0.187755
0.177674
0.170131
0.161654
0.15775
0.15242
0.152053
0.148679
0.150712
0.14834
0.156116
2.59901
2.59894
2.59908
2.59927
2.59952
2.59986
2.60028
2.60078
2.6014
2.60215
2.60303
2.60404
2.60521
2.60655
2.60806
2.60975
2.61162
2.61367
2.6159
2.61834
2.62085
2.62356
2.62647
2.6294
2.63235
2.63566
2.63889
2.64187
2.64508
2.64869
2.65162
2.65436
2.65774
2.66168
2.66496
2.66703
2.66911
2.67218
2.67714
2.68095
2.68417
2.6874
2.68947
2.69202
2.69551
2.70108
2.70853
2.71491
2.72335
2.73112
2.74138
2.74679
2.75596
2.77304
2.76647
2.78138
1.70449
1.23087
1.10327
0.944276
0.924343
0.933714
0.966417
0.997698
1.00658
1.05514
1.05136
1.09613
1.09431
1.1169
1.1356
1.14507
1.14858
1.1569
1.15394
1.14589
1.13416
1.11572
1.09397
1.08315
1.03049
0.982682
0.941725
0.855529
0.772876
0.685954
0.605362
0.538906
0.496641
0.477771
0.469562
0.465894
0.462609
0.456542
0.446334
0.434143
0.416131
0.393956
0.367718
0.341178
0.317567
0.296709
0.277729
0.26033
0.244306
0.229661
0.216322
0.204053
0.19344
0.184084
0.177526
0.169929
0.167148
0.162826
0.163402
0.160799
0.163627
0.161976
0.169742
2.59901
2.59894
2.59908
2.59926
2.59952
2.59985
2.60025
2.60077
2.60138
2.60211
2.60299
2.604
2.60518
2.6065
2.608
2.60969
2.61156
2.61358
2.61582
2.61826
2.6207
2.62347
2.62639
2.62919
2.63223
2.63566
2.63872
2.64169
2.64523
2.64867
2.65148
2.6544
2.65833
2.66198
2.66502
2.66696
2.66979
2.67409
2.67847
2.68197
2.68493
2.68786
2.68975
2.69271
2.69723
2.70303
2.7088
2.71422
2.72
2.72601
2.73162
2.73474
2.73893
2.73665
2.61737
2.48808
1.4001
1.25887
1.21678
1.09488
0.997229
0.963405
0.944734
1.0048
0.985244
1.05449
1.04138
1.07919
1.09507
1.10387
1.1255
1.12892
1.13203
1.13438
1.11829
1.10767
1.0814
1.05468
1.00826
0.971525
0.896713
0.818709
0.745389
0.663698
0.585451
0.526111
0.488921
0.470132
0.463612
0.46128
0.460528
0.458304
0.454755
0.447475
0.438732
0.425336
0.407932
0.386336
0.362193
0.337762
0.315529
0.295418
0.27722
0.260638
0.24545
0.231673
0.219211
0.207916
0.198442
0.190145
0.184809
0.17823
0.176577
0.1732
0.17453
0.17255
0.176021
0.175009
0.182636
2.599
2.59894
2.59908
2.59926
2.59951
2.59983
2.60024
2.60076
2.60137
2.6021
2.60297
2.60396
2.60513
2.60644
2.60793
2.6096
2.61147
2.61347
2.61572
2.6181
2.62057
2.62336
2.62622
2.62901
2.63223
2.63549
2.63852
2.64161
2.64534
2.64854
2.65142
2.65469
2.65877
2.66196
2.66476
2.66744
2.67086
2.6757
2.67921
2.68213
2.68494
2.68654
2.68944
2.69264
2.69849
2.70292
2.70732
2.71048
2.71452
2.71723
2.72033
2.72799
2.7341
2.73093
2.58151
1.86793
1.2195
1.22362
1.22028
1.16618
1.04028
0.990113
0.925372
0.978852
0.950308
1.031
1.01902
1.05367
1.07534
1.07699
1.09888
1.09335
1.09606
1.0774
1.04988
1.02735
0.967239
0.921982
0.850369
0.773438
0.700773
0.622207
0.557559
0.510446
0.476477
0.462177
0.458861
0.455369
0.45428
0.454707
0.454308
0.452634
0.44784
0.441621
0.432027
0.418676
0.401526
0.380637
0.358053
0.336078
0.316096
0.297762
0.280683
0.264934
0.250449
0.237218
0.225186
0.214394
0.205515
0.197801
0.193166
0.187268
0.18636
0.183692
0.185506
0.183958
0.187885
0.187442
0.194866
2.599
2.59893
2.59907
2.59925
2.5995
2.59982
2.60023
2.60073
2.60133
2.60207
2.60292
2.60392
2.60507
2.60638
2.60786
2.60952
2.61136
2.61338
2.61559
2.61791
2.62047
2.62321
2.62596
2.62891
2.63213
2.63521
2.63827
2.64179
2.6452
2.64824
2.65135
2.65521
2.65877
2.66185
2.66456
2.66781
2.67233
2.67611
2.67915
2.682
2.68395
2.68643
2.6894
2.69435
2.69841
2.70152
2.70506
2.70787
2.71125
2.7141
2.71885
2.73321
2.74491
2.74631
2.71792
1.43655
1.20584
1.20786
1.22234
1.21394
1.17571
1.09941
0.980377
0.969082
0.91762
0.9929
0.984328
1.01696
1.03683
1.03457
1.04192
1.02499
1.01055
0.968913
0.920287
0.866105
0.790549
0.719833
0.649663
0.578702
0.527004
0.486665
0.463693
0.457327
0.453237
0.449053
0.4517
0.455101
0.454725
0.454111
0.452652
0.449053
0.444314
0.437119
0.426857
0.413311
0.39652
0.376722
0.355402
0.334227
0.314873
0.297446
0.281369
0.266619
0.253092
0.24074
0.229607
0.219799
0.211868
0.205031
0.201298
0.196182
0.195998
0.193995
0.196192
0.194993
0.199257
0.199316
0.206443
2.59899
2.59893
2.59907
2.59925
2.5995
2.59981
2.60022
2.60071
2.60131
2.60203
2.60288
2.60387
2.60501
2.60631
2.60777
2.60942
2.61124
2.61326
2.61541
2.61774
2.62034
2.62297
2.6257
2.62882
2.63195
2.63485
2.6381
2.64177
2.645
2.648
2.65138
2.65534
2.65866
2.66154
2.66467
2.66853
2.67261
2.67598
2.67893
2.68137
2.68384
2.68668
2.69066
2.69412
2.69702
2.69991
2.70229
2.70482
2.70726
2.70914
2.71193
2.7161
2.72057
2.63018
2.42958
1.33429
1.20636
1.20333
1.21154
1.21143
1.21299
1.14669
1.07663
0.960561
0.899257
0.929308
0.919471
0.96989
0.962561
0.968171
0.930485
0.898733
0.863366
0.792457
0.729524
0.661284
0.594027
0.540789
0.49832
0.469644
0.456801
0.451595
0.445662
0.445149
0.451279
0.454145
0.454214
0.45588
0.454676
0.453768
0.450842
0.447017
0.441531
0.43383
0.423048
0.409405
0.392802
0.374061
0.354567
0.335698
0.317892
0.301454
0.286075
0.27192
0.258966
0.247031
0.236334
0.227017
0.219536
0.213231
0.210033
0.205471
0.205745
0.204218
0.206652
0.205678
0.210137
0.210644
0.217458
2.59899
2.59892
2.59906
2.59922
2.59947
2.5998
2.60019
2.60068
2.60128
2.60199
2.60283
2.60381
2.60494
2.60621
2.60768
2.60929
2.61109
2.61309
2.61522
2.61757
2.62012
2.62268
2.62552
2.62859
2.63162
2.6346
2.63804
2.64145
2.64471
2.64784
2.65159
2.65516
2.65842
2.66141
2.66472
2.66888
2.67232
2.67558
2.67854
2.6811
2.68397
2.68775
2.69073
2.69331
2.69567
2.69829
2.7006
2.70273
2.70401
2.70513
2.70526
2.70113
2.69011
2.56488
1.86951
1.19669
1.18499
1.18992
1.18857
1.18791
1.18917
1.15112
1.08626
0.969308
0.857116
0.850005
0.82107
0.889301
0.842642
0.816901
0.771159
0.717313
0.670335
0.598377
0.549052
0.506313
0.475394
0.459116
0.451577
0.448926
0.443169
0.447722
0.451467
0.453207
0.454193
0.457268
0.456844
0.458398
0.457135
0.455023
0.451612
0.447083
0.440186
0.43137
0.420134
0.406718
0.39059
0.372369
0.353279
0.335235
0.318455
0.303068
0.28865
0.275353
0.263199
0.251989
0.242117
0.233576
0.226751
0.221155
0.218598
0.214634
0.21534
0.214218
0.216849
0.216054
0.220613
0.221507
0.227964
2.59898
2.5989
2.59904
2.59921
2.59946
2.59977
2.60017
2.60066
2.60125
2.60196
2.60277
2.60375
2.60485
2.60613
2.60756
2.60916
2.61095
2.61288
2.61502
2.61737
2.61982
2.62244
2.62528
2.62823
2.63128
2.63435
2.63773
2.64102
2.64443
2.64774
2.65144
2.65487
2.65823
2.66135
2.6648
2.66863
2.67193
2.67512
2.67828
2.68117
2.68433
2.68783
2.69076
2.69347
2.69604
2.69857
2.70082
2.70278
2.70434
2.70583
2.71003
2.71324
2.71069
2.63035
1.46337
1.16018
1.16207
1.16743
1.16968
1.18262
1.18132
1.15261
1.07708
1.01332
0.793094
0.745426
0.698228
0.737378
0.676565
0.63448
0.592193
0.548223
0.513597
0.483665
0.46416
0.455428
0.448794
0.446863
0.442199
0.449929
0.452303
0.453541
0.455945
0.458869
0.459772
0.461974
0.460595
0.460636
0.458803
0.455871
0.45217
0.446977
0.439905
0.43062
0.418983
0.405296
0.389777
0.37317
0.355767
0.338922
0.322937
0.308205
0.294399
0.281588
0.26984
0.258952
0.249505
0.241321
0.234844
0.229742
0.227583
0.224058
0.225025
0.224148
0.226854
0.226175
0.230736
0.231964
0.238133
2.59897
2.59889
2.59903
2.5992
2.59945
2.59976
2.60016
2.60062
2.6012
2.6019
2.60271
2.60366
2.60477
2.60602
2.60743
2.60901
2.61077
2.61269
2.61482
2.61708
2.61953
2.62216
2.62489
2.62785
2.63095
2.63398
2.63726
2.64072
2.64414
2.64741
2.65101
2.65468
2.65817
2.66123
2.66446
2.66796
2.67153
2.67485
2.67816
2.68119
2.68402
2.68721
2.69081
2.69395
2.69682
2.69936
2.70166
2.7043
2.70617
2.70786
2.7085
2.70841
2.64766
2.49334
1.31503
1.16237
1.15379
1.15082
1.14868
1.15549
1.14891
1.11671
1.00601
0.903571
0.674028
0.603925
0.560996
0.555918
0.514782
0.497842
0.476899
0.463711
0.457936
0.45247
0.450117
0.444578
0.449081
0.454446
0.455549
0.456292
0.460047
0.462333
0.463626
0.465328
0.465136
0.466011
0.464828
0.463712
0.461509
0.458036
0.453765
0.448009
0.440762
0.431429
0.419933
0.406208
0.390557
0.373779
0.356798
0.340914
0.32585
0.311931
0.298906
0.286738
0.275628
0.265328
0.256534
0.248844
0.24286
0.238344
0.236591
0.23348
0.234624
0.233941
0.236683
0.236135
0.240642
0.242127
0.247937
2.59895
2.59889
2.59902
2.59919
2.59944
2.59974
2.60012
2.60059
2.60116
2.60185
2.60264
2.60358
2.60466
2.6059
2.60728
2.60883
2.61056
2.61246
2.61454
2.61678
2.61922
2.6218
2.62448
2.62743
2.63053
2.63348
2.63676
2.64032
2.64365
2.64684
2.65052
2.65448
2.65796
2.66073
2.66377
2.6673
2.67127
2.67469
2.67785
2.68082
2.68327
2.68627
2.69001
2.69347
2.69645
2.69895
2.70119
2.70285
2.70412
2.70359
2.69858
2.69401
2.56535
2.09168
1.22552
1.15537
1.14798
1.13971
1.13175
1.12744
1.09645
1.05457
0.878813
0.73844
0.536102
0.46933
0.450836
0.446501
0.443159
0.442249
0.44554
0.442021
0.445912
0.448515
0.454589
0.458783
0.45684
0.461207
0.462333
0.466397
0.467788
0.470451
0.471451
0.472925
0.472219
0.472059
0.470474
0.468413
0.465345
0.461452
0.456776
0.450906
0.443432
0.434104
0.422683
0.409577
0.394474
0.37832
0.361745
0.346127
0.331506
0.318008
0.305437
0.293596
0.282851
0.272894
0.264505
0.257093
0.251455
0.247379
0.245823
0.243006
0.244207
0.243637
0.24639
0.245925
0.250331
0.251988
0.257477
2.59894
2.59888
2.59901
2.59918
2.5994
2.5997
2.6001
2.60055
2.60112
2.60179
2.60257
2.60348
2.60455
2.60574
2.60711
2.60864
2.61035
2.61221
2.61424
2.61645
2.61883
2.62137
2.62407
2.62693
2.62994
2.63305
2.63621
2.63967
2.64305
2.64632
2.65006
2.65391
2.65739
2.66026
2.66342
2.66699
2.6708
2.67412
2.67725
2.68025
2.68276
2.68541
2.6884
2.69222
2.69532
2.69784
2.70036
2.7023
2.70407
2.70677
2.70621
2.70573
2.54597
1.62333
1.1301
1.13489
1.13675
1.1303
1.11821
1.09359
1.01472
0.938172
0.70828
0.545029
0.424858
0.398232
0.409374
0.417077
0.425201
0.431846
0.439203
0.446424
0.453114
0.45802
0.461594
0.467164
0.469957
0.472471
0.474343
0.476916
0.47842
0.480138
0.479985
0.480489
0.479031
0.477815
0.476213
0.473789
0.47044
0.466165
0.460956
0.454544
0.446668
0.437147
0.425828
0.412823
0.398212
0.382625
0.366678
0.351497
0.337337
0.324198
0.312036
0.300498
0.290165
0.280589
0.272639
0.265521
0.260264
0.2566
0.255128
0.252525
0.253733
0.253196
0.255956
0.255609
0.259914
0.261641
0.266681
2.59893
2.59887
2.599
2.59915
2.59939
2.59969
2.60006
2.60052
2.60107
2.60172
2.60249
2.60339
2.60442
2.6056
2.60693
2.60842
2.61008
2.61192
2.61392
2.61608
2.61841
2.62091
2.62361
2.62635
2.62933
2.63249
2.63558
2.63886
2.64235
2.64571
2.6493
2.65299
2.65655
2.65984
2.66303
2.66646
2.6701
2.67345
2.67666
2.67966
2.68249
2.68488
2.68775
2.69072
2.69429
2.69736
2.70064
2.70427
2.709
2.71504
2.72242
2.67984
2.54763
1.31237
1.13191
1.12666
1.12471
1.11499
1.09357
1.04365
0.894735
0.769345
0.538404
0.419853
0.381063
0.392878
0.402362
0.417001
0.428763
0.438859
0.447155
0.45321
0.460068
0.466651
0.472015
0.477506
0.481483
0.484668
0.48634
0.48725
0.48783
0.48912
0.488667
0.489474
0.4881
0.486562
0.484344
0.481339
0.477182
0.472141
0.466306
0.459582
0.451612
0.442051
0.430766
0.417849
0.403521
0.388351
0.372961
0.358214
0.344441
0.331551
0.319706
0.30838
0.298365
0.289078
0.28147
0.274547
0.2696
0.266206
0.264627
0.262127
0.263261
0.26267
0.265403
0.265177
0.269322
0.271033
0.27567
2.59892
2.59885
2.59897
2.59914
2.59938
2.59965
2.60001
2.60047
2.60101
2.60163
2.6024
2.60328
2.60429
2.60543
2.60674
2.60818
2.60982
2.61158
2.61353
2.61566
2.61794
2.62038
2.62303
2.62573
2.62863
2.63168
2.63484
2.63815
2.64145
2.64478
2.64835
2.65207
2.65571
2.65903
2.66248
2.66606
2.66965
2.67282
2.67579
2.6787
2.68149
2.68416
2.68691
2.68968
2.69241
2.69471
2.69657
2.69703
2.69681
2.69376
2.69095
2.56381
2.1358
1.21868
1.13834
1.12898
1.11686
1.08732
1.03022
0.945713
0.731934
0.562084
0.426675
0.38261
0.394943
0.406281
0.422373
0.433902
0.444
0.453026
0.461189
0.467493
0.472705
0.477929
0.48248
0.486931
0.491124
0.495343
0.49775
0.499548
0.499917
0.500848
0.500011
0.499698
0.49795
0.494773
0.492025
0.488572
0.484323
0.479166
0.47299
0.465758
0.457295
0.447452
0.436143
0.423411
0.409477
0.394764
0.379919
0.365597
0.352239
0.339548
0.32796
0.316805
0.307057
0.297958
0.29061
0.283761
0.279082
0.275839
0.274092
0.271738
0.272817
0.272113
0.274752
0.274649
0.278624
0.280317
0.284642
2.59891
2.59884
2.59896
2.59913
2.59934
2.59963
2.59998
2.60041
2.60094
2.60156
2.60229
2.60315
2.60413
2.60525
2.60651
2.60793
2.60949
2.61122
2.61312
2.61519
2.61741
2.6198
2.62243
2.62502
2.6278
2.63083
2.63406
2.63731
2.64025
2.64356
2.64745
2.65104
2.65457
2.65797
2.66167
2.66559
2.66902
2.6719
2.67477
2.67759
2.68057
2.68333
2.68594
2.68841
2.69072
2.69309
2.69573
2.69808
2.70079
2.70127
2.70096
2.53569
1.62545
1.11692
1.11824
1.11219
1.09238
1.03933
0.910184
0.784878
0.556803
0.43241
0.386288
0.396493
0.409625
0.426123
0.439274
0.450432
0.460021
0.468155
0.47516
0.480901
0.485044
0.488713
0.492464
0.496432
0.500551
0.505425
0.508148
0.511055
0.511527
0.511674
0.510417
0.509683
0.508877
0.506234
0.503103
0.499287
0.494512
0.488706
0.481888
0.473987
0.464927
0.454579
0.442848
0.429842
0.415801
0.401171
0.386611
0.37258
0.359557
0.347043
0.335725
0.324821
0.315419
0.306566
0.299571
0.292897
0.28859
0.285461
0.283571
0.281382
0.282385
0.281514
0.283994
0.28403
0.287882
0.289599
0.293663
2.59888
2.59883
2.59895
2.59909
2.59932
2.59958
2.59994
2.60036
2.60086
2.60148
2.60219
2.60301
2.60396
2.60506
2.60627
2.60764
2.60917
2.61084
2.61266
2.61466
2.61681
2.61918
2.62171
2.62416
2.62689
2.63001
2.63313
2.63612
2.63898
2.64234
2.64625
2.6498
2.65325
2.6569
2.6609
2.66447
2.66769
2.67099
2.67435
2.67741
2.6803
2.68268
2.68558
2.68964
2.69316
2.69705
2.70121
2.70722
2.71651
2.72608
2.67657
2.5336
1.3019
1.12217
1.10988
1.0896
1.04816
0.956449
0.755747
0.583091
0.441926
0.393398
0.403131
0.414718
0.43172
0.445178
0.456728
0.466576
0.475231
0.482658
0.48882
0.49374
0.497463
0.500191
0.503048
0.506276
0.509626
0.513996
0.51706
0.520907
0.521743
0.5229
0.522189
0.521352
0.520114
0.517368
0.513269
0.508603
0.503336
0.497158
0.490074
0.481932
0.472577
0.461984
0.450178
0.437258
0.423348
0.408873
0.394599
0.380727
0.367903
0.355511
0.344403
0.333686
0.324582
0.315902
0.309187
0.302576
0.298536
0.295312
0.29315
0.290974
0.291856
0.290912
0.293324
0.29348
0.297182
0.29891
0.302658
2.59887
2.59881
2.59892
2.59908
2.59928
2.59956
2.59988
2.6003
2.60079
2.60138
2.60206
2.60286
2.60378
2.60483
2.60601
2.60733
2.60878
2.61039
2.61217
2.61407
2.61616
2.61846
2.62085
2.6232
2.62596
2.62902
2.63198
2.63484
2.63762
2.64081
2.64471
2.64832
2.65208
2.65594
2.65953
2.6624
2.66588
2.67057
2.67418
2.67711
2.67949
2.68151
2.68448
2.68985
2.69323
2.69576
2.69697
2.69652
2.69317
2.68274
2.54825
1.9472
1.17532
1.11707
1.09887
1.03686
0.949507
0.79796
0.584019
0.449487
0.399365
0.406654
0.42169
0.437303
0.451371
0.462968
0.472762
0.481283
0.488927
0.495729
0.501324
0.505723
0.50913
0.511824
0.514081
0.516753
0.51938
0.523125
0.526081
0.53015
0.531013
0.532588
0.532268
0.531626
0.530779
0.528754
0.525083
0.520402
0.515008
0.5086
0.501171
0.49262
0.482857
0.471879
0.45967
0.4464
0.432179
0.417523
0.403203
0.389339
0.376592
0.364272
0.353351
0.34279
0.333957
0.325383
0.318932
0.312369
0.308568
0.305134
0.302777
0.300601
0.301379
0.300364
0.302619
0.302777
0.306255
0.308021
0.311588
2.59886
2.59879
2.5989
2.59904
2.59926
2.59951
2.59983
2.60023
2.60071
2.60127
2.60193
2.6027
2.60358
2.60459
2.60572
2.60698
2.60837
2.60994
2.61162
2.61342
2.61543
2.61764
2.61989
2.62214
2.62494
2.62779
2.63065
2.63344
2.63597
2.63898
2.64309
2.64695
2.65079
2.65435
2.65722
2.6604
2.66455
2.66943
2.67311
2.67638
2.67891
2.68167
2.68553
2.69117
2.69504
2.69998
2.70548
2.71215
2.72175
2.71647
2.62305
1.43247
1.12349
1.08884
1.05897
0.951842
0.775918
0.59946
0.452849
0.402901
0.409671
0.425595
0.441465
0.456101
0.468386
0.478501
0.487067
0.494561
0.501417
0.50758
0.512727
0.51689
0.520199
0.523046
0.525233
0.527588
0.529403
0.532486
0.534807
0.538443
0.539653
0.542182
0.541764
0.542426
0.541663
0.539716
0.536106
0.531209
0.525457
0.518638
0.510865
0.502086
0.49225
0.481216
0.468932
0.455591
0.441244
0.426552
0.412232
0.398337
0.385609
0.373327
0.36258
0.352145
0.343532
0.335042
0.328809
0.322325
0.318719
0.315025
0.312421
0.310174
0.31078
0.309633
0.311717
0.311995
0.315409
0.317291
0.320593
2.59883
2.59877
2.59889
2.59902
2.59922
2.59946
2.59977
2.60017
2.60061
2.60115
2.6018
2.60252
2.60336
2.60432
2.60539
2.60661
2.60794
2.60944
2.61099
2.6127
2.61464
2.61674
2.61877
2.62094
2.62374
2.62643
2.62919
2.6317
2.63406
2.63705
2.6415
2.64525
2.64882
2.65232
2.6551
2.65863
2.66295
2.66738
2.67132
2.67542
2.68013
2.68447
2.68834
2.69262
2.69596
2.69841
2.69964
2.69957
2.69814
2.58329
2.38513
1.23508
1.09645
1.05249
0.961128
0.812465
0.600017
0.461782
0.412274
0.414254
0.434228
0.449335
0.464081
0.476167
0.485995
0.494066
0.501131
0.507394
0.513128
0.518386
0.52304
0.52693
0.530355
0.533461
0.535965
0.538399
0.539801
0.542351
0.543937
0.547034
0.54842
0.55108
0.550148
0.551355
0.551114
0.550025
0.546965
0.542274
0.536892
0.530334
0.522508
0.513588
0.503599
0.492384
0.479919
0.466366
0.451763
0.436778
0.422082
0.408086
0.395138
0.382899
0.372187
0.361827
0.353341
0.34487
0.338747
0.332298
0.328806
0.324816
0.32204
0.31973
0.32023
0.319064
0.321027
0.32144
0.324625
0.326362
0.329265
2.59882
2.59876
2.59886
2.59899
2.59917
2.59941
2.59971
2.60008
2.60053
2.60103
2.60164
2.60234
2.60313
2.60405
2.60506
2.6062
2.60746
2.60889
2.61029
2.61193
2.61379
2.61573
2.61753
2.61965
2.62237
2.62491
2.62747
2.62967
2.63202
2.63507
2.63936
2.6429
2.64642
2.64991
2.6532
2.65634
2.66017
2.66479
2.66907
2.67366
2.67885
2.68378
2.68754
2.68953
2.69295
2.69545
2.70094
2.70141
2.69866
2.50466
1.79574
1.06586
1.03815
0.932695
0.819966
0.603456
0.467186
0.418707
0.416486
0.439504
0.453865
0.47015
0.482955
0.493346
0.501614
0.508543
0.514537
0.520263
0.525146
0.529536
0.533392
0.536861
0.5402
0.543497
0.546301
0.548922
0.550426
0.552525
0.553279
0.555723
0.556825
0.559386
0.559027
0.560538
0.56011
0.559837
0.557208
0.552913
0.547942
0.541438
0.533635
0.52469
0.514487
0.503121
0.490584
0.476935
0.46224
0.447048
0.431973
0.418129
0.404917
0.392995
0.382025
0.371799
0.363306
0.354861
0.348865
0.342433
0.339009
0.334737
0.331696
0.329293
0.329635
0.328391
0.33012
0.330645
0.33368
0.335467
0.338198
2.5988
2.59873
2.59884
2.59897
2.59915
2.59938
2.59965
2.6
2.60042
2.60091
2.60149
2.60214
2.60288
2.60372
2.60468
2.60574
2.60696
2.60824
2.60955
2.61113
2.61284
2.61457
2.6162
2.61827
2.6208
2.62314
2.62551
2.62764
2.62979
2.63267
2.63669
2.64017
2.6437
2.64723
2.65046
2.6532
2.65698
2.66284
2.66813
2.67362
2.67924
2.68497
2.69051
2.69514
2.70223
2.71312
2.72796
2.74031
2.6725
2.61537
1.28941
1.06258
0.990194
0.806994
0.63912
0.482232
0.425585
0.430777
0.448298
0.463643
0.478323
0.490872
0.501374
0.509934
0.516713
0.522334
0.527279
0.532178
0.536658
0.540608
0.543894
0.547017
0.550192
0.553564
0.556723
0.559472
0.56106
0.562793
0.562988
0.56464
0.565291
0.567519
0.56775
0.569537
0.568458
0.568985
0.567163
0.564055
0.559501
0.553061
0.545507
0.536705
0.526575
0.515221
0.502659
0.488926
0.474102
0.458551
0.442944
0.428774
0.415323
0.403605
0.392288
0.3823
0.373439
0.365055
0.359083
0.352656
0.349221
0.344653
0.34126
0.338766
0.338977
0.337788
0.339461
0.340206
0.343018
0.344647
0.346736
2.59877
2.59871
2.5988
2.59892
2.5991
2.59932
2.59959
2.59992
2.60031
2.60077
2.60131
2.60192
2.60262
2.60341
2.60429
2.60527
2.60639
2.60753
2.60872
2.61023
2.61178
2.61329
2.61479
2.61673
2.61896
2.6211
2.62328
2.62546
2.62727
2.6298
2.63359
2.63701
2.64043
2.64375
2.6468
2.64965
2.65354
2.65957
2.66474
2.66954
2.67367
2.67723
2.67824
2.68151
2.68465
2.68945
2.69073
2.68234
2.50692
1.89262
1.04881
0.97643
0.815039
0.632279
0.485461
0.424951
0.429649
0.450832
0.468837
0.484427
0.497388
0.508145
0.517261
0.525084
0.531458
0.536499
0.540746
0.544679
0.548413
0.552336
0.554959
0.558168
0.560422
0.56388
0.567086
0.569961
0.571769
0.573314
0.573341
0.574425
0.574426
0.576169
0.576826
0.578886
0.577406
0.578331
0.576768
0.574883
0.570577
0.564281
0.557172
0.548591
0.538588
0.527272
0.514676
0.500823
0.48586
0.470001
0.45378
0.439324
0.425659
0.414063
0.402641
0.393039
0.38363
0.375533
0.369307
0.362888
0.359361
0.35462
0.351011
0.34845
0.348516
0.347311
0.348734
0.349438
0.351815
0.353464
0.355401
2.59875
2.5987
2.59878
2.5989
2.59905
2.59926
2.59952
2.59982
2.60019
2.60061
2.60113
2.60168
2.60234
2.60306
2.60387
2.60477
2.60579
2.60676
2.60786
2.60925
2.61059
2.61194
2.61328
2.61498
2.6169
2.61886
2.62078
2.62289
2.62447
2.62673
2.62995
2.63311
2.63628
2.63941
2.64265
2.64601
2.65028
2.65564
2.66062
2.66612
2.67233
2.67845
2.68383
2.69068