/*--------------------------------*- C++ -*----------------------------------*\
| =========                 |                                                 |
| \\      /  F ield         | OpenFOAM: The Open Source CFD Toolbox           |
|  \\    /   O peration     | Version:  2.2.x                                 |
|   \\  /    A nd           | Web:      www.OpenFOAM.org                      |
|    \\/     M anipulation  |                                                 |
\*---------------------------------------------------------------------------*/
FoamFile
{
    version     2.0;
    format      ascii;
    class       volScalarField;
    location    "0.75";
    object      pB;
}
// * * * * * * * * * * * * * * * * * * * * * * * * * * * * * * * * * * * * * //

dimensions      [1 1 -3 0 0 -1 0];

internalField   nonuniform List<scalar> 
14161
(
-8.98926e-05
1.00664e-05
-1.95609e-05
-1.93833e-05
-2.90203e-05
-3.5278e-05
-4.56648e-05
-5.54602e-05
-6.86052e-05
-8.20729e-05
-9.90954e-05
-0.000116683
-0.000137435
-0.000159064
-0.00018411
-0.000209524
-0.000239125
-0.000266659
-0.000300175
-0.000330632
-0.000360694
-0.000399165
-0.000432446
-0.000455378
-0.000488848
-0.000531036
-0.000538672
-0.000549395
-0.000591038
-0.000608014
-0.000597709
-0.000592116
-0.00061102
-0.000611426
-0.000567183
-0.000533653
-0.000522333
-0.000502832
-0.000434954
-0.000334997
-0.000240468
-8.68919e-05
7.79866e-05
0.00018735
0.000377976
0.000537355
0.000883427
0.00158018
0.00251964
0.00334461
0.00422159
0.00480066
0.00582048
0.00764543
0.00810937
0.00486694
-0.0123231
-4.11807e-05
0.000413544
0.0121517
0.00321677
0.00492965
0.00494748
0.00427101
0.00399236
0.00400406
0.00195331
0.00242872
0.000934509
0.000691446
-8.57237e-05
1.17848e-05
-0.000833291
-0.000857512
-0.0013388
-0.00130891
-0.00181576
-0.00136807
-0.00180874
-0.00220325
-0.00131782
-0.00261098
-0.00241923
-0.0028461
-0.00297858
-0.00292522
-0.0034209
-0.00314529
-0.00436337
-0.00276699
-0.0062965
-0.00588496
-0.0080589
-0.0117443
-0.0156801
-0.0218177
-0.0184345
-0.0123017
-0.0110124
-0.00808552
-0.0064096
-0.00417133
-0.00331777
-0.00196262
-0.00163089
-0.000855077
-0.00089808
-0.000157957
-0.000543896
0.000473091
-0.000412916
0.000716937
-0.000681842
0.00119246
-0.0030221
0.00419708
-0.0149107
0.0166393
-0.0472474
-9.02178e-05
1.01242e-05
-1.96162e-05
-1.94082e-05
-2.90427e-05
-3.5415e-05
-4.56519e-05
-5.54947e-05
-6.89206e-05
-8.25796e-05
-9.91899e-05
-0.000116642
-0.000137635
-0.00015936
-0.000184677
-0.000210768
-0.000239025
-0.000267416
-0.00030123
-0.000330066
-0.000361819
-0.000399149
-0.000430397
-0.000457611
-0.000493016
-0.000525132
-0.000537276
-0.000555929
-0.000588853
-0.000606416
-0.000598574
-0.000596616
-0.000610596
-0.00060196
-0.000572958
-0.000547707
-0.000525646
-0.000492926
-0.000449957
-0.000363993
-0.000279074
-0.000171689
-5.41305e-06
0.000107
0.000379934
0.000783281
0.00119828
0.00163738
0.00200383
0.00275155
0.00377294
0.00533505
0.00707403
0.00982991
0.0110328
0.0157668
-0.0247433
0.0131369
-0.0059409
0.0111814
0.00212743
0.00276094
0.00186311
0.000305876
-0.000960761
-0.000623702
-0.0024101
-0.00161549
-0.00222951
-0.00210407
-0.00258969
-0.0026235
-0.00307769
-0.00308285
-0.00339203
-0.00316651
-0.00338343
-0.00252361
-0.00341104
-0.00253341
-0.00271057
-0.00344533
-0.00315749
-0.00375152
-0.00369252
-0.00427918
-0.00412822
-0.00428951
-0.00495651
-0.00445173
-0.00715945
-0.00495404
-0.00734882
-0.00652011
-0.00869091
-0.0105359
-0.00534131
0.00484909
0.00716367
0.00643876
0.00473691
0.00377747
0.00237745
0.00174622
0.000610307
0.000549598
0.000122443
0.000657691
0.000168453
0.00113187
0.000183104
0.00126853
-0.000210208
0.00191152
-0.00262678
0.00476039
-0.0142362
0.0162827
-0.0453187
-8.99017e-05
1.01128e-05
-1.95937e-05
-1.9382e-05
-2.8966e-05
-3.53102e-05
-4.56848e-05
-5.56013e-05
-6.86419e-05
-8.20267e-05
-9.8905e-05
-0.000116498
-0.00013744
-0.000159097
-0.000183963
-0.000209813
-0.000238447
-0.000267226
-0.000300038
-0.000329939
-0.000362548
-0.00039788
-0.000429737
-0.000458827
-0.000494326
-0.000523344
-0.000537418
-0.000560703
-0.00059023
-0.000603277
-0.000599835
-0.000603078
-0.000611686
-0.00060454
-0.000586805
-0.000567115
-0.000547754
-0.000516094
-0.000468606
-0.000405458
-0.000326927
-0.000248733
-0.000122926
1.54407e-07
0.000212835
0.000376276
0.00051345
0.000765114
0.00118284
0.00172378
0.00266824
0.00368177
0.00475327
0.00673012
0.00509391
0.0198485
-0.02903
0.0185734
0.00237817
0.00573994
0.00707411
0.00555909
0.0059713
0.00554239
0.00384808
0.00373817
0.00139461
0.0013162
-0.000404082
0.000167763
-0.00119712
-0.00100094
-0.00144549
-0.00126894
-0.00129934
-0.00164929
-0.00167089
-0.00113538
-0.00224918
-0.0015074
-0.00222899
-0.00260843
-0.00267536
-0.00291377
-0.00323812
-0.00330296
-0.00397101
-0.00370294
-0.00607577
-0.00282704
-0.00543768
-0.00591331
-0.00701847
-0.00841917
-0.0139013
-0.00446768
-0.0108316
-0.005222
-0.00720134
-0.0056316
-0.00456176
-0.00277912
-0.00219227
-0.00114474
-0.000812054
-0.000112875
-0.000300372
0.000286232
-0.000159252
0.000745978
-8.0217e-05
0.0011113
-0.000313223
0.0018765
-0.00274475
0.00465584
-0.0138417
0.0155781
-0.0439714
-8.98531e-05
1.00128e-05
-1.96386e-05
-1.93929e-05
-2.90203e-05
-3.53001e-05
-4.56195e-05
-5.53804e-05
-6.87027e-05
-8.20486e-05
-9.89964e-05
-0.000116484
-0.000137336
-0.000159205
-0.000183986
-0.000210046
-0.000238154
-0.000268196
-0.000298719
-0.000330172
-0.000364062
-0.000397381
-0.000429083
-0.000461544
-0.000495072
-0.000520679
-0.000542721
-0.000568704
-0.000585565
-0.000600375
-0.000604199
-0.000616369
-0.000615156
-0.000607986
-0.000600895
-0.000598374
-0.000573027
-0.00053218
-0.000486929
-0.000444783
-0.000385171
-0.000311999
-0.000252161
-0.000154844
-5.99477e-05
9.40549e-05
0.000301377
0.000594217
0.00094515
0.00149615
0.00191238
0.00284407
0.00301793
0.00550164
0.00223192
0.0250437
-0.0225153
0.0194063
0.00364627
0.005304
0.00436469
0.00621968
0.000880438
0.00260833
0.000316804
0.000887776
-0.000107063
0.00074166
0.000440793
-0.000268836
-0.000869928
-0.00112578
-0.00139257
-0.00194916
-0.00132793
-0.0022879
-0.00200844
-0.00144342
-0.00307199
-0.000447053
-0.00353757
-0.00211358
-0.00261526
-0.00325765
-0.00304659
-0.00513223
-0.00349075
-0.00340584
-0.00302569
-0.00506389
-0.00574126
-0.00696159
-0.00344883
-0.0111143
-0.00249102
-0.00893637
0.00093286
0.00108691
-0.00131045
-0.00170946
-0.00180204
-0.00107459
-0.00100837
-0.00045368
-0.000464059
6.60697e-06
-0.000172176
0.000378842
-5.78885e-05
0.000851215
-0.000110787
0.00111537
-0.000568031
0.00182987
-0.00297096
0.00430796
-0.0133581
0.0146699
-0.0422674
-8.95948e-05
9.98577e-06
-1.95713e-05
-1.93583e-05
-2.89368e-05
-3.52517e-05
-4.55379e-05
-5.54103e-05
-6.86712e-05
-8.18553e-05
-9.88494e-05
-0.000116118
-0.0001373
-0.000158807
-0.00018404
-0.000209475
-0.000238005
-0.00026797
-0.000297868
-0.000329709
-0.000365655
-0.000395423
-0.000427763
-0.000463852
-0.000493977
-0.00051688
-0.000545222
-0.000575085
-0.000585762
-0.000596789
-0.000613892
-0.000633073
-0.000621503
-0.00060977
-0.000619096
-0.00062582
-0.000603443
-0.000573269
-0.000536413
-0.000515241
-0.000514483
-0.000511731
-0.000505412
-0.00047677
-0.000454014
-0.000393294
-0.000318154
-0.000196575
-5.96804e-05
4.86498e-05
0.000145427
0.000404673
0.000387874
0.00128646
-0.000710487
0.0132189
0.00840375
0.00788863
0.0120452
0.00401979
0.00592388
0.00487972
6.40514e-05
0.00173249
0.000814169
0.000682753
0.000410159
-0.000747037
-0.000161084
-0.0010735
-0.000445899
-0.00126859
-0.00131421
-0.00193872
-0.00166333
-0.00190464
-0.00245635
-0.00222515
-0.00275805
-0.00104261
-0.00351262
-0.00275594
-0.00341249
-0.00348211
-0.0030163
-0.0024735
-0.00295684
-0.00426309
-0.0062698
-0.00540147
-0.00409029
-0.00600945
-0.00667315
-0.00413396
-0.00844872
-0.00293026
-0.00485587
8.56307e-05
-0.00338373
-0.00112341
-0.00193791
-0.00106639
-0.000988842
-0.000455635
-0.00044276
-5.90701e-05
-0.000191632
0.000374976
-4.50504e-05
0.000828977
-0.00014017
0.00115851
-0.000605984
0.00198754
-0.00297663
0.00428022
-0.0126386
0.013692
-0.0401969
-8.93246e-05
9.9105e-06
-1.95139e-05
-1.93075e-05
-2.89294e-05
-3.52197e-05
-4.54729e-05
-5.5295e-05
-6.84038e-05
-8.1744e-05
-9.87977e-05
-0.000115936
-0.000137115
-0.000158484
-0.000183845
-0.000208986
-0.000238276
-0.000267589
-0.000297239
-0.000330378
-0.00036548
-0.000393953
-0.000426884
-0.00046717
-0.000494395
-0.000514378
-0.000548927
-0.000582523
-0.000588788
-0.000592233
-0.000625833
-0.000650889
-0.000626998
-0.000612221
-0.000647855
-0.000680673
-0.00066164
-0.000622518
-0.000585925
-0.0005891
-0.000618302
-0.000649867
-0.000673253
-0.000669593
-0.000684658
-0.0006257
-0.000591391
-0.000521624
-0.000528046
-0.000775627
-0.00111335
-0.0015315
-0.000935814
-0.00162571
0.0037211
-0.0116012
0.0365735
-0.00600633
0.0169271
0.00135021
0.00658332
0.00128123
0.00260844
0.000790879
0.00116091
-0.00201738
0.000517106
-0.00162124
-0.000668145
-0.00180122
-0.00126228
-0.00211411
-0.0018796
-0.00242113
-0.00143334
-0.0018654
-0.00214291
-0.00180991
-0.00223957
-0.00038968
-0.00202407
-0.00186478
-0.00164216
-0.00174176
-0.00212297
-0.00453043
-0.00531255
-0.00400399
-0.00224846
-0.00388663
-0.00408059
-0.00564571
-0.00381327
-0.00440961
-0.00305813
-0.00388171
0.00159772
-0.00259667
0.000409896
-0.00136786
-0.000969007
-0.000658825
-0.000641839
-0.000239598
-0.000277405
0.000129549
-2.9874e-05
0.00045631
1.56288e-05
0.000830866
-0.000217575
0.00108669
-0.000865966
0.00186131
-0.00318461
0.00405864
-0.0119987
0.0129359
-0.0382359
-8.90169e-05
9.78963e-06
-1.94817e-05
-1.93194e-05
-2.88609e-05
-3.50915e-05
-4.53543e-05
-5.51647e-05
-6.82987e-05
-8.16278e-05
-9.85379e-05
-0.000115594
-0.000136781
-0.000158168
-0.000183584
-0.0002085
-0.000237841
-0.000266936
-0.000296746
-0.000330797
-0.000364634
-0.00039183
-0.000428024
-0.000468838
-0.000493968
-0.000511904
-0.000556181
-0.000587736
-0.000586091
-0.000593117
-0.000649467
-0.000654081
-0.000632097
-0.000636393
-0.000680625
-0.000723234
-0.000698908
-0.000670543
-0.000661116
-0.000703566
-0.000777669
-0.000856775
-0.000948246
-0.00103363
-0.00111496
-0.00115077
-0.00120487
-0.00123851
-0.00150163
-0.00194404
-0.00293128
-0.00406682
-0.00616096
-0.00986235
-0.00705212
-0.0257263
0.0745118
-0.015575
0.0132847
-0.000594211
0.00262424
0.00322383
3.16697e-05
-0.0012653
0.00089507
-0.00160059
-5.69719e-06
-0.00119122
-0.00132448
-0.00253503
-0.00134377
-0.00164188
-0.00189877
-0.00203836
-0.00126402
-0.00088264
-0.00161918
-0.00164601
-0.00223189
-0.00203547
-0.00218171
-0.00258533
-0.00345244
-0.00373763
-0.00398962
-0.00203968
-0.00245491
-0.00291696
-0.00365899
-0.00382823
-0.00685013
-0.000643581
-0.00390416
-0.00297004
-0.00338122
-0.00219815
-0.000850391
-0.0019597
-0.000701376
-0.00109614
-0.000492568
-0.000527271
-0.000400835
-0.000171284
-0.000195193
0.000132059
-2.75904e-05
0.00042161
-1.16048e-05
0.000793001
-0.00026484
0.00109646
-0.000933085
0.00189746
-0.00329589
0.00395341
-0.0112647
0.0116736
-0.0359721
-8.86049e-05
9.69436e-06
-1.9452e-05
-1.92583e-05
-2.87786e-05
-3.50041e-05
-4.52594e-05
-5.49961e-05
-6.80602e-05
-8.13593e-05
-9.81081e-05
-0.000115404
-0.000136376
-0.000157626
-0.000182878
-0.000208093
-0.000237134
-0.000266366
-0.000296621
-0.000330129
-0.000363442
-0.000392628
-0.000430745
-0.000467491
-0.000492363
-0.000516392
-0.000564201
-0.000584404
-0.000587243
-0.000609631
-0.000651713
-0.000649428
-0.000644046
-0.000673988
-0.000726706
-0.000744183
-0.000735777
-0.000719006
-0.000742464
-0.000816813
-0.000887343
-0.000969684
-0.00106584
-0.00117695
-0.00126854
-0.00136666
-0.00147364
-0.00169362
-0.00207787
-0.00277774
-0.00355546
-0.00380197
-0.00419384
-0.00491601
-0.0049981
0.00261255
0.0193757
0.0680801
-0.0119512
0.0138107
-0.0138032
0.00119417
-0.00280638
-0.00223519
-0.00183609
-0.00249324
-0.00154818
-0.00223813
-0.00227964
-0.00129946
-0.00211111
-0.00186406
-0.00163502
-0.00228497
-0.00108683
-0.000661159
-0.000221278
-0.00080429
-0.000405927
-0.0012711
-0.00139155
-0.00186159
-0.00181429
-0.00170832
-0.00221563
-0.00292625
-0.0033614
-0.0034317
-0.00485316
-0.000667071
-0.000629117
-0.00215214
-0.00239302
-0.00271716
-0.00225394
-0.000567434
-0.00181067
-0.000589051
-0.000982163
-8.42568e-05
-0.000333946
-0.000170491
-0.000143859
6.67308e-05
3.65555e-05
0.00031044
0.000130895
0.000521052
7.2463e-05
0.000814508
-0.000252175
0.00108922
-0.000956063
0.00191629
-0.00332632
0.00411572
-0.010686
0.0108871
-0.0336448
-8.81938e-05
9.55501e-06
-1.93867e-05
-1.91976e-05
-2.8673e-05
-3.48853e-05
-4.5034e-05
-5.47585e-05
-6.77781e-05
-8.12387e-05
-9.76994e-05
-0.000115176
-0.000135594
-0.000157394
-0.000182132
-0.000207578
-0.000236664
-0.000265206
-0.000296624
-0.000329485
-0.000362093
-0.00039377
-0.000431293
-0.000465931
-0.000492405
-0.000527353
-0.000563712
-0.000581971
-0.00059654
-0.000633567
-0.000651446
-0.000650493
-0.000672097
-0.00071991
-0.000758982
-0.000763361
-0.000759445
-0.000786205
-0.000842198
-0.000929941
-0.000991585
-0.00109487
-0.001229
-0.00138218
-0.00163533
-0.00186562
-0.0022385
-0.00249413
-0.00282327
-0.00304649
-0.00355266
-0.00420442
-0.00468314
-0.00508063
-0.00620435
0.00665129
0.028039
0.0486694
-0.0146499
-0.00640121
-0.00572004
-0.00369007
-0.0051767
-0.00178573
-0.0024572
8.35951e-05
-0.00367984
-0.00231095
-0.00107622
-0.00317267
-0.00229924
-0.000494921
-1.01354e-05
-0.00228767
-0.000910984
-0.000156911
-0.00104592
-0.0014308
-0.00185418
-0.00277528
-0.00155317
-0.00205268
-0.00271912
-0.00252019
-0.00225976
-0.00309395
-0.00162824
-0.00116734
0.000147
-0.000195797
-0.0025687
-0.00105242
-0.00205385
-0.00190454
-0.00146889
-0.00143567
-0.000801729
-0.00115632
-0.000124585
-0.000145604
-6.37435e-05
-2.27469e-05
1.70323e-05
0.000100185
5.21282e-05
0.000236627
5.18938e-05
0.000394643
-3.85289e-05
0.000660856
-0.000377059
0.000929857
-0.0011393
0.0017379
-0.00362342
0.00381806
-0.0104158
0.00961584
-0.0314944
-8.77177e-05
9.43965e-06
-1.93114e-05
-1.91379e-05
-2.85301e-05
-3.47075e-05
-4.4893e-05
-5.45597e-05
-6.75384e-05
-8.08345e-05
-9.7169e-05
-0.000114706
-0.000135093
-0.00015679
-0.000181368
-0.000206951
-0.000235859
-0.000263623
-0.000297102
-0.000328222
-0.000359599
-0.000395563
-0.000432043
-0.000461698
-0.000493277
-0.000536472
-0.000562025
-0.000574767
-0.000610668
-0.000652574
-0.000648186
-0.000649141
-0.00069893
-0.000767234
-0.000772889
-0.00077572
-0.000786757
-0.000851971
-0.000937246
-0.000989861
-0.00104153
-0.00111325
-0.001213
-0.00132138
-0.00151481
-0.00170183
-0.00190551
-0.00213524
-0.00240373
-0.0029677
-0.00342196
-0.00392037
-0.00416628
-0.00487172
-0.00604701
0.0159801
0.0256997
0.0194907
4.55957e-05
0.00816909
-0.0018759
-0.00251667
-0.00278565
-0.00180145
-0.00370799
-0.00198431
-0.00517299
-0.00179153
-0.00205001
-0.00159875
-0.00227168
-0.00193332
-0.000165978
-0.00182615
-0.000755905
-0.00198365
-0.000634935
-0.00164572
-0.00105479
-0.00139987
-0.00223771
-0.00126675
-0.00294917
-0.000819273
-0.00183355
-0.00119187
0.00166404
0.000724806
-0.00105571
-0.000505525
-0.000529087
-0.001301
-0.00105109
-0.00208314
-0.000419683
-0.00109909
-0.00071666
-0.000540818
-0.000144317
6.14038e-05
3.1373e-05
8.95179e-05
0.000113395
0.00018137
0.000187481
0.000364379
0.000218551
0.000530635
0.000129244
0.000745708
-0.000203019
0.000985772
-0.00100271
0.00182607
-0.00354622
0.00387698
-0.00971257
0.00903991
-0.0290208
-8.71384e-05
9.32579e-06
-1.91997e-05
-1.9031e-05
-2.84087e-05
-3.45906e-05
-4.47017e-05
-5.42405e-05
-6.72273e-05
-8.02751e-05
-9.68712e-05
-0.0001141
-0.000134568
-0.000155901
-0.000180568
-0.000206358
-0.000234752
-0.000262844
-0.000296876
-0.000326025
-0.000358136
-0.000398353
-0.000431322
-0.000456194
-0.000498973
-0.00054292
-0.000557592
-0.000576257
-0.000631484
-0.000651552
-0.000649381
-0.000673217
-0.000735437
-0.000772443
-0.00078248
-0.000801901
-0.000847392
-0.000924904
-0.000978262
-0.00100923
-0.00108073
-0.00116266
-0.00128659
-0.00138239
-0.00150342
-0.00167262
-0.00177089
-0.00201544
-0.00222953
-0.00255075
-0.00287629
-0.00261553
-0.0030074
0.000718554
-0.00183622
0.0491368
-0.00386975
0.00289369
-0.00129086
-0.00048277
-0.000791389
-0.00269351
-0.000991307
-0.00138071
-0.00165351
-0.00276893
-0.00420154
-0.0019839
-0.00297569
-0.00127255
-0.00115358
-0.00117336
-0.000779167
0.000417731
-0.0011398
-0.00115139
-0.00118443
-0.0021664
-0.00144348
-0.00223096
-0.00241305
-0.000163929
-0.0020994
-0.000657875
0.00294077
0.000636463
0.000529557
0.000622612
0.000114721
3.22087e-05
-0.000780131
-0.000323826
-0.00178973
0.000203775
-0.00118832
-0.000431002
-0.000504436
-0.000170848
-8.5768e-06
0.000128727
0.000171537
0.000244932
0.000258407
0.000277445
0.000233266
0.000312757
0.000145773
0.000377405
-1.72388e-05
0.000510192
-0.000357122
0.000699981
-0.00121176
0.00154197
-0.00375901
0.00352461
-0.0094438
0.00806131
-0.0270826
-8.65821e-05
9.17555e-06
-1.91218e-05
-1.89504e-05
-2.82777e-05
-3.43938e-05
-4.43771e-05
-5.3942e-05
-6.68492e-05
-7.97678e-05
-9.63749e-05
-0.000113252
-0.000133776
-0.000154978
-0.000179558
-0.000205217
-0.000233142
-0.000262296
-0.000295841
-0.000323535
-0.000358913
-0.000398717
-0.000427285
-0.00045876
-0.000506669
-0.000539031
-0.000556186
-0.00059183
-0.00063836
-0.000650266
-0.000663847
-0.000704271
-0.000751254
-0.000771834
-0.000791986
-0.000833648
-0.000911297
-0.000955471
-0.000978099
-0.00100841
-0.00105098
-0.00109439
-0.00116085
-0.00124967
-0.0013363
-0.0013993
-0.00144404
-0.00146915
-0.00145119
-0.00139922
-0.00139942
-0.00118302
-0.000852343
0.000957729
0.00510148
0.0484049
-0.0124825
0.00276871
-0.00820807
-0.000316351
-0.00686982
-0.00189267
-0.00472024
-0.00499487
-0.00512167
-0.0027741
-0.00199208
-0.00107575
-0.00221315
-0.000951272
-0.00144576
-0.000406671
-0.000326715
-0.00202905
-0.000867246
-0.00103952
-0.00173785
-0.00193324
-0.000404493
-0.00134316
-0.000826495
-0.00016737
0.00295094
0.00172728
0.00105926
0.000712391
0.00105895
0.000531216
0.000299123
-0.000261478
9.33792e-05
-0.00106684
0.000471453
-0.00107318
-0.000205335
-0.000422592
-0.000151882
-1.42098e-05
0.000119957
0.000113984
0.000116628
0.000172197
0.000195363
0.000239833
0.000246371
0.000347899
0.000265763
0.000473129
0.000153466
0.000581056
-0.000147645
0.000695417
-0.00106793
0.00159161
-0.00356529
0.00359451
-0.00876769
0.0075842
-0.0248149
-8.58834e-05
9.06636e-06
-1.89879e-05
-1.88486e-05
-2.81003e-05
-3.41829e-05
-4.40878e-05
-5.36002e-05
-6.62896e-05
-7.92754e-05
-9.57034e-05
-0.000112416
-0.000133037
-0.000153872
-0.000178673
-0.000204017
-0.000231468
-0.000262178
-0.000291948
-0.000323709
-0.000360903
-0.000392712
-0.000425131
-0.000467352
-0.000504139
-0.000531088
-0.000563621
-0.000610608
-0.00063394
-0.000646587
-0.00067924
-0.000736017
-0.000759073
-0.000773172
-0.000805683
-0.000871695
-0.000936114
-0.000965678
-0.000984947
-0.00100849
-0.0010225
-0.00108045
-0.001131
-0.00120095
-0.00122232
-0.00128195
-0.0013052
-0.00135947
-0.00144046
-0.00170127
-0.00211966
-0.00263263
-0.00384706
-0.00407741
0.00741836
0.024059
-0.00366379
0.00709938
-0.00219971
0.00447423
-0.00309759
0.00206218
0.000959367
-0.00182373
0.00174961
-0.00117952
0.000422037
-0.000922085
-0.00147118
0.00103061
-0.00250839
0.00165763
-0.00142173
-0.00131558
-0.00100874
-0.000373421
-0.000962119
-0.00142813
-0.000464365
0.00140966
0.00386217
0.00223694
0.000986653
0.000893142
0.00189272
0.000967806
0.000707769
0.000532032
0.000256466
0.000478659
-0.000442863
0.000629763
-0.000710739
5.59069e-05
-0.000203119
4.14282e-05
2.22571e-05
0.000181899
0.000263072
0.000342747
0.000367159
0.000404114
0.000398317
0.000374658
0.000314674
0.000319204
0.00019062
0.000303035
1.74676e-05
0.000344533
-0.000292704
0.000383867
-0.00126609
0.0013032
-0.00368087
0.00330398
-0.0085103
0.00677512
-0.0230493
-8.52069e-05
8.91019e-06
-1.88699e-05
-1.87591e-05
-2.79052e-05
-3.3884e-05
-4.37418e-05
-5.32003e-05
-6.58199e-05
-7.87684e-05
-9.4917e-05
-0.000111646
-0.000131937
-0.00015267
-0.000177728
-0.000201873
-0.00023081
-0.000261089
-0.000288486
-0.000325013
-0.000360209
-0.000387218
-0.000427888
-0.000470131
-0.00049944
-0.000526775
-0.000575195
-0.00061501
-0.000630832
-0.000653185
-0.000705489
-0.000743251
-0.000763607
-0.000784042
-0.000830001
-0.000888689
-0.000930273
-0.000955949
-0.000983896
-0.000990089
-0.00102984
-0.0010584
-0.00107167
-0.00108534
-0.00110099
-0.00111908
-0.00115309
-0.00115389
-0.00115636
-0.00115948
-0.00105537
-0.00128032
0.000554616
-0.00250637
0.029301
0.0171706
-0.00303206
0.00195869
-0.00553488
-0.00116025
-0.00455553
-0.00198964
-0.00146188
-0.0073435
-0.00200191
-0.00518611
0.000475301
0.000205196
-0.00145326
0.00386033
-0.002545
0.00103834
-0.00165434
0.000797569
-0.0011645
-0.0025025
0.00325588
0.00246681
0.00362622
-0.000246468
0.00167447
0.00166787
0.00210656
0.00116557
0.00118283
0.000933892
0.000912368
0.00037573
0.00066507
0.000173713
0.00071532
-0.000246865
0.000185537
-0.000140892
-2.97728e-05
4.76577e-06
0.00011522
0.000312787
0.000284557
0.000244871
0.000237836
0.000270675
0.000255533
0.00025767
0.000272842
0.000310531
0.000265174
0.000326508
0.000139677
0.000356856
-0.000121591
0.000319636
-0.00115795
0.00130642
-0.00345276
0.00326637
-0.00784025
0.00637681
-0.0210703
-8.44293e-05
8.77613e-06
-1.87281e-05
-1.85934e-05
-2.76427e-05
-3.36051e-05
-4.3442e-05
-5.2752e-05
-6.52915e-05
-7.79693e-05
-9.39759e-05
-0.000110666
-0.000130558
-0.000151689
-0.000175615
-0.000200196
-0.000229629
-0.000256671
-0.00028863
-0.000323535
-0.000353876
-0.000388964
-0.000429821
-0.000463617
-0.000497613
-0.000539259
-0.000580303
-0.000610608
-0.000636216
-0.000678396
-0.00072037
-0.000744502
-0.00077014
-0.000799105
-0.000851919
-0.000883106
-0.000907632
-0.000934196
-0.000971764
-0.00100095
-0.00105089
-0.00105225
-0.00103425
-0.00101747
-0.00100114
-0.000985798
-0.000938865
-0.000869737
-0.000728179
-0.000546766
-5.08108e-05
0.000600843
0.00292582
0.00568342
0.0368141
-0.0130053
-0.000843541
-0.00438184
-0.00111247
-0.00126567
-0.00087205
0.00113846
0.00276239
0.000793623
0.0017222
-0.00254759
0.00171113
0.000751125
0.00044581
0.000924673
3.14956e-05
0.000242074
-0.00241441
0.00254413
0.0028793
0.00215416
0.000987447
0.00109818
0.00187634
0.00197197
0.0017718
0.00129984
0.00129532
0.00124438
0.00103932
0.000659691
0.000584409
0.000570691
0.000458415
0.000661838
-2.53098e-06
0.000378164
0.000138922
0.000410131
0.000230398
0.000362644
0.000251992
0.000468243
0.000403618
0.000493199
0.000495504
0.000503419
0.000421732
0.000368718
0.00032235
0.000284038
0.000197584
0.000181965
1.70926e-05
0.000148425
-0.000264846
2.47103e-05
-0.00126766
0.00106219
-0.00346188
0.00290101
-0.00754261
0.0056386
-0.0194302
-8.3576e-05
8.64646e-06
-1.85388e-05
-1.84277e-05
-2.73807e-05
-3.33338e-05
-4.29957e-05
-5.21612e-05
-6.45527e-05
-7.71211e-05
-9.31454e-05
-0.000109434
-0.00012944
-0.000150131
-0.0001739
-0.00019888
-0.000227737
-0.000254276
-0.000288898
-0.000319503
-0.000352046
-0.000391022
-0.00042686
-0.000458471
-0.000500398
-0.000544494
-0.000576189
-0.000602812
-0.00064751
-0.000695035
-0.000723442
-0.000743725
-0.000775009
-0.000825471
-0.000852454
-0.000864101
-0.000883804
-0.000913834
-0.000968033
-0.00101956
-0.00104773
-0.00106614
-0.0010715
-0.00108257
-0.00107745
-0.00105406
-0.00101759
-0.000972415
-0.000822249
-0.000767964
-0.000614128
-0.000880772
-0.000152581
0.00871043
0.0266282
-0.00655061
0.00170653
-0.00450381
-0.00239395
-0.00661454
-0.00660489
-0.00900987
-0.00721615
-0.00414991
-0.00868205
-0.00495895
-0.00476366
0.00284476
-0.00670412
0.00137507
0.00179133
0.00337916
0.0020861
0.00102966
0.00111489
0.00191182
0.00231854
0.00202667
0.00197694
0.00103377
0.00155966
0.00148532
0.00119594
0.00109212
0.00085728
0.000714096
0.000806905
0.000453855
0.000674936
5.951e-05
0.000249015
-3.14584e-05
1.84893e-06
0.000133948
0.000235205
0.00037457
0.000336061
0.000431664
0.000300135
0.000315018
0.000228385
0.000218804
0.000182748
0.000196632
0.000242931
0.000229807
0.000199404
0.000147181
4.86599e-05
0.000128953
-0.000159914
-5.51785e-05
-0.00116526
0.00104495
-0.00321934
0.00277119
-0.00692948
0.00527644
-0.0177096
-8.26931e-05
8.48964e-06
-1.83912e-05
-1.82344e-05
-2.71097e-05
-3.29558e-05
-4.24696e-05
-5.16175e-05
-6.38804e-05
-7.63941e-05
-9.2024e-05
-0.000108301
-0.000127987
-0.000148201
-0.000171926
-0.000196921
-0.000224061
-0.000253055
-0.000285156
-0.000314704
-0.000352175
-0.000386185
-0.000420996
-0.00046186
-0.000501211
-0.000538378
-0.000577648
-0.000617568
-0.000658319
-0.000697437
-0.000732754
-0.000771067
-0.000806373
-0.000826701
-0.000838312
-0.000856248
-0.00087774
-0.000912566
-0.000948237
-0.000997339
-0.00103369
-0.00109754
-0.00114314
-0.00119943
-0.0012076
-0.00122669
-0.00124552
-0.0013147
-0.00141389
-0.00151894
-0.00164026
-0.00121494
-0.00157697
0.0181068
0.0192985
-0.00452715
0.00366689
-0.000436249
0.00279266
0.00110793
0.00477753
0.00477834
0.00199434
-0.000819781
-0.00125232
-0.00207828
0.00314517
-0.000172709
0.00778699
0.00115782
0.0035519
0.00206834
0.00217072
0.00230756
0.00243743
0.0021279
0.00170041
0.00170719
0.00163976
0.00155699
0.00113477
0.0011419
0.000817046
0.0009015
0.000227669
0.000533337
0.000263497
0.000465319
4.3419e-05
0.000304702
0.000256289
0.000477996
0.000488737
0.000531481
0.000365348
0.00038856
0.000375762
0.000465983
0.000459521
0.000616896
0.000505267
0.000477735
0.000380671
0.000344883
0.000309289
0.000219491
0.000170511
5.58574e-05
-2.51921e-05
-2.01963e-05
-0.000267799
-0.000319081
-0.00125389
0.00080839
-0.00315867
0.00243232
-0.00657829
0.0046835
-0.0161917
-8.17084e-05
8.35358e-06
-1.81589e-05
-1.8058e-05
-2.68269e-05
-3.25806e-05
-4.19832e-05
-5.09851e-05
-6.30447e-05
-7.53792e-05
-9.06801e-05
-0.000106896
-0.000126059
-0.000146329
-0.000169861
-0.000194351
-0.00022154
-0.000250465
-0.000281514
-0.000312992
-0.000349158
-0.000381951
-0.000420086
-0.000462181
-0.000496971
-0.000533158
-0.000581161
-0.000623917
-0.000653264
-0.000688267
-0.000742126
-0.000789484
-0.000807945
-0.000816856
-0.000823991
-0.000860326
-0.000888951
-0.000907588
-0.000927948
-0.000970946
-0.00100955
-0.00109176
-0.00114359
-0.00118252
-0.00119795
-0.00118694
-0.00116129
-0.00106278
-0.000933543
-0.00043938
-7.53794e-05
0.00229486
0.00251097
0.0352717
-0.00230827
-0.00267382
-0.000981541
-0.00262029
-0.00175374
-0.00331358
-0.00232642
-0.00305584
-0.00739226
-0.00491513
-0.0030701
0.00224499
0.00177856
0.0017354
0.00253839
0.00254892
0.00288181
0.00310268
0.00223023
0.00202704
0.00190025
0.00200372
0.00166856
0.000995606
0.00119773
0.000885417
0.000938482
0.000810731
0.000496012
0.000648073
-8.33315e-08
0.000660782
0.000339662
0.000406971
0.000361484
0.000465148
0.000440895
0.000314516
0.00026658
0.000276264
0.000269325
0.000289831
0.000234238
0.000286949
5.98479e-05
0.000128911
-1.89718e-05
5.99621e-05
4.25157e-05
0.000103635
0.000121917
5.73118e-05
5.50822e-05
-8.98773e-05
-0.000110172
-0.000119847
-0.000265059
-0.000406929
-0.00119165
0.00079831
-0.00290421
0.0022342
-0.0059807
0.00435473
-0.0147868
-8.06471e-05
8.21053e-06
-1.79303e-05
-1.78284e-05
-2.64444e-05
-3.20706e-05
-4.13992e-05
-5.02631e-05
-6.21465e-05
-7.41923e-05
-8.94886e-05
-0.000105227
-0.000124352
-0.000144182
-0.000167319
-0.000191455
-0.000218906
-0.000246857
-0.000278146
-0.000309864
-0.000343962
-0.000379623
-0.000417029
-0.000454638
-0.00049429
-0.00053685
-0.000577739
-0.000618814
-0.000657802
-0.000703557
-0.000750913
-0.000794812
-0.000825593
-0.000842652
-0.000861473
-0.000875453
-0.000893582
-0.000913186
-0.000929004
-0.000962068
-0.000989857
-0.00104089
-0.00106484
-0.0010995
-0.00110392
-0.00108142
-0.0010164
-0.00088048
-0.000701881
-0.000341489
0.000106649
0.00127371
0.00665312
0.0341302
-0.00834499
-3.83997e-05
-0.00157924
0.000918815
0.000678564
0.00183965
-0.00258882
0.00167492
-0.00736424
-0.00118482
-0.001554
-4.12782e-05
0.00123818
0.00158955
0.00255363
0.00199493
0.00207382
0.0020672
0.00202642
0.00192915
0.00152735
0.00164398
0.000838942
0.000912738
0.000582881
0.000567038
0.000300552
0.000497088
0.000304459
0.000637241
0.000140512
0.000712809
0.000176138
0.000180373
2.96665e-05
0.000195202
0.000136023
0.000173875
0.000178751
0.000269202
0.000303832
0.000387741
0.000343063
0.000334482
0.000179905
0.000261491
6.76896e-05
0.000127396
5.88929e-05
0.00011485
7.4684e-05
2.57678e-05
6.98716e-06
-0.000157684
-0.000152292
-0.000191736
-0.00024991
-0.000534667
-0.0012339
0.000568041
-0.00284448
0.00187325
-0.00553016
0.00380624
-0.0135006
-7.9535e-05
8.04513e-06
-1.76994e-05
-1.75876e-05
-2.60409e-05
-3.16215e-05
-4.07996e-05
-4.9488e-05
-6.11741e-05
-7.30351e-05
-8.80295e-05
-0.000103487
-0.00012242
-0.000141552
-0.000164814
-0.000188459
-0.000215066
-0.000243293
-0.000273959
-0.00030542
-0.000339935
-0.000375432
-0.00041277
-0.000449477
-0.0004947
-0.000536264
-0.000571228
-0.000616515
-0.000666714
-0.000707793
-0.000741583
-0.000783379
-0.000831811
-0.000865315
-0.000881227
-0.000885699
-0.000910006
-0.00093429
-0.000958304
-0.000964228
-0.000975887
-0.00101694
-0.00106665
-0.00113203
-0.00119111
-0.00124233
-0.00136038
-0.00157889
-0.00213768
-0.0026648
-0.00364417
-0.00395147
0.0119319
0.0195461
-0.00267274
0.00499382
-1.30335e-05
0.00135978
-0.00143026
0.000474432
-0.00790393
-0.00318434
-0.00545442
-0.00162595
-0.000667723
1.42205e-05
0.000336967
0.000651177
0.000819403
0.00115911
0.0011527
0.00101234
0.000876369
0.00074806
0.000619676
0.000373339
0.000152043
-0.000109891
0.000256774
0.00037677
0.000475556
0.000462279
0.000492149
0.000101114
0.000486066
0.000164084
0.000332091
0.000201589
0.000184484
0.000237139
0.000224036
0.000137354
0.000102049
0.000145221
0.000180601
0.000302603
0.000303589
0.00038282
0.000234154
0.000292499
5.65078e-05
0.000146317
4.18606e-05
8.6703e-05
-3.62508e-06
-3.92262e-05
-9.66405e-05
-0.00025747
-0.000267253
-0.000291428
-0.000288291
-0.000729384
-0.00113386
0.000564699
-0.00260906
0.00162582
-0.00488756
0.00338601
-0.0122353
-7.83011e-05
7.90484e-06
-1.74074e-05
-1.73006e-05
-2.56493e-05
-3.11404e-05
-4.00821e-05
-4.85526e-05
-6.00535e-05
-7.16206e-05
-8.63121e-05
-0.000101436
-0.000119917
-0.000138802
-0.000161841
-0.000184206