/*--------------------------------*- C++ -*----------------------------------*\
| =========                 |                                                 |
| \\      /  F ield         | OpenFOAM: The Open Source CFD Toolbox           |
|  \\    /   O peration     | Version:  2.2.x                                 |
|   \\  /    A nd           | Web:      www.OpenFOAM.org                      |
|    \\/     M anipulation  |                                                 |
\*---------------------------------------------------------------------------*/
FoamFile
{
    version     2.0;
    format      ascii;
    class       volScalarField;
    location    "0.75";
    object      rho;
}
// * * * * * * * * * * * * * * * * * * * * * * * * * * * * * * * * * * * * * //

dimensions      [1 -3 0 0 0 0 0];

internalField   nonuniform List<scalar> 
14161
(
0.999897
0.999903
0.999891
0.999874
0.999849
0.999816
0.999774
0.999721
0.999656
0.999578
0.999485
0.999377
0.999252
0.999108
0.998946
0.998764
0.998562
0.998342
0.998096
0.997845
0.997573
0.997254
0.996957
0.996673
0.996313
0.995955
0.995667
0.995346
0.994935
0.994621
0.994369
0.994051
0.99365
0.993398
0.993234
0.993036
0.992682
0.992382
0.99228
0.992291
0.992304
0.9923
0.99221
0.992164
0.992141
0.992238
0.992289
0.992497
0.993134
0.994175
0.995371
0.996456
0.997913
1.00067
0.999242
1.32924
2.48861
2.73811
2.75692
2.71877
2.67963
2.61178
2.55771
2.49584
2.44205
2.3906
2.32981
2.27981
2.23343
2.18522
2.14661
2.11464
2.08273
2.05854
2.04038
2.03176
2.02406
2.02337
2.02493
2.04714
2.03802
2.03382
2.03007
2.03076
2.03499
2.0173
2.01654
2.01757
2.01871
2.00307
1.99157
1.98545
1.97533
1.9779
2.00879
2.19211
2.45236
2.67983
2.80018
2.87044
2.9226
2.96385
2.99594
3.02174
3.04126
3.05547
3.06706
3.0784
3.08798
3.09739
3.10474
3.10996
3.11203
3.11305
3.11098
3.10758
3.10204
3.09864
3.09952
0.999897
0.999903
0.999891
0.999874
0.999849
0.999816
0.999774
0.999721
0.999656
0.999578
0.999485
0.999377
0.999252
0.999108
0.998946
0.998763
0.998563
0.998342
0.998096
0.997846
0.997571
0.997256
0.996961
0.99667
0.99631
0.995962
0.99567
0.995338
0.994938
0.994625
0.994368
0.994044
0.993657
0.993412
0.993224
0.993002
0.99267
0.992417
0.992299
0.992271
0.992255
0.992229
0.992144
0.992082
0.992181
0.992202
0.992352
0.992429
0.992881
0.993924
0.995172
0.996616
0.997756
1.00147
1.00023
1.32793
2.45114
2.73703
2.73646
2.69314
2.65828
2.59533
2.54325
2.48252
2.43047
2.37728
2.31594
2.27265
2.23117
2.18448
2.14728
2.11571
2.08335
2.05911
2.04083
2.03322
2.02554
2.02556
2.02651
2.04817
2.04058
2.03466
2.03107
2.03232
2.03644
2.01813
2.01717
2.01887
2.02056
2.00743
1.99708
1.99599
1.99038
2.01089
2.07298
2.26839
2.51381
2.71094
2.82854
2.89215
2.93865
2.97537
3.00443
3.02715
3.04422
3.05682
3.06767
3.07877
3.08823
3.0976
3.10463
3.10976
3.11173
3.11263
3.11067
3.10713
3.10179
3.09781
3.1
0.999897
0.999903
0.999891
0.999874
0.999849
0.999816
0.999774
0.999721
0.999656
0.999578
0.999486
0.999377
0.999252
0.999109
0.998946
0.998764
0.998563
0.998341
0.998098
0.997845
0.997568
0.997261
0.996969
0.996665
0.996309
0.995974
0.995672
0.995325
0.994943
0.994638
0.99436
0.994026
0.993673
0.993423
0.993195
0.992938
0.992648
0.992465
0.99234
0.992246
0.992133
0.992046
0.991948
0.991947
0.991966
0.992048
0.992142
0.992304
0.99265
0.993332
0.994363
0.995582
0.996524
0.999771
1.0001
1.2962
2.38737
2.73318
2.71354
2.65669
2.62842
2.57107
2.52251
2.46256
2.41169
2.36517
2.30709
2.27197
2.23316
2.18909
2.15467
2.12599
2.09504
2.07184
2.05299
2.04618
2.03846
2.03857
2.03811
2.05647
2.05363
2.04295
2.0402
2.04192
2.04529
2.02796
2.02744
2.03025
2.03295
2.02465
2.0153
2.02935
2.03388
2.09701
2.20489
2.41392
2.60014
2.71838
2.81653
2.88672
2.93741
2.97622
3.00566
3.02865
3.04538
3.05712
3.06727
3.07762
3.08652
3.09537
3.10246
3.1077
3.10987
3.11065
3.10903
3.10571
3.10048
3.09562
3.09887
0.999897
0.999903
0.999891
0.999874
0.999849
0.999817
0.999774
0.999721
0.999656
0.999578
0.999486
0.999378
0.999252
0.999109
0.998947
0.998765
0.998564
0.998342
0.998101
0.997843
0.997564
0.997273
0.996978
0.996654
0.996309
0.995993
0.995668
0.995306
0.994958
0.994655
0.994342
0.993997
0.993692
0.993434
0.993152
0.992843
0.992621
0.992483
0.992365
0.992214
0.991932
0.991741
0.991688
0.991673
0.991724
0.991779
0.991938
0.992122
0.992078
0.992299
0.992845
0.993468
0.99387
0.996805
0.997039
1.20188
2.3028
2.73099
2.69163
2.60331
2.57705
2.53404
2.4876
2.43259
2.392
2.3543
2.29747
2.27071
2.23062
2.18868
2.15823
2.13335
2.10537
2.08644
2.06863
2.06365
2.05713
2.05723
2.05604
2.07023
2.07199
2.05709
2.05532
2.05636
2.06001
2.04582
2.04751
2.05209
2.05482
2.05783
2.05155
2.09868
2.13521
2.26746
2.42126
2.58155
2.69299
2.75504
2.82636
2.8902
2.93775
2.97549
3.00438
3.02699
3.04377
3.05646
3.06693
3.07679
3.08494
3.09338
3.10007
3.10499
3.10732
3.10789
3.10655
3.10344
3.09824
3.09256
3.0974
0.999897
0.999903
0.999891
0.999874
0.999849
0.999817
0.999774
0.999721
0.999657
0.999579
0.999486
0.999378
0.999253
0.99911
0.998948
0.998767
0.998565
0.998343
0.998105
0.997843
0.997562
0.997286
0.996982
0.996642
0.996314
0.996012
0.995659
0.99529
0.994979
0.994671
0.994307
0.993971
0.993707
0.993451
0.993095
0.992745
0.992576
0.99247
0.992364
0.992188
0.991672
0.99141
0.991345
0.991352
0.991382
0.991513
0.991589
0.991594
0.991252
0.990948
0.990973
0.990976
0.991026
0.992018
0.993231
1.05638
2.17626
2.74976
2.68015
2.54936
2.5351
2.50867
2.47028
2.4213
2.39113
2.35722
2.29982
2.28159
2.2305
2.19934
2.16959
2.14426
2.11852
2.10313
2.08401
2.08022
2.07501
2.07443
2.07399
2.08457
2.09013
2.07636
2.07587
2.07754
2.08174
2.07355
2.08102
2.0875
2.09446
2.12637
2.13763
2.23228
2.33207
2.50403
2.62784
2.71204
2.75781
2.79697
2.84322
2.89715
2.93957
2.97555
3.00327
3.02531
3.04204
3.05455
3.06536
3.07531
3.0831
3.09102
3.09742
3.10182
3.10407
3.10428
3.10307
3.10018
3.09517
3.08892
3.09524
0.999897
0.999903
0.999891
0.999874
0.99985
0.999817
0.999775
0.999722
0.999657
0.999579
0.999487
0.99938
0.999254
0.999112
0.99895
0.998769
0.998567
0.998346
0.998109
0.997845
0.997564
0.997297
0.996984
0.996634
0.996327
0.996025
0.995644
0.995282
0.994995
0.994685
0.994267
0.99395
0.993717
0.993463
0.993038
0.992672
0.992516
0.992456
0.992347
0.99205
0.991463
0.991188
0.991071
0.991034
0.991085
0.991156
0.991124
0.990803
0.989947
0.989499
0.989148
0.98846
0.988376
0.98722
0.988851
0.995889
1.8544
2.78028
2.68521
2.52013
2.5092
2.48169
2.44656
2.40364
2.38055
2.35647
2.29512
2.29069
2.22149
2.20421
2.17519
2.14423
2.12045
2.10732
2.08789
2.08585
2.0823
2.08096
2.08226
2.09071
2.10017
2.09217
2.09544
2.10038
2.10658
2.10628
2.1288
2.14863
2.1646
2.23585
2.29921
2.45128
2.58552
2.7024
2.75538
2.78741
2.80646
2.83109
2.86796
2.90849
2.94563
2.97749
3.00336
3.02369
3.03946
3.0522
3.06305
3.0726
3.08039
3.08808
3.09421
3.09793
3.10002
3.09986
3.09866
3.09591
3.0912
3.0847
3.09223
0.999897
0.999903
0.999891
0.999875
0.99985
0.999817
0.999775
0.999722
0.999658
0.99958
0.999488
0.999381
0.999256
0.999114
0.998952
0.998772
0.998571
0.998351
0.998113
0.997848
0.997571
0.997305
0.996984
0.996635
0.996343
0.996032
0.995633
0.995282
0.995011
0.994682
0.994244
0.993942
0.993722
0.993445
0.992984
0.992647
0.992489
0.992407
0.992212
0.991742
0.991264
0.99103
0.990891
0.990882
0.990892
0.990763
0.990382
0.989571
0.988722
0.988152
0.987426
0.986731
0.985952
0.983447
0.98486
0.991903
1.47773
2.7228
2.72981
2.56075
2.51236
2.46354
2.41455
2.38695
2.35798
2.35361
2.27358
2.28381
2.21537
2.19209
2.17077
2.13461
2.11313
2.10032
2.08193
2.08173
2.08159
2.08159
2.08493
2.09218
2.10518
2.10555
2.11431
2.12831
2.14153
2.15682
2.19715
2.24315
2.29475
2.42805
2.54601
2.6909
2.77228
2.80741
2.81919
2.82963
2.84234
2.86083
2.89223
2.92311
2.95457
2.98187
3.00459
3.02262
3.03677
3.04877
3.05938
3.06877
3.07677
3.08436
3.09024
3.0933
3.09528
3.09474
3.09339
3.09071
3.08638
3.0799
3.08842
0.999898
0.999903
0.999892
0.999875
0.99985
0.999818
0.999776
0.999723
0.999659
0.999582
0.99949
0.999383
0.999259
0.999117
0.998956
0.998776
0.998575
0.998356
0.998118
0.997854
0.997582
0.997309
0.996985
0.996646
0.996358
0.99603
0.995631
0.995298
0.995019
0.994658
0.994243
0.993963
0.993703
0.993352
0.992941
0.99268
0.992517
0.992312
0.9919
0.991375
0.991083
0.990949
0.99081
0.99084
0.990675
0.990163
0.989299
0.988304
0.987734
0.987077
0.986999
0.986118
0.986138
0.983826
0.984521
0.999888
1.25208
2.44289
2.74289
2.629
2.54392
2.47645
2.39569
2.37426
2.3195
2.33727
2.25162
2.25525
2.21278
2.16807
2.15059
2.1189
2.09973
2.08288
2.0707
2.07543
2.08064
2.08316
2.08975
2.09567
2.11671
2.12494
2.13902
2.16772
2.19124
2.24096
2.31301
2.41808
2.52296
2.66866
2.76698
2.83414
2.85205
2.8544
2.85746
2.86023
2.86881
2.88701
2.91322
2.94016
2.96566
2.98767
3.00673
3.02234
3.03437
3.04515
3.05516
3.06417
3.07239
3.08001
3.08566
3.08811
3.09003
3.08915
3.08758
3.08486
3.08093
3.07465
3.08389
0.999898
0.999904
0.999892
0.999875
0.999851
0.999818
0.999776
0.999724
0.99966
0.999583
0.999492
0.999385
0.999262
0.99912
0.99896
0.998781
0.998581
0.998362
0.998123
0.997863
0.997595
0.99731
0.99699
0.996673
0.996368
0.996017
0.995643
0.995333
0.995009
0.994624
0.994274
0.993985
0.993641
0.993239
0.992932
0.992746
0.992539
0.992136
0.991509
0.991138
0.990971
0.990865
0.990912
0.990787
0.990343
0.989422
0.988397
0.987841
0.98719
0.987004
0.986259
0.986313
0.9856
0.98344
0.985206
1.01477
1.3509
2.07894
2.50482
2.59812
2.55029
2.47831
2.38221
2.35491
2.29739
2.29448
2.23668
2.21315
2.20233
2.13035
2.11959
2.10394
2.08412
2.06421
2.06108
2.07097
2.07937
2.08854
2.10132
2.10636
2.14248
2.16297
2.19127
2.25175
2.30645
2.41002
2.52155
2.65012
2.74903
2.8338
2.86866
2.88017
2.88022
2.88079
2.88122
2.88423
2.89262
2.90955
2.93259
2.95696
2.97771
2.99504
3.01021
3.02283
3.03301
3.04229
3.05117
3.0594
3.06762
3.07514
3.08048
3.08225
3.08408
3.08296
3.08122
3.07848
3.07505
3.06913
3.07879
0.999899
0.999904
0.999893
0.999876
0.999851
0.999819
0.999777
0.999725
0.999662
0.999585
0.999494
0.999388
0.999265
0.999124
0.998965
0.998786
0.998587
0.99837
0.99813
0.997878
0.997608
0.997311
0.997001
0.996706
0.996371
0.996004
0.995675
0.995363
0.994982
0.994601
0.994311
0.994002
0.993558
0.993169
0.992952
0.992795
0.992512
0.991872
0.991306
0.991032
0.990917
0.990905
0.990928
0.990666
0.989976
0.988742
0.988117
0.987609
0.987337
0.986529
0.986645
0.98647
0.985003
0.984248
0.989168
1.05698
1.60415
2.00983
2.18278
2.40469
2.44752
2.45405
2.38563
2.33921
2.30193
2.2587
2.23562
2.17148
2.18561
2.12523
2.09391
2.08608
2.0762
2.06041
2.06489
2.07618
2.0883
2.10694
2.13081
2.14516
2.21029
2.2553
2.31329
2.4216
2.51958
2.6349
2.73793
2.81925
2.86187
2.87965
2.88523
2.88832
2.89165
2.89442
2.89744
2.90204
2.91332
2.92925
2.951
2.97236
2.98952
3.00348
3.015
3.02478
3.03319
3.04103
3.04868
3.05588
3.06383
3.07104
3.07576
3.07635
3.07774
3.07642
3.07459
3.07177
3.06887
3.06345
3.07317
0.999899
0.999905
0.999893
0.999877
0.999852
0.99982
0.999778
0.999727
0.999664
0.999588
0.999497
0.999392
0.99927
0.99913
0.998971
0.998793
0.998596
0.998379
0.998139
0.997894
0.99762
0.997314
0.997022
0.996728
0.996369
0.996006
0.995713
0.995378
0.994955
0.994613
0.994338
0.993977
0.993506
0.993176
0.992989
0.992777
0.992361
0.991673
0.991266
0.991062
0.990963
0.990976
0.990803
0.990276
0.989393
0.988585
0.988108
0.987852
0.987534
0.98748
0.987204
0.986757
0.985303
0.986219
0.999999
1.22935
1.83544
1.96881
2.00406
2.15786
2.30921
2.4484
2.40522
2.3394
2.32315
2.24713
2.25529
2.1543
2.16354
2.12697
2.09043
2.08463
2.07451
2.07454
2.08878
2.09998
2.12591
2.15869
2.20994
2.25397
2.35764
2.44374
2.53531
2.64427
2.73214
2.80313
2.84443
2.86409
2.87505
2.88147
2.88637
2.89156
2.89738
2.90247
2.9078
2.91714
2.93007
2.94705
2.96759
2.98641
3.00047
3.01118
3.01945
3.02637
3.03266
3.03913
3.0457
3.05209
3.05965
3.06624
3.07035
3.07007
3.07108
3.06958
3.06759
3.06472
3.06262
3.05777
3.06736
0.9999
0.999905
0.999894
0.999877
0.999853
0.999821
0.99978
0.999729
0.999666
0.99959
0.999501
0.999396
0.999274
0.999136
0.998978
0.998801
0.998606
0.99839
0.998152
0.997908
0.997632
0.997328
0.997046
0.996737
0.996371
0.996039
0.995734
0.995362
0.994956
0.994655
0.994347
0.993926
0.993495
0.993225
0.993007
0.992695
0.992133
0.991606
0.991317
0.991159
0.991081
0.990936
0.990538
0.989793
0.98908
0.988654
0.988404
0.988184
0.988257
0.988148
0.987734
0.986536
0.985684
0.987858
1.01309
1.48527
1.96517
1.95376
1.95398
2.0189
2.13324
2.32153
2.36842
2.35232
2.33982
2.24441
2.27651
2.16117
2.15865
2.13304
2.10391
2.10622
2.09975
2.12114
2.14793
2.17273
2.23412
2.29341
2.38623
2.47745
2.58506
2.66649
2.73848
2.79831
2.82877
2.84527
2.8561
2.86214
2.86865
2.87595
2.88333
2.89101
2.89876
2.90665
2.91647
2.92874
2.94359
2.96163
2.98115
2.99774
3.00948
3.01799
3.02392
3.02863
3.03329
3.0386
3.04402
3.04966
3.05644
3.06167
3.06492
3.06398
3.06465
3.06285
3.06033
3.05726
3.05651
3.05244
3.06158
0.999901
0.999906
0.999894
0.999878
0.999854
0.999822
0.999781
0.999731
0.999668
0.999593
0.999505
0.999401
0.99928
0.999143
0.998986
0.998811
0.998617
0.998402
0.99817
0.997919
0.997643
0.99736
0.997068
0.996735
0.996392
0.996087
0.99574
0.995339
0.994993
0.994702
0.994334
0.993882
0.993536
0.993284
0.992997
0.992549
0.992012
0.99165
0.99143
0.991281
0.991093
0.990771
0.990178
0.989561
0.989194
0.988866
0.988724
0.988582
0.988564
0.988419
0.987848
0.986287
0.986158
0.989878
1.03832
1.73989
2.00152
1.99337
1.97607
1.9806
2.01894
2.16198
2.30302
2.39332
2.36846
2.27845
2.31012
2.188
2.18252
2.16575
2.15397
2.16772
2.17882
2.2247
2.27806
2.34185
2.44272
2.52716
2.61625
2.69685
2.76524
2.79819
2.81617
2.83231
2.83885
2.8402
2.84522
2.85271
2.86051
2.86901
2.87928
2.88928
2.89893
2.90963
2.92229
2.93674
2.95335
2.97254
2.99137
3.00569
3.01511
3.02173
3.0261
3.0296
3.03309
3.0373
3.04162
3.04664
3.05264
3.05655
3.05901
3.05763
3.05812
3.0562
3.05319
3.04985
3.05028
3.04706
3.05589
0.999901
0.999907
0.999895
0.999879
0.999855
0.999824
0.999783
0.999733
0.999671
0.999597
0.999509
0.999406
0.999287
0.999151
0.998995
0.998822
0.998629
0.998416
0.998189
0.997933
0.997662
0.997392
0.997082
0.996741
0.996437
0.996123
0.995736
0.995346
0.995048
0.994731
0.994305
0.993889
0.993595
0.993315
0.99294
0.992434
0.992024
0.991739
0.991526
0.991311
0.991001
0.990547
0.990024
0.989673
0.989396
0.989166
0.988936
0.988828
0.988734
0.988508
0.988047
0.98733
0.98827
0.9973
1.19621
1.87319
2.0104
2.0057
1.99166
1.97747
1.98271
2.05497
2.16429
2.34043
2.35772
2.35936
2.34717
2.2473
2.25035
2.24269
2.2786
2.30377
2.33915
2.4228
2.49958
2.57992
2.66292
2.7285
2.77507
2.79979
2.81646
2.82126
2.81988
2.82098
2.82512
2.82937
2.83368
2.84182
2.85097
2.86158
2.87353
2.88597
2.8983
2.91116
2.92533
2.94102
2.9591
2.97901
2.99695
3.01006
3.0183
3.02382
3.02735
3.03039
3.03344
3.03683
3.04018
3.04447
3.0492
3.0516
3.05322
3.05147
3.05182
3.04977
3.0465
3.04298
3.0441
3.04156
3.05008
0.999902
0.999907
0.999896
0.99988
0.999856
0.999825
0.999785
0.999735
0.999674
0.999601
0.999514
0.999412
0.999294
0.99916
0.999007
0.998835
0.998643
0.998435
0.998206
0.997951
0.997691
0.997412
0.997097
0.996776
0.996479
0.996139
0.995748
0.995394
0.995087
0.994734
0.994299
0.993938
0.993634
0.993313
0.992872
0.992416
0.992088
0.991806
0.991565
0.991283
0.990876
0.990414
0.990092
0.989825
0.989565
0.989287
0.989066
0.988921
0.988761
0.988597
0.988231
0.988268
0.990152
1.0074
1.43594
1.96395
1.99838
1.99772
1.99755
1.988
1.98671
2.03049
2.09881
2.23771
2.38226
2.46787
2.4161
2.34299
2.40275
2.41512
2.47587
2.51747
2.56468
2.6439
2.70596
2.75607
2.78327
2.79778
2.80857
2.81276
2.81092
2.81073
2.81083
2.80991
2.81174
2.81683
2.82238
2.83066
2.8412
2.85342
2.86716
2.88129
2.89593
2.91042
2.92587
2.94258
2.96163
2.98179
2.99918
3.01175
3.01941
3.02439
3.02734
3.02993
3.03255
3.03516
3.03789
3.04147
3.04495
3.04609
3.04702
3.04506
3.04537
3.04326
3.03988
3.03634
3.0379
3.03583
3.04409
0.999903
0.999908
0.999897
0.999881
0.999858
0.999827
0.999788
0.999738
0.999678
0.999606
0.99952
0.999419
0.999303
0.99917
0.999019
0.99885
0.99866
0.998454
0.998225
0.997978
0.997719
0.997435
0.997128
0.996819
0.996515
0.996163
0.995789
0.995444
0.995113
0.994744
0.994331
0.993976
0.99365
0.993303
0.992876
0.992457
0.992132
0.991834
0.991565
0.991245
0.990861
0.990462
0.990155
0.989859
0.989569
0.989289
0.989104
0.988895
0.98875
0.98855
0.988043
0.988057
0.99085
1.02694
1.68265
2.03336
2.03726
2.03035
2.01823
2.00255
2.00512
2.03618
2.10039
2.20143
2.45616
2.58285
2.54481
2.51806
2.60149
2.61701
2.65812
2.69795
2.7373
2.76783
2.78695
2.80128
2.80358
2.80286
2.79785
2.79918
2.79882
2.79807
2.79837
2.7993
2.80007
2.80448
2.81045
2.81931
2.83079
2.84408
2.85884
2.87463
2.89079
2.90707
2.92385
2.94152
2.96082
2.98106
2.99836
3.0107
3.0185
3.02376
3.02698
3.02955
3.03177
3.03369
3.03587
3.0384
3.04048
3.04053
3.0408
3.03864
3.03887
3.03663
3.03324
3.02981
3.03174
3.03006
3.03781
0.999904
0.999909
0.999898
0.999883
0.99986
0.999829
0.99979
0.999742
0.999682
0.999611
0.999526
0.999427
0.999313
0.999181
0.999033
0.998866
0.99868
0.998475
0.99825
0.998009
0.997747
0.997469
0.997172
0.996855
0.996548
0.996217
0.99584
0.995475
0.995151
0.994797
0.994373
0.993985
0.993655
0.993337
0.992958
0.992497
0.992134
0.991821
0.991548
0.991301
0.990982
0.990583
0.990153
0.989833
0.989521
0.989285
0.989061
0.988904
0.988695
0.988507
0.988255
0.988782
0.995553
1.12412
1.85102
2.05147
2.05929
2.05856
2.04919
2.03449
2.03823
2.07221
2.17218
2.31389
2.60958
2.69607
2.68216
2.69315
2.73231
2.74371
2.7581
2.76764
2.78032
2.78955
2.79354
2.79227
2.79124
2.79183
2.78872
2.78635
2.78584
2.78562
2.78565
2.78687
2.7883
2.7928
2.79897
2.8082
2.81988
2.83409
2.84975
2.86683
2.8842
2.90204
2.92004
2.93891
2.95905
2.98003
2.99716
3.00944
3.01732
3.02259
3.02579
3.02813
3.02985
3.03124
3.03289
3.03427
3.03528
3.03479
3.03433
3.0319
3.03213
3.02982
3.02649
3.02323
3.02544
3.02408
3.03128
0.999905
0.99991
0.9999
0.999884
0.999861
0.999831
0.999793
0.999745
0.999687
0.999616
0.999533
0.999436
0.999323
0.999195
0.999048
0.998884
0.998701
0.998499
0.998279
0.998041
0.99778
0.99751
0.997218
0.996898
0.996593
0.996277
0.995893
0.99552
0.995211
0.994866
0.994409
0.994001
0.993694
0.993415
0.99305
0.99253
0.992119
0.991814
0.991574
0.991388
0.991131
0.990732
0.990204
0.989856
0.989542
0.989317
0.989108
0.988916
0.988719
0.988592
0.988656
0.989905
1.00502
1.32809
1.9657
2.04714
2.0534
2.05973
2.06269
2.06336
2.0849
2.13331
2.3164
2.51982
2.76861
2.78311
2.77737
2.77395
2.77245
2.76912
2.77158
2.77132
2.77294
2.77619
2.77777
2.77806
2.77601
2.77602
2.77431
2.7718
2.77178
2.77207
2.77309
2.77508
2.77775
2.78205
2.78789
2.79667
2.80843
2.82269
2.83904
2.85695
2.87567
2.89483
2.91399
2.9335
2.9542
2.97492
2.99231
3.00523
3.01393
3.01978
3.02332
3.02563
3.02706
3.02815
3.02918
3.02953
3.0299
3.02915
3.02784
3.02495
3.02515
3.02273
3.01957
3.01664
3.01904
3.01802
3.02452
0.999907
0.999912
0.999901
0.999886
0.999863
0.999834
0.999796
0.999749
0.999692
0.999623
0.999541
0.999446
0.999335
0.999209
0.999065
0.998904
0.998725
0.998527
0.998311
0.998076
0.997822
0.997552
0.997265
0.996958
0.996643
0.996329
0.99597
0.995599
0.995275
0.994918
0.994473
0.994076
0.993766
0.993473
0.993095
0.99259
0.992182
0.991865
0.991605
0.991391
0.991179
0.990859
0.990418
0.989951
0.989632
0.989371
0.989118
0.9889
0.988705
0.988408
0.988602
0.990997
1.02213
1.58649
2.04907
2.05138
2.05141
2.05772
2.07134
2.09796
2.17256
2.27597
2.55248
2.73051
2.82318
2.81568
2.7967
2.78378
2.77088
2.76283
2.76068
2.75835
2.75763
2.75777
2.75759
2.75839
2.75788
2.75806
2.75721
2.75743
2.7576
2.75861
2.76032
2.76248
2.7658
2.77025
2.77644
2.78515
2.79651
2.81068
2.82745
2.84645
2.86657
2.88689
2.90703
2.92754
2.94889
2.9699
2.98752
3.00089
3.01008
3.01631
3.01994
3.02207
3.02321
3.02398
3.02448
3.02428
3.02431
3.02327
3.02115
3.01771
3.01781
3.01531
3.01264
3.01008
3.0125
3.0117
3.01766
0.999908
0.999913
0.999902
0.999888
0.999866
0.999837
0.9998
0.999754
0.999697
0.99963
0.99955
0.999457
0.999348
0.999225
0.999084
0.998927
0.998751
0.998558
0.998346
0.998116
0.997868
0.997602
0.997323
0.997027
0.996704
0.996383
0.996055
0.995697
0.995341
0.994984
0.994577
0.994185
0.993842
0.993522
0.993152
0.992701
0.992297
0.99194
0.99163
0.991385
0.991185
0.990927
0.990582
0.990113
0.989735
0.989447
0.989117
0.988907
0.988616
0.98828
0.988579
0.994311
1.09104
1.83153
2.06897
2.07368
2.07338
2.08061
2.10046
2.15659
2.31202
2.49418
2.76061
2.82991
2.82643
2.80847
2.78955
2.77073
2.75789
2.74835
2.74254
2.73801
2.73482
2.73378
2.73335
2.73482
2.73653
2.73792
2.73938
2.74111
2.74233
2.74404
2.74591
2.74796
2.75135
2.75612
2.76328
2.77263
2.78442
2.79855
2.81519
2.83414
2.85459
2.87553
2.89652
2.9181
2.94044
2.96216
2.98026
2.99433
3.00426
3.01109
3.01513
3.01728
3.0183
3.01887
3.01919
3.01885
3.01851
3.01714
3.01425
3.01025
3.01012
3.00767
3.00572
3.00343
3.00574
3.00508
3.01067
0.999909
0.999914
0.999904
0.999889
0.999868
0.99984
0.999803
0.999758
0.999704
0.999638
0.99956
0.999469
0.999363
0.999243
0.999106
0.998952
0.998781
0.998593
0.998386
0.998161
0.99792
0.99766
0.997388
0.9971
0.996781
0.996455
0.996126
0.99579
0.995455
0.995083
0.994674
0.994289
0.993947
0.993612
0.993226
0.992794
0.992414
0.992075
0.991743
0.991439
0.991174
0.990907
0.990606
0.990288
0.989968
0.989661
0.989421
0.989245
0.989149
0.989132
0.990314
1.00508
1.30419
1.96802
2.06543
2.07451
2.0855
2.11349
2.16425
2.27135
2.53129
2.71326
2.83451
2.82978
2.81204
2.79495
2.77583
2.75913
2.74447
2.73293
2.72432
2.7174
2.71253
2.71039
2.70994
2.71063
2.71234
2.71571
2.71985
2.72236
2.72402
2.72636
2.72869
2.73189
2.73612
2.74185
2.74951
2.75929
2.77097
2.78476
2.80095
2.81964
2.84035
2.86207
2.88421
2.90712
2.93081
2.95378
2.97281
2.98785
2.99855
3.00582
3.01012
3.01225
3.0132
3.01366
3.01395
3.0134
3.01268
3.01085
3.00716
3.00269
3.00219
2.99978
2.99867
2.99667
2.99869
2.99812
3.00321
0.999911
0.999916
0.999906
0.999892
0.999871
0.999843
0.999808
0.999764
0.99971
0.999646
0.99957
0.999482
0.999379
0.999262
0.999129
0.99898
0.998814
0.998631
0.998429
0.998211
0.997976
0.997724
0.997462
0.997187
0.996871
0.996535
0.996204
0.995915
0.995602
0.995187
0.994763
0.994412
0.994083
0.993718
0.993287
0.992877
0.992546
0.992217
0.991877
0.991493
0.991179
0.990909
0.990653
0.990382
0.990107
0.989808
0.989518
0.989323
0.989022
0.989119
0.991512
1.0248
1.59186
2.06461
2.06853
2.07461
2.09295
2.15316
2.28881
2.4709
2.74007
2.82318
2.82797
2.8114
2.79385
2.77565
2.75869
2.74239
2.72795
2.71605
2.70682
2.70013
2.69526
2.69246
2.69128
2.69121
2.69151
2.69433
2.69855
2.7026
2.70631
2.70918
2.71223
2.71569
2.7202
2.72598
2.73372
2.74351
2.75515
2.76885
2.78476
2.80306
2.82368
2.84596
2.86935
2.89389
2.91934
2.94393
2.96418
2.98027
2.99178
2.99948
3.00401
3.00631
3.00741
3.00784
3.00814
3.00736
3.00645
3.00416
2.99975
2.99498
2.99404
2.99164
2.99135
2.98965
2.99133
2.99076
2.99523
0.999913
0.999917
0.999908
0.999894
0.999873
0.999847
0.999812
0.99977
0.999717
0.999655
0.999582
0.999496
0.999397
0.999283
0.999155
0.999011
0.99885
0.998673
0.998478
0.998267
0.998039
0.997793
0.997549
0.997284
0.996961
0.996619
0.996323
0.996073
0.995759
0.995302
0.994881
0.994539
0.994192
0.993789
0.993395
0.993066
0.992707
0.992268
0.991885
0.991576
0.991333
0.991085
0.990724
0.990277
0.98997
0.989691
0.989425
0.989217
0.988571
0.988811
0.994681
1.11381
1.85534
2.07251
2.08633
2.10815
2.14438
2.25804
2.5061
2.70558
2.83195
2.82871
2.80978
2.79026
2.7706
2.75368
2.73731
2.7227
2.71016
2.69978
2.69132
2.68445
2.67893
2.6749
2.67286
2.67248
2.67257
2.6747
2.6778
2.68228
2.68745
2.69141
2.69559
2.69947
2.70449
2.71085
2.71897
2.7286
2.73987
2.7531
2.76852
2.78626
2.80642
2.82874
2.8528
2.87859
2.90575
2.93212
2.95381
2.97113
2.98359
2.99184
2.99678
2.99943
3.00082
3.00132
3.00171
3.00074
2.99978
2.99708
2.99217
2.98719
2.9859
2.98343
2.98371
2.98232
2.98373
2.98307
2.98688
0.999914
0.999919
0.99991
0.999896
0.999876
0.999851
0.999817
0.999776
0.999725
0.999665
0.999594
0.999511
0.999416
0.999307
0.999183
0.999044
0.99889
0.99872
0.998534
0.998331
0.998108
0.99787
0.997647
0.997385
0.997051
0.996731
0.996471
0.996242
0.995924
0.995469
0.995027
0.994648
0.994261
0.993911
0.993638
0.993319
0.992819
0.992269
0.991929
0.991739
0.991612
0.991342
0.990784
0.990175
0.989888
0.989699
0.989684
0.98963
0.989307
0.990926
1.00712
1.38171
1.98874
2.06325
2.08788
2.15767
2.2561
2.45325
2.71472
2.82039
2.82935
2.80662
2.78326
2.76351
2.74573
2.73018
2.71671
2.70525
2.69522
2.68639
2.67834
2.67094
2.66455
2.65951
2.65628
2.65496
2.6546
2.6559
2.65803
2.66255
2.668
2.67315
2.67888
2.68325
2.68908
2.69606
2.70393
2.71258
2.72285
2.73533
2.75011
2.76728
2.78689
2.80893
2.83347
2.86052
2.88967
2.91819
2.9418
2.96062
2.97436
2.98356
2.98926
2.99243
2.99418
2.99474
2.99523
2.99406
2.99292
2.98976
2.98437
2.97927
2.97774
2.97523
2.97578
2.97462
2.97584
2.97519
2.97834
0.999916
0.999921
0.999912
0.999899
0.99988
0.999855
0.999823
0.999783
0.999734
0.999676
0.999608
0.999528
0.999436
0.999332
0.999213
0.999081
0.998934
0.998772
0.998597
0.9984
0.998182
0.997957
0.997751
0.997488
0.997158
0.996868
0.996628
0.996421
0.996121
0.995669
0.995171
0.994764
0.994404
0.994141
0.993916
0.993529
0.992886
0.992378
0.992081
0.991927
0.99178
0.991435
0.990775
0.990183
0.989797
0.989654
0.989342
0.989058
0.988483
0.992031
1.0361
1.7132
2.06718
2.09799
2.1337
2.2514
2.46528
2.6745
2.81394
2.82303
2.80309
2.77917
2.75799
2.73961
2.72406
2.71081
2.69966
2.69018
2.68174
2.67381
2.6659
2.65822
2.65132
2.64573
2.64173
2.63964
2.63862
2.63924
2.64072
2.64428
2.64851
2.65406
2.66113
2.66656
2.67354
2.68093
2.6888
2.69711
2.70695
2.71897
2.73332
2.74998
2.76903
2.79066
2.81518
2.84268
2.87326
2.90365
2.92903
2.94921
2.96407
2.97419
2.98073
2.98454
2.98677
2.9875
2.98822
2.98693
2.98567
2.98206
2.97633
2.97117
2.96944
2.96688
2.9676
2.9666
2.96775
2.96707
2.96955
0.999918
0.999923
0.999914
0.999902
0.999883
0.999859
0.999828
0.99979
0.999743
0.999688
0.999622
0.999546
0.999459
0.999359
0.999246
0.999121
0.998981
0.998832
0.998667
0.998474
0.998263
0.998059
0.997866
0.997598
0.997279
0.997015
0.996803
0.996632
0.996344
0.99586
0.995338
0.994957
0.99464
0.994395
0.994143
0.993722
0.993072
0.99264
0.992294
0.991969
0.991685
0.991378
0.990957
0.990537
0.990217
0.989881
0.989599
0.989118
0.989978
1.00223
1.21638
1.94533
2.09626
2.14905
2.23889
2.42631
2.68627
2.80458
2.82777
2.8048
2.77896
2.76139
2.7435
2.72764
2.71308
2.70019
2.68919
2.67947
2.67052
2.66187
2.65338
2.64526
2.63804
2.63228
2.62792
2.62525
2.62372
2.62385
2.62441
2.62666
2.62948
2.63462
2.64185
2.64843
2.65691
2.66471
2.67288
2.68112
2.6905
2.70192
2.71545
2.73128
2.74976
2.77103
2.79548
2.82329
2.85479
2.88684
2.91459
2.93626
2.95262
2.96388
2.9715
2.9761
2.97887
2.97986
2.98082
2.97949
2.97805
2.97409
2.96818
2.96297
2.9611
2.9585
2.95927
2.95826
2.95923
2.9585
2.96078
0.999921
0.999925
0.999917
0.999905
0.999887
0.999864
0.999834
0.999798
0.999753
0.9997
0.999638
0.999566
0.999483
0.999389
0.999283
0.999164
0.999032
0.998896
0.998741
0.998553
0.998353
0.998179
0.997993
0.997718
0.997415
0.997183
0.997008
0.996863
0.996576
0.996071
0.995583
0.995229
0.994905
0.994629
0.994386
0.994004
0.99343
0.99292
0.992497
0.992062
0.991679
0.991412
0.991384
0.99116
0.990677
0.989948
0.988773
0.98867
0.991448
1.02315
1.53726
2.10185
2.13319
2.24163
2.3967
2.66684
2.80268
2.83288
2.80962
2.77965
2.7596
2.7408
2.72648
2.71297
2.7002
2.68859
2.67811
2.66855
2.6591
2.6496
2.64073
2.63264
2.6256
2.61999
2.61549
2.61234
2.61033
2.60994
2.60974
2.61099
2.61294
2.61696
2.62244
2.62876
2.63765
2.64565
2.65457
2.66327
2.67311
2.68463
2.6979
2.71338
2.73142
2.75224
2.77629
2.80387
2.83572
2.86901
2.899
2.92223
2.94014
2.95284
2.96161
2.96718
2.97048
2.97182
2.97297
2.9717
2.97011
2.96596
2.95994
2.95465
2.95247
2.94973
2.95051
2.94954
2.95039
2.94986
2.95139
0.999923
0.999928
0.99992
0.999908
0.999892
0.999869
0.999841
0.999806
0.999764
0.999714
0.999655
0.999587
0.999509
0.99942
0.999321
0.99921
0.999087
0.998966
0.998819
0.998635
0.998458
0.998312
0.998134
0.997856
0.997581
0.997373
0.997213
0.997092
0.996827
0.996353
0.995891
0.995531
0.995194
0.994919
0.994709
0.994378
0.993789
0.993123
0.992625
0.992199
0.991914
0.991811
0.991864
0.991384
0.990366
0.989065
0.987757
0.988163
0.996398
1.1222
1.86259
2.11939
2.21825
2.42887
2.64212
2.82102
2.84091
2.82021
2.79274
2.76686
2.74375
2.72536
2.7106
2.6979
2.68622
2.67531
2.66512
2.65571
2.64623
2.63681
2.62824
2.62041
2.61367
2.60827
2.60399
2.60047
2.59774
2.59636
2.5954
2.59608
2.59705
2.60006
2.60396
2.60955
2.6179
2.6258
2.63549
2.64464
2.65546
2.66728
2.68038
2.6954
2.71273
2.73284
2.75621
2.78338
2.81509
2.84938
2.88152
2.90672
2.92634
2.94074
2.95092
2.95755
2.96163
2.96354
2.96486
2.96356
2.96178
2.9574
2.95132
2.94596
2.94361
2.94083
2.94162
2.94081
2.94133
2.94079
2.94213
0.999925
0.99993
0.999923
0.999912
0.999896
0.999875
0.999848
0.999815
0.999775
0.999728
0.999673
0.99961
0.999537
0.999455
0.999363
0.999259
0.999147
0.999042
0.9989
0.998726
0.998578
0.998455
0.998286
0.998021
0.997784
0.997586
0.997426
0.997311
0.997101
0.996702
0.996236
0.99588
0.995559
0.995307
0.995118
0.994773
0.994144
0.993473
0.992996
0.992662
0.992505
0.992522
0.99245
0.991935
0.991137
0.989538
0.989202
0.991899
1.01742
1.46541
2.07778
2.17855
2.39081
2.62783
2.78765
2.82708
2.80737
2.78217
2.76188
2.74012
2.71941
2.70265
2.68921
2.67813
2.6683
2.659
2.65
2.64121
2.63244
2.62403
2.61627
2.60892
2.60277
2.59732
2.5939
2.59016
2.58654
2.58381
2.58204
2.58203
2.58196
2.58373
2.58646
2.59149
2.59878
2.60623
2.61631
2.62591
2.6376
2.64974
2.66304
2.6779
2.69478
2.71427
2.73702
2.76365
2.79475
2.82924
2.86313
2.89024
2.9118
2.92807
2.93958
2.94736
2.95205
2.95475
2.95616
2.95501
2.95319
2.94874
2.9426
2.93724
2.93465
2.93177
2.93237
2.9316
2.93201
2.93198
2.93277
0.999928
0.999933
0.999926
0.999916
0.999901
0.999881
0.999856
0.999825
0.999788
0.999744
0.999692
0.999634
0.999567
0.999492
0.999407
0.99931
0.999214
0.999121
0.998987
0.99883
0.998706
0.998601
0.99845
0.998219
0.998014
0.997825
0.997669
0.997548
0.997393
0.997086
0.996646
0.996327
0.996029
0.995777
0.995545
0.995188
0.994606
0.994081
0.993667