/*--------------------------------*- C++ -*----------------------------------*\
| =========                 |                                                 |
| \\      /  F ield         | OpenFOAM: The Open Source CFD Toolbox           |
|  \\    /   O peration     | Version:  2.2.x                                 |
|   \\  /    A nd           | Web:      www.OpenFOAM.org                      |
|    \\/     M anipulation  |                                                 |
\*---------------------------------------------------------------------------*/
FoamFile
{
    version     2.0;
    format      ascii;
    class       volScalarField;
    location    "4";
    object      T;
}
// * * * * * * * * * * * * * * * * * * * * * * * * * * * * * * * * * * * * * //

dimensions      [0 0 0 1 0 0 0];

internalField   nonuniform List<scalar> 
14161
(
1
1
1
1
1
1
1
1
1
1
1
1
1
1
1.00324
0.960816
1.17743
1.33773
2.86049
2.96113
2.97003
2.9801
2.99063
3.00045
3.00908
3.01635
3.0225
3.02799
3.03369
3.03938
3.04484
3.04981
3.05449
3.05867
3.06261
3.06635
3.06998
3.07341
3.07675
3.07981
3.08277
3.08546
3.08804
3.09042
3.09271
3.09489
3.09712
3.09935
3.10158
3.10382
3.10606
3.10829
3.11051
3.11273
3.11494
3.11717
3.11941
3.12167
3.12395
3.12624
3.12853
3.13083
3.13313
3.13542
3.13771
3.13999
3.14227
3.14455
3.14684
3.14912
3.15141
3.15369
3.15597
3.15824
3.1605
3.16275
3.16502
3.16731
3.1696
3.17191
3.17423
3.17655
3.17887
3.18121
3.18355
3.1859
3.18825
3.1906
3.19294
3.19526
3.19756
3.19983
3.20213
3.20449
3.20693
3.20945
3.21204
3.21466
3.21727
3.21987
3.22242
3.2249
3.22731
3.22961
3.23175
3.23373
3.2358
3.23803
3.24029
3.24239
3.24416
3.24565
3.24723
3.24896
3.25071
3.25237
3.25382
3.25495
3.25576
1
1
1
1
1
1
1
1
1
1
1
1
1
0.999999
1.0009
0.99125
1.12622
1.37671
2.87109
2.96986
2.97633
2.98417
2.99315
3.0019
3.0099
3.0169
3.02296
3.02844
3.03411
3.0397
3.0451
3.05003
3.05468
3.05886
3.06279
3.06653
3.07015
3.07357
3.0769
3.07995
3.0829
3.08558
3.08816
3.09053
3.09282
3.095
3.09723
3.09945
3.10169
3.10393
3.10616
3.10838
3.1106
3.11282
3.11503
3.11725
3.11949
3.12176
3.12403
3.12632
3.12861
3.13091
3.1332
3.13549
3.13778
3.14005
3.14233
3.1446
3.14689
3.14917
3.15145
3.15373
3.15601
3.15828
3.16054
3.16279
3.16505
3.16733
3.16962
3.17192
3.17423
3.17654
3.17886
3.18119
3.18353
3.18588
3.18823
3.19056
3.19289
3.19521
3.19751
3.19977
3.20206
3.20442
3.20686
3.20938
3.21196
3.21457
3.21719
3.21977
3.22232
3.22479
3.22719
3.22949
3.23162
3.23359
3.23566
3.23787
3.24012
3.2422
3.24396
3.24543
3.24698
3.24868
3.25041
3.25206
3.25351
3.2546
3.25519
1
1
1
1
1
1
1
1
1
1
1
1
1
1
1.00038
0.99678
1.11883
1.39528
2.87724
2.97715
2.98225
2.98861
2.99611
3.00367
3.01098
3.01761
3.02357
3.02911
3.03477
3.04022
3.04548
3.05027
3.05483
3.05899
3.06292
3.06666
3.07028
3.07369
3.077
3.08003
3.08296
3.08563
3.0882
3.09056
3.09285
3.09503
3.09725
3.09948
3.10171
3.10394
3.10617
3.10839
3.1106
3.11281
3.11502
3.11724
3.11947
3.12173
3.124
3.12629
3.12858
3.13087
3.13316
3.13545
3.13772
3.13999
3.14226
3.14453
3.14681
3.14909
3.15137
3.15365
3.15591
3.15818
3.16043
3.16267
3.16493
3.16721
3.1695
3.1718
3.17412
3.17643
3.17875
3.18108
3.18341
3.18576
3.18811
3.19045
3.19278
3.1951
3.19739
3.19965
3.20194
3.20429
3.20673
3.20925
3.21183
3.21443
3.21703
3.21961
3.22214
3.22461
3.227
3.22927
3.23138
3.23334
3.23539
3.23759
3.23981
3.24186
3.24357
3.24499
3.24649
3.24814
3.24984
3.25147
3.25284
3.25372
3.2542
1
1
1
1
1
1
1
1
1
1
1
1
1
1
1.00031
0.99793
1.12093
1.39967
2.87787
2.97842
2.98453
2.99119
2.99827
3.00539
3.01231
3.01865
3.02454
3.03013
3.0357
3.04099
3.04608
3.05075
3.05521
3.05934
3.06328
3.06701
3.07061
3.07399
3.07726
3.08027
3.08317
3.08582
3.08838
3.09074
3.09301
3.0952
3.09742
3.09964
3.10187
3.10409
3.10631
3.10852
3.11073
3.11293
3.11513
3.11734
3.11957
3.12182
3.12409
3.12637
3.12865
3.13093
3.1332
3.13548
3.13774
3.14
3.14226
3.14452
3.14679
3.14906
3.15132
3.15359
3.15584
3.15809
3.16033
3.16257
3.16482
3.16709
3.16938
3.17168
3.17399
3.1763
3.17862
3.18095
3.18328
3.18562
3.18796
3.19029
3.19262
3.19493
3.19721
3.19946
3.20175
3.20411
3.20654
3.20906
3.21163
3.21423
3.21682
3.21938
3.2219
3.22435
3.22671
3.22896
3.23103
3.23296
3.235
3.23717
3.23935
3.24134
3.24298
3.24433
3.24576
3.24735
3.24901
3.25057
3.25182
3.25249
3.25276
1
1
1
1
1
1
1
1
1
1
1
1
1
0.999999
1.0005
0.997556
1.12787
1.39007
2.87165
2.97511
2.98344
2.99114
2.99856
3.00567
3.0126
3.01904
3.02508
3.03077
3.03629
3.0415
3.0465
3.05114
3.05556
3.05971
3.06367
3.06741
3.07102
3.07439
3.07762
3.08061
3.08348
3.08613
3.08867
3.09102
3.09326
3.09545
3.09765
3.09986
3.10208
3.10429
3.1065
3.1087
3.1109
3.1131
3.1153
3.11751
3.11973
3.12198
3.12423
3.12649
3.12876
3.13103
3.13329
3.13555
3.1378
3.14005
3.1423
3.14455
3.14681
3.14907
3.15132
3.15357
3.15581
3.15804
3.16026
3.16249
3.16474
3.167
3.16927
3.17155
3.17384
3.17614
3.17844
3.18076
3.18308
3.1854
3.18773
3.19005
3.19236
3.19466
3.19692
3.19917
3.20146
3.20381
3.20626
3.20878
3.21134
3.21393
3.21651
3.21906
3.22155
3.22397
3.22631
3.22851
3.23054
3.23244
3.23444
3.23658
3.23871
3.24062
3.24217
3.24344
3.24478
3.2463
3.2479
3.24937
3.25045
3.25089
3.25094
1
1
1
1
1
1
1
1
1
1
1
1
1
0.999998
1.00162
0.992839
1.135
1.38247
2.86898
2.9729
2.98226
2.99044
2.99805
3.00534
3.01238
3.01901
3.02523
3.03103
3.03656
3.04175
3.04671
3.05136
3.05578
3.05996
3.06396
3.06773
3.07135
3.07473
3.07796
3.08094
3.0838
3.08645
3.08898
3.09133
3.09357
3.09576
3.09796
3.10016
3.10235
3.10454
3.10673
3.10891
3.11109
3.11327
3.11546
3.11766
3.11987
3.1221
3.12434
3.12659
3.12883
3.13108
3.13333
3.13557
3.13781
3.14004
3.14228
3.14451
3.14675
3.14898
3.15121
3.15343
3.15565
3.15786
3.16006
3.16227
3.1645
3.16674
3.169
3.17126
3.17354
3.17582
3.17811
3.18042
3.18273
3.18505
3.18738
3.1897
3.192
3.19428
3.19653
3.19877
3.20106
3.20342
3.20587
3.20838
3.21094
3.21352
3.21608
3.21861
3.22108
3.22348
3.22577
3.22793
3.2299
3.23177
3.23374
3.23583
3.2379
3.23972
3.24116
3.24231
3.24356
3.245
3.24652
3.24787
3.24868
3.24891
3.24868
1
1
1
1
1
1
1
1
1
1
1
1
1
0.999999
1.00033
0.998255
1.1318
1.38097
2.86805
2.9715
2.98094
2.98936
2.9972
3.00465
3.01178
3.0185
3.02482
3.03072
3.03627
3.04149
3.04645
3.05113
3.05555
3.05976
3.06376
3.06754
3.07116
3.07453
3.07776
3.08076
3.08362
3.08628
3.08883
3.09119
3.09346
3.09564
3.09783
3.10002
3.1022
3.10439
3.10657
3.10874
3.11092
3.1131
3.11529
3.11748
3.11969
3.12192
3.12415
3.12639
3.12863
3.13087
3.13311
3.13534
3.13757
3.1398
3.14202
3.14425
3.14647
3.14869
3.15091
3.15312
3.15533
3.15753
3.15973
3.16194
3.16417
3.16641
3.16867
3.17093
3.1732
3.17548
3.17777
3.18007
3.18238
3.18469
3.18701
3.18931
3.19161
3.19387
3.19611
3.19835
3.20064
3.203
3.20543
3.20794
3.21048
3.21303
3.21558
3.21808
3.22053
3.22288
3.22514
3.22724
3.22914
3.23097
3.2329
3.23494
3.23692
3.23863
3.23994
3.24097
3.24211
3.24346
3.24487
3.24603
3.24657
3.24654
3.24596
1
1
1
1
1
1
1
1
1
1
1
1
1
0.999999
1.00016
0.999089
1.13051
1.38157
2.86841
2.97121
2.98038
2.98879
2.99667
3.00418
3.01131
3.01801
3.0243
3.03022
3.0358
3.04104
3.04604
3.05076
3.05519
3.05941
3.06341
3.06718
3.07078
3.07416
3.07737
3.08038
3.08324
3.08592
3.08847
3.09085
3.09312
3.09531
3.09749
3.09966
3.10184
3.10401
3.10618
3.10835
3.11051
3.11268
3.11486
3.11705
3.11926
3.12148
3.12371
3.12594
3.12819
3.13043
3.13267
3.13491
3.13714
3.13937
3.14161
3.14384
3.14607
3.1483
3.15052
3.15274
3.15496
3.15718
3.15939
3.16162
3.16387
3.16613
3.16839
3.17066
3.17294
3.17522
3.1775
3.17979
3.18209
3.18439
3.18669
3.18898
3.19125
3.1935
3.19571
3.19792
3.20019
3.20253
3.20495
3.20744
3.20996
3.21249
3.215
3.21747
3.21987
3.22218
3.22437
3.2264
3.22823
3.23
3.23188
3.23385
3.23573
3.23732
3.23849
3.23937
3.2404
3.24166
3.24293
3.24381
3.24412
3.24386
3.2429
1
1
1
1
1
1
1
1
1
1
1
1
1
0.999999
1.00011
0.999265
1.12969
1.38025
2.86821
2.97133
2.98024
2.98858
2.99641
3.0039
3.01096
3.01765
3.02391
3.02983
3.03539
3.04065
3.04566
3.05041
3.05484
3.05907
3.06306
3.06683
3.07042
3.07378
3.07698
3.07998
3.08282
3.08551
3.08806
3.09045
3.09273
3.09492
3.0971
3.09928
3.10145
3.10361
3.10577
3.10793
3.11008
3.11224
3.1144
3.11657
3.11876
3.12096
3.12318
3.12541
3.12764
3.12987
3.1321
3.13433
3.13656
3.13877
3.14099
3.1432
3.14541
3.14762
3.14982
3.15201
3.15421
3.1564
3.1586
3.1608
3.16302
3.16525
3.16749
3.16974
3.172
3.17426
3.17654
3.17884
3.18114
3.18345
3.18575
3.18804
3.19031
3.19256
3.19476
3.19697
3.19924
3.20159
3.20401
3.2065
3.20903
3.21155
3.21406
3.21652
3.21891
3.22119
3.22334
3.22532
3.22709
3.22883
3.23067
3.23257
3.23437
3.23582
3.23682
3.23757
3.23848
3.23961
3.24067
3.24123
3.2413
3.24083
3.23941
1
1
1
1
1
1
1
1
1
1
1
1
1
0.999995
1.0001
0.999498
1.12912
1.3793
2.86804
2.97151
2.98018
2.9884
2.99611
3.00356
3.01052
3.01717
3.02337
3.02928
3.0348
3.04008
3.04507
3.04982
3.05423
3.05847
3.06243
3.06618
3.06973
3.07307
3.07624
3.07922
3.08204
3.08472
3.08726
3.08963
3.09192
3.09411
3.09629
3.09847
3.10064
3.1028
3.10496
3.10711
3.10926
3.1114
3.11355
3.11571
3.11788
3.12007
3.12226
3.12446
3.12666
3.12887
3.13108
3.13329
3.13549
3.13769
3.13989
3.14209
3.14429
3.14649
3.14867
3.15086
3.15305
3.15524
3.15745
3.15966
3.16189
3.16414
3.1664
3.16867
3.17095
3.17324
3.17554
3.17785
3.18017
3.18249
3.1848
3.18709
3.18938
3.19164
3.19388
3.19614
3.19845
3.20081
3.20324
3.20572
3.20822
3.21072
3.2132
3.21563
3.21799
3.22024
3.22235
3.22426
3.22596
3.22764
3.22941
3.23123
3.23289
3.23416
3.23497
3.23557
3.23638
3.23735
3.23806
3.23838
3.23816
3.23738
3.23549
1
1
1
1
1
1
1
1
1
1
1
1
0.999998
0.999975
1.00003
0.999114
1.12982
1.37429
2.86609
2.97083
2.97965
2.98797
2.9957
3.00315
3.01004
3.01668
3.02284
3.02875
3.03426
3.03956
3.04454
3.0493
3.05372
3.05795
3.0619
3.06565
3.06918
3.0725
3.07565
3.07863
3.08144
3.08411
3.08663
3.089
3.09126
3.09343
3.09558
3.09773
3.09987
3.10201
3.10415
3.10628
3.10842
3.11056
3.1127
3.11485
3.117
3.11916
3.12132
3.12349
3.12567
3.12785
3.13003
3.13221
3.13439
3.13657
3.13875
3.14093
3.14311
3.14529
3.14746
3.14964
3.15181
3.154
3.15619
3.1584
3.16063
3.16288
3.16515
3.16743
3.16972
3.17203
3.17434
3.17666
3.17899
3.18131
3.18362
3.18592
3.18821
3.19048
3.19274
3.19501
3.19733
3.1997
3.20213
3.20461
3.2071
3.20958
3.21202
3.21441
3.21672
3.21893
3.22097
3.22281
3.22444
3.22607
3.2278
3.22954
3.2311
3.23222
3.23285
3.23334
3.23405
3.23477
3.23517
3.23524
3.23473
3.23368
3.23132
1
1
1
1
1
1
1
1
1
1
1
1
1
0.999991
1.00003
0.998886
1.1304
1.36887
2.86362
2.97022
2.97925
2.98764
2.99539
3.00281
3.00964
3.01627
3.02238
3.02828
3.03379
3.03908
3.04405
3.0488
3.05321
3.05742
3.06135
3.06507
3.06856
3.07185
3.07497
3.07792
3.08071
3.08335
3.08586
3.08822
3.09047
3.09264
3.09477
3.09691
3.09904
3.10116
3.10328
3.10541
3.10753
3.10966
3.1118
3.11393
3.11606
3.11819
3.12032
3.12246
3.12461
3.12676
3.12891
3.13106
3.13321
3.13537
3.13754
3.1397
3.14187
3.14403
3.14618
3.14834
3.1505
3.15267
3.15486
3.15707
3.15929
3.16153
3.16378
3.16605
3.16833
3.17062
3.17293
3.17524
3.17757
3.17989
3.18222
3.18453
3.18684
3.18913
3.19142
3.19372
3.19605
3.19844
3.20088
3.20336
3.20585
3.20833
3.21077
3.21314
3.21541
3.21755
3.21951
3.22125
3.2228
3.22437
3.22603
3.22769
3.22911
3.23005
3.23051
3.23091
3.23147
3.23185
3.23202
3.2318
3.23096
3.22957
3.22668
1
1
1
1
1
1
1
1
1
1
1
1
1
1
1.00007
0.999379
1.12881
1.36499
2.86255
2.96988
2.97864
2.98694
2.99459
3.002
3.00877
3.01541
3.02148
3.02737
3.03285
3.03813
3.04306
3.04779
3.05217
3.05636
3.06026
3.06395
3.06742
3.0707
3.07379
3.07671
3.07949
3.0821
3.08459
3.08693
3.08917
3.09132
3.09344
3.09556
3.09767
3.09978
3.10188
3.10398
3.10609
3.1082
3.11032
3.11243
3.11453
3.11663
3.11874
3.12085
3.12297
3.1251
3.12724
3.12939
3.13155
3.1337
3.13586
3.13801
3.14016
3.1423
3.14445
3.14659
3.14874
3.15091
3.15309
3.1553
3.15753
3.15977
3.16204
3.16432
3.16663
3.16895
3.17129
3.17363
3.17597
3.1783
3.18062
3.18292
3.18523
3.18754
3.18986
3.19219
3.19455
3.19696
3.19941
3.2019
3.20439
3.20685
3.20926
3.21161
3.21385
3.21594
3.21787
3.21955
3.22104
3.22254
3.22412
3.22566
3.22693
3.22768
3.22799
3.22829
3.22859
3.22869
3.22858
3.22808
3.22687
3.22517
3.22173
1
1
1
1
1
1
1
1
1
1
1
1
1
0.999995
1.00002
0.999099
1.12883
1.35742
2.86028
2.96925
2.97783
2.98609
2.99366
3.00106
3.00782
3.01449
3.02056
3.02646
3.03195
3.03721
3.04213
3.04684
3.05121
3.05538
3.05927
3.06297
3.06643
3.06971
3.0728
3.07572
3.07847
3.08106
3.0835
3.08582
3.08801
3.09012
3.0922
3.09428
3.09636
3.09844
3.10052
3.10259
3.10466
3.10674
3.10882
3.11091
3.11299
3.11507
3.11715
3.11924
3.12134
3.12345
3.12556
3.12769
3.12982
3.13195
3.13408
3.1362
3.13834
3.14047
3.14261
3.14475
3.14689
3.14905
3.15123
3.15343
3.15565
3.15789
3.16015
3.16242
3.16471
3.16702
3.16935
3.17169
3.17404
3.17639
3.17873
3.18108
3.18344
3.18579
3.18815
3.19051
3.1929
3.19531
3.19777
3.20024
3.20271
3.20515
3.20753
3.20983
3.21203
3.21408
3.21593
3.21753
3.21895
3.22038
3.22189
3.22334
3.22444
3.22501
3.22519
3.22535
3.22544
3.22522
3.22484
3.22405
3.22241
3.22044
3.21641
1
1
1
1
1
1
1
1
1
1
1
1
1
0.999997
1.00003
0.999096
1.12822
1.34961
2.85725
2.96838
2.97697
2.98523
2.99278
3.00018
3.00692
3.01358
3.01965
3.02554
3.03102
3.03625
3.04114
3.04581
3.05014
3.0543
3.05816
3.06186
3.06531
3.0686
3.07167
3.07459
3.07731
3.0799
3.0823
3.08459
3.08674
3.08881
3.09085
3.09289
3.09494
3.09698
3.09902
3.10106
3.10309
3.10514
3.10718
3.10924
3.11129
3.11336
3.11543
3.1175
3.11958
3.12167
3.12377
3.12588
3.12799
3.13011
3.13222
3.13432
3.13643
3.13854
3.14065
3.14276
3.14488
3.14702
3.14918
3.15136
3.15356
3.15578
3.15802
3.16028
3.16257
3.16487
3.16719
3.16953
3.17188
3.17424
3.17658
3.17892
3.18129
3.18366
3.18604
3.18843
3.19084
3.19329
3.19578
3.19828
3.20077
3.20321
3.20558
3.20788
3.21005
3.21206
3.21386
3.2154
3.21675
3.21812
3.21955
3.22088
3.22179
3.22217
3.22222
3.22222
3.22199
3.22153
3.22084
3.21973
3.21762
3.21533
3.21068
1
1
1
1
1
1
1
1
1
1
1
1
1
1.00001
1.00007
0.999363
1.12646
1.34286
2.85504
2.96792
2.97624
2.98441
2.99186
2.99923
3.00594
3.01257
3.0186
3.02445
3.02987
3.03503
3.03987
3.04447
3.04875
3.05285
3.05666
3.06032
3.06373
3.06699
3.07004
3.07293
3.07563
3.0782
3.08059
3.08286
3.085
3.08706
3.08909
3.09112
3.09314
3.09516
3.09717
3.09918
3.10119
3.10321
3.10523
3.10725
3.10929
3.11133
3.11337
3.11542
3.11748
3.11954
3.1216
3.12368
3.12576
3.12784
3.12992
3.132
3.13408
3.13617
3.13826
3.14037
3.14249
3.14464
3.14683
3.14904
3.15127
3.15352
3.15579
3.15807
3.16036
3.16266
3.16498
3.16731
3.16964
3.17197
3.1743
3.17664
3.179
3.18136
3.18374
3.18615
3.18858
3.19105
3.19355
3.19607
3.19856
3.201
3.20336
3.20563
3.20777
3.20974
3.21147
3.21293
3.21421
3.2155
3.21684
3.21804
3.21878
3.21899
3.21891
3.21876
3.21824
3.21752
3.21652
3.21511
3.21255
3.20989
3.20468
1
1
1
1
1
1
1
1
1
1
1
1
1
0.999996
1.00002
0.999079
1.12589
1.33256
2.85167
2.96702
2.9753
2.98352
2.991
2.99837
3.00511
3.01169
3.0177
3.02348
3.02885
3.03396
3.03875
3.0433
3.04751
3.05155
3.05529
3.05888
3.06224
3.06543
3.06843
3.07127
3.07394
3.07646
3.07883
3.08107
3.08319
3.08524
3.08725
3.08925
3.09124
3.09323
3.0952
3.09718
3.09915
3.10113
3.10311
3.1051
3.10709
3.10909
3.1111
3.11311
3.11513
3.11715
3.11918
3.12121
3.12325
3.1253
3.12735
3.1294
3.13145
3.13352
3.13559
3.13769
3.13981
3.14197
3.14415
3.14636
3.14859
3.15085
3.15312
3.15541
3.15772
3.16004
3.16236
3.16469
3.16703
3.16937
3.17171
3.17407
3.17643
3.17881
3.1812
3.18361
3.18606
3.18854
3.19106
3.19358
3.19608
3.19852
3.20088
3.20314
3.20526
3.2072
3.20889
3.21029
3.2115
3.21272
3.21398
3.21504
3.21559
3.21562
3.21544
3.21499
3.21425
3.21321
3.2119
3.21016
3.20712
3.20405
3.19816
1
1
1
1
1
1
1
1
1
1
1
1
1
0.999996
1.00001
0.999022
1.12481
1.32135
2.84744
2.96583
2.9742
2.98249
2.99006
2.99741
3.00419
3.01069
3.01665
3.02236
3.02767
3.03273
3.03746
3.04196
3.04611
3.05008
3.05376
3.05728
3.06058
3.0637
3.06665
3.06943
3.07206
3.07454
3.07688
3.0791
3.0812
3.08322
3.08521
3.0872
3.08916
3.09113
3.09308
3.09503
3.09698
3.09893
3.10087
3.10283
3.1048
3.10677
3.10874
3.11072
3.11271
3.1147
3.11669
3.11869
3.12069
3.12271
3.12472
3.12674
3.12877
3.1308
3.13284
3.13491
3.137
3.13913
3.1413
3.14349
3.14572
3.14798
3.15026
3.15256
3.15487
3.15721
3.15955
3.16189
3.16423
3.16657
3.16893
3.1713
3.17367
3.17605
3.17845
3.18086
3.18331
3.1858
3.18831
3.19083
3.19332
3.19575
3.19809
3.20034
3.20243
3.20433
3.20598
3.20731
3.20845
3.20961
3.21077
3.21168
3.21205
3.2119
3.21162
3.21091
3.20991
3.20859
3.20695
3.20489
3.2014
3.19789
3.19136
1
1
1
1
1
1
1
1
1
1
1
1
1
0.999999
1
0.999278
1.12264
1.3109
2.84364
2.96499
2.97327
2.98143
2.989
2.99629
3.003
3.00945
3.01532
3.02099
3.02622
3.03125
3.03593
3.04039
3.04449
3.04841
3.05202
3.05548
3.05871
3.06177
3.06466
3.06738
3.06995
3.07239
3.07468
3.07686
3.07892
3.08092
3.08288
3.08485
3.0868
3.08874
3.09067
3.09259
3.09451
3.09642
3.09834
3.10025
3.10217
3.1041
3.10603
3.10796
3.10989
3.11184
3.11379
3.11574
3.11771
3.11969
3.12167
3.12366
3.12566
3.12767
3.1297
3.13174
3.13382
3.13594
3.13809
3.14029
3.14252
3.14479
3.14709
3.1494
3.15174
3.15409
3.15644
3.1588
3.16115
3.1635
3.16587
3.16826
3.17064
3.17303
3.17543
3.17785
3.18032
3.18281
3.18533
3.18786
3.19035
3.19279
3.19514
3.19738
3.19945
3.20132
3.20291
3.20417
3.20524
3.20632
3.20737
3.20809
3.20827
3.20806
3.2075
3.20658
3.20528
3.20367
3.20168
3.19929
3.19532
3.19135
3.18409
1
1
1
1
1
1
1
1
1
1
1
1
1
0.999999
1
0.999153
1.12073
1.29831
2.83908
2.96429
2.97256
2.98062
2.98803
2.99518
3.00175
3.0081
3.01388
3.01949
3.02466
3.02963
3.03426
3.03867
3.04273
3.0466
3.05016
3.05357
3.05674
3.05975
3.06258
3.06525
3.06778
3.07016
3.07241
3.07454
3.07656
3.07852
3.08045
3.08238
3.0843
3.08621
3.08811
3.09
3.09188
3.09376
3.09564
3.09751
3.09939
3.10126
3.10314
3.10502
3.10691
3.10881
3.11071
3.11263
3.11456
3.11651
3.11846
3.12042
3.12239
3.12438
3.12638
3.1284
3.13046
3.13256
3.1347
3.13688
3.13911
3.14139
3.14369
3.14602
3.14837
3.15073
3.15311
3.15548
3.15785
3.1602
3.16258
3.16496
3.16735
3.16975
3.17215
3.17458
3.17705
3.17954
3.18205
3.18456
3.18704
3.18945
3.19179
3.194
3.19605
3.19788
3.19943
3.20063
3.20165
3.20267
3.20361
3.20415
3.20414
3.20386
3.20307
3.20191
3.20034
3.19844
3.19609
3.19337
3.18894
3.1845
3.17658
1
1
1
1
1
1
1
1
1
1
1
1
1
0.999999
1
0.999127
1.11846
1.28522
2.83399
2.96341
2.97158
2.97961
2.98688
2.99393
3.0004
3.00668
3.01238
3.0179
3.02299
3.02787
3.03243
3.03678
3.04078
3.04459
3.04811
3.05146
3.05459
3.05755
3.06033
3.06295
3.06542
3.06775
3.06994
3.07202
3.07399
3.07591
3.0778
3.07969
3.08157
3.08344
3.0853
3.08716
3.089
3.09084
3.09267
3.09449
3.09631
3.09813
3.09996
3.10179
3.10363
3.10548
3.10735
3.10923
3.11112
3.11302
3.11494
3.11688
3.11881
3.12077
3.12275
3.12475
3.12678
3.12886
3.13099
3.13316
3.13538
3.13765
3.13996
3.14229
3.14465
3.14703
3.14942
3.15181
3.1542
3.15658
3.15897
3.16139
3.16381
3.16623
3.16866
3.1711
3.17358
3.17608
3.17859
3.18109
3.18356
3.18596
3.18828
3.19047
3.19249
3.19428
3.19577
3.1969
3.19785
3.19879
3.19958
3.19993
3.19983
3.19931
3.19834
3.19691
3.19507
3.19287
3.19016
3.18709
3.18219
3.17725
3.1685
1
1
1
1
1
1
1
1
1
1
1
1
1
1
1.00001
0.999228
1.1155
1.27217
2.82871
2.9625
2.97055
2.97849
2.98566
2.99265
2.99906
3.00526
3.01086
3.01628
3.02126
3.02603
3.03048
3.03474
3.03865
3.04239
3.04583
3.0491
3.05216
3.05505
3.05777
3.06032
3.06274
3.06501
3.06716
3.06919
3.07111
3.07298
3.07482
3.07667
3.0785
3.08032
3.08214
3.08395
3.08575
3.08754
3.08934
3.09112
3.0929
3.09467
3.09645
3.09824
3.10004
3.10185
3.10367
3.10551
3.10736
3.10924
3.11113
3.11303
3.11495
3.11689
3.11884
3.12083
3.12285
3.12493
3.12705
3.12922
3.13143
3.1337
3.13601
3.13835
3.14071
3.1431
3.1455
3.1479
3.1503
3.15269
3.1551
3.15754
3.15998
3.16241
3.16485
3.1673
3.16977
3.17228
3.17478
3.17727
3.17972
3.1821
3.18439
3.18655
3.18854
3.19028
3.19171
3.19279
3.19371
3.19457
3.19522
3.1954
3.1952
3.19448
3.1933
3.19163
3.18951
3.18699
3.18391
3.18048
3.17513
3.16967
3.16033
1
1
1
1
1
1
1
1
1
1
1
1
1
1
1.00003
0.999155
1.11242
1.25718
2.82238
2.96144
2.96953
2.97731
2.98435
2.99118
2.99747
3.00354
3.00904
3.01435
3.01922
3.02389
3.02823
3.03239
3.03621
3.03986
3.04322
3.0464
3.04937
3.05218
3.05482
3.05731
3.05966
3.06187
3.06397
3.06595
3.06783
3.06966
3.07146
3.07327
3.07506
3.07683
3.0786
3.08037
3.08213
3.08389
3.08565
3.08741
3.08917
3.09092
3.09267
3.09443
3.09619
3.09795
3.09974
3.10153
3.10334
3.10517
3.10703
3.10891
3.11081
3.11272
3.11466
3.11663
3.11864
3.12069
3.1228
3.12497
3.12719
3.12946
3.13177
3.13411
3.13648
3.13887
3.14127
3.14369
3.14609
3.1485
3.15094
3.15342
3.1559
3.15837
3.16085
3.16333
3.16582
3.16833
3.17083
3.17329
3.17571
3.17805
3.18031
3.18243
3.18437
3.18605
3.1874
3.18841
3.18928
3.19004
3.19054
3.19059
3.1902
3.18931
3.1879
3.18597
3.18357
3.18074
3.17729
3.17348
3.16768
3.16171
3.1514
1
1
1
1
1
1
1
1
1
1
1
1
1
0.999997
1.00004
0.999237
1.10828
1.24242
2.81611
2.96058
2.96847
2.976
2.98282
2.98939
2.99546
3.00136
3.0067
3.0119
3.01664
3.02121
3.02542
3.02948
3.03321
3.03678
3.04006
3.04317
3.04606
3.0488
3.05136
3.05379
3.05608
3.05825
3.0603
3.06224
3.06407
3.06587
3.06764
3.06941
3.07116
3.07289
3.07461
3.07633
3.07805
3.07977
3.0815
3.08321
3.08494
3.08667
3.0884
3.09013
3.09186
3.0936
3.09535
3.09712
3.0989
3.10071
3.10254
3.1044
3.10628
3.10819
3.11011
3.11207
3.11407
3.11612
3.11823
3.12041
3.12264
3.12492
3.12724
3.1296
3.13197
3.13437
3.13677
3.13918
3.14159
3.14399
3.14644
3.14893
3.15144
3.15394
3.15644
3.15895
3.16146
3.16398
3.16649
3.16895
3.17136
3.17368
3.1759
3.17798
3.17987
3.18148
3.18276
3.18372
3.18454
3.1852
3.18557
3.18552
3.18493
3.18386
3.18221
3.18003
3.17734
3.17419
3.17036
3.16615
3.1599
3.15335
3.14257
1
1
1
1
1
1
1
1
1
1
1
1
1
0.999989
0.999937
0.998915
1.10418
1.22449
2.80833
2.95916
2.96678
2.97399
2.98057
2.98695
2.99283
2.99859
3.00378
3.00885
3.01344
3.01788
3.02195
3.0259
3.02953
3.03303
3.03625
3.0393
3.04212
3.04479
3.04727
3.04963
3.05186
3.05397
3.05596
3.05786
3.05965
3.06142
3.06317
3.06492
3.06664
3.06835
3.07005
3.07175
3.07344
3.07513
3.07684
3.07854
3.08025
3.08196
3.08368
3.08541
3.08714
3.08887
3.09061
3.09236
3.09413
3.09593
3.09775
3.0996
3.10147
3.10336
3.10529
3.10724
3.10924
3.11129
3.1134
3.11558
3.11783
3.12012
3.12245
3.12481
3.1272
3.12961
3.13203
3.13445
3.13686
3.13926
3.14171
3.14421
3.14674
3.14926
3.15179
3.15432
3.15685
3.15939
3.1619
3.16437
3.16677
3.16907
3.17126
3.17329
3.17512
3.17665
3.17784
3.17874
3.17949
3.18006
3.18027
3.18007
3.17933
3.17805
3.17617
3.17373
3.17075
3.16727
3.16306
3.15846
3.15175
3.14471
3.13285
1
1
1
1
1
1
1
1
1
1
1
1
1
0.999989
1.00001
0.998259
1.10038
1.20374
2.79906
2.9568
2.96403
2.97098
2.97737
2.98364
2.98938
2.99506
3.00016
3.00515
3.00966
3.01399
3.01796
3.0218
3.02535
3.02877
3.03191
3.0349
3.03765
3.04024
3.04266
3.04493
3.04708
3.04912
3.05105
3.05289
3.05464
3.05637
3.0581
3.05982
3.06152
3.0632
3.06486
3.06652
3.06818
3.06983
3.07149
3.07316
3.07485
3.07653
3.07824
3.07995
3.08167
3.0834
3.08514
3.0869
3.08866
3.09045
3.09228
3.09414
3.09602
3.09793
3.09986
3.10182
3.10383
3.1059
3.10803
3.11024
3.11252
3.11486
3.11724
3.11965
3.12209
3.12454
3.12699
3.12943
3.13185
3.13425
3.13669
3.1392
3.14175
3.1443
3.14685
3.14941
3.15196
3.1545
3.15702
3.15948
3.16187
3.16415
3.16631
3.16829
3.17005
3.1715
3.1726
3.17344
3.17411
3.17459
3.17469
3.1743
3.17341
3.17192
3.16981
3.1671
3.16382
3.16001
3.15542
3.15038
3.1432
3.13556
3.12333
1
1
1
1
1
1
1
1
1
1
1
1
1
0.999997
1
0.998375
1.09526
1.17989
2.78779
2.95349
2.96066
2.9674
2.9737
2.97984
2.98546
2.99105
2.99609
3.00104
3.00548
3.00976
3.01364
3.0174
3.02086
3.02422
3.02729
3.03021
3.03289
3.03541
3.03774
3.03992
3.04199
3.04394
3.04579
3.04755
3.04924
3.05092
3.05263
3.05432
3.056
3.05765
3.05929
3.06092
3.06255
3.06418
3.06581
3.06745
3.06911
3.07077
3.07245
3.07414
3.07585
3.07756
3.07927
3.08101
3.08276
3.08455
3.08639
3.08827
3.09021
3.09219
3.0942
3.09624
3.09832
3.10044
3.10261
3.10485
3.10714
3.10947
3.11183
3.11423
3.11666
3.11912
3.12159
3.12405
3.1265
3.12894
3.13139
3.13391
3.13647
3.13904
3.14161
3.14419
3.14677
3.14932
3.15185
3.15432
3.1567
3.15897
3.1611
3.16304
3.16472
3.16607
3.16708
3.16785
3.16843
3.16879
3.16875
3.16821
3.16714
3.16545
3.1631
3.16012
3.15653
3.15238
3.1474
3.14195
3.13432
3.12626
3.11297
1
1
1
1
1
1
1
1
1
1
1
1
1
1
1
0.99968
1.08232
1.15642
2.77532
2.9502
2.95735
2.96382
2.97003
2.97603
2.98154
2.98703
2.99197
2.99687
3.00125
3.0055
3.00933
3.01303
3.0164
3.01967
3.02266
3.02552
3.02813
3.03058
3.03284
3.03493
3.03692
3.03875
3.04051
3.04216
3.04376
3.04537
3.04701
3.04864
3.05026
3.05187
3.05346
3.05503
3.05661
3.05817
3.05976
3.06133
3.06293
3.06453
3.06616
3.0678
3.06947
3.07116
3.07285
3.07456
3.07631
3.07811
3.07996
3.08188
3.08385
3.08586
3.08791
3.09
3.09211
3.09426
3.09647
3.09876
3.10112
3.10353
3.10598
3.10846
3.11096
3.11347
3.11597
3.11847
3.12095
3.12341
3.12587
3.12839
3.13096
3.13354
3.13611
3.1387
3.14127
3.14382
3.14634
3.1488
3.15118
3.15344
3.15555
3.15746
3.15908
3.16035
3.16128
3.16197
3.16247
3.16269
3.16249
3.16182
3.16056
3.15866
3.15607
3.15281
3.14891
3.14441
3.13904
3.13312
3.12506
3.11638
3.10276
1
1
1
1
1
1
1
1
1
1
1
1
1
1
1
0.999874
1.06661
1.13324
2.76258
2.94721
2.95423
2.96051
2.96666
2.97263
2.97806
2.9835
2.98834
2.99317
2.99749
3.0017
3.00548
3.0091
3.01238
3.01553
3.01843
3.02116
3.02373
3.02606
3.02827
3.03026
3.03216
3.03388
3.03554
3.03708
3.03856
3.04007
3.04163
3.04318
3.04473
3.04627
3.0478
3.04932
3.05084
3.05234
3.05388
3.0554
3.05696
3.05853
3.06013
3.06174
3.06338
3.06502
3.06667
3.06834
3.07001
3.07171
3.07343
3.07524
3.07708
3.07901
3.08102
3.0831
3.08524
3.08745
3.08973
3.09211
3.09458
3.0971
3.09963
3.10219
3.10476
3.10733
3.1099
3.11245
3.11499
3.1175
3.12001
3.12257
3.12517
3.12778
3.13038
3.13296
3.13554
3.13808
3.14058
3.14303
3.14539
3.14763
3.14972
3.15158
3.15314
3.15432
3.15517
3.15577
3.15619
3.15628
3.15591
3.15508
3.15363
3.15151
3.14868
3.14515
3.14093
3.13608
3.1303
3.12391
3.11545
3.10644
3.09174
1
1
1
1
1
1
1
1
1
1
1
1
1
1
1
0.999903
1.04941
1.11055
2.74932
2.9444
2.9513
2.95758
2.96379
2.96986
2.9754
2.98088
2.98578
2.99056
2.99485
2.99899
3.00273
3.00619
3.00941
3.01231
3.01516
3.01766
3.02016
3.02233
3.02446
3.02632
3.02812
3.02972
3.03124
3.03265
3.03399
3.03535
3.03678
3.03819
3.03959
3.04099
3.0424
3.04377
3.04517
3.04654
3.04794
3.04934
3.05077
3.05223
3.05372
3.05526
3.05682
3.05843
3.06006
3.06172
3.06341
3.06513
3.06687
3.06869
3.0706
3.07259
3.07464
3.07674
3.07886
3.08103
3.08326
3.08555
3.08795
3.09044
3.093
3.09562
3.09826
3.10091
3.10354
3.10615
3.10874
3.1113
3.11384
3.11645
3.11909
3.12173
3.12435
3.12695
3.12951
3.13203
3.13452
3.13694
3.13928
3.1415
3.14356
3.14539
3.14689
3.148
3.14878
3.14929
3.14959
3.14953
3.14903
3.14801
3.14638
3.14403
3.14096
3.13714
3.13262
3.1274
3.12123
3.11433
3.10552
3.09588
3.08084
1
1
1
1
1
1
1
1
1
1
1
1
1
1
1
0.999943
1.0316
1.08815
2.73416
2.94164
2.94904
2.9557
2.96227
2.96866
2.97457
2.98024
2.98528
2.99
2.99428
2.99823
3.00186
3.00508
3.00812
3.01074
3.01337
3.01561
3.01791
3.01987
3.02187
3.02358
3.02526
3.02674
3.02817
3.02943
3.03063
3.03183
3.0331
3.03433
3.03556
3.03676
3.03798
3.03917
3.04038
3.04157
3.04277
3.04397
3.0452
3.04645
3.04773
3.04905
3.05041
3.05183
3.05332
3.05484
3.05642
3.05804
3.05973
3.06147
3.06331
3.06525
3.06728
3.06942
3.07161
3.07385
3.07616
3.07855
3.08099
3.08349
3.08603
3.08864
3.09133
3.09405
3.09679
3.0995
3.10217
3.10479
3.10739
3.11003
3.11271
3.1154
3.11805
3.12067
3.12323
3.12574
3.1282
3.1306
3.1329
3.13509
3.13711
3.13889
3.14034
3.14137
3.14206
3.14251
3.1427
3.14246
3.14182
3.14061
3.13879
3.13622
3.13291
3.1288
3.12397
3.11838
3.11182
3.10445
3.09526
3.08527
3.06918
1
1
1
1
1
1
1
1
1
1
1
1
1
1
1
0.999977
1.01433
1.06801
2.71861
2.94107
2.94927
2.95604
2.96274
2.96906
2.97501
2.98041
2.98543
2.98985
2.99408
2.99771
3.00121
3.00419
3.00707
3.00951
3.01192
3.01397
3.01606
3.01784
3.01967
3.02124
3.02281
3.02417
3.0255
3.02665
3.02772
3.02881
3.02996
3.03104
3.03211
3.03315
3.03421
3.03524
3.03628
3.03731
3.03835
3.03938
3.04042
3.04147
3.04255
3.04365
3.04481
3.04601
3.04728
3.04858
3.04997
3.05138
3.05288
3.05445
3.05612
3.05792
3.05983
3.0619
3.06408
3.06634
3.06867
3.07111
3.07364
3.07624
3.07891
3.08161
3.0843
3.08699
3.08972
3.09248
3.09522
3.09792
3.1006
3.10329
3.10602
3.10875
3.11145
3.11409
3.11666
3.11916
3.12159
3.12396
3.12623
3.12839
3.13037
3.13211
3.13349
3.13444
3.13505
3.13542
3.1355
3.13508
3.13428
3.13288
3.13085
3.12805
3.12449
3.12011
3.11496
3.10901
3.10206
3.09423
3.08465
3.07401
3.05756
1
1
1
1
1
1
1
1
1
1
1
1
1
1
1
0.999997
1.00008
1.05659
2.70552
2.94372
2.95138
2.9578
2.96397
2.96982
2.97541
2.98038
2.98516
2.98917
2.99314
2.99642
2.99969
3.00245
3.00518
3.00753
3.00985
3.01184
3.01381
3.01549
3.01718
3.01861
3.02007
3.0213
3.02255
3.02361
3.0246
3.02565
3.02677
3.02778
3.02879
3.02976
3.03071
3.03167
3.03261
3.03353
3.03443
3.03532
3.03619
3.03705
3.03793
3.03882
3.03975
3.04072
3.04177
3.04287
3.04405
3.04527
3.04654
3.04788
3.0493
3.05087
3.05257
3.05444
3.05647
3.05862
3.06088
3.06328
3.06581
3.06845
3.07119
3.07399
3.07682
3.07969
3.08252
3.0853
3.08805
3.0908
3.09354
3.09629
3.09906
3.10183
3.10456
3.10723
3.10982
3.1123
3.11471
3.11705
3.11928
3.1214
3.12334
3.12503
3.12634
3.12723
3.12776
3.12802
3.12795
3.12742
3.12642
3.12485
3.12258
3.11956
3.11573
3.11107
3.10561
3.09929
3.09195
3.08367
3.07371
3.0627
3.04524
1
1
1
1
1
1
1
1
1
1
1
1
1
1
1
0.999993
0.999911
1.03863
2.68249
2.94242
2.95051
2.95669
2.96273
2.9682
2.97372
2.97839
2.98302
2.98676
2.99051
2.99353
2.99666
2.99928
3.00196
3.00426
3.00656
3.00852
3.01043
3.01203
3.01361
3.01494
3.01629
3.01741
3.01858
3.01958
3.02054
3.02158
3.02273
3.02378
3.02479
3.02578
3.02672
3.02766
3.02857
3.02947
3.03035
3.03122
3.03207
3.0329
3.03369
3.03448
3.03524
3.03602
3.03684
3.03774
3.03869
3.0397
3.04075
3.04187
3.04305
3.04436
3.04579
3.04739
3.04918
3.05112
3.05321
3.05545
3.05787
3.06042
3.06315
3.06598
3.06888
3.0718
3.07473
3.07764
3.0805
3.08329
3.08608
3.0889
3.09174
3.09458
3.09737
3.10008
3.10269
3.10517
3.10756
3.10987
3.11206
3.11413
3.11603
3.11766
3.1189
3.11971
3.12017
3.12033
3.12009
3.11944