/*--------------------------------*- C++ -*----------------------------------*\
| =========                 |                                                 |
| \\      /  F ield         | OpenFOAM: The Open Source CFD Toolbox           |
|  \\    /   O peration     | Version:  2.2.x                                 |
|   \\  /    A nd           | Web:      www.OpenFOAM.org                      |
|    \\/     M anipulation  |                                                 |
\*---------------------------------------------------------------------------*/
FoamFile
{
    version     2.0;
    format      ascii;
    class       volScalarField;
    location    "0.06";
    object      T;
}
// * * * * * * * * * * * * * * * * * * * * * * * * * * * * * * * * * * * * * //

dimensions      [0 0 0 1 0 0 0];

internalField   nonuniform List<scalar> 
1024
(
0.5
0.5
0.5
0.5
0.5
0.5
0.5
0.5
0.5
0.5
0.5
0.5
0.5
0.5
0.5
0.5
0.5
0.5
0.5
0.5
0.5
0.5
0.5
0.5
0.5
0.5
0.5
0.5
0.5
0.5
0.5
0.5
0.5
0.5
0.5
0.5
0.5
0.5
0.5
0.5
0.5
0.5
0.5
0.5
0.5
0.5
0.5
0.5
0.5
0.5
0.5
0.5
0.5
0.5
0.5
0.5
0.5
0.5
0.5
0.5
0.5
0.5
0.5
0.5
0.5
0.5
0.5
0.5
0.5
0.5
0.5
0.5
0.5
0.5
0.5
0.5
0.5
0.5
0.5
0.5
0.5
0.5
0.5
0.5
0.5
0.5
0.5
0.5
0.5
0.5
0.5
0.5
0.5
0.5
0.5
0.5
0.5
0.5
0.5
0.5
0.5
0.5
0.5
0.5
0.5
0.5
0.5
0.5
0.5
0.5
0.5
0.5
0.5
0.5
0.5
0.5
0.5
0.5
0.5
0.5
0.5
0.5
0.5
0.5
0.5
0.5
0.5
0.5
0.5
0.5
0.5
0.5
0.5
0.5
0.5
0.5
0.5
0.5
0.5
0.5
0.5
0.5
0.5
0.5
0.5
0.5
0.5
0.5
0.5
0.5
0.5
0.5
0.5
0.5
0.5
0.5
0.5
0.5
0.5
0.5
0.5
0.5
0.5
0.5
0.5
0.5
0.5
0.5
0.5
0.5
0.5
0.5
0.5
0.5
0.5
0.5
0.5
0.5
0.5
0.5
0.5
0.5
0.5
0.5
0.5
0.5
0.5
0.5
0.5
0.5
0.5
0.5
0.5
0.5
0.5
0.5
0.5
0.5
0.5
0.5
0.5
0.5
0.5
0.5
0.5
0.5
0.5
0.5
0.5
0.5
0.5
0.5
0.5
0.5
0.5
0.5
0.5
0.5
0.5
0.5
0.5
0.5
0.5
0.5
0.5
0.5
0.5
0.5
5.68159
16.9371
19.0066
19.1474
19.1468
19.1531
19.1534
19.1527
19.1516
19.1506
19.1518
19.1512
19.1525
19.1511
19.1537
19.1513
19.1516
19.1513
19.1517
19.1521
19.1518
19.1525
19.151
19.1521
19.1509
19.1522
19.1516
19.1524
19.1518
19.1521
19.1511
19.1519
19.1513
19.1521
19.1518
19.1522
19.1518
19.1518
19.1515
19.1513
19.1519
19.1516
19.1524
19.1517
19.1522
19.1515
19.1517
19.1513
19.152
19.1518
19.1522
19.1517
19.1519
19.1514
19.1516
19.1516
19.1518
19.1519
19.152
19.152
19.1517
19.1519
19.1516
19.1519
19.1517
19.1519
19.1517
19.1519
19.1517
19.1519
19.1518
19.152
19.1518
19.1519
19.1517
19.1519
19.1518
19.1518
19.1518
19.1517
19.1518
19.1516
19.1518
19.1517
19.1519
19.1519
19.152
19.1519
19.1518
19.1517
19.1517
19.1517
19.1519
19.1518
19.1519
19.1517
19.1517
19.1516
19.1516
19.1518
19.1518
19.1519
19.1518
19.1518
19.1517
19.1517
19.1517
19.1517
19.1517
19.1518
19.1517
19.1518
19.1517
19.1517
19.1517
19.1518
19.1518
19.1518
19.1518
19.1518
19.1518
19.1518
19.1518
19.1517
19.1518
19.1518
19.1518
19.1518
19.1518
19.1518
19.1518
19.1517
19.1518
19.1518
19.1519
19.1519
19.152
19.1521
19.152
19.152
19.152
19.152
19.152
19.1521
19.1521
19.1521
19.152
19.1521
19.152
19.1521
19.1521
19.1521
19.1521
19.1521
19.1521
19.1521
19.152
19.152
19.1519
19.152
19.152
19.152
19.152
19.1519
19.1519
19.1519
19.1518
19.1518
19.1519
19.1519
19.1518
19.1518
19.1518
19.1518
19.1519
19.1519
19.152
19.1521
19.1521
19.1522
19.1522
19.1522
19.1522
19.1522
19.1522
19.1523
19.1523
19.1524
19.1525
19.1529
19.1537
19.1563
19.1604
19.1706
19.1904
19.2252
19.2944
19.3708
19.4176
19.4509
19.4717
19.4849
19.4929
19.4977
19.5
19.5005
19.5008
19.5014
19.5019
19.5023
19.5027
19.5034
19.5041
19.5053
19.5063
19.5071
19.5076
19.5078
19.5084
19.5084
19.5079
19.5067
19.5052
19.5038
19.503
19.5028
19.5038
19.5055
19.5095
19.519
19.5372
19.5737
19.642
19.7621
19.9631
20.292
20.8236
21.6675
22.8961
24.1424
25.2436
26.1496
26.8431
27.3376
27.6672
27.8727
27.9922
28.0566
28.0883
28.1021
28.1069
28.1079
28.1075
28.1055
28.1044
28.104
28.104
28.1042
28.1048
28.106
28.1072
28.1081
28.109
28.1097
28.1103
28.1107
28.111
28.1113
28.1115
28.1116
28.1117
28.1116
28.1117
28.1117
28.1115
28.1112
28.1111
28.1112
28.1113
28.1108
28.1106
28.1118
28.1133
28.1124
28.113
28.1187
28.1228
28.123
28.1307
28.1455
28.1524
28.1627
28.168
28.1707
28.1719
28.1723
28.1722
28.1721
28.1716
28.1713
28.171
28.1708
28.1708
28.1708
28.1708
28.1708
28.1708
28.1708
28.1708
28.1708
28.1708
28.1709
28.1709
28.1709
28.1709
28.1709
28.1709
28.1709
28.1709
28.1709
28.1709
28.1709
28.1709
28.1708
28.1708
28.1708
28.1708
28.1707
28.1707
28.1707
28.1707
28.1706
28.1707
28.1706
28.1706
28.1706
28.1706
28.1705
28.1706
28.1705
28.1706
28.1705
28.1706
28.1705
28.1706
28.1705
28.1706
28.1705
28.1706
28.1705
28.1706
28.1705
28.1706
28.1705
28.1706
28.1705
28.1706
28.1705
28.1707
28.1705
28.1707
28.1705
28.1707
28.1705
28.1707
28.1705
28.1707
28.1706
28.1707
28.1706
28.1708
28.1706
28.1708
28.1706
28.1708
28.1706
28.1708
28.1705
28.1708
28.1705
28.1708
28.1705
28.1709
28.1705
28.1709
28.1705
28.1709
28.1705
28.1709
28.1705
28.1709
28.1705
28.171
28.1705
28.171
28.1705
28.171
28.1704
28.171
28.1704
28.171
28.1704
28.1711
28.1704
28.1711
28.1704
28.1711
28.1703
28.1711
28.1703
28.1711
28.1702
28.1712
28.1702
28.1712
28.1701
28.1712
28.1701
28.1713
28.17
28.1713
28.1699
28.1713
28.1699
28.1713
28.1698
28.1714
28.1697
28.1715
28.1697
28.1715
28.1696
28.1716
28.1695
28.1717
28.1694
28.1717
28.1693
28.1718
28.1692
28.1719
28.1691
28.172
28.169
28.1721
28.1689
28.1723
28.1688
28.1724
28.1686
28.1725
28.1685
28.1727
28.1683
28.1729
28.1682
28.1731
28.168
28.1732
28.1678
28.1734
28.1675
28.1736
28.1673
28.1739
28.1671
28.1742
28.1669
28.1745
28.1666
28.1747
28.1662
28.175
28.1659
28.1754
28.1655
28.1758
28.1652
28.1762
28.1648
28.1767
28.1643
28.1771
28.1638
28.1776
28.1633
28.1781
28.1627
28.1788
28.1622
28.1794
28.1615
28.1801
28.1608
28.1808
28.16
28.1815
28.1592
28.1824
28.1584
28.1834
28.1575
28.1844
28.1564
28.1854
28.1553
28.1865
28.1541
28.1876
28.1528
28.189
28.1515
28.1905
28.1501
28.192
28.1484
28.1936
28.1466
28.1953
28.1447
28.1972
28.1427
28.1993
28.1406
28.2016
28.1383
28.204
28.1358
28.2064
28.133
28.2091
28.13
28.2119
28.1268
28.2151
28.1235
28.2186
28.1199
28.2223
28.1159
28.2262
28.1117
28.2302
28.1068
28.2346
28.102
28.2397
28.0966
28.2447
28.0905
28.2505
28.0847
28.257
28.0776
28.2631
28.0698
28.2701
28.0624
28.2781
28.0542
28.2861
28.0445
28.2941
28.0323
28.3015
28.0223
28.3175
28.0174
28.3303
27.9955
28.3232
27.9604
28.3411
27.9979
28.4121
27.9858
28.3426
27.6906
27.2058
19.326
10.0041
10
10
10
10
10
10
10
10
10
10
10
10
10
10
10
10
10
10
10
10
10
10
10
10
10
10
10
10
10
10
10
10
10
10
10
10
10
10
10
10
10
10
10
10
10
10
10
10
10
10
10
10
10
10
10
10
10
10
10
10
10
10
10
10
10
10
10
10
10
10
10
10
10
10
10
10
10
10
10
10
10
10
10
10
10
10
10
10
10
10
10
10
10
10
10
10
10
10
10
10
10
10
10
10
10
10
10
10
10
10
10
10
10
10
10
10
10
10
10
10
10
10
10
10
10
10
10
10
10
10
10
10
10
10
10
10
10
10
10
10
10
10
10
10
10
10
10
10
10
10
10
10
10
10
10
10
10
10
10
10
10
10
10
10
10
10
10
10
10
10
10
10
10
10
10
10
10
10
10
10
10
10
10
10
10
10
10
10
10
10
10
10
10
10
10
10
10
10
10
10
10
10
10
10
10
10
10
10
10
10
10
10
10
10
10
)
;

boundaryField
{
    front-back
    {
        type            empty;
    }
    inlet-outlet
    {
        type            zeroGradient;
    }
    top-down
    {
        type            empty;
    }
}


// ************************************************************************* //
