/*--------------------------------*- C++ -*----------------------------------*\
| =========                 |                                                 |
| \\      /  F ield         | OpenFOAM: The Open Source CFD Toolbox           |
|  \\    /   O peration     | Version:  2.2.x                                 |
|   \\  /    A nd           | Web:      www.OpenFOAM.org                      |
|    \\/     M anipulation  |                                                 |
\*---------------------------------------------------------------------------*/
FoamFile
{
    version     2.0;
    format      ascii;
    class       surfaceScalarField;
    location    "2.5";
    object      cfmax;
}
// * * * * * * * * * * * * * * * * * * * * * * * * * * * * * * * * * * * * * //

dimensions      [0 3 -1 0 0 0 0];

internalField   nonuniform List<scalar> 
28084
(
0.00124857
0.00124227
0.00123773
0.00123394
0.00123091
0.00122856
0.00122685
0.00122576
0.00122524
0.00122522
0.00122565
0.00122654
0.00122778
0.00122931
0.00123115
0.00123317
0.00123537
0.00123772
0.00124013
0.00124257
0.00124499
0.0012474
0.00124977
0.00125198
0.0012541
0.00125604
0.00125778
0.00125931
0.00126061
0.00126163
0.0012624
0.00126298
0.00126313
0.00126306
0.00126255
0.00126189
0.00126088
0.00125933
0.00125726
0.00125418
0.00125136
0.00124686
0.00124394
0.000934214
0.000766845
0.000772579
0.000791387
0.000812254
0.00083181
0.000850655
0.000868871
0.000887335
0.000905698
0.000924443
0.000943109
0.000960331
0.000977412
0.000994591
0.00101036
0.00102518
0.00103925
0.00105252
0.00106486
0.00107674
0.00108762
0.00109721
0.00110634
0.00111463
0.00112181
0.00112808
0.00113367
0.00113795
0.00114108
0.00114307
0.00114372
0.00114403
0.00114431
0.00114491
0.00114374
0.00114202
0.00114184
0.00113825
0.0011344
0.00113194
0.00112702
0.00112184
0.00111558
0.00110908
0.00110409
0.00109736
0.001091
0.00108454
0.00107849
0.00107246
0.00106588
0.00106434
0.00106084
0.0010579
0.00105974
0.00106398
0.00107713
0.00109964
0.00112503
0.00116091
0.00119014
0.00120945
0.00122651
0.00125149
0.00126438
0.00121363
0.00117742
0.00113534
0.00110144
0.00107664
0.00105521
0.00103186
0.00100429
0.000959821
0.00289631
0.00289034
0.00125446
0.00288
0.00125197
0.00286345
0.00125119
0.00284105
0.00125112
0.00281301
0.00125174
0.00277947
0.00125306
0.00274078
0.00125498
0.00269717
0.00125742
0.00264903
0.00126039
0.00259687
0.00126385
0.00254122
0.00126774
0.00248208
0.00127197
0.00241986
0.00127654
0.00235498
0.00128134
0.00228783
0.00128637
0.00221882
0.00129153
0.00214833
0.00129678
0.00207676
0.00130211
0.00200445
0.00130743
0.00193175
0.00131269
0.00185899
0.00131784
0.00178647
0.00132289
0.00171449
0.00132781
0.00164326
0.00133248
0.00157301
0.00133695
0.00150397
0.00134113
0.00143631
0.00134504
0.00137018
0.00134862
0.0013057
0.00135187
0.00124302
0.00135473
0.0011822
0.00135726
0.00112331
0.00135936
0.0010664
0.00136114
0.00101151
0.00136252
0.000958741
0.00136342
0.00090801
0.00136393
0.000859555
0.00136405
0.000813095
0.00136365
0.000768589
0.00136274
0.0007263
0.00136103
0.000685275
0.00135929
0.000649381
0.00135692
0.000623083
0.00135308
0.000584268
0.00109523
0.000593675
0.000857037
0.000603378
0.00085799
0.000606487
0.000873952
0.000607169
0.000891353
0.000609578
0.000910449
0.000611745
0.000927754
0.000613913
0.000946607
0.000615854
0.000964137
0.000618146
0.000981819
0.000620413
0.00100015
0.000622329
0.0010192
0.000623936
0.00103607
0.000625829
0.00105262
0.000627614
0.00106891
0.000629204
0.00108369
0.000630944
0.00109807
0.00063279
0.00111138
0.000634682
0.00112356
0.000636602
0.00113468
0.00063861
0.00114522
0.000640574
0.00115516
0.000642619
0.00116427
0.000644866
0.00117244
0.000647148
0.00117989
0.000649411
0.0011862
0.000651857
0.00119137
0.000654421
0.00119576
0.000657147
0.00119883
0.000659862
0.00120073
0.000662676
0.00120154
0.00066567
0.00120148
0.000669497
0.00120104
0.000673062
0.00120021
0.000677195
0.00119974
0.000681618
0.00119734
0.000686509
0.00119444
0.000691606
0.00119278
0.000696432
0.00118817
0.000701742
0.00118325
0.000707044
0.00117959
0.000712398
0.00117389
0.000717994
0.00116725
0.000723769
0.00116013
0.000729601
0.00115256
0.000735334
0.00114652
0.000741208
0.00113902
0.000747574
0.00113166
0.000754049
0.001124
0.000760646
0.00111701
0.000767223
0.00111003
0.000773846
0.00110258
0.000780944
0.00110052
0.00078891
0.00109548
0.000796464
0.00109184
0.000807075
0.00109356
0.000816888
0.00109816
0.000827141
0.00111022
0.000837304
0.00112836
0.000847868
0.00115154
0.000859314
0.00118797
0.000871859
0.00121738
0.000884597
0.00123482
0.000898501
0.00125025
0.000911588
0.00125764
0.000903918
0.00123616
0.000871524
0.00113613
0.000865678
0.00107185
0.000865066
0.00101379
0.000840953
0.000978024
0.000835763
0.000957011
0.00082813
0.000943334
0.000837097
0.000932377
0.000856917
0.000919544
0.000907806
0.000910018
0.00289745
0.00289104
0.00126232
0.00288027
0.00126358
0.0028633
0.00126652
0.00284051
0.00127013
0.0028121
0.00127441
0.00277822
0.00127928
0.00274029
0.00128473
0.00269763
0.00129074
0.00265035
0.00129722
0.00259878
0.00130408
0.00254338
0.00131132
0.0024844
0.00131893
0.00242233
0.00132678
0.00235758
0.0013348
0.00229053
0.00134299
0.00222159
0.00135125
0.00215116
0.00135954
0.0020796
0.00136783
0.00200729
0.00137602
0.00193456
0.00138406
0.00186176
0.00139192
0.00178919
0.00139959
0.00171713
0.00140703
0.00164579
0.00141412
0.00157545
0.00142092
0.0015063
0.00142734
0.00143849
0.00143336
0.00137221
0.00143898
0.0013076
0.00144415
0.00124474
0.00144889
0.00118373
0.00145318
0.00112472
0.00145691
0.00106762
0.00146018
0.00101257
0.0014629
0.00095959
0.00146519
0.000908679
0.00146706
0.000859706
0.0014683
0.000812807
0.0014689
0.000768747
0.00146912
0.00072693
0.00146925
0.000687421
0.00147035
0.000650642
0.00147156
0.000618107
0.00147305
0.000588999
0.00128587
0.000602636
0.000945473
0.000609562
0.000939624
0.000610518
0.000952842
0.000610284
0.000968228
0.000609127
0.000984494
0.000610369
0.000998977
0.000612055
0.00101501
0.000614318
0.00103222
0.000617384
0.00104943
0.000621176
0.00106804
0.00062466
0.00108667
0.000626555
0.00110413
0.000628367
0.00112075
0.000629393
0.00113702
0.00062978
0.0011503
0.000630629
0.00116185
0.000631702
0.00117158
0.000633314
0.00118307
0.000635342
0.00119361
0.000637682
0.00120472
0.000639618
0.00121459
0.000641764
0.00122317
0.000643954
0.00123073
0.000646125
0.00123684
0.000648418
0.00124224
0.000650685
0.00124641
0.00065322
0.00124995
0.000655648
0.0012519
0.000658134
0.00125299
0.000660816
0.00125262
0.000663819
0.00125148
0.000667906
0.00124994
0.000671728
0.0012482
0.000675841
0.00124675
0.000680879
0.00124342
0.000686002
0.00123942
0.000691499
0.00123702
0.000697108
0.00123135
0.000702574
0.00122526
0.000708021
0.00122066
0.000713972
0.00121402
0.00071977
0.00120619
0.000725962
0.00119808
0.000731872
0.00118969
0.000737239
0.00118258
0.000743252
0.00117354
0.000749761
0.00116548
0.000756036
0.00115696
0.00076239
0.00114887
0.000768783
0.00114143
0.000774879
0.00113282
0.000781122
0.00113021
0.000788649
0.00112424
0.000796145
0.00112007
0.000808778
0.00112221
0.000818353
0.00112699
0.000827602
0.00113558
0.000836189
0.0011526
0.000846393
0.00117708
0.000860666
0.00121531
0.000876906
0.00124141
0.00089037
0.0012499
0.00090098
0.00126119
0.000899004
0.00122094
0.000867511
0.00112592
0.000856249
0.00104475
0.000875524
0.000971203
0.000873568
0.000925549
0.000852263
0.000897322
0.000849531
0.000880619
0.000854145
0.000873287
0.000873497
0.000869733
0.000895422
0.000865879
0.000983601
0.000866689
0.00289635
0.00288953
0.00127215
0.00287835
0.00127712
0.00286099
0.00128372
0.00283947
0.00129094
0.00281297
0.00129878
0.00278086
0.00130724
0.00274352
0.00131623
0.00270113
0.00132566
0.00265413
0.00133554
0.00260277
0.00134584
0.00254754
0.00135646
0.00248872
0.00136732
0.00242678
0.00137841
0.00236212
0.00138964
0.00229513
0.00140094
0.00222622
0.00141227
0.00215579
0.00142355
0.00208421
0.00143476
0.00201185
0.00144578
0.00193905
0.00145658
0.00186614
0.00146712
0.00179346
0.00147737
0.00172127
0.0014873
0.00164978
0.00149679
0.00157926
0.0015059
0.00150991
0.00151453
0.00144193
0.00152267
0.00137546
0.0015303
0.00131064
0.0015374
0.00124757
0.00154393
0.00118637
0.00154991
0.0011271
0.00155531
0.00106975
0.00156016
0.00101453
0.00156438
0.000961244
0.00156793
0.000910083
0.00157091
0.000860946
0.00157329
0.000813892
0.00157511
0.000769001
0.0015767
0.000726595
0.00157823
0.000687286
0.00157966
0.000650581
0.00158082
0.000617958
0.00157766
0.000586676
0.00146116
0.000610793
0.00103186
0.000615508
0.00101184
0.000615377
0.0010233
0.000617022
0.00103595
0.00061741
0.00105201
0.000619616
0.00106928
0.000623638
0.00108976
0.000625673
0.00110806
0.000627581
0.00112336
0.000630574
0.00113853
0.000631261
0.00115359
0.000632966
0.00116819
0.000633965
0.00118486
0.000635324
0.00119852
0.000636003
0.00121336
0.000637389
0.00122802
0.000639139
0.00124115
0.000641031
0.00125243
0.000642907
0.00126265
0.000644777
0.0012722
0.000646307
0.00128088
0.000647873
0.00128798
0.000649625
0.00129388
0.000651451
0.00129894
0.000653446
0.0013034
0.000655463
0.00130646
0.000657634
0.00130883
0.000659685
0.00131024
0.000661801
0.00131014
0.000664174
0.00130915
0.000666935
0.00130699
0.000671069
0.00130437
0.000675582
0.00130183
0.000681211
0.00129959
0.000686556
0.00129493
0.000691944
0.00128966
0.000697806
0.00128636
0.000703652
0.00127961
0.00070937
0.00127211
0.000715148
0.00126636
0.000721374
0.00125854
0.000727451
0.00124974
0.000733864
0.00124086
0.000739752
0.00123165
0.000744643
0.00122317
0.000750097
0.00121378
0.000756625
0.0012046
0.00076234
0.00119521
0.000768471
0.00118581
0.000774519
0.00117702
0.000780619
0.00116838
0.000785444
0.00116556
0.000793038
0.00115851
0.000799384
0.00115379
0.000812095
0.00115796
0.000820398
0.00116291
0.00082933
0.00116885
0.000839679
0.00118669
0.000850038
0.00121175
0.000865015
0.00125283
0.000881842
0.00126233
0.000896619
0.00127012
0.000898596
0.00123012
0.000859339
0.0011201
0.000867981
0.0010249
0.000904179
0.000961604
0.000905885
0.000924628
0.000896963
0.000898727
0.000873049
0.00087745
0.000872538
0.000861826
0.000875858
0.000857672
0.00089671
0.000857927
0.00091128
0.000856356
0.00101154
0.000855405
0.00289302
0.00288707
0.00128395
0.00287887
0.00129255
0.00286438
0.00130277
0.00284393
0.00131356
0.00281774
0.00132497
0.00278594
0.00133688
0.00274887
0.00134929
0.00270674
0.00136219
0.00265995
0.00137548
0.00260879
0.00138908
0.00255372
0.00140296
0.00249502
0.00141711
0.00243317
0.00143141
0.00236856
0.00144577
0.00230159
0.00146015
0.00223267
0.0014745
0.0021622
0.00148873
0.00209055
0.00150281
0.00201808
0.00151664
0.00194515
0.00153017
0.00187211
0.00154334
0.00179926
0.00155615
0.00172687
0.00156852
0.00165518
0.00158038
0.00158444
0.00159177
0.00151487
0.00160257
0.00144663
0.00161282
0.0013799
0.00162242
0.00131481
0.00163143
0.00125147
0.00163978
0.00119003
0.00164752
0.00113042
0.00165447
0.00107286
0.00166079
0.00101732
0.00166639
0.000963793
0.00167143
0.000912334
0.00167575
0.000862886
0.00167936
0.000815596
0.00168197
0.000770344
0.00168427
0.000727085
0.00168626
0.000686529
0.00168863
0.000648728
0.00169218
0.000618267
0.00169543
0.000603416
0.00150518
0.000619281
0.00109194
0.000620204
0.00107374
0.000622001
0.00108616
0.000624296
0.00110096
0.000627606
0.00111706
0.000630817
0.00113366
0.000634775
0.00115145
0.000637279
0.001168
0.00064008
0.00118635
0.000642258
0.00120558
0.000645087
0.00122456
0.000646914
0.00124152
0.000647857
0.00125809
0.000648211
0.00127311
0.000648418
0.00128599
0.000649165
0.00129736
0.00065062
0.00130789
0.000652232
0.00131753
0.000653446
0.00132651
0.0006546
0.00133477
0.00065547
0.00134283
0.000656394
0.00134974
0.000657675
0.00135593
0.000659043
0.00136076
0.000660462
0.00136411
0.000662025
0.00136661
0.000663837
0.00136834
0.000665618
0.00136893
0.000667258
0.00136829
0.000669278
0.00136638
0.000672561
0.00136364
0.000676902
0.00135942
0.000681192
0.00135545
0.000687314
0.001353
0.000693198
0.00134758
0.000698801
0.00134125
0.000704832
0.00133751
0.000711187
0.00132966
0.000717136
0.00132136
0.000722912
0.00131524
0.000729477
0.00130587
0.000735844
0.00129621
0.000742504
0.00128639
0.000748495
0.0012765
0.000753335
0.00126608
0.000759112
0.00125658
0.000765518
0.00124615
0.000771214
0.00123551
0.000776963
0.00122536
0.000782701
0.0012157
0.000788092
0.00120616
0.000791785
0.00120263
0.000798518
0.00119498
0.000803995
0.00118967
0.000816246
0.00119216
0.000824462
0.00119689
0.000832445
0.00120937
0.00084495
0.001227
0.000855793
0.00125393
0.000869931
0.00128307
0.000882899
0.00128555
0.000881966
0.00124333
0.000836168
0.00112672
0.000896458
0.00101962
0.000923256
0.000952825
0.000931403
0.000915074
0.00092881
0.000891311
0.000925381
0.00087708
0.000903595
0.000871785
0.000892725
0.000862769
0.000890884
0.000860591
0.000915508
0.00086477
0.000926348
0.000860538
0.00103346
0.000858123
0.00289609
0.00289266
0.00129773
0.00288481
0.00130992
0.00287066
0.00132367
0.00285054
0.00133796
0.00282466
0.0013528
0.00279315
0.00136818
0.00275633
0.00138403
0.00271443
0.00140025
0.00266784
0.00141682
0.00261684
0.00143376
0.0025619
0.00145092
0.00250329
0.00146822
0.00244148
0.00148566
0.0023769
0.00150313
0.0023099
0.00152053
0.00224093
0.00153787
0.00217038
0.001555
0.00209862
0.0015719
0.00202599
0.00158848
0.0019529
0.0016047
0.00187965
0.00162047
0.00180657
0.00163579
0.00173395
0.00165057
0.001662
0.00166478
0.00159097
0.0016784
0.00152111
0.00169137
0.00145257
0.00170367
0.00138555
0.00171527
0.00132014
0.00172614
0.00125649
0.00173628
0.00119467
0.0017457
0.00113477
0.00175434
0.00107686
0.00176217
0.00102102
0.00176923
0.000967145
0.00177548
0.000915333
0.00178098
0.000865573
0.00178582
0.000817884
0.00178952
0.000772257
0.00179241
0.000728875
0.00179405
0.000687652
0.00179538
0.00064881
0.00179515
0.000626323
0.00179064
0.000614402
0.00141466
0.000626862
0.00112665
0.000628502
0.00111504
0.000635144
0.00113313
0.00063999
0.00115519
0.00064526
0.00117713
0.000649176
0.00119842
0.000653248
0.00121814
0.000655938
0.00123844
0.000659917
0.0012575
0.00066151
0.00127729
0.00066308
0.00129646
0.00066556
0.00131423
0.000665234
0.00133014
0.000665366
0.00134711
0.000665505
0.00136031
0.000665521
0.00137157
0.00066614
0.00138187
0.000666997
0.00139076
0.000667759
0.00139878
0.000668815
0.00140629
0.000669329
0.0014132
0.000669786
0.00141945
0.000670655
0.00142463
0.000671316
0.00142836
0.000672124
0.00143061
0.000673364
0.00143205
0.000674919
0.00143289
0.000676337
0.00143239
0.000677699
0.00143105
0.000679433
0.00142846
0.000683405
0.00142493
0.000687785
0.00141925
0.000692641
0.00141315
0.000698864
0.00141053
0.000705184
0.0014035
0.000711323
0.00139633
0.000717678
0.00139167
0.000724516
0.00138262
0.000730743
0.00137352
0.000736673
0.00136706
0.000743194
0.00135621
0.000749856
0.00134574
0.000756616
0.00133547
0.000762318
0.00132433
0.000767202
0.0013136
0.000772512
0.00130335
0.000778526
0.00129179
0.000783884
0.00128072
0.000789202
0.00126991
0.000794428
0.00125962
0.000799149
0.00124978
0.000802032
0.00124624
0.000808195
0.00123881
0.000813055
0.00123335
0.000822013
0.00123776
0.000831105
0.00124274
0.000842629
0.00125518
0.000852226
0.00127145
0.000860177
0.00129973
0.00087253
0.00129839
0.000873522
0.00127653
0.000842866
0.00114839
0.000908272
0.00104022
0.00094268
0.000977988
0.000952292
0.000938003
0.000954984
0.000910784
0.000945324
0.000886949
0.000940225
0.000869371
0.000927538
0.000864987
0.000914568
0.000862769
0.000907204
0.000863364
0.000935293
0.000870662
0.000942536
0.000868316
0.00105219
0.000863817
0.00290357
0.00290047
0.00131351
0.00289294
0.00132919
0.00287909
0.0013464
0.00285929
0.00136414
0.00283371
0.0013824
0.00280247
0.00140112
0.00276587
0.00142026
0.00272418
0.00143982
0.00267777
0.0014597
0.00262691
0.00147981
0.00257204
0.00150013
0.0025135
0.0015206
0.00245172
0.00154114
0.00238712
0.00156166
0.00232007
0.00158203
0.00225101
0.00160227
0.00218032
0.00162227
0.00210839
0.00164194
0.00203558
0.00166123
0.00196226
0.00168008
0.00188876
0.00169842
0.00181541
0.00171619
0.00174248
0.00173333
0.00167022
0.00174986
0.00159886
0.00176567
0.00152866
0.00178077
0.00145977
0.00179511
0.00139237
0.00180865
0.00132662
0.00182138
0.0012626
0.00183335
0.00120039
0.00184446
0.0011401
0.0018547
0.00108182
0.00186401
0.00102556
0.00187252
0.000971305
0.00188023
0.000919187
0.00188702
0.000868937
0.0018928
0.00082082
0.00189746
0.000774735
0.00190126
0.000730689
0.00190398
0.000688524
0.00190432
0.000648503
0.00190099
0.000634107
0.0018988
0.000606262
0.0014139
0.000631922
0.00117939
0.000642872
0.00117586
0.000651641
0.00119797
0.000656059
0.00122038
0.000659205
0.00124755
0.000663547
0.00127063
0.000667874
0.00129363
0.000672259
0.00131666
0.000676658
0.00133702
0.000678457
0.00135604
0.000679238
0.00137649
0.000678921
0.00139271
0.00067852
0.00140708
0.000678107
0.00142358
0.000677855
0.00143554
0.000677796
0.00144679
0.000678271
0.00145734
0.000678866
0.00146529
0.000679066
0.00147322
0.000679079
0.00147909
0.00067899
0.00148446
0.000679318
0.00149013
0.000680008
0.00149464
0.000680417
0.00149812
0.000680778
0.00149912
0.00068129
0.00149915
0.000682136
0.00149855
0.000683255
0.00149701
0.000684433
0.00149449
0.00068633
0.00149095
0.000692576
0.00148647
0.00069894
0.001481
0.000703374
0.00147333
0.000709239
0.00146819
0.000716308
0.00145973
0.000723428
0.00145201
0.000729821
0.00144689
0.000737416
0.00143709
0.000744279
0.00142732
0.000750571
0.00142067
0.000757716
0.00140929
0.000765112
0.00139868
0.000772121
0.00138886
0.000778053
0.00137684
0.000783832
0.00136681
0.000789203
0.00135598
0.000795304
0.00134453
0.000800515
0.00133296
0.000805744
0.00132181
0.000810902
0.00131113
0.00081563
0.00130104
0.000817741
0.00129813
0.000823504
0.00129062
0.000827864
0.00128458
0.00083215
0.00128984
0.000841116
0.001295
0.000849101
0.00130232
0.000856397
0.00131776
0.000861179
0.0013146
0.000862682
0.00130018
0.000859094
0.00117464
0.000928412
0.00106181
0.000963318
0.000992817
0.000986131
0.000961347
0.000988528
0.000927768
0.000980763
0.000903449
0.000965401
0.000886663
0.000953735
0.000870609
0.000944911
0.000864034
0.000935075
0.000864731
0.000922929
0.000866211
0.000953965
0.000873924
0.000959812
0.000875153
0.00107033
0.000870385
0.00291327
0.00291048
0.00133128
0.00290325
0.00135038
0.0028897
0.00137099
0.00287018
0.00139208
0.00284482
0.00141366
0.00281385
0.00143567
0.00277749
0.0014581
0.00273599
0.00148087
0.0026897
0.00150392
0.00263897
0.00152721
0.00258417
0.00155068
0.00252567
0.0015742
0.00246388
0.00159775
0.00239922
0.00162125
0.00233208
0.00164455
0.00226288
0.00166763
0.00219202
0.00169046
0.00211987
0.00171283
0.00204683
0.00173477
0.00197323
0.00175621
0.00189943
0.00177707
0.00182574
0.00179727
0.00175245
0.00181673
0.00167983
0.00183549
0.0016081
0.00185348
0.00153749
0.00187067
0.00146818
0.00188702
0.00140039
0.00190248
0.0013342
0.00191704
0.00126975
0.00193073
0.00120714
0.00194355
0.00114639
0.00195547
0.00108772
0.0019664
0.00103102
0.00197625
0.000976367
0.00198533
0.000923746
0.00199344
0.00087311
0.00200076
0.00082444
0.00200693
0.000777799
0.00201178
0.000733177
0.00201565
0.000689617
0.00201862
0.000649329
0.00201908
0.000601729
0.00201934
0.000591106
0.00164972
0.000635421
0.00127435
0.000651981
0.00126264
0.000665573
0.00128685
0.000671857
0.00130951
0.000675445
0.00133745
0.000680103
0.00136409
0.000684286
0.00138695
0.000687965
0.00141172
0.000691877
0.0014321
0.000692491
0.00145104
0.000692347
0.00147123
0.000691676
0.00148619
0.000689609
0.00150148
0.000687413
0.00151651
0.000686504
0.00152709
0.000685304
0.0015396
0.000685377
0.00154976
0.00068525
0.0015579
0.000684866
0.00156534
0.000684567
0.00157043
0.000684188
0.00157486
0.000683785
0.00157949
0.000684074
0.00158298
0.00068392
0.00158719
0.00068384
0.00158965
0.000683967
0.00158919
0.000684544
0.00158737
0.000685276
0.00158489
0.000686214
0.00158171
0.00069042
0.00157617
0.000697047
0.00156957
0.000703677
0.0015627
0.00070916
0.00155501
0.000714746
0.00154601
0.000722086
0.00153723
0.000729608
0.00152766
0.000736413
0.00152013
0.000744363
0.00150965
0.000751692
0.00149878
0.000758304
0.00149038
0.000765853
0.00147833
0.000773841
0.00146621
0.000780814
0.00145509
0.000786975
0.0014414
0.000792344
0.00142856
0.000797753
0.00141547
0.00080412
0.00140374
0.000809484
0.00139116
0.000814607
0.00137781
0.000820066
0.00136577
0.000824912
0.00135383
0.000826378
0.00134841
0.000831224
0.00133928
0.000834628
0.00133059
0.000834794
0.00132954
0.000843568
0.00133133
0.000850266
0.00133904
0.000859042
0.00133458
0.000854635
0.00131213
0.000866842
0.00119825
0.000933703
0.00109269
0.000981288
0.00103316
0.00100417
0.000992265
0.00101675
0.000966645
0.00101516
0.000937373
0.00100061
0.000914611
0.000979549
0.000895434
0.000967408
0.000879004
0.000959817
0.00086915
0.000952536
0.000868954
0.00093891
0.000870334
0.000971654
0.000878032
0.00097853
0.000881241
0.00108961
0.000877618
0.00292515
0.00292265
0.00135107
0.0029157
0.00137351
0.00290242
0.00139742
0.00288319
0.00142178
0.00285811
0.00144658
0.00282734
0.00147183
0.00279113
0.00149746
0.00274981
0.00152337
0.00270366
0.00154955
0.00265301
0.00157591
0.00259824
0.00160241
0.00253975
0.00162895
0.00247794
0.00165545
0.00241316
0.00168187
0.0023459
0.00170803
0.00227654
0.00173388
0.00220545
0.00175945
0.00213305
0.0017845
0.00205972
0.00180902
0.0019858
0.00183298
0.00191166
0.00185631
0.00183758
0.00187887
0.00176388
0.00190063
0.00169084
0.00192157
0.00161867
0.00194171
0.0015476
0.00196093
0.00147784
0.00197925
0.00140957
0.0019966
0.00134288
0.00201301
0.001278
0.00202846
0.00121489
0.0020429
0.00115372
0.00205638
0.00109452
0.0020689
0.00103733
0.00208039
0.000982273
0.00209093
0.000929164
0.00210054
0.000878164
0.00210905
0.000829179
0.00211663
0.000782233
0.00212338
0.000737257
0.00212927
0.000694058
0.00213446
0.000652564
0.00213755
0.000597518
0.00214153
0.000571845
0.00176436
0.000645637
0.00134168
0.000673666
0.00133988
0.000692447
0.00137181
0.000700424
0.00139728
0.000704173
0.00142906
0.000706966
0.00145782
0.000708862
0.00148268
0.000710418
0.0015062
0.000711394
0.0015281
0.000709687
0.00154803
0.000708116
0.00157181
0.000704705
0.00158397
0.000698787
0.00160014
0.000696751
0.00161149
0.000694799
0.00161983
0.000692308
0.00162937
0.000691842
0.00163977
0.00069091
0.00164505
0.000688861
0.00165393
0.000686817
0.00166095
0.000685496
0.00166672
0.000685969
0.00167341
0.000685672
0.00167578
0.00068543
0.00167977
0.000685556
0.00168355
0.000685344
0.00168362
0.000685073
0.00168155
0.000684485
0.00167832
0.000686662
0.00167323
0.000693992
0.00166713
0.000700909
0.00165948
0.000708851
0.00164959
0.00071557
0.00164112
0.000720851
0.00163053
0.000728779
0.00162292
0.000736735
0.00161215
0.000743868
0.001603
0.000752318
0.00159189
0.000760322
0.00157975
0.000767405
0.00156907
0.000775466
0.00155609
0.000783999
0.00154275
0.000791532
0.0015296
0.000797875
0.00151472
0.000802568
0.00150049
0.000808383
0.00148556
0.000814712
0.00147185
0.000819894
0.00145622
0.000824531
0.00144048
0.000829446
0.00142577
0.000833542
0.00141079
0.000834864
0.00139855
0.000838475
0.00138627
0.000840688
0.00137425
0.000838295
0.00136486
0.000845659
0.00136365
0.000852802
0.00135766
0.000850732
0.00132095
0.000864197
0.00121686
0.000942899
0.00112175
0.000987632
0.00104896
0.00102928
0.00101775
0.00104025
0.000990618
0.00104766
0.000966707
0.00103998
0.000942979
0.00101937
0.000921312
0.000997275
0.000900062
0.000983043
0.000883377
0.000974654
0.000872307
0.000968337
0.000870848
0.000954184
0.000872269
0.000988122
0.000879859
0.00099766
0.00088467
0.00110741
0.000883071
0.0029392
0.00293695
0.0013729
0.00293027
0.00139856
0.00291728
0.00142569
0.00289828
0.00145323
0.00287343
0.00148123
0.00284287
0.00150958
0.00280688
0.00153826
0.00276568
0.00156728
0.0027196
0.00159651
0.00266902
0.00162587
0.00261427
0.00165533
0.00255575
0.00168479
0.00249386
0.00171416
0.00242896
0.00174342
0.00236153
0.00177237
0.00229195
0.00180095
0.0022206
0.00182917
0.0021479
0.00185684
0.00207423
0.00188388
0.00199995
0.00191028
0.0019254
0.00193602
0.00185089
0.00196089
0.00177674
0.0019849
0.00170321
0.00200799
0.00163057
0.00203018
0.001559
0.00205144
0.00148871
0.00207167
0.00141992
0.00209089
0.00135273
0.00210907
0.00128727
0.00212623
0.00122364
0.0021424
0.00116197
0.00215748
0.00110226
0.00217144
0.0010446
0.00218446
0.00098903
0.00219656
0.000935509
0.00220771
0.000884099
0.00221789
0.000834745
0.00222729
0.000787554
0.00223593
0.000742314
0.00224394
0.000699481
0.00225223
0.000657936
0.00226141
0.000618835
0.00226743
0.00058751
0.00213115
0.000659843
0.00145562
0.000697695
0.00147133
0.000719765
0.00151504
0.00073013
0.00154568
0.000735228
0.00158373
0.000733549
0.00160184
0.000733247
0.00162348
0.000733597
0.00164194
0.000732431
0.00166295
0.00072703
0.00167414
0.000724188
0.00169067
0.000718875
0.00169764
0.000712413
0.00170778
0.000707655
0.00172194
0.000703488
0.00172417
0.000700038
0.00172871
0.000699413
0.00174835
0.000697136
0.00175336
0.000693883
0.00176102
0.000691012
0.0017693
0.000689875
0.00177533
0.000689068
0.00177897
0.000686944
0.00177843
0.000685608
0.00177867
0.000684456
0.00177874
0.000683224
0.00177732
0.000682436
0.00177277
0.000681569
0.00176748
0.000688464
0.00176058
0.00069613
0.00175084
0.000703278
0.00174159
0.000710977
0.00172869
0.000718457
0.00171807
0.000724193
0.00170684
0.000732158
0.00169645
0.000740744
0.0016835
0.000747993
0.00167097
0.000756642
0.00165921
0.000765136
0.00164519
0.000772025
0.00163173
0.000780099
0.00161721
0.000788801
0.00160245
0.000796387
0.00158766
0.000803343
0.00157174
0.000808819
0.00155651
0.000814523
0.00154017
0.000820726
0.00152508
0.000825716
0.00150798
0.000830138
0.00149067
0.000834518
0.00147268
0.000837524
0.00145586
0.00083691
0.00143986
0.000838611
0.00142564
0.000838679
0.00141064
0.000833943
0.00139344
0.000839363
0.00137297
0.000831709
0.0013248
0.000858487
0.0012324
0.000933905
0.00113983
0.000998491
0.00108074
0.0010372
0.00104422
0.00106303
0.00102066
0.00107059
0.000998639
0.00107044
0.00097618
0.00105988
0.000955067
0.00103835
0.000932611
0.0010132
0.000909758
0.000998557
0.000891757
0.00098948
0.000879274
0.000984186
0.000875353
0.00097034
0.000876132
0.00100538
0.000882874
0.00101278
0.000889269
0.0011245
0.000889887
0.00295537
0.00295336
0.00139678
0.00294693
0.00142558
0.00293418
0.00145581
0.00291542
0.00148645
0.00289076
0.00151748
0.0028604
0.00154888
0.00282459
0.0015806
0.00278351
0.00161257
0.00273754
0.00164472
0.00268698
0.00167702
0.00263221
0.00170938
0.00257363
0.00174169
0.00251163
0.00177385
0.00244657
0.00180585
0.00237893
0.00183752
0.00230909
0.00186875
0.00223747
0.00189951
0.00216441
0.00192976
0.00209036
0.00195926
0.00201567
0.00198804
0.00194066
0.0020161
0.00186567
0.00204325
0.00179101
0.00206941
0.00171695
0.00209463
0.00164377
0.00211883
0.00157164
0.00214202
0.00150081
0.00216417
0.00143142
0.0021852
0.00136367
0.00220515
0.00129762
0.002224
0.00123342
0.00224176
0.00117116
0.00225846
0.0011109
0.00227403
0.00105271
0.00228857
0.000996603
0.00230221
0.000942572
0.00231493
0.000890699
0.00232681
0.000840882
0.00233798
0.000793226
0.00234851
0.000747657
0.00235902
0.000704351
0.00236917
0.00066222
0.00237698
0.000617318
0.00238325
0.00059583
0.00237892
0.000694266
0.0016684
0.000734846
0.00163211
0.000757408
0.00166894
0.000770691
0.00171345
0.000770677
0.00173506
0.000761391
0.00174778
0.00075908
0.00176647
0.000756544
0.00177886
0.000751203
0.00179281
0.000743769
0.00179738
0.000739007
0.00180675
0.000733841
0.00181466
0.000724864
0.0018256
0.000717438
0.00184108
0.0007095
0.00184075
0.000707869
0.00184592
0.000705848
0.00186347
0.000703028
0.00186428
0.000699066
0.0018667
0.000696163
0.00187367
0.00069455
0.0018783
0.000692397
0.00187883
0.000689836
0.00187653
0.000688326
0.00187485
0.000686714
0.00187141
0.000684839
0.00186836
0.000683576
0.00186212
0.000687749
0.00185414
0.000695152
0.00184543
0.000703019
0.00183305
0.000710074
0.00182139
0.000718143
0.00180536
0.000726657
0.00179191
0.000733561
0.00177858
0.000741174
0.00176465
0.000749773
0.00175047
0.000757334
0.00173499
0.000765673
0.00171999
0.000774372
0.00170422
0.000781513
0.00168873
0.00078956
0.00167238
0.000798258
0.00165613
0.000805387
0.00163837
0.000811656
0.00162045
0.00081648
0.00160246
0.000821416
0.00158473
0.000826514
0.00156619
0.00083008
0.00154705
0.000833137
0.00152751
0.000836042
0.00150717
0.000837254
0.00148658
0.000835168
0.00146394
0.000835068
0.00144374
0.000832655
0.00141454
0.000819902
0.00137127
0.000812775
0.00130688
0.000843445
0.00122945
0.000917643
0.00114039
0.000973814
0.00107254
0.00103711
0.00105189
0.00106644
0.00102886
0.0010856
0.00100771
0.00108999
0.000990147
0.00108822
0.000971916
0.00107542
0.000954672
0.00105427
0.000933619
0.00102827
0.00091083
0.00101425
0.000893777
0.0010045
0.000882068
0.00100029
0.000877443
0.000987102
0.000878627
0.00102211
0.000885679
0.00102706
0.000894235
0.00114118
0.000894124
0.00297363
0.00297185
0.00142275
0.00296564
0.00145457
0.00295309
0.00148781
0.00293457
0.00152141
0.00291013
0.00155541
0.00287994
0.00158975
0.00284424
0.00162436
0.00280328
0.00165921
0.00275739
0.00169425
0.00270685
0.00172935
0.00265205
0.00176448
0.00259337
0.00179955
0.00253123
0.00183443
0.002466
0.00186908
0.0023981
0.00190339
0.00232798
0.00193719
0.00225601
0.00197042
0.00218257
0.00200314
0.00210809
0.00203504
0.00203293
0.00206614
0.00195743
0.00209645
0.0018819
0.0021258
0.00180667
0.00215407
0.00173204
0.00218131
0.00165825
0.00220749
0.00158551
0.00223259
0.00151405
0.00225654
0.00144406
0.00227935
0.00137569
0.00230101
0.00130901
0.0023216
0.00124417
0.00234096
0.0011813
0.00235916
0.00112042
0.00237625
0.00106163
0.00239227
0.00100494
0.00240737
0.000950358
0.00242159
0.000897947
0.00243474
0.000847669
0.00244709
0.000799498
0.00245896
0.000753353
0.00246993
0.00070969
0.00248024
0.000666477
0.00248967
0.000628242
0.00249584
0.000738963
0.00248632
0.000780823
0.00200018
0.000782024
0.00182736
0.000787759
0.00182611
0.000800261