/*--------------------------------*- C++ -*----------------------------------*\
| =========                 |                                                 |
| \\      /  F ield         | OpenFOAM: The Open Source CFD Toolbox           |
|  \\    /   O peration     | Version:  2.2.x                                 |
|   \\  /    A nd           | Web:      www.OpenFOAM.org                      |
|    \\/     M anipulation  |                                                 |
\*---------------------------------------------------------------------------*/
FoamFile
{
    version     2.0;
    format      ascii;
    class       volScalarField;
    location    "2.5";
    object      divBf;
}
// * * * * * * * * * * * * * * * * * * * * * * * * * * * * * * * * * * * * * //

dimensions      [1 -3 -2 0 0 -1 0];

internalField   nonuniform List<scalar> 
14161
(
1695.43
184.512
366.995
294.945
275.168
240.49
209.343
179.285
148.56
121.31
90.6654
59.5982
35.1585
-0.894447
-35.247
-65.7107
-104.612
-140.401
-181.463
-225.46
-271.325
-315.567
-361.419
-403.626
-450.933
-506.608
-558.438
-618.34
-667.356
-736.367
-779.836
-801.858
-925.626
-876.902
-971.027
-892.601
-962.672
-1021.31
-1228.43
-1800.24
-2606.96
-597.336
-7541.16
10687
-2047.36
-28123.8
-33544
-33341.9
-34019.8
-33108.8
-33172.2
-33025.8
-32686.3
-32462.9
-31888
-31383.5
-30930.5
-28903.5
-27226.1
-26258.1
-25160.3
-23979
-22941.6
-21477.5
-19741
-17949
-16244.1
-14540.8
-12787.4
-10954.2
-9166.17
-7499.07
-5831.45
-4070.85
-2383.79
-1029.39
275.289
1481.18
3293.3
4548.83
5941.62
6958.52
8486.14
9696.02
10389.3
11594.7
12281.5
13227.4
13584.5
13412.4
13702
14018.5
13529.9
13358.2
12399.7
11957.2
9822.19
9296.19
7896.28
4800.34
4590.19
1804.37
-844.821
-2500.56
-5025.06
-8483.08
-10343.9
-14544.5
-19900
-18107.1
-25981.8
-19482.9
-24219
-22598.9
-2811.37
-14181.9
20503
-20036.6
64279.4
1445.4
-62.0166
120.509
47.5952
25.3527
-11.0117
-43.4262
-77.3158
-113.331
-145.902
-181.119
-218.133
-251.516
-292.695
-335.055
-375.431
-422.552
-468.302
-519.98
-574.237
-631.271
-691.024
-746.208
-803.336
-864.874
-935.302
-1002.19
-1076.97
-1148.5
-1222.43
-1293.56
-1400.57
-1394.89
-1496.71
-1525.25
-1560.72
-1570.47
-1693.55
-1803.85
-1659.82
-1646.63
-172.926
-3721.38
-3541.5
-2924.79
-29129.7
-26598.6
-26569.2
-28178.5
-26935.3
-28958.2
-29548.5
-29030.6
-28922.3
-28881.4
-27274.7
-26590.7
-25492.9
-23295.3
-22782.2
-21128.8
-20474.2
-19507
-18281.4
-16551.7
-14556.1
-12886.6
-11403.6
-9818.3
-8325.24
-6833.28
-5251.37
-3720.94
-2064.06
-465.87
932.678
2315.6
3538.95
5135.32
6542.87
7777.38
9011.85
10339.4
11254.6
12089.8
13263.8
13834.7
14594.8
14829.7
15003
15195
15320.3
15092.7
14773.2
14078.3
13431.2
11344.1
11270
9560.19
6246.56
6908.29
3728.26
1509.55
-1086.33
-3723.14
-6508.23
-7901.04
-13741.7
-17610.8
-24673.3
-36138.6
-36670.3
-28737
-33193.2
-16869.3
-26627.9
6050.6
-20853.5
41521.2
1194.88
-300.95
-118.906
-190.462
-213.414
-250.137
-283.812
-319.745
-357.723
-394.412
-433.3
-474.701
-514.242
-558.91
-606.853
-654.787
-707.75
-762.232
-820.757
-882.997
-949.583
-1016.61
-1084.98
-1152.88
-1224.98
-1306.74
-1386.51
-1470.2
-1561.64
-1634.45
-1734.66
-1818.06
-1882.79
-2002.35
-1992.75
-2091.76
-2166.96
-2201.17
-2032.14
-1743.37
-1335.01
404.583
8332.93
-781.613
-5158.07
-24203.8
-21751.9
-23354.8
-25255.3
-28426.5
-28078.5
-27273.9
-26698.6
-27289.4
-26597.5
-26950.6
-26915
-24817.4
-23869.8
-22449.2
-21433.6
-19240.6
-17105.2
-15270
-14444.7
-13016.4
-11404.1
-9908.8
-8311.51
-6734.07
-5139.89
-3387.33
-1954.41
-201.914
1179.42
2547.31
3666.83
4794.28
6435.67
7653.72
8801.36
9893.59
11105.1
12173.2
12757.7
13913.9
14562.2
15423.9
15569.6
15962.1
15797.4
15988.2
15701.5
15306.4
14550.9
13994.8
11516.6
11787.2
10257.5
6132.89
7134.26
4507.51
2619.11
-555.606
-2060.35
-5642.83
-9177.38
-14133.7
-18054
-24100.7
-19201.1
-20077.1
-14443.1
-17135.5
-4171.71
-14003.7
10431
-13526.9
38141.2
949.933
-532.523
-349.929
-418.694
-439.443
-476.152
-510.659
-547.055
-585.602
-624.828
-665.7
-709.531
-754.569
-800.971
-852.344
-906.664
-964.223
-1024.98
-1089.47
-1157.64
-1229.92
-1304.59
-1381.93
-1458.4
-1536.24
-1628.16
-1716.38
-1815.36
-1904.83
-2006.67
-2100.98
-2194.33
-2293.48
-2368.36
-2425.28
-2512.92
-2630.27
-2706.13
-2375.85
-1857.12
-1771.04
-4543.27
-5591.77
-25115.1
-22837.5
-16124.4
-18575.4
-19618.8
-23885.4
-22844.2
-27175.3
-28068.9
-28688.4
-27656.8
-25082
-22547.4
-20811.8
-20891
-20146.8
-17608.1
-16711.9
-15613.5
-14504.4
-12869.8
-11623.3
-10454.7
-9041.46
-7600.88
-6169.6
-4754
-3266.2
-1818.5
-367.757
1502.8
2501.98
4217.46
5257.93
6246.22
7783.23
8860.81
10226.8
11060.2
12442.6
13257
13811.3
15150.6
15728
16560.9
16481.3
17110.4
16864.8
17002.9
16799.5
16397
15833.7
14964
12687.5
13146
11526.9
7352.06
8597.85
6459.23
3927.38
570.823
-1962.89
-3316.02
-8364.36
-12601.2
-17933.4
-18372.4
-14054.4
-15467.9
-12068.7
-13881.5
-4865.39
-11520.7
7026.15
-9963.65
33342.3
709.664
-754.666
-570.851
-635.547
-654.078
-688.88
-722.518
-759.124
-797.289
-837.513
-879.232
-924.24
-972.337
-1020.09
-1076.58
-1134.43
-1193.16
-1259.24
-1326.37
-1400.03
-1478.03
-1557.8
-1640.79
-1725.82
-1808.8
-1908.21
-2002.49
-2107.14
-2202.51
-2321.53
-2406.25
-2526.54
-2619.72
-2712.84
-2804.87
-2878.48
-2917.87
-2972.84
-3037.42
-2953.83
-2601.25
-1563.29
1746.55
-702.46
-12673.4
-15147
-19012.6
-21255.7
-23218.2
-27644.2
-25943.4
-26830.4
-25468.9
-26048
-26311
-25524
-24151.9
-22212.4
-20058.7
-17995.5
-16031
-14122.2
-13376.9
-11916
-10559.1
-9143.38
-7431.39
-5953.07
-4424.47
-2983.73
-1614.06
-340.889
1194.89
2499.66
3839.7
5166.42
6671.64
7859.68
8739.51
9885.23
11433.7
11923.1
13455
14433.9
14960.8
16081
16811.7
17265.1
17364.9
17980.9
17808.1
17877.1
17581.5
17166.4
16584.7
15797.7
13231.9
13878.8
12463.7
8047.51
9954.19
6348.01
4718.67
1442.42
348.046
-3916.31
-5085.84
-11442.4
-10825
-8916.51
-7964.14
-10347.2
-7442.75
-9006.87
-3905.09
-8519.86
4971.51
-6229.34
29606.7
476.515
-966.057
-780.535
-840.912
-856.315
-888.273
-919.962
-955.246
-992.385
-1033.15
-1074.81
-1119.82
-1170.29
-1219.42
-1277.17
-1337.65
-1398.15
-1468.28
-1537.02
-1615.89
-1696.1
-1780.69
-1869.28
-1958.94
-2045.47
-2148.68
-2251.1
-2355.06
-2466.04
-2575.84
-2684.3
-2793.03
-2906.09
-3001.41
-3101.51
-3177
-3239.09
-3391.6
-3496.08
-3749.48
-3654.67
-2739.93
-3416.95
-5242.79
4364.48
-24855.2
-26236.2
-31788.6
-29965.9
-29035.1
-29231.8
-28194.8
-27567
-26618.1
-24413.8
-22896.8
-21680.1
-18908.2
-16138.7
-15074.7
-13556.3
-12035.2
-10629.3
-9236.42
-7983.42
-6859.64
-5294.73
-3917.16
-2491.04
-1104.51
133.171
1470.06
2666.23
4138.77
5284.08
6777.43
8819.96
9553.97
10003.2
11376.9
12960
13297.5
14899.2
15764.5
16277.1
17409.8
17988.7
18539.1
18482
19050.1
18887.5
18909.4
18719.4
18145.4
17774.8
16941.3
14553.2
15091.1
13528.8
9301.34
11118.1
7011.88
7505.2
3186.64
2235.89
2555.37
-2554.98
-7723.55
-5606.69
-7723.99
-7363.07
-9282.64
-5930.74
-7357.46
-4370.12
-6723.63
3865.56
-6010.44
25235.4
251.261
-1166.96
-978.474
-1033.13
-1045.1
-1073.72
-1103.1
-1136.4
-1171.33
-1211.83
-1252.69
-1297.86
-1348.54
-1398.74
-1456.91
-1519.34
-1579.5
-1653.78
-1724.62
-1805.18
-1887.49
-1975.71
-2068.63
-2160.95
-2253.46
-2358.44
-2463.21
-2575.84
-2685.49
-2794.39
-2917.21
-3018.17
-3134.56
-3241.11
-3349.32
-3439.57
-3556.17
-3596.65
-3501.5
-3442.92
-4169.97
-4925.57
-5348.63
9589.81
3966.98
-20663.7
-36186.6
-39595.2
-37253.6
-34161.7
-31452.7
-28946.9
-27579.4
-26081.8
-25373.6
-22356.8
-19970.2
-18378.5
-16884.9
-15169.7
-12599.3
-11077.1
-9676.08
-7965.29
-6452.51
-5311.28
-4735.21
-3162.73
-1389.46
82.3283
1453.28
2684.6
3822.44
5073.79
6590.14
7595.11
9009.68
11040
11148
12541.3
14066.9
14401.5
16125.1
17204.3
17402.8
18660.8
19354.7
19503.9
19943.8
19741.8
19674.1
19843.1
19466.5
19025.5
18675.5
17861.1
15442.2
15580.1
14353.2
11048.1
12219.2
9458
8640.25
6100.9
11518.1
8802.44
1474.92
-1155.37
-1635.44
-4165.31
-4436.66
-5317.26
-3417.06
-4902.33
-3771.66
-4304.18
3611.33
-5305.21
21199.2
35.3054
-1355.02
-1164.12
-1212.9
-1219.88
-1244.92
-1272.08
-1301.73
-1335.21
-1374.21
-1414.7
-1458.07
-1508.84
-1560.52
-1616.9
-1679.1
-1744.2
-1816.79
-1890.46
-1971.42
-2056.1
-2146.62
-2240.59
-2337.36
-2435.08
-2537.17
-2647.4
-2758.77
-2876.28
-2988.17
-3102.77
-3219.84
-3321.76
-3433.83
-3534.89
-3627.34
-3711.71
-3727.85
-3752.11
-3842.05
-3978.73
-3656.48
-4678.35
7140.79
13901.2
-21256.8
-33554.4
-44586.9
-45239.6
-41904
-37587.9
-32528.4
-29893
-25135.5
-23162.2
-20289.2
-17523.5
-15046
-14686.4
-12797.7
-10329.5
-8826.51
-7779.38
-5993.21
-4197.86
-3517.3
-2794.16
-1415.65
-0.371144
1567.79
3023.47
4600.96
5957.94
7042.82
8100.63
9469.81
10257.7
12523
13307.9
14281.4
15565.9
15902.9
17297.1
18109.9
18567.2
19612.8
20096
20697.3
20674.7
21142
20899
20813.4
20678.6
19670.1
19290.7
18372
16842.4
16685.1
15511.8
13328
12649.9
11656.2
13649.7
19443.2
20218.4
7939.2
1855.96
-787.636
-2142.78
-4574.99
-4261.43
-4695.03
-3299.63
-4366.55
-3515.48
-3731.39
2344.71
-5499.08
16910.9
-170.082
-1530.45
-1336.29
-1378.55
-1381.71
-1402.32
-1424.46
-1452.3
-1484.57
-1520.21
-1560.48
-1602.07
-1652.58
-1704
-1758.61
-1822.96
-1889.32
-1958.4
-2036.13
-2116.69
-2202.9
-2294.05
-2389.04
-2489.48
-2590.03
-2693.52
-2803.44
-2917.65
-3033.36
-3148.69
-3264.23
-3375.48
-3484.55
-3585.92
-3673.05
-3769.57
-3843.52
-3891.9
-3903.28
-3835.24
-3726.3
-3737.18
-4555.81
5065.68
823.644
-26089.3
-40885.9
-44686.9
-45253
-40235.8
-35171.9
-30929.4
-28948.9
-25302.5
-21735.5
-20068.3
-16728.1
-15269
-11124.4
-9321.22
-8987.13
-7289.59
-6366.37
-3981.88
-1826.99
-1177.54
278.356
1966.87
2400.8
3550.6
5201.22
6487.86
7829.83
8848.36
9803.62
11548.1
12420.6
14014.4
15159.3
15930.3
17034.4
17862.6
18909.6
19434.2
20299
20895.5
21204
21802.6
21667.4
22014.5
21795.5
21561.7
21238.7
20858.9
20249
19809.8
18507.4
17283.7
15912.7
14602.4
14589.7
17744.3
26404.5
29982.2
13549.2
9500.99
4238.37
2505.4
121.215
-1911.65
-1595.68
-2806.79
-2083.07
-3328.59
-2537.49
-2768.55
1795.33
-5453.61
13459.9
-363.552
-1691.89
-1495.16
-1530.58
-1528.3
-1545.16
-1564.65
-1589.64
-1617.11
-1651.29
-1689.53
-1731.26
-1779.45
-1830.72
-1885.14
-1948.17
-2014.89
-2083.55
-2163.27
-2243.22
-2330.51
-2421.82
-2517.02
-2619.04
-2722.2
-2828.72
-2938.13
-3052.57
-3166.43
-3286.13
-3400.28
-3510.87
-3612.12
-3712.8
-3802.84
-3883.86
-3943.63
-3982.36
-3963.74
-3960.66
-3891.21
-3842.07
-3064.68
-4618.44
-16091.6
-56831.8
-44766.3
-46496.7
-43761.4
-39903.5
-31536.8
-26242.7
-23209.7
-19553.2
-19811.7
-11937.9
-13709.1
-11136
-6151.27
-3170.82
-5647.1
-3817.77
-3149.87
-1493.25
-476.926
537.647
2491.12
3764.43
4618.74
5720.56
6929.4
8373.94
9394.52
10716.6
11613.5
12782.2
13805.3
15383.2
16771.7
17497.5
18311.3
19208.2
19942.3
20504.3
21118.9
21674.7
21939.1
22400.6
22456.9
22853.7
22689.6
22654.2
22184.7
21509.3
20896.5
19932.5
19111.3
18252.1
17745.4
19820.8
22657
35030.2
35790.4
24087.1
12547.2
7620.64
2481.6
143.022
-2227.8
-2567.79
-2839.47
-3086.91
-2383.58
-3228.74
-2450.32
-2854.41
-44.1331
-4978.12
9679.95
-544.394
-1839.1
-1639.47
-1668.38
-1661.78
-1673.88
-1689.1
-1711.69
-1736.75
-1768.53
-1805.16
-1843.68
-1891.14
-1941.96
-1996.65
-2056.02
-2123.45
-2195.52
-2270.09
-2352.14
-2439.95
-2530.79
-2627.06
-2728.13
-2832.93
-2941.09
-3051.87
-3164.73
-3280.16
-3397.66
-3510.71
-3618.25
-3720.94
-3810.88
-3891.87
-3942.81
-3986.41
-4007.87
-3969.93
-3901.88
-3495.07
-3732.79
-1522.98
-19647.2
-84524.8
-87592.7
-37178.9
-22955.9
-25405.3
-21354.8
-20443.3
-22171.6
-16647.9
-13366.6
-9288.79
-7511.38
-5282.81
-3315.85
757.705
-474.251
-2386.79
459.621
753.945
1062.29
1616.95
2906.34
4268.32
5233.15
6435.48
7427.97
8737.04
9858.94
11009.9
12098.6
13131.3
14094.2
15195.7
16712.9
17922.7
18752.7
19422.3
20265
20968.8
21326.9
21996.1
22565
22751.6
23254.5
23158.9
23482.6
23221.5
23036.1
22605.6
22135.1
22006.9
22164.6
21350
21772.3
23683.8
31172.6
40554.3
42659.4
25510.5
13505.7
8766.16
5430.67
3244.13
1262.34
-599.232
356.921
-1731.05
-1745.65
-1925.56
-2602.64
-2047.57
-2792.05
-845.746
-4000.01
7386.28
-711.694
-1971.47
-1769.35
-1791.97
-1781.06
-1788.44
-1799.76
-1819.43
-1841.87
-1871.03
-1906.29
-1943.93
-1987.96
-2038.3
-2093.22
-2150.18
-2218.1
-2289.74
-2361.73
-2445.45
-2532.43
-2622.97
-2719.98
-2820.77
-2925.62
-3035.88
-3146.59
-3259.85
-3375.78
-3492.24
-3609.01
-3711.82
-3816.33
-3914.28
-3993.99
-4057.75
-4105.19
-4149.84
-4194.68
-4192.6
-4273.93
-4737.29
-4324.49
-23890.1
-182390
-118303
-35423.8
-29038.1
-13488.9
-6235.24
-6939.8
-9976.04
-8683.16
-6539.98
-3979.47
-4319.57
888.323
-1664.59
3177.74
720.129
1059.75
2966.64
3192.98
3666.94
4427.72
5419.91
6521.61
7244.49
8545.78
9558.83
10666.4
11666
12459.7
13640
14459.3
15583.2
16583.1
17866.7
18839.9
19824.5
20343.9
21247.3
21679.3
21936.2
22349.1
22876.2
23040.5
23570.1
23642.8
23983.1
24237.4
24340.3
24625.7
24544.7
25620.2
26361.9
29003
33066.5
38196.2
50939.6
40452.9
26002.7
17696.3
11965.7
6225.22
4855.54
2562.35
-286.618
-265.213
-388.952
-1097.78
-1369.77
-1514.08
-2212.66
-1943.63
-2908.65
-1747.98
-4111.95
4831.45
-864.435
-2088.65
-1884.91
-1901.14
-1885.33
-1889.45
-1897.21
-1913.52
-1933.41
-1960.01
-1993.63
-2030
-2071.37
-2120.79
-2174.73
-2230.36
-2297.3
-2368.16
-2440.53
-2522.28
-2607.61
-2701.58
-2795.56
-2896.75
-3000.5
-3111.59
-3223.99
-3335.87
-3453.45
-3572.45
-3687.18
-3795.75
-3895.48
-3989.2
-4069.48
-4105.67
-4130.7
-3993.06
-3919.34
-3642.67
-2775.36
-3554.51
2693.06
-71149
-95366.8
-56292.4
-68331.3
-25701.9
-5674.93
-4888.06
-5017.79
-4020.8
-4049.03
-3060.89
-3369.73
-1858.18
-1931.73
1953.48
2041.15
1006.29
1515.26
2956.67
3322.44
4012.72
4930.45
6087.61
7293.4
7786.47
9149.81
10090.7
11200.3
12233.2
13111.4
14136.2
15076.8
16105.7
17047.8
18245.5
18923.8
19951.1
20588.7
21558.1
22243.5
22598.3
23525.9
24154.3
24058.7
25844.9
26079.6
26471.6
27347.6
28282.3
30741.4
32776.5
36225.4
38487.6
44079.9
49709.5
46106.5
31824.7
25007.2
14234.4
8803.58
3902.4
4059.93
1382.55
1033.39
-1002.31
239.156
-378.331
-895.87
-1471.25
-1442.33
-2128.35
-2018.08
-2984.2
-2042.81
-3917.91
3404.76
-1002.59
-2190.45
-1985.26
-1995.85
-1976.24
-1976.62
-1980.63
-1994
-2012.11
-2035.98
-2066.65
-2103.35
-2141.83
-2189.43
-2243.56
-2297.61
-2362.68
-2432.81
-2506.46
-2584.81
-2668.34
-2763.37
-2858.89
-2957.37
-3061.8
-3172.08
-3286.92
-3400.08
-3513.23
-3635.69
-3755.8
-3866.23
-3975.01
-4074.65
-4166.44
-4239.75
-4299.54
-4380.67
-4455.89
-4615.42
-4747.76
-5266.44
-5013.61
-134882
-33372
-29016.5
-52296.6
-54798.6
-30885.4
-22041.8
-18404.3
-12803.4
-6108.59
-8208.91
-4759.29
-1012.67
-1855.6
2598.94
1578.45
3260.93
3508.22
4011.28
4555.24
5375.97
6712.8
7466.69
8851.68
8970.83
10628.3
11275
12557.2
13237.3
13876.7
15062.8
16057.2
17404
18347.1
20104.6
20597.8
21661
22585.4
23257
23630.1
24617.5
25879.6
27069
27994.4
31162.1
32225.8
35047.1
37841.5
40974.6
43936.2
47731.4
51268.2
49644.1
40678.8
31061.5
26757.7
18178
13515.4
6193.92
6969.04
3261.86
2385
808.559
577.691
-709.312
20.1327
-485.235
-749.694
-1286.85
-1144.3
-1984.77
-1891.2
-2974.41
-2246.77
-3940.76
1874.21
-1125.52
-2276.68
-2070.66
-2076.29
-2053.41
-2050.18
-2050.95
-2061.3
-2078.39
-2098.67
-2127.83
-2163.67
-2200.09
-2245.75
-2299.53
-2352.12
-2415.71
-2484.16
-2559.57
-2634.2
-2718.71
-2806.97
-2909.72
-3005.13
-3107.15
-3213.38
-3332.84
-3452.76
-3559.97
-3678.72
-3811.17
-3928.08
-4036.39
-4146.16
-4246.16
-4335.88
-4411.48
-4435.88
-4504.87
-4371.89
-4532.77
-4092.96
-9817.63
-105847
-18715.9
-18769.6
-26300.4
-45352.9
-65204.3
-44904.9
-29378.3
-13977.3
-10398.3
-11682.6
-4601.45
-6099.06
1765.63
-19.2284
1928.64
4964.95
4672.1
4507.27
5549.02
6183.07
8132.07
7090.22
9327.7
10001.1
11272.4
12123.6
13470.3
14373.3
15237.6
16455.7
17599.7
19109
19901.8
21877.2
23005.8
24662.6
25488.4
28205.3
29399.4
32383.4
34534
37751.9
40452
43271.5
46692.7
49323.3
53139.2
56665
50106.2
40439.8
31603.7
25801
24358.1
19093.1
13333.1
9127
5282.73
2035.75
1234.57
189.712
734.996
-437.134
-1571.17
-1178.85
-797.683
-831.781
-1208.59
-1192.4
-1289.72
-1954.38
-1950.09
-2969.91
-2304.75
-3893.07
943.848
-1232.71
-2347.52
-2141.57
-2142.44
-2116.29
-2110.33
-2108.83
-2116.39
-2131.31
-2149.7
-2176.43
-2211.59
-2246.93
-2290.14
-2341.73
-2396.25
-2456.21
-2523.74
-2597.64
-2673.85
-2754.77
-2842.58
-2940.53
-3042.75
-3141.66
-3247.56
-3360.4
-3486.04
-3600.53
-3714.89
-3843.4
-3976.16
-4092.06
-4203.44
-4308.68
-4407.44
-4481.22
-4544.27
-4553.23
-4432.9
-4956.73
-2793.39
-48383.2
-48267.5
-4833.69
-2167.88
-8024.24
-21670.5
-34711.8
-52959.5
-51105.3
-26929.9
-23987
-10355
-5590.06
-1426.46
1114.74
-1020.47
3775.57
4208.93
4450.32
6229.67
8328.94
8344.19
8523.8
9527.52
10852.7
11768.4
13142.8
14552.8
15438
17438
18485.4
19784.3
21676.1
25131.3
26560.1
28458.8
32145.8
34948.2
36964.4
40869
44420.5
47329.6
50478.4
53428.8
56609.3
56469.8
50920.7
43822.4
35850.3
29929
27772.1
23003.4
19590.6
14071.8
12637.6
9279.91
6650.01
3421.99
1952.05
-85.4613
-264.358
-875.715
-725.789
-1053.95
-1665.43
-783.967
-1089.93
-1075.05
-1051.41
-1104.23
-1116.65
-1804.52
-1816.53
-2834.95
-2301.75
-3816.23
63.1669
-1324.13
-2402.78
-2198.08
-2194.71
-2165.74
-2157.36
-2153.89
-2159.28
-2172.27
-2189.34
-2213.52
-2247.35
-2282.2
-2323.55
-2372.83
-2428.75
-2484.65
-2551.11
-2625.43
-2700.42
-2779.42
-2866.97
-2957.81
-3067.78
-3163.39
-3267.98
-3379.05
-3500.38
-3627.32
-3742.24
-3863.76
-4004.53
-4135.67
-4263.59
-4386.35
-4507.09
-4637.78
-4696.82
-4844.33
-4551.55
-5599.53
-1309.26
-78306.4
-31016.4
-5395.7
-2804.98
-6910.96
-12604.4
-20604.6
-37208.7
-54143.7
-56744.9
-40263.8
-20529.3
-16692.7
-350.978
-1471.31
5884.98
3750.18
2906.19
6310.17
8418.18
10207.5
11003.1
11019.6
12636.8
13609.2
16416.4
17542.5
21247.7
22659.1
27338.5
29596
32889.1
35751.1
40167.8
43499.8
46734.6
48533.1
52347.4
54302.8
56451.6
57701.6
53415.2
48017.2
41182.1
34708.2
30068.8
27602.1
24573.6
21751.3
17453.5
13691.6
11615.6
10093.3
7510.54
5856.29
4269.43
2561.17
1007.91
-258.495
-1400.9
-2340.97
-2214.6
-1900.77
-1673.48
-2110.52
-1256.4
-1874.2
-1073.13
-1421.94
-1148.58
-1294.08
-1749.91
-1890.71
-2758.14
-2335.71
-3732.82
-648.351
-1399.86
-2442.92
-2239.84
-2233.29
-2202.47
-2191.64
-2186.53
-2190.2
-2201.54
-2217.82
-2239.9
-2271.27
-2306.71
-2345.95
-2393.6
-2448.54
-2503.57
-2567.71
-2640.36
-2715.67
-2792.91
-2879.64
-2968.45
-3069.3
-3180.58
-3278.36
-3387.26
-3502.23
-3632.56
-3756.25
-3880.06
-4013.52
-4157.39
-4294.5
-4414.65
-4543.51
-4678.14
-4910.02
-5013.38
-5075.25
-5607.52
-4671.16
-65349.1
-23222.2
-9193.33
-4471.62
-5349.51
-6630.46
-11826.6
-18441
-29584.4
-53874.9
-51603.6
-40099.9
-16260.8
-6974.33
3713.85
10747.3
2498.4
7843.13
11057.6
11698.7
14643.5
17462.5
18844.1
23064
24624.6
30595.2
34016
39564.7
44184.8
48508.6
53056.8
54961
57619.6
57853.6
60394.4
57090.3
52241.9
47324.6
41444.6
35720.8
31111.2
28815.4
26647.9
24273.8
20697.2
16627.6
13275
12510.8
10432.9
8849.25
6537.72
5947.57
5087.92
3852.37
2499.93
1713.78
560.864
-422.7
-1416.62
-2129.83
-2849.73
-2640.54
-2608.52
-2223.18
-2558.73
-1571.07
-1935.77
-1109.82
-1040.57
-999.734
-1049.73
-1518.2
-1753.32
-2497.48
-2285.11
-3565.08
-1292.87
-1459.88
-2467.91
-2267.8
-2258.67
-2226.25
-2214.07
-2207.44
-2209.28
-2219.11
-2235.42
-2255.62
-2284.72
-2320.61
-2358.32
-2403.48
-2458.05
-2512.39
-2574.32
-2643.98
-2720.01
-2796.91
-2879.42
-2971.9
-3062.28
-3177.95
-3279.75
-3381.02
-3498.26
-3622.26
-3756.66
-3880.37
-4005.61
-4156.69
-4297.28
-4429.43
-4553.11
-4691.38
-4837.26
-4970.54
-5108.19
-5264.86
-5755.81
-70090.3
-13973.9
-9805.83
-2710.45
-1822.82
-2028.33
-4869.41
-7863.46
-14431.3
-25752.9
-42295.2
-64456.1
-37264.3
-8803.89
12248.3
8086.79
13283.9
20680
21324.1
21539.5
28103.4
34274.8
42219.2
49509.7
54110.4
57517.5
63184.2
65215.2
67291.2
62189.4
57495.4
51117.5
45756.7
39451.5
34086.4
31517
29174.1
27240.2
24868
21867.7
17598.2
14370.1
12837.3
11423.2
9472.6
8419.26
6060.07
6295.46
5172.88
4568.01
2921.98
3132.17
2291.99
1931.62
940.957
327.434
-524.137
-1170.31
-2071.65
-2657.44
-3378.58
-3545.92
-3488.64
-2942.29
-2958.39
-2045.39
-2626.13
-1537.13
-1638.07
-1036.82
-1323.94
-1546.34
-1915.05
-2350.88
-2482.98
-3316.35
-1878.93
-1504.53
-2478.47
-2281.98
-2270.89
-2237.9
-2224.49
-2217.09
-2217.56
-2225.68
-2242.3
-2261.3
-2288.12
-2323.85
-2360.96
-2403.72
-2456.88
-2511.4
-2570.87
-2638.52
-2713.66
-2790.65
-2868.33
-2961.6
-3053.14
-3152.81
-3273.31
-3372
-3478.32
-3599.97
-3733.09
-3871.61
-3988.95
-4126.69
-4291.52
-4416.06
-4536.13
-4638.3
-4748.17
-4626.28
-4943.46
-4094.48
-19911.9
-54771.1
-4509.7
-5796.64
330.638
-592.447
-1225.69
-3398.98
-5471.32
-9768.03
-15108
-24250.2
-38467.2
-47119.1
-9910.81
10699.5
24363.5
38445.1
46290.9
48093.5
54062
59928.3
67536
74330.2
72701.2
69118.6
61675.8
54865.1
47497.9
41696.9
37753.4
34613.8
32463.7
29638.3
26405
22081.1
18214.4
15593.1
13481.3
12161.9
10550.2
8914.1
7345.03
5981.31
5406.93
4278.08
3917.43
2644.57
3078.77
2127.12
2146.85
969.614
1631.78
884.373
684.015
86.0697
-453.406
-1171.25
-1774.32
-2567.43
-2889.46
-3819.26
-3349.2
-3909.21
-2707.03
-2944.76
-1966.53
-2292.98
-1284.54
-1360.74
-940.073
-1156.12
-1281.75
-1752.65
-2037.03
-2445
-2891.51
-2368.44
-1534.24
-2475.07
-2282.74
-2270.54
-2238.01
-2223.08
-2215.69
-2215.59
-2222.38
-2238.51
-2257.14
-2282.36
-2316.86
-2353.8
-2395.14
-2445.77
-2500.49
-2558.14
-2623.58
-2696.83
-2774.39
-2851.17
-2937.75
-3034.1
-3127.28
-3238.81
-3355.57
-3458.44
-3567.55
-3694.75
-3834.86
-3962
-4094.07
-4241.64
-4404.33
-4500.37
-4597.93
-4736.93
-4610.57
-5430.21
-3051.08
-53157.8
-32265.4
-3740.23
-4598.84
1330.6
156.379
-423.937
253.022
-1067.26
-3299.23
-4086.45
-5479.55
-5654.88
-419.841
10979.4
35635.4
62792.7
69814.2
73513.6
73349
73719.3
64749.5
57386.6
49881.7
46056.8
43701.2
40554
37126
33086.2
29021
25478
22855.3
20297
17808.8
15445.8
13268.2
11717.1
9705.94
8028.98
6711.57
5533.17
4580.41
3804.01
2824.44
2285.11
1738.1
1689.65
1372.67
1587.78
734.524
995.191
119.517
876.799
171.859
44.8706
-374.348
-866.813
-1357.59
-1925.78
-2508.41
-3212.2
-3252.56
-3887.59
-3928.9
-3065.45
-3174.9
-2490.39
-2749.98
-1791.38
-1503.47
-907.014
-1251.42
-1261.51
-1781.55
-1927.89
-2631.55
-2560.55
-2771.28
-1549.58
-2458.08
-2271.16
-2258.38
-2226.02
-2211.13
-2203.54
-2203.52
-2209.7
-2224.53
-2243.5
-2267.59
-2300.4
-2337.26
-2377.45
-2426.46
-2479.79
-2536.68
-2599.82
-2670.63
-2745.91
-2826.83
-2904.46
-3001.35
-3096.36
-3198.4
-3318.92
-3424.31
-3534.14
-3647.09
-3778.34
-3922.89
-4056.07
-4187.67
-4365.7
-4489.05
-4629.05
-4751.78
-4715.45
-5554.32
-3039.69
-60212.4
-31374.6
-5391.56
-5226.9
1270.43
1732.48
2202.7
3300.88
3506.66
3556.97
3457.77
6535.79
17696.1
49572
80219.9
85312.1
71163
61235
51515
49472.3
48800.2
44145.1
40335.3
35734.9
32116.3
30661.7
29112.8
26826.5
24265.5
22292.7
20423.9
18969.4
17143.7
15390.5
13158.2
10941.9
9404.01
7551.71
6109.01
4748.52
3724.34
3135.13
2176.57
1555.04
755.867
503.012
224.134
277.639
229.007
-211.699
-83.4027
-560.452
19.4383
-312.123
-459.828
-820.92
-1359.53
-1720.42
-2332.84
-2690.19
-3333.05
-4013.9
-3681.66
-4184.2
-3620.71
-3345.7
-2645.84
-2576.21
-1603.8
-1467.16
-754.385
-1105.12
-1013.71
-1605.03
-1565.51
-2635.08
-1941.84
-3015.6
-1551.12
-2428.23
-2247.69
-2234.93
-2203.26
-2188.62
-2181.43
-2181.89
-2187.34
-2201.54
-2220.9
-2243.98
-2275.26
-2311.97
-2351.93
-2397.75
-2450.66
-2506.58
-2567.52
-2635.85
-2710.43
-2789.59
-2866.49
-2957.53
-3052.27
-3153.67
-3260.55
-3385.17
-3487.81
-3597.23
-3720.19
-3848.95
-3989.46
-4107.83
-4257.06
-4369.24
-4558.75
-4616.79
-4654.24
-4587.31
-4246.27
-64632.4
-15397.8
-5687.51
-4571.46
2784.13
2922.36
3156.23
3741.67
6485.12
8719.04
13167.1
37600.6
82010.2
125455
101729
63224.7
51280.4
42554.7
37899.5
33820.3
32738.5
29954.7
27385.8
24661
23141.9
22654.5
22177
21939.2
20380.4
18281.6
16872.9
16422.2
15120.7
14002.8
12082.4
10482.3
9096.57
7522.58
6372.47
5077.08
3905.12
3007.34
2366.08
1661.31
981.3
382.396
-74.3077
-185.368
-488.294
-509.272
-545.245
-693.193
-434.966
-681.803
-740.887
-993.23
-1337.91
-1571.09
-2130.54
-2539.36
-3374.1
-3741.39
-4421.69
-4266.3
-3693.81
-3448.8
-2978.8
-2576.33
-1692.65
-1257.17
-725.723
-1204.14
-974.392
-1617.27
-1550.82
-2515.85
-1623.29
-3203.59
-1539.69
-2386.34
-2212.71
-2200.7
-2170.28
-2156.53
-2149.87
-2150.47
-2156.4
-2169.72
-2189.46
-2212.51
-2241.71
-2278.3
-2317.8
-2361.63
-2413.29
-2468.27
-2527.15
-2592.21
-2667.34
-2743.61
-2820.05
-2904.99
-3001.24
-3095.58
-3201.2
-3315.68
-3436.26
-3541.86
-3654.69
-3780.81
-3913.8
-4039.43
-4199.72
-4342.55
-4588.77
-4721.85
-5065.18
-5180.94
-10178.9
-71842.3
-9310.31
-5535.78
-4726.78
2921.34
3828.99
3698.91
4498.43
9963.24
21038.6
39413.7
86818.5
157384
124282
71979
48292.2
36649.3
30758.3
27062.1
24787.2
22730.4
20659.6
18859.2
17513.3
16018.5
15120.3
15165.9
15940
16760.7
17912.2
17055
16751.6
15511.6
14445.9
12895.6
11572.7
9959.89
8243.03
7030.2
5574.84
4387.8
3327.91
2540.46
1616.68
863.113
290.57
-292.04
-433.619
-903.796
-793.915
-933.272
-752.982
-767.569
-911.04
-930.884
-1151.35
-1422.11
-1766.65
-2254.29
-2691.35
-3401.9
-4010.92
-3973.36
-4261.17
-4288.71
-3333.53
-2740.11
-2336.62
-1603.42
-1186.25
-642.639
-962.195
-646.395
-1457.6
-1221.14
-2157.44
-1242.44
-3195.22
-1516.09
-2333.22
-2166.99
-2156.31
-2127.5
-2115.48
-2109.08
-2110.67
-2117.18
-2129.79
-2149.49
-2173.24
-2200.77
-2236.3
-2275.56
-2318.18
-2367.51
-2422.27
-2479.22
-2541.48
-2614.48
-2687.86
-2767.79
-2845.14
-2937.67
-3031.3
-3134.32
-3243.98
-3362.5
-3474.49
-3570.39
-3688.73
-3803.44
-3913.39
-3966.46
-4051.54
-4096.46
-3911.26
-4373.39
-2402.01
-35152.8
-37037.7
-2722.88
-4461.54
-3960
3148.23
4629.83
6155.31
7852.92
17796.3
46278.2
93621.9
155210
125001
77966.9
50155.2
35474
27441.6
22837.7
20108.1
18203.7
16853.8
15376.8
14220.3
13376.2
12377.1
11521.1
11089.9
11027.9
11734.6
13264.5
14571.9
15213.5
15672.7
16065
15069.5
14273.4
11914.1
10654.1
9045.96
7319.98
5983.4
4397.06
3744.73
2324.86
1643.41
840.595
206.928
-221.178
-530.68
-654.36
-821.891
-778.171
-838.794
-1141.63
-1234.18
-1486.24
-1625.43
-1960.14
-2268.24
-2692.06
-3320.8
-3841.45
-4545.15
-4692.82
-3678.71
-3439.93
-2848.14
-2318.43
-1563.88
-1021.74
-716.553
-895.313
-714.665
-1402.95
-1187.51
-1974.51
-959.818
-3194.08
-1481.21
-2269.73
-2111.36
-2102.47
-2075.97
-2065.68
-2059.81
-2062.6
-2070.17
-2082.39
-2101.78
-2126.14
-2152.85
-2187.24
-2225.87
-2267.96
-2316.48
-2368.31
-2423.63
-2485.16
-2552.39
-2627.51
-2704.07
-2779.36
-2866.72
-2960.62
-3054.29
-3163.2
-3270.44
-3403.73
-3496.43
-3605.37
-3729.2
-3876.76
-4028.86
-4190.73
-4417.45
-4458.34
-5465.3
-2887.5
-69665.2
-33344.5
-3927.59
-4013.06
-3811.99
3637.33
4923.88
10243.3
21297.1
40363
92604.8
169202
124276
77437.3
49923.3
34388.4
25503.6
20490.3
17589.9
15843.2
14563.7
13839
13120.6
12411.3
11668.8
10831.9
10132.2
9557.52
9302.83
9375.84
9934.38
11354.8
12503.7
13589.1
14156.8
14393.4
14512.9
13627.8
12468
10497.2
8733.66
7267.16
5565.44
4593.91
3257.9
2379.5
1423.5
731.197
79.6427
-211.096
-521.916
-899.64
-876.205
-1007.06
-1313.76
-1494.23
-1753.04
-1875.63
-2154.09
-2370.71
-2757.44
-3219.78
-3771.63
-4373.82
-4408.82
-3813.35
-3363.21
-2982.78
-2249.86
-1597.07
-1174.1
-697.863
-690.027
-422.231
-1136.26
-799.932
-1536.57
-523.912
-3200.75
-1436.04
-2196.72
-2046.67
-2039.97
-2016.2
-2007.75
-2002.92
-2006.89
-2015.43
-2028.14
-2047.17
-2071.81
-2098.33
-2131.37
-2169.34
-2210.77
-2256.9
-2307.05
-2362.65
-2420.56
-2484.24
-2558.57
-2633.67
-2703.75
-2786.82
-2878.18
-2971.98
-3074.49
-3180.28
-3299.2
-3417.23
-3497.08
-3613.21
-3747.12
-3852.85
-4002.88
-4047.51
-4205.69
-4146.66
-4366.41
-66651.2
-15204.9
-5301.52
-4087.9
-3672.89
4643.36
8685.55
18062.1
50076.3
100550
160651
114900
74050
48047.4
32598
23685.3
18526.3
15710.2
14005.9
13106.8
12402.6
12114.9
11758.1
11385.8
10976.9
10529.3
10012.9
9459.15
8991.91
8497.13
8174.97
8425.34
9190.35
10215.6
11216.4
12024.1
12687.5
12616.7
12521
11458.6
10260.8
8656.04
7199.12
5656.17
4319.91
3409.69
2321.8
1588.09
540.843
231.724
-221.692
-649.544
-836.98
-1002.03
-1388.23
-1622.81
-1959.39
-2108.43
-2410.63
-2609.33
-2969.63
-3339.53
-3978.05
-4004.53
-3978.81
-4255.61
-3393.62
-2874.06
-1974.33
-1371.13
-983.871
-685.494
-595.451
-522.586
-997.159
-579.649
-1494.26
-350.121
-3192.95
-1381.58
-2115.12
-1973.81
-1969.61
-1948.73
-1942.31
-1939.58
-1944.1
-1953.54
-1967.36
-1986.22
-2010.71
-2037.67
-2069.49
-2106.3
-2147.24
-2191.92
-2241.33
-2292.08
-2350.79
-2411.31
-2481.72
-2554.83
-2626.66
-2699.92
-2789.21
-2880.39
-2975.67
-3083.64
-3189.46
-3315.63
-3413.19
-3525.84
-3652.25
-3810.82
-3990.49
-4123.11
-4509.86
-4043.52
-13246.9
-63837.6
-7419.96
-4948.34
-3753.68
-2106.17
9578.73
22415.8
47432.3
103115
166601
110060
68648.7
44962.5
30733.7
22389.8
17178.9
14287.7
12530
11713.9
11144.9
10984.5
10778.5
10724.4
10602.9
10410.8
10153.6
9832.97
9411.94
8989.83
8380.15
7758.81
7154.82
7058.69
7594.39
8437.87
9431.24
10401.5
10912.4
11602.7
11182.6
10679.4
9014.22
7741.07
5849.86
4926.85
3940.39
2916.58
2070.83
905.376
373.257
-243.493
-662.633
-960.066
-1182.7
-1453.57
-1728.84
-1985.52
-2181.72
-2427.06
-2687.72
-2978.17
-3341.06
-3780.73
-3829.62
-3787.91
-4430.82
-3350.46
-2622.39
-2198.56
-1481.95
-1137.22
-619.015
-483.341
-263.125
-665.958
-223.164
-1269.85
83.3525
-3166.05
-1318.88
-2025.9
-1893.59
-1892.14
-1874.33
-1870.17
-1869.75
-1874.84
-1885.53
-1900.34
-1919.88
-1942.85
-1971.26
-2001.56
-2038.22
-2077.33
-2120.64
-2169.31
-2219.17
-2272.56
-2331.31
-2398.78
-2467.52
-2542.5
-2609.29
-2691.35
-2777.54
-2863.2
-2975.39
-3074.96
-3181.95
-3298.07
-3377.38
-3433.1
-3528.58
-3606.72
-3442.02
-3975.64
-2064.74
-39738.7
-31296.4
-2624.93
-3375.72
-2603.12
2338
21455.7
54632.8
116241
157991
102073
65082.1
42573.3
29124.4
21342.5
16455.7
13511.2
11739.1
10727.7
10382.7
10134.7
10093.6
9970.8
9861.1
9716.73
9573.82
9366.64
9127.74
8877.29
8525.87
8069.46
7482.7
6740.76
6123.66
5986.2
6323.17
7031
7723.69
8837.86
9190.3
10159.7
9767.11
9103.02
8078.4
6325.35
5592.29
4096.16
3206.69
2075.05
1392.65
640.367
-121.756
-339.135
-700.637
-1016.05
-1203.49
-1630.72
-1950.34
-2374.7
-2687.68
-3013.05
-3280.94
-3714.05