/*--------------------------------*- C++ -*----------------------------------*\
| =========                 |                                                 |
| \\      /  F ield         | OpenFOAM: The Open Source CFD Toolbox           |
|  \\    /   O peration     | Version:  2.2.x                                 |
|   \\  /    A nd           | Web:      www.OpenFOAM.org                      |
|    \\/     M anipulation  |                                                 |
\*---------------------------------------------------------------------------*/
FoamFile
{
    version     2.0;
    format      ascii;
    class       volVectorField;
    location    "2.05";
    object      U;
}
// * * * * * * * * * * * * * * * * * * * * * * * * * * * * * * * * * * * * * //

dimensions      [0 1 -1 0 0 0 0];

internalField   nonuniform List<vector> 
14161
(
(1.51532 0.023466 -1.9274e-13)
(1.50881 0.0164262 1.10612e-13)
(1.51026 0.00566952 3.16021e-13)
(1.50823 0.00180254 3.14374e-13)
(1.51201 0.000171339 3.33134e-13)
(1.51244 0.00029075 3.33207e-13)
(1.51321 0.000839028 3.28852e-13)
(1.51401 0.00138767 3.66529e-13)
(1.51517 0.00251878 4.0703e-13)
(1.51584 0.00372083 4.26971e-13)
(1.51708 0.00489492 4.26255e-13)
(1.51903 0.00476877 4.36422e-13)
(1.51958 0.00448902 4.45988e-13)
(1.52018 0.003773 4.55613e-13)
(1.52037 0.00264738 4.42009e-13)
(1.52028 0.00139658 4.67362e-13)
(1.52036 0.000473348 4.4599e-13)
(1.52105 0.000112306 3.8803e-13)
(1.52161 0.000180041 4.49348e-13)
(1.52249 0.000688963 3.57682e-13)
(1.52322 0.00113084 3.17242e-13)
(1.52378 0.00158962 2.9482e-13)
(1.52374 0.002122 2.45228e-13)
(1.52372 0.00212233 1.83904e-13)
(1.52323 0.00207409 1.18124e-13)
(1.52289 0.00185863 2.19628e-13)
(1.52253 0.00157987 -3.67251e-13)
(1.52186 0.00122852 8.52775e-13)
(1.52025 0.00105789 -4.22875e-12)
(1.5195 0.000806074 3.6904e-12)
(1.51865 0.000712308 -2.2993e-13)
(1.5182 0.000612759 1.68337e-11)
(1.51732 0.000583167 -6.4725e-11)
(1.51639 0.000693827 1.23411e-10)
(1.51561 0.000745481 -2.48544e-10)
(1.51474 0.000960028 3.66e-10)
(1.51641 0.000955184 -9.77471e-10)
(1.52 0.00147438 2.07502e-09)
(1.5347 0.000563608 -5.49849e-09)
(1.54777 0.000459734 7.77867e-08)
(1.61557 -0.0460946 7.48719e-07)
(1.49815 -0.19929 1.93244e-06)
(0.854391 -0.0133264 2.28011e-06)
(0.890378 0.0466396 1.9926e-06)
(0.901089 0.0470177 2.30531e-06)
(0.88994 0.0459217 8.1536e-07)
(0.887512 0.0424774 3.53195e-06)
(0.887113 0.0392088 3.97972e-06)
(0.888132 0.0377041 -3.45724e-06)
(0.886839 0.0348523 -2.18875e-06)
(0.882182 0.0329282 7.1314e-06)
(0.879444 0.0328848 6.78726e-06)
(0.877389 0.0318057 1.67805e-06)
(0.875253 0.0309693 -5.46018e-06)
(0.870805 0.0294262 -3.49554e-06)
(0.865942 0.0276389 2.67908e-05)
(0.861814 0.024743 -3.56334e-05)
(0.859168 0.0221206 -2.71105e-05)
(0.859229 0.0196165 8.19881e-05)
(0.859716 0.0174864 3.3492e-05)
(0.861741 0.0153294 -0.000122268)
(0.863378 0.0140916 -4.09259e-05)
(0.865236 0.012899 9.67236e-05)
(0.866963 0.0120991 7.20714e-05)
(0.869217 0.0114211 -7.38691e-05)
(0.871625 0.0109485 -7.19396e-05)
(0.873816 0.0105605 4.46326e-05)
(0.875799 0.0103466 6.19737e-05)
(0.877736 0.0101904 1.01427e-06)
(0.879563 0.0100244 -6.33502e-05)
(0.881276 0.0100508 -4.68526e-05)
(0.882691 0.0100775 2.35935e-05)
(0.883911 0.00977963 4.58918e-05)
(0.884633 0.00961817 2.66649e-05)
(0.883399 0.00973833 -2.89745e-05)
(0.880903 0.0101937 -2.16379e-05)
(0.877004 0.0109933 -2.73985e-05)
(0.873136 0.0111451 4.20846e-06)
(0.8698 0.0110687 1.3245e-05)
(0.867078 0.0111325 1.10389e-05)
(0.864929 0.0115624 6.12777e-06)
(0.863983 0.0115792 -1.17018e-05)
(0.864877 0.0105373 -1.30646e-05)
(0.868173 0.00853966 -1.46606e-05)
(0.870915 0.00917061 -5.99407e-06)
(0.874874 0.0114738 -3.74127e-06)
(0.881343 0.0102333 -5.03014e-06)
(0.879893 0.0106118 -6.79174e-06)
(0.873198 0.0147908 -6.70801e-06)
(0.878423 0.0212958 -7.06194e-06)
(0.883512 0.0288152 3.01223e-06)
(0.886502 0.0361685 8.79288e-06)
(0.882168 0.0423005 1.07664e-05)
(0.874036 0.0490605 9.39588e-06)
(0.862002 0.0540585 1.03568e-07)
(0.844697 0.0565469 -7.84068e-06)
(0.820946 0.0600274 -5.93023e-06)
(0.785399 0.0647104 -1.65777e-05)
(0.736392 0.0673925 -6.78463e-06)
(0.680416 0.0640437 -1.36168e-06)
(0.630448 0.054912 -1.23899e-05)
(0.59161 0.0464952 1.53987e-05)
(0.559532 0.0406899 1.68046e-05)
(0.530868 0.0369956 -6.47329e-07)
(0.504155 0.0350214 4.61955e-06)
(0.477619 0.0330628 1.17803e-05)
(0.451435 0.0327331 1.33113e-05)
(0.424303 0.0320608 1.07588e-05)
(0.396204 0.0325811 9.1793e-06)
(0.367049 0.0321993 5.4143e-06)
(0.337302 0.0334624 6.32425e-06)
(0.306269 0.033825 3.37885e-06)
(0.274012 0.036124 6.09249e-06)
(0.239547 0.0371678 3.8542e-06)
(0.202664 0.0406605 7.45466e-06)
(0.163054 0.0419434 2.81905e-06)
(0.120033 0.0481103 8.2736e-06)
(0.0731542 0.0490398 -1.06796e-06)
(0.028411 0.0396871 7.34353e-06)
(1.44767 -0.0150509 -1.42522e-12)
(1.49689 -0.0112203 -3.16857e-12)
(1.51184 -0.00624529 -5.11432e-12)
(1.51741 -0.00261904 -6.18109e-12)
(1.51714 -0.00219913 -3.98389e-12)
(1.51708 -0.00185289 -4.79251e-12)
(1.51539 -0.0024533 -3.65257e-12)
(1.51418 -0.001546 -2.68393e-12)
(1.51253 -0.00171449 -2.02783e-12)
(1.51136 -0.00247526 -1.47744e-12)
(1.51068 -0.00315469 -1.62608e-12)
(1.51515 -0.00396261 -1.1621e-12)
(1.51708 -0.00390718 -6.58324e-13)
(1.52167 -0.00388961 -6.25541e-13)
(1.52412 -0.00376201 -8.83648e-13)
(1.52602 -0.0030426 -1.76185e-13)
(1.52693 -0.00217409 -2.51035e-12)
(1.52769 -0.00158623 -9.5843e-13)
(1.52679 -0.00134219 -1.14754e-12)
(1.52594 -0.00106879 3.97828e-13)
(1.52535 -0.00109238 -3.58598e-12)
(1.52465 -0.00145768 1.82174e-12)
(1.52433 -0.00189257 -9.5953e-13)
(1.52483 -0.00237922 -1.03508e-11)
(1.52526 -0.00255812 -4.20458e-12)
(1.52564 -0.00261492 -5.30428e-12)
(1.52594 -0.00265189 1.92038e-12)
(1.52608 -0.00252031 3.10582e-13)
(1.52576 -0.00211879 -1.26117e-11)
(1.5244 -0.00188595 -1.71771e-11)
(1.52322 -0.00166654 -9.70074e-12)
(1.52166 -0.00157257 -2.51884e-11)
(1.52013 -0.00151179 1.40791e-11)
(1.5184 -0.0014423 -7.03236e-11)
(1.51668 -0.00156003 1.06735e-10)
(1.51503 -0.0016089 -1.76757e-10)
(1.51293 -0.00207067 2.22078e-10)
(1.51058 -0.00212727 -3.53027e-10)
(1.50935 -0.00439 -8.17927e-10)
(1.50072 -0.0055077 1.47552e-08)
(1.50024 -0.0481506 4.02343e-07)
(0.836113 -0.20545 9.58305e-07)
(0.544997 -0.00954814 7.33967e-07)
(0.491671 0.0288073 7.079e-07)
(0.485329 0.0241924 9.38248e-08)
(0.492902 0.0183311 -2.03993e-05)
(0.515149 0.014606 8.26316e-05)
(0.538909 0.0109032 6.01642e-05)
(0.562878 0.00991346 -0.000305486)
(0.583028 0.00498696 -6.88671e-05)
(0.598097 0.00122917 0.00039123)
(0.610549 0.00300444 0.000150442)
(0.621946 0.00286759 -0.00027649)
(0.633612 0.00357281 -0.000156364)
(0.644656 0.00342664 0.000110746)
(0.655489 0.00303094 -3.08493e-05)
(0.66613 0.00168536 -6.06217e-05)
(0.677059 0.000988326 0.000441449)
(0.687725 0.000286812 0.000278754)
(0.697607 6.36196e-05 -0.000865157)
(0.70676 -0.000503466 -0.000705)
(0.714424 -0.000604875 0.000657595)
(0.721086 -0.000535571 0.000884866)
(0.726399 -0.000429492 -0.000134035)
(0.731089 -0.0004596 -0.000706769)
(0.734986 -0.000383201 -0.000116063)
(0.738332 -0.000474454 0.000483924)
(0.741123 -0.00033817 0.000140092)
(0.743268 -0.000116356 -0.000319514)
(0.744853 1.32819e-05 -0.000319467)
(0.745617 0.000460351 4.87382e-05)
(0.74586 0.000597572 0.000416698)
(0.745287 0.000701595 0.000185934)
(0.743269 0.00104252 2.74034e-06)
(0.740505 0.0014744 -0.000388922)
(0.736581 0.00202333 -0.000325147)
(0.731629 0.00266125 0.000125219)
(0.726601 0.00295181 0.000213131)
(0.722741 0.00334891 0.000208616)
(0.721311 0.0033228 -0.000124693)
(0.721992 0.00271712 -0.000165202)
(0.722203 0.0013956 -0.000114821)
(0.718665 0.000711986 4.10825e-05)
(0.713262 0.000439454 9.85163e-05)
(0.712324 0.000879017 7.58693e-05)
(0.712605 0.000348991 -2.13298e-05)
(0.703461 -0.00310293 -2.85718e-05)
(0.667272 0.00325816 -3.52364e-05)
(0.622995 0.00620871 5.3735e-05)
(0.569726 0.014836 7.85491e-05)
(0.521625 0.0195687 -6.6086e-05)
(0.480587 0.0277422 2.79491e-05)
(0.443844 0.0334482 -6.31513e-05)
(0.413836 0.0388176 -6.87677e-05)
(0.388857 0.0407884 -2.60676e-05)
(0.365992 0.0421473 7.83181e-05)
(0.34442 0.0471775 0.00015891)
(0.32289 0.0515951 -6.97985e-06)
(0.305236 0.0538984 -9.33527e-05)
(0.291481 0.0512358 -5.03434e-05)
(0.280215 0.0450228 -5.21674e-06)
(0.268478 0.0389604 -2.67718e-08)
(0.256949 0.0334594 -1.59795e-06)
(0.246028 0.030428 2.4783e-05)
(0.233772 0.0295737 1.73236e-05)
(0.220694 0.0282293 -3.72436e-06)
(0.20734 0.0284261 1.26152e-06)
(0.192495 0.0284528 2.75563e-05)
(0.177151 0.0294109 -1.11142e-05)
(0.161752 0.0295601 -6.47203e-06)
(0.146707 0.0314167 2.81895e-05)
(0.131516 0.032959 1.49796e-05)
(0.115758 0.0363046 -2.1158e-05)
(0.0996913 0.0386698 1.5784e-05)
(0.082496 0.0427882 -9.97094e-06)
(0.0644299 0.0441996 1.63237e-05)
(0.048408 0.0520136 7.14801e-06)
(0.0320791 0.0515192 1.00454e-05)
(0.0235586 0.066743 2.07078e-05)
(1.57612 0.00922339 -3.13084e-11)
(1.51655 0.0117666 1.1205e-11)
(1.4984 0.00636158 3.97044e-11)
(1.49841 0.0029594 5.78112e-11)
(1.50232 0.0010614 7.18262e-11)
(1.50573 0.000484976 7.92049e-11)
(1.50713 0.000901503 8.17252e-11)
(1.5106 0.00140267 8.33344e-11)
(1.51524 0.00205758 8.2739e-11)
(1.51938 0.00287191 7.92779e-11)
(1.52112 0.00378057 7.37526e-11)
(1.52279 0.00394879 6.58827e-11)
(1.52163 0.00409613 6.45813e-11)
(1.52079 0.00360953 5.73865e-11)
(1.5177 0.00305461 5.08147e-11)
(1.51591 0.00260885 6.30961e-11)
(1.51481 0.0021455 3.91792e-11)
(1.51672 0.00184528 4.18121e-11)
(1.51733 0.00167919 4.47592e-11)
(1.51803 0.0018112 4.24831e-11)
(1.52015 0.00208698 2.70305e-11)
(1.52143 0.0025871 2.83499e-11)
(1.52203 0.00270572 1.00083e-11)
(1.52185 0.00275339 1.62031e-12)
(1.52102 0.00267399 3.91861e-12)
(1.52002 0.00235325 3.90164e-12)
(1.5187 0.00226123 1.70849e-11)
(1.51725 0.00211682 2.40752e-12)
(1.51593 0.00213963 -1.50102e-13)
(1.51467 0.00215147 -3.54502e-11)
(1.51405 0.00199515 -6.53565e-11)
(1.51374 0.00182577 8.6918e-11)
(1.51348 0.00170596 -1.37537e-10)
(1.51311 0.00143215 1.6864e-10)
(1.51262 0.00135045 -2.45329e-10)
(1.51199 0.00139827 4.12131e-10)
(1.51086 0.00107696 -1.84658e-09)
(1.50912 0.00106692 5.16394e-09)
(1.50531 -0.000780074 -4.9681e-09)
(1.49631 -0.00108292 3.26555e-08)
(1.46767 -0.029371 3.3026e-07)
(0.70217 -0.0773723 1.08871e-06)
(0.467213 0.00359686 6.38314e-07)
(0.410642 0.00850177 4.18601e-06)
(0.410791 -0.0099457 -3.02286e-05)
(0.433345 -0.0256187 -1.32315e-05)
(0.462854 -0.0313304 0.000121535)
(0.491377 -0.0327228 0.000160802)
(0.518746 -0.027704 -0.00057249)
(0.544414 -0.0227125 -0.000160637)
(0.567801 -0.0165576 0.000946766)
(0.586669 -0.014309 0.00033595)
(0.604149 -0.0139523 -0.00119343)
(0.620826 -0.0118818 -0.000358974)
(0.637174 -0.010723 0.00114587)
(0.652474 -0.00952404 3.84251e-05)
(0.666438 -0.00995694 -0.00104262)
(0.679549 -0.00969215 0.000698345)
(0.692247 -0.00959585 0.00150608)
(0.703436 -0.00859696 -0.00100916)
(0.713953 -0.00771064 -0.00247133)
(0.722439 -0.00671945 -0.000198655)
(0.729448 -0.00562957 0.00235666)
(0.735837 -0.0046713 0.00182461)
(0.740493 -0.00397758 -0.000780112)
(0.744784 -0.00332227 -0.00187044)
(0.748378 -0.00275102 -0.000738716)
(0.750718 -0.00214627 0.000639837)
(0.752557 -0.00187845 0.000752833)
(0.754058 -0.0016749 0.000277991)
(0.754728 -0.00105301 -9.99449e-05)
(0.755239 -0.00120787 -0.000197132)
(0.75473 -0.000618499 -0.000186523)
(0.752814 0.000117184 -0.000114274)
(0.749709 0.00063714 -0.000134707)
(0.744889 0.0014782 -4.99064e-05)
(0.739226 0.00217933 6.68564e-05)
(0.735088 0.00238124 0.000312364)
(0.732156 0.00201509 0.000150756)
(0.729137 0.00174877 -0.000226089)
(0.724137 0.00235483 -0.000151109)
(0.717231 0.0027227 -0.000114422)
(0.713564 0.00201354 0.000101331)
(0.707656 0.00257137 0.000103425)
(0.694396 0.00573788 2.52133e-05)
(0.669508 0.0146933 -5.88747e-05)
(0.649442 0.0352484 -0.00010792)
(0.617979 0.0541132 6.85705e-05)
(0.546702 0.0699112 0.000143448)
(0.475886 0.0721776 8.59945e-05)
(0.413281 0.0558654 -7.92887e-05)
(0.362323 0.0497904 -0.00010611)
(0.324435 0.0424217 -4.57846e-05)
(0.288004 0.040051 6.0658e-05)
(0.254674 0.0376448 6.70637e-05)
(0.231289 0.0370398 -3.54214e-05)
(0.211419 0.0379095 -1.43724e-05)
(0.193804 0.0400807 9.51252e-06)
(0.179362 0.0433637 -5.77097e-06)
(0.16934 0.0428601 1.72545e-05)
(0.161296 0.0382919 2.41582e-05)
(0.153966 0.0329982 -1.43575e-05)
(0.144544 0.0307677 -1.53345e-05)
(0.135743 0.0293166 1.17468e-05)
(0.12735 0.0296688 2.13879e-05)
(0.117427 0.0297666 -3.03502e-06)
(0.106369 0.0313316 -8.64012e-06)
(0.0947631 0.0318493 7.77144e-06)
(0.0835402 0.0335877 1.74938e-05)
(0.0726207 0.0344911 -1.11842e-05)
(0.0622635 0.0369767 3.15837e-06)
(0.0519463 0.0387861 -6.65796e-06)
(0.0426539 0.0429478 5.08131e-06)
(0.0325276 0.0456108 7.56748e-06)
(0.0257238 0.0535007 1.61814e-06)
(0.0172211 0.055813 6.00221e-06)
(0.0129971 0.0633483 -7.27315e-06)
(0.00896065 0.0591846 3.42018e-06)
(0.00915703 0.0842165 6.04296e-06)
(1.39677 -0.0151995 -3.06991e-11)
(1.4876 -0.00660971 -1.17578e-10)
(1.52606 -0.00224056 -2.38256e-10)
(1.52377 -0.00125832 -2.23544e-10)
(1.52241 -0.00234808 -2.361e-10)
(1.52347 -0.00268922 -2.47973e-10)
(1.51626 -0.00242963 -2.44112e-10)
(1.51371 -0.00240391 -2.2885e-10)
(1.50948 -0.00240847 -2.07498e-10)
(1.50647 -0.00277305 -2.06393e-10)
(1.50573 -0.00315902 -1.9784e-10)
(1.51177 -0.00358116 -1.80031e-10)
(1.51797 -0.00335944 -1.51456e-10)
(1.52413 -0.00377456 -1.33743e-10)
(1.52817 -0.00366475 -1.58721e-10)
(1.53116 -0.00325466 -5.64912e-11)
(1.53249 -0.00293827 -1.57857e-10)
(1.53221 -0.00273508 -1.31133e-10)
(1.53028 -0.00265165 -7.15868e-11)
(1.52929 -0.00243414 4.27084e-11)
(1.52579 -0.00249915 -1.60909e-10)
(1.52478 -0.00253672 3.29829e-10)
(1.52389 -0.00280189 -1.83303e-10)
(1.52419 -0.00296907 -5.21941e-11)
(1.52478 -0.00308724 3.84746e-11)
(1.52521 -0.00312996 1.42991e-10)
(1.52583 -0.00318601 2.44506e-10)
(1.52627 -0.00309454 2.13436e-10)
(1.52648 -0.00292659 6.98976e-11)
(1.5249 -0.00262993 1.94336e-10)
(1.52398 -0.00258002 -4.06732e-10)
(1.52249 -0.00233587 1.43006e-09)
(1.52094 -0.00248137 -2.7318e-09)
(1.51887 -0.00257591 5.86859e-09)
(1.51655 -0.00275648 -8.84106e-09)
(1.51428 -0.00287713 1.36056e-08)
(1.51113 -0.00301905 -2.9373e-08)
(1.50786 -0.00276729 4.92337e-08)
(1.50224 -0.00342706 -6.78329e-08)
(1.49698 -0.00184743 1.39864e-07)
(1.42179 0.0127281 -1.24287e-06)
(0.613775 0.0500001 1.03337e-05)
(0.452057 0.0344271 -1.90633e-05)
(0.420571 -0.00299157 4.88894e-05)
(0.426565 -0.0357256 -6.38567e-05)
(0.450659 -0.0538326 3.41691e-05)
(0.475246 -0.0605956 7.38723e-06)
(0.498657 -0.0618781 1.32997e-05)
(0.521334 -0.0536903 -2.1268e-05)
(0.542884 -0.0441073 -1.24086e-05)
(0.562089 -0.0343335 -1.82265e-05)
(0.582609 -0.0324805 0.000141613)
(0.601761 -0.031286 -3.68569e-05)
(0.621569 -0.0283053 -0.000316834)
(0.641501 -0.0278765 0.000109158)
(0.659254 -0.0243316 0.000498813)
(0.675393 -0.0237725 9.08537e-06)
(0.689929 -0.0213241 -0.00100957)
(0.703143 -0.0195372 -0.000209351)
(0.714341 -0.0164639 0.00127649)
(0.724274 -0.0146413 0.000312737)
(0.732372 -0.0124849 -0.00125197)
(0.73924 -0.0103316 -0.000300535)
(0.744945 -0.00875458 0.00111622)
(0.750076 -0.00743699 0.000677658)
(0.754019 -0.00666274 -0.000732401)
(0.757108 -0.00568928 -0.00101343)
(0.759544 -0.00508665 -0.000293726)
(0.761382 -0.00469216 0.000581504)
(0.76238 -0.00418204 0.000836448)
(0.763012 -0.00365923 0.000358127)
(0.763045 -0.00233066 -0.000479388)
(0.76291 -0.00124399 -0.000702903)
(0.760258 -0.00015263 -0.000251911)
(0.756653 0.00107702 0.000273495)
(0.751888 0.00239456 0.000466084)
(0.745622 0.003194 7.56048e-06)
(0.737973 0.00307152 -0.000286392)
(0.730877 0.00366328 -0.00012347)
(0.723999 0.00524386 8.50135e-05)
(0.716546 0.00759568 0.000157637)
(0.704283 0.010386 4.08652e-05)
(0.684716 0.014374 -6.11348e-05)
(0.659232 0.0191863 -0.000101547)
(0.63596 0.0273683 -7.76895e-05)
(0.610837 0.0397625 -3.00737e-05)
(0.579508 0.068101 4.99292e-05)
(0.518978 0.0895922 7.07709e-05)
(0.477744 0.111253 3.25443e-05)
(0.434995 0.117313 2.51308e-05)
(0.392574 0.102905 -1.62477e-05)
(0.346937 0.100208 -4.29572e-05)
(0.304483 0.0850219 -3.61659e-05)
(0.268841 0.0779883 5.03007e-05)
(0.240489 0.0694004 1.41482e-05)
(0.215246 0.0636667 -5.06671e-05)
(0.190897 0.060334 7.69693e-06)
(0.171465 0.0560066 5.35472e-06)
(0.159854 0.0539451 5.08317e-06)
(0.15099 0.0498775 2.76579e-05)
(0.141318 0.0443288 -1.07445e-06)
(0.132236 0.0386289 -1.93006e-05)
(0.123829 0.0362655 3.51782e-07)
(0.114514 0.0356068 1.87582e-05)
(0.104098 0.0367336 -2.00806e-06)
(0.092854 0.0371656 -1.26801e-05)
(0.0809062 0.0389769 -8.36082e-07)
(0.0685569 0.0397271 1.02474e-05)
(0.0568678 0.0406834 2.38025e-06)
(0.0460638 0.0412683 -1.42188e-05)
(0.0368296 0.0443402 8.71369e-06)
(0.0286114 0.0464927 -7.136e-06)
(0.0225149 0.0513064 9.64122e-06)
(0.0154128 0.0529575 -5.63904e-06)
(0.0122174 0.0598571 1.49212e-05)
(0.00723343 0.0603005 -1.62591e-06)
(0.005094 0.0658683 1.58485e-06)
(0.00287788 0.0602034 -2.10582e-05)
(0.00442482 0.0866968 -4.01615e-06)
(1.64436 0.00318149 -1.03625e-09)
(1.52097 0.00871612 -2.02872e-11)
(1.48973 0.00719572 5.70106e-10)
(1.48729 0.0036032 8.86142e-10)
(1.49431 0.000744704 1.10578e-09)
(1.49887 0.000150366 1.18513e-09)
(1.50451 0.000365191 1.19629e-09)
(1.50912 0.000758787 1.21256e-09)
(1.51631 0.00127248 1.20476e-09)
(1.52268 0.00192565 1.18892e-09)
(1.52636 0.00254883 1.20294e-09)
(1.52613 0.00303264 1.24416e-09)
(1.52574 0.00346039 1.27961e-09)
(1.52104 0.00285761 1.32424e-09)
(1.51756 0.0028019 1.34679e-09)
(1.51516 0.00270731 1.46592e-09)
(1.51437 0.00254067 1.43171e-09)
(1.51542 0.00224537 1.42426e-09)
(1.51718 0.00170669 1.45782e-09)
(1.51869 0.00195025 1.61263e-09)
(1.52128 0.00199914 1.52324e-09)
(1.52326 0.00201754 1.60866e-09)
(1.5237 0.00204608 1.60526e-09)
(1.52318 0.00205504 1.54097e-09)
(1.52179 0.00200775 1.51836e-09)
(1.5203 0.00198296 1.55885e-09)
(1.5185 0.00171632 1.91432e-09)
(1.51661 0.00172375 1.22207e-09)
(1.51497 0.00161735 2.88226e-09)
(1.51377 0.00158276 2.61472e-10)
(1.51289 0.00140278 2.32234e-09)
(1.51295 0.00128509 2.71495e-10)
(1.51277 0.00111253 3.95189e-09)
(1.51248 0.000891793 -1.13488e-09)
(1.51211 0.000659222 6.9281e-09)
(1.51086 0.000369669 -2.60438e-09)
(1.50902 0.000205796 4.34893e-09)
(1.50664 5.11355e-05 4.6169e-09)
(1.50409 -0.000296885 -1.11139e-08)
(1.49224 0.00360426 1.32614e-07)
(1.47693 0.0502718 8.06806e-07)
(0.777708 0.130882 5.03451e-06)
(0.558007 0.063287 -9.82085e-06)
(0.512081 -0.00411611 9.45986e-06)
(0.502207 -0.0470565 1.30008e-05)
(0.513729 -0.0671411 -2.64492e-05)
(0.519515 -0.078059 1.97071e-05)
(0.530122 -0.0803833 7.16807e-06)
(0.53999 -0.0737092 7.16258e-05)
(0.559554 -0.0667453 1.26482e-05)
(0.579937 -0.0588055 -0.000221674)
(0.602485 -0.0551141 -0.0001066)
(0.623764 -0.0522016 0.000504814)
(0.643455 -0.046387 0.000156372)
(0.663138 -0.0432549 -0.000534477)
(0.681033 -0.0369793 -0.000577489)
(0.697585 -0.0343548 0.00108552)
(0.711773 -0.0293606 0.000573048)
(0.725553 -0.025742 -0.00139269)
(0.736854 -0.020232 -0.00140802)
(0.74637 -0.0170461 0.00175515)
(0.75621 -0.0145886 0.00208119)
(0.764293 -0.0123136 -0.000436315)
(0.771536 -0.0101247 -0.00249968)
(0.777733 -0.00866482 -0.00148097)
(0.782303 -0.00764335 0.0013348)
(0.786902 -0.00682987 0.00221429)
(0.790262 -0.00611044 0.000834804)
(0.793139 -0.00588439 -0.00109624)
(0.794801 -0.00571811 -0.00152527)
(0.79575 -0.00531389 -0.000812928)
(0.795736 -0.00441941 0.000799568)
(0.795764 -0.00313513 0.00103522)
(0.794251 -0.000994534 0.000728249)
(0.791773 0.000686867 -0.000848871)
(0.78809 0.00183016 -0.000720997)
(0.780387 0.00315851 -0.000250263)
(0.772969 0.00470385 0.000557952)
(0.766397 0.00667843 0.000475509)
(0.760485 0.00925072 -0.000109478)
(0.753007 0.0129272 -0.000408708)
(0.740335 0.0189905 -0.000297185)
(0.727608 0.0278997 0.000121739)
(0.706952 0.0350488 0.000238911)
(0.674962 0.0501766 5.40132e-05)
(0.619834 0.0668002 -0.000126338)
(0.577958 0.111246 -3.76968e-05)
(0.546876 0.137686 8.64733e-05)
(0.505721 0.155074 5.9802e-05)
(0.466238 0.163939 8.85974e-06)
(0.425932 0.15357 -1.79323e-05)
(0.383947 0.152872 -2.6964e-05)
(0.347224 0.129577 -4.4384e-05)
(0.303553 0.117757 4.20918e-05)
(0.262228 0.102814 -4.75066e-06)
(0.228241 0.0949005 -3.74029e-05)
(0.201056 0.0888984 1.90995e-05)
(0.179507 0.0776377 -3.49295e-06)
(0.160937 0.0694727 1.56143e-05)
(0.148538 0.0611518 1.88301e-05)
(0.139801 0.0551283 -1.43077e-05)
(0.131132 0.0496435 -7.91238e-06)
(0.120021 0.0476152 1.10733e-05)
(0.10932 0.0472854 1.06042e-05)
(0.0986386 0.0492366 -1.43353e-05)
(0.0866544 0.0506287 -7.16232e-06)
(0.0740292 0.0529413 2.42212e-06)
(0.0612248 0.0532673 3.06458e-06)
(0.0492439 0.0532436 -4.43968e-06)
(0.038125 0.0524068 -3.75449e-06)
(0.0287232 0.0531556 1.05114e-06)
(0.0212277 0.0532721 -4.1418e-06)
(0.0164 0.0577633 3.26261e-06)
(0.0106157 0.057859 -8.69699e-06)
(0.00817656 0.0640935 1.26245e-05)
(0.00482376 0.0635561 -4.51265e-07)
(0.00319072 0.068414 9.01644e-06)
(0.00125558 0.0604062 -7.16016e-06)
(0.00315195 0.0848811 -4.6089e-06)
(1.36474 -0.0145442 -1.46432e-10)
(1.485 -0.00398107 -8.16299e-10)
(1.52795 0.000576656 -1.5537e-09)
(1.53636 -0.000190642 -1.59397e-09)
(1.52937 -0.00237809 -1.60888e-09)
(1.52516 -0.00301888 -1.45265e-09)
(1.51841 -0.00289511 -1.33919e-09)
(1.51454 -0.00257084 -1.13295e-09)
(1.50922 -0.00246184 -8.28565e-10)
(1.50495 -0.00238316 -6.67439e-10)
(1.50567 -0.0023898 -1.15231e-10)
(1.5101 -0.00234162 6.40081e-11)
(1.51918 -0.00226664 5.19418e-10)
(1.52488 -0.00248714 7.41112e-10)
(1.52988 -0.00243784 8.63903e-10)
(1.53427 -0.00226668 1.11785e-09)
(1.53645 -0.00199596 1.46622e-09)
(1.53586 -0.00175014 9.83946e-10)
(1.53458 -0.00189195 1.4698e-09)
(1.53292 -0.00169995 1.91267e-09)
(1.52863 -0.00164677 2.02774e-09)
(1.52641 -0.0017741 2.511e-09)
(1.5244 -0.00189404 1.50664e-09)
(1.52552 -0.00195335 2.24345e-09)
(1.52563 -0.00195007 2.6157e-09)
(1.5265 -0.00193291 2.68664e-09)
(1.52689 -0.00192112 2.65385e-09)
(1.52799 -0.00187637 2.54233e-09)
(1.52802 -0.001749 2.54355e-09)
(1.5275 -0.00166059 2.55545e-09)
(1.52631 -0.00160791 2.47682e-09)
(1.52465 -0.00159874 2.79238e-09)
(1.52275 -0.00169031 2.75159e-09)
(1.52074 -0.00178957 3.19821e-09)
(1.51893 -0.00183353 3.10072e-09)
(1.51722 -0.00195833 2.53757e-09)
(1.51593 -0.00190274 3.07596e-09)
(1.51436 -0.00211047 2.15526e-09)
(1.51206 -0.00159586 7.73607e-09)
(1.50836 0.00441663 8.91919e-08)
(1.49757 0.064539 9.1526e-07)
(0.782177 0.189757 3.3963e-06)
(0.548342 0.0889517 -1.67752e-05)
(0.510381 -0.000581349 4.06788e-05)
(0.505684 -0.0547483 2.27894e-05)
(0.527845 -0.0768086 -0.000140714)
(0.542815 -0.0875469 8.81145e-06)
(0.559589 -0.0905714 0.000113863)
(0.575006 -0.0958379 0.000125409)
(0.595844 -0.0907528 -0.00019147)
(0.618179 -0.0847995 0.000169903)
(0.63973 -0.0763369 -5.45446e-05)
(0.660395 -0.0709295 -0.000247012)
(0.676639 -0.0632281 2.70632e-05)
(0.69396 -0.059535 0.000383226)
(0.709601 -0.053097 -0.000339048)
(0.724722 -0.047894 -0.000608798)
(0.734384 -0.0407368 0.000628713)
(0.748184 -0.0358649 0.00119555)
(0.758747 -0.0298247 -0.000630291)
(0.769894 -0.0256396 -0.001963)
(0.778968 -0.0206758 -0.000124814)
(0.787656 -0.0171404 0.00213285)
(0.793802 -0.0136528 0.00165804)
(0.799435 -0.0110041 -0.0011497)
(0.804959 -0.00830101 -0.00226433)
(0.809038 -0.00666011 -0.000644642)
(0.812422 -0.00519392 0.00160231)
(0.815399 -0.00350208 0.00150953)
(0.817615 -0.00160749 -9.37007e-05)
(0.818329 -0.00012965 -0.00126811)
(0.818938 0.00124583 -0.000961912)
(0.818771 0.00296611 0.000273444)
(0.818658 0.00477428 0.00108228)
(0.816378 0.00671657 0.000261925)
(0.812459 0.00920182 -0.000655433)
(0.807009 0.0105925 -0.000279285)
(0.801998 0.0120597 0.000211595)
(0.796613 0.0128341 0.00012189)
(0.790537 0.0148161 -6.85585e-05)
(0.78494 0.0203152 -0.000115807)
(0.781367 0.028916 -2.73125e-06)
(0.773642 0.0420587 0.000123154)
(0.746035 0.0583993 0.000114603)
(0.72258 0.0861356 -0.000125955)
(0.678831 0.111146 -0.000185964)
(0.641484 0.147395 0.000107617)
(0.597616 0.168731 9.53014e-05)
(0.56502 0.186441 -8.06684e-05)
(0.536835 0.193343 -5.79571e-05)
(0.500253 0.184393 2.59221e-05)
(0.459424 0.186452 5.43141e-06)
(0.415893 0.168784 -3.74768e-05)
(0.365607 0.161313 1.51604e-05)
(0.319023 0.141035 -2.04545e-05)
(0.274202 0.126013 3.44505e-06)
(0.235425 0.111097 4.27371e-06)
(0.205726 0.0943082 -1.15111e-05)
(0.183797 0.0822153 2.69835e-05)
(0.167353 0.0718173 1.06037e-05)
(0.152137 0.0645936 -1.55902e-05)
(0.138893 0.0597655 -1.12919e-06)
(0.127544 0.0592418 1.53563e-05)
(0.116551 0.0592004 4.09519e-06)
(0.104809 0.0616907 -1.60733e-05)
(0.0928061 0.0642725 -1.57639e-06)
(0.0803037 0.0677653 4.62209e-06)
(0.0665781 0.0677276 2.19698e-06)
(0.0531084 0.0670426 -2.79404e-06)
(0.0404785 0.0653579 3.03149e-06)
(0.0297819 0.064073 -2.8251e-06)
(0.0218323 0.0616121 1.22803e-07)
(0.0164447 0.0653493 -2.29842e-06)
(0.0111718 0.0634835 -6.01569e-06)
(0.0081752 0.0687204 5.1736e-06)
(0.00543486 0.0667401 4.70273e-06)
(0.00319118 0.0713421 5.57074e-06)
(0.000607597 0.0605242 7.80553e-06)
(0.00235903 0.0810323 9.67274e-08)
(1.69471 0.00149447 -4.55424e-09)
(1.52445 0.00711341 -4.81726e-10)
(1.48739 0.00709265 2.1556e-09)
(1.47981 0.00360472 3.21857e-09)
(1.49155 0.000633347 4.39503e-09)
(1.49508 -0.000428236 4.89977e-09)
(1.50194 -0.000349694 5.19298e-09)
(1.50838 -9.41038e-05 5.28662e-09)
(1.51569 9.13501e-05 5.32833e-09)
(1.52317 0.000204141 5.3099e-09)
(1.52712 0.000716765 5.56037e-09)
(1.52799 0.00076271 5.71121e-09)
(1.5258 0.000921641 5.96263e-09)
(1.5228 0.00067014 6.00603e-09)
(1.51855 0.000711912 6.05492e-09)
(1.51528 0.000735935 5.93842e-09)
(1.51367 0.00064923 6.62604e-09)
(1.51482 0.000168453 5.32102e-09)
(1.51656 0.000151972 5.54344e-09)
(1.51902 -7.6231e-05 5.84777e-09)
(1.52224 -0.000184877 5.83237e-09)
(1.52476 -0.000359181 5.61072e-09)
(1.52517 -0.000579299 4.89761e-09)
(1.52438 -0.000711335 4.83858e-09)
(1.52278 -0.000656713 5.19199e-09)
(1.52107 -0.000729527 5.28718e-09)
(1.51873 -0.000642348 5.09628e-09)
(1.51611 -0.000796902 4.90555e-09)
(1.51371 -0.000902688 4.7212e-09)
(1.51177 -0.00107385 4.00456e-09)
(1.51027 -0.00118454 5.12957e-09)
(1.50924 -0.00156113 4.58122e-09)
(1.50908 -0.00187562 4.57308e-09)
(1.50881 -0.00213369 4.33671e-09)
(1.50851 -0.00235157 4.80082e-09)
(1.50705 -0.00261943 4.17613e-09)
(1.50663 -0.00278829 4.18262e-09)
(1.50189 -0.00281261 3.62428e-09)
(1.50002 -0.00170488 4.47709e-09)
(1.49517 0.00435011 1.91789e-08)
(1.49084 0.0709911 -1.31066e-06)
(0.924763 0.267837 4.40729e-06)
(0.601296 0.102103 -3.10539e-05)
(0.550214 -0.0190237 9.13586e-05)
(0.55419 -0.0893606 9.57287e-05)
(0.581264 -0.112497 -5.1766e-05)
(0.60874 -0.119454 -0.000404829)
(0.633574 -0.115241 4.43508e-05)
(0.657238 -0.111279 0.000408313)
(0.676528 -0.103896 0.000172404)
(0.693572 -0.0954065 -0.000567311)
(0.707795 -0.0846654 -0.000144297)
(0.723859 -0.0783225 0.000418032)
(0.735081 -0.0697948 0.000257676)
(0.747676 -0.0648358 -0.000162952)
(0.754311 -0.0576493 -0.000222184)
(0.766566 -0.0516375 -6.26547e-05)
(0.772476 -0.0442056 -0.000128799)
(0.783563 -0.0392357 0.000114481)
(0.789139 -0.0333363 0.000213713)
(0.798262 -0.028972 0.000394276)
(0.802584 -0.0240711 -0.000182376)
(0.809505 -0.0199108 -0.000692483)
(0.812437 -0.0161943 -0.000489615)
(0.816953 -0.0130494 0.00084381)
(0.81912 -0.0103706 0.00100077)
(0.821922 -0.00872169 -0.000496292)
(0.824297 -0.00695602 -0.00107979)
(0.826771 -0.00594815 -0.000165165)
(0.828864 -0.00455165 0.00073842)
(0.83011 -0.00289347 0.000563227)
(0.831436 -0.00132178 -0.000226482)
(0.832275 0.000516359 -0.000490234)
(0.832988 0.00222334 -0.000140428)
(0.830854 0.00463149 0.000186185)
(0.829977 0.0069843 0.000217698)
(0.823473 0.00872631 -0.000198657)
(0.819668 0.0103231 -0.000146912)
(0.815262 0.0121975 1.01111e-06)
(0.812521 0.0154817 8.91917e-05)
(0.809685 0.0216011 4.19008e-05)
(0.8022 0.0326707 -4.55348e-05)
(0.794773 0.0517359 -6.41436e-05)
(0.778536 0.0739039 -2.39484e-05)
(0.756289 0.11138 -7.82183e-05)
(0.723802 0.144042 7.24926e-05)
(0.686121 0.178552 0.000162096)
(0.65861 0.202582 -0.000110895)
(0.625556 0.217879 -0.000127192)
(0.598074 0.229316 6.47462e-05)
(0.563016 0.225518 0.00012284)
(0.525824 0.232822 3.54364e-05)
(0.483142 0.218725 -3.44616e-05)
(0.432219 0.214167 -7.2243e-05)
(0.381782 0.192898 4.89135e-05)
(0.32821 0.175395 6.10868e-06)
(0.280998 0.152495 -2.1732e-05)
(0.242834 0.128377 3.73489e-05)
(0.211951 0.108106 -4.07e-06)
(0.189012 0.0905319 1.5747e-05)
(0.17088 0.0801867 -3.90811e-07)
(0.156796 0.0729077 -6.85466e-06)
(0.143444 0.0703635 1.69337e-05)
(0.131587 0.0686619 4.26527e-06)
(0.120829 0.0712409 -1.52744e-05)
(0.109735 0.0745822 -3.85661e-06)
(0.0969487 0.0787792 -4.09314e-06)
(0.0824677 0.0804565 -5.93365e-06)
(0.0675469 0.0796222 -8.50256e-07)
(0.05269 0.0773095 6.56313e-06)
(0.0399274 0.0738552 -8.29521e-06)
(0.0303982 0.0687174 1.01816e-07)
(0.0227914 0.0718884 -6.60094e-06)
(0.016327 0.0681989 -5.07386e-06)
(0.0121607 0.0726477 -1.1885e-06)
(0.00808248 0.0701104 8.45636e-06)
(0.00509133 0.0747186 1.12845e-06)
(0.00148442 0.0615036 1.40412e-05)
(0.00268672 0.0768629 7.24223e-06)
(1.34461 -0.0139239 -3.49587e-10)
(1.48708 -0.00176998 -1.38754e-09)
(1.53177 0.00127102 -1.86813e-09)
(1.54305 -0.000460591 -2.56027e-09)
(1.53143 -0.00255508 -2.21113e-09)
(1.52656 -0.00333679 -2.14079e-09)
(1.52141 -0.00304522 -1.84426e-09)
(1.5185 -0.00260655 -1.70033e-09)
(1.51435 -0.00232548 -1.46928e-09)
(1.50963 -0.00187064 -1.16642e-09)
(1.51087 -0.00103331 -9.89501e-10)
(1.51685 -0.00109715 -6.06456e-10)
(1.52317 -0.000775656 -3.95958e-10)
(1.52724 -0.000833217 -2.19337e-10)
(1.53286 -0.000454657 7.66021e-11)
(1.53758 -0.000172557 -8.90679e-10)
(1.53972 -9.05572e-05 2.71747e-09)
(1.54 -0.000157158 -2.25407e-09)
(1.53791 0.000195836 2.48473e-10)
(1.53686 0.000252506 8.31926e-10)
(1.53377 0.000255683 1.16072e-09)
(1.53133 0.000332328 9.69464e-10)
(1.5297 0.000337602 -1.03949e-09)
(1.52863 0.000259548 2.50175e-11)
(1.52928 0.00048928 7.5249e-10)
(1.53 0.000522079 9.64968e-10)
(1.53077 0.000622451 8.37187e-10)
(1.53153 0.00058203 7.87778e-10)
(1.53214 0.000489652 6.52063e-11)