/*--------------------------------*- C++ -*----------------------------------*\
| =========                 |                                                 |
| \\      /  F ield         | OpenFOAM: The Open Source CFD Toolbox           |
|  \\    /   O peration     | Version:  2.2.x                                 |
|   \\  /    A nd           | Web:      www.OpenFOAM.org                      |
|    \\/     M anipulation  |                                                 |
\*---------------------------------------------------------------------------*/
FoamFile
{
    version     2.0;
    format      ascii;
    class       volScalarField;
    location    "2.6";
    object      Bx;
}
// * * * * * * * * * * * * * * * * * * * * * * * * * * * * * * * * * * * * * //

dimensions      [1 0 -2 0 0 -1 0];

internalField   nonuniform List<scalar> 
14161
(
1.00328
1.00225
1.00248
1.00253
1.00263
1.00275
1.00291
1.00306
1.00324
1.00344
1.00362
1.00386
1.0041
1.00428
1.00456
1.00486
1.00505
1.00529
1.00561
1.00594
1.00613
1.00628
1.00655
1.00689
1.00714
1.00734
1.0075
1.00754
1.00765
1.00777
1.00785
1.00776
1.0076
1.00725
1.00673
1.00603
1.00514
1.00409
1.00286
1.00122
0.999127
0.996574
0.994383
0.991175
0.988765
0.974895
0.95048
0.947365
0.957517
0.979622
1.00354
1.03294
1.06082
1.08707
1.11096
1.132
1.15037
1.16687
1.18148
1.19426
1.20529
1.21525
1.22355
1.23064
1.2372
1.24267
1.24715
1.25079
1.25396
1.25685
1.25962
1.26253
1.26568
1.26903
1.27212
1.27502
1.27791
1.28069
1.28363
1.28656
1.28921
1.29209
1.29523
1.29834
1.30094
1.30379
1.307
1.31011
1.31253
1.31541
1.31866
1.32181
1.32426
1.32723
1.33072
1.33356
1.337
1.34078
1.34459
1.34857
1.35276
1.35683
1.3616
1.36609
1.37063
1.37267
1.3716
1.36893
1.35135
1.30357
1.19312
1.03713
0.858205
0.687324
0.524824
0.39339
0.25556
0.167026
0.0374877
1.00328
1.00225
1.00248
1.00253
1.00263
1.00275
1.0029
1.00306
1.00324
1.00343
1.00363
1.00386
1.00409
1.00429
1.00457
1.00485
1.00506
1.00529
1.00562
1.00592
1.00611
1.00628
1.00657
1.0069
1.00717
1.00736
1.00747
1.00754
1.00765
1.00778
1.00784
1.00778
1.00761
1.00731
1.00689
1.00631
1.00545
1.00437
1.0027
1.00088
0.998917
0.996664
0.994265
0.9897
0.985932
0.968268
0.943914
0.945561
0.955701
0.982725
1.00698
1.03447
1.06149
1.08573
1.1081
1.1279
1.14619
1.16276
1.1776
1.19093
1.20221
1.21242
1.22132
1.22906
1.23577
1.24176
1.24685
1.25126
1.25536
1.25905
1.26215
1.26498
1.26783
1.27085
1.27379
1.27662
1.2794
1.28218
1.28508
1.28788
1.29053
1.29343
1.29651
1.29941
1.30215
1.30494
1.30811
1.31077
1.3135
1.3163
1.31955
1.32247
1.3252
1.32806
1.33143
1.33438
1.33777
1.34158
1.34554
1.34961
1.35352
1.35757
1.36265
1.36569
1.36845
1.36861
1.36313
1.34853
1.31133
1.23295
1.10743
0.934713
0.757436
0.608833
0.469473
0.354957
0.2332
0.156269
0.044517
1.00328
1.00225
1.00248
1.00253
1.00263
1.00276
1.0029
1.00306
1.00324
1.00343
1.00363
1.00386
1.00409
1.0043
1.00457
1.00483
1.00506
1.0053
1.00562
1.00589
1.00609
1.0063
1.0066
1.00691
1.00718
1.00733
1.00747
1.00756
1.00768
1.00782
1.00788
1.00787
1.00772
1.00743
1.007
1.00644
1.00563
1.00463
1.00326
1.00169
0.999955
0.997816
0.995722
0.991205
0.993134
0.966151
0.9388
0.947059
0.955661
0.987226
1.0174
1.04705
1.07524
1.09971
1.12254
1.14219
1.16073
1.17675
1.19099
1.20361
1.21432
1.22368
1.23166
1.23861
1.24431
1.24955
1.25405
1.25802
1.26168
1.26526
1.26866
1.27172
1.27444
1.27709
1.27979
1.28256
1.28521
1.2879
1.29072
1.29321
1.29585
1.2985
1.30152
1.30395
1.3067
1.30929
1.31237
1.31458
1.31735
1.31992
1.3231
1.32577
1.32861
1.33139
1.33471
1.33784
1.34123
1.34492
1.34896
1.35302
1.35666
1.35991
1.36283
1.36429
1.3632
1.35881
1.34051
1.30137
1.21825
1.07702
0.906077
0.750458
0.615017
0.506917
0.400717
0.309903
0.208166
0.143798
0.0444743
1.00328
1.00225
1.00248
1.00253
1.00263
1.00275
1.0029
1.00306
1.00324
1.00343
1.00364
1.00385
1.00408
1.00431
1.00456
1.00483
1.00506
1.00532
1.00561
1.00587
1.0061
1.00633
1.00661
1.00692
1.00718
1.00736
1.00746
1.00759
1.00774
1.00787
1.00795
1.00797
1.00785
1.0076
1.00724
1.00678
1.00613
1.00531
1.00417
1.00271
1.00084
0.998424
0.99627
0.989936
0.995653
0.972507
0.939277
0.959532
0.96475
0.998423
1.03362
1.06751
1.09853
1.12494
1.14915
1.16933
1.18763
1.20241
1.21534
1.22628
1.23569
1.2434
1.24955
1.25524
1.25935
1.26323
1.26687
1.27016
1.27309
1.27601
1.27897
1.2817
1.28404
1.28608
1.28834
1.29079
1.29326
1.2957
1.29817
1.30032
1.30279
1.30508
1.30754
1.30948
1.31216
1.31452
1.31717
1.31902
1.32179
1.32413
1.32701
1.32949
1.33247
1.33524
1.33851
1.34189
1.34515
1.3487
1.352
1.3551
1.35749
1.35922
1.36053
1.35796
1.34762
1.32821
1.28392
1.1883
1.04676
0.868771
0.723125
0.611078
0.512162
0.429119
0.344561
0.272319
0.188293
0.133413
0.0473561
1.00327
1.00225
1.00248
1.00252
1.00263
1.00275
1.0029
1.00306
1.00324
1.00343
1.00364
1.00385
1.00408
1.00432
1.00456
1.00481
1.00507
1.00533
1.00559
1.00585
1.00611
1.00637
1.00664
1.0069
1.00717
1.00736
1.00748
1.00765
1.00782
1.00794
1.00803
1.00809
1.00803
1.00787
1.00763
1.00735
1.00694
1.00638
1.00558
1.00451
1.00308
1.00107
0.999296
0.993342
0.998246
0.979213
0.947947
0.974224
0.986687
1.02505
1.06527
1.10254
1.13422
1.16181
1.18507
1.20525
1.22177
1.23503
1.24588
1.25476
1.26287
1.26875
1.27347
1.27768
1.28082
1.28346
1.28606
1.28844
1.29053
1.29256
1.29478
1.29703
1.2991
1.30081
1.30262
1.30454
1.30656
1.30848
1.31033
1.31207
1.31406
1.3158
1.3176
1.31915
1.32146
1.32346
1.32556
1.32702
1.32951
1.33161
1.33413
1.33651
1.33951
1.3422
1.34547
1.34856
1.35093
1.35364
1.35514
1.35652
1.35781
1.35644
1.35201
1.34256
1.31486
1.26176
1.16609
0.99972
0.820329
0.681794
0.584927
0.501359
0.431652
0.368027
0.299775
0.240591
0.172395
0.127418
0.0521717
1.00327
1.00225
1.00247
1.00252
1.00263
1.00275
1.0029
1.00306
1.00323
1.00342
1.00364
1.00384
1.00407
1.00432
1.00456
1.0048
1.00507
1.00534
1.00558
1.00583
1.00613
1.0064
1.00664
1.00686
1.00711
1.00735
1.00754
1.00776
1.00794
1.00803
1.00812
1.0082
1.00824
1.00824
1.00816
1.00805
1.00785
1.00754
1.00708
1.0064
1.00538
1.00358
1.00174
0.996589
0.997118
0.98677
0.971123
0.996024
1.02758
1.06707
1.11588
1.15439
1.18321
1.2112
1.23025
1.24917
1.26161
1.27306
1.28126
1.28785
1.29404
1.29685
1.30045
1.30284
1.30498
1.30682
1.30824
1.31012
1.31165
1.31303
1.31432
1.31576
1.31713
1.31837
1.31954
1.32073
1.32216
1.32339
1.32459
1.32601
1.32741
1.32871
1.32989
1.33109
1.33269
1.33435
1.33568
1.33698
1.339
1.34064
1.34258
1.34459
1.34733
1.34918
1.35143
1.35309
1.35407
1.35531
1.35556
1.35454
1.35303
1.34586
1.32932
1.29956
1.23962
1.12413
0.961592
0.776867
0.642925
0.552139
0.483977
0.423231
0.373116
0.32314
0.266348
0.217146
0.160795
0.124125
0.0599329
1.00326
1.00225
1.00247
1.00252
1.00263
1.00275
1.00289
1.00306
1.00323
1.00342
1.00364
1.00383
1.00406
1.00432
1.00455
1.00477
1.00507
1.00534
1.00557
1.00582
1.00614
1.00644
1.00666
1.00685
1.00706
1.00733
1.00761
1.00785
1.00804
1.00816
1.00825
1.00835
1.00849
1.00868
1.00883
1.00893
1.00903
1.00913
1.00924
1.00936
1.00944
1.00951
1.00892
1.00868
1.00648
1.0096
1.0083
1.03924
1.09418
1.14165
1.18884
1.21886
1.24111
1.26205
1.27464
1.29078
1.29856
1.30775
1.31333
1.3171
1.32129
1.32223
1.32479
1.32584
1.32717
1.32811
1.32869
1.32964
1.3306
1.33164
1.33267
1.33363
1.33442
1.33536
1.3362
1.33692
1.33785
1.3387
1.33948
1.34041
1.34144
1.3424
1.34311
1.34399
1.3448
1.34594
1.34668
1.3476
1.34905
1.3498
1.35093
1.35224
1.35343
1.35391
1.35429
1.35479
1.35484
1.35441
1.35278
1.34666
1.33769
1.31669
1.27545
1.20534
1.08755
0.908414
0.735119
0.611623
0.523882
0.459149
0.408178
0.366473
0.328645
0.288374
0.241577
0.200678
0.153557
0.123072
0.0685736
1.00325
1.00224
1.00247
1.00252
1.00262
1.00275
1.00289
1.00305
1.00322
1.00341
1.00363
1.00383
1.00405
1.00432
1.00454
1.00476
1.00506
1.00535
1.00556
1.00581
1.00612
1.00645
1.00669
1.00688
1.00704
1.00731
1.00764
1.00792
1.00812
1.00829
1.00842
1.00855
1.00875
1.00906
1.00941
1.00977
1.01014
1.01066
1.01138
1.01241
1.01353
1.01565
1.01653
1.02225
1.01851
1.0437
1.09209
1.11022
1.17944
1.21447
1.2464
1.26623
1.28757
1.30286
1.31268
1.32515
1.33014
1.33631
1.34013
1.34093
1.34313
1.34432
1.34566
1.34593
1.34539
1.34567
1.34569
1.34601
1.3465
1.34684
1.34733
1.34767
1.34816
1.34876
1.34926
1.34966
1.35019
1.35064
1.35106
1.35162
1.35222
1.35284
1.3531
1.35354
1.35392
1.35441
1.35464
1.35498
1.35556
1.35547
1.35515
1.35535
1.35562
1.35524
1.35479
1.35406
1.35141
1.34702
1.34069
1.32318
1.29433
1.24883
1.16181
1.02646
0.85159
0.69344
0.579834
0.499077
0.440521
0.394846
0.356517
0.328055
0.295793
0.263125
0.223397
0.188843
0.149131
0.123247
0.0777094
1.00324
1.00224
1.00246
1.00251
1.00262
1.00274
1.00288
1.00305
1.00322
1.00341
1.00363
1.00382
1.00405
1.00432
1.00453
1.00476
1.00506
1.00536
1.00557
1.0058
1.0061
1.00644
1.00671
1.0069
1.00706
1.00731
1.00768
1.00799
1.00821
1.00842
1.00857
1.00875
1.00902
1.0094
1.00993
1.01054
1.01125
1.01216
1.01349
1.01553
1.0183
1.02262
1.02701
1.03974
1.04571
1.11206
1.20155
1.24579
1.29534
1.30036
1.30955
1.31413
1.32809
1.33785
1.34867
1.35389
1.35832
1.35801
1.36105
1.36122
1.36097
1.36202
1.36098
1.36088
1.35911
1.35874
1.3582
1.35814
1.35818
1.35799
1.35798
1.35812
1.35838
1.35865
1.35875
1.35871
1.35891
1.35898
1.35903
1.35921
1.35929
1.35967
1.35959
1.35957
1.35954
1.35931
1.35933
1.35865
1.35852
1.35799
1.35689
1.35611
1.35553
1.35334
1.34993
1.34674
1.33783
1.3223
1.30335
1.26706
1.20146
1.10986
0.964793
0.788921
0.650415
0.547205
0.473361
0.421655
0.382347
0.349344
0.322528
0.299502
0.270208
0.244196
0.209688
0.180731
0.147197
0.125503
0.0875633
1.00323
1.00223
1.00245
1.0025
1.00261
1.00273
1.00288
1.00304
1.00321
1.0034
1.00362
1.00381
1.00404
1.0043
1.00453
1.00476
1.00505
1.00535
1.00557
1.0058
1.0061
1.00645
1.00673
1.00691
1.00708
1.00735
1.00771
1.00805
1.0083
1.00851
1.00871
1.00895
1.00931
1.00979
1.01034
1.01103
1.01183
1.01279
1.01394
1.0154
1.01703
1.01923
1.02096
1.02337
1.02579
1.05509
1.17552
1.33455
1.34247
1.34884
1.35366
1.35135
1.35602
1.36116
1.37064
1.3731
1.37512
1.37544
1.37628
1.37699
1.37485
1.37492
1.37172
1.37203
1.37073
1.36939
1.3684
1.36784
1.36743
1.36693
1.36658
1.3664
1.36627
1.36613
1.36597
1.36558
1.36537
1.36512
1.36475
1.36432
1.36373
1.36345
1.36294
1.36236
1.36181
1.36119
1.36106
1.3601
1.35907
1.35772
1.35526
1.35188
1.34907
1.34244
1.33183
1.32157
1.30165
1.26777
1.22114
1.14976
1.02522
0.87466
0.721297
0.600782
0.512941
0.449969
0.402912
0.368405
0.341283
0.318202
0.299926
0.27927
0.254514
0.232431
0.201647
0.177045
0.148147
0.129387
0.0977072
1.00322
1.00223
1.00245
1.0025
1.0026
1.00273
1.00287
1.00303
1.0032
1.00339
1.0036
1.00381
1.00404
1.00428
1.00452
1.00475
1.00504
1.00533
1.00557
1.0058
1.00612
1.00646
1.00671
1.0069
1.00712
1.00742
1.00775
1.00809
1.00838
1.0086
1.00884
1.00917
1.00959
1.01011
1.01073
1.01152
1.0124
1.01339
1.01463
1.01596
1.01767
1.01973
1.02249
1.02599
1.03497
1.06681
1.19913
1.29595
1.32688
1.36074
1.36238
1.3646
1.36924
1.37538
1.3812
1.38073
1.38229
1.38346
1.383
1.38359
1.38074
1.38047
1.37726
1.37656
1.37568
1.37427
1.37328
1.37253
1.372
1.37135
1.37082
1.37036
1.36996
1.36953
1.36915
1.3686
1.36805
1.36759
1.3668
1.36618
1.3653
1.3646
1.36395
1.36278
1.36141
1.36004
1.3588
1.35637
1.35274
1.34969
1.34382
1.33526
1.32724
1.31395
1.29183
1.26328
1.22271
1.15364
1.05467
0.934648
0.775642
0.649577
0.551804
0.475264
0.423064
0.384238
0.355125
0.332317
0.312456
0.297533
0.282212
0.264123
0.243343
0.22331
0.195998
0.17501
0.150109
0.134324
0.108213
1.0032
1.00222
1.00244
1.00249
1.0026
1.00272
1.00286
1.00302
1.0032
1.00338
1.00359
1.0038
1.00403
1.00426
1.00451
1.00475
1.00503
1.00531
1.00556
1.00582
1.00613
1.00643
1.00667
1.00692
1.00719
1.00749
1.00778
1.00808
1.00839
1.00869
1.009
1.0094
1.00985
1.01031
1.01079
1.01136
1.01218
1.01307
1.01403
1.01497
1.01589
1.01682
1.01729
1.02009
1.02639
1.09108
1.15511
1.18077
1.25237
1.32
1.34317
1.36044
1.37056
1.37836
1.38092
1.38172
1.38305
1.38416
1.38258
1.38366
1.38102
1.38003
1.37763
1.37605
1.37523
1.37428
1.37359
1.37296
1.37241
1.37175
1.37132
1.37082
1.3704
1.3699
1.36948
1.36875
1.36808
1.36714
1.36588
1.3649
1.36348
1.36164
1.36025
1.35785
1.35482
1.35178
1.34828
1.34284
1.33465
1.32682
1.31504
1.29678
1.27495
1.24719
1.20131
1.13683
1.05783
0.944787
0.801021
0.683427
0.581548
0.499025
0.441472
0.396539
0.363939
0.340978
0.322601
0.30716
0.293882
0.283548
0.269088
0.254705
0.235919
0.217809
0.193827
0.175795
0.154077
0.14069
0.118807
1.00319
1.00221
1.00243
1.00248
1.00259
1.00271
1.00285
1.00301
1.00319
1.00337
1.00357
1.00378
1.00401
1.00425
1.0045
1.00475
1.00501
1.00527
1.00555
1.00582
1.00611
1.00637
1.00666
1.00696
1.00727
1.00755
1.00778
1.00805
1.00838
1.00875
1.00913
1.00955
1.00998
1.01041
1.01088
1.01138
1.01197
1.01272
1.0135
1.01437
1.0153
1.01669
1.01848
1.02349
1.04041
1.10274
1.13134
1.1432
1.18918
1.25428
1.31454
1.34222
1.36467
1.36504
1.37055
1.37265
1.37513
1.37692
1.37569
1.37594
1.37401
1.37302
1.37231
1.37062
1.3705
1.36995
1.36956
1.3691
1.36852
1.36811
1.36786
1.36739
1.36687
1.36608
1.36533
1.36405
1.363
1.36138
1.35929
1.35762
1.35514
1.35105
1.34799
1.34296
1.33544
1.32845
1.31916
1.30759
1.29026
1.26942
1.24576
1.20846
1.15896
1.10313
1.02308
0.914824
0.798645
0.688528
0.592081
0.513651
0.452193
0.405887
0.370998
0.345935
0.32682
0.312363
0.301091
0.290592
0.282488
0.273215
0.260735
0.248461
0.230895
0.214691
0.193333
0.177669
0.158663
0.147462
0.129362
1.00317
1.0022
1.00242
1.00247
1.00257
1.0027
1.00284
1.00299
1.00317
1.00336
1.00355
1.00377
1.004
1.00422
1.00447
1.00473
1.00499
1.00524
1.00553
1.00583
1.00608
1.00632
1.00662
1.00695
1.0073
1.00759
1.00783
1.00806
1.00837
1.00875
1.0092
1.00962
1.01001
1.01041
1.01079
1.01119
1.01161
1.01206
1.01257
1.01298
1.01311
1.01236
1.01296
1.00956
1.05391
1.10883
1.1119
1.11786
1.13534
1.16914
1.23439
1.29025
1.32514
1.33159
1.34439
1.35318
1.3592
1.36369
1.36331
1.36248
1.36215
1.36167
1.36231
1.36091
1.36067
1.36027
1.36012
1.35993
1.35933
1.35891
1.3585
1.35803
1.35708
1.35563
1.35445
1.35198
1.34988
1.34699
1.34266
1.33827
1.33337
1.32516
1.31623
1.30625
1.2903
1.27332
1.25233
1.22783
1.19276
1.1477
1.10045
1.03521
0.951049
0.857412
0.758107
0.660764
0.58278
0.512855
0.453628
0.410586
0.374741
0.347431
0.327945
0.313465
0.302579
0.294652
0.286893
0.280714
0.274607
0.266346
0.256266
0.245053
0.228879
0.21463
0.195567
0.182132
0.165417
0.155918
0.140653
1.00316
1.00219
1.00241
1.00246
1.00256
1.00268
1.00283
1.00298
1.00316
1.00334
1.00353
1.00375
1.00398
1.00419
1.00445
1.00473
1.00497
1.0052
1.0055
1.00584
1.0061
1.0063
1.00659
1.00695
1.0073
1.00759
1.00787
1.00808
1.00835
1.00875
1.00923
1.00963
1.00999
1.01033
1.01067
1.011
1.01126
1.01154
1.01193
1.01229
1.01262
1.01276
1.01336
1.01468
1.05209
1.08589
1.08436
1.09098
1.0993
1.11496
1.15194
1.21161
1.26493
1.30363
1.32361
1.33333
1.3401
1.34469
1.34442
1.34481
1.34684
1.34757
1.34838
1.34768
1.34699
1.34615
1.346
1.34533
1.34452
1.34367
1.34187
1.34053
1.3384
1.33444
1.33174
1.32694
1.32034
1.3148
1.30604
1.2931
1.28299
1.26693
1.24461
1.22419
1.19268
1.15566
1.11398
1.06577
1.00542
0.929375
0.853019
0.77085
0.686353
0.613017
0.554424
0.492464
0.443673
0.405948
0.372842
0.347125
0.328379
0.312928
0.301849
0.293926
0.287731
0.283425
0.278698
0.27516
0.269571
0.262821
0.254155
0.243726
0.22944
0.216636
0.199569
0.187639
0.172703
0.164642
0.15187
1.00314
1.00218
1.0024
1.00245
1.00255
1.00267
1.00281
1.00296
1.00314
1.00332
1.0035
1.00373
1.00397
1.00416
1.00442
1.00472
1.00494
1.00516
1.00548
1.00583
1.00609
1.00628
1.00657
1.00697
1.00733
1.00761
1.00785
1.00809
1.0084
1.00879
1.00922
1.0096
1.00992
1.01022
1.01048
1.01076
1.01105
1.01135
1.01169
1.01212
1.01281
1.01384
1.01651
1.02965
1.06667
1.08215
1.08248
1.08901
1.09142
1.09964
1.11686
1.14257
1.19729
1.25307
1.28322
1.30141
1.31256
1.32146
1.32448
1.32865
1.33054
1.33133
1.33163
1.33066
1.3295
1.328
1.32626
1.32447
1.32167
1.31908
1.31454
1.30979
1.30469
1.29606
1.28735
1.2775
1.2628
1.24805
1.22982
1.20408
1.17684
1.14628
1.10314
1.06049
1.00821
0.944172
0.877512
0.808604
0.742907
0.672713
0.611266
0.56074
0.510943
0.462462
0.425526
0.393413
0.365319
0.342699
0.325478
0.311099
0.300724
0.292501
0.286541
0.282413
0.279634
0.277135
0.274469
0.271758
0.266805
0.261449
0.253589
0.244488
0.232161
0.220742
0.205601
0.195109
0.181775
0.174817
0.163991
1.00312
1.00217
1.00238
1.00243
1.00253
1.00265
1.00279
1.00294
1.00312
1.0033
1.00349
1.00371
1.00394
1.00413
1.00441
1.00471
1.00492
1.00515
1.00549
1.00581
1.00605
1.00628
1.0066
1.00698
1.00732
1.00759
1.00783
1.00811
1.00844
1.0088
1.00916
1.00952
1.00983
1.01008
1.01031
1.01056
1.01079
1.01095
1.01096
1.0109
1.01042
1.01098
1.00959
1.03339
1.07327
1.07674
1.07554
1.07844
1.07732
1.08203
1.08607
1.09842
1.13099
1.18442
1.23917
1.27067
1.29494
1.3003
1.30773
1.31233
1.31291
1.31218
1.31172
1.30868
1.30564
1.30306
1.29743
1.29315
1.28624
1.27783
1.26822
1.25436
1.24273
1.22648
1.20378
1.18318
1.15407
1.1193
1.08566
1.03979
0.986544
0.934516
0.870932
0.809296
0.753843
0.691985
0.637679
0.589867
0.548574
0.507136
0.4668
0.431056
0.403875
0.377213
0.355758
0.335792
0.321426
0.308327
0.298676
0.290982
0.285614
0.281607
0.278894
0.276729
0.275497
0.274155
0.27269
0.270494
0.266713
0.262357
0.255415
0.247729
0.237026
0.226486
0.212908
0.203072
0.191029
0.18495
0.175915
1.0031
1.00216
1.00237
1.00242
1.00252
1.00263
1.00277
1.00292
1.00309
1.00328
1.00347
1.00369
1.0039
1.00412
1.00439
1.00465
1.00489
1.00516
1.00546
1.00574
1.00601
1.0063
1.00662
1.00692
1.00725
1.00755
1.00785
1.00817
1.00848
1.00877
1.00905
1.00934
1.00965
1.00991
1.01017
1.01039
1.01055
1.01058
1.01037
1.00999
1.00947
1.00877
1.00677
1.0237
1.06013
1.05626
1.05725
1.06046
1.0611
1.06694
1.0704
1.08238
1.09943
1.13877
1.19346
1.24281
1.27115
1.27801
1.29318
1.29174
1.29386
1.28831
1.28521
1.28078
1.2713
1.264
1.2518
1.23928
1.22439
1.20506
1.18513
1.1585
1.12958
1.0992
1.05666
1.01486
0.966088
0.908932
0.853278
0.798199
0.741933
0.692882
0.644505
0.602783
0.564916
0.529312
0.494696
0.461483
0.432915
0.409136
0.386108
0.364107
0.346615
0.330207
0.318515
0.306459
0.297459
0.290342
0.285077
0.281116
0.278388
0.276301
0.275131
0.274402
0.27437
0.273941
0.273094
0.2715
0.268794
0.264949
0.259142
0.252368
0.242908
0.233253
0.221001
0.212019
0.201497
0.196353
0.188873
1.00308
1.00214
1.00235
1.0024
1.0025
1.00261
1.00275
1.0029
1.00307
1.00324
1.00345
1.00365
1.00386
1.0041
1.00435
1.00459
1.00485
1.00513
1.00541
1.00567
1.00597
1.0063
1.0066
1.00687
1.00716
1.00751
1.00787
1.00822
1.00853
1.00877
1.00896
1.00918
1.00947
1.00979
1.01004
1.01022
1.01035
1.01045
1.01051
1.01051
1.01047
1.01092
1.01309
1.03208
1.04579
1.04181
1.04492
1.04543
1.04957
1.05494
1.06142
1.07074
1.08113
1.10475
1.14112
1.19759
1.24169
1.25921
1.27193
1.26751
1.26513
1.25494
1.24234
1.23083
1.21328
1.19489
1.17182
1.14301
1.11475
1.07823
1.03959
0.994861
0.942577
0.892753
0.83384
0.782341
0.73346
0.685425
0.644021
0.605755
0.571023
0.539782
0.508478
0.481427
0.457198
0.43224
0.413056
0.393558
0.37462
0.358147
0.343831
0.328516
0.31808
0.306955
0.299356
0.292168
0.286585
0.282216
0.279131
0.276948
0.275808
0.27534
0.275331
0.275336
0.275457
0.275379
0.275025
0.274094
0.272142
0.268778
0.263844
0.257596
0.249307
0.240637
0.229762
0.222063
0.212466
0.207892
0.201683
1.00305
1.00213
1.00233
1.00238
1.00248
1.00259
1.00273
1.00288
1.00303
1.00321
1.00342
1.00361
1.00382
1.00407
1.00431
1.00453
1.00481
1.00511
1.00536
1.00561
1.00593
1.00631
1.00661
1.00684
1.00709
1.00744
1.00787
1.00823
1.00852
1.00874
1.00891
1.00913
1.0094
1.00972
1.00998
1.01019
1.01037
1.01061
1.01096
1.01147
1.01224
1.01372
1.02008
1.03874
1.04387
1.04223
1.04484
1.04459
1.04814
1.05047
1.0552
1.06009
1.06646
1.08005
1.09867
1.14696
1.18952
1.22247
1.22469
1.21943
1.20907
1.18958
1.16678
1.13709
1.10703
1.07091
1.03285
0.983882
0.935402
0.881564
0.825954
0.776367
0.725905
0.684116
0.643922
0.607133
0.576096
0.545676
0.518038
0.494893
0.470821
0.453477
0.432291
0.416142
0.402074
0.386355
0.370629
0.358492
0.34464
0.333115
0.324024
0.3128
0.305186
0.297283
0.291625
0.286702
0.282771
0.280188
0.278705
0.27779
0.277433
0.277356
0.277487
0.277746
0.277994
0.278222
0.278108
0.277544
0.276096
0.273329
0.269277
0.263809
0.256816
0.249291
0.23988
0.23265
0.223863
0.219998
0.214845
1.00303
1.00211
1.00231
1.00236
1.00246
1.00257
1.0027
1.00285
1.003
1.00318
1.00338
1.00356
1.00378
1.00404
1.00425
1.00446
1.00478
1.00511
1.0053
1.00554
1.00591
1.0063
1.0066
1.00681
1.00708
1.00745
1.00787
1.00821
1.00845
1.00867
1.00889
1.00913
1.0094
1.00965
1.00986
1.01002
1.01014
1.01021
1.0104
1.01041
1.01152
1.01056
1.02563
1.04716
1.04572
1.04405
1.04455
1.04461
1.04636
1.0479
1.05055
1.05433
1.05856
1.06728
1.07534
1.10327
1.12477
1.15337
1.14666
1.13028
1.10738
1.07255
1.03376
0.984878
0.935247
0.879752
0.829792
0.777501
0.730652
0.689515
0.65052
0.615402
0.583891
0.555397
0.530043
0.507013
0.485387
0.4679
0.449034
0.436321
0.421027
0.409256
0.397365
0.383056
0.373361
0.363501
0.352366
0.34342
0.333897
0.323423
0.316639
0.307649
0.301502
0.295209
0.291146
0.287911
0.285388
0.283653
0.282434
0.281767
0.281483
0.281574
0.281873
0.282224
0.282534
0.282768
0.282794
0.282461
0.281497
0.279393
0.276054
0.271145
0.265111
0.258189
0.250148
0.243198
0.235793
0.232142
0.227919
1.003
1.00209
1.00229
1.00234
1.00243
1.00254
1.00267
1.00282
1.00297
1.00315
1.00335
1.00351
1.00375
1.00401
1.0042
1.00443
1.00475
1.00505
1.00525
1.00553
1.0059
1.00624
1.00652
1.00678
1.0071
1.00746
1.00781
1.00813
1.0084
1.00865
1.0089
1.00913
1.00936
1.00954
1.00969
1.00982
1.00988
1.00987
1.00974
1.0093
1.00938
1.0077
1.01714
1.0354
1.03434
1.03407
1.03454
1.0356
1.03735
1.03906
1.0405
1.04196
1.04203
1.04075
1.04038
1.03945
1.04161
1.04844
1.02092
0.990103
0.940706
0.891171
0.839997
0.792406
0.744974
0.703919
0.665863
0.631151
0.59969
0.571766
0.546495
0.524335
0.502512
0.485118
0.467145
0.454543
0.440213
0.429261
0.416728
0.406649
0.397563
0.388871
0.381766
0.371513
0.363248
0.355266
0.346248
0.338674
0.331883
0.323224
0.317984
0.310903
0.306047
0.300857
0.297338
0.294533
0.292258
0.290669
0.289456
0.28886
0.288476
0.28842
0.288534
0.288769
0.28897
0.289115
0.289085
0.288618
0.28766
0.285785
0.282888
0.278722
0.27381
0.267834
0.261399
0.254661
0.248398
0.244392
0.24127
1.00297
1.00207
1.00227
1.00231
1.0024
1.00251
1.00264
1.00278
1.00293
1.00311
1.0033
1.00348
1.00371
1.00394
1.00414
1.0044
1.00469
1.00495
1.0052
1.00551
1.00583
1.00613
1.00643
1.00675
1.00709
1.00742
1.0077
1.00801
1.00836
1.00868
1.00898
1.0092
1.00933
1.00944
1.00954
1.00962
1.00964
1.00953
1.00926
1.00876
1.00808
1.00624
1.01036
1.02584
1.02253
1.02573
1.02669
1.02871
1.03008
1.03184
1.03229
1.03206
1.03175
1.02294
1.01665
0.977823
0.948794
0.908238
0.853715
0.808017
0.763212
0.725367
0.689061
0.655575
0.624934
0.596363
0.571666
0.548498
0.526785
0.508234
0.49027
0.477382
0.462943
0.451494
0.439066
0.429685
0.420255
0.412638
0.404137
0.396863
0.389501
0.38262
0.376922
0.369506
0.363243
0.35717
0.350571
0.344126
0.339206
0.331657
0.327032
0.32074
0.316382
0.311473
0.307854
0.304975
0.302704
0.300984
0.299535
0.298642
0.298035
0.29783
0.297774
0.297761
0.297613
0.297373
0.297016
0.296352
0.295373
0.293843
0.291514
0.287988
0.283755
0.278128
0.272586
0.265709
0.26087
0.256578
0.254739
1.00294
1.00205
1.00224
1.00228
1.00237
1.00248
1.0026
1.00274
1.00289
1.00307
1.00324
1.00343
1.00366
1.00386
1.00408
1.00435
1.0046
1.00484
1.00514
1.00546
1.00574
1.00601
1.00635
1.00675
1.00711
1.00741
1.00764
1.00793
1.0083
1.00871
1.00902
1.00924
1.00942
1.00954
1.00967
1.00982
1.00999
1.0102
1.01051
1.01108
1.01202
1.01504
1.02334
1.03304
1.02886
1.03026
1.02985
1.02955
1.0287
1.02797
1.02682
1.02106
1.01379
0.985802
0.955249
0.888514
0.816817
0.750702
0.710911
0.675165
0.64704
0.620992
0.598892
0.577512
0.557863
0.539368
0.522096
0.508167
0.493322
0.481138
0.467649
0.457474
0.447054
0.438927
0.429255
0.421811
0.414329
0.408505
0.402531
0.397126
0.392353
0.386803
0.382518
0.376762
0.37192
0.36679
0.361895
0.355906
0.351902
0.345043
0.340774
0.334955
0.33061
0.325909
0.32192
0.318619
0.315898
0.314222
0.312662
0.311608
0.310572
0.309698
0.308958
0.308382
0.307792
0.30706
0.306301
0.305354
0.304064
0.30218
0.299798
0.296525
0.292956
0.288221
0.284024
0.277653
0.273969
0.269368
0.26863
1.00291
1.00202
1.00222
1.00225
1.00234
1.00244
1.00256
1.0027
1.00285
1.00301
1.00318
1.00339
1.00359
1.00377
1.00403
1.0043
1.0045
1.00474
1.0051
1.00544
1.00565
1.0059
1.00629
1.00673
1.0071
1.00736
1.00761
1.00794
1.00835
1.00873
1.00903
1.00926
1.00946
1.00966
1.00987
1.01012
1.01041
1.01086
1.01129
1.01257
1.01236
1.02454
1.03644
1.03993
1.03729
1.03708
1.0359
1.03469
1.0325
1.0271
1.02172
1.00225
0.983727
0.923681
0.856856
0.766433
0.700688
0.658004
0.625631
0.602088
0.581512
0.564855
0.549306
0.536354
0.523891
0.512923
0.501106
0.491092
0.480763
0.472223
0.46236
0.454259
0.446075
0.439955
0.432908
0.426929
0.421257
0.416254
0.411657
0.406733
0.402959
0.398181
0.394438
0.389714
0.38559
0.381097
0.377397
0.371726
0.368109
0.361836
0.357504
0.351702
0.346924
0.342434
0.337866
0.334496
0.331236
0.329173
0.327219
0.325795
0.324362
0.323005
0.321607
0.320385
0.319173
0.317752
0.316431
0.315024
0.31333
0.311414
0.309524
0.306915
0.30401
0.299759
0.295912
0.289601
0.286637
0.282051
0.282547
1.00288
1.002
1.00219
1.00222
1.00231
1.0024
1.00252
1.00265
1.0028
1.00295
1.00312
1.00334
1.00351
1.0037
1.00398
1.00423
1.00441
1.00469
1.00504
1.00534
1.00556
1.00586
1.00627
1.00667
1.00699
1.00728
1.0076
1.00797
1.00836
1.00872
1.00905
1.00936
1.00964
1.00991
1.01016
1.01037
1.01052
1.01069
1.01049
1.01107
1.00913
1.01994
1.03698
1.03572
1.03526
1.03509
1.03469
1.03309
1.03022
1.01942
1.00774
0.9671
0.923663
0.835478
0.745577
0.680528
0.635534
0.603952
0.580912
0.563605
0.549985
0.538692
0.528804
0.519861
0.511404
0.504057
0.496554
0.489857
0.482789
0.476974
0.470439
0.464618
0.4581
0.452589
0.446735
0.440965
0.43571
0.430578
0.426344
0.421394
0.417795
0.413183
0.409583
0.405273
0.401556
0.397041
0.393878
0.388442
0.384537
0.378536
0.374205
0.369006
0.36364
0.359599
0.35465
0.350877
0.347053
0.344413
0.342198
0.340512
0.338807
0.336836
0.334692
0.332767
0.331146
0.329261
0.327522
0.325835
0.323553
0.321808
0.319473
0.316762
0.314039
0.310337
0.307309
0.301772
0.299758
0.295569
0.296881
1.00284
1.00197
1.00215
1.00219
1.00227
1.00236
1.00248
1.0026
1.00275
1.00288
1.00307
1.00327
1.00342
1.00365
1.0039
1.00411
1.00433
1.00463
1.00493
1.00519
1.00548
1.00581
1.00616
1.0065
1.00685
1.0072
1.0076
1.00798
1.00834
1.0087
1.0091
1.0095
1.00987
1.0102
1.01042
1.01056
1.01056
1.01039
1.00983
1.00922
1.00644
1.0101
1.02799
1.02424
1.02647
1.02625
1.02714
1.02319
1.01883
0.995221
0.97298
0.900503
0.817555
0.732592
0.671935
0.629132
0.599289
0.577262
0.561005
0.548415
0.538412
0.530436
0.523688
0.518009
0.512725
0.50832
0.503979
0.500041
0.495679
0.49148
0.486774
0.48212
0.476715
0.471277
0.465899
0.459966
0.45454
0.448748
0.44428
0.438943
0.434943
0.430048
0.426152
0.421678
0.418095
0.413479
0.410339
0.405643
0.401547
0.395778
0.390832
0.386175
0.380308
0.376133
0.370862
0.366588
0.362444
0.359134
0.356317
0.354026
0.351883
0.349848
0.347241
0.344686
0.342689
0.34057
0.33855
0.336589
0.334144
0.332282
0.330016
0.327818
0.325638
0.32256
0.319966
0.314544
0.312886
0.308825
0.310919
1.0028
1.00194
1.00212
1.00215
1.00223
1.00232
1.00242
1.00255
1.00269
1.00283
1.00301
1.00317
1.00335
1.00358
1.00379
1.00399
1.00424
1.00453
1.00477
1.00504
1.00538
1.00573
1.00604
1.00633
1.00671
1.00716
1.00762
1.00803
1.00837
1.0087
1.0091
1.0096
1.01014
1.01052
1.01087
1.01116
1.0115
1.01197
1.01289
1.01472
1.01912
1.02933
1.03978
1.03522
1.03475
1.03241
1.02809
1.01424
1.00099
0.951311
0.895485
0.802773
0.726874
0.671993
0.632968
0.605145
0.584713
0.569457
0.557843
0.548666
0.541349
0.53546
0.53083
0.527376
0.524161
0.521359
0.518497
0.515812
0.512838
0.509722
0.506171
0.502277
0.49775
0.492683
0.487401
0.481142
0.475669
0.469059
0.463992
0.458191
0.45357
0.448137
0.44355
0.438539
0.434467
0.429575
0.425703
0.421389
0.417072
0.411644
0.405916
0.401768
0.396024
0.39179
0.386555
0.381814
0.37732
0.373426
0.370117
0.367512
0.364992
0.363026
0.360442
0.357468
0.355017
0.352813
0.35063
0.348196
0.346231
0.343516
0.341196
0.338945
0.336707
0.333914
0.331777
0.326896
0.326037
0.322326
0.325141
1.00276
1.00191
1.00208
1.00211
1.00218
1.00227
1.00237
1.00249
1.00261
1.00276
1.00293
1.00307
1.00327
1.00349
1.00365
1.00387
1.00415
1.00442
1.00461
1.00491
1.0053
1.00567
1.0059
1.00619
1.0066
1.00712
1.0076
1.008
1.00837
1.00877
1.00927
1.00982
1.01037
1.01087
1.01134
1.0118
1.01235
1.01265
1.01378
1.01305
1.02651
1.03936
1.04191
1.03871
1.03982
1.03163
1.02353
0.989385
0.958079
0.876971
0.791328
0.722041
0.674094
0.640014
0.615252
0.597057
0.583299
0.572863
0.564666
0.558311
0.553039
0.548816
0.544998
0.541953
0.539362
0.537076
0.534866
0.532683
0.530288
0.527573
0.524585
0.521156
0.517248
0.512671
0.507959
0.501593
0.496184
0.489027
0.482956
0.476677
0.471229
0.465533
0.460294
0.454851
0.450308
0.445519
0.440853
0.436998
0.432821
0.428385
0.422054
0.417751
0.412211
0.407667
0.402307
0.397162
0.39239
0.388108
0.384201
0.381279
0.378249
0.37589
0.373213
0.369802
0.366618
0.364339
0.361994
0.359498
0.357629
0.35498
0.352857
0.350683
0.348883
0.346554
0.344874
0.340156
0.339496
0.335966
0.339192
1.00271
1.00187
1.00204
1.00206
1.00213
1.00221
1.00231
1.00243
1.00254
1.00269
1.00283
1.00298
1.00319
1.00337
1.00352
1.00378
1.00406
1.00425
1.00447
1.00481
1.00517
1.00547
1.00574
1.00611
1.00656
1.00702
1.00746
1.00788
1.00834
1.00886
1.00945
1.01003
1.0106
1.01118
1.01173
1.01218
1.0125
1.01235
1.01191
1.00885
1.01797
1.03918
1.03086
1.02944
1.02166
1.00837
0.990769
0.931487
0.861828
0.777547
0.716362
0.674281
0.644868
0.623676
0.608267
0.596359
0.587178
0.579857
0.574029
0.569354
0.565535
0.562347
0.559538
0.556955
0.554689
0.552522
0.550659
0.548621
0.546729
0.544345
0.541864
0.538774
0.535531
0.531618
0.527621
0.521841
0.516644
0.50991
0.503264
0.496534
0.490342
0.484278
0.478348
0.47233
0.466851
0.462078
0.456619
0.452497
0.448012
0.444225
0.437811
0.4326
0.427055