/*--------------------------------*- C++ -*----------------------------------*\
| =========                 |                                                 |
| \\      /  F ield         | OpenFOAM: The Open Source CFD Toolbox           |
|  \\    /   O peration     | Version:  2.2.x                                 |
|   \\  /    A nd           | Web:      www.OpenFOAM.org                      |
|    \\/     M anipulation  |                                                 |
\*---------------------------------------------------------------------------*/
FoamFile
{
    version     2.0;
    format      ascii;
    class       volScalarField;
    location    "2.6";
    object      p;
}
// * * * * * * * * * * * * * * * * * * * * * * * * * * * * * * * * * * * * * //

dimensions      [1 -1 -2 0 0 0 0];

internalField   nonuniform List<scalar> 
14161
(
0.197452
0.197749
0.197652
0.197594
0.197501
0.19739
0.19725
0.197105
0.196933
0.196756
0.196569
0.196328
0.196142
0.195938
0.195613
0.195404
0.195234
0.194942
0.194542
0.194324
0.194212
0.19407
0.193575
0.193271
0.193066
0.192906
0.192917
0.19289
0.192688
0.192382
0.192313
0.192345
0.192451
0.192694
0.193254
0.193827
0.194523
0.195372
0.196351
0.197664
0.199579
0.201435
0.203616
0.204002
0.24538
1.17592
1.60662
1.65609
1.64416
1.6171
1.58768
1.55055
1.50971
1.47286
1.43763
1.40234
1.37022
1.339
1.3087
1.28034
1.25344
1.22892
1.20678
1.18752
1.1713
1.15832
1.14812
1.13996
1.13319
1.12718
1.12214
1.11749
1.11333
1.10962
1.10296
1.09991
1.09844
1.0886
1.08601
1.08591
1.07724
1.07428
1.06964
1.06627
1.06407
1.05555
1.05149
1.04936
1.05077
1.03596
1.03238
1.02988
1.03267
1.02024
1.01671
1.0158
1.00437
0.999454
0.990071
0.983202
0.969283
0.961061
0.952524
0.938706
0.930237
0.923587
0.927742
0.916757
0.976273
1.06612
1.2784
1.48879
1.6642
1.79213
1.88365
1.93699
1.98077
1.99823
2.02345
0.197449
0.197748
0.197652
0.197595
0.197501
0.197389
0.19725
0.197102
0.196934
0.196757
0.196564
0.196332
0.196146
0.195928
0.195614
0.195411
0.195226
0.194931
0.19454
0.194344
0.194223
0.194059
0.193562
0.193263
0.193056
0.192912
0.192924
0.192876
0.192675
0.192393
0.192321
0.192334
0.192435
0.192648
0.193137
0.193628
0.194306
0.195198
0.19647
0.197932
0.199803
0.201499
0.20405
0.205426
0.252453
1.1803
1.61213
1.65628
1.64262
1.61418
1.57993
1.54586
1.50609
1.47019
1.4357
1.40119
1.36881
1.33781
1.30735
1.27886
1.25172
1.22698
1.20486
1.18612
1.16984
1.15685
1.14643
1.13776
1.13025
1.12358
1.11779
1.11297
1.1088
1.10505
1.09865
1.09571
1.09462
1.08465
1.08206
1.08225
1.07352
1.07014
1.0659
1.06312
1.06068
1.05214
1.04825
1.04674
1.04781
1.0329
1.02954
1.02755
1.02998
1.01749
1.01425
1.01322
1.00176
0.99691
0.987054
0.980008
0.966376
0.958149
0.950005
0.938409
0.933565
0.928518
0.946715
0.957659
1.0638
1.22186
1.43667
1.62858
1.76763
1.8504
1.91368
1.94844
1.98103
1.99062
2.01965
0.197452
0.197748
0.197653
0.197596
0.1975
0.197389
0.197251
0.197101
0.196937
0.196755
0.19656
0.196341
0.196141
0.195918
0.195625
0.19542
0.195213
0.194917
0.194568
0.194372
0.194218
0.194027
0.193549
0.193257
0.193058
0.19293
0.192909
0.192835
0.192653
0.192385
0.192291
0.192271
0.192349
0.192553
0.193001
0.193466
0.194104
0.194936
0.195941
0.197224
0.198855
0.200457
0.20315
0.203896
0.244791
1.16082
1.61602
1.65631
1.63825
1.6092
1.56797
1.53105
1.49163
1.45513
1.42163
1.38718
1.35499
1.32405
1.29327
1.26568
1.2397
1.21658
1.19573
1.17742
1.16175
1.14902
1.13873
1.13027
1.12333
1.11718
1.11171
1.10686
1.10278
1.09918
1.0929
1.09004
1.0892
1.07944
1.07687
1.07725
1.06869
1.06514
1.06181
1.05899
1.05577
1.04845
1.04461
1.04306
1.04356
1.02972
1.02652
1.02466
1.02628
1.01469
1.0113
1.00946
0.998838
0.994003
0.983338
0.976482
0.963738
0.957076
0.949937
0.941013
0.945595
0.945564
0.987969
1.03984
1.19669
1.38192
1.5655
1.70301
1.80021
1.86016
1.91052
1.93799
1.96676
1.9721
2.00502
0.197453
0.197748
0.197652
0.197597
0.197502
0.197389
0.197252
0.197101
0.19694
0.196754
0.196556
0.196353
0.196136
0.195906
0.195642
0.195424
0.195194
0.194905
0.194604
0.194397
0.194188
0.193976
0.193557
0.193273
0.193068
0.192934
0.192874
0.192772
0.192605
0.192372
0.192267
0.192217
0.192277
0.192453
0.192792
0.193174
0.193693
0.194373
0.19515
0.196362
0.197998
0.199755
0.202884
0.205114
0.230461
1.12505
1.62179
1.65173
1.62542
1.59615
1.54682
1.50695
1.46771
1.42862
1.39405
1.3584
1.32487
1.29481
1.26477
1.23946
1.21526
1.19432
1.17525
1.15861
1.14386
1.13197
1.12318
1.11558
1.10927
1.10325
1.098
1.09354
1.08994
1.08687
1.08074
1.07806
1.07742
1.06842
1.06607
1.06676
1.05876
1.05551
1.05362
1.0507
1.04664
1.04124
1.03746
1.03572
1.03593
1.0235
1.0204
1.01892
1.01967
1.0089
1.00508
1.00252
0.992782
0.988087
0.97712
0.972198
0.961906
0.959027
0.954077
0.948718
0.975266
0.996968
1.08843
1.23258
1.4201
1.5867
1.68968
1.75399
1.81804
1.86439
1.90476
1.92598
1.94989
1.95195
1.98649
0.197457
0.197749
0.197655
0.197599
0.197504
0.197388
0.197254
0.197102
0.196942
0.196755
0.196558
0.196362
0.196132
0.195899
0.19566
0.195433
0.195173
0.194905
0.194653
0.194421
0.194133
0.193905
0.193577
0.193328
0.193115
0.192939
0.192815
0.19268
0.192503
0.192353
0.192244
0.192148
0.19215
0.192238
0.192432
0.192667
0.192996
0.193465
0.193994
0.19483
0.196064
0.197629
0.200218
0.202674
0.211903
1.06126
1.6241
1.64815
1.59967
1.56684
1.51124
1.46706
1.42841
1.38843
1.3539
1.31912
1.28616
1.25853
1.22931
1.20675
1.18366
1.16519
1.14653
1.13171
1.11832
1.10695
1.09898
1.09243
1.08683
1.08219
1.07811
1.07469
1.07211
1.06997
1.06435
1.06204
1.06163
1.05378
1.05178
1.05251
1.0457
1.04294
1.04132
1.0393
1.03494
1.03135
1.02765
1.02586
1.02588
1.01523
1.01211
1.01083
1.01077
1.00083
0.996759
0.994151
0.986512
0.982272
0.973196
0.970602
0.962852
0.965413
0.971724
0.973947
1.03684
1.11496
1.26917
1.45028
1.60716
1.69353
1.73384
1.7728
1.82232
1.8584
1.89396
1.91119
1.93
1.93092
1.96661
0.197461
0.197752
0.197658
0.197602
0.197505
0.197389
0.197257
0.197105
0.196946
0.196756
0.19656
0.196369
0.196129
0.195895
0.195683
0.195444
0.195146
0.194903
0.194693
0.194437
0.194079
0.193836
0.193588
0.193402
0.193213
0.192918
0.19272
0.192533
0.192383
0.192295
0.192223
0.192124
0.191983
0.191896
0.191941
0.192028
0.19219
0.192462
0.192813
0.193298
0.194089
0.195658
0.197983
0.200839
0.210353
0.961607
1.61304
1.64176
1.55157
1.51725
1.45226
1.40659
1.3683
1.32979
1.2973
1.2667
1.23661
1.21352
1.18576
1.16693
1.14456
1.13171
1.10978
1.10014
1.08751
1.07725
1.07038
1.06445
1.05981
1.05587
1.05262
1.05006
1.04819
1.04646
1.0422
1.04014
1.03985
1.03374
1.03201
1.0323
1.02696
1.02513
1.02332
1.02238
1.01874
1.01647
1.01317
1.01136
1.01147
1.00311
1
0.99896
0.998916
0.991449
0.988415
0.986355
0.982676
0.980612
0.971044
0.975774
0.972659
0.986549
1.01382
1.04529
1.16832
1.32224
1.48761
1.63714
1.70516
1.73024
1.74731
1.77824
1.81491
1.84841
1.88108
1.8949
1.91096
1.91251
1.94615
0.197467
0.197756
0.197661
0.197604
0.197507
0.197392
0.197261
0.197108
0.19695
0.19676
0.196563
0.196375
0.196131
0.195894
0.195704
0.19546
0.195129
0.194908
0.194724
0.194461
0.194033
0.193775
0.193586
0.193468
0.193304
0.192892
0.192608
0.192414
0.192281
0.192194
0.192158
0.192073
0.191852
0.191474
0.191328
0.19125
0.191183
0.191126
0.191063
0.19091
0.190776
0.190915
0.191481
0.191813
0.201982
0.785631
1.5855
1.63496
1.47841
1.43339
1.37852
1.34059
1.30808
1.2763
1.24465
1.22005
1.19106
1.17331
1.1443
1.13208
1.10604
1.10091
1.07508
1.07024
1.05808
1.04947
1.04352
1.03785
1.03412
1.03099
1.02832
1.0264
1.02499
1.02383
1.02101
1.01907
1.01891
1.01441
1.01296
1.01244
1.00863
1.00754
1.00528
1.0053
1.00309
1.00164
0.998502
0.997343
0.997876
0.992013
0.989572
0.988944
0.990725
0.986729
0.986608
0.982349
0.984323
0.985453
0.972752
0.995441
1.00501
1.03422
1.10547
1.19993
1.37061
1.5308
1.65894
1.71066
1.72822
1.73833
1.7503
1.77661
1.80796
1.83848
1.86667
1.87752
1.89293
1.89515
1.92581
0.197474
0.19776
0.197665
0.197607
0.197511
0.197396
0.197266
0.197112
0.196952
0.196764
0.196568
0.196382
0.196135
0.195891
0.195717
0.195472
0.195122
0.194912
0.194747
0.194481
0.194023
0.193737
0.193571
0.193482
0.19335
0.192906
0.192544
0.192342
0.192187
0.192076
0.192052
0.191957
0.191719
0.191125
0.190777
0.190509
0.190234
0.189847
0.18931
0.188495
0.18739
0.18594
0.184734
0.181675
0.190639
0.465433
1.47485
1.64459
1.40612
1.35316
1.30547
1.27666
1.24372
1.23092
1.19168
1.18216
1.14727
1.14116
1.10779
1.10447
1.07321
1.07077
1.05017
1.04322
1.03577
1.02622
1.02106
1.01677
1.01407
1.01173
1.00958
1.00768
1.00654
1.00609
1.00432
1.00255
1.00242
0.99912
0.997741
0.996899
0.994375
0.993639
0.991339
0.991893
0.991174
0.99046
0.987086
0.987736
0.98871
0.985211
0.984131
0.986319
0.987391
0.98724
0.989668
0.982321
0.994867
1.00319
0.992682
1.03741
1.07309
1.14537
1.28037
1.42337
1.57398
1.6796
1.71507
1.72429
1.72554
1.73041
1.74743
1.77001
1.79948
1.82767
1.85267
1.86185
1.87679
1.88022
1.9062
0.197481
0.197764
0.19767
0.197612
0.197516
0.197402
0.19727
0.197116
0.196956
0.19677
0.196573
0.196387
0.196139
0.195898
0.195724
0.195474
0.195121
0.194911
0.194752
0.194492
0.194031
0.193728
0.193551
0.193477
0.193348
0.192914
0.192508
0.192283
0.192096
0.191977
0.191949
0.191806
0.191545
0.190838
0.190311
0.189838
0.189286
0.188573
0.187542
0.186028
0.183677
0.180814
0.175245
0.169117
0.161442
0.185507
1.16925
1.62671
1.38541
1.30825
1.25845
1.22029
1.19304
1.18571
1.14776
1.15586
1.1105
1.11548
1.08011
1.07653
1.05188
1.04309
1.03287
1.02075
1.01609
1.00644
1.00262
0.99948
0.997558
0.996175
0.995168
0.993287
0.992793
0.992945
0.991858
0.990548
0.990189
0.987792
0.986665
0.985995
0.984442
0.984257
0.981872
0.983165
0.983738
0.984117
0.980362
0.982882
0.985446
0.982777
0.98449
0.988761
0.987776
0.99493
1.00213
0.996341
1.01982
1.04042
1.04514
1.13412
1.22333
1.33982
1.49068
1.62164
1.69592
1.71845
1.72044
1.71391
1.71493
1.72516
1.7429
1.76361
1.79201
1.81689
1.83846
1.84683
1.86131
1.86561
1.88764
0.19749
0.197771
0.197676
0.197618
0.197522
0.197408
0.197276
0.197121
0.196962
0.196777
0.196582
0.196391
0.196145
0.195912
0.195727
0.195474
0.195134
0.194914
0.194748
0.194493
0.194035
0.193724
0.19355
0.193461
0.193317
0.192896
0.192493
0.192227
0.192028
0.19189
0.191817
0.191611
0.191296
0.190603
0.190033
0.189423
0.188742
0.187958
0.187025
0.185884
0.184361
0.183088
0.1815
0.180867
0.186221
0.226791
0.832438
1.48628
1.37482
1.29883
1.24495
1.19255
1.162
1.1443
1.11589
1.13567
1.08752
1.09429
1.06397
1.05337
1.04138
1.02403
1.02058
1.0035
1.00135
0.995403
0.990143
0.987472
0.985941
0.98517
0.98497
0.983351
0.983245
0.98369
0.983313
0.982615
0.982321
0.980559
0.980161
0.980002
0.979107
0.980005
0.977095
0.980006
0.98186
0.9829
0.978311
0.983072
0.98841
0.985444
0.992087
0.99968
0.998769
1.01162
1.02858
1.03116
1.08022
1.12814
1.17729
1.30654
1.43673
1.55505
1.66632
1.71249
1.72094
1.71171
1.70554
1.70498
1.70812
1.71937
1.73376
1.75458
1.7823
1.80575
1.82492
1.8335
1.84756
1.85253
1.8709
0.197499
0.197778
0.197684
0.197626
0.197529
0.197414
0.197284
0.197129
0.196968
0.196786
0.196593
0.196396
0.196158
0.19593
0.195725
0.19548
0.195159
0.19493
0.194737
0.194478
0.194031
0.19375
0.193571
0.193446
0.193259
0.192839
0.192485
0.192223
0.191985
0.19179
0.191645
0.191355
0.190991
0.190393
0.1898
0.1891
0.188297
0.187435
0.186399
0.185261
0.18391
0.182306
0.180292
0.178808
0.183774
0.245493
0.604417
1.1964
1.30827
1.26764
1.25534
1.18823
1.15855
1.13927
1.10347
1.12399
1.08262
1.0784
1.05971
1.04032
1.03602
1.0071
1.01112
0.995343
0.989773
0.987272
0.981265
0.979453
0.978278
0.978125
0.97839
0.977233
0.977629
0.978411
0.978107
0.978118
0.97869
0.97651
0.977535
0.977922
0.97736
0.979158
0.97582
0.9801
0.98376
0.986002
0.981676
0.991147
0.998266
0.99654
1.00966
1.02462
1.03162
1.0575
1.09602
1.12748
1.20651
1.29291
1.39696
1.5196
1.63586
1.70321
1.72425
1.72451
1.7063
1.69886
1.6954
1.69569
1.70178
1.71298
1.72788
1.7487
1.77346
1.79529
1.81236
1.82118
1.83458
1.83999
1.85525
0.197509
0.197786
0.197692
0.197633
0.197537
0.197422
0.197293
0.197141
0.196974
0.196796
0.196607
0.196402
0.196175
0.195946
0.195719
0.195484
0.195187
0.194956
0.194717
0.194447
0.194062
0.19382
0.193588
0.193374
0.193145
0.192788
0.192531
0.192296
0.192013
0.191698
0.191412
0.191076
0.190692
0.190241
0.189841
0.189338
0.188502
0.187659
0.186834
0.186022
0.185262
0.184724
0.184325
0.184459
0.205618
0.367962
0.779014
0.931004
1.14428
1.246
1.25771
1.20967
1.17191
1.15718
1.11153
1.12045
1.0917
1.07507
1.06776
1.03477
1.04007
1.0027
1.00617
0.995889
0.987786
0.98549
0.980216
0.978479
0.976903
0.977131
0.977799
0.976591
0.977267
0.978339
0.977233
0.978448
0.979661
0.976902
0.979605
0.980702
0.980295
0.984198
0.981417
0.989207
0.995272
0.99927
0.998303
1.0137
1.02786
1.03367
1.05787
1.08908
1.11642
1.15906
1.23482
1.30727
1.40749
1.51117
1.61229
1.692
1.72848
1.73398
1.71763
1.70381
1.6948
1.68824
1.68621
1.68845
1.69649
1.70673
1.7221
1.7418
1.76429
1.78483
1.80051
1.80995
1.82274
1.82836
1.84121
0.19752
0.197795
0.197701
0.197641
0.197547
0.197431
0.197304
0.197154
0.196982
0.196811
0.196625
0.196407
0.196193
0.195971
0.195717
0.195485
0.195231
0.194991
0.194692
0.194419
0.194135
0.19391
0.193596
0.193277
0.193006
0.192761
0.19261
0.192396
0.192084
0.191575
0.191214
0.190858
0.190498
0.190113
0.189864
0.189442
0.188876
0.187904
0.187209
0.186466
0.185735
0.184625
0.183618
0.185987
0.197902
0.6323
0.814324
0.841631
0.933254
1.10604
1.22269
1.22632
1.18121
1.19119
1.13368
1.12941
1.10858
1.0859
1.08413
1.03685
1.04759
1.01198
1.00981
1.00295
0.992431
0.989451
0.985657
0.983297
0.980736
0.980819
0.981846
0.980658
0.981565
0.983497
0.981954
0.985065
0.987174
0.983914
0.989876
0.991981
0.990587
1.00024
1.00049
1.01268
1.02528
1.03465
1.04226
1.06982
1.09654
1.12213
1.15922
1.22157
1.28225
1.34736
1.44506
1.53522
1.61721
1.69417
1.73247
1.74225
1.73582
1.71432
1.7015
1.69141
1.68381
1.67959
1.67907
1.68355
1.69058
1.70134
1.71667
1.73498
1.75539
1.77452
1.78937
1.79908
1.81119
1.81714
1.82839
0.197532
0.197804
0.19771
0.197651
0.197558
0.197444
0.197315
0.197167
0.196992
0.196829
0.196643
0.196416
0.196216
0.195997
0.195721
0.195488
0.195285
0.195034
0.194668
0.194399
0.194209
0.193992
0.193622
0.193228
0.192938
0.192727
0.192613
0.192462
0.192145
0.191505
0.191095
0.190747
0.190433
0.190103
0.1899
0.189627
0.189244
0.18857
0.18788
0.187454
0.187453
0.187916
0.188899
0.205152
0.287987
0.752599
0.834489
0.830872
0.87101
0.954448
1.12096
1.22005
1.23508
1.23425
1.17957
1.15419
1.13849
1.10847
1.10856
1.05211
1.05848
1.03022
1.02271
1.0171
1.00258
1.00012
0.997798
0.994415
0.992793
0.993027
0.994222
0.992811
0.993848
0.997315
0.996093
1.00272
1.0065
1.00246
1.01685
1.02228
1.0201
1.04263
1.05261
1.06808
1.09606
1.11937
1.14246
1.19116
1.23945
1.2932
1.3482
1.43064
1.50698
1.57454
1.65198
1.71674
1.74242
1.75202
1.74773
1.72536
1.71211
1.70066
1.68905
1.68077
1.67557
1.67289
1.67457
1.67943
1.68637
1.69691
1.71107
1.72781
1.74643
1.76432
1.77868
1.78889
1.80069
1.80694
1.8169
0.197545
0.197814
0.197722
0.197664
0.197571
0.197456
0.197326
0.197183
0.197007
0.196847
0.196659
0.196427
0.196238
0.196028
0.195727
0.195494
0.195328
0.195079
0.194664
0.194389
0.194232
0.194034
0.193646
0.193214
0.192927
0.192709
0.192603
0.192463
0.192154
0.191456
0.19105
0.190725
0.190431
0.190154
0.189957
0.189776
0.189498
0.189126
0.188388
0.18795
0.1877
0.187885
0.188882
0.212139
0.452739
0.871147
0.862734
0.846664
0.860472
0.899043
0.992028
1.15421
1.25297
1.25116
1.24201
1.17796
1.1638
1.13575
1.13373
1.07724
1.07317
1.05159
1.03867
1.03376
1.01965
1.01796
1.01664
1.01071
1.01367
1.01491
1.01848
1.01864
1.01803
1.02792
1.02856
1.0414
1.0503
1.04784
1.07545
1.0906
1.09249
1.13368
1.16226
1.18345
1.23719
1.28186
1.32258
1.39351
1.45517
1.51946
1.57521
1.64203
1.70349
1.74339
1.75737
1.76541
1.75786
1.73897
1.72449
1.71162
1.69869
1.68776
1.67904
1.67304
1.66995
1.6688
1.67148
1.67572
1.68267
1.69276
1.70553
1.7208
1.73766
1.75427
1.76844
1.77896
1.79048
1.79684
1.80597
0.197559
0.197826
0.197734
0.197677
0.197585
0.197468
0.197339
0.197201
0.197026
0.196863
0.196678
0.196439
0.196259
0.196058
0.195736
0.19551
0.195359
0.195107
0.194669
0.194396
0.194252
0.194056
0.193636
0.193201
0.192916
0.192709
0.192612
0.19244
0.192119
0.191463
0.191068
0.190744
0.190472
0.190243
0.190065
0.189914
0.189617
0.189319
0.188659
0.188271
0.187695
0.187165
0.188422
0.202753
0.67197
0.894702
0.892747
0.875506
0.873381
0.872271
0.913171
1.01575
1.17165
1.25911
1.28311
1.22076
1.19791
1.16526
1.1472
1.10859
1.09033
1.07822
1.05387
1.05492
1.04197
1.04415
1.0454
1.03641
1.04727
1.05003
1.05892
1.06414
1.06305
1.08644
1.09598
1.11165
1.1342
1.14663
1.18638
1.21986
1.24352
1.29757
1.34834
1.38823
1.4514
1.50683
1.55375
1.61266
1.66194
1.71292
1.74689
1.764
1.77119
1.77503
1.76624
1.74949
1.73673
1.7247
1.71014
1.6977
1.68678
1.67815
1.67193
1.66798
1.66618
1.66643
1.66891
1.67288
1.67945
1.68853
1.69998
1.71382
1.72906
1.74463
1.75837
1.76915
1.78082
1.78736
1.79577
0.197574
0.197839
0.197748
0.19769
0.197599
0.197484
0.197356
0.197217
0.19705
0.19688
0.196696
0.196462
0.196284
0.196082
0.195752
0.195544
0.195374
0.19512
0.19469
0.194438
0.194266
0.194047
0.193622
0.193223
0.192957
0.192735
0.19258
0.192363
0.192045
0.191551
0.19119
0.19085
0.19057
0.190346
0.19015
0.189955
0.189704
0.189498
0.189345
0.18945
0.189845
0.190019
0.20145
0.268991
0.785258
0.90993
0.911803
0.904496
0.902895
0.884912
0.915218
0.947164
1.06821
1.20049
1.29842
1.25292
1.22253
1.19549
1.15871
1.1404
1.11013
1.10531
1.07098
1.08066
1.07396
1.08003
1.08611
1.08066
1.10195
1.11102
1.12525
1.14293
1.14943
1.19062
1.2192
1.24013
1.28553
1.32155
1.36781
1.42089
1.46752
1.51347
1.56561
1.60808
1.6556
1.702
1.73565
1.75695
1.76693
1.77403
1.77951
1.77946
1.7682
1.75751
1.74651
1.73662
1.72209
1.70966
1.69752
1.68696
1.67827
1.67169
1.66717
1.66462
1.66385
1.66468
1.66665
1.67021
1.67618
1.68412
1.69457
1.70708
1.72079
1.73529
1.7485
1.75954
1.77138
1.77794
1.7858
0.197591
0.197853
0.197762
0.197704
0.197614
0.197504
0.197374
0.197233
0.197076
0.196899
0.196711
0.196497
0.196304
0.196093
0.195794
0.195585
0.195374
0.195109
0.194759
0.194509
0.194248
0.193989
0.193644
0.193348
0.193057
0.19275
0.192478
0.19223
0.191962
0.191676
0.191405
0.191112
0.190696
0.190409
0.190167
0.189956
0.18982
0.189798
0.189867
0.190156
0.190791
0.191919
0.210659
0.403075
0.891111
0.93317
0.931079
0.929527
0.930034
0.917532
0.923361
0.930483
0.987014
1.08575
1.2354
1.2574
1.27596
1.20681
1.17811
1.16522
1.13515
1.13694
1.10404
1.11894
1.1268
1.13339
1.15097
1.16088
1.19141
1.21644
1.23701
1.27684
1.3045
1.35328
1.40183
1.43955
1.49026
1.53526
1.57738
1.62456
1.66821
1.70223
1.73365
1.74941
1.76103
1.76973
1.77658
1.78025
1.77953
1.77171
1.76544
1.7608
1.75256
1.745
1.73259
1.72166
1.70941
1.69822
1.68805
1.67941
1.67248
1.66746
1.66422
1.66255
1.66231
1.66317
1.6645
1.66766
1.67271
1.67997
1.68945
1.70064
1.71292
1.7261
1.73872
1.74996
1.76213
1.76891
1.77626
0.197608
0.197868
0.197778
0.197721
0.197633
0.197525
0.197393
0.197254
0.197104
0.196923
0.19673
0.196541
0.196328
0.196103
0.19586
0.19564
0.195379
0.195122
0.194856
0.194595
0.19423
0.193939
0.193689
0.193481
0.19321
0.192734
0.192401
0.192107
0.191874
0.19175
0.191589
0.191335
0.190819
0.190444
0.19022
0.190073
0.189969
0.189888
0.189808
0.189785
0.190173
0.19047
0.213895
0.54038
0.972951
0.964826
0.951565
0.944789
0.935473
0.93099
0.923932
0.921083
0.940182
0.994121
1.12397
1.2209
1.29307
1.21072
1.22773
1.18785
1.17781
1.1749
1.1755
1.19065
1.21287
1.22393
1.26479
1.29667
1.33067
1.37551
1.41257
1.46293
1.50802
1.54799
1.59822
1.63702
1.67761
1.71153
1.73365
1.75006
1.75941
1.7654
1.77342
1.77561
1.77584
1.77502
1.77021
1.76592
1.76311
1.75739
1.75294
1.74897
1.73968
1.7318
1.7201
1.71009
1.69937
1.6898
1.68136
1.6743
1.66869
1.6646
1.66204
1.66079
1.66077
1.66167
1.6629
1.66565
1.66995
1.67629
1.68454
1.69428
1.70513
1.71705
1.72907
1.74061
1.75305
1.7599
1.76643
0.197626
0.197884
0.197796
0.19774
0.197653
0.197546
0.197416
0.19728
0.197133
0.196946
0.196763
0.196584
0.196355
0.196124
0.195936
0.1957
0.195383
0.195152
0.194951
0.194675
0.194224
0.193901
0.193707
0.19355
0.193306
0.192742
0.19237
0.192078
0.191871
0.191796
0.19166
0.191411
0.190905
0.190484
0.190261
0.190108
0.189966
0.189779
0.18949
0.189034
0.188668
0.190566
0.209583
0.726952
0.988358
0.992899
0.985058
0.97724
0.959554
0.952967
0.940397
0.935453
0.937707
0.982039
1.0444
1.17989
1.26848
1.23909
1.29702
1.23061
1.25657
1.2536
1.28681
1.30855
1.34701
1.37734
1.43033
1.47659
1.51488
1.55979
1.60243
1.64606
1.68486
1.71201
1.73574
1.74963
1.759
1.76679
1.77115
1.77407
1.77446
1.77014
1.76941
1.76585
1.76282
1.76057
1.75802
1.75385
1.75148
1.74478
1.73943
1.73488
1.72717
1.72
1.70972
1.70085
1.69187
1.68361
1.67635
1.67029
1.66559
1.6623
1.66034
1.65955
1.65976
1.66061
1.66176
1.66389
1.66722
1.67244
1.67938
1.68785
1.6975
1.70831
1.71969
1.73152
1.7439
1.75081
1.75697
0.197646
0.197902
0.197815
0.197761
0.197673
0.19757
0.197443
0.197308
0.19716
0.196974
0.196802
0.196628
0.196377
0.196158
0.195997
0.195749
0.195387
0.195188
0.195012
0.194726
0.194233
0.193911
0.193741
0.193586
0.193338
0.192763
0.192388
0.19212
0.191925
0.191807
0.191639
0.191363
0.190993
0.190603
0.190387
0.190259
0.190157
0.190072
0.189927
0.189838
0.189342
0.199529
0.261294
0.829669
0.992115
0.997
0.997708
0.991584
0.980089
0.971311
0.960981
0.952877
0.949455
0.979664
1.00962
1.16017
1.25175
1.32352
1.37244
1.33013
1.38443
1.39317
1.44348
1.4791
1.52151
1.56094
1.60579
1.64733
1.6818
1.7093
1.73011
1.74491
1.75561
1.76317
1.76946
1.77256
1.77414
1.77204
1.77054
1.76531
1.76297
1.75843
1.75674
1.75611
1.7525
1.74893
1.74472
1.73945
1.73567
1.73233
1.72691
1.72308
1.71634
1.71016
1.70107
1.6932
1.68531
1.67822
1.67218
1.66731
1.66357
1.66088
1.65911
1.65819
1.65822
1.65898
1.66002
1.6618
1.66456
1.66881
1.67449
1.68158
1.69004
1.69975
1.71027
1.72215
1.73457
1.74149
1.74718
0.197667
0.197921
0.197836
0.197782
0.197696
0.197597
0.197473
0.197336
0.197191
0.197009
0.196842
0.196671
0.1964
0.196208
0.196041
0.195781
0.195438
0.195234
0.195044
0.194743
0.194284
0.194
0.193773
0.193574
0.193276
0.192833
0.192525
0.192232
0.191962
0.19173
0.191545
0.191309
0.191059
0.190824
0.190624
0.190453
0.190355
0.190337
0.190436
0.190839
0.190942
0.207931
0.370198
0.935351
1.0005
1.00199
1.00251
1.00232
0.99872
0.995408
0.990774
0.986839
0.98329
1.0168
1.04293
1.2158
1.32154
1.45055
1.49462
1.49827
1.54962
1.56557
1.61175
1.64062
1.67689
1.70143
1.72196
1.73711
1.74863
1.75746
1.76309
1.76691
1.76957
1.76936
1.76969
1.76572
1.76473
1.76108
1.75979
1.75662
1.75262
1.74879
1.74483
1.74225
1.73819
1.73478
1.7316
1.72699
1.72323
1.72028
1.71545
1.71187
1.70598
1.70075
1.69316
1.68672
1.68029
1.67447
1.66931
1.66485
1.66122
1.65862
1.65712
1.65654
1.65683
1.65746
1.65839
1.65981
1.66156
1.66451
1.66893
1.67491
1.68239
1.69125
1.70117
1.71319
1.72541
1.73232
1.73768
0.197689
0.197942
0.197858
0.197806
0.197722
0.197625
0.197505
0.197367
0.197226
0.197051
0.196881
0.196705
0.19645
0.196269
0.196077
0.195807
0.195534
0.195303
0.195062
0.194762
0.194422
0.194145
0.193809
0.193527
0.193217
0.19298
0.192726
0.192398
0.191926
0.191613
0.191374
0.19121
0.191123
0.191009
0.190864
0.190719
0.190537
0.190541
0.190716
0.191231
0.192124
0.214318
0.506485
1.00693
1.01042
1.00422
1.00267
1.00245
1.00461
1.00554
1.00622
1.01734
1.02369
1.08646
1.13053
1.34522
1.47296
1.59872
1.64357
1.66233
1.6882
1.70207
1.71689
1.72835
1.73876
1.74734
1.75291
1.75785
1.76152
1.76309
1.76404
1.76081
1.76083
1.75861
1.75959
1.75692
1.75512
1.75104
1.74861
1.74384
1.74101
1.73679
1.7334
1.7305
1.72608
1.72224
1.71883
1.71471
1.71107
1.70902
1.70497
1.70216
1.69741
1.69343
1.68694
1.68138
1.67508
1.66937
1.66452
1.66071
1.658
1.65617
1.65487
1.654
1.65361
1.65393
1.65463
1.65595
1.65731
1.66008
1.66384
1.66884
1.67517
1.68299
1.69218
1.70365
1.71559
1.72258
1.72812
0.197713
0.197964
0.197882
0.197833
0.19775
0.197655
0.197539
0.197401
0.197262
0.197099
0.196925
0.196738
0.196525
0.196331
0.196111
0.195868
0.195657
0.195391
0.195064
0.194807
0.194582
0.194301
0.193831
0.19347
0.193193
0.193051
0.19287
0.192508
0.191912
0.191546
0.191297
0.191123
0.191035
0.190967
0.190827
0.190649
0.190334
0.190008
0.189671
0.189511
0.190345
0.209621
0.692915
1.02388
1.02457
1.01763
1.01485
1.01307
1.01442
1.02225
1.02819
1.06373
1.08835
1.21685
1.30765
1.53629
1.66665
1.73644
1.75049
1.75229
1.75118
1.75105
1.75124
1.75244
1.75329
1.75395
1.75452
1.75183
1.75242
1.75094
1.75261
1.75114
1.75031
1.74782
1.74778
1.74465
1.74337
1.73957
1.73718
1.73319
1.72978
1.72554
1.7217
1.71857
1.71409
1.71044
1.70732
1.70434
1.7011
1.69988
1.69641
1.69398
1.68935
1.68528
1.67885
1.67367
1.66879
1.66434
1.6605
1.6572
1.65453
1.6525
1.65123
1.65078
1.6511
1.65157
1.65204
1.6527
1.65347
1.65522
1.65756
1.66136
1.66678
1.67406
1.68284
1.69475
1.7064
1.71377
1.71893
0.197739
0.197987
0.197908
0.197861
0.19778
0.197689
0.197576
0.197441
0.197303
0.197152
0.196977
0.196779
0.19661
0.196406
0.196137
0.195945
0.195762
0.195449
0.195075
0.194871
0.194688
0.194404
0.193858
0.193478
0.19324
0.193111
0.19291
0.192541
0.191937
0.191566
0.191283
0.19109
0.190914
0.190823
0.190652
0.190389
0.190105
0.189671
0.18907
0.188507
0.195535
0.232872
0.796865
1.01383
1.0224
1.02357
1.02413
1.02468
1.02543
1.04619
1.06209
1.14631
1.20613
1.40688
1.55359
1.71865
1.78333
1.79308
1.78474
1.77721
1.76979
1.76308
1.75798
1.75332
1.74921
1.74586
1.7443
1.74267
1.74143
1.73929
1.73921
1.7371
1.73683
1.7344
1.73422
1.73207
1.73088
1.72747
1.72522
1.72192
1.71903
1.71501
1.71155
1.7087
1.7047
1.70144
1.69815
1.69563
1.69225
1.69056
1.68678
1.68427
1.67994
1.67632
1.67191
1.66793
1.66365
1.65936
1.6554
1.65197
1.64927
1.64745
1.64632
1.6455
1.64497
1.64489
1.64498
1.64527
1.64665
1.64812
1.6509
1.65477
1.65978
1.66642
1.67459
1.68596
1.69662
1.70445
1.7093
0.197767
0.198013
0.197936
0.197891
0.197813
0.197725
0.197615
0.197485
0.197351
0.197208
0.19702
0.196838
0.196685
0.196462
0.196192
0.196036
0.195853
0.195481
0.195153
0.194948
0.194753
0.194445
0.193925
0.193599
0.193333
0.193121
0.192884
0.192504
0.192054
0.191681
0.191281
0.190981
0.190711
0.190499
0.190323
0.190177
0.190006
0.189911
0.189999
0.189873
0.205902
0.331106
0.906041
1.00367
1.01017
1.01675
1.02159
1.03242
1.04328
1.09148
1.12931
1.29038
1.40225
1.62111
1.74867
1.80479
1.81054
1.79724
1.78816
1.7755
1.76565
1.75701
1.74976
1.74407
1.73962
1.73584
1.73241
1.72929
1.72711
1.72456
1.72337
1.72199
1.7218
1.72013
1.72016
1.71935
1.71896
1.71678
1.7151
1.71221
1.70959
1.70592
1.70254
1.69964
1.69582
1.69279
1.6889
1.68625
1.68284
1.68098
1.67759
1.67514
1.67147
1.66763
1.66331
1.65924
1.65548
1.65204
1.64894
1.64624
1.644
1.64259
1.64196
1.64157
1.6413
1.64119
1.6411
1.6409
1.64232
1.64292
1.64512
1.64772
1.65154
1.65732
1.66521
1.67647
1.68749
1.69593
1.69983
0.197797
0.198041
0.197966
0.197924
0.19785
0.197765
0.197659
0.197532
0.197403
0.197267
0.197068
0.196918
0.196761
0.196503
0.196293
0.196121
0.195915
0.19557
0.195311
0.195049
0.19479
0.194475
0.194116
0.193824
0.193446
0.193125
0.192782
0.192507
0.192184
0.191843
0.191319
0.190798
0.190426
0.190165
0.189999
0.189918
0.189921
0.190141
0.190796
0.192074
0.214581
0.496852
0.986886
1.00256
1.00378
1.01364
1.02358
1.05406
1.07921
1.18874
1.26799
1.49004
1.6428
1.77191
1.80965
1.81168
1.7953
1.78646
1.77323
1.76347
1.7544
1.7463
1.73925
1.73298
1.72748
1.72258
1.71829
1.71459
1.71197
1.70973
1.70844
1.7072
1.70706
1.70654
1.70653
1.70595
1.70556
1.70399
1.70239
1.69995
1.69752
1.69506
1.69217
1.68998
1.6864
1.68385
1.67985
1.677
1.67375
1.67185
1.66883
1.66591
1.66294
1.65922
1.65607
1.6533
1.65069
1.64801
1.645
1.64198
1.63891
1.63606
1.6344
1.63362
1.6329
1.63244
1.63218
1.63227
1.63293
1.63397
1.63639
1.63956
1.64402
1.64988
1.65767
1.66864
1.67892
1.687
1.69013
0.197829
0.198071
0.197999
0.19796
0.19789
0.197808
0.197707
0.197585
0.197461
0.197321
0.19714
0.196995
0.196824
0.196587
0.196417
0.196212
0.195961
0.195706
0.195492
0.195165
0.194817
0.194544
0.194337
0.194064
0.193529
0.1931
0.19274
0.192489
0.192247
0.191914
0.191355
0.190677
0.190211
0.189857
0.189573
0.189362
0.189055
0.188712
0.188375
0.189508
0.210174
0.689259
1.01252
1.01641
1.01631
1.02419
1.03975
1.10859
1.16185
1.35613
1.49786
1.69129
1.7816
1.80641
1.80232
1.78798
1.77813
1.76638
1.75654
1.74751
1.73954
1.73231
1.7256
1.71957
1.7144
1.71
1.70631
1.70289
1.69984
1.69713
1.69485
1.69281
1.69144
1.69046
1.68998
1.69001
1.69012
1.69104
1.69013
1.68934
1.6872
1.68581
1.68317
1.68145
1.67794
1.67567
1.67168
1.66833
1.66458
1.66174
1.65909
1.65542
1.65263
1.64872
1.64564
1.64302
1.64061
1.63824
1.6356
1.63306
1.63116
1.62963
1.629
1.62916
1.62874
1.62812
1.62736
1.62752
1.62695
1.62884
1.6301
1.63261
1.63622
1.64089
1.64813
1.65839
1.66878
1.67751
1.68024
0.197863
0.198103
0.198034
0.197998
0.197934
0.197856
0.197757
0.197643
0.197524
0.197378
0.197232
0.197081
0.196881
0.196709
0.196544
0.196286
0.196032
0.195872
0.19566
0.19524
0.194872
0.19466
0.194499
0.194228
0.193599
0.193147
0.192789
0.192533
0.192259
0.19186
0.191287
0.190603
0.190121
0.189617
0.189173
0.188678
0.188241
0.18805
0.187665
0.198456
0.248607
0.810332
0.998892
1.01216
1.02518
1.0531
1.08819
1.23019
1.33207
1.56773
1.71187
1.78982
1.80131
1.78844
1.7787
1.76516
1.75478
1.74497
1.73622
1.72851
1.7218
1.71603
1.71109
1.70659
1.70245
1.69844
1.6946
1.69085
1.68739
1.68423
1.68136
1.67893
1.67719
1.67592
1.67524
1.67551
1.67507
1.67662
1.67583
1.67518
1.67332
1.67229
1.6702
1.6692
1.66638
1.66445
1.66156
1.65806
1.65486
1.65195
1.65055
1.64713
1.64461
1.64104
1.63861
1.63695
1.63531
1.63361
1.63166
1.62914
1.6267
1.62385
1.62128
1.61961
1.61883
1.61777
1.61706
1.61671
1.61654
1.61854
1.62012
1.62304
1.62709
1.63253
1.64029
1.65086
1.66083
1.66931
1.67115
0.1979
0.198138
0.198073
0.19804
0.197982
0.197907
0.197811
0.197708
0.19759
0.197446
0.197324
0.197159
0.196962
0.196833
0.196658
0.196353
0.196168
0.19602
0.195794
0.195334
0.195042
0.194811
0.194616
0.194286
0.193725
0.193347
0.192961
0.192563
0.192181
0.191724
0.191185
0.190656
0.190096
0.189444
0.188747
0.188084
0.187754
0.18807