/*--------------------------------*- C++ -*----------------------------------*\
| =========                 |                                                 |
| \\      /  F ield         | OpenFOAM: The Open Source CFD Toolbox           |
|  \\    /   O peration     | Version:  2.2.x                                 |
|   \\  /    A nd           | Web:      www.OpenFOAM.org                      |
|    \\/     M anipulation  |                                                 |
\*---------------------------------------------------------------------------*/
FoamFile
{
    version     2.0;
    format      ascii;
    class       volScalarField;
    location    "0.3";
    object      p;
}
// * * * * * * * * * * * * * * * * * * * * * * * * * * * * * * * * * * * * * //

dimensions      [1 -1 -2 0 0 0 0];

internalField   nonuniform List<scalar> 
14161
(
0.2
0.2
0.2
0.2
0.2
0.2
0.2
0.2
0.2
0.2
0.2
0.2
0.2
0.199999
0.199998
0.199997
0.199995
0.199992
0.199986
0.199978
0.199967
0.199951
0.199929
0.199901
0.199863
0.199815
0.199754
0.19968
0.199591
0.199484
0.19936
0.199217
0.199056
0.198874
0.198674
0.198453
0.198217
0.197964
0.197698
0.19742
0.197129
0.196833
0.196526
0.196215
0.195896
0.195561
0.195211
0.194837
0.194458
0.19404
0.193619
0.193183
0.192695
0.192136
0.191501
0.19086
0.190317
0.189763
0.189202
0.188698
0.188056
0.187366
0.186405
0.185187
0.18384
0.182908
0.18224
0.181701
0.181498
0.182936
0.184648
0.185868
0.191446
1.00111
1.81731
1.88994
1.61045
1.46746
1.34959
1.24928
1.17841
1.11253
1.13664
1.14392
1.26009
1.37687
1.52169
1.64255
1.74101
1.80909
1.85702
1.8935
1.92134
1.94201
1.95769
1.97205
1.98645
1.99806
2.00929
2.02232
2.03607
2.04967
2.06238
2.07374
2.08298
2.08982
2.09409
2.09639
2.098
2.10132
2.10658
2.11327
2.11923
2.12493
2.12896
2.13245
2.1347
2.13372
2.13372
0.2
0.2
0.2
0.2
0.2
0.2
0.2
0.2
0.2
0.2
0.2
0.2
0.2
0.199999
0.199998
0.199997
0.199995
0.199992
0.199986
0.199978
0.199967
0.199951
0.19993
0.199901
0.199863
0.199815
0.199755
0.19968
0.199591
0.199485
0.199362
0.199218
0.199057
0.198874
0.198675
0.198456
0.198222
0.19797
0.197703
0.197422
0.19713
0.196833
0.196529
0.196221
0.195902
0.19557
0.195205
0.194837
0.194451
0.194062
0.193623
0.193198
0.192693
0.192155
0.191546
0.190903
0.19033
0.189731
0.189202
0.188641
0.187997
0.187156
0.186342
0.185263
0.184056
0.183026
0.182466
0.181887
0.181515
0.181735
0.182066
0.182402
0.184788
0.854402
1.76679
1.80499
1.54291
1.43028
1.3366
1.25129
1.18338
1.11683
1.15209
1.15478
1.25311
1.38094
1.50837
1.62268
1.71797
1.79019
1.84145
1.88065
1.91044
1.93343
1.95155
1.96769
1.98311
1.99527
2.00694
2.02032
2.03431
2.04822
2.06113
2.07266
2.08206
2.08913
2.09362
2.09605
2.09775
2.10121
2.1066
2.11346
2.11945
2.12522
2.12911
2.13241
2.13411
2.13225
2.13359
0.2
0.2
0.2
0.2
0.2
0.2
0.2
0.2
0.2
0.2
0.2
0.2
0.2
0.199999
0.199999
0.199997
0.199995
0.199992
0.199986
0.199978
0.199967
0.199951
0.19993
0.199901
0.199863
0.199815
0.199755
0.199682
0.199592
0.199487
0.199363
0.19922
0.19906
0.198878
0.19868
0.198462
0.198226
0.197974
0.197707
0.197428
0.197139
0.196843
0.196539
0.19623
0.195914
0.195581
0.195229
0.194851
0.194473
0.194058
0.193649
0.193183
0.192723
0.192165
0.191584
0.190987
0.190403
0.189775
0.18912
0.188614
0.187878
0.18704
0.186154
0.185338
0.184289
0.183372
0.182617
0.18204
0.181223
0.179658
0.179418
0.177904
0.184515
0.649541
1.71066
1.72444
1.51192
1.40145
1.33627
1.24533
1.1933
1.12644
1.18514
1.20566
1.28355
1.41366
1.50947
1.60537
1.68891
1.76373
1.82116
1.86411
1.89692
1.92265
1.94332
1.96146
1.97834
1.99168
2.00438
2.01862
2.03327
2.04749
2.06069
2.07252
2.08205
2.08944
2.09413
2.09655
2.09803
2.1016
2.10708
2.11394
2.1197
2.12521
2.12858
2.13133
2.13245
2.12938
2.13178
0.2
0.2
0.2
0.2
0.2
0.2
0.2
0.2
0.2
0.2
0.2
0.2
0.2
0.199999
0.199999
0.199997
0.199995
0.199992
0.199986
0.199979
0.199967
0.199952
0.19993
0.199902
0.199864
0.199817
0.199757
0.199683
0.199594
0.19949
0.199366
0.199225
0.199065
0.198885
0.198686
0.19847
0.198235
0.197985
0.19772
0.197442
0.197155
0.196859
0.196558
0.196249
0.195935
0.195606
0.195252
0.194885
0.194484
0.194093
0.193662
0.193225
0.192718
0.192229
0.191649
0.191103
0.190482
0.18982
0.189164
0.188471
0.187776
0.186887
0.186137
0.185425
0.184558
0.183731
0.183027
0.182046
0.180284
0.177075
0.175183
0.175817
0.196663
0.482806
1.52779
1.57734
1.51834
1.38117
1.3483
1.2348
1.22219
1.15971
1.23338
1.2897
1.35644
1.46554
1.53814
1.6157
1.68467
1.75221
1.80953
1.85333
1.88749
1.91552
1.93838
1.95842
1.97633
1.9909
2.00462
2.01937
2.03406
2.04824
2.06135
2.07304
2.08247
2.08971
2.09433
2.09669
2.09802
2.10155
2.10706
2.11393
2.1195
2.12478
2.12761
2.12968
2.1303
2.12587
2.12961
0.2
0.2
0.2
0.2
0.2
0.2
0.2
0.2
0.2
0.2
0.2
0.2
0.2
0.199999
0.199999
0.199997
0.199995
0.199992
0.199986
0.199979
0.199968
0.199952
0.199931
0.199902
0.199865
0.199818
0.199759
0.199686
0.199598
0.199494
0.199371
0.199232
0.199072
0.198894
0.198697
0.198482
0.19825
0.198002
0.19774
0.197464
0.197179
0.196882
0.196583
0.196275
0.195966
0.19564
0.195297
0.194918
0.194534
0.194125
0.1937
0.193234
0.192789
0.192268
0.191742
0.1912
0.190579
0.189939
0.189205
0.188457
0.187635
0.186766
0.186216
0.185582
0.184716
0.184136
0.183239
0.182267
0.180226
0.177161
0.172738
0.168628
0.192687
0.433923
1.34723
1.40649
1.4953
1.38703
1.35644
1.21737
1.24035
1.21023
1.30595
1.38575
1.45743
1.5415
1.59463
1.65338
1.70458
1.76108
1.81226
1.85528
1.8886
1.91647
1.93907
1.95856
1.97609
1.99053
2.00446
2.01929
2.03373
2.0475
2.0603
2.07182
2.08134
2.0888
2.09347
2.09592
2.09743
2.10124
2.10689
2.11375
2.11901
2.12395
2.12632
2.12765
2.12786
2.12197
2.12699
0.2
0.2
0.2
0.2
0.2
0.2
0.2
0.2
0.2
0.2
0.2
0.2
0.2
0.199999
0.199999
0.199997
0.199995
0.199992
0.199987
0.199979
0.199968
0.199953
0.199932
0.199903
0.199867
0.19982
0.199761
0.199689
0.199602
0.1995
0.199378
0.199241
0.199082
0.198907
0.198712
0.1985
0.19827
0.198024
0.197765
0.197491
0.197208
0.196914
0.196616
0.196312
0.196007
0.19569
0.195344
0.194986
0.194587
0.194187
0.193739
0.193296
0.192822
0.192345
0.191819
0.191288
0.190704
0.190043
0.18938
0.188563
0.187735
0.186868
0.186164
0.185549
0.184878
0.184298
0.183651
0.182542
0.180511
0.176794
0.169508
0.166527
0.182923
0.618135
1.21413
1.31788
1.47539
1.4133
1.39311
1.23438
1.30889
1.33338
1.41091
1.49722
1.55956
1.60511
1.64549
1.68778
1.72828
1.78154
1.82517
1.86452
1.89484
1.92156
1.9437
1.96214
1.97828
1.99304
2.00692
2.02144
2.03548
2.04909
2.06155
2.07272
2.08195
2.08897
2.09335
2.09558
2.09722
2.1013
2.10679
2.11344
2.11816
2.12259
2.12433
2.1249
2.1248
2.11738
2.12368
0.2
0.2
0.2
0.2
0.2
0.2
0.2
0.2
0.2
0.2
0.2
0.2
0.2
0.199999
0.199999
0.199997
0.199995
0.199992
0.199987
0.199979
0.199969
0.199953
0.199933
0.199905
0.199869
0.199823
0.199765
0.199694
0.199609
0.199507
0.199388
0.199252
0.199096
0.198924
0.198731
0.198523
0.198295
0.198054
0.197797
0.197528
0.197248
0.196959
0.196664
0.196364
0.196061
0.195747
0.195414
0.19505
0.194671
0.194253
0.193834
0.193361
0.192908
0.19242
0.191904
0.191363
0.190802
0.190218
0.189577
0.188809
0.187903
0.187071
0.186255
0.185528
0.185015
0.184479
0.183915
0.183073
0.181575
0.179236
0.179084
0.18981
0.267324
0.836721
1.10733
1.24301
1.44697
1.47855
1.45919
1.33806
1.42631
1.48012
1.53623
1.5902
1.63073
1.65841
1.68802
1.71958
1.75473
1.79694
1.83551
1.87298
1.90291
1.92806
1.94832
1.96495
1.97981
1.99406
2.00796
2.02258
2.03644
2.04987
2.0619
2.07275
2.08157
2.08819
2.09216
2.09416
2.09623
2.10054
2.10593
2.11244
2.11668
2.12061
2.12171
2.12135
2.12119
2.11249
2.12023
0.2
0.2
0.2
0.2
0.2
0.2
0.2
0.2
0.2
0.2
0.2
0.2
0.2
0.199999
0.199999
0.199997
0.199995
0.199992
0.199987
0.19998
0.199969
0.199954
0.199934
0.199907
0.199871
0.199826
0.19977
0.1997
0.199616
0.199516
0.1994
0.199266
0.199115
0.198944
0.198756
0.19855
0.198328
0.198091
0.197839
0.197576
0.1973
0.197017
0.196724
0.196429
0.196127
0.19582
0.195489
0.195141
0.194762
0.194367
0.19394
0.193484
0.193015
0.192522
0.192002
0.191476
0.190943
0.190389
0.189813
0.189034
0.188215
0.187248
0.186385
0.185742
0.18523
0.184796
0.184298
0.183609
0.182971
0.182471
0.183513
0.199892
0.44611
0.915567
1.02985
1.20786
1.41857
1.53005
1.53566
1.49915
1.56951
1.60197
1.62647
1.64835
1.67477
1.6932
1.71838
1.74408
1.77604
1.8098
1.84647
1.88045
1.9092
1.93386
1.9545
1.97138
1.98578
1.99848
2.01091
2.02454
2.0373
2.05048
2.06237
2.07312
2.08177
2.08799
2.09128
2.09269
2.09515
2.09966
2.10486
2.11103
2.11482
2.11823
2.11879
2.11739
2.11703
2.10752
2.11623
0.2
0.2
0.2
0.2
0.2
0.2
0.2
0.2
0.2
0.2
0.2
0.2
0.2
0.199999
0.199999
0.199998
0.199996
0.199992
0.199988
0.19998
0.19997
0.199955
0.199936
0.199909
0.199874
0.19983
0.199775
0.199707
0.199625
0.199528
0.199415
0.199283
0.199137
0.198969
0.198787
0.198585
0.19837
0.198137
0.197892
0.197634
0.197364
0.197086
0.196798
0.196506
0.196209
0.195906
0.195585
0.195243
0.194883
0.194501
0.194074
0.193633
0.193138
0.192654
0.192135
0.191629
0.191095
0.190585
0.19001
0.189295
0.188466
0.187587
0.186764
0.186171
0.185566
0.184945
0.184395
0.183748
0.182756
0.181423
0.18266
0.196171
0.685216
0.996566
1.05681
1.24917
1.45717
1.62167
1.65635
1.64663
1.66461
1.667
1.67595
1.68268
1.6998
1.71453
1.73584
1.75937
1.78866
1.81735
1.85323
1.88432
1.91265
1.93621
1.95602
1.97262
1.9871
2.00038
2.01292
2.02652
2.03954
2.05232
2.06378
2.07394
2.08171
2.08706
2.08944
2.09062
2.09341
2.09813
2.10311
2.10882
2.11231
2.11524
2.11529
2.1129
2.11225
2.10235
2.11197
0.2
0.2
0.2
0.2
0.2
0.2
0.2
0.2
0.2
0.2
0.2
0.2
0.2
0.199999
0.199999
0.199998
0.199996
0.199993
0.199988
0.199981
0.199971
0.199957
0.199937
0.199912
0.199878
0.199835
0.199782
0.199716
0.199636
0.199542
0.199432
0.199305
0.199162
0.199
0.198823
0.198628
0.198418
0.198193
0.197953
0.197702
0.197439
0.197167
0.196887
0.196601
0.19631
0.196016
0.195703
0.195373
0.195026
0.194638
0.194234
0.193778
0.193314
0.192817
0.192317
0.191809
0.191277
0.19074
0.190201
0.189539
0.188789
0.187964
0.187264
0.186628
0.185763
0.184852
0.184142
0.183256
0.182093
0.179547
0.185643
0.259166
0.86289
1.05236
1.10745
1.33114
1.54588
1.72682
1.74968
1.71077
1.71256
1.70215
1.70356
1.70313
1.7117
1.72519
1.74411
1.76761
1.79584
1.82394
1.8589
1.8891
1.91683
1.93873
1.95733
1.97402
1.98826
2.00039
2.01287
2.02593
2.0388
2.0512
2.06224
2.07209
2.07937
2.08418
2.08628
2.08793
2.09117
2.0962
2.10087
2.10608
2.10932
2.1116
2.11127
2.10809
2.1072
2.09738
2.10759
0.2
0.2
0.2
0.2
0.2
0.2
0.2
0.2
0.2
0.2
0.2
0.2
0.2
0.199999
0.199999
0.199998
0.199996
0.199993
0.199989
0.199982
0.199972
0.199958
0.19994
0.199915
0.199882
0.199841
0.199789
0.199726
0.199649
0.199559
0.199452
0.199331
0.199191
0.199037
0.198865
0.198677
0.198474
0.198255
0.198025
0.19778
0.197528
0.197265
0.196997
0.196719
0.196439
0.19615
0.195841
0.195516
0.195163
0.194796
0.194396
0.193973
0.193534
0.19306
0.192545
0.19202
0.191466
0.190926
0.190415
0.18981
0.189081
0.188325
0.187538
0.186797
0.185939
0.184947
0.184339
0.184085
0.18423
0.185899
0.204345
0.388113
0.947923
1.08499
1.18055
1.42999
1.65957
1.79651
1.79115
1.74561
1.73382
1.72109
1.71597
1.71551
1.72003
1.73238
1.74993
1.77213
1.79794
1.82602
1.85678
1.88509
1.9116
1.93403
1.95428
1.97219
1.98712
2.00015
2.01363
2.02661
2.03888
2.05046
2.06068
2.06993
2.07679
2.08129
2.08332
2.08554
2.08898
2.0941
2.09836
2.10297
2.10584
2.10742
2.10678
2.10293
2.10184
2.09242
2.10309
0.2
0.2
0.2
0.2
0.2
0.2
0.2
0.2
0.2
0.2
0.2
0.2
0.2
0.2
0.199999
0.199998
0.199996
0.199993
0.199989
0.199983
0.199973
0.19996
0.199942
0.199919
0.199888
0.199848
0.199798
0.199737
0.199664
0.199577
0.199476
0.19936
0.199226
0.199079
0.198913
0.198735
0.198538
0.198331
0.198108
0.197876
0.197634
0.197382
0.197124
0.196855
0.196581
0.196298
0.195997
0.195673
0.195337
0.194981
0.194614
0.194199
0.193791
0.193316
0.192802
0.192245
0.191689
0.191151
0.190698
0.190108
0.189326
0.188585
0.18777
0.186984
0.18631
0.185539
0.185052
0.184752
0.1851
0.186469
0.208943
0.610995
1.05842
1.10701
1.28857
1.53646
1.75584
1.8249
1.79221
1.7706
1.74719
1.73018
1.72164
1.72102
1.72654
1.7371
1.75238
1.7724
1.79512
1.82459
1.85448
1.88268
1.90773
1.92934
1.94929
1.96672
1.98217
1.9958
2.01022
2.02365
2.03575
2.04713
2.05713
2.06605
2.07248
2.07703
2.07937
2.0823
2.08604
2.09124
2.0952
2.09936
2.10183
2.10281
2.10184
2.09747
2.0964
2.0877
2.09873
0.2
0.2
0.2
0.2
0.2
0.2
0.2
0.2
0.2
0.2
0.2
0.2
0.2
0.2
0.199999
0.199998
0.199996
0.199994
0.19999
0.199984
0.199975
0.199962
0.199945
0.199923
0.199893
0.199855
0.199809
0.199751
0.199682
0.199598
0.199503
0.199392
0.199267
0.199126
0.19897
0.1988
0.198616
0.198419
0.198207
0.197987
0.197752
0.197513
0.197262
0.197007
0.196741
0.196473
0.196186
0.195878
0.195553
0.195215
0.194852
0.194455
0.194035
0.193571
0.193088
0.192546
0.192011
0.191466
0.190942
0.190362
0.189593
0.188825
0.188097
0.187376
0.18674
0.185928
0.184714
0.183005
0.181436
0.181241
0.231175
0.846269
1.11371
1.19007
1.44844
1.66781
1.8233
1.82982
1.78357
1.76899
1.74775
1.73371
1.72488
1.72489
1.72818
1.7376
1.75081
1.76746
1.78736
1.81564
1.84356
1.87339
1.90112
1.92424
1.94518
1.96382
1.98007
1.99458
2.00863
2.02172
2.03316
2.0438
2.05311
2.06165
2.06789
2.07249
2.07528
2.07877
2.08271
2.08785
2.09155
2.09531
2.09742
2.09781
2.09647
2.0918
2.09103
2.08318
2.09423
0.2
0.2
0.2
0.2
0.2
0.2
0.2
0.2
0.2
0.2
0.2
0.2
0.2
0.2
0.199999
0.199998
0.199997
0.199994
0.199991
0.199985
0.199976
0.199965
0.199949
0.199927
0.1999
0.199864
0.19982
0.199766
0.1997
0.199623
0.199533
0.199429
0.199312
0.199179
0.199035
0.198874
0.198702
0.198514
0.198317
0.198106
0.197887
0.197658
0.197423
0.197182
0.196933
0.196681
0.196406
0.196115
0.195797
0.195471
0.195106
0.194729
0.194314
0.19388
0.193417
0.192932
0.192403
0.191806
0.191223
0.190621
0.189911
0.189147
0.188354
0.187574
0.186825
0.185679
0.184158
0.181724
0.182002
0.201702
0.371378
0.978739
1.17169
1.30468
1.57356
1.77703
1.84308
1.8123
1.78154
1.75729
1.73797
1.72611
1.71865
1.71774
1.72238
1.73161
1.74564
1.76315
1.78392
1.81164
1.83851
1.86662
1.89342
1.91689
1.93771
1.95551
1.97136
1.98713
2.00179
2.01511
2.02703
2.03816
2.04771
2.05638
2.06255
2.06722
2.07048
2.07472
2.07879
2.08383
2.08729
2.09074
2.09242
2.09239
2.09071
2.08592
2.08567
2.07868
2.08982
0.2
0.2
0.2
0.2
0.2
0.2
0.2
0.2
0.2
0.2
0.2
0.2
0.2
0.2
0.199999
0.199999
0.199997
0.199995
0.199991
0.199986
0.199978
0.199967
0.199953
0.199933
0.199907
0.199874
0.199833
0.199782
0.199721
0.19965
0.199566
0.19947
0.199361
0.199239
0.199104
0.198956
0.198796
0.198622
0.198439
0.198243
0.19804
0.197825
0.197607
0.197379
0.197147
0.196907
0.19665
0.19637
0.196076
0.195751
0.195418
0.195048
0.19467
0.194242
0.193813
0.193331
0.192794
0.192225
0.191598
0.19095
0.190269
0.189534
0.188622
0.187702
0.187012
0.186215
0.185872
0.185992
0.188719
0.211901
0.618972
1.15841
1.23279
1.47516
1.69932
1.83314
1.84
1.79468
1.77575
1.75107
1.73432
1.723
1.71551
1.71305
1.71382
1.72306
1.73542
1.75156
1.77182
1.79904
1.82712
1.85812
1.88651
1.91125
1.93237
1.9501
1.96566
1.98144
1.99563
2.00848
2.02032
2.03161
2.04124
2.04993
2.0561
2.0612
2.06497
2.06998
2.07418
2.07916
2.08242
2.08563
2.08689
2.08654
2.08461
2.08005
2.08035
2.07415
2.08508
0.2
0.2
0.2
0.2
0.2
0.2
0.2
0.2
0.2
0.2
0.2
0.2
0.2
0.2
0.199999
0.199999
0.199998
0.199995
0.199992
0.199987
0.19998
0.19997
0.199957
0.199938
0.199915
0.199884
0.199847
0.1998
0.199745
0.199679
0.199602
0.199515
0.199415
0.199305
0.19918
0.199046
0.198898
0.198742
0.198573
0.198395
0.198207
0.19801
0.197807
0.197596
0.19738
0.197158
0.19692
0.196664
0.196386
0.196091
0.195771
0.195434
0.19506
0.19467
0.194237
0.19377
0.193268
0.192685
0.192087
0.191402
0.190763
0.190087
0.189279
0.188366
0.187478
0.186397
0.18465
0.180904
0.178311
0.215257
0.891781
1.24183
1.36708
1.64491
1.81644
1.85189
1.81415
1.78649
1.76332
1.74229
1.72652
1.71619
1.71052
1.70864
1.70854
1.71674
1.72798
1.7428
1.76162
1.78633
1.81297
1.84368
1.87241
1.89781
1.91954
1.9384
1.95594
1.97299
1.9879
2.00125
2.01371
2.02507
2.03436
2.04296
2.04913
2.05479
2.05916
2.0647
2.06897
2.0739
2.07694
2.07986
2.08079
2.08023
2.07823
2.07416
2.075
2.06948
2.0804
0.2
0.2
0.2
0.2
0.2
0.2
0.2
0.2
0.2
0.2
0.2
0.2
0.2
0.2
0.2
0.199999
0.199998
0.199996
0.199993
0.199989
0.199982
0.199973
0.199961
0.199945
0.199923
0.199896
0.199862
0.19982
0.19977
0.199711
0.199642
0.199563
0.199474
0.199375
0.199264
0.199143
0.199011
0.198871
0.198718
0.19856
0.198389
0.198213
0.198028
0.197837
0.197639
0.197437
0.197222
0.196987
0.19674
0.196465
0.196178
0.195853
0.195522
0.195142
0.19474
0.194305
0.193819
0.1933
0.192714
0.192096
0.191412
0.190731
0.189871
0.188865
0.187499
0.18571
0.183978
0.186196
0.210037
0.421852
1.11591
1.31988
1.51636
1.75952
1.86431
1.84729
1.803
1.7752
1.75
1.72911
1.71469
1.70518
1.69976
1.69839
1.69983
1.70837
1.72002
1.73477
1.75295
1.7762
1.80232
1.8329
1.8616
1.88711
1.90853
1.92783
1.94615
1.96321
1.97812
1.99156
2.0045
2.01628
2.02574
2.03444
2.04105
2.04774
2.0528
2.05878
2.0632
2.06807
2.07089
2.07348
2.07425
2.07359
2.07173
2.06835
2.06965
2.06475
2.07537
0.2
0.2
0.2
0.2
0.2
0.2
0.2
0.2
0.2
0.2
0.2
0.2
0.2
0.2
0.2
0.199999
0.199998
0.199997
0.199994
0.199991
0.199985
0.199977
0.199966
0.199951
0.199932
0.199908
0.199878
0.199841
0.199797
0.199744
0.199684
0.199615
0.199537
0.199449
0.199353
0.199247
0.199132
0.199008
0.198876
0.198736
0.198587
0.198432
0.198269
0.1981
0.197924
0.197746
0.197554
0.197346
0.197123
0.196882
0.19662
0.196337
0.19603
0.195691
0.195332
0.194922
0.194499
0.193999
0.193499
0.192873
0.19221
0.191437
0.190674
0.189922
0.189178
0.188227
0.187226
0.188379
0.209291
0.731252
1.3212
1.44413
1.69805
1.8457
1.85744
1.81611
1.79057
1.76119
1.73821
1.71928
1.70532
1.69583
1.69002
1.68778
1.68777
1.69477
1.70515
1.71927
1.73694
1.7599
1.78613
1.81705
1.84718
1.87454
1.89726
1.91779
1.93656
1.95392
1.96908
1.98285
1.99576
2.00751
2.01691
2.02588
2.03312
2.04064
2.04633
2.05253
2.05702
2.06169
2.06436
2.06664
2.06744
2.06682
2.06526
2.0626
2.0642
2.05978
2.07039
0.2
0.2
0.2
0.2
0.2
0.2
0.2
0.2
0.2
0.2
0.2
0.2
0.2
0.2
0.2
0.2
0.199999
0.199998
0.199996
0.199992
0.199987
0.19998
0.199971
0.199958
0.199942
0.199921
0.199895
0.199863
0.199825
0.19978
0.199729
0.19967
0.199603
0.199529
0.199447
0.199357
0.19926
0.199155
0.199043
0.198924
0.198798
0.198667
0.198528
0.198385
0.198232
0.19808
0.197916
0.197737
0.197546
0.197338
0.197115
0.196871
0.196605
0.196315
0.195995
0.195654
0.195255
0.194846
0.194368
0.193881
0.193286
0.192638
0.191911
0.191033
0.189873
0.187557
0.183264
0.190579
0.276388
1.08414
1.44119
1.61782
1.80785
1.877
1.8379
1.80817
1.7722
1.74647
1.72374
1.70772
1.6954
1.68793
1.68345
1.68159
1.68093
1.6863
1.69559
1.70805
1.72427
1.74552
1.77079
1.80045
1.83086
1.85876
1.88237
1.90426
1.92365
1.94125
1.95683
1.97137
1.98472
1.99682
2.0068
2.01657
2.02466
2.03295
2.03932
2.04574
2.05029
2.05478
2.05734
2.05947
2.06047
2.05998
2.05885
2.05684
2.05869
2.05478
2.06502
0.2
0.2
0.2
0.2
0.2
0.2
0.2
0.2
0.2
0.2
0.2
0.2
0.2
0.2
0.2
0.2
0.199999
0.199998
0.199997
0.199994
0.19999
0.199984
0.199976
0.199966
0.199952
0.199934
0.199913
0.199886
0.199855
0.199818
0.199775
0.199726
0.199672
0.199611
0.199545
0.199472
0.199393
0.199308
0.199217
0.199121
0.19902
0.198913
0.198802
0.198685
0.198561
0.198438
0.198305
0.19816
0.198006
0.197836
0.197656
0.197453
0.19724
0.196997
0.196745
0.196448
0.196145
0.195792
0.19542
0.194979
0.194506
0.193806
0.193199
0.192555
0.192477
0.192751
0.195065
0.213122
0.6215
1.39946
1.56118
1.74141
1.8609
1.85478
1.80953
1.78592
1.75276
1.73144
1.71178
1.69674
1.68516
1.67712
1.67205
1.66984
1.66936
1.67402
1.68342
1.69604
1.71208
1.73252
1.75699
1.78561
1.81622
1.84485
1.86958
1.89223
1.91195
1.9298
1.94574
1.96065
1.97399
1.98627
1.99684
2.00737
2.0162
2.0251
2.03203
2.03863
2.04309
2.04745
2.05004
2.05216
2.05347
2.05318
2.05251
2.05104
2.05301
2.04944
2.05964
0.2
0.2
0.2
0.2
0.2
0.2
0.2
0.2
0.2
0.2
0.2
0.2
0.2
0.2
0.2
0.2
0.2
0.199999
0.199998
0.199996
0.199993
0.199988
0.199982
0.199973
0.199962
0.199948
0.199931
0.19991
0.199885
0.199856
0.199822
0.199784
0.199742
0.199695
0.199644
0.199588
0.199528
0.199464
0.199396
0.199323
0.199247
0.199166
0.199082
0.198994
0.198901
0.198808
0.198709
0.198602
0.198488
0.198365
0.198226
0.198081
0.197918
0.197743
0.197551
0.197344
0.197105
0.196846
0.196538
0.196254
0.195907
0.195514
0.19506
0.19449
0.193288
0.190737
0.190985
0.222684
1.05276
1.53484
1.69997
1.83299
1.87397
1.8224
1.79941
1.76402
1.74026
1.71852
1.70164
1.68752
1.67689
1.66906
1.66373
1.66078
1.65941
1.66204
1.67054
1.6819
1.69678
1.71623
1.73981
1.76763
1.79798
1.82749
1.85388
1.87756
1.89768
1.91591
1.93243
1.94797
1.9617
1.97469
1.98619
1.99764
2.00723
2.0167
2.02402
2.03072
2.03523
2.03966
2.04245
2.04467
2.04631
2.0463
2.04614
2.0451
2.04718
2.04407
2.05371
0.2
0.2
0.2
0.2
0.2
0.2
0.2
0.2
0.2
0.2
0.2
0.2
0.2
0.200001
0.200001
0.200001
0.200001
0.2
0.199999
0.199998
0.199996
0.199992
0.199988
0.199981
0.199973
0.199963
0.19995
0.199934
0.199915
0.199894
0.199869
0.199842
0.199812
0.199779
0.199743
0.199704
0.199663
0.19962
0.199574
0.199526
0.199474
0.19942
0.199363
0.199305
0.199242
0.199181
0.199118
0.199048
0.198978
0.198899
0.198817
0.198722
0.198622
0.198513
0.1984
0.198276
0.198139
0.197966
0.197768
0.197578
0.197327
0.19694
0.196468
0.196482
0.196947
0.199991
0.213818
0.55158
1.43131
1.66281
1.79781
1.86204
1.84574
1.80311
1.78111
1.74663
1.72608
1.70703
1.69106
1.67738
1.667
1.65943
1.65428
1.65124
1.64974
1.651
1.65919
1.66956
1.68368
1.70173
1.72415
1.75098
1.78073
1.81099
1.83866
1.86323
1.88395
1.90282
1.91964
1.93557
1.94966
1.9633
1.97548
1.98759
1.99773
2.0076
2.01523
2.02211
2.02686
2.0315
2.0347
2.03709
2.03904
2.03938
2.0397
2.03898
2.04107
2.03823
2.04776
0.2
0.2
0.2
0.2
0.2
0.2
0.2
0.2
0.2
0.2
0.2
0.2
0.200001
0.200001
0.200001
0.200001
0.200001
0.200001
0.200001
0.2
0.199999
0.199997
0.199994
0.199989
0.199984
0.199977
0.199968
0.199958
0.199946
0.199932
0.199916
0.199899
0.199881
0.199861
0.19984
0.199818
0.199795
0.199772
0.199748
0.199723
0.199696
0.199669
0.19964
0.199611
0.19958
0.19955
0.199525
0.199491
0.199463
0.199429
0.199398
0.199364
0.199323
0.199284
0.199249
0.199218
0.199164
0.199073
0.19902
0.198954
0.198921
0.198832
0.198698
0.198358
0.197071
0.196257
0.204341
1.02311
1.62424
1.77431
1.85889
1.86293
1.80477
1.78708
1.75233
1.73096
1.70848
1.69037
1.67459
1.66192
1.65179
1.64445
1.63954
1.63671
1.6359
1.63725
1.64471
1.65464
1.66837
1.68539
1.70675
1.73247
1.76147
1.79232
1.82114
1.84681
1.86831
1.88805
1.90544
1.92197
1.93664
1.95107
1.96397
1.97674
1.98746
1.99775
2.00579
2.01297
2.01805
2.02302
2.02667
2.0293
2.03161
2.03226
2.03307
2.03262
2.03472
2.0324
2.04124
0.2
0.2
0.2
0.2
0.2
0.2
0.2
0.2
0.2
0.2
0.2
0.2
0.200001
0.200001
0.200001
0.200002
0.200002
0.200002
0.200002
0.200002
0.200002
0.200001
0.199999
0.199997
0.199995
0.199991
0.199987
0.199981
0.199975
0.199969
0.199962
0.199955
0.199948
0.19994
0.199934
0.199927
0.199922
0.199918
0.199914
0.199912
0.199908
0.199907
0.199903
0.199902
0.199898
0.199899
0.19991
0.199922
0.199931
0.19994
0.199956
0.199972
0.199995
0.200012
0.200055
0.200113
0.200186
0.20021
0.200245
0.200201
0.200107
0.200066
0.200186
0.201037
0.203522
0.214291
0.517682
1.45736
1.73949
1.83195
1.85938
1.81985
1.79139
1.7643
1.73503
1.71338
1.6935
1.67638
1.6616
1.64923
1.63926
1.63223
1.62765
1.62482
1.62417
1.62537
1.63167
1.64078
1.65342
1.6693
1.68939
1.71385
1.74223
1.77312
1.80289
1.83015
1.85288
1.8735
1.89128
1.9084
1.92365
1.93873
1.95223
1.96546
1.97661
1.98729
1.99579
2.00334
2.00891
2.01433
2.01845
2.02142
2.02406
2.02505
2.02626
2.02614
2.02819
2.02607
2.03494
0.2
0.2
0.2
0.2
0.2
0.2
0.2
0.2
0.2
0.2
0.2
0.200001
0.200001
0.200001
0.200001
0.200002
0.200002
0.200003
0.200004
0.200004
0.200005
0.200005
0.200005
0.200005
0.200005
0.200005
0.200004
0.200004
0.200004
0.200004
0.200005
0.200008
0.200011
0.200016
0.200022
0.20003
0.200041
0.200053
0.20007
0.200086
0.200106
0.200125
0.200149
0.200169
0.200193
0.200218
0.200262
0.200306
0.200362
0.200416
0.200478
0.200549
0.200616
0.20069
0.200768
0.200878
0.201037
0.201244
0.201464
0.201623
0.201786
0.201856
0.201727
0.201032
0.201673
0.215296
1.0153
1.70354
1.8334
1.85872
1.83264
1.79
1.76874
1.73665
1.71757
1.69593
1.6785
1.66212
1.64815
1.63578
1.62628
1.61973
1.61554
1.61291
1.61214
1.61296
1.61785
1.62592
1.63726
1.65204
1.67087
1.69422
1.72221
1.75275
1.78326
1.81225
1.83633
1.85805
1.87652
1.89433
1.91024
1.92596
1.94006
1.95378
1.9654
1.97649
1.98549
1.99346
1.99966
2.00551
2.01006
2.01342
2.01638
2.01773
2.01936
2.01955
2.02146
2.01992
2.02827
0.2
0.2
0.2
0.2
0.2
0.2
0.2
0.2
0.2
0.2
0.2
0.200001
0.200001
0.200001
0.200002
0.200002
0.200003
0.200004
0.200005
0.200006
0.200008
0.200009
0.200011
0.200013
0.200016
0.200018
0.200022
0.200026
0.200032
0.200038
0.200047
0.200056
0.20007
0.200084
0.200103
0.200124
0.200149
0.200177
0.200208
0.200243
0.200281
0.200322
0.200365
0.200413
0.200456
0.200509
0.200568
0.20064
0.200721
0.200822
0.200934
0.201066
0.201192
0.201316
0.20144
0.201564
0.201734
0.201986
0.202287
0.202702
0.203149
0.203711
0.204109
0.20483
0.211304
0.507864
1.47627
1.79278
1.84661
1.83649
1.78941
1.76948
1.74069
1.71855
1.69835
1.68041
1.66389
1.64891
1.6352
1.62315
1.61417
1.60801
1.604
1.60133
1.60015
1.60014
1.60366
1.61068
1.62054
1.63431
1.65227
1.67482
1.70216
1.73243
1.76367
1.79396
1.81935
1.84217
1.86156
1.88025
1.89689
1.91317
1.92771
1.94179
1.95382
1.96534
1.97493
1.98336
1.99028
1.99648
2.00148
2.00524
2.00856
2.01029
2.0122
2.01264
2.01439
2.01328
2.02149
0.2
0.2
0.2
0.2
0.2
0.2
0.2
0.2
0.2
0.2
0.2
0.200001
0.200001
0.200001
0.200002
0.200003
0.200004
0.200005
0.200007
0.200008
0.200011
0.200013
0.200017
0.20002
0.200025
0.200031
0.200038
0.200047
0.200057
0.20007
0.200084
0.200102
0.200123
0.200148
0.200176
0.200208
0.200244
0.200286
0.20033
0.200379
0.200431
0.200489
0.200549
0.200615
0.200683
0.200757
0.200838
0.200924
0.201024
0.201139
0.201283
0.201446
0.20165
0.201855
0.20205
0.202226
0.202417
0.202635
0.20289
0.203204
0.203669
0.204361
0.205368
0.208074
0.218153
1.0542
1.74685
1.84901
1.82978
1.79635
1.76475
1.74029
1.71683
1.69875
1.67973
1.66276
1.64689
1.63277
1.62022
1.60964
1.60144
1.5954
1.59114
1.58789
1.58638
1.58592
1.58838
1.5947
1.60374
1.61676
1.63403
1.6558
1.68224
1.71209
1.7436
1.775
1.80167
1.82541
1.84563
1.86519
1.88255
1.89942
1.91452
1.92913
1.94176
1.95384
1.96411
1.97302
1.98076
1.98726
1.99267
1.99681
2.00043
2.00248
2.00461
2.0053
2.00685
2.00644
2.01421
0.2
0.2
0.2
0.2
0.2
0.2
0.2
0.2
0.2
0.2
0.2
0.200001
0.200001
0.200002
0.200002
0.200003
0.200004
0.200006
0.200008
0.20001
0.200013
0.200017
0.200022
0.200028
0.200035
0.200043
0.200053
0.200066
0.20008
0.200098
0.200119
0.200143
0.200171
0.200203
0.20024
0.200281
0.200327
0.200377
0.200433
0.200493
0.200557
0.200623
0.200696
0.200771
0.200856
0.200948
0.201054
0.201165
0.20128
0.201405
0.201542
0.20171
0.20191
0.202164
0.202461
0.202786
0.203105
0.203326
0.203528
0.203734
0.203958
0.204329
0.205192
0.208919
0.518991
1.52341
1.82822
1.82031
1.78727
1.76112
1.73637
1.71317
1.69492
1.67718
1.66066
1.64504
1.6308
1.61737
1.60553
1.5958
1.5884
1.58273
1.57854
1.57491
1.57283
1.57153
1.57288
1.5784
1.58713
1.59964
1.61623
1.63722
1.66256
1.69164
1.72286
1.75531
1.78315
1.80806
1.82945
1.85002
1.86812
1.8855
1.90099
1.91598
1.92913
1.94178
1.95266
1.96225
1.97068
1.9776
1.98349
1.98803
1.99199
1.99439
1.9967
1.99765
1.9991
1.99927
2.00676
0.2
0.2
0.2
0.2
0.2
0.2
0.2
0.2
0.2
0.2
0.2
0.200001
0.200001
0.200002
0.200002
0.200004
0.200005
0.200007
0.200009
0.200012
0.200016
0.200021
0.200027
0.200034
0.200043
0.200054
0.200068
0.200083
0.200102
0.200124
0.20015
0.200179
0.200213
0.200251
0.200295
0.200342
0.200395
0.200453
0.200516
0.200584
0.200656
0.20073
0.200808
0.20089
0.200977
0.201078
0.201194
0.201326
0.201463
0.2016
0.201746
0.201905
0.202093
0.202299
0.202587
0.202979
0.203517
0.20385
0.204175
0.204428
0.204599
0.204753
0.205044
0.213773
1.07382
1.76804
1.83206
1.78586
1.76042
1.72857
1.70683
1.68838
1.67325
1.65782
1.64263
1.62732
1.61276
1.59997
1.58938
1.58095
1.57499
1.5699
1.56571
1.56203
1.55924
1.557
1.55777
1.56243
1.57064
1.58236
1.598
1.61786
1.64212
1.67047
1.70148
1.73462
1.76393
1.79029
1.81299
1.83456
1.85329
1.87105
1.8868
1.90217
1.91584
1.92916
1.94074
1.9511
1.96017
1.9677
1.97414
1.9791
1.98334
1.98605
1.98844
1.98958
1.99105
1.99188
1.99904
0.2
0.2
0.2
0.2
0.2
0.2
0.2
0.2
0.2
0.2
0.2
0.200001
0.200001
0.200002
0.200003
0.200004
0.200006
0.200008
0.200011
0.200014
0.200019
0.200025
0.200032
0.200041
0.200052
0.200065
0.200081
0.200099
0.200121
0.200147
0.200176
0.20021
0.200248
0.200292
0.200339
0.200392
0.200449
0.200512
0.200579
0.200651
0.200727
0.200807
0.20089
0.200976
0.201064
0.201161
0.201273
0.201399
0.201541
0.201695
0.201864
0.202045
0.202233
0.202429
0.202634
0.202899
0.203265
0.203683
0.20416
0.204963
0.206006
0.206623
0.205697
0.526667
1.56243
1.80355
1.7712
1.74882
1.72434
1.70165
1.68308
1.66811
1.65264
1.63865
1.6245
1.60943
1.59522
1.58349
1.57367
1.566
1.56061
1.556
1.55191
1.54834
1.54506
1.54249
1.54292
1.54697
1.55461
1.56549
1.58018
1.59886
1.62185
1.64907
1.67953
1.71281
1.74366
1.77204
1.79637
1.81899
1.83825
1.85648
1.87269
1.88858
1.9028
1.91667
1.92887
1.93979
1.9495
1.95757
1.96446
1.96985
1.97438
1.97744
1.97998
1.98136
1.98305
1.98442
1.99125
0.2
0.2
0.2
0.2
0.2
0.2
0.2
0.2
0.2
0.2
0.200001
0.200001
0.200001
0.200002
0.200003
0.200004
0.200006
0.200009
0.200012
0.200016
0.200021
0.200028
0.200036
0.200047
0.200059
0.200074
0.200092
0.200114
0.200138
0.200167
0.2002
0.200237
0.200279
0.200325
0.200376
0.200432
0.200492
0.200556
0.200625
0.200698
0.200775
0.200855
0.200938
0.201023
0.201109
0.201202
0.201305
0.201418
0.201543
0.201685
0.201846
0.202019
0.202203
0.202406
0.202627
0.202878
0.203111
0.203338
0.203632
0.203994
0.204619
0.205407
0.214175
1.08653
1.74801
1.78315
1.73886
1.71794
1.6906
1.67023
1.65412
1.64159
1.63027
1.6182
1.60575
1.59224
1.57847
1.56778
1.55868
1.55174
1.54666
1.54188
1.53738
1.53343
1.52955
1.52701
1.52737
1.53147
1.53881
1.54893
1.56271
1.5803
1.60198
1.62794
1.65784
1.69109
1.72331
1.75383
1.77971
1.80325
1.82307