/*--------------------------------*- C++ -*----------------------------------*\
| =========                 |                                                 |
| \\      /  F ield         | OpenFOAM: The Open Source CFD Toolbox           |
|  \\    /   O peration     | Version:  2.2.x                                 |
|   \\  /    A nd           | Web:      www.OpenFOAM.org                      |
|    \\/     M anipulation  |                                                 |
\*---------------------------------------------------------------------------*/
FoamFile
{
    version     2.0;
    format      ascii;
    class       surfaceScalarField;
    location    "0.3";
    object      phi;
}
// * * * * * * * * * * * * * * * * * * * * * * * * * * * * * * * * * * * * * //

dimensions      [1 0 -1 0 0 0 0];

internalField   nonuniform List<scalar> 
28084
(
0.000746224
0.000742988
0.000740213
0.000737877
0.000735962
0.000734443
0.000733299
0.000732503
0.000732031
0.000731856
0.00073195
0.000732288
0.00073284
0.000733581
0.000734485
0.000735524
0.000736674
0.000737911
0.000739212
0.000740556
0.000741922
0.000743292
0.000744647
0.000745973
0.000747253
0.000748476
0.000749628
0.0007507
0.000751681
0.000752564
0.000753339
0.000754001
0.000754544
0.000754964
0.000755254
0.000755412
0.000755433
0.000755313
0.000755051
0.000754642
0.000754086
0.000753379
0.000752518
0.000751501
0.000750325
0.000759592
0.000769213
0.000779142
0.000789338
0.000799766
0.000810359
0.000821057
0.000831836
0.000842678
0.000853527
0.000864306
0.000874954
0.000885444
0.000895692
0.000905671
0.00091528
0.000924533
0.000933519
0.000942244
0.000950584
0.000958198
0.000964886
0.000970636
0.000975973
0.000980457
0.000984114
0.000987108
0.000991702
0.000915128
0.000948169
0.00103951
0.00112545
0.00117685
0.00121582
0.00123964
0.00124489
0.00123869
0.00122856
0.00120575
0.00115778
0.00110014
0.00102405
0.000945035
0.000872706
0.000811559
0.000760481
0.000715551
0.000674542
0.000636946
0.000602883
0.000572366
0.000543428
0.000516054
0.00049119
0.000469107
0.000447896
0.00042712
0.000406669
0.000386689
0.00036699
0.000347524
0.000327377
0.000305395
0.000282516
0.000260919
0.000239616
0.000218044
0.000195183
0.000171082
0.000143478
0.000114468
8.26434e-05
4.75676e-05
3.7119e-06
3.23513e-06
0.00074974
2.77572e-06
0.000748785
2.33538e-06
0.000748259
1.91574e-06
0.000748147
1.51833e-06
0.000748429
1.14451e-06
0.000749083
7.95451e-07
0.000750087
4.72133e-07
0.000751415
1.7529e-07
0.000753039
-9.45808e-08
0.000754933
-3.37228e-07
0.000757068
-5.52644e-07
0.000759414
-7.41058e-07
0.000761942
-9.02925e-07
0.000764622
-1.0389e-06
0.000767426
-1.14982e-06
0.000770326
-1.23669e-06
0.000773293
-1.30064e-06
0.000776301
-1.34292e-06
0.000779326
-1.36483e-06
0.000782344
-1.36777e-06
0.000785333
-1.35309e-06
0.000788272
-1.32228e-06
0.000791143
-1.27663e-06
0.000793928
-1.21766e-06
0.000796613
-1.14641e-06
0.000799182
-1.06456e-06
0.000801624
-9.72678e-07
0.000803928
-8.72615e-07
0.000806083
-7.64565e-07
0.000808083
-6.50032e-07
0.000809919
-5.29381e-07
0.000811587
-4.04417e-07
0.00081308
-2.73561e-07
0.000814394
-1.40103e-07
0.000815525
-2.63097e-09
0.00081647
1.3812e-07
0.000817227
2.81459e-07
0.000817795
4.27837e-07
0.00081817
5.76591e-07
0.000818352
7.27433e-07
0.000818339
8.80866e-07
0.000818128
1.0364e-06
0.000817719
1.19504e-06
0.00081711
-9.2464e-06
0.000816301
-9.59735e-06
0.000825073
-9.90672e-06
0.000834175
-1.01729e-05
0.000843563
-1.0391e-05
0.000853185
-1.05642e-05
0.000863009
-1.06895e-05
0.000872993
-1.07729e-05
0.000883055
-1.08031e-05
0.000893191
-1.07954e-05
0.00090334
-1.07282e-05
0.000913489
-1.06098e-05
0.000923535
-1.04543e-05
0.000933447
-1.02334e-05
0.00094317
-9.97151e-06
0.000952637
-9.65542e-06
0.000961811
-9.31724e-06
0.000970605
-8.92232e-06
0.000979078
-8.46341e-06
0.000987272
-7.96233e-06
0.000994949
-7.39401e-06
0.00100228
-6.86786e-06
0.00100915
-6.28908e-06
0.00101507
-5.57545e-06
0.00101996
-4.68397e-06
0.0010245
-3.62317e-06
0.00102835
-3.18682e-06
0.00103177
-5.24141e-06
0.00103463
9.34694e-06
0.0010426
-6.1538e-05
0.00100411
-9.1732e-05
0.00106338
-7.7459e-05
0.00116057
-4.74931e-05
0.00123714
-2.69623e-05
0.00127801
-1.07539e-05
0.00130352
-2.96501e-06
0.00132035
8.47112e-06
0.00131919
1.20279e-05
0.00131034
2.52342e-05
0.00129662
5.14511e-05
0.00127423
6.2461e-05
0.00122706
8.58608e-05
0.00116163
8.63536e-05
0.00108927
7.35186e-05
0.00100971
6.1017e-05
0.000929598
5.15937e-05
0.000860953
4.48137e-05
0.000803472
3.90943e-05
0.000753281
3.43869e-05
0.000708145
3.09857e-05
0.000666998
2.88974e-05
0.000629556
2.81929e-05
0.000595672
2.7643e-05
0.000563416
2.62975e-05
0.000533204
2.45759e-05
0.00050636
2.35758e-05
0.000482635
2.2662e-05
0.000459888
2.17316e-05
0.000437684
2.07864e-05
0.000415964
2.0109e-05
0.000394872
1.94505e-05
0.000374147
1.91651e-05
0.000353673
1.90385e-05
0.000332445
1.93639e-05
0.000309268
1.98362e-05
0.000285323
2.1011e-05
0.00026272
2.23122e-05
0.000240521
2.45152e-05
0.000218145
2.61011e-05
0.000194677
2.89993e-05
0.000170301
2.9247e-05
0.000142996
3.05899e-05
0.000113447
3.16166e-05
8.03882e-05
4.30083e-05
4.3455e-05
5.11203e-06
4.19073e-06
0.000754435
3.30115e-06
0.00075573
2.44751e-06
0.000757426
1.63381e-06
0.00075951
8.63806e-07
0.000761963
1.40861e-07
0.000764765
-5.32087e-07
0.000767892
-1.1526e-06
0.000771318
-1.71876e-06
0.000775016
-2.22922e-06
0.000778956
-2.68321e-06
0.000783108
-3.08049e-06
0.00078744
-3.4214e-06
0.000791922
-3.70677e-06
0.00079652
-3.93791e-06
0.000801205
-4.11654e-06
0.000805944
-4.24476e-06
0.000810708
-4.325e-06
0.000815469
-4.35987e-06
0.0008202
-4.35224e-06
0.000824874
-4.30507e-06
0.000829468
-4.22137e-06
0.00083396
-4.10423e-06
0.00083833
-3.95668e-06
0.000842559
-3.78165e-06
0.000846632
-3.58197e-06
0.000850533
-3.3606e-06
0.000854251
-3.11957e-06
0.000857773
-2.86207e-06
0.000861091
-2.58883e-06
0.000864195
-2.30428e-06
0.000867081
-2.00738e-06
0.000869742
-1.70228e-06
0.000872174
-1.38768e-06
0.000874372
-1.06731e-06
0.000876335
-7.40822e-07
0.00087806
-4.08512e-07
0.000879546
-7.28152e-08
0.000880793
2.67049e-07
0.000881798
6.11305e-07
0.000882562
9.59461e-07
0.000883084
1.31076e-06
0.000883364
1.66606e-06
0.000883401
2.02478e-06
0.000883196
-1.79944e-05
0.00088275
-1.86745e-05
0.000891018
-1.92676e-05
0.000899593
-1.97743e-05
0.000908426
-2.01892e-05
0.000917476
-2.05102e-05
0.000926705
-2.07422e-05
0.000936057
-2.0884e-05
0.000945488
-2.09219e-05
0.000954953
-2.0882e-05
0.000964423
-2.0731e-05
0.00097386
-2.04721e-05
0.000983138
-2.01383e-05
0.000992227
-1.96817e-05
0.00100122
-1.91419e-05
0.00100999
-1.85076e-05
0.00101834
-1.77995e-05
0.00102626
-1.69937e-05
0.00103399
-1.60573e-05
0.00104135
-1.50721e-05
0.00104806
-1.39871e-05
0.00105439
-1.28624e-05
0.00106028
-1.16628e-05
0.00106542
-1.02608e-05
0.00106965
-8.66323e-06
0.00107312
-7.03409e-06
0.00107666
-6.13869e-06
0.00107935
-1.3773e-05
0.00108243
-2.23617e-05
0.00109784
-0.000151114
0.0011302
-0.000182953
0.00124998
-0.000147395
0.00133549
-8.43709e-05
0.00137853
-4.26417e-05
0.00140176
-1.3704e-05
0.0014112
3.5838e-06
0.00141726
2.18693e-05
0.00140858
2.76179e-05
0.00139347
4.9736e-05
0.00136774
0.000102052
0.00133646
0.000132428
0.00129006
0.000168275
0.00122164
0.000173013
0.00115106
0.000154835
0.0010777
0.000129028
0.00100326
0.000108887
0.000931136
9.43315e-05
0.000865989
8.22184e-05
0.000807705
7.26588e-05
0.000755317
6.56788e-05
0.000707898
6.12523e-05
0.000665193
5.96587e-05
0.000626773
5.80237e-05
0.000590515
5.4514e-05
0.000557014
5.0742e-05
0.000527545
4.8697e-05
0.00050133
4.67108e-05
0.000475932
4.47263e-05
0.000451042
4.27343e-05
0.000426497
4.13182e-05
0.000402496
3.99623e-05
0.000379433
3.93776e-05
0.000356808
3.91164e-05
0.000333432
3.9743e-05
0.000308283
4.06784e-05
0.000283056
4.29386e-05
0.000259349
4.5401e-05
0.000236221
4.96278e-05
0.000212979
5.24035e-05
0.000188874
5.76807e-05
0.000164054
5.89246e-05
0.000137047
6.22254e-05
0.000108024
6.5275e-05
7.56925e-05
8.21357e-05
4.01329e-05
4.23053e-06
2.89594e-06
0.000760308
1.6045e-06
0.000763821
3.63709e-07
0.000767708
-8.19269e-07
0.000771957
-1.93779e-06
0.000776551
-2.98585e-06
0.000781471
-3.95817e-06
0.000786692
-4.85036e-06
0.000792189
-5.6589e-06
0.000797933
-6.38124e-06
0.000803893
-7.01579e-06
0.000810036
-7.56193e-06
0.00081633
-8.01993e-06
0.000822741
-8.39096e-06
0.000829233
-8.67696e-06
0.000835774
-8.88062e-06
0.000842331
-9.00521e-06
0.00084887
-9.05457e-06
0.000855362
-9.0329e-06
0.000861776
-8.94482e-06
0.000868085
-8.79502e-06
0.000874265
-8.58852e-06
0.00088029
-8.3301e-06
0.00088614
-8.02493e-06
0.000891795
-7.67739e-06
0.000897239
-7.29266e-06
0.000902456
-6.87457e-06
0.000907432
-6.42778e-06
0.000912157
-5.95577e-06
0.000916622
-5.46204e-06
0.000920818
-4.95083e-06
0.00092474
-4.42328e-06
0.000928381
-3.88359e-06
0.00093174
-3.33249e-06
0.000934811
-2.77294e-06
0.000937595
-2.20633e-06
0.00094009
-1.63357e-06
0.000942295
-1.05511e-06
0.000944211
-4.73806e-07
0.000945838
1.12315e-07
0.000947176
7.02439e-07
0.000948226
1.29562e-06
0.00094899
1.89371e-06
0.000949467
2.49513e-06
0.00094966
-2.62373e-05
0.00094957
-2.72213e-05
0.000957329
-2.80745e-05
0.00096537
-2.87985e-05
0.000973648
-2.93852e-05
0.000982119
-2.98373e-05
0.000990735
-3.01492e-05
0.000999454
-3.03217e-05
0.00100824
-3.03498e-05
0.00101704
-3.02505e-05
0.00102581
-2.99835e-05
0.00103452
-2.95876e-05
0.00104301
-2.90477e-05
0.00105142
-2.83356e-05
0.0010596
-2.75089e-05
0.00106754
-2.65492e-05
0.0010751
-2.54316e-05
0.00108228
-2.41891e-05
0.00108921
-2.27813e-05
0.0010956
-2.13056e-05
0.00110136
-1.97187e-05
0.00110677
-1.79793e-05
0.00111172
-1.61276e-05
0.00111594
-1.41203e-05
0.00111946
-1.18125e-05
0.00112223
-9.7756e-06
0.0011255
-9.27937e-06
0.00112728
-3.15354e-05
0.00113069
-0.000136338
0.00115376
-0.000311734
0.00125701
-0.000256969
0.00139499
-0.000180513
0.00146575
-0.000100828
0.0014828
-4.67374e-05
0.00150298
-2.38732e-06
0.00149517
1.78907e-05
0.00149585
4.36169e-05
0.00147853
5.66701e-05
0.00146
8.3761e-05
0.00141471
0.00015227
0.00135777
0.000206601
0.00129514
0.000246952
0.00122559
0.000251552
0.00116418
0.00023161
0.00110168
0.00020064
0.00103748
0.000173219
0.000969871
0.000151089
0.000904004
0.000131758
0.000843603
0.000116826
0.000788374
0.000105602
0.000737409
9.81816e-05
0.00069052
9.5181e-05
0.000647394
9.16678e-05
0.000607066
8.54024e-05
0.000570394
7.94915e-05
0.000538365
7.64026e-05
0.000509701
7.33879e-05
0.000482305
7.04567e-05
0.000456022
6.7533e-05
0.000430759
6.49857e-05
0.000406402
6.27253e-05
0.000382774
6.15242e-05
0.000359441
6.07676e-05
0.000334978
6.14873e-05
0.000308661
6.26475e-05
0.000282648
6.58314e-05
0.000258161
6.92584e-05
0.00023422
7.53246e-05
0.000210275
7.90243e-05
0.000185647
8.61355e-05
0.000160374
8.79549e-05
0.000133377
9.30033e-05
0.000104648
9.75468e-05
7.27957e-05
0.000117997
3.80808e-05
1.10116e-06
-6.16603e-07
0.000767362
-2.2826e-06
0.000773056
-3.88528e-06
0.000779098
-5.41361e-06
0.000785478
-6.85736e-06
0.00079218
-8.20725e-06
0.000799185
-9.45512e-06
0.000806469
-1.05941e-05
0.000814006
-1.16187e-05
0.000821766
-1.25248e-05
0.000829715
-1.33097e-05
0.000837821
-1.39723e-05
0.000846048
-1.45125e-05
0.000854359
-1.49319e-05
0.000862719
-1.52331e-05
0.00087109
-1.54196e-05
0.000879437
-1.54962e-05
0.000887726
-1.54681e-05
0.000895923
-1.53413e-05
0.000903997
-1.51225e-05
0.000911919
-1.48182e-05
0.000919661
-1.44357e-05
0.000927197
-1.39818e-05
0.000934506
-1.34638e-05
0.000941567
-1.28881e-05
0.000948361
-1.22622e-05
0.000954874
-1.15911e-05
0.000961091
-1.08824e-05
0.000967002
-1.01399e-05
0.000972597
-9.37031e-06
0.000977868
-8.57695e-06
0.00098281
-7.76481e-06
0.000987417
-6.9367e-06
0.000991688
-6.0968e-06
0.00099562
-5.24648e-06
0.000999213
-4.38906e-06
0.00100247
-3.52612e-06
0.00100538
-2.65767e-06
0.00100795
-1.78722e-06
0.00101019
-9.13218e-07
0.0010121
-3.66035e-08
0.00101367
8.4231e-07
0.00101491
1.72527e-06
0.00101582
2.61071e-06
0.0010164
-3.39688e-05
0.00101666
-3.52326e-05
0.00102391
-3.63219e-05
0.00103141
-3.72387e-05
0.00103912
-3.79737e-05
0.001047
-3.85308e-05
0.001055
-3.89013e-05
0.0010631
-3.9084e-05
0.00107123
-3.90799e-05
0.00107933
-3.8893e-05
0.00108741
-3.85013e-05
0.00109537
-3.79247e-05
0.00110313
-3.71669e-05
0.00111072
-3.62055e-05
0.00111812
-3.50744e-05
0.00112532
-3.37422e-05
0.0011321
-3.22238e-05
0.00113847
-3.05363e-05
0.00114452
-2.86651e-05
0.00115001
-2.66451e-05
0.00115485
-2.44889e-05
0.00115929
-2.21757e-05
0.00116339
-1.9694e-05
0.0011667
-1.71695e-05
0.00116933
-1.43483e-05
0.00117131
-1.1799e-05
0.00117326
-1.3488e-05
0.00117563
-5.90266e-05
0.00118173
-0.00033047
0.00122807
-0.000516435
0.00138985
-0.000321085
0.0014216
-0.000188352
0.00150171
-0.000107237
0.00154104
-3.76551e-05
0.00155509
1.5755e-05
0.00154299
3.64898e-05
0.00153685
6.65244e-05
0.00150666
0.000106359
0.00147155
0.000143457
0.00141219
0.000217563
0.00133355
0.000282917
0.00125414
0.000315405
0.00118905
0.000317935
0.00113286
0.000297666
0.0010792
0.000267592
0.00102425
0.000237704
0.000964368
0.00021008
0.000907545
0.000184544
0.000853702
0.000164736
0.000802308
0.000149944
0.000753012
0.000139927
0.000706812
0.000134859
0.000663825
0.00012862
0.000623263
0.000118804
0.00058665
0.000110264
0.000554281
0.000105649
0.000524123
0.000101134
0.000494625
9.67797e-05
0.000466313
9.26449e-05
0.000439217
8.92675e-05
0.000413316
8.61704e-05
0.000388337
8.45096e-05
0.000363601
8.3408e-05
0.000337537
8.41752e-05
0.000309714
8.54973e-05
0.000282665
8.95369e-05
0.000257147
9.378e-05
0.000232359
0.000101478
0.000207672
0.000105987
0.000182427
0.000114508
0.000156676
0.000116653
0.000129569
0.000123287
0.00010111
0.00012888
6.9864e-05
0.000151967
3.59247e-05
-4.23855e-06
-6.31051e-06
0.0007756
-8.32484e-06
0.000783435
-1.02651e-05
0.000791593
-1.21158e-05
0.000800066
-1.38623e-05
0.000808839
-1.54915e-05
0.000817893
-1.69919e-05
0.000827205
-1.83535e-05
0.000836747
-1.95684e-05
0.000846488
-2.06308e-05
0.000856394
-2.15365e-05
0.00086643
-2.22836e-05
0.000876558
-2.28719e-05
0.000886739
-2.3303e-05
0.000896935
-2.35801e-05
0.000907106
-2.37081e-05
0.000917215
-2.36928e-05
0.000927225
-2.35413e-05
0.0009371
-2.32617e-05
0.000946806
-2.28624e-05
0.000956313
-2.23526e-05
0.000965592
-2.17415e-05
0.000974614
-2.10386e-05
0.000983358
-2.02533e-05
0.000991801
-1.93948e-05
0.000999924
-1.84719e-05
0.00100771
-1.74929e-05
0.00101515
-1.64664e-05
0.00102222
-1.53986e-05
0.00102893
-1.4298e-05
0.00103526
-1.31684e-05
0.0010412
-1.2018e-05
0.00104676
-1.08492e-05
0.00105193
-9.66791e-06
0.00105671
-8.47648e-06
0.00106109
-7.27873e-06
0.00106509
-6.07621e-06
0.0010687
-4.8711e-06
0.00107192
-3.6647e-06
0.00107476
-2.45777e-06
0.00107722
-1.25065e-06
0.00107931
-4.30215e-08
0.00108102
1.16619e-06
0.00108236
2.37684e-06
0.00108333
-4.11838e-05
0.00108393
-4.27015e-05
0.00109065
-4.4003e-05
0.0010976
-4.5086e-05
0.00110474
-4.59482e-05
0.00111204
-4.65848e-05
0.00111943
-4.69914e-05
0.00112688
-4.71668e-05
0.00113436
-4.71004e-05
0.00114177
-4.68068e-05
0.0011491
-4.62714e-05
0.00115633
-4.55068e-05
0.00116336
-4.45086e-05
0.00117019
-4.32647e-05
0.00117683
-4.17973e-05
0.00118316
-4.00968e-05
0.00118912
-3.81733e-05
0.00119472
-3.60058e-05
0.0011999
-3.3646e-05
0.00120445
-3.10947e-05
0.00120844
-2.83587e-05
0.00121201
-2.54343e-05
0.00121517
-2.23384e-05
0.00121751
-1.91306e-05
0.00121922
-1.57803e-05
0.00122041
-1.32057e-05
0.00122192
-1.91549e-05
0.00122416
-0.000108847
0.0012345
-0.000550587
0.00131845
-0.000611119
0.00139315
-0.0004095
0.00139177
-0.000221527
0.00146697
-0.000104768
0.00153124
-2.7669e-05
0.00156014
3.6653e-05
0.00153974
6.45422e-05
0.00152772
0.000104275
0.00148037
0.000172042
0.00142131
0.000225376
0.0013434
0.000298771
0.00125344
0.000354015
0.00118646
0.00037666
0.00113567
0.000374055
0.00108935
0.00035288
0.00104395
0.000326087
0.00099488
0.00029334
0.000942749
0.00026297
0.000893344
0.000234436
0.00084651
0.000211595
0.000800767
0.000193699
0.000755766
0.000181714
0.000711577
0.00017494
0.000668574
0.000165541
0.000628407
0.000152347
0.000592477
0.000141977
0.000559678
0.000136383
0.000528115
0.000130399
0.00049722
0.000124687
0.000467728
0.000119225
0.000439388
0.00011494
0.000412249
0.00011092
0.000385909
0.000108867
0.000359623
0.000107307
0.000332124
0.000108115
0.000303131
0.000109511
0.000275334
0.000114202
0.000249064
0.000119083
0.000223678
0.000128182
0.000198661
0.000133325
0.000173747
0.000142731
0.000148509
0.000145007
0.000122263
0.000153092
9.47128e-05
0.000159324
6.48076e-05
0.000183987
3.28182e-05
-1.17471e-05
-1.41455e-05
0.000785028
-1.64831e-05
0.00079496
-1.87378e-05
0.000805191
-2.08888e-05
0.000815714
-2.29165e-05
0.000826517
-2.48033e-05
0.000837581
-2.65338e-05
0.000848881
-2.80945e-05
0.000860389
-2.94749e-05
0.000872075
-3.06667e-05
0.000883901
-3.16643e-05
0.000895831
-3.24647e-05
0.000907824
-3.30674e-05
0.00091984
-3.34742e-05
0.000931838
-3.36889e-05
0.000943776
-3.37174e-05
0.000955614
-3.35672e-05
0.000967313
-3.32472e-05
0.000978834
-3.27675e-05
0.000990144
-3.2139e-05
0.00100121
-3.13731e-05
0.00101199
-3.04819e-05
0.00102247
-2.94773e-05
0.00103263
-2.83712e-05
0.00104242
-2.71756e-05
0.00105185
-2.59014e-05
0.00106089
-2.456e-05
0.00106952
-2.31609e-05
0.00107774
-2.17137e-05
0.00108554
-2.02278e-05
0.0010929
-1.87091e-05
0.00109983
-1.71676e-05
0.00110632
-1.5606e-05
0.00111237
-1.40329e-05
0.00111798
-1.245e-05
0.00112314
-1.08633e-05
0.00112787
-9.27357e-06
0.00113216
-7.68508e-06
0.00113602
-6.09734e-06
0.00113945
-4.51325e-06
0.00114246
-2.93127e-06
0.00114504
-1.35347e-06
0.00114721
2.24468e-07
0.00114897
1.79884e-06
0.00115032
-4.78755e-05
0.00115126
-4.96232e-05
0.00115745
-5.11121e-05
0.00116386
-5.23424e-05
0.00117042
-5.33027e-05
0.00117712
-5.39957e-05
0.00118389
-5.44146e-05
0.0011907
-5.4551e-05
0.00119751
-5.4413e-05
0.00120423
-5.39903e-05
0.00121085
-5.3286e-05
0.00121732
-5.2311e-05
0.00122361
-5.10683e-05
0.00122978
-4.9514e-05
0.00123557
-4.76896e-05
0.00124098
-4.55934e-05
0.00124612
-4.32298e-05
0.00125092
-4.06199e-05
0.00125519
-3.77753e-05
0.00125888
-3.46378e-05
0.00126212
-3.13086e-05
0.0012648
-2.77594e-05
0.00126688
-2.40387e-05
0.0012683
-2.02092e-05
0.00126899
-1.64121e-05
0.00126939
-1.4552e-05
0.00126942
-2.86057e-05
0.0012693
-0.000203194
0.00128245
-0.00066154
0.0013806
-0.000642685
0.00140471
-0.000507553
0.00143345
-0.000281527
0.00147817
-0.000122463
0.00153843
-1.85899e-05
0.00153289
5.35775e-05
0.00150418
0.000110287
0.00147184
0.000166
0.00139331
0.000256374
0.00129872
0.000318011
0.00122422
0.000369114
0.00115799
0.000409339
0.00110853
0.000425756
0.00106943
0.000420101
0.00103355
0.000400749
0.000996312
0.000376227
0.000954819
0.000341476
0.000913476
0.000308916
0.000871868
0.000279332
0.000830992
0.000255328
0.000789293
0.000235943
0.000747575
0.00022325
0.000706279
0.00021474
0.000666034
0.000201911
0.000628922
0.00018603
0.000596034
0.000174611
0.000565224
0.000167948
0.000534019
0.000160315
0.000502692
0.000153394
0.000472467
0.000146759
0.000443143
0.000141679
0.00041458
0.000136956
0.00038643
0.000134434
0.00035829
0.000132327
0.000328756
0.000133165
0.00029845
0.000134527
0.000269905
0.000139679
0.000243065
0.000144792
0.000217232
0.000154436
0.00019188
0.000160092
0.000166833
0.000169788
0.00014169
0.000172177
0.000116053
0.000181628
8.92575e-05
0.000187956
6.05352e-05
0.000213266
3.03201e-05
-2.13788e-05
-2.40774e-05
0.000795653
-2.67144e-05
0.000807633
-2.92614e-05
0.00081989
-3.16915e-05
0.000832419
-3.39798e-05
0.000845207
-3.61035e-05
0.000858235
-3.80425e-05
0.000871481
-3.97797e-05
0.000884914
-4.13012e-05
0.000898502
-4.25963e-05
0.000912208
-4.36576e-05
0.000925991
-4.44808e-05
0.000939811
-4.50651e-05
0.000953624
-4.54122e-05
0.000967386
-4.55267e-05
0.000981054
-4.54157e-05
0.000994586
-4.50883e-05
0.00100794
-4.45554e-05
0.00102107
-4.38293e-05
0.00103395
-4.29235e-05
0.00104654
-4.18521e-05
0.0010588
-4.06299e-05
0.00107071
-3.92718e-05
0.00108224
-3.77924e-05
0.00109336
-3.62064e-05
0.00110407
-3.45277e-05
0.00111433
-3.27698e-05
0.00112413
-3.09448e-05
0.00113347
-2.90649e-05
0.00114233
-2.71405e-05
0.00115071
-2.51808e-05
0.0011586
-2.31961e-05
0.001166
-2.11912e-05
0.00117291
-1.91763e-05
0.00117933
-1.71524e-05
0.00118526
-1.51292e-05
0.0011907
-1.31048e-05
0.00119566
-1.10875e-05
0.00120014
-9.07346e-06
0.00120415
-7.06925e-06
0.00120769
-5.06964e-06
0.00121077
-3.08094e-06
0.00121339
-1.09402e-06
0.00121555
8.83864e-07
0.00121727
-5.40402e-05
0.00121854
-5.5995e-05
0.00122421
-5.76462e-05
0.00123006
-5.89967e-05
0.00123606
-6.00341e-05
0.00124215
-6.07577e-05
0.00124829
-6.11629e-05
0.00125446
-6.12457e-05
0.00126058
-6.10049e-05
0.00126661
-6.04456e-05
0.0012725
-5.95581e-05
0.00127827
-5.83474e-05
0.00128386
-5.68e-05
0.00128921
-5.49311e-05
0.00129417
-5.27473e-05
0.00129877
-5.02413e-05
0.00130303
-4.74475e-05
0.00130694
-4.43616e-05
0.00131043
-4.09732e-05
0.00131336
-3.72895e-05
0.00131568
-3.33671e-05
0.00131736
-2.9184e-05
0.00131851
-2.48433e-05
0.0013189
-2.04205e-05
0.00131876
-1.61677e-05
0.00131793
-1.47989e-05
0.00131653
-4.36214e-05
0.00131675
-0.000339727
0.00134272
-0.000713267
0.00143771
-0.000675897
0.00143492
-0.000574852
0.00144884
-0.000344965
0.0014669
-0.000120839
0.00149408
3.68091e-06
0.00148349
9.00024e-05
0.00142807
0.000188939
0.00134526
0.000263546
0.00125819
0.000335944
0.00118256
0.000388183
0.00112623
0.000422465
0.00107791
0.000451414
0.00103834
0.000462442
0.00100598
0.000456569
0.000975345
0.000440848
0.000944158
0.000416328
0.000910416
0.000382714
0.000876908
0.000349286
0.000841653
0.000319724
0.000806344
0.000295321
0.000769701
0.00027532
0.000731602
0.000262198
0.000692084
0.000251722
0.000653069
0.000235697
0.000617607
0.000218089
0.000585991
0.000206873
0.000555365
0.000199796
0.000523898
0.000190635
0.00049302
0.000182728
0.000463402
0.000175387
0.000434381
0.000169898
0.00040598
0.000164581
0.000377891
0.000161722
0.000349707
0.000158973
0.000320005
0.000159404
0.000290577
0.000160471
0.00026256
0.000165827
0.000236036
0.00017083
0.000210246
0.000180659
0.000184838
0.000186564
0.000159698
0.000196052
0.000134591
0.000198242
0.000109416
0.000208746
8.32351e-05
0.000215201
5.57004e-05
0.000240634
2.73859e-05
-3.30838e-05
-3.60577e-05
0.000807485
-3.89715e-05
0.000821461
-4.17898e-05
0.000835692
-4.44792e-05
0.000850176
-4.70084e-05
0.000864899
-4.9349e-05
0.000879845
-5.14759e-05
0.000894989
-5.33677e-05
0.000910301
-5.50069e-05
0.000925746
-5.63799e-05
0.000941287
-5.74773e-05
0.000956881
-5.82937e-05
0.000972484
-5.88273e-05
0.000988052
-5.90802e-05
0.00100354
-5.90576e-05
0.0010189
-5.87678e-05
0.00103408
-5.82217e-05
0.00104905
-5.74324e-05
0.00106376
-5.64145e-05
0.00107817
-5.51843e-05
0.00109224
-5.37589e-05
0.00110594
-5.21559e-05
0.00111925
-5.03935e-05
0.00113212
-4.84892e-05
0.00114454
-4.64609e-05
0.00115649
-4.43249e-05
0.00116795
-4.20981e-05
0.0011789
-3.97946e-05
0.00118933
-3.74299e-05
0.00119923
-3.5015e-05
0.0012086
-3.25638e-05
0.00121743
-3.00841e-05
0.00122572
-2.75878e-05
0.00123347
-2.50802e-05
0.00124068
-2.25694e-05
0.00124735
-2.00607e-05
0.00125349
-1.75572e-05
0.0012591
-1.50648e-05
0.00126419
-1.25819e-05
0.00126876
-1.01143e-05
0.00127282
-7.65665e-06
0.00127637
-5.21559e-06
0.00127943
-2.78227e-06
0.001282
-3.61496e-07
0.00128408
-5.96754e-05
0.00128568
-6.18116e-05
0.00129081
-6.36007e-05
0.00129611
-6.5045e-05
0.00130153
-6.61336e-05
0.00130701
-6.68663e-05
0.00131252
-6.72375e-05
0.00131802
-6.72475e-05
0.00132347
-6.68909e-05
0.00132883
-6.6161e-05
0.00133404
-6.50572e-05
0.00133906
-6.35894e-05
0.00134385
-6.17416e-05
0.00134844
-5.95319e-05
0.00135262
-5.6969e-05
0.00135636
-5.40575e-05
0.00135976
-5.08082e-05
0.00136285
-4.72372e-05
0.00136548
-4.32773e-05
0.00136765
-3.90095e-05
0.00136901
-3.44769e-05
0.00136972
-2.96984e-05
0.00136993
-2.46706e-05
0.00136953
-1.94415e-05
0.00136852
-1.45361e-05
0.00136687
-1.51545e-05
0.00136522
-7.28495e-05
0.00136911
-0.000497282
0.00143609
-0.000717755
0.00147032
-0.000683264
0.00146417
-0.000604092
0.00145423
-0.000373137
0.00143615
-0.000116408
0.00141726
5.65595e-05
0.00136711
0.000174952
0.00129351
0.000276055
0.00121578
0.000343719
0.00115219
0.0003972
0.00109658
0.000439462
0.00105162
0.000464396
0.0010129
0.000484561
0.000978145
0.000491424
0.000950156
0.000485445
0.000923654
0.000472375
0.000896245
0.000448328
0.000868144
0.000417499
0.000839862
0.000384134
0.00080985
0.000355746
0.000778649
0.000332441
0.00074584
0.00031339
0.000711341
0.00029983
0.000675427
0.000286549
0.000640238
0.00026755
0.000608302
0.000249656
0.000577945
0.000239255
0.000546329
0.000231384
0.000513329
0.000220653
0.000481645
0.000212033
0.000451048
0.000204023
0.000421291
0.000197966
0.000392599
0.000191841
0.00036448
0.00018831
0.000336234
0.000185117
0.000306808
0.000185579
0.000278214
0.000186512
0.000251089
0.000192097
0.000225475
0.000196849
0.000200393
0.000206717
0.000175602
0.000212693
0.000150969
0.000221658
0.000126377
0.000223405
0.000102056
0.000234376
7.68271e-05
0.00024098
5.08227e-05
0.000265728
2.47146e-05
-4.68079e-05
-5.00336e-05
0.000820535
-5.3203e-05
0.000836449
-5.6273e-05
0.000852599
-5.92028e-05
0.000868983
-6.19543e-05
0.000885589
-6.44928e-05
0.0009024
-6.67879e-05
0.000919391
-6.88132e-05
0.000936531
-7.05474e-05
0.000953785
-7.19738e-05
0.000971112
-7.30807e-05
0.000988469
-7.38612e-05
0.00100581
-7.43128e-05
0.00102309
-7.44377e-05
0.00104025
-7.4242e-05
0.00105725
-7.37351e-05
0.00107405
-7.29297e-05
0.00109059
-7.18413e-05
0.00110683
-7.04872e-05
0.00112273
-6.88866e-05
0.00113825
-6.70596e-05
0.00115336
-6.50272e-05
0.00116802
-6.28108e-05
0.00118221
-6.04311e-05
0.00119589
-5.79094e-05
0.00120905
-5.5265e-05
0.00122167
-5.2518e-05
0.00123373
-4.96848e-05
0.00124522
-4.67841e-05
0.00125614
-4.38286e-05
0.00126647
-4.08349e-05
0.00127621
-3.78121e-05
0.00128537
-3.47744e-05
0.00129393
-3.17276e-05
0.00130191
-2.86824e-05
0.00130931
-2.56431e-05
0.00131613
-2.26159e-05
0.00132237
-1.96041e-05
0.00132805
-1.66105e-05
0.00133317
-1.3637e-05
0.00133773
-1.0682e-05
0.00134176
-7.74776e-06
0.00134524
-4.83057e-06
0.0013482
-1.92838e-06
0.00135063
-6.47779e-05
0.00135255
-6.70692e-05
0.00135715
-6.8971e-05
0.00136189
-7.04865e-05
0.00136671
-7.16046e-05
0.00137159
-7.23268e-05
0.00137647
-7.26447e-05
0.00138132
-7.25553e-05
0.00138613
-7.20503e-05
0.00139079
-7.11306e-05
0.00139529
-6.97956e-05
0.00139957
-6.80438e-05
0.00140357
-6.58897e-05
0.00140733
-6.33306e-05
0.0014108
-6.03685e-05
0.00141373
-5.70189e-05
0.00141628
-5.32942e-05
0.0014185
-4.91755e-05
0.00142029
-4.46924e-05
0.00142152
-3.98358e-05
0.00142203
-3.46858e-05
0.0014218
-2.92336e-05
0.00142124
-2.34805e-05
0.00142007
-1.7605e-05
0.00141843
-1.2479e-05
0.00141586
-1.92236e-05
0.00141428
-0.000148276
0.00142332
-0.000600534
0.00148986
-0.00071202
0.00152492
-0.000675899
0.00150604
-0.000596447
0.00147358
-0.000357547
0.00141519
-7.35785e-05
0.00133408
0.000131213
0.0012448
0.00025592
0.00117771
0.000342271
0.00112218
0.000403012
0.00107642
0.000443816
0.00103552
0.000478665
0.000997287
0.000498762
0.000964686
0.000511634
0.000933996
0.000515733
0.000906994
0.000510179
0.000882579
0.000498831
0.000857985
0.000476552
0.000833825
0.0004487
0.000808002
0.000416508
0.0007793
0.000389
0.000747638
0.00036617
0.000714469
0.000347821
0.000680683
0.000333746
0.000647458
0.000317705
0.000616778
0.000297706
0.000589057
0.000281832
0.000561565
0.000273088
0.000532068
0.000263964
0.000502235
0.000251762
0.000473455
0.000242086
0.000445089
0.000232767
0.000416081
0.000225759
0.00038714
0.000218547
0.000358109
0.000214419
0.000328471
0.00021096
0.000298195
0.000211298
0.000269374
0.000211986
0.000242154
0.000217733
0.000216411
0.0002221
0.000191347
0.000232
0.000166839
0.000237899
0.000142573
0.000246058
0.000118571
0.000247365
9.50712e-05
0.000258364
7.07262e-05
0.000265026
4.62132e-05
0.000288755
2.22248e-05
-6.24921e-05
-6.59478e-05
0.000834816
-6.93531e-05
0.000852607
-7.26565e-05
0.000870615
-7.58091e-05
0.00088884
-7.87653e-05
0.000907271
-8.14839e-05
0.000925891
-8.39282e-05
0.000944674
-8.6067e-05
0.000963588
-8.78744e-05
0.000982597
-8.93305e-05
0.00100166
-9.0421e-05
0.00102073
-9.11374e-05
0.00103975
-9.14767e-05
0.00105869
-9.14408e-05
0.00107748
-9.10366e-05
0.00109608
-9.02751e-05
0.00111444
-8.9171e-05
0.00113251
-8.7742e-05
0.00115024
-8.60083e-05
0.00116759
-8.39923e-05
0.00118452
-8.17173e-05
0.00120098
-7.92081e-05
0.00121696
-7.6489e-05
0.00123242
-7.35852e-05
0.00124732
-7.052e-05
0.00126166
-6.73179e-05
0.00127541
-6.39997e-05
0.00128855
-6.05879e-05
0.00130107
-5.71003e-05
0.00131297
-5.35558e-05
0.00132423
-4.99699e-05
0.00133486
-4.63569e-05
0.00134486
-4.27295e-05
0.00135421
-3.90983e-05
0.00136294
-3.54722e-05
0.00137104
-3.1859e-05
0.00137851
-2.8264e-05
0.00138537
-2.46918e-05
0.00139162
-2.11446e-05
0.00139727
-1.76257e-05
0.00140233
-1.41326e-05
0.00140681
-1.06672e-05
0.00141071
-7.22737e-06
0.00141404
-3.80818e-06
0.00141681
-6.93447e-05
0.00141904
-7.17664e-05
0.00142311
-7.37607e-05
0.00142728
-7.53258e-05
0.00143153
-7.64509e-05
0.0014358
-7.7138e-05
0.00144006
-7.73731e-05
0.00144428
-7.71591e-05
0.0014484
-7.64826e-05
0.00145234
-7.53521e-05
0.0014561
-7.37674e-05
0.00145965
-7.17367e-05
0.00146292
-6.92597e-05
0.00146594
-6.63233e-05
0.00146863
-6.29321e-05
0.0014708
-5.91038e-05
0.00147244
-5.48696e-05
0.00147373
-5.02313e-05
0.00147456
-4.51976e-05
0.00147511
-3.97998e-05
0.0014748
-3.40138e-05
0.00147371
-2.79075e-05
0.00147224
-2.15227e-05
0.00147011
-1.51832e-05
0.00146708
-1.10945e-05
0.00146334
-3.03816e-05
0.00146059
-0.000262157
0.0014767
-0.000678511
0.00157919
-0.000701076
0.00158223
-0.000654668
0.00155476
-0.000551438
0.00150902
-0.000286367
0.00140228
1.37396e-05
0.00127176
0.000202378
0.00117113
0.000316763
0.00110584
0.000391114
0.00105814
0.000446003
0.00101855
0.000482033
0.000986578
0.000510744
0.000955322
0.00052947
0.000927491
0.000538935
0.00090017
0.0005405
0.000874065
0.000535068
0.00085003
0.000524413
0.000826645
0.00050469
0.000803811
0.000479511
0.000779429
0.000448751
0.000753653
0.000421483
0.000724018
0.000398457
0.000692451
0.000379683