/*--------------------------------*- C++ -*----------------------------------*\
| =========                 |                                                 |
| \\      /  F ield         | OpenFOAM: The Open Source CFD Toolbox           |
|  \\    /   O peration     | Version:  2.2.x                                 |
|   \\  /    A nd           | Web:      www.OpenFOAM.org                      |
|    \\/     M anipulation  |                                                 |
\*---------------------------------------------------------------------------*/
FoamFile
{
    version     2.0;
    format      ascii;
    class       surfaceScalarField;
    location    "1.14";
    object      cfmax;
}
// * * * * * * * * * * * * * * * * * * * * * * * * * * * * * * * * * * * * * //

dimensions      [0 3 -1 0 0 0 0];

internalField   nonuniform List<scalar> 
79600
(
0.029615
0.0298649
0.0297309
0.0303572
0.0302223
0.0308156
0.0306579
0.0312794
0.0311417
0.0317789
0.0315946
0.0321549
0.0320824
0.0326487
0.0325523
0.032999
0.0330211
0.0334628
0.0335527
0.03383
0.0340158
0.0342347
0.0345341
0.0346809
0.0350113
0.0350362
0.0355284
0.0355021
0.0360129
0.0358338
0.0364992
0.0363167
0.0369985
0.0366891
0.0374548
0.0370823
0.0379551
0.0374866
0.0384047
0.0378502
0.0388659
0.0383056
0.0393155
0.0386538
0.0397562
0.0391146
0.0402042
0.0394981
0.0406149
0.0399368
0.0410443
0.0403555
0.0414409
0.0407621
0.0418307
0.0412192
0.0422138
0.041618
0.042566
0.0421156
0.0429542
0.0425316
0.043251
0.0430099
0.0435595
0.0433946
0.0438524
0.0438647
0.0441569
0.0442624
0.0444955
0.0447438
0.0447984
0.0451766
0.0451096
0.0456089
0.0453522
0.0460697
0.0456196
0.046436
0.0459078
0.0468213
0.0461711
0.0472116
0.0464225
0.0477603
0.0466195
0.0480305
0.0468465
0.0484228
0.0472059
0.0487379
0.0474976
0.0493251
0.0478566
0.0494897
0.0482352
0.0499644
0.0484795
0.0505214
0.0487028
0.0509007
0.0489591
0.0511001
0.0491641
0.0515878
0.0494654
0.0520994
0.0497205
0.0525084
0.0501335
0.0526837
0.0505468
0.0530733
0.050692
0.0534824
0.0511847
0.0538241
0.0515044
0.0538559
0.0518491
0.0545449
0.0521793
0.0549209
0.0525379
0.054991
0.0529059
0.0552099
0.0531834
0.0552327
0.0532152
0.055593
0.0533305
0.0560367
0.0533142
0.0562895
0.0532806
0.056354
0.0530709
0.0559153
0.0528101
0.0550273
0.0525137
0.053934
0.0520639
0.0532666
0.0516598
0.0528187
0.0515352
0.0525545
0.0516041
0.052536
0.0513899
0.0524972
0.0513377
0.0522668
0.0513682
0.0521939
0.0514718
0.0522777
0.0513806
0.0520533
0.05133
0.05195
0.051274
0.0515769
0.0509459
0.0511041
0.0506026
0.0504526
0.0501929
0.0497056
0.0497503
0.0487565
0.0491931
0.0477209
0.048792
0.0468583
0.0483725
0.0464231
0.0479297
0.0460372
0.0473298
0.0458971
0.04664
0.0458776
0.0457332
0.0458879
0.0448213
0.046121
0.0440471
0.0464354
0.0451666
0.0465611
0.0453098
0.0456564
0.0452834
0.0450644
0.04532
0.0448182
0.045076
0.0456743
0.0454175
0.0456712
0.0461017
0.045634
0.046962
0.0454401
0.0480245
0.0454065
0.0487129
0.0452847
0.0493654
0.0454046
0.0499334
0.0459309
0.0503822
0.046316
0.0507637
0.0470844
0.0511911
0.0481784
0.0516798
0.0493221
0.0520945
0.0502708
0.0523809
0.0511184
0.0526446
0.0516136
0.0527607
0.052158
0.0528885
0.0524197
0.0530458
0.0527153
0.0529144
0.0528197
0.0530158
0.053141
0.0530521
0.0533856
0.0531275
0.0534421
0.0533734
0.0538895
0.0537408
0.0546537
0.0538449
0.0558888
0.0547259
0.0572155
0.0548354
0.0581781
0.0554008
0.0585946
0.0553436
0.0586
0.0554044
0.0586042
0.0552724
0.0586658
0.0550326
0.0584605
0.0547475
0.0584444
0.0543742
0.0581845
0.0539117
0.0576397
0.0534307
0.0566844
0.0530486
0.0563642
0.0527776
0.0560076
0.052668
0.0559403
0.052563
0.055241
0.0522939
0.0547583
0.0518549
0.0546394
0.0513864
0.0541397
0.0509257
0.0537069
0.0503979
0.053387
0.0502124
0.0528387
0.0498066
0.0523198
0.0494677
0.0519509
0.0491784
0.0515368
0.048833
0.051127
0.0485654
0.0505769
0.0482361
0.050237
0.0481389
0.0499672
0.0479377
0.049547
0.0476397
0.0492749
0.0474498
0.0488704
0.0472396
0.0482096
0.0469108
0.0478562
0.0465832
0.0473299
0.0462423
0.046905
0.0460131
0.0465001
0.0457756
0.046081
0.0455307
0.0457279
0.0452403
0.045316
0.0449124
0.0448729
0.0446256
0.0443543
0.044332
0.0439215
0.0440506
0.0434308
0.0437881
0.0430353
0.0434064
0.0425244
0.0430922
0.0421007
0.0427249
0.0415954
0.0423526
0.0411668
0.0419682
0.0406948
0.0415645
0.0402655
0.0411609
0.0398114
0.0407278
0.0393534
0.0402977
0.0389319
0.0398612
0.0384533
0.039418
0.0380785
0.0389758
0.0375949
0.0384921
0.0372208
0.0380386
0.0367644
0.0375319
0.036373
0.0370575
0.0359881
0.036586
0.0355426
0.0360823
0.0351648
0.0356129
0.03468
0.0351064
0.0343138
0.0346412
0.0338405
0.0341151
0.0334748
0.0336454
0.0330611
0.0331655
0.0326351
0.0326863
0.0322499
0.0322333
0.0317654
0.0317559
0.0313682
0.0313224
0.0308651
0.0308659
0.030452
0.0304527
0.0299666
0.0295017
0.0307562
0.0300973
0.0303724
0.0305747
0.0299573
0.0310209
0.0295914
0.0314935
0.0299781
0.0319559
0.0304319
0.032358
0.0309301
0.0328435
0.0314012
0.0331931
0.0318762
0.0336679
0.0324099
0.0340025
0.0328737
0.0344356
0.0333997
0.0348413
0.033872
0.0352119
0.034384
0.0356646
0.0348634
0.0360007
0.0353857
0.0364573
0.0358939
0.0368036
0.0363494
0.0372293
0.036865
0.0376056
0.0373152
0.0379706
0.0377909
0.0383996
0.0382445
0.0387313
0.0386969
0.0391778
0.0391411
0.0395349
0.0395649
0.0399649
0.0400025
0.0403705
0.0404092
0.0407729
0.0408038
0.0412304
0.0411997
0.0416283
0.041567
0.042114
0.0419597
0.0425236
0.0422837
0.0429925
0.0426246
0.0433816
0.042932
0.043851
0.0432425
0.0442433
0.0435854
0.0447226
0.0439069
0.0451694
0.0442565
0.045563
0.0445178
0.0460519
0.0448009
0.0463779
0.0451197
0.0468116
0.0452905
0.0472309
0.0455855
0.0478067
0.045826
0.0479095
0.0461075
0.0483029
0.0463198
0.048552
0.0465638
0.0489189
0.0469337
0.0494471
0.0473031
0.049968
0.047557
0.0502864
0.0477606
0.0508858
0.0478388
0.0511502
0.0482066
0.0511186
0.0484854
0.0515639
0.0488681
0.0519262
0.0491453
0.0523343
0.0493947
0.0530176
0.0497515
0.0528417
0.0501349
0.0531193
0.0503586
0.0532498
0.0506551
0.0539788
0.0507584
0.0544418
0.050995
0.0547529
0.0512577
0.0548673
0.0513407
0.0546949
0.0515096
0.0543559
0.0517428
0.054099
0.0515713
0.0537947
0.0515889
0.0533071
0.05097
0.0527783
0.0506025
0.0522839
0.0502483
0.0519633
0.0503372
0.0519571
0.0500459
0.0519661
0.0499312
0.0519331
0.0499697
0.0519696
0.050042
0.052044
0.0499107
0.051948
0.0498526
0.051953
0.0498377
0.0518508
0.0497916
0.0515919
0.0496059
0.0513227
0.0493082
0.0508195
0.0489257
0.0501327
0.0484438
0.0491969
0.0477303
0.0482719
0.0473044
0.0474104
0.0467944
0.0467782
0.0462805
0.0464481
0.0457657
0.04617
0.0451517
0.0460948
0.0443099
0.0460883
0.0441207
0.0463488
0.0453186
0.0466019
0.0463081
0.0471408
0.0471164
0.0464996
0.047333
0.0459062
0.0473006
0.0454964
0.0470388
0.0452116
0.0469419
0.0453734
0.0476862
0.045406
0.0482907
0.0454201
0.0491616
0.0451435
0.0500119
0.0450644
0.0507006
0.0450538
0.051307
0.0453785
0.051809
0.0457455
0.0521654
0.0462593
0.0525889
0.047302
0.0528797
0.0484088
0.0532368
0.0494364
0.0535423
0.05038
0.0537477
0.0512258
0.0539768
0.0517101
0.0541182
0.0522715
0.0541956
0.0526982
0.0541578
0.0529462
0.054119
0.0533006
0.0541899
0.0535486
0.0541954
0.0537749
0.054447
0.0541366
0.0545977
0.0546196
0.0553432
0.0558933
0.0558629
0.0572366
0.0567207
0.0582071
0.0568472
0.0586971
0.0568287
0.059225
0.056707
0.059291
0.0565996
0.0591185
0.0563568
0.05898
0.0560511
0.0586961
0.0557404
0.058451
0.0558022
0.05844
0.0555253
0.0581845
0.0552969
0.0577706
0.0546912
0.057596
0.0542241
0.057317
0.053806
0.0571123
0.0531893
0.0567399
0.052798
0.0557527
0.0523489
0.0548123
0.0520761
0.0546429
0.0518683
0.0540089
0.0515032
0.0536596
0.0512707
0.0533364
0.0509553
0.0526846
0.0505906
0.052245
0.0503022
0.0520433
0.0500614
0.0516543
0.0497179
0.0512493
0.0493792
0.0508238
0.0490066
0.0504967
0.0487246
0.0500374
0.0484668
0.0495452
0.0482042
0.0491588
0.0479455
0.0487817
0.0476482
0.0482277
0.0474517
0.0478633
0.0471878
0.0474688
0.0469675
0.0471284
0.0467455
0.046727
0.0465435
0.0462018
0.0463386
0.0457905
0.0460909
0.0453725
0.0457992
0.0449581
0.0455036
0.0444728
0.0452106
0.0440127
0.0449385
0.0434945
0.0446882
0.0430706
0.0443183
0.0425387
0.0440085
0.0421111
0.0436593
0.0416062
0.0433039
0.0411684
0.0429361
0.0406767
0.0425405
0.0402386
0.0421573
0.039759
0.0417208
0.0392923
0.0413044
0.0388431
0.040875
0.0383499
0.0404462
0.0379551
0.0400124
0.0374569
0.0395487
0.0370783
0.0390989
0.0366033
0.0385957
0.0362129
0.038135
0.0357964
0.0376596
0.0353512
0.0371559
0.0349916
0.0366867
0.0345162
0.0361849
0.0341466
0.0357358
0.0336674
0.0352201
0.0332919
0.0347689
0.032861
0.0342839
0.0324468
0.0338215
0.0320559
0.0333726
0.0315858
0.0328983
0.031182
0.0324524
0.0306966
0.0319929
0.0302882
0.0315725
0.0297906
0.0295948
0.0318669
0.0303247
0.031471
0.0308003
0.031079
0.0312649
0.0307015
0.0317306
0.0303098
0.0321733
0.0299834
0.0326359
0.0298153
0.033094
0.0302699
0.0334493
0.0307592
0.0339375
0.0312559
0.0342506
0.0317275
0.0347031
0.0322804
0.0350564
0.0327554
0.035461
0.0332853
0.0358927
0.0337657
0.0362373
0.0342783
0.0366756
0.0347932
0.0369921
0.0352502
0.0374649
0.0357701
0.0377992
0.0362188
0.0381733
0.0367119
0.0385809
0.0371695
0.0389139
0.0376302
0.0393576
0.03808
0.0396955
0.038514
0.0401161
0.0389489
0.0404936
0.0393751
0.0408872
0.0397737
0.041313
0.0401867
0.0416967
0.0405646
0.0421413
0.0409587
0.0425411
0.0413148
0.0429818
0.041679
0.0433722
0.0419934
0.0438154
0.0423231
0.0441992
0.0426533
0.0446322
0.0429831
0.0450909
0.0433307
0.0454679
0.0435871
0.0459589
0.0438873
0.0462289
0.0441476
0.0466335
0.0445024
0.0469814
0.0446156
0.0473913
0.0448753
0.0478882
0.045044
0.0482495
0.0453309
0.048238
0.045831
0.0486748
0.046199
0.0492499
0.0465617
0.0498063
0.0466863
0.0499188
0.046799
0.0503196
0.0469825
0.0507781
0.0472005
0.0512789
0.0475158
0.0516271
0.0477451
0.0521157
0.048053
0.0521265
0.0480083
0.0524605
0.0483202
0.0529126
0.0486196
0.053053
0.0488786
0.0531541
0.0493429
0.0530896
0.0497824
0.0527937
0.0498297
0.0529727
0.0494308
0.0531491
0.0490785
0.0532199
0.0489566
0.0529236
0.048838
0.0524403
0.0487376
0.0518891
0.0484997
0.0516541
0.0485622
0.0515005
0.0483272
0.0514983
0.0482815
0.0515167
0.0482904
0.0516187
0.048253
0.0516817
0.0482058
0.0516544
0.0482636
0.0516794
0.0482587
0.0516825
0.0482132
0.0516128
0.0481378
0.0515605
0.047969
0.051367
0.0476911
0.0509847
0.0473082
0.0505041
0.0468554
0.0497532
0.046218
0.0488417
0.0455818
0.0479715
0.0450204
0.0471933
0.0445653
0.0468504
0.0441325
0.0465231
0.0435995
0.0463234
0.0444908
0.0463824
0.0454191
0.0463931
0.0466459
0.04678
0.0480864
0.0474286
0.0489071
0.0469214
0.0492629
0.0466415
0.0493274
0.0461985
0.049214
0.0461619
0.0490108
0.0462139
0.0491209
0.0458227
0.0495843
0.0455709
0.0501083
0.0451275
0.0513012
0.0450479
0.0520284
0.0446722
0.052557
0.044856
0.0531117
0.0451432
0.0535908
0.0455122
0.0539235
0.0463599
0.0541767
0.0474518
0.054465
0.0484208
0.0547977
0.0495313
0.0550353
0.050684
0.0551969
0.0512976
0.0553245
0.051951
0.0553796
0.0522779
0.055424
0.0527895
0.0554037
0.0531159
0.0555235
0.0534294
0.0558839
0.0537841
0.0559514
0.0544617
0.0561169
0.0549577
0.0564023
0.0560489
0.0573404
0.0578225
0.0580851
0.0594904
0.0593387
0.0602595
0.0590951
0.0605563
0.0588151
0.0606327
0.0584974
0.0605211
0.0583182
0.0599703
0.0581856
0.0596224
0.0578193
0.0597675
0.0574827
0.0595849
0.0572499
0.0597227
0.056294
0.0595217
0.0555568
0.058972
0.0552874
0.0578908
0.0550518
0.057596
0.0548477
0.0573181
0.054692
0.0571123
0.0545395
0.0567752
0.0543153
0.0557598
0.0534074
0.0556732
0.052973
0.0549468
0.0525486
0.0540298
0.0521645
0.0537092
0.0518423
0.0532741
0.05148
0.0528292
0.0511296
0.052428
0.0508196
0.0520171
0.0505055
0.0515231
0.0501403
0.0510745
0.0498709
0.0506952
0.0495851
0.0503558
0.0494668
0.0500242
0.0491492
0.0494748
0.0488764
0.0490219
0.0486357
0.0486685
0.0483045
0.0481748
0.0480087
0.0477626
0.0478079
0.0473788
0.047606
0.0470564
0.0473871
0.0466068
0.0471242
0.0461503
0.0469237
0.0457269
0.0467188
0.0453001
0.0464735
0.0449148
0.0462065
0.0444337
0.0459321
0.0439988
0.0456671
0.0434787
0.0454373
0.0430631
0.0450658
0.0425212
0.0447636
0.0420749
0.0444195
0.0415601
0.0440914
0.0410988
0.0437226
0.040596
0.0433564
0.0401387
0.0429779
0.0396548
0.0425688
0.0391899
0.0421678
0.0387315
0.0417598
0.0382441
0.0413506
0.0378461
0.0409349
0.0373511
0.0404903
0.036966
0.0400496
0.0364792
0.0395614
0.0360874
0.0391062
0.03566
0.0386406
0.0352248
0.0381693
0.0348522
0.0377173
0.0343763
0.0372165
0.0340063
0.0367713
0.0335209
0.0362632
0.033136
0.0358194
0.0326905
0.0353367
0.0322845
0.0348817
0.0318896
0.0344424
0.0314191
0.0339792
0.0310032
0.033552
0.030526
0.0331161
0.0301065
0.0326972
0.029628
0.0298186
0.0330079
0.0305987
0.0326339
0.0310705
0.0322504
0.031542
0.0318849
0.0319808
0.0315101
0.0324096
0.0311421
0.0328821
0.0307707
0.0333141
0.0304499
0.0337055
0.0301383
0.0341774
0.0301018
0.0345031
0.0305671
0.0349566
0.0311093
0.0352643
0.0315721
0.0357031
0.0321146
0.036086
0.0325909
0.0364393
0.0330946
0.0368615
0.0336112
0.0371805
0.0340975
0.0376192
0.03462
0.0379442
0.0350667
0.0383365
0.0355735
0.0387139
0.0360303
0.0390458
0.0365034
0.039468
0.0369543
0.0397803
0.0374044
0.0401846
0.0378365
0.0405352
0.03828
0.0409356
0.0386823
0.0413466
0.039106
0.0417483
0.0395013
0.0421644
0.0398997
0.0425573
0.0402917
0.0429755
0.0406696
0.0433725
0.0410112
0.04379
0.0413514
0.0441641
0.0416873
0.0445627
0.0420102
0.045011
0.0423274
0.0454039
0.0426103
0.0458736
0.0429088
0.0460821
0.0432322
0.046424
0.043494
0.0466956
0.0439116
0.0470444
0.0441962
0.0474559
0.0443336
0.0478185
0.0444481
0.0484185
0.0447651
0.0488931
0.045106
0.0493812
0.0453611
0.0497298
0.0453724
0.0494677
0.0460944
0.0497489
0.0465182
0.0501728
0.0467027
0.0505395
0.0465529
0.0509434
0.0464815
0.0512528
0.0468678
0.0511833
0.0472436
0.0514928
0.0473959
0.0516211
0.0472393
0.0518772
0.0471134
0.0521819
0.0471935
0.0521727
0.0474559
0.0515347
0.0475543
0.0512075
0.0474465
0.0510153
0.0473764
0.0509299
0.0472354
0.0506748
0.0470393
0.0505611
0.0468931
0.0506189
0.0468829
0.0507524
0.0470363
0.0509115
0.0470416
0.0510859
0.0468613
0.0511612
0.0467749
0.051367
0.0468067
0.0515346
0.0466867
0.0515805
0.0466859
0.0516494
0.0466423
0.0515302
0.0465171
0.051386
0.0462353
0.0511944
0.0459004
0.0507619
0.0454696
0.0501282
0.0449193
0.0492627
0.0440963
0.0483515
0.0434619
0.0474745
0.0434881
0.0470687
0.0443735
0.0468211
0.0451598
0.046612
0.0459708
0.0466983
0.046977
0.0467134
0.0481874
0.047139
0.0493355
0.0475484
0.0505518
0.0475744
0.0509972
0.0471453
0.0512431
0.0468571
0.0512238
0.0468049
0.0508795
0.0468807
0.0507617
0.046858
0.0508925
0.0462506
0.0513556
0.0460146
0.0521916
0.0458245
0.0530016
0.0453968
0.053536
0.0446764
0.0542251
0.0445562
0.0548989
0.0448006
0.0553372
0.0453924
0.0555172
0.0462334
0.0557007
0.047244
0.0559898
0.0485119
0.0561492
0.0495839
0.0562492
0.0505636
0.0561933
0.0513194
0.0563964
0.0521133
0.0564344
0.0526935
0.0564024
0.0529638
0.056429
0.0533748
0.0565678
0.0538057
0.0566861
0.0541518
0.0572266
0.054731
0.0580253
0.0559974
0.0582443
0.0576293
0.0593639
0.0590652
0.0601235
0.0595617
0.0600301
0.0603587
0.0601272
0.0607826
0.0600249
0.0605856
0.0596966
0.0605858
0.0595348
0.0605307
0.0592637
0.0602674
0.0588409
0.0600449
0.0581205
0.0599041
0.0578972
0.0595849
0.0582563
0.0597226
0.058216
0.0595217
0.0580908
0.058972
0.0573399
0.0588879
0.056258
0.0587082
0.0555061
0.0581489
0.0545388
0.0577248
0.0546088
0.0560702
0.0542795
0.0558463
0.0541565
0.0556646
0.0540625
0.0548929
0.0534594
0.0545539
0.052827
0.0542708
0.052571
0.053359
0.05227
0.0529868
0.0519133
0.0525625
0.0515381
0.0520823
0.0511344
0.0516778
0.0507971
0.0513792
0.0504376
0.0508603
0.0501149
0.0503291
0.0498487
0.0499271
0.0494881
0.0494307
0.0491608
0.0489697
0.0490002
0.0485294
0.0487885
0.0480596
0.0486535
0.0478557
0.0484569
0.0473183
0.0482875
0.0469213
0.0479978
0.0464823
0.0477394
0.046067
0.0475662
0.0456419
0.0473882
0.045175
0.0472182
0.0448485
0.046985
0.0444032
0.0467445
0.0440147
0.046461
0.0435057
0.046244
0.0430745
0.0458801
0.0425424
0.0455954
0.0420667
0.0452494
0.041552
0.0449386
0.0410874
0.0445808
0.0405634
0.0442376
0.0400957
0.0438885
0.0395865
0.0434795
0.0391169
0.0430951
0.0386372
0.0426973
0.038143
0.0423042
0.0377277
0.0418988
0.0372238
0.041473
0.0368313
0.041042
0.0363304
0.0405774
0.035938
0.0401281
0.0354922
0.0396632
0.0350581
0.0391948
0.0346846
0.0387413
0.0342134
0.0382529
0.0338502
0.037826
0.0333616
0.0373219
0.0329699
0.0368933
0.0325115
0.0364169
0.0321143
0.0359678
0.0317253
0.0355385
0.0312604
0.0350648
0.0308553
0.0346298
0.030382
0.0341858
0.0299455
0.0337844
0.0295935
0.0300979
0.0340924
0.0308569
0.0337218
0.0313466
0.0333586
0.0318138
0.0329899
0.0322683
0.032653
0.0327036
0.032308
0.0331712
0.0319669
0.0335806
0.0316686
0.0340169
0.0313635
0.0344523
0.0310675
0.0347953
0.0307827
0.035246
0.03048
0.0355392
0.0303953
0.0359908
0.030949
0.036317
0.0314289
0.0367221
0.0319514
0.0371124
0.0324456
0.0374388
0.0329265
0.0378891
0.0334474
0.0382121
0.0338848
0.038597
0.0344029
0.038946
0.034859
0.0392858
0.0353415
0.0396943
0.0357966
0.0399985
0.0362496
0.0404011
0.0366872
0.0407296
0.037138
0.0411188
0.0375572
0.0414842
0.0379868
0.0418676
0.038392
0.0422423
0.0387893
0.0426147
0.0391944
0.0430097
0.0395753
0.0433761
0.0399264
0.0437467
0.0402701
0.0440689
0.0405983
0.0443968
0.0409488
0.0447563
0.0412824
0.0451367
0.0415838
0.0455188
0.0418798
0.0458166
0.0421228
0.0461576
0.0424191
0.0464394
0.0426923
0.0468362
0.0432917
0.0470771
0.043691
0.0474581
0.0438088
0.047927
0.0438567
0.0482995
0.0437364
0.0486458
0.0438981
0.0491146
0.0442058
0.0496174
0.0444889
0.0500774
0.0447033
0.0502328
0.0449696
0.0498577
0.0452649
0.05004
0.0454859
0.0501647
0.0457204
0.0502776
0.045712
0.0504781
0.0457862
0.0503944
0.0458555
0.0501749
0.0459312
0.0500973
0.0458434
0.0499266
0.0455561
0.0499086
0.045344
0.0500409
0.0451122
0.050073
0.0451876
0.0501091
0.0451739
0.0500734
0.0451355
0.0501993
0.045001
0.0504072
0.045
0.0505989
0.0451082
0.050788
0.0452228
0.0510175
0.0450723
0.0510531
0.0450464
0.051233
0.0450392
0.0513154
0.0449426
0.0513501
0.0448316
0.0513419
0.0446206
0.0512182
0.0442716
0.0509341
0.0438564
0.0504878
0.0432928
0.049815
0.0424319
0.0489556
0.0434619
0.0479512
0.044856
0.0474534
0.0458356
0.0470915
0.04668
0.0469217
0.0474777
0.0469222
0.0484633
0.0469622
0.0494752
0.0472065
0.0507974
0.0477555
0.0519886
0.0478947
0.0527407
0.0477393
0.0532213
0.0475847
0.0532262
0.047379
0.0528069
0.0476583
0.0524466
0.0475767
0.05228
0.0469264
0.0525448
0.0467795
0.0529953
0.0463771
0.0540647
0.046445
0.0547235
0.0457916
0.05517
0.0450071
0.0558536
0.0441373
0.0563548
0.0444921
0.0568255
0.0452279
0.0569737
0.045936
0.0572002
0.0471421
0.0573333
0.0483986
0.057443
0.0495713
0.057366
0.050347
0.0574432
0.0513961
0.057505
0.0519966
0.0574779
0.0526466
0.0577593
0.0532431
0.057864
0.0535094
0.0580022
0.0540721
0.0583806
0.0549043
0.0584519
0.0555247
0.0591488
0.0572713
0.0604303
0.0591431
0.0617615
0.0602656
0.0621854
0.0611017
0.0623248
0.0614809
0.0618914
0.0616495
0.061494
0.0613589
0.0610505
0.0611354
0.0605526
0.0611442
0.0605662
0.0606613
0.0605344
0.0604952
0.0601383
0.0605503
0.0596961
0.0607759
0.0591838
0.0607412
0.0579808
0.0605693
0.0573289
0.0601589
0.0573308
0.0586916
0.0575513
0.0588872
0.0572022
0.0587082
0.0569061
0.0581489
0.0566732
0.0577248
0.0559406
0.0565819
0.0548738
0.0565589
0.0541342
0.0558779
0.0540308
0.0548825
0.0539686
0.0545517
0.0537163
0.0540991
0.0533485
0.0534968
0.0528788
0.0529804
0.0524245
0.0525003
0.0520256
0.0520127
0.0517371
0.0515437
0.0513466
0.0512057
0.0511978
0.0508654
0.0508249
0.0502967
0.0504665
0.0498967
0.0501098
0.0493889
0.0497586
0.0491545
0.0494711
0.0486839
0.0492705
0.0482403
0.0490606
0.0478105
0.0488871
0.0473414
0.0486981
0.046908
0.0484724
0.0465151
0.0482742
0.0460812
0.0480261
0.045593
0.0478146
0.0450929
0.047688
0.0447596
0.047492
0.0443515
0.0472976
0.0439746
0.0469757
0.0434311
0.0467601
0.0429477
0.0464324
0.0424018
0.0461548
0.0419102
0.0458457
0.0413911
0.0455651
0.0409237
0.0452384
0.0404233
0.0449434
0.0399609
0.0446013
0.0394627
0.0442398
0.0389934
0.0438701
0.0385143
0.0434972
0.0380259
0.0431197
0.0376001
0.0427306
0.0370998
0.0423262
0.0367003
0.0419092
0.0362054
0.0414673
0.0358118
0.0410176
0.0353552
0.0405731
0.0349246
0.0401296
0.0345328
0.0397048
0.0340675
0.0392236
0.0337102
0.0388113
0.0332195
0.0383045
0.0328289
0.0378876
0.0323482
0.0374116
0.0319483
0.0369877
0.0315473
0.0365842
0.0310817
0.0361355
0.0306941
0.035734
0.0302255
0.0353039
0.0297919
0.0348841
0.0298351
0.0303539
0.0352174
0.0311581
0.0348524
0.0316452
0.0344936
0.0321107
0.0341257
0.032562
0.0337863
0.0330086
0.033417
0.0334482
0.0330699
0.0338842
0.0327562
0.0343319
0.03243
0.0347369
0.0321485
0.0351121
0.0318667
0.0355528
0.0315995
0.0358677
0.0313285
0.0363095
0.0310482
0.0366066
0.030783
0.0370319
0.0307516
0.0373665
0.0312387
0.03771
0.0317519
0.0380781
0.0322501
0.0384131
0.0326939
0.0387984
0.03321
0.0391283
0.0336606
0.0394638
0.0341565
0.0398456
0.0346074
0.0401294
0.0350719
0.0405136
0.0355136
0.0408075
0.0359681
0.0411784
0.0363993
0.0415202
0.0368394
0.0419096
0.0372553
0.0422528
0.037658
0.0425907
0.0380631
0.0429385
0.0384466
0.0432801
0.0388196
0.0436192
0.0391624
0.0439281
0.0395052
0.0442445
0.0398402
0.0445733
0.0401716
0.0449055
0.0405471
0.0452916
0.0408123
0.045642
0.0410863
0.0460203
0.0413364
0.04624
0.0416547
0.0466461
0.0419043
0.0469758
0.0422429
0.0475027
0.0424957
0.0476709
0.0426764
0.0478871
0.0429632
0.0481747
0.0433139
0.0483691
0.0434271
0.0486497
0.043309
0.0491804
0.0434126
0.049341
0.0435342
0.0496421
0.0439122
0.0498389
0.0437629
0.0495905
0.0438866
0.0494276
0.0439346
0.0493486
0.043965
0.049214
0.0438375
0.0492084
0.0437821
0.0492621
0.0437403
0.0492615
0.043626
0.0493401
0.0435883
0.0494983
0.0435674
0.0495629
0.0435957
0.049713
0.0436376
0.0498395
0.0435749
0.0500212
0.0435497
0.0503121
0.0435198
0.0505229
0.0435181
0.0508296
0.0436031
0.0510349
0.0435143
0.0511119
0.0434539
0.0512908
0.0433706
0.0512762
0.0431766
0.0512948
0.0429369
0.0511262
0.0425389
0.0507789
0.0420265
0.0501723
0.0417734
0.0494134
0.0441684
0.0484246
0.0459129
0.0476982
0.0471506
0.0473127
0.0480677
0.0471096
0.0489284
0.0470762
0.0498715
0.0471656
0.0507897
0.0474465
0.052044
0.048005
0.0533315
0.0481305
0.0542951
0.0481981
0.0549895
0.0480957
0.05505
0.0478225
0.0549421
0.0482864
0.0544342
0.0482117
0.0540657
0.0479805
0.0537984
0.0476065
0.054097
0.0471011
0.0546479
0.0468921
0.0556524
0.0467438
0.0562233
0.046077
0.0567258
0.0451352
0.0573023
0.0437485
0.0578063
0.044129
0.0582389
0.0448079
0.0584061
0.0456272
0.0585094
0.0469167
0.0585862
0.0481166
0.0586036
0.0492953
0.0585499
0.0502121
0.0584625
0.0512206
0.0584597
0.0520832
0.0584789
0.0526022
0.0584817
0.0533305
0.0584748
0.0537914
0.0586433
0.0543557
0.0589944
0.0549496
0.0596948
0.0563796
0.0609276
0.0582573
0.0621129
0.0599368
0.0635586
0.0610263
0.0634652
0.0616431
0.0632952
0.0615033
0.0630534
0.0615759
0.0627353
0.0616881
0.0624851
0.0615739
0.062172
0.0615885
0.0619452
0.0617698
0.0614681
0.0613805
0.0608316
0.0610891
0.0602161
0.0607513
0.0601417
0.0607735
0.0602868
0.0607412
0.0601593
0.0605693
0.0600607
0.0601589
0.0591763
0.0595533
0.0581889
0.0597131
0.057391
0.0591668
0.0565792
0.0583341
0.0561936
0.0571461
0.0560994
0.0565532
0.0561925
0.0565589
0.0558071
0.0559091
0.0552622
0.0552665
0.0543209
0.0549921
0.0541125
0.0538743
0.0538088
0.0534785
0.0534391
0.0530815
0.0530023
0.0526203
0.0525919
0.0523329
0.052204
0.0517419
0.0519386
0.0512275
0.0517087
0.0505938
0.0512758
0.0501062
0.0509242
0.0498341
0.0504268
0.0492933
0.050105
0.0489693
0.0500491
0.0485324
0.0499481
0.0482529
0.0496495
0.0477096
0.0494083
0.0472841
0.0492086
0.0468389
0.0490454
0.046423
0.0489218
0.0460782
0.0486979
0.0457368
0.0484847
0.0452197
0.0483283
0.0447602
0.0481636
0.0443249
0.0480021
0.0439516
0.0476647
0.0434183
0.0474236
0.042891
0.0471272
0.0423768
0.0468461
0.0418359
0.0465664
0.041313
0.0463225
0.0408269
0.0460155
0.0403342
0.0457595
0.0398649
0.0454325
0.0393597
0.045087
0.0388929
0.044728
0.0383996
0.0443739
0.0379171
0.0440034
0.0374706
0.0436289
0.0369741
0.0432422
0.0365622
0.042841
0.0360691
0.04242
0.035674
0.0419815
0.0352047
0.041547
0.0347707
0.0410983
0.0343702
0.0406737
0.0339025
0.0402127
0.0335513
0.0398129
0.0330648
0.0393172
0.0326838
0.0388967
0.0321859
0.038424
0.0317925
0.0379975
0.0313766
0.0375858
0.0309247
0.0371451
0.0305321
0.0367564
0.0300444
0.036345
0.0296507
0.0359743
0.030153
0.0306628
0.0362508
0.0314685
0.0359028
0.0319732
0.0355741
0.0324554
0.0352541
0.0329101
0.0349352
0.0333582
0.0346215
0.0337771
0.0342987
0.0342141
0.033997
0.0346467
0.0336857
0.0350306
0.033415
0.0354457
0.0331316
0.0358517
0.0328712
0.0361803
0.0326015
0.0366043
0.0323239
0.0369082
0.0320503
0.0373435
0.0317606
0.0376356
0.031486
0.0380338
0.0312183
0.038406
0.0310199
0.0387693
0.031477
0.0391269
0.0319704
0.0394633
0.0324127
0.0397895
0.0329016
0.0401566
0.0333494
0.0404367
0.0338018
0.0408164
0.0342435
0.041099
0.0346867
0.0414637
0.0351259
0.0417736
0.0355699
0.042136
0.035984
0.0424107
0.0363823
0.0427119
0.0367794
0.0429999
0.0371656
0.0432778
0.037551
0.0435679
0.0378915
0.0438852
0.0382392
0.0441946
0.0385453
0.0444955
0.0388645
0.0448353
0.039157
0.0451623
0.0394769
0.0455334
0.0397457
0.0458881
0.0400149
0.0461072
0.0402456
0.0464601
0.0404968
0.0467217
0.0407015
0.0470286
0.0410094
0.0473266
0.0413584
0.047636
0.0415804
0.0478056
0.0417774
0.0479537
0.0418719
0.0480716
0.0421248
0.0478772
0.0421738
0.0479555
0.0421163
0.0483073
0.0419391
0.0483973
0.0418754
0.0483858
0.0417887
0.0483644
0.0417529
0.0483793
0.0418196
0.0484113
0.0419988
0.0485496
0.0420538
0.0487817
0.0420675
0.0489648
0.0418397
0.0492058
0.0417874
0.0493606
0.041798
0.0496308
0.0418491
0.0497995
0.0417915
0.0499403
0.0417459
0.0501829
0.0418217
0.0504292
0.0417846
0.0506251
0.0417942
0.0508566
0.0417504
0.0509539
0.0416132
0.0510577
0.0414911
0.0511354
0.0412573
0.0510204
0.0408785
0.0508986
0.0404306
0.050503
0.0423467
0.0499067
0.0448208
0.049003
0.0468899
0.0482625
0.0484982
0.0477404
0.0494865
0.0475543
0.0503928
0.0473591
0.0512556
0.0472977
0.0521677
0.0475593
0.053257
0.048075
0.0546952
0.0483716
0.0557199
0.0486165
0.0563715
0.0485734
0.0565672
0.0483486
0.0566571
0.0484457
0.0563587
0.0487323
0.0556683
0.0482579
0.0552804
0.0483136
0.0553113
0.0479882
0.0556537
0.0475317
0.0561887
0.0474226
0.0569076
0.0470583
0.0575516
0.0463265
0.0581716
0.0452384
0.0586575
0.0439642
0.0590453
0.0437525
0.0594304
0.0443567
0.0595591
0.0454273
0.0595768
0.0465954
0.0595776
0.047858
0.0595106
0.0489092
0.0594871
0.0501197
0.0594085
0.0509823
0.0593325
0.0519366
0.0593795
0.0524906
0.0594678
0.0531753
0.0595156
0.0539843
0.0595159
0.0547109
0.0601783
0.0554731
0.0608827
0.0568999
0.0622461
0.059002
0.0641603
0.0602988
0.0642911
0.0608799
0.0648746
0.0618098
0.0648725
0.0620243
0.0647546
0.0621194
0.0641196
0.0620925
0.0639467
0.0620289
0.063539
0.0618037
0.0631128
0.0618387
0.0629601
0.061673
0.0626679
0.0614185
0.0622355
0.0614753
0.0617413
0.0616961
0.0610759
0.0617436
0.0600682
0.0615334
0.0592338
0.0611287
0.0591452
0.0595397
0.0594102
0.0595499
0.0591786
0.0597131
0.0591428
0.0591668
0.0587717
0.0583341
0.0574113
0.0577806
0.0566332
0.0568894
0.0563449
0.0561231
0.0557791
0.0557932
0.0555297
0.0552374
0.0551856
0.0549921
0.0546116
0.0540939
0.0541632
0.0534114
0.0537293
0.0531771
0.0534305
0.0525114
0.053128
0.0521973
0.0528159
0.0517132
0.0525951
0.0512935
0.0523379
0.050538
0.0518152
0.0502011
0.0514741
0.0499652
0.0510131
0.0494846
0.0506729
0.049152
0.0505227
0.0485184
0.050277
0.0481085
0.0499977
0.0476479
0.0497226
0.0472339
0.0494969
0.0467245
0.04929
0.0462919
0.0491404
0.0459106
0.0490053
0.0455376
0.0487881
0.0450295
0.0486064
0.044525
0.0484082
0.0440071
0.0483071
0.043579
0.0480748
0.0430832
0.0478679
0.0426218
0.0476478
0.0421729
0.0474335
0.0417188
0.0471273
0.0412322
0.0468989
0.0407164
0.0466176
0.040221
0.046386
0.0397326
0.0460646
0.03924
0.045766
0.0387617
0.0454192
0.0382729
0.0450911
0.0377895
0.0447368
0.0373318
0.044381
0.0368401
0.0440165
0.0364165
0.0436262
0.0359303
0.0432227
0.0355286
0.042795
0.0350605
0.0423885
0.0346205
0.0419547
0.0342129
0.0415513
0.0337398
0.0411123
0.0333865
0.0407342
0.0329077
0.0402599
0.032543
0.0398617
0.0320251
0.0393985
0.0316256
0.039019
0.0311837
0.038637
0.0307505
0.0382006
0.0303748
0.0378116
0.0298865
0.0373772
0.0299362
0.0370017
0.0304545
0.0309718
0.0373589
0.0317945
0.0370017
0.0322886
0.0366492
0.0327856
0.0363157
0.0332431
0.0359775
0.0337111
0.0356564
0.0341358
0.0353434
0.0345778
0.0350315
0.0349917
0.0347427
0.0353988
0.0344813
0.0358217
0.0342162
0.0362068
0.0339714
0.0365709
0.0337266
0.0369793
0.0334989
0.037299
0.0332605
0.0377221
0.0330203
0.038002
0.0327893
0.038408
0.0325543
0.0387135
0.0323223
0.0390543
0.03208
0.0393743
0.0318638
0.0396992
0.0316374
0.0400158
0.0316725
0.040356
0.0321215
0.0406287
0.0325747
0.0409831
0.0330145
0.0412433
0.0334589
0.0415829
0.033888
0.0418701
0.0343243
0.0422008
0.0347303
0.042482
0.0351201
0.0427791
0.0355045
0.0430463
0.0358723
0.043335
0.0362818
0.0435901
0.0366481
0.0438802
0.0370178
0.0441369
0.0373612
0.0444289
0.0376832
0.0447245
0.0380266
0.0450156
0.0383064
0.0453333
0.0386428
0.0455924
0.0387645
0.045884
0.0389316
0.0461372
0.0390941
0.0463719
0.0393292
0.046559
0.0395783
0.0467406
0.0397137
0.0469037
0.0400469
0.0470596
0.0401283
0.0470662
0.0401185
0.0474751
0.0401133
0.0475384
0.0400985
0.0475726
0.0402067
0.0479039
0.0403242
0.0478783
0.0402532
0.048096
0.0401986
0.0481348
0.0401626
0.0482675
0.040233
0.0483321
0.0402627
0.0487344
0.0403755
0.0488445
0.0403647
0.0491648
0.0403567
0.0492919
0.0402759
0.0495261
0.0402798
0.0498068
0.0403716
0.0499999
0.0402934
0.0501867
0.0402705
0.0504552
0.0402658
0.0506593
0.0402067
0.0508834
0.0401649
0.0510567
0.0400664
0.0510947
0.0397845
0.0511268
0.0395542
0.0510594
0.0407996
0.0507469
0.0425899
0.0502618
0.0448788
0.0494796
0.0474093
0.0485855