/*--------------------------------*- C++ -*----------------------------------*\
| =========                 |                                                 |
| \\      /  F ield         | OpenFOAM: The Open Source CFD Toolbox           |
|  \\    /   O peration     | Version:  2.2.x                                 |
|   \\  /    A nd           | Web:      www.OpenFOAM.org                      |
|    \\/     M anipulation  |                                                 |
\*---------------------------------------------------------------------------*/
FoamFile
{
    version     2.0;
    format      ascii;
    class       surfaceScalarField;
    location    "1";
    object      cfmax;
}
// * * * * * * * * * * * * * * * * * * * * * * * * * * * * * * * * * * * * * //

dimensions      [0 3 -1 0 0 0 0];

internalField   nonuniform List<scalar> 
28084
(
0.00125064
0.00124363
0.00123947
0.00123554
0.0012326
0.00123026
0.00122861
0.00122754
0.00122706
0.00122707
0.00122758
0.00122849
0.00122975
0.00123135
0.00123323
0.00123532
0.00123759
0.00124
0.00124249
0.00124503
0.0012476
0.00125013
0.00125261
0.00125501
0.00125731
0.00125946
0.00126145
0.00126326
0.00126489
0.00126631
0.00126751
0.00126851
0.00126928
0.00126981
0.00127008
0.0012701
0.0012698
0.00126931
0.00126866
0.00126771
0.0012664
0.0012648
0.00126297
0.00126112
0.00125909
0.00127502
0.00129185
0.00131099
0.00133226
0.00135624
0.00136646
0.00104633
0.00100247
0.00102013
0.00102636
0.00102854
0.00103553
0.0010478
0.0010638
0.00107842
0.00109497
0.00111044
0.00112712
0.00114649
0.00116397
0.00117965
0.0011938
0.0012069
0.0012193
0.00123085
0.00124133
0.00125134
0.00126238
0.0012708
0.00127331
0.00126583
0.00125172
0.00123349
0.00122155
0.00121403
0.00120939
0.00120214
0.00116966
0.00108007
0.00097487
0.00087236
0.000794344
0.00074154
0.000703595
0.000672563
0.000648057
0.000630439
0.00061931
0.00061229
0.000608858
0.000607759
0.000608556
0.00061081
0.000613878
0.000617145
0.00062063
0.000624101
0.000627648
0.000631679
0.000636474
0.000642205
0.000648472
0.000655224
0.000661891
0.000668779
0.000675872
0.000683625
0.000692314
0.000701997
0.000712711
0.0007243
0.00073664
0.000749288
0.00361144
0.00359975
0.00125654
0.00358836
0.00125333
0.00356751
0.00125295
0.00353995
0.00125274
0.00350523
0.00125348
0.00346381
0.00125478
0.00341589
0.00125674
0.00336191
0.00125924
0.00330224
0.00126228
0.00323755
0.00126578
0.00316838
0.00126971
0.00309486
0.00127401
0.00301751
0.00127859
0.00293686
0.00128347
0.00285335
0.00128855
0.0027675
0.00129377
0.00267985
0.00129911
0.00259078
0.00130452
0.00250079
0.00130992
0.00241033
0.00131529
0.00231978
0.00132061
0.00222951
0.0013258
0.00213988
0.00133084
0.0020512
0.00133571
0.00196375
0.00134037
0.0018778
0.0013448
0.00179354
0.00134897
0.00171119
0.00135286
0.00163092
0.00135647
0.00155288
0.00135979
0.00147718
0.00136279
0.00140391
0.0013655
0.00133313
0.00136792
0.00126489
0.00137001
0.00119918
0.00137174
0.00113606
0.00137308
0.00107574
0.00137411
0.0010181
0.00137491
0.000962932
0.00137531
0.000910224
0.00137534
0.000859881
0.00137505
0.000811965
0.0013744
0.00076642
0.00137339
0.000723187
0.00137227
0.000731772
0.00137106
0.000732854
0.00138642
0.0007342
0.00140214
0.000739149
0.00142064
0.000750003
0.00143923
0.000842721
0.00146776
0.000730572
0.00127332
0.000621244
0.00095687
0.000612828
0.000940909
0.000606753
0.000949133
0.000604099
0.000959348
0.000606092
0.000971629
0.000609522
0.000990809
0.000615335
0.00101006
0.000621313
0.00103449
0.00062836
0.00105796
0.000634772
0.00108252
0.000641879
0.00110579
0.000648638
0.00112905
0.000654868
0.0011512
0.000660252
0.00117069
0.000665185
0.00118747
0.000669737
0.0012025
0.000674287
0.00121647
0.000679623
0.00122981
0.000685018
0.00124294
0.000690045
0.00125615
0.000694155
0.00126957
0.000699435
0.00128068
0.000702625
0.00128704
0.000704215
0.00128739
0.000705545
0.00128042
0.00069617
0.00126122
0.000690146
0.00122008
0.000695688
0.00120212
0.000694097
0.00118629
0.000682542
0.00115089
0.000673966
0.00108734
0.000678708
0.00103166
0.000668722
0.000974906
0.000648822
0.000919958
0.00061802
0.000867298
0.000588979
0.000817476
0.000572241
0.000771806
0.000562903
0.000735978
0.000555647
0.000711773
0.000548727
0.000695921
0.000545689
0.000682366
0.000545309
0.000672383
0.000546172
0.000664626
0.000551973
0.000658033
0.000558451
0.000653062
0.00056422
0.00064954
0.000568697
0.00064685
0.000572353
0.000644717
0.000576266
0.000643524
0.000580498
0.000643207
0.000584762
0.000643381
0.000589162
0.00064477
0.000593622
0.000647462
0.000598551
0.000651226
0.000603597
0.000656037
0.000609919
0.000661632
0.000616902
0.000667882
0.000623747
0.00067417
0.000630791
0.000680963
0.000638278
0.000687876
0.000645702
0.00069531
0.000653849
0.000703333
0.00066212
0.000712401
0.000671608
0.00072252
0.000682186
0.00073346
0.00069575
0.000745027
0.000707514
0.00075548
0.00361253
0.00360037
0.0012644
0.00358857
0.00126496
0.00356731
0.0012683
0.00353936
0.00127177
0.00350427
0.00127615
0.0034625
0.00128105
0.00341533
0.00128657
0.0033623
0.0012926
0.00330351
0.00129912
0.00323942
0.00130606
0.00317047
0.00131339
0.00309713
0.00132103
0.00301995
0.0013289
0.00293942
0.00133702
0.00285602
0.00134527
0.00277025
0.0013536
0.00268264
0.00136198
0.0025936
0.00137035
0.00250361
0.00137863
0.00241314
0.0013868
0.00232254
0.00139483
0.00223221
0.00140265
0.0021425
0.00141023
0.00205373
0.00141753
0.00196617
0.00142454
0.00188009
0.00143122
0.00179569
0.00143753
0.00171321
0.00144346
0.00163277
0.00144901
0.00155456
0.00145415
0.00147866
0.00145886
0.00140519
0.00146317
0.0013342
0.00146704
0.00126574
0.00147047
0.00119981
0.00147346
0.00113644
0.00147598
0.00107567
0.00147807
0.00101741
0.00147976
0.000962291
0.00148093
0.000909738
0.00148168
0.000859632
0.00148202
0.000811882
0.0014821
0.000766472
0.00148156
0.000723287
0.00148067
0.000739727
0.00147919
0.00074038
0.00149208
0.00074063
0.00150459
0.000743789
0.00151802
0.000753753
0.00152713
0.000811139
0.00154086
0.000645916
0.001107
0.000559139
0.000892086
0.000549513
0.000881287
0.000561566
0.000899445
0.000573865
0.000934172
0.000588616
0.000966376
0.000600498
0.000998312
0.000611821
0.00102895
0.000622902
0.00106094
0.00063188
0.00109095
0.000641394
0.00112163
0.000649693
0.00114937
0.000655434
0.00117434
0.000661402
0.00119812
0.000666429
0.0012187
0.00067091
0.00123562
0.000675615
0.00125148
0.000680266
0.00126629
0.000685553
0.00127999
0.000691194
0.00129275
0.000696335
0.0013051
0.000700774
0.00131843
0.000704639
0.0013309
0.000707322
0.00133726
0.000708381
0.00133318
0.000705447
0.00130803
0.00070304
0.00127921
0.00069547
0.00125123
0.000673215
0.0012034
0.000652792
0.00112645
0.000661327
0.00107463
0.000661354
0.00102553
0.000666167
0.00097189
0.000675476
0.000933478
0.000667864
0.00090795
0.000650243
0.000873772
0.000623239
0.000836821
0.000603482
0.000796698
0.000583604
0.000762363
0.000569171
0.00073708
0.000561263
0.000717024
0.000556358
0.000701051
0.000553651
0.000689652
0.000552813
0.000681757
0.000553456
0.00067592
0.000560345
0.000671226
0.000566242
0.00066738
0.000570646
0.000664502
0.000574872
0.00066203
0.00057891
0.000660295
0.000582903
0.000659409
0.000586476
0.000658968
0.0005904
0.000659705
0.000594687
0.000662013
0.000599294
0.000665423
0.000603853
0.000669695
0.000610905
0.000674664
0.000618977
0.000680395
0.000626586
0.000685764
0.00063512
0.000691442
0.000643503
0.000696941
0.000652812
0.000702648
0.000662154
0.000709067
0.000672291
0.000716581
0.000683143
0.00072518
0.000696492
0.00073441
0.000715277
0.000744421
0.000731694
0.000754726
0.00361137
0.0035988
0.00127424
0.0035866
0.0012785
0.00356495
0.00128552
0.00353828
0.00129262
0.00350509
0.00130059
0.00346509
0.00130904
0.00341851
0.00131808
0.00336577
0.00132759
0.00330722
0.00133755
0.00324334
0.00134788
0.00317459
0.00135856
0.0031014
0.00136949
0.00302435
0.00138063
0.00294392
0.00139196
0.00286058
0.00140333
0.00277484
0.00141472
0.00268724
0.00142609
0.00259817
0.0014374
0.00250814
0.00144854
0.00241758
0.00145948
0.0023269
0.00147019
0.00223645
0.0014806
0.00214661
0.00149069
0.00205768
0.00150041
0.00196995
0.00150974
0.00188369
0.00151864
0.0017991
0.00152709
0.00171641
0.00153507
0.00163576
0.00154259
0.00155733
0.00154963
0.00148121
0.00155618
0.00140752
0.00156226
0.00133629
0.00156786
0.00126759
0.00157298
0.00120143
0.00157756
0.00113782
0.00158159
0.00107678
0.00158511
0.00101829
0.00158816
0.000962336
0.00159068
0.000909165
0.0015927
0.000859332
0.00159424
0.000811868
0.00159535
0.00076668
0.001596
0.000723745
0.00159597
0.000748666
0.00159525
0.000749362
0.00160714
0.000749993
0.001618
0.000750741
0.00162878
0.000757965
0.00163567
0.000715818
0.00163889
0.000579477
0.00106817
0.000535016
0.000898425
0.000544455
0.000891279
0.000561517
0.000917921
0.00057932
0.000967561
0.000595628
0.00100871
0.000611164
0.00104809
0.000622638
0.00108471
0.000634029
0.00112061
0.000643531
0.00115376
0.000655614
0.00118584
0.000661797
0.00121127
0.000666406
0.00123989
0.000672032
0.00126486
0.000676201
0.00128549
0.00068
0.00130356
0.000684991
0.00131974
0.000689771
0.00133353
0.000694323
0.00134587
0.000699506
0.00135787
0.000702886
0.00137149
0.000708215
0.00138412
0.000709699
0.00139219
0.000713368
0.00139222
0.000715907
0.00138878
0.000714219
0.0013827
0.000712571
0.0013466
0.000700885
0.00126562
0.000698452
0.00121726
0.00068177
0.00117879
0.000687981
0.0011244
0.000690063
0.00105447
0.000693523
0.00102085
0.000693139
0.000996113
0.000691626
0.000962999
0.000680423
0.000927424
0.000655898
0.000893701
0.000631522
0.00085076
0.000605458
0.000807908
0.000586659
0.000775419
0.000573429
0.000750117
0.000564958
0.000729224
0.000560126
0.000714373
0.000557766
0.000704203
0.000557482
0.000697388
0.000563358
0.000691786
0.000569835
0.000687696
0.000575166
0.000684615
0.000579954
0.00068204
0.000584476
0.000679963
0.000588743
0.000678424
0.000592706
0.000677336
0.000596777
0.000676811
0.00060089
0.000677643
0.000604935
0.000679665
0.000608895
0.000682743
0.000616204
0.000686533
0.000625347
0.000690898
0.000633209
0.000694861
0.000643036
0.000699076
0.000652207
0.000703146
0.000662434
0.000707565
0.000672515
0.000712206
0.000684249
0.00071795
0.000696659
0.000725353
0.000712769
0.000733977
0.000735322
0.000744011
0.000754665
0.000755709
0.00360799
0.00359634
0.00128606
0.00358705
0.00129396
0.00356828
0.0013046
0.00354268
0.00131526
0.00350982
0.00132677
0.00347013
0.00133872
0.00342383
0.00135122
0.00337135
0.00136415
0.00331303
0.00137751
0.00324933
0.0013912
0.00318071
0.00140517
0.00310768
0.00141934
0.00303074
0.00143371
0.00295035
0.00144817
0.00286701
0.00146265
0.00278127
0.00147706
0.00269363
0.00149141
0.0026045
0.00150559
0.00251437
0.00151952
0.00242369
0.00153318
0.00233285
0.00154654
0.00224225
0.00155952
0.00215222
0.00157208
0.00206309
0.00158418
0.00197513
0.00159579
0.00188863
0.00160687
0.0018038
0.0016174
0.00172085
0.00162736
0.00163994
0.00163674
0.00156122
0.00164551
0.00148481
0.00165365
0.00141081
0.0016612
0.00133927
0.00166811
0.00127024
0.00167439
0.00120373
0.00167998
0.00113979
0.00168488
0.00107843
0.00168923
0.00101963
0.00169301
0.000963332
0.00169609
0.000909533
0.00169854
0.000858217
0.00170049
0.000811011
0.00170178
0.000765954
0.00170242
0.000722983
0.00170197
0.000756027
0.00170084
0.000756609
0.00171169
0.000756737
0.00172144
0.000756106
0.00173093
0.000752018
0.00173739
0.000623285
0.00174498
0.00053434
0.00114392
0.000537491
0.000965029
0.000563838
0.000958746
0.000587869
0.000995919
0.00060632
0.00105583
0.000622319
0.00110313
0.000637519
0.00114671
0.000647237
0.00118487
0.000657111
0.00122323
0.000664936
0.00125714
0.00067483
0.00129107
0.00067722
0.00132037
0.000680716
0.00134698
0.000684502
0.00137433
0.000686446
0.00139388
0.000690507
0.00141163
0.000695201
0.00142695
0.000699346
0.00143903
0.000703937
0.00144974
0.000709176
0.00146053
0.000712222
0.0014689
0.000713396
0.00147587
0.000709478
0.00148215
0.000717595
0.0014892
0.000740075
0.00149066
0.000737781
0.00147188
0.0007348
0.00141669
0.000726421
0.0013822
0.000739954
0.00133818
0.000742284
0.00126113
0.000733962
0.00120806
0.000723749
0.00116851
0.000740543
0.00113078
0.000739458
0.0010941
0.000726802
0.0010606
0.00071738
0.00102534
0.000699333
0.000981728
0.000667187
0.000930563
0.000635132
0.000876423
0.000609096
0.000827898
0.000590744
0.000791651
0.000578211
0.000764264
0.00056954
0.000745042
0.000564419
0.000731284
0.000563101
0.000723038
0.000566933
0.000716455
0.00057371
0.000711031
0.000579479
0.000706654
0.000584799
0.000702953
0.000589486
0.000699629
0.000593734
0.000696886
0.00059745
0.000695009
0.000601274
0.000693735
0.000604867
0.000693297
0.000608451
0.000693869
0.000612771
0.000695235
0.000620675
0.00069701
0.000630847
0.000699483
0.000639584
0.000701956
0.000650854
0.000704311
0.000661084
0.000706273
0.000672892
0.000709084
0.000683713
0.000712103
0.000696768
0.000715776
0.00071059
0.000721729
0.000728935
0.000729629
0.000754659
0.000740516
0.000777095
0.00075483
0.00361095
0.00360191
0.00129986
0.00359297
0.00131134
0.00357454
0.00132553
0.00354928
0.0013397
0.00351672
0.00135468
0.00347732
0.00137007
0.00343128
0.00138597
0.00337902
0.00140228
0.00332091
0.00141896
0.00325737
0.00143595
0.00318887
0.00145316
0.00311594
0.00147054
0.00303906
0.00148806
0.00295868
0.00150562
0.00287533
0.00152314
0.00278955
0.00154052
0.00270183
0.00155778
0.00261256
0.00157482
0.00252228
0.00159153
0.00243142
0.00160788
0.00234039
0.00162383
0.00224957
0.00163932
0.00215928
0.00165431
0.00206989
0.00166876
0.00198166
0.00168264
0.00189485
0.00169589
0.0018097
0.00170851
0.00172643
0.00172049
0.00164519
0.00173181
0.00156614
0.00174249
0.00148939
0.0017525
0.00141506
0.00176185
0.00134317
0.00177061
0.0012738
0.00177865
0.00120694
0.00178602
0.00114266
0.00179271
0.00108096
0.0017988
0.0010218
0.00180418
0.000965131
0.0018089
0.000911017
0.00181297
0.000859281
0.00181637
0.000810104
0.00181917
0.000765377
0.00182128
0.000722792
0.00182279
0.000764161
0.00182329
0.000764915
0.00183349
0.000764872
0.00184326
0.000763685
0.00185424
0.000737582
0.00185961
0.000715067
0.00186843
0.000594707
0.00141586
0.000541886
0.00110815
0.000600741
0.00110442
0.000636962
0.00115313
0.000653198
0.00122356
0.000668073
0.00126945
0.000681131
0.00130842
0.000687222
0.00133865
0.000695912
0.00137215
0.000700595
0.00140375
0.000706751
0.00143062
0.000705721
0.0014514
0.000709108
0.00147296
0.000707152
0.00149695
0.000707356
0.00151461
0.000709748
0.00153553
0.000712543
0.0015476
0.000715926
0.00155774
0.00071929
0.0015664
0.000721653
0.00157368
0.000721413
0.00157872
0.000719948
0.001582
0.000719001
0.00158761
0.000737862
0.00159665
0.000749871
0.00159313
0.000758262
0.00157204
0.000775574
0.00155786
0.000792506
0.00150609
0.000795251
0.00145129
0.00078629
0.0014003
0.000803955
0.00135704
0.000803351
0.00131047
0.000798054
0.0012692
0.000790041
0.00122774
0.000787526
0.00118668
0.000776687
0.0011419
0.000753257
0.00108924
0.000719514
0.00103658
0.000678932
0.000970089
0.00064178
0.000898048
0.000614618
0.000842154
0.000594798
0.000803812
0.000581911
0.000777978
0.000572779
0.000759184
0.000569841
0.000746661
0.000570588
0.000738323
0.000577587
0.000731804
0.000583413
0.000726298
0.000588916
0.000721728
0.000593809
0.000717807
0.000598217
0.000714258
0.000602324
0.000711512
0.000606082
0.00070918
0.000608901
0.00070696
0.000611767
0.000705682
0.000618369
0.000705122
0.000626602
0.000705062
0.000637658
0.000705459
0.000647625
0.000705994
0.000660342
0.00070694
0.000671557
0.000708148
0.000684803
0.000710419
0.000696616
0.000713192
0.000710572
0.000716396
0.000725331
0.000721552
0.000744492
0.000728539
0.000772149
0.000739842
0.000796936
0.000755625
0.00361839
0.00360972
0.00131565
0.00360111
0.00133063
0.003583
0.0013483
0.00355804
0.00136591
0.00352578
0.00138429
0.00348664
0.00140306
0.00344084
0.0014223
0.00338879
0.00144191
0.00333085
0.00146186
0.00326745
0.00148208
0.00319905
0.00150249
0.00312618
0.00152302
0.00304932
0.00154365
0.00296889
0.00156423
0.00288548
0.00158469
0.00279963
0.00160503
0.00271179
0.00162518
0.0026224
0.001645
0.00253194
0.00166443
0.00244083
0.00168341
0.00234952
0.0017019
0.00225842
0.00171986
0.00216784
0.00173724
0.00207815
0.00175401
0.00198958
0.00177009
0.00190244
0.00178546
0.00181695
0.00180008
0.0017333
0.00181394
0.00165168
0.00182702
0.00157224
0.00183931
0.00149509
0.0018508
0.00142035
0.00186147
0.00134805
0.00187137
0.00127824
0.00188038
0.00121097
0.0018885
0.00114629
0.00189578
0.00108416
0.00190237
0.00102459
0.00190814
0.000967496
0.00191307
0.000912928
0.00191708
0.000860722
0.00192039
0.000810917
0.00192292
0.000764258
0.00192478
0.000722261
0.00192553
0.000772225
0.00192599
0.000773227
0.00193613
0.000776173
0.0019468
0.000771322
0.00195873
0.000750419
0.00197289
0.000814573
0.00200185
0.000707503
0.00194668
0.000598089
0.00139354
0.000681631
0.00134433
0.000719761
0.0013942
0.000729948
0.00144672
0.000732911
0.0014775
0.000732621
0.00150073
0.000729921
0.0015157
0.000736016
0.0015411
0.000734665
0.00155997
0.0007332
0.0015716
0.000727842
0.00158839
0.000728697
0.00160033
0.000723259
0.00162159
0.000724544
0.00163134
0.000724628
0.00165305
0.000726488
0.00165668
0.000728864
0.00166824
0.000730833
0.00167342
0.00073188
0.00167881
0.000730212
0.00168197
0.0007288
0.00168691
0.00073299
0.00168908
0.000747818
0.00169207
0.000767107
0.00169165
0.000796071
0.00169786
0.000816011
0.00165182
0.000830176
0.00160322
0.000848855
0.00156922
0.000864417
0.00153113
0.00087291
0.00150046
0.000873188
0.00146592
0.000869472
0.00142131
0.000862265
0.00137307
0.000856491
0.00132256
0.000840995
0.00127375
0.000822219
0.00122007
0.000789924
0.00115807
0.000741562
0.00108341
0.000692183
0.000999285
0.000648091
0.00091544
0.000617421
0.000856482
0.000597967
0.000817419
0.000584327
0.000790366
0.000577962
0.00077312
0.000576215
0.000761603
0.000581147
0.000753435
0.00058702
0.000746322
0.000592567
0.000740237
0.000597463
0.000735134
0.000601955
0.000730244
0.000606193
0.000725835
0.000609554
0.0007219
0.000611568
0.000718382
0.000616083
0.000715228
0.000624829
0.000712265
0.000633859
0.00070941
0.000645875
0.000707712
0.000656571
0.000706788
0.000669996
0.000706122
0.000681942
0.000706365
0.00069659
0.00070836
0.000709734
0.00071125
0.000724758
0.000715317
0.000740631
0.000720734
0.000759487
0.000727453
0.000788441
0.00073907
0.000815172
0.000756483
0.00362809
0.00361974
0.00133346
0.00361144
0.00135185
0.00359364
0.00137292
0.00356896
0.00139389
0.00353697
0.00141561
0.00349808
0.00143767
0.00345249
0.00146018
0.00340062
0.00148303
0.00334284
0.00150618
0.00327956
0.00152957
0.00321124
0.0015531
0.00313842
0.00157671
0.00306152
0.00160037
0.00298101
0.00162394
0.00289751
0.00164733
0.00281156
0.00167057
0.00272353
0.00169348
0.00263391
0.001716
0.00254322
0.00173809
0.00245184
0.00175968
0.00236021
0.0017807
0.00226877
0.0018011
0.00217785
0.00182082
0.00208779
0.00183984
0.00199883
0.00185809
0.00191127
0.00187556
0.00182533
0.0018922
0.00174124
0.00190804
0.00165917
0.00192305
0.00157928
0.00193723
0.00150169
0.00195059
0.0014265
0.00196315
0.00135375
0.00197491
0.00128348
0.00198584
0.00121576
0.00199592
0.00115064
0.00200519
0.00108807
0.00201373
0.00102805
0.00202152
0.000970501
0.00202852
0.000915509
0.00203479
0.000862928
0.00204036
0.000812714
0.00204542
0.000764782
0.0020501
0.000721356
0.00205447
0.000779984
0.00205833
0.0007819
0.0020695
0.000784544
0.00208316
0.000784797
0.00210013
0.000786594
0.00212292
0.000771739
0.0021427
0.00084362
0.0021792
0.000706588
0.00194168
0.000765379
0.00155085
0.000783531
0.00156552
0.000786257
0.00161911
0.000789353
0.00164661
0.000781237
0.00165915
0.00077508
0.00166802
0.000774471
0.00168012
0.000766784
0.00168289
0.000763397
0.00168165
0.000754134
0.00169406
0.000753475
0.00170175
0.000745456
0.0017184
0.000747021
0.00172443
0.000743306
0.00174967
0.000744772
0.00174852
0.000744795
0.00175284
0.00074572
0.00175585
0.000745353
0.00176036
0.00074468
0.00176081
0.000741624
0.00176405
0.000750544
0.0017656
0.000767527
0.00177355
0.000793169
0.0017729
0.000818469
0.00176732
0.000840154
0.00173612
0.00087651
0.00167387
0.000896196
0.00164559
0.000911734
0.00161551
0.000929668
0.00160934
0.000936208
0.00156942
0.000934752
0.00154009
0.000929619
0.0015039
0.000924046
0.00145866
0.000912245
0.00140266
0.000894514
0.00134294
0.000865676
0.00128072
0.000824702
0.00120959
0.000767436
0.00112789
0.000698826
0.00103233
0.000651182
0.000932416
0.000621098
0.000866514
0.000598806
0.000825377
0.000588674
0.000800943
0.000584048
0.000786113
0.000584602
0.000774977
0.00059041
0.000766307
0.000595465
0.000758723
0.00059995
0.000752152
0.000604469
0.000745837
0.000608183
0.00073953
0.000611287
0.000733201
0.000616434
0.000728088
0.000623099
0.00072299
0.000632656
0.000718664
0.000642031
0.000715291
0.000654583
0.000712655
0.000666381
0.000710827
0.00068035
0.000710063
0.000692553
0.000710298
0.000707724
0.000710676
0.000721716
0.000711676
0.00073816
0.000715969
0.000755695
0.000721393
0.000773882
0.000728296
0.000803233
0.000739758
0.000831524
0.000757901
0.00363998
0.00363196
0.00135328
0.00362394
0.001375
0.00360642
0.00139939
0.00358202
0.00142363
0.00355028
0.0014486
0.00351161
0.00147388
0.00346623
0.00149959
0.00341452
0.0015256
0.00335687
0.00155187
0.00329368
0.00157835
0.00322539
0.00160494
0.00315258
0.00163155
0.00307562
0.00165819
0.00299505
0.00168467
0.00291146
0.00171091
0.00282531
0.00173696
0.00273702
0.0017626
0.00264713
0.00178779
0.00255615
0.00181249
0.00246447
0.00183661
0.00237253
0.00186007
0.00228071
0.00188283
0.00218937
0.00190485
0.00209886
0.00192606
0.00200947
0.00194643
0.00192145
0.00196592
0.00183507
0.00198449
0.00175054
0.00200212
0.001668
0.0020188
0.00158763
0.00203451
0.00150952
0.00204924
0.00143382
0.00206295
0.00136056
0.00207568
0.0012898
0.0020874
0.00122155
0.00209806
0.00115593
0.00210763
0.00109286
0.00211638
0.00103235
0.00212413
0.000974311
0.00213089
0.000918749
0.0021365
0.000865598
0.00214106
0.000814834
0.00214454
0.000766553
0.00214758
0.000720288
0.00214954
0.000786646
0.00215014
0.00078808
0.00215716
0.000789564
0.00216346
0.000791117
0.00216909
0.000788083
0.00217541
0.000801946
0.00217667
0.000821712
0.00217458
0.000739055
0.00183556
0.000786268
0.00159046
0.000798607
0.00164345
0.000811196
0.00168913
0.000815373
0.00171911
0.00080984
0.00173171
0.000800149
0.00173673
0.000795622
0.00174658
0.000782941
0.00174814
0.000778581
0.00174309
0.000767382
0.00175554
0.000765663
0.00176352
0.000756605
0.00177821
0.000759721
0.00178567
0.000754219
0.00180788
0.000752989
0.00180453
0.000752052
0.0018091
0.000752546
0.00181153
0.000750723
0.00181496
0.000749122
0.00181487
0.000746723
0.00181933
0.000764351
0.0018218
0.00078425
0.00183181
0.000806855
0.00183198
0.000837772
0.0018204
0.000867857
0.00178363
0.00089991
0.00172421
0.000927675
0.00170414
0.000958852
0.00169754
0.000968041
0.00166834
0.000969606
0.00163752
0.00098203
0.00161622
0.000985675
0.00159007
0.000982574
0.00154752
0.000973366
0.00150098
0.000959757
0.00145448
0.000935215
0.00140259
0.000903361
0.00133822
0.000851096
0.00126052
0.00078177
0.00116157
0.000705731
0.00105019
0.000655287
0.000938037
0.000618812
0.000871519
0.000601419
0.000832987
0.000593582
0.000812323
0.000591993
0.000798011
0.000593642
0.000787175
0.000597605
0.000778442
0.000602383
0.000770449
0.000606769
0.000762263
0.000612034
0.00075419
0.000616863
0.000746476
0.000623894
0.000739244
0.00063039
0.000731994
0.000640352
0.000726896
0.000650351
0.000722475
0.000663409
0.000719013
0.000676135
0.000716783
0.000690957
0.000715844
0.000704613
0.000715878
0.000720334
0.000716625
0.000733746
0.000717788
0.000751077
0.000721178
0.000770013
0.00072604
0.000787979
0.000732562
0.00081715
0.000742933
0.000846346
0.000760316
0.00365409
0.00364634
0.00137515
0.0036386
0.0014001
0.00362135
0.00142771
0.00359719
0.00145513
0.00356568
0.00148327
0.00352723
0.00151168
0.00348203
0.0015405
0.00343046
0.00156958
0.00337292
0.0015989
0.00330979
0.0016284
0.00324152
0.00165795
0.00316868
0.0016875
0.00309165
0.00171703
0.00301095
0.00174635
0.00292719
0.00177538
0.00284081
0.00180416
0.00275227
0.00183247
0.00266209
0.00186025
0.00257078
0.00188747
0.00247871
0.00191408
0.00238635
0.00193994
0.00229409
0.00196502
0.0022023
0.00198928
0.00211129
0.00201265
0.0020214
0.0020351
0.00193285
0.0020566
0.00184592
0.00207711
0.0017608
0.00209664
0.00167771
0.00211518
0.00159677
0.00213273
0.00151812
0.00214932
0.00144185
0.00216491
0.00136804
0.00217955
0.00129672
0.00219329
0.00122793
0.00220601
0.00116175
0.00221778
0.00109814
0.00222861
0.00103707
0.00223864
0.000978509
0.00224769
0.000922433
0.00225581
0.000868786
0.00226313
0.000817621
0.00226994
0.000768733
0.0022762
0.000721927
0.0022815
0.000793771
0.00228559
0.000795708
0.00229317
0.000797337
0.0023018
0.000798926
0.00230996
0.000804863
0.00231854
0.000851761
0.002326
0.000949677
0.00231083
0.000794541
0.00179879
0.000796912
0.00166162
0.000799376
0.00166998
0.000811037
0.00171579
0.000816803
0.00175893
0.000812797
0.00178163
0.000804465
0.00179772
0.000798122
0.00180408
0.000784028
0.00180478
0.000780992
0.00180052
0.00076853
0.00181378
0.00076733
0.00182199
0.00075617
0.00183744
0.000760669
0.00184692
0.000754346
0.00186745
0.000753046
0.00186472
0.000751547
0.00186897
0.000750997
0.00186956
0.000748955
0.00186931
0.000747424
0.00187157
0.00075395
0.00187183
0.00077147
0.00188307
0.000793208
0.00188728
0.000815566
0.0018858
0.00085052
0.00185497
0.0008834
0.00178454
0.000926649
0.00174926
0.000959112
0.00175085
0.000982359
0.0017435
0.000992376
0.00171637
0.00100479
0.0016882
0.00102261
0.00167718
0.00102496
0.00165352
0.00102354
0.00160698
0.0010218
0.00157216
0.00101198
0.00153667
0.000998155
0.00149327
0.000976527
0.0014425
0.000935536
0.00137851
0.000876387
0.00129545
0.000793563
0.00118915
0.000708666
0.00106323
0.000649956
0.000945159
0.000619135
0.00087819
0.000605287
0.000845335
0.000600958
0.000825785
0.000601121
0.000811883
0.000604368
0.000800631
0.000609607
0.000790294
0.000614217
0.000780043
0.000620311
0.000770166
0.000624782
0.000760107
0.000632008
0.000751098
0.000638197
0.00074318
0.000648246
0.000736824
0.000658517
0.000731096
0.000672093
0.000726711
0.000685477
0.000724189
0.000701304
0.000723277
0.000716006
0.000723223
0.000732338
0.000724302
0.000746337
0.000725377
0.000764003
0.000728463
0.000783897
0.000732876
0.000802379
0.000738551
0.000830965
0.000747441
0.00086054
0.000763209
0.00367034
0.00366287
0.00139908
0.00365538
0.00142715
0.00363838
0.00145789
0.00361446
0.0014884
0.00358317
0.0015196
0.00354491
0.00155106
0.00349987
0.00158289
0.00344843
0.00161496
0.00339098
0.00164724
0.00332787
0.00167965
0.0032596
0.0017121
0.0031867
0.00174449
0.00310957
0.00177683
0.00302872
0.00180891
0.00294476
0.00184064
0.00285811
0.00187208
0.00276927
0.00190298
0.00267873
0.00193331
0.00258703
0.00196298
0.00249456
0.00199198
0.00240175
0.00202016
0.00230902
0.0020475
0.00221671
0.00207393
0.00212518
0.00209939
0.00203473
0.00212385
0.00194563
0.00214727
0.00185814
0.0021696
0.00177249
0.00219084
0.00168883
0.00221096
0.00160732
0.00222995
0.00152807
0.00224781
0.00145121
0.00226447
0.00137678
0.00228
0.00130488
0.00229429
0.00123549
0.00230742
0.00116873
0.00231931
0.00110451
0.0023302
0.00104282
0.00233981
0.000983697
0.00234829
0.000927041
0.00235563
0.000872866
0.0023616
0.000821126
0.00236672
0.000771683
0.00237087
0.000724418
0.00237375
0.000799995
0.00237483
0.000802216
0.00237967
0.000803655
0.00238442
0.000806381
0.00238871
0.000815879
0.00239169
0.00089976
0.00239643
0.000996946
0.00241538
0.000869042
0.0018999
0.000823333
0.00178777
0.000801103
0.00177116
0.000812479
0.00178565
0.000815407
0.00182536
0.000817483
0.00184857
0.000805931
0.00186242
0.000799642
0.00187171
0.000784944
0.00187571
0.000775381
0.00187052
0.000767415
0.00186828
0.000760292
0.00188634
0.000755751
0.00189404
0.000755256
0.00191688
0.000750991
0.00192176
0.000747758
0.00192285
0.000745147
0.00192185
0.000743005
0.00191983
0.000739214
0.00192098
0.000737192
0.0019172
0.000750366
0.00191928
0.000774176
0.00192094
0.000797207
0.00193022
0.000826122
0.00192762
0.000850358
0.00188205
0.00090626
0.00181467
0.000945312
0.00179259
0.000976237
0.00180206
0.000989258
0.00177285
0.00100965
0.00174472
0.0010359
0.00174579
0.00104659
0.00173334
0.00105269
0.00169764
0.001055
0.00166745
0.00105756
0.00163852
0.00105567
0.00160602
0.00104896
0.00156757
0.00103316
0.00152282
0.00100442
0.00146916
0.000961543
0.00140306
0.000893628
0.00131863
0.000797922
0.00120458
0.000702187
0.001065
0.000646873
0.000944193
0.000621393
0.000886636
0.000611607
0.000856546
0.000609558
0.000838094
0.000612532
0.000824227
0.000617861
0.000811645
0.000623039
0.000799213
0.000629302
0.000786925
0.000633627
0.000775646
0.000640807
0.00076622
0.000647055
0.000757528
0.000656657
0.000749764
0.000666837
0.00074311
0.000680734
0.000737937
0.000694645
0.00073504
0.000711441
0.00073368
0.000726949
0.000733331
0.000744084
0.000734431
0.000758962
0.000734807
0.000777035
0.000737206
0.000797857
0.00074058
0.00081731
0.000745057
0.000845163
0.000752695
0.000874567
0.000766468
0.00368874
0.00368151
0.0014251
0.00367425
0.00145618
0.00365749
0.00148993
0.00363379
0.00152343
0.00360271
0.0015576
0.00356463
0.00159199
0.00351974
0.00162673
0.0034684
0.0016617
0.00341101
0.00169683
0.00334793
0.00173208
0.00327961
0.00176734
0.00320663
0.00180248
0.00312936
0.00183754
0.00304832
0.00187228
0.00296411
0.00190665
0.00287716
0.00194064
0.00278798
0.00197407
0.00269706
0.00200685
0.00260492
0.00203891
0.00251197
0.00207024
0.00241867
0.00210068
0.00232539
0.0021302
0.00223251
0.00215873
0.00214038
0.00218624
0.00204932
0.00221267
0.00195959
0.00223799
0.00187143
0.00226218
0.00178507
0.00228523
0.00170072
0.00230712
0.00161855
0.00232787
0.00153863
0.00234749
0.00146109
0.00236599
0.00138601
0.00238336
0.00131343
0.00239969
0.00124341
0.00241485
0.00117598
0.00242894
0.00111114
0.00244193
0.00104882
0.0024539
0.000989068
0.00246483
0.000931776
0.0024747
0.00087702
0.00248375
0.000824706
0.00249191