/*--------------------------------*- C++ -*----------------------------------*\
| =========                 |                                                 |
| \\      /  F ield         | OpenFOAM: The Open Source CFD Toolbox           |
|  \\    /   O peration     | Version:  2.2.x                                 |
|   \\  /    A nd           | Web:      www.OpenFOAM.org                      |
|    \\/     M anipulation  |                                                 |
\*---------------------------------------------------------------------------*/
FoamFile
{
    version     2.0;
    format      ascii;
    class       volScalarField;
    location    "1";
    object      divBf;
}
// * * * * * * * * * * * * * * * * * * * * * * * * * * * * * * * * * * * * * //

dimensions      [1 -3 -2 0 0 -1 0];

internalField   nonuniform List<scalar> 
14161
(
2437.6
-118.583
466.485
263.953
309.67
251.553
232.479
195.128
173.15
137.942
113.052
81.9754
52.6787
19.6668
-5.23515
-39.8761
-73.089
-105.427
-141.883
-174.681
-209.72
-251.203
-284.09
-320.789
-357.624
-389.203
-422.581
-449.445
-474.177
-487.149
-491.117
-475.257
-435.015
-393.045
-350.007
-308.68
-227.527
16.0703
294.135
505.676
658.122
934.16
1291.29
2142.3
2971.56
-24548.2
-25069.1
-24471.5
-24857.4
-24362.6
-62257.2
-94897.5
-31259.7
-22636.3
-23083.4
-26834.9
-25740
-28315.1
-24820
-26397.6
-24001.8
-25845
-22991.2
-18486.7
-20356.7
-20510
-19287.9
-16740.7
-10865.8
-9355.01
-10835.5
-10477.8
-7331.82
-976.443
351.706
-3023.85
-725.653
5197.23
-4120.81
5144.08
5651.82
18174.9
29967
25151.5
38188.6
33309.1
49418.1
3903.17
18356.4
6049.52
6146.57
5679.63
2050.07
1141.84
2524.91
1307.17
1358.73
1967.98
2007.1
164.002
591.622
922.033
250.414
-1420.32
-2110.35
-2372.07
-2232.12
-4292.52
-4048.21
-5044.07
-4734.14
-6172.93
-4075.93
-6055.4
-2239.96
-4693.64
693.516
-1915.66
5060.62
2182.66
-364.2
219.45
17.1839
58.4597
-0.771915
-20.3859
-61.4897
-91.3862
-126.348
-162.262
-197.309
-232.162
-274.713
-308.051
-350.508
-394.456
-434.665
-482.693
-527.268
-572.492
-626.499
-675.271
-727.36
-777.132
-825.102
-874.926
-920.398
-958.781
-991.115
-1012.46
-1012.18
-998.765
-974.126
-954.436
-955.897
-901.812
-688.052
-521.591
-339.141
-105.518
205.55
532.467
1355.76
2339.68
-20605.8
-21680.1
-21170.7
-23002.2
-18429.6
-46361.7
-33936
-25350
-26877.1
-23578.9
-28182.2
-25857.6
-31272.3
-25624.5
-28008.1
-24974.1
-26863.6
-24559.4
-20502.1
-18856.4
-17707.3
-14124
-12230.8
-11501.3
-11476.5
-10336.4
-5350.32
-6628.1
-4728.23
-5839.7
15179.3
18183.3
-37015.8
2198.59
62760.6
69902.8
-27977.1
11802.9
46530.6
64443.7
316.62
28369.1
14679.3
25887.2
9007.36
4072.64
10861
2209.79
3219.12
2659.31
2769.8
1927.21
566.746
1082.02
795.377
446.13
717.423
-541.792
-1004.88
-824.19
-1547.14
-2636.3
-2887.95
-3038.28
-4296.46
-3622
-4669.24
-3539.05
-5519.57
-2048.19
-4835.74
741.952
-2045.16
4379.98
1927.75
-601.303
-20.9836
-220.623
-180.723
-240.314
-261.193
-304.119
-337.588
-375.871
-416.101
-454.544
-497.134
-540.536
-582.808
-630.184
-681.496
-732.378
-787.202
-839.004
-893.128
-958.384
-1019.63
-1082.71
-1143.9
-1207.67
-1272.22
-1332.82
-1398.5
-1453.56
-1501.56
-1536.13
-1560.18
-1570.03
-1585.16
-1604.95
-1561.62
-1409.42
-1309.18
-1208.97
-1097.44
-577.551
-144.058
274.017
589.982
-19351.6
-20626.9
-20401.7
-22386.6
-17787.4
-21706.5
6674.86
-17898.3
-32639.7
-33769.4
-38428
-31750.7
-35780.1
-30659.7
-29155.7
-27892.6
-28367.3
-23513
-19934.9
-18079
-15635.2
-12111.2
-9339.69
-11926.6
-12239.5
-10197.5
-5388.13
3304.83
7741.24
1892.31
-29645.3
27507.5
77069.2
59193
-69933.8
-11669.6
98895.9
78101.2
-23477.5
19662.6
20708.3
36035.6
17842.9
21022.6
1819.69
15295.1
5316.43
4778.97
3843.09
2831.53
3931.35
2215.13
1188.73
1521.49
339.98
2424.38
117.795
-1026.61
-625.178
79.0951
-1448.11
-3105.69
-3462.7
-3576.1
-4580.86
-3949.01
-5214.4
-3556.48
-4545.79
-1559.78
-3576.37
78.3147
-3436.63
2672.07
1677.11
-830.24
-252.913
-448.3
-408.475
-467.173
-487.954
-531.587
-566.634
-608.778
-648.315
-689.189
-738.641
-780.666
-833.957
-884.38
-940.535
-993.216
-1055.53
-1116.72
-1180.97
-1251.06
-1317.07
-1392.46
-1462.8
-1538.42
-1606.6
-1682.09
-1744.73
-1803.03
-1852.21
-1887.96
-1910.19
-1924.29
-1949.05
-1986.81
-2002.77
-1912.18
-1780.36
-1626.45
-1421.56
-1003.99
-449.977
1.43771
450.602
-15961.6
-17102.6
-16401.3
-16812.8
-2046.81
37748.9
22832.4
-24735.7
-47280.5
-50982.8
-50063.9
-45616.9
-41319.9
-37115.5
-34600.1
-25881.1
-27867.5
-22705
-19057.5
-15412.1
-11684.4
-9227.08
-11804.8
-12707.3
-10072.1
-1989.41
8601.21
-5833.33
-23863.9
5276.13
57879.7
36916.2
-47638.4
-4003.2
83899.2
134341
-54294
13293.5
45979.7
43076.9
-8623.12
31602.8
43138.7
7305.44
15988.8
13045.6
9404.98
5582.27
1887.66
6437.27
831.456
2912.17
1516.66
2182.81
3001.19
747.703
-970.984
85.0465
1134.46
-823.485
-4293.52
-880.765
-2698.04
-4351.81
-4386.53
-3919.86
-4802.38
-2720.3
-5044.12
-1556.97
-4738.65
1172.74
-648.434
3740.84
1429.51
-1048.91
-475.351
-664.923
-624.112
-680.65
-701.234
-744.488
-777.917
-821.404
-862.72
-909.776
-954.511
-1004.3
-1056.25
-1112.33
-1168.59
-1233.33
-1299.04
-1364.24
-1433.7
-1507.78
-1581.38
-1664.74
-1743.8
-1829.6
-1915.17
-1997.21
-2087.64
-2169.43
-2248.43
-2320.5
-2381.05
-2435.03
-2493.41
-2564.18
-2571.72
-2502.31
-2381.88
-2261.61
-2078.05
-1903.3
-1699.76
-1720.81
-1372.87
-14357.3
-14629.3
-15056.6
-16055
-2801.95
56453.4
32398.5
-22743.5
-55997.2
-59664.4
-54742.4
-44755.3
-41492.9
-37223.9
-34351.2
-28532.4
-24789
-22606.7
-19690.6
-13750.5
-11452.7
-10159.7
-7692.31
-6982.73
-2151.19
612.837
-350.916
-3436.87
4308.55
24314.9
700.212
-33878.3
42225.5
96999.3
7014.6
2899.25
51616.3
55404.9
30380.3
3836.88
35985.1
26041.1
16794.4
23988.4
29082.5
18463.1
14350.3
7660.86
7341.7
2326.41
4596.11
2487.9
2771.21
2792.3
1913.88
1269.55
680.415
518.366
481.693
-1004.9
-2114.62
-1072.22
-2536.89
-3765.04
-3977.68
-4356.8
-5298.67
-3113.79
-4974.07
-1414.32
-3387.58
785.845
-2976.03
2696.33
1189.41
-1257.45
-687.036
-869.635
-827.035
-880.65
-900.083
-940.552
-974.535
-1016.42
-1059.71
-1106.95
-1152.35
-1204.26
-1258.48
-1318.63
-1376.4
-1439.07
-1510.19
-1583.38
-1656.31
-1733.78
-1815.37
-1900.25
-1984.64
-2076.4
-2162.75
-2248.78
-2331.81
-2407.62
-2478.46
-2540.84
-2580.45
-2636.36
-2685.01
-2730.34
-2740.98
-2737.59
-2686.86
-2561.57
-2435.83
-2208.72
-1873.19
-1232.1
-612.772
-11572.4
-11735.1
-11163.4
-12536.3
-6318.51
-22540.2
44436.5
-40385
-67817.3
-56320
-48857.7
-39953.5
-32998.3
-26518.1
-25488.5
-22732.5
-19669.6
-14485.7
-12979.8
-10060.4
-8083.28
-6093.66
-5035.21
-1998.77
-622.382
-683.782
-3125.02
5226.29
16174.5
4035.74
-2914.1
30891.1
45682.5
8604.36
26809.3
48232.8
39020.9
20175.7
34153.5
29733.6
31938.1
15381.8
35165.8
51456.3
13114.5
33785.1
22401.4
12306.5
10654.6
7334.62
5245.56
3210.85
4792.64
2228.04
2794.15
-268.602
2838.88
5628.62
-3194.83
-2216.15
2646.23
-3443.32
-1436.83
-1899.06
-3160.71
-3029.18
-4009.61
-2830.83
-4018.38
-1261.06
-3762.67
41.0138
-2037.94
1467.58
955.151
-1453.46
-887.175
-1061.78
-1016.65
-1066.45
-1083.52
-1121.79
-1155.58
-1195.83
-1238.73
-1282.98
-1333.13
-1384.63
-1442.03
-1500.49
-1559.39
-1627.14
-1697.7
-1776.26
-1857.65
-1935.04
-2018.87
-2107.12
-2199.92
-2296.54
-2395.31
-2496.81
-2599.2
-2702.39
-2800.41
-2902.55
-2985.48
-3077.78
-3165.01
-3244.75
-3271.52
-3279.61
-3245.54
-3183
-3135.41
-3038.53
-2744.84
-2408.85
-1947.73
-11097.4
-11838.5
-12870.2
-14937.5
-31178.8
-66215.6
-52687.8
-36826.5
-14464.7
-20649.9
-26007
-29002.9
-26435.6
-22297.8
-18608.1
-14666.8
-12909.4
-9347.9
-8142.78
-6406.57
-6758.78
-4052.64
-2973.77
-561.578
1464.54
3345.34
6034.78
5110.67
3222.16
10768.6
20705
10007.7
16222.2
38850.8
36110.2
31921.3
36017
33531
28169.4
35259.6
29941.4
38315.7
35289.6
26576.7
37129.8
42545.5
24989.4
19284.4
12442.3
11224.2
4148.36
8369.6
2786.29
4085.05
821.869
4421.67
3132.6
1926.3
-3181.33
960.035
758.342
-3280.61
-1996.14
-1686.35
-2792.98
-1484.69
-3553.45
-1426.2
-3309.66
-815.35
-2712.15
237.571
-2667.68
816.821
731.243
-1637.6
-1074.87
-1240.84
-1192.77
-1238.28
-1252.85
-1287.82
-1320.12
-1359.32
-1399.56
-1446.17
-1493.44
-1545.02
-1603.36
-1661.24
-1725.5
-1794.77
-1866.09
-1943.78
-2024.12
-2106.26
-2197.33
-2287.47
-2384.76
-2480.83
-2581.05
-2677.56
-2769.55
-2862.43
-2946.49
-3017.84
-3094.44
-3156.74
-3228.58
-3284.14
-3306.13
-3318
-3265.98
-3176.24
-3093.42
-2952.56
-2769.09
-2315.32
-2039.69
-9014.94
-9231.01
-9203.15
-11204.7
-11465.2
-67285.9
-191487
-45141
-8708.18
8380.39
-5671.57
-6218.65
-15963.5
-11653.4
-11531.9
-6350.53
-7184.33
-4220.68
-4043.79
-2818.67
-2541.39
-1925.46
239.857
1197.43
2551.54
4846.51
6922.46
9417.09
11603.7
13406.8
12244.2
14802.9
34580.3
32141.6
29351.2
30462.1
29817.6
32335.3
32990.6
32249.6
27489.3
19066.8
33464.4
22418
41051.1
35243.3
41800.5
27461.3
19267.6
9991.63
6064.8
5375.49
3660.32
4415.95
3147.24
5825.17
2462.51
-5604.92
4004.52
7141.86
-2373.96
-636.701
-1899.47
-1215.43
-3601.32
-2196.93
-2811.06
-1417.57
-3080.05
-306.734
-3281.01
419.755
-2699.32
704.629
515.968
-1807.6
-1249.53
-1406.34
-1355
-1395.91
-1407.09
-1439.45
-1469.21
-1507.47
-1543.75
-1592.78
-1636.31
-1689.95
-1747.91
-1806.49
-1870.31
-1941.16
-2013.42
-2092.51
-2175
-2260.44
-2352.48
-2447.05
-2546.25
-2648.98
-2756.55
-2867.58
-2979.62
-3093.68
-3209.47
-3324.99
-3431.58
-3548.67
-3648.86
-3771.65
-3802.83
-3842.29
-3815.52
-3820.23
-3874.31
-3991.34
-3580.45
-3160.22
-2951.76
-8512.77
-8654.66
-9780.66
-7883.11
-12756.5
-37786.1
-195306
-126593
-7067.59
-10430.5
-5418.59
-11276.3
-9666.74
-9677.83
-6303.38
-5069.06
-3882.82
-2148.61
-1961.88
102.896
-390.04
1204.22
2456.34
4086.52
5946.27
6026.79
7691.39
8662.89
11023.2
11738.6
18447.1
22981.6
29835.4
31936.3
47438.4
29876.7
18266.1
27748
37364
22444.1
26465.1
33754.8
31259.8
27097.2
31477.9
32846.1
40992
41921
28692
15011.2
12270.4
2822.86
6566.12
1439.72
7310.54
1912.25
-2070.99
2610.56
10337.4
-3362.08
-3331.9
2928.69
-528.839
-1204.51
-917.069
-1667.22
-2762.12
-1264.9
-3041.75
-971.162
-3143.23
-83.5708
-3280.72
644.815
313.237
-1964.22
-1410.49
-1557.96
-1503.07
-1539.21
-1547.05
-1576.32
-1602.64
-1638.69
-1676.17
-1720.54
-1765.03
-1817.48
-1874.38
-1933.2
-1997.03
-2067.63
-2144.04
-2219.51
-2304.47
-2391.14
-2485.23
-2581.18
-2682.5
-2784.53
-2891.37
-2995.7
-3098.37
-3195.79
-3293.14
-3386.6
-3468.22
-3545.97
-3628.54
-3691.06
-3750.18
-3768.55
-3773.19
-3742.54
-3671.24
-3437.3
-3206.39
-2842.76
-2642.84
-6103.35
-6165.21
-5725.09
-5567.14
-8910.02
-31264.6
-118113
-86811.3
-57624.8
-19758.3
-15694.1
-12880.8
-12305.6
-9000.73
-8256.19
-4543.65
-3927.79
-552.152
1762.16
2265.34
2002.49
1641.68
3461.6
5215.13
6802.88
8771.11
11245.8
12071.4
13355.7
15600.3
19547.4
31572.3
35887.7
38379.2
38309.4
19352.3
24960
32167.6
28788.7
21827.4
23805.8
29828.5
23839.1
26330.8
27543.6
25410.7
29717.5
40455.4
40434.3
30603.8
16045.8
10831.7
8387.33
5716.36
5006.83
1193.57
5873.73
11544.4
-3330.22
-2803.22
5727.9
999.755
-1501.89
-449.435
-882.882
-1493.15
-2116.21
-1394.32
-3126.58
-1423.5
-2879.89
-538.595
-2312.63
-252.817
121.559
-2105.67
-1557.36
-1695.45
-1636.89
-1668.13
-1673.03
-1698.41
-1722.59
-1756.27
-1791.57
-1834.12
-1878.82
-1928.98
-1985.46
-2044.12
-2108.9
-2178.88
-2254.14
-2332.89
-2417.29
-2504.18
-2600.39
-2697.66
-2801.95
-2909.6
-3020.68
-3135.48
-3254.94
-3376.54
-3498.43
-3629.22
-3746.12
-3881.53
-3993.94
-4122.87
-4189.89
-4289.93
-4337.67
-4298.74
-4300.67
-4182.84
-4032.64
-3836.67
-3588.93
-6134.63
-6544.35
-6216.15
-7551.63
-11140.3
-40546.9
-92949.7
-70548.5
-74862
-58664.2
-23398.6
-20548.2
-6714.28
-10459
-3180.06
-5112.45
2747.38
287.773
2498.18
2355.48
3932.55
4624.22
5479.68
6482.95
6624.96
7505.05
8623.25
11933.1
15204.7
19070.3
38430
45073.4
42557.9
41528.8
24001.7
21772
29703
31797.2
19570.7
22184.9
22694.2
22783.3
19262
21597.5
21601.6
25671.3
30167.2
38630.7
37098.5
45863.5
21757.1
19663.9
8548.19
9550.07
2408.92
8839.85
8779.23
2605.09
-2746.56
9822.34
936.919
-380.57
881.459
577.03
-1438.27
-587.317
-2300.76
-1270.3
-2578.48
-1144.32
-2136.09
-758.897
-2348.95
-880.669
-55.8289
-2232.62
-1689.73
-1818.61
-1756.54
-1783.07
-1784.73
-1806.79
-1828.3
-1859.77
-1891.94
-1933.97
-1976.83
-2026.63
-2080.66
-2140.9
-2204.4
-2273.7
-2347.59
-2427.69
-2512.67
-2600.22
-2696.01
-2795.32
-2898.82
-3005.09
-3112.63
-3223.65
-3335.5
-3441.88
-3543.87
-3648.49
-3749.28
-3829.41
-3934.24
-4008.47
-4081.64
-4122.51
-4154.81
-4135.52
-4009.18
-3851.63
-3788.54
-3549.63
-3370.55
-4408.85
-4350.94
-4401.28
-5926.08
-8707.38
-82819
-33105.4
-39205.4
-56947.5
-55451.3
-33544.1
-21389.8
-12062.7
-6819.3
-5594.05
-617.188
483.004
2288.28
2315.81
2955.48
3738.66
5710.18
7171.21
6937.06
8919.21
10755
13785.8
14268.3
18315.7
28281.4
40782.4
43158.5
46377.2
27678.3
19744.2
37573
32436.2
20328.4
17128.3
17610.1
18868.7
23319.6
19466.9
21740.2
20434.7
26588
24069
31450.1
27920.5
47058.2
29836.3
20077.7
5522.98
8033.73
7009.64
11775.5
2270.97
-481.597
11917.9
4302.76
-1159.95
1853.95
384.272
552.339
-577.285
-275.133
-1543.73
-472.389
-2109.31
-320.405
-3356.14
-855.388
-3999.75
-647.815
-220.207
-2343.87
-1807.35
-1927.29
-1861.98
-1883.95
-1882.33
-1901.39
-1920.14
-1949.32
-1979.77
-2020.1
-2060.43
-2110.25
-2163.35
-2222.31
-2285.15
-2354.74
-2428.85
-2507.59
-2592.53
-2682.45
-2776.9
-2877.34
-2982.63
-3090.79
-3204.1
-3323.06
-3446.82
-3570.27
-3701.35
-3832.5
-3967.24
-4084.62
-4228.44
-4326.17
-4470.77
-4553.2
-4625.94
-4632.21
-4579.28
-4628.84
-4516.23
-4402.37
-4130.1
-3683.99
-4110.73
-3737.49
-6601.12
-15696.7
-83140.4
-15356.4
-7582.87
-29223.1
-57045.8
-70387.6
-38391.3
-23965.7
-14865.2
-6617.71
-6938.27
-865.792
-1454.56
3594.39
4473.83
4382.54
6646.29
8486
9738.76
11139.7
11603.6
11104.5
13869.4
20221.5
37928.7
58300.4
58893.1
26708.8
24177.8
36745.5
28950.6
21733
15793.8
15970.3
19661.8
19487.3
18619
18225.1
18870.4
16161.6
20419.2
17610.3
25829.1
24480.9
36549.2
41406.7
25460
18482.5
14943.3
9910.93
-251.635
4508.07
10748.6
3538.83
1203.96
5124.45
3190.34
314.39
353.251
-567.516
-637.01
-920.941
-1516.46
-2387.1
-1496.73
-2968.95
-1033.5
-2802.73
-212.837
-369.079
-2439.91
-1910.13
-2021.65
-1953.33
-1970.96
-1966.36
-1982.37
-1999.77
-2025.38
-2054.82
-2090.74
-2133.96
-2179.44
-2232.41
-2290.1
-2352.65
-2420.68
-2493.98
-2573.84
-2657.08
-2747.83
-2840.74
-2942.27
-3046.49
-3153.3
-3265.53
-3381.14
-3490.85
-3609.47
-3717.11
-3832.9
-3938.44
-4047.86
-4146.26
-4234.27
-4309.65
-4401
-4454.09
-4442.11
-4324.44
-4277.76
-4112.46
-3890.7
-3399.39
-2378.47
-2146.44
-2460.3
-3813.43
-24137.8
-74279.8
-4043.94
-8867.45
-20436.9
-45709.6
-47508.3
-49891.6
-39561.7
-14907.5
-19503.1
-2714.35
-3467.87
3383.81
5927.98
6719.79
7618.58
8405.15
9004.1
11205.6
10069.2
10554.1
13417.9
19423.6
35701.3
64882.2
66869.8
39424.1
30767.9
32956.3
28365.8
18280
12990
19061.5
18605.7
19546.3
17749
13449.1
14801.2
16458
15960.8
16383.5
20676.6
18787.9
24362.5
26217.2
35611.8
31764.3
24523
13721.5
11918.5
14118.8
14575.4
4100.78
272.232
5511.2
4419.55
3273.88
1777.25
1202.83
-734.744
43.6716
-1828.9
-664.23
-927.813
-1561.1
-1864.02
-1595.44
-2408.1
-2006.77
-503.522
-2520.14
-1997.97
-2101.57
-2030.71
-2044.45
-2037.26
-2050.63
-2065.44
-2089
-2117.32
-2150.76
-2193.19
-2236.65
-2288.65
-2345.28
-2407.91
-2474.71
-2546.78
-2626.8
-2710.52
-2799.14
-2892.93
-2993.6
-3099.85
-3208.81
-3320.81
-3441.87
-3566.88
-3696.05
-3822.25
-3956.43
-4090.47
-4226.03
-4355.81
-4479.63
-4573.1
-4683.11
-4744.47
-4802.72
-4781.83
-4806.45
-4684.95
-4492.17
-4017.02
-2224.12
-2285.11
-3715.41
-7498.86
-43698
-77958.5
-6078.65
2291.76
1.34827
-9838.01
-31291.9
-45917.7
-51706.4
-38903.7
-24409.6
-10634.8
-3806.93
7095.25
8428.96
10331.3
8626.92
9166.26
9058.49
11773.5
13368.3
15603
23263.7
36314.9
64610.3
79281.7
44611.3
25134.3
26293.3
22490.8
18454.8
14844.7
16273
14438.7
14160.8
13268
12479.2
13331.9
13939.7
13917.2
15113.9
13663.9
21848.3
12704.3
27559.4
19924.1
36627.5
32476.6
20819.9
20253.5
22030
15725.5
6736.68
9133.33
11134.4
6100.62
1968.15
3370.38
1167.91
2266.07
399.38
197.646
-310.19
-559.912
-2806.63
-1145.6
-3054.15
-1277.54
-4000.88
-1040.36
-621.904
-2584.92
-2070.94
-2167.39
-2094.44
-2104.62
-2094.91
-2106.3
-2117.91
-2141.32
-2166.25
-2198.91
-2239.04
-2283.17
-2332.09
-2387.82
-2451.15
-2515.86
-2586.6
-2666.27
-2748.9
-2836.55
-2931.11
-3030.26
-3135.42
-3243.88
-3353.37
-3470.27
-3591.97
-3705.48
-3827.29
-3943.57
-4058.3
-4180.99
-4288.17
-4382.02
-4490.3
-4549.17
-4573.26
-4584.06
-4652.92
-4609.27
-4556.98
-4280.72
-3990.21
-1811.15
-1911.75
-4272.11
-10518.7
-89239.2
-27714.2
-4113.62
-3243.39
-2805.33
-3885.59
-3385.54
-34269.7
-50228.8
-53075.9
-35945.8
-15826.6
4753.62
9330.5
8083.67
11416
12354.3
13335.1
17545.8
21871.8
35436.9
46923.5
61925.9
83803.9
80223.9
43049.2
19222.3
10224.3
8967.66
4262.51
3957.86
8620.73
8243.3
8699.78
10629.7
10368.8
10350.4
11789
11661.9
12559.3
14009.6
12319.5
19308.3
9323.98
25527.5
15266
28822.7
25430.4
29077.5
21157.9
12477.3
10002.2
15396.9
11642.8
5741.13
4963.69
4309.66
4075.11
2637.66
1789.54
983.747
-85.231
-479.248
-1555.97
-829.535
-1559.99
-2421.56
-1864.64
-2562.14
-1966.47
-725.12
-2634.19
-2129.21
-2219.04
-2144.59
-2151.81
-2140.01
-2149.68
-2158.89
-2181.07
-2204.32
-2235.71
-2273.65
-2317.75
-2365.24
-2419
-2481.13
-2546.64
-2616.33
-2693.67
-2776.93
-2864.25
-2956.91
-3056.29
-3160.39
-3270.66
-3384.25
-3501.06
-3627.51
-3755.39
-3888.36
-4016.98
-4149.92
-4273.92
-4413.23
-4526.77
-4650.69
-4726.8
-4789.05
-4854.52
-4911.31
-4817.13
-4645.1
-4532.09
-4261.17
-938.115
-749.777
-3013.4
-13151.2
-66678.9
-6490.96
-8577.43
-10198.9
-6646.08
-857.477
-881.137
-19228.8
-41639.3
-46646.8
-43478.9
-26617.4
2571.14
10688.4
13136.6
16916.1
31754.1
43781.8
55909.5
72569.7
86077.2
103216
92773.2
64724.7
29136.1
4214.04
-8292.09
-15021.5
-16962.4
-12797.6
-8192.53
-7453.06
-5913.07
-3057.2
1869.42
6437.29
7055.07
7155.74
8948.09
10502
12163
14244.3
15208.3
17950.5
18212.1
14740
24694
19917.5
23682.5
21424.7
19185.7
19770.9
9136.91
7445.45
6652.02
7579.16
5118.05
4309.04
1712.21
2344.7
231.405
518.229
-236.363
666.283
-1101.62
-1779.08
-1472.98
-1965.29
-2863.59
-2355.68
-812.147
-2668.3
-2172.94
-2257.12
-2181.7
-2186.31
-2172.99
-2180.64
-2189.02
-2208.61
-2231.03
-2261.65
-2297.77
-2339.61
-2387.95
-2438.46
-2501.77
-2563.88
-2634.14
-2709.39
-2790.93
-2878.89
-2969.68
-3068.59
-3170.92
-3279.55
-3391.91
-3504.16
-3627.21
-3751.04
-3868.88
-3992.6
-4112.3
-4227.78
-4355.14
-4470.59
-4556.62
-4626.04
-4702.19
-4782.89
-4805.59
-4761.55
-4640.5
-4318.98
-4091.1
64.0748
-53.4049
-1701
-19152.5
-68236.7
-6556.75
-2690.13
-4514.78
-299.083
2588.52
557.58
-14709.5
-26959.6
-13975.4
-28721.7
-38899.2
10050.6
35682.4
54507.8
77385
100046
108209
96657.5
85038.9
64154.7
43762.3
36064
21644.5
12668
251.352
-7241.77
-12625.3
-19146.5
-22027.4
-22569.2
-21692.9
-17188.1
-13899.3
-8520.3
-3974.86
-1852.98
842.58
4371.27
6731.62
10776.5
12876.1
5965.05
20536.1
-1037.1
16135.6
12503.2
15570.9
25373.1
19945
18522.7
9737.76
16086.8
14942.9
8213.37
5235.6
5633.31
4365.38
3580.89
1679.05
1499.6
1646.21
-48.4401
-389.29
-1749.6
-135.932
-3136.42
-1647.3
-3260.68
-1589.69
-883.789
-2687.51
-2202.6
-2281.65
-2205.96
-2208.63
-2194.01
-2200.49
-2207.38
-2225.41
-2247.33
-2276.38
-2310.44
-2353.83
-2398.07
-2450.31
-2508.89
-2573.53
-2641.48
-2715.74
-2796.87
-2882.94
-2974.39
-3069.82
-3173.99
-3281.66
-3394.21
-3511.93
-3631.31
-3762.95
-3894.27
-4024.24
-4151.14
-4286.62
-4412.33
-4545.43
-4641.72
-4739.06
-4844.23
-4913.3
-4861.11
-4583.93
-4220.07
-4743.83
-4903.79
-218.534
-1910.63
-3925.5
-49641.5
-70597.3
-3593.68
2044.52
6114.82
10445.3
3983.64
537.045
-7583.05
5163.63
20662.3
1106.94
4139.49
73941.4
105743
107001
100712
71286.6
57678.7
51454.2
46757.4
42395.1
31702.1
21456
12451.1
9576.08
5645.48
3138.39
44.3612
-6618.86
-10977.4
-11906.3
-19464.2
-15867.1
-17000.4
-16406.7
-15481.3
-13503.9
-10167.2
-5395.46
-3585.21
665.383
5673.13
7357.03
4782.82
8498.04
8241.22
6192.54
14732.3
15275.4
21993.6
15179.3
17055
10737
8523.88
6868.19
7350.87
5198.34
3864.48
3188.3
2184.93
2209.44
817.51
175.471
-638.132
192.47
-2615.78
-1880.39
-2048.44
-2146.41
-2616.34
-939.843
-2692.28
-2218.39
-2293.27
-2217.85
-2219.08
-2203.44
-2209.05
-2214.83
-2231.71
-2252.98
-2280.9
-2314.1
-2355.49
-2399.21
-2450.73
-2507.62
-2570.9
-2638.59
-2709.19
-2791.87
-2874.37
-2965.85
-3057.9
-3162.9
-3266.51
-3376.93
-3493.65
-3607.61
-3733.05
-3859.36
-3984.34
-4105.89
-4231.4
-4346.45
-4483.74
-4569.59
-4679.83
-4823.9
-4926.81
-4862.31
-4815.46
-4713.72
-4673.99
-4735.7
519.278
-1009.15
-10160.6
-89825.2
-22254.1
-6091.28
2456.87
7627.27
8451.21
4192.95
-3394.66
809.04
21452.5
46744.4
41234.1
107208
138069
73516.4
53914.2
54319.6
43714.4
37567
33527.6
28571.5
26546.9
25535.2
23942
15551.2
9133.33
3096.86
5941.54
8121.51
4219.5
1528.69
-1126.07
-3869.13
-5956.96
-10199.6
-11913.6
-11899.8
-13116.8
-12797.9
-11081.9
-10086
-7627.01
-4851.23
-1677.68
-230.932
311.415
-590.275
1132.8
4836.31
15573.7
14754.1
12261.3
17043.2
8637.07
11000.5
5127.58
10345.7
4023.81
6921.38
2506.09
4425.83
252.683
1384.45
-262.316
79.8527
-1080.01
-1127.79
-569.609
-2085.37
-2527.32
-3037.4
-980.908
-2683.03
-2221
-2292.32
-2217.83
-2218.11
-2202.05
-2207.03
-2212.11
-2228.02
-2248.77
-2275.51
-2308.79
-2347.23
-2391.94
-2441.49
-2497.13
-2558.96
-2625.73
-2696.94
-2775.03
-2860.02
-2948.23
-3041.92
-3141.34
-3248.16
-3358.56
-3474.27
-3594.38
-3716.11
-3847.22
-3985.53
-4113.42
-4248.23
-4391.28
-4514.2
-4613.83
-4722.59
-4801.41
-4881.7
-4839.68
-4792.42
-4771.07
-4584.34
-4381.75
1207.08
-620.443
-16594.8
-79502.4
-4087.17
-3776.73
-1407.47
8127.58
5927.66
2011.68
-4166.11
11309.8
50736.8
90890.9
133261
146589
68875.8
39621.1
36217.1
28451.4
24936.3
24549.6
25183
24733.9
19663.4
15290.2
17808
17579.8
16927.6
16689.6
9402.22
2332.87
6094.29
7583.2
1808.93
1345.69
1084.43
-2410.5
-4236.66
-6056.73
-6541.35
-7070.7
-9102.8
-9517.41
-10753.1
-10206
-10150.9
-8136.91
-7476.95
-4813.58
-930.261
6051.96
12438
10126.9
14945.7
5107.45
13136.5
4380.27
13174.2
3075.09
7835.42
2751.64
4227.72
1447.15
2644.51
1651.3
216.866
395.255
-1029.19
-29.7599
-2403.95
-2003.54
-2622.07
-1963.41
-1007.09
-2660.58
-2210.8
-2279.4
-2206.34
-2206.21
-2190.13
-2194.71
-2199.28
-2214.68
-2234.4
-2261.47
-2292.53
-2330.9
-2374.81
-2423.51
-2476.33
-2538.93
-2602.81
-2673.95
-2748.61
-2833.08
-2919.19
-3012.08
-3106.81
-3212.74
-3321.16
-3432.7
-3549.03
-3666.63
-3791.58
-3920.01
-4036.73
-4175.06
-4306.34
-4408.41
-4521.5
-4634.29
-4753.87
-4826.96
-4821.64
-4742.36
-4733.11
-4847.76
-4940.83
63.0049
-1561.73
-35825.7
-74705.1
-7396.51
1832.27
4989.78
11694.8
9040.2
5654.14
535.834
32455.3
86070.7
143714
152468
85387.7
41792.2
35589.3
23711.1
17390.5
17078.5
17951.1
16753.6
16895.9
15700.3
15566.6
15192.2
16738.8
16969.1
17228.4
13457.7
14319.1
8971.51
4988.97
6681.41
5866.87
715.435
570.126
-49.3253
-2137.14
-3597.34
-5313.32
-6140.44
-7250.48
-9120.88
-9382.43
-9798.7
-9473.02
-8446.68
-7212.88
-3319.7
2507.86
6576.17
10863.5
8136.98
9456.2
5907.54
8397.19
4360.05
6465.78
4487.04
4062.31
3079.51
2537.13
3631.19
629.896
1911.32
-917.519
55.9823
-1314.64
-1299.84
-2098.17
-2126.17
-2101.12
-1019.66
-2625.27
-2188.5
-2255.01
-2183.96
-2183.88
-2168.11
-2172.7
-2177.14
-2192.05
-2211.3
-2238.02
-2268.55
-2305.65
-2348.92
-2396.36
-2448.6
-2508.25
-2573.02
-2641.6
-2715.84
-2796.89
-2884.23
-2974.85
-3070.43
-3171.5
-3280.75
-3395.22
-3512.28
-3636.01
-3761.67
-3896.35
-4036.13
-4174.56
-4314.01
-4426.52
-4534.23
-4615.72
-4805.71
-4875.84
-4906.92
-4654.14
-4558.24
-5159.17
-5209.97
-656.019
-9006.67
-86291
-29819.3
-3092.28
845.009
6398.97
13116.4
12113.5
10488.8
20545.6
74537.6
155657
142299
87077.6
48318.2
27558.3
20490.1
18280.9
17416.1
16892
15149.3
14696.8
13788.3
14558.6
13993.2
13888.3
13253.3
13394.2
15325.9
15268.1
14768.8
13710.5
12868.2
8623.28
4839.35
4414.72
2936.48
244.862
-838.517
-1963.81
-3472.42
-4140.99
-5550.8
-7331.1
-9428.48
-10428.4
-9873.7
-8673.73
-6937.89
-3995.38
305.088
4275.36
6719.4
6266.58
10791.2
4530.7
10572.3
4069.95
8927.94
2500.93
6834.31
2320.65
5614.34
44.6688
2116.59
-274.908
328.373
22.6584
-1240.73
-667.254
-1053.53
-1765.78
-2594.67
-1018.44
-2578.3
-2154.76
-2219.89
-2151.26
-2151.71
-2136.75
-2141.17
-2146.19
-2160.51
-2179.78
-2206.52
-2235.4
-2272.05
-2314.97
-2361.21
-2411.86
-2470.37
-2533.54
-2601.05
-2672.8
-2752.92
-2837.85
-2925.52
-3018.31
-3117.35
-3222.35
-3332.62
-3443.79
-3559.73
-3676.24
-3810.91
-3934.76
-4059.94
-4182.33
-4288.74
-4349
-4438.69
-4563.87
-4620.9
-4592.95
-4495.5
-4460.76
-4316.96
-4400.66
-269.409
-18488.5
-84939.8
-3301.13
-2246.36
-558.886
2882.96
10182
15759.5
20564.9
56351.3
151899
156637
86084.4
47400.6
28748.8
17954
14227.1
13980.7
14192.2
14029.1
13149.9
13124.5
13076.3
12704.9
12747.9
11541.1
12065.2
11202.8
10838.2
11999.6
12796.4
13374.5
11679.5
12181.3
9722.35
6643.16
4083.48
2399.38
508.123
-976.771
-2137.29
-3895.36
-5034.64
-6002.85
-6911.47
-7785.39
-8348.03
-7438.04
-5985.71
-3655.72
-502.053
2713.58
5777.15
7122.38
3585.18
9272.92
3090.27
8841.4
2524.67
5866.33
2091.12
4155.66
1766.25
1709.18
2714.69
460.985
1784.9
-552.787
-161.524
-1008.03
-1751.13
-2306.87
-2210.05
-1005.19
-2519.99
-2110.28
-2174.6
-2108.82
-2110.19
-2096.48
-2101.13
-2106.61
-2121.03
-2140.13
-2166.66
-2195.39
-2230.52
-2272.83
-2318.31
-2368.29
-2424.83
-2486.38
-2552.86
-2623.22
-2701.01
-2783.79
-2872.48
-2963.14
-3060.94
-3164.83
-3278.76
-3394.57
-3516.32
-3644.7
-3774.74
-3897.6
-4049
-4202.17
-4346.67
-4448.8
-4557.82
-4697.09
-4839.51
-4853.34
-4763.63
-4479.34
-4750.45
-6112.07
-2014.44
-44398.8
-76824.6
-6651.62
3130.62
-1447.71
7147.55
19660.1
28717.1
48995
133197
175117
95451.1
50567.8
30560.7
25073.9
19847.3
13591
11619.3
11717.4
12231.2
12211.4
11739.6
11871.7
10760.5
11735.2
10584
11658.5
10093.2
9074.86
9579.65
9108.86
11034.9
10061.5
11256.3
10139.7
8604.17
5998.97
4146.16
2573.32
1137.25
-606.2
-1954.72
-3599.41
-4860.77
-5312.71
-6167.05
-7023.05
-6520.09
-5458.51
-3337
-744.481
1572.04
4091.94
4687.82
5490.06
5440.76
4492.41
4397.22
3863.74
5625.1
3093.65
5795.72
1110.27
4930.43
-190.815
2414.06
-994.24
282.918
-357.424
-1233.99
-1796.57
-1553.14
-2008.57
-979.912
-2451.64
-2055.87
-2119.95
-2057.38
-2059.97
-2047.59
-2052.78
-2059.35
-2073.4
-2093.1
-2118.77
-2147.97
-2181.16
-2223.71
-2267.42
-2317.05
-2370.92
-2431.84
-2496.42
-2565.49
-2639.65
-2721.3
-2806.26
-2895.57
-2987.12
-3089.29
-3194.96
-3302.57
-3417.72
-3528.34
-3643.76
-3769.76
-3893.12
-3985.24
-4086.42
-4131.44
-4174.24
-4349.28
-4447.34
-4483.35
-4473.28
-4480.11
-4623.99
-7417.7
-16167.5
-100612
-23605.1
805.552
2901.25
2077.44
14248.8
36842.3
59088.8
116137
178098
86456.2
51445.2
31399.4
17837.2
12906.3
15542.4
15392.3
12045.3
12053.1
12049.3
11938.6
11289
11688.6
11035.9
11083.1
10775.5
10759.5
9499.6
8694.2
8539.52
7404.37
8750.72
7892.49
9127.25
8174.46
8928.32
7507.89
5859.62
3513.33
1462.91
64.985
-812.884
-1871.81
-3329.55
-4636.68
-4843.57
-5564.38
-5374.95
-4717.29
-3275.75
-1253.49
1216.81
3002.96
2957.67
5704.63
2323.31
7244.17
2389.29
7502.52
1826.72
5534.5
907.844
3788.23
524.714
1255.94
2020.34
401.451
1549.64
-1050.51
-560.839
-949.181
-982.11
-2032.18
-944.251
-2373.77
-1992.31
-2056.6
-1997.63
-2001.76
-1991.01
-1997.23
-2004.19
-2019.57
-2038.55
-2064.38
-2092.8
-2126.78
-2166.46
-2211.08
-2258.62
-2311.6
-2370.6
-2434.09
-2501.34
-2574.07
-2652.79
-2736.96
-2824.82
-2918.47
-3017.64
-3124.85
-3241.43
-3364.15
-3486.85
-3616.32
-3747.37
-3882.61
-4042.42
-4210.03
-4367.35
-4510.31
-4630.25
-4728.1
-4793.14
-4694.67
-4778.44
-5444.03
-8133.2
-33153.1
-104835
-886.299
5516.59
4758.96
218.019
21794.6
63545.2
120087
181161
97956
48934.9
33336.2
26784
12860.5
9273.8
13103.2
13287.4
12974.4
12621.2
11438.6
11437.5
10416
10258.7
10056.5
10001.6
9679.59
9269.22
8502.85
7941.52
7764.85
6625.48
6260.02
6875.31
6595.28
7952.01
6771.65
7853.73
5343.14
4082.14
1884.46
898.455
-116.32
-874.463
-2120.03
-3487.42
-4394.24
-4510.2
-4445.97
-3985.05
-3330.68
-1888.02
-92.7779
1660.98
3144.04
2859.67
3802.82
3076.53
4255.14
3322.19
2756.68
4219.16
1713.88
4849.8
580.108
5053.8
-1151.88
1876.46
-1281.73
360.411
-523.251
-835.362
-1464.81
-1756.73
-898.632
-2287.65
-1920.5
-1985.4
-1930.19
-1936.1
-1927.15
-1934.7
-1942.17
-1958.89
-1977.19
-2003.45
-2030.79
-2065.61
-2102.85
-2147.68
-2193.31
-2245.15
-2302.1
-2364.02
-2429.42
-2499.22
-2575.44
-2655.95
-2741.63
-2830.07
-2924.14
-3022.7
-3134.88
-3229.56
-3349.71
-3443.16
-3571.51
-3670.71
-3759.9
-3831.8
-3890.97
-3931.5
-3819.26
-4193.31
-4330.44
-4118.01
-3914.14
-5341.57
-19396.7
-92948.9
-45330.2
715.575
10611.1
13641.7
16838.4
40132.1
128222
171820
100588
56742.7
29223.6
16800.8
17367
17062.3
13097.7
12326.7
13258.9
12410.5
11795.2
10848.4
10816.2
10362.3
9796.7
9463.44
9250.01
8723.01
8615.61
8337.13
7668.25
7602.85
6467.82
5257.73
6020.42
4559.1
6899.39
4896.98
6791.32
5321.36
4999.59
3754.55
1785.27
3.71875
-1024.53
-1633.26
-2075.3
-3233.57
-3609.11
-4133.79
-3688.36
-2863.79
-1928.11
-711.604
993.556
1826.97
2362.08
4186.3
2164.03
4942.68
1617.91
5673.25
1468.45
4538.95
769.167
3062.95
640.576
944.966
1911.16
-328.354
919.72
-723.205
-711.436
-1325.54
-1177.56
-844.506
-2193.96
-1841.25
-1907.11
-1855.89
-1863.72
-1856.89
-1865.57
-1874.41
-1891.43
-1910.52
-1935.75
-1964.78
-1997.52
-2034.65
-2077.74
-2123.71
-2173.47
-2228.85
-2288.83
-2353.08
-2420.71
-2495.73
-2572.67
-2658.31
-2747.63
-2843.08
-2944.33
-3055.2
-3168.3
-3294.51
-3425.33
-3561.39
-3691.2
-3866.91
-4053.2
-4244.15
-4279.86
-4425.42
-4475.11
-4966.04
-5289.53
-5988.86
-7985.93
-41240.5
-120698
-9948.93
4430.57
10059.9
33801.2
48023.8
94843.8
192210
100347
49098.5
38192.2
16970.4
11026
13259.3
14261.6
13897
12203.6
12281.9
11275.5
10716.7
10284.4
10394.6
10299.8
9740.74
9205.12
8807.82
8534.07
8185.97
8809.43
7561.82
6773.62
5835.64
4834.22
5012.3
4365.56
5107.61
4930.31
4004.53
6514.82
3414.72
3259.01
1419.16
26.8006
-507.963
-1461.36
-1970.83
-2674.02
-2874.36
-3263.08
-3609.97
-2952.24
-2126.14
-676.269
827.383
1138.29
2272.61
1688.58
2929.1
1959.24
2760.19
2676.73
1992.4
3389.72