/*--------------------------------*- C++ -*----------------------------------*\
| =========                 |                                                 |
| \\      /  F ield         | OpenFOAM: The Open Source CFD Toolbox           |
|  \\    /   O peration     | Version:  2.2.x                                 |
|   \\  /    A nd           | Web:      www.OpenFOAM.org                      |
|    \\/     M anipulation  |                                                 |
\*---------------------------------------------------------------------------*/
FoamFile
{
    version     2.0;
    format      ascii;
    class       volScalarField;
    location    "1.85";
    object      p;
}
// * * * * * * * * * * * * * * * * * * * * * * * * * * * * * * * * * * * * * //

dimensions      [1 -1 -2 0 0 0 0];

internalField   nonuniform List<scalar> 
14161
(
0.190817
0.192448
0.191947
0.191969
0.191811
0.191666
0.19149
0.19131
0.191123
0.190936
0.190753
0.190576
0.190399
0.190237
0.190089
0.189955
0.189832
0.189726
0.189625
0.189568
0.189534
0.189517
0.189512
0.18954
0.189585
0.189661
0.189755
0.189875
0.190016
0.190211
0.190408
0.190642
0.190916
0.19116
0.191445
0.191739
0.192108
0.192481
0.192809
0.193039
0.193183
0.193116
0.192606
0.19123
0.190306
0.192157
0.341321
1.05774
1.2359
1.18537
1.1575
1.1516
1.14564
1.13929
1.13415
1.12569
1.11915
1.11353
1.10703
1.10083
1.08966
1.07934
1.07067
1.06123
1.05217
1.04667
1.04333
1.04122
1.03923
1.03833
1.03888
1.04023
1.04177
1.04202
1.044
1.04553
1.04809
1.05038
1.05918
1.07421
1.09485
1.11885
1.14956
1.17282
1.18817
1.20033
1.21442
1.22465
1.23123
1.23559
1.24164
1.23904
1.23784
1.2388
1.24113
1.24606
1.24464
1.26291
1.28417
1.3269
1.37089
1.41774
1.47128
1.52573
1.57995
1.63486
1.68684
1.73734
1.78246
1.82566
1.8638
1.9002
1.92933
1.95743
1.97741
1.99559
2.00919
2.0144
2.02451
0.190828
0.192456
0.191951
0.191971
0.191812
0.191668
0.191491
0.191311
0.191126
0.190939
0.190754
0.190572
0.190397
0.190238
0.19009
0.189955
0.189831
0.189726
0.189629
0.189571
0.189534
0.189513
0.189507
0.189532
0.189573
0.189642
0.189736
0.18984
0.189976
0.190133
0.190314
0.190511
0.190708
0.190942
0.191129
0.191358
0.191563
0.19181
0.191994
0.192023
0.191849
0.191204
0.189728
0.187181
0.181417
0.188986
0.546838
1.40113
1.47676
1.46124
1.42801
1.41301
1.38977
1.37216
1.3555
1.33449
1.31659
1.2999
1.28245
1.26697
1.2458
1.22808
1.21114
1.19534
1.18091
1.17038
1.16213
1.15617
1.15117
1.14763
1.14467
1.13974
1.13493
1.13133
1.12963
1.13196
1.13359
1.13121
1.12605
1.12649
1.14456
1.17404
1.20886
1.24013
1.25529
1.25828
1.25674
1.27166
1.29866
1.32988
1.38057
1.42483
1.46607
1.49597
1.52502
1.55296
1.5784
1.61338
1.64781
1.68301
1.7086
1.73425
1.75667
1.78285
1.80949
1.83683
1.85999
1.88345
1.90381
1.92454
1.94345
1.96196
1.97582
1.98939
1.99787
2.00598
2.01453
2.02066
2.02839
0.190843
0.192459
0.191957
0.191977
0.191818
0.191672
0.191496
0.191315
0.191133
0.190946
0.19076
0.190579
0.190402
0.190241
0.190091
0.189953
0.189832
0.18973
0.189633
0.189576
0.189539
0.189517
0.189513
0.18954
0.18959
0.189666
0.189773
0.189903
0.190067
0.190269
0.190507
0.190774
0.191057
0.191409
0.191744
0.192184
0.192648
0.193203
0.193805
0.194376
0.195159
0.196293
0.197958
0.199406
0.204587
0.209022
0.839758
1.49883
1.60261
1.61985
1.58152
1.56225
1.53143
1.50657
1.48254
1.45308
1.42762
1.40249
1.37595
1.35198
1.32468
1.29934
1.27529
1.2533
1.233
1.2179
1.20508
1.19315
1.18313
1.17722
1.17518
1.17116
1.16642
1.16242
1.15458
1.14261
1.13624
1.13473
1.13843
1.16484
1.20187
1.22815
1.23345
1.23934
1.26349
1.31075
1.38378
1.47168
1.55338
1.6096
1.66111
1.70486
1.7455
1.7923
1.84226
1.86973
1.89285
1.89774
1.89778
1.90821
1.92234
1.93165
1.94182
1.94797
1.95312
1.95829
1.9614
1.96699
1.97028
1.97194
1.97554
1.9809
1.98367
1.99217
1.99842
2.00752
2.01255
2.01801
2.02489
0.190854
0.192463
0.191958
0.191979
0.191821
0.191674
0.191497
0.191317
0.19113
0.190944
0.19076
0.190581
0.190401
0.19024
0.190089
0.189953
0.189831
0.189726
0.189628
0.189567
0.189532
0.189505
0.189496
0.189519
0.189551
0.18961
0.18969
0.189785
0.189899
0.190031
0.190181
0.190327
0.190484
0.190607
0.190742
0.190857
0.191015
0.191131
0.191175
0.191274
0.191258
0.191445
0.191644
0.192691
0.193611
0.195854
0.937222
1.54802
1.65647
1.6876
1.65297
1.63096
1.5933
1.56448
1.53646
1.50165
1.46925
1.43887
1.40784
1.37915
1.34981
1.32209
1.29184
1.2661
1.24363
1.22394
1.21049
1.20233
1.19568
1.18869
1.17993
1.1725
1.16553
1.15976
1.15758
1.15908
1.16338
1.16586
1.16085
1.15799
1.17515
1.20854
1.26792
1.34023
1.39276
1.42962
1.44582
1.50801
1.59158
1.66957
1.76708
1.81857
1.87038
1.88504
1.89081
1.90521
1.92949
1.94073
1.95077
1.95105
1.95459
1.96156
1.96866
1.97446
1.97965
1.98337
1.98494
1.98674
1.98853
1.98754
1.98816
1.98913
1.99107
1.99541
1.99958
2.00462
2.00629
2.00692
2.01575
0.190875
0.192473
0.191965
0.191985
0.191827
0.19168
0.191502
0.191319
0.191135
0.190952
0.190765
0.19058
0.190404
0.190244
0.190094
0.18996
0.189839
0.189727
0.189625
0.18956
0.18953
0.189507
0.189498
0.189526
0.189574
0.189653
0.189761
0.189896
0.190067
0.190273
0.190543
0.190824
0.191161
0.191537
0.191976
0.192473
0.193083
0.193775
0.194552
0.195467
0.196652
0.19819
0.200136
0.20254
0.205216
0.200254
0.942766
1.54412
1.65755
1.68993
1.65952
1.63961
1.60589
1.57506
1.54496
1.51056
1.47437
1.4414
1.40924
1.37691
1.34755
1.31965
1.29087
1.26315
1.2426
1.22417
1.20815
1.19507
1.18304
1.17372
1.1689
1.16534
1.16103
1.15598
1.14705
1.13179
1.12343
1.12149
1.13126
1.16478
1.19949
1.23752
1.27576
1.29178
1.32282
1.38865
1.49897
1.58864
1.65478
1.69601
1.73064
1.76272
1.80613
1.85077
1.89351
1.92211
1.94591
1.94919
1.95012
1.95151
1.95952
1.96642
1.97292
1.97532
1.97914
1.98376
1.98586
1.98692
1.98848
1.98712
1.98781
1.98998
1.99037
1.99455
1.99812
2.00241
2.00399
2.00427
2.00841
0.190884
0.192476
0.191966
0.191987
0.191827
0.191681
0.191504
0.191321
0.191133
0.190943
0.19076
0.190584
0.190413
0.190244
0.190084
0.189945
0.189823
0.189714
0.189616
0.189548
0.189514
0.189482
0.189464
0.189478
0.189508
0.18956
0.189623
0.1897
0.189786
0.189892
0.19001
0.190109
0.190189
0.190253
0.190287
0.19034
0.190368
0.190384
0.190423
0.190459
0.190606
0.190707
0.191275
0.19195
0.192141
0.190543
0.902337
1.53689
1.64915
1.68023
1.64514
1.62487
1.59245
1.55825
1.52295
1.48697
1.44731
1.41291
1.37938
1.34455
1.31569
1.28745
1.26156
1.2335
1.21091
1.19372
1.18076
1.17087
1.16225
1.15421
1.14668
1.13539
1.12481
1.11901
1.11664
1.11887
1.12458
1.12626
1.12178
1.11027
1.11492
1.1663
1.22979
1.32378
1.39556
1.44196
1.46988
1.50233
1.5588
1.6019
1.67257
1.73525
1.79261
1.83063
1.85387
1.87155
1.903
1.92739
1.94892
1.95891
1.96271
1.96235
1.9645
1.96958
1.9786
1.98382
1.98624
1.98745
1.98754
1.98658
1.98716
1.98945
1.98989
1.99484
1.99787
2.00168
2.00326
2.00335
2.00448
0.190907
0.192485
0.19197
0.19199
0.191832
0.191685
0.191508
0.191324
0.191136
0.190948
0.190766
0.190583
0.190404
0.190241
0.190086
0.189948
0.189828
0.189712
0.189607
0.189535
0.189502
0.189472
0.189456
0.189482
0.189527
0.189601
0.1897
0.189834
0.189996
0.190236
0.190503
0.190813
0.191149
0.191537
0.191985
0.192552
0.193147
0.193799
0.194572
0.195629
0.196819
0.19817
0.199721
0.20183
0.203468
0.204532
0.895716
1.51973
1.63695
1.66574
1.60137
1.57023
1.53652
1.49648
1.4542
1.41654
1.37562
1.3431
1.31334
1.27937
1.2551
1.22598
1.20828
1.17444
1.158
1.14472
1.12963
1.11609
1.10704
1.10087
1.09742
1.09727
1.09683
1.09377
1.08941
1.07736
1.06454
1.06296
1.0704
1.09949
1.12047
1.17373
1.21556
1.25521
1.30038
1.36483
1.43812
1.48113
1.51501
1.55212
1.5883
1.62665
1.6735
1.73138
1.7955
1.84086
1.88375
1.90248
1.91959
1.93179
1.9458
1.95451
1.96264
1.96495
1.96957
1.97416
1.9798
1.9843
1.98763
1.9869
1.98707
1.989
1.98989
1.99595
1.99837
2.00196
2.00295
2.00352
2.00393
0.190916
0.192489
0.191972
0.191993
0.191833
0.191685
0.191506
0.191322
0.191134
0.19095
0.190762
0.190579
0.1904
0.190232
0.190076
0.189936
0.189812
0.189694
0.189587
0.189509
0.18947
0.189441
0.189411
0.189409
0.189433
0.189472
0.189514
0.189567
0.189628
0.189716
0.189794
0.189844
0.18987
0.189855
0.189814
0.189747
0.189642
0.189514
0.189305
0.189149
0.188812
0.188719
0.188526
0.188637
0.188688
0.193776
0.77894
1.47317
1.6015
1.62439
1.5212
1.46774
1.41802
1.37815
1.3326
1.30154
1.26385
1.24662
1.22166
1.19558
1.18004
1.15418
1.1453
1.11073
1.10619
1.07873
1.07251
1.06359
1.06078
1.05794
1.05587
1.04934
1.04144
1.03498
1.03229
1.03397
1.04045
1.04806
1.05421
1.04642
1.06431
1.07865
1.16497
1.22914
1.29834
1.33578
1.39159
1.38972
1.41914
1.45034
1.49184
1.52659
1.58435
1.6392
1.69875
1.75238
1.80452
1.85187
1.89018
1.91206
1.92916
1.93801
1.94457
1.94955
1.95851
1.96756
1.97705
1.98116
1.98527
1.98502
1.98747
1.98939
1.99039
1.99561
1.9982
2.0018
2.0026
2.00357
2.00437
0.190939
0.192498
0.191976
0.191996
0.191835
0.191685
0.191509
0.191325
0.191134
0.190947
0.19076
0.190576
0.190401
0.190232
0.19007
0.189925
0.189796
0.189678
0.189569
0.189494
0.189451
0.189424
0.189401
0.189406
0.189448
0.189505
0.189594
0.189714
0.189864
0.190066
0.190346
0.190654
0.190978
0.191365
0.191815
0.192304
0.192782
0.193354
0.193976
0.194663
0.195091
0.195541
0.195666
0.195023
0.193567
0.209609
0.537818
1.33098
1.52209
1.48342
1.37746
1.31529
1.28194
1.25527
1.22173
1.20292
1.16928
1.16285
1.13923
1.12173
1.11617
1.08935
1.08648
1.05137
1.04793
1.0139
1.013
1.00516
1.00034
0.995765
0.993309
0.99281
0.994047
0.993593
0.9912
0.990093
0.982495
0.97779
0.989663
0.990145
1.03674
1.0466
1.13639
1.18621
1.25145
1.26565
1.30468
1.31386
1.34735
1.37006
1.4
1.43188
1.47701
1.52703
1.58523
1.67182
1.73765
1.80525
1.84428
1.87224
1.89954
1.91814
1.93262
1.93977
1.94661
1.95217
1.96227
1.97143
1.98124
1.98346
1.98747
1.98886
1.99027
1.99594
1.9983
2.00205
2.00279
2.00351
2.00523
0.190948
0.192502
0.191978
0.191997
0.191836
0.191684
0.191508
0.191322
0.191131
0.190944
0.190756
0.190569
0.190389
0.190217
0.190054
0.189907
0.189782
0.189663
0.189543
0.18946
0.189403
0.189372
0.189337
0.18931
0.189321
0.189344
0.189372
0.189401
0.18944
0.189481
0.189528
0.189532
0.189492
0.189417
0.189312
0.189144
0.188922
0.188491
0.188086
0.187595
0.187
0.186068
0.18475
0.182868
0.181699
0.183773
0.284363
0.887538
1.44051
1.30627
1.25118
1.2134
1.1872
1.17266
1.14868
1.14452
1.11369
1.11277
1.08461
1.08838
1.06422
1.07095
1.03708
1.03136
0.993905
0.988825
0.972651
0.974212
0.971629
0.969768
0.96693
0.964415
0.961474
0.958505
0.95427
0.952148
0.950844
0.948916
0.961514
0.950883
0.98929
0.992563
1.09851
1.14154
1.20076
1.21103
1.25323
1.26069
1.267
1.28366
1.3131
1.3518
1.39318
1.4356
1.48667
1.56246
1.63129
1.71439
1.79346
1.83956
1.87313
1.89454
1.91083
1.92268
1.92928
1.93639
1.94666
1.96153
1.97408
1.97889
1.98406
1.98729
1.99009
1.99565
1.99806
2.00229
2.00276
2.00392
2.0058
0.190967
0.192509
0.191982
0.191998
0.191834
0.191679
0.191507
0.191321
0.19113
0.190942
0.19075
0.190563
0.190383
0.190207
0.190042
0.189895
0.189765
0.189643
0.189521
0.189433
0.189372
0.189339
0.189311
0.189291
0.189314
0.189365
0.189429
0.189529
0.189663
0.189856
0.190093
0.190349
0.190637
0.190988
0.191402
0.191839
0.192238
0.192695
0.193051
0.193499
0.193648
0.193759
0.193349
0.192909
0.191889
0.191859
0.193782
0.37458
1.43467
1.3319
1.25448
1.19288
1.15661
1.12555
1.10614
1.09111
1.08894
1.06481
1.07099
1.0486
1.05784
1.03574
1.03552
0.995646
0.979487
0.964907
0.960583
0.956422
0.957706
0.951931
0.949958
0.948416
0.945577
0.94286
0.940122
0.936853
0.934307
0.926009
0.934874
0.920967
0.959211
0.974572
1.08592
1.11301
1.17108
1.18093
1.18125
1.19359
1.20831
1.23645
1.2625
1.28247
1.31551
1.34771
1.40058
1.45809
1.55302
1.6294
1.73311
1.79235
1.84138
1.87178
1.8962
1.90671
1.91529
1.91968
1.92623
1.93803
1.95726
1.96839
1.97876
1.98386
1.9864
1.99322
1.99715
2.00166
2.00256
2.00401
2.00646
0.190976
0.192512
0.191983
0.191998
0.191836
0.191684
0.191504
0.191317
0.191123
0.190935
0.19074
0.19055
0.19037
0.190193
0.190022
0.189871
0.189736
0.189608
0.189485
0.189387
0.189315
0.189267
0.189225
0.189183
0.189159
0.189162
0.189177
0.18918
0.189196
0.189215
0.18922
0.189187
0.189114
0.188998
0.188824
0.1886
0.188324
0.187975
0.18747
0.18686
0.18623
0.185658
0.18475
0.18435
0.183924
0.18402
0.220971
0.72122
1.37035
1.32567
1.26107
1.20364
1.15602
1.12802
1.09643
1.08451
1.06912
1.07262
1.04803
1.06061
1.03679
1.04949
1.01448
1.00584
0.973778
0.966028
0.960112
0.957496
0.957492
0.953507
0.951021
0.949411
0.947692
0.944205
0.940723
0.937284
0.929922
0.922299
0.914356
0.926954
0.931207
1.01567
1.08089
1.10699
1.14263
1.16021
1.14112
1.16462
1.17065
1.17481
1.18786
1.20969
1.26091
1.30255
1.35434
1.38196
1.4612
1.52823
1.63177
1.7279
1.81114
1.85094
1.87639
1.89038
1.90139
1.9069
1.91255
1.92105
1.93614
1.95138
1.96736
1.97613
1.98438
1.98989
1.99441
2.00071
2.00289
2.00383
2.00742
0.190991
0.192518
0.191985
0.191998
0.191833
0.191682
0.191501
0.191313
0.191116
0.190928
0.190733
0.19054
0.190359
0.19018
0.190005
0.189849
0.189713
0.189579
0.189452
0.189348
0.189268
0.189214
0.18917
0.189131
0.18912
0.189151
0.189195
0.189269
0.189372
0.189521
0.189721
0.189952
0.190224
0.19053
0.19088
0.19128
0.191761
0.192299
0.192877
0.193422
0.193885
0.194543
0.194869
0.195365
0.196206
0.201774
0.234474
0.829789
1.19913
1.2942
1.26839
1.22268
1.18323
1.14688
1.11042
1.09081
1.07386
1.07902
1.05461
1.06758
1.0456
1.05787
1.01929
1.01187
0.979271
0.973907
0.964035
0.969148
0.964642
0.964154
0.95987
0.957942
0.955462
0.952568
0.947803
0.943051
0.933126
0.926836
0.912246
0.931879
0.938346
1.05582
1.10105
1.14365
1.12146
1.13281
1.12785
1.1371
1.14441
1.14652
1.15539
1.17771
1.20933
1.23415
1.28108
1.319
1.38024
1.4561
1.5459
1.65318
1.75588
1.8177
1.85663
1.87441
1.88746
1.89437
1.89941
1.90562
1.91463
1.93142
1.94958
1.96732
1.97841
1.98465
1.99195
1.99846
2.00126
2.00265
2.00763
0.190999
0.19252
0.191986
0.191997
0.191832
0.191679
0.191496
0.191307
0.191109
0.190917
0.190722
0.190526
0.190341
0.190161
0.189981
0.189818
0.189674
0.189532
0.189399
0.189287
0.189195
0.189128
0.189069
0.189008
0.188959
0.188933
0.188917
0.188911
0.188906
0.188882
0.188868
0.188811
0.188732
0.188598
0.188431
0.188166
0.187887
0.187589
0.187218
0.186806
0.186487
0.186258
0.186374
0.186476
0.186344
0.202085
0.320867
0.856303
1.02033
1.15767
1.23407
1.23671
1.21846
1.17035
1.1452
1.10813
1.0978
1.07897
1.08537
1.06147
1.08101
1.04923
1.04778
1.00553
0.998556
0.9814
0.984605
0.97979
0.982418
0.978537
0.975898
0.972493
0.969439
0.963839
0.959307
0.951352
0.945441
0.932177
0.927534
0.922408
1.01832
1.09272
1.13166
1.12016
1.13209
1.11223
1.12947
1.11572
1.12165
1.13372
1.13858
1.14829
1.16
1.18759
1.23087
1.28399
1.32865
1.39943
1.46787
1.56964
1.68661
1.77916
1.83451
1.8613
1.87778
1.88573
1.88881
1.89064
1.89515
1.90857
1.92626
1.94766
1.96344
1.97882
1.99
1.99502
1.99955
2.00081
2.00606
0.191008
0.192523
0.191987
0.191995
0.191828
0.191675
0.191491
0.191301
0.191102
0.190907
0.190711
0.19051
0.190324
0.190141
0.189958
0.189788
0.189637
0.189487
0.189349
0.189229
0.189132
0.189056
0.188992
0.188934
0.18889
0.188879
0.188898
0.188938
0.189007
0.189116
0.18926
0.189429
0.189662
0.189941
0.190303
0.190703
0.191171
0.191807
0.192589
0.193369
0.194262
0.195597
0.197502
0.199788
0.202238
0.222784
0.627186
0.842163
0.921933
1.0044
1.16929
1.2146
1.23169
1.19031
1.17964
1.13196
1.11763
1.09204
1.10407
1.07523
1.09848
1.06059
1.06021
1.0162
1.01181
0.989232
0.992429
0.98771
0.990872
0.987391
0.984961
0.98239
0.979063
0.974779
0.968884
0.959693
0.953055
0.937874
0.934081
0.946902
1.07511
1.12593
1.14486
1.12795
1.13932
1.11599
1.10481
1.10848
1.10882
1.11602
1.14081
1.14452
1.14194
1.17062
1.18821
1.22845
1.25978
1.32505
1.39474
1.49031
1.60472
1.72186
1.80526
1.84487
1.8704
1.88316
1.88648
1.88422
1.8837
1.88783
1.90305
1.92314
1.94635
1.96756
1.98369
1.99108
1.99819
1.99894
2.00407
0.191014
0.192523
0.191986
0.191993
0.191825
0.19167
0.191485
0.191293
0.191092
0.190894
0.190696
0.190492
0.1903
0.190115
0.189927
0.189749
0.18959
0.189435
0.189284
0.189152
0.189041
0.188948
0.188867
0.188788
0.188711
0.188654
0.188611
0.188572
0.188545
0.188508
0.188465
0.188375
0.188275
0.188144
0.187973
0.187745
0.18741
0.187029
0.186601
0.186081
0.185471
0.184789
0.183538
0.18192
0.186014
0.204748
0.767876
0.864764
0.896645
0.923214
1.01358
1.0958
1.1824
1.18395
1.19578
1.14079
1.12892
1.09632
1.11031
1.08423
1.1074
1.06675
1.06265
1.02288
1.01564
0.994146
0.998146
0.993384
0.996472
0.992854
0.989632
0.986132
0.984765
0.983677
0.978635
0.965976
0.95074
0.938448
0.949831
1.02837
1.12642
1.14883
1.16696
1.1471
1.11713
1.12733
1.12961
1.12625
1.11679
1.1123
1.10965
1.12486
1.14519
1.1632
1.17398
1.20543
1.23062
1.27276
1.33776
1.4162
1.52684
1.64681
1.75648
1.81559
1.8509
1.86823
1.87598
1.87262
1.87099
1.8715
1.88579
1.89942
1.92915
1.94962
1.97213
1.98755
1.9963
1.99749
2.00273
0.19102
0.192524
0.191985
0.19199
0.19182
0.191664
0.191477
0.191285
0.191082
0.190879
0.190681
0.190474
0.190277
0.190088
0.189897
0.18971
0.189541
0.189381
0.18922
0.189079
0.188958
0.188853
0.18876
0.188676
0.188598
0.188548
0.18852
0.188526
0.188555
0.188608
0.188688
0.188798
0.188964
0.189182
0.189467
0.189819
0.190253
0.190815
0.191425
0.192268
0.192931
0.19408
0.194342
0.194528
0.210018
0.320551
0.895769
0.910166
0.917654
0.923525
0.937394
1.00302
1.06437
1.16947
1.1644
1.17853
1.13436
1.13328
1.10388
1.12164
1.09522
1.09648
1.05072
1.04207
1.01302
1.00744
1.00288
1.00412
1.00181
1.00078
0.99791
0.995609
0.994321
0.991895
0.982807
0.9667
0.953227
0.947528
0.983741
1.11869
1.18267
1.20353
1.1536
1.14468
1.12089
1.13106
1.12442
1.12533
1.12697
1.13399
1.1219
1.11557
1.12559
1.13587
1.14686
1.17022
1.20635
1.24232
1.30177
1.36793
1.46683
1.58489
1.70859
1.7882
1.83457
1.85578
1.86733
1.86521
1.86142
1.86229
1.86787
1.88081
1.90851
1.93083
1.96068
1.97936
1.99295
1.99464
2.0005
0.191023
0.192523
0.191983
0.191987
0.191815
0.191656
0.191468
0.191275
0.19107
0.190862
0.190663
0.190452
0.190248
0.190054
0.189859
0.189662
0.189485
0.189317
0.189143
0.188988
0.188853
0.188733
0.188619
0.188508
0.188404
0.188305
0.188225
0.188159
0.188098
0.188036
0.187968
0.187871
0.187765
0.18761
0.187452
0.187185
0.18688
0.186541
0.186085
0.185818
0.185279
0.185136
0.184559
0.183891
0.206993
0.601533
0.921674
0.928472
0.920766
0.914716
0.924697
0.943975
0.994517
1.04181
1.16062
1.16367
1.18286
1.13751
1.13941
1.10575
1.12699
1.07381
1.06501
1.02981
1.02551
1.00604
1.00772
1.00391
1.00452
1.00395
1.00114
0.998473
0.996018
0.992466
0.984645
0.977046
0.976313
1.00133
1.12525
1.19807
1.20142
1.17462
1.18208
1.1694
1.15995
1.14021
1.11615
1.1098
1.11491
1.12463
1.12736
1.13125
1.13473
1.13584
1.14235
1.15749
1.18786
1.22399
1.27459
1.3395
1.4249
1.52942
1.65597
1.74933
1.81124
1.84303
1.8606
1.86269
1.85833
1.85542
1.85187
1.86733
1.88223
1.91041
1.94243
1.96604
1.9861
1.98971
1.99769
0.191026
0.192521
0.19198
0.191981
0.191808
0.191649
0.191458
0.191262
0.191057
0.190846
0.190642
0.19043
0.19022
0.190019
0.189821
0.189615
0.189427
0.189251
0.189069
0.188897
0.188747
0.188616
0.188492
0.188365
0.188249
0.188148
0.188069
0.188023
0.187993
0.187999
0.188023
0.188056
0.18814
0.188236
0.188414
0.188634
0.188932
0.189273
0.189662
0.190228
0.191067
0.191929
0.193226
0.193083
0.217213
0.798773
0.949089
0.951366
0.94306
0.924992
0.922475
0.934397
0.943189
0.955167
1.06397
1.09534
1.17146
1.13585
1.16069
1.10895
1.13791
1.07316
1.0677
1.03362
1.03446
1.00836
1.01051
1.00946
1.00961
1.01056
1.0073
1.00554
1.0101
1.01395
1.01797
1.03219
1.09123
1.19727
1.2633
1.26544
1.19392
1.1793
1.1647
1.15164
1.14552
1.15067
1.1476
1.13982
1.1277
1.11539
1.11806
1.12154
1.12296
1.13263
1.14651
1.15745
1.17722
1.20757
1.24485
1.29986
1.37257
1.47115
1.59924
1.71301
1.7903
1.82502
1.84663
1.85487
1.853
1.84757
1.84223
1.85011
1.85868
1.88793
1.92091
1.95144
1.97503
1.98221
1.99195
0.191022
0.192516
0.191975
0.191976
0.191801
0.191639
0.191447
0.191249
0.191041
0.190827
0.190618
0.190407
0.190185
0.189978
0.189776
0.189561
0.189359
0.189173
0.188982
0.18879
0.188621
0.188473
0.188327
0.188176
0.188031
0.187898
0.187768
0.187653
0.187551
0.187459
0.187375
0.187273
0.187135
0.186994
0.18674
0.186518
0.186197
0.185816
0.185453
0.184784
0.184054
0.182069
0.180226
0.188555
0.215523
0.868618
0.964241
0.968749
0.967708
0.959711
0.950358
0.936085
0.924677
0.931839
0.977373
0.984399
1.09673
1.10826
1.15995
1.10497
1.13179
1.07485
1.07034
1.03587
1.03996
1.01782
1.01316
1.02194
1.03337
1.03951
1.04351
1.05652
1.10136
1.15433
1.22033
1.32729
1.385
1.43718
1.39801
1.34274
1.27657
1.23502
1.17714
1.1409
1.13081
1.13372
1.13077
1.13056
1.13095
1.13338
1.1361
1.13695
1.12982
1.12587
1.13215
1.14392
1.156
1.18368
1.20962
1.25506
1.32036
1.41408
1.53771
1.66796
1.76747
1.80768
1.83438
1.84645
1.85065
1.84286
1.83772
1.83173
1.84373
1.86414
1.89791
1.93376
1.96107
1.97346
1.98534
0.191023
0.192513
0.19197
0.191969
0.191793
0.191629
0.191435
0.191234
0.191025
0.190807
0.190594
0.19038
0.190151
0.189935
0.189728
0.189505
0.18929
0.189091
0.188893
0.188684
0.188497
0.188331
0.188172
0.188001
0.187834
0.187689
0.187558
0.187433
0.187338
0.187268
0.187242
0.187224
0.187189
0.187173
0.187193
0.18725
0.187371
0.187549
0.187826
0.187879
0.188379
0.18792
0.188612
0.205575
0.355805
0.98334
0.988832
0.99072
0.989745
0.983855
0.969455
0.955981
0.938546
0.937425
0.935279
0.95286
0.965346
1.07711
1.07554
1.14118
1.0878
1.11635
1.07213
1.07212
1.068
1.07237
1.06439
1.12591
1.18078
1.23294
1.30186
1.38532
1.44624
1.53278
1.59724
1.62837
1.6242
1.58826
1.52462
1.45261
1.38577
1.31096
1.25384
1.20872
1.1817
1.16125
1.14249
1.12771
1.1269
1.12904
1.12564
1.13025
1.13365
1.1334
1.1379
1.14656
1.15725
1.1755
1.19889
1.23554
1.28903
1.36993
1.48499
1.61615
1.73197
1.78683
1.81729
1.83364
1.84251
1.83612
1.82976
1.82237
1.83394
1.8413
1.87489
1.9122
1.9466
1.963
1.97888
0.191012
0.192504
0.191962
0.19196
0.191783
0.191617
0.19142
0.191217
0.191007
0.190784
0.190566
0.190349
0.190113
0.189888
0.189673
0.189445
0.189214
0.188999
0.188789
0.188563
0.188354
0.188166
0.187986
0.187786
0.187587
0.187413
0.187249
0.187075
0.186911
0.186765
0.186641
0.186537
0.186406
0.186247
0.186027
0.185796
0.185704
0.185549
0.185498
0.185395
0.185843
0.186308
0.186614
0.211329
0.644042
0.995293
0.995821
0.991349
0.987258
0.982499
0.970416
0.957636
0.951429
0.953216
0.953812
0.931033
0.923261
0.992574
1.10863
1.09455
1.17469
1.12574
1.1834
1.22334
1.28525
1.33769
1.39851
1.47031
1.55487
1.63441
1.69059
1.72307
1.73477
1.74368
1.73842
1.72044
1.69041
1.65016
1.60017
1.55031
1.49653
1.42715
1.34915
1.2679
1.21021
1.17432
1.15925
1.16015
1.16044
1.15527
1.14699
1.13539
1.1331
1.13309
1.13565
1.13663
1.14624
1.1573
1.17991
1.21393
1.26713
1.3431
1.44562
1.5727
1.69608
1.76637
1.80301
1.8235
1.83461
1.83192
1.82241
1.82317
1.81772
1.82495
1.85393
1.89273
1.9321
1.9525
1.97254
0.191009
0.192498
0.191954
0.191951
0.191772
0.191605
0.191406
0.1912
0.190987
0.190761
0.190536
0.190317
0.190074
0.189838
0.189614
0.189382
0.189133
0.188903
0.188682
0.188441
0.18821
0.187997
0.187804
0.187586
0.187356
0.187157
0.186983
0.186804
0.186611
0.186448
0.186306
0.186201
0.186125
0.186014
0.185928
0.185857
0.18593
0.186126
0.186342
0.186683
0.187065
0.188002
0.18899
0.215373
0.804385
0.994216
0.994882
0.991932
0.989134
0.985333
0.981921
0.979653
0.975732
0.964263
0.943004
0.943246
0.967602
0.980739
1.07894
1.21152
1.3342
1.37394
1.47364
1.5689
1.63665
1.68913
1.72327
1.7437
1.75933
1.77664
1.7816
1.78156
1.77086
1.76167
1.74999
1.73404
1.7135
1.68767
1.65555
1.61928
1.57803
1.52749
1.46031
1.38245
1.3078
1.25579
1.21555
1.18039
1.16295
1.15346
1.14888
1.15094
1.15159
1.14829
1.14708
1.14543
1.15178
1.15946
1.1762
1.20435
1.24735
1.31024
1.40213
1.52225
1.65474
1.74361
1.78704
1.81249
1.8278
1.83003
1.82071
1.81535
1.80597
1.81486
1.83231
1.87311
1.91318
1.9385
1.96403
0.190994
0.192486
0.191942
0.19194
0.19176
0.19159
0.191389
0.191181
0.190963
0.190735
0.190504
0.190279
0.190034
0.189785
0.189549
0.189311
0.189048
0.1888
0.188567
0.188314
0.188052
0.187811
0.187599
0.187358
0.187085
0.186851
0.186643
0.186431
0.18619
0.185958
0.185759
0.185576
0.185446
0.185245
0.185066
0.184694
0.184441
0.184019
0.183478
0.182914
0.181411
0.179779
0.186588
0.218334
0.872271
0.989167
1.00321
1.00629
1.00254
0.995729
0.99286
0.997647
1.00105
0.996541
0.97946
0.980629
1.03171
1.1134
1.24778
1.48787
1.62519
1.66542
1.70661
1.72483
1.74274
1.75331
1.76366
1.76657
1.77112
1.76919
1.76548
1.76339
1.75776
1.75082
1.74317
1.73325
1.72151
1.70765
1.68897
1.6642
1.63474
1.59805
1.54825
1.47882
1.39482
1.31049
1.25202
1.21448
1.1944
1.18256
1.17202
1.15904
1.15259
1.14674
1.14307
1.14396
1.14598
1.1561
1.1715
1.19783
1.23307
1.28882
1.36967
1.48064
1.61258
1.71615
1.77147
1.80014
1.81917
1.82136
1.81531
1.80075
1.80222
1.79643
1.81483
1.85041
1.89194
1.92268
1.95588
0.190985
0.192476
0.19193
0.191928
0.191747
0.191576
0.191371
0.19116
0.19094
0.190708
0.190471
0.19024
0.189993
0.189729
0.189482
0.189237
0.188962
0.188694
0.188442
0.188181
0.18789
0.187626
0.187387
0.187133
0.186833
0.186565
0.186317
0.1861
0.185841
0.185543
0.1853
0.185088
0.184925
0.18473
0.184409
0.184102
0.183606
0.183289
0.183012
0.183151
0.18322
0.182917
0.202111
0.349253
0.975543
0.987074
0.995409
0.995538
0.992922
0.989247
0.990421
1.00156
1.00866
1.00616
1.00629
1.0513
1.169
1.33681
1.56863
1.73944
1.74835
1.74113
1.74261
1.74434
1.74322
1.74342
1.7415
1.73863
1.73843
1.74427
1.74344
1.74465
1.74298
1.74211
1.7379
1.73269
1.72371
1.71409
1.70244
1.68819
1.66876
1.64331
1.6095
1.562
1.49142
1.40663
1.33592
1.28047
1.23271
1.1991
1.18344
1.17682
1.16869
1.16073
1.15343
1.15087
1.15156
1.15386
1.16456
1.18528
1.21831
1.26777
1.34028
1.443
1.57028
1.68552
1.75751
1.78819
1.80899
1.81286
1.80861
1.79413
1.79161
1.78046
1.80526
1.82634
1.87315
1.90567
1.9425
0.190965
0.192461
0.191916
0.191913
0.191731
0.191559
0.191352
0.191135
0.190916
0.190681
0.190436
0.190197
0.18995
0.189673
0.189411
0.189158
0.188875
0.188584
0.188311
0.188038
0.187726
0.18743
0.187159
0.186879
0.186551
0.186232
0.185943
0.185701
0.185417
0.185052
0.184744
0.184493
0.184274
0.184118
0.183874
0.183664
0.183458
0.183571
0.183641
0.184102
0.185178
0.185918
0.213692
0.656158
0.949873
0.968689
0.974837
0.974296
0.968993
0.970219
0.97689
0.992283
1.00525
1.00931
1.04482
1.16862
1.36624
1.5899
1.75561
1.75779
1.74348
1.73703
1.73285
1.726
1.72461
1.71931
1.71618
1.71114
1.71111
1.71428
1.7168
1.72129
1.72405
1.7265
1.72923
1.72763
1.72315
1.71599
1.70765
1.69817
1.68629
1.66979
1.64567
1.61258
1.56375
1.49407
1.41181
1.32971
1.27251
1.23437
1.21196
1.19174
1.17079
1.15843
1.15157
1.14738
1.15059
1.15642
1.16694
1.18119
1.20752
1.24929
1.31321
1.40543
1.52734
1.65165
1.73956
1.77303
1.7963
1.80174
1.79884
1.78919
1.77721
1.7777
1.78503
1.804
1.85636
1.88884
1.92877
0.19095
0.192447
0.1919
0.191898
0.191715
0.191541
0.191332
0.191111
0.190887
0.190654
0.190399
0.190152
0.189903
0.189615
0.189338
0.189073
0.188784
0.188468
0.188172
0.187885
0.187562
0.187231
0.186926
0.186628
0.18628
0.18591
0.185588
0.1853
0.185001
0.184623
0.18424
0.183914
0.183584
0.183389
0.182988
0.182408
0.181471
0.180535
0.179563
0.177382
0.176161
0.179176
0.206944
0.800179
0.939471
0.957145
0.966842
0.964604
0.958221
0.957049
0.966141
0.992774
1.01942
1.05475
1.17641
1.41579
1.63077
1.74762
1.75392
1.73448
1.72427
1.71039
1.70393
1.70266
1.70213
1.70027
1.69792
1.69441
1.69007
1.68962
1.69067
1.69458
1.69719
1.70096
1.70713
1.71072
1.71093
1.70967
1.70605
1.70018
1.69175
1.68099
1.6659
1.64352
1.60992
1.56078
1.48869
1.40558
1.33461
1.27774
1.23448
1.20528
1.18692
1.17366
1.16501
1.1583
1.15535
1.15622
1.16243
1.17461
1.19752
1.23449
1.29149
1.37603
1.49206
1.6204
1.72041
1.75926
1.78308
1.78894
1.79041
1.78198
1.77085
1.76601
1.76583
1.78529
1.83416
1.87258
1.91749
0.190925
0.192428
0.191882
0.19188
0.191698
0.191522
0.191311
0.191087
0.190857
0.190624
0.19036
0.190103
0.18985
0.189561
0.189266
0.188983
0.188689
0.188351
0.188031
0.187729
0.187391
0.187025
0.186685
0.186371
0.186001
0.185575
0.185208
0.184869
0.184555
0.184138
0.183647
0.183242
0.18286
0.182633
0.182355
0.182025
0.181622
0.181249
0.181504
0.181824
0.18171
0.200019
0.326851
0.918285
0.936112
0.948633
0.958101
0.959629
0.953408
0.952992
0.970488
1.01753
1.07264
1.1774
1.43715
1.6758
1.74434
1.74384
1.72179
1.71841
1.7084
1.691
1.68326
1.68348
1.68259
1.67982
1.67773
1.67604
1.67352
1.67121
1.67016
1.67053
1.67214
1.67427
1.67911
1.68632
1.6928
1.69791
1.6977
1.69571
1.69132
1.68395
1.67404
1.6594
1.63711
1.60253
1.55241
1.47956
1.39594
1.31985
1.26658
1.23104
1.2057
1.18479
1.16796
1.15856
1.15605
1.1607
1.16476
1.1758
1.19576
1.22874
1.28076
1.35723
1.46311
1.59004
1.70067
1.74479
1.76903
1.77665
1.78225
1.7718
1.76651
1.74557
1.75866
1.76265
1.81198
1.85619
1.90589
0.190903
0.192409
0.191863
0.191862
0.191678
0.191501
0.19129
0.191062
0.190827
0.190593
0.190322
0.190054
0.189792
0.189504
0.18919
0.18889
0.188587
0.188233
0.18789
0.187564
0.187212
0.186812
0.186439
0.186108
0.185728
0.185256
0.184849
0.184456
0.184149
0.18372
0.183134
0.182707
0.182346
0.182041
0.181833
0.181412
0.180932
0.180223
0.179678
0.179362
0.180993
0.210757
0.657393
0.90618
0.923938
0.932822
0.948415
0.955541
0.953411
0.956773
1.002
1.10045
1.22653
1.45797
1.69219
1.74
1.73449
1.71065
1.6861
1.68718
1.68293
1.67162
1.66451
1.66528
1.66536
1.66324
1.66109
1.65938
1.65766
1.65459
1.65265
1.65135
1.65088
1.65105
1.65429
1.65936
1.66461
1.67338
1.67969
1.68367
1.68349
1.68072
1.67518
1.66561
1.65115
1.6287
1.59393
1.54156
1.46466
1.37989
1.3123
1.2613
1.22306
1.19547
1.17897
1.16973
1.16474
1.16385
1.16549
1.17349
1.18968
1.21793
1.26411
1.33245
1.43244
1.55649
1.67465
1.72739
1.75441
1.76649
1.77245
1.76332
1.75208
1.73864
1.74096
1.73747
1.79418
1.83902
1.89157
0.190873
0.192387
0.191842
0.191841
0.191657
0.191478
0.191267
0.191037
0.190794
0.190557
0.190287
0.190007
0.189732
0.189444
0.189115
0.188797
0.188483
0.18812
0.18775
0.187397
0.187032
0.186599
0.186196
0.185824
0.185429
0.184934
0.184466
0.184022
0.183684
0.183247
0.182672
0.182095
0.181596
0.18112
0.180693
0.180097
0.17934
0.178446