/*--------------------------------*- C++ -*----------------------------------*\
| =========                 |                                                 |
| \\      /  F ield         | OpenFOAM: The Open Source CFD Toolbox           |
|  \\    /   O peration     | Version:  2.2.x                                 |
|   \\  /    A nd           | Web:      www.OpenFOAM.org                      |
|    \\/     M anipulation  |                                                 |
\*---------------------------------------------------------------------------*/
FoamFile
{
    version     2.0;
    format      ascii;
    class       surfaceScalarField;
    location    "0.15";
    object      cfmax;
}
// * * * * * * * * * * * * * * * * * * * * * * * * * * * * * * * * * * * * * //

dimensions      [0 3 -1 0 0 0 0];

internalField   nonuniform List<scalar> 
28084
(
0.00124379
0.00123839
0.00123376
0.00122986
0.00122666
0.00122413
0.00122221
0.00122088
0.00122009
0.0012198
0.00121995
0.00122051
0.00122143
0.00122266
0.00122416
0.00122589
0.0012278
0.00122986
0.00123203
0.00123427
0.00123654
0.00123882
0.00124108
0.00124329
0.00124544
0.00124753
0.00124954
0.00125153
0.00125355
0.00125568
0.00125811
0.00126103
0.0012644
0.0012693
0.00127389
0.00128106
0.00128793
0.00129808
0.00130483
0.00131231
0.00131721
0.00131602
0.00131379
0.00130879
0.00129406
0.0013004
0.00131011
0.00132627
0.00133961
0.00135225
0.00136565
0.00137907
0.00139101
0.00139926
0.00140372
0.00140921
0.00140918
0.00141047
0.00142128
0.00143306
0.00144285
0.00147041
0.00149606
0.00152636
0.00156416
0.0016114
0.00165429
0.00170208
0.0017514
0.0017917
0.0018586
0.00190965
0.00192942
0.00194262
0.00193492
0.00190564
0.00187583
0.00186489
0.00190535
0.00194443
0.00199274
0.0020502
0.00205904
0.00167703
0.00114628
0.000983697
0.000896902
0.000852726
0.000828254
0.000808955
0.000795163
0.000784901
0.000776754
0.000769502
0.000762281
0.000754361
0.000748044
0.000744616
0.000743432
0.000742336
0.000740553
0.000738832
0.000737924
0.000738737
0.000741246
0.000746085
0.00075348
0.000760965
0.000766525
0.000770273
0.000770993
0.000765871
0.000763483
0.000770126
0.000773531
0.000782691
0.000799977
0.000835138
0.00359371
0.00358822
0.00124965
0.00357511
0.00124805
0.00355451
0.00124717
0.00352658
0.00124698
0.00349156
0.00124744
0.00344972
0.00124853
0.00340141
0.0012502
0.00334701
0.00125241
0.00328695
0.00125511
0.00322185
0.00125826
0.00315232
0.00126182
0.00307848
0.00126572
0.00300086
0.00126993
0.00291995
0.0012744
0.00283628
0.00127907
0.00275034
0.0012839
0.00266263
0.00128884
0.00257362
0.00129385
0.00248377
0.00129889
0.00239349
0.00130391
0.00230319
0.00130889
0.00221324
0.00131378
0.00212397
0.00131854
0.00203567
0.00132314
0.00194858
0.00132753
0.00186287
0.00133163
0.00177864
0.00133533
0.0016959
0.00133847
0.00161455
0.00134078
0.00153433
0.00134185
0.0014551
0.00134115
0.00137642
0.00133799
0.00129859
0.00133202
0.00122114
0.00132213
0.00114559
0.00130949
0.00107093
0.00129253
0.000999178
0.00127352
0.000931451
0.00125172
0.000864877
0.00122971
0.000805616
0.00120701
0.000749038
0.00118821
0.000698225
0.00117426
0.000657572
0.00116716
0.000620079
0.00116401
0.000620492
0.00115928
0.000621617
0.00116885
0.000626348
0.00118822
0.000632003
0.00120808
0.000638843
0.00122981
0.00064685
0.00125743
0.000656126
0.00128707
0.000667599
0.00132347
0.000678656
0.00136423
0.000694878
0.00141125
0.000712396
0.00146557
0.000710131
0.00152448
0.00070461
0.00158782
0.000704089
0.00163847
0.000708035
0.00167307
0.000710774
0.00169034
0.00072118
0.00169131
0.000729663
0.00168999
0.000739555
0.00167476
0.000751129
0.00164655
0.000741053
0.00160313
0.00070672
0.0015402
0.000675552
0.00146084
0.000650696
0.00140367
0.000622407
0.00138488
0.000603634
0.00136994
0.000591445
0.00136494
0.000576912
0.00136989
0.00057834
0.00136312
0.000609672
0.00138369
0.000649954
0.00140709
0.000690615
0.00144182
0.000718717
0.00148451
0.000733669
0.00151719
0.000725709
0.00153379
0.000705433
0.00152336
0.000677897
0.00149395
0.000705441
0.00147625
0.000782103
0.00145545
0.000656216
0.000900899
0.000684633
0.000774061
0.000665502
0.000783504
0.000642455
0.000774141
0.00062994
0.000749525
0.0006256
0.000714883
0.000622969
0.000688796
0.000622398
0.000677973
0.000625617
0.000678877
0.000630358
0.000686189
0.000635138
0.000696439
0.000639048
0.000700364
0.000643038
0.000696932
0.000645932
0.000682472
0.000651034
0.00066619
0.00065632
0.000652321
0.000661684
0.000642064
0.000666899
0.000634959
0.000672059
0.000630085
0.00067704
0.000625975
0.000682972
0.000624292
0.000689544
0.0006234
0.000696674
0.000623575
0.000704506
0.000625759
0.00070885
0.000630403
0.000710836
0.000637517
0.000709969
0.000647343
0.000704218
0.000660457
0.000697142
0.0006752
0.000691757
0.000693927
0.000700132
0.000712319
0.000704284
0.000733955
0.000715183
0.000756435
0.000724167
0.000793692
0.000806755
0.000821459
0.0035948
0.00358886
0.00125748
0.00357532
0.00125963
0.00355431
0.00126245
0.00352599
0.00126592
0.00349059
0.00127001
0.00344841
0.00127467
0.00340085
0.00127988
0.0033474
0.00128558
0.0032882
0.00129174
0.0032237
0.00129831
0.00315438
0.00130522
0.00308074
0.00131244
0.00300327
0.00131991
0.0029225
0.00132757
0.00283893
0.00133537
0.00275307
0.00134327
0.00266541
0.00135121
0.00257642
0.00135914
0.00248656
0.00136702
0.00239626
0.00137481
0.00230592
0.00138246
0.00221591
0.00138995
0.00212655
0.00139726
0.00203812
0.00140436
0.00195087
0.00141126
0.00186493
0.00141803
0.00178038
0.00142478
0.00169717
0.00143174
0.00161511
0.0014393
0.0015339
0.00144807
0.00145406
0.0014589
0.00137726
0.00147279
0.00130073
0.00149064
0.00122631
0.00151349
0.00115206
0.00154074
0.00108066
0.00157329
0.00101084
0.00160867
0.000943495
0.00164684
0.000881478
0.0016855
0.000820631
0.00172282
0.000765504
0.00174674
0.00071647
0.00175363
0.00067069
0.00175059
0.000630063
0.00173157
0.000620471
0.00170341
0.000625164
0.00169586
0.000632346
0.00168782
0.000639683
0.00168063
0.000648249
0.00167521
0.000657963
0.00166971
0.000669789
0.00165881
0.000683481
0.0016442
0.000698912
0.00162302
0.000717965
0.00159746
0.000723173
0.00155366
0.000701213
0.00149859
0.000678065
0.00143372
0.000658357
0.0013737
0.000644607
0.00135268
0.000634677
0.00134597
0.000635762
0.00136112
0.000645138
0.00138114
0.000664555
0.00143693
0.000690887
0.00152362
0.000713148
0.00163804
0.000685925
0.00178264
0.000659205
0.00193298
0.000642457
0.0020923
0.0006331
0.00221891
0.000618056
0.00230868
0.000613425
0.00235948
0.000611122
0.00239733
0.000615702
0.00240701
0.000631013
0.00238053
0.00065807
0.00232986
0.00068466
0.00224622
0.000712623
0.00215493
0.000735552
0.00210185
0.000742685
0.00212349
0.000739536
0.00217593
0.000734583
0.00224816
0.000674203
0.00237289
0.000666219
0.00227193
0.000725327
0.0019896
0.000710178
0.00157535
0.000672202
0.00117558
0.000649547
0.0010884
0.000642538
0.00105511
0.000636273
0.00104441
0.00063217
0.00103222
0.000629393
0.00102249
0.000630673
0.0010121
0.000635043
0.00100149
0.000640241
0.000989401
0.000645279
0.00097541
0.000649696
0.000959763
0.000650917
0.000943412
0.000653906
0.000927075
0.000655828
0.000910521
0.000659878
0.000893201
0.000662974
0.000876934
0.000664351
0.000864453
0.000663229
0.000851791
0.000664815
0.000838394
0.000667254
0.000825296
0.000669426
0.000813625
0.000672749
0.000803476
0.000676703
0.000794582
0.000680404
0.000786561
0.000685739
0.000778628
0.000690897
0.000769547
0.000695866
0.000758367
0.000693539
0.000742003
0.000709172
0.000732179
0.000718792
0.000734546
0.000746577
0.000748833
0.000774524
0.000796966
0.000817712
0.000828677
0.00359364
0.00358729
0.00126727
0.00357336
0.00127312
0.00355196
0.00127959
0.00352491
0.00128667
0.0034914
0.00129432
0.00345099
0.00130252
0.00340402
0.00131122
0.00335084
0.00132038
0.00329189
0.00132995
0.00322761
0.00133988
0.00315848
0.00135011
0.00308499
0.0013606
0.00300765
0.00137128
0.00292696
0.0013821
0.00284346
0.001393
0.00275763
0.00140392
0.00266997
0.00141482
0.00258096
0.00142563
0.00249105
0.00143632
0.00240068
0.00144683
0.00231024
0.00145712
0.00222011
0.00146714
0.0021306
0.00147686
0.00204201
0.0014862
0.00195456
0.00149511
0.00186837
0.00150345
0.0017835
0.00151103
0.00169983
0.00151751
0.00161711
0.00152238
0.00153491
0.00152481
0.00145274
0.0015237
0.00137001
0.00151762
0.00128677
0.00150522
0.00120335
0.00148549
0.00112079
0.00145908
0.00104019
0.00142598
0.000962371
0.00138906
0.000890109
0.0013494
0.000819887
0.00131025
0.000758367
0.00129248
0.000702276
0.00128398
0.000650594
0.00127954
0.000609329
0.00128088
0.000566179
0.00127684
0.00060685
0.00128865
0.000618155
0.00131099
0.000631733
0.00133632
0.000644411
0.00137592
0.000658892
0.00141507
0.000673257
0.00146257
0.000690337
0.00151275
0.000707345
0.00157027
0.000722034
0.00163558
0.000731988
0.00171558
0.000702166
0.00181199
0.000668533
0.00192508
0.00063725
0.00204919
0.000615934
0.00215643
0.000598846
0.00222322
0.000590851
0.00223818
0.000604904
0.0022226
0.000626333
0.00218472
0.000661001
0.00211733
0.000703366
0.00203217
0.000762054
0.00191907
0.000761485
0.00178238
0.000727105
0.00161927
0.000688381
0.00153899
0.00065946
0.00150845
0.000639286
0.00149067
0.000616777
0.00148026
0.000605986
0.00148046
0.00059349
0.00148917
0.000582958
0.00149783
0.000580832
0.00152305
0.000666669
0.0015582
0.000748756
0.00169089
0.000798269
0.00180274
0.000821677
0.0018437
0.000802715
0.0018447
0.000761618
0.00174059
0.000707446
0.00162222
0.000698684
0.000996713
0.000612846
0.000786207
0.000731375
0.000812077
0.000697882
0.000756913
0.000662675
0.000756701
0.000657756
0.000767673
0.000656451
0.000772486
0.000656352
0.000773579
0.000656781
0.000772508
0.000662681
0.000771944
0.000674312
0.000770121
0.000680993
0.000767883
0.000687114
0.000764867
0.000691466
0.000760768
0.000688455
0.000755726
0.000684449
0.000750177
0.000681844
0.000744551
0.000679171
0.000738699
0.000676194
0.000733025
0.000676151
0.000727303
0.000678515
0.000722662
0.000679362
0.000718589
0.000682421
0.000714805
0.000685191
0.00071287
0.000688043
0.000711817
0.000691383
0.000714193
0.00069483
0.000718137
0.000698144
0.000722107
0.000699795
0.000724884
0.000702683
0.000724947
0.000702584
0.000721639
0.000717186
0.000723457
0.00072911
0.000732999
0.000760157
0.000756777
0.000786455
0.000801911
0.000834092
0.000836776
0.0035903
0.00358479
0.00127903
0.00357382
0.00128852
0.00355526
0.00129858
0.00352929
0.00130921
0.00349611
0.00132038
0.00345601
0.00133205
0.00340931
0.00134419
0.00335639
0.00135675
0.00329766
0.00136968
0.00323357
0.00138292
0.00316459
0.00139643
0.00309122
0.00141014
0.00301397
0.00142399
0.00293334
0.00143792
0.00284986
0.00145187
0.00276401
0.00146578
0.00267631
0.00147959
0.00258723
0.00149325
0.00249723
0.0015067
0.00240673
0.0015199
0.00231614
0.00153281
0.00222582
0.00154538
0.0021361
0.00155758
0.00204725
0.00156942
0.00195946
0.0015809
0.00187283
0.00159211
0.00178731
0.00160321
0.0017027
0.00161451
0.00161857
0.00162657
0.00153428
0.00164022
0.00144911
0.00165668
0.00136234
0.00167751
0.00127751
0.00170431
0.00119634
0.00173813
0.00111571
0.00177863
0.00103719
0.00182544
0.00096234
0.00187613
0.000889937
0.00192917
0.000825357
0.00198279
0.000762849
0.00203438
0.000709209
0.0020659
0.000663106
0.00208436
0.00062057
0.0020851
0.000586798
0.00205093
0.000591698
0.00201635
0.000608495
0.0019971
0.000626516
0.00197946
0.000643164
0.00195829
0.000661029
0.00193442
0.000679522
0.00190966
0.000700395
0.0018806
0.000720926
0.00184909
0.000740525
0.00181126
0.000749551
0.00176438
0.00072353
0.00169904
0.000701749
0.00161465
0.000675916
0.00151774
0.000651922
0.00147246
0.000630817
0.00145181
0.000617733
0.00144587
0.00061049
0.00145143
0.00061504
0.00146148
0.00063614
0.00149932
0.000675957
0.00155577
0.000717206
0.00172508
0.00072048
0.00191452
0.000656309
0.00215985
0.000634219
0.00243103
0.000614536
0.00262073
0.000597881
0.00273122
0.000588045
0.00280286
0.000582155
0.00280773
0.00058101
0.00279144
0.000592002
0.00273253
0.000618809
0.00260178
0.000677239
0.00243791
0.000749097
0.00223389
0.000802053
0.00210726
0.000816563
0.0020338
0.000811564
0.00199496
0.000818444
0.00200675
0.000815352
0.00205183
0.000733698
0.00182194
0.000642853
0.00123002
0.000706097
0.00100837
0.000679636
0.000913031
0.000648842
0.000868504
0.000642819
0.000856647
0.000643875
0.000853133
0.00064513
0.000850415
0.000646052
0.000842879
0.000651077
0.000833671
0.000658055
0.000822929
0.000669853
0.000812843
0.000680584
0.000803898
0.000691539
0.000795203
0.000699052
0.000784826
0.000707492
0.000773401
0.000713298
0.000762811
0.0007161
0.000751839
0.00071344
0.000742491
0.000710812
0.000733305
0.00070985
0.000723718
0.000709122
0.000713928
0.000707604
0.000704793
0.000705388
0.000695671
0.000702729
0.000686538
0.000700782
0.00068006
0.000698775
0.000676182
0.000700221
0.000677899
0.000704886
0.000683399
0.000713923
0.000691919
0.000716886
0.000701959
0.000730961
0.000714122
0.000750157
0.000737587
0.000780605
0.000771217
0.000800294
0.000807252
0.000849465
0.000841923
0.00359329
0.00359034
0.00129276
0.00357972
0.00130582
0.0035615
0.00131941
0.00353586
0.00133353
0.00350299
0.00134815
0.00346317
0.00136324
0.00341673
0.00137876
0.00336403
0.00139466
0.0033055
0.00141089
0.00324157
0.0014274
0.00317272
0.00144412
0.00309944
0.001461
0.00302223
0.00147797
0.00294162
0.00149496
0.00285812
0.00151191
0.00277222
0.00152876
0.00268443
0.00154544
0.00259523
0.00156189
0.00250508
0.00157807
0.00241441
0.00159391
0.00232362
0.00160936
0.00223309
0.00162438
0.00214316
0.00163892
0.00205412
0.00165291
0.00196619
0.00166628
0.00187956
0.0016789
0.00179427
0.00169058
0.0017103
0.00170098
0.00162743
0.00170956
0.00154535
0.00171551
0.00146362
0.00171767
0.00138173
0.00171455
0.00129941
0.00170451
0.0012166
0.00168607
0.00113411
0.00165868
0.00105384
0.00162345
0.000975911
0.00158374
0.00090338
0.00154121
0.000833373
0.00149721
0.000770787
0.00147297
0.000713879
0.00146508
0.000662657
0.00145949
0.000620078
0.00146331
0.000576906
0.00145826
0.000636788
0.00147365
0.000649567
0.00150677
0.000663022
0.00154874
0.000677068
0.00158548
0.000692547
0.00163174
0.00071006
0.00168395
0.000728079
0.00174908
0.000740303
0.00181602
0.000754554
0.0018932
0.000737266
0.00198382
0.000703639
0.00209285
0.000656978
0.0022262
0.000610982
0.00237897
0.000578089
0.00253926
0.000557296
0.00264385
0.000539824
0.00267443
0.000547827
0.00267424
0.000572337
0.00261235
0.000610994
0.00252798
0.000674272
0.00242241
0.000741243
0.00227569
0.000815631
0.0021124
0.000777797
0.00192493
0.000742227
0.00171627
0.000694652
0.0016536
0.000664846
0.00161666
0.000642085
0.00160349
0.000624489
0.00160245
0.000611235
0.00160898
0.000598328
0.00160426
0.000611108
0.00164637
0.00071978
0.0017172
0.000834587
0.00196819
0.000915922
0.00218405
0.000908999
0.00233458
0.000909111
0.00238143
0.00094056
0.00240258
0.000999848
0.00240696
0.00095752
0.00233581
0.000809374
0.00150794
0.000764388
0.00119271
0.00070123
0.00101929
0.000649027
0.000954474
0.000639823
0.000939225
0.000642258
0.000931631
0.000646387
0.000920571
0.000648107
0.000907054
0.000649727
0.000889462
0.000654451
0.000872451
0.00066158
0.000859632
0.000670887
0.000848809
0.000680362
0.000837848
0.000687813
0.000826192
0.000694708
0.000813462
0.000700807
0.00080087
0.000705034
0.000788684
0.000707817
0.000777353
0.000711215
0.000766226
0.000714303
0.000755623
0.000717797
0.000745275
0.000719259
0.000734762
0.00071822
0.000722936
0.000713393
0.000710143
0.000708641
0.000697926
0.000705043
0.000683807
0.000708507
0.000682438
0.000713947
0.000687053
0.000723461
0.000694648
0.000735053
0.000708884
0.000755505
0.000729965
0.000779154
0.000753939
0.000802945
0.000781466
0.000816157
0.000810536
0.000863179
0.00084818
0.00360074
0.00359812
0.00130848
0.00358783
0.00132503
0.00356993
0.00134208
0.00354459
0.00135962
0.003512
0.00137763
0.00347245
0.00139606
0.00342624
0.0014149
0.00337375
0.00143408
0.00331539
0.00145355
0.00325159
0.00147326
0.00318283
0.00149314
0.00310961
0.00151313
0.00303243
0.00153316
0.0029518
0.00155315
0.00286823
0.00157305
0.00278224
0.00159278
0.00269432
0.00161227
0.00260495
0.00163147
0.0025146
0.00165032
0.0024237
0.00166876
0.00233265
0.00168673
0.00224183
0.00170421
0.00215157
0.00172115
0.00206216
0.00173753
0.00197379
0.00175336
0.0018866
0.0017687
0.00180057
0.00178367
0.00171555
0.00179852
0.00163118
0.00181367
0.00154692
0.00182983
0.00146208
0.00184798
0.00137593
0.00186949
0.00128804
0.00189594
0.00119852
0.00192888
0.0011129
0.00196916
0.0010353
0.0020159
0.000961583
0.0020662
0.000890571
0.00211846
0.000827474
0.00217056
0.000766044
0.00222087
0.000716808
0.00226109
0.000670845
0.00228455
0.000631085
0.00228749
0.000598747
0.00227781
0.000617356
0.00225154
0.000634281
0.002239
0.000650299
0.00222829
0.000668365
0.00221251
0.000687265
0.00219669
0.000710899
0.00217449
0.000734019
0.00214254
0.000755955
0.00209961
0.000777793
0.00205187
0.000778546
0.00199648
0.000755666
0.00192004
0.000729758
0.00182701
0.000702723
0.00171416
0.000675032
0.00164285
0.000651036
0.00161459
0.000629304
0.00159327
0.000616092
0.00158632
0.000608789
0.00159065
0.00061664
0.0016086
0.000637936
0.0016444
0.000689877
0.00170138
0.000739543
0.00193385
0.000712932
0.00218201
0.000652461
0.00249943
0.000641925
0.00277993
0.000621372
0.00295289
0.00061516
0.0030368
0.000609288
0.0029973
0.000606885
0.00293878
0.000621299
0.00286683
0.000655446
0.00273
0.00072909
0.00248842
0.000815297
0.00226504
0.00083121
0.00209919
0.000802669
0.00198656
0.000821564
0.00192775
0.000843951
0.00196378
0.000956585
0.00201898
0.00115441
0.0021275
0.00106549
0.00186697
0.000898734
0.00143547
0.000743667
0.00116824
0.000657192
0.00104774
0.000642955
0.001011
0.00064413
0.000990291
0.000648458
0.000970799
0.000653962
0.000949105
0.000654178
0.000927413
0.000655806
0.000908304
0.000661008
0.000895272
0.000670381
0.000883617
0.000681038
0.000871357
0.000689462
0.000858819
0.000696879
0.000845551
0.000703427
0.000831432
0.000709099
0.000817199
0.000714569
0.000805058
0.000720912
0.000795271
0.000726761
0.000786757
0.00073211
0.000778263
0.000736016
0.000768962
0.000739007
0.000758271
0.000733078
0.000746877
0.000722312
0.000732525
0.000711711
0.000708545
0.000715704
0.000698597
0.000724491
0.000700432
0.000739595
0.000706003
0.000759749
0.000722651
0.000783747
0.000747546
0.000801153
0.000767001
0.000820848
0.000791699
0.000835565
0.000818257
0.000875313
0.000857942
0.00361042
0.00360811
0.00132619
0.00359812
0.00134616
0.00358052
0.00136659
0.00355546
0.00138747
0.00352315
0.00140879
0.00348383
0.0014305
0.00343784
0.00145258
0.00338553
0.00147497
0.00332731
0.00149762
0.00326363
0.00152046
0.00319494
0.00154343
0.00312174
0.00156646
0.00304454
0.00158949
0.00296385
0.00161242
0.00288019
0.0016352
0.00279406
0.00165775
0.00270596
0.00168001
0.00261638
0.0017019
0.00252578
0.00172336
0.0024346
0.00174433
0.00234326
0.00176476
0.00225212
0.0017846
0.00216155
0.00180379
0.00207186
0.00182228
0.0019833
0.00184001
0.00189608
0.00185688
0.00181036
0.00187275
0.00172619
0.00188742
0.00164356
0.00190051
0.00156236
0.00191151
0.00148237
0.00191965
0.00140337
0.00192396
0.00132516
0.00192329
0.00124761
0.00191651
0.00117083
0.00190282
0.00109526
0.00188204
0.00102121
0.00185477
0.000950505
0.00182305
0.000882619
0.00178869
0.000820829
0.00175649
0.00076372
0.00173398
0.000712255
0.00171898
0.000667652
0.00172424
0.000623587
0.00173733
0.000692591
0.00175548
0.000697956
0.00179089
0.00070158
0.00180152
0.000705587
0.00181179
0.000712461
0.00182851
0.000723641
0.00186279
0.000739588
0.00190835
0.000755465
0.0019853
0.000769085
0.00206306
0.000767317
0.00216095
0.000730587
0.00227267
0.000686116
0.00242067
0.00063667
0.00258855
0.00058664
0.00277993
0.000553265
0.00295412
0.000538116
0.00306468
0.000523721
0.00307801
0.000535334
0.00305102
0.00056572
0.0029759
0.000610272
0.00285932
0.000685484
0.0027094
0.00076868
0.00252637
0.000840492
0.00231953
0.000787307
0.00208803
0.000742605
0.00184357
0.000697911
0.00177972
0.000669451
0.00174782
0.000638236
0.00171882
0.000623279
0.00172655
0.000615326
0.00171925
0.000654805
0.0017608
0.000757105
0.00188809
0.000860393
0.00213328
0.00087054
0.00236375
0.000857233
0.00252497
0.000862848
0.00262133
0.000878353
0.0026689
0.000954107
0.00271244
0.00121583
0.00274127
0.00117837
0.00257402
0.00101497
0.0017046
0.000821877
0.00138329
0.000698799
0.00121665
0.000663253
0.00113774
0.00065256
0.00108772
0.000654332
0.00104694
0.000658669
0.00101239
0.000655974
0.000985986
0.000655398
0.000960411
0.000660485
0.000939866
0.00066938
0.00092125
0.000680036
0.00090513
0.000688495
0.000890604
0.00069717
0.000875603
0.000703764
0.000860463
0.000708338
0.000846709
0.000713186
0.000835417
0.000720764
0.000825768
0.000729705
0.000817811
0.00074001
0.000809341
0.000749204
0.000800461
0.000753063
0.00079118
0.000750281
0.000779833
0.000744059
0.000767133
0.000728444
0.000745264
0.00072897
0.000724971
0.000738609
0.000722756
0.000755737
0.000723818
0.000779154
0.000738978
0.000803631
0.000761794
0.000816599
0.000778498
0.000835964
0.000801122
0.000857962
0.00082895
0.000888056
0.000869652
0.00362231
0.00362029
0.00134592
0.00361058
0.00136922
0.00359326
0.00139294
0.00356847
0.00141708
0.0035364
0.00144162
0.00349731
0.00146654
0.00345151
0.00149178
0.00339936
0.0015173
0.00334127
0.00154304
0.00327766
0.00156895
0.00320901
0.00159494
0.00313581
0.00162095
0.00305856
0.0016469
0.00297778
0.00167271
0.00289398
0.0016983
0.00280767
0.00172361
0.00271935
0.00174856
0.00262951
0.00177307
0.00253861
0.00179709
0.0024471
0.00182055
0.00235539
0.00184339
0.00226387
0.00186556
0.00217287
0.00188703
0.00208271
0.00190775
0.00199363
0.00192773
0.00190582
0.00194696
0.00181938
0.00196551
0.0017343
0.00198349
0.00165047
0.00200112
0.00156762
0.00201877
0.00148541
0.00203696
0.00140342
0.00205642
0.00132135
0.00207804
0.00123903
0.0021028
0.00115675
0.00213155
0.00107517
0.00216479
0.000995405
0.00220225
0.000922955
0.00224287
0.000861665
0.00228403
0.000803949
0.00232344
0.000754519
0.00235659
0.00070872
0.00237786
0.000671096
0.00239064
0.000635984
0.00239659
0.000677896
0.00238586
0.000681514
0.00238517
0.000683895
0.00242584
0.000687921
0.00245755
0.000697386
0.00247198
0.000711716
0.00247432
0.000735424
0.00245309
0.000758898
0.00241857
0.000787951
0.00237091
0.000813479
0.00230994
0.00080137
0.00223222
0.00077473
0.00213216
0.000746044
0.00200553
0.000715822
0.0018627
0.000685852
0.00180155
0.000661638
0.0017702
0.000638901
0.00174304
0.000623991
0.00173762
0.000613086
0.00174079
0.000616265
0.00174844
0.000641145
0.00179246
0.000690015
0.00187959
0.000752919
0.00212947
0.000707724
0.00246107
0.000677095
0.00281977
0.000661353
0.00305007
0.000653776
0.00316324
0.000649184
0.00317141
0.000655454
0.00313037
0.000657042
0.00300264
0.000702267
0.00285031
0.000766884
0.00267767
0.000844811
0.00245163
0.000854999
0.00230101
0.000838748
0.00218824
0.000851776
0.00214526
0.000875486
0.00217056
0.000941058
0.00223033
0.00116057
0.00233279
0.00129113
0.00254034
0.00105546
0.00168619
0.000890859
0.00144329
0.000764469
0.00128826
0.000726138
0.00120197
0.000705305
0.00114039
0.000696812
0.00109259
0.00069006
0.00104635
0.000684903
0.00101032
0.000680424
0.000981062
0.000680794
0.0009596
0.000685625
0.000942087
0.000694461
0.000926529
0.000702838
0.000911991
0.000710113
0.000895826
0.000715198
0.000878759
0.000717173
0.00086216
0.000719701
0.000847954
0.000725084
0.000835361
0.000733901
0.000824733
0.000744413
0.000815574
0.000754213
0.00080679
0.000761597
0.000800759
0.000762234
0.00079173
0.000761944
0.000779508
0.000750291
0.000763987
0.000745834
0.000741081
0.000755254
0.000738337
0.00077206
0.000737739
0.000794878
0.000750979
0.000818898
0.00077473
0.000829453
0.000789793
0.000851258
0.00081124
0.000879582
0.000838614
0.000899736
0.000877075
0.00363639
0.00363463
0.00136768
0.00362518
0.00139421
0.00360813
0.00142113
0.00358358
0.00144844
0.00355174
0.00147612
0.00351286
0.00150415
0.00346724
0.00153247
0.00341523
0.00156104
0.00335723
0.0015898
0.00329368
0.00161869
0.00322505
0.00164762
0.00315181
0.00167652
0.00307448
0.00170532
0.00299357
0.00173393
0.00290959
0.00176227
0.00282306
0.00179027
0.00273447
0.00181784
0.00264433
0.00184491
0.00255309
0.00187141
0.0024612
0.00189728
0.00236908
0.00192246
0.00227713
0.00194689
0.0021857
0.00197052
0.00209511
0.0019933
0.00200566
0.00201518
0.00191759
0.0020361
0.00183111
0.00205599
0.00174637
0.00207474
0.00166348
0.00209219
0.00158248
0.00210809
0.00150339
0.00212212
0.00142615
0.00213383
0.00135073
0.00214269
0.00127707
0.00214816
0.00120522
0.00214978
0.00113522
0.00214727
0.00106732
0.00214083
0.00100162
0.00213069
0.000938673
0.00211822
0.000878619
0.00210399
0.000822577
0.00209194
0.000770691
0.00208651
0.000723662
0.0020902
0.000678963
0.00209985
0.000754215
0.0021123
0.000753558
0.00213145
0.000751991
0.00211856
0.00074893
0.00210147
0.000746694
0.00209281
0.000747688
0.00209696
0.000750871
0.00211776
0.000760757
0.00214725
0.000772968
0.0022063
0.000788276
0.00228237
0.000781503
0.00238357
0.00073793
0.00251412
0.000688033
0.00268668
0.000632299
0.00288473
0.000580505
0.00312051
0.00055726
0.00330421
0.000541822
0.00341762
0.000528945
0.00344859
0.000525324
0.00341138
0.000551853
0.00333473
0.000607508
0.00319828
0.000679183
0.00300771
0.000783978
0.00277413
0.000842291
0.00249255
0.000782592
0.00221918
0.000734066
0.00198608
0.000696806
0.00189813
0.000663179
0.00185204
0.000651424
0.0018617
0.000637997
0.00184757
0.000689082
0.00191078
0.000766168
0.00205554
0.000847778
0.00223211
0.000886638
0.0023994
0.000878093
0.00252148
0.000892465
0.00260949
0.000914885
0.00265289
0.00097184
0.00270229
0.00115215
0.00270207
0.0012596
0.00277621
0.00101173
0.00175221
0.000916603
0.00146569
0.000812292
0.00137161
0.000773275
0.00129007
0.000744523
0.00123393
0.00073024
0.00117132
0.000717228
0.00110912
0.000708409
0.00106286
0.000701716
0.00102894
0.000699827
0.00100176
0.000702759
0.00097892
0.000710135
0.000958411
0.000719119
0.000940492
0.000724846
0.000921699
0.000727728
0.000900645
0.00072774
0.000880298
0.000729375
0.000862376
0.000733901
0.000847446
0.00074125
0.000835282
0.00075077
0.000825862
0.000758297
0.000817914
0.000768909
0.00081154
0.000773385
0.000806156
0.000774783
0.00079266
0.000767515
0.000778731
0.000764303
0.000758941
0.00077312
0.000754797
0.00078726
0.000754032
0.00080832
0.000764706
0.000833557
0.000787089
0.000841539
0.000800523
0.000865267
0.000821196
0.000899527
0.000847889
0.00091167
0.00088391
0.00365262
0.0036511
0.00139149
0.00364191
0.00142115
0.00362509
0.00145117
0.00360078
0.00148155
0.00356916
0.00151228
0.00353046
0.00154332
0.003485
0.00157463
0.00343311
0.00160617
0.00337519
0.00163785
0.00331167
0.00166963
0.00324302
0.00170142
0.00316972
0.00173314
0.00309227
0.0017647
0.0030112
0.00179603
0.002927
0.00182704
0.00284021
0.00185764
0.00275132
0.00188776
0.00266082
0.00191731
0.00256919
0.00194623
0.00247687
0.00197445
0.00238429
0.0020019
0.00229183
0.00202853
0.00219987
0.00205429
0.00210873
0.00207914
0.00201868
0.00210306
0.00192998
0.00212601
0.0018428
0.00214802
0.00175728
0.0021691
0.00167347
0.00218933
0.00159136
0.00220883
0.00151089
0.0022278
0.00143195
0.0022465
0.00135444
0.00226527
0.00127828
0.00228449
0.00120354
0.00230451
0.00113037
0.00232561
0.00105916
0.00234788
0.000990246
0.00237128
0.000924432
0.00239509
0.000862009
0.00241931
0.000805215
0.00244198
0.000754002
0.00245939
0.000714053
0.00247133
0.000676894
0.00247917
0.00074738
0.00247885
0.000744914
0.00248924
0.000739104
0.00252609
0.000733162
0.00256808
0.000730232
0.00260591
0.000732258
0.00262837
0.000738978
0.00263846
0.000753877
0.00263222
0.000773231
0.00260844
0.000800232
0.00257047
0.000824457
0.00250662
0.000804925
0.00241811
0.000778031
0.00230334
0.000750649
0.00215859
0.000722757
0.00201232
0.000693029
0.00196048
0.000670184
0.00192434
0.000651824
0.00190256
0.000633768
0.00190232
0.00062617
0.00190619
0.000622231
0.00191945
0.000639927
0.00195373
0.000691599
0.00211659
0.00077543
0.00243899
0.000747753
0.00278135
0.00071575
0.00305372
0.000698962
0.00320783
0.000688421
0.00323918
0.000689337
0.00315203
0.000699333
0.00302759
0.000736899
0.0028877
0.000785088
0.00270827
0.000846209
0.00254087
0.000878418
0.00243489
0.000878118
0.0023773
0.000892181
0.00235012
0.000916975
0.00235141
0.000959487
0.00239602
0.00108231
0.00246747
0.00108734
0.00254832
0.000915226
0.0015556
0.000914305
0.00143482
0.00084555
0.00142024
0.000816345
0.00137192
0.00078613
0.0012986
0.000768775
0.00122064
0.000748863
0.00114939
0.000733943
0.00109745
0.000724582
0.00105894
0.000719937
0.00102859
0.000720147
0.00100357
0.000725213
0.000981519
0.000733485
0.000961089
0.000739111
0.000940019
0.000741403
0.000916557
0.000740425
0.000894545
0.000741372
0.000875876
0.000745815
0.000860484
0.000753626
0.000847344
0.000762959
0.000835906
0.000766838
0.000825173
0.00077529
0.000813898
0.000781838
0.000807278
0.000784862
0.000797687
0.000782385
0.000786873
0.000781324
0.000770466
0.000789477
0.000765287
0.000802316
0.000764489
0.000821993
0.000774149
0.000848131
0.000797287
0.000853257
0.000810822
0.000878779
0.000829467
0.000918011
0.00085732
0.000922755
0.000888803
0.00367097
0.00366968
0.00141737
0.00366072
0.00145005
0.00364413
0.00148307
0.00362004
0.00151642
0.00358862
0.00155009
0.00355009
0.00158405
0.00350477
0.00161825
0.00345298
0.00165264
0.00339512
0.00168717
0.00333161
0.00172174
0.00326292
0.00175629
0.00318952
0.00179073
0.00311193
0.00182498
0.00303065
0.00185894
0.00294621
0.00189252
0.00285911
0.00192565
0.00276987
0.00195823
0.00267897
0.00199019
0.0025869
0.00202145
0.0024941
0.00205193
0.00240101
0.00208158
0.00230801
0.00211034
0.00221549
0.00213814
0.00212378
0.00216495
0.00203317
0.00219072
0.00194395
0.00221541
0.00185634
0.00223898
0.00177054
0.00226137
0.00168672
0.00228254
0.001605
0.0023024
0.00152547
0.00232084
0.00144819
0.00233772
0.00137321
0.00235287
0.00130055
0.0023661
0.00123023
0.00237727
0.00116224
0.00238622
0.0010967
0.00239303
0.0010335
0.00239761
0.000973011
0.00240061
0.000914874
0.00240191