/*--------------------------------*- C++ -*----------------------------------*\
| =========                 |                                                 |
| \\      /  F ield         | OpenFOAM: The Open Source CFD Toolbox           |
|  \\    /   O peration     | Version:  2.2.x                                 |
|   \\  /    A nd           | Web:      www.OpenFOAM.org                      |
|    \\/     M anipulation  |                                                 |
\*---------------------------------------------------------------------------*/
FoamFile
{
    version     2.0;
    format      ascii;
    class       volScalarField;
    location    "0.15";
    object      p;
}
// * * * * * * * * * * * * * * * * * * * * * * * * * * * * * * * * * * * * * //

dimensions      [1 -1 -2 0 0 0 0];

internalField   nonuniform List<scalar> 
14161
(
0.2
0.2
0.2
0.2
0.2
0.2
0.2
0.2
0.2
0.2
0.2
0.2
0.2
0.2
0.2
0.2
0.2
0.2
0.2
0.2
0.199999
0.199998
0.199996
0.19999
0.199977
0.19995
0.199893
0.199781
0.199574
0.199201
0.198609
0.197452
0.1963
0.193541
0.191666
0.187097
0.183895
0.177683
0.171291
0.167504
0.162684
0.161982
0.164328
0.165552
0.171338
0.176527
0.180163
0.180485
0.179858
0.180735
0.182201
0.184641
0.187435
0.191892
0.19806
0.205013
0.210802
0.220258
0.224944
0.225374
0.235184
0.233192
0.230191
0.226738
0.220888
0.209394
0.196361
0.183569
0.16215
0.144942
0.118658
0.0915513
0.0718312
0.0682856
0.0655021
0.0717224
0.0782251
0.0768116
0.0618202
0.0352014
0.00404274
-0.0287456
-0.0395838
0.1104
0.910972
1.56581
1.85942
1.98914
2.05731
2.08566
2.09412
2.10605
2.11343
2.11473
2.11497
2.11626
2.11869
2.12512
2.13795
2.14561
2.15369
2.16342
2.17062
2.17222
2.1704
2.16951
2.17204
2.17735
2.18005
2.1821
2.18462
2.19136
2.18838
2.19748
2.19428
2.23333
2.21377
2.21257
2.25952
0.2
0.2
0.2
0.2
0.2
0.2
0.2
0.2
0.2
0.2
0.2
0.2
0.2
0.2
0.2
0.2
0.2
0.2
0.2
0.200001
0.200002
0.200004
0.200011
0.200026
0.200061
0.200135
0.200286
0.20058
0.201123
0.202076
0.203659
0.206096
0.20961
0.214341
0.220099
0.226789
0.233963
0.24107
0.247211
0.252828
0.256346
0.257072
0.255155
0.24855
0.250133
0.24923
0.245471
0.242087
0.241489
0.23899
0.237209
0.23329
0.228324
0.220439
0.209972
0.197538
0.182246
0.169331
0.163423
0.166432
0.176087
0.190205
0.200343
0.220729
0.248
0.27876
0.318545
0.352564
0.37233
0.37719
0.364745
0.345558
0.320474
0.283128
0.260158
0.23819
0.219586
0.211584
0.217155
0.218671
0.228221
0.245397
0.196155
1.07237
1.36733
1.73355
1.9653
2.06508
2.10792
2.12425
2.12018
2.11143
2.10621
2.10531
2.10547
2.10752
2.11113
2.11652
2.12483
2.13424
2.14092
2.14658
2.14916
2.15009
2.15022
2.15297
2.1563
2.16114
2.16547
2.16592
2.16281
2.15952
2.15373
2.15126
2.1523
2.1721
2.18235
2.19049
2.21429
0.2
0.2
0.2
0.2
0.2
0.2
0.2
0.2
0.2
0.2
0.2
0.2
0.2
0.2
0.2
0.2
0.2
0.2
0.2
0.199999
0.199998
0.199994
0.199984
0.199961
0.199909
0.1998
0.199576
0.19914
0.198333
0.196911
0.19454
0.190801
0.185314
0.177556
0.167579
0.154836
0.139883
0.12249
0.1031
0.0826877
0.0664141
0.0567406
0.0584717
0.0709038
0.0947473
0.108903
0.127284
0.139372
0.155137
0.165807
0.181231
0.19628
0.216285
0.237018
0.265675
0.296501
0.327899
0.353469
0.360234
0.352149
0.324549
0.289824
0.262456
0.231549
0.200082
0.15572
0.112416
0.0626314
0.0152771
-0.0228361
-0.0557673
-0.0768601
-0.0815648
-0.0884728
-0.0524795
-0.0150785
0.0575955
0.0860515
0.0763478
0.0268556
-0.0363741
-0.136981
-0.09685
0.0815413
0.524771
1.6658
1.95957
2.02932
2.01935
2.00458
1.99358
1.99165
1.99505
2.00162
2.01195
2.02658
2.04493
2.06722
2.09226
2.11899
2.14204
2.16145
2.18329
2.20292
2.22057
2.23402
2.24732
2.26141
2.2747
2.28623
2.29571
2.30071
2.29675
2.28774
2.25874
2.25257
2.23388
2.20531
2.24768
0.2
0.2
0.2
0.2
0.2
0.2
0.2
0.2
0.2
0.2
0.2
0.2
0.2
0.2
0.2
0.2
0.2
0.2
0.2
0.200001
0.200003
0.200008
0.200019
0.200047
0.200108
0.200239
0.200506
0.201026
0.20199
0.203682
0.206491
0.210857
0.217146
0.225362
0.235056
0.245462
0.255218
0.263091
0.268057
0.269626
0.265687
0.2569
0.24189
0.228743
0.209233
0.201713
0.1978
0.195548
0.19752
0.196299
0.194562
0.190091
0.182958
0.170837
0.152511
0.127172
0.0956728
0.0615311
0.0386409
0.0301604
0.042009
0.0766648
0.104467
0.151909
0.206906
0.273918
0.351416
0.408463
0.429975
0.412102
0.370403
0.313894
0.265255
0.221463
0.187717
0.151547
0.118866
0.11099
0.12332
0.147254
0.197697
0.212837
1.01648
1.24456
1.27097
1.64669
1.81777
1.95172
1.98344
1.99471
2.00281
2.00518
2.00454
2.00716
2.01357
2.02115
2.02962
2.04065
2.05168
2.06389
2.07259
2.08866
2.10351
2.11517
2.12949
2.14299
2.15805
2.17231
2.18956
2.20447
2.21626
2.22962
2.23705
2.24749
2.24032
2.2514
2.22573
2.18805
2.22674
0.2
0.2
0.2
0.2
0.2
0.2
0.2
0.2
0.2
0.2
0.2
0.2
0.2
0.2
0.2
0.2
0.2
0.2
0.2
0.199999
0.199997
0.199992
0.19998
0.199952
0.19989
0.199757
0.199484
0.198951
0.197959
0.196195
0.193217
0.188446
0.181266
0.171178
0.157971
0.141463
0.122039
0.0998666
0.0753119
0.0488382
0.0265258
0.0129047
0.0132503
0.0207367
0.0461411
0.070272
0.0913309
0.107267
0.128936
0.144019
0.16513
0.185425
0.209881
0.23782
0.272287
0.311805
0.350924
0.382003
0.389295
0.366268
0.331033
0.288538
0.246541
0.225309
0.179793
0.141392
0.083281
0.0131595
-0.0565547
-0.112881
-0.138349
-0.174809
-0.177453
-0.143166
-0.129578
-0.0337613
0.0657362
0.152039
0.19066
0.188284
0.163239
0.122726
0.248835
1.04099
1.7476
2.02342
2.0811
2.12272
2.1213
2.10954
2.10854
2.106
2.10404
2.11394
2.12179
2.12584
2.12897
2.13873
2.14678
2.15175
2.16163
2.16645
2.17046
2.17181
2.17147
2.1728
2.16986
2.17405
2.18257
2.18976
2.19917
2.20961
2.2196
2.23271
2.21967
2.2423
2.22878
2.1955
2.22862
0.2
0.2
0.2
0.2
0.2
0.2
0.2
0.2
0.2
0.2
0.2
0.2
0.2
0.2
0.2
0.2
0.2
0.2
0.2
0.200001
0.200003
0.200007
0.200018
0.200043
0.200099
0.200219
0.200464
0.200942
0.201828
0.20339
0.205997
0.210094
0.216118
0.224302
0.234405
0.245414
0.255914
0.264763
0.270958
0.273727
0.270704
0.263423
0.248004
0.23243
0.210431
0.205605
0.201635
0.203241
0.201506
0.19886
0.190894
0.184337
0.174408
0.159568
0.137848
0.106997
0.066904
0.0186209
-0.0212149
-0.0532509
-0.040759
-0.0253932
0.0190556
0.0619213
0.13719
0.210428
0.302624
0.386882
0.43965
0.446129
0.407154
0.347865
0.29187
0.238973
0.187804
0.14966
0.105009
0.0762442
0.0534168
0.0372068
0.0466732
0.0312831
0.0191466
0.639197
1.2508
1.70168
1.96401
2.07243
2.10669
2.12025
2.11834
2.11471
2.12749
2.14081
2.14809
2.15169
2.15542
2.16203
2.17021
2.17721
2.18423
2.1893
2.19344
2.19652
2.19759
2.19672
2.19594
2.20055
2.20638
2.20664
2.2087
2.20867
2.20683
2.21292
2.2103
2.23527
2.22704
2.1992
2.23078
0.2
0.2
0.2
0.2
0.2
0.2
0.2
0.2
0.2
0.2
0.2
0.2
0.2
0.2
0.2
0.2
0.2
0.2
0.2
0.199999
0.199998
0.199994
0.199986
0.199965
0.19992
0.199823
0.199624
0.199235
0.19851
0.197217
0.195022
0.191471
0.186017
0.178101
0.167357
0.153922
0.138235
0.120732
0.101787
0.0818824
0.0632442
0.0491367
0.046033
0.0513829
0.0638772
0.0814792
0.089428
0.101437
0.112265
0.126222
0.144205
0.167391
0.192933
0.219558
0.253644
0.291347
0.332054
0.367476
0.386131
0.37502
0.339956
0.294235
0.251138
0.213222
0.195039
0.151506
0.110282
0.0434663
-0.0280672
-0.0886786
-0.12392
-0.161021
-0.148113
-0.104917
-0.0798722
0.0285975
0.123033
0.213226
0.260981
0.261502
0.238271
0.194522
0.120661
0.232876
0.964503
1.46579
1.84849
2.00903
2.05741
2.06675
2.07846
2.08525
2.10892
2.12538
2.13703
2.14832
2.15616
2.16312
2.16627
2.17238
2.18036
2.19134
2.20206
2.21118
2.21796
2.22065
2.21442
2.21242
2.21522
2.21298
2.21625
2.21822
2.21649
2.21102
2.20301
2.22058
2.21923
2.20123
2.23471
0.2
0.2
0.2
0.2
0.2
0.2
0.2
0.2
0.2
0.2
0.2
0.2
0.2
0.2
0.2
0.2
0.2
0.2
0.2
0.200001
0.200002
0.200004
0.200011
0.200025
0.200059
0.20013
0.200275
0.200557
0.201082
0.20201
0.203567
0.206037
0.209734
0.214917
0.221682
0.229833
0.238844
0.24779
0.255639
0.261646
0.263161
0.261524
0.252846
0.241713
0.225517
0.220997
0.22754
0.231716
0.232269
0.226621
0.222181
0.203907
0.190657
0.169706
0.147567
0.113281
0.0715692
0.0193783
-0.0388292
-0.0779943
-0.114461
-0.100172
-0.0739554
-0.0287265
0.0295283
0.108987
0.199384
0.302964
0.403743
0.449735
0.448211
0.406533
0.34432
0.285103
0.223371
0.184609
0.131046
0.0855231
0.0446097
0.0124576
-0.00312202
-0.024053
-0.0615567
-0.0699293
0.671327
1.31238
1.58388
1.81834
1.88422
1.95099
2.00722
2.04881
2.08776
2.11987
2.14986
2.17229
2.18599
2.1903
2.19383
2.19994
2.2099
2.22257
2.23251
2.23666
2.24063
2.24216
2.23877
2.2353
2.23755
2.23375
2.23167
2.22887
2.21824
2.20293
2.19269
2.21038
2.2119
2.20123
2.2381
0.2
0.2
0.2
0.2
0.2
0.2
0.2
0.2
0.2
0.2
0.2
0.2
0.2
0.2
0.2
0.2
0.2
0.2
0.2
0.2
0.199999
0.199997
0.199993
0.199983
0.199961
0.199913
0.199816
0.199627
0.199275
0.198647
0.197582
0.195859
0.193207
0.189328
0.183946
0.176895
0.168179
0.158179
0.147353
0.136467
0.126146
0.119643
0.116781
0.115908
0.119464
0.125625
0.117839
0.105098
0.101788
0.107213
0.116649
0.13316
0.154897
0.179232
0.211461
0.24903
0.293187
0.336462
0.372081
0.383065
0.362928
0.323596
0.277124
0.23335
0.194786
0.163084
0.130262
0.0755478
0.00797519
-0.0552692
-0.0935808
-0.123351
-0.102286
-0.101463
-0.0491023
0.00780996
0.0970129
0.170159
0.201103
0.204257
0.187244
0.146271
0.10066
0.0134476
0.642398
1.34153
1.55285
1.72814
1.82699
1.89653
1.95806
2.00439
2.04683
2.08199
2.11504
2.1401
2.15419
2.16261
2.16951
2.17541
2.18469
2.19479
2.20491
2.21532
2.2251
2.23637
2.24046
2.23282
2.23255
2.22983
2.22759
2.23076
2.21947
2.19881
2.19
2.20418
2.2069
2.20052
2.23886
0.2
0.2
0.2
0.2
0.2
0.2
0.2
0.2
0.2
0.2
0.2
0.2
0.2
0.2
0.2
0.2
0.2
0.2
0.2
0.2
0.200001
0.200002
0.200004
0.20001
0.200024
0.200053
0.200112
0.200226
0.200439
0.200816
0.201451
0.202466
0.204003
0.206203
0.209169
0.212932
0.217389
0.222334
0.22739
0.232135
0.236032
0.237263
0.234562
0.229559
0.221254
0.219989
0.227327
0.237168
0.244105
0.245456
0.241843
0.231963
0.220839
0.200922
0.175986
0.144859
0.0994359
0.0492336
-0.0146307
-0.0801383
-0.126474
-0.154015
-0.163165
-0.11954
-0.0992995
-0.0165795
0.0774524
0.190839
0.316668
0.405129
0.433697
0.420614
0.372119
0.317245
0.251986
0.203113
0.157453
0.112717
0.0792651
0.0518297
0.0362528
0.0117823
-0.027618
-0.0362615
0.473981
1.53794
1.64291
1.72737
1.823
1.9086
1.96079
2.0041
2.04894
2.08808
2.12487
2.15452
2.16948
2.17567
2.17767
2.17926
2.18326
2.18933
2.19768
2.21462
2.22746
2.24872
2.25789
2.24744
2.24033
2.23633
2.23436
2.23862
2.2277
2.20115
2.18901
2.20137
2.20395
2.20123
2.23808
0.2
0.2
0.2
0.2
0.2
0.2
0.2
0.2
0.2
0.2
0.2
0.2
0.2
0.2
0.2
0.2
0.2
0.2
0.2
0.2
0.2
0.199999
0.199998
0.199994
0.199987
0.19997
0.199938
0.199873
0.199754
0.199541
0.199181
0.198599
0.197703
0.196393
0.194571
0.192171
0.189162
0.185604
0.181591
0.177332
0.172985
0.169876
0.168822
0.168492
0.171718
0.170302
0.161218
0.148531
0.138037
0.132209
0.131646
0.137163
0.149718
0.163994
0.185754
0.216493
0.253782
0.300253
0.340381
0.370663
0.376625
0.355171
0.316367
0.276543
0.235065
0.19096
0.151769
0.0962914
0.0385353
-0.0166585
-0.0600835
-0.0729823
-0.0814133
-0.0375429
-0.00976315
0.0478813
0.105971
0.142798
0.16244
0.162289
0.145677
0.121089
0.0904219
0.043321
0.74386
1.67956
1.71059
1.69448
1.73252
1.82134
1.90412
1.97864
2.03205
2.07564
2.11407
2.146
2.1634
2.16731
2.16733
2.17085
2.17981
2.19378
2.20717
2.21964
2.22338
2.24229
2.24759
2.24377
2.24484
2.24369
2.23934
2.24497
2.23416
2.20476
2.19221
2.20451
2.20441
2.20068
2.23648
0.2
0.2
0.2
0.2
0.2
0.2
0.2
0.2
0.2
0.2
0.2
0.2
0.2
0.2
0.2
0.2
0.2
0.2
0.2
0.2
0.2
0.200001
0.200001
0.200003
0.200007
0.200015
0.200032
0.200065
0.200126
0.200235
0.200418
0.200713
0.201165
0.201821
0.202724
0.203903
0.205347
0.207039
0.208857
0.210724
0.212404
0.21322
0.212909
0.211478
0.208949
0.207633
0.210889
0.215877
0.220902
0.224506
0.225466
0.222832
0.218539
0.208444
0.193093
0.170521
0.138593
0.0960895
0.0398128
-0.0203694
-0.0753746
-0.104015
-0.12867
-0.113024
-0.0720031
-0.0360388
0.0647574
0.174189
0.296586
0.376102
0.40415
0.391348
0.362991
0.310382
0.258242
0.219254
0.181453
0.141698
0.114942
0.0982452
0.0777439
0.0539138
0.0252796
0.0426287
0.633341
1.75669
1.73952
1.71836
1.75285
1.8329
1.91839
1.99362
2.05092
2.09663
2.13874
2.17272
2.18746
2.18497
2.17377
2.17249
2.18133
2.20307
2.22365
2.23452
2.23191
2.24137
2.23819
2.23634
2.24313
2.24501
2.23609
2.24452
2.23533
2.20816
2.19655
2.20606
2.20689
2.20053
2.23549
0.2
0.2
0.2
0.2
0.2
0.2
0.2
0.2
0.2
0.2
0.2
0.2
0.2
0.2
0.2
0.2
0.2
0.2
0.2
0.2
0.2
0.2
0.199999
0.199999
0.199997
0.199993
0.199985
0.199969
0.19994
0.199888
0.1998
0.199656
0.199434
0.199107
0.198648
0.198036
0.19726
0.196326
0.195268
0.194121
0.192954
0.191925
0.19128
0.19089
0.191563
0.190698
0.187433
0.183045
0.178127
0.174355
0.172935
0.173818
0.178366
0.184837
0.196522
0.21237
0.234979
0.264846
0.295522
0.327705
0.350773
0.354642
0.338141
0.307377
0.272385
0.232888
0.186318
0.137871
0.0823595
0.0466174
0.0273668
0.0352651
0.0622361
0.0876617
0.112336
0.148101
0.166989
0.168422
0.157279
0.144028
0.124142
0.102615
0.0674492
0.142232
1.45239
1.74696
1.73306
1.72253
1.76806
1.82614
1.89428
1.95413
2.02158
2.07126
2.11051
2.14469
2.16584
2.17148
2.16966
2.17331
2.18287
2.19583
2.20982
2.21879
2.21885
2.23248
2.23115
2.23135
2.23793
2.24023
2.2285
2.23985
2.23491
2.21087
2.19946
2.20571
2.20736
2.19845
2.23073
0.2
0.2
0.2
0.2
0.2
0.2
0.2
0.2
0.2
0.2
0.2
0.2
0.2
0.2
0.2
0.2
0.2
0.2
0.2
0.2
0.2
0.2
0.2
0.200001
0.200001
0.200003
0.200007
0.200013
0.200026
0.200049
0.200088
0.200151
0.200249
0.200394
0.200598
0.200871
0.201216
0.201632
0.202098
0.202601
0.203075
0.203379
0.203399
0.203109
0.202503
0.20197
0.202758
0.203993
0.205319
0.206458
0.20678
0.206392
0.205488
0.20164
0.195706
0.185602
0.170288
0.148706
0.119292
0.0850912
0.0506284
0.026662
0.0235679
0.0323938
0.0553748
0.104486
0.164247
0.233179
0.29994
0.328943
0.333889
0.316742
0.280534
0.247898
0.22064
0.198895
0.173769
0.154433
0.135618
0.115346
0.089318
0.0621745
0.03035
0.798248
1.7465
1.8958
1.87092
1.8506
1.87119
1.89609
1.93465
1.98029
2.03908
2.08401
2.11731
2.14348
2.15714
2.16696
2.17179
2.18137
2.19249
2.20258
2.21258
2.21664
2.21659
2.22931
2.23113
2.23373
2.24025
2.2401
2.22527
2.23434
2.23183
2.21413
2.20482
2.20657
2.20955
2.19912
2.22686
0.2
0.2
0.2
0.2
0.2
0.2
0.2
0.2
0.2
0.2
0.2
0.2
0.2
0.2
0.2
0.2
0.2
0.2
0.2
0.2
0.2
0.2
0.2
0.2
0.199999
0.199999
0.199997
0.199995
0.199989
0.19998
0.199964
0.199937
0.199895
0.199832
0.199741
0.199617
0.199455
0.199252
0.199017
0.198748
0.198472
0.198197
0.197942
0.197753
0.197759
0.197468
0.196619
0.195489
0.194088
0.192873
0.192211
0.192295
0.193383
0.196045
0.199139
0.205634
0.214672
0.226883
0.241996
0.259566
0.275691
0.286683
0.287332
0.277275
0.255388
0.23395
0.203112
0.167419
0.145786
0.136564
0.135934
0.148426
0.160025
0.16956
0.176268
0.174986
0.171476
0.164066
0.153082
0.138498
0.126117
0.106176
0.176436
1.40572
1.91001
1.94703
1.91252
1.89311
1.89587
1.92059
1.95837
2.00526
2.0605
2.09794
2.1241
2.14421
2.15223
2.16554
2.17385
2.19018
2.20308
2.21366
2.22021
2.21793
2.21948
2.23247
2.23628
2.23991
2.24294
2.24008
2.22723
2.23244
2.23272
2.21827
2.21114
2.20928
2.21062
2.19894
2.22188
0.2
0.2
0.2
0.2
0.2
0.2
0.2
0.2
0.2
0.2
0.2
0.2
0.2
0.2
0.2
0.2
0.2
0.2
0.2
0.2
0.2
0.2
0.2
0.2
0.2
0.2
0.200001
0.200002
0.200004
0.200008
0.200014
0.200024
0.200041
0.200066
0.200102
0.200152
0.200218
0.200301
0.200399
0.200508
0.200618
0.200718
0.200756
0.200744
0.200629
0.200475
0.200655
0.200886
0.201163
0.201328
0.201306
0.201101
0.20059
0.199528
0.19765
0.194565
0.189673
0.182818
0.1733
0.162619
0.150806
0.142056
0.140255
0.146655
0.164305
0.179198
0.20743
0.232993
0.245139
0.248706
0.240958
0.229138
0.217552
0.203862
0.192133
0.178314
0.166059
0.154557
0.133775
0.111144
0.0894854
0.056425
0.166078
1.55031
1.92452
1.98931
1.94318
1.90174
1.90147
1.93248
1.97277
2.02576
2.07421
2.10456
2.12797
2.14115
2.15307
2.16253
2.1631
2.18068
2.19232
2.20141
2.20888
2.20404
2.21106
2.22338
2.22586
2.22802
2.23036
2.22876
2.22278
2.22371
2.2246
2.21521
2.21283
2.21131
2.21341
2.19896
2.21874
0.2
0.2
0.2
0.2
0.2
0.2
0.2
0.2
0.2
0.2
0.2
0.2
0.2
0.2
0.2
0.2
0.2
0.2
0.2
0.2
0.2
0.2
0.2
0.2
0.2
0.2
0.2
0.199999
0.199999
0.199997
0.199995
0.199991
0.199985
0.199975
0.19996
0.199939
0.199911
0.199873
0.199827
0.19977
0.199707
0.199638
0.199569
0.199504
0.199477
0.199389
0.199198
0.198941
0.198608
0.198273
0.198045
0.19797
0.198188
0.198752
0.199592
0.201383
0.203993
0.207515
0.212464
0.218026
0.224298
0.228711
0.22891
0.226687
0.221366
0.211365
0.200131
0.188905
0.183625
0.182272
0.183645
0.18726
0.187865
0.186353
0.182131
0.175621
0.167149
0.155342
0.142811
0.119069
0.0981974
0.0630626
0.55357
1.7217
1.92781
1.96846
1.93643
1.90409
1.89896
1.92901
1.96775
2.02485
2.06973
2.10085
2.12426
2.13021
2.1463
2.1562
2.15546
2.17463
2.1855
2.19294
2.20179
2.19098
2.20278
2.21417
2.21766
2.2185
2.22171
2.22049
2.21973
2.2169
2.21853
2.21283
2.21598
2.21354
2.21649
2.19924
2.21612
0.2
0.2
0.2
0.2
0.2
0.2
0.2
0.2
0.2
0.2
0.2
0.2
0.2
0.2
0.2
0.2
0.2
0.2
0.2
0.2
0.2
0.2
0.2
0.2
0.2
0.2
0.2
0.2
0.2
0.200001
0.200002
0.200003
0.200005
0.200009
0.200014
0.200022
0.200033
0.200047
0.200065
0.200086
0.20011
0.200134
0.200154
0.200165
0.200155
0.200128
0.200172
0.200225
0.200279
0.200303
0.200277
0.20018
0.200023
0.199708
0.199164
0.198303
0.197049
0.195291
0.192948
0.190231
0.187438
0.185259
0.185212
0.187747
0.192632
0.198019
0.204639
0.209829
0.211094
0.209007
0.2057
0.202066
0.196207
0.188777
0.181874
0.173392
0.161131
0.148382
0.133219
0.105437
0.0784603
0.0372277
0.994945
1.82517
1.98342
1.96695
1.92319
1.90916
1.89903
1.92418
1.96273
2.02187
2.06868
2.10422
2.12595
2.13126
2.14478
2.14925
2.14503
2.16442
2.17496
2.18366
2.19025
2.17441
2.19444
2.20716
2.21185
2.21094
2.21393
2.21201
2.21387
2.2096
2.21261
2.21061
2.22024
2.21663
2.21977
2.20183
2.21473
0.2
0.2
0.2
0.2
0.2
0.2
0.2
0.2
0.2
0.2
0.2
0.2
0.2
0.2
0.2
0.2
0.2
0.2
0.2
0.2
0.2
0.2
0.2
0.2
0.2
0.2
0.2
0.2
0.2
0.2
0.199999
0.199999
0.199998
0.199997
0.199995
0.199992
0.199988
0.199981
0.199973
0.199962
0.19995
0.199934
0.199918
0.199901
0.19989
0.199865
0.199825
0.199771
0.1997
0.199621
0.199551
0.199518
0.199538
0.199629
0.199817
0.200188
0.200762
0.201499
0.202648
0.203886
0.205386
0.206182
0.206582
0.205478
0.204752
0.201511
0.198848
0.196261
0.195148
0.193612
0.192396
0.190853
0.188001
0.184279
0.178237
0.169873
0.159404
0.147872
0.132677
0.108555
0.0829642
0.149037
1.47525
1.90443
2.00633
1.96153
1.91485
1.91708
1.90009
1.91791
1.94806
2.01172
2.06104
2.09611
2.11308
2.12208
2.1349
2.13713
2.13182
2.14798
2.15772
2.16674
2.17246
2.15991
2.18384
2.19859
2.20638
2.20401
2.20573
2.20177
2.20586
2.20218
2.20746
2.20894
2.22613
2.22226
2.22318
2.20651
2.21477
0.2
0.2
0.2
0.2
0.2
0.2
0.2
0.2
0.2
0.2
0.2
0.2
0.2
0.2
0.2
0.2
0.2
0.2
0.2
0.2
0.2
0.2
0.2
0.2
0.2
0.2
0.2
0.2
0.2
0.2
0.2
0.2
0.200001
0.200001
0.200002
0.200003
0.200004
0.200006
0.200009
0.200013
0.200018
0.200023
0.200028
0.200033
0.200035
0.200034
0.200044
0.200056
0.200069
0.200076
0.200067
0.200045
0.200005
0.19992
0.19979
0.199586
0.199281
0.198864
0.198317
0.197721
0.197099
0.196648
0.196562
0.196878
0.197751
0.19847
0.199273
0.198908
0.198979
0.197233
0.194313
0.191682
0.188734
0.182331
0.17478
0.167334
0.156314
0.140923
0.123015
0.100944
0.0623254
0.399745
1.76711
1.95761
2.00985
1.96068
1.91851
1.91459
1.90401
1.91997
1.94416
2.00736
2.06167
2.09323
2.10079
2.11847
2.12871
2.12444
2.11927
2.1337
2.14241
2.14946
2.15403
2.14694
2.17366
2.18996
2.1994
2.19559
2.19609
2.19072
2.19756
2.19482
2.20357
2.20825
2.23051
2.22589
2.22506
2.21258
2.21768
0.2
0.2
0.2
0.2
0.2
0.2
0.2
0.2
0.2
0.2
0.2
0.2
0.2
0.2
0.2
0.2
0.2
0.2
0.2
0.2
0.2
0.2
0.2
0.2
0.2
0.2
0.2
0.2
0.2
0.2
0.2
0.2
0.2
0.2
0.199999
0.199999
0.199998
0.199998
0.199996
0.199994
0.199992
0.199989
0.199985
0.199981
0.199978
0.199972
0.199964
0.199952
0.199937
0.199919
0.199899
0.199882
0.199874
0.199876
0.199895
0.199937
0.200007
0.200107
0.200256
0.200376
0.200451
0.200519
0.200155
0.199922
0.199227
0.198298
0.197232
0.196212
0.194879
0.193286
0.190922
0.18785
0.18462
0.178969
0.172169
0.165208
0.152014
0.13457
0.115112
0.0974394
0.0625113
1.0819
1.8805
1.99837
1.98136
1.92498
1.90475
1.89914
1.90372
1.91309
1.9352
1.99406
2.05566
2.08514
2.08824
2.11031
2.11728
2.10755
2.10163
2.1149
2.12307
2.12853
2.13416
2.13433
2.16211
2.18075
2.19175
2.18612
2.18462
2.18082
2.18961
2.18886
2.20046
2.20923
2.23307
2.22785
2.22671
2.21809
2.22194
0.2
0.2
0.2
0.2
0.2
0.2
0.2
0.2
0.2
0.2
0.2
0.2
0.2
0.2
0.2
0.2
0.2
0.2
0.2
0.2
0.2
0.2
0.2
0.2
0.2
0.2
0.2
0.2
0.2
0.2
0.2
0.2
0.2
0.2
0.2
0.2
0.2
0.200001
0.200001
0.200002
0.200002
0.200003
0.200004
0.200005
0.200006
0.200007
0.200008
0.20001
0.200011
0.200011
0.200007
0.2
0.199986
0.199962
0.199925
0.199867
0.199783
0.199667
0.199519
0.199342
0.199135
0.198937
0.198705
0.198517
0.198195
0.197668
0.197188
0.196131
0.19448
0.193116
0.19019
0.18624
0.182619
0.176254
0.167699
0.159081
0.147044
0.131052
0.112198
0.0829895
0.198407
1.59566
1.93349
1.97736
1.94778
1.8987
1.88896
1.88415
1.89088
1.89714
1.92672
1.98312
2.04521
2.07231
2.08225
2.10233
2.10423
2.0922
2.08579
2.09849
2.10543
2.11086
2.11622
2.12354
2.1508
2.17099
2.18346
2.17475
2.17077
2.17302
2.1815
2.18255
2.19647
2.20946
2.23173
2.2281
2.22796
2.22302
2.22647
0.2
0.2
0.2
0.2
0.2
0.2
0.2
0.2
0.2
0.2
0.2
0.2
0.2
0.2
0.2
0.2
0.2
0.2
0.2
0.2
0.2
0.2
0.2
0.2
0.2
0.2
0.2
0.2
0.2
0.2
0.2
0.2
0.2
0.2
0.2
0.2
0.2
0.2
0.199999
0.199999
0.199999
0.199998
0.199997
0.199996
0.199995
0.199993
0.199991
0.199988
0.199983
0.199978
0.19997
0.199961
0.199951
0.199937
0.199922
0.199903
0.199879
0.199846
0.199794
0.199711
0.199593
0.199401
0.199094
0.198681
0.198142
0.197454
0.196543
0.19528
0.193503
0.191375
0.188461
0.184181
0.179223
0.17296
0.164076
0.153106
0.141045
0.122675
0.0996719
0.0575851
0.73226
1.86722
1.98587
1.96204
1.91428
1.87328
1.86402
1.86007
1.86491
1.86564
1.90295
1.96732
2.0295
2.05277
2.0745
2.09267
2.089
2.07438
2.06563
2.07972
2.08704
2.09345
2.09881
2.10938
2.13659
2.16113
2.1749
2.16371
2.15621
2.16641
2.17362
2.17688
2.19186
2.20895
2.22622
2.22674
2.22869
2.22696
2.23175
0.2
0.2
0.2
0.2
0.2
0.2
0.2
0.2
0.2
0.2
0.2
0.2
0.2
0.2
0.2
0.2
0.2
0.2
0.2
0.2
0.2
0.2
0.2
0.2
0.2
0.2
0.2
0.2
0.2
0.2
0.2
0.2
0.2
0.2
0.2
0.2
0.2
0.2
0.2
0.2
0.2
0.2
0.2
0.2
0.2
0.199999
0.199999
0.199998
0.199996
0.199994
0.19999
0.199983
0.199973
0.199957
0.199934
0.1999
0.199851
0.199783
0.19969
0.199565
0.199399
0.19918
0.198882
0.19849
0.197932
0.197157
0.19611
0.194674
0.192758
0.190233
0.186934
0.18243
0.176846
0.169373
0.159739
0.147361
0.132476
0.117699
0.0972183
0.122614
1.35563
1.90311
1.96743
1.94191
1.90124
1.86182
1.85259
1.8436
1.83596
1.83469
1.88202
1.95405
2.01224
2.03777
2.06493
2.08019
2.07109
2.05581
2.04563
2.06258
2.07017
2.07779
2.08064
2.09469
2.12603
2.15266
2.16565
2.1531
2.14397
2.16006
2.16536
2.17059
2.18634
2.20793
2.21879
2.22044
2.22842
2.2284
2.23428
0.2
0.2
0.2
0.2
0.2
0.2
0.2
0.2
0.2
0.2
0.2
0.2
0.2
0.2
0.2
0.2
0.2
0.2
0.2
0.2
0.2
0.2
0.2
0.2
0.2
0.2
0.2
0.2
0.2
0.2
0.2
0.2
0.2
0.2
0.2
0.2
0.2
0.2
0.2
0.2
0.2
0.199999
0.199999
0.199999
0.199998
0.199997
0.199996
0.199994
0.199991
0.199987
0.199982
0.199974
0.199963
0.199948
0.199927
0.199897
0.199856
0.199797
0.199713
0.199594
0.199425
0.199189
0.198861
0.198415
0.197795
0.196951
0.195811
0.194265
0.192202
0.189454
0.18582
0.181043
0.174814
0.166911
0.156524
0.143786
0.126335
0.1032
0.0567053
0.436184
1.75899
1.92255
1.93101
1.91144
1.88177
1.84533
1.83243
1.8194
1.80705
1.80504
1.86001
1.93468
1.99148
2.02188
2.05334
2.06312
2.05181
2.03602
2.02481
2.04446
2.05127
2.05983
2.0614
2.07881
2.11358
2.1413
2.15331
2.14176
2.13624
2.15351
2.1576
2.16359
2.1785
2.20269
2.21132
2.21585
2.22479
2.22584
2.2344
0.2
0.2
0.2
0.2
0.2
0.2
0.2
0.2
0.2
0.2
0.2
0.2
0.2
0.2
0.2
0.2
0.2
0.2
0.2
0.2
0.2
0.2
0.2
0.2
0.2
0.2
0.2
0.2
0.2
0.2
0.2
0.2
0.2
0.2
0.2
0.2
0.2
0.2
0.2
0.2
0.2
0.2
0.199999
0.199999
0.199999
0.199998
0.199997
0.199996
0.199993
0.19999
0.199985
0.199977
0.199966
0.19995
0.199927
0.199894
0.199846
0.199779
0.199684
0.199551
0.199367
0.199113
0.198763
0.198281
0.197617
0.196705
0.195462
0.193779
0.191519
0.188506
0.184505
0.179244
0.172304
0.16325
0.151202
0.135849
0.116279
0.0993516
0.0732907
1.05671
1.82111
1.92938
1.91185
1.8836
1.85925
1.82585
1.811
1.79562
1.78364
1.78345
1.83799
1.90926
1.96701
2.00576
2.03876
2.04172
2.03521
2.01769
2.0043
2.02406
2.03103
2.03934
2.04259
2.06317
2.10069
2.12904
2.14052
2.1317
2.13071
2.14646
2.14941
2.15623
2.1712
2.19622
2.2012
2.21207
2.22132
2.22354
2.23177
0.2
0.2
0.2
0.2
0.2
0.2
0.2
0.2
0.2
0.2
0.2
0.2
0.2
0.2
0.2
0.2
0.2
0.2
0.2
0.2
0.2
0.2
0.2
0.2
0.2
0.2
0.2
0.2
0.2
0.2
0.2
0.2
0.2
0.2
0.2
0.2
0.2
0.2
0.2
0.2
0.2
0.2
0.199999
0.199999
0.199998
0.199998
0.199997
0.199995
0.199992
0.199989
0.199983
0.199975
0.199964
0.199948
0.199924
0.199891
0.199842
0.199774
0.199676
0.199538
0.199343
0.19907
0.198689
0.19816
0.197432
0.196434
0.195073
0.19323
0.190747
0.187423
0.182989
0.177141
0.169434
0.159628
0.147361
0.131315
0.111377
0.0693481
0.191076
1.52184
1.83216
1.88694
1.8721
1.86251
1.8341
1.80673
1.78695
1.76839
1.75768
1.75866
1.81086
1.88017
1.94099
1.98757
2.01954
2.01622
2.01661
1.99958
1.98261
2.00211
2.01087
2.01833
2.02279
2.04741
2.08776
2.11579
2.12537
2.12098
2.12645
2.13661
2.13949
2.14535
2.16504
2.1886
2.19163
2.20707
2.21678
2.21994
2.22838
0.2
0.2
0.2
0.2
0.2
0.2
0.2
0.2
0.2
0.2
0.2
0.2
0.2
0.2
0.2
0.2
0.2
0.2
0.2
0.2
0.2
0.2
0.2
0.2
0.2
0.2
0.2
0.2
0.2
0.2
0.2
0.2
0.2
0.2
0.2
0.2
0.2
0.2
0.2
0.2
0.2
0.2
0.199999
0.199999
0.199999
0.199998
0.199997
0.199995
0.199993
0.199989
0.199984
0.199976
0.199964
0.199947
0.199923
0.199887
0.199836
0.199763
0.199659
0.199512
0.199305
0.199014
0.198606
0.19804
0.197255
0.196176
0.194697
0.192687
0.189968
0.18632
0.181471
0.17508
0.166713
0.155626
0.140981
0.121082
0.0942377
0.0443688
0.70947
1.71569
1.83303
1.85722
1.8307
1.82993
1.80505
1.78893
1.76975
1.74865
1.73452
1.73398
1.77819
1.84935
1.91615
1.97018
1.99949
1.99239
1.99708
1.9812
1.9619
1.9794
1.98993
1.99645
2.00243
2.03218
2.07455
2.10373
2.112
2.10518
2.12198
2.12752
2.12973
2.13392
2.15847
2.17867
2.18189
2.19979
2.20962
2.21061
2.22272
0.2
0.2
0.2
0.2
0.2
0.2
0.2
0.2
0.2
0.2
0.2
0.2
0.2
0.2
0.2
0.2
0.2
0.2
0.2
0.2
0.2
0.2
0.2
0.2
0.2
0.2
0.2
0.2
0.2
0.2
0.2
0.2
0.2
0.2
0.2
0.2
0.2
0.2
0.2
0.2
0.2
0.2
0.199999
0.199999
0.199999
0.199998
0.199997
0.199995
0.199992
0.199989
0.199983
0.199975
0.199963
0.199946
0.199921
0.199884
0.199832
0.199756
0.199648
0.199493
0.199274
0.198965
0.198531
0.197924
0.197081
0.195917
0.194319
0.192137
0.189183
0.1852
0.179869
0.172734
0.163287
0.150796
0.135336
0.117668
0.0958317
0.0768481
1.14057
1.75671
1.83997
1.82884
1.80419
1.79901
1.7744
1.76411
1.74986
1.73006
1.71025
1.71256
1.73978
1.81608
1.88939
1.95071
1.97816
1.97167
1.97743
1.96262
1.94145
1.95552
1.96727
1.97277
1.98153
2.01849
2.06307
2.09314
2.09851
2.08623
2.10989
2.11833
2.11844
2.12292
2.15075
2.16961
2.17213
2.1922
2.20219
2.2021
2.21479
0.2
0.2
0.2
0.2
0.2
0.2
0.2
0.2
0.2
0.2
0.2
0.2
0.2
0.2
0.2
0.2
0.2
0.2
0.2
0.2
0.2
0.2
0.2
0.2
0.2
0.2
0.2
0.2
0.2
0.2
0.2
0.2
0.2
0.2
0.2
0.2
0.2
0.2
0.2
0.2
0.2
0.2
0.199999
0.199999
0.199999
0.199998
0.199997
0.199995
0.199993
0.199989
0.199983
0.199975
0.199963
0.199945
0.199919
0.199882
0.199827
0.199748
0.199635
0.199473
0.199243
0.198917
0.198456
0.19781
0.196909
0.195659
0.193933
0.191566
0.188341
0.18397
0.178109
0.170336
0.160268
0.147381
0.130265
0.107021
0.06196
0.272232
1.49925
1.7391
1.80018
1.78601
1.77941
1.7767
1.75027
1.73595
1.72198
1.70548
1.68829
1.69614
1.7043
1.78179
1.86178
1.92547
1.95334
1.95369
1.95891
1.94474
1.9208
1.9295
1.94345
1.94922
1.96155
2.00637
2.05087
2.07946
2.08229
2.07157
2.09799
2.10919
2.10848
2.11368
2.13969
2.15906
2.15893
2.17947
2.19221
2.19169
2.20384
0.2
0.2
0.2
0.2
0.2
0.2
0.2
0.2
0.2
0.2
0.2
0.2
0.2
0.2
0.2
0.2
0.2
0.2
0.2
0.2
0.2
0.2
0.2
0.2
0.2
0.2
0.2
0.2
0.2
0.2
0.2
0.2
0.2
0.2
0.2
0.2
0.2
0.2
0.2
0.2
0.2
0.2
0.199999
0.199999
0.199999
0.199998
0.199997
0.199995
0.199993
0.199989
0.199983
0.199975
0.199963
0.199945
0.199918
0.19988
0.199824
0.199742
0.199625
0.199456
0.199215
0.198872
0.198386
0.197701
0.19674
0.195401
0.193544
0.190986
0.187488
0.182744
0.176358
0.167815
0.156301
0.141033
0.120325
0.092525
0.0408187
0.704822
1.62006
1.71728
1.76336
1.74407
1.74503
1.7471
1.73145
1.71408
1.69743
1.67877
1.66396
1.67471
1.67643
1.74651
1.83393
1.89529
1.92607
1.93864
1.93888
1.92513
1.89823
1.9036
1.91986
1.9268
1.94243
1.99445
2.03795
2.06434
2.06545
2.05805
2.0868
2.10039
2.09895
2.10694
2.13024
2.14775
2.14711
2.16402
2.18131
2.17851
2.18841
0.2
0.2
0.2
0.2
0.2
0.2
0.2
0.2
0.2
0.2
0.2
0.2
0.2
0.2
0.2
0.2
0.2
0.2
0.2
0.2
0.2
0.2
0.2
0.2
0.2
0.2
0.2
0.2
0.2
0.2
0.2
0.2
0.2
0.2
0.2
0.2
0.2
0.2
0.2
0.2
0.2
0.2
0.199999
0.199999
0.199999
0.199998
0.199997
0.199995
0.199993
0.199989
0.199984
0.199975
0.199963
0.199945
0.199918
0.199879
0.199821
0.199738
0.199617
0.199442
0.199191
0.198833
0.198322
0.1976
0.196582
0.195156
0.193172
0.190427
0.186652
0.181494
0.174458
0.164952
0.152138
0.135741
0.115015
0.0896535
0.0669812
1.04452
1.66532
1.72169
1.73055
1.71249
1.71375
1.71133
1.70738
1.69828
1.6777
1.6531
1.6368
1.64259
1.64601
1.71222
1.80319
1.86384
1.89816
1.92312
1.91472
1.90455
1.87544
1.87813
1.89654
1.90501
1.92307
1.98195
2.02451
2.04925
2.0485
2.04658
2.0757
2.09153
2.0892
2.09965
2.11855
2.13473
2.13399
2.14534
2.1669
2.16308
2.17128
0.2
0.2
0.2
0.2
0.2
0.2
0.2
0.2
0.2
0.2
0.2
0.2
0.2
0.2
0.2
0.2
0.2
0.2
0.2
0.2
0.2
0.2
0.2
0.2
0.2
0.2
0.2
0.2
0.2
0.2
0.2
0.2
0.2
0.2
0.2
0.2
0.2
0.2
0.2
0.2
0.2
0.2
0.199999
0.199999
0.199999
0.199998
0.199997
0.199995
0.199993
0.199989
0.199984
0.199976
0.199963
0.199945
0.199918
0.199878
0.19982
0.199735
0.199611
0.199432
0.199172
0.1988
0.198267
0.197509
0.196437
0.194927
0.192815
0.189876
0.185809
0.180231
0.172627
0.162504
0.149285
0.132244
0.108433
0.0623226
0.222896
1.34249
1.63958
1.69889
1.70093
1.68961
1.68664
1.67786
1.67566
1.67146
1.65603
1.63078
1.61422
1.61303
1.61631
1.67541
1.76992
1.8315
1.87005
1.90169
1.89203
1.88474
1.85346
1.85357
1.87411
1.88439
1.90457
1.96916
2.01106
2.03346
2.03264
2.03596
2.06404
2.08105
2.07902
2.09297
2.10759
2.11823