/*--------------------------------*- C++ -*----------------------------------*\
| =========                 |                                                 |
| \\      /  F ield         | OpenFOAM: The Open Source CFD Toolbox           |
|  \\    /   O peration     | Version:  2.2.x                                 |
|   \\  /    A nd           | Web:      www.OpenFOAM.org                      |
|    \\/     M anipulation  |                                                 |
\*---------------------------------------------------------------------------*/
FoamFile
{
    version     2.0;
    format      ascii;
    class       volScalarField;
    location    "0.85";
    object      divBf;
}
// * * * * * * * * * * * * * * * * * * * * * * * * * * * * * * * * * * * * * //

dimensions      [1 -3 -2 0 0 -1 0];

internalField   nonuniform List<scalar> 
14161
(
400.746
350.884
305.274
261.514
219.689
179.613
141.242
104.555
69.6002
36.499
5.43605
-23.3486
-49.5297
-72.7345
-92.5671
-108.532
-120.173
-127.21
-129.09
-125.526
-117.85
-100.017
-89.5144
-56.1877
-24.8395
-23.5172
46.1036
56.9111
92.6521
105.647
84.0711
103.353
67.1238
-5.5445
-33.9234
-66.7759
17.3062
-70.8829
-121.071
-251.002
-361.056
-476.956
-518.514
-626.059
-675.593
-29221.5
-30383
-31960.4
-33489.7
-35913.4
-35851
-28934.1
-4941.67
-19587.4
-19450.1
-32724.9
-32729.3
-36009.1
-35011.9
-34505.5
-33557.4
-32412
-29434.1
-27978.2
-25748.8
-23282
-22115.3
-18109.3
-16918.1
-15906.5
-13365
-10294.8
-8073.73
-6225.5
-5231.34
-1079.32
-93.9849
345.846
2294.89
5579.22
5950.99
7687.93
10823.1
11212.6
10345.1
13116.2
17028.9
14296
14148.3
17951.2
17061.5
16379.3
17288.1
20928
18718.5
18290.8
21262.5
22377.4
30588.6
27736.6
22557.8
4415.71
-1958.7
-4956.95
-6924.4
-8477.95
-9563.49
-10382.1
-10534.4
-10508.3
-10278.5
-10227.7
-9340.44
-7479.25
-5736.9
-2837.22
2164.5
-3328.93
45944.3
153.037
104.603
59.515
15.4399
-27.4771
-69.3824
-110.283
-150.179
-189.011
-226.658
-262.945
-297.654
-330.49
-361.13
-389.221
-414.318
-436.121
-454.232
-468.401
-478.544
-484.228
-486.164
-484.444
-478.423
-473.194
-465.038
-449.848
-433.208
-467.758
-441.025
-480.594
-530.869
-552.825
-625.534
-696.991
-755.021
-721.035
-808.086
-852.224
-988.701
-1100.91
-1243.99
-1306.9
-1358.43
-1423.88
-25590.1
-26815.6
-28536.4
-29450.8
-32006.2
-31257.7
-29657.4
5958.02
-19007.7
-22518.5
-29187.3
-30635.5
-33488.1
-32526.5
-31335.6
-28094.3
-25568.6
-25220.1
-22005.5
-20238.7
-18994.3
-15318.7
-16006.7
-12084.6
-8387.11
-7280.51
-5720.38
-4785.9
-3878.75
265.986
2059.34
3777.44
3695.87
5069.53
6383.05
10083.3
11311.4
14004.9
14270.1
13265
15147.3
18758.4
17639.9
17795.4
19847.2
19449.1
22028
21426.5
22924.2
20046.3
19673.9
15521.1
11063.8
7079.85
-3569.41
-9299.9
-11333.3
-11294.1
-11647.8
-12419.1
-12407.7
-11965.6
-11779.1
-11464
-11258
-10865
-10844.2
-9891.92
-8139.51
-6378.02
-4157.51
1323.03
-5580.58
37513.7
-89.9573
-135.501
-178.627
-221.573
-264.129
-306.388
-348.319
-389.887
-431.009
-471.568
-511.395
-550.27
-587.937
-624.087
-658.424
-690.558
-720.226
-747.081
-770.938
-791.863
-808.829
-824.726
-833.858
-847.365
-857.374
-852.015
-881.622
-874.122
-914.91
-904.848
-952.977
-1050.65
-1081.36
-1148.24
-1209.5
-1324.95
-1346.67
-1388.28
-1433.87
-1489.27
-1545.21
-1705.68
-1785.55
-1842.79
-1824.53
-22172.8
-23304.1
-24517.6
-25258.1
-26579.2
-23458.4
-22552.5
12208.8
-17630.3
-20701
-33748.1
-31974.4
-35009.1
-35896.1
-33507.8
-31139.2
-29270.4
-26294.4
-24246
-20839.4
-17530.5
-15851.3
-12685.9
-11397.2
-8988.05
-7299.06
-5024.88
-3046.25
-1054.24
-424.011
1305.88
2832.76
5167.8
7555.76
8228.2
9857.61
10455.1
12712.2
13586.7
14769.1
16114.2
18310.5
17035.2
16969.9
20007.5
23332.7
21950.3
19026.8
21839.8
22288.7
20349.9
22311.6
23654.9
18440.7
14621.8
5049.91
-3742.78
-5813.3
-5476.66
-5813.45
-6248.04
-7003.17
-7581
-8058.6
-8306.65
-8554.76
-8490.21
-7709.13
-6507.39
-4893.45
-3420.93
2417.51
-4685.68
33116.7
-326.757
-368.081
-407.949
-448.487
-489.407
-530.742
-572.41
-614.342
-656.425
-698.531
-740.487
-782.084
-823.076
-863.179
-902.136
-939.597
-975.332
-1009.04
-1040.6
-1069.91
-1096.58
-1123.24
-1141.98
-1171
-1191.78
-1196.79
-1252.02
-1252.13
-1282.24
-1359.63
-1370.91
-1447.17
-1559.01
-1583.42
-1651.19
-1747.27
-1842.43
-1870.59
-1932.08
-1933.64
-1918.19
-1895.2
-2039.77
-2190.69
-2027.71
-19124.5
-20274.5
-21558.1
-22506.2
-23123.6
-23387.8
-28226.3
28203.7
-25014.9
-21759.5
-35312.5
-37006.2
-34108.9
-36042.8
-32963.3
-30429.5
-26303.4
-24617.8
-20461.3
-19242.3
-15758.6
-13531.8
-12649
-7889.42
-7546.89
-4654.92
-3063.64
-2122.41
988.379
1425
2508.62
5829.73
8598.48
7328.07
10848.8
10225.2
12153.3
15235.1
14708.4
16373.6
18463.8
18007.9
20038.4
21502.6
22734.1
21939
22735.5
25495.7
22500
25249.8
24753.3
21952.3
17546.4
13004.8
8483.79
5046.56
-472.987
-1499.43
-2697.53
-4472.67
-5706.63
-6523.4
-7019.22
-7271.04
-7461.41
-7510.35
-7430.21
-6639.17
-5449.78
-3808.63
-3075.78
2314.36
-4199.41
28208.9
-555.942
-591.876
-627.36
-664.388
-702.59
-741.924
-782.254
-823.467
-865.42
-907.962
-950.913
-994.06
-1037.17
-1079.98
-1122.23
-1163.68
-1204.03
-1243.06
-1280.7
-1316.69
-1351.46
-1385.51
-1415.81
-1452.06
-1482.67
-1507.4
-1556.71
-1592.05
-1613.65
-1710.51
-1747.68
-1778.68
-1905.04
-2046.17
-2016.56
-2055.18
-2128.33
-2234.88
-2284.73
-2316.23
-2243.72
-2108.91
-1871.38
-1995.22
-1860.71
-16170.7
-17194.4
-18143.9
-19121.2
-19602.8
-19141.1
-23937.2
22360.6
-20815.8
-27503.8
-39456.3
-41195
-37757.3
-36053.2
-34572.5
-30991.3
-25812.5
-23521
-19432.2
-16327.7
-14345.9
-11243.8
-10099.5
-6594.48
-4754.85
-2314.53
-2476.4
30.3231
2371.13
3318.29
4716.38
7608.93
8250.6
8077.04
11539.7
11666.9
13554
16751.8
16745.2
20956.2
20919.5
19231.5
20445.4
21137.4
24895.5
25017.8
25671.7
29041.5
27255
33129.3
33312.5
30601.8
20602.7
13020.6
8576.85
2151.62
-81.7844
-923.108
-1722.39
-3068.49
-4039.28
-4758.99
-5299.27
-5606.62
-5815.73
-5984.42
-6056.55
-5463.78
-4635.18
-2958.63
-2492.16
1783.34
-3754.6
23456.7
-776.166
-805.72
-835.877
-868.485
-903.081
-939.537
-977.659
-1017.28
-1058.22
-1100.31
-1143.35
-1187.12
-1231.4
-1275.91
-1320.42
-1364.76
-1408.57
-1451.7
-1494.15
-1535.57
-1576.68
-1616.04
-1657.66
-1696.74
-1738.39
-1779.22
-1819.64
-1892.77
-1911.36
-1979.1
-2102.09
-2076.71
-2175.51
-2317.16
-2439.2
-2360.94
-2392.94
-2385.15
-2527.52
-2577.24
-2542.41
-2389.66
-2054.51
-1296.72
-1370.26
-13422.2
-14047.8
-14826.8
-15971.8
-17537.7
-18330.8
-19986.4
-8131.59
-22493.7
-37957.9
-42716.9
-43930
-41294.8
-35703.5
-27201.4
-27226.7
-21229.2
-20494.1
-15172.9
-12213.1
-12861.5
-8016.35
-5674.98
-4079.83
-1470.34
-2189.11
931.372
3041.98
3383.1
4484.48
8363.62
8849.18
9205.66
11676.4
13045.3
13459.8
16715.4
18069.9
18460
21007.5
20032.8
20452.3
25230.9
26549.6
27678.7
28444.8
29828.6
37351.4
39493.7
39325
31054
21749.6
16778.1
10980.6
5627.59
2183.41
1475.83
-328.335
-1258.62
-2271
-2889.75
-3479.25
-4124.58
-4581.32
-4826.32
-4969.89
-5049.28
-4528.38
-3829.12
-2373.6
-2109.95
1329.13
-3433.61
19339.5
-986.164
-1008.54
-1032.63
-1060.1
-1090.4
-1123.3
-1158.53
-1195.89
-1235.15
-1276.09
-1318.52
-1362.18
-1406.87
-1452.33
-1498.28
-1544.59
-1590.98
-1637.24
-1683.41
-1729.17
-1775.27
-1819.74
-1868.55
-1911.69
-1959.96
-2018.84
-2056.44
-2111.56
-2198.78
-2222.55
-2312.77
-2452.56
-2425.86
-2468.72
-2608.16
-2778.74
-2675.58
-2638.97
-2503.03
-2548.77
-2643.6
-2555.95
-2301.33
-1731.3
-742.062
-10047.4
-10379.8
-10753.8
-11135.9
-12383.7
-14403.1
-13909
-34745
-29802.3
-47401.9
-50915.4
-44129.4
-35684.8
-29024.3
-25808.9
-19612.6
-20385.2
-15102
-13139.5
-9184.77
-6070.56
-4929.9
-2434.76
-2353.87
-797.52
3966.14
3629.51
3543.89
7356.28
9646.55
8208.11
10960.9
13174.7
12948.1
15933.2
16828
18361.2
19641.8
21103
22244.1
23418.8
25478.9
29275.7
31271.7
32266.4
39705.4
43190.6
48610.6
47378.3
33899.2
25734.7
18055.3
12333
7737.37
4319.06
3201.9
1108.74
-19.1304
-588.972
-1250.43
-1888.37
-2618.65
-3256.51
-3674.09
-3873.96
-4010.3
-4165.58
-3712.06
-3210.02
-1964.65
-1945.76
827.087
-3287.86
15687.7
-1184.77
-1199.39
-1216.86
-1238.68
-1264.17
-1293.01
-1324.87
-1359.47
-1396.53
-1435.82
-1477.1
-1520.11
-1564.63
-1610.43
-1657.21
-1704.81
-1753.05
-1801.64
-1850.68
-1899.96
-1949.63
-1999.47
-2051.83
-2101.21
-2154.26
-2221.53
-2264.36
-2313.98
-2436.83
-2442.12
-2515.8
-2664.31
-2761.54
-2670.37
-2742.33
-2875.23
-3031.96
-2921.04
-2676.5
-2513.54
-2404.24
-2396.83
-2339.09
-2160.8
-1011.64
-7674.83
-7889.61
-7995.45
-7945.95
-7849.77
-12766.9
-21565.4
-96319.5
-40773.4
-64190.3
-39498.9
-35012
-27562.5
-26690.4
-23228.2
-19462.7
-15831.6
-11693.7
-8218.89
-6567.11
-2219.14
-1756.33
-1490.35
974.761
2990.87
4394.56
6906
6705.97
8513.06
10805.6
12486.4
12140.6
15005.5
16018.4
18708.9
18536.2
19426.4
21956.1
23646.7
26736.8
29614.1
29836.6
35875.2
41425.7
46787.1
53413.6
59797.7
43332.2
33934.2
24975.5
18202.9
12706.2
8589.93
6048.17
4462.7
2489.61
1641.56
851.083
226.885
-513.23
-1269.9
-1979.84
-2474.85
-2812.29
-3009.16
-3183.53
-3437.22
-3014.69
-2682.56
-1659.61
-1782.08
481.378
-3198.06
12730.4
-1370.91
-1377.41
-1387.93
-1403.76
-1424.11
-1448.58
-1476.73
-1508.23
-1542.76
-1580.03
-1619.78
-1661.74
-1705.67
-1751.35
-1798.46
-1846.82
-1896.34
-1946.62
-1997.85
-2049.98
-2102.44
-2156.6
-2210.9
-2268.2
-2326.42
-2387.22
-2452.4
-2514.67
-2586.01
-2670.96
-2725.21
-2776.28
-2894.26
-3007.51
-2975.85
-2919.81
-2999.52
-3142.19
-3070.73
-2807.57
-2439.47
-2151.42
-1910.95
-1713.02
-1289.13
-5843.78
-5073.54
-4292.99
-2158.62
2507.62
7058.6
13775.8
-83091.5
-116531
-58830
-23961.4
-10593.3
-12559
-13055
-15664.2
-15511
-12032.8
-6559.49
-2950.58
-2537.11
-648.925
1659.81
4065.76
4410.03
4499.27
5861.31
8540.52
8686.64
10903
12962.5
14617.9
15514
17399.1
18229.1
20149
22601.4
22839.3
26320.4
30299.3
32837.6
39280
43803.7
50685
56507
67074.7
50660.4
40267.5
30834.4
22368.1
17216.9
12343.2
8504.08
6805.69
5700.34
3761.83
2574.48
2103.26
1437.9
728.116
-5.47215
-660.231
-1257.38
-1709.1
-2039.49
-2266.58
-2552.85
-2761.08
-2442.03
-2295.42
-1464.06
-1722.18
163.882
-3170.14
10281.8
-1543.66
-1541.88
-1545.29
-1554.98
-1570.05
-1589.97
-1614.24
-1642.44
-1674.21
-1709.24
-1747.21
-1787.85
-1830.88
-1876.08
-1923.17
-1971.89
-2022.22
-2073.78
-2126.58
-2180.87
-2235.65
-2293.41
-2349.16
-2411.36
-2475.29
-2531.06
-2609.87
-2685.81
-2723.87
-2826.28
-2948.58
-2923.61
-2998.55
-3169.89
-3247.91
-3091.3
-3074.68
-3161
-3265.29
-3097.13
-2695.09
-2346.28
-1897.64
-1549.53
-1110.85
-4838.23
-3842.59
-2757.96
-2124.18
-2049.27
-3670.86
-21978.5
-85526.8
-226244
-75283.8
-18961.9
-7944.21
-5890.05
-4390.67
-8279.22
-8154.43
-7540.82
-5714.51
46.9262
1567.14
2961.12
4383.45
7476.99
7225.02
7550.68
9174.9
11811.5
12223.1
11851.5
14950.2
15544.1
17938
22851.4
20859.7
23206.8
30538.3
31701.7
35049.8
42798.3
47617.3
54976.2
61442.5
68338.9
57066.4
47827.5
35320
26597.1
19167.8
15172.3
11169.7
7857.16
6745.09
5815.53
4695.81
3362.59
2834.38
2315.1
1700.73
1011.53
415.778
-147.649
-662.516
-1086.11
-1397.53
-1734.07
-1958.1
-2076.75
-1972.48
-1991.24
-1285.62
-1672.37
-29.6093
-3108.29
8410.1
-1702.17
-1692.17
-1688.52
-1692.09
-1701.87
-1717.22
-1737.55
-1762.39
-1791.32
-1823.97
-1860.01
-1899.15
-1941.07
-1985.57
-2032.36
-2081.14
-2131.91
-2184.38
-2238.28
-2294.07
-2351.02
-2410.48
-2469.93
-2533.62
-2600.15
-2662.86
-2735.71
-2819.24
-2873.85
-2950.08
-3055.82
-3122.59
-3162.36
-3215.73
-3315.9
-3366.2
-3327.89
-3268.09
-3228.49
-3197.05
-2976.5
-2677.17
-2329.6
-1765.66
-1072.77
-3450.58
-2819.2
-2778.12
-1685.29
-1462.93
-3390.74
-18190.4
-111397
-129013
-71737
-44918.9
-20155
-3571.58
-2769.74
-5161.36
-3868.13
-1138.38
-168.107
352.243
3352.92
5540.02
7309.54
8479.81
10367.8
10026.1
11754.7
13578.4
13303.5
15487.5
21754.9
20873.7
21705.3
29345.8
29650.1
32856.1
43718.7
46618.3
53072.1
59394.7
67910
71788.1
59409.9
47273.7
37828.9
29038.8
21060.9
16214.5
12804.7
9468.4
7109.19
5958.32
5321.07
4480.7
3621.19
3059.26
3003.55
2528.11
1960.52
1438.87
930.176
382.716
-98.8268
-536.697
-916.911
-1211.84
-1494.87
-1478.62
-1595.53
-1733.21
-1138.57
-1680.36
-226.113
-3083.52
6891.97
-1845.77
-1827.79
-1817.29
-1814.92
-1819.54
-1830.42
-1846.89
-1868.39
-1894.48
-1924.73
-1958.78
-1996.32
-2037.02
-2080.63
-2126.94
-2175.58
-2226.47
-2279.56
-2334.23
-2391.1
-2450.17
-2510.16
-2573.15
-2638.13
-2703.92
-2777.52
-2845.14
-2921.03
-3008.42
-3074.88
-3135.01
-3253.09
-3328.12
-3334.75
-3377.19
-3514.95
-3542.42
-3455.69
-3314.43
-3320.28
-3250.36
-3056.99
-2715.2
-2190.67
-1659.44
-2445.26
-2731.07
-2404.88
-2406.08
-3134.79
-6625.54
-34109.5
-145044
-33179.1
-49202.4
-66832
-26680.9
-18617.5
-6013.22
-1698.63
-2008.62
-2014.79
2357.39
3216.05
5447.02
8184.9
7814.69
10001.3
13962.1
12687.6
14003.4
19913.3
18766.3
19051.1
28352.2
28670.9
31691.7
42731.8
45622.9
53942.4
62009.2
68864.2
74790.7
64165.8
54876.7
44836.9
37885.3
28871
21837.5
17086.9
12827.2
10136.2
7596.79
6134.04
4878.64
4503.69
3950.27
3455.68
2986.18
2908.18
2879.48
2535.99
2125.92
1741.83
1304.13
809.998
324.432
-154.463
-439.004
-727.32
-1065
-1013.1
-1269.63
-1571.86
-1002.1
-1670.62
-390.998
-3040.2
5687.36
-1973.88
-1948.35
-1931.36
-1923.37
-1923.09
-1929.71
-1942.47
-1960.78
-1984.09
-2011.98
-2044.06
-2079.99
-2119.41
-2162.03
-2207.71
-2256.06
-2306.87
-2360.29
-2415.55
-2473.14
-2533.52
-2594.47
-2660.03
-2725.64
-2792.64
-2869.79
-2939.9
-3011.84
-3101.97
-3179.19
-3245.01
-3330.69
-3417.73
-3473.9
-3518.11
-3594.2
-3637.19
-3608.71
-3524.73
-3513.36
-3477.9
-3345.93
-3034.72
-2751.95
-2208.08
-1774.19
-1953.03
-1995.64
-1992.98
-2202.31
-7383.97
-60279.9
-89023.4
-15519.6
-35220.1
-66678.6
-66312.2
-41617.1
-17034.4
-13881.3
-2252.42
4681.59
4043.83
6403.08
7141.46
11762.3
12331.1
13121.7
17895.4
16138.1
20385.3
27222.4
27918.6
31428.9
41469
45317.4
53843.6
61715.9
70154.1
79810.4
70833.2
59763.3
51577.8
41365.6
34985
27153.9
21370.1
16551
12983
10003
7784.2
5928.08
4974.37
3657.22
3586.14
3061.6
2876.95
2751.1
2590.41
2651.9
2684.71
2509.54
2264.84
1924.6
1533.83
1057.64
576.832
161.556
-66.2945
-360.538
-617.717
-745.332
-1102.96
-1370.59
-955.733
-1717.88
-630.587
-3056.66
4653.27
-2086.09
-2053.6
-2030.64
-2017.43
-2012.62
-2015.28
-2024.58
-2039.88
-2060.59
-2086.23
-2116.39
-2150.72
-2188.87
-2230.49
-2275.4
-2323.34
-2373.94
-2427.45
-2483.19
-2541.16
-2602.27
-2664.68
-2730.79
-2798.17
-2868.5
-2941.38
-3018.45
-3093.23
-3172.46
-3259.99
-3343.38
-3408.54
-3490.96
-3585.57
-3653.24
-3678.15
-3720.09
-3763.6
-3762.8
-3720.71
-3649.98
-3555.7
-3360.53
-3082.9
-2633.44
-1492.73
-1441.03
-1338.53
-1816.68
-3939.29
-13737.8
-102684
-48349.9
-11097.3
-15437.9
-31821.3
-57757
-60117.4
-38429.8
-17397.2
-7635.65
-92.5652
7387.79
9961.75
14200.9
15263.4
16729.6
22553.3
25988.7
25805.9
32777
42471.6
47196.5
53986.3
61701.3
72117
82462.2
74316.3
64513.1
55368.6
45504.8
37424.9
32600.2
24872.1
19742.6
14991.7
12564.1
9601.29
7464.68
6011.04
4690.95
4094.01
2887.13
2874.58
2251.15
2238.63
2118.75
2226.12
2242.96
2410.52
2554.83
2474.18
2292.5
1990.7
1625.57
1189.34
836.578
437.628
243.086
-31.732
-306.487
-559.971
-1059.15
-1132.1
-959.508
-1740.19
-784.81
-3020.22
3846.21
-2182.1
-2143.39
-2115.06
-2097.18
-2088.28
-2087.36
-2093.52
-2106.06
-2124.36
-2147.92
-2176.28
-2209.07
-2245.97
-2286.61
-2330.74
-2378.16
-2428.42
-2481.81
-2537.89
-2596.05
-2657.56
-2721.53
-2786.98
-2856.96
-2927.86
-3000.11
-3079.16
-3158.85
-3237.12
-3321.98
-3409.54
-3485
-3564.82
-3653.9
-3731.43
-3770.62
-3819.07
-3881.52
-3932.44
-3908.08
-3812.67
-3739.84
-3636.57
-3427.84
-3166.91
-1273.99
-1344.4
-1531.69
-2152.82
-4190.36
-24252.4
-109134
-5763.02
-1469.74
-4909.72
-12564
-27353.2
-48872.5
-62808.7
-36378.7
-16808.4
2403.86
11645.5
15651.9
23603
23737.2
29734.3
33895.3
43547.7
49105.3
53872.6
65603.1
74187.2
83941.1
76138.9
66381.9
57787.2
47859.9
39843.9
33308.4
27827.5
22673.3
18362.7
14356.4
11676.4
8923.51
7246.27
5817.88
4637.58
3724.46
2899.29
2387.81
2191.15
1649.15
1571.71
1534.7
1599.91
1740.2
1939.18
2166.75
2305.73
2276.45
2192.19
1971.2
1648.94
1308.24
1027.23
683.779
517.154
177.52
-95.2067
-447.267
-927.139
-987.7
-984.506
-1721.97
-889.715
-2960.99
3171.61
-2261.78
-2217.67
-2184.71
-2162.76
-2150.28
-2146.21
-2149.59
-2159.67
-2175.81
-2197.48
-2224.2
-2255.55
-2291.24
-2330.92
-2374.26
-2421.15
-2471.06
-2524.05
-2580.34
-2638.65
-2700.22
-2765.11
-2830.34
-2901.96
-2974.52
-3046.22
-3125.55
-3207.98
-3289.75
-3368.19
-3458.47
-3552.96
-3630.41
-3702.64
-3797.22
-3867.03
-3919.85
-3962.07
-4025.12
-4023.83
-3968.68
-3918.52
-3850.23
-3664.16
-3410.78
-510.345
-415.198
-416.931
-636.979
-5806.61
-45750.6
-80688
-4168.98
-7056.55
-4268.69
-7591.75
-11744.9
-21038.3
-35412.3
-62059.5
-32197.4
895.925
13623.6
28042.1
33955.5
49083.4
50373.2
58347.3
70955.2
76894.7
86779.2
75731.4
67517.1
59429.9
49105.4
42125.9
33494
28827
24092.1
19496.2
16718.4
13858.3
10839.1
8741.39
7135.39
5723.6
4697.82
3897.33
3162.59
2612.06
2302.07
1914.11
1564
1291.5
1214.95
1187.6
1271.37
1511.68
1835.45
2114.01
2239.38
2210.42
2177.59
1981.13
1729.22
1422.27
1163.47
943.669
725.345
354.467
-29.6765
-257.631
-742.585
-853.704
-1047.97
-1668.27
-942.545
-2908.24
2632.39
-2325.11
-2276.53
-2239.71
-2214.37
-2198.88
-2192.13
-2193.14
-2201.1
-2215.34
-2235.33
-2260.59
-2290.66
-2325.22
-2363.97
-2406.53
-2452.83
-2502.4
-2554.96
-2611.14
-2669.66
-2730.96
-2796.28
-2862.41
-2933.2
-3007.01
-3080.55
-3159.13
-3242.6
-3327.3
-3404.39
-3493.63
-3597.33
-3679.51
-3741.92
-3835.35
-3944.92
-4005.76
-4023.28
-4073.97
-4100.06
-4116.06
-4021.97
-3939.63
-3762.09
-3550.41
43.7222
71.2886
-26.6425
-1408.69
-8353.38
-76344.5
-56587.8
-3686.08
-2018.91
298.983
-1703.89
-4018.54
-6866.96
-12617.2
-22511.9
-23918.9
-1255.65
29622.3
52463.5
62245.8
76243
81052.5
86706.1
74581.7
65028.1
58899.2
50116.5
42903.5
35049.9
29920.9
25122.3
20817
16740.8
14529.7
12481.2
9903.69
8472.45
7323.73
6234.55
5148.94
4279.49
3361.92
2622.37
2068.31
1863.66
1278.54
1151.11
664.028
598.874
672.857
842.336
1012.27
1227.66
1520.77
1863.43
2024.36
2081.19
2084.84
1943.8
1766.66
1502.95
1329.46
1086.56
845.475
502.989
66.8784
-49.8161
-598.116
-755.893
-1055.89
-1548.83
-914.173
-2826.74
2200.73
-2372.22
-2320.16
-2280.32
-2252.28
-2234.39
-2225.47
-2224.52
-2230.72
-2243.38
-2261.92
-2285.88
-2314.84
-2348.39
-2386.26
-2428.06
-2473.71
-2522.95
-2575.1
-2630.92
-2689.63
-2750.46
-2815.98
-2883.11
-2952.27
-3027.34
-3102.82
-3178.84
-3265.56
-3346.99
-3431.33
-3518.9
-3616.68
-3710.81
-3780.93
-3854.48
-3978
-4073.67
-4081.08
-4084.58
-4131.09
-4209.72
-4135.04
-4021.19
-3851.36
-3672.63
516.452
322.346
24.1373
-2084.85
-18385.7
-108521
-9434.61
2525.56
3401.79
2751.6
2654.33
1923.45
4209.34
3762.14
5874.83
12222.1
30590.6
71901.1
84050.2
85720.8
72531.6
64081.7
59045.3
48730.6
42475.7
37726.5
31696.7
26429.8
21465.7
17207
14645.6
13663.2
11353
10024
9099.45
7407.38
6626.75
5266.16
4315.17
3849.69
3493.69
3035.67
2611.13
2133.88
1791.04
1456.26
1118.66
960.019
990.94
933.243
973.026
1256.33
1559.59
1754.8
1953.75
2150.45
2226.39
2217.13
2032.81
1851.15
1662.19
1487.49
1162.05
894.61
640.991
262.985
70.3966
-464.106
-701.458
-1003.39
-1465.27
-910.127
-2727.54
1796.42
-2403.38
-2348.84
-2306.85
-2276.84
-2257.16
-2246.6
-2244.13
-2248.94
-2260.31
-2277.67
-2300.53
-2328.5
-2361.17
-2398.26
-2439.4
-2484.34
-2533.15
-2584.98
-2640.25
-2699.06
-2759.56
-2824.62
-2892.46
-2960.64
-3035.81
-3112.68
-3188.5
-3271.58
-3361.48
-3444.62
-3529.55
-3624.77
-3723.49
-3810.18
-3881.44
-3958.15
-4083.16
-4146.77
-4113.58
-4109.39
-4175.57
-4236.19
-4079.43
-3805.53
-3605.78
1131.01
974.675
-57.1375
-4123.63
-39748.9
-92114.3
-5118.91
2384.23
2811.29
3243.64
4316.58
4665.27
5728.71
14018.6
37677.8
66308.2
98555.5
87560.1
68005.2
56487.7
47656.9
41344.1
36950.6
32267.6
27605.4
23098.5
19944.5
17589.2
15973.4
13093.1
10842
9674.06
8648.12
7122.74
6958.84
5888.3
5537.32
5011.45
4567.51
3814.52
3311.69
2781.84
2290.12
1761.08
1557.13
1250.65
995.725
898.849
846.801
704.048
608.412
624.156
805.814
1100.32
1456.22
1679.59
1851.81
1910.97
1871.74
1799.7
1629.19
1501.28
1241.28
908.723
727.059
426.243
272.552
-333.617
-611.312
-879.374
-1338.13
-868.579
-2540.69
1471.11
-2418.96
-2362.98
-2319.69
-2288.46
-2267.6
-2255.92
-2252.39
-2256.17
-2266.56
-2283
-2304.98
-2332.11
-2364.01
-2400.39
-2440.94
-2485.26
-2533.49
-2585.04
-2639.67
-2698.37
-2758.8
-2822.8
-2891.29
-2959.02
-3032.98
-3111.05
-3187.96
-3265.93
-3358.39
-3445.92
-3528.27
-3617.87
-3718.37
-3817.71
-3892.81
-3951.11
-4044.14
-4169.36
-4169.69
-4128.91
-4074.25
-4150.33
-4075.02
-3738.41
-3440.6
2175.69
2143.85
1688.1
-5934.54
-70203.9
-60993.8
2526.04
1903.76
3511.64
5558.41
8091.8
9982.81
20018
46188.8
90551.9
133797
106193
66487
49555.2
39084.3
32355.6
27090.6
23248.5
20849.3
19485
17494.2
15222.2
13058.1
11969.5
10823.8
9162.59
8377.48
8335.9
7398.92
7057.13
6062.25
5542.51
4789.39
4212.46
3670.39
3317.66
2786.42
2378.48
1993.9
1602.51
1407.46
1164.88
1067.37
923.356
792.665
782.708
817.36
1015.73
1326.6
1606.4
1817.58
1949.72
2016.36
1971.55
1854.88
1709.84
1565.37
1332.22
1036.49
800.429
482.013
468.815
-272.554
-496.499
-778.08
-1250.16
-879.91
-2365.34
1141.12
-2419.47
-2363.05
-2319.33
-2287.58
-2266.17
-2253.89
-2249.72
-2252.84
-2262.56
-2278.33
-2299.64
-2326.1
-2357.35
-2393.09
-2433.09
-2476.89
-2524.51
-2575.76
-2629.76
-2687.96
-2748.57
-2811.33
-2879.82
-2948.21
-3019.33
-3098.14
-3175.78
-3251.93
-3340.23
-3434.63
-3514.95
-3596.45
-3703.7
-3801.84
-3882.32
-3944.37
-3985.27
-4116.92
-4217.01
-4174.27
-4087.1
-3940.79
-3998.94
-3824.25
-3617.59
1840.01
1169.51
-1500.77
-21154.8
-122667
-10715.3
5240.08
5354.61
6530.61
7694.76
13967.3
24715.8
45862.7
91435.9
155991
124953
75484.8
49984.3
35209.8
27092.3
22558.7
19514.2
17145.6
15534.5
14537.9
14139.3
13007.2
12167.8
10681.9
10016.4
9342.49
8303.81
8128.51
7261.88
6992
6419.77
6073.55
5269.2
4635.44
4295.86
3868.02
3139.99
2835.07
2220.04
1981.93
1644.89
1399.73
1254.16
1027.97
826.306
761.284
699.076
818.521
1013.75
1197.2
1450.23
1597.78
1650.4
1599.24
1623.75
1594.29
1516.63
1342.8
1041.91
875.146
603.008
486.73
-28.5424
-340.922
-648.227
-1112.42
-836.516
-2130.82
912.194
-2405.54
-2349.64
-2306.3
-2274.74
-2253.35
-2240.98
-2236.6
-2239.42
-2248.77
-2264.1
-2284.94
-2310.91
-2341.64
-2376.82
-2416.28
-2459.64
-2506.64
-2557.52
-2611.13
-2668.36
-2729.19
-2791.01
-2858.57
-2927.87
-2996.54
-3074.64
-3153
-3229.17
-3310.83
-3406.79
-3492.17
-3567.92
-3665.01
-3768.26
-3850.07
-3919.78
-3965.62
-4026.16
-4134.03
-4234.49
-4102.01
-3908.99
-3755.77
-3767.81
-3348.95
2783.57
2480.98
-4979.02
-53537.3
-96153.7
2278.24
6526.03
7584.89
8757.57
10061.4
22122.4
51113.4
94285.6
151646
126916
81173.1
52924.2
36422.8
26536.3
20893.4
17728.7
15629.9
14194.5
13152.3
12463.9
11985.4
11371.6
11292.9
10567.4
10362.4
10205.1
9610.8
8904.72
8483.55
7925.67
7479.07
6734.85
5626.79
5005.36
4722.02
4276.27
3636.73
3267.11
2517.17
2240.95
1886.58
1626.36
1458.8
1196.97
962.054
873.336
821.948
965.003
1106.46
1298.88
1566.07
1725.85
1799.19
1796.36
1833.07
1774.74
1644.64
1417.89
1137.29
967.317
785.358
515.374
97.8254
-244.138
-551.952
-1027.06
-840.394
-1945.51
737.122
-2377.87
-2323.41
-2281.22
-2250.5
-2229.71
-2217.7
-2213.52
-2216.38
-2225.64
-2240.77
-2261.33
-2286.94
-2317.29
-2352.04
-2390.98
-2433.92
-2480.36
-2530.71
-2584.11
-2640.31
-2700.96
-2762.44
-2828.22
-2897.81
-2966.2
-3040.49
-3120.12
-3196.58
-3272.54
-3365.9
-3455.02
-3530.98
-3615.41
-3720.84
-3800.9
-3866.74
-3933.32
-3963.03
-4027.24
-4084.49
-4051.54
-3913.66
-3794.71
-3703.45
-3784.4
2159.92
-350.319
-15592.6
-113898
-35920.2
4692.49
7394.19
9990.21
14466.5
23510.9
43613.4
92606
158596
130883
82716.3
54378.1
37425.8
27115.2
20886.5
17243.1
14983.6
13344
12139.9
11144.4
10603.7
10193.7
9948.63
10182.6
10226
10346.1
9859.27
9710.6
8756.46
8310.3
7627.56
6891.49
6671.78
6434.45
5557.61
5145.92
5014.74
3921.34
3277.54
2595.76
2496.3
2193.55
1998.02
1813.71
1537.04
1259.26
1051.86
913.773
984.973
1041.96
1230.28
1399.2
1467.62
1411.32
1455.36
1471.64
1423.51
1344.59
1264.13
1076.42
979.198
793.652
583.895
220.136
-100.995
-472.213
-856.711
-754.836
-1726.98
563.419
-2337.29
-2285.09
-2244.76
-2215.49
-2195.8
-2184.61
-2180.99
-2184.21
-2193.65
-2208.81
-2229.27
-2254.67
-2284.73
-2319.14
-2357.65
-2400.17
-2446.16
-2495.8
-2549.02
-2604.39
-2664.26
-2725.97
-2789.45
-2858.99
-2927.92
-2997.61
-3077.01
-3154.29
-3226.91
-3312.98
-3405.79
-3482.62
-3555.87
-3654.58
-3743.26
-3811.29
-3868.98
-3912.06
-3942.19
-3987.8
-4013.1
-3956.61
-3894.75
-3759.79
-4034.33
1667.3
-3218.06
-42354.4
-118784
-2015.82
8365.89
9169.41
12735.5
20716
48499.9
89206
150173
129263
83150.3
54477.1
37570.3
27309.6
20911.7
16983.3
14632.6
13099.3
11932.2
11068.7
10365
9812.94
9356.57
9099.82
9080.28
9357.66
9683.21
9175.27
9383.47
8817.56
8419.86
7965.82
6996.32
6437.62
6246.86
5606.97
4962.07
4963.01
3652.11
3655.01
3354.27
2589.17
2323.33
2167.21
1919.46
1605.03
1293.53
1091.38
966.43
995.004
1015.47
1214.04
1352.89
1406.71
1403.8
1533.05
1640.33
1594.14
1493.96
1388.65
1256.91
1118.18
920.32
674.568
303.848
-49.2894
-467.138
-760.366
-736.293
-1569.05
305.567
-2284.68
-2235.48
-2197.66
-2170.38
-2152.27
-2142.29
-2139.58
-2143.44
-2153.3
-2168.69
-2189.22
-2214.55
-2244.41
-2278.57
-2316.72
-2358.81
-2404.47
-2453.37
-2506.22
-2561.18
-2619.59
-2681.75
-2743.34
-2811.8
-2881.19
-2948.23
-3024.51
-3102.23
-3174.29
-3251.39
-3342.63
-3423.18
-3488.07
-3573.49
-3673.4
-3742.56
-3793.55
-3840.18
-3868.05
-3896.93
-3894.01
-3846.4
-3585.79
-3325.79
-3285.11
3047.28
-10176
-98513.4
-51768
5745.72
6407.73
11713.5
21018.5
39520.3
89062.6
158867
132981
83578.5
54770.6
37629.9
27368.8
21017
16953.8
14434.2
12859.6
11746.7
10830.5
10136
9681.81
9144.29
8645.08
8457.65
8211.33
8264.69
8298.46
8525.78
8393.8
8208.87
7931.73
7917.39
6718.27
6009.67
5714.99
5526.88
4922.04
4658
3647.92
3530.44
3267.36
2398.96
2171.24
2008.61
1916.39
1602.1
1345.01
1158.04
1016.8
1024.82
1024.77
1155.76
1225.95
1205.45
1239.87
1328.66
1353.25
1313.14
1247.64
1226.22
1094.98
931.681
840.711
632.461
421.033
151.986
-223.174
-534.079
-629.011
-1215.82
195.163
-2220.99
-2175.44
-2140.68
-2115.87
-2099.75
-2091.34
-2089.84
-2094.6
-2105.1
-2120.9
-2141.65
-2167.05
-2196.81
-2230.77
-2268.65
-2310.29
-2355.64
-2404
-2456.09
-2511.06
-2567.85
-2629.77
-2691.44
-2756.12
-2826.53
-2893.16
-2963.54
-3040.95
-3114.1
-3183.64
-3268.39
-3350.64
-3416
-3485.95
-3586.03
-3662.39
-3702.71
-3735.47
-3767.66
-3825.25
-3884.65
-3897
-3879.01
-4259.25
-5321.4
-3178.32
-38219.8
-129156
-2740.32
10423.2
11992
19427.1
44489.1
88204.6
147467
129923
82528.2
53582.2
36791.1
26835.8
20717
16788.8
14278.5
12697.7
11671
10893.5
10243.7
9476.55
9109.57
8698.94
8218.57
8125.19
7621.22
7549.57
7119.99
7585.03
7416.37
7401.38
7381.1
7521.56
6315.64
5836.02
5304.44
5032.75
4392.67
4120.48
3399.11
3061.1
2863.85
2565.12
2207.6
2005.92
1851.19
1552.39
1309.55
1175.29
1017.6
983.451
932.858
1034.58
1074.88
1138.01
1219.77
1342.49
1375.6
1389.93
1378.52
1417.04
1269.41
1067.47
969.357
753.897
484.552
160.053
-141.888
-505.048
-627.502
-1018.36
54.1993
-2147.23
-2105.87
-2074.64
-2052.72
-2038.93
-2032.39
-2032.37
-2038.27
-2049.6
-2065.97
-2087.07
-2112.63
-2142.41
-2176.21
-2213.89
-2255.15
-2300.07
-2348.14
-2399.29
-2454.11
-2510.16
-2570.41
-2633.15
-2694.74
-2763.67
-2831.94
-2896.89
-2971.09
-3046.1
-3111.28
-3186.51
-3267.72
-3336.14
-3395.45
-3479.72
-3559.02
-3610.17
-3630.02
-3661.23
-3680.65
-3773.42
-3644.25
-3426
-3390.3
-4201.34
-9718.11
-97526.2
-54912.5
6842.75
9793.61
22402.6
42092.4
86449.1
158611
132894
81871.9
52759.2
35832.9
25954.6
20005.1
16213
13755.9
12158.3
11211.4
10491.7
10019.3
9612.3
9015.6
8685.9
8322.94
7871.07
7631.76
7024.09
6780.37
6417.75
6390.13
6332.89
6381.67
6462.2
6588.05
5717.67
5630.78
4897.61
4572.49
3943.05
3585.54
3388.2
2752.1
2519.22
2316.69
2025.64
1867.94
1712.03
1424.59
1161.83
1062.69
982.557
919.425
881.482
979.569
952.445
1023.76
1060.57
1179.78
1157.31
1202.77
1155.67
1115.07
1040.71
972.625
895.52
914.018
513.936
296.743
25.0658
-224.662
-427.832
-785.274
-9.36577
-2064.44
-2027.71
-2000.38
-1981.67
-1970.52
-1966.12
-1967.79
-1975.01
-1987.33
-2004.41
-2025.98
-2051.79
-2081.65
-2115.38
-2152.86
-2193.86
-2238.27
-2286.06
-2336.59
-2390.65
-2446.76
-2505.12
-2567.67
-2629.32
-2693.82
-2763.36
-2827.17
-2895.57
-2969.44
-3034.67
-3100.29
-3176.11
-3247.22
-3298.8
-3361.22
-3438.63
-3510.45
-3530.62
-3557.93
-3569.86
-3701.19
-3821.65
-4352.36
-5385.98
-10844.2
-38181.3
-131671
-613.55
15815.4
23367.6
45793.7
91134.9
148118
127287
80893.4
51639.1
34692.2
24882.1
19091.7
15433.4
13048
11490.7
10488.2
9888.79
9364.04
9149.73
8793.86
8537
8279.41
8087.79
7545.93
7147.69
6573.76
6267.94
5976.45
5757.44
5528.93
5510.9
5532.95
5522.89
4842.58
5130.94
4331.56
4057.22
3420.1
2870.04
3037.41
2296.36
2157.41
1959.68
1805.46
1661.43
1516.31
1294.76
1107.23
1025.18
876.55
848.142
761.216
859.204
843.767
958.995
981.838
1106.24
1101.21
1237.06
1206.97
1243.7
1192.54
1140.39
1076.24
1025.69
514.388
364.67
40.3163
-107.793
-486.887
-654.682
-339.366
-1973.68
-1941.9
-1918.77
-1903.54
-1895.25
-1893.18
-1896.72
-1905.41
-1918.86
-1936.77
-1958.89
-1985.03
-2015.04
-2048.75
-2086.05
-2126.83
-2170.84
-2218.18
-2268.41
-2321.51
-2377.51
-2435.08
-2496.16
-2558.44
-2620.28
-2687.44
-2753.75
-2818.18
-2886.52
-2952.15
-3013.07
-3080.36
-3150.11
-3196.58
-3241.15
-3307.23
-3377.08
-3400.86
-3400.4
-3369.44
-3331.99
-3150.39
-3399.67
-4545.91
-19644.2
-99837.6
-46695
9643.97
18508.3
48255
92463.3
158639
126749
79129.1
50977.7
33872.5
23893.3
18138.2
14634.9
12394
10881.7
9951.59
9323.96
8875.92
8423.65
8215.85
7846.83
7803.9
7648.39
7382.36
6885.31
6451.86
6162.22
5886.69
5630
5219.49
4933.91
4772.51
4821.12
4606.61
4100.6
4330.72
3646.87
3777.65
3004.21
2515.15
2532.78
1974.77
1892.91
1743.53
1546.3
1398.19
1234.02
1043.72
870.632
761.283
644.404
648.123
595.518
665.604
637.319
769.511
838.709
997.273
925.725
1051.18
991.587
1102.97
996.465
1008.5
956.852
912.345
636.226
445.661
243.621
253.899
-275.355
-274.319
-346.671
-1876.03
-1849.41
-1830.68
-1819.1
-1813.84
-1814.25