/*--------------------------------*- C++ -*----------------------------------*\
| =========                 |                                                 |
| \\      /  F ield         | OpenFOAM: The Open Source CFD Toolbox           |
|  \\    /   O peration     | Version:  2.2.x                                 |
|   \\  /    A nd           | Web:      www.OpenFOAM.org                      |
|    \\/     M anipulation  |                                                 |
\*---------------------------------------------------------------------------*/
FoamFile
{
    version     2.0;
    format      ascii;
    class       volScalarField;
    location    "0.85";
    object      pB;
}
// * * * * * * * * * * * * * * * * * * * * * * * * * * * * * * * * * * * * * //

dimensions      [1 1 -3 0 0 -1 0];

internalField   nonuniform List<scalar> 
14161
(
-7.70889e-07
-3.40857e-08
-3.20163e-07
-5.49178e-07
-8.87283e-07
-1.34344e-06
-1.98882e-06
-2.89485e-06
-4.1581e-06
-5.89746e-06
-8.25696e-06
-1.14036e-05
-1.55366e-05
-2.087e-05
-2.76281e-05
-3.60534e-05
-4.6389e-05
-5.87289e-05
-7.34576e-05
-9.02955e-05
-0.000109277
-0.000132062
-0.000150824
-0.000181901
-0.000204717
-0.000222017
-0.000261774
-0.00026703
-0.000295861
-0.000297382
-0.000281217
-0.000281497
-0.000232057
-0.000174231
-0.000119263
-5.8618e-05
-2.79923e-05
0.000103802
0.000237488
0.000436686
0.000651644
0.0009291
0.00121651
0.00160307
0.0019947
0.00251584
0.00297562
0.00364015
0.00422877
0.00522268
0.00555371
0.00257599
-0.00846951
0.000382772
-0.00139034
0.0049077
0.00353132
0.00419896
0.00303246
0.00265527
0.00258367
0.00233404
0.00193928
0.00180647
0.00148602
0.00131941
0.0010754
0.000672947
0.000677498
0.000498239
0.00023233
-2.5053e-05
-0.000134921
-0.000330101
-0.000609548
-0.00104701
-0.000816019
-0.000747224
-0.00100673
-0.00130022
-0.00131304
-0.00161317
-0.0017045
-0.00192845
-0.00118323
-0.00198438
-0.00275745
-0.00149485
-0.00202064
-0.00257657
-0.00251346
-0.00270138
-0.00291546
-0.0047351
-0.00401063
-0.00561755
-0.00769429
-0.0106726
-0.0171379
-0.0189691
-0.0202652
-0.0123128
-0.00937095
-0.0076323
-0.00601112
-0.00468075
-0.00358906
-0.00264857
-0.002083
-0.00157378
-0.00119307
-0.000688818
-0.000637792
-0.00112654
-0.00133031
-0.00203009
-0.00379933
0.00346704
-0.0354797
-7.73066e-07
-3.38274e-08
-3.22112e-07
-5.51509e-07
-8.90338e-07
-1.34805e-06
-1.99592e-06
-2.90423e-06
-4.16997e-06
-5.91364e-06
-8.27768e-06
-1.14302e-05
-1.5568e-05
-2.09035e-05
-2.7666e-05
-3.61032e-05
-4.64029e-05
-5.88077e-05
-7.34184e-05
-9.03257e-05
-0.000109575
-0.000130713
-0.000153968
-0.000178571
-0.000202802
-0.000227618
-0.000253115
-0.000279507
-0.000280697
-0.000306175
-0.000283583
-0.00026173
-0.000242618
-0.000194344
-0.000125472
-5.82105e-05
-2.73299e-05
9.34559e-05
0.000219953
0.000416888
0.000633868
0.000901868
0.00118834
0.00155493
0.00195343
0.00248161
0.00298065
0.003787
0.00438576
0.00571145
0.00554532
0.00617494
-0.0115621
0.00290616
0.00159297
0.00326484
0.00231155
0.00273352
0.00179148
0.00145992
0.000317549
-7.53385e-05
-0.000250296
-0.000657095
-0.000668546
-0.000802857
-0.00103784
-0.00107834
-0.00170317
-0.00182943
-0.00159126
-0.0014615
-0.00150269
-0.00181121
-0.00220725
-0.0020431
-0.00200677
-0.00178841
-0.00187797
-0.00226456
-0.00288882
-0.00267372
-0.00290011
-0.00292755
-0.00205625
-0.0028112
-0.00342278
-0.00263777
-0.00343063
-0.00364423
-0.00356612
-0.00487253
-0.00504265
-0.00525339
-0.00443603
-0.00491189
-0.0038541
-0.00207316
-0.00119755
0.00208397
0.00291296
0.00208213
0.00120363
0.000757395
0.000673714
0.000402298
0.000203504
0.000153593
7.11721e-05
0.000124118
0.000230192
0.00069901
0.000656522
0.000204979
1.60838e-06
-0.000208485
-0.00276266
0.00488367
-0.0293334
-7.69714e-07
-3.40277e-08
-3.20798e-07
-5.49629e-07
-8.87787e-07
-1.34388e-06
-1.98942e-06
-2.89562e-06
-4.16011e-06
-5.90001e-06
-8.25896e-06
-1.14077e-05
-1.55412e-05
-2.08795e-05
-2.76365e-05
-3.60848e-05
-4.63881e-05
-5.88292e-05
-7.34398e-05
-9.03681e-05
-0.000109804
-0.000130577
-0.000155319
-0.000177813
-0.000203445
-0.000233174
-0.000249809
-0.000283344
-0.000278221
-0.000308875
-0.000301672
-0.000260825
-0.000252954
-0.000222884
-0.000156727
-7.3905e-05
-2.59493e-05
4.66422e-05
0.000158946
0.000322012
0.000523757
0.000787542
0.00107251
0.0014049
0.00177468
0.00226482
0.00272266
0.00339537
0.00397013
0.00477184
0.00302434
0.00495694
-0.0121092
0.00489573
0.00148847
0.00532436
0.00155806
0.00278805
0.00275686
0.00230621
0.00230533
0.0019434
0.00155631
0.000950896
0.000426214
0.000155851
-0.000154418
-0.000397339
-0.000427435
-0.000595949
-0.000761293
-0.00103064
-0.00119417
-0.00124485
-0.00110866
-0.00133612
-0.00151604
-0.00179008
-0.00195349
-0.00178884
-0.00174597
-0.00160692
-0.00219191
-0.00251156
-0.00178489
-0.00235123
-0.00234953
-0.00198823
-0.00267552
-0.00390002
-0.0038986
-0.00391344
-0.00313383
-0.00421099
-0.00478817
-0.00455749
-0.00681822
-0.00853281
-0.00742696
-0.00841108
-0.00357778
0.000635461
0.000863946
-0.00033331
-0.000829668
-0.00110216
-0.00106549
-0.000945241
-0.000717173
-0.000436484
-0.00012439
0.000119302
7.9406e-05
-0.000106047
-0.000334679
-0.000150878
-0.00337822
0.00398142
-0.0262174
-7.68265e-07
-3.41691e-08
-3.20905e-07
-5.49665e-07
-8.87784e-07
-1.34354e-06
-1.98868e-06
-2.89503e-06
-4.15971e-06
-5.89965e-06
-8.25954e-06
-1.14099e-05
-1.55437e-05
-2.08861e-05
-2.76464e-05
-3.60948e-05
-4.64009e-05
-5.88577e-05
-7.34363e-05
-9.05662e-05
-0.00010981
-0.000130648
-0.00015624
-0.000176586
-0.000205199
-0.000235781
-0.000246748
-0.000281266
-0.000296108
-0.000293339
-0.000308524
-0.000283209
-0.000250471
-0.00023505
-0.000199773
-0.000115253
-4.28244e-05
4.59402e-06
9.48706e-05
0.000213029
0.000373043
0.000603781
0.000901111
0.00122065
0.0015243
0.00201078
0.00244934
0.0031571
0.00396425
0.00495538
0.00517354
0.0103569
-0.0188214
0.0106827
0.000942182
0.00448813
0.00302093
0.00169659
0.0033471
0.00128296
0.00114935
0.000584235
0.000559682
0.000159256
0.000249393
-7.53269e-05
1.7873e-05
-0.000213417
-0.000675165
-0.000542811
-0.000928301
-0.000964759
-0.00105687
-0.00129184
-0.00097984
-0.00137285
-0.00196633
-0.00230077
-0.0018709
-0.00212017
-0.0016526
-0.00199897
-0.00258619
-0.00240871
-0.00204629
-0.0031162
-0.0019282
-0.00327023
-0.00364688
-0.00395462
-0.00289085
-0.00375438
-0.00478729
-0.00337098
-0.00484835
-0.00443351
-0.00368621
-0.00145367
-0.00242381
-0.00213183
-0.00180162
0.000450035
6.35051e-06
-4.49334e-05
0.000241019
0.000353311
0.000340418
0.000278287
0.000196699
0.000238968
0.000328271
0.000508427
0.000291247
-2.20941e-05
-0.000466685
-4.45918e-05
-0.00322548
0.00326804
-0.0227874
-7.64481e-07
-3.42489e-08
-3.20192e-07
-5.48237e-07
-8.85191e-07
-1.3401e-06
-1.98413e-06
-2.8885e-06
-4.15058e-06
-5.88784e-06
-8.24531e-06
-1.13932e-05
-1.55237e-05
-2.08649e-05
-2.76333e-05
-3.60725e-05
-4.64064e-05
-5.88715e-05
-7.35102e-05
-9.0655e-05
-0.000109802
-0.000131316
-0.000155674
-0.00017782
-0.000206087
-0.000236015
-0.000250227
-0.000281074
-0.000313053
-0.000286165
-0.000321565
-0.000323938
-0.000268367
-0.000231425
-0.000249522
-0.000212832
-0.000133748
-5.24842e-05
1.24403e-05
9.13111e-05
0.000175089
0.000312745
0.000517439
0.000827734
0.00110016
0.0015184
0.00187146
0.00243411
0.00306362
0.00381996
0.00418274
0.00877442
-0.0140591
0.00824047
0.00208207
0.00495179
0.00357928
0.00181646
0.00258613
0.00264494
0.00175056
0.000699701
0.000987013
0.000256989
-2.22645e-05
-5.41346e-05
-0.000214294
-0.000161889
-0.000478055
-0.000662564
-0.000860132
-0.000706012
-0.000920623
-0.00121049
-0.00106864
-0.00119229
-0.00154392
-0.00187249
-0.00139647
-0.00206495
-0.00169611
-0.00216725
-0.0027565
-0.00224577
-0.00297812
-0.00320851
-0.00176506
-0.00234058
-0.00208836
-0.00350619
-0.00413797
-0.00368879
-0.00408144
-0.0026827
-0.00528559
-0.00476481
-0.0043814
-0.00311878
-0.00220757
-0.00185366
0.00065088
0.00103208
0.000845222
0.000586441
0.000525914
0.000436051
0.000340749
0.000255769
0.000172582
0.00017183
0.000254486
0.000444739
0.000256672
4.7077e-05
-0.000569533
-0.000220424
-0.00284297
0.00257489
-0.0194793
-7.60891e-07
-3.44602e-08
-3.1966e-07
-5.46904e-07
-8.83066e-07
-1.33734e-06
-1.98013e-06
-2.88281e-06
-4.14358e-06
-5.87884e-06
-8.23347e-06
-1.13799e-05
-1.55086e-05
-2.08477e-05
-2.76239e-05
-3.60542e-05
-4.64161e-05
-5.88729e-05
-7.35721e-05
-9.07172e-05
-0.000109959
-0.000132167
-0.000154875
-0.000180879
-0.000206083
-0.000233965
-0.000259666
-0.000277426
-0.000312433
-0.000305521
-0.000309751
-0.000341379
-0.000323425
-0.000261265
-0.000255456
-0.0002867
-0.000254249
-0.000190126
-9.54245e-05
-4.27456e-05
-6.27782e-06
2.50857e-05
6.38464e-05
0.000202032
0.00052762
0.000859035
0.00106814
0.00146131
0.00200192
0.00282526
0.00378621
0.00604356
0.000260258
0.00608066
0.00431419
0.00453229
0.00401634
0.00222241
0.00194894
0.000458732
0.00134081
0.00020722
0.000966925
0.000147719
0.000123749
9.04998e-05
-0.000523961
-0.000505314
-0.000522667
-0.000749282
-0.000782064
-0.00112113
-0.00105466
-0.00102838
-0.00134948
-0.00168993
-0.00129526
-0.00168061
-0.00153321
-0.00209456
-0.00175567
-0.00207319
-0.00182594
-0.00140373
-0.00201346
-0.00176367
-0.00151031
-0.00333925
-0.00378242
-0.00360348
-0.00269129
-0.00236256
-0.00430839
-0.00388333
-0.00204207
-0.00107605
-0.00147618
-0.00252427
-0.00181564
-0.000308996
0.000759205
0.000469353
0.00111887
0.000767199
0.000683979
0.000530171
0.000460869
0.000437577
0.000387872
0.000321339
0.000334888
0.000458748
0.0002298
1.64956e-05
-0.000651502
-0.000354017
-0.00257616
0.00197711
-0.0166543
-7.55389e-07
-3.45503e-08
-3.18442e-07
-5.44716e-07
-8.79343e-07
-1.33175e-06
-1.97248e-06
-2.87205e-06
-4.12961e-06
-5.86149e-06
-8.21087e-06
-1.13538e-05
-1.54781e-05
-2.0809e-05
-2.75941e-05
-3.6031e-05
-4.64134e-05
-5.88874e-05
-7.36703e-05
-9.07959e-05
-0.000110326
-0.000132615
-0.000154909
-0.000183383
-0.000207668
-0.000232444
-0.000268778
-0.000286434
-0.000305654
-0.000340943
-0.000331205
-0.000321002
-0.000374092
-0.000363725
-0.000304028
-0.000289618
-0.000353381
-0.000359148
-0.00033848
-0.000263539
-0.000222181
-0.000247473
-0.000323761
-0.000357696
-0.000492797
-0.000289453
-0.000352796
-0.00027984
-0.000110375
0.000109261
0.000922931
-0.00109705
0.0100898
0.00405296
0.00428405
0.00551858
0.00455055
0.00203819
0.00210322
0.00192769
0.000599787
0.00126759
0.000711725
0.000401916
-0.000423479
-0.000475942
-0.000633983
-0.000852068
-0.00076916
-0.000903503
-0.00137261
-0.00120103
-0.00115409
-0.00152775
-0.00144732
-0.00134054
-0.00173592
-0.00180055
-0.00141621
-0.00187651
-0.00170607
-0.00185929
-0.00164085
-0.00134461
-0.00223013
-0.00265076
-0.00253319
-0.0029416
-0.0028675
-0.00239992
-0.00313726
-0.00355273
-0.00239304
-0.00216502
-0.00187612
-0.00246203
-0.00214614
-0.00157549
-0.00075556
0.000262633
0.00010804
0.000923282
0.000965029
0.000762254
0.00067342
0.000593419
0.000572784
0.000521681
0.000429343
0.000334711
0.000337161
0.000434859
0.000179239
-2.83855e-06
-0.000688999
-0.00038328
-0.00227241
0.00154239
-0.0141155
-7.4974e-07
-3.48532e-08
-3.17065e-07
-5.42556e-07
-8.7546e-07
-1.32586e-06
-1.96477e-06
-2.86181e-06
-4.11472e-06
-5.84275e-06
-8.188e-06
-1.13259e-05
-1.54467e-05
-2.07711e-05
-2.75578e-05
-3.60085e-05
-4.63868e-05
-5.8915e-05
-7.37426e-05
-9.09174e-05
-0.000110748
-0.000132733
-0.000156288
-0.000184163
-0.000210542
-0.000233639
-0.000272888
-0.000298049
-0.000295295
-0.000360243
-0.000364481
-0.000329238
-0.000375277
-0.000431038
-0.000412908
-0.000363452
-0.000374059
-0.000489008
-0.000561942
-0.000573926
-0.000552432
-0.000558752
-0.000656477
-0.000876398
-0.00127951
-0.00139735
-0.00165366
-0.00191202
-0.00241751
-0.00289018
-0.00133682
-0.00321187
0.0332524
-0.00581447
0.0138273
0.00442115
0.00713338
0.00308481
0.00318951
0.00102185
0.00111487
0.000892223
0.000222891
-0.000223653
-0.000511548
-0.000735652
-0.000548514
-0.000678787
-0.0010341
-0.00096385
-0.00110775
-0.00133066
-0.00102382
-0.00114866
-0.00114637
-0.0011159
-0.00114832
-0.00144069
-0.00155912
-0.00167536
-0.00124522
-0.00114458
-0.00224252
-0.00255088
-0.00223321
-0.00179234
-0.00116646
-0.00245252
-0.00276648
-0.00327264
-0.00207571
-0.00373475
9.92177e-05
-0.00199522
-0.00205856
-0.0018439
-0.00131311
-0.000717101
-0.000329506
-0.000215209
0.000496132
0.000572694
0.000684311
0.000663404
0.000681431
0.000651779
0.000622354
0.000542227
0.000427468
0.000316752
0.000309138
0.000361319
8.26962e-05
-3.90968e-05
-0.000737586
-0.000451603
-0.00209633
0.001182
-0.0120662
-7.42254e-07
-3.50324e-08
-3.14993e-07
-5.39119e-07
-8.69992e-07
-1.31765e-06
-1.95309e-06
-2.84637e-06
-4.09381e-06
-5.81505e-06
-8.15295e-06
-1.12824e-05
-1.53972e-05
-2.07146e-05
-2.74968e-05
-3.59678e-05
-4.63394e-05
-5.89512e-05
-7.37935e-05
-9.10935e-05
-0.000111134
-0.00013308
-0.000158325
-0.000183937
-0.000212353
-0.000240038
-0.000270587
-0.000299893
-0.000323315
-0.000349045
-0.000383056
-0.000408315
-0.000396076
-0.000423982
-0.00049182
-0.000529425
-0.000505392
-0.000517725
-0.000642621
-0.000789544
-0.00090492
-0.000972021
-0.00108363
-0.00130705
-0.00177911
-0.00234018
-0.00314258
-0.00404959
-0.00626875
-0.0101319
-0.0150042
-0.0264269
0.0201232
0.0187155
0.00776935
0.00336372
0.000879612
0.00208206
0.0006619
0.000270105
-0.000492849
6.39983e-05
-0.00119499
-0.000789342
-0.000660913
-0.000841794
-0.000851783
-0.00101311
-0.000849659
-0.000621666
-0.000833973
-0.000839119
-0.000818829
-0.000992763
-0.00110327
-0.00114657
-0.00125252
-0.00122655
-0.00115904
-0.00165507
-0.00205962
-0.00159365
-0.00174646
-0.00145791
-0.00146497
-0.00190891
-0.00226485
-0.00233101
-0.00119103
-0.00370493
0.00253159
-0.000672143
-0.00173978
-0.00128205
-0.00171815
-0.00127068
-0.000535015
-0.000613902
-0.000649908
6.11246e-05
0.000339467
0.000398199
0.000549365
0.000599002
0.000613005
0.000584896
0.000551142
0.000481884
0.000372117
0.000275641
0.000258237
0.000243795
1.55794e-06
-5.56322e-05
-0.000744513
-0.000449364
-0.0019203
0.000930137
-0.0103452
-7.34356e-07
-3.53774e-08
-3.12856e-07
-5.35333e-07
-8.6423e-07
-1.30909e-06
-1.94069e-06
-2.82937e-06
-4.07128e-06
-5.78585e-06
-8.11525e-06
-1.12343e-05
-1.5344e-05
-2.06512e-05
-2.74286e-05
-3.59168e-05
-4.62948e-05
-5.89481e-05
-7.38595e-05
-9.13049e-05
-0.000111472
-0.000133413
-0.000160032
-0.000184794
-0.000214326
-0.000247782
-0.000270095
-0.000304462
-0.000351774
-0.000351438
-0.000382064
-0.000454809
-0.000453204
-0.00043669
-0.000520418
-0.000624628
-0.000639555
-0.00063175
-0.000709478
-0.000897004
-0.00108073
-0.00121903
-0.00138773
-0.0015593
-0.00191624
-0.00238809
-0.00318925
-0.00389978
-0.00461127
-0.00506401
-0.00436933
0.00311891
0.010963
0.0562872
0.00685099
0.00303533
-0.0010425
-0.00020491
-0.00170804
-0.000393991
-0.00127444
-0.000781982
-0.00111767
-0.00146728
-0.00123578
-0.00111911
-0.000925264
-0.00119213
-0.00103069
-0.000956238
-0.00106745
-0.000979061
-0.000763654
-0.000717128
-0.000811981
-0.000650708
-0.00120953
-0.0018241
-0.00117441
-0.0013903
-0.00221254
-0.00166043
-0.00105102
-0.00175782
-0.0017481
-0.00109827
-0.00118379
-0.00166012
0.00244825
-0.000990731
-0.00084184
-0.0011238
-0.000859622
-0.00136749
-0.00107411
-0.000528642
-0.000722813
-0.000701907
-0.000442287
0.000161551
0.000200038
0.000377741
0.000506078
0.000564408
0.000563386
0.00053638
0.000491434
0.000430496
0.000320935
0.000236227
0.000179118
6.91357e-05
-7.42919e-05
-0.000111728
-0.000778934
-0.000465324
-0.00183023
0.000711765
-0.00902968
-7.24641e-07
-3.54319e-08
-3.10132e-07
-5.30421e-07
-8.5644e-07
-1.29769e-06
-1.9244e-06
-2.80721e-06
-4.04091e-06
-5.74539e-06
-8.06512e-06
-1.11694e-05
-1.52696e-05
-2.05666e-05
-2.73279e-05
-3.58321e-05
-4.62372e-05
-5.88899e-05
-7.39688e-05
-9.15249e-05
-0.000111826
-0.000134583
-0.00016047
-0.000187303
-0.000217098
-0.000250835
-0.000278292
-0.000311191
-0.000355593
-0.000381107
-0.00040457
-0.000454819
-0.000501362
-0.000530693
-0.000558141
-0.000625011
-0.000707701
-0.000781422
-0.000850931
-0.000950748
-0.00112549
-0.00128807
-0.00150275
-0.00174218
-0.00201958
-0.00233104
-0.00293058
-0.00322877
-0.00394852
-0.00412547
-0.00434003
-0.00125345
0.0159836
0.0359829
-0.00622353
0.00513333
-0.00110575
-0.00277337
-0.0018546
-0.00188533
-0.00220566
-0.00236767
-0.00170487
-0.00101613
-0.00111464
-0.00106063
-0.0010499
-0.00108382
-0.00097466
-0.000792338
-0.000959211
-0.000895851
-0.00059094
-0.00131467
-0.00186465
-0.00114771
-0.00114839
-0.0019069
-0.00102688
-0.00111727
-0.00233819
-0.000965368
-0.00124168
0.000230413
-0.00116688
-0.000925872
0.00209827
0.000685475
-0.000247194
-0.000566519
-0.000234605
-0.000542648
-0.000997829
-0.000801186
-0.000641666
-0.000608549
-0.0006378
-0.00046595
-0.000103788
0.000138078
0.000154044
0.000323545
0.000419599
0.000437762
0.000442134
0.000445037
0.000413662
0.000375679
0.000262073
0.000163417
0.000113056
-7.15697e-05
-0.000134745
-0.000169477
-0.000798845
-0.000446713
-0.00171575
0.000574221
-0.00794101
-7.14271e-07
-3.5733e-08
-3.0716e-07
-5.25067e-07
-8.48025e-07
-1.28552e-06
-1.90652e-06
-2.78274e-06
-4.00903e-06
-5.7015e-06
-8.00839e-06
-1.10979e-05
-1.51853e-05
-2.04764e-05
-2.72112e-05
-3.57218e-05
-4.61636e-05
-5.87931e-05
-7.40555e-05
-9.16645e-05
-0.000111981
-0.000135526
-0.000161257
-0.000189971
-0.000220723
-0.000251931
-0.000288837
-0.000320769
-0.000355046
-0.000402458
-0.000439968
-0.000458239
-0.000520859
-0.000591472
-0.000613984
-0.000637235
-0.000737514
-0.00085187
-0.000931585
-0.000974588
-0.00110199
-0.00124211
-0.00143342
-0.00163234
-0.00181417
-0.00198606
-0.00217238
-0.00243381
-0.00217648
-0.00157248
-0.000170452
0.00519886
0.0352893
0.00363839
-0.00440562
-0.00184649
-0.00528465
-0.00278851
-0.00350774
-0.00208135
-0.00189934
-0.00112076
-0.00107664
-0.000894766
-0.00104885
-0.00103464
-0.000870376
-0.00141614
-0.00115557
-0.000759006
-0.00121918
-0.00165611
-0.000767758
-0.000835423
-0.00201442
-0.00116442
-0.000777562
-0.00178248
-0.000448593
-0.00129955
-5.94648e-05
6.21223e-05
-0.00209246
0.00249585
0.00271232
0.0016281
0.000159419
0.00038212
0.000609876
-0.000105495
-0.000170878
-0.000567691
-0.00049175
-0.000700329
-0.000422123
-0.000506852
-0.000411204
-0.000254214
2.71086e-05
0.000154107
0.000201039
0.000319744
0.000362737
0.000369853
0.000369763
0.000370798
0.000346304
0.000314445
0.000162885
6.83784e-05
-1.05974e-06
-0.000179649
-0.00017759
-0.000237517
-0.000816026
-0.000446929
-0.00161636
0.000460671
-0.00705914
-7.02032e-07
-3.57426e-08
-3.03404e-07
-5.18545e-07
-8.37387e-07
-1.27041e-06
-1.88489e-06
-2.7514e-06
-3.9674e-06
-5.64808e-06
-7.93771e-06
-1.10051e-05
-1.50683e-05
-2.03571e-05
-2.70678e-05
-3.55592e-05
-4.605e-05
-5.86781e-05
-7.4059e-05
-9.18207e-05
-0.000112327
-0.000136361
-0.000161698
-0.000192156
-0.000224237
-0.000254873
-0.000295059
-0.000331689
-0.000364887
-0.000412647
-0.000459018
-0.000496038
-0.000544071
-0.000603993
-0.00065497
-0.00069892
-0.000775387
-0.00086442
-0.000938125
-0.000971562
-0.00106075
-0.00117257
-0.00130874
-0.00137054
-0.00153246
-0.0015998
-0.0016223
-0.00182365
-0.00184351
-0.00221213
-0.00202838
0.0102579
0.0205459
0.00125414
0.00315118
0.00363688
0.00253559
0.0020711
-0.00122261
-0.000768383
-0.00280518
-0.00274434
-0.00185693
-0.00156042
-0.00150113
-0.00154116
-0.00110646
-0.0015729
-0.00138329
-0.000416076
-0.00112524
-0.00184463
-0.000850958
-0.000555931
-0.00194801
-0.000451588
-0.00117801
0.00035527
0.000416914
-0.00166312
0.00166428
0.00323171
0.00123078
0.0013662
0.00101462
0.00153781
0.00109711
0.000512746
0.000260122
0.000169147
-0.000105819
-0.000148764
-0.00059627
-7.98564e-05
-0.000343347
-0.000240442
-0.000185674
-8.55613e-05
0.000184169
0.000267363
0.000276762
0.000326566
0.000317971
0.000331055
0.000336828
0.000353783
0.000322761
0.000272176
9.85762e-05
7.66276e-06
-8.58599e-05
-0.000214699
-0.000171803
-0.000306655
-0.000773345
-0.000390561
-0.00144802
0.000426819
-0.00627919
-6.88852e-07
-3.59817e-08
-2.99307e-07
-5.1161e-07
-8.25734e-07
-1.2533e-06
-1.86165e-06
-2.71816e-06
-3.9205e-06
-5.58659e-06
-7.86106e-06
-1.09069e-05
-1.49373e-05
-2.0208e-05
-2.69098e-05
-3.53707e-05
-4.58941e-05
-5.85322e-05
-7.39363e-05
-9.19727e-05
-0.000112635
-0.00013685
-0.000163075
-0.000193605
-0.000225987
-0.000261436
-0.000298311
-0.000340102
-0.000380782
-0.000420695
-0.000470083
-0.000525532
-0.000564864
-0.000610272
-0.000673866
-0.000742437
-0.000792572
-0.000845255
-0.000909808
-0.00096842
-0.00104022
-0.00110666
-0.001154
-0.00119515
-0.00118749
-0.00113101
-0.00111052
-0.000964195
-0.000819221
0.000113318
0.000227822
0.0240924
0.00910506
0.00225351
-0.000753281
-0.00096732
-0.000117896
0.00172737
-0.00123813
-0.00234408
-0.00112005
-0.00070711
-0.00134614
-0.00123056
-0.00175677
-0.00101108
-0.000936521
-0.00175203
-0.00174332
-0.000952827
-0.00107551
-0.00163796
-0.000117244
-0.000925975
0.000306145
0.000322352
-0.00178427
0.00193663
0.00323924
0.00166519
0.00121154
0.0016725
0.00109839
0.00207741
0.0012474
0.00118492
0.000820242
0.000696221
0.000526567
0.000206598
7.84591e-05
-0.000408974
0.000118055
-0.000228112
-4.23085e-05
-0.000115691
1.49038e-05
6.83092e-05
0.000250526
0.000281653
0.000278425
0.000306777
0.000304495
0.000316076
0.000331204
0.000341358
0.000274577
0.00021389
4.73336e-05
-3.08289e-05
-0.000117909
-0.000227129
-0.000150764
-0.000348091
-0.000689065
-0.000346561
-0.0013272
0.000377714
-0.00564966
-6.73743e-07
-3.601e-08
-2.94216e-07
-5.03192e-07
-8.12453e-07
-1.23278e-06
-1.83261e-06
-2.67914e-06
-3.86582e-06
-5.50994e-06
-7.76285e-06
-1.07891e-05
-1.47816e-05
-2.00125e-05
-2.66995e-05
-3.51165e-05
-4.56774e-05
-5.83459e-05
-7.37109e-05
-9.20559e-05
-0.000112817
-0.000137032
-0.000164661
-0.00019431
-0.000228825
-0.000266055
-0.000303463
-0.000345594
-0.000390298
-0.000433988
-0.000483038
-0.000537576
-0.000586459
-0.000635509
-0.0006937
-0.000759213
-0.000800302
-0.00084358
-0.000887062
-0.000948627
-0.000994563
-0.00102946
-0.00100679
-0.000948837
-0.000846895
-0.000698038
-0.000516586
-0.000193174
0.00033962
0.00166856
0.00707611
0.0266158
-0.00721229
-0.00125696
-0.00319085
-0.00289047
-0.00188668
-0.00181047
-0.0015657
-0.00113431
-0.0021103
-0.00292373
-0.00123658
-0.00153797
-0.0017673
-0.0011095
-0.0020607
-0.000530134
-0.00218272
0.000398768
-0.000837985
0.000297136
0.000706265
-0.00190668
0.00172867
0.00359565
0.00174173
0.00142398
0.00175795
0.00135487
0.00212724
0.0019587
0.00123538
0.00151644
0.0012164
0.00115567
0.000876592
0.000642209
0.00046249
0.000337408
6.89172e-05
0.000273801
3.4126e-06
0.000140748
7.27696e-05
0.000132982
0.000179304
0.000268636
0.000357262
0.000389847
0.000372072
0.000362736
0.000316695
0.000318687
0.000329839
0.000325773
0.00024203
0.000161137
1.97037e-05
-3.92842e-05
-0.000107848
-0.000253859
-0.000144016
-0.000350055
-0.000600622
-0.000315843
-0.00121764
0.000350658
-0.00508132
-6.57387e-07
-3.62035e-08
-2.88893e-07
-4.93715e-07
-7.97822e-07
-1.21091e-06
-1.80028e-06
-2.63475e-06
-3.80634e-06
-5.42724e-06
-7.64934e-06
-1.06511e-05
-1.46105e-05
-1.97924e-05
-2.64548e-05
-3.48134e-05
-4.53645e-05
-5.81301e-05
-7.33865e-05
-9.19519e-05
-0.000112947
-0.000137292
-0.0001659
-0.000195115
-0.000230267
-0.00026896
-0.000308052
-0.000350706
-0.000397636
-0.000448316
-0.00049235
-0.000542461
-0.000601815
-0.000656506
-0.000700036
-0.000757975
-0.000809205
-0.000859798
-0.000886427
-0.000939242
-0.000966285
-0.000953749
-0.00093106
-0.000902739
-0.000873584
-0.000856631
-0.00092696
-0.000847633
-0.00107332
-0.000659331
0.00711042
0.017506
-0.00176721
0.00307667
-0.00129671
-4.51279e-05
-0.00126332
-0.00138606
-0.0034791
0.00269994
-0.00450423
-0.000791708
8.37829e-05
-0.00238252
0.000407037
-0.00353577
0.0014335
-0.00106192
-0.000390128
0.000467181
-0.00290578
0.00197285
0.00381158
0.00107134
0.00124403
0.00146535
0.00198103
0.00208682
0.00215784
0.00165952
0.00152876
0.00163749
0.00148041
0.00140456
0.00105592
0.000993536
0.000800772
0.000589586
0.000427597
0.000263891
0.000131945
6.81071e-05
6.59462e-05
9.61039e-05
0.000133535
0.000203545
0.000264346
0.000304875
0.000316961
0.000322132
0.00030611
0.000297
0.000258991
0.000290523
0.000298473
0.00029077
0.00019812
0.000114673
1.85681e-05
-4.95311e-05
-8.11376e-05
-0.000301803
-0.000158207
-0.00033836
-0.0005164
-0.000291966
-0.00112782
0.000331715
-0.00459244
-6.38965e-07
-3.61451e-08
-2.8275e-07
-4.82853e-07
-7.80352e-07
-1.18569e-06
-1.76347e-06
-2.58165e-06
-3.73464e-06
-5.3332e-06
-7.51752e-06
-1.04782e-05
-1.44013e-05
-1.9526e-05
-2.61535e-05
-3.44485e-05
-4.49255e-05
-5.77897e-05
-7.29809e-05
-9.16006e-05
-0.000112994
-0.000137347
-0.000166335
-0.000196754
-0.000231803
-0.000271622
-0.000312256
-0.000356254
-0.000403366
-0.000457839
-0.000502272
-0.000550278
-0.000613965
-0.000675049
-0.00070811
-0.000754314
-0.000817991
-0.00087676
-0.00089702
-0.000930152
-0.000945842
-0.000968503
-0.000949836
-0.000940354
-0.000909754
-0.000922569
-0.00087888
-0.000874092
-0.00063708
-0.00112982
0.0151507
0.0124946
-5.13421e-05
0.000443212
-0.00179218
-0.00124249
-0.00160332
-0.00142112
-0.00378813
-0.00451906
-0.00368438
-0.00140766
-0.0037917
-0.00233501
0.00205105
-0.00192655
0.00204931
-0.000729196
0.00117706
0.00431495
0.00111007
0.00118187
0.0017017
0.00202951
0.00177568
0.00235277
0.00181977
0.00157044
0.00203804
0.00167372
0.00177244
0.00169063
0.00120482
0.00116384
0.000985974
0.000803966
0.000682422
0.000538282
0.000496833
0.000240727
0.000449477
0.000317653
0.000422711
0.000372965
0.00037922
0.000358006
0.000383356
0.000401269
0.000425971
0.000374488
0.000340719
0.000309908
0.0002664
0.000283453
0.000271891
0.000248199
0.000145946
9.71143e-05
2.7071e-05
-6.70162e-05
-8.96959e-05
-0.000333666
-0.000172852
-0.000317325
-0.000466781
-0.000280665
-0.00105501
0.0003042
-0.00415965
-6.19002e-07
-3.62437e-08
-2.75927e-07
-4.71118e-07
-7.61339e-07
-1.15743e-06
-1.72305e-06
-2.52368e-06
-3.65318e-06
-5.22623e-06
-7.37488e-06
-1.02827e-05
-1.41575e-05
-1.92143e-05
-2.57948e-05
-3.40454e-05
-4.43836e-05
-5.73008e-05
-7.24855e-05
-9.0995e-05
-0.000112895
-0.000137066
-0.000166168
-0.000198311
-0.000232725
-0.0002731
-0.000315946
-0.000357965
-0.000410723
-0.000461874
-0.000511754
-0.000562173
-0.000620728
-0.000685056
-0.000729116
-0.000761136
-0.000822342
-0.000896228
-0.000931473
-0.000939466
-0.000945097
-0.000996113
-0.000986891
-0.000952275
-0.000870253
-0.00076139
-0.000422265
-0.000159713
0.00116136
0.00434045
0.0255424
-0.00418982
-0.00137582
-0.00226384
-0.0019149
-0.00242146
-0.00230925
-0.0026815
-0.00348865
-0.00258324
5.40016e-05
-0.00457955
-0.00661505
-0.000794489
-0.000418373
0.00332543
0.00463341
0.00185096
0.00187444
0.00239968
0.00217425
0.00227059
0.00227403
0.00211859
0.00169039
0.0021523
0.00211846
0.00171724
0.00162422
0.00132813
0.00141991
0.00125653
0.00107462
0.000984252
0.000784244
0.000537267
0.000414883
0.000254535
0.000277397
0.000192699
0.000181592
0.00016585
0.000117418
9.78203e-05
0.000167798
0.000177942
0.000140692
0.00011019
0.00014077
0.00016646
0.000125064
0.000125396
0.000132063
0.000200996
0.000203151
0.000177058
9.51236e-05
8.07166e-05
3.20372e-05
-7.64426e-05
-0.000116074
-0.000332402
-0.000182069
-0.000291924
-0.000432718
-0.000253745
-0.000965384
0.000280881
-0.00375129
-5.96833e-07
-3.62291e-08
-2.68067e-07
-4.57564e-07
-7.39801e-07
-1.12516e-06
-1.67643e-06
-2.45792e-06
-3.55969e-06
-5.09798e-06
-7.20902e-06
-1.00596e-05
-1.38702e-05
-1.88434e-05
-2.53297e-05
-3.35552e-05
-4.37352e-05
-5.66036e-05
-7.1857e-05
-9.01294e-05
-0.000112421
-0.000136668
-0.00016577
-0.000199163
-0.000233571
-0.000273834
-0.000319491
-0.000362829
-0.000411308
-0.000467173
-0.00052087
-0.000572965
-0.000625563
-0.000689272
-0.000749248
-0.000789326
-0.000828897
-0.000903148
-0.000972732
-0.000986095
-0.000990552
-0.00101823
-0.0011008
-0.00113881
-0.00112914
-0.00110365
-0.000782441
-0.000589572
-8.47228e-05
0.00642976
0.0216701
-0.000308971
0.000378741
1.68301e-05
-9.34607e-05
-0.00064909
-0.000327882
0.0014905
0.00135834
-0.0048791
-0.00469623
-0.00138144
0.000621165
0.00273012
0.00237738
0.00276581
0.00321353
0.00314572
0.00308311
0.00274824
0.00201345
0.00186288
0.00188196
0.00189047
0.00185089
0.00160164
0.00170896
0.00132467
0.00147169
0.00112918
0.00112279
0.00095415
0.000624379
0.000526211
0.000486818
0.000400449
0.000411728
0.000406553
0.000506125
0.000341341
0.000289108
0.00023233
0.000187451
0.000211929
0.000314914
0.000404904
0.000493948
0.000510347
0.000486956
0.000409437
0.000345811
0.000293318
0.000274381
0.000259954
0.000207549
0.000167108
8.73703e-05
7.38398e-05
2.22061e-05
-8.15554e-05
-0.000141091
-0.000354433
-0.000206009
-0.00030651
-0.000418862
-0.000254105
-0.000909026
0.000224029
-0.00338363
-5.72763e-07
-3.62157e-08
-2.59651e-07
-4.42834e-07
-7.15976e-07
-1.08961e-06
-1.62483e-06
-2.38521e-06
-3.45741e-06
-4.95434e-06
-7.01735e-06
-9.80793e-06
-1.35435e-05
-1.84316e-05
-2.47801e-05
-3.29443e-05
-4.29994e-05
-5.57024e-05
-7.10652e-05
-8.90364e-05
-0.000111421
-0.000136142
-0.000164701
-0.000199277
-0.000234259
-0.000274323
-0.000320987
-0.000368312
-0.000413872
-0.000470492
-0.000529167
-0.000580687
-0.000636487
-0.000697819
-0.000762886
-0.000824403
-0.000856084
-0.000905246
-0.000998497
-0.00106036
-0.001096
-0.00110933
-0.00122568
-0.00136609
-0.0014858
-0.00177734
-0.00186823
-0.00237715
-0.0028857
0.0122515
0.0149005
-0.00104277
0.00155826
0.000166387
4.60584e-05
0.000181582
-0.000585074
-0.0021961
-0.00157074
-0.00601085
-0.00318163
-0.00186225
0.000939797
0.00153707
0.00229849
0.00253072
0.00267952
0.00240736
0.00233482
0.00221604
0.00198572
0.00157222
0.00147898
0.00129925
0.00111302
0.000988303
0.00108682
0.000731296
0.000768246
0.000629979
0.000686953
0.000722172
0.000664142
0.000641111
0.000606658
0.000461248
0.000462892
0.00044639
0.000414581
0.000344206
0.000224371
0.000147332
0.000102049
0.000141503
0.000195429
0.000207805
0.000266441
0.000258829
0.000231843
0.000205145
0.000158818
0.000130108
0.000114331
0.000132859
0.000101459
7.3956e-05
3.29159e-05
3.79411e-05
-7.38367e-06
-9.02585e-05
-0.000142737
-0.000334403
-0.000210825
-0.00031991
-0.000379806
-0.000241558
-0.000813295
0.000197064
-0.00299411
-5.46322e-07
-3.6107e-08
-2.50061e-07
-4.26364e-07