/*--------------------------------*- C++ -*----------------------------------*\
| =========                 |                                                 |
| \\      /  F ield         | OpenFOAM: The Open Source CFD Toolbox           |
|  \\    /   O peration     | Version:  2.2.x                                 |
|   \\  /    A nd           | Web:      www.OpenFOAM.org                      |
|    \\/     M anipulation  |                                                 |
\*---------------------------------------------------------------------------*/
FoamFile
{
    version     2.0;
    format      ascii;
    class       volScalarField;
    location    "2.85";
    object      Bz;
}
// * * * * * * * * * * * * * * * * * * * * * * * * * * * * * * * * * * * * * //

dimensions      [1 0 -2 0 0 -1 0];

internalField   nonuniform List<scalar> 
14161
(
-3.73841e-20
-3.75462e-20
-3.74172e-20
-3.71827e-20
-3.62249e-20
-3.88247e-20
-3.61016e-20
-3.68761e-20
-3.71421e-20
-3.63748e-20
-3.82331e-20
-3.59335e-20
-3.81891e-20
-3.64303e-20
-3.70896e-20
-3.69866e-20
-3.71087e-20
-3.69167e-20
-3.67212e-20
-3.68599e-20
-3.69232e-20
-3.65141e-20
-3.67518e-20
-3.64247e-20
-3.68154e-20
-3.65336e-20
-3.62406e-20
-3.61652e-20
-3.57547e-20
-3.59522e-20
-3.54546e-20
-3.54468e-20
-3.52916e-20
-3.52889e-20
-3.51105e-20
-3.51292e-20
-3.49743e-20
-3.50134e-20
-3.48634e-20
-3.50146e-20
-3.47201e-20
-3.36043e-20
-4.15227e-20
1.06757e-22
2.21102e-19
2.91164e-18
1.13005e-17
1.76608e-17
1.18202e-17
9.72535e-18
9.08532e-18
9.01777e-18
8.38863e-18
7.5094e-18
6.63015e-18
5.93938e-18
5.25081e-18
4.63453e-18
4.20997e-18
3.83116e-18
3.4958e-18
3.17026e-18
2.89254e-18
2.7308e-18
2.55435e-18
2.37415e-18
2.25586e-18
2.16564e-18
2.09398e-18
1.89451e-18
1.85514e-18
1.6831e-18
1.58971e-18
1.54774e-18
1.28279e-18
1.00507e-18
9.76662e-19
9.87546e-19
7.09058e-19
3.29989e-19
9.24696e-20
-2.08169e-19
-4.98342e-19
-7.28144e-19
-9.84247e-19
-1.26482e-18
-1.73877e-18
-1.9699e-18
-2.48701e-18
-2.80259e-18
-3.03203e-18
-3.37972e-18
-3.84152e-18
-3.55239e-18
-3.09416e-18
-3.00032e-18
-1.97187e-18
-1.59602e-18
8.79106e-19
5.09947e-19
3.00923e-17
-5.14296e-17
1.44631e-16
8.1678e-17
-3.97319e-17
-1.74918e-16
-3.72323e-17
1.12458e-16
2.54563e-17
2.53223e-17
-5.86608e-17
-7.24305e-17
-1.35983e-16
-4.08288e-17
-5.08405e-17
1.50177e-16
-4.61069e-17
2.09212e-16
4.97175e-16
3.73376e-20
3.82541e-20
3.81581e-20
3.73588e-20
3.74186e-20
3.67219e-20
3.86897e-20
3.53058e-20
3.85246e-20
3.55232e-20
3.9006e-20
3.53029e-20
3.95076e-20
3.72537e-20
3.63217e-20
3.59076e-20
3.76319e-20
3.62789e-20
3.6776e-20
3.62421e-20
3.66347e-20
3.67841e-20
3.65521e-20
3.63592e-20
3.73716e-20
3.86844e-20
3.7082e-20
3.83071e-20
3.62927e-20
3.85158e-20
3.72778e-20
3.78497e-20
3.78978e-20
3.79654e-20
3.77591e-20
3.80888e-20
3.76706e-20
3.77136e-20
3.75574e-20
3.76959e-20
3.7264e-20
3.7586e-20
3.86006e-20
4.90253e-20
-7.80387e-20
-6.47798e-19
1.05041e-17
1.29946e-17
9.87969e-18
7.98474e-18
6.54779e-18
4.33387e-18
3.30585e-18
2.51109e-18
2.37062e-18
2.05743e-18
1.95083e-18
1.81829e-18
1.5945e-18
1.46977e-18
1.30328e-18
1.25786e-18
1.05254e-18
1.07084e-18
9.25759e-19
7.74665e-19
6.37935e-19
6.60129e-19
4.62475e-19
3.32832e-19
1.83488e-19
-8.26182e-20
-2.8329e-19
-4.28053e-19
-8.96979e-19
-1.24899e-18
-1.91917e-18
-2.68663e-18
-3.59921e-18
-4.54845e-18
-5.70004e-18
-7.97878e-18
-8.87288e-18
-9.84728e-18
-1.01995e-17
-1.02244e-17
-9.97152e-18
-8.24109e-18
-7.54515e-18
-1.27855e-17
-1.22683e-17
1.02926e-17
-8.30355e-17
1.39425e-16
5.41299e-19
-4.00761e-17
-5.62066e-16
1.47708e-15
-1.61933e-15
1.29847e-15
-1.43935e-15
9.67914e-16
-2.69932e-17
-1.76654e-16
3.2883e-15
-9.1785e-16
-9.34653e-17
3.64496e-15
5.5231e-15
2.76084e-15
2.132e-15
2.73341e-15
1.45839e-15
-1.81463e-16
-1.07795e-15
-5.13333e-16
-1.42433e-17
2.19182e-16
1.23611e-16
7.43058e-20
7.28877e-20
7.28387e-20
7.32052e-20
7.50768e-20
7.08342e-20
7.79888e-20
6.71113e-20
7.86857e-20
6.56459e-20
7.76987e-20
7.05657e-20
7.08804e-20
6.93725e-20
7.21606e-20
6.9273e-20
6.99047e-20
6.81817e-20
6.87161e-20
6.73474e-20
6.61247e-20
6.17776e-20
6.36688e-20
6.30703e-20
5.78808e-20
5.76947e-20
5.63233e-20
5.61193e-20
5.43264e-20
5.65784e-20
5.53032e-20
5.6603e-20
5.53614e-20
5.65761e-20
5.57629e-20
5.62276e-20
5.62053e-20
5.63164e-20
5.6236e-20
5.6515e-20
5.7409e-20
5.99235e-20
6.9193e-20
1.17009e-19
4.7038e-19
2.07791e-18
6.34788e-18
5.43743e-18
2.71574e-18
1.52135e-18
1.20089e-18
8.44582e-19
6.2879e-19
3.4814e-19
8.35611e-19
2.90135e-19
-5.06466e-19
1.34039e-18
-4.50171e-19
-4.35754e-19
2.13665e-19
2.03984e-19
-1.48624e-18
-4.16943e-19
-7.83548e-19
-1.92776e-18
-1.47803e-18
-1.49055e-18
-3.10533e-18
-2.99132e-18
-3.6222e-18
-4.61724e-18
-5.83539e-18
-5.73972e-18
-7.96019e-18
-8.95216e-18
-1.05888e-17
-1.31762e-17
-1.46853e-17
-1.64068e-17
-1.89601e-17
-1.99975e-17
-2.11379e-17
-2.01013e-17
-2.94426e-17
-1.583e-17
1.7133e-18
-2.04392e-17
-1.36094e-16
4.68658e-16
-4.16422e-16
1.0891e-16
-2.15894e-16
-8.86994e-16
2.57003e-15
-3.23974e-15
3.14983e-15
-3.63727e-15
5.40439e-15
-8.19458e-15
1.2115e-14
-9.78904e-15
3.01327e-15
-1.67532e-14
-5.9197e-15
9.28037e-15
-1.36632e-14
-1.96727e-14
-1.50138e-15
7.91087e-15
-3.35894e-15
-4.4294e-15
-6.05251e-16
-2.15572e-15
-1.9735e-15
-1.70355e-15
-1.26778e-15
-7.72887e-16
-2.02676e-16
-2.3817e-20
-2.25804e-20
-2.1289e-20
-2.10445e-20
-2.12081e-20
-2.33801e-20
-2.39482e-20
-2.11844e-20
-2.07143e-20
-1.88335e-20
-1.62613e-20
-1.96616e-20
-1.37112e-20
-1.60311e-20
-8.39064e-21
-3.05761e-21
-3.38562e-21
-1.55158e-21
-2.57847e-21
4.17068e-21
5.63081e-21
1.21983e-20
1.24657e-20
1.48384e-20
1.93864e-20
1.74993e-20
2.22996e-20
2.74475e-20
3.19495e-20
2.86561e-20
3.0058e-20
3.11138e-20
3.28002e-20
3.34171e-20
3.49297e-20
3.61003e-20
3.64916e-20
3.77237e-20
3.82889e-20
3.84616e-20
3.88364e-20
3.87568e-20
5.18165e-20
1.4651e-19
7.18057e-19
4.08469e-18
5.80616e-18
4.60288e-18
3.05585e-18
6.56421e-19
8.27445e-19
-2.05322e-18
2.62715e-18
-4.0554e-18
4.22125e-18
-7.76416e-19
-2.6339e-18
3.20744e-18
-2.38497e-18
4.87264e-19
-4.96415e-19
1.35905e-18
-4.30045e-18
2.35358e-19
6.34899e-20
-2.63925e-18
-1.15782e-18
-1.79882e-18
-4.80395e-18
-3.14206e-18
-1.74303e-18
-7.071e-18
-4.03382e-18
-7.60764e-18
-5.89247e-18
-1.03249e-17
-1.12353e-17
-9.31682e-18
-1.90011e-17
-1.71798e-17
-2.14883e-17
-2.15358e-17
-5.16147e-17
-1.06763e-17
5.29868e-18
-3.47577e-17
-1.47185e-16
4.73508e-17
1.44057e-16
-2.20882e-16
1.21906e-16
3.41549e-17
-1.61312e-16
7.69404e-16
-1.96925e-15
2.75213e-15
-2.17427e-15
-5.18547e-16
3.64336e-15
-1.50982e-15
-4.84054e-15
5.45391e-15
2.06728e-14
6.19638e-15
1.76021e-14
-4.77216e-15
-8.32744e-15
-1.53237e-15
4.77479e-15
-4.25679e-16
-2.17283e-15
7.25092e-16
-9.54163e-16
-3.22148e-15
-4.09607e-15
-2.90379e-15
-1.85366e-15
-8.2161e-16
-1.92035e-16
5.60584e-20
5.85375e-20
5.81156e-20
5.941e-20
5.53789e-20
7.71389e-20
6.90906e-20
8.17747e-20
6.93461e-20
9.97008e-20
6.55695e-20
9.44086e-20
9.96029e-20
1.02536e-19
1.02583e-19
9.79567e-20
1.10071e-19
1.13254e-19
1.18653e-19
1.17777e-19
1.18742e-19
1.20773e-19
1.1949e-19
1.21303e-19
1.25554e-19
1.31102e-19
1.33598e-19
1.34535e-19
1.3491e-19
1.41556e-19
1.44634e-19
1.4457e-19
1.46932e-19
1.4771e-19
1.47018e-19
1.50469e-19
1.5123e-19
1.50669e-19
1.51968e-19
1.5265e-19
1.53186e-19
1.53808e-19
1.54999e-19
2.20987e-19
6.87769e-19
4.52405e-18
5.76743e-18
4.03902e-18
2.12225e-18
6.74872e-19
2.98779e-19
3.88184e-20
-1.1486e-18
1.81962e-18
-2.016e-18
1.71427e-19
7.06621e-19
-2.46933e-18
-6.10188e-19
9.94298e-19
-1.08353e-18
4.32108e-19
-3.64618e-18
-2.30805e-18
1.60608e-18
-1.79676e-18
5.06624e-19
-6.03802e-18
-3.36891e-18
-1.56489e-18
-3.52618e-18
-3.91726e-18
-6.53221e-18
-7.40229e-18
-8.42811e-18
-8.81678e-18
-1.17946e-17
-1.17893e-17
-1.74128e-17
-1.78689e-17
-2.77455e-17
-2.39765e-17
-3.24474e-17
-3.96186e-17
-7.62881e-17
-2.30982e-17
-3.25964e-17
-6.02674e-17
-2.83214e-16
7.38717e-16
-1.15156e-15
1.50565e-15
-2.0734e-15
1.55227e-15
8.76978e-16
-2.58768e-15
6.68441e-16
5.7572e-15
-7.44092e-15
-1.18506e-16
3.40073e-15
-3.35416e-15
-2.25212e-14
-1.26063e-14
2.96405e-15
-4.5311e-15
2.3741e-15
6.2548e-15
4.75257e-15
1.37881e-15
1.05886e-15
-5.97385e-16
-2.23087e-15
-2.5906e-15
-2.9029e-15
-2.21671e-15
-1.07893e-15
-5.5797e-16
-1.15989e-16
2.50223e-19
2.4944e-19
2.51135e-19
2.49303e-19
2.50923e-19
2.40815e-19
2.26546e-19
2.51038e-19
2.41871e-19
2.33761e-19
2.47436e-19
2.59358e-19
2.1598e-19
2.58127e-19
2.28726e-19
2.54694e-19
2.23977e-19
2.46673e-19
2.40083e-19
2.39453e-19
2.40326e-19
2.39952e-19
2.44778e-19
2.44443e-19
2.48389e-19
2.50068e-19
2.54747e-19
2.55058e-19
2.61436e-19
2.59494e-19
2.64121e-19
2.63057e-19
2.66763e-19
2.68047e-19
2.70125e-19
2.72034e-19
2.73262e-19
2.74154e-19
2.74925e-19
2.75506e-19
2.76999e-19
2.81654e-19
2.9726e-19
3.70937e-19
8.19786e-19
6.6818e-18
8.17495e-18
4.28381e-18
2.00877e-18
6.74471e-19
1.14178e-18
-1.18387e-18
-3.97545e-19
-7.22939e-19
2.0545e-18
1.62803e-18
-4.46749e-18
5.39224e-19
-7.82593e-19
-5.78884e-18
6.64124e-18
2.88631e-18
-3.8663e-18
-4.93567e-18
-3.99696e-18
2.26291e-18
-3.06262e-19
-1.07526e-18
-4.32911e-18
-5.19278e-18
-3.31847e-18
-1.95399e-18
-4.66059e-18
-6.17038e-18
-7.87934e-18
-9.60115e-18
-9.7526e-18
-1.44216e-17
-8.10896e-18
-3.09686e-17
-2.31673e-17
9.3109e-18
-9.32169e-17
-2.4251e-17
-3.34019e-17
-6.18484e-17
-2.24927e-16
3.40276e-16
-6.92985e-16
7.82587e-16
-1.60494e-15
1.81792e-15
1.01444e-15
-1.98155e-15
-3.74845e-16
3.94365e-15
7.14082e-16
-1.23915e-14
1.84975e-15
1.97486e-14
-2.3986e-15
9.5228e-15
9.62586e-15
1.71173e-14
9.40186e-15
-7.77307e-16
4.6559e-15
7.66936e-15
4.11777e-15
1.70846e-15
1.54566e-16
-1.49404e-15
-1.79346e-15
-1.55308e-15
-1.08247e-15
-9.30974e-16
-6.48824e-16
-3.47848e-16
-7.71432e-17
3.24633e-19
3.19452e-19
3.16694e-19
3.1444e-19
3.21839e-19
3.28727e-19
3.0467e-19
3.15473e-19
3.24615e-19
3.00554e-19
3.14469e-19
2.89438e-19
3.21463e-19
3.00259e-19
2.90691e-19
2.85678e-19
3.00222e-19
3.02807e-19
2.91122e-19
3.13104e-19
3.16923e-19
3.21956e-19
3.24623e-19
3.33337e-19
3.25282e-19
3.26566e-19
3.2871e-19
3.36109e-19
3.40414e-19
3.38862e-19
3.42735e-19
3.48996e-19
3.54453e-19
3.57753e-19
3.60778e-19
3.6461e-19
3.67054e-19
3.70433e-19
3.72874e-19
3.77384e-19
3.7698e-19
3.79559e-19
3.75974e-19
3.89464e-19
4.90948e-19
4.54073e-18
5.63295e-18
3.73131e-18
-3.91745e-19
-2.83712e-18
-6.26476e-19
5.07316e-18
-1.90184e-18
-8.8252e-18
4.6808e-19
9.14633e-18
-1.61344e-18
-4.80945e-18
-6.11001e-19
-1.22117e-17
-4.02313e-18
1.65718e-17
7.58642e-18
1.4735e-19
-7.12771e-18
-1.60281e-17
-1.08911e-17
4.2837e-18
1.31022e-17
-7.09108e-19
-7.91218e-18
-8.33106e-18
-3.66804e-18
3.05604e-18
3.91758e-18
-3.51053e-18
-7.15008e-18
-1.00408e-17
-4.53146e-18
-2.40923e-17
9.74875e-18
-1.97209e-17
-8.46046e-17
1.37079e-16
-4.34857e-16
3.41745e-16
-3.25816e-16
-9.21713e-17
3.77755e-16
-9.94135e-16
1.4395e-15
7.78146e-16
-4.50304e-15
5.88045e-15
1.87321e-15
-1.06537e-14
2.73539e-15
2.42361e-14
1.23702e-14
-2.96978e-14
-5.36157e-14
-1.60028e-14
9.22251e-15
2.64315e-14
1.10076e-14
-1.28814e-15
2.80657e-15
8.07037e-15
4.52575e-15
1.62209e-15
-4.91264e-16
-1.61015e-15
-1.61409e-15
-1.19127e-15
-6.70275e-16
-4.54422e-16
-3.96643e-16
-2.24937e-16
-5.35249e-17
2.1514e-19
2.23881e-19
2.29165e-19
2.29274e-19
2.32411e-19
2.3081e-19
2.95752e-19
2.51392e-19
2.9941e-19
2.85589e-19
3.0873e-19
3.0704e-19
3.22805e-19
3.46616e-19
4.04259e-19
3.88377e-19
4.23449e-19
4.07249e-19
4.08527e-19
4.33196e-19
4.30217e-19
4.29211e-19
4.36005e-19
4.37386e-19
4.57444e-19
4.63101e-19
4.58229e-19
4.73581e-19
4.81438e-19
5.00262e-19
4.9871e-19
5.08398e-19
5.06102e-19
5.13326e-19
5.14546e-19
5.14281e-19
5.16136e-19
5.16351e-19
5.176e-19
5.19264e-19
5.1977e-19
5.19101e-19
5.12212e-19
4.26212e-19
-7.11428e-20
-3.19269e-18
-4.91072e-18
-3.12578e-18
-1.14653e-18
-2.73522e-18
-1.60763e-17
5.31459e-19
1.58035e-17
-1.69788e-17
-3.43759e-17
1.38846e-17
2.95438e-17
2.96759e-19
5.96426e-18
-3.17619e-17
-4.25387e-17
8.59394e-18
2.93447e-17
4.86559e-17
2.92742e-17
-4.34162e-17
-5.18583e-17
-1.21852e-17
-1.10129e-18
3.00434e-17
3.44536e-17
-8.42377e-18
-2.0299e-17
-4.58548e-18
3.45087e-18
8.56365e-18
6.37604e-18
9.14555e-18
-1.22591e-17
-2.17722e-18
1.31825e-17
-9.01337e-17
2.18884e-16
-3.96725e-16
1.94701e-16
-1.53852e-17
2.56893e-16
-7.54581e-16
1.32972e-16
1.80285e-15
-4.87502e-15
4.86668e-15
1.8688e-15
-6.38142e-15
2.22754e-15
1.70864e-14
-8.01528e-16
-5.19282e-14
-3.66406e-14
3.48343e-14
7.13333e-14
6.34767e-14
-1.53493e-14
-4.52327e-14
-3.34829e-14
-1.84946e-14
-6.35934e-15
3.31613e-15
3.17214e-15
1.15245e-15
-9.29795e-16
-1.50491e-15
-1.4189e-15
-1.05112e-15
-6.19379e-16
-4.6449e-16
-3.2951e-16
-1.70326e-16
-3.90197e-17
4.06402e-19
4.24997e-19
4.39593e-19
4.67142e-19
4.62432e-19
4.8913e-19
4.9923e-19
5.04063e-19
5.28981e-19
5.30472e-19
5.57016e-19
5.82641e-19
5.82617e-19
6.19113e-19
5.98289e-19
6.43576e-19
6.12685e-19
6.59446e-19
6.83991e-19
6.80193e-19
6.935e-19
7.14597e-19
7.19544e-19
7.27015e-19
7.13547e-19
7.22511e-19
7.28519e-19
7.28908e-19
7.02859e-19
7.12917e-19
6.9686e-19
6.99784e-19
6.90211e-19
6.89061e-19
6.82606e-19
6.80116e-19
6.79612e-19
6.7727e-19
6.77169e-19
6.7475e-19
6.74438e-19
6.63824e-19
6.21193e-19
3.52538e-19
-1.63825e-18
-1.08881e-17
-3.36795e-17
-3.75699e-17
-4.10938e-17
-8.5376e-18
-2.17387e-17
-4.16908e-17
-1.05217e-17
-1.14458e-17
-5.66626e-17
-2.33935e-17
4.49864e-17
3.55287e-17
3.51828e-17
-1.23211e-17
-1.14627e-16
-4.22915e-17
3.64783e-17
6.33169e-17
8.74051e-17
3.60986e-18
-5.60255e-17
-6.48841e-17
-2.69484e-17
-1.38151e-18
4.43826e-17
4.04429e-17
8.85574e-19
-1.83424e-17
-9.67703e-18
7.51523e-18
1.53431e-17
9.07386e-18
6.3744e-18
-7.90216e-18
-1.94158e-17
1.14786e-17
-4.61119e-17
7.0704e-17
-1.89871e-16
4.97631e-16
-1.25677e-15
1.772e-15
-2.78115e-15
-1.17222e-16
5.18841e-15
-4.11371e-15
-3.58254e-16
1.13545e-14
-1.44152e-14
-2.69204e-14
1.30816e-14
6.62113e-14
7.25536e-14
-3.1382e-15
-3.97687e-14
-1.06922e-14
-3.52531e-14
-2.88201e-14
-5.84733e-15
1.69542e-15
-6.43001e-16
3.98437e-15
3.60425e-15
1.48885e-15
-7.14791e-16
-1.17317e-15
-1.21854e-15
-8.81543e-16
-6.38961e-16
-3.974e-16
-2.34137e-16
-8.4456e-17
-2.69613e-17
7.22546e-19
7.1706e-19
7.18172e-19
7.07708e-19
7.18963e-19
7.52339e-19
6.60635e-19
7.40681e-19
6.41978e-19
7.4973e-19
7.10476e-19
7.23282e-19
7.5604e-19
6.79009e-19
7.32355e-19
7.02781e-19
7.20648e-19
7.05503e-19
7.10067e-19
7.00766e-19
6.95272e-19
6.75383e-19
6.67681e-19
6.65846e-19
6.6374e-19
6.73978e-19
6.67296e-19
6.6188e-19
6.78627e-19
6.57332e-19
6.64057e-19
6.45023e-19
6.4838e-19
6.4518e-19
6.44855e-19
6.46419e-19
6.4527e-19
6.43668e-19
6.43247e-19
6.43456e-19
6.41664e-19
6.40651e-19
6.3604e-19
5.9812e-19
9.59071e-19
5.12296e-18
-8.88336e-17
-1.25555e-16
-1.1973e-16
-9.79803e-17
-7.73388e-17
-7.24269e-17
-5.38314e-17
-6.73755e-17
-1.15898e-16
-6.29669e-17
6.78944e-17
1.0293e-16
7.95233e-17
-8.55233e-18
-1.85913e-16
-1.16002e-16
-3.38161e-18
1.15805e-16
1.88762e-16
5.38399e-17
-6.12565e-17
-1.37841e-16
-7.62214e-17
-4.16135e-17
5.80161e-17
1.05923e-16
3.59603e-17
-3.09397e-17
-4.16958e-17
-3.76477e-18
2.52255e-17
3.31396e-17
1.59343e-17
-8.83071e-19
-1.53532e-17
-2.89014e-17
-2.29492e-17
1.59019e-16
-3.87215e-16
5.94203e-16
2.85167e-16
-2.7703e-15
3.70255e-15
-2.64021e-15
3.8128e-15
-1.85305e-15
-3.99209e-15
-1.92203e-15
2.41593e-14
2.73975e-14
-3.12775e-14
-7.83763e-14
-7.37206e-14
-6.09674e-14
-4.51444e-14
-2.11177e-14
-4.02007e-15
3.53681e-14
5.26761e-14
2.4058e-14
3.021e-16
5.07413e-15
8.94008e-15
4.51101e-15
-5.26134e-17
-1.09112e-15
-1.07598e-15
-7.13107e-16
-5.81129e-16
-3.70316e-16
-2.41368e-16
-8.34847e-17
-1.71943e-17
6.58186e-19
6.4774e-19
6.47135e-19
6.55376e-19
6.44456e-19
6.02685e-19
6.42533e-19
6.38381e-19
6.47255e-19
6.08457e-19
5.82042e-19
6.05638e-19
5.58991e-19
5.94237e-19
5.3277e-19
5.34872e-19
5.21684e-19
5.15048e-19
4.91002e-19
5.03974e-19
4.94415e-19
5.08607e-19
5.25899e-19
5.26796e-19
5.40772e-19
5.26768e-19
5.37921e-19
5.57467e-19
5.4131e-19
5.68765e-19
5.68976e-19
5.82281e-19
5.82524e-19
5.91956e-19
5.94447e-19
5.99539e-19
6.04182e-19
6.09692e-19
6.12481e-19
6.18209e-19
6.20911e-19
6.21175e-19
8.70846e-19
-1.51025e-19
-2.66133e-18
-1.96842e-17
-8.33144e-17
-2.166e-16
-1.9301e-16
-1.45219e-16
-1.10181e-16
-8.55805e-17
-8.29211e-17
-1.32743e-16
-2.37985e-16
-1.09007e-16
1.44246e-16
2.59616e-16
2.28711e-16
-3.52269e-17
-3.21597e-16
-1.72965e-16
-1.15218e-16
1.05239e-16
4.54538e-16
2.04145e-16
-1.13815e-16
-2.41005e-16
-2.13295e-16
-6.98076e-17
1.0717e-16
2.29255e-16
9.29247e-17
-6.91338e-17
-8.68805e-17
-1.68055e-17
4.25967e-17
6.18965e-17
4.91124e-17
7.50646e-18
-1.22556e-17
-6.23143e-17
5.34881e-17
-3.20629e-16
7.85276e-16
-1.17657e-15
6.89949e-16
9.09213e-16
-1.66914e-16
2.47813e-15
-1.05639e-14
9.13553e-15
1.06684e-14
-2.74518e-14
-4.39918e-14
-1.28515e-14
2.96652e-14
5.39062e-14
5.42836e-14
5.41943e-14
5.38668e-14
2.78397e-14
1.07158e-14
3.00628e-14
3.30653e-14
-3.13238e-15
-1.08443e-14
6.85626e-15
1.39582e-14
8.26407e-15
9.71764e-16
-9.59453e-16
-9.6181e-16
-4.17505e-16
-3.11037e-16
-1.59914e-16
-1.31302e-16
-8.74721e-17
-1.30233e-17
5.55966e-19
5.5881e-19
5.60353e-19
5.50366e-19
5.65889e-19
5.44612e-19
6.01328e-19
5.07694e-19
5.52721e-19
5.25939e-19
6.04536e-19
5.20853e-19
5.79751e-19
5.28805e-19
5.58273e-19
5.50724e-19
5.74701e-19
5.68547e-19
6.0904e-19
5.72946e-19
6.06562e-19
6.26439e-19
6.26427e-19
6.28409e-19
6.35864e-19
6.40265e-19
6.50499e-19
6.29851e-19
6.59028e-19
6.47617e-19
6.6278e-19
6.65588e-19
6.65861e-19
6.70947e-19
6.71113e-19
6.74811e-19
6.74888e-19
6.75262e-19
6.7665e-19
6.76794e-19
6.79483e-19
6.81418e-19
6.62607e-19
8.1061e-19
-9.20354e-19
-1.52649e-18
-1.53581e-16
-3.01344e-16
-2.54286e-16
-2.04721e-16
-5.90544e-17
1.53275e-17
-3.73852e-17
-3.3487e-16
-5.75518e-16
-2.01669e-16
3.69449e-16
5.8741e-16
4.76662e-16
-1.06781e-16
-5.49108e-16
-3.50968e-16
-2.66343e-16
2.47826e-16
8.45505e-16
3.40268e-16
-2.10519e-16
-4.72738e-16
-3.58716e-16
3.82926e-17
2.72622e-16
3.85201e-16
9.58595e-17
-2.02524e-16
-1.60768e-16
-1.2915e-17
1.09351e-16
1.29268e-16
7.79731e-17
-1.99468e-18
-3.491e-17
-7.8803e-17
-1.35962e-16
3.46331e-16
-1.3464e-15
3.04867e-15
-1.95004e-15
-4.8336e-15
1.70296e-15
6.80868e-15
3.26823e-16
-1.62364e-14
4.74434e-15
5.89379e-14
5.65454e-14
1.39662e-14
3.65648e-15
1.90512e-14
1.43335e-14
1.4536e-14
3.28716e-14
1.98073e-14
-1.72612e-14
-1.14636e-14
-1.66737e-14
-3.01477e-14
-1.17351e-14
4.26143e-15
9.03716e-15
5.95964e-15
1.05604e-15
3.53182e-16
5.64225e-19
-7.62055e-17
-9.18819e-17
-2.55373e-17
-5.28723e-17
-5.41139e-17
-2.06839e-17
6.05422e-19
6.09934e-19
6.11057e-19
6.00425e-19
5.99684e-19
6.20577e-19
6.23236e-19
6.41058e-19
6.33135e-19
6.49691e-19
6.10135e-19
6.53129e-19
6.47369e-19
6.54359e-19
6.84667e-19
6.80842e-19
6.64894e-19
6.96549e-19
7.0156e-19
7.15831e-19
7.2839e-19
7.09657e-19
7.13078e-19
7.10956e-19
7.07335e-19
7.24252e-19
7.1086e-19
7.32112e-19
7.15128e-19
7.22648e-19
7.13118e-19
7.21352e-19
7.04376e-19
7.11184e-19
7.03571e-19
7.07137e-19
7.02078e-19
7.01152e-19
7.00732e-19
6.94132e-19
6.94814e-19
6.89423e-19
5.72463e-19
2.02384e-19
-3.82659e-18
-1.04517e-17
-2.58835e-16
-5.04493e-16
-5.48954e-16
-5.57947e-16
2.33777e-16
5.23205e-16
1.58906e-16
-9.2645e-16
-1.26198e-15
-3.48183e-16
7.25128e-16
1.22647e-15
8.42001e-16
-3.72578e-16
-1.04442e-15
-6.5529e-16
-3.28889e-16
7.48039e-16
1.08828e-15
4.2136e-16
-3.57894e-16
-5.15305e-16
-3.16171e-16
1.0148e-16
6.74745e-16
5.28336e-16
-2.08769e-16
-4.05562e-16
-1.79607e-16
7.05588e-17
2.17363e-16
2.17153e-16
9.28943e-17
2.75553e-17
-1.21667e-16
-1.47559e-16
3.99741e-16
-1.88802e-15
5.76487e-15
-1.65711e-14
1.37049e-14
-2.59135e-16
-1.30737e-14
-7.95379e-15
2.27016e-14
4.78905e-15
-4.84701e-14
-8.18672e-14
-7.12608e-14
-5.7712e-14
-6.40895e-14
-6.26758e-14
-6.85113e-14
-6.32559e-14
-3.17147e-14
-2.80436e-14
-3.20274e-14
-3.07417e-15
-2.52879e-14
-2.39858e-14
4.75236e-16
1.87493e-15
-1.89572e-16
-3.16648e-15
-1.88565e-15
-1.88402e-16
-2.98036e-16
-3.19738e-16
-2.03126e-17
6.32796e-17
2.74769e-17
-1.13286e-17
-3.29056e-17
6.18635e-19
6.22798e-19
6.4786e-19
6.4991e-19
6.21867e-19
6.77319e-19
5.49797e-19
6.41067e-19
6.51139e-19
7.07646e-19
6.16741e-19
7.22362e-19
6.07124e-19
7.44641e-19
7.20435e-19
7.17715e-19
7.20278e-19
7.04714e-19
7.27039e-19
7.39555e-19
7.2066e-19
6.91738e-19
6.95222e-19
6.89319e-19
7.01642e-19
6.88036e-19
6.97031e-19
6.90802e-19
6.82684e-19
6.81711e-19
6.90141e-19
6.89859e-19
6.86747e-19
6.82303e-19
6.83327e-19
6.78088e-19
6.80401e-19
6.75785e-19
6.75011e-19
6.7187e-19
6.81251e-19
6.72389e-19
5.81292e-19
5.55611e-19
-9.06448e-18
-1.63518e-17
-4.65481e-16
-8.63492e-16
-1.02027e-15
-1.53029e-15
9.43962e-16
1.81752e-15
4.73937e-16
-2.02511e-15
-1.87936e-15
-3.08792e-16
1.12706e-15
1.56416e-15
9.00493e-16
-7.78124e-16
-1.40704e-15
-5.84471e-16
-5.7687e-16
1.54919e-15
1.474e-15
5.0076e-17
4.94048e-16
-8.70925e-16
-9.91982e-16
1.80722e-15
1.68499e-15
-2.86672e-16
-1.30287e-15
-9.70685e-16
-2.37433e-16
3.9526e-16
5.246e-16
3.10549e-16
2.06214e-17
-9.07884e-17
-1.63209e-16
2.24882e-16
-5.06585e-16
7.31359e-16
-3.32082e-15
6.09681e-15
-1.75328e-14
5.77685e-15
9.90212e-15
-3.22339e-14
-2.57931e-14
5.36371e-14
9.66127e-14
9.59735e-14
8.7592e-14
7.99387e-14
4.90247e-14
3.37289e-14
1.46703e-14
-7.74725e-15
-5.14663e-15
-1.84864e-14
1.57377e-15
2.25613e-14
-2.08054e-14
-1.25463e-14
1.15986e-14
3.01672e-15
-8.94206e-15
-1.01197e-14
-4.32523e-15
-1.66737e-15
-1.27655e-15
-3.16914e-16
1.22948e-16
1.09192e-16
6.5449e-17
9.15195e-18
-3.69836e-17
6.19496e-19
6.1429e-19
5.9199e-19
5.99983e-19
5.93348e-19
6.22809e-19
6.46152e-19
6.82057e-19
6.77448e-19
5.94149e-19
7.48591e-19
6.73921e-19
7.16147e-19
7.08419e-19
6.97655e-19
7.26831e-19
7.28024e-19
7.44989e-19
7.16885e-19
7.01429e-19
6.90394e-19
7.33886e-19
7.19808e-19
7.2296e-19
7.34198e-19
7.28489e-19
7.23683e-19
6.92227e-19
6.92765e-19
6.7733e-19
6.7264e-19
6.63248e-19
6.53009e-19
6.60143e-19
6.35747e-19
6.50542e-19
6.30844e-19
6.35153e-19
6.30689e-19
6.29772e-19
6.39084e-19
7.02021e-19
3.61977e-19
5.13881e-19
-1.79133e-17
7.96617e-17
-5.67978e-16
-1.33382e-15
-1.01603e-15
-3.91205e-15
2.16755e-15
2.1634e-15
-1.09286e-15
-1.99881e-15
-1.20479e-15
1.23605e-16
9.25706e-16
7.64551e-16
1.45499e-17
-1.19349e-15
-1.66131e-15
-1.28531e-15
9.31104e-17
1.53504e-15
2.0766e-15
1.25242e-15
5.01786e-16
4.71839e-16
4.63766e-16
6.32675e-16
1.44743e-16
-4.68662e-16
-1.05884e-15
-1.03051e-15
-5.21666e-16
2.02179e-16
4.25951e-16
3.81342e-16
1.87522e-16
-7.17963e-17
5.3545e-16
-4.12882e-16
1.39261e-15
-3.20016e-15
-3.74788e-15
5.76047e-15
-4.75687e-15
-1.15503e-14
5.15534e-14
4.48646e-14
-7.37945e-14
-1.26494e-13
-1.4493e-13
-8.86467e-14
-5.52725e-14
2.03361e-15
2.78967e-14
4.14763e-14
4.22172e-14
3.47932e-14
3.23495e-14
5.58241e-15
2.43756e-14
2.48003e-14
-1.51452e-14
9.82116e-15
2.71848e-14
8.22386e-15
-1.11717e-14
-1.22621e-14
-5.70388e-15
-2.68982e-15
-1.59984e-15
-2.74328e-16
1.18579e-16
1.14647e-16
7.54389e-17
2.46415e-17
-3.14769e-17
6.6762e-19
6.44169e-19
6.32387e-19
6.46036e-19
6.52185e-19
7.45163e-19
7.01148e-19
8.33113e-19
7.02616e-19
8.43985e-19
7.20828e-19
6.36298e-19
8.06228e-19
6.54936e-19
7.40154e-19
6.66309e-19
7.21615e-19
6.53276e-19
6.04878e-19
6.44228e-19
6.59422e-19
6.57798e-19
6.47365e-19
6.44875e-19
5.97278e-19
6.11898e-19
5.71145e-19
5.7987e-19
5.75576e-19
5.76666e-19
5.73447e-19
5.58739e-19
5.75114e-19
5.57448e-19
5.58056e-19
5.50026e-19
5.54156e-19
5.52897e-19
5.54991e-19
5.49865e-19
5.72627e-19
4.50228e-19
-2.6479e-19
1.11742e-18
-4.25097e-17
5.73422e-16
-6.38071e-16
-2.23119e-15
-2.34342e-15
-3.45615e-15
-1.26991e-15
2.15557e-15
-1.81292e-15
-6.47181e-16
-1.32886e-16
-6.279e-16
-1.74912e-15
-1.03661e-15
4.03941e-16
1.11925e-17
-7.45816e-16
-1.51942e-15
-1.14479e-15
1.08988e-15
2.74395e-15
2.85257e-15
1.80333e-15
5.02842e-16
-7.33909e-16
-9.03387e-16
-8.05714e-16
-9.45588e-16
-9.52684e-16
-5.46691e-16
-2.31321e-16
9.73486e-17
3.47784e-16
2.50739e-16
3.31285e-16
6.90794e-16
-4.86299e-16
2.40218e-15
-7.3879e-15
1.37964e-14
-2.78907e-14
-3.84336e-15
-1.65013e-14
-8.52207e-14
-6.52089e-14
4.4961e-14
8.79072e-14
4.24057e-14
-1.20382e-17
-5.42236e-14
-8.19651e-14
-6.76692e-14
-5.09923e-14
-2.47057e-14
3.11412e-15
1.63939e-14
2.39978e-14
1.66019e-15
2.38987e-14
2.21471e-14
6.84357e-15
3.04668e-14
3.09584e-14
1.92742e-15
-1.55376e-14
-7.97131e-15
-7.06533e-16
-8.54993e-16
-1.2505e-15
2.85099e-17
2.54036e-16
1.44126e-16
7.68907e-17
3.04322e-17
-2.10815e-17
7.16965e-19
7.56294e-19
7.43704e-19
7.32069e-19
7.00815e-19
6.25885e-19
6.07509e-19
6.14043e-19
5.34827e-19
6.70942e-19
4.99062e-19
6.99226e-19
5.25039e-19
7.04208e-19
5.20498e-19
6.21957e-19
5.4175e-19
5.80662e-19
6.12893e-19
5.72985e-19
5.06392e-19
5.38648e-19
5.07377e-19
5.17683e-19
5.01676e-19
5.07847e-19
5.27254e-19
5.27293e-19
5.18967e-19
5.00313e-19
5.09025e-19
4.99957e-19
4.83015e-19
4.84024e-19
4.76315e-19
4.78331e-19
4.75743e-19
4.70756e-19
4.67875e-19
4.63137e-19
4.05585e-19
1.79195e-19
-2.19939e-18
-5.59492e-18
-1.85046e-16
6.60809e-16
-4.56451e-16
-3.95193e-15
-4.21504e-15
-5.03015e-15
-3.88285e-15
-4.59253e-16
-5.97436e-15
2.83189e-15
2.24675e-15
-5.11916e-15
-8.64841e-15
-3.07635e-15
2.89258e-15
2.68051e-15
-6.03253e-16
-2.59146e-15
-3.24062e-15
1.86823e-15
6.17199e-15
6.27244e-15
2.92869e-15
-8.5461e-16
-3.52351e-15
-4.39539e-15
-3.22793e-15
-1.60486e-15
-8.1006e-16
-6.31123e-16
-3.73955e-16
-3.14018e-17
3.69659e-16
7.37981e-16
9.73634e-16
5.33373e-16
4.05687e-16
-3.8339e-15
2.45148e-15
-3.28958e-14
4.72636e-14
6.73056e-14
1.90886e-13
1.28575e-13
6.75904e-15
-2.12855e-14
8.48578e-14
1.16795e-13
1.19757e-13
9.66077e-14
4.17712e-14
-5.17648e-15
-3.23676e-14
-4.45152e-14
-4.52019e-14
-2.72003e-14
-1.2997e-14
-1.8224e-14
3.40964e-16
-5.16116e-15
-5.58641e-15
1.51621e-14
7.17194e-15
-1.49395e-14
-9.21827e-15
6.24476e-15
5.17148e-15
-9.39856e-17
-1.74164e-16
9.93395e-16
4.72969e-16
1.35142e-16
7.18222e-17
3.45983e-17
-7.05044e-18
6.43108e-19
6.27299e-19
6.52255e-19
6.55253e-19
7.48144e-19
6.41058e-19
8.13531e-19
6.47265e-19
8.08002e-19
6.24443e-19
7.76181e-19
6.84329e-19
6.04837e-19
6.10994e-19
5.33833e-19
6.43059e-19
5.0646e-19
6.53446e-19
5.53894e-19
6.42559e-19
5.61864e-19
6.10406e-19
5.83311e-19
5.79903e-19
5.41889e-19
5.47546e-19
4.98367e-19
4.88725e-19
4.65698e-19
4.62803e-19
4.52207e-19
4.38051e-19
3.99865e-19
4.30822e-19
4.10681e-19
3.90887e-19
3.76638e-19
3.70077e-19
3.67612e-19
3.41309e-19
3.76394e-19
1.64096e-19
-5.14249e-18
-6.68444e-18
-7.02753e-16
-8.72928e-17
-7.58637e-16
-6.30454e-15
-5.28795e-15
-9.00478e-15
-7.0167e-15
-2.93535e-15
-1.35617e-14
1.37677e-15
6.12573e-15
-1.57956e-14
-2.19172e-14
-8.23137e-16
9.43883e-15
5.3297e-15
-3.02712e-15
-6.23707e-15
-3.55466e-15
6.69025e-15
1.43157e-14
1.19042e-14
-2.57438e-18
-7.87296e-15
-9.8895e-15
-1.17772e-14
-5.54143e-15
-8.95049e-16
-2.5956e-17
-8.66306e-16
-1.63891e-15
-1.31678e-15
2.82238e-16
1.69699e-15
2.37577e-15
1.70878e-15
-4.11491e-15
2.34489e-15
-5.2798e-15
3.37744e-15
-1.42558e-13
-3.20803e-13
-2.26218e-13
-9.95428e-14
-1.15348e-13
-1.46876e-13
-1.42156e-13
-5.69296e-14
5.26811e-14
7.48892e-14
9.6522e-14
9.23196e-14
4.70567e-14
1.2737e-14
-8.55318e-15
-2.14394e-14
-2.10529e-14
-3.10142e-14
-2.09813e-14
-2.65606e-14
-1.65946e-14
8.09968e-16
-1.10213e-14
-1.69629e-14
2.70534e-15
1.13411e-14
3.5927e-15
1.41837e-16
2.12941e-15
2.31068e-15
7.02271e-16
1.6504e-16
7.86376e-17
3.43848e-17
3.92555e-18
6.98248e-19
7.00306e-19
6.54145e-19
6.18498e-19
6.15936e-19
7.23857e-19
6.41694e-19
6.23408e-19
6.44786e-19
5.20794e-19
6.30169e-19
3.97853e-19
7.09436e-19
4.67276e-19
6.66897e-19
4.44307e-19
5.98012e-19
4.72176e-19
5.55085e-19
4.17909e-19
4.59511e-19
4.12834e-19
3.36586e-19
3.46741e-19
3.29408e-19
3.08833e-19
2.64776e-19
2.60382e-19
2.39235e-19
2.55054e-19
2.16879e-19
2.14411e-19
2.32068e-19
2.03709e-19
2.15995e-19
2.23903e-19
2.30044e-19
2.4226e-19
2.22516e-19
1.15407e-19
-2.30822e-19
-2.60303e-18
-2.18794e-17
-8.54883e-17
-1.59481e-15
-1.45739e-15
-1.37161e-15
-1.11486e-14
-2.91473e-15
-1.79244e-14
-1.01872e-14
-4.42018e-15
-1.75375e-14
1.17318e-14
1.45916e-14
-4.51134e-14
-3.25617e-14
2.97669e-14
3.55345e-14
5.7268e-15
-1.05401e-14
-8.61177e-15
2.57685e-16
2.03141e-14
2.72981e-14
2.35673e-15
-2.10592e-14
-2.59426e-14
-3.92604e-14
-1.42097e-14
1.59156e-15
-1.26757e-15
-8.46229e-15
-1.28751e-14
-6.56395e-15
-1.05628e-15
3.99338e-15
6.56047e-15
5.14618e-15
1.0991e-15
-2.01064e-14
-1.24256e-13
-8.74688e-14
3.46155e-13
4.85359e-13
2.82109e-13
1.49289e-13
1.48659e-13
2.02885e-13
1.67678e-14
-9.0457e-14
-1.95352e-13
-1.96697e-13
-1.07467e-13
-3.35263e-14
3.32504e-14
5.8765e-14
5.13439e-14
3.48451e-14
2.959e-14
2.08434e-14
9.41338e-15
5.86701e-15
-1.39517e-14
-1.10525e-14
-1.15787e-15
-1.45742e-14
-1.30691e-14
9.55692e-15
9.57831e-15
1.4884e-17
5.03705e-16
4.06701e-15
3.23748e-15
9.3451e-16
1.91619e-16
7.42647e-17
2.8465e-17
1.12869e-17
7.02432e-19
7.1579e-19
7.4125e-19
7.20942e-19
6.82112e-19
7.78841e-19
6.13227e-19
6.25143e-19
3.79671e-19
6.39228e-19
4.29631e-19
7.12941e-19
5.25174e-19
5.5248e-19
5.87903e-19
3.82166e-19
5.29232e-19
3.0257e-19
4.25585e-19
3.04389e-19
3.86366e-19
1.02082e-19
3.26197e-19
1.90779e-19
2.37241e-19
1.83256e-19
2.64689e-19
2.19515e-19
2.69695e-19
2.59278e-19
2.44829e-19
2.95182e-19
2.84351e-19
2.95622e-19
2.81423e-19
3.07035e-19
2.92106e-19
3.09123e-19
3.13684e-19
8.50848e-20
-4.7694e-19
-7.40978e-18
-7.81073e-17
-7.2828e-16
-2.13583e-15
-1.15753e-14
-8.06178e-15
-1.78534e-14
7.17966e-15
-3.77721e-14
-4.94108e-15
-1.98122e-15
-1.52379e-14
7.39896e-14
3.93086e-14
2.78096e-14
1.0369e-13
2.05706e-13
9.63647e-14
-3.19846e-15
-1.23101e-14
5.97945e-15
6.20195e-15
4.67399e-14
3.07292e-14
-3.68297e-14
-4.69083e-14
-4.16492e-14
-1.65378e-14
9.97652e-15
-4.81933e-16
-2.18438e-14
-3.44077e-14
-3.82498e-14
-3.46995e-14
-2.85183e-14
-2.46729e-14
-1.16028e-14
-1.60242e-14
2.15349e-14
4.02909e-13
5.846e-13
-2.32553e-13
-6.00146e-13
-2.59698e-13
-1.11389e-13
-1.18899e-13
5.8627e-14
2.58788e-13
2.71426e-13
2.36008e-13
1.07605e-13
-4.63787e-14
-1.36494e-13
-1.3062e-13
-8.28664e-14
-3.15039e-14
5.78596e-15
1.91224e-14
2.34848e-14
2.56577e-14
2.21784e-14
1.42648e-14
-2.25324e-15
3.64988e-15
6.67389e-15
-1.6307e-14
-9.32002e-15
1.11437e-14
3.58618e-15
-3.20045e-15