/*--------------------------------*- C++ -*----------------------------------*\
| =========                 |                                                 |
| \\      /  F ield         | OpenFOAM: The Open Source CFD Toolbox           |
|  \\    /   O peration     | Version:  2.2.x                                 |
|   \\  /    A nd           | Web:      www.OpenFOAM.org                      |
|    \\/     M anipulation  |                                                 |
\*---------------------------------------------------------------------------*/
FoamFile
{
    version     2.0;
    format      ascii;
    class       volScalarField;
    location    "0.75";
    object      By;
}
// * * * * * * * * * * * * * * * * * * * * * * * * * * * * * * * * * * * * * //

dimensions      [1 0 -2 0 0 -1 0];

internalField   nonuniform List<scalar> 
14161
(
-0.0357314
-0.0061865
0.00891447
0.0138407
0.01003
0.00764106
0.00437007
0.00142949
-0.0118458
-0.0109978
-0.0106727
-0.00676042
0.00262539
0.00904457
0.0131544
0.0124026
0.00962249
0.00438886
-0.00244308
-0.0110715
-0.0176027
-0.0158076
-0.0125531
-0.00509342
0.00436586
0.00794375
0.0124054
0.0122317
0.00909451
0.00283424
-0.0046544
-0.0123037
-0.0140873
-0.0124216
-0.0100327
-0.00812596
-0.00767585
-0.00705228
-0.00758241
-0.0109187
-0.0115018
-0.0267306
-0.0969156
-0.0311745
0.0226323
0.0330935
0.0322474
0.0273579
0.0240018
0.020209
0.0117738
0.00767891
0.0063638
0.00643902
0.009594
0.0140985
0.0164247
0.0199672
0.028149
0.041693
0.0507584
0.0644588
0.0746022
0.0781123
0.0899129
0.0569131
0.0448772
0.0316001
0.0218431
0.024883
0.0281715
0.0232544
0.0159923
0.0108601
0.00664506
0.00124381
-0.00447927
-0.00859737
-0.00770875
-0.00572493
-0.00704652
-0.00866652
-0.0095745
-0.00905137
-0.00723195
-0.00660089
-0.00447115
-0.000624689
0.00312231
0.00480735
0.0045504
0.00356642
0.00220862
0.00150021
0.00169824
0.00259605
0.00279734
0.00295015
0.00208454
0.00128613
0.00059008
0.000611981
0.00138851
0.00260046
0.00312287
0.00438443
0.00605734
0.00676006
0.0086477
0.0103815
0.0116518
0.0137811
0.0168021
0.0242197
0.0291808
0.0309517
0.0272466
0.0152128
0.0159641
0.0398189
0.00936388
-0.0124534
-0.0262175
-0.0145925
-0.0104259
-0.00422284
0.00559602
0.0208318
0.0188656
0.0135388
0.00787336
-0.000362944
-0.0148274
-0.0224455
-0.0175907
-0.0133562
-0.00482956
0.00390594
0.0172664
0.0224257
0.017707
0.0140386
0.00794264
-0.00115647
-0.0138641
-0.0227094
-0.0145693
-0.00888881
-0.00479899
0.0019689
0.0120933
0.0146951
0.0177289
0.0141502
0.0114085
0.00628621
0.00534079
0.00154324
0.000487557
0.00237731
-0.00272941
-0.00537113
0.0133192
0.00438907
-0.00454202
-0.0175079
-0.0295747
-0.0299792
-0.0340543
-0.0373916
-0.0330724
-0.0261484
-0.0187738
-0.0124306
-0.00215877
0.00326503
0.0118949
0.0238454
0.0440366
0.0627037
0.0826189
0.104569
0.118321
0.134267
0.121803
0.0996757
0.0851347
0.0653574
0.0498353
0.0407535
0.037776
0.0302519
0.0216132
0.014078
0.00758043
0.000385022
-0.00215388
-0.00109777
-0.000948574
-0.0044484
-0.00849327
-0.0117324
-0.0132918
-0.0136014
-0.0123324
-0.010844
-0.00701615
-0.00272879
0.00196306
0.00545858
0.006574
0.00677722
0.00632074
0.00596438
0.00581954
0.00532249
0.00493649
0.00401027
0.00335622
0.0024149
0.00243058
0.00350968
0.00557987
0.00593918
0.0073538
0.00846058
0.0108029
0.0154744
0.0199819
0.0220363
0.0263249
0.0326321
0.0461246
0.049754
0.0636466
0.0783274
0.0519655
0.0510655
-0.0314789
-0.00831547
0.00781574
0.0172384
0.00821213
0.00519441
0.00115883
0.00328191
-0.00602962
-0.00775129
-0.00949238
-0.00572217
0.00186165
0.00891082
0.0108524
0.0105272
0.00675589
0.00330845
-0.00120506
-0.00721009
-0.0141182
-0.0142151
-0.0117685
-0.00473972
0.00284602
0.00994437
0.0140691
0.0117611
0.0102282
0.00529179
-1.84861e-05
-0.00538762
-0.00854364
-0.0111252
-0.00807942
-0.00546901
-0.00426312
-0.00142137
0.00035605
0.00179056
0.00241814
0.00288712
-0.0374941
0.00469701
0.0175887
0.0299196
0.0165859
0.00442922
0.000113942
-0.00560767
-0.00822788
-0.00386024
0.000910658
0.00933327
0.0223912
0.037383
0.0493222
0.0657927
0.0777021
0.0973334
0.109242
0.125795
0.138982
0.159076
0.164884
0.154636
0.139075
0.124406
0.103917
0.0890186
0.0835504
0.0815079
0.0754604
0.0620098
0.0471249
0.0334485
0.0216786
0.0158912
0.0141654
0.0122243
0.00786001
0.0012696
-0.00126815
-0.00407807
-0.00537917
-0.00766482
-0.00733751
-0.00588719
-0.0020119
0.000237563
0.00108062
0.00162096
0.00253567
0.00341964
0.00444972
0.00561139
0.00724644
0.00769932
0.00692443
0.00626265
0.00596037
0.00628855
0.00781901
0.0102548
0.0114303
0.0139177
0.0169438
0.0208282
0.0254213
0.0321989
0.0365326
0.0447558
0.0552873
0.0735866
0.0914932
0.113539
0.132993
0.0916075
0.0894561
0.0191955
0.00734251
0.000127894
-0.00583486
-0.0103018
-0.0133615
-0.0111838
-0.00119768
0.0128601
0.0168845
0.0121886
0.00975323
0.00353234
-0.00426485
-0.0152217
-0.01299
-0.010577
-0.00873732
-0.00319154
0.0056802
0.0122738
0.0126271
0.0119926
0.0100389
0.00755357
-0.0037376
-0.0103372
-0.0126972
-0.0127308
-0.0125788
-0.00988375
-0.00468667
-0.000264385
0.00218684
0.00283093
0.0030144
0.000895073
-0.00161231
-0.00843612
-0.0146159
-0.0248207
-0.0244033
-0.0480351
0.0236329
0.0438059
0.0180232
0.00133035
-0.025608
-0.0286766
-0.036741
-0.0401012
-0.0347798
-0.0258326
-0.0126702
0.00291927
0.0233356
0.0414786
0.0671552
0.094456
0.120919
0.147667
0.166967
0.188919
0.195311
0.210818
0.222195
0.223525
0.223382
0.205709
0.195293
0.174638
0.156388
0.13833
0.121468
0.104951
0.0861688
0.0665149
0.0488873
0.0361768
0.0257165
0.0192861
0.0136648
0.00606491
-0.000322441
-0.00416914
-0.0064869
-0.00848005
-0.00763741
-0.00277052
0.000367092
0.00241588
0.00382224
0.00491508
0.00537622
0.00602987
0.00714024
0.00858186
0.00889966
0.00815103
0.00754343
0.00737956
0.00780411
0.00860673
0.0104167
0.0121116
0.0154984
0.0196734
0.0254766
0.0310179
0.0391293
0.0455557
0.0556465
0.0680535
0.0903728
0.118638
0.157392
0.181389
0.132931
0.131347
-0.0177565
-0.0100375
-0.000475498
0.0107384
0.00457468
0.0028727
0.00115175
0.00474668
0.000991188
0.000216052
-0.00349515
-0.00200219
-0.000489217
-0.00013852
0.00422578
0.00696402
0.00562692
0.0031266
0.00152005
0.000983236
-0.00658342
-0.0092414
-0.00740654
-0.00413671
-0.00129904
0.00356154
0.00888997
0.00914223
0.00871043
0.00835178
0.00525527
0.00296429
0.000891943
-0.00224205
-0.00413492
-0.00380545
-0.00368851
-0.000949895
0.00147393
0.00758068
0.00930744
0.0215654
0.0661605
0.0306893
0.0121435
-0.0116537
-0.0330148
-0.052656
-0.0569473
-0.0668136
-0.0697844
-0.0621278
-0.046914
-0.0304434
-0.00656931
0.0118435
0.0349994
0.0600831
0.0872951
0.116375
0.144473
0.168164
0.194228
0.21311
0.23371
0.257999
0.266611
0.277479
0.268607
0.264316
0.24024
0.21832
0.197376
0.178064
0.159596
0.137429
0.109092
0.081374
0.0589765
0.0472889
0.0436433
0.0383752
0.0248686
0.0134697
-0.00017276
-0.00996525
-0.0170126
-0.0160988
-0.0113176
-0.00500789
-0.000503265
0.00252561
0.00437147
0.00561288
0.00667258
0.00811118
0.00993546
0.0108635
0.011025
0.0111423
0.011914
0.0130448
0.0139643
0.0153577
0.0180859
0.0222435
0.0267781
0.0340626
0.0405168
0.050885
0.0588939
0.0720776
0.0850805
0.10967
0.141974
0.188041
0.224271
0.17722
0.176281
0.00727427
0.00224859
0.00476044
0.0107356
-0.000857359
-0.00953231
-0.0110258
-0.00569376
0.00494746
0.0113343
0.00856316
0.00702114
0.0042593
0.00220798
-0.0055848
-0.00570491
-0.00549844
-0.00782668
-0.00501773
-0.00175757
0.00492812
0.00785854
0.00802104
0.00793862
0.007947
0.00606401
-0.000175842
-0.0102785
-0.0140028
-0.0151967
-0.014606
-0.0174362
-0.0108498
-0.00642111
-0.00460491
-0.00422137
-0.00347996
-0.000514888
-0.0036129
-0.00203811
-0.00683872
0.0128757
0.0963939
0.0462508
0.037769
0.0119448
-0.0164025
-0.0532565
-0.0696563
-0.0791143
-0.077139
-0.0630883
-0.0502737
-0.0339383
-0.0133169
0.0151189
0.0520927
0.0778475
0.107749
0.138729
0.172194
0.207002
0.231053
0.257655
0.272491
0.296505
0.305689
0.32496
0.326863
0.341016
0.333486
0.313461
0.285303
0.260781
0.245833
0.226876
0.196769
0.161508
0.127702
0.100644
0.0847201
0.0712203
0.0532402
0.0298442
0.00710815
-0.0146608
-0.0224182
-0.0223026
-0.0167009
-0.00954661
-0.00379938
0.00212743
0.0064193
0.00903055
0.0103293
0.01071
0.0113424
0.0124112
0.0131542
0.0131765
0.0140145
0.0153905
0.0165206
0.0182192
0.021958
0.027879
0.0348524
0.0446733
0.0534516
0.0659169
0.075522
0.0914794
0.104856
0.130309
0.163578
0.212351
0.260148
0.220295
0.222219
-0.00615842
-0.00927208
-0.00720215
0.00568005
0.00284935
0.00120345
0.00230401
0.00340037
0.00383984
0.00203793
0.00305949
0.00271221
0.00014723
-0.00608971
0.000686222
0.00475204
0.0047593
0.00271853
0.00335777
0.00355554
-0.00544995
-0.00435177
-0.0021032
-0.00202261
-0.00360102
-0.00272261
0.00508188
0.00778159
0.00417766
0.00448134
0.00706263
0.00173745
0.000296478
-0.000173144
-0.00755386
-0.00995663
-0.00994274
-0.0097782
-0.0139492
-0.00234629
-0.00614237
0.0121157
0.0967482
0.0567855
0.00144214
-0.0298996
-0.05939
-0.0921459
-0.111412
-0.116641
-0.112992
-0.0974611
-0.0857633
-0.0689187
-0.0456101
-0.0080074
0.0211833
0.0570083
0.093951
0.132496
0.174759
0.21169
0.24297
0.272073
0.295
0.321465
0.339222
0.363172
0.374693
0.389921
0.389466
0.381031
0.370139
0.361887
0.342046
0.303666
0.261552
0.224781
0.191735
0.160952
0.138151
0.114178
0.0845901
0.0533179
0.0151729
-0.0121193
-0.0280456
-0.0308224
-0.0268971
-0.0193082
-0.012204
-0.00468324
0.00131238
0.00603999
0.00961717
0.0116682
0.0131432
0.0152289
0.0171845
0.0184145
0.0198511
0.0220415
0.0233252
0.0254985
0.029032
0.0347207
0.0432779
0.0553869
0.0668273
0.0824633
0.0943065
0.114377
0.127327
0.153395
0.187058
0.236195
0.290644
0.259285
0.266321
0.00182319
-0.00408598
0.00569347
0.0199698
0.00803915
-0.00281694
-0.00535987
-0.00467819
-0.000547014
0.00618777
0.0043288
0.00242481
0.00245309
0.00130995
0.00184492
0.00292374
0.000615866
-0.00231053
-0.00044893
-0.00212109
0.00295489
0.00511098
0.00425056
0.00357385
0.00159576
0.00624578
0.0028274
-0.00737128
-0.0116078
-0.011124
-0.0122929
-0.0149013
-0.0142875
-0.0047806
-0.00420477
-0.00251591
-0.000416445
0.00128368
0.00299125
0.00466624
-0.000932106
-0.00316478
0.0109168
0.0413268
0.0223594
-0.00137087
-0.0399868
-0.0841612
-0.11874
-0.13266
-0.134468
-0.125061
-0.112624
-0.0865025
-0.0570325
-0.0193949
0.0121822
0.055928
0.0964178
0.143562
0.184195
0.227
0.26322
0.295686
0.325074
0.348212
0.367524
0.387944
0.405487
0.41255
0.419288
0.415234
0.411584
0.403128
0.387641
0.367362
0.356677
0.341609
0.323869
0.295111
0.271006
0.227851
0.169848
0.119233
0.0630067
0.0166386
-0.0156433
-0.0260927
-0.0235521
-0.0153955
-0.00624182
0.00213683
0.00880679
0.0143631
0.0175249
0.0181006
0.0175775
0.0173684
0.0186441
0.0204245
0.0219523
0.0234184
0.024595
0.0281
0.0323058
0.039104
0.0498584
0.0641517
0.0791103
0.0982889
0.11461
0.139448
0.15253
0.179044
0.211932
0.260245
0.317231
0.296245
0.309259
0.00395171
-0.00694423
-0.00880102
0.00287778
0.00247499
0.0018421
0.00523151
-0.000982652
0.00102203
-0.000576582
0.00489368
0.00402266
0.00236346
-0.0036425
0.000559584
0.00470351
0.00372029
0.00127874
0.00499204
-0.00126478
-0.00699956
-0.00223013
-0.00135882
-0.000125035
-0.00522974
0.00037116
0.00399451
-4.57267e-05
-0.0013688
0.000387827
4.87704e-05
-0.00378364
-0.00308181
-0.00656599
-0.00665356
-0.0122757
-0.0133136
-0.0139021
-0.0117264
-0.0105375
-0.00740269
-0.00949882
-0.0558428
-0.00053917
0.0276133
-0.00747834
-0.0553326
-0.116665
-0.152365
-0.167051
-0.169535
-0.167937
-0.153737
-0.122731
-0.0903659
-0.0466267
-0.00608562
0.0408712
0.0824003
0.130878
0.1711
0.218837
0.261719
0.303186
0.337703
0.366794
0.395573
0.413098
0.432496
0.439315
0.446018
0.44837
0.448169
0.445864
0.442585
0.43751
0.434751
0.430735
0.425739
0.412671
0.366819
0.301191
0.235736
0.162901
0.0838115
0.0175797
-0.034729
-0.0575644
-0.0549856
-0.0449798
-0.0319466
-0.0221725
-0.0108278
-0.000674343
0.00848887
0.0152191
0.0198997
0.0230744
0.0277502
0.0319956
0.0342103
0.0348993
0.0350971
0.0376303
0.0420424
0.0484985
0.0603168
0.0771587
0.0959522
0.118959
0.139372
0.169996
0.182514
0.208319
0.239262
0.287117
0.341532
0.333874
0.3474
-0.00100557
-0.00853952
0.00266446
0.021128
0.0171508
0.00664617
0.00495663
-0.00139913
-0.00294398
0.000982543
-0.00181298
-0.00334645
0.000382665
-0.00444488
0.00391221
0.0124339
0.00679493
0.00567002
0.00822459
0.00405791
0.00442323
0.00264012
-0.000630908
-0.00192276
-0.0100715
-0.00752485
-0.000888354
-0.00558758
-0.00976048
-0.00617584
-0.00565731
-0.00718845
-0.00443716
-0.00229851
-1.00683e-05
0.00202756
0.00159898
0.00387141
0.00331304
0.0103657
0.000312001
0.0022709
-0.00319098
0.0190481
-0.00586952
-0.0759419
-0.157481
-0.220753
-0.250541
-0.244524
-0.224142
-0.202117
-0.167761
-0.126615
-0.0908106
-0.0453022
0.00152105
0.051501
0.0924021
0.143605
0.185462
0.233812
0.280239
0.324197
0.364705
0.392392
0.422517
0.442057
0.455132
0.468037
0.469702
0.473307
0.472474
0.473714
0.473554
0.469825
0.469801
0.464574
0.46019
0.445714
0.419048
0.386989
0.333547
0.274418
0.189788
0.1073
0.0295404
-0.0142214
-0.027211
-0.0197972
-0.00610991
0.00650843
0.0210761
0.0356057
0.0453533
0.0502146
0.0498033
0.0443393
0.0399834
0.0399644
0.0385534
0.0383386
0.0409869
0.048972
0.0553687
0.062004
0.0713673
0.0869918
0.106491
0.131416
0.159085
0.192582
0.210886
0.239359
0.268794
0.317643
0.364925
0.371416
0.382789
0.0142231
-0.00275119
-0.00713334
0.00322181
0.0028174
0.00213809
0.00441159
-0.00396347
-0.00235322
-0.0034775
0.0017809
0.00185312
0.00179819
-0.00127736
0.00479529
0.00435933
-0.00113103
-0.00449316
0.00635983
-0.00305044
-0.00526648
0.000735474
0.000573316
0.00203416
-0.0061341
-0.00772052
-0.00403862
-0.00509484
-0.00752008
-0.00862597
-0.0127102
-0.00638477
-0.00675756
-0.00826869
-0.00890782
-0.0164915
-0.00694305
-0.00128062
0.00286713
0.00654403
0.00995068
0.0132382
0.0690245
0.0184581
-0.0759128
-0.188519
-0.274561
-0.298378
-0.299304
-0.292611
-0.273694
-0.250811
-0.218901
-0.183642
-0.139658
-0.0757113
-0.0190386
0.0354879
0.0828065
0.129675
0.184818
0.230578
0.278046
0.330698
0.383298
0.41907
0.446457
0.474282
0.483412
0.489173
0.485215
0.488116
0.490666
0.490645
0.490875
0.492718
0.492511
0.488258
0.47706
0.458008
0.429037
0.398233
0.349059
0.296502
0.208443
0.124661
0.0208798
-0.0428662
-0.0667701
-0.0513349
-0.0237186
0.00807781
0.0379926
0.0593195
0.071769
0.0753358
0.0711335
0.0667543
0.0680689
0.0684467
0.0652446
0.0656658
0.0705298
0.0804756
0.0779679
0.0757849
0.0826232
0.0986146
0.121245
0.150469
0.181988
0.223476
0.247417
0.274508
0.302288
0.349304
0.388806
0.408481
0.413876
-0.00371691
-0.0108139
-0.00184751
0.0167008
0.0270822
0.018923
0.0142753
0.00336718
-0.00639991
-0.00639398
-0.0118457
-0.0115508
-0.00823565
-0.00400213
0.00706207
0.0188067
0.0154503
0.0124686
0.0158886
0.00994319
0.00787364
-0.00282032
-0.0117518
-0.0144506
-0.0214383
-0.020307
-0.0095978
0.00282359
-0.00046862
-0.00036904
-0.00471969
-0.0046201
-0.00658674
-0.00660814
0.00485177
0.00719758
0.003885
0.00529867
0.00526156
0.00873637
0.0131704
0.00725836
0.0703379
0.0606125
-0.182353
-0.317142
-0.378336
-0.424669
-0.431717
-0.400281
-0.356394
-0.301742
-0.250833
-0.189804
-0.141125
-0.0826756
-0.00829348
0.0612406
0.108759
0.167856
0.207998
0.266757
0.308317
0.349787
0.399743
0.440744
0.475553
0.494875
0.515868
0.519797
0.511747
0.510948
0.507879
0.509614
0.511452
0.515025
0.516867
0.519394
0.512115
0.493543
0.463438
0.430987
0.387251
0.340449
0.27074
0.214479
0.127856
0.0738204
0.0478412
0.0519532
0.06477
0.0830093
0.101363
0.11743
0.127345
0.128895
0.120755
0.108699
0.0968753
0.0890689
0.0849381
0.0865079
0.0926048
0.102932
0.0998116
0.0936501
0.0999074
0.117641
0.141651
0.170473
0.202191
0.243249
0.275733
0.306878
0.334543
0.380638
0.410781
0.442646
0.44278
0.0277093
0.00322393
-0.00520925
-0.000137293
0.00276787
0.000439246
-0.00328125
-0.00121557
-0.0020468
-0.00119898
0.00208141
0.000641512
-0.00271095
-0.00667674
-0.00186773
-0.0023115
-0.00884154
-0.0106091
-0.00561005
0.00956813
0.00799157
0.0153168
0.010558
0.000494152
-0.00417497
-0.0170773
-0.0195865
-0.0160688
-0.0146514
-0.0197044
-0.026251
-0.0229687
-0.0221713
-0.0144633
0.000756117
0.00165195
0.00215454
0.00470083
0.0090225
0.00739117
0.0087693
0.0164902
-0.0337887
-0.100371
-0.331652
-0.439627
-0.505004
-0.50568
-0.46423
-0.419405
-0.368926
-0.31422
-0.258558
-0.20467
-0.145396
-0.0919355
-0.0166722
0.0558063
0.11288
0.187323
0.231948
0.287158
0.335416
0.382908
0.417149
0.467166
0.502631
0.529503
0.551584
0.554236
0.542208
0.539022
0.538811
0.538799
0.540334
0.542706
0.543152
0.548858
0.544129
0.527942
0.501771
0.472018
0.434471
0.394827
0.335096
0.298135
0.232818
0.202909
0.181806
0.169438
0.163723
0.174151
0.189126
0.201641
0.206236
0.20186
0.187885
0.172853
0.156886
0.141984
0.130921
0.130453
0.139078
0.147764
0.13865
0.120573
0.118669
0.133135
0.156129
0.184875
0.217853
0.258913
0.296238
0.333951
0.367484
0.410353
0.433841
0.47049
0.46712
-0.00917332
-0.0123256
-0.000972279
0.0136127
0.0373455
0.0314665
0.0191053
0.00746344
-0.0125386
-0.021852
-0.0202691
-0.0155603
-0.00984352
0.00154625
0.0228413
0.0224187
0.0263904
0.0204221
0.011496
0.00237016
-0.00391648
-0.00764124
-0.0199685
-0.0269729
-0.02161
-0.0171949
-0.00544382
0.0124776
0.0130458
0.0109859
0.00217187
-0.0160086
-0.0190828
-0.0127122
0.00120641
-0.00110552
0.000674953
-0.00465676
-0.00753626
-0.0170516
0.00846999
-0.00828921
-0.157937
-0.569913
-0.641535
-0.598686
-0.563716
-0.528195
-0.469133
-0.409926
-0.351191
-0.302663
-0.249275
-0.198696
-0.140281
-0.0742003
-0.00198129
0.0721189
0.137548
0.212885
0.261654
0.333839
0.373169
0.433957
0.469697
0.506885
0.52498
0.560846
0.572033
0.569512
0.565896
0.559969
0.558888
0.564644
0.569716
0.569629
0.568443
0.567203
0.563377
0.552009
0.527053
0.498831
0.458386
0.421885
0.385679
0.352258
0.299416
0.268107
0.242983
0.225274
0.216285
0.217672
0.215937
0.219723
0.224263
0.221307
0.208714
0.192441
0.176839
0.161665
0.150473
0.150584
0.161401
0.168527
0.158789
0.138608
0.136082
0.152272
0.172558
0.198378
0.230211
0.271201
0.312353
0.357962
0.396696
0.434098
0.45338
0.493636
0.488301
0.0462839
0.0108096
-0.0062151
-0.010179
-0.00210891
-0.00193401
-0.00922277
0.00193315
0.000265987
0.00522937
0.00898622
0.00429668
-0.0053954
-0.00897138
-0.0131601
-0.0106705
-0.00576134
0.0010405
-0.00328295
0.00730655
0.0152668
0.0359551
0.0268917
0.00522664
-0.00114003
-0.022719
-0.0346744
-0.0226845
-0.0139036
-0.028342
-0.0329382
-0.044268
-0.0356032
-0.0180101
-0.00298913
0.0127775
0.0206372
0.0130252
0.00325912
-0.00219613
-0.00545988
-0.066269
-0.334098
-0.900159
-0.908784
-0.799063
-0.654638
-0.595467
-0.511524
-0.416886
-0.347507
-0.278108
-0.22496
-0.180262
-0.114301
-0.0552134
0.0302915
0.105141
0.212702
0.289758
0.355816
0.425233
0.462378
0.488733
0.508759
0.527326
0.551454
0.578247
0.579765
0.581749
0.576624
0.572402
0.567558
0.557437
0.556846
0.556937
0.557405
0.556712
0.551084
0.538355
0.527352
0.518985
0.503593
0.496212
0.473791
0.438607
0.394807
0.360123
0.33389
0.310318
0.290167
0.280039
0.277374
0.280426
0.276708
0.264459
0.247874
0.229636
0.212745
0.195756
0.184974
0.187896
0.199821
0.20315
0.188873
0.164668
0.160183
0.176019
0.194318
0.216598
0.245642
0.2846
0.32691
0.38033
0.423461
0.457822
0.472752
0.517387
0.509044
-0.0181208
-0.00462271
0.00365872
0.0204357
0.0373342
0.0384355
0.0253167
0.00790403
-0.018623
-0.033352
-0.0198424
-0.00995471
-0.00512231
0.00722186
0.0201771
0.022217
0.0312023
0.0310305
0.0102215
-0.00116488
-0.0186482
-0.00728736
-0.0162897
-0.0210992
-0.0110822
-0.0139588
-0.00484275
0.0226509
0.0396271
0.035688
0.0205809
0.0111116
-0.00142146
-0.0181294
-0.0279101
-0.0265568
-0.0175847
-0.0132719
-0.0151548
-0.0161062
-0.013885
-0.0862002
-0.475412
-1.07341
-1.0847
-0.986722
-0.825106
-0.66245
-0.53039
-0.393978
-0.309172
-0.266827
-0.193631
-0.149442
-0.0694854
-0.00652151
0.0824669
0.164467
0.258184
0.346593
0.412313
0.469349
0.511531
0.542044
0.560003
0.579874
0.592667
0.594606
0.596333
0.595822
0.590804
0.585135
0.577342
0.568426
0.563609
0.561773
0.560001
0.560051
0.561417
0.562786
0.565713
0.558859
0.543667
0.526421
0.498068
0.456612
0.413358
0.381503
0.354736
0.331229
0.317158
0.31376
0.313661
0.30975
0.296466
0.279418
0.262137
0.244238
0.225859
0.210068
0.204223
0.212365
0.225566
0.224571
0.207663
0.182448
0.178486
0.19524
0.212745
0.23247
0.259089
0.295033
0.337698
0.40018
0.446164
0.479603
0.489963
0.538255
0.526492
0.0475779
0.012964
-0.000567546
-0.0155137
-0.00766516
0.00287544
0.00953207
0.00298974
0.00198362
0.00186477
0.00340358
0.00414681
-0.00111745
-0.00286218
-0.00994127
-0.0148625
0.00156343
0.00891056
0.00488174
0.00898596
0.0184801
0.0287186
0.0346939
0.0222758
0.00725872
-0.0110313
-0.0219322
-0.0326528
-0.0192752
-0.01413
-0.0202798
-0.0237838
-0.0269093
-0.0268944
-0.0168926
0.00101052
0.0164537
0.0161902
0.0107593
-0.00222764
-0.0187035
-0.134092
-0.602037
-1.02106
-1.10666
-1.09757
-1.00584
-0.859147
-0.662189
-0.451559
-0.297157
-0.158656
-0.0756269
0.00455965
0.0506883
0.128093
0.194129
0.269484
0.330392
0.386292
0.434204
0.490105
0.526312
0.552965
0.576003
0.597542
0.607751
0.60842
0.609117
0.607532
0.599085
0.592291
0.58746
0.580651
0.577228
0.575142
0.575895
0.57644
0.57681
0.577384
0.577983
0.56936
0.551036
0.528842
0.499497
0.465739
0.432285
0.40507
0.387323
0.369003
0.35849
0.355498
0.350602
0.337893
0.319082
0.301125
0.282903
0.265455
0.248706
0.236543
0.236421
0.248846
0.25678
0.247373
0.223166
0.199312
0.198166
0.215812
0.231271
0.248327
0.271876
0.304528
0.346395
0.417398
0.464789
0.498148
0.504823
0.55741
0.542549
-0.00998021
0.0053624
0.00903663
0.01673
0.0276947
0.0278209
0.0228729
0.00643908
-0.0131074
-0.0259555
-0.0174293
-0.00903715
-0.00305246
0.0042578
0.00861752
0.0147608
0.0209423
0.0254677
0.0123538
0.00556252
-0.00787584
-0.0182388
-0.00550743
-0.0055312
-0.00380037
-0.00181759
0.00256976
0.0103974
0.0307434
0.0638342
0.0610456
0.0469486
0.0206705
0.00116882
-0.019809
-0.0264838
-0.0264653
-0.0241232
-0.0165744
-0.0167456
-0.0357167
-0.169136
-0.694773
-1.04491
-1.1467
-1.14292
-1.07081
-0.959974
-0.747184
-0.402652
-0.134131
0.0493322
0.134352
0.18086
0.221067
0.263488
0.307118
0.35848
0.408316
0.464217
0.505493
0.545959
0.565284
0.579721
0.592509
0.606972
0.611461
0.60875
0.605679
0.602346
0.595508
0.595784
0.597527
0.596988
0.596157
0.594894
0.594781
0.591902
0.590638
0.587834
0.582392
0.566333
0.54663
0.525104
0.500318
0.472574
0.446068
0.424774
0.407446
0.391416
0.384426
0.378645
0.366564
0.348332
0.330859
0.315096
0.297351
0.277996
0.262174
0.257196
0.264561
0.274682
0.273876
0.259175
0.229114
0.212713
0.218025
0.235147
0.24782
0.262707
0.283872
0.314752
0.355692
0.429393
0.479862
0.515517
0.518212
0.5752
0.556339
0.0192787
0.0135995
0.0108213
-0.00404971
-0.00417925
0.00606212
0.0127457
0.0099839
0.00447587
-0.00326135
-0.00518001
-0.00133558
-0.00105449
0.000360522
-0.00224133
-0.00492329
-0.00206153
0.00834992
0.00696067
0.0101596
0.0103615
0.0129898
0.0208947
0.0207692
0.0146694
0.00861693
-0.00352564
-0.0127478
-0.025576
-0.00802363
0.00385557
0.0093566
0.0168875
0.0165537
0.0124968
0.00903061
0.0121613
0.0199966
0.00559626
-0.00922041
-0.0501426
-0.24026
-0.822511
-1.0394
-1.10387
-1.09181
-1.03941
-0.946556
-0.703633
-0.29703
0.042869
0.212673
0.26702
0.317479
0.337619
0.34837
0.366809
0.398481
0.437606
0.483148
0.52489
0.565932
0.597317
0.607418
0.611642
0.619035
0.618341
0.613166
0.606468
0.60246
0.599499
0.599668
0.599429
0.601175
0.601986
0.602397
0.602307
0.60007
0.597926
0.592608
0.583742
0.567745
0.548984
0.528756
0.507148
0.485907
0.463769
0.445443
0.431477
0.421543
0.415156
0.402645
0.383303
0.365325
0.350836
0.334854
0.316544
0.299821
0.287677
0.287452
0.293374
0.295203
0.287051
0.262663
0.235181
0.227242
0.240551
0.253578
0.263255
0.27622
0.295487
0.325246
0.366007
0.437939
0.493167
0.530353
0.529963
0.591375
0.568406
-0.000235858
0.00806972
0.0145406
0.0148049
0.0145772
0.0149503
0.0123574
0.00534278
-0.00335899
-0.0123444
-0.0114643
-0.00705486
-0.00334253
0.00212258
0.00436354
0.00791832
0.00605706
0.012762
0.00989717
0.00756178
0.0029453
-0.00483928
-0.00557602
-0.00295309
0.00105055
0.00617769
0.00663107
0.00792778
0.011252
0.0243503
0.0363563
0.0374245
0.0330245
0.024925
0.00862055
0.00191793
-0.00190433
-0.00443222
-0.008406
-0.017924
-0.0716211
-0.36316
-1.00049
-1.08077
-1.08949
-1.03265
-0.947493
-0.799021
-0.487227
-0.112942
0.188549
0.310575
0.345571
0.380465
0.413309
0.430079
0.448893
0.465472
0.487195
0.511753
0.539408
0.569304
0.596622
0.611799
0.623786
0.629377
0.626529
0.618112
0.609481
0.60493
0.602673
0.601208
0.599383
0.600465
0.60161
0.603918
0.604972
0.603813
0.601653
0.595735
0.585433
0.570557
0.554315
0.538045
0.518747
0.499785
0.481599
0.465553
0.45395
0.446959
0.438363
0.421961
0.400607
0.383181
0.366742
0.349112
0.332925
0.319634
0.311613
0.31402
0.314457
0.308338
0.290815
0.260534
0.244053
0.247025
0.262479
0.27041
0.277269
0.288609
0.30572
0.334662
0.376171
0.445884
0.50554
0.542496
0.541519
0.605561
0.578324
0.00294391
0.0127066
0.0168712
0.00944852
0.00343332
0.0056612
0.00950172
0.00772905
0.00359048
-0.0014757
-0.00524934
-0.00381107
-0.00206215
0.000495658
0.000761284
0.00143453
-0.00012376
0.00474577
0.00496391
0.0070086
0.0074111
0.00590707
0.00547946
0.00869859
0.00738582
0.00942537
0.00797777
0.00390211
-0.000861553
-0.00197889
0.00195033
0.0104054
0.0171923
0.0216671
0.0229318
0.0225472
0.0260309
0.0181345
0.0167515
-0.00572879
-0.103989
-0.509157
-1.05587
-1.02294
-0.983197
-0.836906
-0.674823
-0.44012
-0.148282
0.104778
0.298242
0.359968
0.376896
0.408635
0.431727
0.451637
0.468512
0.488845
0.514446
0.539833
0.560121
0.579164
0.598727
0.609826
0.620062
0.629631
0.62951
0.624445
0.617499
0.610823
0.606263
0.602572
0.599719
0.597445
0.598069
0.601308
0.604864
0.605393
0.604678
0.599605
0.589485
0.57672
0.563557
0.549688
0.534481
0.517378
0.502094
0.488647
0.479914
0.471057
0.458254
0.438548
0.417705
0.398163
0.378501
0.36084
0.347026
0.335788
0.332242
0.333626
0.329092
0.315915
0.290666
0.266649
0.260029
0.270562
0.281389
0.2852
0.289842
0.299838
0.314888
0.343193
0.385565
0.45322
0.516925
0.554286
0.552343
0.618276
0.586331
0.00185523
0.0080948
0.0158085
0.014356
0.00982007
0.0083119
0.00754337
0.00402484
0.00130811
-0.00278972
-0.00558879
-0.00387944
-0.00175321
0.000513995
0.00285555
0.00420181
0.00306961
0.00554333
0.00381553
0.00464272
0.00362056
0.00193594
-0.000889009
0.000247819
0.00149352
0.00501772
0.00809154
0.00977997
0.0107479
0.0121046
0.0138209
0.0178454
0.0209035
0.02327
0.0210324
0.0190147
0.0153572
0.0112573
0.00227981
-0.0417437
-0.219297
-0.660432
-0.888061
-0.785439
-0.72635
-0.585715
-0.417569
-0.206893
0.0336446
0.238264
0.352193
0.379703
0.404997
0.433112
0.450574
0.462488
0.474447
0.492216
0.516951
0.544459
0.567251
0.583863
0.597971
0.608722
0.614962
0.623352
0.626077
0.62479
0.621648
0.616894
0.612473
0.606433
0.600526
0.597759
0.597307
0.599306
0.602636
0.60482
0.604712
0.602306
0.595884
0.587438
0.577604
0.566832
0.554049
0.53817
0.525693
0.514206
0.504069
0.491355
0.476499
0.454821
0.43126
0.40887
0.388838
0.373475
0.360973
0.352682
0.353338
0.351513
0.34276
0.323686
0.296683
0.280182
0.282388
0.292253
0.297333
0.29786
0.301332
0.309616
0.323323
0.351493
0.394215
0.460135
0.527807
0.565123
0.562415
0.630088
0.593236
0.00370511
0.0097172
0.0157655
0.0133632
0.00736965
0.0058446
0.00579723
0.0044707
0.00279447
0.000992204
-0.00162254
-0.00216226
-0.00118253
0.000139576
0.00148503
0.00208449
0.00178738
0.00231705
0.00203021
0.00323217
0.00465524
0.00400516
0.00246384
0.00231314
0.00202629
0.00502507
0.00659767
0.007358
0.00791999
0.00721931
0.0068478
0.00859278
0.0110257
0.0133837
0.0145666
0.0151449
0.0150046
0.0152572
-0.00753624
-0.100211
-0.32089
-0.435047
-0.491154
-0.505255
-0.513079
-0.44182
-0.295698
-0.0930995
0.0962159
0.260292
0.343205
0.369495
0.392724
0.413939
0.429393
0.44273
0.459053
0.481156
0.50804
0.536691
0.561668
0.58006
0.595279
0.604777
0.6101
0.61571
0.620371
0.621584
0.619631
0.618356
0.617025
0.612675
0.607532
0.601581
0.598215
0.598886
0.601768
0.606023
0.607346
0.607185
0.604162
0.59931
0.592942
0.585819
0.574675
0.561263
0.551553
0.539784
0.526224
0.511095
0.493799
0.468497
0.441927
0.419294
0.401926
0.38977
0.37897
0.374582
0.374454
0.368215
0.354637
0.331168
0.308581
0.300123
0.305811
0.310988
0.310726
0.30866
0.310874
0.317722
0.33167
0.359986
0.402362
0.467433
0.537403
0.57485
0.571633
0.64112
0.599847
0.00281897
0.00713277
0.0147406
0.014124
0.00973637
0.00749159
0.00514544
0.00252118
0.00124521
0.000681939
-0.000636202
-0.000424838
0.000154324
0.00118986
0.00189071
0.00242943
0.0019285
0.00178538
0.00115434
0.00149939
0.00145567
0.00168517
0.00166747
0.000720872
0.00101544
0.00249445
0.00535253
0.00801409
0.00987277
0.0105251
0.0114569
0.0125405
0.0136615
0.0152513
0.0146928
0.0139345
0.00832202
-0.00080468
-0.0554623
-0.16756
-0.143506
-0.0957742
-0.160564
-0.235563
-0.292907
-0.283045
-0.205704
-0.0472697
0.0888705
0.209141
0.287531
0.331604
0.361498
0.37738
0.389653
0.406162
0.42854
0.454181
0.480998
0.507418
0.531425
0.552092
0.571292
0.582827
0.592404
0.601228
0.608091
0.6098
0.60955
0.610464
0.61378
0.611947
0.612463
0.606388
0.604374
0.603189
0.606066
0.608761
0.611541
0.612937
0.612988
0.612258
0.608909
0.605356
0.597422
0.585532
0.576024
0.562196
0.546346
0.530151
0.508344
0.479385
0.452768
0.432567
0.418566
0.40821
0.400848
0.39998
0.395727
0.384602
0.36552
0.34013
0.323634
0.320293
0.326235
0.32594
0.321444
0.317913
0.318976
0.32575
0.340499
0.368715
0.410058
0.474579
0.54588
0.583272
0.579701
0.651539
0.606532
0.00426502
0.00731689
0.0132757
0.0125882
0.00933885
0.0070063
0.0050081
0.0027436
0.00194783
0.00175219
0.000862909
0.00117941
0.00120211
0.00149805
0.00165855
0.00145794
0.00189998
0.00146972
0.000620119
0.000839018
0.000766476
0.000846036
0.00138119
0.0017645
0.00166475
0.00227899
0.00446713
0.00654724
0.00803441
0.00832882
0.0086113
0.0088357
0.00944226
0.00886167
0.00947828
0.00565459
0.0120351
-0.00348516
0.0437262
0.0443921
0.0931867
0.0519372
-0.0550201
-0.161976
-0.209602
-0.194532
-0.132745