/*--------------------------------*- C++ -*----------------------------------*\
| =========                 |                                                 |
| \\      /  F ield         | OpenFOAM: The Open Source CFD Toolbox           |
|  \\    /   O peration     | Version:  2.2.x                                 |
|   \\  /    A nd           | Web:      www.OpenFOAM.org                      |
|    \\/     M anipulation  |                                                 |
\*---------------------------------------------------------------------------*/
FoamFile
{
    version     2.0;
    format      ascii;
    class       volVectorField;
    location    "0.75";
    object      U;
}
// * * * * * * * * * * * * * * * * * * * * * * * * * * * * * * * * * * * * * //

dimensions      [0 1 -1 0 0 0 0];

internalField   nonuniform List<vector> 
14161
(
(1.48082 0.0554326 9.75554e-22)
(1.4535 0.0522847 2.99518e-21)
(1.44283 0.0212394 2.11825e-21)
(1.43089 -0.0296797 -5.3913e-22)
(1.42035 -0.0472566 4.4228e-23)
(1.41154 -0.0436424 -7.50244e-22)
(1.41407 -0.0306436 1.77831e-21)
(1.43386 -0.00642601 1.12219e-21)
(1.451 0.0230386 2.81907e-21)
(1.45214 0.0435038 1.85304e-21)
(1.45 0.0476235 1.59658e-21)
(1.43375 0.0425614 1.32363e-21)
(1.41334 0.0325057 3.05112e-22)
(1.39381 0.00497486 1.28435e-21)
(1.35858 -0.0173311 7.60882e-22)
(1.34471 -0.0289028 1.43654e-21)
(1.34397 -0.0272334 1.22538e-21)
(1.34693 -0.0193141 8.64632e-22)
(1.34982 -0.00788375 1.1118e-21)
(1.36708 0.0111379 1.05957e-21)
(1.37743 0.029518 1.24607e-21)
(1.39303 0.0360859 2.69009e-21)
(1.38201 0.0362914 2.64433e-21)
(1.37462 0.0328093 2.4628e-21)
(1.36315 0.0217891 1.92655e-21)
(1.35398 0.00256764 1.50181e-21)
(1.34674 -0.0127303 1.94174e-21)
(1.34089 -0.0155598 1.89271e-21)
(1.33695 -0.0129877 1.60335e-21)
(1.33558 -0.00819673 1.65981e-21)
(1.35593 0.000648297 2.06535e-21)
(1.37127 0.0133195 2.31632e-21)
(1.38296 0.0298344 1.58755e-21)
(1.38668 0.042627 1.23516e-21)
(1.38974 0.0505927 1.16126e-21)
(1.39751 0.0523328 3.47282e-22)
(1.40283 0.0496668 1.62913e-22)
(1.41183 0.0467124 8.07951e-23)
(1.42087 0.0452163 -1.86304e-22)
(1.43494 0.0446976 4.68208e-22)
(1.45765 0.0478679 1.18071e-21)
(1.48314 0.0334854 -1.68836e-20)
(1.25574 -0.0504358 -2.74264e-20)
(0.680402 0.0276437 -2.13029e-20)
(0.686143 0.0441541 -1.37437e-20)
(0.665594 0.0402047 -6.20945e-21)
(0.647191 0.030636 8.78012e-21)
(0.63917 0.0209082 1.39283e-20)
(0.63936 0.0158106 2.34964e-20)
(0.644633 0.0110647 2.44877e-20)
(0.657829 0.00640752 2.94741e-20)
(0.675624 0.00596938 3.46398e-20)
(0.693989 0.00805295 4.60586e-20)
(0.710893 0.0119323 5.28161e-20)
(0.722683 0.0150967 6.49578e-20)
(0.73331 0.0171848 6.7706e-20)
(0.738975 0.0208293 7.45636e-20)
(0.739441 0.0271569 7.73141e-20)
(0.7266 0.0332052 8.13878e-20)
(0.705535 0.0420954 8.65889e-20)
(0.669917 0.0484623 1.00435e-19)
(0.62825 0.0569774 1.28236e-19)
(0.573145 0.0639229 1.55253e-19)
(0.510293 0.0720998 1.96675e-19)
(0.441913 0.0719176 2.22514e-19)
(0.376273 0.0575009 2.30277e-19)
(0.321967 0.0445853 2.46244e-19)
(0.279448 0.0322081 2.42965e-19)
(0.250059 0.0178347 2.45644e-19)
(0.232487 0.00749081 2.37966e-19)
(0.219794 0.00626555 2.13656e-19)
(0.211133 0.00370854 2.00385e-19)
(0.205297 0.00325468 1.86148e-19)
(0.200452 0.00342559 1.60671e-19)
(0.195981 0.00460845 1.54877e-19)
(0.190683 0.00644744 1.5069e-19)
(0.185077 0.00770289 1.60674e-19)
(0.180381 0.00676647 1.75566e-19)
(0.178638 0.00352816 1.9755e-19)
(0.179747 0.00140873 2.25479e-19)
(0.18276 0.000257256 2.41236e-19)
(0.186339 0.000882739 2.54576e-19)
(0.190861 0.00114156 2.28905e-19)
(0.196815 0.00191673 1.91158e-19)
(0.204029 0.00317039 1.19108e-19)
(0.21151 0.00481875 4.14011e-20)
(0.218442 0.00599175 -9.80085e-20)
(0.223877 0.00568978 -2.0751e-19)
(0.228621 0.00435603 -2.22058e-19)
(0.232858 0.00343278 -3.1998e-19)
(0.23578 0.00256107 -4.58557e-19)
(0.237441 0.00191208 -5.98706e-19)
(0.23662 0.00160639 -6.90141e-19)
(0.232409 0.00129771 -7.84835e-19)
(0.224142 0.000511416 -9.27382e-19)
(0.210621 -0.000374318 -1.05586e-18)
(0.19068 -0.00117796 -1.17816e-18)
(0.167832 -0.00044318 -1.22931e-18)
(0.148295 0.00127604 -1.22524e-18)
(0.133438 0.00305053 -1.25407e-18)
(0.122562 0.00438071 -1.27943e-18)
(0.115442 0.00510348 -1.25694e-18)
(0.111566 0.00537811 -1.20584e-18)
(0.110847 0.00512642 -1.07963e-18)
(0.113433 0.00490078 -9.24418e-19)
(0.117988 0.00472257 -7.2238e-19)
(0.124075 0.00463267 -5.03543e-19)
(0.13165 0.0044156 -2.91408e-19)
(0.139115 0.00605669 -2.63254e-19)
(0.144974 0.00660058 -1.02833e-19)
(0.149101 0.0082348 -2.87354e-19)
(0.150733 0.00913577 -2.94519e-19)
(0.14961 0.0110137 -4.8987e-19)
(0.142655 0.0135593 -2.3186e-19)
(0.12905 0.017857 -6.70083e-19)
(0.106823 0.0183994 1.93804e-19)
(0.0784931 0.0174651 -9.71692e-19)
(0.0458936 0.0131591 1.38412e-18)
(0.0184886 0.00939363 -1.66434e-18)
(1.28638 -0.0369367 2.80939e-20)
(1.41802 -0.0378944 2.1139e-20)
(1.49569 -0.0152552 2.60903e-20)
(1.51747 -0.00257105 2.44471e-20)
(1.50208 0.013952 1.93298e-20)
(1.5126 0.0216917 2.52146e-20)
(1.44673 0.0225687 3.55383e-20)
(1.41183 0.0189228 4.56088e-20)
(1.37569 0.00323293 5.92988e-20)
(1.3445 -0.0148415 5.8109e-20)
(1.38162 -0.0293121 5.50368e-20)
(1.38238 -0.0306624 4.98656e-20)
(1.41187 -0.0223425 4.41958e-20)
(1.4395 -0.0162426 3.34314e-20)
(1.45366 -0.00363486 3.04062e-20)
(1.42349 0.00579456 2.80079e-20)
(1.4043 0.0115396 2.71825e-20)
(1.39191 0.0166371 2.91597e-20)
(1.33473 0.0142004 3.27655e-20)
(1.31297 0.00804883 3.48253e-20)
(1.30265 -0.00169445 4.02716e-20)
(1.30908 -0.0137781 4.14328e-20)
(1.31699 -0.0181689 4.22426e-20)
(1.33521 -0.0206199 4.22988e-20)
(1.36701 -0.0156431 4.24036e-20)
(1.39011 -0.0163221 4.07963e-20)
(1.38624 -0.00731004 4.14852e-20)
(1.37049 -0.000462693 4.21611e-20)
(1.35296 0.00564968 4.22038e-20)
(1.32524 0.00674966 4.59199e-20)
(1.29512 0.00516329 4.43921e-20)
(1.27018 0.00222019 5.24165e-20)
(1.25364 -0.00125846 5.4625e-20)
(1.25551 -0.00531197 5.17198e-20)
(1.2689 -0.0083563 5.44457e-20)
(1.28164 -0.0122829 5.50599e-20)
(1.29513 -0.0166998 5.42697e-20)
(1.30195 -0.0185946 5.4804e-20)
(1.30278 -0.01891 5.41148e-20)
(1.29987 -0.0199401 4.91565e-20)
(1.29391 -0.0189917 6.33923e-20)
(1.29518 -0.0305289 1.66722e-20)
(0.672909 -0.0609806 -3.22994e-20)
(0.46032 -0.00774231 -8.11313e-20)
(0.4499 0.00281979 -1.2863e-19)
(0.457358 7.8549e-05 -1.2663e-19)
(0.469028 -0.00480271 -7.92361e-20)
(0.484367 -0.00922865 -4.43893e-20)
(0.501153 -0.0106245 -1.05312e-20)
(0.518385 -0.0124571 1.4927e-20)
(0.534033 -0.01474 3.21382e-20)
(0.547459 -0.0135697 4.73008e-20)
(0.557374 -0.0103876 6.03281e-20)
(0.56173 -0.00547393 8.39952e-20)
(0.561648 -0.00139175 1.13906e-19)
(0.55373 0.00199885 1.48122e-19)
(0.541113 0.00663825 1.43035e-19)
(0.524507 0.0143001 1.47676e-19)
(0.501377 0.0222819 1.46049e-19)
(0.478591 0.0351539 1.79639e-19)
(0.450687 0.0442239 1.85333e-19)
(0.424637 0.0559707 2.45864e-19)
(0.399375 0.0646586 2.44956e-19)
(0.377311 0.0721535 3.12192e-19)
(0.35389 0.078889 2.97617e-19)
(0.328353 0.0653725 3.54808e-19)
(0.302587 0.0522404 3.27853e-19)
(0.278754 0.0414886 3.36317e-19)
(0.257636 0.0316674 3.58968e-19)
(0.237525 0.0253788 3.18624e-19)
(0.221088 0.0164309 3.5802e-19)
(0.208408 0.0112218 3.20367e-19)
(0.197135 0.00807103 3.54837e-19)
(0.187257 0.00709658 2.9884e-19)
(0.178358 0.00837736 2.61681e-19)
(0.170336 0.0106551 2.34865e-19)
(0.163256 0.0125824 1.55491e-19)
(0.156824 0.0119651 8.85454e-20)
(0.152354 0.00835718 4.4742e-20)
(0.147976 0.00589731 -6.50937e-20)
(0.144901 0.00442002 -2.35118e-19)
(0.142538 0.00496759 -2.50193e-19)
(0.141485 0.00499447 -3.99746e-19)
(0.141754 0.00554775 -5.74568e-19)
(0.143529 0.00641095 -5.79036e-19)
(0.146907 0.00762008 -6.83348e-19)
(0.151122 0.00815446 -8.93249e-19)
(0.154894 0.00750456 -1.12529e-18)
(0.158412 0.0060676 -1.13972e-18)
(0.161419 0.00495671 -1.38415e-18)
(0.163228 0.00394675 -1.44622e-18)
(0.163443 0.00320441 -1.48516e-18)
(0.16161 0.00265212 -1.69615e-18)
(0.156977 0.00203551 -1.87068e-18)
(0.148589 0.000858388 -1.91214e-18)
(0.135169 -0.000249925 -1.92686e-18)
(0.116165 -0.00155574 -1.80824e-18)
(0.0955903 -0.00125619 -1.73592e-18)
(0.0783206 0.000407334 -1.51704e-18)
(0.0657518 0.00241294 -1.2661e-18)
(0.0573905 0.00423813 -8.97688e-19)
(0.052494 0.00537472 -4.48251e-19)
(0.0501516 0.00584798 -2.06619e-20)
(0.0503238 0.00570725 5.29112e-19)
(0.0535538 0.00522078 1.07112e-18)
(0.0582841 0.00490983 1.10897e-18)
(0.0641783 0.00482471 1.11682e-18)
(0.0711278 0.00462397 7.17141e-19)
(0.0783083 0.0062659 1.9711e-19)
(0.0855246 0.00676858 -5.38313e-19)
(0.0920738 0.00853818 -1.1275e-18)
(0.0973179 0.00964554 -1.73843e-18)
(0.100461 0.0120947 -1.55756e-18)
(0.100857 0.0150417 -1.30827e-18)
(0.0967706 0.019869 -6.92608e-19)
(0.0862536 0.0201116 -4.01505e-19)
(0.069911 0.0281455 -7.36005e-19)
(0.0444968 0.0284238 -5.15229e-19)
(0.0225193 0.0278013 1.35758e-18)
(1.71621 0.00412131 -2.55683e-20)
(1.44647 0.0154999 2.01583e-21)
(1.36392 0.0144319 1.40591e-20)
(1.33962 -0.0106168 2.83158e-20)
(1.35208 -0.0303715 2.61167e-20)
(1.38679 -0.0288501 2.83973e-20)
(1.41994 -0.019555 2.38975e-20)
(1.49788 -0.00295976 1.94677e-20)
(1.55608 0.00829573 1.49714e-20)
(1.57262 0.0153644 8.07894e-21)
(1.52842 0.0136851 1.99699e-20)
(1.47488 0.018833 2.14864e-20)
(1.41275 0.0166757 3.40571e-20)
(1.34175 0.00596675 5.07052e-20)
(1.28708 -0.00996833 7.12448e-20)
(1.31217 -0.0212864 7.86327e-20)
(1.32032 -0.0189485 7.69173e-20)
(1.34767 -0.012058 7.09747e-20)
(1.38321 -0.00469816 6.58528e-20)
(1.43174 0.00374895 6.05225e-20)
(1.45838 0.0105836 4.83952e-20)
(1.45142 0.0120179 4.11824e-20)
(1.40693 0.0125119 4.17478e-20)
(1.37753 0.0134667 4.3867e-20)
(1.3306 0.0106174 4.67545e-20)
(1.29211 0.00238304 5.43631e-20)
(1.27134 -0.00785983 6.12405e-20)
(1.28502 -0.0159617 6.01651e-20)
(1.30281 -0.0120898 5.64895e-20)
(1.32889 -0.0102863 5.35138e-20)
(1.36185 -0.00744025 4.16199e-20)
(1.39953 -0.00136391 8.17536e-20)
(1.42296 0.00444512 -2.06159e-20)
(1.43931 0.00918661 4.22004e-20)
(1.42722 0.0136836 6.52936e-20)
(1.4209 0.0157444 4.15092e-20)
(1.40838 0.0145083 2.96575e-20)
(1.40624 0.0124178 1.90801e-20)
(1.40803 0.00929918 3.00295e-20)
(1.41909 0.00575952 3.66108e-20)
(1.44391 0.00404907 5.03791e-20)
(1.48421 -0.0087101 -4.44565e-20)
(1.30941 -0.0423426 -1.49004e-19)
(0.731259 0.000262147 -2.07836e-19)
(0.670836 0.0142007 -1.70978e-19)
(0.654469 0.0132672 -1.0148e-19)
(0.649989 0.00197071 -8.94991e-20)
(0.652042 -0.00780023 -7.38048e-20)
(0.65886 -0.0129973 -1.84117e-20)
(0.667341 -0.0168088 1.51835e-20)
(0.678545 -0.0189172 2.9092e-20)
(0.690567 -0.0168398 5.12113e-20)
(0.702122 -0.0119682 5.77624e-20)
(0.709507 -0.00554849 8.18954e-20)
(0.717351 0.0019113 1.12947e-19)
(0.711418 0.0106651 1.07776e-19)
(0.706204 0.0196799 1.01993e-19)
(0.692597 0.030291 9.32336e-20)
(0.671038 0.0392143 1.09773e-19)
(0.649389 0.0545575 1.5213e-19)
(0.62192 0.0638624 1.28319e-19)
(0.596718 0.0774415 2.17563e-19)
(0.570644 0.0873775 2.26446e-19)
(0.547359 0.0957622 2.46481e-19)
(0.527732 0.105554 2.81683e-19)
(0.50836 0.0971486 3.3306e-19)
(0.47713 0.0865852 3.5195e-19)
(0.441735 0.0749484 3.63656e-19)
(0.403954 0.0595778 4.10212e-19)
(0.366224 0.0485895 3.73532e-19)
(0.33188 0.0403593 3.98267e-19)
(0.301195 0.0334417 3.80813e-19)
(0.2748 0.0271773 4.39038e-19)
(0.252303 0.0228079 3.91809e-19)
(0.23268 0.0220601 3.85652e-19)
(0.216021 0.0232893 4.23489e-19)
(0.20147 0.0246627 3.2653e-19)
(0.188494 0.023985 3.22298e-19)
(0.17737 0.0199596 2.94141e-19)
(0.168202 0.0164793 3.16323e-19)
(0.161673 0.0134602 1.63666e-19)
(0.157899 0.0123596 1.83384e-19)
(0.15685 0.0111367 7.14196e-20)
(0.158059 0.0111054 3.82974e-20)
(0.161095 0.0110314 -7.61699e-20)
(0.165434 0.0111202 -1.47027e-19)
(0.170183 0.0104036 -1.50506e-19)
(0.174829 0.00864094 -3.89858e-19)
(0.179127 0.00635113 -3.63945e-19)
(0.183056 0.00448709 -4.48977e-19)
(0.185863 0.00302438 -5.84144e-19)
(0.187136 0.00195606 -6.91971e-19)
(0.18615 0.00118341 -9.64686e-19)
(0.182659 5.57911e-05 -1.25747e-18)
(0.175289 -0.00146883 -1.62046e-18)
(0.16297 -0.00273939 -2.04825e-18)
(0.145438 -0.00331587 -2.02432e-18)
(0.125876 -0.00236411 -2.26391e-18)
(0.108574 -0.000565076 -2.35061e-18)
(0.0953291 0.00191593 -2.35389e-18)
(0.0861533 0.00437878 -2.16389e-18)
(0.0802655 0.00611071 -1.92611e-18)
(0.077124 0.00716117 -1.19131e-18)
(0.0768007 0.00760964 -3.21102e-19)
(0.0792699 0.00723951 4.36549e-19)
(0.0832839 0.0071653 1.03177e-18)
(0.0883042 0.00739423 1.24766e-18)
(0.0941207 0.00753835 1.03853e-18)
(0.099737 0.00951222 2.54166e-19)
(0.104849 0.0101853 -1.05044e-18)
(0.108897 0.0122761 -2.32963e-18)
(0.111598 0.0142257 -3.13289e-18)
(0.112017 0.0180408 -2.50539e-18)
(0.108527 0.0226519 -1.42589e-18)
(0.0999203 0.028908 -1.59439e-19)
(0.0848386 0.031398 3.1761e-19)
(0.0658041 0.0414535 -4.03176e-19)
(0.0416662 0.0432977 -1.35823e-18)
(0.0219331 0.0467373 -1.308e-18)
(1.18666 -0.0348184 2.29027e-20)
(1.42142 -0.024926 1.04964e-20)
(1.56186 -0.00109547 -7.31886e-22)
(1.62416 0.00475932 -1.09883e-20)
(1.57053 0.00381446 -4.22508e-22)
(1.58262 0.00603412 -7.45673e-22)
(1.47531 0.00594714 -6.97565e-23)
(1.41323 0.00973298 1.20877e-21)
(1.34785 0.00613961 9.26886e-21)
(1.29988 -0.00164638 1.11332e-20)
(1.34954 -0.0187102 1.62237e-20)
(1.36473 -0.0131003 6.8478e-21)
(1.40922 -0.00929118 6.38686e-22)
(1.48475 -0.0055217 -1.36068e-20)
(1.52097 -0.00109524 -6.95875e-21)
(1.47597 -0.000413486 -1.67746e-20)
(1.4436 0.00382631 -1.22823e-20)
(1.41692 0.00569075 -1.52528e-20)
(1.33053 0.00766307 -1.89549e-20)
(1.2926 0.0072499 -1.03259e-20)
(1.27157 0.00453935 -1.12324e-20)
(1.28466 -0.00141897 -6.74852e-21)
(1.29179 -0.00702192 -1.31095e-20)
(1.33208 -0.00593457 -1.11036e-20)
(1.38103 -0.00390993 -1.15604e-20)
(1.41942 -0.0039696 -1.53245e-20)
(1.43836 -0.0038051 -1.56995e-20)
(1.39339 -0.0028216 -1.43454e-20)
(1.3708 0.00153311 -1.51305e-20)
(1.31913 0.00478473 -1.72787e-20)
(1.27053 0.0130163 -1.50676e-20)
(1.22325 0.00942118 -1.0756e-20)
(1.19181 0.0105274 -1.29323e-20)
(1.20117 0.00909074 -7.23796e-21)
(1.22725 0.00933454 -5.09886e-21)
(1.25114 0.011719 -4.923e-21)
(1.27692 0.0113965 -5.99402e-21)
(1.30001 0.00876485 -5.75305e-21)
(1.31321 0.0076563 -5.19601e-21)
(1.31685 0.00799955 -2.34319e-21)
(1.31162 0.00309057 -5.9411e-21)
(1.31426 0.0082032 -3.17149e-20)
(0.631932 -0.0187588 -7.15319e-20)
(0.476553 0.0383812 -1.06181e-19)
(0.460892 0.0350583 -1.25202e-19)
(0.472393 0.0165662 -1.37826e-19)
(0.491776 -0.00302116 -5.91755e-20)
(0.513726 -0.0172432 -3.33553e-22)
(0.53707 -0.0234956 3.65556e-20)
(0.558367 -0.0281491 1.14081e-19)
(0.578312 -0.0311296 1.15147e-19)
(0.597228 -0.0268446 1.47517e-19)
(0.612176 -0.01894 1.21134e-19)
(0.624722 -0.0104538 1.62765e-19)
(0.63201 0.00126109 1.58397e-19)
(0.63772 0.0144584 2.42757e-19)
(0.637173 0.0276035 2.28686e-19)
(0.636129 0.0455621 1.94693e-19)
(0.625627 0.0611004 1.75313e-19)
(0.617775 0.080573 1.91886e-19)
(0.605662 0.0934701 2.13803e-19)
(0.593025 0.108947 2.43491e-19)
(0.583732 0.119897 2.40378e-19)
(0.569296 0.126724 2.81285e-19)
(0.557634 0.135257 3.01576e-19)
(0.53981 0.142723 3.45142e-19)
(0.514492 0.143644 3.9504e-19)
(0.481019 0.139486 4.18633e-19)
(0.442885 0.12652 4.84171e-19)
(0.401206 0.116664 3.582e-19)
(0.361545 0.103043 5.23697e-19)
(0.325891 0.0894375 4.76736e-19)
(0.295234 0.0762359 5.52801e-19)
(0.268555 0.0651122 4.2051e-19)
(0.244666 0.0582033 4.07146e-19)
(0.224897 0.0542404 3.86009e-19)
(0.208865 0.0521456 3.57612e-19)
(0.194908 0.0491355 3.41971e-19)
(0.182781 0.0433571 3.07332e-19)
(0.171382 0.0372406 2.7941e-19)
(0.162465 0.030645 2.91661e-19)
(0.156654 0.0252209 2.72518e-19)
(0.15467 0.0210416 2.72703e-19)
(0.155135 0.0182249 1.95633e-19)
(0.156822 0.0160196 1.41905e-19)
(0.159798 0.0144375 1.22879e-19)
(0.164087 0.0129076 1.67866e-20)
(0.169443 0.0101622 9.25603e-21)
(0.175368 0.00738189 -4.15891e-20)
(0.180509 0.00499283 -1.38812e-19)
(0.184331 0.00317526 -2.53407e-19)
(0.186365 0.00171069 -2.96949e-19)
(0.185917 0.000492416 -4.52988e-19)
(0.182424 -0.000907009 -5.93872e-19)
(0.175146 -0.00237419 -8.6256e-19)
(0.163299 -0.00340303 -1.09544e-18)
(0.147503 -0.00346714 -1.21895e-18)
(0.130326 -0.00163618 -1.43485e-18)
(0.114412 0.000595895 -1.63153e-18)
(0.10176 0.00308275 -1.75637e-18)
(0.0926703 0.00598758 -1.92044e-18)
(0.0865506 0.00822023 -1.90939e-18)
(0.0830103 0.00959424 -1.78356e-18)
(0.0826149 0.0110596 -1.25923e-18)
(0.0848412 0.0109705 -7.46511e-19)
(0.0887008 0.0112001 -1.02495e-19)
(0.0936069 0.0120551 4.89176e-20)
(0.0994607 0.012893 3.3077e-19)
(0.10477 0.0160617 -1.35114e-19)
(0.109817 0.0175822 -1.02197e-18)
(0.113299 0.0209547 -2.02238e-18)
(0.115668 0.0236582 -2.33044e-18)
(0.115081 0.0278988 -1.2053e-18)
(0.110844 0.0330701 5.68194e-19)
(0.10171 0.0412023 2.1084e-18)
(0.0848519 0.0437666 1.1918e-18)
(0.0667825 0.0551766 2.51225e-19)
(0.0425249 0.0578104 -2.1437e-18)
(0.0230523 0.0635369 -2.21366e-18)
(1.83068 -0.0068311 2.90205e-20)
(1.46204 -0.000160822 -3.03157e-20)
(1.33789 0.00954297 -6.42302e-20)
(1.28749 0.00587308 -7.12561e-20)
(1.30797 -0.0107483 -6.00577e-20)
(1.38346 -0.0230403 -5.14903e-20)
(1.4344 -0.0185225 -4.52923e-20)
(1.53832 -0.00637931 -4.98871e-20)
(1.62616 0.00245187 -3.80802e-20)
(1.65736 0.00821699 -4.40074e-20)
(1.5789 0.00530202 -6.61396e-20)
(1.51732 0.00878383 -6.02417e-20)
(1.42417 0.0115167 -6.60341e-20)
(1.31302 0.00878963 -7.94911e-20)
(1.23427 0.000332212 -9.31001e-20)
(1.26167 -0.0143309 -8.81992e-20)
(1.29502 -0.0149535 -7.61657e-20)
(1.33497 -0.0128548 -7.0225e-20)
(1.38913 -0.00649959 -5.83752e-20)
(1.46301 -0.00166345 -6.56793e-20)
(1.50122 0.00321638 -5.74981e-20)
(1.51124 0.00644417 -6.54446e-20)
(1.44711 0.0064796 -7.11733e-20)
(1.40827 0.00762076 -7.73283e-20)
(1.33947 0.00954394 -8.40651e-20)
(1.27008 0.00854913 -8.47497e-20)
(1.22178 0.00039447 -1.01494e-19)
(1.22053 -0.00874957 -1.09455e-19)
(1.24795 -0.0147517 -1.08958e-19)
(1.27999 -0.013469 -1.03873e-19)
(1.32361 -0.0112926 -9.98028e-20)
(1.38254 -0.0137092 -8.9635e-20)
(1.42086 -0.00369057 -7.85406e-20)
(1.45011 -0.00350213 -9.62141e-20)
(1.41916 -0.000919077 -8.3975e-20)
(1.39937 0.00116439 -7.72324e-20)
(1.37548 0.00167388 -7.63481e-20)
(1.34563 0.00209958 -7.8831e-20)
(1.32992 6.61548e-05 -8.92367e-20)
(1.322 -0.00166732 -6.66888e-20)
(1.31433 -0.00696358 -1.16016e-19)
(1.32355 0.000108263 4.67366e-21)
(0.85447 0.0426757 1.29341e-19)
(0.603676 0.0238053 9.04265e-20)
(0.566776 0.00811438 1.25044e-19)
(0.569614 -0.00684217 9.9003e-20)
(0.577792 -0.0255084 1.31487e-19)
(0.589864 -0.0401078 1.63121e-19)
(0.609366 -0.0470179 1.30355e-19)
(0.628637 -0.0532497 1.91448e-19)
(0.649233 -0.056741 2.26026e-19)
(0.670135 -0.0517494 2.12907e-19)
(0.689113 -0.0430389 2.29042e-19)
(0.70577 -0.0314802 1.90236e-19)
(0.718214 -0.016417 1.76585e-19)
(0.730361 -0.00190688 1.26182e-19)
(0.735256 0.0164872 8.47539e-20)
(0.729939 0.0340987 5.09949e-20)
(0.732105 0.0570226 4.56232e-20)
(0.721105 0.078776 3.42013e-20)
(0.7119 0.10127 5.7758e-20)
(0.695376 0.118918 9.13498e-20)
(0.683466 0.137684 1.20824e-19)
(0.66145 0.149157 1.48599e-19)
(0.641691 0.163476 2.26653e-19)
(0.618034 0.171973 3.08336e-19)
(0.594029 0.177718 4.26784e-19)
(0.568102 0.176951 5.53103e-19)
(0.535766 0.167099 6.04105e-19)
(0.497449 0.159219 6.0547e-19)
(0.45574 0.139076 6.6578e-19)
(0.412651 0.121374 5.84937e-19)
(0.373614 0.104686 6.49533e-19)
(0.338552 0.091017 5.8908e-19)
(0.305353 0.0813425 4.43427e-19)
(0.277092 0.0726828 4.31328e-19)
(0.253102 0.0676382 3.99406e-19)
(0.232517 0.0631119 4.76104e-19)
(0.214149 0.0583664 3.31275e-19)
(0.197104 0.0529998 3.26002e-19)
(0.182483 0.0462319 3.11115e-19)
(0.171556 0.0389739 3.69837e-19)
(0.164943 0.0322782 3.98021e-19)
(0.160188 0.027437 1.79152e-19)
(0.157617 0.0227488 1.94692e-19)
(0.158465 0.0184382 6.07657e-20)
(0.161226 0.0137524 1.48356e-19)
(0.165443 0.00892441 -1.14973e-20)
(0.171116 0.00576794 -1.31984e-19)
(0.176465 0.00382466 -7.18784e-20)
(0.180413 0.00257088 -1.62327e-19)
(0.182453 0.00108653 -1.62836e-19)
(0.182203 -6.02102e-05 -2.54582e-19)
(0.17896 -0.00128452 -3.63543e-19)
(0.171972 -0.00268666 -6.259e-19)
(0.161088 -0.00349407 -6.72853e-19)
(0.147233 -0.00316636 -8.74636e-19)
(0.131445 -0.00158208 -9.09334e-19)
(0.116763 0.000907475 -1.00225e-18)
(0.10469 0.00385055 -1.05952e-18)
(0.0957771 0.00703053 -1.08423e-18)
(0.0895298 0.00964107 -1.13591e-18)
(0.0854956 0.0116951 -1.19453e-18)
(0.0845885 0.0140622 -1.08993e-18)
(0.0860139 0.0147493 -9.8355e-19)
(0.089246 0.0152709 -8.39752e-19)
(0.0936164 0.0165491 -7.75552e-19)
(0.099135 0.018111 -7.59243e-19)
(0.103787 0.022128 -8.33118e-19)
(0.108463 0.0244781 -9.86553e-19)
(0.111053 0.0285243 -8.65208e-19)
(0.11275 0.0320181 -3.66057e-19)
(0.111257 0.0367008 9.79018e-19)
(0.106833 0.042447 2.68569e-18)
(0.0990213 0.052631 2.73297e-18)
(0.0829652 0.0557815 -9.97022e-19)
(0.0659338 0.0681317 -3.36691e-18)
(0.0426069 0.0725443 -8.40723e-19)
(0.0249049 0.08025 -1.81032e-18)
(1.1506 -0.0308413 -1.42322e-19)
(1.43432 -0.0241284 -1.29591e-19)
(1.60133 -0.00334199 -7.25617e-20)
(1.67863 0.00935104 -7.83507e-20)
(1.60995 0.00959887 -4.16129e-21)
(1.63965 0.00185948 -3.91456e-20)
(1.50128 -0.00028256 -9.16034e-20)
(1.42164 0.00278733 -1.45664e-19)
(1.33827 0.00385744 -2.23114e-19)
(1.28693 0.00052806 -2.6314e-19)
(1.32515 -0.0121385 -2.47203e-19)
(1.33999 -0.0119367 -2.69297e-19)
(1.38929 -0.00689032 -2.34801e-19)
(1.48859 -0.00437371 -1.66473e-19)
(1.52609 0.00144137 -1.38893e-19)
(1.51065 -0.000374275 -1.13199e-19)
(1.46793 0.00481026 -1.34218e-19)
(1.43297 0.00188611 -1.33036e-19)
(1.33281 0.00394946 -1.48962e-19)
(1.28388 0.00603392 -1.75882e-19)
(1.25499 0.00344538 -1.96887e-19)
(1.25665 -0.000656246 -2.11887e-19)
(1.27394 -0.00668174 -2.21767e-19)
(1.30854 -0.00472454 -2.15963e-19)
(1.36807 -0.00182058 -1.99143e-19)
(1.42558 0.000241314 -1.70667e-19)
(1.44844 -0.00125935 -1.48464e-19)
(1.44208 0.000125991 -1.41867e-19)
(1.39271 0.00104301 -1.45238e-19)
(1.34884 0.00343055 -1.59271e-19)
(1.28317 0.0068752 -1.69444e-19)
(1.22656 0.0150719 -1.97452e-19)
(1.18383 0.0192169 -2.0841e-19)
(1.18682 0.0127594 -2.32644e-19)
(1.19904 0.0116475 -2.51459e-19)
(1.24149 0.00975989 -2.43047e-19)
(1.26913 0.0104412 -2.34023e-19)
(1.31638 0.0111591 -2.12197e-19)
(1.35057 0.0104326 -2.34963e-19)
(1.37928 0.0109842 -9.87919e-20)
(1.39684 0.00731747 -2.89955e-19)
(1.42623 0.034092 4.69178e-20)
(0.94078 0.114191 4.28606e-19)
(0.615303 0.0395165 3.96052e-19)
(0.594292 0.0131794 5.55785e-19)
(0.606036 -0.00838396 5.56221e-19)
(0.621981 -0.0330008 6.37407e-19)
(0.635319 -0.0566982 6.07477e-19)
(0.660879 -0.0680065 6.07247e-19)
(0.685124 -0.0745625 5.64861e-19)
(0.710723 -0.0740566 5.95115e-19)
(0.735018 -0.0628698 4.86291e-19)
(0.757932 -0.0518119 4.9225e-19)
(0.776473 -0.0380269 4.46257e-19)
(0.787303 -0.020507 4.30568e-19)
(0.797689 0.00208412 3.9612e-19)
(0.794827 0.0268653 3.3472e-19)
(0.808733 0.0479531 2.91457e-19)
(0.802819 0.0686679 2.68625e-19)
(0.802778 0.0926523 2.5243e-19)
(0.789201 0.118014 2.14683e-19)
(0.77726 0.139883 2.00538e-19)
(0.761581 0.163768 1.85481e-19)
(0.748461 0.178368 2.23999e-19)
(0.728066 0.193613 2.38981e-19)
(0.70946 0.203297 2.97383e-19)
(0.6863 0.210794 3.65907e-19)
(0.666596 0.216686 4.7466e-19)
(0.638527 0.214339 5.50655e-19)
(0.607905 0.216266 5.41418e-19)
(0.572294 0.203899 6.19049e-19)
(0.530406 0.186771 5.51754e-19)
(0.483992 0.167409 5.89157e-19)
(0.434201 0.154974 6.11555e-19)
(0.387141 0.141129 5.23875e-19)
(0.345332 0.126994 4.67123e-19)
(0.309268 0.114205 4.00752e-19)
(0.27871 0.102904 3.59176e-19)
(0.252454 0.0944182 2.86965e-19)
(0.22907 0.0872481 3.96438e-19)
(0.207624 0.0795502 3.81106e-19)
(0.188697 0.0701037 3.16315e-19)
(0.175058 0.0567438 2.76173e-19)
(0.165693 0.0441536 3.5832e-19)
(0.162093 0.0314091 2.44457e-20)
(0.160622 0.0230739 -2.54006e-20)
(0.162146 0.0150142 -1.69071e-19)
(0.164876 0.00782493 -3.38412e-19)
(0.169137 0.00336596 -5.68549e-19)
(0.173838 0.0015197 -6.8066e-19)
(0.177405 0.000766932 -7.10073e-19)
(0.179264 -0.000845399 -7.39329e-19)
(0.179049 -0.00174498 -7.22702e-19)
(0.176079 -0.00281106 -9.11973e-19)
(0.169882 -0.00354016 -1.02217e-18)
(0.160528 -0.00366163 -1.30115e-18)
(0.148114 -0.00295569 -1.23155e-18)
(0.132592 -0.000413704 -1.40164e-18)
(0.118154 0.00304712 -1.27984e-18)
(0.106423 0.00667656 -1.43404e-18)
(0.097481 0.0101648 -1.20447e-18)
(0.0914214 0.0127574 -1.36855e-18)
(0.0875673 0.0145417 -1.07404e-18)
(0.086191 0.0168967 -1.09946e-18)
(0.0873131 0.0184547 -9.32009e-19)
(0.0901265 0.0190869 -7.54555e-19)
(0.0939077 0.0207351 -9.58801e-19)
(0.0991311 0.0228982 -7.97413e-19)
(0.103328 0.0277332 -9.56097e-19)
(0.108144 0.0312797 -9.51691e-19)
(0.110361 0.0363407 -4.53826e-19)
(0.111417 0.0407738 6.14841e-20)
(0.109587 0.0461746 7.06905e-19)
(0.104673 0.0520819 1.96443e-18)
(0.0970364 0.06265 -6.94282e-19)
(0.0812935 0.0676309 -7.07376e-18)
(0.0650793 0.0809071 -1.26651e-17)
(0.0427094 0.0860148 -5.63185e-18)
(0.0271776 0.0968153 -2.15425e-19)
(1.87853 -0.00343121 1.66431e-19)
(1.49242 -0.00513739 -5.83052e-20)
(1.35012 0.00550788 -1.68327e-19)
(1.27511 0.0152881 -2.42032e-19)
(1.27238 0.0105847 -2.0768e-19)
(1.37432 -0.0204965 -1.47649e-19)
(1.43228 -0.0196677 -9.95512e-20)
(1.54052 -0.0130867 -6.32347e-20)
(1.65302 -0.00530438 -1.25234e-20)
(1.69902 0.00313872 -1.66836e-20)
(1.60694 0.00659257 -5.15216e-20)
(1.54648 0.00620611 -6.55587e-20)
(1.44321 0.00727876 -1.12171e-19)
(1.3049 0.0057862 -2.31852e-19)
(1.20636 0.00528316 -3.56914e-19)
(1.21013 -0.0119203 -3.71605e-19)
(1.27375 -0.0140687 -3.36146e-19)
(1.31821 -0.0174251 -2.88638e-19)
(1.37901 -0.0135433 -2.38658e-19)
(1.47044 -0.0114901 -1.69092e-19)
(1.52133 -0.00303531 -1.22383e-19)
(1.55275 0.00303995 -9.35992e-20)
(1.47637 0.00518628 -1.01882e-19)
(1.42909 0.00701702 -1.20672e-19)
(1.35946 0.00829781 -1.58194e-19)
(1.27079 0.0109192 -2.04077e-19)
(1.2028 0.00683907 -2.95714e-19)
(1.1671 -0.00232936 -3.39542e-19)
(1.19357 -0.0166287 -3.44122e-19)
(1.23138 -0.018053 -3.3992e-19)
(1.27435 -0.0170358 -3.17836e-19)
(1.32605 -0.0178793 -2.78886e-19)
(1.37653 -0.0236108 -2.32487e-19)
(1.41291 -0.0144002 -2.15762e-19)
(1.41547 -0.00991266 -1.68658e-19)
(1.39345 -0.00797257 -1.684e-19)
(1.36128 -0.00491733 -1.68759e-19)
(1.33909 -0.00548968 -1.79188e-19)
(1.31034 -0.00213969 -1.74881e-19)
(1.29972 -0.00103193 -2.06532e-19)
(1.28931 -0.00198633 -2.12512e-19)
(1.32682 0.0190257 -3.855e-20)
(1.17587 0.128394 4.32151e-19)
(0.604429 0.0440763 7.395e-19)
(0.635046 0.00144538 7.70633e-19)
(0.654775 -0.0233801 8.20991e-19)
(0.673968 -0.0456465 8.13889e-19)
(0.686415 -0.071349 7.41009e-19)
(0.711687 -0.0819634 7.03551e-19)
(0.733825 -0.0915125 6.74438e-19)
(0.756566 -0.0918203 7.01997e-19)
(0.777961 -0.0806371 6.94104e-19)
(0.799922 -0.0689948 6.77811e-19)
(0.812388 -0.0515397 6.97809e-19)
(0.821436 -0.0298975 6.54222e-19)
(0.819077 -0.00480634 6.13833e-19)
(0.835444 0.0202544 6.24212e-19)
(0.844493 0.0447 6.67404e-19)
(0.842232 0.0696934 6.293e-19)
(0.844092 0.0988945 6.02573e-19)
(0.830233 0.123409 5.60691e-19)
(0.830039 0.150872 5.2985e-19)
(0.812947 0.174179 5.11861e-19)
(0.80425 0.195621 4.89759e-19)
(0.789004 0.214322 4.95175e-19)
(0.778682 0.231103 5.24807e-19)
(0.75919 0.241164 5.16882e-19)
(0.747866 0.254006 5.55578e-19)
(0.726435 0.256558 5.65231e-19)
(0.708054 0.26 6.01391e-19)
(0.686295 0.252994 6.02605e-19)
(0.657271 0.242058 5.94924e-19)
(0.620314 0.230932 5.1898e-19)
(0.577197 0.219641 5.7963e-19)
(0.530431 0.201673 5.17182e-19)
(0.483398 0.176352 5.6901e-19)
(0.435612 0.15376 4.63619e-19)
(0.38893 0.137782 4.35568e-19)
(0.346415 0.123697 3.80795e-19)
(0.310276 0.11251 3.4292e-19)
(0.277555 0.104742 3.351e-19)
(0.246376 0.0955377 3.94808e-19)
(0.218435 0.0808084 1.89943e-19)
(0.195738 0.0626586 4.83721e-19)
(0.182117 0.043523 4.144e-20)
(0.174409 0.0293177 1.42624e-19)
(0.171023 0.0176978 -4.35093e-19)
(0.170706 0.00749684 -1.5389e-19)
(0.173039 0.000426001 -5.71076e-19)
(0.178379 -0.00243817 -6.03217e-19)
(0.182811 -0.00318727 -9.27268e-19)
(0.18533 -0.00447186 -1.08292e-18)
(0.186045 -0.00507713 -1.1136e-18)
(0.184173 -0.00527265 -1.29158e-18)
(0.179068 -0.00492916 -1.43373e-18)
(0.170583 -0.00399575 -1.77346e-18)
(0.158207 -0.0023395 -1.79414e-18)
(0.142189 0.000821414 -2.01039e-18)
(0.127126 0.00502762 -1.75502e-18)
(0.114922 0.00903237 -1.42588e-18)
(0.105357 0.0131152 -1.1556e-18)
(0.0984692 0.0158848 -5.55685e-19)
(0.0937584 0.0178894 -3.35823e-19)
(0.0913351 0.020034 1.77978e-19)
(0.0917324 0.0228543 3.56267e-19)
(0.0939115 0.0235407 4.98739e-19)
(0.0969623 0.0253895 4.73455e-19)
(0.101706 0.0280197 5.55645e-19)
(0.105495 0.0338328 2.76341e-19)
(0.110264 0.0387429 7.78184e-19)
(0.112007 0.044934 1.02682e-18)
(0.112213 0.050596 1.66061e-18)
(0.109453 0.0567008 7.65598e-19)
(0.103211 0.0625336 -5.5257e-19)
(0.0945217 0.0735131 -3.88899e-18)
(0.0788209 0.080135 -1.44977e-17)
(0.0642738 0.0941739 -2.16747e-17)
(0.0426929 0.0967944 -1.80644e-17)
(0.0319102 0.113054 -1.42917e-17)
(1.13683 -0.0273515 -3.16714e-19)
(1.44522 -0.0283046 -2.59588e-19)
(1.61929 -0.00676687 -1.11243e-19)
(1.71372 0.0122691 -2.13129e-20)
(1.64274 0.0180637 8.81205e-20)
(1.68771 0.00345707 3.27756e-20)
(1.52792 0.00105279 -7.85741e-20)
(1.44371 -0.00395874 -1.96784e-19)
(1.34704 -0.00331742 -3.33587e-19)
(1.28967 -0.00691576 -4.36513e-19)
(1.29946 -0.0114623 -4.78161e-19)
(1.32096 -0.0164903 -4.53361e-19)
(1.37568 -0.0104826 -3.42077e-19)
(1.48337 -0.00662632 -1.78651e-19)
(1.53978 0.0030279 -5.12643e-20)
(1.5481 0.00493431 -6.5466e-20)
(1.49912 0.0070731 -3.88971e-21)
(1.46592 0.000332633 -6.30197e-20)
(1.35735 0.000926935 -9.21861e-20)
(1.3058 -0.0025846 -1.41341e-19)
(1.26237 -0.0059825 -2.14701e-19)
(1.24473 -0.0114732 -2.66526e-19)
(1.26951 -0.0126448 -2.71621e-19)
(1.29347 -0.00802613 -2.7675e-19)
(1.35999 -0.00765343 -2.44213e-19)
(1.42943 0.000454291 -1.79125e-19)
(1.47427 0.00217352 -1.50529e-19)
(1.48043 0.0061747 -6.2035e-20)
(1.45525 0.00277381 -8.38258e-20)
(1.39676 0.00461757 -8.74923e-20)
(1.35031 0.00308622 -1.17229e-19)
(1.27606 0.00138564 -1.54892e-19)
(1.22802 0.00784834 -2.1761e-19)
(1.19553 0.00882105 -2.22983e-19)
(1.20511 0.003729 -2.69423e-19)