/*--------------------------------*- C++ -*----------------------------------*\
| =========                 |                                                 |
| \\      /  F ield         | OpenFOAM: The Open Source CFD Toolbox           |
|  \\    /   O peration     | Version:  2.2.x                                 |
|   \\  /    A nd           | Web:      www.OpenFOAM.org                      |
|    \\/     M anipulation  |                                                 |
\*---------------------------------------------------------------------------*/
FoamFile
{
    version     2.0;
    format      ascii;
    class       volScalarField;
    location    "1.5";
    object      p;
}
// * * * * * * * * * * * * * * * * * * * * * * * * * * * * * * * * * * * * * //

dimensions      [1 -1 -2 0 0 0 0];

internalField   nonuniform List<scalar> 
14161
(
0.197707
0.199458
0.198097
0.197289
0.196431
0.194854
0.19338
0.192863
0.192881
0.192797
0.193036
0.192958
0.192179
0.191453
0.19024
0.189603
0.18892
0.18832
0.187565
0.187366
0.187374
0.187
0.186658
0.186233
0.185895
0.185931
0.185713
0.186221
0.186335
0.186638
0.187151
0.187604
0.188008
0.188465
0.188894
0.189304
0.189706
0.189934
0.189903
0.189248
0.186168
0.179889
0.168392
0.335704
0.974991
1.13166
1.1322
1.13464
1.15953
1.1773
1.19299
1.19935
1.20264
1.20311
1.1934
1.18212
1.17622
1.1691
1.15777
1.14508
1.12863
1.11954
1.11191
1.10502
1.0945
1.08386
1.08142
1.08213
1.08046
1.08708
1.1018
1.13012
1.15385
1.19427
1.23288
1.26384
1.28408
1.29554
1.29922
1.30111
1.3018
1.30106
1.30139
1.29514
1.27763
1.2601
1.24524
1.23707
1.22886
1.21422
1.20536
1.2062
1.27124
1.41661
1.57783
1.70754
1.79031
1.84353
1.87657
1.8932
1.90596
1.92001
1.93383
1.94223
1.94617
1.94718
1.94639
1.94559
1.94568
1.94937
1.95218
1.95773
1.9621
1.97105
1.97382
1.9905
1.99622
2.0074
2.0169
0.202623
0.196502
0.197713
0.198247
0.199337
0.199716
0.196982
0.19556
0.1942
0.192735
0.191631
0.191725
0.191719
0.191901
0.191277
0.190074
0.188856
0.188037
0.185607
0.184432
0.184093
0.184237
0.18455
0.184707
0.185075
0.185306
0.185449
0.185816
0.186527
0.186667
0.186781
0.187013
0.187164
0.187538
0.187743
0.187907
0.187999
0.188096
0.187902
0.187562
0.18754
0.188576
0.187658
0.763721
1.39309
1.53967
1.5811
1.57142
1.54584
1.51426
1.48296
1.45704
1.42858
1.39908
1.3626
1.32901
1.3152
1.30585
1.27678
1.24061
1.22577
1.22218
1.2113
1.19276
1.19456
1.21851
1.2142
1.20482
1.23355
1.28204
1.29849
1.3209
1.35433
1.37866
1.39818
1.40833
1.40163
1.38667
1.36672
1.34639
1.33195
1.31744
1.31145
1.29978
1.29191
1.29423
1.31634
1.3357
1.35841
1.45568
1.5375
1.6059
1.67288
1.72944
1.79326
1.84823
1.8852
1.90815
1.92144
1.92864
1.93567
1.94474
1.95245
1.95847
1.96224
1.96336
1.96261
1.96323
1.96526
1.97085
1.97745
1.98676
1.99455
2.0002
1.99607
2.01192
2.01072
2.01868
2.02496
0.195533
0.20407
0.199477
0.196954
0.192845
0.189968
0.190992
0.193256
0.19409
0.195243
0.195656
0.195272
0.192858
0.190272
0.18927
0.189014
0.18921
0.190057
0.189756
0.191293
0.191122
0.189886
0.188216
0.18706
0.186244
0.185621
0.185512
0.185989
0.186689
0.187257
0.187657
0.187787
0.18793
0.188222
0.188653
0.189132
0.189952
0.190866
0.192379
0.195004
0.197794
0.205497
0.209517
1.08565
1.58464
1.69911
1.74214
1.69503
1.6561
1.60385
1.5613
1.54882
1.4882
1.43062
1.40305
1.40452
1.35611
1.30708
1.28222
1.28571
1.26644
1.23283
1.21956
1.23378
1.23137
1.20715
1.22365
1.28135
1.29202
1.28854
1.34377
1.38776
1.40745
1.42825
1.44093
1.44212
1.43176
1.41988
1.39897
1.3785
1.3574
1.33968
1.32005
1.31708
1.33684
1.3452
1.33337
1.4069
1.53326
1.6363
1.7124
1.76449
1.80142
1.8223
1.86543
1.89176
1.91267
1.92769
1.93838
1.94532
1.94955
1.95537
1.96239
1.96634
1.96686
1.966
1.96477
1.96508
1.96605
1.97267
1.97938
1.99001
1.99832
2.00248
2.00151
2.00891
2.0041
2.01347
2.01958
0.206305
0.192307
0.196249
0.198619
0.202091
0.204239
0.200116
0.196686
0.194473
0.191973
0.19022
0.192258
0.191916
0.191447
0.191798
0.191534
0.190831
0.188409
0.187112
0.185615
0.184516
0.184582
0.18578
0.186739
0.188319
0.189178
0.189475
0.188638
0.188073
0.187668
0.187391
0.187247
0.187416
0.187937
0.188507
0.188911
0.189353
0.189957
0.19126
0.193221
0.196491
0.20503
0.191628
1.00635
1.53397
1.69439
1.72019
1.66209
1.61594
1.58749
1.54633
1.49357
1.45773
1.44992
1.40965
1.36778
1.33567
1.31786
1.288
1.25577
1.23216
1.22085
1.2075
1.18356
1.17135
1.18761
1.1949
1.18362
1.21298
1.2591
1.28185
1.30933
1.3481
1.3833
1.40449
1.41605
1.40698
1.40167
1.39157
1.37986
1.36442
1.35249
1.34647
1.36452
1.39124
1.39024
1.43977
1.51844
1.53499
1.62276
1.6947
1.74732
1.79753
1.82638
1.87353
1.90077
1.91753
1.93135
1.94615
1.95463
1.96069
1.96823
1.97258
1.97462
1.97569
1.97543
1.97453
1.97577
1.97902
1.98378
1.98722
1.99588
2.0016
2.00025
1.994
2.00236
1.99983
2.00632
2.01221
0.190994
0.207613
0.201149
0.196998
0.190882
0.186203
0.187592
0.191332
0.193188
0.19563
0.196906
0.196817
0.193046
0.191376
0.189214
0.188093
0.189036
0.189436
0.191393
0.192899
0.193501
0.192433
0.190476
0.188717
0.187283
0.186275
0.185863
0.185952
0.18658
0.18709
0.186942
0.186615
0.186492
0.186459
0.186617
0.186856
0.187259
0.187937
0.18873
0.189725
0.191337
0.195134
0.193484
0.824299
1.41592
1.61953
1.64349
1.59494
1.55254
1.51656
1.48519
1.45329
1.42486
1.39734
1.37081
1.33522
1.30794
1.2798
1.25875
1.2358
1.21409
1.19077
1.17523
1.15768
1.15111
1.14831
1.14797
1.15011
1.17295
1.18242
1.19993
1.22473
1.24379
1.27128
1.30293
1.33252
1.34477
1.34816
1.3443
1.33526
1.33246
1.33758
1.34749
1.34098
1.34093
1.39615
1.44301
1.42151
1.48945
1.54967
1.60209
1.669
1.72902
1.77714
1.83774
1.88058
1.90699
1.9279
1.94583
1.95786
1.96527
1.97236
1.97785
1.98073
1.9814
1.98148
1.98307
1.98423
1.98512
1.9875
1.98673
1.9932
1.99723
1.9953
1.98943
1.99705
1.99503
2.00219
2.00852
0.209828
0.189174
0.194659
0.198621
0.203362
0.206463
0.202708
0.197922
0.195506
0.192584
0.190642
0.193296
0.192296
0.192123
0.193278
0.193198
0.191601
0.190245
0.188493
0.185998
0.183799
0.183373
0.183888
0.185857
0.186745
0.188147
0.187624
0.187399
0.186254
0.185957
0.185519
0.185488
0.186
0.186728
0.187645
0.188594
0.189597
0.190761
0.191775
0.191951
0.189332
0.18394
0.173393
0.424333
1.25378
1.42288
1.44725
1.4199
1.4103
1.39874
1.38695
1.37302
1.35723
1.33885
1.32186
1.29361
1.27871
1.2533
1.23706
1.21438
1.19962
1.17292
1.1612
1.1423
1.13423
1.12081
1.12485
1.1164
1.12528
1.12252
1.13326
1.13902
1.14694
1.17698
1.21014
1.25467
1.27987
1.29102
1.29696
1.30016
1.2981
1.29039
1.2808
1.28741
1.3153
1.34257
1.35823
1.41344
1.42356
1.4567
1.51218
1.56066
1.62194
1.69054
1.76205
1.83552
1.8813
1.90991
1.93228
1.94861
1.95981
1.96902
1.97532
1.9785
1.98093
1.98378
1.9852
1.98492
1.98443
1.98555
1.98037
1.98742
1.99269
1.99167
1.98596
1.9928
1.99194
1.99777
2.00639
0.183906
0.209091
0.202736
0.196729
0.189872
0.184068
0.185332
0.189498
0.191636
0.194519
0.196448
0.196787
0.192838
0.190712
0.188462
0.18728
0.188115
0.188427
0.190908
0.192351
0.193469
0.193199
0.191482
0.189159
0.187297
0.186474
0.186252
0.185423
0.185234
0.185693
0.185098
0.185405
0.184864
0.184661
0.184293
0.183351
0.182753
0.181675
0.179592
0.176883
0.172743
0.164383
0.158187
0.238966
0.900936
1.33737
1.35996
1.33842
1.32776
1.32575
1.32299
1.31793
1.31006
1.29462
1.28824
1.26477
1.25617
1.23089
1.21706
1.18985
1.17538
1.15108
1.14221
1.12467
1.12244
1.10875
1.11152
1.09964
1.10701
1.09892
1.10873
1.11382
1.12526
1.1523
1.18883
1.23232
1.25829
1.2705
1.26414
1.26171
1.2688
1.26563
1.26035
1.27213
1.27958
1.31156
1.33722
1.37303
1.3664
1.38988
1.43046
1.4778
1.53784
1.59819
1.66739
1.75375
1.83401
1.88478
1.91917
1.94117
1.95395
1.96235
1.97089
1.97706
1.9809
1.98245
1.98373
1.98299
1.9826
1.98321
1.97743
1.98356
1.9893
1.98939
1.98437
1.99078
1.99122
1.99631
2.00768
0.214603
0.187728
0.193746
0.198783
0.202984
0.206662
0.20415
0.199541
0.196157
0.193443
0.191128
0.191712
0.191344
0.191837
0.192834
0.192293
0.191654
0.190126
0.187694
0.184549
0.181469
0.179668
0.178894
0.181038
0.181603
0.18153
0.181193
0.180725
0.180212
0.17981
0.179719
0.18007
0.180921
0.182006
0.183443
0.185133
0.187134
0.189348
0.191836
0.193622
0.192822
0.187851
0.189516
0.197832
0.84177
1.46561
1.40685
1.37561
1.35322
1.3377
1.32103
1.30652
1.29264
1.27903
1.26736
1.24628
1.23651
1.21617
1.2066
1.17962
1.16885
1.14387
1.13569
1.11635
1.11313
1.09889
1.10165
1.09016
1.09571
1.08525
1.09073
1.10136
1.11676
1.13856
1.16807
1.21188
1.25111
1.27191
1.28194
1.2835
1.2753
1.26863
1.27055
1.27146
1.27287
1.32069
1.32578
1.34746
1.35855
1.36671
1.38181
1.40646
1.44732
1.49519
1.56455
1.64656
1.75438
1.84073
1.89805
1.93191
1.9495
1.95812
1.96558
1.97116
1.97513
1.97806
1.97988
1.97762
1.9783
1.97979
1.97425
1.97953
1.98428
1.98533
1.98226
1.98827
1.98979
1.995
2.00858
0.176121
0.207123
0.201464
0.195152
0.188926
0.183485
0.183991
0.187035
0.188849
0.191387
0.193459
0.193633
0.190744
0.18884
0.187411
0.1863
0.186774
0.18694
0.188561
0.189751
0.191085
0.191635
0.190563
0.189551
0.187936
0.186875
0.185773
0.184915
0.184636
0.184895
0.18519
0.185503
0.185678
0.185733
0.185544
0.18562
0.185217
0.185001
0.184783
0.184713
0.184571
0.186712
0.190381
0.244533
1.31116
1.5379
1.48284
1.4154
1.37046
1.33524
1.31237
1.30271
1.28791
1.26988
1.25578
1.2349
1.22215
1.19928
1.18792
1.16329
1.15264
1.12854
1.12302
1.10862
1.11119
1.09612
1.10001
1.08955
1.09913
1.09878
1.10799
1.11363
1.12916
1.15787
1.20725
1.25158
1.28192
1.31214
1.31964
1.32073
1.32393
1.31648
1.30965
1.31235
1.33502
1.34513
1.36564
1.36679
1.35422
1.35445
1.36131
1.36468
1.39706
1.43101
1.49128
1.562
1.65805
1.77271
1.8604
1.91276
1.93885
1.9507
1.95896
1.96435
1.96704
1.96794
1.96966
1.96682
1.96879
1.97013
1.96641
1.9714
1.97519
1.97652
1.97554
1.98155
1.9845
1.99022
2.00422
0.219109
0.188474
0.193218
0.198314
0.200954
0.204579
0.203097
0.198939
0.195861
0.193798
0.191625
0.190743
0.190507
0.190747
0.190905
0.190719
0.189784
0.188125
0.185736
0.182744
0.179526
0.176815
0.176516
0.175383
0.175124
0.176045
0.175451
0.17508
0.174683
0.174522
0.174603
0.175239
0.176244
0.177247
0.178649
0.180626
0.183316
0.186632
0.190541
0.195242
0.199403
0.208433
0.209147
0.370912
1.49744
1.58207
1.54266
1.46945
1.4197
1.37846
1.34684
1.33204
1.31085
1.2865
1.26843
1.2393
1.22137
1.18973
1.17264
1.13964
1.12521
1.09697
1.08726
1.06518
1.07036
1.05596
1.06833
1.06182
1.06343
1.06355
1.07704
1.09097
1.10762
1.12076
1.14581
1.21574
1.28849
1.325
1.3522
1.36488
1.37163
1.37534
1.37593
1.38329
1.41554
1.41942
1.42489
1.39401
1.38432
1.35683
1.34885
1.3409
1.35945
1.37958
1.41899
1.48286
1.55982
1.68426
1.79445
1.87295
1.91102
1.9327
1.94593
1.95351
1.95642
1.95721
1.95931
1.95534
1.95771
1.95992
1.95761
1.9623
1.96577
1.96761
1.96992
1.97565
1.98199
1.98733
2.00098
0.171944
0.203152
0.199829
0.195006
0.188986
0.184421
0.183313
0.184956
0.186591
0.188807
0.190544
0.191141
0.189835
0.187962
0.186966
0.185852
0.185515
0.185372
0.186177
0.187173
0.18837
0.189363
0.189358
0.189313
0.188378
0.187695
0.186696
0.186106
0.186087
0.18616
0.186407
0.18702
0.187635
0.188242
0.188838
0.189666
0.190527
0.191229
0.192167
0.193036
0.194935
0.197367
0.200183
0.24832
1.3275
1.53264
1.51711
1.45159
1.40563
1.36083
1.32215
1.30245
1.28259
1.24458
1.22674
1.19023
1.17234
1.1377
1.12305
1.08616
1.07433
1.03893
1.03383
1.01203
1.02267
1.00159
1.00769
1.00484
1.02251
1.02643
1.02909
1.03908
1.0586
1.09709
1.13979
1.1758
1.23158
1.32283
1.37177
1.40282
1.42318
1.43875
1.45849
1.47497
1.50173
1.49778
1.48328
1.43719
1.41089
1.37463
1.35671
1.33712
1.33151
1.34437
1.36154
1.41319
1.47618
1.5909
1.72026
1.82464
1.88497
1.91517
1.9331
1.94278
1.94711
1.94866
1.95186
1.94883
1.95053
1.95108
1.94927
1.95211
1.95443
1.95574
1.96479
1.96959
1.98054
1.98499
1.99605
0.220431
0.18932
0.193227
0.197032
0.198159
0.200556
0.200187
0.197202
0.195048
0.193474
0.191644
0.190401
0.189798
0.189366
0.189002
0.188231
0.187089
0.185672
0.183869
0.181721
0.179387
0.177409
0.176018
0.17511
0.174788
0.174815
0.174608
0.174605
0.174303
0.174005
0.173755
0.173843
0.174014
0.174361
0.175165
0.17629
0.177687
0.179271
0.182122
0.18446
0.187754
0.18927
0.191719
0.205803
0.98818
1.41563
1.42657
1.38106
1.33608
1.29532
1.25232
1.22918
1.20732
1.16834
1.15842
1.12249
1.11251
1.08053
1.07437
1.03835
1.0352
0.996658
0.995562
0.9659
0.970636
0.965829
0.972736
0.960537
0.966766
0.969036
0.977342
0.990802
1.00985
1.02712
1.04943
1.07971
1.12273
1.20319
1.29926
1.36805
1.41762
1.45246
1.4921
1.51809
1.54512
1.53016
1.51119
1.4592
1.43377
1.39041
1.35887
1.33486
1.32254
1.32356
1.32562
1.35783
1.41565
1.51248
1.64551
1.7664
1.85603
1.89858
1.9223
1.93485
1.94248
1.94598
1.95007
1.94763
1.94871
1.94649
1.944
1.9451
1.94569
1.93903
1.95801
1.96286
1.97914
1.98403
1.99235
0.173718
0.200337
0.198256
0.194473
0.191782
0.186796
0.185722
0.186471
0.187451
0.189304
0.190405
0.190834
0.190011
0.188788
0.187421
0.186248
0.185452
0.185061
0.18504
0.185493
0.186321
0.187162
0.187711
0.187978
0.187823
0.187564
0.187341
0.186778
0.186319
0.186002
0.186028
0.18652
0.186959
0.187677
0.18847
0.189419
0.190274
0.19122
0.192321
0.193406
0.19547
0.196377
0.198594
0.218638
1.09688
1.36523
1.35513
1.31934
1.27009
1.23138
1.18788
1.17364
1.15234
1.14037
1.10867
1.10563
1.07713
1.06512
1.05669
1.0227
1.01842
0.980861
0.975505
0.947524
0.958825
0.950187
0.950311
0.943827
0.951041
0.942066
0.946264
0.955954
0.964588
0.97455
0.984827
0.995363
1.0073
1.09399
1.15338
1.28653
1.38517
1.45439
1.52149
1.55933
1.5751
1.54429
1.52531
1.47345
1.45136
1.4023
1.37203
1.33378
1.31919
1.30912
1.30871
1.32028
1.37248
1.44697
1.57672
1.71455
1.81671
1.87368
1.90981
1.92576
1.93486
1.94036
1.94559
1.94454
1.94606
1.94205
1.93732
1.93599
1.93489
1.92395
1.94292
1.9498
1.97183
1.98097
1.99008
0.217225
0.191392
0.192673
0.194271
0.195343
0.197047
0.19674
0.194769
0.19371
0.192706
0.191501
0.190191
0.189192
0.188283
0.187542
0.186808
0.185832
0.184934
0.183946
0.182605
0.181175
0.179715
0.178415
0.177506
0.176903
0.176595
0.176292
0.175938
0.175332
0.174948
0.174711
0.174625
0.1743
0.17412
0.173939
0.174096
0.174566
0.17551
0.176455
0.17741
0.17847
0.180427
0.183776
0.210326
1.04629
1.2845
1.29246
1.28695
1.23563
1.21763
1.18614
1.17618
1.14705
1.14486
1.10904
1.11006
1.07425
1.07505
1.0463
1.04319
1.00385
0.996697
0.962169
0.959738
0.947543
0.950852
0.949659
0.952203
0.944763
0.941053
0.940838
0.943027
0.943163
0.944326
0.944523
0.949085
0.942129
0.998626
1.03495
1.17214
1.29213
1.388
1.47995
1.51666
1.54231
1.53234
1.51907
1.48224
1.45625
1.41323
1.38051
1.34653
1.31659
1.30152
1.30535
1.30488
1.34591
1.40408
1.52118
1.66963
1.79094
1.85276
1.89111
1.91377
1.92812
1.93596
1.94209
1.94036
1.94206
1.9365
1.93046
1.92599
1.92263
1.91008
1.92927
1.93734
1.96068
1.96754
1.98644
0.179592
0.198496
0.197362
0.195486
0.19381
0.190105
0.189412
0.189201
0.189691
0.190818
0.191374
0.191584
0.190892
0.189493
0.188321
0.187238
0.186143
0.185678
0.185352
0.185456
0.185594
0.185587
0.185846
0.185977
0.185942
0.185819
0.185415
0.184619
0.18374
0.183156
0.182838
0.182574
0.182491
0.182857
0.183277
0.183723
0.184142
0.184596
0.184727
0.185089
0.184712
0.184883
0.188517
0.222043
1.02822
1.20735
1.26621
1.26394
1.25289
1.20737
1.18858
1.15756
1.14695
1.12297
1.12088
1.08321
1.09346
1.0582
1.06766
1.02977
1.02337
0.97801
0.961834
0.953765
0.961362
0.945832
0.954425
0.947521
0.950883
0.939376
0.940539
0.934788
0.932545
0.932259
0.931427
0.924931
0.938457
0.955202
1.00616
1.10386
1.24768
1.35728
1.44679
1.47513
1.50394
1.49952
1.47849
1.46551
1.43373
1.40442
1.3813
1.35151
1.31958
1.30435
1.3073
1.30406
1.33232
1.38887
1.48672
1.63395
1.76678
1.83643
1.87865
1.90635
1.92407
1.93303
1.9389
1.93798
1.94096
1.93442
1.92725
1.92088
1.91482
1.90059
1.91693
1.91981
1.95199
1.95917
1.98345
0.210962
0.1925
0.192096
0.192954
0.194109
0.194554
0.194269
0.193196
0.192686
0.192218
0.191443
0.190805
0.189623
0.188394
0.187557
0.186957
0.186347
0.185572
0.184802
0.183932
0.182882
0.181769
0.180698
0.179658
0.178933
0.178646
0.178066
0.176997
0.176212
0.175764
0.175416
0.17503
0.174685
0.174304
0.17402
0.173618
0.173239
0.173137
0.172868
0.172588
0.172068
0.171087
0.181331
0.292947
0.952131
1.06039
1.12878
1.16223
1.19263
1.16422
1.1659
1.13763
1.1485
1.12431
1.13373
1.09367
1.10352
1.05235
1.05621
1.03933
1.011
0.994455
0.95507
0.957081
0.946154
0.948958
0.946436
0.956029
0.943563
0.938082
0.933982
0.92795
0.923413
0.92073
0.919478
0.93047
0.936728
0.981052
1.05065
1.19079
1.3152
1.39715
1.44757
1.47375
1.47989
1.47909
1.46511
1.45972
1.43292
1.40292
1.37293
1.3578
1.32814
1.31377
1.30702
1.30787
1.32675
1.37975
1.46424
1.60466
1.73843
1.81771
1.86013
1.88912
1.91063
1.92218
1.92845
1.92979
1.93563
1.93013
1.92323
1.91576
1.90698
1.89388
1.90645
1.90193
1.93874
1.95254
1.9823
0.186283
0.198105
0.196678
0.195313
0.194522
0.192524
0.191889
0.191381
0.19142
0.191768
0.191957
0.191763
0.190944
0.189704
0.188606
0.187645
0.186784
0.186018
0.185348
0.184895
0.184472
0.18406
0.183758
0.18337
0.183338
0.183137
0.182401
0.181108
0.179988
0.179152
0.178368
0.177872
0.17713
0.176721
0.176454
0.176277
0.176034
0.176042
0.176055
0.176137
0.176185
0.177062
0.192644
0.597079
0.917542
0.9758
1.01597
1.06991
1.14372
1.153
1.17568
1.14923
1.15924
1.12744
1.13475
1.0904
1.09078
1.04914
1.06943
1.02355
1.03032
0.968528
0.958119
0.946494
0.956477
0.941678
0.949117
0.952721
0.952116
0.940603
0.940526
0.935152
0.932164
0.93091
0.940743
0.970713
1.02563
1.12513
1.2794
1.39961
1.45922
1.48787
1.48701
1.50054
1.49219
1.48258
1.46519
1.45484
1.4299
1.40716
1.37776
1.35892
1.3382
1.31582
1.30647
1.30486
1.32208
1.35748
1.43523
1.56786
1.70826
1.80081
1.84632
1.87801
1.90111
1.91395
1.91938
1.92233
1.9299
1.9253
1.91946
1.90977
1.8985
1.88713
1.89506
1.88452
1.9224
1.94311
1.97684
0.2041
0.193653
0.192759
0.192692
0.19316
0.19337
0.193375
0.192964
0.192649
0.192354
0.191889
0.191336
0.190168
0.18877
0.188032
0.187335
0.186626
0.185821
0.185005
0.184124
0.183221
0.182267
0.18127
0.180335
0.179899
0.179422
0.178189
0.176793
0.175668
0.175067
0.174464
0.173923
0.17349
0.173026
0.172652
0.172224
0.171798
0.17163
0.171935
0.172716
0.173739
0.175714
0.197225
0.7617
0.912722
0.936275
0.949593
0.978906
1.02225
1.06009
1.13489
1.1382
1.16725
1.1398
1.15225
1.10066
1.09789
1.04641
1.07558
1.02083
1.02596
0.945655
0.949147
0.936304
0.952752
0.9356
0.948254
0.952116
0.955647
0.942032
0.948254
0.953387
0.971813
1.00831
1.09095
1.20036
1.34372
1.44526
1.53218
1.56558
1.57817
1.58256
1.57427
1.56317
1.54529
1.52457
1.49985
1.47238
1.44939
1.42137
1.39531
1.37104
1.34679
1.32421
1.31162
1.30762
1.32466
1.35763
1.42389
1.54417
1.67892
1.7766
1.82642
1.86182
1.8881
1.90264
1.90769
1.9129
1.92296
1.91989
1.91588
1.90506
1.891
1.8789
1.88271
1.86954
1.90802
1.93625
1.97271
0.190645
0.197359
0.196311
0.194987
0.194589
0.193339
0.192921
0.192508
0.192189
0.191989
0.191976
0.191541
0.190712
0.189466
0.188487
0.187615
0.186773
0.185891
0.185046
0.184236
0.18344
0.1827
0.182071
0.181531
0.181126
0.180483
0.179332
0.177935
0.176604
0.17558
0.174361
0.173415
0.172501
0.171681
0.170882
0.170101
0.169202
0.167983
0.1663
0.16288
0.159893
0.164604
0.198239
0.823666
0.91038
0.922211
0.922877
0.925367
0.935875
0.951993
1.01139
1.033
1.10869
1.10288
1.14045
1.0938
1.10021
1.03795
1.07211
1.00637
1.00749
0.926214
0.948352
0.929482
0.951641
0.931917
0.960098
0.956008
0.987886
0.988332
1.0538
1.12296
1.22387
1.32231
1.43296
1.54737
1.61238
1.64394
1.65853
1.65775
1.65474
1.64804
1.63513
1.61665
1.59659
1.57104
1.54494
1.51055
1.47687
1.44128
1.41067
1.38172
1.35718
1.32919
1.31049
1.30775
1.31838
1.34788
1.40594
1.52223
1.65723
1.75899
1.81044
1.84674
1.87543
1.89166
1.89678
1.90292
1.91317
1.91086
1.90867
1.89751
1.88063
1.86752
1.86804
1.85433
1.89208
1.93094
1.96515
0.199062
0.194532
0.193513
0.193062
0.193614
0.193471
0.193313
0.193051
0.192703
0.192331
0.192054
0.191391
0.190323
0.18897
0.188142
0.187323
0.186506
0.185645
0.184665
0.183711
0.182769
0.181844
0.180983
0.180237
0.17929
0.178137
0.176593
0.175362
0.174303
0.173311
0.172348
0.171473
0.170639
0.16976
0.168827
0.167706
0.166376
0.164705
0.163428
0.162655
0.162186
0.177397
0.391611
0.928727
0.920811
0.912849
0.90611
0.90333
0.904697
0.911947
0.930456
0.94703
1.01677
1.03106
1.0987
1.06578
1.10084
1.03644
1.07832
1.00357
1.00247
0.926537
0.959989
0.951712
0.995109
0.993988
1.08439
1.13058
1.22245
1.29245
1.37519
1.46074
1.54702
1.59788
1.62976
1.65158
1.67217
1.67944
1.68666
1.69179
1.69194
1.68564
1.67463
1.65974
1.64308
1.62223
1.59801
1.56438
1.52701
1.4844
1.44528
1.41283
1.38195
1.35091
1.3256
1.31626
1.3225
1.34458
1.39769
1.49891
1.63109
1.73652
1.78916
1.82674
1.85939
1.87892
1.88597
1.89373
1.90516
1.90376
1.90239
1.89032
1.87121
1.85577
1.85412
1.83884
1.87666
1.92155
1.95778
0.19324
0.196492
0.195643
0.194716
0.194431
0.193725
0.193293
0.192886
0.19247
0.192066
0.191881
0.19132
0.190426
0.189176
0.1882
0.187231
0.18631
0.185387
0.184385
0.183427
0.182532
0.18187
0.181216
0.180213
0.178975
0.177428
0.176123
0.174944
0.173784
0.172698
0.171091
0.169699
0.168393
0.167217
0.166334
0.165759
0.1655
0.165418
0.165748
0.165797
0.167618
0.189081
0.715679
0.920216
0.920143
0.912403
0.90292
0.895223
0.891424
0.890151
0.892685
0.896151
0.929573
0.937526
1.0288
1.03281
1.1114
1.04693
1.10057
1.02733
1.0472
1.04625
1.13602
1.17931
1.28192
1.34216
1.41725
1.47788
1.54786
1.5837
1.6028
1.61876
1.63008
1.6468
1.65149
1.6582
1.67221
1.68349
1.69486
1.7022
1.70596
1.70349
1.69557
1.6836
1.67015
1.65415
1.6322
1.5996
1.55999
1.51386
1.46738
1.427
1.3886
1.36253
1.33356
1.31932
1.3232
1.34091
1.38947
1.48737
1.61547
1.71944
1.77054
1.80708
1.83981
1.86231
1.87156
1.88155
1.89482
1.89431
1.89425
1.88201
1.86052
1.84328
1.84063
1.82363
1.8597
1.90781
1.94682
0.19654
0.194805
0.194366
0.193897
0.19398
0.193831
0.19347
0.193205
0.192747
0.192256
0.191823
0.191193
0.190156
0.188969
0.188028
0.186978
0.185989
0.18503
0.184043
0.183031
0.182029
0.181448
0.180434
0.179058
0.17713
0.175654
0.174471
0.173251
0.172026
0.170726
0.16954
0.167966
0.166691
0.16549
0.16436
0.162871
0.160788
0.158286
0.154501
0.152137
0.154271
0.187529
0.810831
0.9074
0.914211
0.911451
0.903912
0.896667
0.891414
0.887223
0.884284
0.88196
0.888574
0.897534
0.957592
0.997009
1.12503
1.14297
1.23084
1.21638
1.31342
1.38292
1.47661
1.52987
1.58649
1.60314
1.62366
1.63393
1.64085
1.63371
1.63224
1.62964
1.63501
1.63954
1.64809
1.65391
1.66692
1.68124
1.69149
1.69879
1.70409
1.70644
1.70468
1.6961
1.6849
1.67151
1.65359
1.62676
1.59304
1.55663
1.51289
1.46608
1.42031
1.3905
1.35509
1.33644
1.33642
1.34906
1.39004
1.47553
1.59814
1.70003
1.75051
1.78742
1.82143
1.84651
1.85779
1.86912
1.88339
1.88416
1.88574
1.87439
1.8516
1.83189
1.82691
1.80969
1.84362
1.89043
1.93482
0.193966
0.195651
0.195331
0.194843
0.1945
0.193932
0.193477
0.19306
0.192698
0.192127
0.191582
0.190984
0.190056
0.188907
0.187973
0.186796
0.185678
0.184618
0.183628
0.182584
0.181815
0.181192
0.179964
0.177726
0.176113
0.174658
0.173732
0.172435
0.170977
0.168619
0.167144
0.165673
0.164262
0.162805
0.161403
0.160115
0.158783
0.157972
0.157613
0.156432
0.167654
0.307687
0.907688
0.911234
0.90777
0.904572
0.899303
0.894713
0.88891
0.883054
0.87913
0.879051
0.884283
0.898642
0.932515
1.06637
1.20522
1.37024
1.43337
1.5197
1.567
1.59885
1.63016
1.63553
1.64132
1.63796
1.63345
1.63077
1.628
1.62155
1.61559
1.61974
1.62455
1.63035
1.63816
1.64983
1.66143
1.67292
1.67922
1.68768
1.69503
1.69994
1.7014
1.69915
1.69172
1.68013
1.66578
1.64576
1.61803
1.58431
1.54201
1.49129
1.43968
1.39932
1.36454
1.34459
1.34521
1.3582
1.39944
1.47541
1.58494
1.67993
1.72937
1.76745
1.80182
1.82827
1.84178
1.85443
1.86986
1.87251
1.87597
1.86609
1.84297
1.82182
1.81412
1.79711
1.82843
1.87237
1.92097
0.194841
0.195131
0.194897
0.194665
0.194426
0.194009
0.193568
0.193207
0.192862
0.192258
0.191445
0.190741
0.189789
0.188752
0.187825
0.186627
0.1853
0.184153
0.183111
0.181992
0.181523
0.180433
0.178599
0.176523
0.17492
0.173488
0.172611
0.171265
0.169775
0.166741
0.164893
0.163321
0.162083
0.161077
0.160265
0.159555
0.158951
0.158358
0.158813
0.160373
0.181838
0.635847
0.876064
0.890417
0.890921
0.890397
0.889764
0.888859
0.888348
0.888613
0.890294
0.896403
0.90997
0.952989
1.05004
1.2609
1.47537
1.58623
1.61648
1.61698
1.63671
1.629
1.63673
1.63657
1.63206
1.61743
1.60841
1.60496
1.60104
1.59968
1.60258
1.60818
1.61417
1.62282
1.6331
1.64394
1.65511
1.66406
1.66968
1.6775
1.68563
1.69066
1.6921
1.69154
1.68749
1.68004
1.66914
1.65487
1.6346
1.60527
1.57027
1.52866
1.47567
1.42989
1.39194
1.36627
1.36282
1.3718
1.40305
1.46995
1.56951
1.65821
1.70755
1.74707
1.78284
1.81117
1.82703
1.84017
1.85611
1.86137
1.86591
1.85725
1.83449
1.81257
1.80144
1.78496
1.81425
1.85383
1.90607
0.194493
0.195468
0.195295
0.194913
0.194539
0.194127
0.193544
0.193114
0.19275
0.192161
0.191254
0.190548
0.189666
0.188578
0.187626
0.186467
0.184937
0.183677
0.182596
0.181538
0.181158
0.179853
0.177162
0.175425
0.173881
0.172561
0.171348
0.170033
0.168427
0.166303
0.163578
0.161467
0.159638
0.158136
0.156834
0.155601
0.154169
0.151522
0.148094
0.149309
0.178538
0.765291
0.877551
0.888719
0.891021
0.88835
0.887848
0.887548
0.888027
0.890644
0.898214
0.914387
0.952788
1.05238
1.2476
1.50333
1.65434
1.65531
1.64794
1.64741
1.63304
1.62101
1.61417
1.60479
1.59772
1.59404
1.58409
1.57798
1.57619
1.58021
1.58335
1.58908
1.60118
1.61235
1.62281
1.63241
1.64289
1.65169
1.6583
1.66504
1.67257
1.6797
1.68331
1.68388
1.68213
1.67709
1.66618
1.65476
1.64035
1.61658
1.58726
1.55287
1.50235
1.45302
1.40699
1.37627
1.37143
1.38121
1.41208
1.47392
1.56205
1.64224
1.68944
1.7291
1.76396
1.79314
1.81113
1.82489
1.84077
1.84949
1.85464
1.84741
1.8255
1.8028
1.789
1.77341
1.79997
1.83535
1.8911
0.194875
0.195339
0.195116
0.194891
0.194586
0.194241
0.193608
0.193152
0.192748
0.19213
0.191092
0.190372
0.189541
0.18845
0.187298
0.186111
0.18441
0.183063
0.18197
0.180967
0.18052
0.179004
0.176039
0.174257
0.172721
0.171547
0.169766
0.167839
0.166366
0.164627
0.162367
0.159751
0.157293
0.155115
0.153311
0.151407
0.149542
0.148436
0.148012
0.162107
0.297636
0.869896
0.882907
0.88278
0.882331
0.883607
0.88514
0.886462
0.888751
0.894174
0.912618
0.953069
1.04314
1.23988
1.50109
1.65955
1.67872
1.65638
1.62975
1.62657
1.61394
1.59441
1.58184
1.57419
1.56834
1.56153
1.55703
1.55455
1.55735
1.55792
1.55982
1.56984
1.58149
1.59202
1.60481
1.61665
1.62615
1.63548
1.64396
1.65053
1.65837
1.66582
1.67184
1.67404
1.67398
1.67197
1.66384
1.6515
1.63956
1.62248
1.59697
1.56758
1.52581
1.47873
1.43532
1.40009
1.39068
1.3975
1.42295
1.47688
1.5554
1.62808
1.67392
1.7133
1.74619
1.77514
1.79441
1.80872
1.82394
1.83615
1.8424
1.83675
1.81633
1.79428
1.7757
1.76038
1.78478
1.8175
1.87516
0.194822
0.195447
0.195376
0.195074
0.1947
0.194339
0.19364
0.1931
0.19265
0.192079
0.190903
0.190125
0.189416
0.188402
0.186955
0.18564
0.184048
0.182524
0.181331
0.180313
0.17979
0.178111
0.175088
0.17324
0.171845
0.170461
0.16831
0.165469
0.163696
0.162456
0.16089
0.159417
0.158086
0.156744
0.154895
0.153762
0.15207
0.151767
0.153764
0.174918
0.639481
0.850422
0.867196
0.870233
0.872327
0.875739
0.880019
0.884642
0.892226
0.912981
0.962146
1.06486
1.25678
1.50702
1.67459
1.67042
1.64301
1.62917
1.61021
1.59044
1.58216
1.57522
1.56084
1.54659
1.54141
1.53879
1.53542
1.53479
1.53463
1.53418
1.54154
1.54958
1.55711
1.5699
1.58452
1.5971
1.60765
1.6169
1.62443
1.63281
1.64096
1.64752
1.65514
1.66098
1.66359
1.66355
1.65881
1.64796
1.63673
1.62355
1.60304
1.57686
1.54107
1.49791
1.45702
1.42227
1.40728
1.41165
1.43532
1.48223
1.55117
1.61572
1.6595
1.69804
1.72769
1.75607
1.77627
1.7914
1.80591
1.82077
1.82863
1.82444
1.80603
1.7855
1.76348
1.74848
1.77029
1.80022
1.86067
0.194972
0.195488
0.195367
0.195157
0.194806
0.194387
0.193722
0.193105
0.192584
0.192033
0.190775
0.189876
0.189194
0.188233
0.186735
0.185227
0.183771
0.182095
0.180654
0.179463
0.178797
0.177159
0.174199
0.172277
0.170736
0.16951
0.167363
0.16365
0.161307
0.159471
0.157915
0.156083
0.155143
0.152893
0.148849
0.143809
0.137357
0.133057
0.137216
0.206467
0.77091
0.86442
0.872218
0.873787
0.87232
0.874922
0.880018
0.887447
0.906326
0.954887
1.06391
1.26931
1.52163
1.67526
1.67404
1.65146
1.6299
1.59567
1.57496
1.57136
1.56009
1.54089
1.53319
1.53312
1.5262
1.51748
1.51347
1.51269
1.51222
1.5172
1.52206
1.52628
1.53663
1.54963
1.56062
1.57419
1.58692
1.59586
1.60382
1.61179
1.62041
1.62826
1.63575
1.64437
1.64916
1.65113
1.64971
1.64201
1.63165
1.6212
1.60452
1.58182
1.55121
1.51256
1.47473
1.44474
1.42561
1.42833
1.44812
1.48774
1.54673
1.6048
1.64714
1.68348
1.70994
1.73723
1.75746
1.7731
1.78769
1.80457
1.8143
1.81146
1.79489
1.7763
1.75098
1.73644
1.755
1.78258
1.84665
0.195034
0.195586
0.195444
0.195267
0.194944
0.194471
0.193864
0.193057
0.192439
0.191833
0.190763
0.189618
0.188828
0.187967
0.186529
0.184869
0.183479
0.181904
0.180193
0.178704
0.177528
0.176057
0.173452
0.171319
0.169399
0.168243
0.16614
0.16246
0.15959
0.157347
0.155469
0.153642
0.152335
0.151348
0.149234
0.147374
0.145021
0.146065
0.165142
0.493697
0.855886
0.865802
0.866258
0.866058
0.868725
0.874937
0.885913
0.909879
0.960226
1.0713
1.28747
1.52648
1.6691
1.68537
1.64991
1.61789
1.60512
1.59149
1.56014
1.53913
1.52914
1.52528
1.52227
1.51116
1.50412
1.50017
1.49597
1.49367
1.49589
1.49943
1.50105
1.5087
1.5184
1.52647
1.53823
1.55093
1.56303
1.57444
1.58386
1.59162
1.59857
1.60762
1.61581
1.62463
1.63125
1.63584
1.63658
1.63312
1.62437
1.61497
1.60147
1.58257
1.55731
1.52404
1.48969
1.46331
1.44115
1.4429
1.45934
1.49258
1.54367
1.59633
1.63798
1.66931
1.69153
1.71759
1.73793
1.75458
1.76996
1.78779
1.79972
1.79791
1.78299
1.76701
1.73885
1.72478
1.73884
1.76549
1.83016
0.195126
0.19562
0.195473
0.195315
0.19498
0.194503
0.19396
0.193091
0.192324
0.191637
0.190735
0.189392
0.188462
0.187683
0.186355
0.184504
0.183065
0.181683
0.179864
0.17802
0.17639
0.174931
0.172879
0.170392
0.168234
0.166473
0.164425
0.161614
0.158347
0.155922
0.153853
0.151922
0.150238
0.149394
0.147572
0.144746
0.141587
0.142938
0.176749
0.742174
0.891067
0.887329
0.883937
0.881759
0.882003
0.890539
0.912432
0.972264
1.09084
1.30725
1.54128