/*--------------------------------*- C++ -*----------------------------------*\
| =========                 |                                                 |
| \\      /  F ield         | OpenFOAM: The Open Source CFD Toolbox           |
|  \\    /   O peration     | Version:  2.2.x                                 |
|   \\  /    A nd           | Web:      www.OpenFOAM.org                      |
|    \\/     M anipulation  |                                                 |
\*---------------------------------------------------------------------------*/
FoamFile
{
    version     2.0;
    format      ascii;
    class       volScalarField;
    location    "1.5";
    object      pB;
}
// * * * * * * * * * * * * * * * * * * * * * * * * * * * * * * * * * * * * * //

dimensions      [1 1 -3 0 0 -1 0];

internalField   nonuniform List<scalar> 
14161
(
-0.00228039
0.0017317
-0.000322127
-0.000583833
-0.000990332
-0.000963502
-0.00055768
-3.09017e-05
7.0648e-05
0.000207859
5.71367e-06
-8.02104e-05
-0.000568376
-0.000295198
-0.000467007
-0.000380099
-0.000310414
-0.0001173
-9.53375e-05
5.9217e-05
5.64247e-06
-0.00017418
-0.000283702
-0.000390966
-0.000341013
-0.00019873
-0.00012226
0.000163894
0.000176821
0.000372597
0.000478372
0.000472473
0.000441737
0.000487084
0.000495172
0.000490802
0.000553942
0.000403979
0.000378874
-0.000346089
-0.00247387
-0.00600387
-0.0183371
0.0573814
0.0267632
-0.0261898
-0.0069868
-0.00291884
0.00625968
0.00427082
0.0042089
0.00610451
0.000845782
0.00442382
0.00199758
-3.26825e-05
-0.0013739
0.00171841
0.00221787
0.00269445
-0.0032993
-0.00275429
-0.001491
0.000917667
0.00136331
-0.00333645
-0.00476297
-0.00061027
0.000875884
-0.00420498
-0.00358897
0.00336091
0.00169978
0.00196311
0.0045444
0.00427658
0.00294498
0.0044065
0.00245593
0.0017809
0.00042247
0.000567425
-0.00114711
-0.000457984
-0.000630151
-0.00329473
-0.00514615
-0.00557192
0.0012753
-0.0110234
-0.00808367
0.00327427
0.00161553
0.0145972
0.00677469
0.00518634
0.00455391
0.00199901
0.00116168
0.000565204
0.00025651
0.000210988
2.86944e-05
0.000357182
0.00022241
-0.00156159
4.34583e-05
0.000777075
-0.00146669
0.000897163
-0.000848029
0.000543831
-0.00144044
0.00220102
-0.00270006
0.00312736
-0.00509487
0.00506677
-0.00617465
0.00525989
-0.00631761
-0.000381465
0.000496846
0.00196616
0.00169322
-4.76198e-05
-0.000853809
-0.00128601
-0.00182957
-0.00159535
-0.000904293
-0.00070277
7.09451e-05
0.000472264
-0.000421562
-0.000701746
-0.000944664
-0.00149414
-0.00165468
-0.00115994
-0.000546136
-4.56264e-05
0.000376634
0.00065048
0.000555251
0.000202059
8.28984e-05
-7.16365e-05
-0.000106978
1.04414e-05
0.000140803
0.000297842
0.000502827
0.000528416
0.000476861
0.000364077
0.000235676
0.000168578
9.51257e-05
0.00045379
0.0033528
-0.00377586
0.0345544
0.0577603
0.00745126
0.0183034
-0.00231096
-0.00194921
-0.00290981
-0.00295778
-0.0033207
-0.00588632
-0.00185776
0.0012972
-0.00463646
-0.00736651
0.00167496
0.00345899
-0.00152244
-0.00407919
0.00164015
0.00408465
-0.00623448
-0.0113366
0.0163861
0.0109713
-0.0113019
-0.0137333
0.0270033
0.00666944
-0.0140331
0.000795181
-0.00229296
-0.000427317
0.000645395
-0.00366266
-0.00423592
-0.00373905
-0.00209247
0.000980381
0.00234692
0.00184222
-0.00260222
-0.00437801
-0.00170317
0.0209635
0.0254021
-0.00645847
-0.00464571
0.019697
-0.00324449
0.00489856
0.0037218
-0.00155911
0.00151057
0.00130527
-0.000136103
-0.000167785
0.000200217
-0.000655713
-0.000170903
-0.000477097
6.54884e-06
-0.0017634
0.00141704
-0.000248303
-0.00103835
0.000471259
8.13451e-06
-0.00109155
0.00102829
-0.00172537
0.00218267
-0.0027915
0.00332296
-0.00428907
0.00456641
-0.00521583
-0.00953638
0.00954332
0.000156207
-0.00140406
-0.0041477
-0.00368898
-0.000641327
0.000623602
0.00129282
0.00213757
0.00159188
0.000342926
-0.000207289
-0.000618118
-0.00131653
-0.000444909
3.39866e-05
0.000608117
0.00129991
0.00182985
0.00119098
0.000148964
-0.00036552
-0.00101029
-0.00152218
-0.000919318
-0.000355443
0.000194404
0.000642039
0.000803291
0.000785954
0.000743795
0.000532312
0.000393845
0.000404574
0.000596923
0.000900381
0.000990158
0.00146519
0.00292081
0.00462122
0.008559
0.0112545
0.00689579
0.0470766
0.00174901
0.0042847
-0.00796475
0.00219787
0.00483987
-0.00551521
-0.00200159
0.0148124
-0.00290354
-0.0188576
0.00651348
0.00880804
-0.00269549
-0.0144957
-0.00052553
0.00567549
-0.00178727
-0.00976279
0.0095055
0.01448
-0.016197
-0.0208594
0.0250068
0.0172544
-0.0227893
-0.0147674
0.018712
0.00215604
-0.00209053
0.00268521
-0.000784746
-0.00194717
-0.000679267
0.00131436
0.00252653
-0.00228201
-0.00683683
-0.00732364
-0.00159029
0.00398854
0.00825773
-0.0190137
-0.0357118
0.0381342
0.00626128
-0.00489417
-0.00136427
0.00092625
-0.00782263
0.00476765
-0.00104954
-0.000491
-2.80178e-05
-2.79827e-05
-0.000189536
0.000898533
2.99878e-06
-0.00157117
0.00133997
0.00118833
-0.00120849
-0.00010924
0.000914043
-0.000678454
-0.000440204
-0.000850528
0.00146209
-0.00276264
0.00208757
-0.00333235
0.00331147
-0.00448637
0.004353
-0.00488888
0.0126132
-0.0143217
-0.000819924
0.00122798
0.00472899
0.00440024
0.000204254
-0.00130918
-0.00239555
-0.00360387
-0.00282289
-0.00152931
-0.00053887
0.000202622
0.000564341
-0.000181635
-0.000757585
-0.00167999
-0.00248217
-0.00329355
-0.00259475
-0.00115034
-0.000143402
0.000820061
0.00138685
0.0011519
0.000390628
9.4325e-05
-0.000552091
-0.000528766
-0.000232683
4.92731e-05
0.000395334
0.000698239
0.000922601
0.000997598
0.000958054
0.00108559
0.0019833
0.00325878
0.00473653
0.0106262
0.00753273
0.00717801
0.0526977
0.007106
0.00973527
0.00438529
0.00410785
-0.00711406
0.00505649
-0.00212047
-0.0162891
-0.00130053
0.0065423
-0.00231042
-0.00710672
-0.00164442
0.00370232
0.000226529
-0.0032142
0.00201246
0.00519771
-0.00271066
-0.0095673
0.0069703
0.0147754
-0.00912909
-0.0162677
0.0160857
0.00478352
-0.00993285
0.00103502
0.00115402
-2.71352e-05
-0.0016865
-0.0049639
-0.00502833
-0.000902898
-0.00071468
-0.00153102
-0.0033938
-0.000495601
0.00835373
0.0171923
-0.0085752
-0.0244109
0.0545858
-0.00158709
-0.0253852
0.0200254
-0.00344844
0.00662901
2.16025e-05
-0.00462855
0.000423696
0.00106996
0.000297086
-0.000103109
-0.000582087
-0.00175259
0.000909441
0.000955103
-0.0021213
-0.00167251
0.0022822
9.98856e-05
-0.00146129
-0.000241099
0.00171674
-0.00124188
0.000784889
-0.00189721
0.00235336
-0.00336169
0.00359007
-0.0041398
0.00412395
-0.00423359
-0.016578
0.0167319
0.000200165
-0.00181659
-0.00613401
-0.00612606
-0.00123284
0.00111003
0.00209118
0.00347562
0.00288837
0.000800801
-6.49087e-05
-0.000543907
-0.00178563
-0.000599651
0.000176472
0.00105514
0.00220113
0.00317022
0.00266703
0.00111792
-0.000296286
-0.00100598
-0.00188428
-0.00136953
-0.000453613
3.78935e-05
0.000753806
0.00121371
0.000934775
0.000656318
0.000342452
0.000170523
-2.44121e-05
-7.42699e-05
7.96353e-07
4.8607e-05
-2.81443e-05
0.000318411
0.000610281
0.00341631
0.000316778
0.0236537
0.0317798
0.0240835
-0.00250853
-0.00388434
0.000415882
-0.00238936
-0.00410073
0.00131323
-0.00297497
-0.00323255
-0.00258039
-1.55725e-05
-0.00082089
-0.00122035
-0.00347371
0.000938328
-0.000116247
-0.00129692
-0.00162319
-0.00312636
0.000477203
0.00339784
-0.00235393
-0.00278591
0.00706219
-0.000551224
-0.00464358
0.00221613
0.00109484
-0.00248859
-0.000747756
-0.000767396
0.00105391
0.00327084
0.000762573
-0.00579604
-0.0042137
0.00338115
0.0116805
-0.0025566
-0.0172135
0.00269412
0.0390069
-0.0250934
-0.0144937
0.0191925
-0.0205871
0.00978909
-0.00434979
-6.41839e-05
0.00151027
-0.00038773
-0.00102589
-5.49215e-05
0.000179882
0.000105173
0.00120666
-0.00140603
-0.00136122
0.00121558
0.00139048
-0.00228775
-0.0006511
0.00178147
-0.000577426
-0.00132728
-0.00108325
0.00150323
-0.00291024
0.00235394
-0.00359626
0.00339352
-0.00423067
0.00404976
-0.00420056
0.0196659
-0.0213054
-0.00154091
0.00147418
0.0060299
0.00641718
0.000888505
-0.00139728
-0.00279281
-0.00445238
-0.00385541
-0.0021568
-0.000821922
5.30541e-05
0.000913711
-0.000112698
-0.000695525
-0.0018255
-0.00315731
-0.00426393
-0.00415212
-0.00258622
-0.000607196
0.000419582
0.00130875
0.000937087
0.000377372
0.000112394
-6.40446e-05
-0.000677829
-0.000280689
0.000167684
0.000641573
0.00111996
0.00166666
0.00197935
0.00208012
0.00233787
0.00269517
0.00237431
-0.000385461
-0.000113661
-0.0282938
0.0742474
0.0428835
0.00463766
-0.00163674
-0.00073731
0.0046348
0.00404972
0.00315324
0.000592489
-0.00334281
0.00198771
-0.00186244
-0.00193796
-0.0022797
0.00137357
-0.000820096
-0.000509396
-0.00111274
-0.000802133
0.000120544
0.00134146
-0.0013857
-0.00257985
-0.00077234
1.33197e-05
-0.000424493
0.000310353
-0.00113869
-0.00248666
-0.0014862
0.0019535
0.000462257
0.000912751
-0.00182006
-0.00306975
-0.00120844
0.00248522
0.00151259
-0.00159198
-0.00770613
-0.000629053
0.0114237
0.00792993
-0.0173783
0.00153064
0.013617
0.00104394
0.00207712
-0.00144378
-0.00709521
0.00742742
-0.00786414
0.00196653
0.0011215
0.000560004
-0.000337691
-0.000442783
-0.00140993
0.00148929
0.00142776
-0.00109944
-0.00187666
0.00233475
0.000718394
-0.00176658
-0.00057364
0.0016274
-0.00160593
0.00109193
-0.00227025
0.00261292
-0.00347672
0.00344041
-0.00386581
0.00392209
-0.00409037
-0.0229631
0.0225913
0.00140239
-0.0016086
-0.00669102
-0.00748239
-0.00206097
0.0010364
0.00217946
0.00385886
0.00366028
0.00126
0.000409223
-0.000590376
-0.00170445
-0.000689435
0.000149228
0.00102906
0.00256522
0.00373381
0.00389545
0.00244492
0.000387069
-0.00014588
-0.00154021
-0.00086222
-1.57455e-05
0.000142939
0.0002495
0.00089326
0.000900292
0.000537954
0.000182106
-0.000295089
-0.000837541
-0.00125733
-0.00186439
-0.00212414
-0.00521894
-0.00557064
-0.00829744
-0.0097125
-0.0110149
0.0116663
0.0710774
0.0267004
-0.000346406
0.000251078
-0.00112861
-0.00165363
-0.000305343
0.00119374
-0.00153134
0.00100547
-0.000557188
0.000581458
1.86373e-06
0.000586769
4.43141e-05
-0.000392434
-0.000961646
-0.00161632
-0.00190313
-0.00101351
-0.0010953
-0.000823319
-0.000506077
-0.00192483
-0.00137288
0.000361855
0.000322742
-0.00101462
0.000622036
-0.00129457
-0.00223643
0.00213279
0.00242764
0.000673952
-0.00456108
-0.00515724
0.00247116
0.00374912
-0.00152091
-0.000453448
0.00146543
-0.00526748
0.00960565
0.0025472
-0.00601689
0.00258347
-0.000584341
-0.00286718
0.000428818
-0.000390786
0.000198317
-0.0018394
-0.000218865
-0.000800925
-0.000583588
0.000113134
0.000897245
-0.000840608
-0.00173246
0.00131645
0.000592774
-0.00170788
-0.00136252
0.00147509
-0.0004912
-0.000802185
-0.0014349
0.00185411
-0.00285249
0.00226861
-0.00339107
0.00325491
-0.00390892
0.00393226
-0.00411075
0.0250736
-0.025711
-0.00230383
0.00112212
0.00587819
0.00706531
0.00168325
-0.000941573
-0.00262274
-0.00426676
-0.00453012
-0.00239834
-0.0010726
-0.000294519
0.0005778
-4.8344e-05
-0.000581398
-0.00178146
-0.00324962
-0.00447303
-0.00517419
-0.00376615
-0.00193898
-0.000425252
0.000395919
0.00064215
0.000254183
-9.61058e-05
-0.000351812
-0.000451431
-0.00010257
0.000233091
0.000841815
0.00140808
0.00217332
0.00277395
0.00353409
0.0042283
0.00551514
0.00431562
0.0010926
-0.00219537
-0.00303109
0.00263117
0.151068
-0.0198199
-0.0238766
-0.0131965
-0.00755741
-0.00300459
-0.00157471
-0.000785863
-0.00322801
0.000996905
-0.00416749
-0.00142709
-0.00222698
-0.00150649
-0.00217622
-0.00162427
-0.00100777
-0.000349111
-9.93471e-05
-0.000377327
-0.00121254
-0.00145592
-0.000411339
0.00013671
-0.00131715
-0.00378576
-0.00266283
-0.00195254
0.00392792
0.000755664
-0.00597767
-0.00219405
-0.00213726
-0.00171378
0.00417243
0.00553126
-0.00346546
-0.00786536
0.00280212
-0.000448973
0.000226652
0.00560168
0.00161047
-0.00136816
-0.00638475
0.000575914
-0.0044562
-0.000566874
0.00192939
-0.00509756
0.00549838
-0.00477282
0.00803099
-0.000301719
0.000792721
-0.000656623
-0.00173473
0.00042875
0.000277165
-3.55398e-05
-0.00163257
0.00111678
0.0001849
-0.000571206
-0.000730862
0.000969645
-0.00120688
0.001062
-0.00218566
0.00250122
-0.00329472
0.00327793
-0.0038829
0.0038611
-0.00406286
-0.027504
0.0253635
0.0023399
-0.00129375
-0.00582041
-0.00751365
-0.00275306
0.000516808
0.00169516
0.00332257
0.00372441
0.00187085
0.000422215
-0.000234413
-0.00102742
-0.000642756
-5.56428e-06
0.00087228
0.00223352
0.00336666
0.00416847
0.003206
0.00204333
0.000929631
3.87504e-05
-0.000398728
-0.000319004
4.95453e-05
0.000373683
0.00077732
0.000994569
0.000736291
0.0003792
0.000123746
-0.000253744
-0.000654594
-0.00125494
-0.0018587
-0.0023437
-0.00285984
-0.0029327
-0.000458984
0.000483025
0.0224595
0.0572566
0.0196794
-0.00948655
-0.00425253
-0.00366978
-0.00210895
-0.00625194
-0.0007315
-0.00507245
0.000730597
-0.00411847
-0.000257901
-0.00184236
0.000264134
-0.00110302
0.000136302
-0.000683793
-0.00102341
-0.000747278
0.00075167
0.000594612
-0.00129865
-0.00224031
-0.00445003
0.00263474
0.00419443
0.00292088
-0.00187017
-0.000361811
-0.00147395
0.0125342
0.00497006
-0.00402449
0.00212609
-0.00135182
-0.00432642
0.00214299
0.000795866
-0.000993537
0.00183712
0.00205114
0.00343853
-0.00161645
0.000864515
0.00195066
-0.00627212
0.00353472
-0.00241843
0.00737801
-0.00637188
0.0064985
-0.00267835
0.00275501
-0.000531585
-0.000194595
-0.000357069
0.000994405
-0.000613084
-0.00180903
-0.000577302
8.90811e-05
-0.000219749
-0.00064016
0.000125862
-0.00071109
0.000261739
-0.00154865
0.00137807
-0.0023364
0.00185282
-0.00320323
0.00314743
-0.00399788
0.00379854
-0.00392824
0.0274834
-0.0267196
-0.00344857
0.000714254
0.00451266
0.00639088
0.00213103
-0.000314555
-0.00199113
-0.00333512
-0.00413246
-0.00268066
-0.00143821
-0.000537182
-0.000165509
-0.000119778
-0.000637396
-0.00153253
-0.00272882
-0.00386094
-0.00473449
-0.00417481
-0.00290251
-0.00210178
-0.000815117
-0.000319944
-0.000144266
-0.000203627
-0.000337172
-0.000374055
-0.000146626
8.70938e-05
0.00042941
0.000989404
0.00158659
0.00244657
0.0039266
0.00537323
0.00699673
0.00847127
0.00896118
0.012428
-0.00119813
0.0388108
0.040536
0.00955009
-0.00837753
-0.0075114
-0.00512278
-0.00446113
-0.00713305
-0.000281629
-0.00619868
0.00231852
-0.00338298
0.00143918
-0.00268347
-0.000241752
-0.00290419
-0.000209334
-0.00148147
8.17531e-05
-0.00207712
-0.00435688
-0.00412967
-0.00269991
0.00402823
0.000176107
-0.003316
-0.00760741
-0.00189639
0.00492151
0.0032393
-0.00846943
-0.0176955
0.00154142
0.0144952
-0.00634076
-0.000281926
7.40402e-05
-0.00207153
-0.00379815
-0.00223686
0.000594056
0.000141831
0.00291862
-0.0022365
-4.00093e-05
0.00218026
-0.00158883
-0.000750798
-0.00608335
0.0037733
-0.00526001
0.00101579
0.00257017
-0.00171774
0.00198486
8.5146e-05
0.000470405
-0.000410542
0.000121586
7.99908e-05
0.000863512
-0.000579118
0.00030983
-0.000681085
0.000329874
-0.00061388
0.000368827
-0.00155103
0.00113993
-0.00198523
0.00171252
-0.0027258
0.00259563
-0.00347175
0.00368859
-0.00375301
-0.0288117
0.0248062
0.00347062
-0.000513479
-0.00421024
-0.00639256
-0.00289817
-0.000122322
0.00099317
0.00235789
0.00300952
0.00202707
0.000679434
1.74587e-05
-0.000468532
-0.000502773
-8.78244e-05
0.00059282
0.00150632
0.00249238
0.00327849
0.00352865
0.00263324
0.00182793
0.000834261
0.000366708
7.97693e-05
0.000223121
0.000477138
0.000716525
0.000879908
0.000988186
0.00103247
0.00107396
0.00108436
0.000961478
0.000533702
0.000259311
5.04388e-05
0.000114489
0.000414565
0.000824798
0.000665346
0.0160587
0.0477795
0.0144997
-0.0083394
-0.00781353
-0.000825938
-0.00266578
-0.00362652
0.00122398
-0.00408175
0.00173434
-0.00481955
0.000891908
-0.00382102
0.000185175
-0.0017262
-0.000407502
-0.00200056
-0.00154093
-0.00122993
0.00200376
0.00112631
-0.000920374
-0.00148029
-0.00325712
0.00677587
0.00662105
-0.000863383
-0.00604524
-0.0019905
0.00929625
0.0196908
0.00497034
-0.0108847
0.0101015
0.00342895
2.81505e-05
0.000647808
0.00033956
-0.00102224
0.00725294
-0.00125406
0.00118869
-0.00657913
0.00138796
-0.000599981
-0.00316722
0.0025252
0.000218101
-0.00430728
0.00179001
-0.00351682
0.00682036
-0.00634319
0.00439257
-0.000236911
0.00146868
0.000413718
0.000167059
-0.000868105
-0.000297792
-0.000858094
0.000335296
-0.000740308
0.000509844
-0.000837684
0.0003186
-0.00163112
0.00105833
-0.00202939
0.00127877
-0.00252122
0.00230268
-0.00329204
0.00334964
-0.00368635
0.0255865
-0.023898
-0.00418169
7.36955e-05
0.00274368
0.00489043
0.00201604
0.000142838
-0.00123221
-0.00230431
-0.00310803
-0.00250387
-0.00164587
-0.000878415
-0.000452467
-0.000399562
-0.000733986
-0.00112966
-0.00191159
-0.0027846
-0.0035315
-0.00378453
-0.00325148
-0.00249434
-0.00178243
-0.00113063
-0.000715027
-0.000499923
-0.000442528
-0.000401922
-0.000393103
-0.000344799
-0.000330119
-3.71717e-05
0.000364113
0.00106422
0.0016824
0.00292183
0.00370172
0.00466168
0.00535258
0.00430729
0.00765284
-0.001445
0.071483
0.0505235
-0.00615914
-0.000120329
0.0027996
-0.000268718
0.000221643
-0.000947335
-0.00161294
-0.00527497
-0.00089871
-0.00468522
-0.00219624
-0.0027139
-0.00323733
-0.00317192
-0.00163053
-0.00246274
-0.00211468
-0.00374182
0.00150148
-0.000721679
-0.000241279
0.000381255
-0.00181904
-0.00397509
-0.000169739
0.00281978
0.00125865
-0.00537222
-0.00567205
-0.00310103
0.00419848
0.00114919
-0.00387534
0.00180176
-0.00565241
0.00080267
-0.00429238
0.00640772
-0.00799186
0.000631884
-0.00440271
2.73305e-05
-0.00101785
-0.00147937
-0.000451885
0.00121615
-0.005277
0.00555358
-0.00830397
0.00430816
-0.00323225
0.00460846
0.000417585
0.00289953
0.000252458
0.000272457
-0.000412953
0.000371495
-0.000183735
0.000418298
-0.000739421
0.000813863
-0.00058435
0.000641545
-0.0014301
0.00105185
-0.00169157
0.0010721
-0.00157537
0.00163241
-0.00273357
0.00330464
-0.0033813
-0.0259551
0.0209895
0.00400189
2.38711e-05
-0.00244655
-0.00455184
-0.00236067
-0.000561004
0.000324332
0.00134583
0.00195084
0.00162108
0.000719216
0.000166524
-0.000142302
-0.000426956
-0.000153811
0.000114173
0.00065311
0.00131556
0.00203907
0.00241995
0.00215059
0.00179138
0.0013017
0.000903022
0.000518786
0.000374485
0.000357394
0.000422369
0.000630203
0.000866965
0.00118013
0.00145808
0.00167095
0.00170269
0.00174638
0.00172837
0.00175814
0.00220482
0.00207784
0.00197525
0.00358379
0.00519182
0.0489373
0.0245208
-0.0137833
0.000316593
0.000958392
-0.00669442
0.00222236
-0.00638296
0.0038836
-0.00106675
-0.00126284
0.00291052
-0.00355949
0.00287201
-0.000733985
-0.000804595
-0.00031441
-0.00101753
-0.000144945
-0.00127827
-0.000452068
-0.00168738
0.000499258
0.00149709
-0.00151786
-0.00110075
0.00142144
-4.36676e-05
0.000194299
-0.000826128
0.000915314
-0.00099149
0.00248823
0.00513107
-0.000958857
0.0125188
0.00129928
0.0107323
-0.000883729
0.0148852
-0.00107659
0.00332161
7.80949e-05
-0.000248667
-0.00223189
-0.00369087
0.000277904
-0.00172234
-0.000552036
-0.00145733
-0.000220867
-0.00203783
0.00487277
-0.000270195
0.00224709
0.00150402
-0.000524749
0.000629522
-0.000314424
9.24217e-05
-0.000747487
-9.07331e-05
-0.00102261
0.000384124
-0.00083926
0.000172073
-0.00127147
0.000375175
-0.00130893
0.000516574
-0.000940073
0.000607062
-0.00257774
0.00278898
-0.00339185
0.020083
-0.0185971
-0.00420361
-0.000398234
0.00135529
0.00305311
0.00143603
0.000318748
-0.000657861
-0.0013531
-0.00198702
-0.00197751
-0.00143009
-0.000926392
-0.000627616
-0.000474166
-0.000556704
-0.000918626
-0.00113701
-0.00168123
-0.00221703
-0.00257142
-0.00262136
-0.00228893
-0.00190452
-0.00149029
-0.0010939
-0.000788394
-0.000570216
-0.000392735
-0.000358357
-0.000386875
-0.000509772
-0.000607037
-0.000596628
-0.00027113
0.000236032
0.000783639
0.00125488
0.00172756
0.00228672
0.00296839
0.00501987
0.00801256
0.0668761
0.0252909
-0.00282713
-0.00256412
-0.00981482
0.0038954
-0.00701601
0.00484261
-0.00313897
0.00294419
-0.000888243
0.0042339
-0.000364941
-0.000142416
-0.000840626
-0.000809001
-0.00237074
-0.000165798
-0.00108794
-0.00110567
-0.00163904
-0.000446901
-0.00339385
-8.90485e-05
0.000271085
6.90961e-05
-0.00093471
-0.000999656
-0.000594184
-0.00122843
-0.000626333
-0.00323897
-0.000530532
0.00164446
-0.00583179
0.0136857
-0.0137453
0.00726697
-0.00467133
0.00620521
-0.00678615
0.00265773
-0.00519039
-0.000677061
-0.0025354
0.00166911
-0.00122178
-0.00164921
0.00147038
-0.0074864
0.00657952
-0.0119608
0.00820029
-0.00628846
0.00359353
0.00135691
0.000896502
-0.000454436
-0.000524846
-7.11472e-06
0.000166471
0.000597654
-0.000361572
0.00074074
-0.000467156
0.000315712
-0.000836515
4.12381e-05
-0.000590066
-0.000340688
-3.2757e-06
-0.000201384
-0.00162522
0.00243616
-0.00304004
-0.0200315
0.0153787
0.00367211
0.000426605
-0.00136308
-0.00278333
-0.00168153
-0.000696517
-9.67943e-05
0.00049137
0.00094551
0.000891288
0.000468813
0.00015996
-0.000188308
-0.000360769
-0.000355145
-0.000185923
-3.26847e-05
0.00036516
0.000812548
0.00102252
0.00119332
0.0011462
0.000917158
0.000693142
0.000464083
0.000287923
5.69245e-05
-8.38485e-06
2.01064e-05
0.000115925
0.000460624
0.000710527
0.000976293
0.00116973
0.00127116
0.00118305
0.00110602
0.000965525
0.000379278
0.000756203
0.00017047
0.0230289
0.0524573
0.00937343
0.00351663
0.0109684
-0.00416772
0.00568777
-0.00521384
0.00318869
-0.00603644
0.00300976
-0.00628468
-0.00165536
-0.004974
0.00149123
-0.00166684
-0.000653953
-0.00224137
-0.00435474
-0.000187133
0.00116081
-0.000638383
0.000254699
-0.00043898
-0.00255261
-0.000543389
-0.000752084
-0.000727184
-0.000884019
0.000263445
-0.000431644
-0.000554388
-0.000509341
-0.00349166
0.00340171
-0.00432588
0.00633805
0.000472591
0.00625541
0.00630162
0.000932065
0.000504422
-0.0063616
-0.00408111
-0.00339095
-0.00544112
0.00117102
-9.73446e-06
-0.00115342
0.0035584
-0.00631872
0.00736612
-0.00596531
0.00959128
-0.00142567
0.00648852
0.00178773
0.000698984
0.00101655
8.43526e-05
0.000441818
-0.000545298
-0.000284382
-0.00112916
0.000144275
-0.00077989
2.25037e-05
-0.000659037
-0.000706414
-0.000120411
-0.000691139
0.000434218
-0.000791268
-0.00115318
0.00166416
-0.00236974
0.0129536
-0.0125098
-0.00343131
-0.000582887
0.000777218
0.00140658
0.000843507
0.000182806
-0.000238206
-0.000769949
-0.00103948
-0.00128435
-0.00105701
-0.000733734
-0.000623558
-0.000523093
-0.000524439
-0.000647538
-0.000803136
-0.000972023
-0.00124978
-0.00150069
-0.00166731
-0.00171385
-0.0015105
-0.0013339
-0.00110254
-0.000822422
-0.000583834
-0.000428776
-0.000309826
-0.00029068
-0.000295425
-0.000471823
-0.000483972
-0.00067865
-0.000585652
-0.000522014
-0.000454677
4.84106e-05
-0.00077563
0.00242188
-0.0109538
0.0631601
0.0283977
0.00675046
0.00639258
0.0134256
-0.00496357
0.00521533
-0.00454659
0.00235337
0.000219783
0.00356215
0.000437663
0.00267692
-2.18801e-05
-0.003174
0.00607451
-0.00519789
0.0051526
-0.00267479
-0.00237812
-0.00269105
-0.00203546
0.00191342
0.000313069
-0.0023837
-0.00180054
0.000259392
-0.00153687
-0.00171936
-0.00134848
-0.00207581
0.000724351
-0.00191125
0.00457213
9.80891e-05
0.00229288
0.00818122
0.00599239
0.00363199
0.00590392
0.00100195
0.00186983
0.000212242
0.00336617
-0.00342706
-0.000851508
-0.000654384
-0.00215195
-6.37282e-05
-0.00171049
-0.000454085
-0.0016049
-0.00221246
-0.000295788
0.00010183
0.00138589
0.000566997
-0.000221825
-0.000539245
-0.0010834
-0.000147534
-0.000141706
0.00028856
-0.000305642
0.000311376
-0.000329632
2.11455e-05
-0.000417676
-0.000690009
0.000607074
-0.00123564
0.000735886
-0.00111866
-0.000682542
0.00148823
-0.0020522
-0.01334
0.00969852
0.00257703
0.00051041
-0.000545373
-0.0011945
-0.000999231
-0.000703946
-0.00033373
-3.21258e-05
0.00017862
0.000256703
0.000175327
-0.000133399
-0.00034464
-0.000429169
-0.000452004
-0.00039877
-0.000318141
-0.000180341
-1.70659e-05
0.000100262
0.000244188
0.000281299
0.000275434
0.000163683
8.80713e-05
-0.00013081
-0.000316977
-0.000440988
-0.000484368
-0.00050942
-0.000478607
-0.000374594
-0.0001973
-5.75119e-05
7.50423e-05
0.000136231
0.000268555
0.00040973
4.19062e-05
0.0025873
-0.00511769
0.0734215
0.00251397
0.00179912
-0.00171131
0.0123071
0.00241732
0.0111029
-0.00558598
0.0033765
-0.00640382
-0.00124007
-0.00564298
-0.00139029
-0.00539073
-0.00157879
-0.00263776
-0.00171927
-0.00449455
-0.00349087
0.00303702
0.00195258
-0.00140241
-0.000620902
0.00235444
-0.000440947
-0.000728923
-0.000809406
0.000382147
-0.00100284
0.00128375
-0.000709797
0.00255639
0.00286257
0.000434286
0.00715081
0.00800327
0.00328025
0.0105253
-0.000370212
0.00506
-0.00193977
0.00253073
-0.00151572
0.00347865
-0.00239431
0.00138732
0.0020774
0.00166782
0.000153054
0.00264193
0.00179839
0.00265298
-0.000178512
0.00414672
0.00137429
0.004097
0.00238917
0.00141501
0.00121499
-0.000215679
0.000281084
-0.000171687
-0.000284574
-0.000583714
-7.91895e-05
-0.000252916
-0.000151994
-0.000374109
-0.000882196
0.0006279
-0.00145721
0.00121726
-0.00175893
0.000139906
0.00082535
-0.00210403
0.00648472
-0.00712149
-0.00233628
-0.000519795
0.00014109
0.000615221
0.000373396
0.000103235
-1.96437e-05
-0.000374409
-0.000543473
-0.000812407
-0.000719297
-0.000571597
-0.000539873
-0.000522243
-0.000502849
-0.000553725
-0.000612627
-0.000694451
-0.000827422
-0.000972515
-0.00110432
-0.00111732
-0.00110262
-0.00107016
-0.000997751
-0.000823114
-0.000636095
-0.00051064
-0.000414284
-0.000290477
-0.000247945
-0.000276195
-0.000279104
-0.000467209
-0.000323167
-0.000162182
0.000582392
0.00110873
0.00205459
0.00444109
0.00779692
0.0666954
0.00306707
0.00210492
-0.00293044
0.0102364
0.00328932
0.0146052
0.0070821
0.0133016
-0.00145986
0.00738695
-0.00262885
0.00465552
-0.00267056
0.00138577
-0.000897724
-0.000253724
-0.002948
-0.00252179
0.00103705
-0.000524024
-0.000395167
-0.000514277
0.00172769
-0.0011962
0.00204575
-0.00446544
0.00285932
-0.0032498
0.00544086
0.00076769
0.00772426
0.00462334
0.0116905
0.0075841
0.00796271
0.00572754
0.00532497
-0.000203153
0.00399712
-0.000775357
0.00127588
0.000391994
0.00279405
-0.000153497
0.00238174
-0.00205881
0.00210914
-0.00291828
-0.000427022
-0.00287232
0.00159165
-0.00710692
0.00311343
-0.00430963
0.00207522
-0.00126157
0.000368734
0.000553464
-0.000343745
0.000327085
-2.02489e-06
6.13251e-05
5.92822e-05
0.000128263
-8.40432e-05
-0.000206154
-0.000208817
-0.000724244
0.000842884
-0.00171307
0.00122775
-0.00181618
0.000697806
0.000129014
-0.000809206
-0.00807305
0.00535789
0.00145713
0.00031812
-0.000282199
-0.000719968
-0.000649775
-0.000539212
-0.00040376
-0.000253076
-0.000186372
-7.63214e-05
-7.93889e-05
-0.000317758
-0.000401027
-0.000483802
-0.000518977
-0.000536554
-0.000507238
-0.0004728
-0.000435028
-0.000375559
-0.000333215
-0.000324837
-0.000269692
-0.000257493
-0.000397144
-0.000522945
-0.000649449
-0.000812171
-0.000879038
-0.000929572
-0.000970359
-0.000976923
-0.00092254
-0.000771553
-0.000762621
-0.0009989
-0.00200303
-0.00282065
-0.00259484
-0.0103162
0.0357305
0.0321415
0.0129087
0.00481582
0.00257043
0.00144804
0.00125392
0.00620979
0.00656592
0.0117335
0.00420348
0.0107539
-0.00181438
0.00359758
-0.0050634
0.000668157
-0.00322603
-1.22875e-05
-0.00393323
-0.00293808
0.00101208
-0.00106732
0.000776578
-0.00104168
0.00380715
-0.0044939
0.0089983
-0.00495553
0.0159666
0.00256887
0.016015
0.00696983
0.0101444
0.0139751
0.00542047
0.00117847
0.0041421
0.00132821
0.00287263
0.000730726
0.00221428
5.46494e-05
0.0017251
0.00011543
0.00187294
0.000426916
0.00079345
0.000877024
0.00217262
0.00146319
0.00139671
0.00132981
0.0035524
-0.001632
0.00202299
0.000150964
0.00232642
0.00118639
0.000984119
0.0010796
-0.000598364
-3.79561e-05
0.00011736
-0.000318727
-0.000389703
-0.000399908
-0.000391149
-0.000286042
-0.000114026
-0.000662442
0.00106304
-0.00170015
0.00129097
-0.00178893
0.00137812
-0.000761222
-0.000206035
0.00197558
-0.00335235
-0.00136498
-0.000373352
1.8144e-05
0.000199107
8.91012e-05
-4.20786e-06
-9.60135e-05
-0.000253671
-0.000388974
-0.000480582
-0.000559478
-0.000505002
-0.000509264
-0.000531056
-0.000523293
-0.000544484
-0.000631221
-0.000658246
-0.000718422
-0.00082475
-0.000847848
-0.000876629
-0.000919615
-0.000948209
-0.000946892
-0.000872422
-0.0007797
-0.000698895
-0.000627865
-0.000583939
-0.000535868
-0.000579396
-0.000956114
-0.00137543
-0.00190701
-0.00230496
-0.00160366
-0.00276268
0.00285031
-0.0134785
0.0913518
0.0213365
-0.0130505
-0.00297038
-0.00393035
-0.00145549
-0.00109516
0.00221602
0.000413356
0.00975555
0.00664541
0.0133517
0.000979306
0.00848125
-0.00409428
0.00426807
-0.00413126
-0.000338072
-0.00300334
-0.00408385
0.00687222
-0.000555258
0.010693
-0.00289893
0.0207159
0.00187221
0.0211825
0.00243153
0.0149317
0.00799112
0.00790256
0.00480189
4.59274e-05
0.00284782
-0.00184735
-0.000558799
0.00180933
0.00026228
0.00136846
0.000623853
0.00136764
0.00126719
0.00239421
0.00101184
0.00144871
0.000933436
0.00207614
0.000831316
0.00145446
0.00115926
-0.000363135
-0.00164572
0.000467111
0.000136177
0.00107515
-0.0019435
0.00193678
0.000109513
0.00147638
0.00113037
-2.91687e-05
0.000335183
-7.91989e-05
-0.000190159
-5.62902e-05
-7.4975e-05
7.87049e-05
-2.48759e-05
-3.36255e-06
-0.000598972
0.000915391
-0.00170487
0.000927334
-0.00171244
0.00176286
-0.00140889
-0.000130662
-0.00473682
0.00253567
0.000636771
8.89614e-05
-0.000194276
-0.000386865
-0.000434173
-0.000413208
-0.000362446
-0.000327272
-0.000277754
-0.000246132
-0.000304069
-0.000368589
-0.00044081
-0.000542261
-0.000551711
-0.000586204
-0.000601511
-0.000624238
-0.000613294
-0.000630914
-0.000644602
-0.000607464
-0.000642734
-0.000756632
-0.000746788
-0.00082223
-0.000880355
-0.000867706
-0.00104594
-0.00112955
-0.00129549
-0.00121735
-0.000943441
-0.000472798
-5.76213e-05
0.000607233
0.000916929
0.00123194
0.00379881
0.00279803
0.0638356
0.00899406
-0.00582178
-0.00456172
-0.00447035
-0.00398659
-0.00329643
-0.00140063
-0.00125839
0.003262
0.00485312
0.011
0.0103884
0.0101838
-0.00256268
-0.000244872
-0.00299179
-0.00837542
0.0101232
-0.00128087
0.0182999
0.00155
0.0201868
0.00243404
0.0127849
0.00262093
0.00911946
0.00385977
0.00216931
0.00129774
-0.00267294
0.00228987
-0.00356746
-0.000285202
0.000184422
-0.000876199
0.000194367
0.000275966
0.00116515
-0.000460438
0.000999281
0.000308504
0.000325433
0.000354709
0.000707992
-0.000102639
0.000652762
-0.00101412
1.77237e-05
-0.000122812
0.000230174
-0.000376282
-0.000250379
0.000897129
0.00228507
-0.000219499
0.00215282