/*--------------------------------*- C++ -*----------------------------------*\
| =========                 |                                                 |
| \\      /  F ield         | OpenFOAM: The Open Source CFD Toolbox           |
|  \\    /   O peration     | Version:  2.2.x                                 |
|   \\  /    A nd           | Web:      www.OpenFOAM.org                      |
|    \\/     M anipulation  |                                                 |
\*---------------------------------------------------------------------------*/
FoamFile
{
    version     2.0;
    format      ascii;
    class       surfaceScalarField;
    location    "2.9";
    object      phi;
}
// * * * * * * * * * * * * * * * * * * * * * * * * * * * * * * * * * * * * * //

dimensions      [1 0 -1 0 0 0 0];

internalField   nonuniform List<scalar> 
28084
(
0.000746224
0.000742993
0.000740219
0.000737886
0.000735969
0.000734456
0.000733312
0.000732509
0.000732046
0.000731872
0.000731952
0.000732301
0.000732866
0.000733571
0.000734481
0.00073553
0.00073667
0.000737862
0.000739181
0.000740539
0.000741915
0.000743256
0.00074454
0.00074579
0.000747057
0.000748299
0.000749475
0.000750563
0.000751588
0.000752557
0.000753315
0.000753917
0.000754384
0.000754709
0.000754875
0.000754778
0.000754354
0.000754133
0.000753995
0.000754088
0.000753733
0.000752982
0.00075193
0.000749101
0.000743122
0.000738792
0.000743679
0.0007588
0.000780059
0.000807629
0.00083692
0.00086741
0.000897491
0.000926377
0.00095396
0.000980602
0.00100532
0.0010284
0.00105037
0.00107035
0.00108886
0.00110629
0.00112221
0.00113689
0.00115023
0.00116242
0.00117384
0.00118442
0.00119377
0.00120194
0.00120918
0.00121555
0.00122076
0.00122492
0.00122795
0.00123018
0.00123211
0.0012328
0.0012323
0.00123132
0.00122936
0.00122689
0.00122435
0.00122098
0.00121652
0.0012108
0.00120462
0.00119849
0.00119258
0.00118618
0.0011793
0.00117322
0.00116693
0.00116074
0.00115572
0.00115102
0.00114691
0.00114429
0.00114274
0.0011427
0.00114453
0.00114719
0.00115173
0.00115811
0.00116791
0.00117958
0.00119183
0.00120817
0.00122232
0.00121642
0.00116847
0.00105937
0.000906985
0.000748873
0.000593492
0.000450207
0.000305223
0.000175926
3.71139e-06
3.23114e-06
0.000749742
2.77545e-06
0.000748789
2.33445e-06
0.000748266
1.91464e-06
0.000748156
1.51826e-06
0.000748437
1.14354e-06
0.000749096
7.93008e-07
0.000750101
4.78526e-07
0.000751421
1.74532e-07
0.000753054
-9.9563e-08
0.000754949
-3.26309e-07
0.000757071
-5.47867e-07
0.000759429
-7.46874e-07
0.000761966
-8.99721e-07
0.000764613
-1.01672e-06
0.000767424
-1.14695e-06
0.000770331
-1.25036e-06
0.000773286
-1.30393e-06
0.000776254
-1.32063e-06
0.0007793
-1.34305e-06
0.000782329
-1.37079e-06
0.00078532
-1.35804e-06
0.000788226
-1.31119e-06
0.000791038
-1.272e-06
0.000793742
-1.21467e-06
0.0007964
-1.1444e-06
0.000798995
-1.04688e-06
0.000801466
-9.55019e-07
0.000803789
-8.53809e-07
0.000805992
-7.41551e-07
0.000808085
-6.20352e-07
0.000809899
-5.0252e-07
0.000811503
-3.65691e-07
0.00081291
-2.29245e-07
0.00081411
-8.7386e-08
0.000815108
7.20075e-08
0.000815736
1.97037e-07
0.000816086
3.55292e-07
0.00081655
5.28547e-07
0.000817125
6.63182e-07
0.000817801
7.18762e-07
0.000818089
9.78515e-07
0.000817734
2.77641e-06
0.000816907
6.0552e-06
0.000813475
4.14318e-06
0.000803344
-5.01097e-06
0.000795404
-1.50325e-05
0.000799218
-2.1074e-05
0.000816935
-2.76922e-05
0.000840925
-2.93848e-05
0.000870815
-3.00817e-05
0.00090146
-2.95504e-05
0.000932436
-2.88559e-05
0.000962641
-2.78375e-05
0.000990876
-2.63359e-05
0.00101689
-2.51017e-05
0.00104217
-2.3498e-05
0.00106565
-2.16304e-05
0.00108763
-1.99367e-05
0.00110881
-1.85733e-05
0.00112867
-1.73234e-05
0.00114713
-1.59538e-05
0.00116473
-1.46852e-05
0.00118078
-1.33674e-05
0.00119534
-1.21604e-05
0.00120858
-1.11812e-05
0.00122059
-1.02109e-05
0.00123161
-9.16825e-06
0.00124169
-8.19157e-06
0.00125067
-7.37853e-06
0.0012584
-6.46665e-06
0.001265
-5.30927e-06
0.00127047
-4.04496e-06
0.00127511
-2.94373e-06
0.00127932
-2.20082e-06
0.00128252
-1.8617e-06
0.00128464
-9.42532e-07
0.00128607
-1.07288e-07
0.00128561
4.51604e-07
0.0012838
1.70203e-06
0.00128156
2.58619e-06
0.00127849
2.83168e-06
0.00127489
3.63025e-06
0.00127152
4.34386e-06
0.00126703
5.50091e-06
0.00126096
6.01157e-06
0.00125401
6.03636e-06
0.00124686
6.02518e-06
0.00124012
6.662e-06
0.00123314
6.95964e-06
0.00122559
6.30501e-06
0.00121758
6.41062e-06
0.00121046
6.09789e-06
0.00120333
5.04559e-06
0.0011962
4.54163e-06
0.00119029
3.88454e-06
0.00118474
2.45567e-06
0.00117955
1.54617e-06
0.00117589
4.87318e-08
0.00117331
-1.46717e-06
0.00117262
-3.02328e-06
0.00117319
-4.8818e-06
0.00117419
-7.38004e-06
0.00117785
-9.78819e-06
0.00118348
-1.16263e-05
0.00119163
-1.16547e-05
0.00120126
-1.59795e-05
0.00121063
-1.38913e-05
0.00121798
6.08074e-06
0.0012169
4.93826e-05
0.00117288
0.000108175
0.00106911
0.000152244
0.000913101
0.000158172
0.000753319
0.000155509
0.0006205
0.000143482
0.000494986
0.000145225
0.000378488
0.000129531
0.000260018
0.000176131
0.00013932
5.11106e-06
4.18461e-06
0.000754436
3.29964e-06
0.000755733
2.44579e-06
0.000757433
1.63208e-06
0.000759519
8.63387e-07
0.000761973
1.38956e-07
0.000764778
-5.34883e-07
0.000767905
-1.14307e-06
0.000771326
-1.72007e-06
0.00077503
-2.23743e-06
0.000778969
-2.66183e-06
0.000783113
-3.07193e-06
0.000787455
-3.43217e-06
0.000791942
-3.70033e-06
0.000796514
-3.89466e-06
0.000801201
-4.10894e-06
0.000805944
-4.27458e-06
0.000810697
-4.33126e-06
0.000815431
-4.31113e-06
0.00082017
-4.30805e-06
0.000824845
-4.31474e-06
0.000829439
-4.23122e-06
0.00083391
-4.08728e-06
0.000838244
-3.94417e-06
0.000842372
-3.77736e-06
0.000846405
-3.57615e-06
0.00085034
-3.32401e-06
0.000854092
-3.08379e-06
0.00085764
-2.81877e-06
0.000861009
-2.53361e-06
0.000864201
-2.24308e-06
0.000867053
-1.95378e-06
0.000869652
-1.61386e-06
0.000871981
-1.27624e-06
0.000874067
-9.49145e-07
0.000875892
-6.16377e-07
0.000877311
-2.67957e-07
0.000878376
8.71487e-08
0.000879533
4.71432e-07
0.000880747
7.80876e-07
0.000882059
1.00293e-06
0.000882738
1.7253e-06
0.000882805
6.12735e-06
0.000882256
1.6299e-05
0.000877663
1.19294e-05
0.000861646
-8.97511e-06
0.000848946
-3.26971e-05
0.000852082
-4.49923e-05
0.00087118
-5.77267e-05
0.000899179
-5.995e-05
0.000931958
-6.07272e-05
0.000965908
-5.93316e-05
0.000999117
-5.69125e-05
0.00103063
-5.41735e-05
0.00105978
-5.13994e-05
0.00108612
-4.88486e-05
0.00111119
-4.60392e-05
0.00113557
-4.27213e-05
0.00115787
-3.97658e-05
0.00117858
-3.71798e-05
0.00119804
-3.46758e-05
0.0012159
-3.21109e-05
0.00123318
-2.94554e-05
0.00124921
-2.6662e-05
0.00126291
-2.43555e-05
0.00127544
-2.21593e-05
0.00128683
-2.00263e-05
0.00129708
-1.7925e-05
0.00130631
-1.59377e-05
0.00131466
-1.41821e-05
0.0013217
-1.21695e-05
0.00132744
-1.01862e-05
0.0013319
-8.34336e-06
0.0013355
-6.17362e-06
0.00133886
-4.22408e-06
0.00134126
-3.0436e-06
0.00134272
-7.78511e-07
0.00134363
1.02038e-06
0.00134272
2.06299e-06
0.00134008
4.39166e-06
0.00133664
6.16755e-06
0.00133238
6.41619e-06
0.00132748
8.31237e-06
0.00132227
1.03228e-05
0.00131645
1.22617e-05
0.00130953
1.29745e-05
0.00130162
1.26496e-05
0.00129338
1.30889e-05
0.00128547
1.441e-05
0.0012772
1.49806e-05
0.00126856
1.35597e-05
0.00125956
1.36212e-05
0.00125097
1.31091e-05
0.0012428
1.09021e-05
0.0012348
9.94008e-06
0.00122759
8.80199e-06
0.00122117
5.8938e-06
0.00121507
4.0492e-06
0.00121007
7.03736e-07
0.00120648
-1.90013e-06
0.00120484
-4.49072e-06
0.00120433
-8.81865e-06
0.00120372
-1.39158e-05
0.00120617
-1.77203e-05
0.00120958
-2.12857e-05
0.00121494
-2.05186e-05
0.0012207
-2.30624e-05
0.00122413
-1.26311e-05
0.00121069
5.05438e-05
0.00116247
0.000154084
0.00104719
0.000263312
0.000876087
0.000311904
0.000731346
0.000291099
0.000609512
0.000281207
0.00050347
0.000260184
0.000405076
0.000263905
0.000311373
0.000250457
0.000213818
0.000315678
0.000111775
4.22961e-06
2.88676e-06
0.000760309
1.60124e-06
0.000763825
3.60514e-07
0.000767714
-8.21879e-07
0.000771965
-1.93919e-06
0.000776562
-2.98839e-06
0.000781483
-3.95883e-06
0.000786705
-4.83987e-06
0.0007922
-5.6615e-06
0.000797946
-6.38897e-06
0.000803904
-6.99026e-06
0.000810044
-7.54854e-06
0.000816342
-8.03099e-06
0.000822755
-8.37827e-06
0.000829231
-8.61893e-06
0.000835768
-8.87114e-06
0.000842321
-9.04925e-06
0.000848857
-9.0549e-06
0.000855332
-8.96048e-06
0.000861742
-8.88496e-06
0.000868035
-8.80571e-06
0.000874224
-8.59671e-06
0.000880248
-8.31825e-06
0.000886088
-8.01022e-06
0.000891606
-7.67058e-06
0.000897002
-7.27723e-06
0.000902261
-6.81908e-06
0.000907276
-6.37403e-06
0.000912034
-5.8892e-06
0.000916573
-5.37948e-06
0.000920818
-4.86672e-06
0.000924693
-4.3331e-06
0.000928261
-3.75368e-06
0.000931513
-3.16246e-06
0.000934479
-2.5998e-06
0.000937121
-2.03698e-06
0.000939334
-1.41556e-06
0.000941141
-8.03803e-07
0.000943015
-1.25096e-07
0.000944785
5.01763e-07
0.00094653
9.12768e-07
0.000947739
2.23019e-06
0.000948069
1.05788e-05
0.000947659
3.24971e-05
0.000942444
2.45211e-05
0.00091778
-1.2224e-05
0.000904889
-5.17619e-05
0.00090804
-7.32686e-05
0.000929895
-9.07185e-05
0.000961565
-9.34948e-05
0.00099751
-9.35233e-05
0.0010356
-9.0644e-05
0.00107166
-8.56472e-05
0.00110552
-8.1046e-05
0.00113713
-7.70484e-05
0.00116598
-7.26201e-05
0.00119223
-6.8705e-05
0.00121824
-6.37306e-05
0.00124136
-5.93252e-05
0.00126119
-5.54276e-05
0.00128053
-5.13796e-05
0.00129743
-4.76821e-05
0.0013133
-4.36309e-05
0.00132851
-3.95277e-05
0.00134093
-3.60958e-05
0.00135229
-3.27807e-05
0.00136246
-2.92879e-05
0.0013713
-2.61561e-05
0.00137919
-2.30062e-05
0.00138639
-2.01371e-05
0.00139258
-1.691e-05
0.00139739
-1.40978e-05
0.00140087
-1.1908e-05
0.00140357
-8.65739e-06
0.00140585
-5.55576e-06
0.00140722
-3.60934e-06
0.00140751
4.67961e-09
0.00140719
3.00752e-06
0.00140539
4.76397e-06
0.00140178
8.03473e-06
0.00139719
1.06784e-05
0.00139168
1.16263e-05
0.00138541
1.41689e-05
0.00137854
1.72576e-05
0.00137099
2.01305e-05
0.00136294
2.11191e-05
0.00135412
2.04761e-05
0.00134479
2.1438e-05
0.00133547
2.31945e-05
0.00132579
2.39458e-05
0.0013157
2.22414e-05
0.00130569
2.18709e-05
0.00129586
2.09675e-05
0.00128642
1.80464e-05
0.00127721
1.62448e-05
0.00126869
1.46218e-05
0.00126106
1.06762e-05
0.00125377
7.53068e-06
0.00124756
2.413e-06
0.00124267
-1.26151e-06
0.00123952
-4.42673e-06
0.00123763
-1.15414e-05
0.00123542
-1.79762e-05
0.0012361
-2.24658e-05
0.00123682
-2.72328e-05
0.00123738
-2.32783e-05
0.00123251
-9.69575e-06
0.00121371
3.55733e-05
0.00114907
0.000166623
0.00100641
0.000325667
0.000819872
0.000407776
0.00068086
0.000433711
0.000574905
0.000397303
0.000492222
0.000379854
0.000411559
0.000354123
0.00033185
0.000361676
0.000254635
0.000352724
0.000172789
0.00042768
8.60322e-05
1.09981e-06
-6.27183e-07
0.000767363
-2.28787e-06
0.000773059
-3.89015e-06
0.000779104
-5.41756e-06
0.000785486
-6.85999e-06
0.00079219
-8.21023e-06
0.000799195
-9.45375e-06
0.000806482
-1.05847e-05
0.00081402
-1.16205e-05
0.000821776
-1.25291e-05
0.000829726
-1.32829e-05
0.000837835
-1.39556e-05
0.000846057
-1.45208e-05
0.000854366
-1.49065e-05
0.000862722
-1.517e-05
0.000871087
-1.54124e-05
0.000879418
-1.55392e-05
0.000887712
-1.54521e-05
0.000895903
-1.52599e-05
0.00090397
-1.50601e-05
0.000911847
-1.48172e-05
0.000919613
-1.44307e-05
0.000927169
-1.39817e-05
0.000934477
-1.3454e-05
0.000941371
-1.28761e-05
0.000948113
-1.22296e-05
0.000954681
-1.15161e-05
0.000960946
-1.08077e-05
0.000966908
-1.00427e-05
0.000972566
-9.26033e-06
0.000977834
-8.46277e-06
0.000982724
-7.64057e-06
0.000987246
-6.78411e-06
0.000991423
-5.89112e-06
0.000995264
-5.03057e-06
0.00099874
-4.14027e-06
0.00100177
-3.23722e-06
0.00100439
-2.26702e-06
0.00100697
-1.30304e-06
0.00100924
-2.82646e-07
0.0010113
5.67832e-07
0.00101307
2.49115e-06
0.0010138
1.56278e-05
0.00101352
5.74338e-05
0.00100784
3.73567e-05
0.000977641
-1.55251e-05
0.000962625
-7.36562e-05
0.000968835
-0.000105395
0.000994663
-0.000126864
0.00103397
-0.000130999
0.00107559
-0.000129483
0.00112008
-0.000124696
0.00116026
-0.000116624
0.00119597
-0.000110323
0.00122981
-0.000104288
0.0012609
-9.71319e-05
0.00128817
-9.1787e-05
0.00131562
-8.45084e-05
0.00133954
-7.83161e-05
0.00135918
-7.28825e-05
0.00137914
-6.67653e-05
0.00139523
-6.22437e-05
0.00141021
-5.66692e-05
0.00142416
-5.11721e-05
0.00143461
-4.65545e-05
0.00144525
-4.23431e-05
0.00145443
-3.77563e-05
0.00146184
-3.35598e-05
0.00146803
-2.93814e-05
0.00147347
-2.52867e-05
0.00147817
-2.07694e-05
0.00148178
-1.71714e-05
0.00148422
-1.43567e-05
0.0014854
-1.00574e-05
0.001486
-5.69533e-06
0.00148566
-2.88281e-06
0.00148439
1.81692e-06
0.00148243
6.02606e-06
0.00147912
8.67766e-06
0.00147425
1.28694e-05
0.00146834
1.63552e-05
0.00146137
1.82722e-05
0.00145345
2.15933e-05
0.00144467
2.53391e-05
0.00143532
2.90352e-05
0.00142553
3.04537e-05
0.00141526
2.97565e-05
0.00140442
3.11666e-05
0.00139329
3.33954e-05
0.0013819
3.39282e-05
0.0013703
3.21014e-05
0.00135873
3.13714e-05
0.00134726
2.99936e-05
0.00133631
2.64571e-05
0.00132558
2.38098e-05
0.00131549
2.15428e-05
0.00130634
1.66433e-05
0.00129748
1.23087e-05
0.00128983
5.68987e-06
0.00128366
6.39923e-07
0.00127882
-2.53355e-06
0.00127549
-1.24761e-05
0.00127187
-1.93166e-05
0.00126926
-2.16246e-05
0.0012649
-2.28303e-05
0.00125373
-3.88231e-06
0.00121835
5.45299e-05
0.00113929
0.000178176
0.000975565
0.000353733
0.000766315
0.000465115
0.0006238
0.000513773
0.000525311
0.000516341
0.000450444
0.00047807
0.000392097
0.000459819
0.000332173
0.000431623
0.000272544
0.000443771
0.00020903
0.000439704
0.000141451
0.000513892
6.85699e-05
-4.23985e-06
-6.32313e-06
0.000775601
-8.33228e-06
0.000783438
-1.0272e-05
0.000791599
-1.21207e-05
0.000800075
-1.3866e-05
0.000808849
-1.5495e-05
0.000817902
-1.69889e-05
0.000827216
-1.83453e-05
0.000836762
-1.95674e-05
0.000846495
-2.06304e-05
0.000856404
-2.15096e-05
0.000866449
-2.22645e-05
0.000876564
-2.28771e-05
0.000886742
-2.32669e-05
0.000896943
-2.35165e-05
0.000907108
-2.36973e-05
0.000917187
-2.37189e-05
0.000927217
-2.35207e-05
0.000937095
-2.31882e-05
0.000946776
-2.28068e-05
0.000956221
-2.23276e-05
0.000965537
-2.17158e-05
0.000974594
-2.10338e-05
0.000983336
-2.02578e-05
0.000991602
-1.9385e-05
0.00099968
-1.8423e-05
0.00100753
-1.74061e-05
0.00101502
-1.63574e-05
0.00102216
-1.52569e-05
0.00102887
-1.41546e-05
0.00103516
-1.30294e-05
0.00104103
-1.18804e-05
0.00104654
-1.06873e-05
0.00105165
-9.44577e-06
0.00105638
-8.21675e-06
0.00106071
-6.96529e-06
0.00106458
-5.70897e-06
0.00106802
-4.34801e-06
0.00107112
-3.00175e-06
0.00107379
-1.5993e-06
0.00107624
-1.53232e-07
0.00107851
2.57668e-06
0.00107991
2.10232e-05
0.00108027
8.78768e-05
0.00107595
5.24847e-05
0.00105131
-2.1729e-05
0.00103251
-9.95147e-05
0.00104449
-0.000145285
0.00108028
-0.000168647
0.00112807
-0.000174801
0.00117598
-0.000169734
0.00122669
-0.000161252
0.00127264
-0.000149802
0.00131152
-0.000142029
0.00135036
-0.000133125
0.00138493
-0.000122796
0.00141212
-0.000115401
0.00144066
-0.000105346
0.00146404
-9.71312e-05
0.00148331
-8.98718e-05
0.00150404
-8.14543e-05
0.00151847
-7.5664e-05
0.00153268
-6.85875e-05
0.00154546
-6.19179e-05
0.00155298
-5.57125e-05
0.00156187
-5.01399e-05
0.00156937
-4.47768e-05
0.00157557
-3.96377e-05
0.00158028
-3.43761e-05
0.00158373
-2.91929e-05
0.00158624
-2.34722e-05
0.00158774
-1.87767e-05
0.00158813
-1.5208e-05
0.00158754
-9.7331e-06
0.00158557
-4.33122e-06
0.00158293
-4.91436e-07
0.00157924
5.23132e-06
0.00157445
1.05415e-05
0.00156859
1.41541e-05
0.00156193
1.93431e-05
0.00155351
2.37586e-05
0.00154437
2.67335e-05
0.00153422
3.07874e-05
0.00152287
3.51452e-05
0.00151104
3.94542e-05
0.0014988
4.1363e-05
0.00148628
4.09056e-05
0.00147357
4.26859e-05
0.00146011
4.50982e-05
0.00144664
4.55694e-05
0.00143338
4.36597e-05
0.0014197
4.23542e-05
0.00140619
4.05091e-05
0.00139341
3.64654e-05
0.00138038
3.29497e-05
0.00136848
2.9927e-05
0.00135738
2.40291e-05
0.00134636
1.8391e-05
0.00133786
1.10258e-05
0.00133026
3.92773e-06
0.00132293
1.02218e-06
0.00131642
-9.90329e-06
0.00130924
-1.54366e-05
0.00129766
-8.51072e-06
0.00127718
1.23342e-05
0.0012325
7.50359e-05
0.00113209
0.000217858
0.000943188
0.000387512
0.000731094
0.000496442
0.000581598
0.000563769
0.000482356
0.000588685
0.000412929
0.000574683
0.000361312
0.000538089
0.000317465
0.000519639
0.000270046
0.000495391
0.000223568
0.000511584
0.000172379
0.000512775
0.000116887
0.00058263
5.55797e-05
-1.17483e-05
-1.41601e-05
0.000785029
-1.64933e-05
0.000794963
-1.87475e-05
0.000805197
-2.08942e-05
0.000815723
-2.29205e-05
0.000826528
-2.48064e-05
0.000837588
-2.65299e-05
0.00084889
-2.80859e-05
0.000860406
-2.94712e-05
0.00087208
-3.06603e-05
0.00088391
-3.16374e-05
0.000895853
-3.24455e-05
0.000907828
-3.30645e-05
0.000919843
-3.34351e-05
0.000931848
-3.36297e-05
0.000943776
-3.37002e-05
0.000955578
-3.35575e-05
0.000967309
-3.32253e-05
0.000978848
-3.2715e-05
0.000990106
-3.2088e-05
0.0010011
-3.13122e-05
0.00101193
-3.04334e-05
0.00102244
-2.94652e-05
0.00103259
-2.84015e-05
0.00104224
-2.71753e-05
0.00105164
-2.58406e-05
0.00106073
-2.44333e-05
0.00106942
-2.30044e-05
0.00107767
-2.15335e-05
0.0010854
-2.00553e-05
0.00109268
-1.85736e-05
0.00109959
-1.70289e-05
0.00110609
-1.54426e-05
0.00111213
-1.38123e-05
0.00111775
-1.21751e-05
0.00112294
-1.05048e-05
0.00112763
-8.80983e-06
0.00113183
-7.02138e-06
0.0011354
-5.23837e-06
0.00113851
-3.46762e-06
0.00114147
-1.35906e-06
0.00114428
2.03341e-06
0.00114655
2.50705e-05
0.00114781
0.000112814
0.001148
7.16278e-05
0.00114072
-3.37529e-05
0.00112329
-0.000135327
0.0011533
-0.000193566
0.00120233
-0.000216696
0.00126152
-0.000224606
0.00132571
-0.000216208
0.00138359
-0.000202124
0.00143259
-0.000187063
0.00147117
-0.000177735
0.00151381
-0.000162834
0.00154541
-0.000149851
0.00156834
-0.000139298
0.00159412
-0.000125578
0.00161146
-0.000115693
0.00162897
-0.000105684
0.00164708
-9.54887e-05
0.00165712
-8.75425e-05
0.00166967
-7.86802e-05
0.00167817
-7.12321e-05
0.00168186
-6.34909e-05
0.00168803
-5.62025e-05
0.00169285
-4.96951e-05
0.00169721
-4.36548e-05
0.00169965
-3.7467e-05
0.00170058
-3.12786e-05
0.00170049
-2.44429e-05
0.00169968
-1.86261e-05
0.00169843
-1.36084e-05
0.00169554
-7.11652e-06
0.00169103
-7.19407e-07
0.00168579
4.57056e-06
0.00167943
1.11905e-05
0.0016721
1.72862e-05
0.00166387
2.23914e-05
0.00165482
2.81275e-05
0.00164421
3.35161e-05
0.00163261
3.77314e-05
0.00162004
4.23709e-05
0.00160643
4.72168e-05
0.00159222
5.19982e-05
0.00157752
5.42542e-05
0.00156312
5.44404e-05
0.00154813
5.63089e-05
0.00153225
5.85146e-05
0.00151657
5.93583e-05
0.0015012
5.72955e-05
0.00148525
5.51135e-05
0.00146968
5.33036e-05
0.00145452
4.83284e-05
0.00143942
4.40589e-05
0.00142549
4.05525e-05
0.0014124
3.23366e-05
0.00139924
2.57591e-05
0.00138835
1.91703e-05
0.00137766
1.05355e-05
0.0013663
7.87183e-06
0.00135394
1.69083e-06
0.0013375
4.45833e-06
0.00130149
3.84555e-05
0.0012401
0.000113012
0.00112127
0.000263579
0.00090977
0.000429686
0.000698711
0.00053695
0.00055498
0.000595645
0.000454853
0.000633265
0.000381446
0.000640415
0.00032897
0.000618669
0.000291409
0.000585708
0.000259357
0.000566339
0.000221377
0.000546796
0.000184561
0.000567301
0.000142117
0.000574262
9.55028e-05
0.000638397
4.42059e-05
-2.13802e-05
-2.40938e-05
0.000795654
-2.67277e-05
0.000807636
-2.92732e-05
0.000819896
-3.16976e-05
0.000832427
-3.39839e-05
0.000845217
-3.61065e-05
0.000858242
-3.80398e-05
0.000871489
-3.97712e-05
0.000884932
-4.12953e-05
0.000898507
-4.25829e-05
0.000912216
-4.36329e-05
0.000926016
-4.4461e-05
0.000939815
-4.50457e-05
0.000953627
-4.53726e-05
0.000967401
-4.54804e-05
0.000981047
-4.53948e-05
0.000994545
-4.50415e-05
0.00100793
-4.45225e-05
0.00102109
-4.37952e-05
0.0010339
-4.28748e-05
0.00104643
-4.17541e-05
0.00105874
-4.05541e-05
0.00107066
-3.92561e-05
0.00108217
-3.78489e-05
0.00109322
-3.62137e-05
0.00110392
-3.44544e-05
0.00111421
-3.26132e-05
0.00112404
-3.0744e-05
0.00113336
-2.88766e-05
0.00114205
-2.69802e-05
0.0011504
-2.5046e-05
0.00115832
-2.30467e-05
0.00116578
-2.10215e-05
0.00117274
-1.89635e-05
0.00117926
-1.68845e-05
0.00118533
-1.47578e-05
0.00119078
-1.26336e-05
0.00119563
-1.03136e-05
0.00119946
-8.13465e-06
0.00120316
-5.97294e-06
0.00120684
-3.34462e-06
0.00121016
6.95034e-07
0.00121327
2.46575e-05
0.00121597
0.000120933
0.00122382
8.93782e-05
0.00124226
-6.4338e-05
0.00124152
-0.000185493
0.00130581
-0.00025303
0.00138902
-0.000281112
0.00146608
-0.000281106
0.00152924
-0.000266782
0.00158116
-0.000243074
0.00161914
-0.000225996
0.00164978
-0.000211063
0.00168732
-0.000188737
0.00170855
-0.000174396
0.00172555
-0.000158552
0.00174668
-0.000142773
0.00175484
-0.000130627
0.00176884
-0.00011768
0.00178228
-0.000106519
0.0017851
-9.60118e-05
0.00179333
-8.59236e-05
0.00179774
-7.69375e-05
0.00179768
-6.82867e-05
0.00180054
-6.0242e-05
0.00180169
-5.28297e-05
0.00180281
-4.58089e-05
0.00180289
-3.84352e-05
0.00180203
-3.10315e-05
0.00179985
-2.31576e-05
0.0017969
-1.59235e-05
0.00179308
-9.5398e-06
0.0017879
-2.10144e-06
0.00178125
5.25999e-06
0.00177383
1.18642e-05
0.00176561
1.93376e-05
0.00175642
2.65294e-05
0.00174636
3.29507e-05
0.00173525
3.95264e-05
0.00172273
4.57463e-05
0.00170937
5.09689e-05
0.00169476
5.62648e-05
0.0016794
6.16097e-05
0.00166365
6.63987e-05
0.00164738
6.94717e-05
0.00163144
7.04614e-05
0.00161468
7.21817e-05
0.0015969
7.40942e-05
0.00157946
7.53732e-05
0.00156234
7.30288e-05
0.0015448
7.02196e-05
0.00152761
6.81734e-05
0.0015107
6.22444e-05
0.00149376
5.70051e-05
0.00147808
5.35823e-05
0.00146269
4.33469e-05
0.00144718
3.56023e-05
0.00143211
3.18463e-05
0.0014161
2.27883e-05
0.00139672
2.32252e-05
0.00136833
3.8035e-05
0.00132614
6.56925e-05
0.00124197
0.000159074
0.00109403
0.000324913
0.000866527
0.000474417
0.00066732
0.0005732
0.000527642
0.00063695
0.000428128
0.000669005
0.000359146
0.00068577
0.000307232
0.000678052
0.000270157
0.000650862
0.000241971
0.000623851
0.000214983
0.000603295
0.000183955
0.000589382
0.000152866
0.000614054
0.000116569
0.000625668
7.79712e-05
0.000682784
3.54617e-05
-3.30856e-05
-3.60754e-05
0.000807486
-3.89869e-05
0.000821464
-4.18027e-05
0.000835697
-4.44865e-05
0.000850182
-4.7013e-05
0.000864909
-4.9352e-05
0.000879852
-5.14743e-05
0.000894997
-5.33609e-05
0.000910319
-5.49986e-05
0.00092575
-5.6359e-05
0.000941296
-5.74559e-05
0.000956907
-5.8274e-05
0.000972486
-5.87858e-05
0.000988059
-5.90361e-05
0.00100356
-5.90217e-05
0.00101888
-5.8733e-05
0.00103405
-5.81541e-05
0.00104905
-5.7389e-05
0.00106377
-5.64086e-05
0.0010781
-5.5132e-05
0.00109214
-5.36339e-05
0.00110587
-5.20442e-05
0.00111917
-5.03739e-05
0.00113202
-4.85588e-05
0.00114446
-4.64762e-05
0.00115643
-4.42321e-05
0.00116791
-4.19339e-05
0.00117884
-3.95515e-05
0.00118912
-3.72503e-05
0.00119882
-3.48772e-05
0.00120822
-3.24277e-05
0.00121713
-2.99215e-05
0.00122551
-2.74033e-05
0.00123337
-2.48876e-05
0.00124078
-2.23116e-05
0.00124766
-1.97134e-05
0.00125381
-1.70956e-05
0.00125923
-1.43353e-05
0.0012634
-1.17602e-05
0.00126781
-9.05841e-06
0.00127203
-6.19213e-06
0.00127602
-1.91588e-06
0.00127997
1.67988e-05
0.00128461
0.000103784
0.00129957
9.05478e-05
0.00139026
-0.000129535
0.00146663
-0.000270366
0.00157229
-0.000331112
0.0016427
-0.000344324
0.00168335
-0.000331565
0.00171221
-0.000307505
0.001744
-0.000275964
0.00177393
-0.000257179
0.00180306
-0.000234332
0.00183132
-0.000208944
0.00184184
-0.000192089
0.00185766
-0.000171476
0.00187445
-0.000154983
0.00187284
-0.00013984
0.00188417
-0.000124487
0.00189509
-0.000112125
0.00189202
-9.99713e-05
0.0018969
-8.90522e-05
0.00189738
-7.93807e-05
0.0018945
-7.03927e-05
0.00189526
-6.16936e-05
0.00189385
-5.34368e-05
0.00189311
-4.5082e-05
0.00189171
-3.63038e-05
0.00188917
-2.81662e-05
0.00188498
-1.95471e-05
0.00187956
-1.13855e-05
0.00187348
-3.52124e-06
0.00186618
4.81755e-06
0.00185807
1.3388e-05
0.0018493
2.13284e-05
0.00183949
2.9609e-05
0.00182866
3.77481e-05
0.00181655
4.52939e-05
0.00180357
5.26898e-05
0.00178942
6.00127e-05
0.0017746
6.60737e-05
0.00175856
7.18099e-05
0.00174217
7.75963e-05
0.00172528
8.24414e-05
0.00170771
8.64403e-05
0.00169
8.83456e-05
0.0016719
8.98424e-05
0.0016527
9.14038e-05
0.00163368
9.28736e-05
0.00161512
9.03183e-05
0.00159605
8.701e-05
0.00157751
8.48588e-05
0.00155879
7.78753e-05
0.00154005
7.21828e-05
0.00152201
6.91945e-05
0.00150355
5.85464e-05
0.00148417
5.05289e-05
0.00145984
5.31345e-05
0.00143108
5.11501e-05
0.00139553
6.45101e-05
0.00132986
0.000123678
0.00122435
0.000213135
0.00104742
0.000386849
0.000808431
0.000523937
0.000630256
0.000613958
0.000502214
0.000672617
0.000407966
0.000705884
0.000341156
0.000720914
0.000289293
0.00072289
0.000251335
0.000706343
0.000224661
0.000678021
0.000201905
0.000655091
0.000178387
0.000634564
0.00015346
0.000625843
0.000126676
0.000652829
9.50693e-05
0.000668364
6.29829e-05
0.000718508
2.78629e-05
-4.68102e-05
-5.00524e-05
0.000820536
-5.32194e-05
0.000836452
-5.62866e-05
0.000852604
-5.92124e-05
0.000868989
-6.19602e-05
0.000885599
-6.44957e-05
0.000902407
-6.67861e-05
0.000919399
-6.88088e-05
0.000936549
-7.05368e-05
0.00095379
-7.19502e-05
0.000971121
-7.30619e-05
0.000988492
-7.38421e-05
0.00100581
-7.42518e-05
0.00102309
-7.43906e-05
0.00104027
-7.4224e-05
0.00105723
-7.36666e-05
0.00107402
-7.28388e-05
0.00109058
-7.17999e-05
0.00110682
-7.05028e-05
0.00112267
-6.88228e-05
0.00113818
-6.6925e-05
0.0011533
-6.48967e-05
0.0011679
-6.2787e-05
0.00118208
-6.04792e-05
0.00119583
-5.79256e-05
0.0012091
-5.51792e-05
0.00122176
-5.23433e-05
0.00123378
-4.94508e-05
0.00124483
-4.66077e-05
0.00125564
-4.36939e-05
0.00126606
-4.06918e-05
0.00127592
-3.76347e-05
0.00128521
-3.45873e-05
0.00129394
-3.15422e-05
0.00130218
-2.84313e-05
0.00130981
-2.53544e-05
0.0013166
-2.21976e-05
0.00132254
-1.90777e-05
0.00132747
-1.60335e-05
0.00133256
-1.29601e-05
0.00133733
-9.99714e-06
0.00134167
-6.41599e-06
0.00134554
1.93514e-06
0.00135032
1.36463e-05
0.00136349
1.61039e-05
0.00142135
-0.000236083
0.00171062
-0.000342485
0.00184775
-0.000373854
0.00187595
-0.000373485
0.00187748
-0.000362904
0.00188499
-0.000339171
0.00189661
-0.000306186
0.00191109
-0.000278754
0.00193264
-0.000248902
0.00194983
-0.000224705
0.00195154
-0.000204525
0.00196959
-0.000179978
0.00197991
-0.000161767
0.00197352
-0.000144294
0.00198499
-0.000128186
0.0019896
-0.000114189
0.00198236
-0.000101182
0.0019844
-8.94293e-05
0.00198082
-7.97653e-05
0.00197809
-6.94012e-05
0.00197756
-6.00138e-05
0.00197379
-5.06698e-05
0.00197132
-4.154e-05
0.00196772
-3.23535e-05
0.00196307
-2.36284e-05
0.00195744
-1.41775e-05
0.00195024
-4.82986e-06
0.001943
4.40156e-06
0.00193459
1.3866e-05
0.00192538
2.36009e-05
0.0019152
3.2494e-05
0.00190401
4.1478e-05
0.00189146
5.05436e-05
0.00187736
5.9129e-05
0.00186273
6.73708e-05
0.00184748
7.5857e-05
0.00183145
8.2422e-05
0.00181422
8.86237e-05
0.00179673
9.49396e-05
0.00177859
0.000100232
0.00175975
0.000104636
0.00174095
0.000107578
0.00172143
0.000108917
0.00170107
0.000110054
0.00168116
0.000111931
0.00166106
0.00010898
0.00164066
0.000105683
0.00162007
0.000103355
0.00159917
9.60328e-05
0.00157736
9.04446e-05
0.00155264
8.86265e-05
0.00152774
8.30689e-05
0.0014994
7.83378e-05
0.00145603
9.21056e-05
0.00139898
0.000116229
0.00131942
0.00016941
0.0011792
0.00030212
0.000966512
0.000451735
0.000747395
0.000564876
0.000584905
0.000651694
0.000463508
0.000708058
0.000379202
0.000739401
0.000318516
0.000757821
0.000273481
0.00075895
0.000238781
0.000749651
0.000211025
0.000729221
0.000190119
0.000701716
0.000170026
0.000680239
0.000149409
0.000661512
0.00012816
0.000657572
0.000104558
0.000685103
7.72283e-05
0.000703738
5.05648e-05
0.000746717
2.19756e-05
-6.24951e-05
-6.5968e-05
0.000834817
-6.93713e-05
0.00085261
-7.26712e-05
0.00087062
-7.5821e-05
0.000888846
-7.87734e-05
0.00090728
-8.1485e-05
0.000925899
-8.39264e-05
0.000944682
-8.6065e-05
0.000963603
-8.7859e-05
0.000982604
-8.93046e-05
0.00100166
-9.04047e-05
0.00102074
-9.11102e-05
0.00103976
-9.14063e-05
0.00105869
-9.13971e-05
0.00107749
-9.10215e-05
0.00109606
-9.01865e-05
0.00111442
-8.9069e-05
0.00113249
-8.77028e-05
0.0011502
-8.60226e-05
0.00116755
-8.39186e-05
0.00118447
-8.15768e-05
0.00120093
-7.90876e-05
0.00121679
-7.64495e-05
0.00123227
-7.36066e-05
0.00124729
-7.05077e-05
0.00126177
-6.72479e-05
0.00127563
-6.38329e-05
0.00128871
-6.03936e-05
0.0013006
-5.69233e-05
0.00131242
-5.3397e-05
0.00132378
-4.98148e-05
0.00133456
-4.61789e-05
0.00134474
-4.25563e-05
0.00135431
-3.89026e-05
0.00136338
-3.52365e-05
0.00137161
-3.1595e-05
0.00137888
-2.79565e-05
0.00138529
-2.44421e-05
0.00139102
-2.08957e-05
0.00139672
-1.73774e-05
0.00140198
-1.40057e-05
0.00140651
-1.11294e-05
0.00141048
-1.11264e-05
0.00141583
-4.41416e-05
0.00143052
-0.000272442
0.00150111
-0.000373313
0.00178694
-0.000372854
0.00194143
-0.000376811
0.00198061
-0.000381129
0.00198197
-0.000374559
0.00199474
-0.000353845
0.00200153
-0.00032629
0.00200939
-0.000293175
0.00202495
-0.000257955
0.00203867
-0.000235763
0.00204008
-0.000211362
0.00206
-0.00018354
0.00206153
-0.000164614
0.0020595
-0.000144852
0.00206688
-0.000128987
0.00206105
-0.000114394
0.00206212
-0.000100885
0.00206243
-8.78705e-05
0.00205587
-7.7126e-05
0.00205285
-6.50976e-05
0.00204918
-5.59159e-05
0.00204492
-4.61005e-05
0.00204074
-3.68676e-05
0.00203628
-2.7518e-05
0.00203093
-1.75772e-05
0.00202413
-7.07039e-06
0.00201604
3.68316e-06
0.00200754
1.4122e-05
0.00199771
2.45028e-05
0.00198725
3.49869e-05
0.00197571
4.4899e-05
0.00196308
5.47597e-05
0.00194915
6.49251e-05
0.00193378
7.4388e-05
0.00191781
8.34654e-05
0.00190143
9.2996e-05
0.00188397
9.9977e-05
0.00186575
0.000106682
0.00184693
0.000113485
0.00182767
0.000119297
0.00180753
0.000124141
0.00178729
0.000127885
0.00176623
0.000128847
0.0017439
0.000130287
0.00172128
0.000132337
0.00169871
0.000129969
0.00167506
0.000126794
0.00164975
0.000124817
0.00162453
0.000121292
0.00159675
0.00011532
0.0015605
0.000116525
0.00152012
0.000126576
0.00146646
0.000135156
0.00138329
0.000174971
0.0012624
0.000255651
0.00108662
0.000382057
0.000862963
0.000521724
0.000675421
0.000613889
0.000536722
0.000686181