/*--------------------------------*- C++ -*----------------------------------*\
| =========                 |                                                 |
| \\      /  F ield         | OpenFOAM: The Open Source CFD Toolbox           |
|  \\    /   O peration     | Version:  2.2.x                                 |
|   \\  /    A nd           | Web:      www.OpenFOAM.org                      |
|    \\/     M anipulation  |                                                 |
\*---------------------------------------------------------------------------*/
FoamFile
{
    version     2.0;
    format      ascii;
    class       volVectorField;
    location    "1.35";
    object      U;
}
// * * * * * * * * * * * * * * * * * * * * * * * * * * * * * * * * * * * * * //

dimensions      [0 1 -1 0 0 0 0];

internalField   nonuniform List<vector> 
14161
(
(1.51559 0.0282476 -9.08909e-14)
(1.50558 0.0209289 7.94327e-15)
(1.50352 0.00444044 4.36569e-13)
(1.50056 -0.00348339 3.25441e-13)
(1.50044 -0.00463242 4.96374e-13)
(1.50167 -0.00426339 5.14753e-13)
(1.50427 -0.00244013 4.94015e-13)
(1.50636 -5.31031e-05 4.64616e-13)
(1.50903 0.00393583 5.04448e-13)
(1.51263 0.00965708 4.59557e-13)
(1.51362 0.0127808 4.89427e-13)
(1.51311 0.0120972 6.31812e-13)
(1.51318 0.0114748 1.9398e-13)
(1.51138 0.00874905 1.2673e-12)
(1.51079 0.00532481 1.56775e-12)
(1.50856 0.00115864 -6.82088e-12)
(1.50823 -0.00353096 1.38422e-11)
(1.51005 -0.00587534 -1.93292e-12)
(1.51135 -0.00571617 -8.45099e-12)
(1.51232 -0.00458814 -6.69732e-12)
(1.51521 -0.00367652 3.24504e-12)
(1.51761 -0.000976341 9.33762e-12)
(1.51984 0.00187455 7.75171e-12)
(1.52034 0.00474292 -6.17711e-12)
(1.51984 0.0062318 -8.28285e-12)
(1.5193 0.00677061 -6.05002e-12)
(1.51938 0.0064104 3.2755e-13)
(1.52035 0.00551405 5.28676e-12)
(1.51951 0.00450853 8.70305e-12)
(1.51967 0.00367569 8.64852e-12)
(1.51866 0.00251193 -1.29422e-11)
(1.51742 0.00150173 1.4752e-11)
(1.51685 0.000526072 -3.78336e-11)
(1.51632 5.53492e-05 6.23049e-11)
(1.51521 -0.000273885 -1.71044e-10)
(1.51369 -0.000954726 2.47114e-10)
(1.51282 -0.0014779 -2.59757e-10)
(1.5126 -0.00169329 2.90852e-10)
(1.51212 -0.00168234 -3.2305e-10)
(1.51282 -0.00189612 6.70692e-10)
(1.51421 -0.00191252 -8.23492e-10)
(1.518 -0.00155634 9.9154e-10)
(1.53462 -0.00318276 2.62495e-09)
(1.53928 -0.00451303 8.51622e-08)
(1.58899 -0.053288 7.70081e-07)
(1.51848 -0.209825 2.40225e-06)
(0.861073 -0.0396651 2.22744e-06)
(0.879287 0.0363807 2.0629e-06)
(0.889086 0.041665 9.48957e-07)
(0.895768 0.0435779 6.73896e-07)
(0.902864 0.0450487 -4.90429e-07)
(0.902197 0.0450361 -1.55444e-06)
(0.899365 0.0440657 -2.46578e-06)
(0.893204 0.042703 -3.17672e-06)
(0.885136 0.0406023 -3.6659e-06)
(0.877492 0.0396315 -3.753e-06)
(0.869222 0.0366563 -3.6996e-06)
(0.864033 0.0332421 -3.1813e-06)
(0.858541 0.0316951 -2.3482e-06)
(0.851206 0.0308509 -1.97748e-06)
(0.843538 0.028366 -3.0372e-06)
(0.836678 0.0248781 -1.0915e-06)
(0.830614 0.021181 -4.37255e-07)
(0.825038 0.0197224 -4.30611e-06)
(0.818771 0.0181314 -3.35758e-06)
(0.814875 0.0149394 8.9278e-07)
(0.811416 0.0116878 1.44947e-06)
(0.808635 0.0086559 -9.43321e-07)
(0.806164 0.0083143 -1.6779e-06)
(0.803438 0.00826895 -2.56248e-07)
(0.802385 0.00615017 1.1524e-06)
(0.801935 0.00479364 -1.32103e-06)
(0.802975 0.00342055 -2.13889e-06)
(0.804855 0.0024495 2.83474e-07)
(0.808242 0.00151034 -3.65536e-07)
(0.812933 0.000861283 3.42939e-06)
(0.819696 0.000233405 7.68045e-06)
(0.828427 -0.000728199 1.98486e-06)
(0.837804 -0.00121473 -1.54862e-05)
(0.848566 -0.000340261 -1.09203e-05)
(0.861943 -0.000425892 8.75185e-07)
(0.874559 0.000576516 2.08634e-05)
(0.882863 0.000512551 1.99111e-05)
(0.890472 0.00155255 5.20857e-06)
(0.897512 0.00370272 -3.68924e-06)
(0.900424 0.0076712 -2.06366e-05)
(0.898906 0.012319 -1.25792e-05)
(0.886886 0.0155687 3.44819e-06)
(0.883633 0.0234929 5.38452e-06)
(0.888756 0.039702 1.74966e-05)
(0.859565 0.0651225 -1.45689e-05)
(0.782863 0.101219 2.01249e-05)
(0.646764 0.122197 -1.11399e-05)
(0.51743 0.106713 -9.77696e-05)
(0.419509 0.0754202 0.000101913)
(0.352173 0.0522696 -8.79594e-05)
(0.304754 0.0342254 -8.73841e-05)
(0.273425 0.0192348 0.000125195)
(0.25239 0.0114103 -4.05013e-05)
(0.238286 0.00608844 -3.68284e-05)
(0.228608 0.00283199 9.54823e-05)
(0.222265 0.00140429 -6.0023e-05)
(0.218726 0.000907561 -0.000137431)
(0.21723 0.00113555 3.42215e-05)
(0.21664 0.00132863 0.00012075)
(0.215819 0.00147559 4.30593e-05)
(0.214063 0.00210988 -3.79935e-05)
(0.210744 0.00317523 -5.04032e-05)
(0.205704 0.00503918 -1.53779e-05)
(0.198341 0.00630055 1.74452e-05)
(0.189912 0.00878941 1.78874e-05)
(0.178012 0.0106914 2.14906e-06)
(0.162854 0.0117382 -6.2436e-06)
(0.143773 0.0120404 4.13117e-06)
(0.121428 0.0133261 -4.35514e-06)
(0.0955088 0.0138105 1.26775e-05)
(0.0675527 0.0167855 1.4947e-05)
(0.0391687 0.0162344 -1.74648e-05)
(0.0135138 0.0144301 -2.54255e-05)
(1.43122 -0.0183375 -1.16361e-12)
(1.49284 -0.0132165 -8.50928e-12)
(1.51418 -0.00765047 -9.89969e-12)
(1.51957 -0.0021325 -1.27016e-11)
(1.52196 0.00104038 -1.42009e-11)
(1.51462 0.0017928 -1.28164e-11)
(1.5107 0.00207634 -1.29155e-11)
(1.504 0.000921354 -1.33588e-11)
(1.49575 -0.000798908 -1.46596e-11)
(1.4916 -0.00361138 -1.50538e-11)
(1.49108 -0.0067365 -1.59296e-11)
(1.49643 -0.00938975 -1.61902e-11)
(1.50283 -0.00881698 -1.99108e-11)
(1.51017 -0.00871358 -4.86332e-11)
(1.51608 -0.00704014 3.86463e-10)
(1.52221 -0.00463241 -1.74701e-09)
(1.52735 -0.00200169 2.62121e-09)
(1.52602 0.000272846 -5.14524e-10)
(1.5257 0.00199198 -9.25084e-10)
(1.52457 0.00253186 -3.73571e-10)
(1.51994 0.00174972 -1.5025e-11)
(1.51523 0.00181598 6.7953e-10)
(1.51159 0.00047798 -4.4431e-11)
(1.50968 -0.000986718 5.66414e-10)
(1.511 -0.0020779 -7.4124e-10)
(1.51223 -0.00322127 -3.92268e-10)
(1.51401 -0.00388376 -1.70004e-10)
(1.51573 -0.00459667 8.89497e-11)
(1.51641 -0.00499173 3.07688e-10)
(1.5202 -0.00483553 2.59743e-10)
(1.52116 -0.0043197 2.05971e-10)
(1.52188 -0.00387406 -3.06723e-11)
(1.52246 -0.00345035 -6.80596e-10)
(1.52249 -0.00270759 9.78775e-11)
(1.52251 -0.00188114 -5.42232e-10)
(1.52144 -0.000840842 -6.41021e-10)
(1.52084 0.000183186 4.80308e-10)
(1.51972 0.000475134 8.57651e-10)
(1.51818 0.000927075 1.13543e-09)
(1.51702 0.00117795 3.9438e-10)
(1.51537 0.0010731 -4.50963e-10)
(1.51239 0.000286193 2.73458e-09)
(1.5098 -0.00171786 -1.4065e-08)
(1.50118 -0.00120961 6.986e-08)
(1.50285 -0.0413044 8.6501e-07)
(0.860962 -0.206232 1.93587e-06)
(0.554739 -0.0314315 2.03748e-06)
(0.489066 0.0209047 1.31922e-06)
(0.484311 0.0165209 3.78981e-08)
(0.498199 0.0173668 3.03367e-06)
(0.51328 0.0185634 -3.04075e-06)
(0.527217 0.0170384 -9.89909e-06)
(0.542492 0.0157413 -5.15138e-06)
(0.559113 0.0142056 -4.59059e-06)
(0.572075 0.00603749 -8.52551e-06)
(0.582726 0.00809109 -6.91787e-06)
(0.595441 0.0148432 1.05201e-06)
(0.609963 0.0121867 5.59626e-06)
(0.615728 0.00582998 8.36375e-06)
(0.622438 0.00666604 1.00443e-05)
(0.630702 0.00836317 -4.74105e-07)
(0.637217 0.00710993 -1.7947e-05)
(0.639248 0.00324328 -1.9729e-05)
(0.644559 0.00233126 -1.03477e-05)
(0.651193 0.00513627 1.0114e-05)
(0.657833 0.0060989 1.07347e-05)
(0.66194 0.00339759 5.92411e-06)
(0.663577 -0.00073326 2.15521e-06)
(0.666697 -0.00123442 1.62707e-05)
(0.673134 0.000926065 5.11683e-06)
(0.681665 0.00223315 3.10841e-06)
(0.689297 0.000618474 -5.1479e-05)
(0.694191 -0.00260373 -2.04893e-05)
(0.700295 -0.00426256 9.35313e-05)
(0.708585 -0.0044145 8.73634e-06)
(0.720753 -0.00460815 -6.2157e-05)
(0.732434 -0.00458268 0.000196337)
(0.743795 -0.00551457 -2.20968e-05)
(0.754851 -0.00577363 -0.000677811)
(0.765461 -0.00497097 0.000201069)
(0.774661 -0.0043683 0.000316589)
(0.780853 -0.00341015 0.000264396)
(0.782572 -0.00259417 6.21071e-05)
(0.77758 -0.000177238 -0.000188428)
(0.758933 0.00302618 -0.000376201)
(0.731265 0.00938154 -0.00015698)
(0.696139 0.0125458 0.000128616)
(0.66445 0.00067534 0.000161612)
(0.613926 0.00483926 8.36734e-05)
(0.541061 0.0277598 -0.000174869)
(0.472678 0.0594804 0.000432577)
(0.413638 0.0954417 -0.000508281)
(0.368266 0.116811 0.000410101)
(0.330144 0.105548 -0.000272556)
(0.308892 0.0792438 -0.000134318)
(0.285506 0.0604931 0.000461548)
(0.267461 0.0445842 -1.73268e-05)
(0.253245 0.033787 -0.000391654)
(0.241835 0.0254145 -0.000264294)
(0.234494 0.0158892 -1.15687e-05)
(0.228199 0.0092203 0.000273127)
(0.223369 0.00535552 0.000287365)
(0.219837 0.00358701 -4.95211e-05)
(0.217398 0.00290696 -0.000216952)
(0.215169 0.00314427 -7.87375e-05)
(0.212288 0.00397999 7.46435e-05)
(0.208006 0.00553199 0.000124279)
(0.201741 0.00741054 6.69718e-05)
(0.193901 0.0107396 -1.96536e-05)
(0.183647 0.0119972 -4.80613e-05)
(0.173058 0.0157286 -2.4235e-05)
(0.160421 0.0199339 2.29401e-06)
(0.146459 0.0267999 -1.63995e-06)
(0.128632 0.0312186 -1.27009e-05)
(0.108591 0.0368289 -1.00609e-06)
(0.0862501 0.0389278 -1.1963e-05)
(0.0629323 0.0427046 -1.70844e-05)
(0.0386122 0.0420147 1.65606e-05)
(0.0157492 0.0425652 -4.33832e-06)
(1.59634 0.00970896 -5.04368e-11)
(1.51186 0.0140421 7.02775e-12)
(1.48433 0.00639262 4.83167e-11)
(1.47374 0.000242505 6.12873e-11)
(1.48242 -0.00326185 7.3476e-11)
(1.48515 -0.00219078 7.69867e-11)
(1.49924 -0.00124403 8.95985e-11)
(1.5073 0.000164909 3.96624e-11)
(1.5208 0.00190245 -1.25026e-10)
(1.52916 0.00474723 1.1229e-09)
(1.53308 0.00713415 -1.26302e-09)
(1.52385 0.00751987 -5.05958e-11)
(1.52218 0.00822346 4.27334e-10)
(1.51257 0.0063508 2.35014e-10)
(1.50433 0.00515122 2.39886e-09)
(1.49562 0.00343717 -8.95147e-09)
(1.49049 0.0007657 1.32404e-08)
(1.49131 -0.00141782 -4.23884e-09)
(1.49723 -0.00316311 -4.66355e-09)
(1.50138 -0.00211132 -5.64513e-10)
(1.50637 -0.00159959 1.19439e-09)
(1.51696 -0.000194439 5.7615e-09)
(1.52056 0.000913966 2.62414e-09)
(1.52367 0.00224835 -4.22304e-09)
(1.52255 0.00349605 -2.26465e-09)
(1.52127 0.00423094 -1.94058e-09)
(1.51963 0.00429067 -1.69883e-09)
(1.51802 0.00376692 -7.97224e-10)
(1.51542 0.00306521 3.13868e-09)
(1.51256 0.00218054 5.78085e-09)
(1.51002 0.00181899 4.43995e-09)
(1.50764 0.00123014 -1.52034e-10)
(1.50642 0.000549642 -3.77983e-09)
(1.50455 0.000509644 -4.61324e-09)
(1.50258 0.000546445 -6.00092e-09)
(1.5015 0.000607519 -2.17812e-09)
(1.50128 0.000468179 3.92802e-09)
(1.50112 0.000313334 5.35771e-09)
(1.50095 0.000393152 6.21744e-09)
(1.5007 0.000220368 7.37223e-09)
(1.49968 4.48445e-05 5.35188e-09)
(1.49877 3.147e-05 1.62905e-09)
(1.49683 -0.00160939 -1.19916e-08)
(1.48709 -0.00143131 3.03585e-08)
(1.48232 -0.0154999 6.11163e-07)
(0.714628 -0.0603101 2.27489e-06)
(0.454952 -0.00548648 4.91118e-06)
(0.393937 -0.00630487 3.25607e-06)
(0.392838 -0.0223477 -8.76579e-06)
(0.415519 -0.0219334 3.08251e-05)
(0.443886 -0.0222419 -1.90941e-05)
(0.471488 -0.0260248 -1.14508e-05)
(0.497641 -0.0254902 2.42062e-05)
(0.521956 -0.0259233 -4.50037e-05)
(0.544371 -0.016569 -2.82882e-05)
(0.564522 -0.0145743 5.68858e-05)
(0.575533 -0.0160593 6.56738e-05)
(0.585132 -0.0149145 -3.342e-05)
(0.599028 -0.0135313 -0.000111559)
(0.613125 -0.0114433 -1.4041e-06)
(0.619202 -0.00770026 8.21695e-05)
(0.629429 -0.00605515 4.88629e-05)
(0.640675 -0.00512631 -4.3068e-05)
(0.645724 -0.00497933 -7.27011e-05)
(0.646328 -0.0047647 -3.4159e-05)
(0.647625 -0.00526635 7.06248e-06)
(0.65205 -0.00636431 2.14966e-05)
(0.659378 -0.00712524 7.08632e-06)
(0.666012 -0.00735326 -1.97498e-06)
(0.669365 -0.00876823 2.82913e-05)
(0.674699 -0.0111959 7.58409e-06)
(0.681364 -0.0123898 2.25688e-06)
(0.690499 -0.0115029 3.37039e-05)
(0.702058 -0.00991346 -0.000196209)
(0.712327 -0.0110374 -1.34466e-05)
(0.720507 -0.0136696 0.000378855)
(0.732182 -0.0143318 5.18917e-05)
(0.747322 -0.0124738 -0.000399715)
(0.765917 -0.00852287 -7.30643e-05)
(0.782678 -0.00385607 9.39386e-05)
(0.799918 -0.00202648 -2.42754e-05)
(0.81096 0.000552312 5.36525e-05)
(0.817442 0.00144671 0.000138644)
(0.815968 0.00677262 0.000121817)
(0.788381 0.0163552 -3.20648e-06)
(0.746574 0.0320948 -8.7044e-05)
(0.680988 0.0457396 -0.000117664)
(0.599979 0.0700767 5.80221e-05)
(0.495037 0.0876432 0.000143969)
(0.40638 0.0956414 -0.000153425)
(0.343123 0.103566 -5.38994e-05)
(0.301907 0.122712 7.74893e-05)
(0.273061 0.128086 -0.00030348)
(0.249991 0.113647 0.00039261)
(0.235828 0.0869936 -0.000436163)
(0.218013 0.0677276 -0.000643752)
(0.208499 0.0494399 0.000890723)
(0.202779 0.0366368 0.000427148)
(0.199601 0.0272599 -0.000616757)
(0.198928 0.0167127 -0.00119676)
(0.19908 0.00963211 0.000812296)
(0.199549 0.00571123 0.00118927)
(0.199595 0.00427398 1.38551e-05)
(0.198483 0.00389115 -0.000474667)
(0.196534 0.00447874 -0.000374952)
(0.192749 0.0056919 -7.65712e-05)
(0.186719 0.0084195 0.000176975)
(0.177743 0.0120398 0.00017016)
(0.166526 0.0176456 -3.31157e-06)
(0.152682 0.0195826 -2.22126e-05)
(0.139436 0.0247071 1.85182e-05)
(0.125009 0.0291571 2.36505e-05)
(0.111644 0.0370493 2.31831e-05)
(0.0965711 0.0429676 2.46824e-05)
(0.081247 0.0508275 1.83059e-05)
(0.0638495 0.0556057 -7.31582e-06)
(0.0468509 0.0626741 1.85447e-06)
(0.028639 0.0641639 3.53796e-05)
(0.0126433 0.0676144 9.35879e-07)
(1.37575 -0.0179993 4.43311e-11)
(1.48671 -0.00642203 -5.90801e-10)
(1.5294 -0.00248691 8.67742e-10)
(1.54772 -0.0012512 -5.87015e-10)
(1.53465 -0.000887007 1.32374e-11)
(1.52333 -0.000109883 -8.56403e-11)
(1.51175 -0.000113902 5.93487e-11)
(1.50136 -0.000298429 -3.44345e-10)
(1.48482 -0.00105209 7.33738e-10)
(1.47368 -0.00261563 -1.19203e-09)
(1.47397 -0.00455718 -2.60486e-10)
(1.47829 -0.00617065 -7.71612e-11)
(1.49937 -0.00515635 1.62614e-09)
(1.50912 -0.00587731 -1.16183e-08)
(1.52332 -0.00492362 6.16748e-08)
(1.53766 -0.00347888 -1.5884e-07)
(1.54598 -0.00230383 1.07188e-07)
(1.54514 -0.0013355 7.87992e-08)
(1.54076 0.000324036 -3.17616e-08)
(1.53014 0.000368459 -5.63104e-08)
(1.52088 -0.000208532 -4.12327e-08)
(1.51227 0.000237507 1.78472e-08)
(1.50516 -0.000479759 5.37145e-08)
(1.50057 -0.000727803 -6.1399e-09)
(1.49931 -0.00117302 2.86533e-08)
(1.50357 -0.00107594 -5.63193e-08)
(1.50586 -0.00205977 -3.92071e-08)
(1.51079 -0.00286598 -1.21269e-09)
(1.51381 -0.00312764 2.62963e-08)
(1.51708 -0.00383859 4.95253e-08)
(1.52114 -0.00398166 3.14106e-08)
(1.5236 -0.00379844 7.95039e-09)
(1.52509 -0.00357003 -7.46214e-09)
(1.5257 -0.00300819 -4.28404e-08)
(1.5257 -0.00263255 -5.01984e-08)
(1.52579 -0.00234123 -7.36785e-08)
(1.52573 -0.00186697 3.8846e-08)
(1.52498 -0.00117323 6.83877e-08)
(1.52385 -0.00028112 3.10963e-08)
(1.52115 0.000136575 2.8825e-08)
(1.51887 0.000677701 2.31493e-08)
(1.51577 0.00127712 2.69178e-08)
(1.506 0.00162844 3.1384e-08)
(1.50159 0.00510557 -2.70418e-08)
(1.4444 0.0351034 2.74711e-06)
(0.648822 0.101966 -9.24171e-06)
(0.444593 0.0460418 1.96236e-05)
(0.401966 -0.0141454 2.64869e-05)
(0.403982 -0.0475343 -8.2927e-05)
(0.431486 -0.063012 0.000105337)
(0.464279 -0.0688257 -5.48796e-05)
(0.496035 -0.070702 -7.7054e-05)
(0.526158 -0.0622972 0.000199274)
(0.553566 -0.0562566 0.000106895)
(0.573524 -0.0437536 -0.000462619)
(0.594675 -0.0396596 -0.000171117)
(0.610043 -0.0338523 0.00068837)
(0.622692 -0.0266303 0.00037415)
(0.635797 -0.0194245 -0.000621873)
(0.649007 -0.0156037 -0.000618251)
(0.657794 -0.0120416 0.000196097)
(0.66168 -0.00805073 0.000493501)
(0.666775 -0.00443992 0.000123905)
(0.672127 -0.00420499 -0.000144169)
(0.676922 -0.0080794 -0.000145772)
(0.680429 -0.0105492 -2.88882e-06)
(0.68184 -0.0102829 6.30622e-05)
(0.684231 -0.00958873 1.8143e-05)
(0.688087 -0.0116722 -0.0001615)
(0.694374 -0.0154224 2.75491e-05)
(0.700707 -0.018016 0.000153247)
(0.706396 -0.0188063 -7.40223e-06)
(0.711845 -0.0196911 -6.6192e-05)
(0.719263 -0.0221882 -0.000120009)
(0.728513 -0.0231036 -0.00012346)
(0.738418 -0.0226007 0.000287967)
(0.74904 -0.0218997 0.00057782)
(0.759793 -0.0222438 -3.43669e-05)
(0.772285 -0.0223446 -0.000394272)
(0.7865 -0.0189858 -0.000420345)
(0.79985 -0.0119912 -0.000154852)
(0.813649 -0.00126003 0.000198774)
(0.820342 0.0125801 0.000346741)
(0.816875 0.0318995 0.000196433)
(0.77718 0.0513166 -0.000146637)
(0.717003 0.0716023 -0.000520474)
(0.658082 0.103953 -0.000146542)
(0.584982 0.145513 0.000435201)
(0.509933 0.175111 -0.000138114)
(0.433438 0.18047 -0.000269743)
(0.367879 0.169875 0.000139199)
(0.317135 0.173964 0.000173967)
(0.275147 0.159076 -0.000282627)
(0.246003 0.139727 9.37111e-05)
(0.230663 0.107751 1.23478e-05)
(0.210077 0.0820969 -0.000184471)
(0.200314 0.0566388 -0.00125652)
(0.193669 0.0399021 0.00188259)
(0.187292 0.0285478 0.000472512)
(0.184266 0.0171824 -0.00206558)
(0.183674 0.0104165 -5.01337e-05)
(0.183378 0.0059281 0.00156999)
(0.182545 0.00488 0.000512823)
(0.18123 0.00623635 -0.000146645)
(0.178781 0.0095015 -0.000452357)
(0.174333 0.0142088 -0.000344166)
(0.16737 0.019982 2.18172e-05)
(0.157867 0.0256022 0.000178718)
(0.146202 0.0322093 -2.02557e-06)
(0.130874 0.0325809 -0.000112426)
(0.116073 0.0372174 -3.85079e-05)
(0.100355 0.0407125 2.19716e-05)
(0.0862354 0.0481212 -1.07462e-05)
(0.0714803 0.0531175 -4.88807e-05)
(0.0605292 0.0636878 -1.41041e-05)
(0.0469103 0.0690806 -1.37004e-06)
(0.0354466 0.0772865 3.92371e-06)
(0.022144 0.0798504 1.87356e-05)
(0.0113933 0.0852192 -6.10292e-06)
(1.67907 0.00220331 -5.68132e-11)
(1.51359 0.010067 -4.89156e-10)
(1.47148 0.00688089 9.12395e-10)
(1.4524 0.00210615 -4.56891e-10)
(1.46624 -0.00117371 2.71001e-10)
(1.46918 -0.00121317 1.60042e-10)
(1.49324 -0.00145181 3.07573e-10)
(1.50611 -0.000500467 -1.20227e-10)
(1.52777 0.000535627 -9.92181e-10)
(1.54225 0.00213329 6.17243e-09)
(1.55331 0.00373199 -9.13068e-09)
(1.53325 0.00428311 1.25737e-09)
(1.53033 0.00495612 2.80243e-09)
(1.5133 0.00451429 2.61659e-09)
(1.50174 0.00426061 -7.22627e-09)
(1.48718 0.00378968 5.49819e-08)
(1.47843 0.00222924 -1.56122e-07)
(1.477 0.000491299 1.42028e-07)
(1.48556 -0.00106987 2.94169e-08)
(1.49197 -0.00198579 -3.40346e-08)
(1.49676 -0.00190423 -3.92313e-08)
(1.51604 -0.00136567 -7.92979e-08)
(1.52215 -0.00079426 1.73563e-07)
(1.52686 0.000203323 -2.3444e-07)
(1.52943 0.000851349 1.99611e-07)
(1.5253 0.00144447 8.67364e-08)
(1.52308 0.0011728 -4.11363e-08)
(1.52028 0.000741638 -9.45168e-08)
(1.51666 7.20151e-05 -8.2173e-08)
(1.51375 6.94906e-05 -1.19775e-08)
(1.50966 3.30799e-05 6.55611e-08)
(1.50655 -0.000154789 8.20483e-08)
(1.5036 -0.000203132 1.014e-07)
(1.50091 -3.71951e-05 -1.54028e-08)
(1.49816 7.3481e-05 -9.71513e-08)
(1.49587 6.34502e-05 -9.27168e-08)
(1.4953 4.92692e-05 -9.62949e-08)
(1.49277 -1.69463e-05 -2.00193e-08)
(1.49159 -1.83834e-05 3.68864e-08)
(1.49027 -2.11532e-06 8.74451e-08)
(1.48934 -4.65384e-05 9.01055e-08)
(1.48875 -0.000110604 6.49785e-08)
(1.48994 0.000421692 2.80982e-08)
(1.48961 0.00586704 4.08315e-08)
(1.49694 0.0746066 5.79786e-07)
(0.886012 0.273676 6.18248e-06)
(0.589937 0.0956343 -4.50864e-05)
(0.5161 -0.0381327 8.74835e-05)
(0.517126 -0.106709 -2.35938e-07)
(0.554019 -0.113426 -4.96474e-05)
(0.588585 -0.112786 5.08874e-05)
(0.617874 -0.104982 4.89436e-05)
(0.642583 -0.0894056 -0.000507278)
(0.665708 -0.0761482 0.000549331)
(0.679017 -0.0615131 0.000855336)
(0.694189 -0.0521786 -0.000772516)
(0.704872 -0.0408864 -0.0019398)
(0.718464 -0.0333476 0.00111205)
(0.725198 -0.0243797 0.00221849)
(0.73071 -0.0192356 -0.000233454)
(0.735413 -0.0151737 -0.00139889)
(0.73783 -0.0123259 -0.000883172)
(0.738265 -0.0121658 0.00027729)
(0.738146 -0.0114787 0.000717784)
(0.736972 -0.010206 0.000353745)
(0.736505 -0.0102926 -7.26301e-05)
(0.73639 -0.0120469 -0.000340795)
(0.738935 -0.0145243 -0.000255894)
(0.740143 -0.0185858 4.42006e-05)
(0.743655 -0.0200896 0.000303994)
(0.747534 -0.0218881 -4.60378e-05)
(0.752724 -0.022469 -0.000287362)
(0.758452 -0.0240701 3.98808e-05)
(0.764927 -0.0260374 0.000112628)
(0.77194 -0.0272187 0.000290194)
(0.780392 -0.0271931 0.000135913)
(0.789486 -0.0267184 -0.000924638)
(0.80027 -0.0267263 -0.000753991)
(0.811159 -0.0262547 0.00055759)
(0.822299 -0.023642 0.000900427)
(0.833932 -0.0179714 0.000520651)
(0.844801 -0.00962037 -0.000163852)
(0.850956 0.00545185 -0.000542601)
(0.84717 0.0271509 -0.000376397)
(0.82245 0.0596072 -0.000265871)
(0.763341 0.0911563 0.000722555)
(0.700919 0.143177 0.000752313)
(0.634972 0.1983 -0.00164152)
(0.574388 0.237483 6.19366e-05)
(0.513265 0.243849 0.00102783)
(0.455493 0.221798 -0.00019621)
(0.394119 0.218262 -0.00057852)
(0.339303 0.191636 -0.00015789)
(0.291872 0.167046 -0.000141715)
(0.260116 0.128868 0.000207878)
(0.22705 0.0995171 0.000291932)
(0.207517 0.0681561 -0.00162344)
(0.192847 0.0484271 0.00143818)
(0.18261 0.0339759 0.00133745)
(0.177929 0.0200266 -0.00180049)
(0.174427 0.0123143 -0.000930744)
(0.171495 0.00747655 0.00117827)
(0.16685 0.00587065 0.000886915)
(0.161667 0.00698898 -0.000103117)
(0.15567 0.00997779 -0.000509797)
(0.149274 0.015373 -0.000203658)
(0.142749 0.0232089 0.000238901)
(0.133691 0.0301499 0.00026806)
(0.128513 0.0426181 4.84431e-05)
(0.115899 0.0456663 -9.42204e-06)
(0.103835 0.0518487 6.6584e-06)
(0.0895419 0.0559606 3.36812e-05)
(0.0768351 0.0643168 -4.20289e-06)
(0.062225 0.0676926 -3.13931e-05)
(0.0505737 0.0757205 2.0014e-05)
(0.0390609 0.0808182 1.15759e-05)
(0.0301733 0.0887624 -1.10191e-05)
(0.0192921 0.0917926 -7.75397e-06)
(0.0117342 0.0981676 -1.28516e-05)
(1.34493 -0.0160731 4.86757e-10)
(1.48462 -0.00307921 -6.31421e-09)
(1.54121 0.000401336 1.13588e-08)
(1.56352 -8.85546e-05 -8.08449e-09)
(1.54553 -0.00171133 1.53199e-09)
(1.52902 -0.00214683 1.67442e-11)
(1.51385 -0.00284187 1.10073e-09)
(1.50104 -0.00125955 -1.31302e-09)
(1.48032 -0.00130616 1.72889e-09)
(1.46559 -0.00214 -6.19681e-09)
(1.46168 -0.0035273 3.52749e-09)
(1.47419 -0.00327031 9.90808e-10)
(1.49989 -0.00308638 -3.04149e-10)
(1.51172 -0.00328285 2.64038e-08)
(1.52952 -0.00264756 -1.9723e-07)
(1.54912 -0.00193174 7.47058e-07)
(1.55971 -0.00133257 -1.10862e-06)
(1.55952 -0.000829842 3.16643e-07)
(1.55561 -0.000965349 2.75569e-07)
(1.53915 -0.00131569 1.48858e-07)
(1.52937 -0.000538222 -6.37255e-08)
(1.51899 -0.000766243 -2.04094e-07)
(1.50907 8.37974e-05 3.85124e-08)
(1.5022 0.000817551 -5.57207e-07)
(1.50002 0.000690347 9.62721e-07)
(1.502 0.000152662 1.24601e-07)
(1.5071 -0.000339665 -3.72301e-07)
(1.51166 -0.000815981 -3.13738e-07)
(1.51448 -0.00115321 -1.49213e-07)
(1.52293 -0.000759941 2.32516e-08)
(1.52567 -0.00104172 1.85491e-07)
(1.52842 -0.00127923 2.56369e-07)
(1.53066 -0.00118997 1.58608e-07)
(1.53231 -0.00106195 2.95692e-09)
(1.5334 -0.00101413 -9.71038e-08)
(1.53467 -0.000949456 -2.01355e-07)
(1.53601 -0.00100027 -1.84354e-07)
(1.5372 -0.0009021 -1.19988e-07)
(1.53803 -0.000822857 -7.92612e-08)
(1.5387 -0.000289012 7.8021e-08)
(1.54105 8.66456e-05 1.58688e-07)
(1.54127 0.000423024 1.9417e-07)
(1.55062 0.000882332 1.4695e-07)
(1.56079 0.00660558 3.37947e-08)
(1.56545 0.0659438 5.38371e-07)
(1.49509 0.25813 -6.15511e-07)
(0.789816 0.171306 3.40739e-06)
(0.717681 -0.0338449 -1.40249e-05)
(0.733079 -0.100284 -7.55787e-06)
(0.752695 -0.116905 1.09421e-05)
(0.767643 -0.122479 1.83574e-06)
(0.777092 -0.116928 7.12131e-07)
(0.785081 -0.104978 0.000114452)
(0.793359 -0.0893544 -0.000213403)
(0.79163 -0.0743512 -0.000108418)
(0.803369 -0.0604397 0.00041635)
(0.802007 -0.046622 -2.92489e-05)
(0.812569 -0.0348016 -0.000391101)
(0.812922 -0.0244671 0.000400469)
(0.820414 -0.0178747 -2.67674e-05)
(0.821376 -0.01217 -0.000615254)
(0.82335 -0.00729957 0.00016404)
(0.822701 -0.00700203 0.000667356)
(0.821321 -0.00718534 0.000107619)
(0.817247 -0.00749831 -0.000213691)
(0.813156 -0.00852035 -0.000354526)
(0.810892 -0.0112438 -0.00027037)
(0.80784 -0.0130034 0.000229569)
(0.807308 -0.0163562 0.000446482)
(0.805943 -0.0197498 0.000109622)
(0.808856 -0.0226925 -0.000314795)
(0.80987 -0.0247428 -0.000283904)
(0.813796 -0.0269075 -7.59338e-05)
(0.815938 -0.0292223 0.00035681)
(0.820839 -0.031302 3.40617e-05)
(0.82729 -0.0327664 -0.00013749)
(0.836335 -0.0337283 -0.000186467)
(0.846426 -0.0335036 6.87798e-05)
(0.856306 -0.0309971 0.000156134)
(0.865549 -0.0263575 2.04361e-05)
(0.879532 -0.0206484 -0.000166425)
(0.890613 -0.0107193 -0.000149984)
(0.894856 0.00963297 -0.000118632)
(0.894221 0.0405218 -0.000382276)
(0.875546 0.0840917 0.00119973)
(0.821135 0.143993 -0.000106536)
(0.756752 0.213775 -0.00273369)
(0.697669 0.260907 0.00104887)
(0.647389 0.29141 0.00248479)
(0.603183 0.302509 -0.000965902)
(0.552644 0.288666 -0.00222162)
(0.492411 0.283108 -0.000265577)
(0.432304 0.252245 0.00125618)
(0.369223 0.219125 -0.000481893)
(0.316461 0.172576 6.80051e-05)
(0.26416 0.130044 0.00120975)
(0.227533 0.087743 -0.00192327)
(0.204113 0.0588536 0.000634442)
(0.186891 0.041556 0.00168852)
(0.177233 0.0259726 -0.00120344)
(0.171118 0.0174447 -0.00116757)
(0.16622 0.0133108 0.000476304)
(0.160372 0.0129648 0.000736308)
(0.154341 0.0151753 0.000121573)
(0.147248 0.0189598 -0.000305503)
(0.139208 0.0244564 -8.39431e-05)
(0.132216 0.0335432 0.000132727)
(0.122069 0.0401262 3.31948e-05)
(0.115052 0.0507864 -3.55557e-05)
(0.103161 0.0541597 2.84913e-06)
(0.0933972 0.0624477 -4.69001e-06)
(0.0805306 0.0677598 3.72392e-05)
(0.0698205 0.0768215 1.89538e-05)
(0.0565556 0.0799685 -2.0917e-05)
(0.0463164 0.0874169 1.78983e-05)
(0.0353235 0.0907921 7.87967e-06)
(0.028325 0.0986994 -1.96659e-05)
(0.0187831 0.101553 -2.68418e-05)
(0.0135162 0.108503 -1.62259e-05)
(1.73444 0.00120141 -3.07308e-10)
(1.51639 0.00737949 -6.60576e-10)
(1.46734 0.00701709 8.12564e-10)
(1.44157 0.00376856 4.99349e-10)
(1.46239 0.000556497 -2.44272e-10)
(1.46206 -0.00102733 2.24451e-10)
(1.48627 -0.00244005 7.87432e-10)
(1.50325 -0.00112782 2.22144e-10)
(1.52801 -0.00050606 1.7002e-09)
(1.54661 -8.61599e-05 -1.85257e-09)
(1.56045 0.00030981 -1.2188e-09)
(1.53961 0.00128473 2.61386e-09)
(1.53748 0.00112282 1.10182e-09)
(1.51722 0.00116638 3.9448e-09)
(1.50509 0.00145873 -9.31266e-09)
(1.48721 0.00149572 -6.58143e-08)
(1.47645 0.00123004 3.66697e-07)
(1.47137 0.000175725 -5.91807e-07)
(1.4819 -0.00147149 1.26821e-07)
(1.4895 -0.00270053 2.14145e-07)
(1.49193 -0.0029951 9.72897e-08)
(1.51343 -0.00300591 -5.99869e-10)
(1.52196 -0.0019243 -1.87827e-07)
(1.52521 -0.00180718 -9.8487e-08)
(1.52774 -0.00247274 -1.56171e-08)
(1.5282 -0.00294488 1.37491e-07)
(1.52416 -0.00325509 1.35991e-07)
(1.52246 -0.00315931 6.56401e-08)
(1.51898 -0.00252814 -4.94131e-08)
(1.51624 -0.00282973 -1.19541e-07)
(1.51318 -0.0025354 -1.4154e-07)
(1.50931 -0.00204384 -4.47215e-08)
(1.50571 -0.0015959 4.87501e-08)
(1.50346 -0.00159195 1.30096e-07)
(1.50103 -0.00178296 1.50631e-07)
(1.49785 -0.00195478 7.76723e-08)
(1.49628 -0.00169264 -1.15117e-08)
(1.49204 -0.00151717 -7.2077e-08)
(1.48843 -0.00138559 -1.06937e-07)
(1.48644 -0.0012049 -1.13679e-07)
(1.48437 -0.00106 -1.16048e-07)
(1.48311 -0.000965316 -3.11189e-08)
(1.48494 -0.000460617 1.70141e-08)
(1.48632 0.00147547 6.25422e-08)
(1.48541 0.0193376 -6.62235e-08)
(1.48596 0.0986316 7.32851e-07)
(1.29916 0.0217258 -8.81715e-06)
(0.735262 -0.0404958 2.99063e-06)
(0.801445 -0.0777347 -7.23253e-06)
(0.821251 -0.0949854 -1.70547e-05)
(0.826798 -0.101922 3.36996e-07)
(0.828278 -0.100366 2.20295e-06)
(0.831402 -0.0920004 2.95446e-05)
(0.832418 -0.0767316 -7.35271e-05)
(0.827565 -0.0650345 -7.73327e-05)
(0.835966 -0.0511216 0.000259544)
(0.833403 -0.0410312 -8.06928e-05)
(0.842621 -0.0289216 -0.00027965)
(0.842177 -0.0221467 0.000299028)
(0.849324 -0.0137781 0.000257726)
(0.849627 -0.0088277 -0.000902067)
(0.85295 -0.00340209 0.00033482)
(0.852741 -0.00213865 0.000362859)
(0.852389 -0.000536122 0.000245955)
(0.850504 -0.000742389 -0.000113858)
(0.847141 -0.00277754 -0.000315295)
(0.844595 -0.00715382 -0.000274389)
(0.840853 -0.0112868 0.000143273)
(0.84379 -0.017123 0.000514697)
(0.84169 -0.0212104 0.00019975)
(0.845479 -0.0256561 -0.000230089)
(0.846741 -0.0290653 -0.000599438)
(0.852061 -0.0314598 -0.000162913)
(0.858035 -0.0344728 0.000272959)
(0.864079 -0.03713 0.000954933)
(0.870075 -0.0391274 -0.000284754)
(0.876776 -0.0396231 -0.000646431)
(0.883836 -0.0382811 -0.000501121)
(0.892618 -0.0355635 5.79167e-05)
(0.905566 -0.0319748 0.000413101)
(0.916566 -0.0252083 0.000336231)
(0.921338 -0.0119467 2.16199e-05)
(0.92538 0.0094878 -0.000588492)
(0.927975 0.0460396 0.000376864)
(0.881821 0.111961 0.000340042)
(0.832075 0.198018 -0.00518099)
(0.769533 0.27054 0.00354673)
(0.721273 0.308371 0.00502064)
(0.687621 0.335323 -0.00131518)
(0.655597 0.351721 -0.00413846)
(0.618524 0.342764 -0.000920702)
(0.570133 0.335473 0.00270999)
(0.517403 0.305308 0.00174812)
(0.449701 0.276082 -0.000580027)
(0.382041 0.234089 -0.000221417)
(0.314289 0.181879 0.0009802)
(0.259106 0.122305 -0.0015313)
(0.22192 0.0801558 -0.000477313)
(0.198289 0.054312 0.00154884)
(0.185773 0.0327653 -9.33989e-05)
(0.176366 0.0232419 -0.00113963)
(0.169714 0.0195409 -5.70033e-05)
(0.163185 0.0200891 0.000600183)
(0.157201 0.0233167 0.000172779)
(0.150145 0.0281574 -0.000242554)
(0.141264 0.0342675 -0.000155662)
(0.133714 0.0446551 -3.83451e-05)
(0.122383 0.052071 -0.000106231)
(0.112901 0.0632534 -9.51887e-05)
(0.0989456 0.0665214 2.7786e-05)
(0.0875238 0.074393 1.91213e-06)
(0.074701 0.0791824 1.94916e-05)
(0.0647835 0.0879864 2.25098e-05)
(0.0526454 0.0907039 -2.25945e-05)
(0.0441602 0.0982101 -1.69044e-06)
(0.0340555 0.1003 9.97842e-06)
(0.0287405 0.108156 -1.00165e-05)
(0.0198936 0.110376 -2.43355e-05)
(0.0160701 0.117809 -9.899e-06)
(1.32568 -0.0131282 -2.02802e-10)
(1.48724 -0.000966321 2.75244e-09)
(1.54723 0.00156187 -8.57852e-09)
(1.57014 -0.00182245 9.67263e-09)
(1.54847 -0.00188009 -5.34826e-09)
(1.53381 -0.00254927 -5.16689e-10)
(1.51665 -0.00370786 5.85312e-10)
(1.5054 -0.00225653 -1.25265e-09)
(1.4866 -0.00147759 1.0258e-08)
(1.47159 -0.000502168 -2.1089e-08)
(1.46397 -0.000498235 1.40241e-08)
(1.48304 -1.24411e-05 2.84537e-09)
(1.50347 -0.000903947 2.21278e-09)
(1.51524 -0.000115625 -1.86927e-08)
(1.53217 0.000194145 1.40283e-07)
(1.5523 0.00043313 -7.05076e-07)
(1.56331 0.000565522 1.42079e-06)
(1.57245 0.000647514 -1.09932e-06)
(1.55861 -0.000128436 -1.035e-07)
(1.54761 0.00176831 1.17773e-07)
(1.53788 0.00227592 2.94959e-07)
(1.52781 0.00154582 2.06228e-07)
(1.51889 0.00333723 -1.45395e-08)
(1.51399 0.00216658 -4.21537e-07)
(1.51015 0.00168343 -3.00758e-07)
(1.5107 0.00186394 5.99475e-07)
(1.51551 0.00183848 2.18632e-07)
(1.52015 0.00259212 -4.30487e-09)
(1.52578 0.00326542 -9.908e-08)