/*--------------------------------*- C++ -*----------------------------------*\
| =========                 |                                                 |
| \\      /  F ield         | OpenFOAM: The Open Source CFD Toolbox           |
|  \\    /   O peration     | Version:  2.2.x                                 |
|   \\  /    A nd           | Web:      www.OpenFOAM.org                      |
|    \\/     M anipulation  |                                                 |
\*---------------------------------------------------------------------------*/
FoamFile
{
    version     2.0;
    format      ascii;
    class       volScalarField;
    location    "0.1";
    object      T;
}
// * * * * * * * * * * * * * * * * * * * * * * * * * * * * * * * * * * * * * //

dimensions      [0 0 0 1 0 0 0];

internalField   nonuniform List<scalar> 
14161
(
1
1
1
1
1
1
1
1
1
1
1
1
1
1
1
1
1
1
1
1
1
1
1
1
1
1
1
1
1
1
1
1
1
1
1
1
1
1
1
1
1
1
1
1
1
1
1
1
1
1
1
1
1
1
1
1
1
1
1
1
1
1
1
1
1
1
1
1
1
1
1
1
1
1
1
1
1
1
9.29845
13.9947
13.5804
13.6697
13.8284
13.8684
13.8595
13.8923
13.9607
14.0282
14.0799
14.129
14.1723
14.2003
14.2036
14.2053
14.2247
14.2607
14.3146
14.3769
14.444
14.5147
14.5822
14.6456
14.7049
14.7587
14.7978
14.841
14.9137
15.0142
15.1444
15.2954
15.446
15.5915
15.718
15.8409
16.0082
16.2561
16.7104
18.2123
18.15
1
1
1
1
1
1
1
1
1
1
1
1
1
1
1
1
1
1
1
1
1
1
1
1
1
1
1
1
1
1
1
1
1
1
1
1
1
1
1
1
1
1
1
1
1
1
1
1
1
1
1
1
1
1
1
1
1
1
1
1
1
1
1
1
1
1
1
1
1
1
1
1
1
1
1
1
1
1
10.9497
14.3309
13.896
14.0776
14.2561
14.2778
14.2622
14.3132
14.3741
14.4277
14.4764
14.5274
14.5666
14.5863
14.58
14.5733
14.5837
14.6096
14.6508
14.6994
14.7516
14.8044
14.8536
14.8984
14.9355
14.9594
14.9681
14.9849
15.0238
15.097
15.1879
15.3289
15.4758
15.6152
15.734
15.8518
16.0136
16.2543
16.6959
18.1564
18.1635
1
1
1
1
1
1
1
1
1
1
1
1
1
1
1
1
1
1
1
1
1
1
1
1
1
1
1
1
1
1
1
1
1
1
1
1
1
1
1
1
1
1
1
1
1
1
1
1
1
1
1
1
1
1
1
1
1
1
1
1
1
1
1
1
1
1
1
1
1
1
1
1
1
1
1
1
1
1
8.96154
13.926
13.6052
13.7038
13.853
13.902
13.9163
13.9748
14.0527
14.1275
14.1911
14.2548
14.3103
14.346
14.3559
14.3654
14.3921
14.4319
14.4878
14.55
14.6175
14.6866
14.7481
14.8032
14.8521
14.8882
14.908
14.9373
14.986
15.0604
15.164
15.299
15.4398
15.5721
15.686
15.7992
15.9551
16.1861
16.5888
17.8638
18.1814
1
1
1
1
1
1
1
1
1
1
1
1
1
1
1
1
1
1
1
1
1
1
1
1
1
1
1
1
1
1
1
1
1
1
1
1
1
1
1
1
1
1
1
1
1
1
1
1
1
1
1
1
1
1
1
1
1
1
1
1
1
1
1
1
1
1
1
1
1
1
1
1
1
1
1
1
1
1
10.296
14.1797
13.7473
13.8704
14.0283
14.058
14.0296
14.0604
14.1194
14.1764
14.2233
14.275
14.3199
14.3464
14.3471
14.3479
14.3675
14.4041
14.458
14.5202
14.587
14.6539
14.7166
14.7756
14.8273
14.8655
14.8867
14.9166
14.9658
15.0432
15.1511
15.287
15.4247
15.5482
15.6513
15.756
15.91
16.1397
16.5346
17.7612
18.1926
1
1
1
1
1
1
1
1
1
1
1
1
1
1
1
1
1
1
1
1
1
1
1
1
1
1
1
1
1
1
1
1
1
1
1
1
1
1
1
1
1
1
1
1
1
1
1
1
1
1
1
1
1
1
1
1
1
1
1
1
1
1
1
1
1
1
1
1
1
1
1
1
1
1
1
1
1
1
9.63757
14.0611
13.6856
13.7865
13.9518
14.0207
14.0243
14.0817
14.1495
14.2138
14.2676
14.3189
14.3591
14.3796
14.3829
14.3858
14.4076
14.4462
14.5033
14.567
14.6334
14.6996
14.7604
14.817
14.868
14.9062
14.9281
14.9585
15.0062
15.0801
15.1824
15.3087
15.4375
15.5528
15.6469
15.7477
15.8986
16.1293
16.5278
17.7658
18.1809
1
1
1
1
1
1
1
1
1
1
1
1
1
1
1
1
1
1
1
1
1
1
1
1
1
1
1
1
1
1
1
1
1
1
1
1
1
1
1
1
1
1
1
1
1
1
1
1
1
1
1
1
1
1
1
1
1
1
1
1
1
1
1
1
1
1
1
1
1
1
1
1
1
1
1
1
1
1
9.51147
14.0543
13.6665
13.7639
13.9281
13.988
13.9832
14.0285
14.0902
14.1534
14.2102
14.2705
14.3232
14.3586
14.3661
14.3741
14.4011
14.4445
14.5061
14.5717
14.6398
14.7096
14.774
14.8344
14.8909
14.935
14.9615
14.9969
15.0537
15.1329
15.2369
15.3589
15.4798
15.5844
15.6667
15.7591
15.9042
16.1337
16.5393
17.807
18.1568
1
1
1
1
1
1
1
1
1
1
1
1
1
1
1
1
1
1
1
1
1
1
1
1
1
1
1
1
1
1
1
1
1
1
1
1
1
1
1
1
1
1
1
1
1
1
1
1
1
1
1
1
1
1
1
1
1
1
1
1
1
1
1
1
1
1
1
1
1
1
1
1
1
1
1
1
1
1
9.46994
14.0462
13.6641
13.7717
13.9378
13.9902
13.9781
14.0168
14.076
14.1371
14.1914
14.2482
14.2981
14.329
14.3325
14.3378
14.3641
14.4091
14.4727
14.5402
14.6102
14.6805
14.7465
14.8095
14.8706
14.9205
14.9523
14.9946
15.0612
15.1485
15.2607
15.3888
15.5115
15.6144
15.6902
15.7757
15.9137
16.1428
16.5622
17.8746
18.1287
1
1
1
1
1
1
1
1
1
1
1
1
1
1
1
1
1
1
1
1
1
1
1
1
1
1
1
1
1
1
1
1
1
1
1
1
1
1
1
1
1
1
1
1
1
1
1
1
1
1
1
1
1
1
1
1
1
1
1
1
1
1
1
1
1
1
1
1
1
1
1
1
1
1
1
1
1
1
9.3003
14.011
13.6534
13.7706
13.9371
13.986
13.9742
14.0131
14.0714
14.1336
14.1875
14.2421
14.2886
14.3144
14.3156
14.3205
14.3466
14.3936
14.4585
14.5267
14.5958
14.6652
14.7307
14.7938
14.8558
14.9064
14.9406
14.9874
15.0582
15.1507
15.2669
15.3973
15.5212
15.6252
15.7021
15.7877
15.9232
16.1525
16.5847
17.9501
18.0989
1
1
1
1
1
1
1
1
1
1
1
1
1
1
1
1
1
1
1
1
1
1
1
1
1
1
1
1
1
1
1
1
1
1
1
1
1
1
1
1
1
1
1
1
1
1
1
1
1
1
1
1
1
1
1
1
1
1
1
1
1
1
1
1
1
1
1
1
1
1
1
1
1
1
1
1
1
1
9.15448
13.9827
13.6424
13.7729
13.9389
13.983
13.9716
14.0115
14.0704
14.1332
14.1869
14.2402
14.2845
14.306
14.3049
14.3122
14.3407
14.391
14.4569
14.5242
14.5904
14.6561
14.7184
14.7778
14.8362
14.8841
14.9204
14.971
15.0447
15.1401
15.2564
15.3866
15.5099
15.6161
15.6961
15.7842
15.9199
16.1482
16.5801
17.965
18.0666
1
1
1
1
1
1
1
1
1
1
1
1
1
1
1
1
1
1
1
1
1
1
1
1
1
1
1
1
1
1
1
1
1
1
1
1
1
1
1
1
1
1
1
1
1
1
1
1
1
1
1
1
1
1
1
1
1
1
1
1
1
1
1
1
1
1
1
1
1
1
1
1
1
1
1
1
1
1
8.92431
13.9356
13.6252
13.7727
13.9365
13.9755
13.9654
14.0071
14.0679
14.131
14.1839
14.2351
14.2763
14.2933
14.2909
14.3017
14.3333
14.3865
14.453
14.5194
14.5831
14.6454
14.7039
14.7596
14.8149
14.8592
14.8929
14.942
15.0165
15.113
15.2298
15.3595
15.4833
15.591
15.6751
15.7686
15.9089
16.1397
16.5746
17.9776
18.0291
1
1
1
1
1
1
1
1
1
1
1
1
1
1
1
1
1
1
1
1
1
1
1
1
1
1
1
1
1
1
1
1
1
1
1
1
1
1
1
1
1
1
1
1
1
1
1
1
1
1
1
1
1
1
1
1
1
1
1
1
1
1
1
1
1
1
1
1
1
1
1
1
1
1
1
1
1
1
8.61618
13.8698
13.6074
13.7765
13.9347
13.966
13.9566
14.0014
14.065
14.1278
14.1791
14.2273
14.2651
14.2776
14.2752
14.2898
14.3247
14.3809
14.4477
14.513
14.5747
14.6354
14.6917
14.744
14.7958
14.8359
14.8698
14.9173
14.9914
15.0861
15.2031
15.3346
15.4598
15.5684
15.6541
15.7514
15.8975
16.1335
16.5821
18.0072
17.9831
1
1
1
1
1
1
1
1
1
1
1
1
1
1
1
1
1
1
1
1
1
1
1
1
1
1
1
1
1
1
1
1
1
1
1
1
1
1
1
1
1
1
1
1
1
1
1
1
1
1
1
1
1
1
1
1
1
1
1
1
1
1
1
1
1
1
1
1
1
1
1
1
1
1
1
1
1
1
8.18481
13.7764
13.5903
13.7846
13.9323
13.9547
13.9457
13.995
14.0617
14.1232
14.1724
14.2177
14.2516
14.2603
14.2599
14.2784
14.3172
14.3754
14.4417
14.5057
14.5672
14.6277
14.6826
14.7325
14.7803
14.8163
14.8507
14.8993
14.9757
15.0679
15.1824
15.3135
15.4402
15.5502
15.6391
15.7436
15.8955
16.1342
16.5916
18.0446
17.9505
1
1
1
1
1
1
1
1
1
1
1
1
1
1
1
1
1
1
1
1
1
1
1
1
1
1
1
1
1
1
1
1
1
1
1
1
1
1
1
1
1
1
1
1
1
1
1
1
1
1
1
1
1
1
1
1
1
1
1
1
1
1
1
1
1
1
1
1
1
1
1
1
1
1
1
1
1
1
7.58589
13.6466
13.5793
13.7948
13.9275
13.9396
13.9318
13.9872
14.0572
14.1162
14.1631
14.2053
14.2347
14.2407
14.2445
14.2673
14.3104
14.3699
14.4361
14.4998
14.562
14.6223
14.6754
14.7231
14.7674
14.8016
14.8395
14.8907
14.9684
15.0585
15.1693
15.2953
15.4192
15.5277
15.6175
15.7303
15.8878
16.125
16.576
18.0312
17.91
1
1
1
1
1
1
1
1
1
1
1
1
1
1
1
1
1
1
1
1
1
1
1
1
1
1
1
1
1
1
1
1
1
1
1
1
1
1
1
1
1
1
1
1
1
1
1
1
1
1
1
1
1
1
1
1
1
1
1
1
1
1
1
1
1
1
1
1
1
1
1
1
1
1
1
1
1
1
6.75307
13.4681
13.5767
13.8079
13.9202
13.9207
13.9168
13.9796
14.0518
14.1069
14.1505
14.1891
14.2129
14.2174
14.2266
14.2545
14.3021
14.3626
14.4285
14.4918
14.5548
14.6148
14.6658
14.7111
14.7525
14.7871
14.8295
14.8847
14.9645
15.052
15.1567
15.2761
15.3946
15.4995
15.5879
15.7061
15.8672
16.1031
16.5462
18.0045
17.8683
1
1
1
1
1
1
1
1
1
1
1
1
1
1
1
1
1
1
1
1
1
1
1
1
1
1
1
1
1
1
1
1
1
1
1
1
1
1
1
1
1
1
1
1
1
1
1
1
1
1
1
1
1
1
1
1
1
1
1
1
1
1
1
1
1
1
1
1
1
1
1
1
1
1
1
1
1
1
5.59854
13.23
13.5856
13.8232
13.9106
13.8985
13.9019
13.9731
14.0454
14.0956
14.1349
14.1691
14.1867
14.1911
14.2067
14.2407
14.2931
14.3546
14.4203
14.4838
14.5476
14.6059
14.6537
14.6954
14.7344
14.7722
14.8194
14.8809
14.964
15.0497
15.1487
15.2616
15.3743
15.4747
15.5613
15.6843
15.8489
16.0852
16.5284
17.993
17.819
1
1
1
1
1
1
1
1
1
1
1
1
1
1
1
1
1
1
1
1
1
1
1
1
1
1
1
1
1
1
1
1
1
1
1
1
1
1
1
1
1
1
1
1
1
1
1
1
1
1
1
1
1
1
1
1
1
1
1
1
1
1
1
1
1
1
1
1
1
1
1
1
1
1
1
1
1
1
4.03538
12.9356
13.6059
13.8417
13.9001
13.8723
13.8879
13.9665
14.0366
14.0812
14.1162
14.1436
14.1555
14.1632
14.1863
14.2276
14.284
14.346
14.4113
14.4748
14.5387
14.595
14.6398
14.6774
14.7155
14.7576
14.811
14.882
14.9695
15.0548
15.1486
15.2551
15.3627
15.4559
15.541
15.6711
15.8392
16.0777
16.5269
18.0029
17.7701
1
1
1
1
1
1
1
1
1
1
1
1
1
1
1
1
1
1
1
1
1
1
1
1
1
1
1
1
1
1
1
1
1
1
1
1
1
1
1
1
1
1
1
1
1
1
1
1
1
1
1
1
1
1
1
1
1
1
1
1
1
1
1
1
1
1
1
1
1
1
1
1
1
1
1
1
1
1
2.16049
12.613
13.6468
13.8578
13.8881
13.843
13.8747
13.9579
14.0248
14.0626
14.0931
14.1116
14.1204
14.1358
14.1668
14.2158
14.2749
14.3368
14.4011
14.4643
14.528
14.5816
14.6213
14.6546
14.694
14.7411
14.8007
14.8811
14.9747
15.0631
15.1549
15.2576
15.3603
15.4483
15.5345
15.6715
15.8413
16.0741
16.5197
18.0111
17.7208
1
1
1
1
1
1
1
1
1
1
1
1
1
1
1
1
1
1
1
1
1
1
1
1
1
1
1
1
1
1
1
1
1
1
1
1
1
1
1
1
1
1
1
1
1
1
1
1
1
1
1
1
1
1
1
1
1
1
1
1
1
1
1
1
1
1
1
1
1
1
1
1
1
1
1
1
1
1
1.01533
12.3411
13.7056
13.8699
13.8703
13.8114
13.8613
13.9468
14.0086
14.0398
14.0615
14.0729
14.085
14.1098
14.1499
14.2055
14.2654
14.326
14.3887
14.4521
14.5153
14.5664
14.6004
14.6278
14.6688
14.7195
14.7836
14.872
14.9689
15.0593
15.1496
15.2511
15.352
15.4386
15.5285
15.671
15.839
16.0668
16.4978
17.9965
17.663
1
1
1
1
1
1
1
1
1
1
1
1
1
1
1
1
1
1
1
1
1
1
1
1
1
1
1
1
1
1
1
1
1
1
1
1
1
1
1
1
1
1
1
1
1
1
1
1
1
1
1
1
1
1
1
1
1
1
1
1
1
1
1
1
1
1
1
1
1
1
1
1
1
1
1
1
1
1
1.00018
12.0935
13.7739
13.8812
13.8357
13.7802
13.8475
13.9337
13.9857
14.0098
14.0184
14.0297
14.0522
14.0869
14.1365
14.1957
14.2545
14.3125
14.3738
14.4384
14.5005
14.548
14.5761
14.5975
14.6413
14.6946
14.7639
14.858
14.9526
15.0425
15.1283
15.2273
15.3257
15.4119
15.5067
15.6542
15.8223
16.046
16.4641
17.9683
17.5999
1
1
1
1
1
1
1
1
1
1
1
1
1
1
1
1
1
1
1
1
1
1
1
1
1
1
1
1
1
1
1
1
1
1
1
1
1
1
1
1
1
1
1
1
1
1
1
1
1
1
1
1
1
1
1
1
1
1
1
1
1
1
1
1
1
1
1
1
1
1
1
1
1
1
1
1
1
1
1.00003
11.8108
13.8516
13.8878
13.7758
13.7473
13.8301
13.9164
13.956
13.9629
13.9663
13.9903
14.0237
14.0686
14.1257
14.185
14.2403
14.2959
14.3574
14.4232
14.4826
14.5247
14.5463
14.5639
14.6118
14.6687
14.7461
14.844
14.9343
15.0222
15.1031
15.1982
15.2912
15.3799
15.4829
15.6339
15.8021
16.0237
16.439
17.9456
17.5305
1
1
1
1
1
1
1
1
1
1
1
1
1
1
1
1
1
1
1
1
1
1
1
1
1
1
1
1
1
1
1
1
1
1
1
1
1
1
1
1
1
1
1
1
1
1
1
1
1
1
1
1
1
1
1
1
1
1
1
1
1
1
1
1
1
1
1
1
1
1
1
1
1
1
1
1
1
1
1
11.4934
13.9283
13.8625
13.7043
13.7143
13.8058
13.892
13.9071
13.9025
13.9191
13.9565
14.0008
14.0554
14.1145
14.1701
14.2216
14.2775
14.3401
14.4057
14.4607
14.4957
14.5103
14.5318
14.5839
14.6464
14.7324
14.8308
14.9166
15.0003
15.0771
15.1662
15.254
15.3491
15.4622
15.616
15.7836
16.0027
16.4236
17.9259
17.4623
1
1
1
1
1
1
1
1
1
1
1
1
1
1
1
1
1
1
1
1
1
1
1
1
1
1
1
1
1
1
1
1
1
1
1
1
1
1
1
1
1
1
1
1
1
1
1
1
1
1
1
1
1
1
1
1
1
1
1
1
1
1
1
1
1
1
1
1
1
1
1
1
1
1
1
1
1
1
1
11.149
13.9635
13.7874
13.6308
13.6724
13.7793
13.846
13.8426
13.8479
13.8827
13.9301
13.9862
14.0428
14.0978
14.1485
14.2009
14.259
14.3222
14.3835
14.4331
14.4607
14.4717
14.5031
14.559
14.6287
14.7222
14.8182
14.9007
14.9774
15.0497
15.1331
15.2196
15.3237
15.4476
15.6027
15.7675
15.9807
16.4058
17.8956
17.3936
1
1
1
1
1
1
1
1
1
1
1
1
1
1
1
1
1
1
1
1
1
1
1
1
1
1
1
1
1
1
1
1
1
1
1
1
1
1
1
1
1
1
1
1
1
1
1
1
1
1
1
1
1
1
1
1
1
1
1
1
1
1
1
1
1
1
1
1
1
1
1
1
1
1
1
1
1
1
1
10.8138
13.9078
13.6625
13.5362
13.6154
13.7527
13.7902
13.7856
13.8053
13.8543
13.9153
13.972
14.0217
14.0728
14.1247
14.1809
14.2402
14.3016
14.3557
14.3981
14.4184
14.4348
14.4764
14.5365
14.6146
14.712
14.8044
14.8833
14.9517
15.019
15.0974
15.1878
15.3
15.4346
15.5891
15.7509
15.9569
16.3876
17.8666
17.3208
1
1
1
1
1
1
1
1
1
1
1
1
1
1
1
1
1
1
1
1
1
1
1
1
1
1
1
1
1
1
1
1
1
1
1
1
1
1
1
1
1
1
1
1
1
1
1
1
1
1
1
1
1
1
1
1
1
1
1
1
1
1
1
1
1
1
1
1
1
1
1
1
1
1
1
1
1
1
1
10.0311
13.8946
13.4777
13.434
13.5867
13.7305
13.7462
13.7327
13.7729
13.8402
13.8994
13.9452
13.9924
14.0456
14.1025
14.162
14.2208
14.2745
14.3215
14.3538
14.3726
14.4011
14.4513
14.5168
14.6021
14.7002
14.7875
14.8614
14.922
14.9848
15.0579
15.1561
15.2774
15.4223
15.5745
15.7334
15.9303
16.363
17.8359
17.2467
1
1
1
1
1
1
1
1
1
1
1
1
1
1
1
1
1
1
1
1
1
1
1
1
1
1
1
1
1
1
1
1
1
1
1
1
1
1
1
1
1
1
1
1
1
1
1
1
1
1
1
1
1
1
1
1
1
1
1
1
1
1
1
1
1
1
1
1
1
1
1
1
1
1
1
1
1
1
1
8.32688
13.6783
13.2589
13.3747
13.6322
13.7134
13.6996
13.6914
13.7533
13.8197
13.8684
13.9126
13.9619
14.0196
14.083
14.1433
14.1945
14.2396
14.2761
14.3025
14.33
14.3702
14.4278
14.5003
14.5897
14.6843
14.7653
14.8344
14.8882
14.9462
15.0145
15.1218
15.2524
15.4055
15.5567
15.7121
15.8967
16.3303
17.8011
17.1721
1
1
1
1
1
1
1
1
1
1
1
1
1
1
1
1
1
1
1
1
1
1
1
1
1
1
1
1
1
1
1
1
1
1
1
1
1
1
1
1
1
1
1
1
1
1
1
1
1
1
1
1
1
1
1
1
1
1
1
1
1
1
1
1
1
1
1
1
1
1
1
1
1
1
1
1
1
1
1
4.58155
12.8565
13.1998
13.4528
13.6809
13.6867
13.627
13.6498
13.7209
13.7886
13.8348
13.8782
13.9335
13.9995
14.062
14.1135
14.1581
14.1922
14.2216
14.253
14.2915
14.3421
14.4082
14.4855
14.5736
14.6618
14.7381
14.8022
14.8494
14.9011
14.97
15.084
15.2242
15.3802
15.5302
15.6832
15.8568
16.2912
17.7621
17.0981
1
1
1
1
1
1
1
1
1
1
1
1
1
1
1
1
1
1
1
1
1
1
1
1
1
1
1
1
1
1
1
1
1
1
1
1
1
1
1
1
1
1
1
1
1
1
1
1
1
1
1
1
1
1
1
1
1
1
1
1
1
1
1
1
1
1
1
1
1
1
1
1
1
1
1
1
1
1
1
1.15436
11.9758
13.2845
13.5795
13.6719
13.6096
13.5384
13.6022
13.6919
13.7542
13.8007
13.8494
13.9098
13.9709
14.0263
14.0733
14.1085
14.1359
14.1674
14.2085
14.2579
14.3189
14.392
14.4671
14.5496
14.6339
14.7073
14.7646
14.8064
14.8517
14.9297
15.0478
15.1968
15.3515
15.4986
15.6485
15.8113
16.2416
17.7218
17.0225
1
1
1
1
1
1
1
1
1
1
1
1
1
1
1
1
1
1
1
1
1
1
1
1
1
1
1
1
1
1
1
1
1
1
1
1
1
1
1
1
1
1
1
1
1
1
1
1
1
1
1
1
1
1
1
1
1
1
1
1
1
1
1
1
1
1
1
1
1
1
1
1
1
1
1
1
1
1
1
1.00829
11.2785
13.4753
13.663
13.6088
13.4615
13.4703
13.575
13.6711
13.7223
13.7618
13.8135
13.8731
13.9305
13.98
14.0204
14.0504
14.0796
14.1195
14.1701
14.2292
14.3022
14.3713
14.4407
14.5207
14.6011
14.6733
14.7227
14.7583
14.8058
14.8928
15.0153
15.1701
15.3221
15.4628
15.6081
15.7637
16.192
17.6813
16.9468
1
1
1
1
1
1
1
1
1
1
1
1
1
1
1
1
1
1
1
1
1
1
1
1
1
1
1
1
1
1
1
1
1
1
1
1
1
1
1
1
1
1
1
1
1
1
1
1
1
1
1
1
1
1
1
1
1
1
1
1
1
1
1
1
1
1
1
1
1
1
1
1
1
1
1
1
1
1
1
1.00025
10.6204
13.6717
13.6147
13.433
13.3255
13.4142
13.5535
13.6413
13.6814
13.7135
13.7695
13.8278
13.8803
13.9231
13.9604
13.9928
14.0302
14.0784
14.1369
14.2074
14.2785
14.3436
14.4112
14.4882
14.5659
14.6345
14.6761
14.7084
14.7665
14.8587
14.9859
15.1413
15.2911
15.4236
15.5602
15.7123
16.1479
17.6463
16.8684
1
1
1
1
1
1
1
1
1
1
1
1
1
1
1
1
1
1
1
1
1
1
1
1
1
1
1
1
1
1
1
1
1
1
1
1
1
1
1
1
1
1
1
1
1
1
1
1
1
1
1
1
1
1
1
1
1
1
1
1
1
1
1
1
1
1
1
1
1
1
1
1
1
1
1
1
1
1
1
1.0002
10.0661
13.686
13.4315
13.1819
13.2249
13.3906
13.5403
13.6007
13.6182
13.6602
13.7196
13.7768
13.8223
13.8632
13.9022
13.9415
13.987
14.0424
14.11
14.1814
14.2482
14.3137
14.3799
14.4521
14.5275
14.5885
14.6233
14.6627
14.7324
14.8277
14.9569
15.1088
15.2569
15.3816
15.5056
15.6566
16.1034
17.6163
16.7879
1
1
1
1
1
1
1
1
1
1
1
1
1
1
1
1
1
1
1
1
1
1
1
1
1
1
1
1
1
1
1
1
1
1
1
1
1
1
1
1
1
1
1
1
1
1
1
1
1
1
1
1
1
1
1
1
1
1
1
1
1
1
1
1
1
1
1
1
1
1
1
1
1
1
1
1
1
1
1
1.00002
8.67782
13.6302
13.085
13.0015
13.1939
13.4493
13.5263
13.5364
13.5495
13.6045
13.669
13.7208
13.7621
13.8051
13.8495
13.8963
13.9489
14.0121
14.0798
14.1482
14.2171
14.2817
14.3462
14.4111
14.4815
14.5322
14.5696
14.623
14.7005
14.7969
14.924
15.0717
15.216
15.3332
15.4446
15.6024
16.069
17.588
16.7057
1
1
1
1
1
1
1
1
1
1
1
1
1
1
1
1
1
1
1
1
1
1
1
1
1
1
1
1
1
1
1
1
1
1
1
1
1
1
1
1
1
1
1
1
1
1
1
1
1
1
1
1
1
1
1
1
1
1
1
1
1
1
1
1
1
1
1
1
1
1
1
1
1
1
1
1
1
1
1
1
4.43329
12.7494
12.8876
13.0707
13.345
13.4886
13.4803
13.4391
13.4767
13.5483
13.6211
13.6641
13.7039
13.7518
13.8025
13.8562
13.9156
13.9782
14.0437
14.1139
14.1845
14.2468
14.3061
14.3632
14.4237
14.4707
14.5212
14.5889
14.6689
14.7646
14.8863
15.0289
15.1663
15.2772
15.3835
15.5477
16.0323
17.5668
16.6196
1
1
1
1
1
1
1
1
1
1
1
1
1
1
1
1
1
1
1
1
1
1
1
1
1
1
1
1
1
1
1
1
1
1
1
1
1
1
1
1
1
1
1
1
1
1
1
1
1
1
1
1
1
1
1
1
1
1
1
1
1
1
1
1
1
1
1
1
1
1
1
1
1
1
1
1
1
1
1
1
1.11549
11.6347
12.9586
13.2099
13.4405
13.431
13.3475
13.3413
13.4152
13.5086
13.5674
13.6053
13.6474
13.7011
13.7606
13.8203
13.8786
13.9403
14.0068
14.0789
14.1457
14.2078
14.2567
14.3055
14.357
14.4142
14.4774
14.5569
14.6388
14.731
14.8439
14.9776
15.1076
15.2106
15.3219
15.4989
16.0051
17.5434
16.5315
1
1
1
1
1
1
1
1
1
1
1
1
1
1
1
1
1
1
1
1
1
1
1
1
1
1
1
1
1
1
1
1
1
1
1
1
1
1
1
1
1
1
1
1
1
1
1
1
1
1
1
1
1
1
1
1
1
1
1
1
1
1
1
1
1
1
1
1
1
1
1
1
1
1
1
1
1
1
1
1
1.00708
10.5289
13.1545
13.3543
13.3738
13.2705
13.1965
13.2634
13.367
13.4625
13.507
13.5442
13.5917
13.6547
13.7195
13.7789
13.8389
13.9
13.9658
14.0371
14.1023
14.1588
14.1984
14.2398
14.2927
14.3626
14.4384
14.5269
14.6067
14.6941
14.7968
14.9195
15.0414
15.1379
15.2597
15.4478
15.9656
17.5187
16.435
1
1
1
1
1
1
1
1
1
1
1
1
1
1
1
1
1
1
1
1
1
1
1
1
1
1
1
1
1
1
1
1
1
1
1
1
1
1
1
1
1
1
1
1
1
1
1
1
1
1
1
1
1
1
1
1
1
1
1
1
1
1
1
1
1
1
1
1
1
1
1
1
1
1
1
1
1
1
1
1
1.0005
9.65582
13.2662
13.2678
13.1597
13.0172
13.0737
13.2
13.343
13.4042
13.4386
13.4809
13.5374
13.6051
13.6701
13.7321
13.7929
13.8542
13.9209
13.9886
14.0511
14.0998
14.1347
14.1743
14.2356
14.3142
14.4023
14.4948
14.5709
14.6524
14.745
14.8565
14.9677
15.0617
15.1976
15.3974
15.9384
17.4929
16.3433
1
1
1
1
1
1
1
1
1
1
1
1
1
1
1
1
1
1
1
1
1
1
1
1
1
1
1
1
1
1
1
1
1
1
1
1
1
1
1
1
1
1
1
1
1
1
1
1
1
1
1
1
1
1
1
1
1
1
1
1
1
1
1
1
1
1
1
1
1
1
1
1
1
1
1
1
1
1
1
1
1.00004
8.2162
13.2766
13.0216
12.8259
12.8594
13.0201
13.2202
13.3011
13.3259
13.3589
13.4134
13.4837
13.5554
13.618
13.6811
13.7433
13.806
13.8692
13.9309
13.9899
14.0352
14.0705
14.117
14.1836
14.2701
14.3668
14.4567
14.5319
14.6072
14.69
14.7903
14.8902
14.9906
15.1356
15.3441
15.8915
17.4549
16.2274
1
1
1
1
1
1
1
1
1
1
1
1
1
1
1
1
1
1
1
1
1
1
1
1
1
1
1
1
1
1
1
1
1
1
1
1
1
1
1
1
1
1
1
1
1
1
1
1
1
1
1
1
1
1
1
1
1
1
1
1
1
1
1
1
1
1
1
1
1
1
1
1
1
1
1
1
1
1
1
1
1.00001
4.01293
12.517
12.6514
12.7233
12.8851
13.1179
13.2124
13.2183
13.2209
13.276
13.3508
13.4351
13.5016
13.5617
13.6258
13.6903
13.7519
13.8089
13.8654
13.9232
13.9704
14.0121
14.0669
14.1363
14.2271
14.3271
14.4152
14.4883
14.5592
14.6319
14.7184
14.8126
14.924
15.0757
15.2917
15.8567
17.4231
16.1226
1
1
1
1
1
1
1
1
1
1
1
1
1
1
1
1
1
1
1
1
1
1
1
1
1
1
1
1
1
1
1
1
1
1
1
1
1
1
1
1
1
1
1
1
1
1
1
1
1
1
1
1
1
1
1
1
1
1
1
1
1
1
1
1
1
1
1
1
1
1
1
1
1
1
1
1
1
1
1
1
1
1.05939
11.4132
12.6632
12.8123
13.0215
13.1447
13.134
13.1016
13.1309
13.2068
13.3047
13.3842
13.4435
13.5014
13.5663
13.6321
13.6913
13.743
13.797
13.8558
13.9094
13.9623
14.0211
14.0921
14.1828
14.2811
14.3689
14.4398
14.5072
14.5717
14.6437
14.7433
14.8638
15.0144
15.2293
15.7953
17.3654
15.9845
1
1
1
1
1
1
1
1
1
1
1
1
1
1
1
1
1
1
1
1
1
1
1
1
1
1
1
1
1
1
1
1
1
1
1
1
1
1
1
1
1
1
1
1
1
1
1
1
1
1
1
1
1
1
1
1
1
1
1
1
1
1
1
1
1
1
1
1
1
1
1
1
1
1
1
1
1
1
1
1
1
0.994129
10.1533
12.7692
12.9703
13.0743
13.0718
13.0022
13.0065
13.073
13.1702
13.269
13.3301
13.3795
13.4353
13.5042
13.5698
13.6262
13.6754
13.7291
13.7916
13.854
13.9178
13.9804
14.0477
14.1341
14.2273
14.3169
14.3851
14.4483
14.5074
14.5757
14.6826
14.804
14.9526
15.1688
15.7491
17.3135
15.8573
1
1
1
1
1
1
1
1
1
1
1
1
1
1
1
1
1
1
1
1
1
1
1
1
1
1
1
1
1
1
1
1
1
1
1
1
1
1
1
1
1
1
1
1
1
1
1
1
1
1
1
1
1
1
1
1
1
1
1
1
1
1
1
1
1
1
1
1
1
1
1
1
1
1
1
1
1
1
1
1
1
0.999504
8.88796
12.8723
12.9439
12.9223
12.8594
12.8512
12.9257
13.0329
13.1472
13.2149
13.2584
13.3053
13.3679
13.4412
13.5045
13.5588
13.6085
13.6646
13.7316
13.8031
13.8779
13.9385
14.0009
14.0793
14.1683
14.258
14.3228
14.3798
14.4387
14.5157
14.6282
14.7489
14.8895
15.0965
15.6731
17.2352
15.7009
1
1
1
1
1
1
1
1
1
1
1
1
1
1
1
1
1
1
1
1
1
1
1
1
1
1
1
1
1
1
1
1
1
1
1
1
1
1
1
1
1
1
1
1
1
1
1
1
1
1
1
1
1
1
1
1
1
1
1
1
1
1
1
1
1
1
1
1
1
1
1
1
1
1
1
1
1
1
1
1
1
0.999989
6.37264
12.6636
12.6625
12.6472
12.6443
12.751
12.8967
13.0347
13.0963
13.1346
13.1738
13.2291
13.3025
13.3749
13.4353
13.4911
13.5443
13.6048
13.6742
13.7536
13.8316
13.8923
13.9501
14.0188
14.1034
14.1888
14.2499
14.3047
14.3753
14.4645
14.5768
14.6956
14.8235
15.0305
15.6144
17.161
15.5549
1
1
1
1
1
1
1
1
1
1
1
1
1
1
1
1
1
1
1
1
1
1
1
1
1
1
1
1
1
1
1
1
1
1
1
1
1
1
1
1
1
1
1
1
1
1
1
1
1
1
1
1
1
1
1
1
1
1
1
1
1
1
1
1
1
1
1
1
1
1
1
1
1
1
1
1
1
1
1
1
1
1
1.22753
11.6599
12.3971
12.4931
12.5788
12.757
12.9283
12.9771
12.9995
13.0336
13.0831
13.1559
13.239
13.3037
13.3631
13.4242
13.4835
13.5474
13.6172
13.7004
13.7806
13.8422
13.8959
13.9541
14.0309
14.1106
14.1705
14.2342
14.3164
14.4123
14.5228
14.6433
14.7604
14.9608
15.5351
17.0797
15.3996
1
1
1
1
1
1
1
1
1
1
1
1
1
1
1
1
1
1
1
1
1
1
1
1
1
1
1
1
1
1
1
1
1
1
1
1
1
1
1
1
1
1
1
1
1
1
1
1
1
1
1
1
1
1
1
1
1
1
1
1
1
1
1
1
1
1
1
1
1
1
1
1
1
1
1
1
1
1
1
1
1
1
0.914347
10.5631
12.3976
12.5039
12.6506
12.8088
12.8444
12.8576
12.8819
12.9286
13.0013
13.0979
13.1732
13.2297
13.2891
13.3585
13.4244
13.49
13.5586
13.6404
13.7227
13.7861
13.8378
13.8864
13.9513
14.0248
14.0914
14.1679
14.2598
14.3635
14.4723
14.586
14.691
14.8919
15.4765
17.0016
15.2613
1
1
1
1
1
1
1
1
1
1
1
1
1
1
1
1
1
1
1
1
1
1
1
1
1
1
1
1
1
1
1
1
1
1
1
1
1
1
1
1
1
1
1
1
1
1
1
1
1
1
1
1
1
1
1
1
1
1
1
1
1
1
1
1
1
1
1
1
1
1
1
1
1
1
1
1
1
1
1
1
1
1
0.988988
9.18015
12.5366
12.6127
12.6658
12.7092
12.728
12.735
12.7814
12.8474
12.9509
13.0409
13.0999
13.1531
13.2162
13.2927
13.3649
13.4304
13.4975
13.5755
13.6583
13.7245
13.7754
13.8157
13.8683
13.9375
14.0182
14.1089
14.2058
14.307
14.4101
14.5217
14.6187
14.8156
15.4068
16.9471
15.1211
1
1
1
1
1
1
1
1
1
1
1
1
1
1
1
1
1
1
1
1
1
1
1
1
1
1
1
1
1
1
1
1
1
1
1
1
1
1
1
1
1
1
1
1
1
1
1
1
1
1
1
1
1
1
1
1
1
1
1
1
1
1
1
1
1
1
1
1
1
1
1
1
1
1
1
1
1
1
1
1
1
1
0.998662
7.44666
12.4698
12.4872
12.5175
12.5615
12.5802
12.6167
12.7
12.8039
12.9054
12.967
13.0191
13.0763
13.1471
13.2295
13.3037
13.3691
13.4341
13.5078
13.5875
13.6564
13.7079
13.7448
13.788
13.8557
13.9484
14.0498
14.1488
14.2506
14.3495
14.4526
14.5444
14.7312
15.3595
16.8795
15.0016
1
1
1
1
1
1
1
1
1
1
1
1
1
1
1
1
1
1
1
1
1
1
1
1
1
1
1
1
1
1
1
1
1
1
1
1
1
1
1
1
1
1
1
1
1
1
1
1
1
1
1
1
1
1
1
1
1
1
1
1
1
1
1
1
1
1
1
1
1
1
1
1
1
1
1
1
1
1
1
1
1
1
0.999818
3.06221
11.7099
12.1965
12.3135
12.3547
12.4472
12.571
12.684
12.7744
12.8351
12.883
12.9366
13.0039
13.0855
13.1657
13.2391
13.3053
13.3682
13.4358
13.5117
13.5826
13.6366
13.6756
13.7165
13.7814
13.8783
13.9891
14.0907
14.186
14.2744
14.3657
14.4618
14.6563
15.2967
16.8341
14.8554
1
1
1
1
1
1
1
1
1
1
1
1
1
1
1
1
1
1
1
1
1
1
1
1
1
1
1
1
1
1
1
1
1
1
1
1
1
1
1
1
1
1
1
1
1
1
1
1
1
1
1
1
1
1
1
1
1
1
1
1
1
1
1
1
1
1
1
1
1
1
1
1
1
1
1
1
1
1
1
1
1
1
0.999976
0.881116
10.7477
12.1229
12.2136
12.2962
12.4239
12.5669
12.6517
12.7111
12.7538
12.8017
12.8639
12.9459
13.0276
13.0983
13.1686
13.2377
13.2999
13.3605
13.4327
13.5056
13.5642
13.6104
13.6546
13.7173
13.8082
13.9204
14.022
14.1206
14.2063
14.2805
14.3831
14.5743
15.2654
16.7625
14.7242
1
1
1
1
1
1
1
1
1
1
1
1
1
1
1
1
1
1
1
1
1
1
1
1
1
1
1
1
1
1
1
1
1
1
1
1
1
1
1
1
1
1
1
1
1
1
1
1
1
1
1
1
1
1
1
1
1
1
1
1
1
1
1
1
1
1
1
1
1
1
1
1
1
1
1
1
1
1
1
1
1
1
0.999997
0.918923
9.48306
12.1557
12.2223
12.3158
12.4116
12.5054
12.5736
12.6221
12.6634
12.7183
12.7973
12.8874
12.9616
13.0246
13.0925
13.1677
13.2294
13.2857
13.353
13.4285
13.4935
13.5475
13.6001
13.6586
13.738
13.8396
13.9479
14.0452
14.1208
14.1844
14.2902
14.5097
15.2042
16.7187
14.6073
1
1
1
1
1
1
1
1
1
1
1
1
1
1
1
1
1
1
1
1
1
1
1
1
1
1
1
1
1
1
1
1
1
1
1
1
1
1
1
1
1
1
1
1
1
1
1
1
1
1
1
1
1
1
1
1
1
1
1
1
1
1
1
1
1
1
1
1
1
1
1
1
1
1
1
1
1
1
1
1
1
1
1
0.987587
7.99783
12.1427
12.2277
12.2585
12.33
12.4076
12.4648
12.5195
12.5713
12.6459
12.7439
12.823
12.8868
12.9437
13.0139
13.0934
13.1585
13.2121
13.2737
13.35
13.422
13.4869
13.5435
13.6046
13.6707
13.7596
13.863
13.9596
14.0344
14.1008
14.2148
14.4326
15.1806
16.6552
14.4386
1
1
1
1
1
1
1
1
1
1
1
1
1
1
1
1
1
1
1
1
1
1
1
1
1
1
1
1
1
1
1
1
1
1
1
1
1
1
1
1
1
1
1
1
1
1
1
1
1
1
1
1
1
1
1
1
1
1
1
1
1
1
1
1
1
1
1
1
1
1
1
1
1
1
1
1
1
1
1
1
1
1
1
0.998094
5.18823
11.7544
12.0438
12.1419
12.2151
12.2837
12.3351
12.4137
12.4977
12.593
12.6806
12.7437
12.8003
12.8622
12.935
13.0174
13.0857
13.1405
13.1963
13.2707
13.3541
13.4238
13.4881
13.5395
13.5999
13.6733
13.7589
13.8502
13.9299
14.0114
14.1343
14.3559
15.1195
16.5594
14.2929
1
1
1
1
1
1
1
1
1
1
1
1
1
1
1
1
1
1
1
1
1
1
1
1
1
1
1
1
1
1
1
1
1
1
1
1
1
1
1
1
1
1
1
1
1
1
1
1
1
1
1
1
1
1
1
1
1
1
1
1
1
1
1
1
1
1
1
1
1
1
1
1
1
1
1
1
1
1
1
1
1
1
1
0.999689
1.20996
10.8955
11.8447
11.9657
12.0521
12.1374
12.2347
12.3388
12.4396
12.5288
12.5952
12.6501
12.7115
12.7797
12.8607
12.9368
13.0106
13.0684
13.1229
13.1948
13.2805
13.3591
13.4166
13.4757
13.5259
13.5897
13.6687
13.7485
13.8346
13.936
14.0525
14.2897
15.028
16.4733
14.1545
1
1
1
1
1
1
1
1
1
1
1
1
1
1
1
1
1
1
1
1
1
1
1
1
1
1
1
1
1
1
1
1
1
1
1
1
1
1
1
1
1
1
1
1
1
1
1
1
1
1
1
1
1
1
1
1
1
1
1
1
1
1
1
1
1
1
1
1
1
1
1
1
1
1
1
1
1
1
1
1
1
1
1
0.999946
0.81231
9.85966
11.8152
11.9054
11.9953
12.0731
12.1703
12.2805
12.374
12.4492
12.5054
12.5582
12.6257
12.7075
12.785
12.8557
12.9338
12.9984
13.0574
13.1195
13.2048
13.2835
13.3533
13.3999
13.4495
13.5074
13.5778
13.6423
13.7369
13.8304
13.9709
14.1857
15.0103
16.4341
13.9759
1
1
1
1
1
1
1
1
1
1
1
1
1
1
1
1
1
1
1
1
1
1
1
1
1
1
1
1
1
1
1
1
1
1
1
1
1
1
1
1
1
1
1
1
1
1
1
1
1
1
1
1
1
1
1
1
1
1
1
1
1
1
1
1
1
1
1
1
1
1
1
1
1
1
1
1
1
1
1
1
1
1
1
0.999992
0.937371
8.3787
11.8781
11.9067
11.9742
12.0256
12.1
12.2085
12.3045
12.3605
12.4172
12.4767
12.5587
12.6357
12.7075
12.7733
12.853
12.9332
12.9885
13.0475
13.1231
13.209
13.2679
13.3261
13.3746
13.4215
13.48
13.5441
13.6503
13.7613
13.8667
14.1316
14.9098
16.2802
13.8414
1
1
1
1
1
1
1
1
1
1
1
1
1
1
1
1
1
1
1
1
1
1
1
1
1
1
1
1
1
1
1
1
1
1
1
1
1
1
1
1
1
1
1
1
1
1
1
1
1
1
1
1
1
1
1
1
1
1
1
1
1
1
1
1
1
1
1
1
1
1
1
1
1
1
1
1
1
1
1
1
1
1
1
0.999997
0.987671
6.58022
11.6876
11.8177
11.8791
11.9646
12.0463
12.136
12.2117
12.2648
12.3255
12.4021
12.4869
12.5671
12.6316
12.6936
12.7758
12.8563
12.9283
12.9744
13.0374
13.1171
13.1932
13.2473
13.2884
13.3407
13.3963
13.4545
13.5529
13.6481
13.791
14.0164
14.8304
16.1928
13.6517
1
1
1
1
1
1
1
1
1
1
1
1
1
1
1
1
1
1
1
1
1
1
1
1
1
1
1
1
1
1
1
1
1
1
1
1
1
1
1
1
1
1
1
1
1
1
1
1
1
1
1
1
1
1
1
1
1
1
1
1
1
1
1
1
1
1
1
1
1
1
1
1
1
1
1
1
1
1
1
1
1
1
1
0.999999
0.997553
2.60393
10.9332
11.6181
11.7868
11.8806
11.9606
12.032
12.1026
12.172
12.2494
12.3354
12.4212
12.492
12.5517
12.621
12.698
12.7897
12.8524
12.907
12.9541
13.0296
13.1033
13.1609
13.2136
13.255
13.3104
13.3847
13.4653
13.577
13.6753
13.9044
14.7563
16.0165
13.5059
1
1
1
1
1
1
1
1
1
1
1
1
1
1
1
1
1
1
1
1
1
1
1
1
1
1
1
1
1
1
1
1
1
1
1
1
1
1
1
1
1
1
1
1
1
1
1
1
1
1
1
1
1
1
1
1
1
1
1
1
1
1
1
1
1
1
1
1
1
1
1
1
1
1
1
1
1
1
1
1
1
1
1
1
0.999527
0.738878
10.1293
11.521
11.6491
11.7387
11.8323
11.9205
12.0181
12.0966
12.1815
12.2731
12.3491
12.4121
12.4844
12.5459
12.626
12.7077
12.7858
12.8289
12.8764
12.9373
13.0151
13.0828
13.119
13.1819
13.246
13.2978
13.3862
13.4619
13.5895
13.8252
14.6167
15.9079
13.3438
1
1
1
1
1
1
1
1
1
1
1
1
1
1
1
1
1
1
1
1
1
1
1
1
1
1
1
1
1
1
1
1
1
1
1
1
1
1
1
1
1
1
1
1
1
1
1
1
1
1
1
1
1
1
1
1
1
1
1
1
1
1
1
1
1
1
1
1
1
1
1
1
1
1
1
1
1
1
1
1
1
1
1
1
0.999902
0.778503
8.96999
11.5261
11.5848
11.6745
11.7552
11.8338
11.9178
12.0102
12.1236
12.2156
12.2699
12.336
12.4033
12.4818
12.5515
12.6233
12.6973
12.7637
12.7965
12.8479
12.924
12.9768
13.0523
13.0965
13.1562
13.2399
13.294
13.3963
13.4677
13.6826
14.5334
15.751
13.217
1
1
1
1
1
1
1
1
1
1
1
1
1
1
1
1
1
1
1
1
1
1
1
1
1
1
1
1
1
1
1
1
1
1
1
1
1
1
1
1
1
1
1
1
1
1
1
1
1
1
1
1
1
1
1
1
1
1
1
1
1
1
1
1
1
1
1
1
1
1
1
1
1
1
1
1
1
1
1
1
1
1
1
1
0.999964
0.93648
7.42144
11.4697
11.5651
11.6309
11.6782
11.7444
11.8412
11.9575
12.0717
12.1316
12.1873
12.2494
12.3267
12.4149
12.4686
12.5314
12.6228
12.6737
12.7266
12.7629
12.8228
12.9072
12.9552
13.0395
13.0974
13.1365
13.2226
13.275
13.3792
13.6009
14.4054
15.6699
13.0659
1
1
1
1
1
1
1
1
1
1
1
1
1
1
1
1
1
1
1
1
1
1
1
1
1
1
1
1
1
1
1
1
1
1
1
1
1
1
1
1
1
1
1
1
1
1
1
1
1
1
1
1
1
1
1
1
1
1
1
1
1
1
1
1
1
1
1
1
1
1
1
1
1
1
1
1
1
1
1
1
1
1
1
1
0.999988
0.985559
5.20269
11.1055
11.4146
11.5293
11.6118
11.6917
11.7884
11.9089
11.983
12.0421
12.1006
12.1608
12.2589
12.3283
12.3897
12.4457
12.5202
12.604
12.6386
12.6847
12.7384
12.8026
12.8904
12.9393
12.9963
13.0807
13.1137
13.197
13.2553
13.4694
14.3514
15.5123
12.9712
1
1
1
1
1
1
1
1
1
1
1
1
1
1
1
1
1
1
1
1
1
1
1
1
1
1
1
1
1
1
1
1
1
1
1
1
1
1
1
1
1
1
1
1
1
1
1
1
1
1
1
1
1
1
1
1
1
1
1
1
1
1
1
1
1
1
1
1
1
1
1
1
1
1
1
1
1
1
1
1
1
1
1
1
1
0.996671
1.28369
10.3358
11.2513
11.4288
11.5314
11.6308
11.726
11.809
11.8766
11.9406
12.0051
12.0896
12.1724
12.2417
12.3104
12.3546
12.4302
12.506
12.5766
12.602
12.6491
12.7253
12.7905
12.8685
12.9344
12.963
13.0362
13.0705
13.17
13.4038
14.2339
15.4387
12.8085
1
1
1
1
1
1
1
1
1
1
1
1
1
1
1
1
1
1
1
1
1
1
1
1
1
1
1
1
1
1
1
1
1
1
1
1
1
1
1
1
1
1
1
1
1
1
1
1
1
1
1
1
1
1
1
1
1
1
1
1
1
1
1
1
1
1
1
1
1
1
1
1
1
1
1
1
1
1
1
1
1
1
1
1
1
0.999352
0.634252
9.56623
11.2031
11.3195
11.3999
11.511
11.6073
11.688
11.7672
11.8351
11.9156
12.0129
12.0802
12.1528
12.2113
12.2837
12.3415
12.4258
12.4769
12.5428
12.566
12.6207
12.6985
12.7695
12.8218
12.8812
12.9094
12.9809
13.0461
13.2765
14.1803
15.277
12.6828
1
1
1
1
1
1
1
1
1
1
1
1
1
1
1
1
1
1
1
1
1
1
1
1
1
1
1
1
1
1
1
1
1
1
1
1
1
1
1
1
1
1
1
1
1
1
1
1
1
1
1
1
1
1
1
1
1
1
1
1
1
1
1
1
1
1
1
1
1
1
1
1
1
1
1
1
1
1
1
1
1
1
1
1
1
0.999748
0.791688
8.16237
11.2134
11.2652
11.3494
11.4254
11.5084
11.5941
11.6609
11.7445
11.8497
11.9325
12.0029
12.0549
12.1387
12.1986
12.2645
12.326
12.414
12.4464
12.5015
12.524
12.5961
12.6507
12.7103
12.7802
12.8245
12.8546
12.9672
13.2075
14.0511
15.1899
12.5282
1
1
1
1
1
1
1
1
1
1
1
1
1
1
1
1
1
1
1
1
1
1
1
1
1
1
1
1
1
1
1
1
1
1
1
1
1
1
1
1
1
1
1
1
1
1
1
1
1
1
1
1
1
1
1
1
1
1
1
1
1
1
1
1
1
1
1
1
1
1
1
1
1
1
1
1
1
1
1
1
1
1
1
1
1
0.999911
0.936611
6.30716
11.0471
11.2013