/*--------------------------------*- C++ -*----------------------------------*\
| =========                 |                                                 |
| \\      /  F ield         | OpenFOAM: The Open Source CFD Toolbox           |
|  \\    /   O peration     | Version:  2.2.x                                 |
|   \\  /    A nd           | Web:      www.OpenFOAM.org                      |
|    \\/     M anipulation  |                                                 |
\*---------------------------------------------------------------------------*/
FoamFile
{
    version     2.0;
    format      ascii;
    class       volScalarField;
    location    "0.1";
    object      p;
}
// * * * * * * * * * * * * * * * * * * * * * * * * * * * * * * * * * * * * * //

dimensions      [1 -1 -2 0 0 0 0];

internalField   nonuniform List<scalar> 
1024
(
0.1
0.1
0.1
0.1
0.1
0.1
0.1
0.1
0.1
0.1
0.1
0.1
0.1
0.1
0.1
0.1
0.1
0.1
0.1
0.1
0.1
0.1
0.1
0.1
0.1
0.1
0.1
0.1
0.1
0.1
0.1
0.1
0.1
0.1
0.1
0.1
0.1
0.1
0.1
0.1
0.1
0.1
0.1
0.1
0.1
0.1
0.1
0.1
0.1
0.1
0.1
0.1
0.1
0.1
0.1
0.1
0.1
0.1
0.1
0.1
0.1
0.1
0.1
0.1
0.1
0.1
0.1
0.1
0.1
0.1
0.1
0.1
0.1
0.1
0.1
0.1
0.1
0.1
0.1
0.1
0.1
0.1
0.1
0.1
0.1
0.1
0.1
0.1
0.1
0.1
0.1
0.1
0.1
0.1
0.1
0.1
0.1
0.1
0.1
0.1
0.1
0.1
0.1
0.1
0.1
0.1
0.1
0.1
0.1
0.0999999
0.0999999
0.0999999
0.0999998
0.0999997
0.0999995
0.0999992
0.0999988
0.0999982
0.0999973
0.099996
0.0999941
0.0999914
0.0999875
0.099982
0.0999743
0.0999636
0.0999492
0.0999297
0.0999039
0.0998701
0.0998265
0.0997711
0.099702
0.0996171
0.0995145
0.0993928
0.0992507
0.099088
0.098904
0.0986986
0.0984692
0.0982132
0.0979938
0.0977103
0.0975403
0.0972483
0.0970964
0.0968287
0.09666
0.0964013
0.0962123
0.0959577
0.0957475
0.0954553
0.0952524
0.0949206
0.0947822
0.094437
0.094345
0.0940238
0.0939176
0.0936298
0.093489
0.0932148
0.0930294
0.0927051
0.0925103
0.0921008
0.092035
0.0916066
0.0916235
0.0912555
0.0912276
0.0909374
0.0908044
0.0905172
0.0903385
0.0899715
0.0898774
0.0895102
0.0895351
0.0892829
0.0891232
0.0889727
0.0887887
0.0885891
0.0885118
0.0882627
0.0883193
0.0880768
0.0881876
0.0879988
0.0880662
0.0879456
0.0879884
0.0879116
0.0879439
0.0879108
0.0879027
0.0879202
0.0879003
0.087926
0.0879227
0.0879646
0.0879524
0.088028
0.0879933
0.0880725
0.0880459
0.0881086
0.0880932
0.0881441
0.088135
0.0881753
0.0881688
0.088203
0.0881984
0.0882226
0.0882174
0.0882314
0.0882346
0.0882389
0.0882336
0.0882364
0.088232
0.0882301
0.0882266
0.0882292
0.0882285
0.0882388
0.088242
0.0882472
0.0882404
0.0882489
0.0882417
0.0882408
0.0882353
0.0882378
0.088233
0.0882349
0.0882258
0.0882235
0.08821
0.0882071
0.0881954
0.0881914
0.0881809
0.0881746
0.0881681
0.0881652
0.0881674
0.0881695
0.0881701
0.0881675
0.0881673
0.0881731
0.0881726
0.0881765
0.0881739
0.0881764
0.0881753
0.088175
0.0881706
0.0881739
0.0881656
0.0881636
0.0881659
0.0881577
0.088161
0.0881525
0.0881588
0.0881503
0.0881557
0.0881483
0.0881517
0.0881477
0.0881468
0.0881426
0.0881403
0.0881376
0.0881398
0.0881341
0.088132
0.0881226
0.0881302
0.0881211
0.0881243
0.0881179
0.0881185
0.0881163
0.0881203
0.0881193
0.0881251
0.0881272
0.0881357
0.0881377
0.0881413
0.0881403
0.0881424
0.0881412
0.0881432
0.0881406
0.0881462
0.0881436
0.0881474
0.0881468
0.0881462
0.0881477
0.088145
0.0881434
0.0881394
0.0881347
0.0881304
0.0881233
0.0881154
0.0881069
0.0880996
0.0881023
0.0880967
0.0881023
0.0880992
0.0881065
0.0881044
0.0881072
0.0881061
0.0881076
0.0881089
0.088109
0.0881093
0.0881083
0.0881067
0.0881058
0.0881025
0.0881049
0.0881042
0.0881016
0.0881078
0.0881039
0.0881061
0.0881094
0.0881118
0.0881109
0.0881157
0.0881208
0.0881197
0.0881216
0.0881189
0.0881196
0.0881175
0.0881181
0.0881139
0.0881187
0.088117
0.0881173
0.0881197
0.0881216
0.0881232
0.0881281
0.0881256
0.0881303
0.0881259
0.0881282
0.0881265
0.0881266
0.0881261
0.0881226
0.0881242
0.0881223
0.0881217
0.0881217
0.0881364
0.0882922
0.0897414
0.102797
0.234296
0.414483
0.492367
0.498227
0.513248
0.512066
0.510133
0.509864
0.509405
0.509857
0.51006
0.509987
0.509888
0.509884
0.509936
0.509981
0.509983
0.509962
0.509951
0.509945
0.509933
0.509918
0.509914
0.509915
0.509922
0.509932
0.509946
0.509966
0.509979
0.509983
0.509979
0.509969
0.509956
0.509937
0.50992
0.509907
0.509899
0.509895
0.509899
0.50991
0.509924
0.509931
0.509927
0.509919
0.509903
0.509879
0.509857
0.509844
0.50984
0.509843
0.509852
0.509867
0.509885
0.509895
0.509893
0.509879
0.509858
0.509836
0.509812
0.509783
0.509759
0.509747
0.509741
0.509739
0.509736
0.509733
0.50973
0.509722
0.509712
0.509695
0.509671
0.509639
0.509619
0.509611
0.509615
0.509626
0.509635
0.509629
0.509597
0.509542
0.509487
0.509456
0.509456
0.509495
0.509553
0.509591
0.509596
0.509572
0.509525
0.509482
0.50948
0.50953
0.509577
0.509585
0.509542
0.509457
0.509358
0.509287
0.509281
0.509376
0.509454
0.509458
0.50939
0.509259
0.509146
0.509098
0.50912
0.509285
0.509467
0.509531
0.509517
0.509313
0.509054
0.508942
0.508908
0.509075
0.509423
0.509593
0.509614
0.509404
0.508888
0.508588
0.508485
0.508619
0.509222
0.509641
0.509757
0.509633
0.508828
0.508038
0.507687
0.50767
0.508515
0.509706
0.510213
0.510235
0.50897
0.507947
0.508144
0.508944
0.511419
0.514923
0.517846
0.520312
0.521183
0.523264
0.527213
0.532799
0.539838
0.548809
0.558037
0.566828
0.573023
0.578039
0.584432
0.592736
0.603318
0.61815
0.631433
0.641282
0.643463
0.649254
0.661237
0.683292
0.712728
0.739841
0.744479
0.676414
0.56838
0.501439
0.486198
0.483164
0.482562
0.482423
0.482376
0.482361
0.482352
0.482339
0.482324
0.482299
0.482269
0.482242
0.482217
0.482193
0.482174
0.482154
0.482139
0.482138
0.482145
0.482139
0.482124
0.48209
0.482043
0.481962
0.481886
0.481745
0.481459
0.481096
0.480631
0.479988
0.479379
0.478895
0.478634
0.478489
0.478514
0.478868
0.479196
0.479524
0.480583
0.482049
0.48317
0.485071
0.487507
0.48982
0.49251
0.495794
0.498953
0.502373
0.506016
0.50971
0.513516
0.517499
0.521422
0.525387
0.529418
0.533508
0.537619
0.541744
0.54589
0.55006
0.554259
0.558476
0.562725
0.566981
0.571268
0.575594
0.57993
0.584323
0.588711
0.593141
0.597591
0.602056
0.606579
0.611096
0.615683
0.620263
0.624907
0.629548
0.63424
0.638926
0.643668
0.648399
0.653199
0.657979
0.66285
0.667698
0.672634
0.677569
0.682553
0.687536
0.692565
0.697575
0.70267
0.707744
0.712918
0.718094
0.723336
0.728582
0.733873
0.739159
0.744498
0.749832
0.75523
0.760634
0.766094
0.771565
0.777083
0.782611
0.788182
0.793762
0.799386
0.805019
0.810699
0.816386
0.822126
0.827873
0.833673
0.839485
0.845345
0.851225
0.857141
0.863084
0.869054
0.875047
0.881059
0.887088
0.893127
0.89917
0.905209
0.91122
0.917197
0.923134
0.929019
0.934838
0.94057
0.946189
0.951668
0.956972
0.962064
0.966905
0.971457
0.975684
0.979553
0.983041
0.986135
0.988831
0.991139
0.993077
0.994675
0.995968
0.996993
0.997792
0.998402
0.998861
0.9992
0.999445
0.999621
0.999744
0.99983
0.999888
0.999927
0.999953
0.99997
0.999981
0.999988
0.999993
0.999996
0.999997
0.999998
0.999999
0.999999
1
1
1
1
1
1
1
1
1
1
1
1
1
1
1
1
1
1
1
1
1
1
1
1
1
1
1
1
1
1
1
1
1
1
1
1
1
1
1
1
1
1
1
1
1
1
1
1
1
1
1
1
1
1
1
1
1
1
1
1
1
1
1
1
1
1
1
1
1
1
1
1
1
1
1
1
1
1
1
1
1
1
1
1
1
1
1
1
1
1
1
1
1
1
1
1
1
1
1
1
1
1
1
1
1
1
1
1
1
1
1
1
1
1
1
1
1
1
1
1
1
1
1
1
1
1
1
1
1
1
1
1
1
1
1
1
1
1
1
1
1
1
1
1
1
1
1
1
1
1
1
1
1
1
1
1
1
1
1
1
1
1
1
1
1
1
1
1
1
1
1
1
1
1
1
1
1
1
1
1
1
1
1
1
1
1
1
1
1
1
1
1
1
1
1
1
1
1
1
1
1
1
1
1
1
1
1
1
1
1
1
1
1
1
1
1
1
1
1
1
1
1
1
1
1
1
1
1
1
1
1
1
1
1
1
1
1
1
1
1
1
1
1
1
1
1
1
1
1
1
1
1
1
1
1
1
1
1
1
1
1
1
1
1
1
1
1
1
1
1
1
1
1
1
1
1
1
1
1
1
1
1
1
1
1
1
1
1
1
1
1
1
1
1
1
1
1
1
1
1
1
1
1
1
1
1
1
1
1
)
;

boundaryField
{
    front-back
    {
        type            empty;
    }
    inlet-outlet
    {
        type            zeroGradient;
    }
    top-down
    {
        type            empty;
    }
}


// ************************************************************************* //
