/*--------------------------------*- C++ -*----------------------------------*\
| =========                 |                                                 |
| \\      /  F ield         | OpenFOAM: The Open Source CFD Toolbox           |
|  \\    /   O peration     | Version:  2.2.x                                 |
|   \\  /    A nd           | Web:      www.OpenFOAM.org                      |
|    \\/     M anipulation  |                                                 |
\*---------------------------------------------------------------------------*/
FoamFile
{
    version     2.0;
    format      ascii;
    class       volScalarField;
    location    "1.65";
    object      p;
}
// * * * * * * * * * * * * * * * * * * * * * * * * * * * * * * * * * * * * * //

dimensions      [1 -1 -2 0 0 0 0];

internalField   nonuniform List<scalar> 
14161
(
0.199642
0.199652
0.199625
0.199579
0.199507
0.199412
0.199289
0.19913
0.198952
0.198734
0.198464
0.198176
0.197855
0.197433
0.197018
0.196587
0.195979
0.195427
0.194955
0.194228
0.193509
0.193127
0.192655
0.19179
0.191365
0.19111
0.190803
0.190734
0.190739
0.190895
0.191268
0.191935
0.192891
0.193845
0.195312
0.197561
0.199612
0.202511
0.207743
0.211882
0.21525
0.219316
0.225936
0.230521
1.0778
1.59599
1.64769
1.65949
1.64964
1.63955
1.61064
1.58927
1.55679
1.53074
1.50499
1.47851
1.45355
1.4308
1.41014
1.3902
1.37046
1.35197
1.33581
1.32153
1.30978
1.29736
1.2867
1.27685
1.26625
1.25704
1.24847
1.24017
1.23438
1.23191
1.23224
1.22452
1.21409
1.20107
1.18866
1.1772
1.16828
1.16434
1.15475
1.14578
1.13593
1.12431
1.11087
1.09879
1.09182
1.08012
1.06899
1.03427
1.01253
0.992203
0.972223
0.956752
0.943594
0.923379
0.902178
0.874165
0.846397
0.822607
0.803453
0.796437
0.798799
0.819407
0.854837
0.943084
1.1472
1.37921
1.57025
1.71238
1.80569
1.86653
1.90981
1.9431
1.96701
1.97826
2.01043
0.199641
0.199652
0.199625
0.199578
0.199507
0.199412
0.199288
0.199131
0.198952
0.198733
0.198463
0.198176
0.197852
0.197434
0.197022
0.196582
0.195978
0.195449
0.19494
0.194201
0.193551
0.193131
0.192594
0.191829
0.191409
0.191065
0.190768
0.190709
0.190709
0.190853
0.19121
0.191861
0.192797
0.193727
0.195184
0.197443
0.199554
0.20243
0.207272
0.211613
0.215224
0.219213
0.226163
0.23764
1.08473
1.59632
1.65154
1.66148
1.64768
1.63631
1.60612
1.58549
1.55297
1.5269
1.50065
1.47441
1.44886
1.42603
1.40511
1.38551
1.36552
1.34711
1.33097
1.31615
1.30347
1.29187
1.28128
1.27142
1.26154
1.25138
1.24193
1.23373
1.22662
1.22136
1.21794
1.21258
1.2047
1.19481
1.18295
1.17284
1.16398
1.15741
1.14775
1.1384
1.12908
1.11842
1.10515
1.09215
1.08159
1.07016
1.05892
1.02839
1.01006
0.992749
0.974329
0.957676
0.938072
0.916369
0.892913
0.865102
0.83931
0.822156
0.80872
0.812926
0.831044
0.880459
0.978091
1.16157
1.40446
1.60159
1.73365
1.82153
1.87792
1.91608
1.94512
1.96785
1.98206
1.97795
2.0126
0.199641
0.199652
0.199625
0.199578
0.199508
0.199412
0.199288
0.199132
0.198951
0.19873
0.198463
0.198177
0.197847
0.197437
0.197022
0.196575
0.19599
0.195464
0.19492
0.194212
0.193603
0.193073
0.192538
0.191898
0.191376
0.19097
0.190717
0.190661
0.190644
0.190745
0.191063
0.191672
0.192544
0.193417
0.194852
0.197053
0.199286
0.202076
0.206019
0.210658
0.214582
0.218409
0.224693
0.239685
1.07964
1.59311
1.65438
1.66319
1.64499
1.63226
1.59891
1.57649
1.54316
1.51655
1.48969
1.46386
1.43886
1.41463
1.39266
1.37286
1.35418
1.33562
1.31893
1.30395
1.29084
1.28083
1.27086
1.26107
1.2517
1.24358
1.23479
1.22639
1.21851
1.20975
1.20077
1.194
1.18959
1.18565
1.17662
1.16704
1.15769
1.14927
1.13908
1.129
1.11926
1.11058
1.09729
1.08346
1.06994
1.0578
1.0483
1.02215
1.00684
0.992063
0.974294
0.956041
0.933953
0.909094
0.882841
0.858976
0.842754
0.833146
0.831543
0.858982
0.907787
1.01497
1.18878
1.3905
1.58359
1.71291
1.80235
1.8603
1.89962
1.92923
1.95181
1.96765
1.97633
1.96601
1.99825
0.199642
0.199652
0.199625
0.199578
0.199508
0.199412
0.199286
0.199134
0.198951
0.198726
0.198465
0.19818
0.197838
0.197439
0.197025
0.196557
0.196009
0.195467
0.194879
0.194231
0.193654
0.192982
0.192474
0.191948
0.191328
0.190804
0.190625
0.190587
0.190541
0.190545
0.190806
0.191341
0.192065
0.192905
0.194283
0.196347
0.198638
0.200987
0.204298
0.208678
0.213154
0.217499
0.223186
0.236912
1.06814
1.58721
1.65391
1.66417
1.63759
1.62678
1.58881
1.56554
1.53099
1.50205
1.47299
1.44578
1.42021
1.39466
1.37066
1.35005
1.33128
1.31326
1.29655
1.28166
1.2681
1.25788
1.24899
1.24006
1.23147
1.22347
1.21519
1.20735
1.1984
1.19003
1.18157
1.17312
1.16644
1.16433
1.16206
1.15318
1.14348
1.13364
1.12318
1.11278
1.10185
1.09441
1.08118
1.06748
1.05583
1.04372
1.03457
1.0111
0.996699
0.98029
0.962902
0.943649
0.921493
0.894804
0.876486
0.861552
0.855527
0.862195
0.880125
0.956278
1.09016
1.28889
1.48717
1.65039
1.74387
1.80925
1.85855
1.89138
1.92036
1.94231
1.95631
1.96346
1.96696
1.95377
1.98284
0.199642
0.199652
0.199626
0.199578
0.199509
0.199412
0.199285
0.199138
0.198951
0.198724
0.198469
0.198184
0.197828
0.197441
0.197037
0.196534
0.196016
0.195489
0.194821
0.194242
0.193702
0.192909
0.192394
0.191961
0.191322
0.190662
0.190471
0.190455
0.190369
0.190265
0.190426
0.19085
0.191368
0.192179
0.193403
0.195285
0.197393
0.199274
0.201838
0.205401
0.21072
0.215997
0.220843
0.23092
1.05203
1.58243
1.65356
1.66212
1.62564
1.6127
1.56851
1.54244
1.50678
1.47636
1.44588
1.41763
1.39309
1.36698
1.34075
1.31962
1.3008
1.28249
1.26616
1.25092
1.23808
1.22689
1.21844
1.20916
1.20114
1.19351
1.18734
1.18134
1.17391
1.16513
1.15541
1.14668
1.13828
1.13371
1.1351
1.12998
1.12079
1.11149
1.10197
1.09215
1.08135
1.07376
1.05919
1.04612
1.03506
1.02438
1.01659
0.996046
0.98218
0.966035
0.947515
0.926146
0.906778
0.888475
0.878745
0.874088
0.887977
0.927555
1.00089
1.16657
1.36746
1.55146
1.68581
1.75883
1.80949
1.85051
1.87704
1.90494
1.93035
1.94618
1.95415
1.95524
1.95462
1.94283
1.96695
0.199643
0.199652
0.199626
0.199578
0.199509
0.199412
0.199285
0.19914
0.198953
0.198721
0.198474
0.198189
0.197821
0.197446
0.197049
0.196515
0.19602
0.19551
0.194788
0.194238
0.193732
0.19288
0.192314
0.191943
0.19134
0.19054
0.190261
0.19021
0.190139
0.189971
0.189898
0.190151
0.1905
0.191188
0.19215
0.19372
0.195432
0.197099
0.198682
0.201711
0.206616
0.213358
0.21832
0.227925
1.02694
1.57561
1.64991
1.65743
1.60908
1.59336
1.54125
1.51048
1.47402
1.44184
1.40917
1.37843
1.35215
1.32735
1.30281
1.27857
1.25865
1.24111
1.22294
1.20836
1.19611
1.185
1.1775
1.16708
1.15879
1.15173
1.1462
1.14098
1.13552
1.13064
1.12327
1.11521
1.10639
1.10034
1.09664
1.09418
1.08606
1.07856
1.07044
1.06134
1.05183
1.04495
1.03225
1.02055
1.00928
0.998668
0.99137
0.973719
0.962406
0.948459
0.930729
0.915009
0.904468
0.890823
0.90273
0.916567
0.967088
1.07768
1.24127
1.43523
1.60448
1.69939
1.75472
1.80019
1.83439
1.85896
1.88342
1.91156
1.93185
1.94287
1.9483
1.94548
1.94243
1.93335
1.95162
0.199643
0.199653
0.199627
0.199579
0.19951
0.199413
0.199285
0.199141
0.198954
0.198721
0.198477
0.198192
0.197819
0.19745
0.197058
0.196509
0.19602
0.195515
0.194784
0.194233
0.193717
0.192885
0.192268
0.191902
0.191306
0.190416
0.190018
0.189853
0.189814
0.189593
0.189379
0.189243
0.18941
0.189833
0.190517
0.191475
0.192732
0.194152
0.195361
0.197409
0.20082
0.207303
0.212881
0.223629
0.96349
1.55857
1.64098
1.64457
1.57973
1.55808
1.49846
1.46082
1.42385
1.39151
1.35851
1.32687
1.30042
1.27489
1.25378
1.23182
1.21074
1.19442
1.17727
1.16231
1.15025
1.13873
1.13136
1.122
1.11355
1.10746
1.10193
1.0954
1.08886
1.0832
1.08183
1.07834
1.07114
1.06576
1.05948
1.05473
1.04768
1.04143
1.03438
1.0266
1.01925
1.01436
1.00526
0.995778
0.985984
0.976165
0.970324
0.956568
0.948477
0.938677
0.920649
0.918333
0.924348
0.915701
0.968885
1.02708
1.14715
1.33057
1.50089
1.63891
1.70012
1.74041
1.77838
1.81241
1.83745
1.86096
1.88701
1.91094
1.92711
1.9351
1.93962
1.93544
1.93165
1.92418
1.93757
0.199645
0.199654
0.199628
0.19958
0.19951
0.199415
0.199287
0.199141
0.198956
0.198723
0.198477
0.198195
0.197819
0.197451
0.19706
0.196513
0.196016
0.195504
0.19481
0.194227
0.193669
0.1929
0.192248
0.191788
0.1912
0.190358
0.189756
0.189402
0.189345
0.189137
0.188864
0.18826
0.188035
0.188114
0.188393
0.188817
0.189408
0.190215
0.191168
0.19237
0.193955
0.197363
0.202813
0.217253
0.845938
1.52931
1.63033
1.61892
1.53894
1.50302
1.43783
1.39296
1.3559
1.32633
1.29673
1.26836
1.24527
1.21953
1.19779
1.17959
1.15837
1.14282
1.12808
1.11332
1.10136
1.09099
1.08202
1.07387
1.06712
1.06099
1.05473
1.04955
1.04445
1.03928
1.03842
1.03848
1.0321
1.02539
1.01977
1.01508
1.00961
1.00656
1.00405
0.999292
0.9936
0.990415
0.982982
0.976899
0.97086
0.963023
0.959365
0.947632
0.943566
0.945285
0.929575
0.953853
0.979156
0.993538
1.11519
1.24978
1.40883
1.56298
1.65816
1.69596
1.72287
1.75053
1.78192
1.80925
1.8315
1.85834
1.88479
1.90562
1.91894
1.9253
1.92917
1.9256
1.92195
1.91543
1.92542
0.199646
0.199655
0.199629
0.199582
0.19951
0.199417
0.199291
0.19914
0.198959
0.198728
0.198476
0.198197
0.197826
0.19745
0.197055
0.196531
0.196011
0.195486
0.194862
0.194205
0.193603
0.192919
0.192228
0.191599
0.191019
0.190332
0.189556
0.188988
0.188784
0.188591
0.188239
0.187436
0.186515
0.185982
0.185723
0.185679
0.185629
0.185452
0.185646
0.185608
0.185244
0.184859
0.185619
0.201314
0.655113
1.47751
1.62121
1.57077
1.48052
1.41802
1.35813
1.31628
1.28511
1.25973
1.23471
1.20791
1.18955
1.16541
1.14835
1.13018
1.1122
1.09723
1.08034
1.0678
1.05696
1.04731
1.04039
1.03144
1.02404
1.02006
1.01562
1.00986
1.00494
1.00071
0.998621
1.00094
0.997351
0.991141
0.985981
0.983951
0.981321
0.983107
0.982224
0.980097
0.975658
0.973199
0.970708
0.966889
0.966999
0.959043
0.961297
0.959538
0.960979
0.980106
0.978348
1.0356
1.10647
1.18504
1.35488
1.5024
1.61906
1.67459
1.69767
1.70886
1.72406
1.74887
1.77356
1.79882
1.82574
1.85401
1.87857
1.89628
1.90793
1.91402
1.9179
1.91578
1.9126
1.90674
1.91512
0.199648
0.199657
0.19963
0.199584
0.199511
0.199419
0.199295
0.199139
0.198963
0.198736
0.198477
0.198198
0.19784
0.197448
0.197048
0.196564
0.196007
0.195466
0.194894
0.19419
0.19352
0.192904
0.192251
0.191447
0.190831
0.190195
0.189388
0.188678
0.188248
0.187894
0.187396
0.186504
0.185222
0.18405
0.183016
0.182264
0.18147
0.180275
0.179156
0.178152
0.175627
0.171405
0.162355
0.171286
0.371356
1.32867
1.61984
1.49012
1.41514
1.33636
1.27758
1.24029
1.21625
1.19244
1.17604
1.1463
1.13602
1.11152
1.10002
1.0832
1.0664
1.05483
1.03767
1.02629
1.01684
1.00818
0.999555
0.992649
0.987648
0.984072
0.98321
0.979854
0.973023
0.968361
0.966005
0.967559
0.968553
0.968509
0.966981
0.966918
0.965166
0.966103
0.968332
0.969189
0.967063
0.97213
0.97425
0.968965
0.979954
0.972749
0.990797
1.00328
1.00583
1.05626
1.09965
1.21144
1.33722
1.45556
1.5884
1.66497
1.68748
1.70008
1.70212
1.70633
1.72162
1.74219
1.76438
1.79211
1.82031
1.84837
1.86964
1.88482
1.89585
1.90195
1.90636
1.9063
1.90377
1.8984
1.90609
0.19965
0.199659
0.199632
0.199586
0.199513
0.199421
0.199298
0.199141
0.198966
0.198745
0.198478
0.198198
0.197861
0.197452
0.197044
0.196593
0.196001
0.195449
0.194902
0.194216
0.193447
0.192867
0.19223
0.191367
0.190588
0.189915
0.189212
0.188486
0.187816
0.187059
0.186321
0.185208
0.183961
0.182812
0.181181
0.179359
0.177539
0.175442
0.173119
0.170685
0.166318
0.159529
0.139734
0.132404
0.15918
0.922295
1.68524
1.44822
1.35591
1.2751
1.22011
1.17983
1.1503
1.12907
1.12002
1.09103
1.08763
1.05895
1.05217
1.03852
1.02205
1.0135
0.99964
0.989417
0.982192
0.97481
0.967372
0.96271
0.95935
0.957032
0.957454
0.956034
0.953934
0.948565
0.946624
0.94855
0.953067
0.956477
0.958732
0.95937
0.956395
0.961592
0.96825
0.972629
0.970252
0.987351
0.99699
0.991523
1.01435
1.01657
1.05744
1.09946
1.13876
1.23555
1.33846
1.45532
1.57635
1.66312
1.69393
1.70242
1.70049
1.69755
1.69624
1.70178
1.71478
1.73168
1.75772
1.78783
1.81689
1.8412
1.85908
1.87297
1.88336
1.89004
1.89551
1.89699
1.89504
1.88975
1.89722
0.199652
0.199661
0.199634
0.199588
0.199516
0.199423
0.199303
0.199144
0.198968
0.198754
0.198484
0.198199
0.197878
0.197457
0.197043
0.196608
0.196009
0.195433
0.194904
0.194244
0.193399
0.192801
0.192184
0.191342
0.190321
0.189604
0.188914
0.188372
0.18753
0.186221
0.185067
0.183868
0.182643
0.181738
0.180198
0.177562
0.174775
0.171815
0.168405
0.165512
0.161435
0.156314
0.145258
0.14314
0.163586
0.594391
1.68507
1.43317
1.34519
1.25243
1.19269
1.14459
1.10957
1.0828
1.06779
1.05023
1.04911
1.02044
1.0149
1.00372
0.990922
0.98272
0.971502
0.964574
0.957015
0.951462
0.947274
0.945299
0.943094
0.941352
0.942225
0.941592
0.941886
0.940676
0.939977
0.942419
0.947967
0.953557
0.957019
0.960082
0.959477
0.971516
0.984145
0.993588
0.995165
1.02582
1.04963
1.05625
1.1059
1.14521
1.2163
1.29642
1.37578
1.47865
1.58011
1.66637
1.71343
1.7193
1.71123
1.69999
1.69533
1.69235
1.69122
1.69824
1.70884
1.72916
1.75608
1.78532
1.81211
1.83259
1.84796
1.86094
1.87132
1.87898
1.8853
1.88734
1.88589
1.88095
1.8884
0.199655
0.199663
0.199637
0.199591
0.19952
0.199425
0.199308
0.199151
0.198971
0.198763
0.198493
0.198202
0.197889
0.197467
0.197042
0.196605
0.19603
0.195427
0.194892
0.194248
0.193377
0.192711
0.192148
0.191341
0.190103
0.189286
0.188659
0.188176
0.187374
0.185453
0.184008
0.182792
0.181515
0.180559
0.179278
0.177129
0.173207
0.170015
0.166241
0.162673
0.15874
0.153682
0.145282
0.141617
0.186401
0.447469
1.43556
1.38209
1.34068
1.24721
1.19334
1.14169
1.0981
1.06325
1.03756
1.02063
1.02183
0.998649
0.994959
0.983887
0.974466
0.966915
0.95683
0.949648
0.943411
0.938904
0.937465
0.938119
0.937162
0.936683
0.938025
0.936991
0.939108
0.941967
0.94354
0.947652
0.952016
0.964218
0.972947
0.980706
0.986376
1.00869
1.03185
1.0558
1.07738
1.13272
1.18147
1.21544
1.28871
1.36904
1.45353
1.53884
1.61528
1.68685
1.72849
1.74033
1.73572
1.71567
1.70179
1.69513
1.69042
1.6864
1.68867
1.69597
1.71013
1.73109
1.7553
1.78065
1.80486
1.82341
1.83795
1.85023
1.85995
1.86829
1.87477
1.87696
1.87627
1.87232
1.87975
0.199658
0.199666
0.19964
0.199594
0.199524
0.199428
0.199313
0.199159
0.198974
0.19877
0.198504
0.198206
0.197891
0.197489
0.197043
0.196598
0.196057
0.195437
0.194868
0.194232
0.1934
0.192657
0.192072
0.191266
0.190006
0.189052
0.188437
0.187981
0.187159
0.184939
0.183271
0.181986
0.180744
0.179574
0.178637
0.176582
0.173357
0.169657
0.166578
0.163331
0.159477
0.154452
0.151726
0.156961
0.20492
0.506135
1.03864
1.19685
1.28727
1.23859
1.19545
1.15412
1.10174
1.06376
1.0337
1.01805
1.00756
0.99269
0.987445
0.97476
0.969501
0.963043
0.951592
0.943182
0.939903
0.936627
0.935848
0.939688
0.93969
0.941662
0.942405
0.940776
0.949456
0.957257
0.964181
0.975202
0.983313
1.00372
1.02495
1.04665
1.06821
1.11127
1.15639
1.2051
1.25813
1.32936
1.40114
1.46226
1.53514
1.61142
1.6799
1.73098
1.74559
1.75622
1.75454
1.7369
1.71919
1.70451
1.69514
1.69045
1.68616
1.68495
1.68876
1.69735
1.71231
1.73051
1.75147
1.77419
1.79725
1.81483
1.82914
1.84068
1.84913
1.85691
1.86353
1.86617
1.86646
1.86423
1.87132
0.199661
0.199669
0.199643
0.199597
0.199529
0.199433
0.199318
0.199168
0.19898
0.198775
0.198519
0.198214
0.197893
0.197518
0.197057
0.196591
0.196083
0.19547
0.194836
0.194193
0.19345
0.192647
0.191927
0.191115
0.189952
0.189002
0.18822
0.187675
0.186756
0.184651
0.182849
0.181475
0.180276
0.179006
0.178367
0.176528
0.173914
0.170071
0.167376
0.164688
0.161631
0.160074
0.16114
0.187869
0.408723
0.778319
0.836212
0.945004
1.13873
1.20991
1.22054
1.16983
1.12125
1.08365
1.04816
1.02827
1.01009
0.997612
0.989682
0.975712
0.971011
0.965685
0.956389
0.947672
0.945925
0.943321
0.947428
0.952245
0.952361
0.9628
0.967186
0.965509
0.987371
1.00255
1.01999
1.04587
1.06981
1.10709
1.15527
1.20302
1.25168
1.31
1.3781
1.44455
1.51199
1.57389
1.63718
1.69232
1.73991
1.76924
1.77512
1.77818
1.76594
1.7551
1.73773
1.72239
1.70774
1.69659
1.69144
1.6879
1.68585
1.6866
1.68977
1.69867
1.71144
1.72733
1.74615
1.768
1.79057
1.80747
1.82013
1.82976
1.83706
1.84567
1.85233
1.8551
1.85663
1.85646
1.86285
0.199665
0.199673
0.199647
0.199601
0.199534
0.199439
0.199322
0.199177
0.19899
0.198779
0.198536
0.198229
0.197897
0.197541
0.197079
0.196588
0.196098
0.195523
0.194816
0.194155
0.193475
0.192692
0.191769
0.190906
0.189947
0.189041
0.188052
0.187244
0.186159
0.184452
0.182688
0.181243
0.180028
0.178788
0.17827
0.176752
0.174594
0.170832
0.168703
0.166648
0.164972
0.163402
0.168589
0.197434
0.67737
0.829079
0.828989
0.857586
0.960489
1.10454
1.20245
1.20015
1.14548
1.12052
1.0784
1.05504
1.02769
1.01227
1.0013
0.988124
0.980199
0.975853
0.96752
0.966279
0.968508
0.962975
0.979535
0.987072
0.984497
1.01399
1.02781
1.03737
1.08084
1.11657
1.15402
1.20361
1.25443
1.31522
1.38339
1.44958
1.50886
1.5621
1.62039
1.67691
1.72908
1.76355
1.78332
1.79162
1.79506
1.79791
1.78236
1.76906
1.7535
1.74233
1.72687
1.7116
1.69897
1.6931
1.69067
1.68756
1.6863
1.68663
1.69075
1.69911
1.71017
1.72418
1.74176
1.76325
1.78518
1.7997
1.80952
1.81805
1.825
1.83474
1.84119
1.84489
1.8477
1.84842
1.85421
0.199669
0.199677
0.199651
0.199605
0.19954
0.199446
0.199327
0.199187
0.199002
0.198787
0.198552
0.198246
0.197906
0.197555
0.197109
0.196594
0.196109
0.195559
0.19481
0.194132
0.193504
0.192742
0.191656
0.190737
0.189909
0.18909
0.188028
0.186731
0.185574
0.184269
0.182776
0.18128
0.179938
0.178696
0.178104
0.176938
0.175359
0.171996
0.170503
0.169955
0.170102
0.172602
0.194624
0.352234
0.821077
0.872746
0.864864
0.864299
0.907153
0.960579
1.11652
1.18146
1.20282
1.1625
1.11757
1.09611
1.05343
1.03373
1.02003
1.00817
1.00303
1.00168
0.986123
1.00531
1.01434
1.00794
1.04678
1.06562
1.07243
1.12705
1.16558
1.19771
1.26239
1.32906
1.39036
1.45007
1.50615
1.5697
1.62847
1.68316
1.72748
1.75596
1.77701
1.79382
1.80408
1.80739
1.80879
1.80477
1.79488
1.78397
1.77003
1.75876
1.74477
1.73262
1.71681
1.70327
1.69578
1.69349
1.68967
1.6866
1.68538
1.68665
1.69136
1.69909
1.70907
1.72213
1.73895
1.7597
1.77846
1.78975
1.79886
1.80701
1.81358
1.82363
1.82979
1.83539
1.8394
1.8396
1.84494
0.199673
0.199681
0.199656
0.199611
0.199545
0.199454
0.199334
0.199196
0.199016
0.198798
0.198564
0.19827
0.19792
0.197565
0.197141
0.196612
0.196115
0.195574
0.194829
0.194122
0.193504
0.192752
0.191605
0.190642
0.189884
0.189133
0.188005
0.186356
0.185136
0.184028
0.183016
0.181724
0.17998
0.178711
0.177718
0.176938
0.175642
0.173881
0.172355
0.171632
0.17145
0.172377
0.199073
0.516701
0.92451
0.91356
0.89422
0.88465
0.884125
0.900273
0.980783
1.06029
1.18614
1.16122
1.16701
1.12472
1.08492
1.05732
1.05146
1.02938
1.04848
1.05985
1.03474
1.08448
1.10894
1.11355
1.17893
1.2195
1.25178
1.32891
1.39189
1.44869
1.51003
1.57661
1.63145
1.68246
1.72435
1.75912
1.78181
1.79367
1.79912
1.80521
1.81042
1.81351
1.81107
1.80482
1.79802
1.79321
1.78335
1.77394
1.76045
1.74908
1.73591
1.72325
1.70866
1.6993
1.69603
1.69205
1.68722
1.6845
1.68474
1.68689
1.69218
1.6998
1.70934
1.72159
1.73689
1.75434
1.76903
1.77911
1.78884
1.79741
1.80354
1.81243
1.81867
1.82592
1.83029
1.83048
1.83583
0.199678
0.199686
0.199662
0.199617
0.19955
0.199463
0.199345
0.199203
0.199031
0.198815
0.198573
0.198295
0.197946
0.197574
0.197168
0.196653
0.196118
0.195568
0.194887
0.19414
0.193474
0.19272
0.191611
0.190633
0.18985
0.189123
0.187955
0.186148
0.184879
0.183835
0.183249
0.182213
0.180335
0.178641
0.177512
0.176674
0.176101
0.175257
0.174355
0.172362
0.171047
0.173557
0.199714
0.718701
0.938306
0.940451
0.924746
0.911697
0.900963
0.898344
0.921505
0.956463
1.06317
1.13368
1.1925
1.12491
1.13171
1.08158
1.10904
1.08098
1.12694
1.15258
1.15863
1.22843
1.27436
1.31125
1.38774
1.44657
1.50046
1.5685
1.62542
1.68083
1.7219
1.75303
1.77259
1.78522
1.79735
1.80804
1.8132
1.81305
1.8096
1.80798
1.80585
1.80359
1.79908
1.79438
1.78822
1.78449
1.77524
1.76373
1.75154
1.74158
1.72823
1.71484
1.70383
1.69894
1.69522
1.68965
1.68515
1.68455
1.68601
1.68893
1.69383
1.70028
1.7086
1.71954
1.73253
1.74654
1.75835
1.76881
1.77937
1.789
1.79423
1.8011
1.80886
1.8168
1.8206
1.82121
1.82671
0.199684
0.199691
0.199667
0.199624
0.199557
0.199472
0.199357
0.199213
0.199048
0.198835
0.198588
0.198319
0.19798
0.197591
0.19719
0.196711
0.196138
0.195571
0.194953
0.194189
0.193432
0.19266
0.191705
0.190697
0.189791
0.189004
0.187852
0.186118
0.184843
0.183804
0.183272
0.182343
0.180847
0.17873
0.17749
0.176766
0.176376
0.176246
0.176081
0.175925
0.176159
0.188637
0.28959
0.835836
0.951166
0.95209
0.944491
0.937394
0.924248
0.918073
0.914419
0.911668
0.965767
1.04196
1.15859
1.14427
1.20931
1.14611
1.20497
1.21463
1.27249
1.32209
1.36608
1.43823
1.49616
1.5538
1.61171
1.66425
1.70743
1.73806
1.76048
1.77783
1.78823
1.79526
1.8003
1.80548
1.80935
1.81152
1.80789
1.80365
1.80038
1.79897
1.79845
1.79356
1.78867
1.78326
1.77679
1.77306
1.76546
1.75585
1.74492
1.73552
1.72203
1.71021
1.70277
1.69923
1.69374
1.68804
1.68542
1.68641
1.68829
1.69107
1.69465
1.69909
1.70606
1.71545
1.72645
1.73795
1.74786
1.75877
1.76989
1.7795
1.78421
1.79044
1.80025
1.80817
1.81138
1.81277
1.81849
0.19969
0.199697
0.199673
0.199631
0.199565
0.199482
0.199369
0.199225
0.199064
0.198857
0.198607
0.198341
0.198018
0.197619
0.197218
0.196766
0.196169
0.195593
0.195003
0.194279
0.193425
0.192628
0.191794
0.190806
0.189742
0.188799
0.187735
0.186322
0.184993
0.183879
0.183063
0.182285
0.181093
0.178967
0.177767
0.177096
0.176695
0.176619
0.176912
0.177676
0.179925
0.201585
0.463401
0.920101
0.951315
0.949789
0.950389
0.944256
0.936096
0.926707
0.918922
0.914105
0.924525
0.995606
1.09948
1.19488
1.29603
1.30891
1.38057
1.42532
1.48307
1.53885
1.59484
1.64632
1.68968
1.72363
1.74436
1.7601
1.77274
1.78175
1.78853
1.79368
1.79451
1.79564
1.7955
1.7984
1.79907
1.7998
1.79738
1.79466
1.79309
1.78875
1.7864
1.78049
1.77567
1.77201
1.76666
1.76319
1.75648
1.74921
1.73934
1.73007
1.71738
1.70806
1.70339
1.69849
1.69205
1.68732
1.68664
1.68835
1.68943
1.69144
1.69419
1.69723
1.70288
1.71105
1.71961
1.72881
1.73814
1.74923
1.75999
1.76813
1.77353
1.78118
1.79145
1.79909
1.80298
1.80567
1.81101
0.199696
0.199704
0.199679
0.199639
0.199575
0.199491
0.199384
0.199241
0.199079
0.198882
0.198634
0.198365
0.198058
0.197658
0.197251
0.196813
0.196223
0.195627
0.195054
0.194358
0.19344
0.192621
0.191877
0.19097
0.189715
0.188631
0.187675
0.186586
0.185267
0.183881
0.182743
0.18198
0.180946
0.179695
0.178277
0.177225
0.176518
0.175951
0.175576
0.175947
0.177005
0.198662
0.62867
0.98179
0.981003
0.973443
0.966162
0.956633
0.948464
0.945805
0.947091
0.94177
0.954524
1.0607
1.14054
1.34549
1.47158
1.53849
1.59021
1.63295
1.67431
1.70479
1.72902
1.74661
1.75876
1.76726
1.77301
1.77793
1.78186
1.78408
1.78199
1.78194
1.78213
1.7855
1.78772
1.78648
1.78572
1.78462
1.78412
1.78258
1.78158
1.77754
1.77435
1.76799
1.76326
1.76037
1.7562
1.75327
1.7475
1.74203
1.73329
1.7251
1.7143
1.70719
1.70192
1.69581
1.68967
1.68732
1.68811
1.68841
1.68892
1.69021
1.69256
1.69487
1.69932
1.70646
1.71283
1.71968
1.72893
1.73965
1.74957
1.75667
1.76285
1.772
1.78152
1.78879
1.7947
1.79924
1.80377
0.199703
0.199711
0.199687
0.199648
0.199586
0.199502
0.199399
0.19926
0.199095
0.198909
0.198666
0.198392
0.198094
0.197715
0.197286
0.196847
0.196309
0.195683
0.19509
0.194421
0.193501
0.192655
0.19193
0.191073
0.189755
0.188576
0.187557
0.186767
0.185658
0.183855
0.182484
0.181434
0.180678
0.179928
0.17892
0.17771
0.176113
0.175092
0.17383
0.172865
0.177254
0.210205
0.755954
0.986298
0.993508
0.99197
0.986864
0.980282
0.975027
0.981576
0.991963
0.995829
1.04101
1.19586
1.32399
1.56122
1.67452
1.71389
1.72947
1.73974
1.74732
1.75352
1.75946
1.76437
1.76635
1.76718
1.76532
1.76617
1.76791
1.77006
1.77081
1.76996
1.77087
1.7718
1.77235
1.77111
1.76912
1.7689
1.77021
1.76957
1.76883
1.76479
1.76133
1.75529
1.7509
1.74899
1.74619
1.74448
1.73994
1.73585
1.72789
1.72008
1.71023
1.70418
1.69815
1.69121
1.68691
1.68691
1.68693
1.68658
1.68624
1.68691
1.68946
1.69195
1.69548
1.70143
1.70704
1.71196
1.71918
1.72867
1.73808
1.74524
1.75227
1.76145
1.77062
1.77836
1.78615
1.79205
1.79497
0.199711
0.199718
0.199695
0.199657
0.199598
0.199514
0.199415
0.199282
0.199116
0.198935
0.198704
0.198424
0.19813
0.19778
0.197339
0.196891
0.1964
0.195769
0.195128
0.194465
0.193644
0.192738
0.191929
0.191074
0.189896
0.188603
0.187527
0.186778
0.18572
0.184132
0.182379
0.18114
0.18027
0.179755
0.179064
0.178034
0.176462
0.175106
0.17474
0.174469
0.188816
0.302421
0.871452
0.982296
0.987325
0.990104
0.989657
0.988777
0.993299
1.00552
1.03659
1.07707
1.18111
1.38455
1.57298
1.73374
1.7747
1.77088
1.76665
1.76203
1.75801
1.75463
1.75211
1.75065
1.75014
1.75088
1.75165
1.75005
1.75113
1.75103
1.75281
1.75295
1.75358
1.75363
1.754
1.75323
1.75193
1.75289
1.75646
1.75705
1.7567
1.75312
1.74975
1.74414
1.73993
1.73822
1.7357
1.73413
1.72977
1.72659
1.71956
1.71258
1.70477
1.69964
1.69242
1.68603
1.68422
1.68448
1.68412
1.68291
1.68181
1.68306
1.68586
1.6885
1.69079
1.69516
1.70109
1.70549
1.71016
1.71724
1.72581
1.73375
1.74159
1.7503
1.75939
1.7683
1.7775
1.78316
1.78646
0.199719
0.199727
0.199705
0.199667
0.19961
0.199528
0.199431
0.199305
0.199141
0.198961
0.198745
0.198467
0.198173
0.197845
0.197404
0.196952
0.196481
0.195885
0.195195
0.194534
0.193811
0.192882
0.19196
0.191083
0.190068
0.188796
0.187621
0.186609
0.185649
0.184358
0.182535
0.181079
0.179985
0.179173
0.1787
0.177797
0.176683
0.175606
0.175227
0.176734
0.199315
0.480048
0.944197
0.974743
0.977618
0.982744
0.984103
0.994021
1.01609
1.02918
1.09594
1.22063
1.4081
1.60666
1.76323
1.79745
1.78644
1.77347
1.7612
1.75099
1.74357
1.73906
1.73645
1.73412
1.73222
1.73065
1.7304
1.72853
1.72893
1.72883
1.73234
1.73379
1.73572
1.73565
1.73542
1.73537
1.73508
1.73699
1.74136
1.74219
1.74174
1.73819
1.73513
1.73004
1.72641
1.72547
1.72361
1.72292
1.71959
1.71785
1.71213
1.70602
1.69826
1.69248
1.6848
1.68037
1.68051
1.68026
1.67935
1.67763
1.67709
1.67865
1.68183
1.68471
1.68605
1.68865
1.69395
1.69831
1.70244
1.70688
1.71359
1.72163
1.73032
1.739
1.74837
1.75889
1.76854
1.77357
1.77656
0.199728
0.199736
0.199715
0.199677
0.199624
0.199546
0.199448
0.19933
0.199171
0.198991
0.198788
0.198518
0.198222
0.197904
0.197492
0.197025
0.196566
0.196007
0.195291
0.194634
0.193958
0.193084
0.19204
0.191104
0.190225
0.189165
0.187755
0.186518
0.185406
0.18433
0.183026
0.181224
0.179682
0.178426
0.177488
0.17683
0.175806
0.174498
0.173051
0.173626
0.196614
0.650331
0.989996
0.994352
0.994404
0.995413
0.991291
1.01559
1.05978
1.08362
1.24102
1.43537
1.63312
1.77474
1.8028
1.78602
1.77173
1.75472
1.74219
1.73204
1.72421
1.71852
1.71445
1.71176
1.70998
1.70858
1.7088
1.70758
1.70856
1.70719
1.70847
1.70949
1.71006
1.71049
1.71026
1.71126
1.71309
1.71643
1.72188
1.72374
1.72521
1.72372
1.72212
1.71803
1.71513
1.71463
1.7128
1.71198
1.70831
1.70649
1.7008
1.69591
1.68974
1.68433
1.67867
1.67665
1.67659
1.6754
1.67365
1.67278
1.67324
1.67536
1.67878
1.68136
1.68166
1.68215
1.68572
1.68975
1.69383
1.69788
1.70295
1.70978
1.71838
1.72728
1.73736
1.74879
1.7585
1.76407
1.76696
0.199738
0.199745
0.199726
0.199689
0.199639
0.199564
0.199467
0.199356
0.199205
0.199025
0.19883
0.19858
0.198278
0.197967
0.197592
0.197122
0.196655
0.196135
0.195442
0.194755
0.194102
0.193281
0.192176
0.191209
0.190377
0.189403
0.188011
0.18651
0.185211
0.184086
0.183083
0.181726
0.179584
0.177611
0.176142
0.174785
0.174075
0.172654
0.170399
0.178621
0.227903
0.782641
0.978357
0.99253
1.00207
1.0073
1.0073
1.04958
1.144
1.21219
1.4696
1.65507
1.7772
1.79814
1.78087
1.76768
1.74991
1.73601
1.7241
1.71457
1.7071
1.70166
1.69775
1.69485
1.69254
1.68981
1.68779
1.68524
1.6848
1.68309
1.68326
1.68472
1.68536
1.68767
1.68853
1.69121
1.69535
1.69902
1.70387
1.706
1.70743
1.70644
1.70589
1.70288
1.70045
1.7004
1.69925
1.69959
1.6969
1.69601
1.69121
1.68751
1.68127
1.67522
1.67155
1.67065
1.66914
1.66643
1.66506
1.6658
1.66745
1.66979
1.67281
1.67508
1.67571
1.67541
1.67709
1.68041
1.68393
1.68804
1.69332
1.69909
1.70678
1.71592
1.72691
1.73857
1.74837
1.7542
1.75695
0.199749
0.199756
0.199738
0.199703
0.199654
0.199585
0.19949
0.199382
0.199243
0.199065
0.198875
0.198646
0.198349
0.19804
0.197696
0.197238
0.196758
0.196262
0.195648
0.19492
0.194226
0.193462
0.19245
0.191409
0.190455
0.18953
0.188294
0.186646
0.1852
0.183871
0.182767
0.181542
0.179933
0.177159
0.175005
0.173593
0.172744
0.172654
0.173908
0.196856
0.372761
0.899216
0.971441
0.978851
0.996928
1.01738
1.04303
1.11402
1.29843
1.45121
1.6866
1.77841
1.79068
1.77216
1.75999
1.74256
1.72925
1.71696
1.70684
1.69884
1.69228
1.68715
1.68313
1.67972
1.67676
1.67383
1.67128
1.66764
1.66589
1.66378
1.66208
1.66199
1.66144
1.6644
1.66516
1.66924
1.6726
1.67583
1.6801
1.68313
1.68732
1.68933
1.69124
1.69118
1.6897
1.68973
1.68837
1.68898
1.68586
1.68353
1.67722
1.67341
1.67002
1.66741
1.66785
1.66595
1.6632
1.65934
1.65931
1.6622
1.66465
1.66685
1.66891
1.67041
1.67094
1.67002
1.66922
1.6709
1.67389
1.67774
1.68351
1.68935
1.69599
1.70492
1.71614
1.72772
1.73785
1.74417
1.74702
0.199761
0.199767
0.199751
0.199718
0.19967
0.199606
0.199516
0.19941
0.199283
0.199113
0.198925
0.198714
0.19843
0.198124
0.197799
0.19738
0.196891
0.196412
0.195862
0.195117
0.194384
0.193677
0.192818
0.191689
0.190622
0.18959
0.188483
0.187095
0.18538
0.183813
0.182254
0.180941
0.1795
0.177611
0.174562
0.171933
0.170256
0.169712
0.171246
0.202638
0.553302
0.983528
0.982764
0.985695
1.01231
1.04488
1.14339
1.25608
1.51973
1.68776
1.78019
1.78817
1.76594
1.75399
1.73664
1.72312
1.71084
1.70038
1.69191
1.68522
1.67955
1.67459
1.67013
1.66625
1.66311
1.66027
1.65774
1.65387
1.65112
1.64776
1.64463
1.64272
1.64136
1.64334
1.64392
1.64873
1.65136
1.65574
1.65943
1.66288
1.66773
1.67028
1.67334
1.67417
1.674
1.67452
1.67359
1.67534
1.67322
1.67164
1.66651
1.66335
1.66199
1.66069
1.66052
1.65721
1.65236
1.64914
1.65027
1.65457
1.65779
1.66003
1.66139
1.66212
1.66272
1.66237
1.66128
1.66181
1.66432
1.66747
1.67311
1.67917
1.6862
1.69516
1.70615
1.71814
1.7282
1.7345
1.73753
0.199773
0.19978
0.199764
0.199734
0.199688
0.19963
0.199545
0.199442
0.199324
0.199166
0.198981
0.198783
0.198527
0.198221
0.197912
0.197534
0.197051
0.196581
0.196068
0.195374
0.19462
0.193922
0.193144
0.192074
0.190853
0.189723
0.188724
0.187469