/*--------------------------------*- C++ -*----------------------------------*\
| =========                 |                                                 |
| \\      /  F ield         | OpenFOAM: The Open Source CFD Toolbox           |
|  \\    /   O peration     | Version:  2.2.x                                 |
|   \\  /    A nd           | Web:      www.OpenFOAM.org                      |
|    \\/     M anipulation  |                                                 |
\*---------------------------------------------------------------------------*/
FoamFile
{
    version     2.0;
    format      ascii;
    class       volScalarField;
    location    "1.65";
    object      rho;
}
// * * * * * * * * * * * * * * * * * * * * * * * * * * * * * * * * * * * * * //

dimensions      [1 -3 0 0 0 0 0];

internalField   nonuniform List<scalar> 
14161
(
0.999685
0.999689
0.99967
0.999632
0.999572
0.999491
0.999382
0.99925
0.999095
0.998893
0.998659
0.998427
0.99812
0.997736
0.997402
0.997015
0.996431
0.996
0.995608
0.994845
0.994321
0.994055
0.993479
0.992693
0.992363
0.992084
0.991792
0.99177
0.991776
0.991903
0.992197
0.992692
0.993113
0.993581
0.994987
0.996891
0.99878
1.00228
1.0077
1.01068
1.01258
1.01621
1.02545
1.02935
2.11512
2.69629
2.74768
2.75359
2.74243
2.72848
2.69735
2.672
2.63786
2.61023
2.58211
2.55253
2.52539
2.50063
2.477
2.45627
2.43589
2.41732
2.40317
2.38944
2.37646
2.36431
2.35192
2.33944
2.329
2.31886
2.30844
2.30035
2.29356
2.28883
2.28851
2.28044
2.26876
2.2564
2.24489
2.23487
2.22839
2.22317
2.21056
2.19866
2.18771
2.17573
2.1621
2.15199
2.1441
2.12943
2.11607
2.07818
2.05589
2.03597
2.01841
2.00554
1.99439
1.97299
1.94904
1.92038
1.89037
1.86518
1.84452
1.84324
1.85665
1.89713
1.96216
2.09705
2.37083
2.69452
2.91603
3.02842
3.1014
3.15307
3.17937
3.18678
3.18623
3.17772
3.19474
0.999685
0.999689
0.99967
0.999631
0.999572
0.99949
0.999382
0.999251
0.999094
0.998892
0.998661
0.998427
0.998117
0.99774
0.997408
0.997006
0.99644
0.996014
0.995587
0.99485
0.994359
0.994036
0.993443
0.992741
0.992355
0.992021
0.991785
0.991769
0.991765
0.991872
0.992148
0.992625
0.993031
0.993525
0.994944
0.996851
0.998717
1.00195
1.00722
1.01047
1.01261
1.01619
1.02512
1.03585
2.11034
2.68739
2.74609
2.74963
2.73699
2.72303
2.69217
2.66726
2.63224
2.60322
2.57352
2.54342
2.51487
2.48899
2.46559
2.44362
2.42424
2.40616
2.39017
2.37675
2.36357
2.35199
2.34119
2.32928
2.31825
2.30806
2.29819
2.28995
2.28335
2.2776
2.2744
2.27024
2.262
2.25155
2.24038
2.22924
2.22015
2.21365
2.20338
2.19298
2.18301
2.17106
2.15592
2.14372
2.13582
2.12259
2.11015
2.0767
2.0569
2.0389
2.0211
2.00577
1.98698
1.96205
1.93786
1.91046
1.88448
1.86846
1.85642
1.86577
1.89243
1.95206
2.06456
2.27183
2.54347
2.78073
2.93167
3.03443
3.10662
3.15722
3.18119
3.18705
3.18739
3.17152
3.1983
0.999685
0.999689
0.99967
0.999632
0.999572
0.99949
0.999382
0.999252
0.999092
0.998892
0.998667
0.998425
0.998112
0.997748
0.997413
0.996993
0.996461
0.996027
0.995554
0.994886
0.994395
0.993956
0.993409
0.992807
0.992287
0.991915
0.991762
0.991765
0.991742
0.991782
0.99201
0.992441
0.992806
0.993387
0.994818
0.996674
0.998474
1.00123
1.0059
1.00981
1.01246
1.01604
1.02373
1.03721
2.10151
2.67949
2.74674
2.74517
2.72769
2.71322
2.68161
2.65675
2.62201
2.59255
2.56215
2.53268
2.5034
2.4755
2.45041
2.42859
2.40843
2.39028
2.37348
2.35954
2.34734
2.33648
2.32499
2.31296
2.30297
2.29527
2.28669
2.27782
2.27008
2.26124
2.25243
2.24731
2.24248
2.23796
2.23086
2.22103
2.21147
2.20408
2.19397
2.18409
2.17481
2.16352
2.14833
2.13474
2.12302
2.10866
2.09853
2.07111
2.05416
2.03782
2.02144
2.00447
1.98216
1.95665
1.93244
1.90788
1.88992
1.88509
1.88919
1.9203
1.98034
2.1061
2.29962
2.5181
2.67686
2.78774
2.89064
2.97804
3.05587
3.11766
3.1565
3.17291
3.17732
3.15933
3.1908
0.999686
0.999689
0.99967
0.999632
0.999572
0.999489
0.999383
0.999254
0.999089
0.998891
0.998676
0.998422
0.998104
0.997764
0.997418
0.996972
0.996492
0.99604
0.995499
0.994931
0.994429
0.993841
0.993369
0.992882
0.992191
0.991777
0.991717
0.991754
0.991688
0.991585
0.991746
0.992084
0.992393
0.993072
0.994523
0.996252
0.997885
1.00002
1.00356
1.00818
1.01179
1.01557
1.0219
1.03245
2.09169
2.67303
2.74924
2.74225
2.71838
2.70195
2.66466
2.63917
2.60373
2.57176
2.54016
2.51099
2.48252
2.45291
2.4254
2.40186
2.38152
2.36273
2.34768
2.33352
2.32137
2.31187
2.29974
2.28833
2.27964
2.27143
2.26427
2.25755
2.24808
2.23756
2.22816
2.22009
2.2151
2.21426
2.21446
2.20737
2.19816
2.18954
2.17902
2.16921
2.15959
2.15005
2.13543
2.1213
2.10935
2.09533
2.08725
2.06373
2.04906
2.03325
2.01657
1.99693
1.97543
1.94834
1.93123
1.91452
1.91192
1.92526
1.9532
2.03836
2.18572
2.39471
2.59358
2.72731
2.80022
2.84187
2.89583
2.95071
3.01477
3.07894
3.12697
3.15219
3.16165
3.14474
3.17813
0.999686
0.99969
0.99967
0.999632
0.999573
0.999489
0.999384
0.999256
0.999087
0.998891
0.998684
0.998417
0.998096
0.997783
0.997418
0.996947
0.996525
0.99605
0.995439
0.994962
0.994466
0.993739
0.993322
0.992929
0.992129
0.99162
0.991609
0.991694
0.991591
0.991332
0.991336
0.991525
0.991824
0.992569
0.993888
0.995518
0.99688
0.998242
1.00074
1.00521
1.01011
1.01442
1.01906
1.02435
2.07735
2.66719
2.74655
2.7337
2.70212
2.68279
2.63864
2.61047
2.57411
2.53924
2.50504
2.47702
2.45195
2.42272
2.39265
2.36809
2.34877
2.33037
2.3137
2.29999
2.28863
2.28216
2.27438
2.26048
2.24939
2.24198
2.23582
2.23273
2.2284
2.21901
2.20886
2.19869
2.19064
2.18855
2.1911
2.18907
2.18038
2.17139
2.16198
2.15314
2.14395
2.13622
2.12132
2.10704
2.09618
2.08507
2.08016
2.05947
2.04588
2.03068
2.01095
1.99052
1.97232
1.95084
1.94323
1.94273
1.96299
2.01023
2.09413
2.27934
2.48338
2.64847
2.74943
2.8101
2.8496
2.87619
2.89996
2.93647
2.98978
3.04706
3.09716
3.12748
3.14167
3.12967
3.16158
0.999686
0.99969
0.99967
0.999633
0.999574
0.999489
0.999385
0.999258
0.999086
0.998891
0.99869
0.998415
0.998089
0.997796
0.99742
0.996927
0.996538
0.996062
0.995404
0.994972
0.994488
0.993684
0.993264
0.992931
0.992111
0.991439
0.991399
0.991526
0.991451
0.991129
0.990778
0.990791
0.991107
0.991786
0.992827
0.994288
0.995423
0.996193
0.997685
1.00108
1.00674
1.01189
1.01488
1.01925
2.04476
2.65236
2.73637
2.71793
2.67632
2.65348
2.60153
2.56911
2.53255
2.49576
2.45971
2.4322
2.40736
2.3838
2.36129
2.3368
2.31861
2.30265
2.28327
2.26712
2.25654
2.25357
2.25046
2.23713
2.22254
2.21291
2.20667
2.20283
2.2017
2.20196
2.19731
2.18868
2.17954
2.17389
2.16931
2.16734
2.15961
2.15205
2.1447
2.13707
2.12936
2.12461
2.1133
2.1007
2.08925
2.07902
2.07492
2.05654
2.04587
2.03119
2.0121
1.99313
1.98194
1.96749
1.98704
2.00946
2.0684
2.18876
2.36271
2.56705
2.6927
2.76444
2.80645
2.84059
2.8655
2.88332
2.90275
2.93402
2.9747
3.02208
3.0707
3.10296
3.12134
3.11497
3.14264
0.999687
0.999691
0.999671
0.999633
0.999574
0.99949
0.999385
0.999259
0.999087
0.998891
0.998693
0.998416
0.998085
0.997803
0.997425
0.996917
0.99654
0.996069
0.995399
0.994965
0.994476
0.993676
0.993218
0.992876
0.9921
0.991268
0.99113
0.991232
0.991242
0.99094
0.990264
0.989882
0.990083
0.990562
0.991303
0.992477
0.99341
0.994111
0.994856
0.996708
1.00055
1.00622
1.00893
1.01388
1.97204
2.63458
2.72239
2.69626
2.63861
2.60813
2.55001
2.51589
2.48129
2.44885
2.41661
2.39257
2.36733
2.34289
2.33095
2.31589
2.29711
2.28235
2.26412
2.24471
2.23307
2.22903
2.23006
2.22081
2.20617
2.19443
2.18582
2.17965
2.1765
2.17691
2.18152
2.18149
2.17467
2.16762
2.15804
2.15157
2.14355
2.13818
2.13253
2.12724
2.1215
2.11971
2.11403
2.10345
2.09326
2.0831
2.07874
2.06055
2.04979
2.03996
2.01896
2.01326
2.02126
2.02308
2.08154
2.14479
2.2835
2.4705
2.62938
2.72862
2.77128
2.80081
2.82866
2.85199
2.86797
2.88317
2.90384
2.93146
2.96372
3.00245
3.0482
3.08271
3.10376
3.10092
3.12368
0.999688
0.999692
0.999672
0.999633
0.999575
0.999492
0.999386
0.99926
0.999089
0.998891
0.998694
0.998418
0.998084
0.997803
0.997428
0.99692
0.996536
0.996067
0.99542
0.994945
0.994441
0.993699
0.993177
0.992753
0.992085
0.991204
0.990814
0.990807
0.990901
0.990694
0.989907
0.988755
0.988617
0.988823
0.989327
0.990138
0.990947
0.991547
0.991988
0.992407
0.993112
0.996076
0.999567
1.00638
1.83219
2.62223
2.70928
2.66711
2.59736
2.55799
2.50234
2.46947
2.43737
2.41314
2.38507
2.36576
2.34224
2.31496
2.30338
2.29366
2.2778
2.26195
2.24372
2.22433
2.21035
2.20411
2.20378
2.19708
2.18473
2.17239
2.16364
2.15878
2.1562
2.1558
2.16136
2.16576
2.16072
2.15208
2.14225
2.13576
2.12825
2.12628
2.12636
2.12492
2.12085
2.11964
2.11465
2.10695
2.09961
2.09029
2.08569
2.07065
2.06391
2.06452
2.04797
2.07672
2.10493
2.13324
2.26502
2.40196
2.57096
2.69945
2.75905
2.77953
2.79305
2.8109
2.83114
2.84876
2.86246
2.8804
2.90316
2.92691
2.95271
2.9854
3.02915
3.06538
3.08831
3.08843
3.10786
0.999689
0.999693
0.999673
0.999634
0.999576
0.999494
0.999386
0.99926
0.999094
0.998893
0.998693
0.998424
0.998089
0.997798
0.997431
0.996937
0.996521
0.99606
0.995465
0.994903
0.994375
0.993747
0.993141
0.992573
0.992009
0.9912
0.990571
0.990376
0.990469
0.990334
0.989571
0.987739
0.98697
0.986767
0.986899
0.987368
0.987893
0.988402
0.988516
0.988104
0.986096
0.982868
0.983361
0.99145
1.64766
2.56674
2.68854
2.63384
2.56464
2.51706
2.4729
2.43809
2.40628
2.38666
2.35887
2.33372
2.31551
2.28485
2.27959
2.26897
2.25483
2.23997
2.22013
2.20271
2.19051
2.18419
2.1793
2.16946
2.15928
2.15039
2.14375
2.13814
2.13485
2.13457
2.13766
2.14259
2.13965
2.13268
2.12636
2.1238
2.12022
2.12264
2.12503
2.1244
2.12073
2.11989
2.11784
2.11298
2.11206
2.10218
2.10435
2.10185
2.10569
2.12672
2.12777
2.19256
2.26203
2.35913
2.5452
2.67129
2.75297
2.78943
2.79352
2.7919
2.80032
2.81408
2.82833
2.84262
2.85798
2.87866
2.90024
2.9195
2.9413
2.97001
3.01209
3.04903
3.07368
3.07755
3.09604
0.999691
0.999694
0.999674
0.999635
0.999577
0.999497
0.999387
0.99926
0.9991
0.998897
0.998689
0.998434
0.998101
0.997785
0.997437
0.996966
0.996488
0.996048
0.995525
0.994859
0.994299
0.993784
0.99315
0.992386
0.991858
0.991194
0.990463
0.990057
0.989937
0.989699
0.988967
0.987026
0.985838
0.984977
0.984442
0.984361
0.984308
0.984245
0.984449
0.983273
0.980141
0.97099
0.962903
0.970704
1.34977
2.43868
2.68658
2.60864
2.55482
2.4916
2.4446
2.40607
2.37258
2.35965
2.33272
2.29875
2.28799
2.25664
2.25311
2.23891
2.2257
2.21332
2.19435
2.18165
2.17058
2.16185
2.15339
2.14505
2.13695
2.13114
2.12774
2.1221
2.1171
2.11493
2.11468
2.11951
2.12228
2.12321
2.12216
2.12276
2.12027
2.1223
2.1247
2.12678
2.12436
2.13045
2.13374
2.13045
2.14303
2.13539
2.15704
2.16544
2.17762
2.23026
2.28006
2.40791
2.5241
2.64716
2.76481
2.80387
2.81268
2.80823
2.79975
2.79915
2.80486
2.8137
2.82418
2.83924
2.85682
2.87733
2.89528
2.91141
2.93064
2.95592
2.99636
3.03391
3.06013
3.06772
3.08657
0.999693
0.999696
0.999676
0.999637
0.999579
0.9995
0.99939
0.999261
0.999107
0.998903
0.998683
0.998443
0.998119
0.997768
0.997439
0.997001
0.996464
0.996026
0.995565
0.994849
0.994213
0.993772
0.993179
0.992233
0.99161
0.991065
0.990489
0.989937
0.989363
0.988696
0.987845
0.986322
0.98535
0.984302
0.982752
0.981449
0.980624
0.98013
0.980254
0.978525
0.974121
0.965583
0.948351
0.953079
1.03502
2.14414
2.84371
2.65891
2.56085
2.47696
2.41893
2.37041
2.33373
2.31947
2.29416
2.26327
2.25883
2.2219
2.2227
2.20357
2.19032
2.18189
2.16589
2.15703
2.14861
2.13793
2.12755
2.12139
2.11601
2.113
2.11147
2.10969
2.10561
2.10329
2.10257
2.10886
2.11595
2.12124
2.12379
2.12416
2.12203
2.12748
2.13412
2.1425
2.14146
2.161
2.17262
2.17038
2.19741
2.201
2.24883
2.28356
2.33175
2.43721
2.54438
2.68118
2.76704
2.81573
2.8407
2.83027
2.818
2.80756
2.80233
2.80288
2.80507
2.81017
2.82314
2.83984
2.85727
2.87433
2.88852
2.90232
2.91979
2.94258
2.98145
3.01915
3.04706
3.05795
3.07758
0.999695
0.999698
0.999678
0.99964
0.99958
0.999503
0.999394
0.999261
0.999112
0.998911
0.998679
0.99845
0.998139
0.997762
0.997436
0.997031
0.996458
0.995996
0.995575
0.99486
0.994146
0.993724
0.993181
0.992148
0.991305
0.990852
0.990475
0.989944
0.988878
0.98738
0.986349
0.985391
0.984784
0.984106
0.982399
0.979656
0.977649
0.976237
0.975646
0.974136
0.970185
0.963987
0.950322
0.953949
0.998575
1.801
2.95144
2.71489
2.59454
2.48332
2.41349
2.35418
2.30916
2.27937
2.24875
2.23332
2.22935
2.18891
2.19149
2.17372
2.15913
2.15201
2.13979
2.13086
2.12301
2.11627
2.10857
2.10504
2.1011
2.09875
2.10011
2.09926
2.10037
2.09919
2.10058
2.10618
2.11533
2.12395
2.12934
2.13226
2.13311
2.14742
2.16178
2.17697
2.18102
2.21686
2.23899
2.25219
2.30642
2.34632
2.43191
2.50895
2.59309
2.69973
2.78023
2.85413
2.87586
2.86327
2.84523
2.828
2.81624
2.80663
2.80445
2.80425
2.80516
2.81362
2.82721
2.84236
2.8573
2.86988
2.8807
2.8922
2.90942
2.93045
2.96715
3.00435
3.03401
3.04822
3.0688
0.999697
0.9997
0.99968
0.999642
0.999583
0.999506
0.9994
0.999264
0.999116
0.99892
0.998681
0.998451
0.998157
0.997767
0.997429
0.997045
0.996471
0.995982
0.995563
0.994879
0.994111
0.993641
0.99315
0.992112
0.991022
0.990603
0.990405
0.989975
0.988565
0.986158
0.98505
0.984431
0.984105
0.983937
0.982672
0.979419
0.975611
0.973389
0.971547
0.969932
0.966615
0.961962
0.954543
0.959634
1.02058
1.64116
2.69969
2.65726
2.58783
2.48014
2.41821
2.35485
2.30028
2.25714
2.22116
2.20604
2.20006
2.16759
2.16681
2.14939
2.1374
2.12791
2.1168
2.10796
2.10146
2.09667
2.09426
2.09613
2.09441
2.09336
2.09458
2.09415
2.09832
2.10274
2.10642
2.11333
2.12171
2.13676
2.14909
2.15908
2.16721
2.19405
2.21938
2.24859
2.27401
2.3389
2.38445
2.42751
2.5103
2.59333
2.68954
2.76252
2.82481
2.87495
2.89683
2.9009
2.88307
2.85843
2.8393
2.82485
2.81357
2.8076
2.80584
2.80643
2.81131
2.8211
2.8321
2.84319
2.85523
2.86487
2.87374
2.88331
2.89981
2.91927
2.95303
2.98901
3.02063
3.03858
3.06003
0.9997
0.999702
0.999683
0.999646
0.999585
0.999508
0.999406
0.999269
0.999119
0.998931
0.998689
0.99845
0.998171
0.997786
0.99742
0.997045
0.996507
0.995981
0.995528
0.994901
0.994129
0.99356
0.993063
0.992083
0.990901
0.990388
0.990291
0.989913
0.988326
0.985415
0.984193
0.983678
0.983496
0.983652
0.98293
0.980337
0.974735
0.971844
0.969657
0.967441
0.964746
0.961543
0.961473
0.974882
1.10994
1.63948
2.23224
2.40285
2.49715
2.45411
2.41686
2.35969
2.29642
2.24989
2.21528
2.19698
2.17816
2.15958
2.15099
2.13234
2.12428
2.11398
2.10035
2.0928
2.0902
2.08694
2.08716
2.09327
2.09347
2.09639
2.0976
2.0955
2.106
2.11779
2.12714
2.14128
2.15406
2.17721
2.20506
2.2297
2.25595
2.30461
2.35233
2.40725
2.46754
2.5575
2.62735
2.6841
2.75682
2.82469
2.8832
2.90918
2.91822
2.92294
2.90807
2.89205
2.87012
2.84885
2.8343
2.82309
2.81396
2.80992
2.80914
2.811
2.81767
2.82556
2.83368
2.84245
2.85264
2.86035
2.86761
2.87537
2.89043
2.9078
2.93894
2.97406
3.0075
3.02912
3.05101
0.999703
0.999705
0.999686
0.999649
0.999589
0.999511
0.999412
0.999276
0.999122
0.998941
0.998704
0.998449
0.998181
0.997819
0.997416
0.997037
0.996562
0.995998
0.995471
0.994907
0.994202
0.993506
0.9929
0.992036
0.990947
0.990315
0.990018
0.989585
0.988102
0.985159
0.98384
0.983223
0.983049
0.983308
0.983033
0.981098
0.975295
0.971367
0.969342
0.96731
0.965417
0.965065
0.96925
1.0081
1.44192
1.86372
1.94101
2.08893
2.33146
2.42413
2.4241
2.36833
2.31291
2.26669
2.22295
2.19966
2.17432
2.15846
2.14601
2.12519
2.11673
2.10949
2.09607
2.08963
2.08912
2.08773
2.09299
2.10024
2.10082
2.11324
2.11824
2.11797
2.14188
2.16245
2.18186
2.21417
2.24243
2.28099
2.34112
2.39281
2.44846
2.51641
2.58951
2.65553
2.71848
2.78997
2.84511
2.88142
2.91081
2.92914
2.93844
2.92926
2.9178
2.91243
2.89751
2.87828
2.85743
2.84211
2.83226
2.82373
2.81716
2.81345
2.81253
2.81567
2.82078
2.82689
2.83404
2.84246
2.85105
2.85645
2.86126
2.86592
2.87907
2.89658
2.92606
2.96013
2.99539
3.01988
3.04126
0.999706
0.999708
0.999689
0.999652
0.999594
0.999515
0.999418
0.999285
0.999125
0.998951
0.998723
0.998452
0.998185
0.997856
0.997424
0.997025
0.996611
0.996031
0.995413
0.994899
0.994301
0.993494
0.992699
0.991938
0.9911
0.990365
0.98963
0.988891
0.987647
0.985332
0.983895
0.983039
0.982755
0.982931
0.982925
0.981448
0.976052
0.9715
0.969904
0.968537
0.968356
0.969582
0.977759
1.08852
1.77585
1.95105
1.9479
1.98026
2.10556
2.2824
2.39721
2.38273
2.34063
2.29278
2.23993
2.21518
2.18135
2.16134
2.14703
2.1247
2.11464
2.11061
2.09864
2.09974
2.10459
2.1009
2.11999
2.13035
2.12944
2.16135
2.17706
2.18995
2.23902
2.27638
2.31614
2.37759
2.43265
2.50139
2.58123
2.64577
2.6986
2.75143
2.8057
2.8548
2.88966
2.91578
2.9262
2.93349
2.93965
2.93173
2.92784
2.919
2.90897
2.89892
2.88354
2.86494
2.84926
2.84002
2.83322
2.8257
2.81964
2.816
2.81603
2.81881
2.8227
2.82805
2.83513
2.84322
2.85018
2.85212
2.8529
2.85516
2.86779
2.8863
2.91379
2.94792
2.98455
3.01048
3.03098
0.999709
0.999712
0.999693
0.999656
0.9996
0.999519
0.999423
0.999296
0.999131
0.998958
0.998743
0.998462
0.998187
0.997884
0.997442
0.997013
0.996633
0.996071
0.995388
0.994878
0.994353
0.99352
0.992523
0.991834
0.991248
0.99052
0.989283
0.988147
0.987106
0.985742
0.984367
0.983131
0.98246
0.982378
0.982342
0.981172
0.977166
0.972487
0.971438
0.97139
0.972038
0.975405
0.994583
1.32383
1.93475
1.98646
1.97087
1.97342
2.01091
2.09487
2.26949
2.3552
2.37334
2.30544
2.27858
2.24197
2.19313
2.1682
2.15289
2.13357
2.13037
2.13095
2.1141
2.13712
2.14948
2.14401
2.19051
2.20649
2.21816
2.28308
2.31808
2.35722
2.43186
2.49857
2.56184
2.62494
2.68111
2.74133
2.79883
2.84335
2.86684
2.8841
2.90059
2.91506
2.92558
2.93117
2.93012
2.92392
2.92434
2.91951
2.91426
2.9061
2.89767
2.88624
2.86952
2.85531
2.84666
2.84097
2.83382
2.82623
2.82063
2.81829
2.8192
2.8218
2.8251
2.83002
2.83665
2.8436
2.84781
2.84605
2.84462
2.84646
2.85837
2.87625
2.90183
2.93736
2.97485
3.00043
3.01995
0.999713
0.999716
0.999697
0.99966
0.999605
0.999526
0.999428
0.999306
0.999142
0.998965
0.99876
0.998481
0.99819
0.997899
0.997477
0.997019
0.996633
0.996109
0.995403
0.994847
0.994356
0.993537
0.992442
0.991755
0.991296
0.99062
0.989055
0.987601
0.986761
0.98607
0.985205
0.983618
0.982063
0.981461
0.981118
0.980378
0.978556
0.975031
0.973595
0.973509
0.973853
0.977297
1.01047
1.56924
2.04003
2.02768
2.00419
1.98952
1.98821
2.01332
2.09717
2.22392
2.33967
2.32397
2.32875
2.26102
2.21887
2.18749
2.18014
2.16095
2.1882
2.19251
2.1716
2.22757
2.24217
2.25756
2.33453
2.36991
2.41511
2.50299
2.5597
2.60975
2.67176
2.73282
2.78317
2.82447
2.85544
2.87667
2.89079
2.89916
2.90137
2.90604
2.91226
2.9148
2.91298
2.91513
2.91653
2.91155
2.90935
2.90452
2.89934
2.8927
2.88479
2.87277
2.85941
2.85138
2.84695
2.84107
2.83294
2.82649
2.82259
2.82134
2.82261
2.82502
2.82794
2.83227
2.83779
2.84211
2.84233
2.83874
2.83771
2.83975
2.85056
2.86644
2.891
2.92759
2.965
2.98954
3.0081
0.999718
0.999721
0.999702
0.999665
0.999612
0.999534
0.999434
0.999315
0.999157
0.998972
0.998774
0.99851
0.998202
0.997904
0.997522
0.997047
0.996616
0.996135
0.99546
0.994839
0.994317
0.993553
0.992465
0.991743
0.991263
0.990591
0.988937
0.987313
0.98656
0.986175
0.985752
0.984451
0.981789
0.980534
0.979968
0.97973
0.979298
0.978324
0.976552
0.975005
0.975051
0.97964
1.05516
1.80105
2.06035
2.06179
2.04448
2.02525
2.00847
2.00725
2.02827
2.0706
2.19411
2.30358
2.32486
2.27009
2.2746
2.22884
2.25168
2.23077
2.28949
2.30474
2.31503
2.39195
2.42851
2.47641
2.56629
2.61545
2.66511
2.72694
2.77277
2.80894
2.84248
2.86254
2.87469
2.88502
2.89424
2.9011
2.90192
2.89899
2.89821
2.89528
2.90064
2.90432
2.90225
2.89846
2.90016
2.89861
2.89698
2.89034
2.88461
2.88016
2.87247
2.86221
2.85453
2.85105
2.84725
2.84007
2.83318
2.82878
2.82594
2.82523
2.82606
2.8275
2.82972
2.83325
2.8367
2.83805
2.8352
2.8314
2.83163
2.83462
2.84378
2.85702
2.88213
2.9187
2.95487
2.97836
2.99573
0.999722
0.999725
0.999707
0.999671
0.999618
0.999544
0.999442
0.999324
0.999175
0.998984
0.998785
0.998543
0.998226
0.997907
0.997565
0.997096
0.996603
0.996152
0.995562
0.994858
0.994245
0.993558
0.99259
0.991755
0.991137
0.990421
0.988961
0.987318
0.986497
0.986176
0.985911
0.984954
0.982051
0.98012
0.979457
0.979412
0.979577
0.97972
0.979462
0.978349
0.978646
0.987703
1.22816
1.94169
2.07236
2.07045
2.06187
2.04922
2.03312
2.02357
2.01818
2.02493
2.07644
2.19047
2.30247
2.31623
2.36711
2.31222
2.37812
2.38877
2.45659
2.501
2.5471
2.62082
2.66613
2.71218
2.76706
2.80593
2.83097
2.8495
2.86265
2.87205
2.88058
2.88637
2.88767
2.88981
2.89287
2.89166
2.89147
2.88867
2.88845
2.88832
2.88809
2.88875
2.88831
2.88504
2.88512
2.88426
2.88304
2.87749
2.8724
2.8688
2.86226
2.85636
2.85328
2.85169
2.84706
2.84021
2.83536
2.83221
2.82974
2.82901
2.82888
2.82887
2.83007
2.8321
2.83328
2.83228
2.82776
2.82456
2.82557
2.82892
2.83696
2.8488
2.87497
2.91091
2.94526
2.96778
2.98372
0.999728
0.99973
0.999713
0.999677
0.999624
0.999553
0.999452
0.999334
0.999193
0.999002
0.998796
0.998572
0.998259
0.997915
0.997599
0.997153
0.996613
0.996167
0.995659
0.994906
0.99418
0.99356
0.992799
0.991817
0.990953
0.990189
0.989095
0.987601
0.986514
0.98594
0.985614
0.984854
0.982706
0.980371
0.979572
0.97938
0.979452
0.97996
0.980286
0.980247
0.981759
0.999298
1.45713
2.02265
2.06137
2.06068
2.06082
2.05525
2.04682
2.03961
2.03302
2.02725
2.0367
2.13305
2.25553
2.37596
2.48207
2.50508
2.57594
2.61334
2.66543
2.70815
2.74861
2.78963
2.822
2.83834
2.85101
2.86014
2.86601
2.87233
2.87579
2.87655
2.8776
2.87722
2.8798
2.88245
2.8841
2.88136
2.87748
2.87665
2.8767
2.87628
2.87422
2.87163
2.87208
2.87011
2.8704
2.87006
2.86929
2.86621
2.86288
2.86031
2.85559
2.85277
2.85271
2.85131
2.84586
2.84069
2.83772
2.8353
2.83266
2.8314
2.83067
2.82933
2.82939
2.82994
2.82891
2.82558
2.82067
2.81811
2.81895
2.82113
2.82933
2.84199
2.86809
2.90295
2.93657
2.95853
2.9725
0.999733
0.999736
0.999719
0.999685
0.999631
0.999563
0.999465
0.999344
0.99921
0.999025
0.998811
0.998595
0.998301
0.997941
0.997619
0.997212
0.99665
0.996177
0.995714
0.994977
0.994161
0.993568
0.992951
0.991955
0.990799
0.989994
0.989215
0.988157
0.986661
0.985552
0.984979
0.984416
0.983342
0.981529
0.980119
0.979252
0.978935
0.97895
0.979343
0.979565
0.981816
1.01354
1.68701
2.09317
2.09557
2.08777
2.08042
2.07052
2.06266
2.06244
2.0621
2.05229
2.07372
2.18075
2.29216
2.5055
2.66073
2.712
2.74688
2.77863
2.80403
2.82008
2.82943
2.8414
2.85309
2.85904
2.8614
2.86257
2.86416
2.86438
2.86608
2.86697
2.86881
2.86986
2.87013
2.86949
2.86822
2.86569
2.86293
2.86217
2.86152
2.86106
2.85917
2.85649
2.85737
2.8569
2.85819
2.85839
2.85822
2.85654
2.85411
2.85217
2.84928
2.84941
2.85028
2.8479
2.84322
2.84101
2.8397
2.83682
2.83364
2.83183
2.83098
2.82895
2.8278
2.82738
2.82431
2.81865
2.81385
2.8117
2.81168
2.81281
2.82159
2.83587
2.86053
2.89331
2.92747
2.94971
2.96171
0.99974
0.999742
0.999726
0.999693
0.999639
0.999573
0.99948
0.999358
0.999225
0.999053
0.998834
0.998614
0.998348
0.997987
0.997636
0.997262
0.996731
0.9962
0.995734
0.995068
0.994205
0.993559
0.993009
0.992095
0.990761
0.989867
0.989242
0.988513
0.987074
0.985226
0.984269
0.983871
0.983468
0.982714
0.981547
0.979451
0.978015
0.977587
0.977606
0.977987
0.982486
1.06995
1.84937
2.11535
2.11998
2.11609
2.10917
2.10113
2.09533
2.10211
2.11335
2.11845
2.17406
2.32664
2.50067
2.73718
2.8107
2.82359
2.82533
2.82738
2.83061
2.83343
2.83481
2.83851
2.84318
2.84394
2.84595
2.84897
2.85146
2.85136
2.85177
2.85285
2.85535
2.85633
2.8551
2.85283
2.85091
2.85056
2.85036
2.85033
2.84908
2.84727
2.84511
2.84267
2.84354
2.84403
2.8459
2.84656
2.84698
2.84625
2.84456
2.84352
2.84229
2.84413
2.8446
2.84194
2.84017
2.84047
2.83955
2.8365
2.83267
2.83045
2.82978
2.82803
2.82593
2.82422
2.82026
2.81294
2.80652
2.80372
2.80332
2.80425
2.81363
2.82837
2.85148
2.88293
2.91756
2.94023
2.9498
0.999747
0.999749
0.999733
0.999702
0.999649
0.999583
0.999496
0.999374
0.999241
0.999083
0.998865
0.998633
0.998391
0.998048
0.997662
0.997307
0.99684
0.996255
0.995741
0.995165
0.994342
0.993589
0.99298
0.992196
0.990874
0.989846
0.989211
0.988587
0.987464
0.985281
0.983883
0.983257
0.983167
0.982991
0.982296
0.980836
0.977854
0.976861
0.976873
0.977886
0.988356
1.24941
1.97858
2.1053
2.11155
2.11531
2.11549
2.11482
2.11976
2.13582
2.17019
2.21708
2.33653
2.56234
2.76406
2.86038
2.86337
2.85088
2.83729
2.8278
2.82264
2.82076
2.82035
2.82095
2.82282
2.82419
2.82529
2.82809
2.83199
2.83411
2.83604
2.83741
2.8386
2.83905
2.83784
2.83527
2.83385
2.83453
2.83601
2.83695
2.83522
2.83285
2.83055
2.82843
2.82922
2.83011
2.83229
2.83324
2.83406
2.83422
2.83353
2.83308
2.83358
2.83598
2.83553
2.8343
2.83579
2.83741
2.83684
2.83351
2.82939
2.82758
2.82745
2.82623
2.82326
2.82003
2.81619
2.80842
2.79988
2.79491
2.79409
2.79573
2.80515
2.81931
2.84168
2.8735
2.90762
2.92856
2.93709
0.999754
0.999757
0.999741
0.999711
0.999661
0.999594
0.999512
0.999395
0.999258
0.999111
0.998904
0.99866
0.998429
0.998116
0.997709
0.997352
0.996944
0.996341
0.995764
0.995252
0.994557
0.993667
0.992934
0.992225
0.991194
0.989983
0.989098
0.988435
0.987519
0.985826
0.983994
0.982866
0.982431
0.982469
0.98216
0.981227
0.979325
0.97673
0.976186
0.978295
0.998746
1.4791
2.05222
2.08888
2.09781
2.10681
2.11027
2.12038
2.14406
2.16784
2.23998
2.37284
2.58047
2.79086
2.88177
2.88041
2.86267
2.8431
2.82693
2.81482
2.80667
2.80237
2.80008
2.79936
2.79945
2.80072
2.80166
2.80398
2.80688
2.81088
2.8149
2.81635
2.81759
2.81758
2.81686
2.81547
2.81527
2.81713
2.81927
2.82082
2.81942
2.81731
2.81505
2.81324
2.81411
2.8154
2.8179
2.81915
2.82045
2.82137
2.82154
2.82168
2.82279
2.8252
2.82495
2.82702
2.83113
2.83311
2.83249
2.82914
2.82622
2.82516
2.8253
2.82417
2.82034
2.81537
2.81084
2.80328
2.79393
2.78684
2.7848
2.78656
2.79556
2.80924
2.83145
2.86446
2.89736
2.91585
2.92306
0.999762
0.999765
0.999749
0.999721
0.999674
0.999606
0.999529
0.999419
0.99928
0.999137
0.998947
0.9987
0.998465
0.998185
0.997781
0.997401
0.997028
0.996459
0.995829
0.995337
0.994751
0.993806
0.992928
0.992265
0.991518
0.990336
0.989034
0.988127
0.98737
0.986329
0.984739
0.982831
0.98158
0.981061
0.981089
0.98067
0.979521
0.977322
0.975724
0.978302
1.01793
1.71252
2.10329
2.1171
2.12286
2.12529
2.12364
2.14767
2.19013
2.23517
2.39283
2.60648
2.80261
2.88928
2.88419
2.86668
2.84785
2.82819
2.81332
2.80124
2.79262
2.78685
2.78274
2.77912
2.7767
2.77681
2.77632
2.77713
2.77821
2.78062
2.78459
2.78771
2.78968
2.79042
2.79122
2.7918
2.7943
2.7977
2.8003
2.80219
2.80138
2.80069
2.79894
2.79757
2.79871
2.8
2.80268
2.80436
2.80597
2.80771
2.80834
2.80897
2.81066
2.81272
2.81483
2.82012
2.82482
2.82641
2.8257
2.82401
2.82309
2.82297
2.82311
2.8217
2.81704
2.81045
2.80397
2.79619
2.78713
2.78003
2.77726
2.77828
2.78563
2.79907
2.82205
2.85523
2.88593
2.90286
2.90921
0.999771
0.999774
0.999758
0.999731
0.999688
0.999622
0.999545
0.999444
0.999307
0.999164
0.998993
0.998753
0.998504
0.99825
0.997878
0.997468
0.997104
0.996608
0.995953
0.995415
0.994883
0.99401
0.993005
0.992312
0.991716
0.990746
0.989134
0.987925
0.987106
0.9864
0.985374
0.983541
0.981123
0.979542
0.979005
0.979082
0.978901
0.977435
0.975885
0.982664
1.11294
1.87693
2.10467
2.12268
2.1354
2.14299
2.14724
2.19082
2.27945
2.3846
2.63762
2.80793
2.88733
2.88233
2.867
2.84969
2.82978
2.81316
2.79896
2.78767
2.77943
2.77385
2.77012
2.76768
2.76503
2.76206
2.75792
2.75478
2.75196
2.75167
2.75348
2.75641
2.75973
2.76319
2.76617
2.76947
2.77334
2.77794
2.7813
2.78357
2.78321
2.78374
2.78274
2.7823
2.7833
2.784
2.78675
2.78905
2.79106
2.79299
2.79404
2.79562
2.79788
2.80142
2.80732
2.81381
2.81738
2.81771
2.81819
2.81893
2.81937
2.81976
2.81954
2.81772
2.81283
2.80535
2.79658
2.78762
2.77853
2.7721
2.76985
2.77019
2.77566
2.78877
2.81238
2.84495
2.87378
2.88971
2.89553
0.99978
0.999784
0.999769
0.999742
0.999702
0.999639
0.999563
0.999471
0.99934
0.999193
0.999038
0.998815
0.998554
0.998313
0.997988
0.997561
0.997182
0.996759
0.996138
0.995521
0.994991
0.994279
0.993247
0.992412
0.991762
0.99096
0.989514
0.987973
0.986904
0.98618
0.985374
0.984068
0.981692
0.978787
0.977118
0.976786
0.97723
0.977371
0.978999
0.998254
1.34741
2.00619
2.08921
2.10121
2.12303
2.14734
2.17653
2.26302
2.4496
2.62693
2.8309
2.87882
2.87311
2.85918
2.84627
2.82845
2.81096
2.79543
2.7832
2.77401
2.76724
2.76228
2.75862
2.75562
2.75251
2.74921
2.74504
2.74031
2.73553
2.73247
2.73148
2.73081
2.73244
2.73534
2.73937
2.74546
2.75023
2.75546
2.75933
2.76221
2.7641
2.76572
2.7655
2.76682
2.76891
2.77016
2.77284
2.77517
2.77741
2.77931
2.7795
2.78063
2.78384
2.79065
2.79953
2.80533
2.80803
2.80885
2.81169
2.81444
2.81589
2.81659
2.81572
2.81321
2.80843
2.80072
2.79009
2.77937
2.77
2.764
2.76257
2.76329
2.76776
2.78035
2.80332
2.83437
2.86168
2.87671
2.882
0.99979
0.999794
0.999781
0.999754
0.999718
0.999659
0.999583
0.999498
0.999377
0.999228
0.999081
0.998883
0.998621
0.99838
0.998098
0.99768
0.997276
0.996905
0.996357
0.995669
0.995112
0.994531
0.993638
0.992584
0.991776
0.991057
0.990033
0.988408
0.986884
0.985733
0.984871
0.983912
0.982383
0.979781
0.976193
0.974124
0.973946
0.974691
0.979329
1.02012
1.60958
2.0977
2.09802
2.10215
2.12905
2.17303
2.27605
2.436
2.69891
2.81487
2.87274
2.86402
2.84896
2.83974
2.82502
2.8086
2.7924
2.7796
2.77018
2.7631
2.75742
2.75254
2.74813
2.74402
2.74028
2.73675
2.73257
2.72782
2.72284
2.71743
2.71346
2.7106
2.71102
2.71173
2.71424
2.71963
2.72478
2.73172
2.7366
2.74147
2.74484
2.7472
2.74833
2.75015
2.75297
2.75461
2.7573
2.75966
2.76187
2.7635
2.76423
2.76671
2.77158
2.78059
2.79015
2.79544
2.79721
2.80009
2.80449
2.80839
2.81091
2.81162
2.8101
2.80693
2.80246
2.79532
2.78399
2.77141
2.7612
2.75529
2.7541
2.7552
2.75964
2.77196
2.79378
2.82346
2.84953
2.86374
2.86867
0.999802
0.999805
0.999793
0.999768
0.999733
0.999681
0.999606
0.999525
0.999418
0.999271
0.999126
0.998953
0.998704
0.998455
0.998205
0.997827
0.997404
0.997049
0.996585
0.995882
0.995279
0.994769
0.994051
0.992876
0.991879
0.991146
0.990394
0.98915
0.98712
0.985461
0.984158
0.983295
0.982368
0.980714
0.977236
0.972276
0.970695
0.971314
0.979201
1.09276
1.85373
2.09371
2.11145
2.13074
2.18035
2.2688
2.49574
2.68668
2.84215
2.87094
2.85659
2.83663
2.82882
2.81739
2.80446
2.78988
2.77741
2.76791
2.76078
2.75498
2.74996
2.74493
2.73957
2.73424
2.72941
2.72526
2.72076
2.71578
2.71092
2.70503
2.6998
2.69556
2.69381
2.69197
2.693
2.69507
2.6984
2.70527
2.71202
2.71944
2.72431
2.72805
2.73089
2.73405
2.73734
2.73928
2.74206
2.74408
2.746
2.74764