/*--------------------------------*- C++ -*----------------------------------*\
| =========                 |                                                 |
| \\      /  F ield         | OpenFOAM: The Open Source CFD Toolbox           |
|  \\    /   O peration     | Version:  2.2.x                                 |
|   \\  /    A nd           | Web:      www.OpenFOAM.org                      |
|    \\/     M anipulation  |                                                 |
\*---------------------------------------------------------------------------*/
FoamFile
{
    version     2.0;
    format      ascii;
    class       volScalarField;
    location    "1.65";
    object      T;
}
// * * * * * * * * * * * * * * * * * * * * * * * * * * * * * * * * * * * * * //

dimensions      [0 0 0 1 0 0 0];

internalField   nonuniform List<scalar> 
14161
(
0.998522
0.998568
0.998456
0.998261
0.997961
0.99757
0.997061
0.996399
0.995659
0.994773
0.993651
0.99244
0.991137
0.989407
0.987657
0.98588
0.983404
0.981059
0.979074
0.976172
0.973071
0.971409
0.969599
0.966009
0.964188
0.963175
0.961909
0.961584
0.961605
0.962266
0.96386
0.966743
0.971142
0.975488
0.981479
0.990885
0.999278
1.01025
1.03078
1.04821
1.06288
1.07909
1.10165
1.11974
2.54784
2.9596
2.99833
3.01331
3.00762
3.00451
2.9856
2.97392
2.95085
2.93219
2.91425
2.89617
2.87787
2.86087
2.84646
2.8299
2.81304
2.79642
2.77926
2.76537
2.75573
2.74363
2.73543
2.72898
2.71845
2.71047
2.70414
2.69561
2.69097
2.69113
2.69224
2.68483
2.67566
2.66147
2.64747
2.63372
2.62135
2.61864
2.61189
2.60564
2.59616
2.58375
2.56897
2.55296
2.54611
2.53617
2.52589
2.48841
2.46252
2.43668
2.40839
2.38528
2.36562
2.34005
2.31442
2.27601
2.23871
2.20517
2.17794
2.16043
2.15118
2.1596
2.17831
2.2486
2.41939
2.55929
2.69245
2.82719
2.91108
2.95987
3.00344
3.04869
3.08673
3.1127
3.14647
0.99852
0.998568
0.998456
0.99826
0.997962
0.997569
0.997058
0.9964
0.99566
0.994765
0.993647
0.992443
0.991126
0.989407
0.987668
0.985862
0.983389
0.981154
0.979019
0.976032
0.973245
0.97145
0.969328
0.96616
0.964416
0.963007
0.961742
0.961459
0.961464
0.962085
0.963619
0.966434
0.970752
0.974949
0.980881
0.990335
0.999051
1.01018
1.02893
1.04711
1.06271
1.07861
1.10311
1.14707
2.57004
2.97003
3.00708
3.02128
3.01003
3.00457
2.98294
2.97214
2.9499
2.93272
2.91555
2.89848
2.88059
2.86469
2.84943
2.83496
2.81638
2.7993
2.78427
2.7688
2.75741
2.74633
2.73639
2.72921
2.72088
2.7109
2.70197
2.69379
2.686
2.68124
2.67749
2.6706
2.66291
2.65332
2.64006
2.63059
2.62139
2.61426
2.60452
2.59555
2.58606
2.57574
2.56307
2.54733
2.53203
2.52088
2.50912
2.47604
2.45531
2.43452
2.41039
2.3873
2.36054
2.33523
2.30386
2.26412
2.2269
2.20009
2.17817
2.17853
2.19571
2.25521
2.36877
2.55645
2.76092
2.8798
2.95675
3.00144
3.02245
3.03445
3.05722
3.08727
3.10922
3.11831
3.14637
0.998521
0.998568
0.998456
0.998258
0.997966
0.997568
0.997054
0.996403
0.995661
0.994751
0.99364
0.992449
0.991106
0.989415
0.987667
0.985838
0.983432
0.981221
0.978953
0.976053
0.973474
0.971234
0.969078
0.966442
0.964316
0.96263
0.961508
0.96122
0.961156
0.961627
0.963009
0.965658
0.969696
0.973523
0.979335
0.988554
0.997954
1.00914
1.02406
1.04306
1.0597
1.0748
1.09742
1.15543
2.56873
2.9728
3.01154
3.0293
3.01534
3.00797
2.98125
2.96695
2.94271
2.92483
2.90711
2.88994
2.87382
2.85726
2.84169
2.82645
2.81134
2.79386
2.77847
2.76315
2.74959
2.74094
2.73303
2.7261
2.71758
2.709
2.69994
2.69202
2.68385
2.67496
2.66549
2.6565
2.6524
2.64895
2.63715
2.62725
2.61747
2.60714
2.59594
2.58459
2.57323
2.5666
2.55382
2.53769
2.51985
2.50824
2.4977
2.46765
2.45074
2.43413
2.4099
2.38477
2.3559
2.32309
2.28426
2.25112
2.2296
2.20983
2.20079
2.23658
2.292
2.40959
2.58472
2.76101
2.95793
3.07223
3.11757
3.12337
3.10815
3.09403
3.09173
3.10069
3.11006
3.11145
3.13127
0.998522
0.998569
0.998456
0.998257
0.997969
0.997568
0.997047
0.996415
0.995661
0.994735
0.993639
0.992466
0.991068
0.989408
0.987676
0.985771
0.983494
0.981218
0.978798
0.976101
0.973693
0.970892
0.968793
0.96662
0.964172
0.961929
0.961087
0.960859
0.960692
0.960813
0.961968
0.96434
0.967688
0.971254
0.976766
0.985427
0.995295
1.00491
1.01786
1.03493
1.05335
1.07082
1.09201
1.14733
2.55329
2.96894
3.00795
3.03433
3.01208
3.01038
2.98126
2.96597
2.94
2.92028
2.89941
2.87891
2.86042
2.84286
2.82563
2.81043
2.79502
2.77911
2.76134
2.74619
2.73135
2.72048
2.7155
2.70952
2.70102
2.69318
2.6834
2.67402
2.66539
2.6592
2.65146
2.64206
2.63292
2.62916
2.6238
2.61212
2.601
2.58877
2.57726
2.56494
2.55107
2.54509
2.53152
2.51611
2.50275
2.4906
2.4783
2.44968
2.43208
2.41064
2.38747
2.36275
2.33239
2.29632
2.26925
2.25004
2.23735
2.23916
2.25303
2.3457
2.49381
2.69112
2.86703
3.02568
3.11381
3.1832
3.209
3.20496
3.18492
3.15419
3.12813
3.11444
3.11065
3.10641
3.11951
0.998523
0.99857
0.998457
0.998256
0.997971
0.99757
0.99704
0.99643
0.995665
0.994722
0.993652
0.992491
0.991025
0.989398
0.987734
0.985677
0.983497
0.981321
0.978567
0.97613
0.973902
0.970621
0.968439
0.966639
0.9642
0.961363
0.960412
0.960252
0.959914
0.959645
0.960452
0.962405
0.964726
0.968089
0.97296
0.98082
0.990054
0.998122
1.00844
1.02168
1.04305
1.06464
1.08357
1.12715
2.53215
2.96647
3.01024
3.04006
3.00808
3.00563
2.9722
2.95433
2.92679
2.9071
2.88595
2.86158
2.84079
2.82117
2.80181
2.78625
2.7691
2.75169
2.73622
2.71939
2.70485
2.68801
2.67861
2.67457
2.66993
2.66172
2.65527
2.64552
2.63397
2.62535
2.61541
2.60765
2.59806
2.59009
2.59026
2.58096
2.57018
2.55941
2.54853
2.53618
2.52187
2.51323
2.49654
2.48244
2.46891
2.45647
2.44353
2.41821
2.40038
2.37859
2.35589
2.3264
2.29876
2.27716
2.26104
2.24964
2.26179
2.30708
2.38975
2.55902
2.75323
2.92897
3.06574
3.12948
3.17499
3.21695
3.23632
3.24359
3.22825
3.19354
3.15474
3.12591
3.11079
3.10389
3.11071
0.998526
0.998572
0.998459
0.998258
0.997972
0.997572
0.997037
0.996438
0.995673
0.99471
0.99367
0.992516
0.991001
0.989412
0.987792
0.985605
0.983506
0.981416
0.978439
0.976097
0.974028
0.970533
0.968094
0.966546
0.96431
0.960927
0.959556
0.959179
0.95889
0.958354
0.958328
0.959594
0.961048
0.963858
0.967689
0.974163
0.981653
0.989263
0.995716
1.00746
1.02616
1.05425
1.0756
1.1181
2.51116
2.97021
3.01478
3.04906
3.00615
3.00241
2.96221
2.9397
2.91014
2.88857
2.8645
2.83372
2.80837
2.7841
2.75867
2.73573
2.71423
2.69496
2.67805
2.66496
2.65031
2.62917
2.61614
2.60842
2.60691
2.6023
2.59712
2.58982
2.57873
2.56735
2.55601
2.54768
2.53813
2.53081
2.52763
2.52424
2.51448
2.5059
2.49554
2.48317
2.46982
2.45915
2.44226
2.42908
2.41541
2.40178
2.38893
2.36737
2.35207
2.33474
2.31283
2.2954
2.28178
2.26385
2.27154
2.28063
2.33777
2.46186
2.6268
2.79548
2.97932
3.07365
3.12622
3.1687
3.20082
3.22365
3.2442
3.25757
3.24713
3.21445
3.1724
3.13488
3.11154
3.10333
3.10508
0.99853
0.998574
0.998462
0.998262
0.997974
0.997575
0.997038
0.996442
0.99568
0.994708
0.993682
0.992534
0.990992
0.989422
0.987836
0.985585
0.983502
0.981435
0.978419
0.976081
0.973967
0.970562
0.967906
0.966397
0.964147
0.960468
0.958593
0.957662
0.957454
0.956633
0.956202
0.955888
0.956538
0.958208
0.960942
0.964633
0.970053
0.976509
0.981854
0.990305
1.00354
1.03011
1.05498
1.10284
2.44287
2.95791
3.01387
3.04973
2.9935
2.98697
2.93814
2.90319
2.86918
2.84115
2.81078
2.7729
2.7466
2.72076
2.68942
2.6595
2.63535
2.61665
2.59983
2.589
2.57549
2.55432
2.53662
2.5261
2.52371
2.52333
2.52063
2.51279
2.50141
2.48793
2.47952
2.47156
2.46276
2.45837
2.45474
2.45108
2.4438
2.43532
2.42524
2.41298
2.4022
2.39267
2.3776
2.36701
2.35514
2.34306
2.33393
2.32115
2.3136
2.30073
2.28001
2.28072
2.28656
2.26313
2.32733
2.39436
2.51183
2.69291
2.85408
3.00319
3.06738
3.10698
3.14351
3.17744
3.2034
3.22727
3.24916
3.25936
3.25116
3.22254
3.18159
3.13918
3.11179
3.10259
3.10142
0.998535
0.998578
0.998466
0.998268
0.997973
0.997581
0.997047
0.996442
0.995688
0.994717
0.993683
0.992546
0.990995
0.989427
0.987843
0.9856
0.983488
0.98138
0.97853
0.976071
0.973757
0.970616
0.967842
0.965942
0.963626
0.960236
0.957577
0.955796
0.95542
0.954568
0.953951
0.952004
0.950998
0.951203
0.952129
0.953487
0.955694
0.959182
0.963558
0.969207
0.976503
0.990701
1.01451
1.07938
2.30854
2.91604
3.00879
3.03498
2.96251
2.93789
2.87297
2.82037
2.78148
2.74814
2.71843
2.68065
2.65828
2.63403
2.60008
2.57141
2.54274
2.52619
2.51385
2.50259
2.49137
2.47491
2.45491
2.44385
2.44222
2.44198
2.4374
2.4309
2.42196
2.41042
2.40223
2.3975
2.38833
2.38231
2.38013
2.37638
2.37194
2.36694
2.36097
2.35136
2.34245
2.33628
2.32422
2.31828
2.312
2.30357
2.29987
2.28825
2.28588
2.28935
2.2695
2.29654
2.32586
2.3287
2.46177
2.60158
2.73989
2.89499
3.00496
3.0508
3.08421
3.11383
3.147
3.1755
3.19917
3.22583
3.2461
3.25534
3.24946
3.22453
3.18434
3.14088
3.11166
3.10098
3.09766
0.99854
0.998584
0.998472
0.998274
0.997973
0.997588
0.997065
0.996437
0.995698
0.994741
0.993681
0.99255
0.991024
0.989428
0.987811
0.985675
0.983474
0.981295
0.978746
0.976
0.97349
0.970663
0.967778
0.965163
0.962787
0.96011
0.9568
0.954125
0.953004
0.952157
0.951114
0.948816
0.944887
0.942378
0.940941
0.940271
0.939519
0.938141
0.939016
0.939211
0.939282
0.940408
0.943798
1.01525
1.98801
2.87819
3.01503
2.98191
2.8864
2.81682
2.74602
2.69942
2.67033
2.6391
2.61717
2.58795
2.56866
2.5503
2.51876
2.49052
2.46627
2.44922
2.43305
2.42384
2.41259
2.39749
2.38699
2.37718
2.37126
2.3718
2.36878
2.36154
2.35366
2.34404
2.33578
2.33581
2.33064
2.3237
2.31847
2.31649
2.3142
2.31576
2.31108
2.30676
2.30028
2.2954
2.29174
2.28797
2.28923
2.28107
2.28407
2.2826
2.28186
2.30427
2.299
2.36162
2.44574
2.5116
2.66165
2.81213
2.94058
3.00168
3.03859
3.06038
3.07832
3.10735
3.13536
3.16401
3.19411
3.22026
3.23864
3.24761
3.24334
3.22225
3.18367
3.14162
3.11124
3.09783
3.09284
0.998548
0.99859
0.998477
0.998282
0.997977
0.997596
0.997083
0.996434
0.99571
0.994776
0.993687
0.992545
0.991084
0.989432
0.987771
0.985812
0.983487
0.98121
0.978851
0.975969
0.973149
0.97055
0.967886
0.964579
0.961988
0.959423
0.956056
0.952863
0.950806
0.94925
0.947433
0.944778
0.939413
0.934283
0.929541
0.925797
0.921815
0.915805
0.909928
0.905912
0.895927
0.88263
0.843049
0.882275
1.37563
2.72416
3.01469
2.85613
2.76955
2.68173
2.61308
2.57742
2.56315
2.52673
2.52076
2.4933
2.48257
2.46279
2.44111
2.41904
2.39564
2.38291
2.36442
2.35211
2.34233
2.33176
2.32088
2.31382
2.31089
2.3088
2.31046
2.30869
2.29801
2.28935
2.28404
2.28251
2.28187
2.28076
2.2783
2.2775
2.27604
2.27608
2.27875
2.27853
2.27613
2.28151
2.28296
2.27409
2.28638
2.27769
2.29666
2.31657
2.30947
2.36802
2.41144
2.51555
2.64891
2.74929
2.87253
2.96905
2.99977
3.02696
3.03977
3.04794
3.06899
3.09591
3.12369
3.15596
3.1859
3.21195
3.22878
3.23696
3.23453
3.2172
3.18113
3.14165
3.1106
3.09416
3.08772
0.998556
0.998598
0.998484
0.998291
0.997986
0.997605
0.9971
0.99644
0.99572
0.994815
0.993697
0.992536
0.991167
0.989467
0.987749
0.985919
0.983483
0.981147
0.978852
0.976106
0.972862
0.970378
0.967752
0.964325
0.961005
0.958134
0.955147
0.952012
0.949174
0.94599
0.943067
0.938884
0.933483
0.928638
0.921803
0.913743
0.905236
0.894994
0.883031
0.872155
0.853684
0.826075
0.736722
0.69461
0.768972
2.15073
2.9631
2.72334
2.64737
2.57392
2.522
2.48865
2.46452
2.4339
2.44102
2.4103
2.40751
2.38298
2.36688
2.35645
2.33311
2.32252
2.30769
2.29347
2.28565
2.2798
2.27344
2.26906
2.26688
2.26463
2.26727
2.26581
2.26522
2.25496
2.25111
2.24897
2.2521
2.25452
2.25713
2.25823
2.25349
2.25993
2.2685
2.26985
2.2654
2.28448
2.29445
2.28422
2.30806
2.30934
2.35109
2.40734
2.44184
2.53476
2.63022
2.71395
2.84844
2.95326
2.98154
3.00752
3.01719
3.02318
3.02648
3.03577
3.05657
3.0811
3.11305
3.14777
3.17942
3.20283
3.21805
3.22669
3.22517
3.21154
3.17884
3.14159
3.10962
3.08991
3.08231
0.998566
0.998607
0.998492
0.998301
0.997999
0.997611
0.997119
0.996458
0.995726
0.994853
0.993733
0.992532
0.991234
0.989498
0.98775
0.985967
0.983528
0.981091
0.978854
0.976236
0.97269
0.970095
0.967517
0.96428
0.959954
0.956773
0.953652
0.951426
0.948197
0.943006
0.938143
0.932971
0.927327
0.923368
0.917132
0.906246
0.893853
0.879986
0.863044
0.849531
0.831981
0.810767
0.764259
0.75025
0.819098
1.65017
2.85466
2.63947
2.59235
2.52168
2.4709
2.43097
2.40253
2.37523
2.37418
2.35127
2.35296
2.33092
2.31555
2.30876
2.29472
2.28326
2.27009
2.26335
2.25391
2.24797
2.24625
2.24532
2.24429
2.24265
2.24327
2.24268
2.24219
2.24057
2.23743
2.23727
2.2407
2.24477
2.24722
2.25133
2.24901
2.26205
2.27624
2.28204
2.28142
2.31368
2.34398
2.34495
2.39745
2.44043
2.50071
2.5836
2.65278
2.73851
2.84169
2.91923
2.979
3.00234
3.0072
3.00565
3.00991
3.01491
3.01525
3.02797
3.04588
3.07284
3.10568
3.14056
3.17103
3.19281
3.20748
3.21717
3.21597
3.20596
3.17696
3.141
3.10791
3.08532
3.07677
0.998576
0.998617
0.998502
0.998313
0.998017
0.997619
0.997139
0.996489
0.995733
0.994888
0.993774
0.992548
0.991272
0.989545
0.987751
0.985939
0.983619
0.981079
0.978805
0.97624
0.972614
0.96972
0.967366
0.964312
0.959125
0.955409
0.952436
0.950407
0.947707
0.94028
0.934004
0.928417
0.922236
0.917535
0.912196
0.904258
0.887682
0.873316
0.85555
0.838581
0.821115
0.798795
0.761004
0.73787
0.913209
1.36328
2.65874
2.60059
2.59035
2.5144
2.4674
2.42413
2.38688
2.35529
2.33564
2.31327
2.32228
2.30359
2.29591
2.28876
2.27956
2.27199
2.26008
2.25253
2.24466
2.23904
2.23818
2.23774
2.2373
2.23727
2.23917
2.23717
2.23776
2.23986
2.23967
2.24208
2.24351
2.25626
2.26362
2.27112
2.27568
2.29868
2.32464
2.34769
2.3689
2.42148
2.47744
2.50347
2.56683
2.63954
2.7022
2.78521
2.85909
2.9337
2.98341
2.99964
3.01019
3.00108
2.99684
3.00039
3.00405
3.00328
3.00921
3.02158
3.04152
3.0681
3.09894
3.13143
3.16063
3.18235
3.19784
3.20852
3.20703
3.19993
3.17432
3.13977
3.10575
3.08092
3.07145
0.998588
0.998629
0.998515
0.998325
0.998036
0.997632
0.997158
0.996524
0.99575
0.994914
0.993822
0.992568
0.991267
0.989636
0.987761
0.985905
0.983721
0.981128
0.978716
0.976139
0.97271
0.969528
0.967068
0.963962
0.958752
0.954436
0.951425
0.949483
0.946846
0.938382
0.93107
0.925029
0.918884
0.912793
0.908699
0.90062
0.88925
0.87286
0.858954
0.844137
0.826526
0.803146
0.789028
0.805024
0.923115
1.54358
2.32646
2.49047
2.57747
2.52349
2.47313
2.44549
2.39883
2.36402
2.33311
2.31693
2.31288
2.29834
2.29533
2.28566
2.28195
2.27779
2.26532
2.2534
2.24835
2.24402
2.24192
2.24454
2.24433
2.24591
2.24639
2.24475
2.25417
2.26004
2.26638
2.27714
2.28246
2.30507
2.32409
2.34707
2.36754
2.41097
2.45797
2.50306
2.54937
2.59893
2.66645
2.72393
2.78426
2.85239
2.91325
2.97503
2.99085
3.0042
3.01668
3.00289
2.99498
2.99158
2.99041
2.99396
2.99605
2.99822
3.00582
3.01912
3.03852
3.06224
3.09045
3.12087
3.15014
3.17239
3.18931
3.20077
3.19872
3.19299
3.17041
3.13742
3.103
3.07718
3.06671
0.998602
0.998641
0.99853
0.998337
0.998055
0.997651
0.997175
0.996559
0.995777
0.994929
0.993883
0.992612
0.991268
0.989747
0.987836
0.985876
0.983796
0.981277
0.978613
0.975935
0.972891
0.969532
0.966499
0.963245
0.958438
0.954253
0.950586
0.948252
0.945026
0.937166
0.929261
0.922856
0.916921
0.910224
0.90723
0.899647
0.891598
0.875423
0.863347
0.851267
0.837107
0.829344
0.831262
0.931792
1.41728
2.08808
2.15406
2.26193
2.4421
2.49557
2.51752
2.46974
2.42389
2.39039
2.35758
2.33733
2.32278
2.31094
2.30587
2.29559
2.29366
2.2889
2.28138
2.26756
2.26394
2.2592
2.26334
2.26699
2.26664
2.27802
2.28299
2.27933
2.30492
2.31809
2.33744
2.36176
2.38539
2.42678
2.46735
2.51382
2.55606
2.6029
2.66094
2.71988
2.78095
2.82063
2.87719
2.93661
2.98871
3.02006
3.02052
3.03519
3.02615
3.01311
2.99865
2.99206
2.98824
2.98473
2.98602
2.98877
2.99211
2.99738
3.00401
3.01645
3.03362
3.05518
3.08066
3.10999
3.1402
3.16385
3.18065
3.19226
3.19037
3.18594
3.16524
3.13348
3.09915
3.07372
3.06263
0.998617
0.998656
0.998546
0.998352
0.998076
0.997681
0.997189
0.996598
0.995824
0.994938
0.99395
0.992683
0.991284
0.989827
0.98794
0.985872
0.983823
0.98151
0.978567
0.975753
0.972922
0.969768
0.965896
0.962291
0.958264
0.954403
0.950115
0.946739
0.942437
0.935989
0.928394
0.921851
0.915937
0.909464
0.906834
0.900468
0.894388
0.879216
0.869688
0.860309
0.851816
0.842639
0.862119
0.906892
1.90717
2.1247
2.1279
2.16534
2.28084
2.4197
2.50801
2.51844
2.44694
2.44359
2.40721
2.38138
2.35562
2.34177
2.33183
2.32533
2.31765
2.31177
2.30511
2.30095
2.30094
2.29181
2.31023
2.31669
2.31164
2.34573
2.36055
2.36848
2.41364
2.45252
2.49126
2.53115
2.57831
2.62898
2.67971
2.73943
2.79564
2.83871
2.88766
2.937
2.99183
3.02414
3.04716
3.05373
3.0532
3.06629
3.04381
3.03026
3.01396
3.00515
2.99435
2.98715
2.98142
2.98079
2.98366
2.98609
2.99028
2.99473
3.00201
3.01388
3.02932
3.04836
3.07175
3.1008
3.1317
3.15502
3.17138
3.1838
3.1819
3.17836
3.15944
3.12913
3.09544
3.06998
3.05876
0.998634
0.998671
0.998564
0.99837
0.998097
0.997712
0.997211
0.996638
0.995876
0.994972
0.994011
0.992759
0.991327
0.989871
0.98807
0.985913
0.983859
0.981654
0.97856
0.975655
0.973014
0.969996
0.965498
0.961537
0.957929
0.9545
0.950324
0.944852
0.939989
0.934673
0.928394
0.921953
0.915753
0.909509
0.906526
0.901666
0.897284
0.88431
0.877578
0.874803
0.874974
0.884772
0.978419
1.33036
2.12192
2.19674
2.19412
2.18985
2.25558
2.29269
2.45985
2.50819
2.53402
2.52121
2.45234
2.44453
2.40165
2.38384
2.36898
2.36264
2.35412
2.35032
2.33226
2.35202
2.3595
2.35059
2.38936
2.41474
2.41739
2.46828
2.51411
2.54052
2.59552
2.65964
2.7136
2.7621
2.80883
2.86303
2.9092
2.95982
3.01287
3.04421
3.06319
3.07681
3.08328
3.08305
3.08655
3.08622
3.06886
3.05526
3.03683
3.02598
3.01064
3.00152
2.99145
2.98263
2.97854
2.98048
2.98126
2.98383
2.98759
2.99232
2.99972
3.01066
3.0248
3.04261
3.06515
3.09413
3.1225
3.14427
3.16187
3.17414
3.17241
3.17016
3.15281
3.12422
3.09159
3.06556
3.05458
0.998653
0.998689
0.998584
0.998393
0.998117
0.997745
0.997242
0.996672
0.995932
0.995022
0.994053
0.992856
0.991395
0.989906
0.988196
0.985999
0.983888
0.981691
0.978644
0.975638
0.973013
0.970027
0.965321
0.961132
0.957759
0.95462
0.950427
0.943478
0.938098
0.933139
0.928819
0.923754
0.916335
0.910436
0.905689
0.902397
0.897452
0.891668
0.885147
0.881513
0.880266
0.881907
0.985053
1.64635
2.26593
2.25272
2.23088
2.22328
2.22342
2.23579
2.33835
2.38383
2.53483
2.49835
2.50566
2.4872
2.44476
2.41674
2.41145
2.38179
2.39577
2.41698
2.38242
2.43423
2.47292
2.46627
2.52499
2.57287
2.59155
2.65465
2.71886
2.77552
2.82591
2.88458
2.93091
2.97836
3.01941
3.05757
3.08187
3.09342
3.10046
3.10596
3.10827
3.11086
3.10862
3.0956
3.08247
3.07947
3.06486
3.05376
3.03596
3.02326
3.00872
2.99928
2.98779
2.97979
2.97868
2.97784
2.97786
2.97985
2.98438
2.98953
2.99755
3.00847
3.02224
3.03924
3.06029
3.08633
3.11193
3.13363
3.15191
3.16474
3.16348
3.16147
3.14539
3.11846
3.0865
3.06147
3.05148
0.998673
0.998709
0.998605
0.998419
0.998139
0.99778
0.997289
0.996699
0.995995
0.995096
0.994086
0.992956
0.991514
0.989947
0.98829
0.986177
0.983921
0.981634
0.978878
0.975738
0.972901
0.969853
0.965329
0.9611
0.957614
0.954599
0.95029
0.9427
0.936988
0.932058
0.929487
0.925453
0.9184
0.910939
0.905703
0.901645
0.899118
0.895698
0.892708
0.883901
0.877117
0.885819
0.94637
1.99523
2.27706
2.28067
2.26157
2.25083
2.2429
2.23775
2.27166
2.30963
2.42279
2.4607
2.56468
2.47767
2.48771
2.42633
2.46269
2.42289
2.46111
2.50045
2.5024
2.56784
2.62374
2.64748
2.70379
2.76543
2.81501
2.87594
2.93105
2.99193
3.02886
3.06201
3.08309
3.09395
3.10505
3.11612
3.12414
3.12703
3.12193
3.1223
3.11285
3.10501
3.09946
3.09541
3.08297
3.07819
3.06396
3.05107
3.036
3.02341
3.00827
2.99565
2.98444
2.97951
2.97695
2.97466
2.97395
2.97752
2.98309
2.98902
2.99681
3.00668
3.01902
3.03457
3.05378
3.07701
3.10092
3.12357
3.14195
3.15562
3.15466
3.15206
3.13805
3.11235
3.08068
3.05741
3.04885
0.998695
0.998731
0.998628
0.998448
0.998166
0.997818
0.997341
0.996737
0.996063
0.995184
0.994147
0.993042
0.991659
0.990028
0.988354
0.986422
0.984034
0.981634
0.979112
0.975961
0.972758
0.969546
0.965682
0.961414
0.957439
0.954159
0.949744
0.942541
0.936865
0.931902
0.929457
0.925643
0.92076
0.911777
0.906065
0.902407
0.900268
0.899469
0.898867
0.89909
0.900013
0.954929
1.17896
2.15234
2.29488
2.29923
2.29038
2.28719
2.27298
2.26845
2.26545
2.25111
2.32554
2.3784
2.51599
2.47011
2.55441
2.47838
2.53345
2.54238
2.58994
2.64311
2.68164
2.74386
2.80586
2.86448
2.91231
2.96559
3.01562
3.04976
3.07492
3.09506
3.10394
3.10989
3.11723
3.12387
3.12726
3.13233
3.12625
3.12194
3.11651
3.11423
3.11356
3.10438
3.09639
3.09052
3.07923
3.07369
3.06181
3.05101
3.03739
3.02481
3.00817
2.99369
2.98388
2.97935
2.97453
2.97167
2.97215
2.9772
2.98312
2.9888
2.99528
3.00312
3.01415
3.02858
3.04672
3.06811
3.09055
3.11336
3.13192
3.1452
3.14459
3.14244
3.1309
3.10586
3.07507
3.05407
3.04735
0.99872
0.998756
0.998652
0.998478
0.9982
0.997855
0.997394
0.996788
0.996125
0.995279
0.994233
0.993125
0.991817
0.990158
0.988466
0.986639
0.98418
0.98173
0.979264
0.976367
0.972786
0.96938
0.965924
0.961899
0.957373
0.953349
0.949022
0.943307
0.937612
0.932506
0.928674
0.925442
0.921398
0.912751
0.907371
0.904124
0.902011
0.901152
0.902351
0.906284
0.91634
1.00863
1.59011
2.2745
2.30748
2.30455
2.30586
2.29718
2.28671
2.27177
2.25999
2.25455
2.26967
2.33376
2.4373
2.51453
2.61078
2.61252
2.67974
2.72701
2.78206
2.84113
2.90117
2.95078
2.99377
3.03634
3.0592
3.07694
3.0927
3.10158
3.10963
3.11776
3.11807
3.12044
3.11741
3.11958
3.11894
3.12317
3.12319
3.11935
3.11657
3.10949
3.10762
3.10013
3.09126
3.08701
3.07738
3.0717
3.06083
3.05145
3.03774
3.02427
3.00705
2.99369
2.98557
2.97845
2.97282
2.96992
2.97183
2.97737
2.98206
2.98694
2.99256
2.99935
3.00926
3.02312
3.03935
3.0592
3.08107
3.10355
3.1217
3.13373
3.13419
3.13368
3.12307
3.09873
3.06987
3.05165
3.04627
0.998747
0.998782
0.998678
0.998511
0.998243
0.997891
0.997452
0.996859
0.99618
0.995381
0.994352
0.993218
0.991975
0.990329
0.988608
0.986816
0.984415
0.981888
0.97947
0.976696
0.972882
0.96934
0.966196
0.962597
0.957385
0.952688
0.948607
0.944109
0.938859
0.932885
0.927652
0.924303
0.920059
0.915385
0.909465
0.9049
0.90158
0.898673
0.896398
0.898087
0.901416
0.980043
1.86326
2.34522
2.34065
2.33129
2.32203
2.31013
2.29913
2.29293
2.29643
2.29444
2.30148
2.43195
2.48791
2.68508
2.76536
2.83645
2.89457
2.93841
2.98555
3.0226
3.05542
3.0735
3.08221
3.09066
3.09815
3.10547
3.11061
3.11425
3.10876
3.1077
3.10605
3.11078
3.11435
3.11288
3.11294
3.11377
3.11589
3.11404
3.11298
3.10643
3.10291
3.09469
3.08546
3.08091
3.07222
3.06689
3.05697
3.0492
3.03647
3.02418
3.0083
2.99569
2.98553
2.9773
2.9714
2.96958
2.97234
2.97589
2.98012
2.98431
2.98935
2.99558
3.00466
3.01775
3.03229
3.05054
3.07218
3.09359
3.11126
3.12263
3.12386
3.12427
3.11396
3.09125
3.06527
3.04987
3.04515
0.998776
0.998811
0.998708
0.998547
0.998289
0.997934
0.997515
0.996942
0.996248
0.995488
0.99449
0.993335
0.992108
0.990572
0.988768
0.986938
0.984765
0.982146
0.979628
0.976924
0.973146
0.969518
0.966408
0.962977
0.957622
0.952529
0.947981
0.944688
0.940448
0.933063
0.927003
0.922041
0.918574
0.915464
0.91142
0.907192
0.900358
0.895534
0.889059
0.883782
0.902067
0.982311
2.04381
2.33128
2.3432
2.34388
2.33946
2.33276
2.32667
2.33474
2.3469
2.35037
2.39417
2.56994
2.64727
2.85187
2.97883
3.03495
3.06065
3.0766
3.08647
3.09434
3.10331
3.10792
3.10629
3.10692
3.10146
3.09967
3.1
3.10389
3.10476
3.10209
3.10096
3.10154
3.10383
3.10413
3.10272
3.10271
3.10525
3.10415
3.1042
3.09909
3.09536
3.0874
3.07874
3.07485
3.0679
3.0642
3.05576
3.04937
3.03718
3.02456
3.00854
2.99596
2.98487
2.97546
2.96972
2.96942
2.97042
2.97299
2.97642
2.97993
2.98514
2.99139
2.99985
3.01221
3.02638
3.04301
3.06283
3.08281
3.10004
3.11177
3.11389
3.1139
3.10473
3.08429
3.06103
3.04747
3.04252
0.998807
0.998842
0.998742
0.998584
0.998338
0.997985
0.997579
0.997031
0.996335
0.99559
0.99465
0.993478
0.992247
0.990835
0.989007
0.987114
0.985111
0.982526
0.979811
0.977051
0.973729
0.96991
0.966428
0.962887
0.958223
0.952689
0.947861
0.944673
0.94039
0.934413
0.926833
0.921122
0.916784
0.914326
0.911456
0.907562
0.902291
0.896268
0.894385
0.892072
0.955201
1.21025
2.20222
2.33291
2.33792
2.34033
2.33907
2.33773
2.34295
2.35396
2.38825
2.42904
2.52748
2.70173
2.84543
3.03062
3.09897
3.10584
3.11327
3.11555
3.11412
3.11021
3.1062
3.10294
3.09999
3.09978
3.09995
3.09405
3.09169
3.08921
3.09023
3.089
3.08882
3.0884
3.09038
3.09183
3.09107
3.09204
3.09672
3.09671
3.09801
3.09426
3.09083
3.08323
3.07492
3.07094
3.06413
3.06032
3.05176
3.04597
3.03432
3.02246
3.00816
2.99656
2.98432
2.97434
2.96957
2.96834
2.9683
2.96966
2.97204
2.97616
2.98123
2.98719
2.99438
3.00557
3.02021
3.03638
3.05399
3.07208
3.08832
3.10071
3.10426
3.10412
3.09569
3.07692
3.05662
3.04443
3.04121
0.998842
0.998876
0.998782
0.998622
0.998391
0.998048
0.997641
0.997127
0.996445
0.995691
0.994817
0.993666
0.992424
0.991091
0.989286
0.987375
0.985418
0.983022
0.980127
0.977309
0.974358
0.970556
0.966632
0.962903
0.958782
0.953532
0.948445
0.943961
0.939979
0.935044
0.927521
0.921176
0.916016
0.911848
0.909728
0.905993
0.902066
0.898951
0.897509
0.903277
0.997826
1.62277
2.30042
2.33317
2.33009
2.3323
2.3317
2.34397
2.36956
2.37375
2.44632
2.57209
2.72838
2.87844
3.05929
3.12013
3.12023
3.11889
3.11504
3.11031
3.10611
3.10284
3.10072
3.09734
3.09386
3.08965
3.08817
3.08227
3.07982
3.07524
3.07709
3.07808
3.08015
3.08003
3.08042
3.08185
3.08155
3.08292
3.08833
3.0881
3.08883
3.08483
3.08188
3.07482
3.06741
3.06433
3.05833
3.05574
3.04843
3.04435
3.03403
3.02306
3.00813
2.99533
2.982
2.97198
2.96792
2.96539
2.96443
2.96491
2.96702
2.9709
2.97638
2.98266
2.98909
2.99898
3.01323
3.02914
3.04667
3.0624
3.07668
3.08917
3.09475
3.09514
3.08741
3.0702
3.05199
3.04126
3.03886
0.998879
0.998913
0.998825
0.998665
0.998447
0.998122
0.997709
0.997229
0.996575
0.995815
0.994986
0.993883
0.992632
0.99132
0.989655
0.987694
0.985758
0.983519
0.980545
0.977729
0.974905
0.971435
0.967041
0.96297
0.959259
0.955056
0.949182
0.943796
0.938887
0.934426
0.929311
0.921948
0.915269
0.909352
0.904547
0.90158
0.89741
0.892737
0.886782
0.887386
0.965756
1.89875
2.35344
2.34838
2.34214
2.34183
2.33395
2.36439
2.41945
2.42402
2.59321
2.75348
2.91356
3.07125
3.12531
3.11514
3.11064
3.1022
3.09633
3.09156
3.08709
3.08326
3.08052
3.07968
3.07916
3.07651
3.07744
3.07435
3.07492
3.06981
3.06772
3.06611
3.06498
3.06493
3.06365
3.0648
3.06532
3.06758
3.07446
3.0757
3.07923
3.07732
3.07638
3.07058
3.06414
3.06185
3.05565
3.05235
3.04407
3.03894
3.02812
3.01874
3.00594
2.99413
2.98184
2.97266
2.96761
2.96384
2.96148
2.96171
2.96349
2.96737
2.97329
2.97934
2.98479
2.99267
3.00596
3.02152
3.03865
3.05372
3.06589
3.07705
3.08436
3.08545
3.0782
3.06244
3.04668
3.03851
3.03684
0.99892
0.998953
0.998871
0.998714
0.998507
0.9982
0.99779
0.997334
0.996717
0.995959
0.995152
0.99414
0.992874
0.991571
0.990062
0.98811
0.98613
0.984011
0.981184
0.978261
0.975504
0.972231
0.967647
0.963454
0.959834
0.955861
0.950384
0.943947
0.938149
0.93312
0.929004
0.923838
0.915195
0.906604
0.899599
0.892598
0.889135
0.883198
0.873047
0.908859
1.02388
2.0849
2.32425
2.33791
2.34633
2.35022
2.34557
2.39542
2.50936
2.5417
2.78585
2.94713
3.07759
3.11925
3.10581
3.10153
3.09195
3.08551
3.07989
3.07528
3.07095
3.06733
3.0644
3.06186
3.06062
3.05897
3.05989
3.05875
3.06109
3.05831
3.0566
3.05601
3.05348
3.05385
3.05211
3.05331
3.05651
3.05805
3.06308
3.06442
3.06737
3.06501
3.06513
3.0602
3.05475
3.05389
3.0488
3.04689
3.03989
3.03618
3.02646
3.01812
3.00455
2.98995
2.97713
2.96866
2.96222
2.95707
2.95413
2.95468
2.95715
2.96088
2.96647
2.9724
2.9787
2.9861
2.99846
3.01407
3.03026
3.0447
3.0567
3.06674
3.07454
3.07648
3.07019
3.05553
3.04193
3.03525
3.0339
0.998965
0.998996
0.99892
0.99877
0.998567
0.998283
0.997884
0.99744
0.996872
0.996132
0.995333
0.994407
0.993179
0.991872
0.990471
0.988603
0.986571
0.984499
0.982033
0.978985
0.976017
0.972875
0.968795
0.964361
0.960183
0.956297
0.951447
0.944591
0.93829
0.932236
0.9274
0.922407
0.916442
0.904993
0.895514
0.888594
0.883844
0.883259
0.888194
0.986003
1.38325
2.2411
2.3249
2.32926
2.34789
2.36893
2.39608
2.46137
2.65028
2.76219
2.9789
3.08879
3.11628
3.09907
3.09175
3.08041
3.07591
3.07101
3.06633
3.06207
3.05771
3.05391
3.05067
3.04781
3.04588
3.0442
3.04418
3.04279
3.0449
3.04446
3.04244
3.04303
3.04021
3.04241
3.03931
3.04
3.04083
3.04093
3.0444
3.04671
3.0522
3.05404
3.05774
3.05617
3.0512
3.04987
3.04448
3.04301
3.03494
3.02869
3.01712
3.00904
2.99948
2.98749
2.97881
2.96927
2.96151
2.95378
2.95073
2.95299
2.95583
2.95899
2.96355
2.96886
2.97486
2.9814
2.99133
3.0059
3.02146
3.03499
3.04701
3.05676
3.06383
3.06602
3.06091
3.0478
3.03641
3.03153
3.03092
0.999013
0.999043
0.998972
0.998835
0.998633
0.998372
0.997998
0.997552
0.997035
0.996334
0.995542
0.994681
0.993522
0.992226
0.990881
0.989194
0.987142
0.985109
0.982889
0.979827
0.976694
0.973712
0.970263
0.965604
0.961014
0.956506
0.951905
0.946447
0.939217
0.932367
0.925268
0.9195
0.913593
0.906383
0.894094
0.8825
0.874055
0.870592
0.874301
0.993207
1.71878
2.3443
2.34213
2.34449
2.37738
2.40421
2.51178
2.57815
2.81545
2.99794
3.09842
3.12178
3.09928
3.08829
3.07368
3.06758
3.06338
3.05868
3.05379
3.04952
3.04552
3.04191
3.03866
3.03616
3.03457
3.03328
3.0333
3.03149
3.03198
3.03183
3.03051
3.03019
3.0272
3.03005
3.02832
3.03116
3.03026
3.03059
3.03193
3.03281
3.03793
3.03997
3.04428
3.04379
3.04036
3.03949
3.03484
3.03541
3.02915
3.02449
3.01442
3.006
2.99827
2.98622
2.97568
2.96413
2.95359
2.9448
2.9422
2.94575
2.94884
2.95209
2.95611
2.96074
2.96653
2.97348
2.98363
2.99814
3.01375
3.02595
3.0375
3.04727
3.0551
3.05768
3.05348
3.04262
3.03244
3.02838
3.02846
0.999065
0.999094
0.999028
0.998903
0.998706
0.998467
0.99812
0.997685
0.997203
0.996558
0.995778
0.994958
0.993922
0.992639
0.991338
0.989822
0.98782
0.985812
0.983698
0.980907
0.977715
0.97471
0.971498
0.967262
0.96208
0.957089
0.95277
0.947628
0.941095
0.932676
0.924549
0.916204
0.909422
0.903271
0.895415
0.87722
0.862405
0.84779
0.868827
0.958036
2.04156
2.32857
2.34228
2.35027
2.40736
2.45371
2.66826
2.80511
3.00883
3.09496
3.1183
3.09724
3.08566
3.06921
3.06107
3.05559
3.0509
3.0457
3.04051
3.0363
3.03289
3.03022
3.02775
3.0257
3.02486
3.02387
3.02416
3.02265
3.02269
3.02172
3.02077
3.01897
3.01652
3.01894
3.01605
3.01957
3.01741
3.01916
3.01736
3.01754
3.02179
3.02579
3.03321
3.036
3.03616
3.03621