/*--------------------------------*- C++ -*----------------------------------*\
| =========                 |                                                 |
| \\      /  F ield         | OpenFOAM: The Open Source CFD Toolbox           |
|  \\    /   O peration     | Version:  2.2.x                                 |
|   \\  /    A nd           | Web:      www.OpenFOAM.org                      |
|    \\/     M anipulation  |                                                 |
\*---------------------------------------------------------------------------*/
FoamFile
{
    version     2.0;
    format      ascii;
    class       volVectorField;
    location    "1.15";
    object      U;
}
// * * * * * * * * * * * * * * * * * * * * * * * * * * * * * * * * * * * * * //

dimensions      [0 1 -1 0 0 0 0];

internalField   nonuniform List<vector> 
14161
(
(1.50383 0.00106339 2.19324e-14)
(1.50371 0.0118491 -1.11425e-13)
(1.50167 0.0141669 -2.10015e-13)
(1.50688 0.0118008 -3.50542e-13)
(1.50334 0.00751703 -5.60268e-14)
(1.49966 0.0032111 -3.23325e-13)
(1.49676 -0.0039026 -2.14291e-14)
(1.49731 -0.00959827 -2.32915e-13)
(1.49594 -0.00940974 -4.0971e-13)
(1.49742 -0.00813609 -3.4008e-13)
(1.50083 -0.00688425 -1.36546e-13)
(1.50376 -0.00363666 -3.13312e-13)
(1.50799 -0.000303103 -5.3996e-13)
(1.51119 0.00382328 -7.53775e-13)
(1.51448 0.00940893 -6.6744e-13)
(1.51449 0.0129909 -6.68318e-13)
(1.5139 0.0130367 -6.03589e-13)
(1.51488 0.0119732 -1.74169e-12)
(1.51363 0.0101451 1.10249e-12)
(1.5128 0.0070362 -5.04573e-12)
(1.5118 0.00296751 -2.96664e-13)
(1.51216 -0.00080878 5.2537e-12)
(1.51134 -0.0036754 -8.11847e-12)
(1.51065 -0.00401174 -5.50436e-12)
(1.5144 -0.00374829 -6.35772e-14)
(1.51596 -0.00293007 8.66092e-13)
(1.5173 -0.00178106 4.01343e-12)
(1.51854 2.11557e-05 -4.80763e-12)
(1.52027 0.00130793 -1.32289e-11)
(1.52131 0.00324311 -1.43247e-11)
(1.52139 0.00450647 -1.21404e-12)
(1.52196 0.00536788 4.20634e-12)
(1.52159 0.00566714 8.87607e-13)
(1.52149 0.00561138 -5.09134e-12)
(1.52133 0.0056378 -6.914e-12)
(1.52104 0.00569386 2.10417e-12)
(1.51982 0.00581067 6.22006e-12)
(1.51742 0.00590823 -2.40947e-12)
(1.5167 0.00599512 -2.70467e-11)
(1.51628 0.00609122 3.32041e-11)
(1.51661 0.006353 -2.04444e-10)
(1.51754 0.00661753 3.65393e-10)
(1.51872 0.00729192 -9.07768e-10)
(1.52932 0.00586419 -4.23434e-08)
(1.53377 0.000464631 -5.19434e-07)
(1.56931 -0.0522329 -5.07985e-06)
(1.19917 -0.146207 -1.16124e-05)
(0.777625 -0.0160682 -9.29483e-06)
(0.814028 0.0273593 -9.25961e-06)
(0.820793 0.030609 -7.04477e-06)
(0.819856 0.0312411 -4.92333e-06)
(0.817069 0.0302049 -3.385e-06)
(0.812213 0.0279651 -1.9191e-06)
(0.809812 0.0252947 -1.36913e-06)
(0.808585 0.0231708 -1.10357e-06)
(0.809084 0.0228965 -2.00454e-07)
(0.808384 0.022834 4.34664e-07)
(0.805705 0.021598 6.07456e-07)
(0.801853 0.0200174 7.28242e-07)
(0.796341 0.0172651 -9.29205e-09)
(0.790645 0.0146193 1.52854e-07)
(0.787566 0.0124631 1.62705e-06)
(0.785089 0.0106755 1.59895e-07)
(0.784473 0.00904229 -1.70862e-06)
(0.785848 0.0061499 1.78326e-07)
(0.789954 0.00329336 1.50023e-06)
(0.793254 0.00181927 1.19864e-06)
(0.796949 0.00136097 5.73282e-07)
(0.801167 0.00111778 -4.88055e-07)
(0.807601 -0.000423712 -1.05652e-06)
(0.815276 -0.00218071 1.02116e-06)
(0.822334 -0.00300411 4.20814e-06)
(0.830368 -0.00352582 6.03891e-06)
(0.840128 -0.00436629 5.91755e-06)
(0.851718 -0.00537732 2.85524e-06)
(0.867546 -0.00590525 8.124e-07)
(0.884935 -0.00601502 -6.924e-07)
(0.900885 -0.00423884 3.57849e-07)
(0.913767 -0.00137602 1.28474e-06)
(0.925812 0.00233576 1.38524e-06)
(0.932871 0.00262354 2.11806e-07)
(0.932354 0.00722245 -1.55628e-06)
(0.921305 0.0131588 -2.92696e-06)
(0.913662 0.0168753 -3.91248e-06)
(0.908395 0.0156537 -5.10385e-06)
(0.893293 0.022691 -2.9945e-06)
(0.88141 0.0391668 -1.25816e-05)
(0.84464 0.0738504 3.36933e-05)
(0.736703 0.113971 -9.98189e-05)
(0.591151 0.127592 0.000179528)
(0.462326 0.105109 -0.000243269)
(0.367803 0.0718071 0.000176651)
(0.303143 0.0395279 -6.66812e-05)
(0.25521 0.0261718 -2.50887e-05)
(0.221727 0.0184404 0.000201275)
(0.19746 0.0143414 -0.000180699)
(0.181518 0.00967983 1.94289e-05)
(0.172534 0.00461108 7.36579e-05)
(0.16933 0.000168319 -1.43647e-05)
(0.170524 -0.00167112 -4.53366e-05)
(0.172831 -0.00193441 -3.82607e-06)
(0.175107 -0.0017603 2.69451e-05)
(0.177065 -0.00154359 2.13648e-05)
(0.178885 -0.00116435 -1.54757e-05)
(0.180281 4.84054e-05 -1.72282e-05)
(0.181462 0.000758893 -2.10753e-06)
(0.181935 0.00163207 1.89857e-06)
(0.18117 0.00201515 1.22103e-06)
(0.178606 0.00278432 -2.37813e-06)
(0.174423 0.00259523 -4.22768e-06)
(0.168988 0.00320947 1.81348e-06)
(0.161558 0.00408816 6.35632e-06)
(0.1514 0.00605716 5.97481e-06)
(0.136755 0.00756588 -3.75062e-06)
(0.118747 0.0101216 -4.55456e-06)
(0.0958075 0.0117618 1.78553e-06)
(0.0690486 0.015353 -1.16269e-05)
(0.0407693 0.0147916 1.04422e-05)
(0.0136866 0.0146126 4.39915e-06)
(1.48573 0.000535296 7.10914e-13)
(1.47512 -0.00119187 1.24122e-12)
(1.4894 -0.00605539 2.74247e-12)
(1.49882 -0.00944349 -9.1618e-13)
(1.50311 -0.00927878 1.21407e-11)
(1.50858 -0.00735038 -2.54643e-11)
(1.51333 -0.00319434 3.3371e-11)
(1.51805 0.000156629 4.85119e-12)
(1.51058 0.00404739 -1.84197e-11)
(1.50963 0.00562233 -2.26876e-11)
(1.50656 0.00594559 -3.44124e-12)
(1.50217 0.00514794 1.47834e-11)
(1.49849 0.00338323 -4.37318e-12)
(1.49145 0.000283587 -3.74124e-12)
(1.48757 -0.00246244 -1.74541e-11)
(1.49221 -0.005789 -3.21163e-12)
(1.49797 -0.00799959 5.38712e-12)
(1.50329 -0.0090479 -3.03304e-11)
(1.50967 -0.00927113 1.42151e-10)
(1.51658 -0.0077264 -1.93204e-10)
(1.52243 -0.00593055 -1.30937e-10)
(1.52571 -0.00342309 9.88066e-10)
(1.52576 -0.00147255 -9.41648e-10)
(1.52241 0.000951489 -1.60444e-10)
(1.52111 0.00181307 1.58849e-10)
(1.51946 0.00210207 2.79588e-10)
(1.51521 0.00218067 3.07547e-10)
(1.51275 0.0020172 -2.10021e-10)
(1.51082 0.00123889 1.74456e-10)
(1.50953 0.000368686 -3.5285e-10)
(1.50878 -0.000543335 -4.77677e-10)
(1.5096 -0.00142656 7.64328e-11)
(1.50977 -0.00227642 1.25274e-11)
(1.50966 -0.0029476 1.23557e-09)
(1.50991 -0.00333799 3.13484e-10)
(1.50883 -0.00350217 -8.40037e-10)
(1.50763 -0.0034619 -4.71418e-11)
(1.50635 -0.00357957 -1.12638e-09)
(1.505 -0.00372228 9.08231e-10)
(1.50357 -0.0041596 -2.06332e-09)
(1.5021 -0.00423122 3.68694e-09)
(1.50029 -0.00496174 -2.78721e-09)
(1.49904 -0.00484684 5.85898e-09)
(1.49778 -0.00758766 -6.49915e-09)
(1.50174 -0.0170959 -6.45345e-08)
(1.50205 -0.0987276 -2.64899e-06)
(0.759474 -0.164593 -7.60521e-06)
(0.586829 -0.0248461 -5.96104e-06)
(0.538924 0.00847496 -3.58388e-06)
(0.533611 0.00947023 -2.13739e-06)
(0.543706 0.0107315 -9.79743e-07)
(0.555552 0.0105626 1.30062e-05)
(0.566283 0.00834626 1.28813e-05)
(0.578116 0.00655038 -5.89818e-06)
(0.59002 0.00530862 -1.0424e-05)
(0.601067 0.00554255 7.13754e-06)
(0.61022 0.00748136 1.67303e-05)
(0.618781 0.00745135 3.7398e-06)
(0.628918 0.00676195 -1.05825e-05)
(0.638671 0.00472728 -1.1232e-05)
(0.649666 0.00239218 1.1035e-06)
(0.658981 0.000223354 -3.0441e-06)
(0.667368 -0.00206468 -1.03199e-05)
(0.676855 0.00027432 -1.8232e-06)
(0.688538 0.00113777 1.21946e-05)
(0.700226 -0.000101086 6.16066e-06)
(0.706748 -0.00314185 -9.28089e-06)
(0.715538 -0.00567025 -1.91942e-05)
(0.725628 -0.00358183 -2.06461e-05)
(0.739886 -0.00335496 -1.22425e-05)
(0.750374 -0.00395033 -1.04519e-06)
(0.759601 -0.0057889 7.48156e-06)
(0.770985 -0.00638346 1.46563e-05)
(0.784356 -0.0052015 1.34561e-05)
(0.798712 -0.00702142 -2.87452e-06)
(0.809129 -0.00811144 -1.57434e-05)
(0.81923 -0.00759635 -1.35516e-05)
(0.829699 -0.00467598 -7.66193e-06)
(0.839479 -0.00263941 1.29312e-05)
(0.837872 -0.000274754 1.53464e-05)
(0.807114 0.0061137 1.49903e-05)
(0.794169 0.0120416 -2.7424e-06)
(0.77998 0.00655828 -5.49626e-06)
(0.743611 0.00750128 -1.02807e-05)
(0.677643 0.0143553 -1.02502e-06)
(0.638515 0.0118314 6.44469e-07)
(0.59135 0.0321158 1.20183e-05)
(0.507556 0.0725786 3.16435e-05)
(0.445814 0.11134 -1.90583e-05)
(0.392261 0.127973 9.43633e-06)
(0.344356 0.109528 8.59299e-05)
(0.306556 0.0841621 -7.80866e-05)
(0.269167 0.0688245 -3.99638e-05)
(0.240916 0.0496148 0.000164768)
(0.219743 0.0346913 -0.000241609)
(0.209913 0.0203464 -9.49195e-05)
(0.203864 0.011899 0.000185289)
(0.199945 0.00611608 -5.08587e-05)
(0.197685 0.00145459 -7.45375e-05)
(0.196777 -0.000606505 6.93064e-05)
(0.196393 -0.000991291 4.63304e-05)
(0.195547 -0.000996101 -3.12795e-05)
(0.194311 -0.000899252 -3.78125e-05)
(0.192798 -0.000350323 1.36123e-05)
(0.191338 0.000854038 3.09986e-05)
(0.189399 0.00170759 -1.83196e-07)
(0.186944 0.00297746 -1.2101e-05)
(0.183752 0.00469657 -5.62466e-06)
(0.179636 0.00637973 -3.12162e-06)
(0.174572 0.00831929 -1.37748e-06)
(0.168035 0.010827 4.8898e-06)
(0.1594 0.0139805 1.17577e-05)
(0.148527 0.0197398 3.91159e-06)
(0.133178 0.0245946 -1.69852e-06)
(0.114499 0.0313305 -9.4827e-09)
(0.092726 0.0351061 1.19562e-06)
(0.0687458 0.0417959 1.35726e-05)
(0.0422406 0.0411227 2.21632e-05)
(0.0151869 0.0432467 -5.57691e-07)
(1.52097 -0.000874752 -1.06822e-11)
(1.53288 0.00560823 -7.35875e-12)
(1.51656 0.00962726 -1.74101e-11)
(1.51073 0.00912759 -2.46376e-11)
(1.5054 0.00559607 2.1212e-12)
(1.49484 0.0026386 -5.10702e-11)
(1.48533 -0.00144649 8.77234e-11)
(1.48336 -0.00523699 9.2491e-12)
(1.47968 -0.0054439 -1.02786e-11)
(1.48932 -0.00443902 -1.06663e-12)
(1.49566 -0.00390632 1.30293e-10)
(1.50587 -0.0023108 -3.00689e-10)
(1.5184 0.000127026 9.80529e-10)
(1.52998 0.000799236 -1.43564e-09)
(1.53876 0.00464222 7.60633e-10)
(1.53091 0.00671726 5.37868e-10)
(1.52749 0.00782703 -6.52661e-12)
(1.52048 0.00728674 -6.04414e-10)
(1.51138 0.00625333 1.17122e-10)
(1.50207 0.00535479 -1.00048e-09)
(1.4941 0.00348912 1.87617e-09)
(1.48807 0.00194717 4.94539e-10)
(1.49261 -0.000802849 -1.78236e-09)
(1.49595 -0.0015978 1.26022e-11)
(1.50594 -0.00174554 6.74963e-10)
(1.50901 -0.00195301 4.38039e-10)
(1.51366 -0.00109844 -1.38741e-10)
(1.51923 -0.000243018 5.59881e-10)
(1.52385 0.000320958 -2.30091e-09)
(1.52777 0.00149109 -2.22684e-09)
(1.52805 0.00222377 1.50653e-08)
(1.52771 0.00297351 -2.05152e-08)
(1.52704 0.00318738 1.98825e-08)
(1.52502 0.00328135 -1.57842e-08)
(1.52364 0.00346931 6.87811e-09)
(1.52194 0.00357909 -1.24363e-08)
(1.52073 0.00373649 2.06696e-08)
(1.51985 0.00367533 -1.76809e-08)
(1.51941 0.00372181 3.20143e-08)
(1.51925 0.00328314 -4.40972e-08)
(1.51942 0.00348808 4.98261e-08)
(1.51932 0.00306777 -6.33049e-08)
(1.51849 0.00347618 7.80455e-08)
(1.51188 0.00119952 -1.41664e-07)
(1.50455 -0.0111709 -1.13839e-06)
(1.32247 -0.0934276 -3.26234e-06)
(0.60694 -0.0184024 -6.50166e-06)
(0.467738 0.0276348 -4.51399e-06)
(0.435619 0.00812828 -1.18765e-06)
(0.443145 -0.013394 -8.89936e-06)
(0.471301 -0.0171298 -1.54197e-05)
(0.498607 -0.0168474 6.6427e-05)
(0.520919 -0.018878 4.63698e-05)
(0.540197 -0.0172919 -3.9744e-05)
(0.559311 -0.0170262 -4.72839e-05)
(0.57637 -0.0154769 1.27792e-05)
(0.591634 -0.0106269 5.79547e-05)
(0.605378 -0.010442 4.50158e-05)
(0.619313 -0.0117479 1.09325e-06)
(0.630891 -0.0131329 -3.74249e-05)
(0.641239 -0.0151981 -2.82773e-05)
(0.652723 -0.0146889 3.17538e-06)
(0.665864 -0.0123173 3.08924e-05)
(0.676562 -0.0133765 3.99374e-05)
(0.683373 -0.015169 1.89881e-05)
(0.691677 -0.0164332 -1.77978e-05)
(0.702967 -0.0169248 -5.67702e-05)
(0.7161 -0.0146463 -5.75158e-05)
(0.72703 -0.0153775 -3.52014e-05)
(0.733163 -0.014619 -2.52408e-05)
(0.742487 -0.0157837 -2.69989e-05)
(0.754726 -0.0181262 -3.52429e-05)
(0.771446 -0.0174053 1.04601e-05)
(0.782079 -0.0174848 3.84287e-05)
(0.793944 -0.017333 4.29864e-05)
(0.808353 -0.0179439 -9.06582e-06)
(0.827937 -0.0133672 -0.00010095)
(0.837513 -0.00816013 -0.000129453)
(0.838064 -0.00151863 -8.02507e-06)
(0.830757 0.00903241 8.90391e-05)
(0.835264 0.0178871 7.94751e-05)
(0.806939 0.0234805 1.84929e-06)
(0.742635 0.0339958 -5.34914e-06)
(0.704823 0.0460311 -2.04562e-05)
(0.662605 0.0559607 -1.67861e-05)
(0.570708 0.0772819 -2.38568e-05)
(0.485667 0.0916783 3.06794e-05)
(0.421531 0.120001 -5.05903e-05)
(0.374251 0.143942 1.07951e-05)
(0.337523 0.157034 -7.09957e-05)
(0.304378 0.139962 5.03152e-06)
(0.272125 0.116636 2.71576e-06)
(0.241386 0.0948472 -0.000154425)
(0.222804 0.0677575 0.000162489)
(0.206862 0.0462767 0.000132563)
(0.197027 0.0270123 -0.000360397)
(0.190108 0.0161035 2.05094e-06)
(0.184911 0.00918529 0.000344639)
(0.182637 0.00296824 -1.72453e-05)
(0.182315 0.000190117 -0.000267901)
(0.18245 0.000269806 -3.7451e-05)
(0.182426 0.000626113 0.000114941)
(0.182168 0.000755627 7.6098e-05)
(0.181856 0.00111207 -1.4377e-05)
(0.181317 0.00226627 -4.33099e-05)
(0.179831 0.00328419 -1.55513e-05)
(0.177431 0.00516288 1.82185e-05)
(0.173475 0.00778757 2.91128e-05)
(0.167606 0.0103733 4.20027e-06)
(0.159734 0.0122832 -1.20707e-05)
(0.15068 0.0153051 -7.92901e-06)
(0.139705 0.0196947 -4.12014e-06)
(0.128096 0.0286826 1.09933e-06)
(0.112247 0.0369413 7.78259e-06)
(0.0945858 0.0467726 -4.76841e-06)
(0.0739218 0.0519392 -1.85957e-05)
(0.0553506 0.0635187 -1.43424e-05)
(0.0337729 0.0648698 -1.03407e-05)
(0.0130437 0.0693134 -8.74086e-06)
(1.47051 -4.00527e-05 -7.62547e-11)
(1.4488 -0.000439721 2.42211e-10)
(1.48492 -0.00137599 2.40064e-10)
(1.49529 -0.00331768 2.99929e-10)
(1.50254 -0.00622685 2.64006e-10)
(1.51576 -0.00459861 -4.74789e-10)
(1.52645 -0.00255262 1.47272e-09)
(1.5338 -0.00181528 -1.32701e-09)
(1.51845 0.000884686 -7.73425e-11)
(1.516 0.00236638 3.18732e-10)
(1.51029 0.0025072 5.43379e-10)
(1.50111 0.00272252 3.30805e-11)
(1.49143 0.00280103 -3.97393e-11)
(1.47612 -4.93486e-05 1.17072e-11)
(1.4649 -0.000767867 1.15764e-09)
(1.47458 -0.00312396 5.18477e-12)
(1.48653 -0.00413317 -3.64539e-10)
(1.49445 -0.00449506 -1.11517e-09)
(1.50399 -0.00494958 6.08348e-09)
(1.51542 -0.00389916 -2.94399e-08)
(1.52742 -0.00327587 7.47533e-08)
(1.53433 -0.00269148 -7.0791e-08)
(1.53753 -0.00149318 -1.44815e-08)
(1.5291 -0.000742091 2.65642e-08)
(1.52604 -4.31428e-05 2.50094e-08)
(1.51824 0.000156451 9.56195e-10)
(1.51365 0.000235081 -1.74486e-08)
(1.50764 0.000449902 -1.30086e-08)
(1.50236 0.000425801 -2.26897e-08)
(1.49799 7.08456e-05 4.29943e-08)
(1.49755 -0.000471474 1.73929e-08)
(1.49772 -0.000673 1.5269e-08)
(1.49773 -0.00112001 -3.44413e-08)
(1.49819 -0.00154117 -2.81912e-08)
(1.49916 -0.00165193 -1.64852e-08)
(1.49952 -0.00154411 2.04252e-08)
(1.49908 -0.00142929 8.37502e-09)
(1.49794 -0.0015419 1.12662e-08)
(1.49725 -0.00155629 1.51099e-08)
(1.49383 -0.00191879 2.78946e-08)
(1.49025 -0.00158789 5.19838e-09)
(1.48526 -0.0018197 4.07774e-08)
(1.47875 -0.00098464 -9.85032e-08)
(1.46794 -0.00179183 1.23319e-07)
(1.46428 0.00159272 -3.83641e-07)
(0.857751 0.0266264 -1.05253e-06)
(0.483242 0.0537259 -9.11699e-06)
(0.392042 0.0120172 2.99043e-06)
(0.393448 -0.038094 -7.56518e-06)
(0.429132 -0.0601568 4.46376e-07)
(0.467606 -0.056935 -4.36279e-05)
(0.498392 -0.0485323 3.38614e-05)
(0.525343 -0.0439902 8.83749e-05)
(0.548563 -0.0386678 -2.99433e-05)
(0.568324 -0.0350587 -2.69111e-05)
(0.587172 -0.0322505 4.12532e-05)
(0.604171 -0.0338392 -3.23024e-05)
(0.621236 -0.0304198 -9.92904e-05)
(0.633724 -0.0272887 6.65734e-05)
(0.647964 -0.0254776 0.000251809)
(0.663092 -0.0244266 0.000180733)
(0.675567 -0.0237297 -0.000118452)
(0.684535 -0.024477 -0.000276016)
(0.694358 -0.0265551 -0.000134245)
(0.705497 -0.0292462 0.000213261)
(0.718375 -0.0301492 0.000293431)
(0.725506 -0.0272326 -8.86803e-06)
(0.735479 -0.0252995 -0.000332719)
(0.74542 -0.0267921 -0.000276918)
(0.758171 -0.0292097 -9.1355e-05)
(0.76805 -0.0279174 0.000157593)
(0.77741 -0.0264186 -7.47166e-05)
(0.788169 -0.0286039 -0.000332402)
(0.80031 -0.031082 0.000635573)
(0.812392 -0.0286838 0.000841049)
(0.823629 -0.0237523 7.99576e-05)
(0.835298 -0.0187228 -0.00072919)
(0.842836 -0.0107406 -0.000818808)
(0.850657 0.00332788 -0.000680768)
(0.859248 0.0173078 0.000256194)
(0.833132 0.0334543 0.000485239)
(0.796575 0.0458766 0.000682996)
(0.776029 0.0712867 -0.000140082)
(0.716394 0.085356 -0.000277232)
(0.631017 0.115594 -0.000116279)
(0.571076 0.147114 0.000181689)
(0.506505 0.167315 5.46933e-05)
(0.440734 0.187215 -4.26645e-05)
(0.390688 0.196889 -1.49908e-05)
(0.355628 0.204275 -1.99103e-05)
(0.320559 0.184706 6.13365e-05)
(0.283195 0.159847 0.000104991)
(0.248554 0.130368 -0.000174679)
(0.227525 0.091907 4.46467e-05)
(0.2061 0.0641422 0.000199976)
(0.196089 0.0373817 -2.69561e-05)
(0.190279 0.0218401 -6.19737e-05)
(0.185431 0.0120826 -9.75589e-06)
(0.183746 0.00233286 6.9753e-05)
(0.183335 -0.000914038 9.59838e-05)
(0.183443 -0.00055934 1.10106e-05)
(0.183266 0.000686359 -6.09045e-05)
(0.182431 0.00132655 -2.82934e-05)
(0.181887 0.002686 1.61232e-05)
(0.181269 0.0052172 3.86772e-05)
(0.17936 0.00782909 2.26646e-05)
(0.176777 0.0120457 -2.8699e-06)
(0.171819 0.0165578 -1.52124e-05)
(0.164129 0.0211794 -4.78415e-06)
(0.152373 0.0244684 5.3071e-06)
(0.137734 0.0280721 -1.8708e-06)
(0.121489 0.0310581 9.53104e-06)
(0.106836 0.0401629 5.63627e-06)
(0.0898664 0.047225 -1.19789e-05)
(0.0776306 0.0616628 1.49873e-05)
(0.0601181 0.0682683 2.8551e-05)
(0.0460675 0.0804155 -1.95447e-06)
(0.0287147 0.0830203 -1.04217e-05)
(0.0128174 0.0890993 -5.97308e-06)
(1.53212 -0.00163073 3.60338e-10)
(1.55524 0.00275198 -7.66522e-10)
(1.52594 0.00713836 -6.62949e-11)
(1.52401 0.00777806 1.83179e-10)
(1.51146 0.00464106 4.33502e-10)
(1.49191 0.00266609 -9.42218e-10)
(1.47278 0.000865217 1.99425e-09)
(1.46623 -0.00311161 -1.50818e-09)
(1.46189 -0.00398622 -2.38074e-10)
(1.48062 -0.0038402 5.09657e-10)
(1.49036 -0.00363088 8.27159e-10)
(1.50666 -0.00229933 3.99753e-09)
(1.5259 -0.000395197 -1.45989e-08)
(1.53839 -0.000433613 2.72191e-08)
(1.55056 0.00198023 -2.22242e-08)
(1.54795 0.00311606 -1.07644e-09)
(1.53782 0.00324923 5.27649e-09)
(1.52591 0.00371437 7.62167e-09)
(1.51128 0.00314706 3.40238e-09)
(1.49699 0.00340307 -1.3948e-08)
(1.48412 0.00244353 1.09667e-08)
(1.47564 0.00150755 8.15132e-10)
(1.47919 0.000118541 -1.06438e-08)
(1.48117 -0.00105749 4.18908e-09)
(1.49618 -0.0020077 6.5101e-09)
(1.50149 -0.00171731 3.32875e-09)
(1.50967 -0.0020751 -5.06448e-09)
(1.51882 -0.001464 -2.20781e-09)
(1.52684 -0.000572496 -8.05262e-09)
(1.53269 3.41338e-06 7.24229e-09)
(1.53622 0.000132788 1.80867e-08)
(1.53512 0.00061902 8.18988e-09)
(1.53251 0.00077225 -8.5414e-09)
(1.52975 0.000685635 4.95451e-09)
(1.52772 0.000863422 -9.03894e-09)
(1.52553 0.00101301 -1.2481e-08)
(1.52321 0.00101848 -2.57576e-08)
(1.52152 0.000701154 -1.11884e-08)
(1.52079 0.000455231 -1.96929e-09)
(1.52029 9.85215e-05 1.54641e-08)
(1.52 0.000121731 3.24704e-08)
(1.51988 -0.000168419 1.80572e-08)
(1.5196 0.000111472 3.00671e-08)
(1.51536 0.00096109 -4.45258e-08)
(1.52449 0.0121865 -4.69769e-07)
(1.45926 0.131484 -3.11692e-06)
(0.724277 0.14684 -6.97487e-06)
(0.593647 0.0358358 -1.84876e-05)
(0.546333 -0.0534225 -8.57609e-06)
(0.552852 -0.0843126 5.82231e-05)
(0.575001 -0.0848471 7.23179e-06)
(0.596177 -0.0786938 -0.000267442)
(0.617507 -0.0754225 0.000223618)
(0.636712 -0.0691075 0.000387361)
(0.654376 -0.0655647 -0.000315956)
(0.669979 -0.060004 -0.000192455)
(0.684723 -0.0545237 0.000361902)
(0.698215 -0.0508084 -0.00017778)
(0.710903 -0.0467626 -0.000740774)
(0.721794 -0.0418946 0.000180124)
(0.733009 -0.0354116 0.00128962)
(0.74377 -0.0331519 0.000722876)
(0.752667 -0.0334185 -0.000811997)
(0.760662 -0.0324835 -0.00163518)
(0.768472 -0.0300275 -0.000559022)
(0.776815 -0.0281012 0.0014991)
(0.785859 -0.0283321 0.00149371)
(0.793005 -0.0284748 -0.000194374)
(0.799565 -0.0272256 -0.00138094)
(0.806301 -0.0264153 -0.00104383)
(0.814147 -0.0265321 0.000321427)
(0.822548 -0.0286988 0.00157633)
(0.830925 -0.0296154 0.000573002)
(0.841154 -0.0296164 -0.000785604)
(0.850615 -0.0276431 -0.000879717)
(0.858347 -0.0235911 -0.000306008)
(0.871238 -0.0174011 0.000516901)
(0.882141 -0.00725407 0.000612237)
(0.888765 0.006094 0.000367466)
(0.886516 0.0244476 -0.000462169)
(0.872958 0.0472997 -0.000847194)
(0.855536 0.0695831 -9.65952e-05)
(0.817929 0.0898852 0.000303382)
(0.739741 0.123017 0.000229031)
(0.690939 0.17892 -0.000226659)
(0.63161 0.208391 0.000195964)
(0.566545 0.228427 0.000179859)
(0.518159 0.247235 -0.000291884)
(0.463205 0.240058 3.77049e-05)
(0.416067 0.239945 0.000242985)
(0.372454 0.220857 -4.59014e-05)
(0.326534 0.196359 -7.13795e-05)
(0.28308 0.160933 -5.38282e-05)
(0.253023 0.113112 0.000229456)
(0.220549 0.0819685 -9.31796e-05)
(0.2049 0.0470765 -4.88713e-05)
(0.195987 0.0267389 0.000191184)
(0.188626 0.0152811 -8.82625e-05)
(0.185957 0.00303174 -0.000195523)
(0.184534 -0.000363767 -5.82771e-05)
(0.183696 0.000687599 1.08743e-05)
(0.182194 0.00296145 1.91133e-05)
(0.179563 0.00387179 -1.39288e-05)
(0.176332 0.00479549 -4.77753e-05)
(0.17322 0.00753598 -5.08689e-05)
(0.168985 0.0104717 -2.37739e-05)
(0.164875 0.0155819 -1.88277e-06)
(0.159558 0.0224755 9.52347e-06)
(0.152537 0.0313809 3.98062e-06)
(0.1426 0.0385832 6.80182e-06)
(0.131093 0.0445537 1.72694e-05)
(0.115656 0.0488061 -1.30315e-05)
(0.100328 0.0590579 -6.8552e-06)
(0.0823607 0.064355 9.06036e-06)
(0.0685721 0.0760603 -1.38392e-06)
(0.0527581 0.0818707 8.83019e-06)
(0.0416888 0.0941008 2.20702e-06)
(0.0267185 0.0974356 -9.54322e-07)
(0.0139455 0.104945 7.1047e-07)
(1.4631 0.000452917 1.61023e-10)
(1.43551 0.000115144 -3.44275e-10)
(1.48026 0.000602076 -1.60819e-10)
(1.48647 -0.000733075 -7.90129e-10)
(1.49749 -0.00301613 2.05757e-09)
(1.51717 -0.00266472 -9.83091e-09)
(1.53416 -0.00281878 2.14415e-08)
(1.54682 -0.00186658 -1.65525e-08)
(1.5259 -0.000566773 -4.03986e-09)
(1.52348 -0.000362153 -2.45969e-09)
(1.51709 -0.00048044 6.52688e-09)
(1.50588 0.000288102 9.64001e-09)
(1.49391 0.000589943 -1.68567e-08)
(1.47311 -6.50942e-05 2.72395e-08)
(1.45889 0.000187214 -5.22003e-08)
(1.46591 -0.000575872 3.51125e-08)
(1.47616 -0.00214326 3.96816e-09)
(1.49006 -0.00201367 3.16339e-09)
(1.49818 -0.00169796 -2.66509e-09)
(1.51448 -0.00133397 -2.19538e-08)
(1.53237 -0.00150263 3.97145e-08)
(1.54226 -0.00196429 -6.00393e-08)
(1.54865 -0.00143828 2.04517e-08)
(1.53897 -0.00125251 4.73378e-08)
(1.53523 -0.00115495 -4.34073e-09)
(1.53011 -0.00100447 -2.00685e-08)
(1.51976 -0.00113379 -2.26304e-08)
(1.51292 -0.000814336 -1.31633e-08)
(1.50679 -0.000432127 4.2104e-09)
(1.50276 -0.000506283 4.15488e-08)
(1.49961 -0.00077903 1.96554e-08)
(1.50169 -0.000427079 -4.52214e-09)
(1.50305 -0.000376767 -1.82243e-08)
(1.50288 -0.000265478 -1.76541e-08)
(1.50482 -1.15819e-05 -2.31398e-08)
(1.50676 0.000178188 -1.911e-08)
(1.50762 0.000329145 -6.06895e-09)
(1.50769 0.000341476 4.76029e-09)
(1.50737 0.000417471 1.07132e-08)
(1.50664 0.000496166 1.43623e-08)
(1.50609 0.000816575 1.57201e-08)
(1.50524 0.00136549 1.29641e-08)
(1.50526 0.00198694 1.44671e-08)
(1.50577 0.00373413 -1.97746e-08)
(1.50493 0.0122099 5.52952e-08)
(1.50557 0.102701 -4.03906e-06)
(0.802498 0.22992 6.09637e-06)
(0.611113 0.0542115 -5.51573e-05)
(0.575997 -0.0685479 -0.000126483)
(0.61346 -0.108667 0.000235714)
(0.655122 -0.106719 0.000585733)
(0.689501 -0.0962109 -0.00110581)
(0.71803 -0.0878705 -0.00132524)
(0.738871 -0.0736473 0.0021188)
(0.761746 -0.0652668 0.00232779)
(0.776381 -0.0575639 -0.0023629)
(0.79174 -0.0525122 -0.00270515)
(0.802941 -0.0471022 0.00131955)
(0.814367 -0.0413518 0.00222153)
(0.822342 -0.0388273 -0.000102201)
(0.829501 -0.039386 -0.00124631)
(0.834282 -0.0399196 -0.000455837)
(0.837997 -0.0386939 0.000700283)
(0.841735 -0.0359322 0.00109534)
(0.845818 -0.0342562 -7.62365e-06)
(0.850037 -0.0339361 -0.00102109)
(0.853232 -0.0344658 -0.000869807)
(0.855879 -0.0346167 2.70054e-05)
(0.8579 -0.035307 0.0010218)
(0.860541 -0.0359523 0.0010634)
(0.863915 -0.0363287 -3.39214e-05)
(0.868284 -0.0375373 -0.00105055)
(0.87386 -0.037928 -0.00108918)
(0.879479 -0.037237 -8.61433e-05)
(0.884708 -0.0348674 0.000566118)
(0.895362 -0.0309601 0.000728189)
(0.904316 -0.0243127 0.00033826)
(0.918787 -0.0130614 -0.000221029)
(0.926884 0.00519487 -0.000573931)
(0.931089 0.0286386 -0.000420472)
(0.928364 0.0555927 1.71618e-05)
(0.908301 0.0876256 0.00045535)
(0.851742 0.126788 0.000442521)
(0.804562 0.169632 -0.000522757)
(0.749992 0.228756 5.79378e-05)
(0.701522 0.266548 0.00038189)
(0.64996 0.2859 -0.000531608)
(0.602091 0.300373 -0.000372194)
(0.548783 0.2976 0.000895144)
(0.495987 0.300111 -0.000331156)
(0.445842 0.28225 -0.000657029)
(0.390454 0.250746 0.0001863)
(0.329884 0.210487 0.000181872)
(0.281744 0.154558 -6.45258e-05)
(0.232057 0.113048 7.07879e-05)
(0.208193 0.0647114 -5.20679e-05)
(0.195658 0.0358747 -0.000167206)
(0.186392 0.0201083 0.000119103)
(0.183095 0.00476805 0.000105773)
(0.180818 0.000680876 -4.99799e-05)
(0.178814 0.00181704 -7.56344e-05)
(0.176177 0.00455119 5.59963e-06)
(0.172002 0.00618769 8.422e-05)
(0.166943 0.00861973 7.67337e-05)
(0.161253 0.0121608 8.20675e-06)
(0.15456 0.0158388 4.67347e-07)
(0.147227 0.0211244 1.61241e-05)
(0.138688 0.0283328 5.51121e-06)
(0.132024 0.0382398 -1.62961e-05)
(0.12148 0.0427258 -3.60524e-05)
(0.11684 0.0553028 -1.72268e-05)
(0.104102 0.0625155 -5.45519e-06)
(0.0929452 0.0742786 2.22958e-06)
(0.0775182 0.0792295 1.06797e-05)
(0.066581 0.0910667 -2.47454e-05)
(0.0516591 0.0951333 -1.42304e-05)
(0.0414519 0.106673 -2.56498e-06)
(0.0274527 0.110377 4.76347e-06)
(0.0161778 0.119116 5.48598e-06)
(1.53546 -0.00186565 3.30675e-09)
(1.56534 0.000199214 -7.33258e-09)
(1.53349 0.0042094 1.50299e-09)
(1.53937 0.00467896 3.75037e-09)
(1.51841 0.00323825 2.72623e-09)
(1.49333 0.00305476 2.03079e-09)
(1.46759 0.0027359 -7.74039e-09)
(1.45615 -0.000438496 4.30535e-09)
(1.44973 -0.00246532 1.06853e-09)
(1.47632 -0.00365448 -1.44331e-09)
(1.48826 -0.00313551 -3.30245e-09)
(1.50748 -0.00258187 6.70105e-09)
(1.52993 -0.00241314 -3.04582e-08)
(1.54218 -0.00137339 4.54238e-08)
(1.55946 -0.000472971 -6.83216e-10)
(1.56277 0.00021051 -5.24457e-08)
(1.54913 0.000166054 4.25289e-09)
(1.53697 0.000520338 4.0746e-08)
(1.52111 0.000193026 3.52071e-08)
(1.50538 0.000855879 -7.79578e-08)
(1.49068 0.000550991 1.58998e-07)
(1.48133 0.000695763 -3.08939e-07)
(1.47801 -7.15117e-05 9.03665e-08)
(1.47979 -0.00107664 2.09653e-07)
(1.49596 -0.0017091 2.77955e-09)
(1.50462 -0.00206032 -7.71834e-08)
(1.51264 -0.00225834 -1.08994e-07)
(1.52309 -0.00284147 -1.71498e-08)
(1.53308 -0.00182706 2.1837e-08)
(1.54026 -0.00195197 1.19256e-07)
(1.54274 -0.00190727 6.58119e-08)
(1.54385 -0.00164006 -4.28942e-08)
(1.54103 -0.00160509 -6.80326e-08)
(1.53717 -0.0014662 -1.25991e-07)
(1.53464 -0.00143494 -2.9768e-08)
(1.53266 -0.00157636 3.18637e-08)
(1.53007 -0.00173221 7.43627e-08)
(1.52716 -0.00184165 8.36231e-08)
(1.52557 -0.00218049 4.83977e-08)
(1.52456 -0.00230467 -1.25879e-08)
(1.52366 -0.00211736 -6.68201e-08)
(1.52368 -0.00192204 -9.01444e-08)
(1.52083 -0.0013848 -7.73103e-08)
(1.5205 -0.000670114 -2.99264e-08)
(1.51878 0.00466407 1.96333e-08)
(1.51289 0.0639367 -3.92773e-06)
(1.17921 0.26888 -2.35048e-06)
(0.677181 0.0215451 -2.45812e-05)
(0.667541 -0.143871 7.85013e-06)
(0.747017 -0.164074 0.000101922)
(0.79139 -0.155735 0.000140611)
(0.819252 -0.138435 4.45067e-05)
(0.839697 -0.120415 -0.000523802)
(0.848294 -0.10364 -0.000653024)
(0.867447 -0.0915183 0.000660622)
(0.87066 -0.0785323 0.00118617)
(0.885087 -0.0680091 -4.52639e-05)
(0.886701 -0.0583181 -0.000476255)
(0.896512 -0.0512903 -0.00106758)
(0.898059 -0.0462977 -0.00121511)
(0.902349 -0.0437768 0.000534927)
(0.901857 -0.042442 0.00189115)
(0.902266 -0.0399689 0.00157367)
(0.901616 -0.03697 -0.000167017)
(0.901236 -0.0352789 -0.00157772)
(0.89986 -0.0346478 -0.00176056)
(0.898362 -0.0350597 -0.00073336)
(0.896421 -0.0351319 0.00100027)
(0.895624 -0.0342894 0.00120231)
(0.895585 -0.0343244 0.000816676)
(0.897099 -0.0350789 -0.000124737)
(0.89859 -0.0365245 -0.00101484)
(0.901778 -0.0372862 -0.000652961)
(0.905628 -0.0365553 -0.000215615)
(0.910901 -0.035053 0.000343904)
(0.920071 -0.0317696 0.000500411)
(0.927532 -0.0239117 0.00035126)
(0.94228 -0.0116827 5.69951e-06)
(0.95402 0.00872751 -0.000274554)
(0.959016 0.0341309 -0.000337832)
(0.943619 0.0673972 -0.000124432)
(0.936577 0.109344 0.000410886)
(0.88845 0.157749 -9.79072e-05)
(0.837985 0.208137 -0.000364976)
(0.796759 0.267598 0.000844481)
(0.769245 0.309094 -0.000384757)
(0.725735 0.330174 -0.00138135)
(0.680391 0.356677 0.00141831)
(0.629405 0.356511 0.000158654)
(0.576021 0.355156 -0.001373)
(0.520219 0.344899 0.000169885)
(0.461043 0.320916 0.00108817)
(0.393113 0.276495 0.000131205)
(0.325133 0.213423 -0.000144016)
(0.263801 0.147096 8.90098e-05)
(0.225979 0.0834425 0.000109809)
(0.205817 0.0453331 -0.000111954)
(0.190626 0.0269997 -0.000267531)
(0.18416 0.00943466 6.34408e-05)
(0.17958 0.00455606 0.000176565)
(0.175901 0.00580291 6.77038e-05)
(0.171848 0.00951888 -0.000147833)
(0.165798 0.0117049 -0.000106242)
(0.15864 0.0136933 7.9856e-05)
(0.151605 0.0179131 9.62294e-05)
(0.143335 0.0225332 -2.45828e-05)
(0.135037 0.0302474 -2.84923e-05)
(0.124779 0.036484 8.14168e-06)
(0.11931 0.0472597 1.8803e-05)
(0.108787 0.0519596 -2.83418e-06)
(0.0996174 0.0600604 6.44596e-07)
(0.0925425 0.0730156 1.00887e-05)
(0.0837101 0.0852224 -1.63268e-05)
(0.0706727 0.0908466 -8.96923e-06)
(0.0628924 0.103003 -8.0682e-06)
(0.0495028 0.106539 -3.54581e-06)
(0.0410074 0.117999 -3.53696e-06)
(0.0282293 0.122394 4.88935e-06)
(0.0188062 0.132282 6.97003e-06)
(1.46493 0.000793997 -1.03437e-10)
(1.43482 -0.000130102 8.02438e-11)
(1.47914 0.000919611 7.66669e-10)
(1.47782 2.58253e-06 3.65798e-10)
(1.49504 -0.000972694 -1.84696e-09)
(1.51695 -0.000704694 7.27758e-09)
(1.53953 -0.000738811 -2.92192e-08)
(1.55421 -0.00112172 3.07082e-08)
(1.53698 -0.00151438 2.09297e-09)
(1.53582 -0.00220472 -2.69413e-09)
(1.52881 -0.0024024 -1.10904e-08)
(1.51731 -0.00173686 -3.58292e-09)
(1.50435 -0.0018963 1.46112e-09)
(1.48535 -0.000385762 1.01006e-08)
(1.47279 0.000729852 2.15731e-08)
(1.4707 0.00157939 -7.57934e-08)
(1.48527 0.00104798 3.47916e-08)
(1.49288 0.000730347 2.3511e-08)
(1.50179 0.000529731 9.86107e-09)
(1.52227 0.000671166 -5.30653e-08)
(1.53755 0.000312173 1.27006e-07)
(1.5487 0.00035177 -9.10729e-08)
(1.55568 -0.000201804 -3.85616e-07)
(1.55579 -0.000339025 5.65683e-07)
(1.55005 -0.000969421 4.04069e-08)
(1.54529 -0.000920547 -1.10613e-07)
(1.53503 -0.00094799 -1.52738e-07)