/*--------------------------------*- C++ -*----------------------------------*\
| =========                 |                                                 |
| \\      /  F ield         | OpenFOAM: The Open Source CFD Toolbox           |
|  \\    /   O peration     | Version:  2.2.x                                 |
|   \\  /    A nd           | Web:      www.OpenFOAM.org                      |
|    \\/     M anipulation  |                                                 |
\*---------------------------------------------------------------------------*/
FoamFile
{
    version     2.0;
    format      ascii;
    class       volScalarField;
    location    "1.9";
    object      p;
}
// * * * * * * * * * * * * * * * * * * * * * * * * * * * * * * * * * * * * * //

dimensions      [1 -1 -2 0 0 0 0];

internalField   nonuniform List<scalar> 
14161
(
0.190616
0.192284
0.191774
0.191797
0.191637
0.191492
0.191318
0.191141
0.190959
0.190775
0.190589
0.190417
0.190252
0.190093
0.18995
0.189826
0.189708
0.189614
0.189546
0.189478
0.189415
0.189404
0.189414
0.189437
0.189485
0.189561
0.189652
0.189766
0.189892
0.190031
0.190203
0.19042
0.190662
0.190854
0.191111
0.19133
0.191624
0.191964
0.192294
0.192568
0.192782
0.192715
0.192234
0.191041
0.190196
0.192146
0.337511
1.09777
1.2729
1.23215
1.21227
1.21123
1.20124
1.19362
1.1877
1.17863
1.16975
1.16051
1.14922
1.13785
1.12638
1.1179
1.10368
1.08828
1.07509
1.06522
1.05666
1.04999
1.04515
1.04104
1.03734
1.03372
1.02978
1.02648
1.0234
1.01981
1.01658
1.0141
1.01295
1.01719
1.0275
1.04827
1.0735
1.09108
1.1139
1.14198
1.16603
1.1926
1.21896
1.23237
1.24197
1.24437
1.24306
1.24355
1.24025
1.24547
1.2574
1.2731
1.29556
1.32215
1.36119
1.40225
1.45109
1.50176
1.55483
1.61209
1.66516
1.71758
1.7651
1.81015
1.84782
1.88536
1.91598
1.94597
1.96967
1.98937
2.00381
2.011
2.02133
0.190627
0.192291
0.191774
0.191799
0.191635
0.191491
0.191318
0.191148
0.190967
0.190776
0.190587
0.190416
0.190253
0.190095
0.189952
0.189827
0.189709
0.189617
0.189548
0.18948
0.189415
0.1894
0.189408
0.189431
0.189476
0.189545
0.189629
0.189733
0.189856
0.189975
0.190123
0.190314
0.190469
0.190667
0.190805
0.191006
0.191176
0.191329
0.191542
0.191572
0.191384
0.190855
0.189529
0.187195
0.18261
0.190571
0.546215
1.42227
1.51265
1.49145
1.45794
1.44246
1.41449
1.39409
1.37562
1.35322
1.33309
1.3131
1.29226
1.27238
1.25326
1.23643
1.21304
1.19195
1.17464
1.16252
1.15339
1.14618
1.14209
1.14013
1.13781
1.13389
1.12741
1.12252
1.11632
1.11066
1.10958
1.11679
1.12104
1.1225
1.12163
1.13746
1.16786
1.19554
1.23502
1.26478
1.28517
1.30027
1.31749
1.34311
1.38425
1.41347
1.45372
1.48928
1.52119
1.55042
1.58617
1.62153
1.64577
1.67005
1.69373
1.72378
1.75566
1.78148
1.80697
1.83181
1.85396
1.87899
1.90061
1.92076
1.9382
1.95748
1.97303
1.9896
2.0017
2.00903
2.01661
2.02119
2.02885
0.190643
0.192295
0.191783
0.191805
0.191644
0.1915
0.191324
0.191149
0.190965
0.190782
0.190595
0.190422
0.19026
0.190104
0.189957
0.189822
0.189703
0.189609
0.189545
0.189487
0.189426
0.189411
0.18942
0.189445
0.189495
0.18957
0.189665
0.189785
0.189928
0.190073
0.190256
0.190522
0.190765
0.191079
0.191372
0.191737
0.192132
0.192593
0.193208
0.193936
0.194747
0.195816
0.197293
0.199005
0.203752
0.210358
0.810821
1.50246
1.61033
1.62972
1.59029
1.56871
1.53524
1.50907
1.48396
1.45544
1.42981
1.40473
1.37965
1.35482
1.33101
1.30953
1.28428
1.26186
1.24182
1.22762
1.21566
1.20477
1.19453
1.18658
1.18043
1.17613
1.17416
1.17303
1.16969
1.16425
1.15237
1.13979
1.13466
1.13932
1.17032
1.22232
1.26305
1.2884
1.28493
1.29283
1.3316
1.40627
1.50016
1.59962
1.69017
1.73209
1.76254
1.80364
1.8289
1.84616
1.87016
1.89357
1.90821
1.9176
1.92798
1.93445
1.93833
1.94653
1.95691
1.962
1.96765
1.97044
1.97265
1.97674
1.9809
1.98642
1.98947
1.99665
2.00115
2.00698
2.00865
2.01415
2.02248
0.190653
0.1923
0.191784
0.191806
0.191647
0.191502
0.191326
0.191147
0.190964
0.190785
0.190599
0.190424
0.190257
0.190097
0.189954
0.189827
0.18971
0.189612
0.189544
0.189477
0.189411
0.189392
0.189399
0.189418
0.18946
0.189521
0.189594
0.189684
0.189787
0.189882
0.190006
0.190148
0.190288
0.190386
0.190481
0.190568
0.190648
0.190705
0.190736
0.190754
0.190692
0.190677
0.190731
0.191226
0.191452
0.195171
0.861651
1.51986
1.6424
1.67401
1.64173
1.62036
1.58486
1.55749
1.53024
1.49896
1.46878
1.44087
1.4129
1.38422
1.35774
1.33384
1.3084
1.28195
1.25907
1.24266
1.22839
1.21675
1.20824
1.20385
1.20099
1.19664
1.18807
1.17632
1.16713
1.16142
1.16166
1.17008
1.17925
1.18104
1.18637
1.20288
1.22962
1.27452
1.34904
1.42619
1.49414
1.55577
1.60194
1.64537
1.70531
1.76583
1.8365
1.86897
1.90377
1.92163
1.92674
1.93377
1.94432
1.95671
1.96482
1.96754
1.97102
1.97452
1.98001
1.98491
1.98659
1.98762
1.98771
1.9874
1.98863
1.9907
1.99237
1.99492
1.99804
2.00086
2.00388
2.0055
2.01376
0.190675
0.192309
0.19179
0.191812
0.191654
0.191508
0.191332
0.19115
0.19097
0.190787
0.190599
0.190425
0.190264
0.19011
0.189961
0.189822
0.189704
0.189605
0.189539
0.189476
0.189413
0.189396
0.189405
0.189429
0.189478
0.189557
0.189653
0.189779
0.189927
0.190093
0.190313
0.190566
0.19087
0.191186
0.191544
0.192006
0.192526
0.19314
0.193887
0.194957
0.196135
0.197461
0.199284
0.201339
0.204107
0.199508
0.862285
1.51988
1.64048
1.67251
1.64373
1.62656
1.59416
1.5658
1.53703
1.50577
1.47402
1.44442
1.41488
1.3846
1.35784
1.33416
1.30485
1.28035
1.25954
1.24202
1.22838
1.21796
1.20912
1.19798
1.18838
1.18289
1.18073
1.1791
1.17726
1.17435
1.16324
1.14395
1.13376
1.13568
1.16473
1.22956
1.27903
1.32212
1.35989
1.37705
1.42259
1.52987
1.62334
1.67475
1.7414
1.79261
1.83151
1.85959
1.88459
1.9008
1.91809
1.93358
1.9554
1.96782
1.97389
1.97163
1.97286
1.9762
1.98209
1.98439
1.98502
1.98575
1.98563
1.98685
1.98797
1.99062
1.99096
1.9947
1.99682
2.00083
2.00327
2.00505
2.00946
0.190684
0.192313
0.191792
0.191814
0.191654
0.191508
0.191331
0.19115
0.190969
0.190785
0.1906
0.190426
0.190261
0.190101
0.189953
0.189819
0.189703
0.189602
0.189532
0.189462
0.189396
0.189368
0.189373
0.189384
0.189421
0.189473
0.189536
0.18961
0.189694
0.189773
0.189867
0.189959
0.190038
0.190089
0.19012
0.190118
0.190103
0.190014
0.189942
0.189882
0.189914
0.189797
0.190188
0.190368
0.190391
0.186965
0.841957
1.51862
1.62923
1.65592
1.6268
1.61019
1.58035
1.54729
1.51311
1.47973
1.44397
1.41161
1.38014
1.3473
1.32039
1.29643
1.26893
1.24061
1.21648
1.1991
1.1846
1.17411
1.16914
1.166
1.16245
1.1575
1.15295
1.14254
1.12917
1.12234
1.12217
1.13074
1.14172
1.14766
1.14831
1.15797
1.1991
1.25621
1.35432
1.4318
1.49449
1.54213
1.58303
1.6057
1.64983
1.69095
1.76249
1.81746
1.86618
1.89547
1.91127
1.92237
1.93452
1.94496
1.95747
1.96693
1.9749
1.97625
1.98112
1.98274
1.98468
1.98659
1.98691
1.98789
1.98831
1.99097
1.991
1.99515
1.99707
2.00096
2.00359
2.00501
2.00654
0.190708
0.192323
0.191797
0.19182
0.191659
0.191511
0.191332
0.19115
0.190974
0.190791
0.190605
0.190429
0.190258
0.190096
0.189948
0.189812
0.189698
0.189597
0.189528
0.189458
0.189392
0.18936
0.189368
0.189388
0.189436
0.189511
0.189607
0.189731
0.189866
0.190047
0.190264
0.190546
0.190837
0.191163
0.191565
0.192067
0.192594
0.193213
0.193979
0.195028
0.196279
0.197584
0.199287
0.201325
0.202729
0.205934
0.851975
1.51376
1.62861
1.65755
1.59378
1.5637
1.53537
1.49477
1.45397
1.41799
1.37872
1.34771
1.31645
1.28308
1.25865
1.23474
1.21513
1.18231
1.16587
1.15096
1.13874
1.12896
1.11931
1.10883
1.10047
1.09524
1.09564
1.09928
1.1014
1.10136
1.09772
1.08155
1.0706
1.07183
1.1059
1.14501
1.22559
1.28164
1.33358
1.37057
1.41534
1.44409
1.51226
1.55051
1.59316
1.63765
1.68322
1.73373
1.78933
1.82619
1.86715
1.89495
1.92233
1.93691
1.94618
1.95047
1.95528
1.9618
1.97216
1.97927
1.98399
1.98499
1.98454
1.98572
1.98767
1.9909
1.99147
1.99625
1.99814
2.00176
2.00393
2.00547
2.00628
0.190717
0.192326
0.191798
0.19182
0.19166
0.191514
0.191336
0.191153
0.19097
0.190786
0.1906
0.190423
0.190252
0.190094
0.189945
0.189802
0.189679
0.189575
0.189501
0.189436
0.189366
0.189328
0.189326
0.189329
0.189356
0.189395
0.189447
0.189505
0.189556
0.18961
0.189687
0.189745
0.189771
0.189763
0.189714
0.189616
0.189456
0.189219
0.188925
0.188673
0.188323
0.188079
0.187824
0.18794
0.18815
0.195712
0.743689
1.48793
1.60628
1.62328
1.52874
1.47888
1.43667
1.39638
1.35039
1.31921
1.28156
1.25775
1.22961
1.20272
1.18583
1.1678
1.15724
1.12332
1.1102
1.09121
1.0906
1.07514
1.06936
1.0634
1.06136
1.05866
1.05411
1.04565
1.03725
1.03233
1.03187
1.03714
1.05079
1.05064
1.07829
1.07263
1.12795
1.19848
1.28536
1.33679
1.39568
1.40637
1.44198
1.4614
1.48596
1.52488
1.58062
1.62988
1.70143
1.75262
1.81902
1.85664
1.88678
1.90784
1.92221
1.93086
1.94164
1.94999
1.96012
1.96764
1.97535
1.98047
1.98514
1.98628
1.98834
1.99014
1.99149
1.99666
1.99861
2.00279
2.00432
2.00606
2.00738
0.190741
0.192336
0.191803
0.191824
0.191663
0.191514
0.191334
0.191152
0.190972
0.190785
0.190599
0.19042
0.190248
0.19009
0.189939
0.189795
0.189667
0.189561
0.189485
0.189418
0.189348
0.189311
0.189307
0.189323
0.189363
0.189427
0.189513
0.189624
0.189746
0.189912
0.190131
0.190388
0.190674
0.191017
0.191382
0.191812
0.192269
0.192832
0.193463
0.194184
0.194805
0.195465
0.195829
0.195684
0.194384
0.209289
0.493855
1.36338
1.53534
1.48921
1.39355
1.34105
1.30742
1.28058
1.2419
1.22165
1.18875
1.17998
1.14879
1.13094
1.11914
1.10473
1.10081
1.06492
1.05379
1.03768
1.04215
1.02844
1.02126
1.01292
1.00808
1.00232
0.999888
0.999208
0.997573
0.99601
0.994186
0.982226
0.982151
0.970293
1.00393
1.01953
1.10469
1.15702
1.22901
1.25871
1.3124
1.31629
1.34644
1.36906
1.40676
1.42794
1.48457
1.52522
1.59627
1.65642
1.73372
1.78975
1.84326
1.879
1.9042
1.91397
1.92389
1.93315
1.94173
1.95141
1.96483
1.97352
1.98059
1.98345
1.98651
1.98941
1.99185
1.99673
1.99905
2.00391
2.00501
2.007
2.00908
0.190749
0.192339
0.191804
0.191824
0.191663
0.191514
0.191332
0.191149
0.19097
0.190782
0.190596
0.190417
0.190239
0.190076
0.189926
0.189781
0.189649
0.18954
0.189456
0.189384
0.189305
0.189259
0.18924
0.18924
0.18925
0.189278
0.189312
0.189351
0.189393
0.18943
0.189456
0.189477
0.189464
0.189415
0.189321
0.189155
0.188888
0.188522
0.188083
0.187441
0.186589
0.185498
0.184001
0.180859
0.178744
0.179421
0.256377
0.899727
1.47989
1.31112
1.25627
1.21767
1.19644
1.18362
1.16091
1.15881
1.12892
1.12718
1.09402
1.08871
1.06766
1.07471
1.05017
1.04282
1.01035
1.00988
0.9992
1.00073
0.983747
0.984037
0.97723
0.975867
0.973422
0.970593
0.965366
0.961212
0.958842
0.95046
0.953278
0.939559
0.970391
0.96873
1.06373
1.10906
1.16936
1.17693
1.22322
1.24647
1.27689
1.2964
1.31406
1.34082
1.38372
1.42947
1.48401
1.55566
1.63397
1.71423
1.78802
1.83678
1.87518
1.89399
1.91054
1.91957
1.92679
1.93347
1.94436
1.95556
1.97037
1.97972
1.98532
1.98903
1.99128
1.99582
1.99899
2.00396
2.00517
2.00774
2.01007
0.190769
0.192347
0.191809
0.191826
0.191664
0.191515
0.191335
0.19115
0.190967
0.190775
0.190589
0.190409
0.190232
0.190066
0.189911
0.189763
0.18963
0.189519
0.189433
0.189357
0.189278
0.189226
0.189207
0.189216
0.189242
0.18929
0.189359
0.189442
0.189554
0.189714
0.189904
0.190118
0.190367
0.190683
0.191024
0.191396
0.191767
0.19222
0.192674
0.19313
0.193589
0.193994
0.194204
0.194118
0.194024
0.197481
0.204421
0.48357
1.44404
1.32594
1.24187
1.19117
1.16134
1.14047
1.13008
1.11251
1.11075
1.0825
1.07872
1.05137
1.05101
1.03618
1.04166
1.00742
0.991267
0.981845
0.9852
0.973489
0.970753
0.96545
0.961853
0.959202
0.957709
0.952993
0.950453
0.946234
0.946275
0.934176
0.933208
0.913357
0.943315
0.951703
1.05946
1.08726
1.12441
1.1449
1.17438
1.18703
1.1852
1.20012
1.22965
1.27942
1.31223
1.35855
1.40075
1.46477
1.53446
1.62717
1.71587
1.78131
1.83757
1.87054
1.89633
1.90814
1.91613
1.92009
1.92579
1.9358
1.95316
1.96672
1.97934
1.98656
1.99131
1.99488
1.99885
2.00365
2.00495
2.00757
2.01088
0.190778
0.19235
0.19181
0.191826
0.191663
0.191513
0.191333
0.191148
0.19096
0.190766
0.190581
0.190402
0.190221
0.190051
0.189896
0.189746
0.189604
0.189486
0.18939
0.189307
0.189223
0.189158
0.189129
0.189112
0.189109
0.189116
0.189131
0.189151
0.189165
0.189176
0.189194
0.189185
0.189155
0.18909
0.188989
0.188828
0.188574
0.188256
0.187899
0.187411
0.18691
0.186348
0.185701
0.18493
0.184361
0.184205
0.220381
0.772445
1.31687
1.31112
1.23707
1.19989
1.16482
1.14518
1.12641
1.12101
1.09584
1.09698
1.06304
1.05894
1.03688
1.04702
1.02272
1.01796
0.975874
0.988158
0.978819
0.975982
0.969798
0.964252
0.961793
0.960111
0.957126
0.954995
0.948614
0.946912
0.937203
0.933392
0.91483
0.920759
0.91889
0.990536
1.05954
1.09409
1.09706
1.11984
1.12317
1.1302
1.14244
1.16348
1.17636
1.19924
1.21811
1.27796
1.34013
1.40892
1.4652
1.54252
1.62658
1.71441
1.79531
1.84023
1.87209
1.89079
1.901
1.90573
1.91082
1.91884
1.93426
1.95119
1.96959
1.98027
1.98864
1.99466
1.99949
2.00336
2.00502
2.00725
2.01148
0.190794
0.192356
0.191813
0.191826
0.191662
0.191511
0.191329
0.191143
0.190956
0.190759
0.190571
0.190388
0.19021
0.190035
0.189876
0.189725
0.18958
0.189458
0.189354
0.189266
0.18918
0.18911
0.189074
0.189065
0.189071
0.189096
0.189137
0.189205
0.189297
0.189401
0.189545
0.189749
0.189981
0.190256
0.190565
0.190903
0.191284
0.191723
0.192236
0.19283
0.193346
0.193942
0.194623
0.19468
0.194559
0.203208
0.237884
0.862069
1.15633
1.26121
1.25271
1.22879
1.21042
1.17897
1.15718
1.1432
1.11875
1.11571
1.08078
1.07346
1.0502
1.05991
1.03348
1.02704
0.985711
0.997338
0.986033
0.988202
0.97671
0.973209
0.970747
0.968932
0.96424
0.960666
0.953629
0.952327
0.941969
0.936855
0.915714
0.931326
0.928229
1.03661
1.07759
1.11192
1.08575
1.10894
1.10167
1.09532
1.11261
1.12452
1.13844
1.16038
1.18414
1.22451
1.26385
1.31065
1.37567
1.45474
1.54096
1.64124
1.74348
1.80771
1.8502
1.87433
1.88771
1.89518
1.89844
1.9029
1.91222
1.92949
1.94972
1.9666
1.98353
1.9918
1.99898
2.00272
2.00549
2.00662
2.01168
0.190801
0.192357
0.191813
0.191825
0.191659
0.191507
0.191325
0.191135
0.190948
0.190751
0.19056
0.190374
0.190193
0.190015
0.189853
0.189698
0.189547
0.189415
0.189302
0.189204
0.18911
0.189027
0.188975
0.188944
0.18892
0.188902
0.188896
0.188888
0.18889
0.188877
0.188863
0.188836
0.188805
0.18875
0.188672
0.188549
0.188406
0.188198
0.188078
0.188028
0.188164
0.188388
0.189339
0.189757
0.190751
0.211237
0.411939
0.895814
1.04965
1.18954
1.26851
1.2671
1.25072
1.20489
1.18254
1.15112
1.14039
1.10995
1.10412
1.07497
1.07538
1.05161
1.06031
1.01819
1.00071
0.995609
0.997051
0.988199
0.9834
0.979597
0.97856
0.975423
0.972384
0.967711
0.966686
0.965028
0.95828
0.938218
0.929079
0.923431
1.00307
1.06421
1.12794
1.09217
1.1056
1.08685
1.09138
1.08926
1.09635
1.1041
1.12056
1.13475
1.1593
1.18056
1.21646
1.25867
1.31948
1.38072
1.45117
1.54802
1.66268
1.75531
1.8235
1.85629
1.87723
1.8854
1.88952
1.89151
1.89529
1.90934
1.92655
1.95213
1.97212
1.98279
1.9975
2.00048
2.00425
2.00537
2.01113
0.190812
0.192361
0.191814
0.191824
0.191657
0.191503
0.191319
0.19113
0.190939
0.190742
0.190547
0.19036
0.190177
0.189991
0.189825
0.189668
0.189513
0.189375
0.189254
0.18915
0.189051
0.18896
0.188897
0.188862
0.188845
0.18884
0.188853
0.188888
0.188943
0.189025
0.189119
0.189261
0.189454
0.189702
0.190003
0.190337
0.19073
0.191254
0.191877
0.192535
0.193302
0.194573
0.19631
0.197836
0.199524
0.221739
0.67803
0.892422
0.966957
1.05632
1.2189
1.25831
1.25565
1.19922
1.18158
1.14647
1.13807
1.10437
1.10142
1.07152
1.08482
1.05247
1.06026
1.01351
1.00284
0.996693
0.997244
0.987545
0.985632
0.984453
0.983318
0.98073
0.977954
0.975799
0.974262
0.963496
0.953576
0.936923
0.933351
0.941675
1.03932
1.11213
1.13384
1.10765
1.11375
1.09969
1.08536
1.08341
1.07943
1.08598
1.10856
1.12385
1.14738
1.1626
1.18947
1.22597
1.26648
1.32499
1.39235
1.47902
1.58918
1.69467
1.78426
1.82956
1.8574
1.87138
1.87863
1.87986
1.88113
1.89048
1.90277
1.93009
1.95006
1.97463
1.99219
1.99914
2.00479
2.00406
2.00958
0.190817
0.192361
0.191813
0.191821
0.191652
0.191497
0.191312
0.191122
0.190929
0.190732
0.190534
0.190341
0.190156
0.189965
0.189793
0.189629
0.18947
0.189321
0.189191
0.189077
0.188965
0.188861
0.188777
0.188717
0.188673
0.18863
0.188595
0.188565
0.188536
0.188508
0.18848
0.188431
0.188377
0.188308
0.188217
0.188086
0.187912
0.187675
0.187379
0.186996
0.186485
0.185763
0.184312
0.183008
0.186944
0.205775
0.791186
0.899058
0.932513
0.967355
1.07856
1.14648
1.21765
1.19898
1.21779
1.17699
1.17208
1.13223
1.12677
1.09614
1.10832
1.07125
1.07025
1.02514
1.02007
1.00976
1.0147
1.00256
1.00522
1.00308
1.00194
0.997829
0.993561
0.991275
0.989878
0.976726
0.966969
0.949988
0.958239
1.01132
1.11699
1.1424
1.14527
1.14201
1.12447
1.09758
1.09774
1.09872
1.10513
1.09697
1.09319
1.11467
1.1301
1.14443
1.15378
1.18655
1.22081
1.27815
1.34569
1.42879
1.52569
1.63526
1.7468
1.80773
1.84047
1.86054
1.87127
1.87254
1.87208
1.87335
1.88561
1.90476
1.93198
1.96115
1.98393
1.99624
2.00416
2.00299
2.00927
0.190824
0.192362
0.191813
0.191818
0.191648
0.191492
0.191305
0.191114
0.190916
0.19072
0.190516
0.190321
0.190132
0.18994
0.189758
0.189588
0.189427
0.189268
0.189128
0.189006
0.188886
0.188775
0.188679
0.188605
0.188552
0.188512
0.18849
0.188485
0.188499
0.188538
0.188598
0.188682
0.188802
0.188978
0.189205
0.189485
0.189835
0.190318
0.190764
0.191389
0.191919
0.192911
0.19292
0.19291
0.206758
0.296817
0.907894
0.941408
0.953309
0.963277
0.986012
1.0661
1.12281
1.212
1.20545
1.2101
1.16715
1.15807
1.12454
1.1238
1.09439
1.09322
1.05102
1.03975
1.02126
1.02178
1.01043
1.00902
1.00853
1.00746
1.0046
1.00241
1.00086
0.997402
0.988952
0.976514
0.965311
0.960459
0.987753
1.11681
1.15783
1.1685
1.1746
1.15458
1.11528
1.10836
1.09716
1.10518
1.09576
1.0995
1.10501
1.1238
1.13286
1.14034
1.1528
1.16885
1.20279
1.23899
1.28434
1.35657
1.45145
1.56905
1.69665
1.78346
1.82724
1.85277
1.86814
1.87028
1.8672
1.86571
1.87433
1.88103
1.91215
1.93801
1.96805
1.9888
2.00082
2.00029
2.00741
0.190826
0.19236
0.19181
0.191814
0.191643
0.191484
0.191296
0.191103
0.190902
0.190704
0.190499
0.190298
0.190105
0.189912
0.189718
0.189541
0.189373
0.189203
0.18905
0.188914
0.188782
0.188654
0.188543
0.188446
0.188364
0.188284
0.188216
0.188155
0.188103
0.188046
0.187991
0.187923
0.187864
0.187768
0.187658
0.187536
0.18739
0.187248
0.186968
0.186824
0.186566
0.186814
0.186372
0.185859
0.207565
0.554147
0.93721
0.950533
0.951177
0.948229
0.962697
0.985678
1.05546
1.10825
1.21167
1.20293
1.21092
1.16402
1.15634
1.12083
1.1243
1.07736
1.07089
1.02889
1.03402
1.01993
1.01818
1.01483
1.01696
1.01504
1.01496
1.01389
1.00911
1.00088
0.994944
0.989712
0.989738
1.00668
1.12321
1.18049
1.18911
1.18949
1.16702
1.14377
1.14035
1.1428
1.13024
1.10641
1.09739
1.10188
1.10925
1.11128
1.11297
1.11979
1.13592
1.16392
1.18823
1.21986
1.25526
1.31882
1.397
1.50356
1.63199
1.73696
1.80318
1.83356
1.85388
1.85916
1.85748
1.8544
1.8555
1.86211
1.88678
1.91423
1.95207
1.97691
1.99523
1.99667
2.00461
0.19083
0.192359
0.191807
0.191809
0.191636
0.191476
0.191287
0.191092
0.190887
0.190686
0.190479
0.190272
0.190075
0.18988
0.189678
0.189491
0.189318
0.18914
0.188974
0.188823
0.188681
0.188539
0.188416
0.188308
0.188214
0.18812
0.18804
0.187988
0.187956
0.187939
0.187937
0.18795
0.188005
0.188075
0.188175
0.188347
0.188619
0.188915
0.18915
0.189492
0.190234
0.191454
0.192307
0.191732
0.217335
0.767251
0.967364
0.968487
0.957349
0.944223
0.949457
0.965678
0.979917
0.999145
1.12541
1.15559
1.20548
1.16419
1.17245
1.1225
1.14111
1.08176
1.08008
1.0261
1.03519
1.02486
1.02305
1.02048
1.02215
1.02438
1.02455
1.02205
1.01432
1.01874
1.02799
1.0363
1.07421
1.18158
1.2387
1.25803
1.21582
1.17721
1.14238
1.13792
1.14324
1.1405
1.13365
1.12974
1.1209
1.12234
1.12242
1.11994
1.12211
1.12425
1.13011
1.14404
1.16293
1.18994
1.22684
1.29111
1.36175
1.45874
1.57657
1.6927
1.7779
1.81611
1.84116
1.85111
1.85189
1.84671
1.84064
1.85229
1.86076
1.89259
1.93021
1.95975
1.9838
1.98919
1.99773
0.190825
0.192354
0.191802
0.191803
0.191628
0.191467
0.191275
0.191078
0.190872
0.190666
0.190458
0.190246
0.190043
0.189843
0.189632
0.189434
0.189252
0.189066
0.188882
0.188716
0.18856
0.188398
0.18825
0.188117
0.188003
0.18788
0.187755
0.187649
0.187556
0.187478
0.187385
0.187285
0.187169
0.187046
0.186931
0.186813
0.186661
0.186466
0.186032
0.185684
0.185206
0.184487
0.183266
0.186718
0.212954
0.869
0.979654
0.981226
0.975628
0.965416
0.960914
0.952572
0.949685
0.968778
1.01204
1.04089
1.14149
1.12846
1.16972
1.116
1.13122
1.08158
1.08314
1.02751
1.04265
1.0303
1.02599
1.02701
1.03617
1.0505
1.05876
1.05897
1.07227
1.13645
1.20444
1.28265
1.36358
1.419
1.38379
1.33699
1.26907
1.21864
1.19303
1.17212
1.142
1.12676
1.13019
1.12446
1.12139
1.11095
1.10728
1.10838
1.11349
1.12781
1.13852
1.14578
1.16163
1.17955
1.21384
1.25396
1.31813
1.40491
1.51897
1.64518
1.74824
1.7978
1.82636
1.8423
1.84657
1.84171
1.83388
1.83671
1.83964
1.87074
1.90326
1.94227
1.9702
1.98017
1.99006
0.190826
0.19235
0.191797
0.191796
0.191619
0.191456
0.191262
0.191064
0.190854
0.190645
0.190436
0.190215
0.190006
0.189802
0.189584
0.189375
0.189182
0.18899
0.188789
0.188605
0.188438
0.188265
0.188092
0.187939
0.187805
0.187675
0.187531
0.187402
0.1873
0.187228
0.187163
0.187094
0.187029
0.186996
0.186983
0.186965
0.186987
0.186937
0.186928
0.186744
0.186659
0.185569
0.184112
0.197951
0.276387
0.954946
1.00417
1.00389
0.996176
0.989973
0.982029
0.968944
0.94732
0.941603
0.949994
0.984406
0.997536
1.09844
1.09302
1.14641
1.09396
1.12196
1.07631
1.06716
1.06742
1.08025
1.06924
1.08848
1.15427
1.21178
1.26237
1.32851
1.41119
1.48777
1.56025
1.61585
1.62587
1.5907
1.52649
1.45178
1.36735
1.29964
1.23498
1.19497
1.17652
1.16233
1.15347
1.14729
1.1397
1.12813
1.12378
1.12466
1.12051
1.12124
1.1273
1.13745
1.14771
1.16906
1.19802
1.23473
1.29127
1.36628
1.47098
1.59664
1.71548
1.7817
1.81638
1.8346
1.84062
1.83575
1.8298
1.82049
1.82901
1.84641
1.87947
1.92352
1.95468
1.96905
1.9828
0.190815
0.192341
0.191788
0.191787
0.191609
0.191444
0.191248
0.191047
0.190835
0.190622
0.190411
0.190183
0.189966
0.189757
0.189533
0.18931
0.189105
0.188902
0.188685
0.18848
0.188295
0.188108
0.187904
0.187724
0.187562
0.187403
0.187228
0.187048
0.186895
0.186759
0.186647
0.1865
0.186293
0.186129
0.18599
0.185857
0.185764
0.185643
0.185706
0.185761
0.18645
0.186172
0.187423
0.209418
0.529679
0.977307
0.99605
0.995672
0.988475
0.982923
0.975649
0.966644
0.953789
0.938055
0.936157
0.942399
0.976896
0.984871
1.09899
1.09924
1.16986
1.11139
1.15514
1.17432
1.24196
1.28867
1.36338
1.4206
1.50698
1.58708
1.65885
1.70616
1.72875
1.73624
1.73496
1.72102
1.69113
1.6528
1.60266
1.54793
1.48159
1.41544
1.33716
1.26954
1.21444
1.17686
1.15754
1.1453
1.13608
1.12992
1.12491
1.1281
1.12914
1.12984
1.13563
1.14298
1.1479
1.1604
1.18361
1.21922
1.26657
1.33287
1.42451
1.54459
1.67222
1.76015
1.80766
1.82731
1.83509
1.83133
1.82322
1.81485
1.82193
1.82533
1.85847
1.90017
1.93771
1.95738
1.97625
0.190812
0.192335
0.19178
0.191778
0.191598
0.191431
0.191233
0.19103
0.190815
0.190596
0.190382
0.19015
0.189924
0.189706
0.189479
0.189241
0.189021
0.188809
0.188579
0.188355
0.188147
0.187946
0.187726
0.187516
0.187324
0.187155
0.186965
0.186742
0.186563
0.186396
0.186284
0.186135
0.185961
0.185788
0.185728
0.185735
0.185805
0.186006
0.186228
0.186742
0.187318
0.188258
0.188715
0.215638
0.74931
0.983718
0.983633
0.983323
0.981769
0.979457
0.966906
0.958113
0.954853
0.959606
0.961814
0.940131
0.92506
0.968401
1.08549
1.15533
1.28271
1.30571
1.42142
1.49841
1.58832
1.66326
1.70334
1.73656
1.75883
1.77683
1.79006
1.79247
1.78254
1.76979
1.75486
1.73777
1.71467
1.68775
1.65569
1.61843
1.57377
1.51911
1.44494
1.36443
1.29603
1.24664
1.2123
1.18601
1.16718
1.15714
1.1458
1.13422
1.12946
1.13073
1.1313
1.13596
1.14442
1.15955
1.17973
1.20767
1.24572
1.3026
1.3849
1.4983
1.63186
1.73335
1.78734
1.81213
1.82549
1.82447
1.81546
1.81416
1.80446
1.81344
1.83681
1.87688
1.92148
1.94409
1.96757
0.190796
0.192323
0.191768
0.191766
0.191585
0.191416
0.191216
0.19101
0.190792
0.190568
0.190351
0.190115
0.189879
0.189652
0.189422
0.189169
0.188932
0.188709
0.188467
0.188218
0.187987
0.187768
0.187525
0.187277
0.187051
0.186859
0.186641
0.186373
0.186134
0.185917
0.185749
0.185558
0.185325
0.184994
0.184773
0.184499
0.184218
0.183734
0.183227
0.182487
0.180077
0.178268
0.182519
0.213184
0.846841
0.968834
0.975574
0.977657
0.98127
0.975087
0.966135
0.961446
0.961981
0.972138
0.979367
0.972572
0.97394
1.05741
1.21124
1.40812
1.56949
1.64447
1.6795
1.71851
1.73712
1.75854
1.76397
1.7692
1.77764
1.77729
1.77395
1.77458
1.76852
1.76067
1.75037
1.73751
1.72416
1.70809
1.68796
1.66343
1.63211
1.59456
1.54261
1.4717
1.38636
1.30763
1.24308
1.20259
1.17969
1.16355
1.15392
1.15036
1.14859
1.14629
1.14284
1.13816
1.14238
1.15021
1.16547
1.1883
1.22326
1.27504
1.35241
1.45876
1.59177
1.7079
1.76807
1.79771
1.81677
1.8194
1.81296
1.80492
1.79449
1.80584
1.81365
1.85583
1.89987
1.92962
1.95839
0.190788
0.192312
0.191756
0.191754
0.191571
0.191401
0.191198
0.19099
0.190768
0.190537
0.190316
0.19008
0.18983
0.189594
0.189359
0.189095
0.18884
0.1886
0.18835
0.188075
0.187821
0.187585
0.187325
0.187041
0.186788
0.186553
0.186326
0.186051
0.18575
0.185501
0.185269
0.185093
0.184829
0.184444
0.184087
0.1838
0.183478
0.18326
0.183263
0.183301
0.183448
0.182894
0.200517
0.327388
0.939947
0.95972
0.966317
0.969291
0.969498
0.967689
0.964696
0.964378
0.970135
0.981018
0.993797
1.02536
1.10753
1.28149
1.51805
1.70747
1.73885
1.73753
1.74137
1.74701
1.7498
1.75199
1.75081
1.74853
1.74698
1.75149
1.75452
1.75684
1.75686
1.75382
1.7468
1.73764
1.72748
1.71675
1.70409
1.68846
1.66737
1.64135
1.60577
1.55578
1.47792
1.38951
1.31372
1.25945
1.22505
1.20054
1.18321
1.16603
1.15048
1.14521
1.14217
1.1454
1.15136
1.15619
1.16498
1.18184
1.21005
1.25437
1.32289
1.42074
1.54779
1.67363
1.74749
1.78254
1.80498
1.80977
1.80803
1.79371
1.79473
1.78386
1.79695
1.8327
1.87751
1.91441
1.94803
0.190766
0.192296
0.19174
0.191739
0.191555
0.191384
0.191178
0.190968
0.190742
0.190508
0.19028
0.190044
0.189781
0.189532
0.189291
0.18902
0.188746
0.188485
0.188225
0.18793
0.187648
0.187388
0.187111
0.186785
0.186494
0.186216
0.185973
0.18567
0.185301
0.184996
0.184702
0.184505
0.184216
0.183822
0.183479
0.183286
0.183155
0.183157
0.183273
0.183496
0.184117
0.185586
0.212788
0.645251
0.915625
0.940641
0.947403
0.953011
0.955033
0.953242
0.954757
0.964159
0.978852
0.992089
1.01862
1.11915
1.32838
1.55262
1.72924
1.75502
1.74745
1.74106
1.73741
1.73129
1.72643
1.72736
1.72564
1.72263
1.71873
1.71841
1.72245
1.72911
1.73506
1.7382
1.73721
1.73327
1.72755
1.71953
1.71035
1.69975
1.68662
1.66842
1.64354
1.60796
1.55557
1.47962
1.39331
1.31525
1.25404
1.21547
1.19396
1.17829
1.16672
1.16025
1.15584
1.15226
1.15102
1.15422
1.1603
1.17511
1.20054
1.24202
1.30307
1.39181
1.51093
1.63961
1.72889
1.76776
1.79362
1.80233
1.80334
1.78972
1.78224
1.76638
1.79193
1.80699
1.85792
1.89651
1.93454
0.190751
0.192282
0.191724
0.191723
0.191538
0.191365
0.191157
0.190943
0.190718
0.190476
0.19024
0.190003
0.189731
0.189469
0.189217
0.188943
0.188644
0.188364
0.188092
0.187787
0.187473
0.18718
0.186886
0.186537
0.186201
0.185884
0.185623
0.185306
0.184891
0.184527
0.184198
0.183914
0.183636
0.183217
0.182588
0.181986
0.181275
0.180461
0.179503
0.177643
0.175925
0.181736
0.21053
0.791445
0.917167
0.933702
0.944186
0.950689
0.952474
0.948785
0.950076
0.968512
1.00964
1.05229
1.12933
1.37098
1.61664
1.72652
1.75321
1.73523
1.72271
1.71277
1.70633
1.70587
1.70422
1.70392
1.70179
1.69922
1.69649
1.69566
1.69719
1.7021
1.70708
1.71289
1.7174
1.72046
1.71883
1.71545
1.71017
1.70311
1.69382
1.68235
1.66596
1.64229
1.60641
1.55388
1.4747
1.38469
1.30901
1.25976
1.22856
1.20661
1.18728
1.1687
1.16085
1.15864
1.15727
1.15746
1.16175
1.17177
1.19277
1.2271
1.28129
1.36149
1.47354
1.60312
1.70514
1.75016
1.78021
1.79214
1.79339
1.78362
1.76654
1.7666
1.76907
1.78436
1.84253
1.87855
1.91862
0.190725
0.192262
0.191706
0.191705
0.191519
0.191345
0.191134
0.190916
0.190691
0.190444
0.190199
0.189958
0.189683
0.189406
0.18914
0.188861
0.188542
0.18824
0.187954
0.187637
0.187291
0.186966
0.186651
0.186285
0.1859
0.185544
0.185238
0.184892
0.184447
0.184008
0.183626
0.183266
0.182978
0.182518
0.181957
0.181515
0.181337
0.181172
0.181329
0.181709
0.181299
0.202415
0.385873
0.93247
0.929292
0.931518
0.938004
0.948997
0.955674
0.952083
0.951503
0.98793
1.0803
1.19028
1.39069
1.65923
1.74073
1.74716
1.72766
1.71127
1.70418
1.69508
1.68738
1.68436
1.68182
1.68025
1.68016
1.68017
1.67947
1.67666
1.67545
1.67511
1.6782
1.68328
1.68952
1.69683
1.70147
1.70394
1.70244
1.6993
1.69453
1.68643
1.67559
1.65951
1.63527
1.59819
1.54284
1.46207
1.37664
1.30819
1.25689
1.22165
1.19781
1.18126
1.17111
1.1615
1.15742
1.15767
1.15929
1.16616
1.183
1.21349
1.26188
1.33471
1.43974
1.56724
1.68156
1.73601
1.76731
1.78032
1.7836
1.77354
1.75819
1.75206
1.74666
1.7694
1.82179
1.8621
1.90627
0.190703
0.192243
0.191686
0.191686
0.1915
0.191324
0.19111
0.190887
0.190663
0.190411
0.190157
0.189908
0.189636
0.18934
0.189059
0.188773
0.18844
0.188116
0.187806
0.187478
0.187102
0.186746
0.186417
0.186037
0.185604
0.18522
0.184869
0.184506
0.184041
0.183525
0.183105
0.182711
0.182483
0.182113
0.18158
0.180998
0.180688
0.180444
0.180167
0.180009
0.182208
0.210747
0.733994
0.936565
0.935762
0.931659
0.935001
0.952886
0.965506
0.967241
0.96944
1.0545
1.2405
1.45849
1.66633
1.74282
1.73556
1.71572
1.68979
1.68301
1.68397
1.67734
1.66694
1.66408
1.66343
1.66335
1.66307
1.66228
1.66191
1.65936
1.6589
1.65696
1.65746
1.65914
1.66333
1.67003
1.6755
1.68363
1.68815
1.69027
1.68862
1.68487
1.6775
1.66696
1.65048
1.6265
1.58754
1.53003
1.4479
1.36294
1.29831
1.25372
1.22227
1.19851
1.18164
1.17124
1.16577
1.16473
1.16528
1.16926
1.17987
1.20354
1.2456
1.31155
1.40924
1.53328
1.65475
1.72095
1.75405
1.76849
1.77315
1.76105
1.74986
1.73165
1.73869
1.74819
1.79735
1.8446
1.89312
0.190672
0.19222
0.191664
0.191664
0.191478
0.191301
0.191087
0.190858
0.190632
0.19038
0.190116
0.189856
0.189584
0.189276
0.188977
0.188681
0.188342
0.187994
0.18766
0.187317
0.186911
0.186526
0.186168
0.185775
0.185297
0.184876
0.184476
0.184116
0.183658
0.183068
0.182612
0.182132
0.181787
0.181332
0.180602