/*--------------------------------*- C++ -*----------------------------------*\
| =========                 |                                                 |
| \\      /  F ield         | OpenFOAM: The Open Source CFD Toolbox           |
|  \\    /   O peration     | Version:  2.2.x                                 |
|   \\  /    A nd           | Web:      www.OpenFOAM.org                      |
|    \\/     M anipulation  |                                                 |
\*---------------------------------------------------------------------------*/
FoamFile
{
    version     2.0;
    format      ascii;
    class       volScalarField;
    location    "0.45";
    object      p;
}
// * * * * * * * * * * * * * * * * * * * * * * * * * * * * * * * * * * * * * //

dimensions      [1 -1 -2 0 0 0 0];

internalField   nonuniform List<scalar> 
14161
(
0.2
0.2
0.2
0.2
0.2
0.2
0.2
0.2
0.2
0.2
0.2
0.2
0.2
0.2
0.2
0.2
0.2
0.2
0.2
0.2
0.2
0.2
0.2
0.2
0.2
0.2
0.2
0.2
0.2
0.2
0.2
0.2
0.2
0.2
0.2
0.2
0.2
0.2
0.199987
0.949233
1.76384
1.83948
1.83938
1.83897
1.84219
1.84951
1.85259
1.85858
1.86455
1.86917
1.87304
1.87521
1.87443
1.87783
1.881
1.8869
1.89417
1.90299
1.91312
1.9232
1.93142
1.93834
1.94433
1.94919
1.95322
1.95709
1.96107
1.96442
1.96776
1.97109
1.9747
1.97871
1.98272
1.98625
1.98885
1.98999
1.992
1.99623
2.00318
2.01273
2.02299
2.03261
2.0402
2.04548
2.04923
2.05218
2.05485
2.05807
2.06169
2.06507
2.06773
2.06937
2.07104
2.0737
2.07811
2.08494
2.09359
2.10286
2.1114
2.11809
2.1225
2.1247
2.12528
2.12571
2.12762
2.13043
2.13336
2.13664
2.14082
2.14574
2.15095
2.15668
2.1626
2.1676
2.17023
2.16875
2.1652
2.16198
2.16019
0.2
0.2
0.2
0.2
0.2
0.2
0.2
0.2
0.2
0.2
0.2
0.2
0.2
0.2
0.2
0.2
0.2
0.2
0.2
0.2
0.2
0.2
0.2
0.2
0.2
0.2
0.2
0.2
0.2
0.2
0.2
0.2
0.2
0.2
0.2
0.2
0.2
0.2
0.199948
0.963092
1.76414
1.84065
1.84199
1.84123
1.84627
1.85282
1.85564
1.86109
1.86656
1.86971
1.87342
1.87542
1.87453
1.87789
1.8811
1.88707
1.89444
1.90336
1.91359
1.92362
1.93174
1.93853
1.94432
1.94897
1.95271
1.95646
1.96086
1.96463
1.96817
1.97143
1.97468
1.9783
1.98208
1.98573
1.98874
1.99059
1.99292
1.99724
2.00412
2.01345
2.02376
2.0343
2.0441
2.05185
2.05613
2.05856
2.06052
2.06311
2.06646
2.06963
2.07223
2.07385
2.07538
2.0779
2.08223
2.08898
2.09751
2.1066
2.11493
2.12136
2.12552
2.1275
2.12782
2.12811
2.12981
2.13244
2.1352
2.13831
2.14228
2.14701
2.15201
2.15746
2.16303
2.1677
2.17014
2.16879
2.16523
2.162
2.16008
0.2
0.2
0.2
0.2
0.2
0.2
0.2
0.2
0.2
0.2
0.2
0.2
0.2
0.2
0.2
0.2
0.2
0.2
0.2
0.2
0.2
0.2
0.2
0.2
0.2
0.2
0.2
0.2
0.2
0.2
0.2
0.2
0.2
0.2
0.2
0.2
0.2
0.2
0.199882
0.934575
1.76324
1.84383
1.84575
1.84615
1.8484
1.85565
1.85925
1.86544
1.87143
1.87564
1.87921
1.88091
1.87993
1.88273
1.88551
1.89108
1.89828
1.90731
1.91801
1.92893
1.93761
1.94479
1.95062
1.9549
1.958
1.96021
1.96299
1.96677
1.97141
1.97654
1.98108
1.98442
1.98659
1.98791
1.9891
1.99173
1.99612
2.0025
2.01049
2.01914
2.02812
2.03686
2.04468
2.05124
2.05582
2.0586
2.06035
2.06249
2.06552
2.06859
2.07123
2.07295
2.07453
2.07713
2.08157
2.08843
2.09704
2.10609
2.11429
2.12056
2.12459
2.12649
2.12681
2.12712
2.12893
2.13154
2.13437
2.13755
2.14159
2.14635
2.15132
2.15669
2.1621
2.16665
2.16908
2.16807
2.16473
2.16155
2.15953
0.2
0.2
0.2
0.2
0.2
0.2
0.2
0.2
0.2
0.2
0.2
0.2
0.2
0.2
0.2
0.2
0.2
0.2
0.2
0.2
0.2
0.2
0.2
0.2
0.2
0.2
0.2
0.2
0.2
0.2
0.2
0.2
0.2
0.2
0.2
0.2
0.2
0.2
0.199811
0.96633
1.76248
1.84011
1.84224
1.84146
1.84761
1.85415
1.85764
1.86431
1.87017
1.87448
1.87837
1.87992
1.87987
1.88294
1.88708
1.89352
1.90116
1.91041
1.92114
1.93144
1.93944
1.9465
1.95224
1.95671
1.9603
1.96369
1.96728
1.97104
1.97504
1.97905
1.98299
1.98665
1.98979
1.99214
1.99364
1.99624
2.0002
2.00574
2.01289
2.02105
2.02926
2.03657
2.04223
2.04655
2.05024
2.05315
2.05544
2.05794
2.06115
2.06431
2.06708
2.069
2.07058
2.07315
2.07765
2.08466
2.09347
2.1028
2.11121
2.11759
2.12162
2.12352
2.12388
2.12426
2.12625
2.12897
2.132
2.13543
2.13974
2.14468
2.14974
2.15501
2.16017
2.16448
2.16681
2.16594
2.16249
2.15953
2.15728
0.2
0.2
0.2
0.2
0.2
0.2
0.2
0.2
0.2
0.2
0.2
0.2
0.2
0.2
0.2
0.2
0.2
0.2
0.2
0.2
0.2
0.2
0.2
0.2
0.2
0.2
0.2
0.2
0.2
0.2
0.2
0.2
0.2
0.2
0.2
0.2
0.2
0.2
0.199771
0.928749
1.76034
1.84209
1.84446
1.84387
1.84818
1.85514
1.85849
1.86475
1.87043
1.87447
1.87795
1.87948
1.87912
1.8824
1.88553
1.89097
1.89758
1.9063
1.91655
1.92689
1.93524
1.94272
1.9491
1.95397
1.95756
1.96028
1.96333
1.96644
1.96997
1.97376
1.97755
1.98101
1.98394
1.98619
1.98769
1.99027
1.99423
1.99982
2.00721
2.01579
2.02453
2.0327
2.03989
2.04514
2.04898
2.05187
2.05419
2.05686
2.06017
2.06347
2.06632
2.06822
2.06981
2.07247
2.07715
2.08432
2.09323
2.10253
2.11084
2.117
2.12079
2.12253
2.1228
2.12313
2.12512
2.12776
2.13083
2.13434
2.13876
2.14371
2.14866
2.15369
2.15845
2.16238
2.16452
2.16363
2.16025
2.15763
2.1551
0.2
0.2
0.2
0.2
0.2
0.2
0.2
0.2
0.2
0.2
0.2
0.2
0.2
0.2
0.2
0.2
0.2
0.2
0.2
0.2
0.2
0.2
0.2
0.2
0.2
0.2
0.2
0.2
0.2
0.2
0.2
0.2
0.2
0.2
0.2
0.2
0.2
0.2
0.199723
0.929455
1.75838
1.83909
1.84116
1.83982
1.84564
1.85146
1.8542
1.85981
1.86479
1.86871
1.87196
1.87283
1.87256
1.876
1.88014
1.88714
1.89561
1.90526
1.91535
1.92455
1.93174
1.93785
1.94291
1.94691
1.95023
1.9534
1.95708
1.96075
1.96463
1.96854
1.97236
1.97592
1.97916
1.98189
1.98414
1.98732
1.99181
1.99813
2.00604
2.0153
2.02513
2.03455
2.04272
2.04866
2.05218
2.05449
2.05637
2.05882
2.06195
2.06503
2.06767
2.06936
2.07092
2.07365
2.07843
2.08556
2.09428
2.10324
2.11113
2.11687
2.12024
2.12164
2.12167
2.1219
2.12382
2.1264
2.1295
2.13308
2.1376
2.14255
2.14734
2.15203
2.15629
2.15973
2.16157
2.16035
2.15711
2.15485
2.15194
0.2
0.2
0.2
0.2
0.2
0.2
0.2
0.2
0.2
0.2
0.2
0.2
0.2
0.2
0.2
0.2
0.2
0.2
0.2
0.2
0.2
0.2
0.2
0.2
0.2
0.2
0.2
0.2
0.2
0.2
0.2
0.2
0.2
0.2
0.2
0.2
0.2
0.2
0.1997
0.902575
1.75527
1.84003
1.84268
1.84133
1.84813
1.85404
1.8577
1.86363
1.86847
1.87215
1.87496
1.87473
1.87431
1.87851
1.8841
1.89263
1.90268
1.91358
1.92353
1.93194
1.93775
1.9425
1.94661
1.95024
1.95362
1.95727
1.96123
1.96505
1.96889
1.97261
1.97615
1.9793
1.98193
1.98397
1.98596
1.98925
1.99431
2.00146
2.00992
2.01879
2.02754
2.03529
2.04157
2.04624
2.04943
2.05172
2.05387
2.05659
2.05988
2.06302
2.06566
2.06729
2.06904
2.07208
2.07716
2.08446
2.09327
2.10217
2.10994
2.11552
2.11869
2.11996
2.11992
2.12018
2.12211
2.12476
2.12798
2.13171
2.13639
2.14132
2.14587
2.15013
2.15381
2.15667
2.15805
2.1564
2.15322
2.15155
2.14833
0.2
0.2
0.2
0.2
0.2
0.2
0.2
0.2
0.2
0.2
0.2
0.2
0.2
0.2
0.2
0.2
0.2
0.2
0.2
0.2
0.2
0.2
0.2
0.2
0.2
0.2
0.2
0.2
0.2
0.2
0.2
0.2
0.2
0.2
0.2
0.2
0.2
0.2
0.199669
0.895935
1.75166
1.83825
1.84072
1.84044
1.84917
1.85356
1.85834
1.86482
1.86973
1.8735
1.87645
1.87618
1.87867
1.88232
1.88855
1.89671
1.90593
1.91611
1.92566
1.93367
1.93978
1.94526
1.94987
1.95371
1.9569
1.96049
1.96412
1.96767
1.97109
1.97419
1.97678
1.9784
1.97918
1.98044
1.98224
1.98532
1.99021
1.99703
2.00518
2.01389
2.0226
2.03046
2.03684
2.04155
2.04495
2.04764
2.05012
2.05311
2.0566
2.05995
2.06272
2.06455
2.06666
2.07015
2.07578
2.08339
2.09233
2.10122
2.10885
2.11421
2.11711
2.11817
2.11804
2.11828
2.12022
2.12293
2.12628
2.13018
2.13505
2.13991
2.14415
2.14788
2.15092
2.15313
2.15399
2.15195
2.1489
2.14763
2.14419
0.2
0.2
0.2
0.2
0.2
0.2
0.2
0.2
0.2
0.2
0.2
0.2
0.2
0.2
0.2
0.2
0.2
0.2
0.2
0.2
0.2
0.2
0.2
0.2
0.2
0.2
0.2
0.2
0.2
0.2
0.2
0.2
0.2
0.2
0.2
0.2
0.2
0.2
0.199672
0.851411
1.74442
1.83699
1.83896
1.83739
1.845
1.84826
1.85268
1.85864
1.8632
1.86665
1.86931
1.8687
1.87134
1.87564
1.88236
1.89122
1.90091
1.91087
1.91974
1.92735
1.93289
1.93795
1.94236
1.94613
1.94931
1.95289
1.95648
1.96004
1.96352
1.96681
1.96979
1.97265
1.97474
1.97672
1.97955
1.98346
1.9891
1.99651
2.00493
2.01358
2.02193
2.02931
2.03519
2.03959
2.04279
2.04547
2.04802
2.05107
2.05452
2.05785
2.06053
2.06248
2.06496
2.06879
2.07478
2.08244
2.09139
2.10023
2.1077
2.11284
2.11544
2.11623
2.11597
2.11622
2.11817
2.12096
2.12447
2.12857
2.1336
2.13839
2.14221
2.14527
2.14761
2.14914
2.14946
2.14703
2.14416
2.14316
2.13949
0.2
0.2
0.2
0.2
0.2
0.2
0.2
0.2
0.2
0.2
0.2
0.2
0.2
0.2
0.2
0.2
0.2
0.2
0.2
0.2
0.2
0.2
0.2
0.2
0.2
0.2
0.2
0.2
0.2
0.2
0.2
0.2
0.2
0.2
0.2
0.2
0.2
0.2
0.199672
0.818294
1.7351
1.82985
1.82968
1.83331
1.84198
1.84441
1.84904
1.8547
1.85871
1.86151
1.8632
1.86247
1.86806
1.87359
1.88127
1.89057
1.90018
1.90956
1.91766
1.92443
1.92927
1.93389
1.93801
1.94161
1.94476
1.94858
1.95244
1.95638
1.96029
1.96385
1.96697
1.96964
1.97203
1.97469
1.97837
1.98338
1.98997
1.99792
2.00628
2.01449
2.02219
2.02883
2.03405
2.03786
2.04072
2.04317
2.04565
2.0486
2.05196
2.05526
2.05785
2.06
2.06284
2.06709
2.07346
2.08132
2.09029
2.09896
2.10605
2.11078
2.11301
2.11351
2.11327
2.11356
2.11551
2.11844
2.12215
2.1265
2.13172
2.13642
2.13981
2.1421
2.14377
2.14463
2.14437
2.14164
2.13907
2.13823
2.13429
0.2
0.2
0.2
0.2
0.2
0.2
0.2
0.2
0.2
0.2
0.2
0.2
0.2
0.2
0.2
0.2
0.2
0.2
0.2
0.2
0.2
0.2
0.2
0.2
0.2
0.2
0.2
0.2
0.2
0.2
0.2
0.2
0.2
0.2
0.2
0.2
0.2
0.2
0.199686
0.774202
1.72502
1.82811
1.82677
1.83352
1.84166
1.84342
1.84835
1.85313
1.85646
1.8583
1.85907
1.86072
1.86759
1.87427
1.88288
1.89268
1.90212
1.91076
1.91801
1.92381
1.92806
1.93226
1.93603
1.93927
1.94243
1.94638
1.95031
1.95439
1.95831
1.96173
1.96454
1.96666
1.96857
1.97151
1.97574
1.98154
1.98883
1.99692
2.00508
2.01298
2.02025
2.02647
2.03139
2.03502
2.03782
2.0403
2.04289
2.04585
2.04916
2.0524
2.05493
2.05742
2.06069
2.06551
2.0722
2.08022
2.08908
2.09749
2.10417
2.10847
2.11039
2.11069
2.11037
2.1108
2.11282
2.11592
2.11983
2.12441
2.12976
2.13424
2.13712
2.13846
2.13944
2.13959
2.1387
2.13577
2.13352
2.13271
2.12841
0.2
0.2
0.2
0.2
0.2
0.2
0.2
0.2
0.2
0.2
0.2
0.2
0.2
0.2
0.2
0.2
0.2
0.2
0.2
0.2
0.2
0.2
0.2
0.2
0.2
0.2
0.2
0.2
0.2
0.2
0.2
0.2
0.2
0.2
0.2
0.2
0.2
0.2
0.199704
0.731631
1.71166
1.82562
1.8263
1.83406
1.83973
1.84169
1.84624
1.85006
1.85292
1.8552
1.85589
1.86074
1.86814
1.87566
1.88462
1.89428
1.90298
1.91023
1.91666
1.92157
1.92562
1.92967
1.9333
1.93631
1.93972
1.94374
1.94761
1.95151
1.95507
1.95808
1.96046
1.96219
1.9645
1.96811
1.97323
1.97999
1.98789
1.99603
2.00402
2.0115
2.01822
2.02394
2.0285
2.032
2.03484
2.03741
2.04006
2.04301
2.04619
2.04931
2.05187
2.05478
2.05858
2.06399
2.07093
2.07897
2.08764
2.09568
2.10187
2.1057
2.1073
2.1074
2.10702
2.10737
2.10954
2.11285
2.11702
2.12188
2.12729
2.13153
2.13394
2.13427
2.13458
2.134
2.13246
2.12953
2.12755
2.1267
2.12193
0.2
0.2
0.2
0.2
0.2
0.2
0.2
0.2
0.2
0.2
0.2
0.2
0.2
0.2
0.2
0.2
0.2
0.2
0.2
0.2
0.2
0.2
0.2
0.2
0.2
0.2
0.2
0.2
0.2
0.2
0.2
0.2
0.2
0.2
0.2
0.2
0.2
0.2
0.199735
0.674973
1.69199
1.82171
1.82554
1.83306
1.83603
1.83875
1.84255
1.84568
1.84816
1.85099
1.85329
1.86139
1.86933
1.87771
1.88683
1.89576
1.90348
1.90926
1.91482
1.91877
1.92267
1.92658
1.93003
1.93302
1.93688
1.94098
1.94489
1.94858
1.95176
1.9543
1.95604
1.95802
1.96128
1.96591
1.97214
1.9797
1.98778
1.99575
2.00326
2.01003
2.01597
2.02103
2.02517
2.02848
2.03131
2.03393
2.0366
2.03948
2.04266
2.04576
2.04866
2.05206
2.0565
2.06252
2.06965
2.07764
2.08595
2.09349
2.09913
2.10249
2.10379
2.10369
2.10328
2.10365
2.10597
2.10958
2.11406
2.11926
2.12458
2.12841
2.1303
2.12962
2.12913
2.12777
2.12565
2.12288
2.12111
2.12015
2.11475
0.2
0.2
0.2
0.2
0.2
0.2
0.2
0.2
0.2
0.2
0.2
0.2
0.2
0.2
0.2
0.2
0.2
0.2
0.2
0.2
0.2
0.2
0.2
0.2
0.2
0.2
0.2
0.2
0.2
0.2
0.2
0.2
0.2
0.2
0.2
0.2
0.2
0.2
0.199771
0.615236
1.66727
1.81948
1.82559
1.83097
1.83187
1.83512
1.83802
1.841
1.84471
1.84779
1.85389
1.86379
1.87124
1.87981
1.88847
1.89606
1.90257
1.90697
1.91189
1.91534
1.91934
1.9233
1.92658
1.92995
1.93415
1.93799
1.94167
1.94499
1.94777
1.9498
1.95154
1.95444
1.9586
1.96435
1.97149
1.97945
1.98743
1.99498
2.00181
2.00775
2.01292
2.01741
2.02126
2.02452
2.0274
2.03011
2.0328
2.03557
2.03864
2.04172
2.04502
2.0491
2.05427
2.06086
2.0681
2.07591
2.08379
2.09078
2.09587
2.0988
2.09983
2.09956
2.09913
2.09961
2.10201
2.10598
2.11076
2.11631
2.1215
2.12482
2.12609
2.12451
2.12307
2.12088
2.11836
2.11586
2.11424
2.11313
2.10686
0.2
0.2
0.2
0.2
0.2
0.2
0.2
0.2
0.2
0.2
0.2
0.2
0.2
0.2
0.2
0.2
0.2
0.2
0.2
0.2
0.2
0.2
0.2
0.2
0.2
0.2
0.2
0.2
0.2
0.2
0.2
0.2
0.2
0.2
0.2
0.2
0.2
0.2
0.199813
0.54737
1.63352
1.8187
1.82376
1.82621
1.82674
1.8302
1.83326
1.83719
1.84266
1.84751
1.85739
1.86699
1.8738
1.88162
1.88934
1.8955
1.89994
1.90401
1.90818
1.91161
1.91573
1.91969
1.92302
1.92697
1.93106
1.93449
1.93773
1.9406
1.94292
1.94476
1.94751
1.95137
1.95666
1.9634
1.97113
1.97913
1.98678
1.9937
1.99968
2.00475
2.00917
2.0132
2.0169
2.02018
2.02318
2.02598
2.02865
2.03128
2.03424
2.03743
2.04131
2.0462
2.05215
2.05913
2.06636
2.07386
2.08117
2.08751
2.09206
2.09459
2.09538
2.09498
2.09459
2.09525
2.09775
2.102
2.10724
2.11309
2.11811
2.12086
2.12119
2.11884
2.11631
2.11336
2.11066
2.10839
2.10689
2.10563
2.09827
0.2
0.2
0.2
0.2
0.2
0.2
0.2
0.2
0.2
0.2
0.2
0.2
0.2
0.2
0.2
0.2
0.2
0.2
0.2
0.2
0.2
0.2
0.2
0.2
0.2
0.2
0.2
0.2
0.2
0.2
0.2
0.2
0.2
0.2
0.2
0.2
0.2
0.2
0.199858
0.475434
1.58996
1.81717
1.81874
1.81897
1.8209
1.82476
1.82999
1.836
1.8426
1.85098
1.86199
1.8679
1.87474
1.88197
1.88823
1.8932
1.89616
1.90052
1.90381
1.90759
1.91192
1.91577
1.91956
1.92367
1.92708
1.93003
1.9328
1.9353
1.93744
1.94024
1.94404
1.94907
1.95542
1.96281
1.97067
1.97838
1.98541
1.99148
1.99657
2.00084
2.00468
2.00841
2.01208
2.01548
2.0186
2.02148
2.02407
2.02649
2.02932
2.03288
2.03761
2.04335
2.05004
2.05722
2.06433
2.07134
2.07794
2.08359
2.08766
2.08984
2.09042
2.08995
2.08966
2.09053
2.0932
2.09777
2.10345
2.10952
2.11424
2.1165
2.1156
2.11253
2.10898
2.10536
2.10254
2.10041
2.099
2.0976
2.08899
0.2
0.2
0.2
0.2
0.2
0.2
0.2
0.2
0.2
0.2
0.2
0.2
0.2
0.2
0.2
0.2
0.2
0.2
0.2
0.2
0.2
0.2
0.2
0.2
0.2
0.2
0.2
0.2
0.2
0.2
0.2
0.2
0.2
0.2
0.2
0.2
0.2
0.2
0.199904
0.400384
1.53055
1.81147
1.81127
1.81133
1.81666
1.82283
1.83022
1.83911
1.84541
1.85517
1.86301
1.86792
1.87437
1.88069
1.88549
1.88909
1.89211
1.89621
1.89934
1.90351
1.90787
1.91188
1.91582
1.91929
1.92195
1.92443
1.92698
1.92952
1.93253
1.93648
1.94155
1.94767
1.95471
1.96228
1.96984
1.97687
1.98299
1.98814
1.99242
1.99609
1.99954
2.00314
2.00687
2.01041
2.01363
2.01649
2.01891
2.02113
2.02413
2.02843
2.03409
2.04065
2.04793
2.0551
2.06191
2.06826
2.07402
2.07894
2.08259
2.08453
2.08498
2.08453
2.08443
2.08551
2.0884
2.09341
2.09949
2.10558
2.10995
2.11159
2.10928
2.10552
2.10103
2.09688
2.09399
2.09194
2.09047
2.08901
2.07896
0.2
0.2
0.2
0.2
0.2
0.2
0.2
0.2
0.2
0.2
0.2
0.2
0.2
0.2
0.2
0.2
0.2
0.2
0.2
0.2
0.2
0.2
0.2
0.2
0.2
0.2
0.2
0.2
0.2
0.2
0.2
0.2
0.2
0.2
0.2
0.2
0.2
0.2
0.199945
0.327251
1.4462
1.79983
1.80587
1.80872
1.81776
1.82623
1.83475
1.84215
1.84801
1.8566
1.86065
1.86624
1.87236
1.87739
1.88163
1.88392
1.88806
1.89129
1.89484
1.89926
1.90354
1.90766
1.91072
1.91346
1.91564
1.91828
1.92115
1.92442
1.92862
1.93388
1.94001
1.94684
1.95407
1.96124
1.96798
1.97403
1.97922
1.98358
1.98725
1.99056
1.99387
1.99746
2.00126
2.00489
2.00812
2.01084
2.01304
2.01542
2.01902
2.0242
2.03071
2.03797
2.04554
2.05256
2.0589
2.06446
2.06929
2.07351
2.07683
2.07864
2.07905
2.07875
2.07886
2.08021
2.08335
2.08883
2.09527
2.10125
2.10508
2.10588
2.10241
2.09797
2.09261
2.08801
2.08507
2.083
2.08132
2.07967
2.06808
0.2
0.2
0.2
0.2
0.2
0.2
0.2
0.2
0.2
0.2
0.2
0.2
0.2
0.2
0.2
0.2
0.2
0.2
0.2
0.2
0.2
0.2
0.2
0.2
0.2
0.2
0.2
0.2
0.2
0.2
0.2
0.2
0.2
0.2
0.2
0.2
0.2
0.2
0.199979
0.260325
1.33249
1.79199
1.80744
1.81441
1.82436
1.83087
1.83807
1.84115
1.84834
1.85366
1.85761
1.86333
1.86867
1.87291
1.87604
1.87916
1.8833
1.88634
1.89034
1.89477
1.89857
1.90141
1.90422
1.90674
1.9094
1.91257
1.91616
1.9206
1.92606
1.93231
1.9391
1.94606
1.95273
1.95893
1.96459
1.96968
1.9741
1.9779
1.98126
1.98446
1.98778
1.99139
1.99519
1.99879
2.00194
2.00449
2.00678
2.00984
2.01419
2.02023
2.02744
2.03518
2.04274
2.04942
2.05509
2.05978
2.06372
2.06731
2.07043
2.07219
2.07268
2.07264
2.07302
2.07473
2.07816
2.08408
2.09071
2.09646
2.09954
2.09932
2.09511
2.08966
2.08362
2.07868
2.07573
2.0735
2.07152
2.06964
2.05631
0.2
0.2
0.2
0.2
0.2
0.2
0.2
0.2
0.2
0.2
0.2
0.2
0.2
0.2
0.2
0.2
0.2
0.2
0.2
0.2
0.2
0.2
0.2
0.2
0.2
0.2
0.2
0.2
0.2
0.2
0.2
0.2
0.2
0.2
0.2
0.2
0.2
0.2
0.199998
0.209804
1.20321
1.78599
1.81439
1.82094
1.82611
1.83181
1.83468
1.83972
1.84611
1.84876
1.85382
1.85909
1.86364
1.86772
1.87022
1.87484
1.87777
1.88124
1.88531
1.88885
1.89155
1.89418
1.89742
1.90044
1.90405
1.9081
1.91271
1.91821
1.92458
1.93136
1.93806
1.94427
1.94987
1.95494
1.95962
1.96392
1.96785
1.97142
1.97473
1.97799
1.98135
1.98487
1.98848
1.99195
1.99501
1.99767
2.00066
2.00451
2.00974
2.01642
2.02412
2.03207
2.03942
2.04553
2.0504
2.05417
2.05735
2.06045
2.06347
2.06526
2.06591
2.06618
2.06694
2.06904
2.0728
2.07905
2.08565
2.09098
2.09326
2.09189
2.08712
2.08077
2.07415
2.06902
2.06598
2.06349
2.06105
2.05877
2.04356
0.2
0.2
0.2
0.2
0.2
0.2
0.2
0.2
0.2
0.2
0.2
0.2
0.2
0.2
0.2
0.2
0.2
0.2
0.2
0.2
0.2
0.2
0.2
0.2
0.2
0.2
0.2
0.2
0.2
0.2
0.2
0.2
0.2
0.2
0.2
0.2
0.2
0.2
0.2
0.199406
1.06305
1.76266
1.81766
1.82038
1.82478
1.82735
1.83119
1.83742
1.83959
1.84407
1.84912
1.85387
1.8587
1.86117
1.86545
1.86871
1.87144
1.87502
1.87868
1.88161
1.88429
1.88785
1.89148
1.89555
1.90019
1.90512
1.91058
1.91695
1.92353
1.92982
1.93557
1.94064
1.94518
1.94936
1.95332
1.95715
1.96089
1.96446
1.96787
1.97118
1.97445
1.97773
1.98107
1.98449
1.98771
1.99103
1.99488
1.99966
2.00562
2.0127
2.02061
2.02844
2.03528
2.04064
2.04465
2.04767
2.05023
2.053
2.05599
2.05793
2.05883
2.05946
2.06069
2.0633
2.0674
2.07374
2.08009
2.08469
2.08611
2.08359
2.07834
2.07134
2.06436
2.0592
2.05599
2.053
2.04992
2.04713
2.0299
0.2
0.2
0.2
0.2
0.2
0.2
0.2
0.2
0.2
0.2
0.2
0.2
0.2
0.2
0.2
0.2
0.2
0.2
0.2
0.2
0.2
0.2
0.2
0.2
0.2
0.2
0.2
0.2
0.2
0.2
0.2
0.2
0.2
0.2
0.2
0.2
0.2
0.2
0.2
0.199542
0.902646
1.73654
1.81489
1.8161
1.81861
1.82223
1.82765
1.83039
1.83432
1.8397
1.84442
1.84868
1.85107
1.85455
1.85841
1.86116
1.86474
1.8685
1.87168
1.87475
1.87859
1.88282
1.88733
1.89237
1.8976
1.90319
1.90943
1.91546
1.92106
1.92623
1.93093
1.93514
1.93897
1.9426
1.94616
1.9498
1.95351
1.95713
1.96057
1.96379
1.96687
1.96984
1.97318
1.97678
1.9806
1.98483
1.98966
1.99522
2.00164
2.00891
2.01667
2.02403
2.03014
2.03466
2.03791
2.04037
2.04247
2.04504
2.04804
2.0502
2.05146
2.05259
2.05436
2.05744
2.06191
2.06804
2.07383
2.07744
2.07785
2.07457
2.06882
2.06139
2.05435
2.04922
2.04566
2.04198
2.03811
2.03465
2.01524
0.2
0.2
0.2
0.2
0.2
0.2
0.2
0.2
0.2
0.2
0.2
0.2
0.2
0.2
0.2
0.2
0.2
0.2
0.2
0.2
0.2
0.2
0.2
0.2
0.2
0.2
0.2
0.2
0.2
0.2
0.2
0.2
0.2
0.2
0.2
0.2
0.2
0.2
0.2
0.199692
0.720686
1.69473
1.80661
1.80768
1.81241
1.81924
1.82177
1.82497
1.82905
1.83286
1.8371
1.83982
1.84337
1.84765
1.85072
1.85457
1.85871
1.86243
1.86579
1.86978
1.87455
1.87936
1.88473
1.89037
1.8959
1.90145
1.90673
1.91153
1.91615
1.92053
1.92456
1.92819
1.93163
1.93501
1.93843
1.94197
1.94561
1.94917
1.95251
1.95563
1.95866
1.96175
1.96529
1.96938
1.97406
1.97925
1.98487
1.99102
1.99764
2.0047
2.01185
2.01845
2.02378
2.02759
2.03034
2.03237
2.03422
2.03666
2.03965
2.04209
2.0439
2.04571
2.04813
2.0516
2.05621
2.06177
2.06659
2.06912
2.06871
2.06483
2.05853
2.05093
2.04419
2.03911
2.03503
2.03042
2.02559
2.02124
1.99951
0.2
0.2
0.2
0.2
0.2
0.2
0.2
0.2
0.2
0.2
0.2
0.2
0.2
0.2
0.2
0.2
0.2
0.2
0.2
0.2
0.2
0.2
0.2
0.2
0.2
0.2
0.2
0.2
0.2
0.2
0.2
0.2
0.2
0.2
0.2
0.2
0.2
0.2
0.2
0.19983
0.529673
1.61622
1.79731
1.80324
1.80749
1.80923
1.81243
1.81703
1.82134
1.82609
1.82917
1.83293
1.83752
1.84075
1.84495
1.84937
1.85385
1.85789
1.86197
1.86684
1.87155
1.87679
1.88245
1.88804
1.89287
1.89745
1.90148
1.90547
1.9094
1.9132
1.9168
1.92019
1.9235
1.92681
1.93012
1.93349
1.93696
1.94045
1.94385
1.94715
1.9504
1.95386
1.95788
1.96267
1.96816
1.97411
1.98039
1.98689
1.9933
1.99957
2.00579
2.01155
2.01623
2.01959
2.02207
2.02386
2.02555
2.02787
2.03088
2.03374
2.03629
2.03887
2.04205
2.04573
2.04999
2.05458
2.05822
2.05982
2.05866
2.05431
2.04758
2.04028
2.03394
2.02879
2.0242
2.01841
2.01233
2.00685
1.98279
0.2
0.2
0.2
0.2
0.2
0.2
0.2
0.2
0.2
0.2
0.2
0.2
0.2
0.2
0.2
0.2
0.2
0.2
0.2
0.2
0.2
0.2
0.2
0.2
0.2
0.2
0.2
0.2
0.2
0.2
0.2
0.2
0.2
0.2
0.2
0.2
0.2
0.2
0.2
0.199934
0.355612
1.48185
1.7887
1.79242
1.79499
1.79916
1.80562
1.81226
1.81778
1.8205
1.82443
1.82888
1.83217
1.83663
1.8412
1.84581
1.84985
1.85458
1.8598
1.86439
1.86908
1.87392
1.87853
1.88267
1.88697
1.89084
1.89446
1.89798
1.90136
1.90468
1.90799
1.91127
1.91458
1.91787
1.92113
1.92444
1.92789
1.93152
1.93515
1.93876
1.9425
1.94656
1.95123
1.95663
1.96267
1.96922
1.97587
1.98212
1.98781
1.99317
1.99839
2.00338
2.00767
2.01084
2.01321
2.01493
2.01648
2.0187
2.02183
2.02534
2.02872
2.03216
2.03602
2.03962
2.04306
2.04632
2.04873
2.04953
2.04774
2.04305
2.03631
2.02962
2.02363
2.01827
2.01309
2.00593
1.99831
1.99141
1.96496
0.2
0.2
0.2
0.2
0.2
0.2
0.2
0.2
0.2
0.2
0.2
0.2
0.2
0.2
0.2
0.2
0.2
0.2
0.2
0.2
0.2
0.2
0.2
0.2
0.2
0.2
0.2
0.2
0.2
0.2
0.2
0.2
0.2
0.2
0.2
0.2
0.2
0.2
0.2
0.199993
0.22912
1.26113
1.77485
1.79286
1.7986
1.80337
1.80729
1.80985
1.81174
1.81637
1.82015
1.8242
1.82908
1.83389
1.83901
1.84253
1.8467
1.85147
1.85562
1.85988
1.86426
1.86842
1.87172
1.87546
1.87904
1.88247
1.88592
1.88918
1.89226
1.89542
1.89862
1.90196
1.90533
1.90861
1.91193
1.91534
1.91893
1.92282
1.92681
1.93092
1.93528
1.94
1.94519
1.95103
1.95755
1.96417
1.97038
1.97594
1.98089
1.98541
1.98976
1.99418
1.99829
2.00144
2.00381
2.00555
2.00706
2.00931
2.01267
2.01697
2.02125
2.02553
2.0297
2.03294
2.03529
2.03695
2.03821
2.03828
2.03593
2.0311
2.02484
2.01885
2.01315
2.00746
2.00156
1.99292
1.98345
1.97491
1.94631
0.2
0.2
0.2
0.2
0.2
0.2
0.2
0.2
0.2
0.2
0.2
0.2
0.2
0.2
0.2
0.2
0.2
0.2
0.2
0.2
0.2
0.2
0.2
0.2
0.2
0.2
0.2
0.2
0.2
0.2
0.2
0.2
0.2
0.2
0.2
0.2
0.2
0.2
0.2
0.2
0.199688
0.986438
1.74055
1.79563
1.79424
1.79746
1.80016
1.80382
1.80949
1.81259
1.81677
1.82101
1.82535
1.82976
1.83324
1.83778
1.84162
1.84515
1.84885
1.85289
1.85684
1.86029
1.86373
1.86686
1.86999
1.87325
1.87635
1.87953
1.88275
1.8859
1.88921
1.89266
1.8961
1.89944
1.90293
1.90657
1.91046
1.91473
1.91924
1.92388
1.9287
1.93392
1.93959
1.9456
1.95173
1.95775
1.96335
1.9683
1.97258
1.97645
1.98018
1.98414
1.98823
1.99147
1.99394
1.9957
1.99743
1.99989
2.00359
2.00868
2.01385
2.01879
2.02285
2.02534
2.0264
2.02664
2.02687
2.02612
2.02332
2.01881
2.01338
2.00799
2.00244
1.99636
1.98955
1.97937
1.96775
1.95737
1.92697
0.2
0.2
0.2
0.2
0.2
0.2
0.2
0.2
0.2
0.2
0.2
0.2
0.2
0.2
0.2
0.2
0.2
0.2
0.2
0.2
0.2
0.2
0.2
0.2
0.2
0.2
0.2
0.2
0.2
0.2
0.2
0.2
0.2
0.2
0.2
0.2
0.2
0.2
0.2
0.2
0.199777
0.677184
1.67216
1.78638
1.78697
1.78852
1.79495
1.79841
1.80225
1.80688
1.81079
1.81494
1.81755
1.82173
1.8269
1.83105
1.83477
1.8382
1.84138
1.84391
1.84743
1.85102
1.85435
1.85763
1.86089
1.86385
1.86686
1.87008
1.87322
1.87652
1.88005
1.88369
1.88734
1.89095
1.89464
1.89851
1.90272
1.90732
1.91229
1.91749
1.92283
1.92817
1.93345
1.93878
1.94425
1.94972
1.95482
1.95925
1.96304
1.96649
1.96984
1.97343
1.97753
1.98096
1.98363
1.98563
1.98777
1.9906
1.99471
2.00048
2.00634
2.01154
2.01524
2.01688
2.01639
2.01557
2.01464
2.01318
2.0103
2.00644
2.00186
1.99694
1.99144
1.98485
1.97692
1.96513
1.95118
1.93896
1.90732
0.2
0.2
0.2
0.2
0.2
0.2
0.2
0.2
0.2
0.2
0.2
0.2
0.2
0.2
0.2
0.2
0.2
0.2
0.2
0.2
0.2
0.2
0.2
0.2
0.2
0.2
0.2
0.2
0.2
0.2
0.2
0.2
0.2
0.2
0.2
0.2
0.2
0.2
0.2
0.2
0.199923
0.400335
1.52412
1.77375
1.77931
1.78082
1.78293
1.7874
1.79323
1.79987
1.80578
1.80866
1.81224
1.81551
1.81884
1.82245
1.82635
1.83012
1.83281
1.83562
1.83847
1.84142
1.84467
1.84819
1.85169
1.85488
1.85809
1.86117
1.86436
1.86773
1.87132
1.87521
1.87922
1.8832
1.88719
1.89121
1.89557
1.90049
1.90573
1.91107
1.91623
1.92113
1.92584
1.93052
1.93527
1.94012
1.94483
1.949
1.95255
1.9558
1.95892
1.96222
1.96631
1.97015
1.97315
1.97562
1.97829
1.98158
1.98608
1.99228
1.99848
2.00351
2.00655
2.0073
2.00542
2.00362
2.00162
1.99956
1.99692
1.99395
1.99015
1.98565
1.98004
1.97276
1.96354
1.95011
1.93394
1.91999
1.88782
0.2
0.2
0.2
0.2
0.2
0.2
0.2
0.2
0.2
0.2
0.2
0.2
0.2
0.2
0.2
0.2
0.2
0.2
0.2
0.2
0.2
0.2
0.2
0.2
0.2
0.2
0.2
0.2
0.2
0.2
0.2
0.2
0.2
0.2
0.2
0.2
0.2
0.2
0.2
0.2
0.199996
0.217881
1.2284
1.75819
1.77727
1.78255
1.78691
1.79052
1.7931
1.79476
1.79915
1.80228
1.80514
1.80794
1.81081
1.81388
1.81741
1.82141
1.82448
1.82732
1.83007
1.83289
1.83568
1.83881
1.84251
1.84615
1.84974
1.85319
1.85655
1.85977
1.8632
1.86716
1.87147
1.87599
1.88048
1.88475
1.88885
1.89321
1.89786
1.90281
1.90778
1.91248
1.91681
1.92091
1.92499
1.92921
1.93361
1.93774
1.94131
1.94453
1.94762
1.95085
1.95487
1.95915
1.96271
1.96582
1.96912
1.97289
1.97764
1.98381
1.9899
1.99453
1.99672
1.99648
1.99369
1.99091
1.98808
1.98571
1.98356
1.98142
1.97825
1.97398
1.96807
1.95985
1.94924
1.93415
1.91618
1.90098
1.86846
0.2
0.2
0.2
0.2
0.2
0.2
0.2
0.2
0.2
0.2
0.2
0.2
0.2
0.2
0.2
0.2
0.2
0.2
0.2
0.2
0.2
0.2
0.2
0.2
0.2
0.2
0.2
0.2
0.2
0.2
0.2
0.2
0.2
0.2
0.2
0.2
0.2
0.2
0.2
0.2
0.2
0.199783
0.813785
1.70322
1.77517
1.77557
1.77616
1.77886
1.78405
1.78794
1.7919
1.79537
1.79815
1.80045
1.80215
1.80502
1.80843
1.81211
1.81586
1.81961
1.82303
1.82569
1.82811
1.83085
1.83392
1.8373
1.84111
1.84522
1.84928
1.85283
1.85596
1.85942
1.86339
1.86775
1.8723
1.87673
1.88083
1.88475
1.88874
1.89304
1.89756
1.90202
1.90617
1.91
1.9137
1.91748
1.92159
1.92583
1.92963
1.93305
1.93629
1.93955
1.94353
1.94821
1.95253
1.9564
1.96035
1.96446
1.96918
1.97476
1.98027
1.98428
1.98572
1.98457
1.98124
1.97764
1.97433
1.9718
1.97015
1.96873
1.96603
1.96177
1.95534
1.94608
1.93407
1.91729
1.89819
1.88194
1.84935
0.2
0.2
0.2
0.2
0.2
0.2
0.2
0.2
0.2
0.2
0.2
0.2
0.2
0.2
0.2
0.2
0.2
0.2
0.2
0.2
0.2
0.2
0.2
0.2
0.2
0.2
0.2
0.2
0.2
0.2
0.2
0.2
0.2
0.2
0.2
0.2
0.2
0.2
0.2
0.2
0.2
0.199934
0.416753
1.53613
1.76333
1.76584
1.76652
1.76807
1.77104
1.77554
1.78064
1.78617
1.79095
1.79408
1.79614
1.79822
1.80051
1.80308
1.8059
1.80933
1.81359
1.81788
1.82152
1.82435
1.82673
1.82911
1.83212
1.83615
1.84053
1.84467
1.84837
1.85166
1.85481
1.85831
1.86241
1.8667
1.87084
1.87471
1.8784
1.88211
1.8861
1.89025
1.89434
1.8982
1.90187
1.90553
1.90944
1.91374
1.91785
1.92157
1.92503
1.92848
1.93254
1.93754
1.94267
1.94737
1.95185
1.95602
1.96025
1.96477
1.96935
1.97263
1.97347
1.97176
1.96821
1.96408
1.96052
1.95804
1.95676
1.95594
1.95345
1.94883
1.94162
1.93117
1.91794
1.89967
1.8801
1.86277
1.83039
0.2
0.2
0.2
0.2
0.2
0.2
0.2
0.2
0.2
0.2
0.2
0.2
0.2
0.2
0.2
0.2
0.2
0.2
0.2
0.2
0.2
0.2
0.2
0.2
0.2
0.2
0.2
0.2
0.2
0.2
0.2
0.2
0.2
0.2
0.2
0.2
0.2
0.2
0.2
0.2
0.2
0.199999
0.199968
1.14678
1.73616
1.76129
1.76479
1.76711
1.76891
1.77009
1.77246
1.77606
1.78008
1.7843
1.78872
1.79266
1.79541
1.79711
1.79811
1.80019
1.8035
1.80783
1.81226
1.81627
1.81936
1.82151
1.82347
1.82644
1.83017
1.83424
1.83829
1.84193
1.84506
1.84795
1.85137
1.85524
1.85926
1.86321
1.86691
1.87042
1.87405
1.87799
1.88206
1.88608
1.88992
1.89365
1.89747
1.90175
1.90618
1.91028
1.9141
1.91786
1.92209
1.92729
1.9331
1.93853
1.94314
1.947
1.95042
1.95366
1.95703
1.95969
1.96009
1.95819
1.95472
1.95045
1.94679
1.94444
1.94337
1.94276
1.94019
1.9349
1.92675
1.91511
1.90061
1.88146
1.8621
1.84334
1.81228
0.2
0.2
0.2
0.2
0.2
0.2
0.2
0.2
0.2
0.2
0.2
0.2
0.2
0.2
0.2
0.2
0.2
0.2
0.2
0.2
0.2
0.2
0.2
0.2
0.2
0.2
0.2
0.2
0.2
0.2
0.2
0.2
0.2
0.2
0.2
0.2
0.2
0.2
0.2
0.2
0.2
0.2
0.19984
0.617235
1.6348
1.75148
1.75579
1.76097
1.7637
1.76505
1.76637
1.76804
1.77011
1.77322
1.778
1.78315
1.78735
1.7901
1.79155
1.79239
1.7945
1.7975
1.80146
1.80556
1.80926
1.81223
1.8146
1.81669
1.81937
1.82275
1.82664
1.83045
1.83388
1.83694
1.83992
1.84323
1.84699
1.85093
1.8548
1.85846
1.86203
1.86579
1.86981
1.87393
1.87797
1.88191
1.88583
1.89009
1.89476
1.8993
1.90356
1.90774
1.91219
1.91746
1.92352
1.92912
1.9336
1.93697
1.9394
1.94143
1.94356
1.94571
1.946
1.94428
1.94109
1.93698
1.93335
1.93107
1.92996
1.9291
1.92617
1.92001
1.9108
1.8981
1.88277
1.86342
1.8439
1.82355
1.79449
0.2
0.2
0.2
0.2
0.2
0.2
0.2
0.2
0.2
0.2
0.2
0.2
0.2
0.2
0.2
0.2
0.2
0.2
0.2
0.2
0.2
0.2
0.2
0.2
0.2
0.2
0.2
0.2
0.2
0.2
0.2
0.2
0.2
0.2
0.2
0.2
0.2
0.2
0.2
0.2
0.2
0.2
0.199991
0.248444
1.28979
1.7258
1.74627
1.75089
1.75546
1.75969
1.7619
1.76268
1.76285
1.76495
1.76851
1.77284
1.77698
1.78055
1.78332
1.78531
1.78634
1.78804
1.79075
1.79428
1.79809
1.80165
1.80458
1.80695
1.80889
1.81153
1.81492
1.81862
1.82221
1.82547
1.82849
1.83148
1.83491
1.83879
1.84276
1.84658
1.85025
1.85392
1.85785
1.86204
1.86629
1.87049
1.87465
1.87896
1.88377
1.88869
1.89341
1.898
1.9026
1.90755
1.91319
1.9186
1.92278
1.92552
1.92711
1.92808
1.9291
1.93072
1.93127
1.93001
1.92733
1.9237
1.92021
1.91779
1.91627
1.9147
1.91097
1.90394
1.89374
1.87998
1.86401
1.84488
1.82577
1.80524
1.77561
0.2
0.2
0.2
0.2
0.2
0.2
0.2
0.2
0.2
0.2
0.2
0.2
0.2
0.2
0.2
0.2
0.2
0.2
0.2
0.2
0.2
0.2
0.2
0.2
0.2
0.2
0.2
0.2
0.2
0.2
0.2
0.2
0.2
0.2
0.2
0.2
0.2
0.2
0.2
0.2
0.2
0.2
0.2
0.200285
0.685724
1.64638
1.74119
1.74526
1.74859
1.75204
1.75457
1.75605
1.75683
1.75755
1.7594
1.76221
1.76594
1.76981
1.77315
1.77566
1.77743
1.77849
1.78041
1.78324
1.78675
1.79042
1.79375
1.79646
1.79856
1.80063
1.80358
1.80706
1.8107
1.81418
1.81734
1.82023
1.82338
1.82705
1.83098
1.83495
1.83878
1.84252
1.84641
1.85062
1.855
1.85942
1.86383
1.86829
1.87317
1.87837
1.88337
1.88802
1.89247
1.89692
1.90172
1.90665
1.91049
1.91273
1.91369
1.91388
1.91416
1.9154
1.91643
1.91566
1.91363
1.91066
1.90737
1.90447
1.90205
1.89926
1.89452
1.88662
1.87552
1.8611
1.84498
1.82637
1.80759
1.78658
1.75677
0.2
0.2
0.2
0.2
0.2
0.2
0.2
0.2
0.2
0.2
0.2
0.2
0.2
0.2
0.2
0.2
0.2
0.2
0.2
0.2
0.2
0.2
0.2
0.2
0.2
0.2
0.2
0.2
0.2
0.2
0.2
0.2
0.2
0.2
0.2
0.2
0.2
0.2
0.2
0.2
0.2
0.2
0.2
0.199996
0.256401
1.30961
1.71831
1.73285
1.7363
1.74047
1.74426
1.74674
1.74802
1.74808
1.74944
1.75206
1.75562
1.75953
1.76312
1.76596
1.76799
1.76906
1.77038
1.77286
1.77604
1.77951
1.78283
1.78565
1.78797
1.78983
1.79243
1.79566
1.7993
1.80297
1.80635
1.80941
1.81241
1.81589
1.81977
1.8238
1.8278
1.83168
1.83559
1.8398
1.84425
1.84877
1.85329
1.85782
1.86253
1.86762
1.87262
1.87716
1.88125
1.88511
1.889
1.89324
1.89685
1.89879
1.89938
1.8992
1.8991
1.89996
1.90139
1.9012
1.89999
1.89771
1.89458
1.89094
1.88731
1.88302
1.87707