/*--------------------------------*- C++ -*----------------------------------*\
| =========                 |                                                 |
| \\      /  F ield         | OpenFOAM: The Open Source CFD Toolbox           |
|  \\    /   O peration     | Version:  2.2.x                                 |
|   \\  /    A nd           | Web:      www.OpenFOAM.org                      |
|    \\/     M anipulation  |                                                 |
\*---------------------------------------------------------------------------*/
FoamFile
{
    version     2.0;
    format      ascii;
    class       surfaceScalarField;
    location    "1.05";
    object      cfmax;
}
// * * * * * * * * * * * * * * * * * * * * * * * * * * * * * * * * * * * * * //

dimensions      [0 3 -1 0 0 0 0];

internalField   nonuniform List<scalar> 
28084
(
0.00103347
0.00102899
0.00102514
0.0010219
0.00101925
0.00101715
0.00101556
0.00101446
0.0010138
0.00101356
0.00101369
0.00101415
0.00101492
0.00101594
0.00101719
0.00101863
0.00102022
0.00102194
0.00102374
0.0010256
0.00102748
0.00102938
0.00103125
0.00103312
0.000852397
0.000793135
0.000793075
0.000791356
0.000788336
0.000784629
0.000778301
0.000768794
0.000759865
0.000754615
0.000750383
0.000746863
0.000743874
0.000741697
0.000739998
0.00073852
0.00073723
0.000735876
0.000734703
0.000733394
0.000731851
0.000740367
0.000749231
0.000758463
0.000768092
0.000777983
0.000788027
0.00079814
0.000808305
0.000818278
0.000827967
0.000837393
0.000846363
0.00085469
0.000862478
0.000869404
0.000875915
0.000882149
0.000887683
0.000891826
0.000894896
0.000897882
0.000900937
0.000904604
0.000906994
0.000908501
0.000909299
0.000909701
0.000909768
0.000909574
0.000909155
0.000908489
0.000907485
0.000906054
0.0009041
0.000901532
0.000898374
0.000894461
0.000889596
0.000883527
0.000876221
0.000867293
0.000858748
0.000849594
0.000839356
0.000829849
0.000822338
0.000815947
0.000809253
0.000802293
0.000795979
0.000790239
0.000785025
0.000780117
0.000775299
0.000770272
0.000766262
0.000763424
0.000761633
0.000762405
0.000766831
0.00077237
0.000779061
0.00078724
0.000796475
0.000806693
0.000819233
0.000834357
0.000851345
0.000869832
0.000888618
0.000904602
0.000913828
0.000923275
0.00144695
0.00144445
0.00103834
0.00143891
0.00103701
0.00143036
0.00103628
0.00141888
0.00103613
0.00140457
0.00103652
0.00138752
0.00103742
0.00136789
0.00103881
0.00134583
0.00104065
0.00132151
0.0010429
0.00129529
0.00104552
0.00126748
0.00104847
0.00123793
0.00105172
0.00120683
0.00105522
0.0011744
0.00105893
0.00114085
0.00106282
0.00110637
0.00106683
0.00107116
0.00107094
0.00103541
0.0010751
0.000999315
0.00107929
0.000963037
0.00108347
0.000926741
0.00108761
0.000890578
0.00109167
0.000854194
0.00109569
0.00130132
0.00109942
0.00141439
0.000855792
0.00138115
0.000759314
0.00132186
0.000755004
0.00125342
0.00075505
0.00117973
0.000749573
0.00111178
0.000746027
0.0010557
0.000748416
0.00100408
0.000756337
0.000952276
0.000761871
0.000902233
0.000764485
0.000854259
0.000764732
0.000809194
0.000765022
0.000767045
0.000765
0.000728165
0.000763864
0.000690667
0.000761472
0.000655523
0.000758718
0.000622668
0.000756421
0.000591975
0.00075487
0.000562695
0.000754252
0.000533229
0.000753169
0.000532558
0.000750195
0.000533026
0.000755886
0.000533293
0.000762238
0.00053302
0.000769005
0.000532025
0.000775196
0.00053042
0.000780499
0.000528356
0.000785319
0.000525946
0.000789183
0.000523834
0.000792565
0.000522464
0.000797087
0.000521988
0.00080244
0.000522336
0.000808527
0.000523293
0.000815019
0.000524503
0.000821548
0.000526023
0.000827958
0.000528047
0.000834298
0.000530186
0.000840194
0.000533823
0.000846091
0.000538669
0.000852441
0.000544378
0.000859407
0.000550231
0.000867597
0.000554568
0.000873831
0.000557724
0.000877871
0.000560252
0.000879985
0.000562234
0.000881437
0.000563244
0.000881353
0.000563074
0.000879047
0.00056174
0.000874247
0.000561686
0.000868262
0.000563732
0.000864488
0.000566668
0.000861673
0.000570014
0.000859016
0.000574053
0.000856549
0.000578627
0.000854935
0.000582447
0.000852175
0.000586129
0.00084834
0.000589664
0.000844101
0.000592607
0.000838776
0.000594862
0.000832118
0.000597323
0.000823892
0.000600977
0.000816638
0.0006059
0.000810509
0.000612246
0.000804654
0.000619
0.000798605
0.000625124
0.000792834
0.000629625
0.000787135
0.000633438
0.000780158
0.000636984
0.000772302
0.000640078
0.000763502
0.000643411
0.00075447
0.000647364
0.000746599
0.000651763
0.000739756
0.000656253
0.000733797
0.000661093
0.000728684
0.000666172
0.000724434
0.000671779
0.000720892
0.000678588
0.000718329
0.000685269
0.000716957
0.000689686
0.000717261
0.000694684
0.000717657
0.000700148
0.00071807
0.000705787
0.00071959
0.0007119
0.00072266
0.000718492
0.000727258
0.000725216
0.000733554
0.000731883
0.000741587
0.000738783
0.00075139
0.000746036
0.000763222
0.000753992
0.000777389
0.000762921
0.000793531
0.000775204
0.000812102
0.000790938
0.000831392
0.000804615
0.000849064
0.00087257
0.00086629
0.00144822
0.00144528
0.00104484
0.00143931
0.00104663
0.00143035
0.00104898
0.00141848
0.00105187
0.00140379
0.00105526
0.0013864
0.00105914
0.00136751
0.00106347
0.00134639
0.00106821
0.00132293
0.00107333
0.00129731
0.00107879
0.00126971
0.00108454
0.00124035
0.00109054
0.00120941
0.00109674
0.00117711
0.00110311
0.00114365
0.0011096
0.00110924
0.00111616
0.00107407
0.00112276
0.00103835
0.00112935
0.00100224
0.0011359
0.00096594
0.00114237
0.000929597
0.00114873
0.000893368
0.00115495
0.000856373
0.00116105
0.00129978
0.00117274
0.00141356
0.000975612
0.00138046
0.000909147
0.00132158
0.000907917
0.00125282
0.000905193
0.00117917
0.000900879
0.00111126
0.00089694
0.00105521
0.000892163
0.00100362
0.000885879
0.000951863
0.000880299
0.000901869
0.000877871
0.000854054
0.00087479
0.000809356
0.00087152
0.000767758
0.000868263
0.000728151
0.000865317
0.000690568
0.000862774
0.000655474
0.000860662
0.000622666
0.000859171
0.000592019
0.000858156
0.000562784
0.000857617
0.000533361
0.000856811
0.000534693
0.00085592
0.000535212
0.000863377
0.000535526
0.000871048
0.000535296
0.000878751
0.000534331
0.000886438
0.000532745
0.00089398
0.000530688
0.000901451
0.000528272
0.000908795
0.000526142
0.000915906
0.000524745
0.000922631
0.00052423
0.000929019
0.000524527
0.000934859
0.00052542
0.000940124
0.000526555
0.000944809
0.00052799
0.000948731
0.000529921
0.000953194
0.000532255
0.000957965
0.000534238
0.000962251
0.000538614
0.000965791
0.000544365
0.000969539
0.000550058
0.000973577
0.000554247
0.000978413
0.000557308
0.000982539
0.000559854
0.000985534
0.00056192
0.00098748
0.000563012
0.000988217
0.000562908
0.000987719
0.000561743
0.000986536
0.000564297
0.000984513
0.000567011
0.000981665
0.000569752
0.000978025
0.000572441
0.000973531
0.000574968
0.000968058
0.000579759
0.00096142
0.000583912
0.000953447
0.000587511
0.000944004
0.000590989
0.000932455
0.0005939
0.000920999
0.000596226
0.000910571
0.000598682
0.000900285
0.000602364
0.000890309
0.000608899
0.000880416
0.000616862
0.00087155
0.000623531
0.000862302
0.000627545
0.000853274
0.000631442
0.000842293
0.000635192
0.000831633
0.000638637
0.000820893
0.000641601
0.000809834
0.000644352
0.000797867
0.000648232
0.000787033
0.000652549
0.00077764
0.000656949
0.000768848
0.000663201
0.000761176
0.000669668
0.000753945
0.000675829
0.000747219
0.000682003
0.000741518
0.000687154
0.000736591
0.00069217
0.000733161
0.000698133
0.000730495
0.000704413
0.00072859
0.000710578
0.000728556
0.000717001
0.000729863
0.000723701
0.000732482
0.000730538
0.000736596
0.000737304
0.000742269
0.000744241
0.00074952
0.000751318
0.0007584
0.000759234
0.000769243
0.000768075
0.000781516
0.000781801
0.000796404
0.000800954
0.000813351
0.000817971
0.00083001
0.000895872
0.000847963
0.00144723
0.00144388
0.00105298
0.0014375
0.00105784
0.00142816
0.00106322
0.00141756
0.00106911
0.00140475
0.00107547
0.00138914
0.00108228
0.00137083
0.00108951
0.00134999
0.00109712
0.00132678
0.00110507
0.00130137
0.00111333
0.00127395
0.00112183
0.00124473
0.00113055
0.00121392
0.00113943
0.0011817
0.00114842
0.0011483
0.00115748
0.00111392
0.00116655
0.00107875
0.00117561
0.001043
0.0011846
0.00100685
0.00119348
0.000970463
0.00120222
0.00093402
0.00121077
0.000897672
0.00121911
0.000860405
0.00122733
0.00129808
0.00123459
0.00140404
0.000981506
0.00136441
0.000876244
0.00130593
0.000872577
0.00124258
0.000873518
0.00117655
0.000871155
0.00111245
0.000868665
0.00105491
0.000868364
0.00100367
0.000875553
0.000953862
0.000884451
0.000905423
0.000890577
0.000858324
0.000894763
0.000813039
0.00089718
0.000769884
0.000897981
0.000729186
0.000898868
0.000690886
0.000899455
0.000654464
0.000899376
0.000619418
0.000898519
0.00058581
0.000897149
0.000553956
0.000895586
0.000523952
0.000894022
0.000522461
0.000892844
0.000526054
0.000900164
0.000528468
0.000906509
0.000529938
0.000911701
0.00053097
0.00091732
0.000531501
0.00092318
0.000531475
0.000928619
0.000530912
0.000933436
0.000529879
0.000937568
0.000528426
0.000940922
0.000526443
0.000943419
0.000524432
0.000945251
0.000523419
0.00094823
0.000523447
0.000952413
0.00052409
0.000957301
0.000525816
0.000962104
0.000529033
0.000966744
0.000532638
0.000971192
0.000536433
0.000975512
0.000540116
0.000980104
0.00054361
0.000984609
0.000547018
0.000988688
0.000550436
0.000992273
0.000553928
0.000995214
0.00055757
0.000997488
0.00056138
0.000999494
0.000564834
0.00100021
0.000567785
0.000999368
0.000570638
0.000997551
0.000573462
0.000995092
0.000576044
0.000991553
0.000578258
0.000986641
0.000580062
0.000980185
0.000581587
0.000972276
0.000583108
0.000963269
0.000585315
0.000954188
0.000588299
0.000945281
0.000592543
0.000936611
0.000597905
0.000928159
0.000603648
0.000919564
0.000609583
0.000911206
0.000616084
0.00090283
0.000622768
0.000895342
0.000628475
0.000887366
0.000632648
0.000878107
0.000635943
0.000868728
0.000639178
0.000858411
0.000641679
0.000846837
0.000644096
0.000834379
0.000646799
0.000821773
0.000651211
0.000810671
0.000656513
0.000800594
0.000662469
0.000791134
0.000668881
0.000782936
0.000675107
0.00077389
0.000681079
0.000765502
0.000686917
0.000758034
0.000691672
0.000751472
0.000698074
0.000747123
0.000703668
0.000744535
0.000709424
0.000742821
0.000715711
0.000741734
0.000722293
0.000741782
0.000729166
0.000743188
0.000736152
0.000746248
0.000743204
0.000750861
0.000750418
0.00075698
0.000757781
0.000764622
0.000766214
0.000773907
0.00077483
0.000784564
0.000788381
0.000797425
0.000807635
0.000812719
0.000826739
0.00082793
0.00090466
0.000844533
0.00144401
0.00144151
0.00106275
0.00143809
0.00107063
0.00143159
0.001079
0.00142207
0.00108783
0.00140959
0.00109711
0.00139428
0.00110681
0.00137625
0.0011169
0.00135566
0.00112734
0.00133266
0.00113808
0.00130744
0.00114909
0.00128018
0.00116032
0.00125108
0.00117171
0.00122034
0.00118322
0.00118818
0.00119479
0.0011548
0.00120639
0.0011204
0.00121795
0.00108519
0.00122942
0.00104936
0.00124078
0.0010131
0.00125196
0.000976592
0.00126292
0.000939996
0.00127364
0.000903475
0.00128408
0.000865983
0.00129428
0.001295
0.00131712
0.0014024
0.00109602
0.00136301
0.00101864
0.00130465
0.0010197
0.00124139
0.00101959
0.00117544
0.00101648
0.0011114
0.00101378
0.00105392
0.00101078
0.00100274
0.00100602
0.000952989
0.00100275
0.000904624
0.000999846
0.000857603
0.000998746
0.000812401
0.000996902
0.000769328
0.000994658
0.000729465
0.000992378
0.000691209
0.000990288
0.000654522
0.000988529
0.000619316
0.000987077
0.000585659
0.000985782
0.000553882
0.000984661
0.000523951
0.000983637
0.000525006
0.00098266
0.000528656
0.000988557
0.000531115
0.000994581
0.000532618
0.00100066
0.000533672
0.00100679
0.000534212
0.00101287
0.000534183
0.00101888
0.000533605
0.00102473
0.000532542
0.00103034
0.000531046
0.00103562
0.000529005
0.00104036
0.000526924
0.00104449
0.000525832
0.0010479
0.000525772
0.0010507
0.000526317
0.00105317
0.000526755
0.0010561
0.00052823
0.00105931
0.00053192
0.00106222
0.000535806
0.00106465
0.000539586
0.00106701
0.000543184
0.00106929
0.000546703
0.00107159
0.000550238
0.00107352
0.000553853
0.00107418
0.000557625
0.00107392
0.000561569
0.00107272
0.00056516
0.00107056
0.00056825
0.00106741
0.000571244
0.0010633
0.000574209
0.00105855
0.000576931
0.00105301
0.00057969
0.00104651
0.000582775
0.00103888
0.000585566
0.00103004
0.000588011
0.00101996
0.000590232
0.00100872
0.000592835
0.000996296
0.000597012
0.00098475
0.000602418
0.000973945
0.000608046
0.00096372
0.000613285
0.000953474
0.000619432
0.000943408
0.000626218
0.000933808
0.000631911
0.000922802
0.000636906
0.00091105
0.000640946
0.000899602
0.000644359
0.000888102
0.000647142
0.000875912
0.000649486
0.000863013
0.000652417
0.000849773
0.00065678
0.000838086
0.000662205
0.000827484
0.000668445
0.000817734
0.000675154
0.000809299
0.000681019
0.00080021
0.000686255
0.000791251
0.00069119
0.000782723
0.000695196
0.000774484
0.000701362
0.000767883
0.000707845
0.000763475
0.000714122
0.00076068
0.000720501
0.000758906
0.000727054
0.00075831
0.000734005
0.00075891
0.000741234
0.000761087
0.000748669
0.000764762
0.000756391
0.0007699
0.000764371
0.000776469
0.00077358
0.000784454
0.000782629
0.000793725
0.000795824
0.000804366
0.000815169
0.00081722
0.000836774
0.000829775
0.000911055
0.000844792
0.00144709
0.00144715
0.00107416
0.00144408
0.00108501
0.00143792
0.0010963
0.00142871
0.00110804
0.00141655
0.00112019
0.00140151
0.00113272
0.00138374
0.00114562
0.00136337
0.00115883
0.00134057
0.00117232
0.0013155
0.00118604
0.00128837
0.00119994
0.00125935
0.00121397
0.00122867
0.00122807
0.00119652
0.00124218
0.00116312
0.00125627
0.00112866
0.00127027
0.00109336
0.00128413
0.00105741
0.00129781
0.001021
0.00131125
0.000984311
0.00132441
0.000947511
0.00133726
0.000910763
0.00134975
0.000873026
0.00136201
0.00129523
0.00137306
0.00141082
0.00109376
0.00137104
0.000979849
0.00130879
0.000978233
0.00124553
0.000980845
0.0011801
0.00098035
0.00111645
0.000979954
0.00105758
0.000980704
0.00100554
0.000987335
0.000956825
0.000997985
0.000909107
0.00100694
0.000862578
0.00101316
0.00081771
0.00101825
0.000774449
0.00102118
0.000733189
0.00102309
0.00069407
0.00102477
0.000657252
0.0010261
0.000622123
0.00102709
0.000588337
0.00102736
0.000556142
0.0010271
0.000525408
0.00102636
0.000519181
0.00102519
0.000521718
0.00102992
0.000524729
0.00103561
0.000527408
0.00104123
0.000529253
0.00104556
0.000530617
0.00104982
0.000531534
0.00105413
0.000531917
0.00105803
0.000531759
0.00106139
0.000530958
0.00106389
0.000529537
0.00106555
0.000527535
0.00106616
0.000525995
0.00106621
0.000525452
0.00106785
0.000525585
0.00107049
0.000528694
0.0010733
0.000532306
0.00107619
0.000536058
0.00107898
0.000539744
0.00108168
0.000543354
0.00108446
0.000546874
0.00108711
0.000550331
0.00108924
0.000553817
0.00109078
0.000557368
0.0010917
0.000560985
0.0010919
0.000564684
0.00109138
0.000568433
0.00109013
0.000571998
0.00108834
0.000575316
0.00108516
0.000578664
0.00108109
0.000582131
0.0010763
0.000585581
0.00107049
0.000588814
0.00106348
0.000591679
0.00105515
0.000594211
0.00104546
0.000596379
0.00103447
0.000599065
0.00102265
0.000603149
0.00101184
0.00060841
0.00100196
0.000613186
0.000992349
0.000618606
0.000982297
0.00062505
0.000971828
0.00063188
0.000961536
0.000637382
0.000950164
0.000642095
0.000937779
0.00064616
0.000925421
0.000649825
0.000913111
0.000652881
0.000900406
0.000655232
0.000887061
0.000658115
0.000873018
0.00066228
0.000860427
0.00066762
0.000848922
0.000673932
0.000838229
0.000680748
0.000828912
0.0006866
0.000819135
0.000691869
0.000809589
0.000696848
0.000800506
0.000700607
0.000791768
0.000706306
0.000784142
0.000712882
0.000778635
0.000719342
0.000774862
0.00072582
0.000772175
0.000732471
0.000770764
0.000739589
0.00077046
0.000747144
0.000771647
0.000755
0.000774278
0.000763251
0.000778349
0.000771915
0.000783816
0.000782056
0.000790682
0.000792173
0.000798946
0.000805339
0.000808482
0.000824738
0.000820431
0.000847415
0.000831976
0.000918086
0.000845646
0.00145458
0.00145496
0.00108721
0.00145222
0.00110097
0.00144638
0.00111514
0.00143747
0.00112971
0.00142559
0.00114467
0.00141082
0.00115999
0.00139328
0.00117564
0.00137311
0.00119158
0.00135047
0.00120776
0.00132554
0.00122414
0.0012985
0.00124066
0.00126954
0.00125727
0.00123887
0.00127391
0.0012067
0.00129053
0.00117324
0.00130706
0.00113868
0.00132345
0.00110325
0.00133965
0.00106713
0.00135561
0.00103052
0.00137127
0.000993604
0.00138659
0.000956548
0.00140152
0.00091952
0.00141604
0.000881412
0.00143021
0.00129073
0.00145812
0.00140851
0.00121839
0.00136906
0.0011266
0.00130718
0.00112814
0.00124384
0.00113051
0.00117852
0.00112859
0.00111495
0.00112733
0.00105616
0.00112603
0.00100419
0.00112316
0.000955552
0.00112095
0.000907926
0.00111909
0.000861496
0.00111933
0.00081673
0.00111872
0.000773574
0.00111758
0.000733283
0.00111629
0.000694769
0.00111507
0.000657927
0.00111401
0.000622595
0.0011131
0.000588489
0.00111216
0.000556195
0.00111114
0.00052525
0.0011103
0.000521807
0.00110955
0.000524403
0.00111406
0.000527458
0.00111862
0.000530167
0.00112327
0.000532026
0.00112792
0.000533389
0.00113252
0.000534291
0.00113701
0.000534644
0.00114124
0.000534442
0.00114515
0.000533582
0.00114868
0.000532089
0.00115163
0.000530003
0.00115384
0.000528367
0.0011553
0.00052772
0.00115593
0.000527655
0.00115692
0.000528368
0.00115833
0.000532061
0.00115982
0.0005359
0.00116086
0.000539678
0.00116168
0.000543387
0.00116232
0.00054726
0.00116272
0.000551604
0.00116302
0.000555643
0.00116213
0.000559545
0.00116021
0.000563373
0.00115744
0.000567209
0.00115395
0.00057098
0.00114977
0.000574507
0.00114478
0.000577859
0.00113894
0.000581296
0.00113249
0.000584933
0.00112533
0.000588671
0.00111732
0.000592339
0.00110841
0.000595797
0.00109853
0.000598976
0.00108755
0.000601671
0.00107552
0.000604567
0.00106244
0.000608597
0.00105031
0.000613716
0.00103869
0.000619237
0.00102707
0.000625602
0.00101539
0.000632622
0.00100385
0.000639281
0.000992652
0.00064451
0.000981036
0.000648796
0.000968306
0.000652555
0.000955036
0.000656196
0.000941957
0.000659496
0.000928566
0.000662167
0.00091464
0.000665016
0.000899786
0.000669054
0.000886206
0.000674331
0.000873734
0.000680632
0.00086209
0.000687486
0.000851844
0.000693364
0.000841652
0.000698526
0.000831491
0.000703391
0.000822096
0.000707142
0.000813104
0.000712203
0.000804802
0.000718349
0.00079818
0.000724746
0.000793254
0.000731352
0.000789473
0.000738183
0.000787024
0.000745472
0.000785736
0.000753325
0.000785902
0.000761608
0.000787503
0.000770482
0.000790541
0.000779906
0.000794946
0.000790977
0.000800686
0.000802247
0.000807742
0.000815648
0.000815918
0.000835169
0.000826213
0.00085902
0.000836151
0.000925786
0.000847835
0.00146423
0.00146492
0.00110193
0.00146248
0.00111852
0.00145693
0.0011355
0.00144831
0.00115285
0.00143669
0.00117056
0.00142216
0.0011886
0.00140483
0.00120695
0.00138484
0.00122555
0.00136235
0.00124437
0.00133752
0.00126335
0.00131055
0.00128244
0.00128162
0.00130158
0.00125093
0.00132071
0.0012187
0.00133977
0.00118514
0.00135869
0.00115045
0.00137743
0.00111484
0.00139592
0.0010785
0.00141411
0.00104165
0.00143195
0.00100445
0.00144938
0.000967089
0.00146636
0.000929728
0.00148284
0.000891271
0.001499
0.00128608
0.00151366
0.00141131
0.0012157
0.00137159
0.00109174
0.00130472
0.00108955
0.00124243
0.00109423
0.00117906
0.00109636
0.00111738
0.00109794
0.00105927
0.00110024
0.00100699
0.00110631
0.000958864
0.00111672
0.00091172
0.0011269
0.000865629
0.00113461
0.000821163
0.00114097
0.000778107
0.00114548
0.000736714
0.00114847
0.000697386
0.00115102
0.0006601
0.00115298
0.000624835
0.00115452
0.000591167
0.00115569
0.000559078
0.00115633
0.00052827
0.00115636
0.000519042
0.00115575
0.000520444
0.00115901
0.000522526
0.0011626
0.000525081
0.00116681
0.000527271
0.00117058
0.000528878
0.0011734
0.000530117
0.00117628
0.000530903
0.00117886
0.000531217
0.00118106
0.000530995
0.00118261
0.000530112
0.00118325
0.000528636
0.00118318
0.000527237
0.00118192
0.000527636
0.0011819
0.000530297
0.00118255
0.000533548
0.0011834
0.000537341
0.0011843
0.000541206
0.00118525
0.00054499
0.00118625
0.000548738
0.00118712
0.000552441
0.00118764
0.000556117
0.00118761
0.000559763
0.00118693
0.000563525
0.00118549
0.00056744
0.00118347
0.000571432
0.00118073
0.000575412
0.00117722
0.00057921
0.00117297
0.000582836
0.00116784
0.000586537
0.00116189
0.00059043
0.00115508
0.000594344
0.00114734
0.000598269
0.00113871
0.000601857
0.00112903
0.000605223
0.00111833
0.000607656
0.00110643
0.00061037
0.00109357
0.000614567
0.00108107
0.000619951
0.00106864
0.000625891
0.00105613
0.0006325
0.0010435
0.000639495
0.00103104
0.000646039
0.00101904
0.000651198
0.0010071
0.00065529
0.000993894
0.000658976
0.000980124
0.000662523
0.000966185
0.000665907
0.000951989
0.000668765
0.000937313
0.000671609
0.000921784
0.000675651
0.000907242
0.000680852
0.000893867
0.000687027
0.000881294
0.000693853
0.000870073
0.000699653
0.000859243
0.000704754
0.000848687
0.000709492
0.000838935
0.00071336
0.000829596
0.000718303
0.00082085
0.000724192
0.000813559
0.00073061
0.000807596
0.000737279
0.000802845
0.000744186
0.000799367
0.000751568
0.00079709
0.000759656
0.000796234
0.000768327
0.000796789
0.000777799
0.000798748
0.000787994
0.000802058
0.000800004
0.000806727
0.000812571
0.000812744
0.000826536
0.000819877
0.000846451
0.000829146
0.000871581
0.000838306
0.000934378
0.00084901
0.00147602
0.00147699
0.00111832
0.00147483
0.00113767
0.00146956
0.00115738
0.0014612
0.00117744
0.00144983
0.00119783
0.00143551
0.00121853
0.00141838
0.00123951
0.00139855
0.00126071
0.00137618
0.0012821
0.00135143
0.00130363
0.00132449
0.00132522
0.00129555
0.00134683
0.00126482
0.00136839
0.0012325
0.00138984
0.0011988
0.00141111
0.00116393
0.00143214
0.00112809
0.00145287
0.00109151
0.00147324
0.00105436
0.00149319
0.00101683
0.00151268
0.000979113
0.00153166
0.000941368
0.00155008
0.000902525
0.00156806
0.00128018
0.00160786
0.00140834
0.00134577
0.00136902
0.00123759
0.00130331
0.00123849
0.00124024
0.00124194
0.001177
0.00124182
0.00111544
0.00124214
0.00105743
0.00124201
0.00100524
0.00123987
0.000957223
0.00123853
0.00091019
0.00123878
0.000864219
0.00123963
0.000819878
0.00123994
0.000777005
0.00123985
0.000736677
0.00123969
0.000698084
0.00123965
0.00066104
0.00123934
0.000625715
0.00123901
0.000591591
0.00123832
0.000559393
0.00123777
0.000528248
0.00123742
0.000520994
0.00123707
0.000522975
0.00124037
0.000525204
0.00124363
0.00052778
0.001247
0.000529977
0.0012503
0.000531573
0.00125349
0.000532786
0.00125649
0.000533531
0.00125917
0.00053379
0.00126144
0.000533497
0.00126319
0.000532531
0.00126427
0.000530959
0.0012646
0.000529453
0.00126396
0.000528652
0.00126321
0.000530428
0.00126287
0.000533756
0.00126272
0.000537634
0.00126226
0.00054159
0.00126145
0.000546008
0.00126048
0.000550543
0.00125918
0.000554949
0.00125764
0.000559089
0.00125506
0.000563132
0.00125166
0.000567223
0.00124751
0.000571325
0.00124265
0.000575486
0.00123705
0.00057954
0.00123078
0.000583345
0.00122383
0.000586986
0.0012163
0.000590715
0.00120818
0.000594641
0.00119954
0.000598467
0.00119028
0.000602422
0.00118031
0.000606208
0.00116935
0.000609883
0.00115732
0.00061308
0.00114414
0.000616669
0.00113005
0.0006216
0.00111633
0.000627479
0.00110288
0.000633673
0.00108947
0.000640266
0.00107574
0.000647029
0.00106203
0.00065341
0.00104869
0.00065864
0.00103572
0.000662904
0.00102175
0.000666656
0.00100734
0.00067009
0.000992793
0.000673383
0.000977888
0.000676344
0.00096254
0.000679236
0.000946401
0.00068327
0.000931035
0.000688388
0.000916783
0.000694394
0.000903253
0.000700973
0.000890874
0.000706567
0.000879276
0.000711444
0.000868054
0.000716079
0.000857722
0.000720112
0.000847826
0.000725114
0.000838496
0.000731066
0.000830624
0.000737435
0.000824022
0.000744091
0.000818534
0.000751072
0.000814132
0.000758631
0.000810818
0.000767041
0.000808789
0.000776148
0.000808143
0.000786206
0.000808906
0.000797086
0.000811044
0.000809913
0.00081456
0.000823743
0.000819442
0.000838183
0.000825457
0.000858503
0.000833617
0.000884324
0.000841792
0.000943898
0.000851196
0.0014899
0.00149113
0.00113639
0.00148923
0.00115843
0.00148421
0.0011808
0.0014761
0.00120349
0.00146495
0.00122649
0.00145084
0.00124978
0.00143388
0.00127331
0.00141419
0.00129705
0.00139191
0.00132094
0.00136722
0.00134494
0.0013403
0.00136898
0.00131132
0.001393
0.00128051
0.00141692
0.00124806
0.00144069
0.00121418
0.00146424
0.0011791
0.0014875
0.001143
0.00151041
0.00110611
0.0015329
0.00106862
0.00155492
0.00103072
0.00157642
0.000992598
0.00159734
0.000954418
0.00161764
0.000915123
0.00163751
0.00127084
0.00165564
0.00141403
0.00133942
0.00137092
0.00119983
0.00130315
0.00120068
0.00123985
0.00120872
0.00117759
0.00121243
0.00111742
0.00121666
0.00106077
0.00122091
0.00100964
0.00122803
0.00096164
0.00123876
0.000914442
0.00124898
0.000868491
0.0012574
0.000823985
0.00126416
0.000780938
0.00126918
0.000739798
0.00127352
0.000700515
0.00127687
0.000663207
0.00127929
0.000627913
0.00128123
0.000594136
0.00128277
0.000562223
0.00128396
0.000531505
0.00128458
0.00052191
0.00128448
0.000521926
0.00128653
0.000522086
0.00128875
0.000523622
0.00129121
0.000525586
0.00129366
0.000527132
0.00129519
0.000528369
0.00129673
0.000529219
0.00129794
0.000529634
0.00129886
0.000529586
0.00129921
0.000528883
0.00129892
0.000530043
0.00129797
0.000531395
0.00129615
0.000533407
0.00129485
0.000536188
0.0012938
0.000539786
0.00129292
0.000543903
0.00129225
0.000547981
0.00129161
0.000551944
0.00129086
0.000555906
0.00128978
0.000559854
0.0012882
0.000563761
0.001286
0.000567657
0.00128308
0.000571641
0.00127926
0.000575826
0.00127481
0.00058021
0.00126973
0.000584535
0.00126386
0.000588653
0.00125731
0.00059252
0.00125013
0.000596358
0.00124232
0.000600163
0.00123397
0.000604038
0.0012248
0.000608087
0.00121459
0.000612147
0.00120313
0.000616177
0.0011903
0.000619874
0.00117622
0.000624092
0.00116127
0.000629496
0.00114673
0.000635725
0.00113257
0.000642312
0.00111842
0.000648975
0.00110387
0.000655412
0.0010895
0.000661409
0.00107517
0.000666559
0.00106119
0.000670825
0.00104644
0.000674541
0.00103135
0.000677882
0.00101613
0.000681067
0.00100051
0.000684094
0.000984465
0.000687004
0.000967722
0.000691081
0.000951694
0.000696243
0.000936709
0.000702148
0.000922421
0.000708344
0.000909151
0.000713649
0.000896937
0.000718232
0.000885175
0.000722682
0.000874255
0.000726823
0.000863729
0.000731874
0.000853726
0.000737924
0.000845229
0.000744387
0.000838012
0.000751163
0.000831871
0.000758328
0.000826746
0.000766155
0.000822624
0.000774881
0.000819733
0.000784375
0.000818151
0.000794975
0.000817906
0.000806492
0.000818987
0.000820086
0.000821441
0.000835127
0.00082533
0.000849999
0.000830473
0.000870914
0.000837351
0.000897735
0.000844445
0.00095425
0.000852921
0.00150583
0.00150729
0.00115617
0.00150564
0.00118081
0.00150086
0.00120576
0.00149298
0.001231
0.00148204
0.00125653
0.00146811
0.00128232
0.0014513
0.00130833
0.00143173
0.00133453
0.00140953
0.00136085
0.00138487
0.00138725
0.00135793
0.00141366
0.0013289
0.00144001
0.00129797
0.00146624
0.00126536
0.00149227
0.00123127
0.00151803
0.00119593
0.00154346
0.00115953
0.00156848
0.0011223
0.00159303
0.00108442
0.00161706
0.0010461
0.00164051
0.00100752
0.00166331
0.000968854
0.00168544
0.00092913
0.00170702
0.00126574
0.00176113
0.00141053
0.00147675
0.00136813
0.00134889
0.00130032
0.00134817
0.0012372
0.00135238
0.0011751
0.00135474
0.00111508
0.00135643
0.00105855
0.00135669
0.00100755
0.00135605
0.000959675
0.00135558
0.000912612
0.00135769
0.000866802
0.00135908
0.00082244
0.00136011
0.000780176
0.00136104
0.000739861
0.00136211
0.000701226
0.00136285
0.000664167
0.00136332
0.000628814
0.00136348
0.000594744
0.0013631
0.000562672
0.00136307
0.000531715
0.00136326
0.000522244
0.00136342
0.00052228
0.00136551
0.000524117
0.0013676
0.000526173
0.00136979
0.000528132
0.00137178
0.000529656
0.00137356
0.000530856
0.00137498
0.000531654
0.00137595
0.000532003
0.00137639
0.000531876
0.00137618
0.00053108
0.0013752
0.000530438
0.00137326
0.000531882
0.00137144
0.000533961
0.0013699
0.000536818
0.00136837
0.000541115
0.00136644
0.000545887
0.00136418
0.000550534
0.00136156
0.000555111
0.00135879
0.000559581
0.0013555
0.000563825
0.00135138
0.000567942
0.00134659
0.000572066
0.00134127
0.000576289
0.00133537
0.000580594
0.00132881
0.000584987
0.00132146
0.000589124
0.00131363
0.000593001
0.00130538
0.000596762
0.00129646
0.000600548
0.00128668
0.000604577
0.00127627
0.000609017
0.00126518
0.000613712
0.00125333
0.000618441
0.00124061
0.000623008
0.0012269
0.000627253
0.00121205
0.000631902
0.00119645
0.000637581
0.00118103
0.00064411
0.00116582
0.000651091
0.00115061
0.000657806
0.00113512
0.000664047
0.00111983
0.000669771
0.00110434
0.000674797
0.00108905
0.000679088
0.00107319
0.000682891
0.00105718
0.000686253
0.00104107
0.000689427
0.00102462
0.0006925
0.00100778
0.000695542
0.000990386
0.000699777
0.000973751
0.000705037
0.000958046
0.000710792
0.000942929
0.000716417
0.000928746
0.000721253
0.000915552
0.000725519
0.000902918
0.000729801
0.000891144
0.000733949
0.000879779
0.000738965
0.000868959
0.000745042
0.000859636
0.000751578
0.000851597
0.000758467
0.000844663
0.000765787
0.000838754
0.000773811
0.00083383
0.000782858
0.000830088
0.000792772
0.000827608
0.000803918
0.000826429
0.00081604
0.000826561
0.000830308
0.000828071
0.000846364
0.000830995
0.000862224
0.000835179
0.000883745
0.000840986
0.000911299
0.000847221
0.000965311
0.000854849
0.00152375
0.00152543
0.00117768
0.001524
0.00120483
0.00151945
0.00123226
0.00151178
0.00125996
0.00150104
0.00128793
0.00148728
0.00131614
0.00147061
0.00134456
0.00145113
0.00137313
0.00142899
0.00140181
0.00140435
0.00143053
0.00137736
0.00145923
0.00134824
0.00148785
0.00131717
0.0015163
0.00128436
0.00154451
0.00125003
0.00157241
0.00121439
0.00159993
0.00117765
0.001627
0.00114003
0.00165355
0.00110172
0.00167952
0.00106293
0.00170485
0.00102385
0.00172948
0.00098465
0.00175337
0.000944375
0.00177672
0.00125732