/*--------------------------------*- C++ -*----------------------------------*\
| =========                 |                                                 |
| \\      /  F ield         | OpenFOAM: The Open Source CFD Toolbox           |
|  \\    /   O peration     | Version:  2.2.x                                 |
|   \\  /    A nd           | Web:      www.OpenFOAM.org                      |
|    \\/     M anipulation  |                                                 |
\*---------------------------------------------------------------------------*/
FoamFile
{
    version     2.0;
    format      ascii;
    class       volScalarField;
    location    "1.05";
    object      T;
}
// * * * * * * * * * * * * * * * * * * * * * * * * * * * * * * * * * * * * * //

dimensions      [0 0 0 1 0 0 0];

internalField   nonuniform List<scalar> 
14161
(
1
1
1
1
1
1
1
1
1
1
1
1
1
1
1
1
1
1
1
1
1
1
1
0.999567
2.1446
2.90539
2.92616
2.91187
2.90234
2.89539
2.90438
2.93761
2.97838
3.01929
3.05592
3.08033
3.09617
3.10684
3.11409
3.11804
3.11881
3.1175
3.11707
3.11787
3.11789
3.12254
3.12714
3.13239
3.13834
3.14398
3.14851
3.15104
3.15027
3.14664
3.14026
3.13162
3.12097
3.10899
3.09588
3.08285
3.06911
3.0564
3.05174
3.05816
3.0698
3.08649
3.10926
3.1378
3.16523
3.1839
3.19675
3.20584
3.21317
3.21911
3.22453
3.22907
3.23262
3.23513
3.23639
3.23625
3.23436
3.23018
3.22332
3.21289
3.19771
3.17677
3.16009
3.1587
3.16683
3.18121
3.20297
3.23038
3.25173
3.26398
3.26988
3.27397
3.27537
3.27267
3.26413
3.24873
3.22979
3.22414
3.22932
3.23979
3.25328
3.26964
3.27884
3.2824
3.28264
3.27763
3.26928
3.26918
3.27375
3.28001
3.28637
3.29166
3.29451
3.29823
3.33021
1
1
1
1
1
1
1
1
1
1
1
1
1
1
1
1
1
1
1
1
1
1
1
0.998391
2.52578
3.24413
3.39591
3.41458
3.37192
3.28504
3.20174
3.1642
3.15968
3.15779
3.15387
3.15157
3.15524
3.16729
3.18187
3.19916
3.22383
3.25841
3.30348
3.35259
3.38237
3.3906
3.38999
3.38577
3.37474
3.35552
3.32831
3.29413
3.25479
3.21862
3.19155
3.1765
3.1736
3.17804
3.18554
3.19543
3.20823
3.2225
3.23893
3.26112
3.29378
3.33153
3.35636
3.36956
3.37548
3.37477
3.36257
3.33569
3.29543
3.26878
3.26532
3.27189
3.28268
3.30111
3.32539
3.33926
3.34482
3.34513
3.33686
3.31882
3.29691
3.28899
3.29121
3.29995
3.31157
3.32782
3.33947
3.34404
3.3412
3.33107
3.32311
3.3206
3.32074
3.32125
3.3214
3.32081
3.32054
3.32274
3.32699
3.33035
3.33407
3.33469
3.33484
3.33564
3.33798
3.34097
3.34411
3.3466
3.34812
3.34863
3.34667
3.34013
3.3308
3.32325
3.33146
1
1
1
1
1
1
1
1
1
1
1
1
1
1
1
1
1
1
1
1
1
1
1
0.998392
2.05699
2.88678
2.91997
2.90082
2.88289
2.86692
2.88241
2.92087
2.96598
3.01383
3.05759
3.08559
3.10353
3.11619
3.12648
3.13515
3.14338
3.15199
3.1613
3.17001
3.17548
3.17775
3.17962
3.18109
3.18077
3.17864
3.17448
3.1687
3.16156
3.15291
3.14241
3.13046
3.11542
3.09885
3.07982
3.06316
3.05661
3.06323
3.07536
3.09088
3.11244
3.14043
3.17238
3.19917
3.22009
3.23602
3.24681
3.25302
3.25782
3.26176
3.26485
3.26688
3.26732
3.26543
3.25992
3.24863
3.2302
3.20591
3.19826
3.20625
3.21892
3.2388
3.26702
3.29432
3.31019
3.31952
3.32332
3.32416
3.31992
3.30735
3.29035
3.28721
3.29284
3.30344
3.31965
3.32928
3.33302
3.33262
3.33075
3.33208
3.33615
3.34101
3.34442
3.34679
3.3492
3.35218
3.35504
3.35768
3.35981
3.3615
3.36046
3.35483
3.34328
3.32564
3.31658
1
1
1
1
1
1
1
1
1
1
1
1
1
1
1
1
1
1
1
1
1
1
1
0.995781
2.45481
3.14131
3.28093
3.31034
3.3001
3.25633
3.19452
3.14406
3.13311
3.13672
3.13941
3.14085
3.14016
3.13846
3.14043
3.14822
3.15784
3.16758
3.17958
3.19491
3.21483
3.24145
3.27346
3.29079
3.2964
3.29898
3.29746
3.29017
3.27666
3.25733
3.23297
3.20346
3.17568
3.16169
3.16022
3.16437
3.16862
3.17157
3.17434
3.17984
3.18815
3.1989
3.21154
3.22528
3.23974
3.25565
3.27339
3.28698
3.2954
3.30095
3.30373
3.30159
3.29329
3.27918
3.26099
3.24178
3.22728
3.2198
3.22174
3.23008
3.24086
3.25625
3.27661
3.29703
3.30923
3.31452
3.31619
3.31419
3.30473
3.288
3.27809
3.28093
3.28858
3.30103
3.31821
3.32758
3.33148
3.32996
3.32721
3.33112
3.33551
3.34047
3.34481
3.34748
3.35019
3.35347
3.35664
3.3596
3.36208
3.36375
3.3632
3.35778
3.34478
3.32441
3.31259
1
1
1
1
1
1
1
1
1
1
1
1
1
1
1
1
1
1
1
1
1
1
1
0.997686
2.01948
2.87886
2.92363
2.9083
2.89733
2.88057
2.89032
2.92225
2.95903
2.99945
3.04273
3.07848
3.10076
3.11427
3.12321
3.12982
3.13515
3.13942
3.14382
3.14835
3.15382
3.1585
3.16239
3.16652
3.17004
3.17247
3.17309
3.17195
3.16893
3.16399
3.15659
3.14657
3.13313
3.1173
3.09995
3.08635
3.08223
3.089
3.09914
3.11083
3.12532
3.1434
3.16481
3.18471
3.20058
3.21436
3.22638
3.23644
3.24444
3.25102
3.2568
3.26094
3.26224
3.25986
3.2533
3.24223
3.22595
3.21158
3.21033
3.21749
3.22721
3.24021
3.26085
3.28481
3.29954
3.30637
3.30969
3.30825
3.30033
3.28506
3.27465
3.27702
3.28413
3.29547
3.31156
3.32036
3.32422
3.32278
3.31961
3.32224
3.32818
3.33419
3.33864
3.34188
3.34498
3.34882
3.35253
3.35584
3.35894
3.36175
3.36295
3.35875
3.346
3.32418
3.3103
1
1
1
1
1
1
1
1
1
1
1
1
1
1
1
1
1
1
1
1
1
1
1
0.995098
2.45383
3.13826
3.27878
3.30526
3.29696
3.25885
3.20468
3.1512
3.13029
3.1319
3.13633
3.13925
3.1414
3.14065
3.13975
3.14029
3.14529
3.15245
3.15995
3.16826
3.17803
3.19071
3.20707
3.22868
3.24562
3.25368
3.25864
3.26111
3.25944
3.25265
3.23948
3.22012
3.19472
3.17557
3.16979
3.17122
3.17328
3.17516
3.17705
3.1804
3.18598
3.19305
3.20065
3.20877
3.21728
3.2263
3.23606
3.24711
3.25777
3.26568
3.27189
3.27625
3.27718
3.27362
3.26491
3.2513
3.23239
3.2176
3.21497
3.22097
3.22793
3.23821
3.25434
3.27529
3.29023
3.29832
3.30299
3.30365
3.29823
3.28487
3.27366
3.27487
3.28138
3.29163
3.30647
3.31507
3.31929
3.31888
3.3156
3.31801
3.3244
3.33041
3.33489
3.33824
3.34145
3.34557
3.34963
3.35333
3.35666
3.35973
3.36197
3.35834
3.34681
3.32399
3.3094
1
1
1
1
1
1
1
1
1
1
1
1
1
1
1
1
1
1
1
1
1
1
1
0.997235
1.99568
2.88202
2.93833
2.9261
2.91863
2.90618
2.91509
2.94327
2.97621
3.01278
3.05153
3.08439
3.10493
3.11678
3.1248
3.13057
3.13492
3.13793
3.14004
3.14313
3.14648
3.15021
3.15419
3.15844
3.16288
3.16704
3.17018
3.17176
3.1713
3.16852
3.16297
3.15435
3.14247
3.12797
3.11344
3.10611
3.10881
3.11743
3.12713
3.13854
3.1524
3.16866
3.18449
3.19654
3.20627
3.21485
3.22318
3.23137
3.23874
3.24511
3.25084
3.25539
3.25781
3.25734
3.25305
3.24427
3.23035
3.21859
3.21706
3.22223
3.22956
3.23945
3.25334
3.27079
3.28427
3.29229
3.29709
3.29924
3.29613
3.28582
3.27372
3.2734
3.27942
3.28849
3.30191
3.31079
3.31515
3.31581
3.31285
3.31378
3.31964
3.32553
3.3302
3.33373
3.33681
3.3409
3.34513
3.34933
3.35329
3.35708
3.36015
3.35829
3.34853
3.32536
3.31019
1
1
1
1
1
1
1
1
1
1
1
1
1
1
1
1
1
1
1
1
1
1
1.00001
0.994652
2.42237
3.11402
3.2505
3.26572
3.26178
3.23627
3.19718
3.15258
3.12711
3.12602
3.13119
3.13586
3.13972
3.14102
3.14018
3.13967
3.1406
3.1441
3.15021
3.15645
3.16349
3.17237
3.18206
3.19389
3.20911
3.22044
3.22708
3.23232
3.23509
3.23452
3.22944
3.21875
3.2024
3.18705
3.18141
3.17982
3.17885
3.17944
3.18182
3.18577
3.1909
3.19641
3.20185
3.20657
3.21166
3.21815
3.22498
3.23246
3.24008
3.24709
3.25348
3.25853
3.26117
3.26075
3.25593
3.24715
3.23256
3.22148
3.21923
3.22361
3.23128
3.2407
3.25278
3.26777
3.28016
3.28738
3.29219
3.29463
3.29245
3.28369
3.27168
3.27078
3.27657
3.28517
3.29759
3.30635
3.31103
3.31233
3.30965
3.31002
3.31557
3.32153
3.32639
3.32993
3.33282
3.3367
3.34084
3.34504
3.3491
3.35298
3.35639
3.35609
3.34808
3.32582
3.30993
1
1
1
1
1
1
1
1
1
1
1
1
1
1
1
1
1
1
1
1
1
1
1
0.997046
1.94492
2.87823
2.93871
2.92914
2.92527
2.92415
2.94032
2.96876
3.00062
3.03511
3.06923
3.09442
3.10976
3.11934
3.12658
3.13168
3.13445
3.13575
3.13558
3.13772
3.14035
3.1433
3.14669
3.15027
3.1542
3.15808
3.16137
3.16348
3.16376
3.16191
3.15742
3.1501
3.14029
3.12804
3.12121
3.12273
3.13022
3.13913
3.14917
3.16106
3.17462
3.18695
3.19614
3.20361
3.21009
3.21604
3.22163
3.22712
3.23236
3.23737
3.242
3.24605
3.2486
3.24906
3.24654
3.24067
3.23069
3.22283
3.22178
3.22633
3.23369
3.24248
3.25321
3.26596
3.27693
3.28373
3.28834
3.29086
3.2892
3.28171
3.27059
3.26932
3.27471
3.28291
3.29441
3.30311
3.30796
3.30976
3.30751
3.3074
3.31263
3.31841
3.32342
3.3272
3.33018
3.33409
3.33824
3.34244
3.3465
3.35039
3.35405
3.35476
3.34841
3.32767
3.31279
1
1
1
1
1
1
1
1
1
1
1
1
1
1
1
1
1
1
1
1
1
1
1.00001
0.994544
2.3896
3.11007
3.22804
3.23401
3.22873
3.20845
3.17794
3.14327
3.12449
3.12434
3.12922
3.13404
3.13757
3.13926
3.14026
3.13952
3.13983
3.14115
3.14441
3.14979
3.15583
3.16341
3.17078
3.1793
3.18992
3.19962
3.2062
3.21184
3.2157
3.21721
3.21528
3.2093
3.19997
3.19014
3.18316
3.17903
3.17825
3.18012
3.18397
3.18904
3.19433
3.19944
3.20395
3.2075
3.21028
3.21435
3.21916
3.22446
3.2298
3.23503
3.23962
3.24353
3.24613
3.2467
3.24451
3.23935
3.23047
3.22409
3.22458
3.22965
3.23702
3.24516
3.25471
3.26534
3.27478
3.28091
3.28507
3.28734
3.28576
3.27902
3.26875
3.26746
3.2726
3.28055
3.29127
3.2998
3.30481
3.30676
3.3047
3.30432
3.30925
3.31482
3.31975
3.32358
3.32657
3.33043
3.33453
3.33874
3.34282
3.34675
3.35056
3.35207
3.34718
3.32896
3.31607
1
1
1
1
1
1
1
1
1
1
1
1
1
1
1
1
1
1
1
1
1
1
1
0.997066
1.88047
2.87262
2.93395
2.92858
2.93139
2.94235
2.96615
2.99547
3.02751
3.05978
3.08573
3.10237
3.11344
3.12176
3.12834
3.13202
3.13355
3.13301
3.13219
3.13348
3.13609
3.13875
3.14181
3.14475
3.14778
3.15058
3.15292
3.1543
3.15416
3.1521
3.14779
3.14129
3.13318
3.13
3.133
3.14007
3.14837
3.15767
3.16817
3.17981
3.18966
3.19724
3.20323
3.2082
3.21214
3.21504
3.21729
3.2203
3.22382
3.22775
3.23168
3.23536
3.23821
3.23941
3.23825
3.23464
3.22799
3.22379
3.22534
3.23064
3.23801
3.24587
3.25467
3.2638
3.2718
3.27736
3.28146
3.28353
3.28206
3.27604
3.26731
3.26667
3.27184
3.27963
3.28961
3.29769
3.30264
3.30463
3.30271
3.30225
3.307
3.31238
3.31714
3.3208
3.32358
3.3273
3.33129
3.33544
3.33948
3.34335
3.34721
3.34961
3.34569
3.33027
3.32208
1
1
1
1
1
1
1
1
1
1
1
1
1
1
1
1
1
1
1
1
1
1
1.00001
0.994663
2.34839
3.10988
3.20974
3.20615
3.1955
3.17664
3.15148
3.12816
3.12132
3.12391
3.12869
3.13264
3.1361
3.1384
3.13956
3.13915
3.13934
3.14083
3.14331
3.1477
3.15217
3.15886
3.165
3.17166
3.17949
3.18662
3.19237
3.19723
3.20037
3.20125
3.19927
3.19441
3.18685
3.17916
3.17474
3.17379
3.17653
3.18105
3.18665
3.19237
3.19764
3.20243
3.20601
3.20833
3.20953
3.21051
3.21281
3.21584
3.21929
3.22314
3.22714
3.23088
3.2338
3.23523
3.23442
3.23114
3.22552
3.22377
3.2268
3.23259
3.23991
3.2475
3.25515
3.26264
3.26921
3.27434
3.27831
3.28006
3.27857
3.27307
3.26575
3.26585
3.27114
3.27855
3.28784
3.29534
3.30017
3.30205
3.30022
3.29993
3.30466
3.30995
3.31457
3.31807
3.32068
3.32422
3.32805
3.33204
3.33602
3.33978
3.34359
3.34652
3.3432
3.3309
3.3294
1
1
1
1
1
1
1
1
1
1
1
1
1
1
1
1
1
1
1
1
1
1
1
0.997256
1.80027
2.8626
2.92629
2.93002
2.9439
2.9669
2.99612
3.02802
3.0596
3.08235
3.09745
3.10808
3.11721
3.12431
3.12885
3.13068
3.13083
3.12959
3.12989
3.13125
3.13419
3.13674
3.13955
3.14212
3.14457
3.1465
3.14771
3.14781
3.14658
3.14405
3.13951
3.13647
3.13727
3.14162
3.14803
3.15536
3.16392
3.17303
3.18279
3.19129
3.19712
3.20186
3.20559
3.20821
3.20949
3.20957
3.21013
3.21227
3.21521
3.21856
3.22212
3.22564
3.22858
3.23035
3.23022
3.22795
3.22413
3.22402
3.228
3.23411
3.24128
3.2486
3.25561
3.26217
3.26769
3.27226
3.27536
3.27641
3.2749
3.27001
3.26457
3.26551
3.27089
3.27796
3.28663
3.29342
3.29799
3.29957
3.29763
3.29766
3.30241
3.30758
3.31199
3.31528
3.31771
3.32106
3.32469
3.32849
3.33238
3.33604
3.33967
3.34292
3.34039
3.33086
3.33835
1
1
1
1
1
1
1
1
1
1
1
1
1
1
1
1
1
1
1
1
1
1
1.00001
0.994869
2.28356
3.10439
3.18239
3.16953
3.15488
3.13991
3.12425
3.11844
3.11998
3.1232
3.12714
3.1309
3.13425
3.1367
3.13787
3.13771
3.13743
3.13818
3.13986
3.1428
3.14578
3.14961
3.15372
3.15789
3.16212
3.16611
3.16943
3.17162
3.17229
3.1711
3.16822
3.1636
3.16132
3.16198
3.16445
3.16856
3.17458
3.18056
3.18672
3.19248
3.1972
3.20109
3.20386
3.20564
3.20654
3.20631
3.20603
3.20729
3.20996
3.21325
3.21656
3.2197
3.22246
3.22435
3.22489
3.2239
3.22302
3.22482
3.22945
3.23566
3.24226
3.24898
3.25528
3.26085
3.26544
3.26893
3.27109
3.2715
3.27013
3.26611
3.26285
3.2648
3.27039
3.27733
3.28543
3.29156
3.29572
3.29686
3.29477
3.29524
3.30003
3.30506
3.30926
3.31232
3.31464
3.3178
3.32123
3.32484
3.32859
3.33203
3.33556
3.33887
3.33703
3.32991
3.34798
1
1
1
1
1
1
1
1
1
1
1
1
1
1
1
1
1
1
1
1
1
1
1
0.997694
1.6931
2.84447
2.92697
2.94927
2.97452
3.00748
3.04201
3.06777
3.0843
3.09611
3.10571
3.11393
3.11988
3.12427
3.12636
3.127
3.12631
3.12472
3.1249
3.12558
3.12737
3.12851
3.12922
3.12978
3.13026
3.13063
3.13128
3.13187
3.13228
3.13335
3.13618
3.13992
3.14493
3.15108
3.15754
3.16483
3.17289
3.1808
3.18754
3.19328
3.19837
3.20228
3.20461
3.20526
3.20462
3.20252
3.20076
3.20103
3.20272
3.20543
3.20854
3.21163
3.21448
3.21676
3.21829
3.21928
3.22144
3.22546
3.23144
3.23813
3.2446
3.25079
3.25638
3.26095
3.26432
3.26646
3.26753
3.2674
3.266
3.26263
3.26135
3.26422
3.26994
3.27679
3.28411
3.28969
3.29331
3.2939
3.29165
3.29275
3.29756
3.30244
3.30638
3.30914
3.31138
3.31436
3.31759
3.321
3.32459
3.32776
3.33119
3.33435
3.33321
3.32762
3.35406
1
1
1
1
1
1
1
1
1
1
1
1
1
1
1
1
1
1
1
1
1
1
1.00001
0.99645
2.09637
3.02624
3.10634
3.10029
3.09775
3.09885
3.10218
3.10587
3.10997
3.11494
3.11952
3.12353
3.12686
3.12901
3.12886
3.12719
3.12441
3.12274
3.12226
3.12268
3.12382
3.12493
3.12598
3.12706
3.1282
3.12927
3.13028
3.13133
3.1323
3.13334
3.13607
3.13997
3.14484
3.15077
3.15726
3.16454
3.17235
3.17971
3.18613
3.19205
3.19732
3.20104
3.20317
3.20318
3.20114
3.19741
3.19386
3.19293
3.19387
3.19604
3.19893
3.20215
3.20524
3.20808
3.21053
3.21321
3.21733
3.22317
3.23033
3.23746
3.24426
3.25051
3.25597
3.25991
3.2623
3.26313
3.26273
3.2618
3.26044
3.25857
3.25914
3.26282
3.26868
3.27553
3.2819
3.28715
3.29027
3.29033
3.2882
3.29014
3.295
3.29974
3.30339
3.30581
3.30802
3.31073
3.31374
3.31693
3.32027
3.32314
3.32644
3.32932
3.32882
3.32452
3.35699
1
1
1
1
1
1
1
1
1
1
1
1
1
1
1
1
1
1
1
1
1
1
1
0.997831
1.69686
2.87527
2.99368
3.01462
3.03914
3.05927
3.07506
3.08794
3.09723
3.10392
3.10902
3.11333
3.11608
3.11784
3.11719
3.11488
3.11069
3.10808
3.10787
3.10848
3.11023
3.11181
3.11363
3.11569
3.1181
3.12059
3.12305
3.12562
3.12853
3.13235
3.13719
3.14302
3.14916
3.15573
3.16299
3.17062
3.17727
3.18347
3.18924
3.1943
3.19835
3.2008
3.20179
3.20095
3.19814
3.19373
3.18925
3.18732
3.18742
3.18897
3.19161
3.19503
3.19876
3.20248
3.20568
3.2093
3.21466
3.2216
3.22926
3.23656
3.24348
3.24954
3.25472
3.25792
3.25923
3.25837
3.25649
3.25571
3.25514
3.25521
3.25728
3.26161
3.26758
3.27418
3.28016
3.28483
3.2873
3.28679
3.28504
3.28786
3.29263
3.29712
3.30038
3.30237
3.30448
3.30695
3.30975
3.3127
3.3157
3.3183
3.3214
3.3239
3.32391
3.32088
3.35668
1
1
1
1
1
1
1
1
1
1
1
1
1
1
1
1
1
1
1
1
1
1
1
0.997668
1.79805
2.92849
3.03712
3.04537
3.05759
3.07048
3.08049
3.08754
3.09315
3.09831
3.1028
3.10665
3.10908
3.10925
3.10679
3.10235
3.09841
3.09697
3.09749
3.09913
3.10143
3.10361
3.10604
3.10869
3.11143
3.11428
3.11712
3.12019
3.12427
3.12917
3.13488
3.14134
3.14774
3.15469
3.16216
3.16983
3.17641
3.18255
3.18831
3.19332
3.19708
3.19919
3.19967
3.19807
3.1943
3.18866
3.18295
3.18024
3.18008
3.18181
3.18508
3.18946
3.19398
3.19842
3.20266
3.20743
3.21356
3.22097
3.22856
3.23596
3.24277
3.24861
3.25322
3.25554
3.25565
3.25294
3.25016
3.24965
3.25019
3.2521
3.25545
3.26033
3.26633
3.27255
3.27806
3.2821
3.28386
3.28272
3.28179
3.28549
3.29018
3.29433
3.29718
3.29875
3.30069
3.30298
3.30561
3.30835
3.31102
3.31335
3.31617
3.31825
3.31862
3.31639
3.35356
1
1
1
1
1
1
1
1
1
1
1
1
1
1
1
1
1
1
1
1
1
1
1
0.997898
1.73451
2.9104
3.03863
3.05362
3.06859
3.08328
3.09429
3.10206
3.10689
3.10987
3.11197
3.11328
3.11177
3.10851
3.10332
3.09978
3.09831
3.09879
3.10018
3.10245
3.10454
3.1072
3.11002
3.11282
3.11559
3.11832
3.1209
3.12364
3.12704
3.1314
3.13653
3.14214
3.14827
3.15475
3.16121
3.16769
3.17363
3.17922
3.18417
3.1882
3.19105
3.19233
3.19194
3.18945
3.18487
3.1786
3.17328
3.17101
3.17144
3.17369
3.17743
3.18229
3.18781
3.1937
3.19976
3.20629
3.21356
3.22127
3.22895
3.23608
3.24257
3.24773
3.25147
3.25227
3.25065
3.24605
3.24313
3.24326
3.24546
3.24917
3.25355
3.25891
3.2652
3.27062
3.27559
3.27878
3.27949
3.27799
3.27831
3.28272
3.28731
3.29105
3.29347
3.29471
3.29645
3.29861
3.3011
3.30359
3.3059
3.30795
3.31043
3.31212
3.31275
3.31115
3.34914
1
1
1
1
1
1
1
1
1
1
1
1
1
1
1
1
1
1
1
1
1
1
1
0.998172
1.66521
2.8942
3.03036
3.04553
3.06075
3.07467
3.08532
3.09149
3.09633
3.09955
3.10178
3.10243
3.10043
3.09668
3.09253
3.09092
3.09176
3.09395
3.09693
3.09984
3.1028
3.10548
3.10815
3.11084
3.11355
3.11628
3.11924
3.12295
3.12724
3.13218
3.13777
3.14407
3.15091
3.15791
3.1649
3.17108
3.17679
3.182
3.18625
3.1892
3.19049
3.18986
3.18719
3.18239
3.17614
3.1696
3.16565
3.16442
3.16547
3.16788
3.17158
3.17665
3.18272
3.18943
3.19652
3.20403
3.2121
3.2204
3.22815
3.23508
3.24119
3.24567
3.24839
3.24777
3.24456
3.23845
3.23556
3.2367
3.24051
3.24514
3.25068
3.25706
3.26342
3.26852
3.27281
3.27505
3.27481
3.27348
3.27507
3.27978
3.2843
3.28756
3.28949
3.29046
3.292
3.29401
3.29633
3.29854
3.30047
3.30224
3.30433
3.30561
3.30637
3.30539
3.34328
1
1
1
1
1
1
1
1
1
1
1
1
1
1
1
1
1
1
1
1
1
1
1
0.998362
1.61738
2.88599
3.03713
3.05254
3.06546
3.07663
3.08407
3.08948
3.09274
3.09514
3.09541
3.09411
3.09078
3.08639
3.08398
3.08421
3.08634
3.08943
3.09261
3.09576
3.0987
3.10152
3.1041
3.10648
3.1086
3.11131
3.11487
3.11906
3.1239
3.12954
3.13575
3.14262
3.14987
3.15745
3.16419
3.17015
3.17559
3.18044
3.18423
3.18657
3.18703
3.18534
3.18121
3.17509
3.16771
3.16227
3.15952
3.15931
3.16107
3.16366
3.16741
3.17271
3.17911
3.18608
3.1934
3.20133
3.21001
3.21897
3.22682
3.23358
3.23927
3.24316
3.24479
3.24275
3.23787
3.23051
3.22792
3.23039
3.235
3.24028
3.24668
3.25402
3.26028
3.26511
3.26884
3.27015
3.26913
3.26863
3.27141
3.2763
3.28077
3.28361
3.28507
3.28595
3.2873
3.2892
3.29135
3.29326
3.29484
3.29629
3.29795
3.29881
3.29957
3.29889
3.33619
1
1
1
1
1
1
1
1
1
1
1
1
1
1
1
1
1
1
1
1
1
1
1
0.998629
1.5419
2.86516
3.03673
3.05266
3.06503
3.07552
3.08211
3.08695
3.08929
3.09025
3.08811
3.08405
3.07858
3.07548
3.07609
3.0786
3.08216
3.086
3.08946
3.09277
3.09563
3.09841
3.10072
3.10279
3.10456
3.10744
3.1111
3.11545
3.12056
3.12658
3.13312
3.14017
3.14766
3.15486
3.16119
3.16679
3.1719
3.17632
3.17963
3.18139
3.18117
3.17867
3.17363
3.16672
3.15939
3.15494
3.1534
3.15435
3.15712
3.16032
3.16435
3.16975
3.1761
3.18291
3.19015
3.19816
3.20684
3.21601
3.22388
3.23047
3.23585
3.23937
3.24015
3.23709
3.23074
3.22275
3.22094
3.22458
3.22959
3.23554
3.24277
3.25085
3.2569
3.26148
3.26452
3.26479
3.26343
3.26398
3.26778
3.27273
3.27702
3.27944
3.28041
3.28123
3.28242
3.28415
3.2861
3.28763
3.28887
3.28997
3.29121
3.29165
3.29232
3.29186
3.3283
1
1
1
1
1
1
1
1
1
1
1
1
1
1
1
1
1
1
1
1
1
1
1
0.998833
1.48539
2.85173
3.04037
3.05584
3.06633
3.07408
3.0794
3.08366
3.08478
3.08348
3.07902
3.07277
3.06911
3.0689
3.07164
3.07541
3.07983
3.08402
3.08769
3.09104
3.09391
3.09641
3.09857
3.10007
3.10205
3.10524
3.10898
3.11363
3.11909
3.12562
3.13257
3.13993
3.14693
3.15324
3.15883
3.164
3.1685
3.1721
3.17446
3.17512
3.17375
3.17008
3.16429
3.15701
3.15073
3.14762
3.14732
3.14923
3.15278
3.15692
3.16168
3.16731
3.17361
3.18017
3.18724
3.19513
3.20365
3.21282
3.22057
3.22703
3.23208
3.23508
3.23495
3.23113
3.2234
3.21548
3.21484
3.21926
3.22462
3.2312
3.23926
3.2477
3.25338
3.25759
3.25981
3.2589
3.25766
3.25915
3.26381
3.26879
3.2728
3.27478
3.27538
3.2761
3.27723
3.27885
3.28053
3.28167
3.28257
3.28331
3.28418
3.28412
3.28445
3.28444
3.31968
1
1
1
1
1
1
1
1
1
1
1
1
1
1
1
1
1
1
1
1
1
1
1
0.999045
1.4209
2.83549
3.04457
3.05801
3.06494
3.07002
3.0754
3.07854
3.07769
3.0733
3.06616
3.06152
3.06115
3.06351
3.06798
3.07261
3.07726
3.08132
3.08501
3.08817
3.09108
3.09361
3.09559
3.09821
3.10138
3.10499
3.10913
3.11437
3.12022
3.12682
3.13413
3.14112
3.14704
3.15249
3.15749
3.16182
3.16521
3.16745
3.16821
3.16723
3.16452
3.15988
3.15376
3.14675
3.1419
3.14005
3.14076
3.1434
3.14747
3.15243
3.15807
3.16417
3.17062
3.17717
3.18433
3.19213
3.20052
3.20939
3.21673
3.22295
3.22755
3.22987
3.22875
3.22415
3.21523
3.20819
3.20899
3.21397
3.21973
3.22688
3.23564
3.24408
3.24928
3.25306
3.25443
3.25242
3.25162
3.25407
3.25923
3.26449
3.26813
3.26973
3.2701
3.27071
3.27176
3.27332
3.27465
3.27537
3.27592
3.27629
3.27681
3.27626
3.27623
3.27662
3.31046
1
1
1
1
1
1
1
1
1
1
1
1
1
1
1
1
1
1
1
1
1
1
1
0.999244
1.35714
2.81965
3.0484
3.05823
3.0616
3.0661
3.07091
3.07144
3.06731
3.05949
3.05425
3.0535
3.05565
3.05967
3.06484
3.06979
3.07438
3.07852
3.08189
3.08519
3.088
3.09054
3.09391
3.0973
3.10112
3.10539
3.11038
3.11589
3.12203
3.12879
3.13583
3.14132
3.14652
3.15121
3.1553
3.15843
3.1604
3.16102
3.16016
3.15781
3.1541
3.14907
3.14305
3.13727
3.13393
3.13325
3.13482
3.13794
3.14245
3.14808
3.15422
3.16059
3.16727
3.17416
3.1817
3.18974
3.19823
3.20645
3.21327
3.21917
3.22318
3.22467
3.22249
3.21696
3.20707
3.20157
3.20382
3.2092
3.21536
3.22299
3.23226
3.2404
3.2451
3.24833
3.24877
3.24584
3.24551
3.24887
3.25436
3.25984
3.26309
3.26435
3.26458
3.26508
3.26606
3.26758
3.26852
3.26889
3.26908
3.26906
3.26926
3.26817
3.26776
3.26834
3.30056
1
1
1
1
1
1
1
1
1
1
1
1
1
1
1
1
1
1
1
1
1
1
1
0.99943
1.29173
2.80119
3.04845
3.05456
3.05821
3.06206
3.06363
3.06042
3.05219
3.04634
3.04529
3.04749
3.05168
3.0565
3.06153
3.06622
3.07069
3.0746
3.07821
3.08165
3.08504
3.08899
3.09296
3.09718
3.10169
3.10666
3.11196
3.11767
3.12359
3.12967
3.13512
3.13979
3.14421
3.14802
3.15093
3.15266
3.15311
3.15223
3.15005
3.14677
3.14247
3.13732
3.13212
3.1282
3.12651
3.127
3.1293
3.13278
3.13775
3.14369
3.14986
3.15634
3.16323
3.1706
3.17861
3.18706
3.19566
3.20307
3.20952
3.21496
3.21823
3.21872
3.21533
3.20855
3.1984
3.19473
3.19828
3.20401
3.21073
3.219
3.22878
3.23642
3.24069
3.24329
3.24263
3.23914
3.23933
3.24338
3.24918
3.25484
3.25776
3.25873
3.25891
3.25922
3.26015
3.2615
3.262
3.26201
3.26179
3.26137
3.26116
3.25953
3.25876
3.25948
3.29017
1
1
1
1
1
1
1
1
1
1
1
1
1
1
1
1
1
1
1
1
1
1
1
0.999605
1.22645
2.77633
3.04114
3.05165
3.05468
3.05557
3.0523
3.04412
3.03819
3.03724
3.03949
3.04384
3.04838
3.05296
3.05768
3.06225
3.06652
3.07086
3.07504
3.07972
3.08429
3.08884
3.09355
3.09849
3.10366
3.10894
3.11438
3.11984
3.12498
3.12951
3.13331
3.13709
3.14048
3.14304
3.14446
3.14466
3.14364
3.14151
3.13849
3.13454
3.12996
3.12548
3.12184
3.11982
3.1197
3.12131
3.12431
3.12828
3.1337
3.13963
3.14573
3.15226
3.15927
3.16715
3.17563
3.18474
3.19304
3.19988
3.20607
3.21095
3.21341
3.21268
3.20807
3.19962
3.19008
3.18819
3.19272
3.1987
3.20588
3.21474
3.22483
3.23182
3.23572
3.23758
3.23573
3.23193
3.23273
3.23732
3.24337
3.24904
3.25161
3.25234
3.2525
3.25276
3.25376
3.25488
3.25502
3.25468
3.25412
3.2533
3.25269
3.25056
3.24937
3.25013
3.27927
1
1
1
1
1
1
1
1
1
1
1
1
1
1
1
1
1
1
1
1
1
1
1
0.999769
1.1582
2.73019
3.03359
3.05182
3.04933
3.04438
3.03518
3.02902
3.02844
3.03132
3.03561
3.03976
3.04414
3.04868
3.05316
3.05775
3.06288
3.06821
3.07397
3.07946
3.08461
3.08979
3.09531
3.10095
3.10641
3.11172
3.11648
3.12071
3.12454
3.12755
3.13041
3.13284
3.13462
3.13551
3.13537
3.1342
3.13209
3.12919
3.12553
3.12125
3.11733
3.11413
3.11223
3.11193
3.11313
3.1157
3.11934
3.12391
3.12961
3.13546
3.14155
3.14805
3.15525
3.16342
3.17219
3.18136
3.18897
3.19542
3.20125
3.2054
3.20692
3.20502
3.19954
3.18989
3.18179
3.18154
3.18688
3.19319
3.20091
3.21044
3.22063
3.22707
3.23059
3.23162
3.22853
3.22474
3.22616
3.23111
3.23741
3.24292
3.24515
3.24563
3.2457
3.24597
3.24702
3.24787
3.24767
3.24699
3.24609
3.24486
3.24388
3.24123
3.23952
3.24037
3.26804
1
1
1
1
1
1
1
1
1
1
1
1
1
1
1
1
1
1
1
1
1
1
1
0.999909
1.08306
2.64903
3.03358
3.05069
3.03893
3.02588
3.01949
3.01916
3.02274
3.02738
3.03144
3.03591
3.04007
3.04432
3.04932
3.05519
3.06146
3.06799
3.07426
3.08041
3.08643
3.09251
3.0986
3.10422
3.10922
3.11369
3.11739
3.12038
3.12261
3.12455
3.12576
3.1262
3.12595
3.1251
3.12372
3.12167
3.11888
3.11539
3.11155
3.10823
3.10553
3.10375
3.1035
3.10459
3.10682
3.11014
3.11436
3.11958
3.12537
3.13124
3.13744
3.14407
3.15161
3.15994
3.16899
3.17759
3.18449
3.1906
3.1959
3.19921
3.19974
3.19665
3.19032
3.1799
3.17365
3.17488
3.1808
3.18743
3.19562
3.20576
3.2158
3.22184
3.225
3.22521
3.22093
3.21759
3.21957
3.22477
3.23138
3.23661
3.23852
3.23881
3.23873
3.239
3.24006
3.24055
3.24005
3.23905
3.23778
3.23611
3.23475
3.23155
3.22931
3.23024
3.25639
1
1
1
1
1
1
1
1
1
1
1
1
1
1
1
1
1
1
1
1
1
1
1
1
1.00656
2.55811
3.04086
3.03787
3.01823
3.00946
3.00963
3.01329
3.01858
3.02284
3.02711
3.03143
3.03566
3.04141
3.04805
3.05485
3.06172
3.06906
3.07632
3.08366
3.09021
3.09626
3.10176
3.10643
3.11038
3.11391
3.11649
3.11795
3.1189
3.11894
3.1181
3.11654
3.11453
3.11236
3.11004
3.10721
3.10356
3.10047
3.09819
3.09625
3.0949
3.09458
3.09566
3.09772
3.10072
3.10449
3.10923
3.11488
3.12072
3.12672
3.13313
3.14017
3.14813
3.15663
3.16563
3.17326
3.17953
3.18521
3.18978
3.19208
3.19142
3.18713
3.17983
3.16977
3.16546
3.16795
3.17425
3.18127
3.18991
3.20056
3.21021
3.21589
3.2187
3.21816
3.21286
3.21021
3.2127
3.21808
3.22496
3.22984
3.23143
3.23156
3.23134
3.23175
3.23275
3.233
3.23215
3.23078
3.22912
3.22697
3.22521
3.22159
3.21868
3.21968
3.24452
1
1
1
1
1
1
1
1
1
1
1
1
1
1
1
1
1
1
1
1
1
1
1
1.00001
0.992953
2.49701
3.02628
3.01049
3.00035
3.0004
3.00386
3.00917
3.01356
3.01799
3.02204
3.02686
3.03355
3.04103
3.0485
3.05642
3.06469
3.07346
3.08147
3.08861
3.09421
3.0989
3.10326
3.10682
3.10952
3.11175
3.11269
3.1127
3.11167
3.10964
3.10693
3.10385
3.10054
3.09705
3.09358
3.09016
3.08781
3.08673
3.08574
3.0852
3.08528
3.08629
3.08836
3.09116
3.09477
3.09884
3.10403
3.10973
3.11567
3.12194
3.12875
3.13646
3.14479
3.15362
3.16183
3.1685
3.17429
3.17943
3.18305
3.18413
3.1821
3.1767
3.16828
3.15994
3.15755
3.16105
3.1677
3.17511
3.18419
3.19521
3.20439
3.20961
3.21196
3.21065
3.2045
3.2026
3.20553
3.21111
3.21823
3.22265
3.22389
3.22386
3.22352
3.22403
3.22494
3.22497
3.22382
3.22213
3.2201
3.21748
3.21524
3.21131
3.20783
3.20866
3.23221
1
1
1
1
1
1
1
1
1
1
1
1
1
1
1
1
1
1
1
1
1
1
1
1.00001
0.994685
2.44541
2.97266
2.98944
2.99164
2.99477
2.99911
3.00404
3.00818
3.01284
3.01813
3.02602
3.03417
3.04283
3.05169
3.0619
3.07148
3.0804
3.08615
3.09146
3.09537
3.09881
3.10187
3.10423
3.10564
3.10576
3.10472
3.10264
3.09972
3.09623
3.09225
3.08776
3.08307
3.07878
3.07583
3.07459
3.0739
3.07399
3.07432
3.07516
3.07655
3.07863
3.0814
3.08479
3.08896
3.09343
3.09887
3.10457
3.11062
3.11721
3.12463
3.13291
3.1416
3.15033
3.15746
3.16341
3.16878
3.17314
3.17557
3.17527
3.17174
3.16537
3.1563
3.15046
3.14992
3.15426
3.16118
3.16894
3.17845
3.18962
3.19826
3.203
3.20481
3.20265
3.19591
3.19483
3.19819
3.20402
3.21131
3.21519
3.21604
3.21577
3.21532
3.21588
3.21667
3.21646
3.21501
3.21301
3.21064
3.20751
3.20472
3.20063
3.19648
3.19706
3.21965
1
1
1
1
1
1
1
1
1
1
1
1
1
1
1
1
1
1
1
1
1
1
1
1.00001
0.995633
2.32399
2.94663
2.98253
2.98602
2.98907
2.99328
2.99826
3.00414
3.01073
3.01996
3.02956
3.03916
3.0503
3.06082
3.07102
3.07728
3.08288
3.08656
3.09019
3.09288
3.095
3.09633
3.09649
3.09566
3.0935
3.09085
3.08761
3.08341
3.07859
3.07326
3.06806
3.06433
3.06221
3.06101
3.06073
3.06098
3.06211
3.06368
3.06569
3.06823
3.07114
3.07446
3.07839
3.08309
3.08808
3.09364
3.0995
3.10587
3.11297
3.12094
3.12943
3.13834
3.14607
3.15237
3.1579
3.16276
3.16625
3.16735
3.16543
3.16029
3.15266
3.14442
3.14111
3.14224
3.14734
3.1546
3.16277
3.17271
3.18394
3.19197
3.19628
3.19744
3.19436
3.18733
3.18707
3.19077
3.19689
3.20418
3.2074
3.20783
3.20734
3.20683
3.20743
3.20813
3.20766
3.20589
3.20356
3.20085
3.19719
3.19394
3.18954
3.18474
3.18502
3.20645
1
1
1
1
1
1
1
1
1
1
1
1
1
1
1
1
1
1
1
1
1
1
1
1
0.996637
2.16667
2.93042
2.97685
2.97963
2.98331
2.98919
2.99655
3.00581
3.01691
3.02776
3.04044
3.05133
3.06113
3.06692
3.07239
3.07649
3.08011
3.08256
3.0841
3.08462
3.08427
3.08346
3.08168
3.0793
3.07625
3.07235
3.06766
3.06205
3.05701
3.05306
3.05052
3.04902
3.04819
3.04776
3.0483
3.04962
3.05174
3.05431
3.0572
3.06068
3.0642
3.0681
3.07265
3.07775
3.08311
3.08888
3.09507
3.1019
3.1094
3.11777
3.12644
3.13472
3.14133
3.14712
3.15218
3.15626
3.15834
3.15763
3.15395
3.14763
3.13907
3.133
3.13212
3.13466
3.14046
3.14806
3.15665
3.16692
3.17794
3.18525
3.18908
3.18949
3.18534
3.17833
3.17888
3.18291
3.18951
3.19687
3.19955
3.19962
3.19888
3.19827
3.19885
3.19935
3.19854
3.19643
3.19378
3.19076
3.18658
3.18283
3.17814
3.17253
3.17242
3.19307
1
1
1
1
1
1
1
1
1
1
1
1
1
1
1
1
1
1
1
1
1
1
1
1
0.997577
1.98226
2.91024
2.97299
2.97605
2.98182
2.99134
3.00325
3.01677
3.03138
3.04207
3.05077
3.05611
3.06104
3.065
3.06813
3.07013
3.07087
3.07074
3.06989
3.06841
3.0668
3.06492
3.06175
3.05788
3.05337
3.04824
3.04385
3.04048
3.0383
3.03684
3.0361
3.03567
3.03568
3.03647
3.03805
3.04009
3.04291
3.0462
3.04981
3.05397
3.05817
3.06285
3.0679
3.07328
3.07907
3.08528
3.09196
3.09907
3.10706
3.11543
3.12359
3.13055
3.13646
3.14176
3.14594
3.14848
3.14865
3.14626
3.14125
3.13403
3.12574
3.12218
3.12344
3.12717
3.13357
3.14151
3.15062
3.16118
3.17179
3.1784
3.18168
3.18131
3.17597
3.1693
3.17053
3.17479
3.18181
3.18895
3.19107
3.19071
3.18976
3.18911
3.18971
3.19005
3.18896
3.18652
3.18357
3.18025
3.17551
3.17127
3.16629
3.15998
3.1595
3.17906
1
1
1
1
1
1
1
1
1
1
1
1
1
1
1
1
1
1
1
1
1
1
1
1
0.998411
1.76993
2.88237
2.97538
2.98178
2.99196
3.00626
3.0203
3.03111
3.03842
3.04406
3.04834
3.05147
3.05348
3.0547
3.05532
3.05496
3.05357
3.0515
3.04896
3.0455
3.04218
3.03865
3.03428
3.03034
3.02736
3.02556
3.02446
3.02394
3.02374
3.02342
3.02364
3.02444
3.02579
3.02743
3.02973
3.03277
3.03639
3.04035
3.04465
3.04938
3.05423
3.05936
3.06479
3.07049
3.07659
3.0832
3.09039
3.0978
3.1058
3.11368
3.12043
3.12614
3.13113
3.1352
3.13782
3.13874
3.13721
3.13331
3.12727
3.11945
3.11307
3.112
3.11505
3.11979
3.12671
3.13497
3.14456
3.15547
3.1655
3.17149
3.17406
3.17289
3.16623
3.1602
3.16198
3.16646
3.17394
3.1807
3.18229
3.18155
3.18039
3.1797
3.18027
3.18034
3.17891
3.17611
3.17288
3.16931
3.16411
3.15935
3.15409
3.14699
3.14596
3.16458
1
1
1
1
1
1
1
1
1
1
1
1
1
1
1
1
1
1
1
1
1
1
1
1
0.999028
1.5678
2.84631
2.98236
2.99597
3.01063
3.02017
3.02643
3.03063
3.03357
3.03632
3.03812
3.03915