/*--------------------------------*- C++ -*----------------------------------*\
| =========                 |                                                 |
| \\      /  F ield         | OpenFOAM: The Open Source CFD Toolbox           |
|  \\    /   O peration     | Version:  2.2.x                                 |
|   \\  /    A nd           | Web:      www.OpenFOAM.org                      |
|    \\/     M anipulation  |                                                 |
\*---------------------------------------------------------------------------*/
FoamFile
{
    version     2.0;
    format      ascii;
    class       volScalarField;
    location    "0.65";
    object      By;
}
// * * * * * * * * * * * * * * * * * * * * * * * * * * * * * * * * * * * * * //

dimensions      [1 0 -2 0 0 -1 0];

internalField   uniform 0;

boundaryField
{
    Inlet
    {
        type            fixedValue;
        value           uniform 0;
    }
    cilindro
    {
        type            zeroGradient;
    }
    front_back
    {
        type            empty;
    }
    outlet
    {
        type            zeroGradient;
    }
    simetria
    {
        type            fixedValue;
        value           uniform 0;
    }
}


// ************************************************************************* //
