/*--------------------------------*- C++ -*----------------------------------*\
| =========                 |                                                 |
| \\      /  F ield         | OpenFOAM: The Open Source CFD Toolbox           |
|  \\    /   O peration     | Version:  2.2.x                                 |
|   \\  /    A nd           | Web:      www.OpenFOAM.org                      |
|    \\/     M anipulation  |                                                 |
\*---------------------------------------------------------------------------*/
FoamFile
{
    version     2.0;
    format      ascii;
    class       volScalarField;
    location    "0.65";
    object      p;
}
// * * * * * * * * * * * * * * * * * * * * * * * * * * * * * * * * * * * * * //

dimensions      [1 -1 -2 0 0 0 0];

internalField   nonuniform List<scalar> 
14161
(
0.2
0.2
0.2
0.2
0.2
0.2
0.2
0.2
0.2
0.2
0.2
0.2
0.2
0.2
0.2
0.2
0.2
0.2
0.2
0.2
0.2
0.2
0.2
0.2
0.2
0.2
0.2
0.2
0.2
0.2
0.199888
0.942769
1.71254
1.76443
1.77041
1.78207
1.79168
1.8015
1.80993
1.81705
1.82364
1.82884
1.83425
1.83884
1.84212
1.84443
1.8464
1.84889
1.85215
1.85629
1.8616
1.86815
1.87385
1.8789
1.88284
1.88578
1.88765
1.88851
1.89035
1.89276
1.89557
1.89926
1.90432
1.91083
1.91906
1.9284
1.93768
1.94642
1.95309
1.95896
1.9627
1.96608
1.96898
1.97086
1.97353
1.97647
1.97961
1.98305
1.98685
1.99151
1.99713
2.0035
2.00962
2.01586
2.02164
2.02676
2.03093
2.03436
2.03714
2.03943
2.0416
2.0435
2.04512
2.04674
2.04873
2.05166
2.05536
2.06007
2.065
2.06974
2.07442
2.08123
2.08901
2.09725
2.10572
2.11343
2.11959
2.12368
2.12583
2.12637
2.12512
2.12389
2.12376
2.12483
2.12737
2.13053
2.13301
2.13547
2.13697
0.2
0.2
0.2
0.2
0.2
0.2
0.2
0.2
0.2
0.2
0.2
0.2
0.2
0.2
0.2
0.2
0.2
0.2
0.2
0.2
0.2
0.2
0.2
0.2
0.2
0.2
0.2
0.2
0.2
0.2
0.199699
1.00789
1.71883
1.76999
1.77324
1.78298
1.7914
1.80141
1.81064
1.819
1.82757
1.83485
1.8404
1.8438
1.84597
1.84815
1.85046
1.85332
1.85716
1.86183
1.86683
1.87273
1.87739
1.88195
1.88544
1.88855
1.89098
1.893
1.89538
1.89831
1.90176
1.90642
1.91222
1.91901
1.92704
1.93588
1.94441
1.95246
1.95914
1.9647
1.96819
1.97135
1.97413
1.97629
1.97858
1.98114
1.98395
1.9872
1.9911
1.9959
2.00157
2.00762
2.01387
2.01995
2.02562
2.03071
2.03513
2.0388
2.04187
2.04453
2.0469
2.04887
2.05058
2.05239
2.0546
2.05764
2.06156
2.06638
2.07126
2.07595
2.08097
2.08436
2.09337
2.10169
2.11019
2.11773
2.12358
2.12737
2.12927
2.12959
2.12799
2.12649
2.1261
2.12672
2.1288
2.13163
2.1342
2.13635
2.13754
0.2
0.2
0.2
0.2
0.2
0.2
0.2
0.2
0.2
0.2
0.2
0.2
0.2
0.2
0.2
0.2
0.2
0.2
0.2
0.2
0.2
0.2
0.2
0.2
0.2
0.2
0.2
0.2
0.2
0.2
0.199635
0.901065
1.70232
1.76683
1.77808
1.79143
1.80226
1.81122
1.81846
1.82562
1.83175
1.83659
1.84014
1.84356
1.84669
1.84938
1.85134
1.85425
1.8581
1.86282
1.86862
1.87481
1.8802
1.88472
1.88855
1.89152
1.89363
1.89503
1.8966
1.89892
1.90175
1.90555
1.91099
1.91837
1.92718
1.93669
1.9458
1.95406
1.96112
1.96722
1.97178
1.97618
1.97887
1.98205
1.98523
1.98811
1.99108
1.99436
1.99843
2.00331
2.00902
2.01526
2.02154
2.0275
2.03306
2.03796
2.0421
2.04558
2.04841
2.05037
2.05196
2.05298
2.0539
2.05459
2.05601
2.05836
2.06177
2.06601
2.07032
2.07514
2.07959
2.08548
2.09321
2.10129
2.10959
2.11716
2.12314
2.12707
2.1291
2.12952
2.1281
2.12666
2.12626
2.12688
2.12895
2.1318
2.13428
2.13625
2.13804
0.2
0.2
0.2
0.2
0.2
0.2
0.2
0.2
0.2
0.2
0.2
0.2
0.2
0.2
0.2
0.2
0.2
0.2
0.2
0.2
0.2
0.2
0.2
0.2
0.2
0.2
0.2
0.2
0.2
0.2
0.19938
0.993748
1.71441
1.77175
1.77526
1.78328
1.79162
1.80023
1.80962
1.81806
1.82559
1.83241
1.83809
1.84275
1.846
1.84904
1.85197
1.85487
1.85841
1.86271
1.86801
1.87347
1.87861
1.8829
1.88659
1.88965
1.89212
1.89439
1.89686
1.89964
1.90296
1.90705
1.91203
1.91853
1.92671
1.93569
1.94431
1.95215
1.95888
1.96437
1.96803
1.9715
1.974
1.97663
1.97893
1.98154
1.98457
1.98805
1.99221
1.99735
2.00318
2.00954
2.0158
2.02179
2.02729
2.03203
2.03605
2.03882
2.04106
2.04221
2.04262
2.04312
2.04436
2.04564
2.04753
2.05039
2.05413
2.05886
2.06354
2.06865
2.07356
2.08028
2.08808
2.0963
2.10471
2.11235
2.11835
2.12225
2.12428
2.12473
2.12342
2.12199
2.12165
2.12233
2.12445
2.12735
2.13001
2.13215
2.13323
0.2
0.2
0.2
0.2
0.2
0.2
0.2
0.2
0.2
0.2
0.2
0.2
0.2
0.2
0.2
0.2
0.2
0.2
0.2
0.2
0.2
0.2
0.2
0.2
0.2
0.2
0.2
0.2
0.2
0.2
0.199465
0.886571
1.70365
1.7714
1.78236
1.79381
1.80356
1.81172
1.81902
1.82585
1.83218
1.8377
1.84111
1.84509
1.84749
1.84923
1.85208
1.85509
1.85898
1.86361
1.86922
1.87472
1.8801
1.88458
1.88812
1.89066
1.89264
1.89467
1.8973
1.89971
1.90295
1.90766
1.91367
1.92096
1.9297
1.93906
1.94811
1.95639
1.96313
1.96917
1.97328
1.9771
1.98053
1.98342
1.9857
1.98793
1.99043
1.99343
1.99721
2.00167
2.00672
2.01197
2.01762
2.0228
2.02787
2.03204
2.03567
2.03827
2.04036
2.04176
2.04276
2.04363
2.04462
2.04591
2.04777
2.05062
2.05436
2.05905
2.0636
2.0684
2.07337
2.0799
2.0876
2.09582
2.10405
2.11145
2.11724
2.121
2.12298
2.12342
2.12205
2.12046
2.12002
2.12055
2.12247
2.12517
2.12765
2.12948
2.13005
0.2
0.2
0.2
0.2
0.2
0.2
0.2
0.2
0.2
0.2
0.2
0.2
0.2
0.2
0.2
0.2
0.2
0.2
0.2
0.2
0.2
0.2
0.2
0.2
0.2
0.2
0.2
0.2
0.2
0.2
0.199209
0.97456
1.71009
1.77245
1.77708
1.78386
1.79182
1.80009
1.80865
1.81746
1.82529
1.83147
1.83674
1.84143
1.84514
1.84885
1.85208
1.85504
1.85894
1.86309
1.8683
1.87332
1.87845
1.88213
1.8861
1.88907
1.89134
1.89377
1.89661
1.89922
1.9024
1.90645
1.91155
1.91813
1.92623
1.93514
1.94422
1.95165
1.95831
1.96396
1.96854
1.97221
1.97516
1.97761
1.97989
1.98226
1.98489
1.98769
1.99129
1.99499
2.00021
2.00641
2.01286
2.01898
2.02482
2.02973
2.03404
2.03723
2.03969
2.04156
2.04279
2.04353
2.04432
2.04559
2.04743
2.05027
2.05404
2.05878
2.06338
2.06802
2.07316
2.07956
2.0871
2.0952
2.10323
2.11039
2.11597
2.11958
2.12145
2.1218
2.12029
2.11848
2.1179
2.11827
2.11994
2.1224
2.12465
2.1261
2.12596
0.2
0.2
0.2
0.2
0.2
0.2
0.2
0.2
0.2
0.2
0.2
0.2
0.2
0.2
0.2
0.2
0.2
0.2
0.2
0.2
0.2
0.2
0.2
0.2
0.2
0.2
0.2
0.2
0.2
0.2
0.199364
0.869228
1.70334
1.77623
1.7866
1.79618
1.80455
1.81129
1.81793
1.8245
1.83112
1.83615
1.8415
1.84448
1.84694
1.84934
1.85253
1.85553
1.85924
1.86373
1.86907
1.87437
1.87951
1.88334
1.88672
1.88949
1.89248
1.895
1.89731
1.90052
1.90471
1.90944
1.91526
1.92224
1.93025
1.939
1.94763
1.95557
1.9618
1.96642
1.97092
1.97439
1.97668
1.97828
1.97973
1.98135
1.98358
1.98591
1.98944
1.99368
1.99891
2.00496
2.01106
2.01672
2.0221
2.02671
2.0307
2.03382
2.03618
2.03808
2.03962
2.04082
2.04191
2.04324
2.04513
2.04805
2.05189
2.05682
2.0617
2.0665
2.07185
2.07836
2.08597
2.09408
2.10203
2.10906
2.11451
2.11799
2.11973
2.11991
2.11821
2.11617
2.11537
2.11554
2.11689
2.11902
2.12098
2.12203
2.12101
0.2
0.2
0.2
0.2
0.2
0.2
0.2
0.2
0.2
0.2
0.2
0.2
0.2
0.2
0.2
0.2
0.2
0.2
0.2
0.2
0.2
0.2
0.2
0.2
0.2
0.2
0.2
0.2
0.2
0.200001
0.199169
0.934722
1.70356
1.77335
1.77961
1.78644
1.79366
1.80079
1.8087
1.81702
1.82531
1.83169
1.83656
1.84062
1.84481
1.84882
1.85188
1.85483
1.8585
1.86302
1.86784
1.87262
1.87739
1.88144
1.8845
1.88846
1.89061
1.89294
1.89631
1.89944
1.90311
1.90765
1.9131
1.91976
1.92769
1.93608
1.94472
1.95217
1.95776
1.96245
1.9666
1.96895
1.97089
1.97288
1.97446
1.97623
1.97896
1.98145
1.9854
1.99021
1.99562
2.00164
2.00764
2.01342
2.01872
2.02344
2.0277
2.0313
2.03418
2.03656
2.03848
2.04002
2.04131
2.04263
2.04447
2.04737
2.05116
2.05612
2.06107
2.06586
2.07132
2.0778
2.08535
2.09331
2.10105
2.10785
2.11306
2.11636
2.11789
2.11774
2.11581
2.11352
2.11244
2.11239
2.11334
2.11502
2.1166
2.11723
2.11522
0.2
0.2
0.2
0.2
0.2
0.2
0.2
0.2
0.2
0.2
0.2
0.2
0.2
0.2
0.2
0.2
0.2
0.2
0.2
0.2
0.2
0.2
0.2
0.2
0.2
0.2
0.2
0.2
0.2
0.200001
0.199296
0.853066
1.70152
1.77951
1.78838
1.7965
1.80314
1.80883
1.81468
1.82121
1.82773
1.83485
1.8389
1.84233
1.84595
1.8491
1.85203
1.85491
1.85836
1.86262
1.86731
1.87204
1.87656
1.88085
1.88376
1.88749
1.89027
1.89235
1.89539
1.89842
1.90173
1.90587
1.91106
1.91724
1.92491
1.93324
1.94142
1.94934
1.95485
1.95964
1.96417
1.96737
1.96975
1.97194
1.97366
1.97514
1.9778
1.98013
1.98397
1.98873
1.9943
2.00047
2.00654
2.01263
2.01807
2.02276
2.02687
2.03027
2.03287
2.03502
2.03666
2.038
2.03924
2.04054
2.04237
2.04527
2.04906
2.05413
2.05928
2.06431
2.06998
2.07665
2.08423
2.09209
2.0997
2.10632
2.11133
2.11445
2.11581
2.11529
2.11314
2.11057
2.10916
2.10887
2.10939
2.11049
2.11161
2.11181
2.10878
0.2
0.2
0.2
0.2
0.2
0.2
0.2
0.2
0.2
0.2
0.2
0.2
0.2
0.2
0.2
0.2
0.2
0.2
0.2
0.2
0.2
0.2
0.2
0.2
0.2
0.2
0.2
0.2
0.2
0.200001
0.199219
0.879886
1.69765
1.77458
1.78194
1.78959
1.79672
1.80256
1.80939
1.81664
1.82492
1.83132
1.83558
1.8398
1.84397
1.84741
1.85004
1.85261
1.85567
1.85959
1.86393
1.86855
1.87309
1.87731
1.88015
1.8843
1.88657
1.889
1.89234
1.89527
1.89877
1.90311
1.90831
1.91452
1.92205
1.93021
1.93858
1.9464
1.95216
1.95741
1.96246
1.96629
1.96894
1.97132
1.97311
1.97444
1.97701
1.97918
1.98288
1.98745
1.9928
1.99883
2.0047
2.01062
2.01596
2.02053
2.02449
2.02775
2.0303
2.03232
2.03389
2.03528
2.03664
2.03803
2.03991
2.04288
2.04673
2.05192
2.05718
2.06248
2.06837
2.07516
2.08259
2.09036
2.09789
2.10437
2.10918
2.11215
2.11333
2.11245
2.11013
2.10735
2.10555
2.10492
2.10505
2.10553
2.10608
2.10584
2.10175
0.2
0.2
0.2
0.2
0.2
0.2
0.2
0.2
0.2
0.2
0.2
0.2
0.2
0.2
0.2
0.2
0.2
0.2
0.2
0.2
0.2
0.2
0.2
0.2
0.2
0.2
0.2
0.2
0.2
0.200001
0.199274
0.825294
1.69462
1.77886
1.78729
1.79435
1.80076
1.80589
1.81128
1.81748
1.8256
1.83189
1.83589
1.84021
1.84426
1.84742
1.85016
1.85282
1.85576
1.85949
1.86358
1.86783
1.87231
1.87628
1.87916
1.88365
1.88603
1.88863
1.89216
1.89549
1.89951
1.90412
1.90959
1.91566
1.92281
1.93056
1.93862
1.94611
1.95152
1.95638
1.96097
1.9643
1.96676
1.96896
1.97066
1.97193
1.97452
1.97675
1.98042
1.98496
1.99024
1.99643
2.00235
2.00829
2.01388
2.01857
2.02259
2.02582
2.02835
2.03042
2.03195
2.0333
2.03461
2.03595
2.03778
2.04069
2.0445
2.04975
2.05509
2.06058
2.06667
2.07356
2.08095
2.0886
2.0959
2.10212
2.10668
2.10946
2.11044
2.10921
2.10674
2.10378
2.10162
2.10055
2.10024
2.10013
2.10009
2.09932
2.09412
0.2
0.2
0.2
0.2
0.2
0.2
0.2
0.2
0.2
0.2
0.2
0.2
0.2
0.2
0.2
0.2
0.2
0.2
0.2
0.2
0.2
0.2
0.2
0.2
0.2
0.2
0.2
0.2
0.2
0.200001
0.19924
0.827815
1.68783
1.77513
1.78355
1.79068
1.7974
1.80258
1.80833
1.81528
1.82388
1.82937
1.83427
1.83915
1.84346
1.84668
1.84914
1.85156
1.85429
1.85745
1.86101
1.86477
1.86883
1.8717
1.8756
1.87928
1.88166
1.88444
1.88799
1.8915
1.89575
1.90047
1.90564
1.91141
1.91806
1.9253
1.93345
1.94021
1.94563
1.95047
1.95506
1.95846
1.96095
1.96331
1.96512
1.9668
1.9698
1.97232
1.97623
1.98103
1.98646
1.99288
1.99916
2.00544
2.01108
2.01594
2.0202
2.02358
2.02616
2.02823
2.02971
2.03095
2.03213
2.03338
2.03518
2.03805
2.04188
2.04724
2.0527
2.05841
2.0647
2.07165
2.07904
2.08657
2.09365
2.09959
2.1038
2.10625
2.10693
2.10554
2.10295
2.09983
2.09733
2.0958
2.09496
2.09424
2.09354
2.09216
2.0858
0.2
0.2
0.2
0.2
0.2
0.2
0.2
0.2
0.2
0.2
0.2
0.2
0.2
0.2
0.2
0.2
0.2
0.2
0.2
0.2
0.2
0.2
0.2
0.2
0.2
0.2
0.2
0.2
0.2
0.200001
0.199299
0.779179
1.68224
1.77728
1.7854
1.79133
1.79648
1.80134
1.8063
1.81112
1.81863
1.82341
1.82784
1.83236
1.83592
1.83852
1.84059
1.84279
1.84534
1.8485
1.85244
1.85706
1.86228
1.86641
1.87195
1.87644
1.87955
1.88315
1.88741
1.89157
1.89623
1.90101
1.90607
1.91145
1.9176
1.92438
1.93239
1.93856
1.94385
1.94882
1.95329
1.95654
1.95889
1.96107
1.96269
1.96451
1.96737
1.96984
1.97358
1.9782
1.98351
1.98978
1.99611
2.00245
2.00809
2.01301
2.01734
2.02082
2.02349
2.02565
2.02714
2.02835
2.02943
2.03064
2.03239
2.03523
2.03911
2.04459
2.0502
2.0561
2.06256
2.06956
2.0769
2.08425
2.09104
2.09665
2.10052
2.10263
2.10308
2.10145
2.09876
2.09545
2.09258
2.09059
2.0892
2.08783
2.08643
2.0844
2.07684
0.2
0.2
0.2
0.2
0.2
0.2
0.2
0.2
0.2
0.2
0.2
0.2
0.2
0.2
0.2
0.2
0.2
0.2
0.2
0.2
0.2
0.2
0.2
0.2
0.2
0.2
0.2
0.2
0.2
0.200001
0.199323
0.750795
1.67254
1.77016
1.77641
1.78288
1.78887
1.79397
1.79863
1.80653
1.81411
1.81991
1.82497
1.8298
1.83349
1.83618
1.83831
1.84062
1.84294
1.84606
1.84985
1.85442
1.85957
1.86407
1.87008
1.87427
1.87772
1.88176
1.88632
1.89074
1.89568
1.90025
1.90508
1.91013
1.91592
1.92236
1.93006
1.93602
1.94137
1.94652
1.95104
1.95442
1.95676
1.95891
1.96042
1.96242
1.96508
1.96761
1.97113
1.97548
1.98054
1.98665
1.9929
1.99923
2.00479
2.00974
2.01414
2.0177
2.02046
2.02266
2.02415
2.02531
2.02631
2.02743
2.02914
2.03195
2.03597
2.04158
2.04738
2.05348
2.0601
2.06718
2.07442
2.08154
2.08801
2.09326
2.0968
2.09859
2.09874
2.09703
2.09408
2.09057
2.08732
2.08489
2.08293
2.08085
2.07871
2.07602
2.06718
0.2
0.2
0.2
0.2
0.2
0.2
0.2
0.2
0.2
0.2
0.2
0.2
0.2
0.2
0.2
0.2
0.2
0.2
0.2
0.2
0.2
0.2
0.2
0.2
0.2
0.2
0.2
0.2
0.2
0.200001
0.199374
0.711166
1.66213
1.77016
1.77534
1.78209
1.78769
1.79127
1.79679
1.80536
1.81146
1.81774
1.82301
1.82776
1.83111
1.83357
1.83576
1.83777
1.84013
1.84321
1.84682
1.85128
1.85648
1.8613
1.86757
1.87175
1.8759
1.88058
1.88544
1.89016
1.89522
1.89952
1.90404
1.90875
1.91412
1.92012
1.92716
1.93286
1.93821
1.94336
1.94782
1.95129
1.95368
1.95589
1.95732
1.95961
1.96205
1.96462
1.96798
1.97217
1.97703
1.98303
1.98924
1.9956
2.00115
2.00615
2.0106
2.01427
2.01711
2.01935
2.02083
2.02194
2.02286
2.02393
2.02561
2.02842
2.03253
2.0383
2.04434
2.05067
2.05747
2.06455
2.07165
2.07848
2.08457
2.08943
2.09263
2.09413
2.094
2.09218
2.08904
2.08519
2.08167
2.07872
2.07614
2.07333
2.07043
2.06708
2.05692
0.2
0.2
0.2
0.2
0.2
0.2
0.2
0.2
0.2
0.2
0.2
0.2
0.2
0.2
0.2
0.2
0.2
0.2
0.2
0.2
0.2
0.2
0.2
0.2
0.2
0.2
0.2
0.2
0.2
0.200001
0.19942
0.674909
1.64998
1.7684
1.77385
1.78066
1.78604
1.78945
1.79591
1.80349
1.80925
1.8155
1.82076
1.82526
1.82835
1.83076
1.833
1.83485
1.83731
1.84035
1.84396
1.84853
1.85349
1.85964
1.86552
1.87033
1.87507
1.88024
1.88513
1.88992
1.89442
1.8985
1.90254
1.90666
1.91142
1.9169
1.92326
1.92882
1.93429
1.93956
1.94408
1.94762
1.95014
1.95238
1.95383
1.95643
1.95856
1.96116
1.9644
1.96847
1.97311
1.97897
1.98513
1.99151
1.99701
2.0021
2.00662
2.01044
2.01336
2.01562
2.01708
2.01815
2.01904
2.02008
2.02174
2.02456
2.02874
2.0347
2.04096
2.04752
2.05448
2.06154
2.06847
2.07499
2.08069
2.08514
2.08799
2.08922
2.08884
2.08685
2.08351
2.07937
2.07545
2.07201
2.06879
2.06523
2.06155
2.05755
2.04598
0.2
0.2
0.2
0.2
0.2
0.2
0.2
0.2
0.2
0.2
0.2
0.2
0.2
0.2
0.2
0.2
0.2
0.2
0.2
0.2
0.2
0.2
0.2
0.2
0.2
0.2
0.2
0.2
0.2
0.200001
0.199483
0.629894
1.63429
1.76515
1.77132
1.77818
1.78291
1.78736
1.79495
1.80007
1.8061
1.81222
1.81767
1.82194
1.82496
1.82762
1.82987
1.8321
1.8347
1.83765
1.84114
1.84585
1.85101
1.85829
1.86372
1.86919
1.87457
1.88007
1.88495
1.88979
1.89355
1.89736
1.90083
1.90437
1.90836
1.91359
1.91891
1.92453
1.93007
1.93559
1.94023
1.94366
1.94632
1.94856
1.95018
1.953
1.95485
1.9575
1.96062
1.96452
1.9689
1.97453
1.98062
1.98699
1.99247
1.99767
2.0023
2.00628
2.00922
2.01149
2.01292
2.01397
2.01486
2.01588
2.01756
2.02039
2.02468
2.0308
2.03736
2.04419
2.05125
2.05825
2.06497
2.07113
2.07639
2.0804
2.08289
2.08387
2.08327
2.08107
2.07754
2.07316
2.06883
2.06482
2.06096
2.05656
2.05209
2.04743
2.03443
0.2
0.2
0.2
0.2
0.2
0.2
0.2
0.2
0.2
0.2
0.2
0.2
0.2
0.2
0.2
0.2
0.2
0.2
0.2
0.2
0.2
0.2
0.2
0.2
0.2
0.2
0.2
0.2
0.2
0.2
0.199546
0.58461
1.61604
1.7621
1.76923
1.77567
1.78014
1.78572
1.79282
1.79673
1.8027
1.80868
1.81418
1.81829
1.82154
1.82438
1.82676
1.82926
1.83212
1.83494
1.83848
1.84313
1.84937
1.85637
1.86237
1.86829
1.87401
1.8794
1.88427
1.88883
1.89207
1.89544
1.89823
1.90128
1.90461
1.90958
1.91403
1.9198
1.92549
1.93126
1.93585
1.93921
1.94197
1.94434
1.94633
1.9491
1.95081
1.95344
1.95642
1.96012
1.96426
1.96965
1.97561
1.98195
1.98747
1.99283
1.9976
2.0017
2.00463
2.00689
2.00832
2.00938
2.01029
2.01131
2.01305
2.0159
2.02035
2.02658
2.03343
2.04052
2.04757
2.05447
2.06096
2.06677
2.0716
2.07517
2.07729
2.07803
2.07721
2.07481
2.07112
2.06653
2.06174
2.05714
2.05262
2.04736
2.04205
2.03669
2.02226
0.2
0.2
0.2
0.2
0.2
0.2
0.2
0.2
0.2
0.2
0.2
0.2
0.2
0.2
0.2
0.2
0.2
0.2
0.2
0.2
0.2
0.2
0.2
0.2
0.2
0.2
0.2
0.2
0.2
0.2
0.199615
0.534963
1.59156
1.75914
1.76675
1.77276
1.77801
1.78457
1.78852
1.79278
1.7986
1.80474
1.81012
1.81436
1.81856
1.82127
1.824
1.82691
1.82978
1.83265
1.83629
1.84128
1.84857
1.85463
1.86121
1.86742
1.87336
1.87842
1.88338
1.88685
1.88998
1.89269
1.89496
1.89744
1.9004
1.90448
1.90896
1.91473
1.92055
1.92636
1.931
1.9344
1.93733
1.93987
1.94233
1.94481
1.94638
1.94895
1.95179
1.95533
1.95922
1.96438
1.97013
1.9764
1.98206
1.98759
1.99251
1.99666
1.99956
2.00183
2.0033
2.0044
2.00535
2.00642
2.00825
2.01114
2.01576
2.02212
2.02929
2.03654
2.0436
2.05035
2.05653
2.06191
2.06627
2.06938
2.07115
2.07166
2.07063
2.06804
2.06421
2.05946
2.05418
2.04897
2.04376
2.03761
2.03144
2.02532
2.00947
0.2
0.2
0.2
0.2
0.2
0.2
0.2
0.2
0.2
0.2
0.2
0.2
0.2
0.2
0.2
0.2
0.2
0.2
0.2
0.2
0.2
0.2
0.2
0.2
0.2
0.2
0.2
0.2
0.2
0.2
0.199686
0.483343
1.56154
1.75674
1.76433
1.76926
1.77543
1.78167
1.78409
1.78852
1.79425
1.80074
1.80635
1.81155
1.8155
1.81842
1.82171
1.82509
1.82784
1.83083
1.83476
1.84066
1.84708
1.85327
1.85999
1.86611
1.87181
1.87677
1.88123
1.88387
1.88664
1.88887
1.89096
1.89259
1.89607
1.89892
1.90344
1.90913
1.91521
1.92089
1.92571
1.9292
1.93246
1.93507
1.9379
1.93992
1.94146
1.94402
1.94676
1.95014
1.95376
1.95865
1.96418
1.97034
1.97623
1.98191
1.98693
1.9911
1.99396
1.99629
1.99786
1.99904
2.00005
2.00122
2.00318
2.00615
2.01094
2.01745
2.02492
2.03226
2.03928
2.04581
2.0516
2.0565
2.06037
2.06304
2.06449
2.06478
2.06359
2.06083
2.05687
2.05193
2.0462
2.04034
2.03444
2.02737
2.0203
2.01339
1.99611
0.2
0.2
0.2
0.2
0.2
0.2
0.2
0.2
0.2
0.2
0.2
0.2
0.2
0.2
0.2
0.2
0.2
0.2
0.2
0.2
0.2
0.2
0.2
0.2
0.2
0.2
0.2
0.2
0.2
0.2
0.199758
0.429176
1.52261
1.7541
1.76072
1.76549
1.77292
1.77647
1.77975
1.7846
1.79051
1.79747
1.80368
1.80914
1.81282
1.81649
1.82051
1.82358
1.82648
1.82965
1.83445
1.84011
1.84491
1.85144
1.8581
1.86407
1.86927
1.87449
1.87737
1.88009
1.88249
1.88423
1.8858
1.88766
1.89073
1.89338
1.89776
1.9032
1.90947
1.91492
1.92
1.92356
1.92745
1.9298
1.93279
1.93434
1.93624
1.93879
1.94139
1.94456
1.94788
1.95245
1.95779
1.96382
1.96994
1.97568
1.98077
1.98489
1.98781
1.99027
1.99198
1.99326
1.99439
1.99571
1.99783
2.00093
2.00587
2.01254
2.02026
2.02762
2.03455
2.04077
2.04611
2.05051
2.05389
2.05617
2.05734
2.05744
2.05606
2.05317
2.04904
2.04387
2.03777
2.03122
2.0246
2.01658
2.00858
2.00088
1.98218
0.2
0.2
0.2
0.2
0.2
0.2
0.2
0.2
0.2
0.2
0.2
0.2
0.2
0.2
0.2
0.2
0.2
0.2
0.2
0.2
0.2
0.2
0.2
0.2
0.2
0.2
0.2
0.2
0.2
0.2
0.199828
0.374125
1.47249
1.74755
1.75596
1.7624
1.76874
1.77159
1.77615
1.78169
1.78803
1.79519
1.80181
1.80665
1.81116
1.81569
1.81913
1.8223
1.82528
1.82944
1.83399
1.83787
1.84257
1.84864
1.85481
1.86064
1.86612
1.86996
1.87261
1.87536
1.87746
1.87901
1.88006
1.88291
1.88473
1.88765
1.89172
1.89689
1.90327
1.90863
1.91352
1.91762
1.92174
1.92395
1.92688
1.92842
1.93069
1.93321
1.93559
1.93851
1.94159
1.94583
1.95095
1.95683
1.96309
1.96888
1.97397
1.97802
1.98118
1.98377
1.98564
1.98713
1.98846
1.99003
1.99233
1.99562
2.00067
2.00743
2.01525
2.02255
2.02926
2.03509
2.03993
2.0438
2.04671
2.04865
2.04958
2.04957
2.048
2.045
2.04069
2.03526
2.02886
2.02164
2.01426
2.00531
1.99634
1.98784
1.96771
0.2
0.2
0.2
0.2
0.2
0.2
0.2
0.2
0.2
0.2
0.2
0.2
0.2
0.2
0.2
0.2
0.2
0.2
0.2
0.2
0.2
0.2
0.2
0.2
0.2
0.2
0.2
0.2
0.2
0.2
0.199894
0.318422
1.40195
1.73838
1.7519
1.75892
1.76383
1.76866
1.77451
1.78034
1.78665
1.79382
1.79957
1.80501
1.81017
1.81404
1.81792
1.82096
1.82454
1.82836
1.83191
1.83478
1.83927
1.84463
1.85049
1.85616
1.86118
1.86404
1.86732
1.86991
1.87157
1.87294
1.8748
1.87723
1.87888
1.88174
1.88549
1.89051
1.89626
1.90201
1.90659
1.91132
1.91471
1.91778
1.92043
1.92217
1.92466
1.9272
1.9294
1.93198
1.93485
1.93881
1.94362
1.94935
1.95562
1.96141
1.96649
1.97049
1.97408
1.97684
1.97898
1.98076
1.98232
1.98415
1.98662
1.99017
1.9953
2.00208
2.00987
2.01703
2.02343
2.0288
2.03311
2.03647
2.03895
2.0406
2.04136
2.04124
2.0395
2.03637
2.03184
2.02615
2.01947
2.0116
2.00347
1.99359
1.98358
1.97426
1.95279
0.2
0.2
0.2
0.2
0.2
0.2
0.2
0.2
0.2
0.2
0.2
0.2
0.2
0.2
0.2
0.2
0.2
0.2
0.2
0.2
0.2
0.2
0.2
0.2
0.2
0.2
0.2
0.2
0.2
0.2
0.199949
0.266607
1.31222
1.73101
1.74899
1.75589
1.76159
1.76809
1.77437
1.77957
1.78592
1.79166
1.79762
1.80313
1.80785
1.81238
1.81566
1.81915
1.82269
1.82595
1.82779
1.83094
1.83478
1.83943
1.84488
1.85062
1.8542
1.85805
1.8614
1.86344
1.86549
1.86694
1.86957
1.87081
1.87296
1.87559
1.87915
1.88399
1.88894
1.89437
1.89917
1.90417
1.90719
1.91112
1.91345
1.91562
1.91832
1.92067
1.92271
1.92499
1.9277
1.93142
1.93579
1.94128
1.94742
1.95319
1.95834
1.96242
1.96645
1.9695
1.97202
1.97412
1.97596
1.97811
1.98079
1.98455
1.98968
1.99634
2.00399
2.01093
2.01695
2.02183
2.02563
2.02853
2.03063
2.03202
2.03265
2.03241
2.03054
2.02727
2.0225
2.01654
2.00953
2.0011
1.99222
1.98144
1.97039
1.96024
1.93746
0.2
0.2
0.2
0.2
0.2
0.2
0.2
0.2
0.2
0.2
0.2
0.2
0.2
0.2
0.2
0.2
0.2
0.2
0.2
0.2
0.2
0.2
0.2
0.2
0.2
0.2
0.2
0.2
0.2
0.2
0.199988
0.222743
1.21116
1.72728
1.74935
1.75448
1.76136
1.76801
1.77348
1.77939
1.78414
1.78936
1.79469
1.79976
1.80463
1.8085
1.81249
1.81637
1.81929
1.82078
1.82323
1.82619
1.82936
1.83332
1.83868
1.84296
1.8473
1.8515
1.85427
1.85704
1.85891
1.86142
1.86313
1.86468
1.86688
1.86933
1.8727
1.87672
1.8812
1.88608
1.89118
1.89571
1.89968
1.9038
1.90621
1.90871
1.91145
1.91364
1.9156
1.91766
1.92017
1.92365
1.9274
1.93255
1.93852
1.94438
1.94965
1.95409
1.95856
1.96203
1.96503
1.96744
1.96959
1.9721
1.97502
1.97887
1.98383
1.99013
1.99745
2.00407
2.00966
2.01404
2.01738
2.0199
2.0217
2.02289
2.02341
2.02301
2.02105
2.01761
2.0126
2.00635
1.99895
1.99007
1.98046
1.9688
1.95666
1.94577
1.92192
0.2
0.2
0.2
0.2
0.2
0.2
0.2
0.2
0.2
0.2
0.2
0.2
0.2
0.2
0.2
0.2
0.2
0.2
0.2
0.2
0.2
0.2
0.2
0.2
0.2
0.2
0.2
0.2
0.2
0.2
0.200001
0.198939
1.1022
1.71984
1.747
1.75271
1.76116
1.76708
1.77282
1.77681
1.781
1.7855
1.79029
1.79524
1.7996
1.80414
1.80854
1.81129
1.81305
1.81554
1.81827
1.82084
1.82341
1.82721
1.83104
1.83527
1.83967
1.84363
1.84728
1.85
1.85273
1.85514
1.85651
1.85852
1.8606
1.86277
1.86602
1.86894
1.87277
1.87734
1.88247
1.88696
1.892
1.89565
1.89843
1.90134
1.90414
1.90617
1.9081
1.91003
1.91216
1.91526
1.91845
1.92321
1.92906
1.93508
1.9406
1.9455
1.95037
1.95428
1.95775
1.96049
1.9631
1.96599
1.96915
1.97301
1.97768
1.98344
1.99026
1.99651
2.00163
2.00556
2.00853
2.01075
2.01232
2.01334
2.01371
2.01316
2.01108
2.00746
2.00224
1.9957
1.98791
1.97861
1.96827
1.9558
1.94262
1.931
1.90589
0.2
0.2
0.2
0.2
0.2
0.2
0.2
0.2
0.2
0.2
0.2
0.2
0.2
0.2
0.2
0.2
0.2
0.2
0.2
0.2
0.2
0.2
0.2
0.2
0.2
0.2
0.2
0.2
0.2
0.2
0.200001
0.198949
0.989528
1.69815
1.74623
1.75074
1.75838
1.76493
1.76919
1.77301
1.77687
1.78039
1.78464
1.78927
1.79426
1.79901
1.802
1.80456
1.80753
1.81047
1.81291
1.81501
1.81773
1.82024
1.8234
1.82718
1.83139
1.83584
1.83947
1.84304
1.8461
1.84792
1.84998
1.85211
1.85383
1.8562
1.85837
1.86092
1.8641
1.86815
1.87304
1.87824
1.88333
1.88693
1.89016
1.89352
1.89636
1.89822
1.90013
1.90186
1.90361
1.90612
1.90915
1.91357
1.91926
1.92552
1.93139
1.93681
1.94208
1.9465
1.95042
1.95352
1.95663
1.95984
1.96314
1.96684
1.97107
1.97616
1.98233
1.98818
1.99287
1.99645
1.99914
2.00115
2.00256
2.0034
2.00359
2.00279
2.0006
1.99679
1.99138
1.98453
1.97632
1.96659
1.95552
1.94227
1.92813
1.91581
1.88963
0.2
0.2
0.2
0.2
0.2
0.2
0.2
0.2
0.2
0.2
0.2
0.2
0.2
0.2
0.2
0.2
0.2
0.2
0.2
0.2
0.2
0.2
0.2
0.2
0.2
0.2
0.2
0.2
0.2
0.2
0.200001
0.199207
0.860037
1.67754
1.74454
1.74807
1.75539
1.76012
1.76487
1.76844
1.77093
1.77416
1.77836
1.78315
1.78763
1.79139
1.79508
1.79866
1.80203
1.80462
1.80686
1.80933
1.81126
1.81348
1.81595
1.81901
1.82319
1.82738
1.8318
1.83549
1.83816
1.84055
1.84314
1.8452
1.84704
1.84895
1.85053
1.8527
1.8553
1.85875
1.86342
1.86895
1.87359
1.8777
1.88146
1.88507
1.88785
1.88974
1.89162
1.89289
1.89477
1.89677
1.89987
1.90402
1.90947
1.9159
1.92211
1.92807
1.9337
1.9386
1.94295
1.94654
1.95018
1.9535
1.95673
1.96012
1.96379
1.96813
1.97355
1.97896
1.98332
1.98667
1.98919
1.99106
1.99233
1.99298
1.99294
1.99186
1.98952
1.98551
1.97992
1.97275
1.96412
1.95393
1.94218
1.92829
1.91327
1.90019
1.87318
0.2
0.2
0.2
0.2
0.2
0.2
0.2
0.2
0.2
0.2
0.2
0.2
0.2
0.2
0.2
0.2
0.2
0.2
0.2
0.2
0.2
0.2
0.2
0.2
0.2
0.2
0.2
0.2
0.2
0.2
0.2
0.199429
0.717721
1.64819
1.74078
1.74448
1.74981
1.7547
1.75837
1.76164
1.76553
1.76874
1.77238
1.77574
1.77965
1.78417
1.78861
1.79267
1.79592
1.79855
1.80075
1.80259
1.80453
1.8065
1.80837
1.81122
1.81468
1.8192
1.82319
1.82685
1.82997
1.83314
1.83571
1.83767
1.83977
1.84103
1.84259
1.84429
1.8463
1.84935
1.85361
1.85843
1.86341
1.86802
1.8723
1.87576
1.87838
1.8806
1.8824
1.88347
1.88575
1.88753
1.89067
1.89463
1.89976
1.90616
1.91271
1.91919
1.92517
1.93058
1.9354
1.93959
1.94359
1.94689
1.94989
1.95285
1.95587
1.9594
1.96403
1.96898
1.97316
1.97636
1.97879
1.98056
1.98168
1.98209
1.98173
1.98046
1.97791
1.97373
1.96794
1.96046
1.95139
1.94065
1.92831
1.91384
1.89815
1.88418
1.85654
0.2
0.2
0.2
0.2
0.2
0.2
0.2
0.2
0.2
0.2
0.2
0.2
0.2
0.2
0.2
0.2
0.2
0.2
0.2
0.2
0.2
0.2
0.2
0.2
0.2
0.2
0.2
0.2
0.2
0.2
0.2
0.199628
0.573321
1.60135
1.73416
1.73738
1.74258
1.74695
1.75255
1.75718
1.76046
1.76334
1.76532
1.76848
1.77244
1.77706
1.78194
1.78616
1.78958
1.79186
1.79384
1.79592
1.79727
1.7989
1.80107
1.80343
1.80659
1.81005
1.8142
1.81803
1.82173
1.82493
1.82744
1.82966
1.83113
1.83279
1.83424
1.83547
1.83724
1.83999
1.84323
1.84751
1.85261
1.85759
1.86227
1.86592
1.86859
1.87084
1.87251
1.87445
1.87661
1.87864
1.88172
1.88551
1.89026
1.89648
1.90331
1.91024
1.91655
1.92244
1.92773
1.93243
1.9365
1.93973
1.94242
1.94486
1.9472
1.94998
1.95387
1.95834
1.96245
1.96558
1.96797
1.96965
1.97057
1.97076
1.96999
1.96856
1.96581
1.96142
1.95542
1.9476
1.9381
1.92681
1.914
1.89903
1.88284
1.86755
1.84002
0.2
0.2
0.2
0.2
0.2
0.2
0.2
0.2
0.2
0.2
0.2
0.2
0.2
0.2
0.2
0.2
0.2
0.2
0.2
0.2
0.2
0.2
0.2
0.2
0.2
0.2
0.2
0.2
0.2
0.2
0.2
0.199789
0.440262
1.52713
1.72417
1.73075
1.73584
1.74259
1.74736
1.75093
1.7531
1.7554
1.7585
1.76207
1.76588
1.77039
1.7751
1.77907
1.78236
1.78516
1.78662
1.78815
1.79008
1.79153
1.79361
1.79527
1.7976
1.80078
1.8046
1.80885
1.81279
1.81611
1.81848
1.82049
1.82229
1.82361
1.82506
1.82653
1.82818
1.8301
1.83265
1.83639
1.84124
1.84658
1.85132
1.85557
1.85849
1.861
1.86298
1.86566
1.86755
1.87001
1.87301
1.87665
1.88103
1.88696
1.89392
1.90115
1.90784
1.91419
1.91979
1.92471
1.92873
1.93178
1.93414
1.93609
1.9378
1.93989
1.94315
1.9472
1.95127
1.95442
1.9568
1.95836
1.95904
1.95897
1.95778
1.95618
1.95318
1.94856
1.9423
1.93412
1.92418
1.91241
1.89919
1.88377
1.8671
1.85027
1.82374
0.2
0.2
0.2
0.2
0.2
0.2
0.2
0.2
0.2
0.2
0.2
0.2
0.2
0.2
0.2
0.2
0.2
0.2
0.2
0.2
0.2
0.2
0.2
0.2
0.2
0.2
0.2
0.2
0.2
0.2
0.2
0.199907
0.324891
1.41456
1.7133
1.72263
1.7277
1.7329
1.73871
1.7422
1.74645
1.75073
1.75415
1.75697
1.75947
1.763
1.76653
1.77029
1.77347
1.77678
1.77916
1.78065
1.78273
1.78401
1.78518
1.78682
1.78881
1.79137
1.7949
1.79908
1.80289
1.80612
1.80888
1.81082
1.8122
1.81438
1.81606
1.81741
1.81869
1.81998
1.82242
1.82557
1.83
1.83535
1.84047
1.84504
1.8485
1.85161
1.85419
1.8568
1.85881
1.86156
1.86453
1.86802
1.87203
1.8776
1.88447
1.89185
1.89886
1.90547
1.91123
1.91616
1.92007
1.92291
1.92501
1.92649
1.92767
1.92921
1.93193
1.93561
1.93963
1.94283
1.94516
1.94655
1.94697
1.9466
1.94513
1.9433
1.94006
1.93519
1.92865
1.92009
1.90974
1.89753
1.88389
1.86821
1.8513
1.83335
1.80735
0.2
0.2
0.2
0.2
0.2
0.2
0.2
0.2
0.2
0.2
0.2
0.2
0.2
0.2
0.2
0.2
0.2
0.2
0.2
0.2
0.2
0.2
0.2
0.2
0.2
0.2
0.2
0.2
0.2
0.2
0.2
0.199984
0.23444
1.24058
1.70326
1.7181
1.72339
1.72727
1.73274
1.73852
1.74358
1.74678
1.74917
1.75078
1.75238
1.75458
1.75728
1.76072
1.76426
1.76738
1.77067
1.77261
1.77411
1.77549
1.77705
1.77874
1.78048
1.78248
1.78518
1.78861
1.79204
1.79517
1.79817
1.80109
1.80283
1.80487
1.80653
1.80789
1.80911
1.8107
1.81282
1.81558
1.81956
1.82439
1.82954
1.8344
1.83893
1.84249
1.84561
1.84795
1.85038
1.85334
1.85627
1.85965
1.86331
1.86838
1.87481
1.8821
1.88932
1.896
1.90177
1.90669
1.91047
1.91315
1.91507
1.9162
1.91697
1.9181
1.92034
1.92367
1.92755
1.93076
1.93297
1.93416
1.93439
1.9337
1.932
1.9299
1.92633
1.9212
1.91436
1.90546
1.89474
1.88207
1.86807
1.85219
1.83507
1.81637
1.79085
0.2
0.2
0.2
0.2
0.2
0.2
0.2
0.2
0.2
0.2
0.2
0.2
0.2
0.2
0.2
0.2
0.2
0.2
0.2
0.2
0.2
0.2
0.2
0.2
0.2
0.2
0.2
0.2
0.2
0.2
0.2
0.2
0.199373
1.01701
1.69584
1.72026
1.72105
1.72677
1.73287
1.737
1.74042
1.74186
1.74306
1.74356
1.74463
1.74626
1.74853
1.75158
1.75511
1.75819
1.76118
1.76368
1.76587
1.76796
1.76965
1.77109
1.77226
1.77394
1.77565
1.77785
1.7809
1.78457
1.78802
1.79091
1.79313
1.79527
1.79704
1.79865
1.8004
1.80236
1.80425
1.80688
1.80998
1.81384
1.81875
1.82401
1.82917
1.83344
1.83674
1.83919
1.84211
1.8452
1.84803
1.85111
1.85446
1.85901
1.86483
1.87177
1.87899
1.88559
1.89134
1.89626
1.89998
1.9026
1.90439
1.90532
1.90586
1.90668
1.90848
1.91142
1.91502
1.91815
1.9202
1.9212
1.9213
1.92029
1.91839
1.91595
1.91205
1.90664
1.89952
1.89031
1.87922
1.8661
1.85187
1.83601
1.81894
1.7997
1.77338
0.2
0.2
0.2
0.2
0.2
0.2
0.2
0.2
0.2
0.2
0.2
0.2
0.2
0.2
0.2
0.2
0.2
0.2
0.2
0.2
0.2
0.2
0.2
0.2
0.2
0.2
0.2
0.2
0.2
0.2
0.2
0.2
0.199526
0.75872
1.66185
1.72682
1.72506
1.72412
1.72641
1.72872
1.73092
1.73309
1.7346
1.73592
1.73782
1.73965
1.74129
1.74339
1.74635
1.74949
1.75255
1.7555
1.75778
1.75961
1.76099
1.7623
1.76368
1.76474
1.76585
1.76794
1.7708
1.77411
1.77767
1.78096
1.78394
1.78637
1.78835
1.79039
1.79228
1.79406
1.79622
1.79826
1.80079
1.80395
1.80838
1.81366
1.81918
1.82393
1.82756
1.83062
1.83393
1.83663
1.83931
1.84213
1.84524
1.84926
1.85434
1.86073
1.86778
1.87427
1.87998
1.88489
1.88863
1.8913
1.89306
1.89397
1.89444
1.89501
1.89639
1.89886
1.90206
1.90503
1.90694
1.90783
1.90781
1.90651
1.90438
1.90154
1.89728
1.89151
1.88401
1.87446
1.86307
1.84961
1.83527
1.81944
1.80222
1.78284
1.75613
0.2
0.2
0.2
0.2
0.2
0.2
0.2
0.2
0.2
0.2
0.2
0.2
0.2
0.2
0.2
0.2
0.2
0.2
0.2
0.2
0.2
0.2
0.2
0.2
0.2
0.2
0.2
0.2
0.2
0.2
0.2
0.2
0.199778
0.511775
1.57481
1.71082
1.71024
1.71335
1.71675
1.71937
1.72159
1.72395
1.72583
1.7271
1.72795
1.72963
1.73199
1.73455
1.73778
1.74105
1.74442
1.74738
1.74995