/*--------------------------------*- C++ -*----------------------------------*\
| =========                 |                                                 |
| \\      /  F ield         | OpenFOAM: The Open Source CFD Toolbox           |
|  \\    /   O peration     | Version:  2.2.x                                 |
|   \\  /    A nd           | Web:      www.OpenFOAM.org                      |
|    \\/     M anipulation  |                                                 |
\*---------------------------------------------------------------------------*/
FoamFile
{
    version     2.0;
    format      ascii;
    class       volScalarField;
    location    "2.5";
    object      Ma;
}
// * * * * * * * * * * * * * * * * * * * * * * * * * * * * * * * * * * * * * //

dimensions      [0 0 0 0 0 0 0];

internalField   nonuniform List<scalar> 
14161
(
2.62302
2.62096
2.62087
2.62056
2.61999
2.61885
2.6173
2.61526
2.61263
2.60927
2.60509
2.60001
2.5939
2.58667
2.57825
2.56859
2.55765
2.5454
2.53131
2.51632
2.50039
2.48347
2.46562
2.44618
2.42604
2.40585
2.38633
2.3668
2.34709
2.32684
2.30664
2.28703
2.2643
2.23314
2.1562
1.90859
1.26199
0.781778
0.6299
0.597239
0.597319
0.612754
0.630932
0.647644
0.661755
0.674423
0.686523
0.698021
0.709015
0.719322
0.729235
0.738778
0.747376
0.756007
0.764039
0.771725
0.779555
0.786661
0.793757
0.801135
0.807856
0.814601
0.821721
0.82844
0.83539
0.84277
0.84978
0.857056
0.864829
0.872281
0.879778
0.887695
0.895892
0.903577
0.911445
0.91966
0.927739
0.936268
0.944732
0.952934
0.961167
0.969937
0.979027
0.988362
0.997881
1.00715
1.0165
1.0262
1.03691
1.04752
1.05807
1.06868
1.07948
1.09026
1.10226
1.11522
1.12834
1.14161
1.15431
1.16505
1.17403
1.18179
1.1862
1.18797
1.18165
1.16024
1.1129
1.02927
0.904561
0.755381
0.616213
0.499192
0.404492
0.329368
0.265809
0.20633
0.150926
0.0958057
0.0644082
2.62305
2.621
2.62091
2.62057
2.61994
2.61884
2.61734
2.61531
2.61266
2.60931
2.60515
2.60007
2.5939
2.58667
2.57824
2.56857
2.55767
2.54533
2.53132
2.51636
2.50037
2.4835
2.46561
2.44616
2.42603
2.40583
2.38625
2.36671
2.34699
2.32672
2.30663
2.28682
2.26382
2.23306
2.15661
1.91375
1.26962
0.787427
0.636702
0.605948
0.606635
0.62295
0.641402
0.657922
0.671633
0.683927
0.695559
0.706638
0.717106
0.72712
0.736589
0.745628
0.754037
0.762288
0.770408
0.777913
0.785425
0.792693
0.799637
0.806792
0.813695
0.820336
0.827333
0.834327
0.841099
0.848362
0.855736
0.862931
0.870602
0.878397
0.885876
0.893888
0.902042
0.909784
0.917509
0.925706
0.933925
0.942164
0.950593
0.958651
0.966664
0.975213
0.984438
0.993621
1.00316
1.01227
1.02179
1.03152
1.0421
1.05301
1.06342
1.07408
1.0848
1.09539
1.10685
1.11943
1.13166
1.14297
1.15374
1.16212
1.16802
1.1709
1.16953
1.15979
1.13698
1.09214
1.01633
0.907048
0.770702
0.634272
0.516433
0.421755
0.348039
0.287666
0.234862
0.186874
0.147513
0.106179
0.104144
2.62311
2.62107
2.62099
2.62061
2.61994
2.61889
2.61739
2.61536
2.61272
2.60937
2.60521
2.60013
2.59402
2.58677
2.57835
2.56871
2.55778
2.54534
2.53154
2.51656
2.50057
2.4837
2.46579
2.44635
2.42619
2.40592
2.38636
2.36675
2.347
2.32674
2.30671
2.28672
2.26343
2.232
2.15725
1.92514
1.28469
0.796196
0.645993
0.616776
0.617877
0.63483
0.653158
0.669021
0.682184
0.694051
0.705234
0.71587
0.725939
0.735532
0.744674
0.753294
0.761695
0.769745
0.777634
0.785204
0.792474
0.799675
0.806649
0.813473
0.820408
0.827115
0.833751
0.840745
0.84761
0.854427
0.861723
0.869027
0.876281
0.883839
0.891405
0.898959
0.907059
0.9152
0.922902
0.930791
0.939012
0.947196
0.955553
0.963507
0.971491
0.97981
0.98879
0.997986
1.00738
1.01663
1.02602
1.03592
1.0464
1.05731
1.06781
1.07835
1.0888
1.09908
1.10922
1.11979
1.12961
1.13831
1.14557
1.14902
1.14985
1.144
1.12921
1.10016
1.05112
0.975272
0.867039
0.7439
0.618893
0.511356
0.42977
0.362655
0.30741
0.259865
0.222136
0.186614
0.163436
0.137507
0.151385
2.62323
2.62118
2.62109
2.62067
2.61999
2.61896
2.61747
2.61546
2.61285
2.60953
2.60538
2.60032
2.59421
2.58696
2.57855
2.56896
2.55792
2.54556
2.53184
2.51681
2.50083
2.48402
2.46606
2.4466
2.42647
2.40616
2.38649
2.36677
2.34688
2.32668
2.30685
2.28673
2.26302
2.23099
2.15877
1.94278
1.3124
0.813238
0.662815
0.633865
0.634801
0.650121
0.666074
0.679771
0.691434
0.702048
0.712293
0.722244
0.73192
0.741411
0.750492
0.759452
0.76814
0.776478
0.784561
0.792227
0.799716
0.806886
0.813989
0.821016
0.827745
0.83455
0.841364
0.847982
0.854827
0.861747
0.868415
0.875447
0.882695
0.889472
0.896487
0.903744
0.910767
0.918261
0.925812
0.933015
0.94071
0.948814
0.956623
0.964735
0.973162
0.981233
0.989668
0.998734
1.00755
1.01693
1.0265
1.03591
1.0455
1.05577
1.06595
1.07612
1.08652
1.09639
1.10534
1.11376
1.12048
1.12432
1.12454
1.12074
1.10844
1.08343
1.04063
0.975461
0.885327
0.772451
0.648322
0.536376
0.454744
0.402711
0.360234
0.317875
0.278845
0.244875
0.219606
0.195719
0.185292
0.170188
0.188767
2.62337
2.62132
2.62122
2.62079
2.62012
2.61909
2.61763
2.61563
2.61302
2.60971
2.60558
2.60055
2.59448
2.58731
2.57891
2.56924
2.55829
2.546
2.53229
2.51734
2.50138
2.48454
2.46659
2.44713
2.42706
2.40674
2.38686
2.36704
2.34701
2.3267
2.30687
2.28686
2.26235
2.22962
2.161
1.956
1.33455
0.827761
0.677835
0.649189
0.649659
0.663935
0.678308
0.690699
0.701367
0.710996
0.720348
0.729653
0.738558
0.747567
0.756223
0.764964
0.773527
0.781709
0.789884
0.797427
0.804887
0.812314
0.819199
0.826258
0.833145
0.839725
0.846636
0.853384
0.859893
0.866811
0.873565
0.88017
0.88727
0.894148
0.900652
0.907725
0.914614
0.921526
0.928914
0.936103
0.943344
0.951087
0.958912
0.966463
0.974749
0.983231
0.991618
1.00035
1.0093
1.0181
1.02725
1.03631
1.0454
1.05458
1.06405
1.07289
1.08115
1.08874
1.09439
1.09817
1.09846
1.09516
1.08435
1.06344
1.02801
0.973254
0.895366
0.796975
0.680133
0.567225
0.471545
0.407675
0.370333
0.344897
0.320081
0.291681
0.265291
0.240395
0.22606
0.210729
0.208869
0.200355
0.219042
2.62352
2.62146
2.62138
2.62097
2.6203
2.61927
2.61782
2.61585
2.61326
2.60997
2.60588
2.60087
2.59485
2.58778
2.57931
2.56966
2.55881
2.54665
2.53288
2.518
2.50203
2.48516
2.46723
2.44786
2.42788
2.40755
2.38733
2.36732
2.34709
2.32671
2.30684
2.28712
2.26206
2.22833
2.1576
1.94937
1.33393
0.831868
0.684274
0.656539
0.657012
0.671067
0.684528
0.696452
0.70661
0.715659
0.724375
0.732999
0.741225
0.749361
0.757347
0.764959
0.772898
0.780261
0.787719
0.795307
0.802351
0.80966
0.816832
0.823481
0.830448
0.837224
0.843692
0.850614
0.857177
0.863596
0.87063
0.877232
0.883948
0.891236
0.897986
0.904806
0.91219
0.919272
0.926661
0.934511
0.942083
0.949854
0.958006
0.965867
0.973878
0.982862
0.991661
1.00022
1.00924
1.0182
1.02666
1.0351
1.04301
1.05019
1.05734
1.06362
1.06846
1.07152
1.0717
1.06792
1.05768
1.03841
1.00715
0.959681
0.892231
0.80493
0.701117
0.593684
0.494511
0.422676
0.379667
0.352842
0.334187
0.318241
0.300159
0.279645
0.259529
0.242619
0.235562
0.226391
0.230007
0.226332
0.243941
2.6237
2.62163
2.62155
2.6212
2.62053
2.61952
2.61811
2.61616
2.61361
2.61037
2.60632
2.60138
2.59543
2.58833
2.57992
2.57036
2.55958
2.54753
2.53384
2.51899
2.50302
2.48604
2.46805
2.44911
2.42914
2.4089
2.38838
2.36801
2.34748
2.32696
2.307
2.28733
2.26251
2.23176
2.16603
1.95759
1.33609
0.832345
0.6832
0.654029
0.654343
0.668737
0.682032
0.693971
0.70417
0.713056
0.721722
0.730138
0.738488
0.746324
0.754429
0.76194
0.769385
0.776866
0.783823
0.791241
0.798525
0.805491
0.81287
0.81966
0.826276
0.833329
0.839783
0.846211
0.853094
0.859398
0.865959
0.87308
0.879727
0.886729
0.894119
0.900961
0.908321
0.916137
0.923655
0.931752
0.940139
0.948262
0.95669
0.965272
0.97368
0.982239
0.991253
0.99963
1.00782
1.01597
1.02311
1.02958
1.0355
1.04023
1.04392
1.04516
1.04488
1.0397
1.0289
1.00992
0.980859
0.937927
0.878688
0.802118
0.710219
0.61149
0.517327
0.442885
0.394756
0.365287
0.346043
0.332163
0.320355
0.308013
0.292467
0.275194
0.260911
0.249225
0.246911
0.241756
0.248563
0.248386
0.264429
2.6239
2.62181
2.62175
2.62144
2.62081
2.61983
2.61842
2.61652
2.61402
2.61082
2.60682
2.60194
2.59603
2.58903
2.58081
2.57127
2.56056
2.54859
2.53507
2.52038
2.50423
2.48721
2.46926
2.45051
2.43079
2.41079
2.39002
2.36893
2.3479
2.32728
2.30731
2.28747
2.26172
2.22896
2.15639
1.92578
1.29923
0.816304
0.671473
0.644039
0.644973
0.660537
0.674754
0.687869
0.69916
0.708989
0.718542
0.727456
0.736344
0.744621
0.752859
0.760801
0.768204
0.775928
0.783127
0.790485
0.798172
0.805181
0.812371
0.819652
0.826214
0.833063
0.839641
0.845766
0.852354
0.858795
0.865167
0.872255
0.87903
0.886067
0.893766
0.901084
0.908662
0.917018
0.925204
0.933689
0.942236
0.950455
0.958814
0.967599
0.97597
0.983495
0.990978
0.998138
1.00435
1.01021
1.01504
1.01867
1.02057
1.02056
1.01794
1.0106
0.998113
0.978964
0.950798
0.909686
0.855113
0.78626
0.704068
0.615741
0.529222
0.45842
0.409886
0.379305
0.359339
0.346514
0.337174
0.32815
0.318152
0.305654
0.291839
0.277472
0.265711
0.257724
0.258711
0.256103
0.264629
0.267132
0.281452
2.62412
2.62204
2.62201
2.62171
2.62114
2.62019
2.61883
2.617
2.61455
2.61142
2.60749
2.60269
2.59687
2.58997
2.5819
2.57233
2.56167
2.54978
2.5366
2.52215
2.5058
2.48857
2.47067
2.45212
2.43285
2.4131
2.39184
2.37033
2.34876
2.32769
2.3081
2.28814
2.26204
2.2287
2.1515
1.90753
1.26937
0.805622
0.665514
0.639492
0.6406
0.65631
0.672273
0.687492
0.700324
0.71128
0.721395
0.730858
0.739834
0.748375
0.756551
0.764669
0.77207
0.779502
0.786739
0.793534
0.800441
0.80685
0.812881
0.819425
0.825535
0.831624
0.838144
0.844139
0.850394
0.857418
0.863981
0.871085
0.878689
0.885972
0.893922
0.90208
0.910209
0.91934
0.927983
0.936901
0.945917
0.954336
0.962006
0.969233
0.976284
0.982032
0.987383
0.992014
0.995607
0.997813
0.997994
0.996841
0.991807
0.982397
0.967284
0.945813
0.915925
0.875641
0.824242
0.760256
0.685316
0.607086
0.529219
0.465088
0.418977
0.389991
0.371319
0.359452
0.351163
0.343856
0.336584
0.328408
0.319474
0.308517
0.296044
0.283307
0.274036
0.268254
0.27068
0.269681
0.278986
0.283294
0.295878
2.6244
2.62228
2.62227
2.62201
2.62149
2.62059
2.6193
2.61752
2.61515
2.61209
2.60825
2.60354
2.59786
2.59108
2.58309
2.57363
2.56308
2.55135
2.53842
2.52409
2.50772
2.49041
2.47256
2.45422
2.4353
2.41568
2.39397
2.37206
2.35004
2.32889
2.30959
2.28961
2.26378
2.23009
2.15009
1.89804
1.25947
0.807232
0.672148
0.645399
0.6458
0.660289
0.674178
0.687308
0.698546
0.708506
0.717969
0.727341
0.736295
0.745233
0.753654
0.761827
0.769776
0.777043
0.784526
0.791399
0.797916
0.804559
0.810565
0.816642
0.823205
0.829388
0.83595
0.842779
0.849369
0.856659
0.864224
0.871791
0.880466
0.889015
0.898285
0.908096
0.917547
0.926953
0.935813
0.943827
0.950911
0.957271
0.962861
0.967732
0.971989
0.975342
0.977501
0.977924
0.976946
0.972717
0.965032
0.952866
0.935499
0.911424
0.878203
0.836388
0.785292
0.725358
0.65815
0.588472
0.519472
0.463499
0.422501
0.396394
0.379107
0.368531
0.362775
0.3569
0.351015
0.346481
0.342157
0.334304
0.325145
0.314545
0.302602
0.291374
0.284612
0.280047
0.28314
0.28304
0.292434
0.297631
0.30866
2.6247
2.62257
2.62259
2.62235
2.62188
2.62105
2.61982
2.6181
2.61583
2.61288
2.60913
2.60452
2.599
2.59243
2.58445
2.57527
2.56488
2.55325
2.54048
2.52627
2.51013
2.49283
2.47499
2.45671
2.43802
2.41848
2.39673
2.37453
2.35227
2.33107
2.31182
2.29207
2.26648
2.23275
2.15004
1.88587
1.24354
0.802075
0.671895
0.645461
0.645559
0.658427
0.670767
0.68285
0.693636
0.703087
0.712319
0.72152
0.730633
0.739549
0.748477
0.756849
0.765019
0.772742
0.779868
0.787045
0.793838
0.800602
0.807714
0.814527
0.821733
0.829153
0.836502
0.844634
0.852695
0.86106
0.870508
0.879772
0.889606
0.900069
0.910118
0.919726
0.928211
0.935336
0.941362
0.946872
0.951085
0.954992
0.957833
0.959971
0.960686
0.959616
0.955271
0.948229
0.937202
0.921853
0.900785
0.872594
0.837497
0.794534
0.74298
0.683742
0.62274
0.55894
0.501641
0.455674
0.421627
0.39913
0.383736
0.374601
0.369672
0.365644
0.362321
0.361066
0.357704
0.352281
0.347505
0.340383
0.331942
0.322242
0.311381
0.301661
0.29703
0.292983
0.296067
0.296324
0.305381
0.310823
0.320764
2.62506
2.62292
2.62295
2.62275
2.62231
2.62156
2.62041
2.61879
2.61663
2.61379
2.61017
2.60572
2.60036
2.59395
2.58616
2.57723
2.56682
2.55536
2.54275
2.52876
2.51308
2.49601
2.47792
2.45961
2.44089
2.42148
2.40012
2.37803
2.35594
2.33458
2.31506
2.29548
2.27028
2.23652
2.1497
1.87301
1.2144
0.788233
0.663877
0.638006
0.637884
0.650186
0.662197
0.674417
0.685482
0.695199
0.704495
0.713952
0.723228
0.73249
0.741412
0.750344
0.758957
0.767781
0.77632
0.784707
0.793229
0.801311
0.809494
0.817851
0.826061
0.834882
0.843568
0.852337
0.862
0.871524
0.882035
0.893064
0.903445
0.913214
0.921672
0.928559
0.933701
0.938037
0.941267
0.944048
0.945596
0.946219
0.944971
0.941502
0.934042
0.923238
0.908709
0.888866
0.862943
0.831104
0.792386
0.746392
0.695113
0.640713
0.58539
0.528991
0.482398
0.444639
0.416995
0.398892
0.386301
0.378709
0.374913
0.371694
0.369488
0.369521
0.369529
0.367719
0.364671
0.359375
0.354622
0.348038
0.340036
0.331069
0.321217
0.312643
0.309568
0.305769
0.308673
0.309255
0.318005
0.323468
0.332612
2.62545
2.62329
2.62336
2.6232
2.62281
2.62213
2.62105
2.61954
2.6175
2.61479
2.61135
2.60702
2.60182
2.59555
2.58815
2.57959
2.56919
2.55785
2.54544
2.53168
2.51642
2.49994
2.48196
2.46325
2.44388
2.42438
2.40416
2.38271
2.36117
2.33982
2.31894
2.29933
2.27447
2.24041
2.14819
1.86175
1.18591
0.775623
0.657193
0.632821
0.632323
0.643426
0.654721
0.66691
0.678071
0.687464
0.698208
0.708523
0.718934
0.729274
0.739583
0.749621
0.759747
0.769705
0.779786
0.789612
0.799201
0.808848
0.817996
0.827298
0.836688
0.8461
0.856154
0.866296
0.877018
0.888155
0.898891
0.908468
0.916929
0.923892
0.928601
0.931507
0.933679
0.934965
0.935613
0.934586
0.930903
0.923843
0.913164
0.898676
0.878968
0.853702
0.822966
0.786115
0.742882
0.695803
0.645596
0.595263
0.543097
0.498825
0.462603
0.434005
0.413867
0.399347
0.388419
0.381673
0.379112
0.376556
0.37419
0.375554
0.376383
0.376152
0.375941
0.375658
0.372687
0.36716
0.362109
0.355909
0.348458
0.340324
0.331566
0.323974
0.322008
0.318329
0.321037
0.322117
0.33049
0.335735
0.344068
2.6259
2.62373
2.62384
2.62369
2.62336
2.62276
2.62179
2.62041
2.61849
2.61599
2.6127
2.60854
2.60348
2.59743
2.59039
2.58212
2.57211
2.56074
2.54855
2.53516
2.52037
2.5044
2.48708
2.46726
2.44719
2.42741
2.40854
2.38858
2.36774
2.34618
2.32366
2.30359
2.27894
2.24489
2.14931
1.85594
1.16559
0.767792
0.65688
0.634768
0.634509
0.644949
0.656387
0.668754
0.680466
0.690217
0.702427
0.713391
0.724527
0.735388
0.745959
0.756419
0.766822
0.777221
0.787417
0.797618
0.807938
0.818336
0.829061
0.839508
0.850518
0.861932
0.873295
0.885078
0.896487
0.906578
0.914735
0.920952
0.925744
0.92792
0.929546
0.928461
0.928354
0.924186
0.918536
0.908207
0.893602
0.873888
0.848824
0.818158
0.781215
0.738842
0.693026
0.644794
0.597245
0.54849
0.506892
0.472849
0.445087
0.424613
0.409931
0.39848
0.390745
0.386265
0.383728
0.380869
0.378863
0.381137
0.381656
0.382083
0.383231
0.383706
0.383572
0.383368
0.380417
0.375058
0.369862
0.36404
0.357234
0.349923
0.342369
0.335602
0.334433
0.330726
0.333047
0.334724
0.342699
0.347584
0.355197
2.6264
2.62421
2.62437
2.62427
2.62399
2.62348
2.62264
2.62138
2.61959
2.61731
2.61417
2.61023
2.60543
2.59965
2.59286
2.58486
2.57549
2.56416
2.55215
2.53918
2.52503
2.50977
2.4926
2.47181
2.45133
2.43151
2.41365
2.39519
2.37486
2.3529
2.32971
2.30907
2.28468
2.25058
2.15243
1.85409
1.15805
0.768222
0.663163
0.643574
0.643763
0.653968
0.664168
0.67487
0.685325
0.693943
0.706278
0.716536
0.728722
0.740151
0.752654
0.764377
0.776696
0.788777
0.800784
0.812392
0.824087
0.836295
0.848369
0.860839
0.873673
0.886164
0.898045
0.90861
0.916878
0.923472
0.92756
0.92825
0.928683
0.926641
0.924034
0.917468
0.908024
0.894563
0.875096
0.850053
0.819102
0.781739
0.739113
0.693016
0.644791
0.59813
0.550662
0.510562
0.478074
0.451768
0.432115
0.417799
0.407137
0.399116
0.393553
0.390182
0.387807
0.385458
0.385878
0.386559
0.386704
0.38778
0.388757
0.389838
0.390839
0.391332
0.391054
0.390814
0.387871
0.382744
0.377609
0.372323
0.366245
0.359857
0.353751
0.347552
0.346858
0.342983
0.344823
0.347203
0.354747
0.359152
0.366007
2.62696
2.62475
2.62496
2.6249
2.62471
2.62427
2.62356
2.62246
2.62084
2.61874
2.61586
2.61224
2.60763
2.60206
2.59559
2.58801
2.57916
2.5683
2.55606
2.54351
2.53005
2.51562
2.4986
2.47695
2.45635
2.43686
2.4195
2.40217
2.38232
2.36048
2.33724
2.31581
2.29172
2.25775
2.15679
1.85066
1.15031
0.77177
0.672026
0.654665
0.655514
0.666206
0.676092
0.686304
0.696303
0.704553
0.717105
0.727004
0.739673
0.750969
0.76462
0.776658
0.790298
0.803228
0.817217
0.830725
0.845162
0.859935
0.875244
0.889677
0.903334
0.91482
0.923497
0.930297
0.933305
0.93627
0.934388
0.93062
0.923915
0.914597
0.901878
0.883379
0.858766
0.827533
0.78991
0.746351
0.699412
0.649838
0.60272
0.555608
0.515143
0.483241
0.458033
0.439007
0.424794
0.413915
0.406298
0.400581
0.395745
0.394886
0.393399
0.39029
0.390736
0.391415
0.393434
0.393825
0.393886
0.395913
0.397092
0.397756
0.398433
0.398826
0.398549
0.398159
0.395282
0.390409
0.385566
0.380919
0.375605
0.3701
0.365489
0.35965
0.359174
0.35516
0.356563
0.359465
0.366573
0.370502
0.376529
2.62756
2.62534
2.62562
2.62563
2.62549
2.62517
2.62457
2.62363
2.62223
2.62029
2.61779
2.61456
2.61001
2.60473
2.59864
2.59152
2.58317
2.57316
2.56084
2.54833
2.53566
2.522
2.50519
2.48326
2.46276
2.44345
2.42579
2.40947
2.3903
2.36897
2.3465
2.32415
2.30034
2.26618
2.16275
1.85087
1.12927
0.768337
0.675546
0.661669
0.66373
0.675942
0.686938
0.697885
0.708586
0.717912
0.731793
0.742918
0.757093
0.76982
0.785865
0.799191
0.815316
0.830118
0.847301
0.863662
0.88109
0.897814
0.913469
0.926857
0.936087
0.943933
0.947319
0.950348
0.945469
0.941658
0.931216
0.917792
0.89954
0.875925
0.845585
0.807759
0.762942
0.713981
0.662175
0.613277
0.565036
0.523266
0.491473
0.466472
0.447471
0.433073
0.422036
0.414498
0.408441
0.402602
0.401042
0.39997
0.397442
0.394657
0.398278
0.399038
0.398593
0.397622
0.400833
0.402436
0.402529
0.40412
0.405324
0.405737
0.40597
0.406198
0.405957
0.405465
0.402734
0.398152
0.393805
0.3899
0.385325
0.380549
0.377283
0.371746
0.371428
0.367338
0.368391
0.371513
0.378117
0.381608
0.386822
2.62822
2.62596
2.62631
2.62641
2.6264
2.62616
2.6257
2.62497
2.62379
2.62208
2.61989
2.61702
2.61282
2.60775
2.60212
2.59552
2.58773
2.5784
2.56652
2.55401
2.542
2.52906
2.51257
2.49121
2.47069
2.45115
2.43288
2.41722
2.39874
2.37801
2.35744
2.33389
2.30893
2.27111
2.15918
1.83974
1.09529
0.759068
0.67403
0.664621
0.668532
0.681891
0.694499
0.707733
0.720546
0.732501
0.748968
0.76228
0.7791
0.794607
0.814142
0.830528
0.851236
0.870558
0.892213
0.912283
0.930407
0.945652
0.956339
0.965665
0.9673
0.970457
0.965953
0.959903
0.945044
0.926553
0.902855
0.873771
0.836286
0.790562
0.739221
0.684124
0.632502
0.582144
0.536735
0.502836
0.477142
0.458213
0.443927
0.432592
0.424262
0.418114
0.412872
0.409167
0.407927
0.405034
0.401131
0.402946
0.404591
0.403479
0.403004
0.406134
0.407136
0.40556
0.408816
0.41092
0.411375
0.412284
0.413566
0.413752
0.413628
0.413586
0.413493
0.412996
0.410445
0.406221
0.402516
0.399272
0.395342
0.391135
0.389029
0.383777
0.383573
0.379463
0.380199
0.383271
0.389367
0.392536
0.396937
2.62893
2.62664
2.62705
2.6273
2.6274
2.62727
2.62697
2.62643
2.6255
2.62403
2.62218
2.61966
2.616
2.61123
2.606
2.59991
2.5927
2.58409
2.5731
2.56064
2.54888
2.53646
2.52073
2.50121
2.48012
2.46028
2.44159
2.42522
2.40791
2.3881
2.36799
2.34466
2.31914
2.27935
2.16366
1.8308
1.07675
0.759381
0.682754
0.67726
0.685141
0.700794
0.716353
0.732849
0.747706
0.762877
0.78211
0.797996
0.818235
0.836829
0.860828
0.882654
0.907627
0.930993
0.952087
0.971609
0.982481
0.992873
0.994584
0.999161
0.990122
0.983425
0.965497
0.942804
0.911551
0.873937
0.828409
0.776074
0.71783
0.661354
0.608599
0.556849
0.519048
0.491515
0.471002
0.455588
0.444107
0.436062
0.430246
0.424981
0.42037
0.417688
0.414681
0.411324
0.410052
0.411526
0.410357
0.408712
0.411051
0.411628
0.410888
0.413916
0.415384
0.413785
0.417
0.41936
0.420097
0.420327
0.421637
0.421801
0.421586
0.42118
0.421222
0.420743
0.418418
0.414575
0.411506
0.408806
0.405481
0.401784
0.400685
0.395742
0.395646
0.391561
0.391952
0.394832
0.400322
0.403082
0.40672
2.62971
2.62737
2.62786
2.62825
2.62852
2.62853
2.62839
2.62806
2.62738
2.62618
2.62466
2.62257
2.61948
2.61516
2.6103
2.6048
2.59819
2.59028
2.58057
2.56855
2.55647
2.5444
2.52997
2.51264
2.49135
2.47146
2.45199
2.43361
2.41733
2.39892
2.37881
2.35472
2.32885
2.28698
2.17208
1.81175
1.05417
0.75575
0.68912
0.68951
0.704796
0.724959
0.746046
0.767762
0.785586
0.806926
0.829949
0.851203
0.87762
0.901923
0.932879
0.959817
0.983554
1.0054
1.01646
1.0308
1.02687
1.03178
1.01842
1.01087
0.986166
0.959268
0.920771
0.874516
0.8192
0.759133
0.69555
0.63838
0.582047
0.537675
0.507657
0.485242
0.468917
0.4575
0.448848
0.442602
0.436923
0.433529
0.430618
0.42753
0.423918
0.42169
0.421658
0.420219
0.417608
0.417707
0.417935
0.416245
0.418565
0.419921
0.418718
0.421921
0.423665
0.422235
0.425049
0.427782
0.428737
0.428374
0.429531
0.430006
0.429833
0.42899
0.429167
0.428771
0.426719
0.423255
0.420743
0.41853
0.415814
0.412625
0.412287
0.407671
0.407618
0.403598
0.40366
0.406228
0.411101
0.413477
0.416546
2.63055
2.62816
2.62872
2.62926
2.6297
2.62995
2.62996
2.62983
2.62947
2.62859
2.62742
2.62578
2.6233
2.6195
2.61521
2.61033
2.60437
2.59722
2.58856
2.57761
2.56561
2.5536
2.54033
2.52436
2.50506
2.48426
2.46399
2.44457
2.42712
2.40968
2.39011
2.3648
2.33787
2.29457
2.17736
1.79314
1.03713
0.757168
0.700488
0.706213
0.728276
0.752924
0.780544
0.808978
0.833157
0.862958
0.89137
0.925299
0.95702
0.987373
1.02106
1.04306
1.06031
1.07054
1.06912
1.06632
1.0479
1.03709
1.00375
0.972852
0.923254
0.867467
0.804888
0.736159
0.672526
0.61199
0.559011
0.523511
0.497958
0.48043
0.468406
0.459813
0.453687
0.448889
0.445732
0.442721
0.43943
0.435882
0.435707
0.434673
0.432633
0.429695
0.428664
0.428237
0.425911
0.426076
0.426283
0.424216
0.426066
0.427778
0.426679
0.429785
0.431876
0.431157
0.432851
0.436007
0.437166
0.436816
0.437409
0.43846
0.438409
0.437081
0.437349
0.43703
0.435229
0.432167
0.430166
0.428428
0.426329
0.423572
0.423787
0.419499
0.419572
0.415672
0.415442
0.417491
0.421608
0.423464
0.425887
2.63146
2.62902
2.62965
2.6303
2.63097
2.63145
2.63173
2.63182
2.63169
2.63124
2.63046
2.6293
2.62747
2.62428
2.6207
2.61654
2.61126
2.60486
2.59708
2.58776
2.57654
2.56422
2.55169
2.53727
2.52047
2.49968
2.47868
2.45803
2.43835
2.4213
2.4021
2.37558
2.34647
2.29949
2.16794
1.7779
1.04395
0.775686
0.728213
0.739936
0.770094
0.801651
0.837802
0.874518
0.91171
0.953697
0.991749
1.02974
1.06212
1.084
1.11133
1.11179
1.12096
1.09845
1.08525
1.05125
1.01975
0.971447
0.912407
0.849363
0.776686
0.705907
0.640852
0.579088
0.536258
0.507837
0.488147
0.475684
0.467351
0.461682
0.458178
0.454732
0.452686
0.450759
0.447934
0.447166
0.446026
0.443106
0.442046
0.44203
0.440855
0.438667
0.437506
0.437056
0.435101
0.434258
0.434515
0.432491
0.433665
0.435514
0.434571
0.437295
0.440028
0.440469
0.440814
0.443905
0.445522
0.44564
0.445518
0.446953
0.447062
0.445356
0.445763
0.445566
0.444042
0.441436
0.439838
0.438555
0.437015
0.43462
0.435241
0.43121
0.431344
0.427573
0.427114
0.42856
0.431994
0.433437
0.435374
2.63246
2.62997
2.63068
2.63141
2.63226
2.63303
2.6336
2.63405
2.6342
2.63417
2.63379
2.63311
2.63191
2.62969
2.62667
2.62343
2.61904
2.61334
2.60656
2.59856
2.58889
2.57696
2.56458
2.55135
2.53621
2.5183
2.4961
2.47396
2.45263
2.43383
2.41357
2.38568
2.35352
2.29689
2.1404
1.74506
1.04513
0.797316
0.76477
0.785219
0.824307
0.867293
0.913447
0.963219
1.01393
1.06228
1.10185
1.12894
1.15756
1.15975
1.17269
1.14244
1.12673
1.0746
1.03376
0.9638
0.894754
0.817596
0.737088
0.665176
0.595792
0.545086
0.512195
0.489772
0.475872
0.467424
0.46235
0.459495
0.457958
0.45712
0.456317
0.455887
0.453623
0.454221
0.453547
0.452362
0.45194
0.450299
0.449303
0.449385
0.448972
0.447481
0.445818
0.445734
0.444233
0.442704
0.442851
0.441248
0.441447
0.443318
0.442973
0.444778
0.448057
0.449237
0.44873
0.451697
0.453993
0.454614
0.453853
0.455503
0.455795
0.453953
0.454567
0.454489
0.453209
0.45109
0.449736
0.448847
0.44774
0.445621
0.446566
0.442729
0.44303
0.439563
0.439141
0.439885
0.442355
0.44308
0.44433
2.63357
2.63103
2.63181
2.6326
2.63365
2.63469
2.63552
2.63637
2.63701
2.63743
2.63749
2.63732
2.6367
2.63561
2.63332
2.63085
2.62772
2.6229
2.61718
2.61049
2.60243
2.59192
2.57958
2.5674
2.55363
2.53753
2.51777
2.49427
2.4712
2.44895
2.42772
2.39775
2.36246
2.29843
2.12141
1.72867
1.06585
0.843858
0.819301
0.854737
0.90416
0.960499
1.01839
1.07962
1.12885
1.16961
1.19962
1.21094
1.22115
1.19076
1.1636
1.10776
1.04509
0.957524
0.87073
0.776068
0.69351
0.615462
0.552993
0.512934
0.4866
0.470728
0.461632
0.45647
0.453834
0.453393
0.452966
0.454582
0.454855
0.45627
0.457214
0.458354
0.458807
0.45783
0.458495
0.458437
0.45811
0.457359
0.456228
0.456392
0.456668
0.455738
0.453752
0.454006
0.452953
0.450862
0.451115
0.450414
0.4495
0.451181
0.451852
0.452533
0.455882
0.457518
0.456916
0.459472
0.462483
0.463375
0.462367
0.464112
0.464659
0.462898
0.463783
0.463789
0.462711
0.461102
0.459879
0.459343
0.458616
0.45672
0.457905
0.454202
0.454464
0.451169
0.450799
0.450824
0.45247
0.452759
0.453622
2.63477
2.63217
2.63304
2.63392
2.63514
2.63645
2.6376
2.63877
2.63996
2.64094
2.64168
2.64204
2.64211
2.6418
2.64076
2.63906
2.63695
2.63379
2.62897
2.62373
2.61727
2.6089
2.59743
2.58557
2.57359
2.55929
2.54186
2.51969
2.495
2.46981
2.44575
2.4139
2.37578
2.30268
2.10271
1.70982
1.09409
0.918377
0.910855
0.963182
1.02513
1.09352
1.1534
1.20777
1.23833
1.2633
1.25776
1.24408
1.19808
1.14386
1.05483
0.955872
0.845256
0.740656
0.646771
0.564754
0.512873
0.481207
0.462425
0.452116
0.446719
0.44473
0.444354
0.446245
0.446911
0.449344
0.450179
0.452615
0.454542
0.456334
0.457936
0.459275
0.460996
0.462301
0.462668
0.46351
0.463976
0.463885
0.463314
0.463197
0.463953
0.463384
0.461537
0.462062
0.461298
0.459143
0.459566
0.4593
0.457608
0.459036
0.46031
0.460183
0.463568
0.465677
0.465826
0.467431
0.470619
0.471839
0.471148
0.472807
0.473691
0.472284
0.473396
0.473393
0.472451
0.471352
0.470206
0.469968
0.469555
0.467828
0.469189
0.465622
0.465804
0.462695
0.462582
0.462171
0.462862
0.46233
0.46226
2.63606
2.63341
2.6344
2.63537
2.63677
2.63833
2.63985
2.64129
2.64308
2.64468
2.64609
2.64718
2.64818
2.64862
2.64876
2.64827
2.64719
2.64564
2.64244
2.63853
2.63389
2.62754
2.6178
2.60702
2.59642
2.58407
2.56855
2.54987
2.52629
2.49837
2.46948
2.43645
2.39661
2.31548
2.08926
1.68312
1.13249
1.02042
1.03737
1.1079
1.17696
1.24618
1.28376
1.3193
1.30687
1.297
1.23789
1.18027
1.07391
0.960189
0.829553
0.707619
0.600618
0.521058
0.476299
0.451635
0.43976
0.434277
0.432907
0.433061
0.434819
0.436089
0.438464
0.441078
0.444213
0.447586
0.450609
0.45344
0.455972
0.458343
0.46042
0.462327
0.463726
0.46556
0.467157
0.46833
0.469387
0.470014
0.47013
0.469894
0.470918
0.470739
0.469218
0.470043
0.469534
0.467561
0.468241
0.46802
0.466032
0.467132
0.46844
0.467902
0.471034
0.473913
0.474947
0.475334
0.478402
0.480132
0.480268
0.481458
0.482802
0.482089
0.483244
0.483144
0.482262
0.481638
0.480679
0.48079
0.480717
0.479118
0.480542
0.477036
0.476975
0.473922
0.473642
0.472674
0.472378
0.471434
0.471027
2.63748
2.63477
2.63582
2.63694
2.63852
2.6404
2.64226
2.64402
2.64632
2.64863
2.6508
2.65258
2.65454
2.65628
2.65757
2.65856
2.65855
2.65832
2.65746
2.65519
2.65257
2.64825
2.6408
2.63202
2.62323
2.61323
2.59997
2.58348
2.56344
2.53716
2.50481
2.47288
2.43314
2.34392
2.09926
1.63245
1.21713
1.16108
1.20124
1.2732
1.32734
1.37262
1.36847
1.3594
1.29047
1.22853
1.10517
0.970426
0.821952
0.684714
0.56634
0.486473
0.445376
0.42646
0.419988
0.41869
0.419536
0.421597
0.423755
0.426797
0.430518
0.434289
0.438024
0.441594
0.444832
0.448051
0.451075
0.454122
0.45694
0.45976
0.462309
0.464871
0.467076
0.46922
0.471015
0.473046
0.474666
0.475861
0.476508
0.476385
0.477584
0.477832
0.476683
0.477781
0.477557
0.475902
0.476899
0.476696
0.474665
0.475666
0.476685
0.475902
0.478659
0.482062
0.483471
0.483119
0.486045
0.488611
0.489601
0.49015
0.491881
0.492111
0.49322
0.493082
0.492222
0.492066
0.491246
0.49162
0.491807
0.49038
0.49178
0.488465
0.488422
0.4857
0.485256
0.483856
0.482576
0.481036
0.47972
2.63902
2.63621
2.63737
2.63865
2.6404
2.6426
2.64492
2.64708
2.64969
2.65283
2.65577
2.65848
2.66121
2.66445
2.66716
2.66967
2.67145
2.67287
2.67379
2.67357
2.67325
2.671
2.6665
2.66082
2.65519
2.64798
2.63771
2.62411
2.60752
2.58578
2.557
2.53172
2.49445
2.40106
2.13493
1.65724
1.33725
1.319
1.35497
1.40196
1.42447
1.41941
1.34855
1.278
1.15016
1.00132
0.829346
0.672846
0.541653
0.458799
0.419431
0.40481
0.401974
0.402342
0.406166
0.409715
0.414307
0.418789
0.422925
0.426777
0.430386
0.433896
0.437454
0.44109
0.444705
0.448442
0.451952
0.455547
0.458811
0.462102
0.465033
0.468109
0.47075
0.473437
0.475704
0.477935
0.480058
0.481802
0.482966
0.482994
0.4844
0.48498
0.484142
0.485417
0.485522
0.484233
0.485534
0.48543
0.483488
0.484533
0.485207
0.48422
0.486463
0.490023
0.491589
0.490944
0.493783
0.497154
0.498759
0.498835
0.500966
0.502122
0.50335
0.503277
0.502409
0.502713
0.501991
0.502611
0.503083
0.50187
0.503113
0.499893
0.499575
0.496903
0.495914
0.493897
0.491638
0.489765
0.488445
2.64066
2.63777
2.63903
2.64052
2.64241
2.64494
2.64772
2.6504
2.65341
2.65729
2.6611
2.66477
2.6684
2.673
2.6775
2.68161
2.68535
2.68845
2.69209
2.69489
2.69639
2.69704
2.69607
2.69448
2.69265
2.6891
2.68252
2.67345
2.66196
2.64625
2.62929
2.61131
2.57925
2.47347
2.19096
1.74062
1.47831
1.45225
1.45071
1.45774
1.42716
1.33852
1.22464
1.05169
0.872034
0.689996
0.535452
0.439603
0.396119
0.385076
0.381674
0.386663
0.391603
0.397901
0.403736
0.408881
0.413566
0.417992
0.422293
0.426561
0.430759
0.434791
0.438716
0.442588
0.446246
0.450053
0.453616
0.457448
0.460912
0.46462
0.468019
0.471528
0.474611
0.477625
0.480338
0.482901
0.485352
0.487541
0.489321
0.489714
0.491417
0.49225
0.491659
0.493033
0.493524
0.49258
0.494163
0.494193
0.492405
0.493631
0.494061
0.493057
0.494533
0.497908
0.499497
0.498864
0.501648