/*--------------------------------*- C++ -*----------------------------------*\
| =========                 |                                                 |
| \\      /  F ield         | OpenFOAM: The Open Source CFD Toolbox           |
|  \\    /   O peration     | Version:  2.2.x                                 |
|   \\  /    A nd           | Web:      www.OpenFOAM.org                      |
|    \\/     M anipulation  |                                                 |
\*---------------------------------------------------------------------------*/
FoamFile
{
    version     2.0;
    format      ascii;
    class       volScalarField;
    location    "1.15";
    object      p;
}
// * * * * * * * * * * * * * * * * * * * * * * * * * * * * * * * * * * * * * //

dimensions      [1 -1 -2 0 0 0 0];

internalField   nonuniform List<scalar> 
14161
(
0.198161
0.198293
0.198152
0.19796
0.197697
0.197368
0.196965
0.196488
0.195936
0.195308
0.194605
0.193829
0.192983
0.19207
0.191098
0.190102
0.189051
0.187946
0.186869
0.185777
0.18466
0.183641
0.182646
0.181661
0.180792
0.180055
0.179341
0.17868
0.178188
0.177837
0.177667
0.177581
0.177544
0.177627
0.177784
0.178044
0.178378
0.17877
0.179164
0.179791
0.180368
0.181396
0.184642
0.193791
0.201182
1.0013
1.63044
1.69303
1.6024
1.54253
1.5034
1.47164
1.44366
1.41152
1.38194
1.35221
1.32378
1.29386
1.26292
1.23421
1.20698
1.18094
1.15971
1.13978
1.12509
1.11492
1.10949
1.10718
1.10714
1.10852
1.10997
1.11169
1.11317
1.11779
1.1257
1.13807
1.14994
1.15683
1.1599
1.15931
1.15726
1.16164
1.21445
1.30767
1.47677
1.64074
1.78387
1.85699
1.91189
1.93878
1.96007
1.97592
1.98648
1.99182
1.99601
1.99771
1.99622
1.99331
1.99098
1.98808
1.98535
1.98217
1.97865
1.97344
1.96898
1.96424
1.96165
1.95977
1.95898
1.95975
1.96098
1.96669
1.97231
1.98051
1.98914
1.99537
2.00067
2.00425
2.00726
0.198158
0.19829
0.198149
0.197957
0.197694
0.197364
0.19696
0.196483
0.19593
0.195302
0.194598
0.193822
0.192976
0.192066
0.191099
0.190086
0.189026
0.187923
0.186861
0.185777
0.184648
0.183609
0.182596
0.181635
0.180789
0.180054
0.179335
0.178651
0.17814
0.177768
0.17756
0.177453
0.177379
0.177422
0.177521
0.177682
0.177896
0.17808
0.178143
0.177998
0.177599
0.176758
0.174566
0.172071
0.169246
0.648927
1.49941
1.47224
1.44446
1.42404
1.42319
1.41808
1.41587
1.40777
1.39599
1.3781
1.35806
1.33426
1.31
1.28601
1.2625
1.24005
1.21953
1.20039
1.18523
1.1741
1.16794
1.16367
1.16309
1.16483
1.16657
1.16849
1.1703
1.17578
1.18534
1.19882
1.21368
1.2269
1.23787
1.24792
1.26293
1.28122
1.34663
1.39751
1.50479
1.62548
1.73522
1.81777
1.89052
1.9277
1.95396
1.97216
1.98301
1.98692
1.99008
1.99304
1.99242
1.98844
1.98685
1.98557
1.98319
1.98088
1.97752
1.97354
1.96864
1.96661
1.96542
1.96488
1.96449
1.96417
1.96451
1.9705
1.97633
1.9846
1.99257
1.99875
2.00328
2.00616
2.00894
0.198157
0.198289
0.198148
0.197955
0.197692
0.197362
0.196958
0.196481
0.195928
0.195299
0.194595
0.193819
0.192972
0.192064
0.191097
0.190081
0.189021
0.187924
0.186853
0.185777
0.184657
0.183604
0.182569
0.181593
0.180757
0.180036
0.179333
0.178644
0.178122
0.177765
0.177615
0.177566
0.177548
0.177678
0.177912
0.178309
0.178837
0.179494
0.18019
0.180987
0.181619
0.182407
0.182341
0.183136
0.181643
0.317249
1.25761
1.28808
1.29245
1.29484
1.31856
1.3352
1.34622
1.34605
1.33916
1.3307
1.3142
1.29665
1.27593
1.25422
1.23205
1.20896
1.18783
1.16872
1.15427
1.14419
1.13841
1.13557
1.13589
1.13863
1.14099
1.14288
1.14541
1.15059
1.16101
1.17262
1.1841
1.19339
1.20005
1.2107
1.23251
1.26835
1.3479
1.42652
1.51145
1.58204
1.6587
1.72374
1.79457
1.85638
1.90835
1.94256
1.96645
1.97987
1.98534
1.98695
1.98767
1.98443
1.98285
1.98088
1.97824
1.97535
1.97197
1.96845
1.96484
1.96294
1.96291
1.96285
1.96241
1.96378
1.96595
1.97164
1.9778
1.98651
1.99412
1.99646
1.99897
2.00103
2.00385
0.198155
0.198286
0.198144
0.197952
0.197688
0.197357
0.196953
0.196475
0.195921
0.195291
0.194586
0.193808
0.192961
0.192049
0.191082
0.190058
0.189
0.18792
0.18682
0.185734
0.184645
0.183556
0.182525
0.181551
0.1807
0.179943
0.179233
0.178552
0.178023
0.177622
0.177374
0.177228
0.177087
0.177056
0.177104
0.177168
0.177279
0.17735
0.177216
0.176701
0.175636
0.173196
0.166419
0.156326
0.156548
0.655197
1.36685
1.38979
1.37859
1.36101
1.35607
1.34959
1.34102
1.3235
1.30555
1.28894
1.26634
1.24522
1.22147
1.19714
1.17116
1.14679
1.12412
1.10569
1.09218
1.08231
1.0781
1.07759
1.07872
1.08232
1.08591
1.08954
1.09362
1.10219
1.11524
1.13123
1.14895
1.16499
1.17619
1.18701
1.21689
1.25941
1.36637
1.45218
1.49994
1.53035
1.57879
1.62476
1.68792
1.75699
1.83344
1.89848
1.93943
1.96559
1.97543
1.9802
1.98201
1.98161
1.97976
1.97766
1.97501
1.97218
1.96852
1.96539
1.96342
1.96274
1.96295
1.96346
1.96422
1.96612
1.96887
1.97446
1.97816
1.98561
1.99129
1.99237
1.99436
1.99511
1.99883
0.198155
0.198285
0.198143
0.19795
0.197686
0.197355
0.19695
0.196472
0.195917
0.195287
0.194581
0.193802
0.192954
0.192041
0.191074
0.190047
0.188977
0.187911
0.18679
0.185689
0.18462
0.183495
0.182498
0.181549
0.180674
0.179868
0.179116
0.178441
0.177951
0.177595
0.177445
0.177395
0.17738
0.177534
0.177843
0.178363
0.179109
0.180105
0.181317
0.182868
0.185001
0.187417
0.190055
0.194404
0.205008
1.00838
1.48793
1.57936
1.56516
1.51835
1.48535
1.45034
1.41022
1.37413
1.33511
1.30321
1.27126
1.24164
1.21044
1.18412
1.16011
1.13691
1.1145
1.09657
1.08369
1.07476
1.06884
1.06633
1.06605
1.0667
1.06943
1.07133
1.07363
1.07585
1.08626
1.10192
1.12202
1.13888
1.1527
1.16826
1.2094
1.30528
1.37625
1.4317
1.44934
1.46616
1.50082
1.53575
1.59105
1.65464
1.73098
1.81316
1.88572
1.93436
1.961
1.96985
1.97255
1.97261
1.97223
1.97187
1.97066
1.96871
1.96602
1.96371
1.96271
1.9634
1.96392
1.96554
1.96827
1.97081
1.97387
1.97768
1.97749
1.98304
1.98611
1.98607
1.98793
1.9885
1.99369
0.198153
0.198282
0.19814
0.197947
0.197682
0.197349
0.196944
0.196465
0.195909
0.195277
0.194569
0.193788
0.192938
0.192022
0.191049
0.190009
0.188953
0.187897
0.186747
0.185647
0.184576
0.183428
0.182418
0.181479
0.180587
0.179735
0.178977
0.178288
0.177754
0.177329
0.177039
0.176818
0.176587
0.17648
0.176446
0.176474
0.176536
0.176683
0.176797
0.177123
0.177804
0.178731
0.180336
0.185089
0.2379
1.17873
1.5683
1.65725
1.6605
1.60425
1.56735
1.52263
1.47432
1.43222
1.38756
1.34587
1.30749
1.27049
1.23655
1.20704
1.17866
1.14915
1.12375
1.10373
1.08742
1.07603
1.06933
1.06386
1.06307
1.06378
1.06516
1.06712
1.06957
1.07259
1.07589
1.09043
1.11522
1.14387
1.17456
1.21196
1.26875
1.32967
1.37862
1.38947
1.39664
1.40063
1.42605
1.45717
1.50305
1.55715
1.63006
1.71276
1.80722
1.89098
1.93919
1.95687
1.96326
1.96602
1.96569
1.96519
1.96497
1.96517
1.96486
1.96488
1.96482
1.96667
1.96754
1.9689
1.97074
1.9722
1.97376
1.97512
1.97521
1.97976
1.98109
1.97941
1.98141
1.98116
1.98794
0.198152
0.198281
0.198138
0.197944
0.197679
0.197346
0.19694
0.19646
0.195903
0.19527
0.194561
0.193779
0.192926
0.192003
0.191038
0.189998
0.188918
0.187857
0.186701
0.185595
0.184535
0.183386
0.182343
0.181386
0.180459
0.179616
0.178851
0.178168
0.177627
0.17724
0.177049
0.176948
0.176912
0.177091
0.177401
0.178014
0.178977
0.180297
0.182067
0.184578
0.187721
0.191726
0.197146
0.202881
0.266348
1.26124
1.60953
1.6842
1.6824
1.6227
1.58453
1.53893
1.48912
1.44141
1.39947
1.3621
1.32404
1.28638
1.25666
1.23046
1.20769
1.17317
1.15185
1.13219
1.11585
1.10564
1.09784
1.09165
1.08903
1.08818
1.0887
1.08905
1.0883
1.08979
1.09168
1.10924
1.13424
1.17924
1.24548
1.29
1.34927
1.3712
1.37284
1.36007
1.36106
1.35846
1.36623
1.38584
1.42312
1.46502
1.52783
1.60737
1.70586
1.81512
1.89893
1.93346
1.94581
1.95046
1.95131
1.95346
1.95538
1.95873
1.96131
1.96469
1.96595
1.97083
1.97136
1.97328
1.97468
1.97514
1.97572
1.97465
1.97281
1.97506
1.97495
1.97235
1.97426
1.97257
1.9812
0.198151
0.198278
0.198135
0.197941
0.197674
0.197341
0.196933
0.196452
0.195893
0.195259
0.194547
0.193762
0.192906
0.191984
0.191002
0.189962
0.188883
0.187812
0.186656
0.185524
0.184434
0.183331
0.182219
0.181247
0.180306
0.179427
0.178651
0.177938
0.177331
0.176837
0.176463
0.176149
0.175827
0.175585
0.175411
0.175272
0.175146
0.17504
0.175002
0.175101
0.175514
0.176446
0.178306
0.181659
0.225596
1.18303
1.61744
1.66357
1.63407
1.58459
1.55094
1.50703
1.47428
1.43604
1.39944
1.35741
1.32684
1.29022
1.26265
1.22766
1.20466
1.16939
1.15028
1.12888
1.11451
1.10407
1.09735
1.09557
1.09526
1.09711
1.09845
1.10104
1.10281
1.10603
1.1046
1.10625
1.15967
1.22285
1.27014
1.33692
1.38607
1.38424
1.36841
1.35394
1.34424
1.33414
1.32987
1.33143
1.35613
1.38193
1.42963
1.49442
1.58434
1.70827
1.82398
1.88677
1.90862
1.91971
1.92604
1.93173
1.93779
1.94533
1.95134
1.9577
1.96273
1.96784
1.97109
1.97411
1.97677
1.97619
1.97672
1.97344
1.97035
1.96961
1.96792
1.96478
1.96642
1.96323
1.97419
0.19815
0.198277
0.198133
0.197938
0.197671
0.197337
0.196928
0.196446
0.195886
0.195249
0.194536
0.193748
0.19289
0.191964
0.190976
0.189944
0.188856
0.187744
0.186607
0.185445
0.184347
0.183261
0.182099
0.181092
0.180137
0.179237
0.178444
0.17774
0.177101
0.176639
0.176312
0.176168
0.176079
0.176177
0.176439
0.176978
0.177849
0.179119
0.180823
0.183219
0.185989
0.189807
0.193054
0.197092
0.210999
0.85471
1.54131
1.5509
1.50981
1.48581
1.46074
1.42219
1.40143
1.36639
1.34034
1.29938
1.27484
1.23505
1.21262
1.17257
1.15293
1.11567
1.10207
1.07444
1.06449
1.04869
1.04417
1.04215
1.04127
1.04527
1.04902
1.05351
1.05594
1.05994
1.07613
1.09275
1.15542
1.20347
1.31568
1.36254
1.38534
1.36601
1.36371
1.33658
1.33144
1.31409
1.30697
1.29765
1.30224
1.31087
1.33756
1.38178
1.45841
1.57781
1.71777
1.8061
1.84284
1.86467
1.88101
1.90098
1.916
1.92951
1.93935
1.94949
1.95775
1.96542
1.97174
1.97593
1.97899
1.97798
1.97813
1.97158
1.96754
1.96334
1.96055
1.95675
1.95796
1.95345
1.9668
0.198149
0.198275
0.198131
0.197934
0.197666
0.197331
0.196921
0.196437
0.195875
0.195235
0.194519
0.193727
0.192863
0.191933
0.190939
0.189893
0.188797
0.187665
0.186554
0.185361
0.184222
0.183132
0.181987
0.180905
0.179938
0.179012
0.17815
0.177377
0.176676
0.176097
0.175591
0.175201
0.174794
0.174342
0.173939
0.173469
0.172862
0.172035
0.170741
0.168762
0.165663
0.16159
0.152856
0.147757
0.133116
0.374471
1.51586
1.48294
1.43267
1.39368
1.36476
1.33008
1.3114
1.27487
1.25557
1.21655
1.19879
1.15819
1.14373
1.10261
1.09047
1.05277
1.04578
1.01833
1.01551
0.995302
0.99423
0.987821
0.985241
0.987632
0.989438
0.994486
0.997212
0.999702
1.01045
1.01142
1.07906
1.14545
1.25828
1.29539
1.3455
1.33077
1.34
1.31665
1.30972
1.29465
1.28249
1.27012
1.25878
1.25434
1.26365
1.28764
1.34416
1.44946
1.60687
1.72161
1.77836
1.81506
1.84611
1.87122
1.89227
1.9098
1.92441
1.93762
1.94897
1.95794
1.96676
1.97135
1.97626
1.97579
1.97652
1.9694
1.9656
1.95945
1.95409
1.94823
1.94914
1.94366
1.95895
0.198148
0.198273
0.198128
0.197931
0.197662
0.197325
0.196914
0.196429
0.195865
0.195223
0.194504
0.193709
0.19284
0.191905
0.190899
0.189849
0.188753
0.187595
0.18646
0.185305
0.184082
0.182952
0.181842
0.180683
0.179703
0.178793
0.177883
0.177022
0.176296
0.175693
0.175265
0.174926
0.174707
0.174628
0.174737
0.175013
0.175517
0.176314
0.1775
0.178978
0.180831
0.184371
0.186225
0.189542
0.197841
0.491668
1.59059
1.47788
1.4028
1.34308
1.30646
1.2776
1.25925
1.22341
1.21296
1.17729
1.16851
1.12627
1.12044
1.07007
1.06161
1.01778
1.01384
0.983578
0.98157
0.960396
0.962917
0.955518
0.954903
0.954562
0.95446
0.955677
0.956693
0.955412
0.960576
0.966774
1.03642
1.10937
1.19348
1.21831
1.263
1.26808
1.29485
1.27901
1.27832
1.26042
1.2528
1.23525
1.21618
1.20737
1.20876
1.22192
1.26226
1.3553
1.51734
1.65997
1.7432
1.79289
1.83147
1.86028
1.88302
1.90207
1.91827
1.93187
1.94436
1.95431
1.96478
1.96989
1.97504
1.97367
1.97361
1.9666
1.96234
1.95271
1.94565
1.93697
1.93804
1.93251
1.95029
0.198146
0.198271
0.198125
0.197927
0.197657
0.197319
0.196906
0.196418
0.195851
0.195207
0.194483
0.193683
0.192809
0.191866
0.190855
0.189788
0.188685
0.18751
0.18635
0.185201
0.183939
0.182779
0.181659
0.180469
0.179397
0.178464
0.177511
0.176566
0.175758
0.175062
0.174443
0.173833
0.173262
0.172712
0.172115
0.171401
0.170592
0.169605
0.168445
0.166923
0.164941
0.163882
0.161611
0.160932
0.170739
0.455573
1.53189
1.47331
1.39242
1.31794
1.27689
1.24854
1.23063
1.19849
1.18556
1.14888
1.14439
1.09861
1.09531
1.03846
1.03104
0.990943
0.983554
0.961778
0.955921
0.94503
0.94271
0.939176
0.937955
0.93817
0.938806
0.940309
0.939739
0.937004
0.942193
0.947261
1.02852
1.10984
1.15626
1.15002
1.18579
1.19006
1.22166
1.22108
1.22497
1.2113
1.20854
1.19156
1.17603
1.16898
1.17179
1.18221
1.21674
1.3063
1.46086
1.62608
1.73146
1.79125
1.83372
1.8645
1.8881
1.90625
1.92067
1.93094
1.94147
1.95018
1.96052
1.96548
1.97128
1.97113
1.97105
1.96381
1.95881
1.94607
1.93747
1.92707
1.92808
1.92294
1.94176
0.198145
0.198269
0.198123
0.197924
0.197652
0.197313
0.196898
0.196408
0.195839
0.195191
0.194464
0.193659
0.192779
0.191828
0.190806
0.189723
0.188619
0.187431
0.186239
0.185079
0.183804
0.182572
0.181424
0.180262
0.179071
0.178063
0.177096
0.176087
0.175221
0.174506
0.173891
0.173336
0.172833
0.172452
0.172199
0.172169
0.172295
0.172541
0.172856
0.173397
0.173932
0.174761
0.1749
0.175333
0.191247
0.444464
1.34093
1.37213
1.33258
1.27841
1.24748
1.2277
1.19638
1.17496
1.14985
1.12038
1.11562
1.07023
1.06629
1.01504
1.00974
0.960715
0.963672
0.941824
0.935455
0.929028
0.928424
0.926924
0.926222
0.927802
0.930863
0.935671
0.935131
0.932731
0.937194
0.946029
1.05562
1.10368
1.12834
1.10816
1.11371
1.11704
1.13952
1.14345
1.15478
1.15215
1.15365
1.1473
1.1452
1.14195
1.14824
1.16263
1.20339
1.29051
1.43275
1.60917
1.73055
1.79501
1.83582
1.86283
1.88544
1.90447
1.92011
1.93036
1.9395
1.94722
1.95705
1.96137
1.96735
1.96828
1.96833
1.96072
1.95477
1.94011
1.92921
1.91588
1.91678
1.91256
1.93263
0.198143
0.198266
0.19812
0.19792
0.197647
0.197305
0.196889
0.196396
0.195824
0.195171
0.194439
0.193627
0.19274
0.19178
0.190751
0.189651
0.188526
0.187338
0.186096
0.184891
0.183673
0.182341
0.181148
0.180001
0.178744
0.17761
0.176614
0.175597
0.174549
0.173691
0.172958
0.17223
0.171357
0.170527
0.169725
0.168955
0.168107
0.167054
0.165517
0.163902
0.161945
0.16025
0.15872
0.15792
0.184373
0.584129
1.07289
1.18184
1.21319
1.22748
1.20576
1.22161
1.1802
1.17367
1.1288
1.1283
1.08287
1.08062
1.02767
1.02733
0.969242
0.963115
0.945068
0.936616
0.923571
0.921843
0.923079
0.922865
0.92225
0.923628
0.928132
0.933801
0.931878
0.932147
0.944349
0.981706
1.09549
1.1056
1.11064
1.09762
1.07944
1.06859
1.06988
1.07831
1.08869
1.09908
1.10938
1.12077
1.12729
1.13095
1.14283
1.16224
1.20598
1.28692
1.41998
1.59696
1.72716
1.79357
1.83354
1.85875
1.87872
1.89516
1.911
1.92301
1.93174
1.93837
1.94852
1.95351
1.96067
1.96289
1.96342
1.95592
1.94994
1.93395
1.92138
1.90622
1.90627
1.90288
1.92354
0.198142
0.198264
0.198117
0.197915
0.197641
0.197298
0.196879
0.196384
0.195808
0.195152
0.194415
0.193597
0.192702
0.191732
0.190692
0.189584
0.188421
0.18723
0.185965
0.184715
0.183492
0.182122
0.180839
0.179654
0.178408
0.17712
0.176039
0.175006
0.173895
0.172906
0.172063
0.171387
0.170643
0.169874
0.169345
0.168972
0.16881
0.168858
0.168946
0.169247
0.169714
0.170566
0.171673
0.172942
0.198668
0.741015
0.946999
1.02452
1.08649
1.18471
1.19947
1.22173
1.1835
1.17891
1.13198
1.12534
1.07616
1.08789
1.02211
1.02227
0.959177
0.947145
0.946524
0.926575
0.918668
0.917264
0.92449
0.924762
0.922594
0.926165
0.932908
0.937389
0.937882
0.951685
0.975728
1.07665
1.14282
1.14423
1.09688
1.09149
1.08449
1.06439
1.05696
1.06064
1.06904
1.08308
1.09718
1.11333
1.1263
1.14117
1.15968
1.18559
1.21907
1.28389
1.39951
1.57085
1.7115
1.78356
1.82438
1.85274
1.87471
1.89039
1.9058
1.91751
1.9261
1.93216
1.94185
1.94624
1.95294
1.95556
1.9568
1.95033
1.94446
1.92786
1.91426
1.89682
1.89547
1.89231
1.9136
0.198139
0.198261
0.198113
0.197911
0.197635
0.19729
0.196869
0.19637
0.195791
0.195129
0.194386
0.19356
0.192656
0.191675
0.190622
0.189499
0.188311
0.187106
0.185823
0.184508
0.18324
0.181917
0.18051
0.179243
0.178011
0.176648
0.175386
0.174293
0.173226
0.172001
0.170936
0.170055
0.169193
0.168154
0.16699
0.166015
0.165082
0.164368
0.163185
0.161304
0.159218
0.155675
0.15333
0.160067
0.212504
0.805165
0.898267
0.923304
0.948233
1.02069
1.07625
1.15834
1.14185
1.16418
1.10656
1.11127
1.05643
1.08003
1.01384
1.00828
0.921309
0.936449
0.917747
0.917442
0.899647
0.902861
0.913067
0.915375
0.911797
0.92466
0.949739
0.963346
0.988115
1.06256
1.15649
1.24073
1.25062
1.232
1.19662
1.16806
1.15518
1.14569
1.13247
1.12701
1.13182
1.14207
1.15654
1.17058
1.1857
1.19639
1.21273
1.22321
1.26037
1.31235
1.41119
1.56269
1.70037
1.77436
1.81506
1.84062
1.86276
1.88011
1.89568
1.90735
1.91705
1.92316
1.93355
1.9383
1.94489
1.94777
1.9503
1.9451
1.93921
1.9224
1.90733
1.88812
1.88441
1.88113
1.90294
0.198137
0.198259
0.19811
0.197906
0.197628
0.197281
0.196858
0.196356
0.195772
0.195106
0.194356
0.193523
0.192609
0.191615
0.190546
0.189412
0.188197
0.186942
0.185681
0.184301
0.182961
0.181653
0.1802
0.178801
0.177524
0.176202
0.17474
0.173491
0.172384
0.171156
0.169895
0.168833
0.167966
0.167123
0.166084
0.165239
0.164591
0.164234
0.163888
0.163215
0.16308
0.163276
0.163255
0.180259
0.449875
0.872848
0.886866
0.881974
0.884581
0.904477
0.96186
1.00173
1.09868
1.08948
1.10847
1.06081
1.08378
1.03772
1.04439
0.962928
0.931695
0.922422
0.922623
0.906253
0.89921
0.912401
0.935446
0.945071
0.951126
1.03687
1.13573
1.23056
1.34382
1.42955
1.48944
1.49572
1.4671
1.44093
1.40175
1.35764
1.33164
1.30764
1.28991
1.28091
1.27884
1.28445
1.28731
1.28887
1.28692
1.28062
1.27183
1.29249
1.31073
1.3538
1.42843
1.5469
1.67732
1.76477
1.80878
1.8335
1.85608
1.87298
1.88757
1.89836
1.90816
1.91424
1.9247
1.92944
1.93543
1.93854
1.94245
1.93836
1.93275
1.91668
1.90063
1.87911
1.87324
1.86885
1.89162
0.198134
0.198256
0.198106
0.197901
0.197621
0.197272
0.196845
0.19634
0.195752
0.19508
0.194322
0.19348
0.192554
0.191548
0.190463
0.189307
0.188078
0.186776
0.185495
0.184101
0.182667
0.181303
0.179901
0.17834
0.176947
0.175617
0.174131
0.172652
0.171386
0.170203
0.168873
0.167402
0.166217
0.165285
0.164234
0.162762
0.161585
0.160711
0.15998
0.159484
0.159575
0.16075
0.163464
0.188614
0.708905
0.883229
0.881927
0.87079
0.866864
0.868571
0.878784
0.924622
0.951723
1.05836
1.06187
1.10348
1.03982
1.07674
0.986592
0.993206
0.891202
0.926024
0.917747
0.936698
0.933157
1.02143
1.11811
1.21295
1.3138
1.4373
1.56884
1.64913
1.69128
1.70395
1.70492
1.68232
1.65973
1.63823
1.61182
1.57864
1.55432
1.53049
1.51046
1.49425
1.48002
1.46372
1.44531
1.42637
1.40907
1.38684
1.36903
1.35919
1.36384
1.39727
1.46116
1.56679
1.67366
1.75015
1.79567
1.82168
1.84575
1.86307
1.87691
1.88757
1.89795
1.90453
1.91536
1.92065
1.92646
1.92971
1.93479
1.93172
1.92625
1.91103
1.89422
1.87002
1.86188
1.85415
1.87867
0.198131
0.198252
0.198102
0.197895
0.197614
0.197262
0.196833
0.196323
0.19573
0.195052
0.194287
0.193436
0.192498
0.191477
0.190374
0.189198
0.187947
0.186611
0.18528
0.1839
0.182378
0.18092
0.179508
0.177918
0.176349
0.174944
0.173511
0.171834
0.170346
0.169115
0.167789
0.166114
0.164739
0.163528
0.162656
0.161451
0.159636
0.158182
0.156563
0.155225
0.153085
0.147967
0.151648
0.189475
0.778413
0.882131
0.88414
0.876964
0.863957
0.854441
0.85158
0.859786
0.866157
0.938013
0.961966
1.05462
1.00848
1.07818
0.966256
1.00883
0.913367
1.00088
1.07792
1.16118
1.2775
1.393
1.53406
1.62983
1.68339
1.71211
1.73341
1.74917
1.74485
1.73678
1.72855
1.71465
1.70494
1.69822
1.68548
1.6672
1.64455
1.62414
1.60628
1.59012
1.57174
1.54769
1.51983
1.49088
1.46397
1.43928
1.41943
1.41319
1.41484
1.44452
1.49345
1.58106
1.66796
1.73873
1.78546
1.81255
1.83593
1.85252
1.86676
1.87678
1.88636
1.89316
1.90413
1.90982
1.91593
1.91951
1.92581
1.92424
1.91901
1.90478
1.88728
1.86141
1.85027
1.83857
1.86661
0.198127
0.198249
0.198097
0.197889
0.197606
0.197252
0.196819
0.196305
0.195707
0.195022
0.194248
0.193386
0.192435
0.191399
0.190279
0.189075
0.187802
0.186451
0.185028
0.183629
0.182114
0.180521
0.179025
0.177501
0.175765
0.174172
0.172712
0.171101
0.169335
0.167799
0.166479
0.16499
0.163107
0.161593
0.160325
0.159295
0.157659
0.155467
0.153837
0.152777
0.152344
0.151877
0.168876
0.35649
0.896312
0.888624
0.882782
0.875394
0.869611
0.858818
0.851124
0.84537
0.84232
0.859469
0.873998
0.969983
0.990572
1.10732
1.05055
1.15964
1.23332
1.33992
1.47621
1.5692
1.62852
1.66275
1.68402
1.71249
1.72142
1.72196
1.72522
1.73288
1.72968
1.72629
1.72388
1.71752
1.71259
1.70753
1.70028
1.69036
1.67603
1.661
1.64589
1.6289
1.61129
1.59074
1.56765
1.53967
1.5129
1.4853
1.46664
1.4595
1.46218
1.48634
1.52797
1.59418
1.66467
1.72857
1.77489
1.80055
1.82333
1.84034
1.85593
1.86634
1.87544
1.88189
1.89334
1.89973
1.90652
1.91061
1.91764
1.9169
1.91215
1.89835
1.88034
1.85237
1.83811
1.82222
1.85398
0.198123
0.198245
0.198092
0.197883
0.197598
0.197241
0.196804
0.196286
0.195682
0.19499
0.194207
0.193334
0.19237
0.191316
0.190177
0.188948
0.18763
0.186277
0.184809
0.183311
0.181829
0.180152
0.178504
0.176956
0.175265
0.173429
0.171814
0.17025
0.168441
0.166597
0.165041
0.163639
0.161926
0.160026
0.158505
0.157478
0.156455
0.15512
0.154239
0.153883
0.1545
0.156735
0.182885
0.669283
0.886591
0.890486
0.883282
0.876171
0.868595
0.859816
0.849046
0.838248
0.83534
0.838869
0.866703
0.92199
1.11117
1.24749
1.39209
1.48531
1.57298
1.60298
1.63832
1.65678
1.67488
1.67327
1.68214
1.68603
1.68604
1.68611
1.69099
1.6946
1.70009
1.70305
1.70265
1.70245
1.70323
1.70201
1.69692
1.68861
1.67962
1.67013
1.65987
1.64351
1.62698
1.60897
1.59014
1.56972
1.54849
1.52456
1.50704
1.49766
1.50043
1.518
1.55002
1.60034
1.66216
1.72313
1.76772
1.7917
1.81432
1.83092
1.84566
1.85586
1.86351
1.86868
1.88113
1.88861
1.89612
1.90065
1.90815
1.90804
1.9037
1.89048
1.87288
1.84241
1.82677
1.80632
1.84132
0.198119
0.19824
0.198087
0.197876
0.197589
0.197229
0.196788
0.196266
0.195655
0.194955
0.194163
0.193278
0.192299
0.191228
0.190065
0.188811
0.187452
0.186074
0.184582
0.182996
0.181451
0.179827
0.178001
0.17633
0.174683
0.172746
0.170874
0.169249
0.167555
0.165449
0.163593
0.162062
0.160491
0.158538
0.156406
0.154596
0.153416
0.151404
0.148623
0.142535
0.138728
0.142507
0.178132
0.763298
0.88594
0.896376
0.894163
0.886877
0.880908
0.872659
0.86652
0.862185
0.863223
0.881522
0.939079
1.09347
1.38894
1.57422
1.63065
1.63344
1.642
1.64475
1.65151
1.65001
1.6472
1.64599
1.64677
1.64948
1.65121
1.65262
1.65451
1.65896
1.66957
1.67552
1.67883
1.68299
1.68723
1.68914
1.68796
1.68355
1.67822
1.67135
1.66247
1.65011
1.63635
1.62154
1.60624
1.59097
1.57542
1.55846
1.54236
1.53321
1.53334
1.54566
1.57127
1.61144
1.6622
1.7146
1.75557
1.78065
1.80589
1.82216
1.83545
1.84501
1.85252
1.85714
1.87032
1.87862
1.8863
1.89063
1.89858
1.89884
1.89497
1.8823
1.86502
1.83196
1.81474
1.7915
1.82769
0.198114
0.198235
0.198081
0.197869
0.197579
0.197216
0.196772
0.196244
0.195627
0.194919
0.194117
0.193219
0.192225
0.191134
0.18995
0.188668
0.187288
0.185836
0.184344
0.182699
0.181043
0.179415
0.177565
0.175687
0.17397
0.172156
0.170018
0.168115
0.166451
0.164559
0.162319
0.160413
0.15896
0.157298
0.154948
0.152978
0.151631
0.150537
0.149437
0.14823
0.147895
0.163898
0.330524
0.900052
0.894933
0.892126
0.888878
0.88809
0.88726
0.885271
0.885131
0.89017
0.908452
0.964504
1.10454
1.40411
1.64312
1.69561
1.66718
1.64924
1.63838
1.63072
1.62379
1.62522
1.62323
1.62022
1.62106
1.62154
1.62493
1.62641
1.62764
1.62984
1.63588
1.63975
1.64425
1.64589
1.65159
1.65644
1.66298
1.66548
1.66685
1.66423
1.65822
1.64933
1.6389
1.62679
1.61432
1.60226
1.59067
1.57854
1.56601
1.55907
1.55866
1.56777
1.58771
1.61905
1.66265
1.70961
1.7482
1.77377
1.79783
1.81275
1.82474
1.83325
1.84053
1.8451
1.85795
1.86754
1.8753
1.87924
1.88769
1.88815
1.88485
1.87296
1.85635
1.82167
1.80291
1.77737
1.81504
0.198109
0.19823
0.198075
0.197861
0.197569
0.197203
0.196754
0.196221
0.195598
0.194881
0.194068
0.193156
0.192146
0.191035
0.189826
0.188518
0.187112
0.185596
0.184055
0.18241
0.180637
0.178914
0.177147
0.175091
0.173182
0.171367
0.169323
0.167095
0.165195
0.163386
0.161271
0.158932
0.157038
0.155624
0.153844
0.151452
0.149883
0.148886
0.148429
0.148927
0.151609
0.178027
0.65203
0.889683
0.894692
0.891575
0.889308
0.889165
0.889701
0.891674
0.898661
0.920105
0.974481
1.10589
1.37826
1.63458
1.70206
1.67664
1.65572
1.62884
1.61556
1.60891
1.60671
1.60272
1.59847
1.59714
1.59668
1.59843
1.60123
1.60256
1.60483
1.60607
1.60835
1.61215
1.61566
1.61812
1.62335
1.62894
1.63906
1.64415
1.64897
1.64937
1.6461
1.64123
1.63472
1.62739
1.61841
1.60864
1.59951
1.59019
1.58174
1.57637
1.57629
1.58352
1.5989
1.62462
1.66147
1.70157
1.73872
1.76648
1.78888
1.80259
1.81463
1.82301
1.82979
1.83476
1.84682
1.85666
1.86446
1.86796
1.87676
1.87759
1.87464
1.86351
1.84739
1.81065
1.79045
1.76387
1.80191
0.198103
0.198224
0.198068
0.197853
0.197558
0.197189
0.196736
0.196197
0.195566
0.194841
0.194016
0.193091
0.192064
0.190932
0.189696
0.188361
0.186921
0.185382
0.183747
0.182095
0.180249
0.178386
0.176587
0.17459
0.172427
0.170486
0.168543
0.166208
0.163982
0.16209
0.160144
0.15769
0.155395
0.153505
0.151932
0.149742
0.146373
0.143518
0.139363
0.134964
0.138873
0.176172
0.755226
0.888378
0.899985
0.899203
0.895409
0.893469
0.894369
0.900753
0.922963
0.97893
1.10984
1.37615
1.61718
1.70453
1.67935
1.65913
1.62681
1.60556
1.59837
1.5962
1.59063
1.58408
1.58096
1.57815
1.57788
1.57974
1.57902
1.58133
1.5827
1.58441
1.58598
1.58809
1.58938
1.5914
1.59529
1.59917
1.60626
1.61105
1.62009
1.62498
1.62712
1.62719
1.62809
1.62474
1.61951
1.61257
1.60439
1.59745
1.59182
1.58796
1.58812
1.59422
1.60699
1.62872
1.66092
1.69615
1.73157
1.75916
1.77969
1.79219
1.80408
1.81295
1.81926
1.82428
1.83544
1.84473
1.85251
1.85564
1.86491
1.86629
1.86386
1.85345
1.838
1.80021
1.77852
1.75076
1.78988
0.198096
0.198218
0.198061
0.197844
0.197547
0.197174
0.196717
0.196172
0.195534
0.194798
0.193963
0.193023
0.191977
0.190826
0.189557
0.1882
0.186729
0.185145
0.183459
0.181769
0.179881
0.177893
0.175982
0.174034
0.171696
0.169545
0.167589
0.165454
0.162857
0.160646
0.158754
0.156655
0.153908
0.151772
0.150051
0.148594
0.146401
0.144555
0.143964
0.14412
0.160892
0.342186
0.892428
0.890917
0.892202
0.891134
0.892929
0.895694
0.902732
0.92352
0.977831
1.10617
1.36532
1.6126
1.69524
1.66871
1.64653
1.63437
1.6121
1.58905
1.58438
1.58165
1.57357
1.56971
1.56533
1.56295
1.56275
1.56141
1.56152
1.563
1.56437
1.56607
1.56678
1.56808
1.56819
1.56929
1.57282
1.57632
1.58257
1.587
1.59836
1.60556
1.61262
1.61554
1.61545
1.61353
1.61201
1.61015
1.60663
1.60219
1.59843
1.59485
1.59367
1.59917
1.61084
1.63007
1.65744
1.69014
1.72377
1.75033
1.76973
1.78249
1.79457
1.80356
1.80947
1.81371
1.82373
1.83223
1.84007
1.84324
1.85311
1.85502
1.85309
1.84351
1.82859
1.78953
1.76601
1.73783
1.77672
0.198089
0.198211
0.198053
0.197835
0.197535
0.197159
0.196697
0.196146
0.1955
0.194755
0.193906
0.192952
0.191885
0.190715
0.18942
0.188008
0.18654
0.184892
0.183162
0.181455
0.179523
0.177409
0.17541
0.173411
0.171049
0.168691
0.166562
0.164456
0.161913
0.159367
0.15717
0.155297
0.152957
0.150264
0.148202
0.14679
0.145078
0.142803
0.141974
0.144163
0.172972
0.670151
0.88836
0.893576
0.89365
0.895129
0.898328
0.906023
0.926608
0.982158
1.10321
1.35679
1.61784
1.696
1.6871
1.64144
1.61168
1.61285
1.59971
1.57858
1.56832
1.56643
1.5616
1.55582
1.54883
1.5475
1.54631
1.54545
1.54619
1.54622
1.54828
1.54785
1.54896
1.54889
1.54877
1.54914
1.55259
1.55502
1.55973
1.56291
1.57227
1.57815
1.58881
1.59525
1.60281
1.6076
1.60747
1.6048
1.60259
1.60112
1.59919
1.59681
1.5977
1.60263
1.61333
1.63041
1.65589
1.68457
1.71408
1.73876
1.75794
1.77224
1.78401
1.79288
1.79914
1.80325
1.81163
1.81912
1.82676
1.83027
1.84063
1.84305
1.84167
1.83284
1.81867
1.77936
1.75421
1.72445
1.7645
0.198081
0.198204
0.198045
0.197825
0.197523
0.197143
0.196676
0.196119
0.195464
0.194709
0.193848
0.192879
0.191795
0.190597
0.189285
0.187822
0.18633
0.184672
0.182852
0.181085
0.179182
0.176937
0.174849
0.17282
0.170441
0.16787
0.165557
0.163483
0.16101
0.158134
0.155729
0.15368
0.151511
0.148552
0.145678
0.143104
0.14073
0.136793
0.13275
0.139365
0.215365
0.793826
0.892732
0.903825
0.903707
0.905969
0.909198
0.928254
0.982729
1.11513
1.375
1.61082
1.68899
1.66763
1.65779
1.62471
1.59531
1.58552
1.58248
1.57012
1.55868
1.55478
1.55089
1.5431
1.53637
1.53361
1.53203
1.53154
1.53046
1.53035
1.53189
1.5312
1.53273
1.53266
1.533
1.53276
1.53595
1.53684
1.54024
1.54292
1.55059
1.55612
1.56894
1.57851
1.58672
1.59239
1.59809
1.59982
1.59805
1.59453
1.59577
1.59575
1.5979
1.60216
1.61196
1.62748
1.65033
1.67729
1.7048
1.72859
1.74741
1.76232
1.7745
1.78262
1.78879
1.79283
1.79933
1.8061
1.81409
1.81809
1.82887
1.83161
1.8307
1.82253
1.80882
1.76905
1.74157
1.71074
1.7503
0.198073
0.198196
0.198037
0.197815
0.19751
0.197126
0.196654
0.196091
0.195428
0.194663
0.193789
0.192803
0.191702
0.190474
0.189147
0.187666
0.186084
0.184454
0.182573
0.180664
0.178767
0.176513
0.174272
0.172205
0.169867
0.167081
0.164643
0.162517
0.160119
0.156968
0.154401
0.152051
0.150197
0.147659
0.145001
0.143237
0.142371
0.142879
0.144675
0.167883
0.49897
0.863828
0.888494
0.893938
0.899861
0.908894
0.930957
0.986871
1.11493
1.36902
1.61865
1.70808
1.67904
1.64065
1.62364
1.60945
1.58699
1.57112
1.56614
1.56176
1.54996
1.54295
1.53874
1.53279
1.52718
1.52302
1.52091
1.51814
1.51529
1.51464
1.51435
1.51597
1.51641
1.51756
1.51792
1.51771
1.52039
1.52074
1.52292
1.52441
1.53023
1.53428
1.54688
1.5564
1.56817
1.57714
1.58526
1.58826
1.58947
1.59101
1.59407
1.59441
1.59604
1.60048
1.60962
1.62423
1.64444
1.66907
1.69459
1.71749
1.73641
1.7523
1.7651
1.77255
1.77801
1.78228
1.78663
1.79205
1.80044
1.80468
1.81593
1.81895
1.81872
1.81137
1.79821
1.75827
1.72873
1.69649
1.73729
0.198065
0.198188
0.198028
0.197804
0.197496
0.197109
0.196632
0.196062
0.195391
0.194615
0.193729
0.192726
0.191607
0.19036
0.188991
0.187508
0.185853
0.184179
0.182344
0.180282
0.178278
0.176164
0.173737
0.171466
0.169185
0.166401
0.163765
0.161451
0.159064
0.156031
0.153128
0.150609
0.148791
0.146402
0.143212
0.140246