/*--------------------------------*- C++ -*----------------------------------*\
| =========                 |                                                 |
| \\      /  F ield         | OpenFOAM: The Open Source CFD Toolbox           |
|  \\    /   O peration     | Version:  2.2.x                                 |
|   \\  /    A nd           | Web:      www.OpenFOAM.org                      |
|    \\/     M anipulation  |                                                 |
\*---------------------------------------------------------------------------*/
FoamFile
{
    version     2.0;
    format      ascii;
    class       volScalarField;
    location    "0.25";
    object      divBf;
}
// * * * * * * * * * * * * * * * * * * * * * * * * * * * * * * * * * * * * * //

dimensions      [1 -3 -2 0 0 -1 0];

internalField   nonuniform List<scalar> 
14161
(
399.219
350.812
304.633
260.414
217.912
176.918
137.247
98.7374
61.2509
24.6684
-11.111
-46.1638
-80.5532
-114.314
-147.463
-179.987
-211.845
-242.963
-273.222
-302.459
-330.451
-356.911
-381.469
-403.66
-422.908
-438.508
-449.596
-455.134
-453.872
-444.314
-424.664
-392.836
-346.227
-282.006
-196.387
-85.2468
56.4059
234.464
457.086
732.433
1068.44
1480.66
1988.32
2600.51
3338.52
-24342.7
-24943.9
-25398.7
-25717.6
-25895.4
-25942.6
-25859.7
-25663
-25353.2
-24933.8
-24416
-23806.1
-23106.2
-22302.8
-21454.3
-20553.8
-19585.2
-18610.5
-17587.2
-16575.7
-15598.7
-14628.7
-13785.7
-12927.4
-12246.3
-11425.7
-11231.7
-11316.8
-11904
-17641.3
-26090.4
-30184.2
-21657
-25131.3
-12193.4
5349.86
20666.6
23879.8
29526.3
28140.7
29623.3
29812.8
27074.6
24509.6
20961
17368.8
14208.6
11786.3
9712.73
7852.58
6263.89
4555.05
2997.88
1623.93
187.894
-1166.84
-2552.71
-3759.74
-4908.25
-5944.34
-6882.6
-7614.48
-8158.94
-8545.07
-8682.65
-8672.41
-8339.02
-7851.99
-6891.22
-5853.26
-4522.43
435.027
-4729.74
26410.8
151.514
104.533
58.8804
14.3539
-29.2274
-72.028
-114.193
-155.855
-197.133
-238.133
-278.947
-319.658
-360.328
-401.01
-441.737
-482.518
-523.343
-564.169
-604.916
-645.465
-685.645
-725.217
-763.876
-801.222
-836.752
-869.839
-899.708
-925.414
-945.807
-959.499
-964.838
-959.803
-942.069
-908.658
-856.325
-780.915
-677.468
-540.182
-362.164
-134.884
151.771
510.679
955.955
1504.44
2177.53
-21148.9
-21692.1
-22109.8
-22399.8
-22564.8
-22609.7
-22540.1
-22365
-22087.2
-21709.5
-21239.4
-20684.3
-20045.2
-19315
-18527.4
-17705.6
-16807.3
-15904.6
-14959.9
-14012.6
-13088
-12160.4
-11299.3
-10435.7
-9625.55
-8829.72
-8324.05
-7831.3
-8869.56
-10078
-16696.7
-24840.3
-33015.3
-1104.16
14119.4
17297.6
20893.3
27196.5
27296.7
29876.7
32420.2
30159.4
26250.6
23391.9
20525.2
18291.6
15736.5
13342.9
11100
9031.92
6935.79
5010.54
3147.25
1704.4
298.918
-931.285
-2097.09
-3154.96
-4224.23
-5195
-6108
-6842.68
-7383.36
-7784.04
-7961.84
-8005.92
-7768.8
-7349.14
-6559.2
-5674.46
-4609.4
462.524
-5122.68
23865.7
-91.4704
-135.569
-179.253
-222.642
-265.848
-308.977
-352.132
-395.407
-438.894
-482.679
-526.844
-571.463
-616.605
-662.324
-708.665
-755.657
-803.309
-851.604
-900.494
-949.895
-999.671
-1049.63
-1099.52
-1149
-1197.61
-1244.8
-1289.87
-1331.94
-1369.96
-1402.63
-1428.38
-1445.32
-1451.22
-1443.27
-1418.28
-1372.28
-1300.54
-1197.14
-1055.8
-867.927
-623.052
-309.752
85.7643
583.096
1199.41
-18383.8
-18867.3
-19241.2
-19497.8
-19643.3
-19678.6
-19611.8
-19447
-19187.4
-18838.7
-18403
-17886.9
-17291.5
-16626.7
-15879.4
-15117.3
-14278.4
-13425.4
-12542.1
-11639.6
-10739.2
-9846.93
-8921.14
-8121.77
-7127.4
-6562.93
-6007.32
-6622.6
-8143.83
-12009.5
-28766.5
-41205.7
-29489.2
3154.21
-3822.81
19522.8
23957.1
27476.8
28923.5
33469
33895.6
33250.2
28153
25728.4
23626.2
20435.8
17724.8
15018.9
12675.5
10701
8843.04
7116.01
5461.83
3957.66
2314.11
830.015
-611.511
-1821.7
-2964.91
-3962.31
-4869.18
-5571.88
-6145.04
-6547.92
-6777.09
-6849.59
-6665.19
-6396.68
-5722.63
-4902.28
-4183.72
742.016
-4999.54
22269.8
-328.258
-368.148
-408.566
-449.536
-491.092
-533.274
-576.128
-619.71
-664.076
-709.288
-755.411
-802.509
-850.643
-899.874
-950.25
-1001.81
-1054.58
-1108.57
-1163.74
-1220.04
-1277.38
-1335.58
-1394.44
-1453.66
-1512.84
-1571.48
-1628.93
-1684.39
-1736.87
-1785.15
-1827.76
-1862.89
-1888.37
-1901.59
-1899.35
-1877.87
-1832.53
-1757.7
-1646.94
-1492.2
-1282.44
-1007.75
-653.984
-201.145
370.114
-15968.5
-16395.4
-16721
-16943.5
-17065
-17086.9
-17011.9
-16852.4
-16601.2
-16270.8
-15858.4
-15369.6
-14813.9
-14191.3
-13493.8
-12753.1
-11982.7
-11158.9
-10327.5
-9452.51
-8579.58
-7681.65
-6781.72
-5951.88
-5058.68
-3812.83
-3120.69
-1840.78
-4544.16
-15772.8
-35206.5
-34201.9
-17772
-4271.1
7514.61
20399.4
24261.6
29087.9
28075.3
33140
32872.7
30649.3
27819.5
26111
23614.2
21769.2
19046.4
16690.8
14186
12111.5
10022.4
8170.63
6445.6
4899.56
3227.29
1756.07
369.636
-863
-2054.07
-3114.61
-4059.58
-4812.16
-5417.36
-5863.48
-6104.65
-6207.92
-6129.66
-5799.93
-5261.33
-4410.16
-4006.64
805.888
-4968
20230.2
-557.426
-591.942
-627.967
-665.418
-704.238
-744.396
-785.875
-828.681
-872.834
-918.363
-965.314
-1013.73
-1063.67
-1115.19
-1168.34
-1223.17
-1279.7
-1337.96
-1397.94
-1459.6
-1522.87
-1587.62
-1653.66
-1720.74
-1788.5
-1856.48
-1924.08
-1990.57
-2055
-2116.24
-2172.87
-2223.16
-2265.04
-2295.96
-2312.88
-2312.04
-2289.01
-2238.27
-2153.39
-2026.59
-1847.34
-1604.75
-1286.29
-872.659
-341.981
-13842.3
-14217.3
-14495.3
-14683.1
-14777.1
-14782.6
-14697.2
-14534
-14287.8
-13964.9
-13571.3
-13102.5
-12572
-11979.8
-11328.4
-10615.9
-9866.35
-9083.79
-8274.29
-7428.89
-6573.68
-5690.04
-4829.88
-3951.75
-3263.04
-2646.34
-2341.53
-3364.55
-6036.09
-20514.9
-22045.5
-22145.5
737.163
-2789.46
9780.3
22257.9
28825.1
33238.3
35128.2
34036.8
29560.2
26533.4
24890.4
24681.4
23797.5
21624.6
19453.7
17369.4
15030.2
13192.8
11478.8
9643.43
7882.78
6385.32
4829.03
3358.62
1865.11
576.256
-702.941
-1806.28
-2856.25
-3684.72
-4328.04
-4818.63
-5212.08
-5333.52
-5285.82
-5071.5
-4728.13
-3836.19
-3904.1
736.035
-5020.23
18008.2
-777.63
-805.784
-836.473
-869.494
-904.69
-941.946
-981.181
-1022.34
-1065.4
-1110.37
-1157.25
-1206.07
-1256.88
-1309.72
-1364.64
-1421.69
-1480.91
-1542.32
-1605.94
-1671.73
-1739.65
-1809.59
-1881.39
-1954.82
-2029.56
-2105.19
-2181.16
-2256.77
-2331.14
-2403.19
-2471.55
-2534.59
-2590.27
-2636.17
-2669.28
-2685.99
-2681.89
-2651.73
-2588.99
-2485.91
-2333.24
-2118.49
-1829.18
-1450.26
-955.986
-11960.9
-12287.3
-12520.9
-12671
-12740.8
-12723.4
-12626.9
-12456.2
-12211.1
-11889.8
-11508.1
-11056.2
-10537.8
-9970.34
-9346.42
-8666.79
-7943.52
-7182.98
-6390.67
-5563.74
-4718.71
-3880.12
-3028.99
-2186.3
-1407.33
-573.587
-84.7674
-945.025
-2571.53
-17616.6
-13732.8
-13519.3
6163.81
6287.47
16210.6
26447.3
32483.4
31218.4
31085.5
28508.2
26556.2
24461.8
22447.6
22695.9
21385.1
20176
19335.8
17510.2
15596.7
13719.1
12007.5
10368.4
8589.04
6881.27
5279.75
3920.8
2458.06
1189.79
-36.4705
-1103.91
-2125.26
-2943.34
-3591.78
-4068.3
-4439.04
-4659.62
-4732.35
-4507.28
-4389.57
-3312.17
-3727.74
592.58
-5102.27
15844.3
-987.603
-1008.61
-1033.21
-1061.09
-1091.97
-1125.64
-1161.95
-1200.79
-1242.09
-1285.8
-1331.91
-1380.43
-1431.37
-1484.77
-1540.69
-1599.15
-1660.21
-1723.89
-1790.21
-1859.16
-1930.69
-2004.74
-2081.14
-2159.71
-2240.15
-2322.07
-2404.95
-2488.15
-2570.82
-2651.92
-2730.17
-2803.97
-2871.36
-2929.97
-2976.89
-3008.58
-3020.73
-3008.24
-2964.58
-2882.07
-2751.84
-2561.98
-2298.68
-1947.77
-1486.14
-10291.3
-10567
-10762.1
-10875.2
-10919.3
-10880.2
-10768
-10590.9
-10342
-10021
-9638.42
-9204.29
-8697.53
-8141.33
-7534.8
-6880.66
-6174.23
-5437.25
-4661.18
-3854.1
-3012.86
-2169.94
-1317.9
-415.939
347.597
1043.79
1388.13
900.838
-3395.95
-17057.7
-16416.1
8571.89
9563.29
15039.4
21713.7
28538.1
29597.6
29518.4
26938.7
24984.1
22823.8
21441.4
20265.6
21153.3
19883.6
19327.7
18083.3
16721.8
15223.8
13753.9
12213.2
10700
8977.69
7587.12
6201.13
4905.75
3561.17
2359.06
1185.45
141.141
-884.628
-1721.97
-2465.91
-3051.55
-3554.64
-3829.4
-4029.28
-3911.89
-4017.09
-2828.9
-3626.63
387.179
-5035.54
13657.7
-1186.18
-1199.45
-1217.43
-1239.64
-1265.69
-1295.29
-1328.18
-1364.21
-1403.24
-1445.19
-1490.01
-1537.67
-1588.19
-1641.58
-1697.88
-1757.13
-1819.35
-1884.6
-1952.89
-2024.21
-2098.54
-2175.81
-2255.9
-2338.61
-2423.7
-2510.79
-2599.4
-2688.91
-2778.54
-2867.26
-2953.86
-3036.78
-3114.14
-3183.6
-3242.36
-3286.92
-3313.1
-3315.77
-3288.75
-3224.33
-3113.23
-2945.13
-2705.86
-2378.25
-1944.09
-8804.03
-9030.41
-9186.83
-9270.25
-9280.35
-9224.96
-9099.58
-8907.89
-8654.25
-8334.58
-7947.76
-7518.14
-7035.33
-6470.82
-5875.47
-5254.23
-4554.7
-3812.4
-3041.98
-2270.04
-1432.26
-587.307
268.352
1207.8
2196.34
3001.21
3113.85
853.359
-7132.43
-19285.1
-17720
13681.9
19948.8
32480
32771.7
30391
27837.1
27020.8
24992.4
23225.4
20998.7
19565.7
18960.1
19622.3
18547
18301.2
17339.2
16271.6
15022.9
13861.8
12678.8
11226.4
9691.24
8357.23
6891.18
5565.53
4155.69
2956.43
1737.8
681.192
-305.59
-1170
-1927.53
-2491.57
-3020.88
-3273.57
-3542.02
-3415.27
-3727.52
-2492.01
-3513.19
117.659
-5008.78
11618.3
-1372.29
-1377.47
-1388.48
-1404.69
-1425.6
-1450.78
-1479.94
-1512.82
-1549.23
-1589.06
-1632.21
-1678.63
-1728.31
-1781.26
-1837.48
-1897.01
-1959.9
-2026.16
-2095.83
-2168.9
-2245.36
-2325.14
-2408.15
-2494.2
-2583.07
-2674.41
-2767.76
-2862.54
-2957.98
-3053.14
-3146.81
-3237.49
-3323.35
-3402.14
-3471.07
-3526.76
-3565.08
-3580.97
-3568.35
-3519.83
-3425.92
-3276.26
-3058.24
-2753.01
-2342.03
-7470.28
-7655.5
-7772.63
-7826.31
-7809.53
-7733.05
-7594.62
-7389.53
-7123.22
-6809.76
-6425.5
-5983.38
-5506.42
-4973.68
-4372.71
-3737.53
-3072.42
-2358.98
-1573.71
-797.125
32.5079
855.38
1602.35
2427.46
3059.52
3547.03
2977.1
677.145
-11431.3
-14560
-308.674
18680.7
32461.8
45444.3
44679.6
34850.6
27294.6
25009.1
23046.2
21876
20175.5
17974.5
17972.3
18284.3
17510
17466.9
16563.1
15605.4
14476.5
13443.9
12323.8
10965
9582.37
8436.08
7183.53
5959.43
4669.9
3594.33
2439.44
1426.09
445.132
-391.43
-1155.68
-1780.09
-2349.49
-2654.06
-3050.09
-2932.68
-3439.2
-2187.03
-3422.75
-142.7
-4928.47
9736.16
-1545
-1541.94
-1545.83
-1555.89
-1571.49
-1592.1
-1617.33
-1646.87
-1680.46
-1717.93
-1759.17
-1804.08
-1852.63
-1904.81
-1960.61
-2020.07
-2083.2
-2150.05
-2220.63
-2294.95
-2372.99
-2454.71
-2540.01
-2628.73
-2720.66
-2815.47
-2912.74
-3011.9
-3112.22
-3212.79
-3312.45
-3409.74
-3502.88
-3589.67
-3667.38
-3732.71
-3781.58
-3809.08
-3809.16
-3774.3
-3695.93
-3563.05
-3362.43
-3077.9
-2690.44
-6271.68
-6417.95
-6503.41
-6523.68
-6485.83
-6386.72
-6232.96
-6016.79
-5743.07
-5415.43
-5041.37
-4602.52
-4112.28
-3588.14
-3014.14
-2367.75
-1699.76
-1012.1
-264.663
534.07
1361.2
2197.35
2989.28
3745.11
4312.07
4788.87
4249.11
422.291
-14100.9
-16491.5
15970.8
14053.7
36603.8
48576.3
49616.2
36782.9
29034.4
23455.1
21298.4
19956.3
19878.8
17395.8
17387.3
17140.6
16652.7
16442.9
15560.4
15251.3
14436.5
13658.1
12610.2
11434.6
10209.4
9126
7840.01
6607.64
5313.28
4180.48
3027.37
2035.07
1008.15
170.362
-615.146
-1259.4
-1839.41
-2154.93
-2679.22
-2516.24
-3174.6
-2046.78
-3270.45
-437.137
-4866.76
7983.27
-1703.48
-1692.23
-1689.04
-1692.97
-1703.26
-1719.28
-1740.54
-1766.66
-1797.33
-1832.33
-1871.51
-1914.74
-1961.97
-2013.16
-2068.29
-2127.39
-2190.47
-2257.56
-2328.68
-2403.83
-2483.02
-2566.19
-2653.26
-2744.09
-2838.48
-2936.11
-3036.59
-3139.38
-3243.78
-3348.89
-3453.61
-3556.53
-3655.9
-3749.56
-3834.87
-3908.57
-3966.66
-4004.32
-4015.51
-3993.04
-3928.13
-3810.44
-3625.87
-3359.21
-2992.83
-5194.25
-5303.79
-5356.14
-5351.08
-5287.42
-5171.96
-4999.41
-4772.62
-4491.2
-4156.3
-3773.19
-3343.88
-2858.32
-2319.59
-1750.73
-1131.72
-461.425
247.362
967.327
1743.71
2541.87
3404.09
4234.8
5016.19
5596.46
5326.74
3107
-4756.53
-23430.8
-13425
36395.5
29878.4
46447.8
50039.9
42765.6
32727.9
27466.4
23381
20261.7
18446.6
18477.4
16773.4
16726.8
16122.3
15702
15334.4
14642.9
14344.5
13601.1
12879.6
11834
10878.4
9859.29
8916.47
7753.84
6662.38
5521.46
4524.42
3463.47
2546.81
1563.5
752.126
-55.3393
-707.976
-1314.17
-1667.14
-2326.4
-2150.21
-2893.05
-1951.25
-3135.14
-690.284
-4762.97
6417.67
-1847.03
-1827.85
-1817.79
-1815.77
-1820.88
-1832.4
-1849.76
-1872.5
-1900.26
-1932.76
-1969.82
-2011.29
-2057.08
-2107.13
-2161.43
-2219.96
-2282.75
-2349.82
-2421.17
-2496.84
-2576.8
-2661.03
-2749.43
-2841.89
-2938.21
-3038.11
-3141.2
-3246.96
-3354.74
-3463.66
-3572.65
-3680.32
-3785.01
-3884.59
-3976.47
-4057.45
-4123.61
-4170.18
-4191.28
-4179.75
-4127.12
-4022.27
-3852.86
-3603.65
-3254.64
-4221.47
-4297.81
-4320.68
-4289.39
-4205.18
-4070.77
-3882.64
-3643.82
-3351.19
-3015.7
-2624.07
-2191.87
-1705.82
-1177.96
-601.844
16.0455
665.446
1384.06
2107.24
2892.73
3640.44
4453.83
5208.39
5812.68
6131.54
5659.31
3456.72
-8024.38
-13029.3
12490.8
30105.6
47154.6
64220.1
60312.7
40055.5
30668.8
25748
22369.6
19659.7
17838.6
17347.9
16017.1
15971.3
15506.6
15329.1
15062.3
14515.1
14245.4
13509.5
12810
11843.1
11032.5
10074.1
9117.09
7940.94
6926.5
5868.79
4916.28
3879.56
2952.65
1986
1194.75
371.643
-230.789
-887.638
-1256.29
-1971.63
-1818.37
-2613.41
-1848.97
-2967.62
-883.648
-4616.47
5023.98
-1975.1
-1948.41
-1931.85
-1924.18
-1924.38
-1931.62
-1945.24
-1964.71
-1989.64
-2019.7
-2054.66
-2094.34
-2138.64
-2187.47
-2240.81
-2298.64
-2360.96
-2427.8
-2499.16
-2575.06
-2655.5
-2740.43
-2829.8
-2923.48
-3021.29
-3122.96
-3228.14
-3336.31
-3446.85
-3558.92
-3671.48
-3783.19
-3892.38
-3997.03
-4094.57
-4181.88
-4255.11
-4309.56
-4339.39
-4337.72
-4295.86
-4203.25
-4047.56
-3813.26
-3481.4
-3342.32
-3387.79
-3384.08
-3328.02
-3225.74
-3070.6
-2870.53
-2616.31
-2321.73
-1971.47
-1583.67
-1139.68
-660.283
-126.032
439.696
1057.44
1709.31
2416.9
3137.63
3923.6
4688.95
5517.32
6263.39
7071.51
7954.02
6930.86
1069.95
-16887.7
-13076.9
20523.1
26186.1
52607.1
61128.5
51786.9
36934.4
28636.1
23042.6
20282.4
18438.1
17047.4
16674.9
15344.8
15435.8
14893.2
14712.3
14357.7
13749.2
13408.8
12673.6
12060.8
11267.9
10624.3
9746.91
8871.79
7843.58
6985.74
6018.07
5093.53
4136.73
3262.78
2363.29
1581.42
756.758
195.993
-505.827
-927.158
-1646.88
-1571.4
-2376.03
-1783.59
-2831.78
-1070.98
-4458.99
3788.1
-2087.26
-2053.65
-2031.11
-2018.22
-2013.86
-2017.11
-2027.24
-2043.66
-2065.9
-2093.62
-2126.55
-2164.48
-2207.29
-2254.87
-2307.19
-2364.21
-2425.94
-2492.38
-2563.55
-2639.46
-2720.11
-2805.47
-2895.47
-2990.02
-3088.93
-3191.95
-3298.74
-3408.83
-3521.6
-3636.24
-3751.74
-3866.8
-3979.82
-4088.78
-4191.19
-4283.98
-4363.41
-4424.78
-4462.45
-4469.54
-4437.41
-4356.08
-4212.78
-3992.22
-3676.19
-2546.67
-2563.93
-2533.99
-2457.82
-2334.87
-2164.86
-1948.14
-1686.97
-1379.09
-1026.72
-629.236
-186.484
298.383
827.125
1397.53
2006.59
2656.06
3357.62
4093.64
4882.03
5660.29
6393.58
6807.88
7117.16
6716.29
5299.04
-2637.57
-15092.4
-120.523
46215.8
43702.9
65459.6
62579.9
44124
32507.6
26146.1
21444.6
18759.2
17192.6
15921.2
15802
14623.4
14803.7
14232
14111.6
13767.9
13354
12930.6
12235.5
11710.2
11011.5
10412.8
9559.19
8769.06
7840.27
7004.93
6093.42
5252.49
4357.04
3543.09
2708.03
1940.7
1162.38
596.7
-141.287
-576.116
-1282.71
-1311.69
-2098.03
-1655.86
-2629.51
-1177.58
-4224.95
2714.81
-2183.23
-2143.44
-2115.51
-2097.94
-2089.47
-2089.11
-2096.06
-2109.67
-2129.44
-2154.98
-2185.99
-2222.25
-2263.6
-2309.94
-2361.2
-2417.35
-2478.38
-2544.3
-2615.13
-2690.86
-2771.5
-2857.03
-2947.39
-3042.49
-3142.15
-3246.15
-3354.14
-3465.7
-3580.2
-3696.9
-3814.78
-3932.61
-4048.81
-4161.41
-4267.99
-4365.55
-4450.35
-4517.84
-4562.49
-4577.36
-4554.3
-4482.91
-4351.11
-4143.68
-3842.71
-1824.37
-1815.98
-1763.89
-1666.91
-1525.66
-1340.82
-1111.23
-840.081
-522.096
-165.134
239.81
681.244
1173.3
1697.05
2273.21
2876.94
3526.33
4207.17
4933.07
5688.14
6487.78
7260.31
7936.63
8744.13
9117.79
5673.91
-6093.16
-7172.49
15817.5
35827.6
60073
68774.2
55522.9
38453.5
29219.3
23382.1
19825.8
17458.4
16037.1
14880.7
14886.2
13829.6
14068
13609.2
13620.3
13415.8
13058.4
12589.1
11897.1
11390
10720.7
10120.1
9263.07
8525.65
7689.78
6917.94
6102.97
5324.82
4514.86
3728.01
2949.72
2211.16
1472.98
861.472
107.601
-295.351
-1012.14
-1144.73
-1891.8
-1579.47
-2468.13
-1292.15
-3987.46
1764.37
-2262.85
-2217.72
-2185.14
-2163.48
-2151.41
-2147.88
-2152.01
-2163.12
-2180.66
-2204.21
-2233.46
-2268.15
-2308.11
-2353.23
-2403.44
-2458.68
-2518.95
-2584.25
-2654.59
-2729.99
-2810.44
-2895.92
-2986.39
-3081.74
-3181.85
-3286.47
-3395.3
-3507.91
-3623.72
-3741.99
-3861.76
-3981.81
-4100.61
-4216.27
-4326.37
-4427.97
-4517.48
-4590.37
-4641.15
-4663.15
-4648.18
-4586.04
-4464.75
-4269.63
-3982.63
-1168.68
-1136.66
-1063.64
-947.923
-790.349
-590.242
-350.43
-67.2232
255.993
623.272
1027.7
1477.29
1963.4
2493.48
3060.23
3666.49
4322.25
4988.42
5751.56
6475.65
7345.61
8003.93
8317.12
8008.26
6375.85
1834.43
-13299.4
-3251.95
45654.7
43446
69952.5
63501
45487.3
32985.9
25959.9
21001.3
18075.4
16198.6
15098.8
14032.3
14090.8
13042.3
13301.1
12812.2
12844
12714.4
12407.3
11971.3
11302.4
10890.1
10260.3
9715.82
8942.65
8329.81
7548.13
6865.42
6109.61
5383.29
4653.17
3923.34
3199.75
2488.94
1784.31
1137.89
420.352
32.1859
-675.098
-906.282
-1615.14
-1443.91
-2220.18
-1388.58
-3633.61
915.209
-2326.13
-2276.57
-2240.12
-2215.05
-2199.96
-2193.72
-2195.43
-2204.37
-2219.96
-2241.75
-2269.4
-2302.65
-2341.32
-2385.28
-2434.44
-2488.76
-2548.22
-2612.82
-2682.58
-2757.49
-2837.58
-2922.81
-3013.16
-3108.53
-3208.8
-3313.73
-3423.06
-3536.35
-3653.06
-3772.47
-3893.65
-4015.43
-4136.32
-4254.43
-4367.48
-4472.54
-4566.07
-4643.68
-4699.96
-4728.32
-4720.69
-4667.07
-4555.52
-4371.88
-4097.72
-572.998
-518.73
-426.065
-293.367
-121.086
92.4471
343.708
636.209
966.792
1338.88
1748.75
2200.03
2687.57
3217.88
3781.95
4388.63
5023.79
5675.69
6361.45
7093.3
7879.49
8543.65
9202.25
9846.24
8593.07
1224.24
3700.45
13738
42001.5
61641.8
69671.8
54905.3
38374.3
29185.5
22929.4
19023.8
16540.6
14906.1
13944.9
13009.6
13128.5
12292.4
12672.3
12266.6
12391.7
12262.1
11963.2
11698.6
10952.1
10504.3
9793.18
9277.61
8591.26
8033.87
7332.84
6699.99
6000.95
5339.3
4691.87
4007.3
3329.85
2625.81
1975.59
1305.99
661.165
223.978
-439.292
-777.343
-1434.54
-1396.39
-2033.64
-1468.73
-3311.1
205.494
-2373.18
-2320.2
-2280.71
-2252.93
-2235.41
-2226.98
-2226.7
-2233.82
-2247.75
-2268.02
-2294.27
-2326.23
-2363.71
-2406.56
-2454.72
-2508.11
-2566.73
-2630.57
-2699.64
-2773.96
-2853.53
-2938.34
-3028.36
-3123.51
-3223.67
-3328.64
-3438.12
-3551.75
-3668.99
-3789.14
-3911.31
-4034.35
-4156.82
-4276.91
-4392.34
-4500.28
-4597.24
-4678.94
-4740.07
-4774.1
-4773.13
-4727.4
-4625.12
-4451.68
-4189.93
-30.2951
43.4534
154.673
303.708
489.524
714.273
976.583
1278.01
1614.7
1991.71
2405.25
2856.72
3344.67
3871.13
4434.48
5038.55
5677.56
6363.4
7058.42
7839.84
8625.53
9334.51
9680.79
7825.52
3633.06
-9619.51
2985.48
44936.9
41798.9
70782.4
61870.8
44219.3
32252.3
25067.2
20120.3
17125.2
15226.4
13909
13070.3
12160.4
12213.5
11546.8
11857.5
11460.1
11611.7
11482.1
11405.1
11284.8
10543.7
10162.4
9470.36
9005.02
8349
7833.53
7140.77
6577.87
5944.03
5336.17
4762.36
4097.5
3458.98
2780.48
2165.6
1533.83
951.815
454.435
-154.89
-553.488
-1189.03
-1267.78
-1810.83
-1512.4
-2990.38
-381.299
-2404.28
-2348.88
-2307.21
-2277.45
-2258.12
-2248.02
-2246.19
-2251.87
-2264.44
-2283.43
-2308.48
-2339.3
-2375.71
-2417.54
-2464.73
-2517.21
-2574.96
-2637.99
-2706.29
-2779.9
-2858.82
-2943.05
-3032.55
-3127.26
-3227.07
-3331.8
-3441.16
-3554.8
-3672.21
-3792.72
-3915.47
-4039.34
-4162.95
-4284.5
-4401.79
-4512.07
-4611.92
-4697.1
-4762.5
-4801.59
-4806.61
-4768.14
-4674.37
-4510.9
-4260.71
464.9
556.307
683.869
848.324
1047.29
1282.77
1554.17
1863.5
2206.77
2588.06
3003.31
3457.81
3943.71
4468.96
5023.54
5621.46
6214.78
6885.74
7538.2
8249.79
8858.18
9299.8
9676.56
9998.57
7232.56
15963.6
13181.9
45964.2
63980
67793.4
51189.9
36474.6
27566.4
21786.9
18094.5
15685.7
14052.1
12869.1
12124.4
11319.1
11352.9
10831.6
11067.9
10758.8
10890.2
10817.2
10788.4
10658.3
9979.83
9599.88
8933.05
8532.4
7936.69
7468.74
6838.93
6353.01
5779.61
5225.42
4707.04
4082.44
3518.25
2885.44
2308.57
1715.68
1151.66
608.988
21.3942
-420.142
-1024.28
-1217.76
-1634.05
-1533.38
-2666.78
-856.599
-2419.8
-2363.01
-2320.04
-2289.03
-2268.5
-2257.26
-2254.32
-2258.92
-2270.45
-2288.42
-2312.47
-2342.32
-2377.77
-2418.67
-2464.93
-2516.51
-2573.39
-2635.55
-2703.03
-2775.83
-2853.97
-2937.46
-3026.26
-3120.34
-3219.57
-3323.8
-3432.76
-3546.1
-3663.35
-3783.86
-3906.81
-4031.1
-4155.39
-4277.95
-4396.63
-4508.72
-4610.92
-4699.05
-4768.08
-4811.66
-4822.19
-4790.13
-4704.25
-4550.28
-4311.28
916.721
1025.35
1167.26
1345.42
1556.44
1803.3
2082.63
2398.7
2748.31
3132.56
3550.37
4004.28
4488.06
5009.6
5554.24
6146.43
6744.55
7406.15
8065.45
8770.43
9251.58
9505.57
9129.94
6731.26
-1583.29
13313.7
41778.9
42245
69916.3
57516.6
41400.3
30782.3
23785
19110.9
16286
14358.3
13119
12114.3
11425
10686.3
10634.9
10149.2
10348.3
10023.7
10162.2
10058.3
10047.4
9863.14
9307.52
8976.79
8406.36
8056.85
7533.08
7124.71
6560.18
6128.6
5625.25
5097.62
4628.85
4043.3
3548.77
2956.36
2419.25
1868.46
1322.36
796.341
241.173
-223.244
-743.118
-1059.2
-1400.79
-1503.41
-2332.94
-1243.14
-2420.25
-2363.08
-2319.65
-2288.11
-2267.01
-2255.13
-2251.53
-2255.42
-2266.21
-2283.41
-2306.67
-2335.7
-2370.31
-2410.36
-2455.76
-2506.46
-2562.44
-2623.71
-2690.29
-2762.19
-2839.44
-2922.04
-3009.99
-3103.23
-3201.67
-3305.16
-3413.45
-3526.21
-3642.98
-3763.15
-3885.92
-4010.24
-4134.79
-4257.91
-4377.5
-4490.92
-4594.93
-4685.5
-4757.58
-4805.08
-4820.49
-4794.38
-4715.63
-4570.39
-4342.01
1329.18
1453.79
1610.34
1800.24
2022.21
2278.98
2567.56
2889.42
3243.39
3632.32
4051.34
4504.39
4985.15
5500.59
6037.04
6603.73
7200.78
7803.74
8436.21
9065.04
9592.44
10008.8
10552.3
9591.8
14408.6
17149.7
48743.4
66087.2
63695
45811.9
33484.2
25792
20705.6
17269.6
14912.1
13268.1
12114
11211.2
10626.9
9946.02
9772.02
9390.41
9550.48
9341.71
9504.33
9504.06
9658.24
9501.25
8910.36
8482.73
7922.76
7614.93
7121.85
6753.96
6237.18
5857.56
5422.29
4939.59
4534.51
4011.82
3583.88
3049.16
2565.93
2020.37
1485.77
949.241
412.277
-97.9591
-587.273
-998.667
-1225.01
-1488.13
-2005.2
-1574.56
-2406.26
-2349.67
-2306.59
-2275.23
-2254.13
-2242.13
-2238.27
-2241.82
-2252.16
-2268.84
-2291.51
-2319.88
-2353.77
-2393.05
-2437.64
-2487.48
-2542.56
-2602.9
-2668.51
-2739.43
-2815.68
-2897.27
-2984.2
-3076.43
-3173.87
-3276.38
-3383.75
-3495.64
-3611.64
-3731.14
-3853.37
-3977.33
-4101.75
-4225
-4345.03
-4459.31
-4564.61
-4657.08
-4731.7
-4782.52
-4802.18
-4781.47
-4709.35
-4572.15
-4353.5
1706.85
1845.62
2015.68
2217.69
2449.68
2715.02
3011.82
3340.38
3698.65
4090.86
4510.98
4963.94
5442.33
5953.23
6487.3
7046.87
7642.36
8236.58
8858.62
9427.11
9852.82
10254.8
9702.93
9992.47
20615
36884.2
44385.1
63161.7
51218.9
36973
28012.7
22071.7
18216
15651.3
13746
12306.2
11204.4
10368.6
9775.01
9190.16
8945.84
8600.15
8677.05
8588.28
8721.63
8754.71
8914.73
8677.01
8363.76
7896.9
7427.49
7094.16
6640.17
6319.21
5865.03
5542.81
5161.62
4729.71
4365.89
3927.06
3527.18
3047.41
2601.32
2078.56
1584.19
1072.16
599.906
105.254
-346.557
-810.439
-911.579
-1409.08
-1702.6
-1824.82
-2378.53
-2323.44
-2281.49
-2250.95
-2230.42
-2218.76
-2215.06
-2218.59
-2228.77
-2245.17
-2267.42
-2295.29
-2328.58
-2367.17
-2410.99
-2459.99
-2514.17
-2573.55
-2638.15
-2708
-2783.14
-2863.59
-2949.35
-3040.39
-3136.64
-3237.96
-3344.15
-3454.92
-3569.84
-3688.35
-3809.71
-3932.94
-4056.83
-4179.78
-4299.82
-4414.46
-4520.6
-4614.36
-4691.03
-4744.63
-4767.89
-4751.95
-4685.85
-4556.1
-4346.69
2052.87
2205.21
2387.24
2600.18
2842.82
3116.31
3419.67
3754.78
4118.16
4512.92
4934.6
5387.6
5865.73
6375.4
6904.33
7460.95
8021.03
8625
9231.28
9749.41
10236.1
10521.4
11051.4
12593.2
26111.8
47784.2
65928.8
59009.3
41531.8
30692.4
23837
19319.5
16352.1
14284.2
12740.5
11543.9
10526.3
9713.85
9089.26
8467.21
8128.62
7873.02
7896.76
7867.96
7988.93
8011.62
8096.51
7978.93
7758.4
7320.83
6899.74
6584.12
6167
5890.29
5496.56
5204.47
4885.94
4504.42
4204.42
3856.48
3501.19
3075.99
2690.92
2208.82
1760.46
1233.29
772.576
233.505
-192.561
-697.535
-739.024
-1351.31
-1365.18
-2017.39
-2337.88
-2285.11
-2245.01
-2215.9
-2196.46
-2185.58
-2182.4
-2186.23
-2196.52
-2212.84
-2234.87
-2262.37
-2295.16
-2333.14
-2376.24
-2424.43
-2477.7
-2536.09
-2599.62
-2668.33
-2742.26
-2821.44
-2905.89
-2995.57
-3090.43
-3190.35
-3295.14
-3404.52
-3518.08
-3635.29
-3755.44
-3877.6
-4000.56
-4122.81
-4242.4
-4356.95
-4463.4
-4558
-4636.08
-4691.92
-4718.22
-4706.43
-4645.69
-4522.76
-4321.75
2370.04
2535.18
2728.71
2951.56
3203.88
3485.88
3796.02
4136.33
4505.03
4903.02
5328.57
5781.16
6261.47
6767.1
7290.45
7822.95
8356.73
8904.1
9450.94
9926.7
10555.4
11581.9
13314.9
25478.2
28988
51085.6
58544.3
43671.8
32427.6
25331.6
20506
17389.5
15081.2
13328.8
11967.6
10807.9
9790.37
8970.03
8311.66
7731.92
7342.38
7097.56
7147.45
7120.92
7197.1
7185.53
7254.53
7265.89
7097.79
6751.71
6303.29
6003.64
5622.58
5415.65
5091.7
4840.47
4589.73
4280.74
4020.89
3738.65
3411.01
3028.91
2674.15
2216.14
1813.6
1303.59
883.815
385.396
72.47
-460.312
-467.375
-1224.81
-1078.7
-2146.55
-2285.2
-2235.51
-2197.88
-2170.75
-2152.85
-2143.16
-2140.85
-2145.27
-2155.9
-2172.35
-2194.32
-2221.58
-2253.97
-2291.41
-2333.83
-2381.22
-2433.58
-2490.94
-2553.35
-2620.84
-2693.47
-2771.27
-2854.27
-2942.43
-3035.73
-3134.04
-3237.19
-3344.93
-3456.86
-3572.48
-3691.1
-3811.81
-3933.48
-4054.61
-4173.33
-4287.32
-4393.59
-4488.52
-4567.49
-4624.87
-4653.75
-4645.37
-4589.37
-4472.61
-4279.59
2661.29
2838.24
3042.24
3275.01
3536.03
3825.52
4143.26
4488.59
4862.78
5262.77
5692.36
6144.06
6625.72
7121.81
7646.77
8168.91
8709.22
9271.88
9879.19
10844.8
11950.1
13793.5
18667.5
26623.8
48465.1
63085.5
48204
35209.7
27944.9
22358
18569.7
15801.5
13811.9
12224.2
10978.8
9907.39
8974.35
8198.27
7529.2
7044.26
6629.73
6262.96
6353.63
6311.5
6337.61
6327.24
6417.77
6503.52
6366.14
6204.31
5720.87
5475.44
5112.27
4954.71
4672.44
4451.74
4254.13
4011.74
3792.12
3580.98
3314.71
3005.59
2736.9
2319.67
1969.73
1487.05
1072.06
538.95
219.115
-348.811
-342.102
-1096.08
-759.341
-2225.83
-2221.44
-2175.47
-2140.87
-2116.2
-2100.27
-2092.11
-2090.97
-2096.24
-2107.43
-2124.19
-2146.24
-2173.38
-2205.46
-2242.42
-2284.21
-2330.81
-2382.24
-2438.55
-2499.78
-2565.99
-2637.22
-2713.53
-2794.93
-2881.43
-2972.98
-3069.49
-3170.79
-3276.64
-3386.68
-3500.41
-3617.17
-3736.12
-3856.11
-3975.72
-4093.16
-4206.1
-4311.72
-4406.44
-4485.74
-4544.22
-4574.84
-4569.49
-4517.28
-4406.29
-4220.29
2928.15
3116.53
3329.76
3573.02
3840.45
4139.2
4460.67
4814.87
5189.95
5596.75
6024.37
6480.11
6956.6
7452.53
7975.89
8505.47
9057.22
9594.77
10252.1
10931.3
12317.5
15566.8
20353.8
38630.5
59038.3
53747.9
38663.5
29756.2
22991.4
19392.8
16560.9
14274.8
12581.7
11224.2
10008.8
9067.67
8213.73
7457.44
6815.86
6301.62
5968.23
5377.51
5552.12
5516.14
5552.33
5538.21
5643.53
5703.9
5624.91
5688.71
5083.45
4921.77
4564.47
4476.25
4218.42
4064.88
3913.68
3779.93
3581.64
3438.81
3222.28
2945.8
2697.61
2284.29
1954.08
1501.29
1137.3
680.416
413.431
-69.4315
-110.635
-863.435
-613.563
-2247.59
-2147.62
-2105.9
-2074.81
-2053
-2039.38
-2033.07
-2033.37
-2039.7
-2051.65
-2068.87
-2091.13
-2118.25
-2150.1
-2186.63
-2227.81
-2273.63
-2324.13
-2379.36
-2439.36
-2504.21
-2573.96
-2648.66
-2728.35
-2813.03
-2902.67
-2997.18
-3096.42
-3200.15
-3308.03
-3419.59
-3534.19
-3651.02
-3768.97
-3886.68
-4002.38
-4113.84
-4218.34
-4312.25
-4391.4
-4450.25
-4482.14
-4478.87
-4430.23
-4323.67
-4144.43
3173.92
3370.75
3595.6
3844.97
4123.07
4425.4
4756.39
5111.67
5494
5900.92
6331.58
6786.97
7261.55
7757.93
8273.28
8782.35
9334.66
9842.41
10550.5
11544.7
13822.4
19993.8
30154.1
51498.7
54979.9
40884.1
30864.9
25241.5
20582.4
17305
14972.6
12896
11181.9
10108.5
9039.85
8248.92
7492.79
6764.36
6095.59
5489.39
5273.33
4455.94
4738.74
4724.06
4794.15
4784.69
4916.63
4957.07
4985.01
5011.89
4467.85
4380.22
4047.24
3981.81
3742.49
3649.63
3512.92
3464.84
3310.84
3193.12
3050.29
2832.5
2686.06
2363.31
2089.96
1671.94
1345
870.642
584.851
55.8634
-8.01208
-705.138
-397.939
-2206.24
-2064.76
-2027.73
-2000.53
-1981.92
-1970.91
-1966.7
-1968.64
-1976.24
-1989.09
-2006.92
-2029.5
-2056.68
-2088.36
-2124.51
-2165.1
-2210.15
-2259.7
-2313.81
-2372.54
-2435.96
-2504.14
-2577.13
-2654.98
-2737.69
-2825.25
-2917.59
-3014.56
-3115.94
-3221.4
-3330.52
-3442.66
-3557.04
-3672.6
-3788.01
-3901.55
-4011.11
-4113.9
-4206.57
-4284.96
-4343.58
-4376.08
-4374.37
-4328.21
-4226.02
-4051.72
3397.7
3605.29
3837.31
4095.78
4379.83
4689.03
5025.04
5384.83
5770.02
6179.72
6607.81
7063.67
7526.78
8025.43
8519.48
9056.45
9593.58
10243.1
10969.9
12414.1
15876.3
21159.7
44965.1
62296.2
46118.4
32040.4
26196
21938.9
18863.6
15513.6
13153.6
11627.7
10002
9120.89
8275.57
7503.36
6812.33
6099.83
5352.63
4637.32
4520.28
3665.95
3974.06
3952.17
4043.8
4047.8
4176.52
4155.61
4283.11
4287.49
3867.28
3802.37
3523.51
3456.78
3263.15
3266.28
3164.22
3180.72
3127.71
3026.8
2938.52
2767.92
2617.45
2316.35
2046.01
1636.44
1335.12
963.534
706.703
352.887
239.533
-472.516
-208.297
-2145.42
-1973.94
-1941.92
-1918.89
-1903.74
-1895.57
-1893.66
-1897.43
-1906.43
-1920.33
-1938.87
-1961.85
-1989.16
-2020.73
-2056.52
-2096.55
-2140.82
-2189.41
-2242.36
-2299.77
-2361.69
-2428.21
-2499.39
-2575.28
-2655.89
-2741.22
-2831.2
-2925.7
-3024.51
-3127.33
-3233.73
-3343.11
-3454.71
-3567.54
-3680.26
-3791.25
-3898.41
-3999.06
-4090
-4166.95
-4224.84
-4257.34
-4256.22
-4212.28
-4112.97
-3943.79
3602.62
3819.15
4058.29
4324.87
4613.57
4929.69
5268.14
5632.19
6019.51
6427.9
6860.52
7309.27
7776.33
8259.83
8735.54
9254.88
9724.39
10355.4
11364.3
13770.8
20527.3
29090.3
57620.6
47365.2
34176.1
26062
22063
19114.8
17068.7
14613.3
11871.4
10508.3
9272.22
8187.76
7555
6794.69
6067.64
5330.09
4623.36
3926.69
3818.76
3042.12
3215.73
3192.91
3304.16
3310.43
3412.87
3390.81
3645.75
3594.22
3312.96
3279.6
3020.66
2963.43
2812.19
2853.71
2779.64
2769.97
2798.04
2710.72
2666.33
2575.42
2521.18
2327.05
2164.63
1830.12
1562.28
1175.86
914.934
522.803
302.529
-345.147
-26.8548
-2074.22
-1876.22
-1849.43
-1830.77
-1819.26
-1814.09