/*--------------------------------*- C++ -*----------------------------------*\
| =========                 |                                                 |
| \\      /  F ield         | OpenFOAM: The Open Source CFD Toolbox           |
|  \\    /   O peration     | Version:  2.2.x                                 |
|   \\  /    A nd           | Web:      www.OpenFOAM.org                      |
|    \\/     M anipulation  |                                                 |
\*---------------------------------------------------------------------------*/
FoamFile
{
    version     2.0;
    format      ascii;
    class       volVectorField;
    location    "0.25";
    object      U;
}
// * * * * * * * * * * * * * * * * * * * * * * * * * * * * * * * * * * * * * //

dimensions      [0 1 -1 0 0 0 0];

internalField   nonuniform List<vector> 
14161
(
(3.5 1.37362e-16 2.24916e-23)
(3.5 3.78609e-15 -4.25273e-23)
(3.5 5.79175e-15 -5.00115e-23)
(3.5 5.77725e-15 -5.24081e-23)
(3.5 4.69914e-15 -2.07739e-23)
(3.5 -9.48072e-16 -1.66488e-22)
(3.5 -4.43749e-15 6.05845e-23)
(3.5 -1.35195e-15 -6.30737e-23)
(3.5 -5.15201e-15 1.74177e-23)
(3.5 -7.30666e-15 -2.80579e-23)
(3.5 -5.2446e-15 -4.46326e-23)
(3.5 4.49784e-16 -3.6823e-23)
(3.5 -2.40448e-15 -7.09004e-23)
(3.5 -2.55428e-15 -1.1914e-23)
(3.5 -2.23958e-15 -4.20323e-23)
(3.5 -3.0787e-15 -3.68797e-23)
(3.5 7.54477e-16 -6.41341e-23)
(3.5 6.96886e-15 -6.84759e-23)
(3.5 1.10361e-14 -6.38093e-23)
(3.5 9.10083e-15 -8.49562e-23)
(3.5 4.52479e-15 -1.08184e-22)
(3.5 2.01932e-15 -5.64716e-23)
(3.5 3.27335e-16 -8.30752e-23)
(3.5 8.68156e-16 -7.25567e-23)
(3.5 -7.22277e-16 -1.09342e-22)
(3.5 2.58938e-16 -9.34817e-23)
(3.5 -2.46067e-15 -9.31289e-23)
(3.5 -3.84438e-15 -9.29657e-23)
(3.5 -4.6314e-15 -8.77155e-23)
(3.5 -7.77506e-15 -9.86511e-23)
(3.5 -1.31136e-14 -7.00514e-23)
(3.5 -1.23996e-14 -7.79976e-23)
(3.5 -1.04254e-14 -7.66654e-23)
(3.5 -6.12215e-15 -7.962e-23)
(3.5 -5.57407e-16 -7.31846e-23)
(3.5 3.57724e-15 -8.24085e-23)
(3.5 5.43511e-15 -7.90432e-23)
(3.5 3.70496e-15 -8.08921e-23)
(3.5 2.58009e-15 -8.24593e-23)
(3.5 1.48537e-15 -7.96599e-23)
(3.5 1.3306e-16 -8.01085e-23)
(3.5 -1.07648e-16 -8.0156e-23)
(3.5 7.22829e-18 -8.17632e-23)
(3.5 -1.03149e-16 -7.02346e-23)
(3.5 2.69092e-16 -9.35919e-23)
(3.5 1.72312e-15 -4.05933e-23)
(3.5 3.1004e-15 -6.98103e-23)
(3.5 3.99298e-15 1.03698e-23)
(3.5 3.37942e-15 5.53439e-23)
(3.5 2.04699e-15 3.11215e-23)
(3.5 -1.54112e-15 6.22362e-23)
(3.5 -6.07551e-15 4.56304e-23)
(3.5 -7.939e-15 1.18866e-22)
(3.5 -8.82066e-15 1.60069e-22)
(3.5 -3.05828e-15 1.41414e-22)
(3.5 -1.30909e-14 1.28157e-22)
(3.5 4.82086e-12 1.18394e-22)
(3.5 -2.32987e-09 1.0886e-22)
(3.49999 9.07124e-07 9.37962e-23)
(3.51164 -0.000198528 8.81962e-23)
(1.1066 -0.00486773 8.53609e-23)
(0.890586 -0.000462848 1.72571e-21)
(0.882495 0.000244192 -2.67038e-21)
(0.880382 0.00260818 -2.18224e-21)
(0.876762 0.00520006 -9.622e-22)
(0.870637 0.00995942 -4.18938e-21)
(0.859416 0.0146988 -2.77085e-21)
(0.845878 0.014757 -5.90546e-21)
(0.831705 0.0160546 -1.79605e-21)
(0.817548 0.0166547 -5.53447e-21)
(0.802282 0.0149845 -2.98806e-21)
(0.790117 0.0117319 -6.11606e-21)
(0.780366 0.00835273 1.76518e-21)
(0.770814 0.00791486 -5.89466e-21)
(0.760943 0.0106077 -1.77692e-21)
(0.74914 0.0124627 -2.74825e-21)
(0.737614 0.0135625 -4.2625e-21)
(0.727415 0.0145816 -1.89952e-21)
(0.716858 0.0124268 -4.30823e-21)
(0.70602 0.0104218 -1.12858e-21)
(0.694624 0.00952288 -2.06738e-21)
(0.681014 0.0108825 -3.58745e-22)
(0.663801 0.0127218 -4.80337e-21)
(0.646005 0.0129463 1.57879e-21)
(0.631474 0.0128061 -5.12618e-21)
(0.620927 0.0119871 1.81402e-21)
(0.614106 0.0109612 -1.09939e-20)
(0.606765 0.0115419 2.20592e-21)
(0.597206 0.0128228 -1.17781e-20)
(0.584608 0.0129224 -1.49108e-21)
(0.571076 0.0123314 -7.6498e-21)
(0.558715 0.0121207 -1.65243e-22)
(0.547864 0.0120476 -7.95771e-21)
(0.537324 0.0119706 -7.64259e-21)
(0.526161 0.0118884 1.03286e-22)
(0.513871 0.011789 -8.19049e-21)
(0.499836 0.0116945 1.36161e-21)
(0.484216 0.011751 -8.80924e-21)
(0.468988 0.011836 3.0725e-21)
(0.455739 0.0121357 -1.02838e-20)
(0.442691 0.013089 6.85852e-22)
(0.42904 0.0132486 6.21285e-21)
(0.416143 0.0117434 3.77228e-22)
(0.403963 0.010953 -2.71545e-21)
(0.391301 0.0107446 1.91587e-22)
(0.377521 0.0109695 -2.37226e-21)
(0.363137 0.0110964 1.16594e-20)
(0.34835 0.0109865 -4.07707e-20)
(0.334535 0.0107214 1.25578e-20)
(0.323965 0.0103273 -3.83058e-20)
(0.315245 0.00973876 2.09568e-20)
(0.307853 0.00957289 -3.63124e-20)
(0.299623 0.0100277 2.3515e-20)
(0.287795 0.0117715 -6.53754e-20)
(0.271296 0.0149053 2.29219e-20)
(0.24862 0.0231381 -8.39919e-20)
(0.217609 0.0371635 1.30004e-19)
(0.163417 0.0550615 -5.22283e-19)
(0.130027 0.128838 9.94726e-19)
(3.5 -8.36289e-16 -1.10218e-22)
(3.5 3.09565e-15 2.34146e-22)
(3.5 6.12804e-15 2.60472e-22)
(3.5 5.1941e-15 1.28373e-22)
(3.5 2.68689e-15 1.08469e-22)
(3.5 -5.22016e-16 1.5718e-22)
(3.5 -3.70107e-15 1.41639e-22)
(3.5 -1.43685e-15 1.36988e-22)
(3.5 -4.78668e-15 2.0047e-22)
(3.5 -1.03157e-14 1.39394e-22)
(3.5 -5.6832e-15 1.39209e-22)
(3.5 3.0427e-16 1.16319e-22)
(3.5 4.82827e-16 2.72055e-22)
(3.5 -4.30972e-15 -8.90346e-24)
(3.5 -3.39028e-15 -8.54667e-23)
(3.5 -1.5652e-15 -3.51418e-23)
(3.5 2.39528e-15 -1.87509e-23)
(3.5 8.29799e-15 -1.47152e-22)
(3.5 9.30102e-15 -2.94633e-23)
(3.5 7.54183e-15 -2.40848e-22)
(3.5 2.72998e-15 -1.88234e-22)
(3.5 2.35856e-15 -2.03874e-22)
(3.5 -7.60308e-16 -2.48523e-22)
(3.5 -1.16708e-15 -3.18041e-22)
(3.5 -3.82027e-15 -2.0114e-22)
(3.5 -2.32534e-15 -1.49921e-22)
(3.5 -4.46005e-15 -2.42775e-22)
(3.5 -4.65504e-15 -2.27279e-22)
(3.5 -4.82199e-15 -2.93001e-22)
(3.5 -5.85957e-15 -1.79181e-22)
(3.5 -1.04599e-14 -3.08161e-22)
(3.5 -1.27538e-14 -2.76821e-22)
(3.5 -1.12666e-14 -2.55879e-22)
(3.5 -6.66092e-15 -2.84363e-22)
(3.5 -1.66654e-16 -2.95235e-22)
(3.5 5.57325e-15 -2.59228e-22)
(3.5 7.48272e-15 -2.89342e-22)
(3.5 6.70953e-15 -2.70657e-22)
(3.5 4.46396e-15 -3.06673e-22)
(3.5 1.17315e-15 -2.72518e-22)
(3.5 -1.23033e-15 -2.91728e-22)
(3.5 -3.16488e-15 -2.82392e-22)
(3.5 -3.69693e-15 -2.781e-22)
(3.5 -3.55155e-15 -2.88924e-22)
(3.5 -2.48253e-15 -2.63773e-22)
(3.5 2.85731e-17 -3.43242e-22)
(3.5 2.84644e-15 -2.94283e-22)
(3.5 5.98287e-15 -2.03023e-22)
(3.5 7.66377e-15 -4.18306e-22)
(3.5 2.9608e-15 -4.06244e-22)
(3.5 -3.41321e-15 -4.52851e-22)
(3.5 -6.54546e-15 -4.73115e-22)
(3.5 -6.3042e-15 -6.00967e-22)
(3.5 -8.80697e-15 -4.7455e-22)
(3.5 -4.01201e-15 -6.47293e-22)
(3.5 -9.75573e-15 -4.68034e-22)
(3.5 4.58818e-12 -4.54378e-22)
(3.5 -2.70425e-09 -4.32552e-22)
(3.49999 1.39284e-06 -4.70867e-22)
(3.51074 -0.000566284 -5.30021e-22)
(1.04431 0.0218706 -5.32841e-22)
(0.836909 0.0183445 9.96829e-22)
(0.811715 0.0144243 -1.67381e-20)
(0.790378 0.0135179 1.45799e-20)
(0.774192 0.0139661 -1.24852e-20)
(0.759975 0.016285 5.59741e-21)
(0.748703 0.0181037 3.05676e-21)
(0.738762 0.0189871 6.18011e-21)
(0.728332 0.0198105 6.18123e-22)
(0.718611 0.0191882 6.70926e-22)
(0.707566 0.0187493 -1.07569e-21)
(0.697185 0.0166509 2.70427e-21)
(0.684992 0.0142161 2.00843e-21)
(0.671935 0.0143204 2.59453e-21)
(0.658235 0.0162279 2.17996e-21)
(0.645943 0.0185897 5.13756e-21)
(0.63564 0.0196043 1.25528e-21)
(0.626045 0.0201425 5.75322e-21)
(0.616761 0.0194247 -1.58735e-21)
(0.605061 0.0173782 7.61401e-21)
(0.59088 0.0157999 -7.84568e-22)
(0.574834 0.0165086 1.5552e-21)
(0.558241 0.0182691 -1.90772e-22)
(0.542011 0.0189919 1.2976e-20)
(0.529007 0.0182723 -7.81927e-21)
(0.519277 0.0176251 9.1502e-21)
(0.511966 0.0171501 6.01328e-21)
(0.504526 0.018103 -2.17304e-20)
(0.495171 0.0196451 3.26566e-20)
(0.483619 0.0196931 -1.10733e-21)
(0.471614 0.0189727 1.68307e-20)
(0.46039 0.0186158 -6.69872e-21)
(0.450366 0.0184671 2.43793e-20)
(0.440676 0.0182716 -5.21971e-20)
(0.430738 0.0180257 4.12005e-20)
(0.41979 0.0177883 -3.41778e-20)
(0.407075 0.0175971 3.72717e-20)
(0.393343 0.0174809 -5.15202e-20)
(0.38059 0.0171997 3.17668e-20)
(0.370515 0.0170034 -1.96134e-20)
(0.362792 0.0172477 3.89081e-20)
(0.355402 0.0164535 -5.42216e-20)
(0.345305 0.0129574 2.36294e-20)
(0.331943 0.0124778 -1.02753e-19)
(0.316841 0.0125945 1.03579e-19)
(0.300457 0.0129967 -1.91083e-19)
(0.283531 0.0131756 1.89133e-19)
(0.265999 0.0130522 -2.36205e-19)
(0.249436 0.0127753 3.14618e-19)
(0.235019 0.0123295 -2.97249e-19)
(0.221393 0.0116467 2.71678e-19)
(0.208639 0.0113257 -2.57696e-19)
(0.193831 0.0116157 3.65532e-19)
(0.175362 0.0133773 -3.37697e-19)
(0.152898 0.0169864 4.67837e-19)
(0.12659 0.0262645 -5.24837e-19)
(0.100002 0.0417474 1.78437e-19)
(0.0575171 0.061877 -8.20196e-19)
(0.0555056 0.177292 -3.71644e-19)
(3.5 2.23207e-16 1.05962e-22)
(3.5 1.58876e-15 -7.51054e-23)
(3.5 5.6638e-15 -1.20266e-22)
(3.5 6.27533e-15 -1.54728e-22)
(3.5 4.59364e-15 -7.35852e-23)
(3.5 3.88241e-15 -9.83064e-23)
(3.5 -4.21174e-16 -9.6179e-23)
(3.5 -2.24153e-15 -1.37131e-22)
(3.5 -5.51027e-15 -3.61008e-23)
(3.5 -1.10984e-14 -1.61552e-22)
(3.5 -3.39986e-15 1.86084e-22)
(3.5 1.60804e-15 -1.08371e-22)
(3.5 3.47009e-15 -1.20515e-22)
(3.5 -7.28257e-15 -4.88685e-23)
(3.5 -6.24657e-15 8.77574e-23)
(3.5 -2.22214e-15 2.12154e-23)
(3.5 2.48105e-15 9.10055e-23)
(3.5 1.12369e-14 -1.35274e-22)
(3.5 1.16026e-14 1.93249e-22)
(3.5 1.03335e-14 9.56672e-23)
(3.5 6.7114e-15 7.90737e-23)
(3.5 1.9976e-15 -2.20232e-22)
(3.5 -4.70834e-15 -3.63213e-22)
(3.5 -5.33149e-15 -1.74775e-22)
(3.5 -4.96931e-15 -5.82718e-22)
(3.5 -6.97602e-15 -5.65088e-22)
(3.5 -6.15272e-15 -6.53958e-22)
(3.5 -3.0744e-15 -7.21011e-22)
(3.5 -1.76055e-15 -7.92515e-22)
(3.5 -1.797e-15 -6.05747e-22)
(3.5 -2.06454e-15 -6.64471e-22)
(3.5 -1.52466e-15 -5.88463e-22)
(3.5 -2.00644e-15 -6.78942e-22)
(3.5 -2.64731e-16 -5.61282e-22)
(3.5 2.49632e-15 -6.31196e-22)
(3.5 4.00094e-15 -5.76306e-22)
(3.5 3.6837e-15 -5.66475e-22)
(3.5 3.66383e-15 -5.64064e-22)
(3.5 2.97564e-15 -5.65427e-22)
(3.5 8.00537e-16 -5.3554e-22)
(3.5 -1.03115e-15 -5.85681e-22)
(3.5 -2.69803e-15 -4.37444e-22)
(3.5 -4.38384e-15 -5.82437e-22)
(3.5 -5.42288e-15 -4.98697e-22)
(3.5 -4.85695e-15 -6.6229e-22)
(3.5 -2.1938e-15 -3.60084e-22)
(3.5 5.52263e-16 -4.24939e-22)
(3.5 1.64682e-15 -1.47307e-22)
(3.5 4.14836e-16 -1.96179e-22)
(3.5 -1.34827e-15 2.85912e-23)
(3.5 -2.12493e-15 -1.79478e-22)
(3.5 -2.39128e-15 4.58993e-23)
(3.5 -1.97357e-15 4.09936e-23)
(3.5 -7.12923e-15 -7.61579e-23)
(3.5 -5.95806e-15 1.683e-22)
(3.5 -7.84415e-15 -1.93995e-22)
(3.5 2.41743e-12 -1.98001e-22)
(3.5 -1.56854e-09 -3.41951e-22)
(3.49999 9.11316e-07 -2.44282e-22)
(3.50845 -0.000443863 -2.14615e-22)
(1.14153 0.0351703 -8.50454e-21)
(0.906316 0.0349837 -3.68033e-21)
(0.897857 0.0327852 6.38932e-21)
(0.891994 0.0312123 -1.05336e-20)
(0.883766 0.0309088 -7.69331e-21)
(0.8749 0.0323601 -4.02539e-21)
(0.863991 0.0354297 -1.18959e-20)
(0.850752 0.0362732 -2.00443e-21)
(0.836383 0.0367055 -2.67822e-21)
(0.822302 0.0367067 7.15345e-21)
(0.806718 0.0358956 -1.79988e-21)
(0.792583 0.0336552 5.66363e-21)
(0.778149 0.0314907 1.09248e-21)
(0.762633 0.0314237 1.90718e-20)
(0.746917 0.0327206 -2.03424e-20)
(0.73168 0.0347622 2.74937e-20)
(0.718051 0.0347774 -9.89122e-21)
(0.707237 0.0352458 1.32461e-20)
(0.694955 0.0346501 -1.2041e-20)
(0.681767 0.0324229 1.38402e-20)
(0.666077 0.0304787 2.08769e-21)
(0.647953 0.0310631 9.3306e-23)
(0.627965 0.0329441 3.42183e-21)
(0.608659 0.0337765 -2.49809e-21)
(0.592565 0.0333619 2.49659e-20)
(0.580831 0.0323354 -2.8293e-20)
(0.570971 0.0314194 1.53216e-20)
(0.561047 0.0310892 -1.23807e-20)
(0.549512 0.0311548 -2.75023e-20)
(0.535721 0.0308286 8.87818e-21)
(0.521613 0.0298365 -2.90615e-20)
(0.508192 0.0290684 -1.68659e-20)
(0.495902 0.0288564 1.22165e-20)
(0.483507 0.0287071 -5.40178e-20)
(0.469867 0.0284481 8.04732e-20)
(0.454429 0.0283579 -1.01502e-19)
(0.4371 0.0285611 8.6796e-20)
(0.418369 0.0285411 -7.59204e-20)
(0.400319 0.0281867 9.1848e-20)
(0.384819 0.0284944 -1.07977e-19)
(0.370487 0.0291038 1.21899e-19)
(0.35572 0.0290757 -7.47728e-20)
(0.339486 0.0313802 1.52504e-19)
(0.321458 0.0314059 -6.36819e-20)
(0.302158 0.0307616 1.54868e-19)
(0.282013 0.0300404 -5.03386e-20)
(0.261592 0.0294931 9.62777e-20)
(0.240482 0.0290109 9.04266e-20)
(0.220455 0.0286259 -1.71213e-19)
(0.202528 0.0282913 5.21824e-19)
(0.185516 0.0280437 -2.85527e-19)
(0.169468 0.0285364 9.73416e-19)
(0.151993 0.029737 -5.71188e-19)
(0.131458 0.0329056 1.40442e-18)
(0.107511 0.0384297 -6.88623e-19)
(0.0832175 0.0537075 2.08628e-18)
(0.06182 0.0752612 1.7594e-20)
(0.0287188 0.101581 6.96148e-19)
(0.0297736 0.227615 8.05878e-19)
(3.5 1.79878e-16 -1.01201e-22)
(3.5 -9.65916e-16 -5.12339e-23)
(3.5 5.60037e-15 1.40563e-22)
(3.5 9.4577e-15 1.62064e-22)
(3.5 8.8822e-15 7.92231e-23)
(3.5 8.16301e-15 -2.27276e-22)
(3.5 1.13277e-15 -2.57346e-22)
(3.5 -1.49815e-15 -2.24245e-22)
(3.5 -5.43699e-15 -2.04292e-22)
(3.5 -9.41692e-15 -1.79244e-22)
(3.5 -3.84588e-15 -2.07013e-22)
(3.5 3.02598e-15 -5.71197e-22)
(3.5 8.78344e-16 -5.14951e-22)
(3.5 -9.76546e-16 -5.49103e-22)
(3.5 -2.55814e-15 -1.58005e-22)
(3.5 -1.04926e-15 -8.44799e-23)
(3.5 7.61164e-15 -1.7098e-22)
(3.5 1.5056e-14 -1.03197e-22)
(3.5 1.50312e-14 -9.53921e-22)
(3.5 1.0449e-14 -4.84675e-23)
(3.5 5.99749e-15 -1.04206e-22)
(3.5 4.45545e-16 1.16364e-22)
(3.5 -5.94065e-15 8.51366e-23)
(3.5 -5.09203e-15 -1.05105e-23)
(3.5 -2.66518e-15 5.98847e-22)
(3.5 -3.14647e-15 2.07975e-22)
(3.5 -2.64316e-15 4.35863e-23)
(3.5 -2.33529e-15 5.74622e-22)
(3.5 -8.97107e-16 7.80954e-22)
(3.5 2.18832e-15 2.5139e-22)
(3.5 3.38257e-15 2.26972e-22)
(3.5 4.18722e-15 2.25698e-22)
(3.5 5.10971e-15 2.25188e-22)
(3.5 4.58794e-15 2.21668e-22)
(3.5 4.1694e-15 2.18731e-22)
(3.5 1.7089e-15 3.30545e-22)
(3.5 -9.67527e-16 2.69424e-22)
(3.5 -1.12241e-15 3.3455e-22)
(3.5 -4.48965e-16 3.83404e-22)
(3.5 -3.72632e-16 3.37049e-22)
(3.5 -4.91967e-17 3.69862e-22)
(3.5 -8.68146e-16 3.43816e-22)
(3.5 -2.16593e-15 3.98238e-22)
(3.5 -3.72826e-15 3.31542e-22)
(3.5 -4.78441e-15 4.24347e-22)
(3.5 -4.52562e-15 2.27074e-22)
(3.5 -3.42853e-15 2.26265e-22)
(3.5 -4.00853e-15 -1.32737e-22)
(3.5 -4.28008e-15 -1.52286e-22)
(3.5 -3.80772e-15 -3.06551e-23)
(3.5 -2.73243e-15 -3.47054e-22)
(3.5 -3.20878e-15 -9.08768e-24)
(3.5 -3.26885e-15 -4.17757e-22)
(3.5 -3.52797e-15 1.37903e-22)
(3.5 -4.34951e-15 -5.07179e-22)
(3.5 -3.33363e-15 1.06823e-22)
(3.5 1.41056e-12 2.28678e-22)
(3.5 -1.11064e-09 2.91772e-22)
(3.49999 7.84592e-07 3.55277e-22)
(3.50774 -0.00043821 4.12546e-22)
(1.05694 0.0446297 4.45287e-21)
(0.841024 0.0472376 3.35069e-20)
(0.820035 0.0444085 -1.84163e-20)
(0.803799 0.04217 2.76443e-20)
(0.790295 0.0416133 2.00529e-20)
(0.77865 0.0432922 3.20689e-20)
(0.769463 0.0472724 3.05128e-20)
(0.760142 0.0500033 2.01005e-20)
(0.751105 0.0501828 2.77812e-20)
(0.741781 0.0506935 6.28561e-22)
(0.731131 0.0505522 1.15889e-20)
(0.722408 0.0489341 -8.45824e-22)
(0.71227 0.0474589 2.25822e-20)
(0.701776 0.0467606 6.744e-21)
(0.69149 0.046801 1.03724e-24)
(0.682048 0.048298 2.19566e-21)
(0.675294 0.0483984 4.02519e-21)
(0.670037 0.0475062 2.03984e-21)
(0.665695 0.0461388 6.22804e-21)
(0.659522 0.0427586 6.46075e-22)
(0.648103 0.0420455 -2.51838e-21)
(0.633232 0.0438845 -2.94351e-21)
(0.616801 0.0464498 1.44648e-22)
(0.601115 0.0479307 -1.1702e-20)
(0.587989 0.0481802 6.28729e-21)
(0.578601 0.047363 -7.71747e-21)
(0.570121 0.0465451 4.80622e-20)
(0.560998 0.0466005 -6.90058e-20)
(0.549856 0.046772 7.49438e-20)
(0.536206 0.0464134 8.3167e-21)
(0.522093 0.0458008 4.02976e-20)
(0.509123 0.0456238 7.51792e-20)
(0.497025 0.0456229 1.36913e-20)
(0.484861 0.0457751 -4.52184e-21)
(0.472084 0.0460864 1.56672e-20)
(0.458042 0.0462006 -6.42606e-20)
(0.442064 0.0459458 -7.50518e-20)
(0.423913 0.0460929 -6.19905e-20)
(0.405357 0.0454844 -1.24063e-19)
(0.387575 0.0453509 -4.37473e-20)
(0.371306 0.0449496 -2.25663e-19)
(0.354879 0.0452864 1.58815e-20)
(0.338295 0.0485862 -3.68062e-19)
(0.320244 0.0497547 1.01041e-19)
(0.300528 0.0501142 -6.42019e-19)
(0.279172 0.0499248 2.67314e-19)
(0.257361 0.0498538 -9.25e-19)
(0.234924 0.0498852 5.56928e-19)
(0.213701 0.0500465 -1.29765e-18)
(0.194481 0.0502277 5.41579e-19)
(0.176132 0.0504042 -1.18726e-18)
(0.158424 0.051193 1.32474e-19)
(0.139233 0.0522644 -8.93656e-19)
(0.116948 0.0554417 -5.11765e-19)
(0.0919276 0.0600061 -5.43057e-19)
(0.0666261 0.0732733 -9.66803e-19)
(0.0474779 0.0967055 1.74476e-18)
(0.020062 0.12705 -1.19635e-18)
(0.0228944 0.248973 -7.07449e-19)
(3.5 -1.75078e-15 -9.69215e-23)
(3.5 -1.7205e-15 1.79285e-22)
(3.5 -1.37098e-15 -2.79201e-22)
(3.5 2.03098e-16 2.28401e-22)
(3.5 3.80282e-15 1.66773e-22)
(3.5 8.1526e-15 6.9567e-22)
(3.5 6.90858e-15 1.07576e-21)
(3.5 2.34872e-15 2.14995e-22)
(3.5 -3.82721e-15 7.35255e-22)
(3.5 -6.8604e-15 9.11516e-22)
(3.5 -7.07219e-15 -6.72876e-22)
(3.5 -2.18609e-15 1.07602e-21)
(3.5 -1.32708e-15 9.7838e-22)
(3.5 6.70034e-16 1.06614e-21)
(3.5 3.2403e-15 4.88242e-22)
(3.5 7.26604e-15 2.84571e-22)
(3.5 9.33526e-15 1.09274e-21)
(3.5 7.81802e-15 9.7659e-22)
(3.5 4.08349e-15 1.4575e-21)
(3.5 1.77209e-15 6.28498e-22)
(3.5 -1.44869e-15 3.25465e-22)
(3.5 -2.90197e-15 3.9371e-22)
(3.5 -4.55739e-15 -2.07855e-22)
(3.5 -5.50837e-15 -3.01422e-22)
(3.5 -5.85383e-15 -6.29624e-23)
(3.5 -4.78977e-15 1.27174e-22)
(3.5 -4.28285e-15 4.98228e-23)
(3.5 -4.88081e-15 -2.74735e-22)
(3.5 -2.73463e-15 -3.13029e-22)
(3.5 1.05424e-16 2.39661e-23)
(3.5 3.36772e-15 1.16789e-22)
(3.5 4.79804e-15 7.07486e-23)
(3.5 5.23162e-15 2.06459e-22)
(3.5 3.15752e-15 2.93187e-23)
(3.5 1.09217e-15 -1.31063e-22)
(3.5 -1.54043e-17 8.86479e-23)
(3.5 -3.98965e-16 6.09024e-23)
(3.5 -1.62142e-15 -8.33252e-23)
(3.5 -3.66686e-15 -3.53416e-23)
(3.5 -3.49238e-15 -1.26031e-22)
(3.5 -3.24323e-15 -1.52345e-22)
(3.5 -3.06868e-15 -1.21055e-22)
(3.5 -2.92323e-15 -9.16866e-23)
(3.5 -2.38632e-15 -1.02666e-22)
(3.5 -2.88869e-15 -2.76831e-22)
(3.5 -4.25475e-15 4.41843e-23)
(3.5 -5.90382e-15 -4.67497e-22)
(3.5 -6.56521e-15 2.3844e-22)
(3.5 -6.42407e-15 -3.67618e-22)
(3.5 -5.14176e-15 -3.84511e-22)
(3.5 -3.76845e-15 -2.81415e-22)
(3.5 -3.83435e-15 -1.65046e-22)
(3.5 -3.87517e-15 5.80661e-23)
(3.5 -4.05738e-15 -1.59972e-22)
(3.5 -2.99187e-16 -1.56479e-22)
(3.5 -5.56073e-15 -4.74863e-22)
(3.5 7.05402e-13 -4.81589e-22)
(3.5 -6.55947e-10 -3.5549e-22)
(3.5 5.65013e-07 -3.56712e-22)
(3.50607 -0.000437974 -4.93274e-22)
(1.13142 0.080277 -6.00813e-22)
(0.886496 0.0703161 7.67968e-21)
(0.87776 0.0611641 5.9581e-21)
(0.868393 0.0575331 -1.00946e-20)
(0.857248 0.056884 6.61301e-22)
(0.844676 0.0570981 -1.37076e-20)
(0.831178 0.0579875 -1.15093e-20)
(0.817879 0.059057 -1.15897e-20)
(0.805707 0.0588244 -4.39157e-21)
(0.79385 0.0579698 -8.72898e-21)
(0.780565 0.0574244 -7.3108e-21)
(0.768825 0.056619 1.48773e-20)
(0.755895 0.0565884 -2.90122e-20)
(0.743068 0.0580513 4.1572e-20)
(0.730404 0.0584186 -2.1452e-20)
(0.714883 0.0582762 4.01965e-20)
(0.699285 0.0591202 -4.21385e-20)
(0.684956 0.060188 2.23152e-20)
(0.669094 0.0606513 3.50067e-20)
(0.653784 0.0608526 -1.42643e-20)
(0.638337 0.059726 3.15172e-20)
(0.622968 0.0598934 -5.90875e-20)
(0.607788 0.0614432 6.37076e-20)
(0.593963 0.0626731 -1.71147e-20)
(0.582697 0.0625958 -4.76093e-21)
(0.57526 0.0618597 -9.26819e-23)
(0.568345 0.0615446 -3.24788e-20)
(0.560275 0.0615889 6.81078e-20)
(0.549712 0.0619334 -9.27093e-20)
(0.536452 0.0617668 1.31919e-19)
(0.522591 0.0614108 -1.17231e-19)
(0.509841 0.0610786 1.57219e-19)
(0.497785 0.0610744 -2.44581e-20)
(0.485791 0.0611433 2.07509e-19)
(0.473222 0.0615237 -1.23881e-20)
(0.459384 0.0618669 2.64428e-19)
(0.443621 0.0619927 3.66823e-20)
(0.425828 0.0625294 3.20257e-19)
(0.40792 0.062468 2.61354e-20)
(0.391114 0.0629815 4.1586e-19)
(0.374744 0.0624443 -1.07892e-19)
(0.358271 0.062765 5.20707e-19)
(0.341848 0.0656509 -7.93248e-20)
(0.324207 0.0672 6.25702e-19)
(0.305405 0.0679666 -1.74852e-19)
(0.284783 0.0682831 7.35403e-19)
(0.263294 0.0685794 -2.74199e-19)
(0.240877 0.0691367 6.91909e-19)
(0.219468 0.07003 -6.54241e-21)
(0.199741 0.0710983 -2.09971e-19)
(0.180616 0.0722185 4.67237e-19)
(0.161551 0.0740851 -9.04033e-19)
(0.14074 0.0760334 9.96426e-19)
(0.11678 0.0800446 -9.01595e-19)
(0.0903626 0.0842807 4.21923e-19)
(0.0636271 0.095804 -5.33672e-19)
(0.0434101 0.118378 -1.13931e-18)
(0.0191743 0.149797 1.66255e-18)
(0.0231786 0.263969 9.15951e-19)
(3.5 -1.76528e-16 1.20314e-22)
(3.5 -4.82277e-17 -2.61373e-23)
(3.5 -4.25024e-15 1.35991e-22)
(3.5 -4.71457e-15 -1.31118e-22)
(3.5 3.9479e-16 -2.35754e-22)
(3.5 5.53001e-15 -2.00747e-21)
(3.5 6.97634e-15 -1.80107e-21)
(3.5 2.00294e-15 -1.14936e-21)
(3.5 -4.21458e-15 -2.24588e-21)
(3.5 -8.37544e-15 -2.19445e-21)
(3.5 -1.00144e-14 -1.18341e-21)
(3.5 -1.05519e-14 -2.03018e-21)
(3.5 -5.45929e-15 -3.41426e-21)
(3.5 1.71634e-15 -1.85548e-21)
(3.5 3.80672e-15 -2.54586e-21)
(3.5 7.44907e-15 -1.56286e-21)
(3.5 6.69047e-15 -3.97128e-21)
(3.5 2.43629e-15 -2.40555e-21)
(3.5 5.52223e-16 -2.96067e-21)
(3.5 -2.40185e-15 -3.20855e-21)
(3.5 -2.32695e-15 -3.18524e-21)
(3.5 -5.59416e-15 -2.90884e-21)
(3.5 -6.2982e-15 -2.4981e-21)
(3.5 -8.33902e-15 -2.47332e-21)
(3.5 -9.2335e-15 -2.08362e-21)
(3.5 -9.07938e-15 -1.7848e-21)
(3.5 -6.61792e-15 -1.59956e-21)
(3.5 -3.92368e-15 -1.65351e-21)
(3.5 -2.23966e-15 -1.61507e-21)
(3.5 -2.26365e-15 -1.72353e-21)
(3.5 -3.45612e-16 -1.60192e-21)
(3.5 1.9665e-15 -1.77732e-21)
(3.5 2.61614e-15 -1.71732e-21)
(3.5 1.04196e-15 -1.86012e-21)
(3.5 6.35405e-16 -1.83819e-21)
(3.5 1.00658e-15 -1.79883e-21)
(3.5 -1.31853e-16 -1.77403e-21)
(3.5 -8.50939e-16 -1.75531e-21)
(3.5 -3.58148e-15 -1.75908e-21)
(3.5 -5.44532e-15 -1.78109e-21)
(3.5 -4.98027e-15 -1.76681e-21)
(3.5 -2.2078e-15 -1.87575e-21)
(3.5 1.94863e-16 -1.71055e-21)
(3.5 5.79163e-16 -1.82318e-21)
(3.5 2.1444e-16 -1.75284e-21)
(3.5 2.03948e-16 -1.94679e-21)
(3.5 -1.13602e-15 -1.60701e-21)
(3.5 -3.09827e-15 -1.47359e-21)
(3.5 -4.25938e-15 -5.33906e-22)
(3.5 -4.39031e-15 -1.01487e-21)
(3.5 -2.76064e-15 -4.7438e-22)
(3.5 -2.40091e-15 -1.81972e-21)
(3.5 -3.31517e-15 -8.04772e-22)
(3.5 -3.75875e-15 -1.11614e-21)
(3.5 -1.79182e-15 -8.72174e-22)
(3.5 -3.5158e-15 -8.27683e-22)
(3.5 3.31433e-13 -7.84695e-22)
(3.5 -3.66147e-10 -6.66902e-22)
(3.5 3.65216e-07 -4.36254e-22)
(3.50495 -0.000331786 -2.03908e-22)
(1.14957 0.0690155 -3.31956e-22)
(0.887293 0.0702498 -2.25388e-20)
(0.877385 0.0745737 -1.52299e-20)
(0.867714 0.076554 -7.84358e-21)
(0.856892 0.0797633 -1.31729e-20)
(0.845665 0.0827581 -2.23582e-20)
(0.83371 0.0828307 -1.1598e-20)
(0.823219 0.0803188 -2.28994e-20)
(0.813033 0.0795201 -4.94637e-21)
(0.801157 0.0781415 -2.57573e-20)
(0.787716 0.0773293 -1.29889e-20)
(0.77549 0.0773297 4.86503e-21)
(0.76224 0.0780594 -5.17547e-20)
(0.747086 0.0800157 -6.47128e-21)
(0.731882 0.0804456 -3.05956e-20)
(0.719286 0.0804347 1.50518e-20)
(0.708815 0.0795227 -3.52976e-20)
(0.698351 0.0790514 1.86441e-20)
(0.685548 0.0777766 -7.35818e-20)
(0.672725 0.0758735 1.3733e-20)
(0.658557 0.073146 -3.93309e-20)
(0.64287 0.0723834 4.27004e-20)
(0.626159 0.0733801 -5.61392e-20)
(0.610961 0.0740656 3.07485e-20)
(0.598446 0.0737857 -4.99971e-21)
(0.590088 0.0729175 6.72469e-20)
(0.581994 0.0731303 -6.2443e-21)
(0.572937 0.0736064 8.69141e-20)
(0.561361 0.0743679 -4.0869e-20)
(0.547374 0.0747568 4.24461e-20)
(0.533118 0.0748445 -9.28072e-20)
(0.519727 0.074848 -6.26752e-20)
(0.506773 0.0752193 -1.95558e-19)
(0.493847 0.0755835 -1.04648e-19)
(0.480563 0.0761957 -1.53164e-19)
(0.466379 0.0768224 -1.62435e-19)
(0.450623 0.0772031 -1.78921e-19)
(0.43298 0.0780247 -2.06877e-19)
(0.415292 0.0783599 -1.51723e-19)
(0.39908 0.079482 -1.66849e-19)
(0.38281 0.0793899 -2.04965e-19)
(0.365932 0.0801558 4.61575e-21)
(0.348593 0.0826124 -2.16462e-19)
(0.33013 0.0845192 -9.64971e-20)
(0.310854 0.0858516 1.95798e-20)
(0.289923 0.0869804 -5.46051e-19)
(0.268149 0.0879455 6.50092e-19)
(0.245498 0.0891737 -1.0397e-18)
(0.224027 0.0907884 1.35059e-18)
(0.20418 0.0926494 -1.12219e-18)
(0.185054 0.0945325 1.10352e-18)
(0.165847 0.097279 -3.33258e-19)
(0.144868 0.0998767 -9.63724e-19)
(0.120883 0.104585 9.14041e-19)
(0.0945899 0.108646 -1.24589e-18)
(0.0675715 0.118427 -8.89917e-19)
(0.0465075 0.140237 1.11852e-18)
(0.0229312 0.172115 -1.75425e-18)
(0.0275419 0.277754 -1.24484e-18)
(3.5 -6.16368e-16 6.90251e-22)
(3.5 5.42992e-16 7.40596e-22)
(3.5 -2.13222e-16 7.26659e-22)
(3.5 2.7234e-15 4.05298e-22)
(3.5 3.90456e-15 1.37962e-21)
(3.5 4.78553e-15 2.6588e-21)
(3.5 3.14944e-15 1.31325e-21)
(3.5 5.19058e-16 2.54691e-21)
(3.5 -2.63301e-15 1.68628e-21)
(3.5 -9.31857e-15 1.95593e-21)
(3.5 -1.03617e-14 1.71637e-21)
(3.5 -4.82075e-15 2.34407e-21)
(3.5 -2.45228e-15 3.11416e-21)
(3.5 2.36867e-16 2.31182e-21)
(3.5 -1.41659e-16 -2.18281e-22)
(3.5 1.88701e-15 -1.57545e-21)
(3.5 3.25153e-15 3.91082e-22)
(3.5 4.25456e-15 8.47594e-23)
(3.5 1.9168e-15 -1.02828e-23)
(3.5 -3.90631e-15 8.88183e-22)
(3.5 -3.99946e-15 8.98899e-22)
(3.5 -8.51638e-15 7.32177e-22)
(3.5 -1.03549e-14 6.63134e-22)
(3.5 -9.84233e-15 1.16669e-21)
(3.5 -6.63712e-15 -6.81889e-23)
(3.5 -4.72443e-15 -4.8763e-23)
(3.5 -3.87361e-15 -1.67308e-23)
(3.5 -2.10665e-15 2.17786e-22)
(3.5 1.99367e-15 1.55561e-22)
(3.5 3.44312e-15 -2.40623e-22)
(3.5 2.62963e-15 6.20421e-23)
(3.5 1.93895e-15 2.3601e-22)
(3.5 1.43852e-15 5.496e-22)
(3.5 1.05602e-15 6.76544e-22)
(3.5 1.45235e-15 7.22574e-22)
(3.5 5.16302e-16 8.68978e-22)
(3.5 -2.16945e-15 9.45566e-22)
(3.5 -3.46645e-15 1.0511e-21)
(3.5 -2.97111e-15 1.14549e-21)
(3.5 -2.4816e-15 1.26443e-21)
(3.5 -1.40262e-15 1.27028e-21)
(3.5 8.56066e-16 1.19032e-21)
(3.5 5.2599e-15 1.15268e-21)
(3.5 5.58831e-15 1.3749e-21)
(3.5 2.26297e-15 1.22739e-21)
(3.5 5.18205e-16 1.5028e-21)
(3.5 -2.64982e-15 1.25234e-21)
(3.5 -5.05069e-15 8.91464e-22)
(3.5 -6.06569e-15 9.51687e-22)
(3.5 -6.03181e-15 8.51457e-22)
(3.5 -5.33284e-15 1.05494e-21)
(3.5 -4.23765e-15 1.0546e-21)
(3.5 -1.46508e-15 1.55246e-21)
(3.5 -1.47739e-15 1.87705e-21)
(3.5 -3.71928e-16 1.92045e-21)
(3.5 -4.53723e-16 1.81955e-21)
(3.5 1.75664e-13 2.23882e-21)
(3.5 -2.36063e-10 2.12408e-21)
(3.5 2.93665e-07 2.0451e-21)
(3.50416 -0.000321203 2.10212e-21)
(1.10879 0.0865287 2.63494e-21)
(0.853179 0.0860307 1.56626e-21)
(0.834445 0.0864487 4.50166e-20)
(0.823478 0.0890211 1.45888e-20)
(0.812944 0.0938184 5.13481e-20)
(0.803579 0.0973849 3.38612e-20)
(0.793997 0.0969554 3.08591e-20)
(0.784382 0.0947322 2.96601e-20)
(0.776237 0.0940608 2.22457e-20)
(0.766757 0.0923299 2.56295e-20)
(0.757163 0.0913012 2.78973e-21)
(0.749159 0.0906635 3.95898e-20)
(0.740329 0.0897397 -2.15132e-20)
(0.732162 0.0903449 1.23806e-20)
(0.723823 0.091384 -3.80622e-21)
(0.714491 0.0941152 9.67356e-21)
(0.705326 0.0955313 -1.99421e-20)
(0.696887 0.095918 2.20454e-20)
(0.686907 0.0935876 -2.83192e-20)
(0.675605 0.0909867 2.39687e-20)
(0.661812 0.0887986 -7.11742e-20)
(0.646136 0.0883662 4.70401e-20)
(0.629432 0.0894553 -9.70135e-20)
(0.61425 0.0901615 4.4868e-20)
(0.601737 0.0901836 -7.55559e-20)
(0.592124 0.0899401 1.675e-19)
(0.582475 0.0904187 -5.10675e-20)
(0.572115 0.0908216 1.37899e-19)
(0.559576 0.0913704 9.22876e-20)
(0.545431 0.0917446 3.36577e-20)
(0.53174 0.0917503 3.3464e-19)
(0.519385 0.0918186 4.98703e-21)
(0.507917 0.0920878 3.86881e-19)
(0.496491 0.0920593 -7.47615e-20)
(0.484293 0.092267 3.55358e-19)
(0.470709 0.0925474 -1.51395e-19)
(0.45525 0.0929159 2.75795e-19)
(0.437669 0.0940811 8.91495e-20)
(0.419919 0.094991 1.20271e-19)
(0.403918 0.0967467 -7.08516e-20)
(0.388021 0.0975486 2.0426e-19)
(0.371621 0.0986757 -3.3119e-19)
(0.354458 0.100812 3.90116e-19)
(0.336072 0.102779 -4.17117e-19)
(0.316781 0.104459 5.09365e-19)
(0.295799 0.106292 -3.46345e-19)
(0.273872 0.107933 2.5844e-19)
(0.251137 0.109801 -6.25044e-20)
(0.229765 0.112058 1.10324e-19)
(0.210067 0.114685 6.2883e-19)
(0.191191 0.117379 -1.0992e-18)
(0.172017 0.121103 1.75059e-18)
(0.150749 0.124456 -5.38954e-19)
(0.126546 0.129807 -1.85848e-19)
(0.100122 0.134193 2.04959e-18)
(0.0728047 0.142488 -5.04187e-19)
(0.0508092 0.163196 -1.92072e-18)
(0.0279427 0.195029 2.31026e-18)
(0.0330272 0.292308 9.16832e-19)
(3.5 -1.06139e-15 -7.62022e-22)
(3.5 1.25867e-15 -9.19643e-22)
(3.5 3.24213e-15 -8.90929e-22)
(3.5 6.10185e-15 -1.74473e-21)
(3.5 4.82988e-15 -2.86883e-21)
(3.5 4.89145e-16 -3.01523e-21)
(3.5 -4.46185e-16 -1.72593e-21)
(3.5 -1.79402e-16 -2.9777e-21)
(3.5 1.571e-16 -2.45576e-21)
(3.5 -9.93437e-16 -2.85332e-21)
(3.5 1.07358e-15 -2.59434e-21)
(3.5 2.00511e-15 -2.79796e-21)
(3.5 9.35697e-16 -1.4401e-21)
(3.5 -1.6034e-15 7.39008e-22)
(3.5 -1.42052e-15 2.28129e-21)
(3.5 2.24368e-15 2.36121e-21)
(3.5 5.26937e-15 3.61328e-21)
(3.5 4.78316e-15 2.40008e-21)
(3.5 3.70698e-15 3.02522e-21)
(3.5 -1.31151e-16 4.25437e-21)
(3.5 -3.54866e-15 3.30741e-21)
(3.5 -6.78561e-15 2.70961e-21)
(3.5 -1.32915e-14 2.78853e-21)
(3.5 -1.12709e-14 2.95241e-21)
(3.5 -8.8024e-15 4.47911e-21)
(3.5 -5.35365e-15 4.34693e-21)
(3.5 -1.5586e-15 4.45169e-21)
(3.5 -1.52577e-15 4.60011e-21)
(3.5 6.1366e-16 4.62907e-21)
(3.5 5.48608e-15 5.33768e-21)
(3.5 4.20706e-15 4.8736e-21)
(3.5 2.647e-15 4.75289e-21)
(3.5 3.02983e-15 4.51255e-21)
(3.5 2.92119e-15 4.58884e-21)
(3.5 1.23719e-15 4.23145e-21)
(3.5 -1.36274e-15 4.0982e-21)
(3.5 -4.38283e-15 4.11934e-21)
(3.5 -7.21897e-15 3.89593e-21)
(3.5 -6.47957e-15 3.82024e-21)
(3.5 -4.8407e-15 3.90201e-21)
(3.5 -3.58842e-15 3.84805e-21)
(3.5 -3.18909e-15 4.01254e-21)
(3.5 -3.16453e-15 3.83172e-21)
(3.5 -2.23688e-15 3.96297e-21)
(3.5 -1.59164e-15 3.9806e-21)
(3.5 -1.96607e-15 3.70099e-21)
(3.5 -2.68902e-15 3.62407e-21)
(3.5 -3.27448e-15 3.81494e-21)
(3.5 -2.33511e-15 3.06639e-21)
(3.5 -1.64685e-15 3.76338e-21)
(3.5 -1.07899e-15 3.69142e-21)
(3.5 -1.55782e-15 3.88748e-21)
(3.5 4.44282e-16 4.05128e-21)
(3.5 2.1895e-15 3.86809e-21)
(3.5 3.31703e-15 3.82459e-21)
(3.5 2.98165e-15 4.26804e-21)
(3.5 8.46307e-14 3.85289e-21)
(3.5 -1.26597e-10 3.84237e-21)
(3.5 2.0064e-07 3.54368e-21)
(3.50301 -0.000301284 3.63619e-21)
(1.19191 0.127616 3.65959e-21)
(0.887293 0.109584 1.22792e-20)
(0.874911 0.103066 -2.28037e-20)
(0.864687 0.105102 1.101e-20)
(0.853189 0.109873 2.31466e-20)
(0.841833 0.111744 2.44177e-20)
(0.829743 0.109148 1.46495e-20)
(0.81756 0.10734 -1.16733e-20)
(0.808268 0.105921 2.33819e-21)
(0.796581 0.103704 1.38102e-20)
(0.784188 0.102732 4.83738e-21)
(0.772206 0.102324 6.24424e-20)
(0.757566 0.102187 -8.24272e-21)
(0.741051 0.104105 3.12041e-20)
(0.72449 0.108661 6.20801e-21)
(0.710564 0.111225 4.41082e-20)