/*--------------------------------*- C++ -*----------------------------------*\
| =========                 |                                                 |
| \\      /  F ield         | OpenFOAM: The Open Source CFD Toolbox           |
|  \\    /   O peration     | Version:  2.2.x                                 |
|   \\  /    A nd           | Web:      www.OpenFOAM.org                      |
|    \\/     M anipulation  |                                                 |
\*---------------------------------------------------------------------------*/
FoamFile
{
    version     2.0;
    format      ascii;
    class       volScalarField;
    location    "0.08";
    object      p;
}
// * * * * * * * * * * * * * * * * * * * * * * * * * * * * * * * * * * * * * //

dimensions      [1 -1 -2 0 0 0 0];

internalField   nonuniform List<scalar> 
1024
(
1
1
1
1
1
1
1
1
1
1
1
1
1
1
1
1
1
1
1
1
1
1
1
1
1
1
1
1
1
1
1
1
1
1
1
1
1
1
1
1
1
1
1
1
1
1
1
1
1
1
1
1
1
1
1
1
1
1
1
1
1
1
1
1
1
1
1
1
1
1
1
1
1
1
1
1
1
1
1
1
1
1
1
1
1
1
1
1
1
1
1
1
1
1
1
1
1
1
1
1
1
1
1
1
1
1
1
1
1
1
1
1
1
1
1
1
1
1
1
1
1
1
1
1
1
1
1
1
1
1
1
1
1
1
1
1
1
1
1
1
1
1
1
1
1
1
1
1
1
1
1
1
1
1
1
1
1
1
1
1
1
1
1
1
1
1
1
1
1
1
1
1
1
1
1
1
1
1
1
1
1
1
1
1
1
1
1
1
1
1
1
1
1
1
1
1
1
1
1
1
1
1
1
1
1
1
1
1
1
1
1
1
1
1
1
1
1
1
1
1
1
1
1
1
1
1
1
1
1
1
1
1
1
1
1
1
1
1
1
1
1
1
1
1
1
1
1
1
1
1
1
1
1
1
1
1
1
1
1
1
1
1
1
1
1
1
1
1
1
1
1
1
1
1
1
1
1
1
1
1
1
1
1
1
1
1
1
1
1
1
1
1
1
1
1
1
1
1
1
1
1
1
1
1
1
1
1
1
1
1
1
1
1
1
1
1
1.00001
1.00002
1.00006
1.0002
1.00061
1.00189
1.00582
1.01782
1.05347
1.15181
1.32984
1.45975
1.52726
1.55891
1.57289
1.57904
1.58171
1.5828
1.58325
1.58338
1.58352
1.58357
1.58363
1.58373
1.58388
1.58409
1.58429
1.58447
1.58462
1.58471
1.58477
1.5848
1.58479
1.58478
1.58476
1.58474
1.58469
1.58461
1.58454
1.58449
1.58445
1.58442
1.58439
1.58436
1.58433
1.58431
1.5843
1.58429
1.58429
1.58429
1.58432
1.58437
1.58443
1.58451
1.58456
1.58459
1.5846
1.58461
1.5846
1.5846
1.58459
1.58456
1.58452
1.58448
1.58444
1.58443
1.58442
1.58442
1.58441
1.58439
1.58439
1.58439
1.5844
1.58442
1.58443
1.58445
1.58447
1.58449
1.58451
1.58453
1.58454
1.58453
1.58452
1.58449
1.58446
1.58443
1.58438
1.58432
1.58426
1.58422
1.58421
1.58421
1.58422
1.58425
1.5843
1.58438
1.58446
1.58453
1.58458
1.58462
1.58465
1.58467
1.5847
1.58473
1.58475
1.5848
1.58486
1.58499
1.58521
1.58568
1.58648
1.58756
1.5887
1.58965
1.59138
1.5946
1.5991
1.60723
1.619
1.64045
1.67952
1.75098
1.81718
1.86163
1.89132
1.90833
1.92003
1.92641
1.92822
1.93026
1.9312
1.93135
1.93151
1.93177
1.93209
1.93239
1.93246
1.93251
1.93221
1.93177
1.93138
1.93125
1.93135
1.93181
1.93247
1.93282
1.93281
1.93236
1.93208
1.93221
1.93246
1.93249
1.93242
1.93248
1.93264
1.93267
1.93254
1.93222
1.93197
1.93204
1.93234
1.93261
1.93257
1.93231
1.93159
1.93192
1.93336
1.93511
1.93525
1.93105
1.9232
1.91878
1.91838
1.90252
1.84316
1.78633
1.72246
1.68022
1.6561
1.6384
1.63394
1.65784
1.68139
1.68897
1.63815
1.6505
1.65958
1.65874
1.65541
1.65782
1.65439
1.6564
1.65554
1.6565
1.65626
1.65654
1.65629
1.65639
1.65628
1.6564
1.65649
1.65662
1.65651
1.65657
1.65634
1.65611
1.65585
1.65576
1.65575
1.65573
1.65581
1.65587
1.65595
1.65604
1.65609
1.6562
1.65627
1.65631
1.65626
1.65627
1.65618
1.65609
1.656
1.65597
1.65596
1.65597
1.65597
1.656
1.65602
1.65605
1.65606
1.65607
1.65606
1.65606
1.65605
1.65603
1.65602
1.65602
1.65601
1.65602
1.656
1.65601
1.65597
1.65597
1.6559
1.65591
1.65582
1.65575
1.65565
1.6556
1.65558
1.65558
1.65558
1.6556
1.65563
1.65566
1.65568
1.65569
1.65569
1.65565
1.65567
1.65561
1.65577
1.65551
1.6562
1.65516
1.65645
1.65179
1.66319
1.64227
1.66708
1.6042
1.70569
1.45071
1.38727
1.05517
0.965405
0.951788
0.950216
0.950025
0.950003
0.95
0.95
0.95
0.95
0.95
0.95
0.95
0.95
0.95
0.95
0.95
0.95
0.95
0.95
0.95
0.95
0.95
0.95
0.95
0.95
0.95
0.95
0.95
0.95
0.95
0.95
0.95
0.95
0.95
0.95
0.95
0.95
0.95
0.95
0.95
0.95
0.95
0.95
0.95
0.95
0.95
0.95
0.95
0.95
0.95
0.95
0.95
0.95
0.95
0.95
0.95
0.95
0.95
0.95
0.95
0.95
0.95
0.95
0.95
0.95
0.95
0.95
0.95
0.95
0.95
0.95
0.95
0.95
0.95
0.95
0.95
0.95
0.95
0.95
0.95
0.95
0.95
0.95
0.95
0.95
0.95
0.95
0.95
0.95
0.95
0.95
0.95
0.95
0.95
0.95
0.95
0.95
0.95
0.95
0.95
0.95
0.95
0.95
0.95
0.95
0.95
0.95
0.95
0.95
0.95
0.95
0.95
0.95
0.95
0.95
0.95
0.95
0.95
0.95
0.95
0.95
0.95
0.95
0.95
0.95
0.95
0.95
0.95
0.95
0.95
0.95
0.95
0.95
0.95
0.95
0.95
0.95
0.95
0.95
0.95
0.95
0.95
0.95
0.95
0.95
0.95
0.95
0.95
0.95
0.95
0.95
0.95
0.95
0.95
0.95
0.95
0.95
0.95
0.95
0.95
0.95
0.95
0.95
0.95
0.95
0.95
0.95
0.95
0.95
0.95
0.95
0.95
0.95
0.95
0.95
0.95
0.95
0.95
0.95
0.95
0.95
0.95
0.95
0.95
0.95
0.95
0.95
0.95
0.95
0.95
0.95
0.95
0.95
0.95
0.95
0.95
0.95
0.95
0.95
0.95
0.95
0.95
0.95
0.95
0.95
0.95
0.95
0.95
0.95
0.95
0.95
0.95
0.95
0.95
0.95
0.95
0.95
0.95
0.95
0.95
0.95
0.95
0.95
0.95
0.95
0.95
0.95
0.95
0.95
0.95
0.95
0.95
0.95
0.95
0.95
0.95
0.95
0.95
0.95
0.95
0.95
0.95
0.95
0.95
0.95
0.95
0.95
0.95
0.95
0.95
0.95
0.95
0.95
0.95
0.95
0.95
0.95
0.95
0.95
0.95
0.95
0.95
0.95
0.95
0.95
0.95
0.95
0.95
0.95
0.95
0.95
0.95
0.95
0.95
0.95
0.95
0.95
0.95
0.95
0.95
0.95
0.95
0.95
0.95
0.95
0.95
0.95
0.95
0.95
0.95
0.95
0.95
0.95
0.95
0.95
0.95
0.95
0.95
0.95
0.95
0.95
0.95
0.95
0.95
0.95
0.95
0.95
0.95
0.95
0.95
0.95
0.95
0.95
0.95
0.95
0.95
0.95
0.95
0.95
0.95
0.95
0.95
0.95
0.95
0.95
0.95
0.95
0.95
0.95
0.95
0.95
0.95
0.95
0.95
0.95
0.95
0.95
0.95
0.95
0.95
0.95
0.95
0.95
0.95
0.95
0.95
0.95
0.95
0.95
0.95
0.95
0.95
0.95
0.95
0.95
0.95
0.95
0.95
0.95
0.95
0.95
0.95
0.95
0.95
0.95
0.95
0.95
0.95
0.95
0.95
0.95
0.95
0.95
0.95
0.95
0.95
0.95
0.95
0.95
0.95
0.95
0.95
0.95
0.95
0.95
0.95
0.95
0.95
0.95
0.95
0.95
0.95
0.95
0.95
0.95
0.95
0.95
0.95
0.95
0.95
0.95
0.95
0.95
0.95
0.95
0.95
0.95
0.95
0.95
0.95
0.95
0.95
0.95
0.95
0.95
0.95
0.95
0.95
0.95
0.95
0.95
0.95
0.95
0.95
0.95
0.95
0.95
0.95
0.95
0.95
0.95
0.95
)
;

boundaryField
{
    front-back
    {
        type            empty;
    }
    inlet-outlet
    {
        type            zeroGradient;
    }
    top-down
    {
        type            empty;
    }
}


// ************************************************************************* //
