/*--------------------------------*- C++ -*----------------------------------*\
| =========                 |                                                 |
| \\      /  F ield         | OpenFOAM: The Open Source CFD Toolbox           |
|  \\    /   O peration     | Version:  2.2.x                                 |
|   \\  /    A nd           | Web:      www.OpenFOAM.org                      |
|    \\/     M anipulation  |                                                 |
\*---------------------------------------------------------------------------*/
FoamFile
{
    version     2.0;
    format      ascii;
    class       volScalarField;
    location    "0.45";
    object      Bx;
}
// * * * * * * * * * * * * * * * * * * * * * * * * * * * * * * * * * * * * * //

dimensions      [1 0 -2 0 0 -1 0];

internalField   nonuniform List<scalar> 
14161
(
1
1
1
1
1
1.00001
1.00001
1.00001
1.00002
1.00003
1.00004
1.00006
1.00009
1.00012
1.00016
1.00022
1.00028
1.00037
1.00046
1.00058
1.00072
1.00088
1.00106
1.00125
1.00147
1.00171
1.00196
1.00222
1.00249
1.00276
1.00305
1.00332
1.0036
1.00386
1.00411
1.00434
1.00456
1.00475
1.00491
1.00505
1.00516
1.00525
1.00532
1.00536
1.0054
1.00544
1.00547
1.00551
1.00554
1.00553
1.00547
1.00536
1.0053
1.00528
1.00525
1.00486
1.00425
1.00234
1.00172
0.987982
1.01074
1.07391
1.11533
1.14132
1.15897
1.17134
1.183
1.19414
1.20382
1.21209
1.21941
1.22578
1.2307
1.23434
1.2377
1.2403
1.24262
1.2445
1.24973
1.25788
1.26814
1.27498
1.28289
1.28875
1.29608
1.27691
1.18044
1.04672
0.924747
0.842088
0.789816
0.753142
0.725916
0.70286
0.682295
0.662668
0.642841
0.622769
0.602455
0.581765
0.560489
0.537899
0.513784
0.488144
0.460823
0.432461
0.404019
0.375629
0.347189
0.318784
0.289984
0.260468
0.228829
0.195261
0.158474
0.122241
0.0823848
0.0549949
0.0164707
1
1
1
1
1
1.00001
1.00001
1.00001
1.00002
1.00003
1.00004
1.00006
1.00009
1.00012
1.00016
1.00022
1.00028
1.00036
1.00046
1.00058
1.00072
1.00088
1.00106
1.00126
1.00147
1.00171
1.00196
1.00222
1.00249
1.00277
1.00305
1.00332
1.0036
1.00386
1.00411
1.00434
1.00456
1.00476
1.00493
1.00507
1.00519
1.00527
1.00534
1.00538
1.00542
1.00545
1.00547
1.00549
1.00551
1.00549
1.00542
1.00537
1.00533
1.00534
1.00527
1.00526
1.00517
1.00634
1.00471
1.02606
1.06823
1.09729
1.10651
1.1222
1.13762
1.15196
1.16557
1.17868
1.19051
1.201
1.20997
1.21761
1.2243
1.22962
1.23386
1.2378
1.24148
1.24613
1.24945
1.2565
1.26459
1.27183
1.2805
1.28594
1.28758
1.27438
1.19098
1.06633
0.964734
0.881207
0.821451
0.777318
0.74263
0.713933
0.689023
0.666191
0.644272
0.622373
0.600462
0.578209
0.555109
0.530922
0.505265
0.478209
0.449552
0.419524
0.387733
0.355654
0.325077
0.295309
0.265037
0.233558
0.199867
0.165089
0.130001
0.0993686
0.0683298
0.048374
0.0152958
1
1
1
1
1
1.00001
1.00001
1.00001
1.00002
1.00003
1.00004
1.00006
1.00009
1.00012
1.00016
1.00022
1.00028
1.00036
1.00046
1.00058
1.00072
1.00088
1.00106
1.00125
1.00147
1.00171
1.00196
1.00222
1.00249
1.00277
1.00305
1.00333
1.00361
1.00387
1.00412
1.00436
1.00458
1.00478
1.00495
1.0051
1.00522
1.00532
1.00539
1.00545
1.00548
1.0055
1.00551
1.00551
1.0055
1.00545
1.00537
1.00526
1.00509
1.00489
1.00484
1.00548
1.00655
1.01038
1.00943
1.04493
1.10167
1.10601
1.10914
1.12023
1.13358
1.14905
1.1649
1.17924
1.19191
1.20269
1.21123
1.21911
1.22568
1.2313
1.23599
1.24083
1.24599
1.25222
1.25583
1.26314
1.27117
1.28008
1.28925
1.29273
1.27568
1.21671
1.13181
1.02821
0.946014
0.871643
0.807893
0.762718
0.725897
0.695319
0.668732
0.644116
0.620988
0.597893
0.574709
0.551037
0.526557
0.500715
0.473685
0.445925
0.417279
0.388211
0.358213
0.327504
0.295828
0.264195
0.233644
0.20359
0.173269
0.143701
0.113698
0.0877945
0.0609655
0.0415519
0.00903193
1
1
1
1
1
1.00001
1.00001
1.00001
1.00002
1.00003
1.00004
1.00006
1.00009
1.00012
1.00016
1.00022
1.00028
1.00036
1.00046
1.00058
1.00072
1.00088
1.00106
1.00125
1.00147
1.00171
1.00196
1.00222
1.0025
1.00278
1.00306
1.00334
1.00362
1.00389
1.00415
1.00439
1.00461
1.00482
1.005
1.00515
1.00528
1.00539
1.00547
1.00553
1.00556
1.00558
1.00558
1.00553
1.00546
1.00539
1.00526
1.00508
1.00488
1.00456
1.00425
1.00404
1.00397
1.00512
1.00312
1.0106
1.04658
1.06706
1.08539
1.10628
1.12559
1.14611
1.16632
1.18301
1.19859
1.20994
1.2197
1.22802
1.2339
1.23967
1.24487
1.25027
1.2555
1.26304
1.2673
1.2759
1.28547
1.29933
1.30495
1.30893
1.2725
1.19415
1.12381
1.03698
0.958568
0.880127
0.807673
0.755837
0.71509
0.681602
0.651505
0.623326
0.596331
0.570072
0.544301
0.518707
0.492436
0.465352
0.437357
0.409125
0.380639
0.352059
0.323507
0.295414
0.266586
0.237654
0.209123
0.181648
0.155603
0.131668
0.10706
0.0844471
0.0593603
0.0397545
0.00744766
1
1
1
1
1
1.00001
1.00001
1.00001
1.00002
1.00003
1.00004
1.00006
1.00009
1.00012
1.00016
1.00022
1.00028
1.00036
1.00046
1.00058
1.00072
1.00087
1.00105
1.00125
1.00147
1.00171
1.00196
1.00223
1.0025
1.00278
1.00307
1.00335
1.00364
1.00391
1.00418
1.00443
1.00465
1.00486
1.00506
1.00523
1.00538
1.0055
1.0056
1.00567
1.00571
1.00573
1.00573
1.00566
1.00556
1.00534
1.00511
1.00489
1.00466
1.00431
1.00358
1.00222
1.00079
0.998161
0.997008
0.984651
0.990451
1.02336
1.05544
1.09593
1.12559
1.15573
1.17873
1.19904
1.2153
1.2246
1.2364
1.24296
1.24856
1.25442
1.2595
1.26497
1.2704
1.27845
1.28405
1.2918
1.30534
1.32004
1.32409
1.31142
1.25557
1.17849
1.12789
1.05877
0.995316
0.910011
0.834314
0.775122
0.726758
0.685607
0.647619
0.611263
0.577635
0.547385
0.518943
0.490992
0.463207
0.435678
0.408478
0.38171
0.354996
0.328312
0.301345
0.274512
0.247395
0.220442
0.194003
0.169133
0.146299
0.125942
0.104875
0.0846794
0.0610558
0.0423819
0.0111673
1
1
1
1
1
1.00001
1.00001
1.00001
1.00002
1.00003
1.00004
1.00006
1.00009
1.00012
1.00016
1.00021
1.00028
1.00036
1.00046
1.00058
1.00072
1.00087
1.00105
1.00125
1.00147
1.00171
1.00196
1.00223
1.00251
1.00279
1.00308
1.00337
1.00366
1.00394
1.00421
1.00448
1.00471
1.00493
1.00514
1.00534
1.0055
1.00565
1.00576
1.00585
1.00591
1.00593
1.00594
1.00586
1.00574
1.00563
1.00548
1.00528
1.00483
1.00394
1.00269
1.00058
0.997555
0.993086
0.991119
0.969927
0.951805
0.988802
1.02608
1.07134
1.11521
1.15506
1.18185
1.20691
1.21965
1.23573
1.24945
1.26042
1.26503
1.27244
1.27934
1.28609
1.29142
1.30111
1.30864
1.31557
1.32972
1.3322
1.33941
1.30554
1.23859
1.16936
1.13493
1.08083
1.02885
0.952692
0.885605
0.808333
0.749254
0.697961
0.652978
0.612716
0.576207
0.541883
0.509444
0.478242
0.447671
0.418232
0.390173
0.363263
0.337446
0.312279
0.28718
0.262132
0.236525
0.211036
0.186049
0.162774
0.141631
0.122956
0.103852
0.085237
0.0624502
0.0453896
0.0162178
1
1
1
1
1
1.00001
1.00001
1.00001
1.00002
1.00003
1.00004
1.00006
1.00009
1.00012
1.00016
1.00021
1.00028
1.00036
1.00046
1.00058
1.00071
1.00087
1.00105
1.00125
1.00147
1.00171
1.00196
1.00223
1.00251
1.0028
1.0031
1.0034
1.00369
1.00398
1.00426
1.00453
1.00479
1.00503
1.00525
1.00547
1.00566
1.00583
1.00598
1.0061
1.00618
1.00624
1.00629
1.00629
1.00624
1.00613
1.00587
1.00536
1.00447
1.00345
1.00217
1.00058
0.998858
0.995591
0.992252
0.968111
0.936659
0.989474
1.0451
1.0913
1.14466
1.18217
1.21355
1.2362
1.25102
1.26479
1.27494
1.28525
1.28975
1.29498
1.30009
1.30597
1.31058
1.31964
1.32498
1.33128
1.33917
1.33901
1.33693
1.27835
1.21203
1.16496
1.13745
1.0943
1.04909
0.988915
0.925685
0.841957
0.771511
0.713104
0.662786
0.618611
0.578329
0.54124
0.506726
0.473447
0.441305
0.410735
0.382062
0.355112
0.329535
0.304896
0.280572
0.256427
0.231922
0.207662
0.183782
0.161431
0.140741
0.1222
0.103554
0.0856653
0.0633892
0.0479645
0.0209487
1
1
1
1
1
1.00001
1.00001
1.00001
1.00002
1.00003
1.00004
1.00006
1.00009
1.00012
1.00016
1.00021
1.00028
1.00036
1.00046
1.00058
1.00071
1.00087
1.00105
1.00125
1.00147
1.00171
1.00197
1.00224
1.00252
1.00282
1.00312
1.00342
1.00373
1.00403
1.00432
1.00461
1.00488
1.00515
1.00539
1.00562
1.00585
1.00605
1.00623
1.0064
1.00653
1.00664
1.00676
1.00685
1.00692
1.00695
1.00688
1.0067
1.00652
1.00621
1.00565
1.00487
1.00343
1.00184
0.997995
0.986689
0.982686
1.04895
1.10867
1.1482
1.1948
1.22192
1.25362
1.26997
1.2905
1.30127
1.30082
1.31536
1.31838
1.31957
1.32613
1.32856
1.32946
1.33264
1.33391
1.33338
1.33332
1.33453
1.29001
1.22465
1.16907
1.12692
1.10362
1.07009
1.03293
0.994908
0.93497
0.866623
0.795039
0.734629
0.680519
0.631755
0.587555
0.546946
0.509515
0.474232
0.441136
0.40995
0.380731
0.353092
0.326873
0.301614
0.277019
0.253075
0.229546
0.206748
0.184154
0.162657
0.142208
0.123383
0.10464
0.0873165
0.0655521
0.0517596
0.0270175
1
1
1
1
1
1.00001
1.00001
1.00001
1.00002
1.00003
1.00004
1.00006
1.00009
1.00012
1.00016
1.00021
1.00028
1.00036
1.00046
1.00057
1.00071
1.00087
1.00105
1.00125
1.00147
1.00171
1.00197
1.00224
1.00253
1.00283
1.00314
1.00345
1.00377
1.00408
1.00439
1.00469
1.00499
1.00528
1.00556
1.00582
1.00607
1.00631
1.00655
1.00676
1.00695
1.00715
1.00737
1.00759
1.00782
1.00805
1.00828
1.00847
1.00873
1.00906
1.00932
1.00985
1.01052
1.01276
1.01487
1.02527
1.08205
1.17233
1.20933
1.23675
1.26797
1.28759
1.30984
1.32312
1.33135
1.34128
1.34145
1.34294
1.3448
1.34205
1.34164
1.34158
1.33878
1.33641
1.33298
1.32227
1.30202
1.25131
1.16966
1.08595
1.05832
1.04065
1.02022
1.00294
0.978017
0.955482
0.908665
0.861252
0.795159
0.73656
0.682716
0.633827
0.588556
0.546054
0.506279
0.468989
0.434651
0.402867
0.373478
0.345642
0.319308
0.294339
0.270745
0.248189
0.226274
0.20516
0.184032
0.163515
0.143477
0.124639
0.105849
0.0892752
0.0685032
0.0564278
0.0336943
1
1
1
1
1
1.00001
1.00001
1.00001
1.00002
1.00003
1.00004
1.00006
1.00009
1.00012
1.00016
1.00021
1.00028
1.00036
1.00045
1.00057
1.00071
1.00086
1.00104
1.00124
1.00147
1.00171
1.00197
1.00225
1.00254
1.00285
1.00316
1.00349
1.00381
1.00414
1.00447
1.0048
1.00511
1.00543
1.00574
1.00603
1.00632
1.0066
1.00688
1.00715
1.00741
1.00768
1.00801
1.00835
1.00875
1.00918
1.0097
1.01034
1.01118
1.01219
1.01335
1.0148
1.0166
1.02057
1.02242
1.06355
1.21016
1.26931
1.28392
1.31465
1.33367
1.3469
1.35924
1.36859
1.3617
1.36487
1.36656
1.35918
1.35798
1.35347
1.34749
1.34378
1.33354
1.31768
1.29152
1.23715
1.15736
1.04352
0.943187
0.900975
0.883818
0.888168
0.886126
0.882188
0.875607
0.867542
0.841207
0.810103
0.762172
0.711192
0.662358
0.61738
0.575283
0.535001
0.496852
0.46097
0.427815
0.396586
0.367615
0.339972
0.314051
0.289637
0.266807
0.245163
0.224393
0.204477
0.184459
0.164847
0.145271
0.126486
0.107712
0.0920943
0.072475
0.0617815
0.0407945
1
1
1
1
1
1.00001
1.00001
1.00001
1.00002
1.00003
1.00004
1.00006
1.00008
1.00012
1.00016
1.00021
1.00027
1.00035
1.00045
1.00057
1.0007
1.00086
1.00104
1.00124
1.00146
1.00171
1.00197
1.00226
1.00255
1.00287
1.00319
1.00352
1.00387
1.00421
1.00456
1.00491
1.00525
1.00559
1.00593
1.00626
1.00658
1.00691
1.00723
1.00756
1.00787
1.00822
1.00864
1.00909
1.00961
1.01018
1.0108
1.01155
1.01254
1.01395
1.01565
1.01776
1.02033
1.02381
1.03653
1.06719
1.18077
1.25386
1.30159
1.34092
1.35582
1.3657
1.37865
1.37824
1.37861
1.37321
1.37319
1.36234
1.3577
1.34699
1.32684
1.30423
1.26398
1.195
1.11372
0.998824
0.860085
0.773963
0.709126
0.695742
0.688333
0.700994
0.714467
0.728786
0.740617
0.743489
0.740116
0.72342
0.694969
0.659242
0.620912
0.583761
0.547803
0.513641
0.481817
0.450203
0.419224
0.388821
0.360456
0.333028
0.307542
0.283606
0.261566
0.240864
0.221297
0.202584
0.183753
0.165268
0.146476
0.128174
0.109604
0.0949316
0.0765453
0.0669813
0.0475714
1
1
1
1
1
1.00001
1.00001
1.00001
1.00002
1.00003
1.00004
1.00006
1.00008
1.00012
1.00016
1.00021
1.00027
1.00035
1.00045
1.00056
1.0007
1.00086
1.00103
1.00124
1.00146
1.00171
1.00197
1.00226
1.00256
1.00289
1.00322
1.00356
1.00392
1.00428
1.00465
1.00502
1.00539
1.00576
1.00613
1.0065
1.00686
1.00721
1.00757
1.00792
1.00828
1.00868
1.00915
1.00967
1.01029
1.01096
1.01169
1.01251
1.01357
1.01458
1.0157
1.01618
1.01874
1.01294
1.04637
1.0935
1.12075
1.15299
1.19969
1.27211
1.31147
1.34782
1.36404
1.37005
1.37431
1.36937
1.35307
1.33148
1.31196
1.2757
1.21452
1.13697
1.04332
0.918035
0.806407
0.718526
0.650129
0.602089
0.568428
0.551164
0.548205
0.559358
0.576233
0.596693
0.617383
0.629696
0.637635
0.632739
0.618624
0.597754
0.571815
0.544416
0.516326
0.488747
0.461785
0.434267
0.407158
0.380158
0.354173
0.327872
0.303001
0.279387
0.257722
0.237498
0.21867
0.200773
0.183084
0.165835
0.14796
0.130446
0.11227
0.0982791
0.0809329
0.072139
0.0541017
1
1
1
1
1
1.00001
1.00001
1.00001
1.00002
1.00003
1.00004
1.00006
1.00008
1.00011
1.00015
1.0002
1.00027
1.00035
1.00044
1.00056
1.00069
1.00085
1.00103
1.00123
1.00145
1.0017
1.00197
1.00226
1.00257
1.0029
1.00325
1.0036
1.00397
1.00435
1.00474
1.00513
1.00553
1.00593
1.00633
1.00672
1.00712
1.00751
1.00789
1.00826
1.00865
1.00908
1.00956
1.01008
1.01065
1.01126
1.01194
1.01258
1.01336
1.01391
1.01468
1.01433
1.01686
1.00431
1.04027
1.10286
1.10285
1.11971
1.14878
1.21017
1.27131
1.32455
1.32407
1.3421
1.33212
1.31652
1.28334
1.22129
1.15029
1.06735
0.955013
0.846805
0.760472
0.69316
0.626617
0.57824
0.535793
0.51257
0.491652
0.48175
0.476743
0.481835
0.494732
0.513736
0.534729
0.551237
0.561349
0.564526
0.55823
0.54485
0.527324
0.50718
0.484474
0.461796
0.43838
0.414441
0.391643
0.368621
0.345808
0.321506
0.298157
0.275178
0.25419
0.234354
0.216106
0.198814
0.182144
0.16601
0.149111
0.132633
0.115101
0.101635
0.085114
0.0768637
0.0600807
1
1
1
1
1
1.00001
1.00001
1.00001
1.00002
1.00003
1.00004
1.00006
1.00008
1.00011
1.00015
1.0002
1.00027
1.00034
1.00044
1.00055
1.00069
1.00084
1.00102
1.00122
1.00145
1.0017
1.00197
1.00226
1.00258
1.00292
1.00327
1.00364
1.00402
1.00442
1.00482
1.00524
1.00566
1.00609
1.00652
1.00694
1.00736
1.00777
1.00818
1.00859
1.00901
1.00945
1.00994
1.01047
1.01105
1.01164
1.01223
1.0128
1.01342
1.01402
1.01472
1.01514
1.01666
1.01505
1.03809
1.08418
1.08595
1.0965
1.11532
1.14204
1.20086
1.25103
1.27527
1.26351
1.22901
1.15513
1.07779
0.97107
0.871027
0.792483
0.731521
0.674528
0.623521
0.581705
0.541491
0.512965
0.487837
0.471583
0.459493
0.451401
0.447544
0.447008
0.453214
0.465861
0.483135
0.498803
0.508968
0.51368
0.511554
0.502535
0.489595
0.474716
0.456738
0.437911
0.41714
0.395741
0.37601
0.35615
0.336177
0.314483
0.29353
0.271856
0.251622
0.232406
0.214634
0.197875
0.181963
0.166615
0.150648
0.135229
0.118451
0.105523
0.0898032
0.0819072
0.0662237
1
1
1
1
1
1.00001
1.00001
1.00001
1.00002
1.00003
1.00004
1.00006
1.00008
1.00011
1.00015
1.0002
1.00026
1.00034
1.00043
1.00055
1.00068
1.00083
1.00101
1.00121
1.00144
1.00169
1.00196
1.00226
1.00258
1.00293
1.00329
1.00367
1.00407
1.00448
1.00491
1.00534
1.00579
1.00623
1.00669
1.00714
1.00758
1.00802
1.00846
1.0089
1.00933
1.00978
1.01027
1.0108
1.01137
1.01197
1.01257
1.0132
1.01391
1.01485
1.01565
1.01749
1.01597
1.03608
1.0669
1.07744
1.07943
1.08932
1.10047
1.12022
1.14592
1.16161
1.17861
1.11183
1.00959
0.917159
0.840301
0.782152
0.72198
0.673483
0.628526
0.594335
0.565071
0.540839
0.513072
0.491226
0.472465
0.459831
0.451718
0.446212
0.443831
0.441737
0.441485
0.444169
0.452843
0.464303
0.473913
0.478339
0.477052
0.469709
0.459287
0.44648
0.431983
0.415991
0.397684
0.37898
0.361568
0.343925
0.325795
0.306715
0.288138
0.268345
0.249563
0.230769
0.213519
0.197239
0.181885
0.167154
0.152084
0.137762
0.12197
0.109796
0.0949667
0.0873246
0.0726284
1
1
1
1
1
1.00001
1.00001
1.00001
1.00002
1.00003
1.00004
1.00006
1.00008
1.00011
1.00015
1.0002
1.00026
1.00033
1.00043
1.00054
1.00067
1.00082
1.001
1.0012
1.00143
1.00168
1.00195
1.00225
1.00258
1.00293
1.0033
1.00369
1.0041
1.00453
1.00497
1.00543
1.00589
1.00636
1.00684
1.00731
1.00779
1.00825
1.00871
1.00916
1.0096
1.01007
1.01058
1.01109
1.0116
1.0121
1.0125
1.01291
1.01318
1.01365
1.01322
1.01547
1.00945
1.03428
1.08594
1.08072
1.07839
1.0771
1.07528
1.07761
1.0671
1.05287
0.988294
0.896612
0.838504
0.779951
0.733899
0.69317
0.658518
0.628833
0.601335
0.575527
0.552203
0.533785
0.515379
0.498636
0.482507
0.469427
0.460419
0.453128
0.449493
0.445106
0.442208
0.4415
0.441017
0.444429
0.449659
0.452942
0.452913
0.446862
0.437227
0.424572
0.41165
0.397222
0.380837
0.364418
0.348843
0.332731
0.316158
0.29923
0.2828
0.264998
0.247711
0.229681
0.213126
0.197348
0.182549
0.168428
0.154209
0.140983
0.126224
0.114934
0.101159
0.09374
0.080113
1
1
1
1
1
1.00001
1.00001
1.00001
1.00002
1.00003
1.00004
1.00006
1.00008
1.00011
1.00014
1.00019
1.00025
1.00033
1.00042
1.00053
1.00066
1.00081
1.00098
1.00118
1.00141
1.00166
1.00194
1.00224
1.00257
1.00293
1.00331
1.0037
1.00412
1.00457
1.00502
1.00549
1.00598
1.00647
1.00697
1.00746
1.00796
1.00845
1.00893
1.00939
1.00983
1.0103
1.0108
1.01132
1.01184
1.01238
1.01291
1.01346
1.01388
1.01435
1.01441
1.01566
1.00918
1.02788
1.08124
1.07538
1.07527
1.07149
1.06554
1.04926
1.00488
0.918185
0.833955
0.784497
0.744054
0.711908
0.682645
0.657888
0.637285
0.619064
0.601011
0.583911
0.565233
0.548641
0.532221
0.517627
0.503199
0.48937
0.478244
0.468224
0.460843
0.4536
0.448129
0.444047
0.44125
0.438633
0.437355
0.435823
0.435408
0.429878
0.421376
0.409484
0.397232
0.382988
0.367459
0.352441
0.337956
0.3229
0.307756
0.29262
0.277926
0.261888
0.246105
0.229144
0.213346
0.19812
0.183815
0.1702
0.15674
0.144564
0.130926
0.120588
0.108153
0.101112
0.0886198
1
1
1
1
1
1.00001
1.00001
1.00001
1.00002
1.00003
1.00004
1.00005
1.00008
1.0001
1.00014
1.00019
1.00025
1.00032
1.00041
1.00052
1.00064
1.00079
1.00097
1.00117
1.00139
1.00164
1.00192
1.00222
1.00255
1.00291
1.0033
1.00371
1.00414
1.00458
1.00506
1.00554
1.00604
1.00655
1.00707
1.00759
1.00811
1.00862
1.00913
1.0096
1.01006
1.01052
1.01103
1.01156
1.01212
1.01271
1.01334
1.01405
1.01485
1.01572
1.01721
1.01854
1.02884
1.04247
1.06449
1.06249
1.06522
1.05863
1.04804
0.998942
0.91411
0.816213
0.7629
0.723902
0.700361
0.680198
0.66485
0.647595
0.635599
0.622401
0.611229
0.598756
0.584642
0.571053
0.55639
0.542162
0.528515
0.514041
0.500525
0.488173
0.477214
0.467237
0.458207
0.451227
0.444621
0.438732
0.434043
0.429345
0.424714
0.417588
0.409629
0.398785
0.386984
0.372391
0.357766
0.343471
0.329555
0.315174
0.301178
0.287408
0.273897
0.259338
0.244946
0.229287
0.214428
0.199747
0.186003
0.172977
0.160336
0.149269
0.136912
0.127505
0.116506
0.109842
0.0985245
1
1
1
1
1
1.00001
1.00001
1.00001
1.00002
1.00003
1.00004
1.00005
1.00007
1.0001
1.00014
1.00018
1.00024
1.00031
1.0004
1.0005
1.00063
1.00078
1.00095
1.00114
1.00136
1.00161
1.00189
1.00219
1.00252
1.00289
1.00327
1.00369
1.00413
1.0046
1.00507
1.00556
1.00608
1.00661
1.00714
1.00768
1.00822
1.00876
1.00928
1.00978
1.01026
1.01074
1.01128
1.01184
1.01247
1.01304
1.01357
1.01384
1.01412
1.0134
1.01431
1.00792
1.0285
1.07166
1.06464
1.06144
1.06153
1.04656
1.01841
0.934705
0.835878
0.766613
0.727794
0.701136
0.68449
0.670572
0.65971
0.647538
0.638189
0.627941
0.620235
0.61151
0.601773
0.590904
0.579181
0.566316
0.5535
0.539807
0.526046
0.512486
0.498996
0.486692
0.473985
0.463404
0.452612
0.443887
0.435736
0.427796
0.419365
0.410667
0.401553
0.390876
0.379455
0.365406
0.351527
0.337729
0.324014
0.310101
0.296847
0.283922
0.271226
0.257823
0.244657
0.230238
0.216685
0.202771
0.189785
0.177399
0.165578
0.155454
0.14425
0.135508
0.125942
0.119685
0.109612
1
1
1
1
1
1.00001
1.00001
1.00001
1.00002
1.00003
1.00004
1.00005
1.00007
1.0001
1.00013
1.00018
1.00023
1.0003
1.00039
1.00049
1.00061
1.00076
1.00092
1.00111
1.00133
1.00158
1.00185
1.00215
1.00249
1.00285
1.00324
1.00365
1.0041
1.00457
1.00506
1.00558
1.00611
1.00664
1.00718
1.00774
1.0083
1.00886
1.00939
1.0099
1.01039
1.01089
1.01143
1.01196
1.01253
1.01302
1.01358
1.01392
1.0144
1.01407
1.01493
1.00618
1.02488
1.07187
1.06484
1.06311
1.05236
1.03031
0.955457
0.858193
0.786627
0.740229
0.714604
0.69387
0.68117
0.669412
0.661671
0.651866
0.644133
0.635365
0.629055
0.621849
0.615161
0.606494
0.597234
0.586617
0.575364
0.56289
0.550122
0.536273
0.522665
0.508408
0.494178
0.480113
0.465584
0.452697
0.440828
0.430286
0.419438
0.408672
0.398164
0.386825
0.375186
0.361491
0.348353
0.335103
0.321526
0.307825
0.294999
0.282576
0.27037
0.257882
0.245624
0.232445
0.220132
0.207069
0.194814
0.182949
0.171744
0.162252
0.152263
0.144208
0.136443
0.130776
0.122182
1
1
1
1
1
1.00001
1.00001
1.00001
1.00002
1.00002
1.00004
1.00005
1.00007
1.0001
1.00013
1.00017
1.00023
1.00029
1.00038
1.00048
1.00059
1.00073
1.0009
1.00108
1.0013
1.00153
1.00181
1.0021
1.00243
1.00279
1.00318
1.0036
1.00404
1.00451
1.00501
1.00553
1.00606
1.00663
1.0072
1.00777
1.00835
1.00892
1.00949
1.01006
1.01061
1.01119
1.01177
1.01239
1.01297
1.01359
1.01419
1.01493
1.01581
1.01708
1.01852
1.02575
1.03135
1.06113
1.0537
1.05677
1.02699
0.974277
0.880732
0.800573
0.754087
0.724032
0.704735
0.690023
0.678943
0.669024
0.662959
0.655422
0.649465
0.64181
0.636157
0.629946
0.624947
0.618749
0.612015
0.603309
0.594399
0.583824
0.572497
0.559412
0.546314
0.531774
0.517437
0.501064
0.484493
0.467824
0.452188
0.437645
0.424451
0.41182
0.399963
0.387486
0.375122
0.361443
0.348712
0.33553
0.322256
0.308853
0.2965
0.284386
0.272678
0.260902
0.249246
0.236962
0.225305
0.21278
0.200988
0.189475
0.178861
0.170074
0.161842
0.154501
0.148532
0.143275
0.136087
1
1
1
1
1
1
1.00001
1.00001
1.00002
1.00002
1.00003
1.00005
1.00007
1.00009
1.00012
1.00017
1.00022
1.00028
1.00036
1.00046
1.00057
1.00071
1.00086
1.00104
1.00125
1.00148
1.00175
1.00204
1.00236
1.00271
1.0031
1.00351
1.00396
1.00443
1.00493
1.00545
1.00601
1.00658
1.00716
1.00776
1.00836
1.00897
1.00958
1.01021
1.01083
1.01151
1.01221
1.01293
1.01361
1.0143
1.0148
1.01534
1.01506
1.01619
1.01083
1.02766
1.06574
1.06045
1.05143
1.03702
0.990286
0.901874
0.815474
0.76469
0.734436
0.712069
0.699458
0.688744
0.680925
0.672274
0.667474
0.661048
0.656469
0.649524
0.643965
0.637912
0.632954
0.627884
0.622918
0.616111
0.609267
0.600432
0.590931
0.579145
0.56694
0.552915
0.539218
0.523158
0.506163
0.486839
0.468027
0.449819
0.43339
0.418423
0.404614
0.390959
0.377743
0.364066
0.351445
0.338322
0.324964
0.311759
0.299628
0.287707
0.276418
0.265117
0.253843
0.242211
0.230868
0.218831
0.207473
0.196612
0.186889
0.178742
0.172114
0.165357
0.161153
0.156491
0.151015
1
1
1
1
1
1
1.00001
1.00001
1.00002
1.00002
1.00003
1.00005
1.00006
1.00009
1.00012
1.00016
1.00021
1.00027
1.00035
1.00044
1.00055
1.00068
1.00083
1.001
1.0012
1.00142
1.00168
1.00196
1.00227
1.00261
1.00299
1.00339
1.00383
1.0043
1.0048
1.00533
1.00589
1.00646
1.00707
1.00769
1.00832
1.00896
1.00963
1.01029
1.01093
1.01159
1.01225
1.01297
1.01365
1.01452
1.01524
1.0163
1.01647
1.01822
1.00968
1.0284
1.08281
1.06343
1.05625
0.999379
0.921453
0.831667
0.778408
0.742581
0.721287
0.70434
0.693734
0.685614
0.680079
0.673334
0.669275
0.664408
0.661549
0.656462
0.651575
0.64614
0.641252
0.636402
0.631966
0.626745
0.621702
0.614325
0.606826
0.596886
0.586482
0.57335
0.560254
0.544529
0.528694
0.509053
0.488234
0.466863
0.447192
0.429397
0.413478
0.398169
0.38404
0.370039
0.35716
0.343638
0.330168
0.31682
0.304715
0.292749
0.281774
0.270656
0.259795
0.248619
0.237651
0.226179
0.215382
0.205176
0.196127
0.188453
0.183117
0.177623
0.175054
0.171197
0.167412
1
1
1
1
1
1
1.00001
1.00001
1.00002
1.00002
1.00003
1.00004
1.00006
1.00008
1.00011
1.00015
1.0002
1.00026
1.00033
1.00042
1.00052
1.00064
1.00078
1.00095
1.00114
1.00135
1.00159
1.00186
1.00216
1.00249
1.00285
1.00324
1.00367
1.00413
1.00462
1.00514
1.00569
1.00627
1.00688
1.00752
1.0082
1.0089
1.00961
1.01028
1.01098
1.01172
1.01257
1.01349
1.01458
1.0159
1.01755
1.01968
1.02213
1.02463
1.03433
1.04258
1.06468
1.03933
1.00812
0.920527
0.839119
0.783027
0.750811
0.727482
0.713465
0.701775
0.692359
0.685586
0.681697
0.677352
0.674246
0.670283
0.667528
0.663494
0.659275
0.654365
0.649773
0.644986
0.640606
0.636068
0.631636
0.626077
0.62014
0.612159
0.602892
0.591336
0.578664
0.564131
0.548485
0.530129
0.509749
0.486411
0.464661
0.443395
0.425143
0.407843
0.39261
0.377707
0.364417
0.350123
0.336643
0.322891
0.31072
0.298579
0.287751
0.276614
0.266241
0.255286
0.244847
0.233857
0.223692
0.214151
0.205863
0.198916
0.19472
0.190569
0.189122
0.186192
0.18396
1
1
1
1
1
1
1.00001
1.00001
1.00001
1.00002
1.00003
1.00004
1.00006
1.00008
1.00011
1.00014
1.00019
1.00024
1.00031
1.00039
1.00049
1.0006
1.00074
1.00089
1.00107
1.00127
1.00149
1.00175
1.00203
1.00234
1.00267
1.00305
1.00345
1.00389
1.00436
1.00486
1.00539
1.00597
1.00658
1.00723
1.00795
1.0087
1.00947
1.01027
1.01108
1.01193
1.01304
1.01425
1.01558
1.01662
1.01779
1.01793
1.0199
1.01287
1.03709
1.09194
1.05003
1.023
0.945818
0.852203
0.797779
0.757333
0.736708
0.720149
0.711488
0.704112
0.696849
0.689919
0.686296
0.682571
0.68023
0.677103
0.674827
0.671943
0.668763
0.664827
0.660712
0.655987
0.651179
0.646653
0.641874
0.637431
0.632364
0.625459
0.617226
0.607591
0.595645
0.582478
0.567207
0.55024
0.530806
0.508064
0.484291
0.460597
0.439664
0.420474
0.403766
0.387865
0.373633
0.358559
0.3448
0.330634
0.318259
0.305836
0.294879
0.28372
0.27356
0.262925
0.253025
0.24263
0.233242
0.224361
0.216756
0.210394
0.207147
0.204369
0.203848
0.202064
0.201464
1
1
1
1
1
1
1.00001
1.00001
1.00001
1.00002
1.00003
1.00004
1.00006
1.00008
1.0001
1.00013
1.00018
1.00023
1.00029
1.00037
1.00046
1.00056
1.00069
1.00083
1.00099
1.00117
1.00138
1.00161
1.00187
1.00215
1.00246
1.0028
1.00318
1.00358
1.00402
1.00449
1.00498
1.00553
1.00612
1.00677
1.00744
1.00813
1.00883
1.00953
1.01022
1.01097
1.01187
1.01283
1.01386
1.01479
1.01618
1.01751
1.02154
1.01848
1.03195
1.05211
1.00503
0.952376
0.863687
0.815254
0.77376
0.75011
0.732749
0.720877
0.71288
0.708168
0.704094
0.699753
0.695977
0.692421
0.689838
0.687154
0.685025
0.682647
0.679951
0.676554
0.672941
0.668568
0.663533
0.658433
0.652945
0.64833
0.643881
0.637727
0.631014
0.622595
0.611905
0.599226
0.584214
0.567531
0.548771
0.527792
0.503991
0.47933
0.455859
0.434761
0.416399
0.399355
0.383986
0.368246
0.354075
0.339741
0.326893
0.314012
0.302592
0.291241
0.281171
0.270821
0.261461
0.25176
0.243078
0.234824
0.227869
0.222306
0.220098
0.218626
0.218997
0.218069
0.218812
1
1
1
1
1
1
1.00001
1.00001
1.00001
1.00002
1.00003
1.00004
1.00005
1.00007
1.00009
1.00013
1.00016
1.00021
1.00027
1.00034
1.00042
1.00052
1.00063
1.00075
1.0009
1.00107
1.00125
1.00146
1.00169
1.00193
1.00221
1.00251
1.00284
1.00319
1.00358
1.00399
1.00444
1.00492
1.00547
1.00605
1.00667
1.0073
1.00796
1.00865
1.00941
1.01033
1.01159
1.01323
1.0151
1.01741
1.0199
1.02357
1.02406
1.05068
1.05124
1.00805
0.946285
0.891114
0.814795
0.788227
0.76594
0.75378
0.743754
0.735399
0.726208
0.71951
0.714442
0.709712
0.705338
0.701947
0.69863
0.696061
0.693553
0.691361
0.689108
0.686321
0.683278
0.679738
0.675309
0.670618
0.66497
0.659862
0.655295
0.649958
0.643807
0.636135
0.626738
0.615179
0.601304
0.585392
0.567201
0.54702
0.524166
0.499248
0.474385
0.451682
0.431723
0.413423
0.396545
0.380046
0.364979
0.350314
0.336714
0.323313
0.311388
0.299876
0.289827
0.279791
0.27083
0.26168
0.253727
0.246154
0.240015
0.235196
0.233742
0.233232
0.234384
0.234385
0.236338
1
1
1
1
1
1
1.00001
1.00001
1.00001
1.00002
1.00002
1.00003
1.00005
1.00006
1.00009
1.00012
1.00015
1.00019
1.00024
1.00031
1.00038
1.00047
1.00056
1.00068
1.0008
1.00095
1.0011
1.00128
1.00147
1.00169
1.00192
1.00217
1.00244
1.00273
1.00304
1.00337
1.00374
1.00414
1.00458
1.00505
1.00554
1.00602
1.00652
1.007
1.00752
1.00815
1.00881
1.00958
1.01014
1.01104
1.01126
1.01369
1.00681
1.0347
1.0285
0.952538
0.904418
0.836453
0.803735
0.776391
0.761156
0.747844
0.740789
0.736408
0.731961
0.72769
0.723822
0.720441
0.716878
0.713474
0.709675
0.706727
0.703991
0.701597
0.699567
0.697122
0.694632
0.691544
0.687686
0.683272
0.678164
0.67264
0.667422
0.662237
0.656519
0.649661
0.641182
0.630832
0.617965
0.602668
0.584928
0.564978
0.543088
0.518658
0.493956
0.469564
0.448221
0.428352
0.41011
0.392672
0.376731
0.361391
0.346854
0.333152
0.320802
0.309238
0.298995
0.289142
0.280368
0.271865
0.264556
0.257687
0.25228
0.248163
0.247448
0.247765
0.249902
0.250681
0.253623
1
1
1
1
1
1
1.00001
1.00001
1.00001
1.00002
1.00002
1.00003
1.00004
1.00006
1.00008
1.0001
1.00014
1.00017
1.00022
1.00027
1.00034
1.00041
1.0005
1.00059
1.0007
1.00082
1.00094
1.00109
1.00124
1.00141
1.00158
1.00177
1.00197
1.00218
1.0024
1.00264
1.00289
1.00316
1.00344
1.00375
1.00405
1.00438
1.00471
1.00512
1.00556
1.00617
1.00697
1.0079
1.0089
1.00947
1.01092
1.00688
1.03035
1.01889
0.967305
0.886356
0.856519
0.803484
0.793997
0.774877
0.768726
0.758879
0.751893
0.746686
0.742594
0.738822
0.735066
0.731615
0.728613
0.725209
0.722041
0.718036
0.7151
0.71178
0.709744
0.707022
0.704619
0.701839
0.698622
0.694637
0.690171
0.684997
0.679525
0.674026
0.668504
0.662225
0.654644
0.645246
0.633766
0.620006
0.603905
0.585236
0.564288
0.540532
0.515429
0.489847
0.466572
0.44504
0.425342
0.40662
0.389765
0.373071
0.357892
0.343697
0.330978
0.319302
0.308942
0.299259
0.290759
0.282751
0.275953
0.269817
0.265148
0.261742
0.261483
0.262352
0.265365
0.26674
0.270629
1
1
1
1
1
1
1
1.00001
1.00001
1.00001
1.00002
1.00003
1.00004
1.00005
1.00007
1.00009
1.00012
1.00015
1.00019
1.00024
1.00029
1.00035
1.00042
1.0005
1.00058
1.00067
1.00077
1.00087
1.00098
1.0011
1.00121
1.00133
1.00145
1.00157
1.00168
1.00179
1.0019
1.00201
1.00213
1.00225
1.00234
1.00245
1.00252
1.0026
1.00266
1.00276
1.00296
1.00304
1.00328
1.00289
1.00342
0.999345
1.01359
0.990492
0.905774
0.879889
0.827653
0.805521
0.78577
0.774705
0.765297
0.759199
0.754007
0.75041
0.747683
0.744876
0.742179
0.73911
0.737237
0.733933
0.732306
0.728622
0.726504
0.722756
0.720543
0.717544
0.715061
0.712223
0.709222
0.70551
0.701337
0.696556
0.691406
0.685871
0.680578
0.674775
0.66826
0.659946
0.649842
0.637649
0.622669
0.605038
0.584484
0.561426
0.535854
0.51001
0.48479
0.461757
0.440414
0.420796
0.40281
0.385372
0.369675
0.354868
0.341645
0.329666
0.319116
0.30955
0.301221
0.293789
0.287542
0.282135
0.278082
0.275318
0.275421
0.276705
0.280295
0.282648
0.287
1
1
1
1
1
1
1
1.00001
1.00001
1.00001
1.00002
1.00003
1.00004
1.00005
1.00006
1.00008
1.0001
1.00013
1.00016
1.0002
1.00025
1.00029
1.00035
1.0004
1.00046
1.00052
1.00059
1.00065
1.00071
1.00077
1.00082
1.00087
1.0009
1.00092
1.00093
1.00091
1.00087
1.0008
1.00073
1.00063
1.00053
1.00039
1.00019
0.999967
0.999697
0.999511
0.999154