/*--------------------------------*- C++ -*----------------------------------*\
| =========                 |                                                 |
| \\      /  F ield         | OpenFOAM: The Open Source CFD Toolbox           |
|  \\    /   O peration     | Version:  2.2.x                                 |
|   \\  /    A nd           | Web:      www.OpenFOAM.org                      |
|    \\/     M anipulation  |                                                 |
\*---------------------------------------------------------------------------*/
FoamFile
{
    version     2.0;
    format      ascii;
    class       volScalarField;
    location    "0.45";
    object      Bz;
}
// * * * * * * * * * * * * * * * * * * * * * * * * * * * * * * * * * * * * * //

dimensions      [1 0 -2 0 0 -1 0];

internalField   nonuniform List<scalar> 
14161
(
3.22017e-19
1.26422e-19
8.0177e-20
5.69847e-20
5.00979e-20
4.32231e-20
3.87176e-20
3.0915e-20
2.54588e-20
1.7816e-20
1.32628e-20
7.66661e-21
3.8587e-21
8.02547e-22
-1.24832e-21
-2.2444e-21
-2.1534e-21
-3.06196e-21
-1.68504e-21
-2.06252e-21
-6.70595e-22
-1.21995e-23
5.60279e-22
1.53377e-21
2.20811e-21
3.79849e-21
4.32942e-21
5.94982e-21
5.17247e-21
7.57702e-21
7.86124e-21
8.35414e-21
9.13877e-21
1.05807e-20
9.90533e-21
1.1421e-20
1.03021e-20
1.18633e-20
1.05454e-20
1.26039e-20
1.10532e-20
1.31492e-20
1.17411e-20
1.42434e-20
1.23539e-20
1.48341e-20
1.47903e-20
1.73388e-20
1.83074e-20
1.84394e-20
1.9268e-20
1.93196e-20
2.00902e-20
2.04259e-20
2.04317e-20
1.95769e-20
1.94228e-20
1.9691e-20
1.74849e-20
6.75125e-19
8.50487e-19
6.47115e-19
3.68644e-19
2.28592e-19
1.11212e-19
3.98399e-20
4.2841e-20
4.90914e-20
4.14542e-20
6.25114e-20
6.92353e-20
7.82297e-20
6.38753e-20
6.08839e-20
6.99016e-20
7.83537e-20
6.59665e-20
8.48147e-20
7.12926e-20
9.33548e-20
1.90533e-20
1.56734e-19
7.31643e-21
2.30821e-19
8.78789e-19
2.86955e-18
2.05551e-18
7.34069e-19
5.46501e-19
4.52471e-19
4.05903e-19
3.88898e-19
3.55823e-19
3.41639e-19
2.92598e-19
2.28484e-19
1.2662e-19
7.4021e-20
8.73595e-20
7.15033e-20
1.13175e-19
1.28697e-19
1.60568e-19
1.53084e-19
1.35862e-19
1.78873e-19
1.20731e-19
2.01105e-19
1.50225e-19
1.6228e-19
1.01767e-19
8.50466e-20
5.84968e-20
4.3483e-20
1.03178e-19
1.22778e-19
1.27121e-20
6.8661e-19
7.34033e-19
-7.59735e-20
4.38105e-20
5.33411e-20
4.94442e-20
4.75609e-20
4.17361e-20
3.68704e-20
2.94358e-20
2.39951e-20
1.65587e-20
1.24014e-20
6.33757e-21
3.07493e-21
-4.19607e-22
-1.76406e-21
-2.59754e-21
-2.35853e-21
-3.09893e-21
-2.0351e-21
-2.1626e-21
-7.05661e-22
-4.53603e-22
5.47734e-22
1.78128e-21
2.29915e-21
4.16733e-21
4.30766e-21
6.45463e-21
5.66465e-21
7.88667e-21
8.12933e-21
9.59628e-21
1.01091e-20
1.09841e-20
1.04851e-20
1.19347e-20
1.19405e-20
1.244e-20
1.25763e-20
1.378e-20
1.30445e-20
1.38084e-20
1.42336e-20
1.32334e-20
1.59961e-20
1.15496e-20
1.30346e-20
1.44752e-20
1.30398e-20
1.35075e-20
1.35404e-20
1.29865e-20
1.27488e-20
1.37314e-20
1.42668e-20
1.63773e-20
1.63597e-20
1.61951e-20
1.41365e-20
5.92181e-19
1.10886e-18
8.06414e-19
4.8823e-19
2.70434e-19
1.02007e-19
4.51557e-20
3.16397e-20
4.72757e-20
4.06485e-20
6.2904e-20
7.20104e-20
8.03206e-20
6.87511e-20
5.59296e-20
6.77011e-20
7.76518e-20
6.03231e-20
6.24902e-20
5.23529e-20
6.20213e-20
3.3148e-20
1.11352e-19
3.62767e-20
2.65161e-19
8.58446e-19
2.15185e-18
1.47043e-18
7.59983e-19
5.54953e-19
4.79692e-19
4.12277e-19
3.7338e-19
3.14996e-19
3.10462e-19
2.63541e-19
2.03292e-19
9.15494e-20
1.39564e-20
3.99474e-20
4.20855e-20
7.82755e-20
1.13859e-19
1.54163e-19
1.62346e-19
1.14952e-19
1.80875e-19
1.25556e-19
1.74221e-19
1.0703e-19
1.28699e-19
3.02935e-20
1.66658e-20
-5.02138e-20
-4.11721e-20
7.39299e-21
1.7995e-19
1.01711e-19
7.50503e-19
8.02664e-19
-7.49765e-20
-6.85742e-21
3.00313e-20
4.08357e-20
4.42079e-20
3.84564e-20
3.3546e-20
2.58139e-20
2.0549e-20
1.35872e-20
1.03453e-20
2.89891e-21
4.44324e-22
-1.51431e-21
-2.36583e-21
-3.20751e-21
-3.22006e-21
-2.88149e-21
-2.44027e-21
-1.6277e-21
-1.12685e-21
-1.61984e-21
1.64971e-21
1.97799e-21
1.93392e-21
5.03119e-21
6.33494e-21
7.6038e-21
8.35075e-21
9.84511e-21
1.01155e-20
1.11905e-20
1.12202e-20
1.25003e-20
1.22314e-20
1.24915e-20
1.3154e-20
1.29172e-20
1.34736e-20
1.40179e-20
1.30788e-20
1.45645e-20
1.31313e-20
1.44925e-20
1.32897e-20
1.42253e-20
1.56003e-20
1.68364e-20
1.58769e-20
1.59702e-20
1.37747e-20
1.52733e-20
1.42592e-20
1.43279e-20
1.48762e-20
1.42841e-20
1.56193e-20
1.56904e-20
1.52294e-20
7.01842e-19
1.21343e-18
9.49815e-19
5.40705e-19
2.5504e-19
2.98007e-20
1.96003e-20
1.54498e-20
3.51982e-20
3.62102e-20
5.11201e-20
7.22166e-20
9.09115e-20
8.8712e-20
6.42023e-20
8.15434e-20
9.58693e-20
7.06868e-20
8.23778e-20
7.36637e-20
9.18503e-20
6.2564e-20
1.39595e-19
1.07249e-19
4.53335e-19
1.10349e-18
1.64309e-18
9.96694e-19
5.38239e-19
4.27538e-19
3.42271e-19
3.10899e-19
2.70391e-19
2.25878e-19
2.42715e-19
1.8977e-19
1.56197e-19
4.33821e-20
-4.31118e-20
-2.91972e-20
3.64055e-20
8.19732e-20
1.47635e-19
1.30429e-19
1.60812e-19
8.05409e-20
1.56052e-19
4.80928e-20
4.25236e-20
1.44985e-20
9.21793e-20
-1.45835e-19
-1.22819e-19
-2.67532e-19
-2.44297e-19
-1.64475e-19
-5.99725e-20
2.55706e-19
-7.53649e-20
-3.61228e-20
-6.73918e-20
-6.20965e-20
-6.23209e-20
-5.3872e-20
-5.3854e-20
-4.75089e-20
-4.23694e-20
-3.7118e-20
-3.19202e-20
-2.65003e-20
-2.70685e-20
-2.21668e-20
-1.82925e-20
-1.51369e-20
-9.66887e-21
-7.96012e-21
-6.31966e-21
-2.77293e-21
-8.14796e-21
1.0062e-21
9.01652e-23
2.98131e-21
2.52436e-21
4.29869e-21
4.25217e-21
8.91781e-21
1.01429e-20
1.13697e-20
1.19635e-20
8.562e-21
1.42675e-20
1.38164e-20
1.49601e-20
1.38058e-20
1.57966e-20
1.40347e-20
1.56005e-20
1.43474e-20
1.6308e-20
1.44139e-20
1.59224e-20
1.42371e-20
1.52396e-20
1.3905e-20
1.54835e-20
1.32257e-20
1.42424e-20
1.26061e-20
1.27919e-20
1.47991e-20
1.44721e-20
1.77854e-20
1.72846e-20
1.92312e-20
1.81588e-20
2.134e-20
2.04495e-20
2.21925e-20
1.15638e-20
9.64739e-19
1.23815e-18
9.48851e-19
5.5186e-19
2.08732e-19
-1.98538e-20
5.94687e-20
6.30018e-20
7.26458e-20
7.97064e-20
6.5899e-20
1.23969e-19
1.18184e-19
1.37623e-19
1.04238e-19
1.10795e-19
1.32261e-19
1.36375e-19
1.50384e-19
1.33944e-19
1.40872e-19
1.60788e-19
2.69635e-19
2.61933e-19
6.00093e-19
1.28456e-18
1.18239e-18
6.86765e-19
3.7945e-19
2.95155e-19
1.47288e-19
4.2787e-20
-4.74154e-20
-2.38893e-19
-2.76744e-19
-4.91402e-19
-3.44933e-19
-3.56362e-19
-1.32367e-19
-1.71877e-19
6.17247e-20
9.47331e-20
2.16983e-19
1.10405e-19
1.66337e-19
6.69712e-20
6.04749e-20
-5.23626e-20
-2.2772e-19
-3.0396e-19
-1.91113e-19
-4.4089e-19
-4.50069e-19
-5.41927e-19
-7.41162e-19
-4.56277e-19
-1.29588e-18
-1.36102e-18
1.24303e-19
1.38221e-19
-6.18118e-20
-5.78325e-20
-5.89812e-20
-5.26933e-20
-5.21934e-20
-4.66418e-20
-4.53665e-20
-4.16526e-20
-3.55265e-20
-3.11758e-20
-3.40734e-20
-2.08526e-20
-2.08941e-20
-1.48265e-20
-1.50523e-20
-9.45382e-21
-4.27518e-21
-7.23739e-22
6.30046e-21
-9.69988e-23
-2.98857e-22
2.86225e-21
4.59191e-21
6.63755e-21
7.12857e-21
1.51779e-20
1.51199e-20
1.29271e-20
1.83378e-20
2.19446e-20
2.28236e-20
1.76038e-20
2.10945e-20
1.81191e-20
2.04744e-20
1.93459e-20
2.38166e-20
1.85118e-20
2.3334e-20
2.06297e-20
2.20136e-20
2.0482e-20
2.10521e-20
2.08186e-20
1.95686e-20
2.08539e-20
2.15996e-20
2.29825e-20
1.95027e-20
2.09669e-20
2.42413e-20
2.45978e-20
2.87048e-20
2.67031e-20
2.60457e-20
2.65583e-20
2.59983e-20
3.40723e-20
2.31565e-20
1.1953e-18
1.33808e-18
1.03781e-18
5.9073e-19
1.54111e-19
6.15774e-20
9.28623e-20
1.41086e-19
1.29734e-19
1.35696e-19
1.37283e-19
1.76956e-19
1.41846e-19
2.00647e-19
2.07081e-19
1.50301e-19
2.12231e-19
2.61542e-19
3.17825e-19
2.59441e-19
2.76162e-19
2.59808e-19
4.97655e-19
5.46834e-19
8.79086e-19
1.16559e-18
7.43145e-19
4.44002e-19
2.6653e-19
1.20498e-19
7.79595e-20
-1.31171e-19
-6.0677e-20
-3.31802e-19
-2.91345e-19
-5.02644e-19
-3.60999e-19
-4.13191e-19
-2.03463e-19
-1.48029e-19
5.37612e-20
2.45803e-19
2.27325e-19
1.82671e-19
3.07384e-20
5.6437e-20
-2.74164e-19
-2.01615e-19
-6.84933e-19
-7.08233e-19
-7.4254e-19
-6.8114e-19
-8.69235e-19
-9.68701e-19
-1.27362e-18
-1.51427e-18
-1.44851e-18
-1.30727e-18
-9.31741e-19
-8.29518e-19
-4.0773e-20
-4.37453e-20
-4.40258e-20
-4.65973e-20
-4.6551e-20
-4.61089e-20
-4.30223e-20
-2.99721e-20
-3.64469e-20
-3.18652e-20
-1.93159e-20
-2.544e-20
-2.10622e-20
-6.7194e-21
-7.91649e-21
1.86096e-21
-8.59125e-21
1.28529e-20
1.01258e-20
1.05183e-20
1.84275e-20
2.13825e-20
2.51631e-20
2.53622e-20
3.35209e-20
2.65204e-20
2.94053e-20
2.8161e-20
3.07421e-20
2.75503e-20
3.15445e-20
2.95887e-20
3.47974e-20
3.26492e-20
3.53853e-20
3.12158e-20
3.76895e-20
3.22497e-20
3.85111e-20
3.11531e-20
3.81727e-20
3.05692e-20
3.94663e-20
3.11964e-20
3.93048e-20
3.27794e-20
3.83059e-20
4.09914e-20
4.47767e-20
4.01241e-20
4.593e-20
3.47354e-20
4.0781e-20
4.0038e-20
4.35187e-20
4.41171e-20
4.51714e-20
4.83368e-20
4.686e-20
1.61641e-18
1.65012e-18
1.20585e-18
8.21437e-19
5.65683e-20
2.13598e-19
2.22378e-19
2.56557e-19
2.40532e-19
2.50048e-19
1.95611e-19
2.55062e-19
1.69598e-19
2.38692e-19
2.80152e-19
2.25141e-19
2.79263e-19
3.4699e-19
3.70952e-19
3.63107e-19
4.09153e-19
3.54971e-19
6.93245e-19
7.30811e-19
1.09614e-18
8.06918e-19
4.78074e-19
3.03214e-19
2.0102e-19
8.37075e-20
-3.70975e-20
-9.54056e-20
-2.61693e-19
-2.33317e-19
-3.85416e-19
-3.77676e-19
-4.45629e-19
-2.35234e-19
-2.14644e-19
9.40133e-20
1.59812e-19
4.9446e-19
1.14753e-19
2.53552e-19
-1.33048e-19
-1.73329e-19
-3.9766e-19
-7.4742e-19
-9.05145e-19
-1.41451e-18
-1.50868e-18
-1.64597e-18
-1.82017e-18
-1.65332e-18
-1.8563e-18
-1.42123e-18
-2.04461e-18
-2.4275e-18
-1.2523e-18
-1.3281e-18
-2.61222e-20
-2.93376e-20
-3.08756e-20
-3.42908e-20
-2.60759e-20
-2.2913e-20
-3.01345e-20
-1.53226e-20
-2.17418e-20
-1.97537e-20
-1.31874e-20
-7.26624e-21
3.65447e-21
-1.95671e-21
-9.82541e-22
8.35874e-21
2.2321e-20
2.35991e-20
2.15991e-20
3.69061e-20
3.76897e-20
3.98617e-20
3.72133e-20
4.43639e-20
4.18359e-20
4.69611e-20
4.70112e-20
5.63369e-20
4.73358e-20
4.51574e-20
4.51611e-20
5.05892e-20
4.7728e-20
5.30415e-20
4.93891e-20
5.0532e-20
4.95723e-20
5.18731e-20
5.1418e-20
5.39524e-20
5.38589e-20
5.41192e-20
5.23259e-20
5.38793e-20
5.20459e-20
5.34042e-20
5.24735e-20
4.8399e-20
4.8126e-20
4.7244e-20
5.06331e-20
5.17157e-20
5.38947e-20
5.82298e-20
5.75272e-20
5.81842e-20
6.55423e-20
6.58236e-20
6.96958e-20
2.50447e-18
2.53192e-18
2.04505e-18
1.30218e-18
1.21831e-19
4.21102e-19
3.73531e-19
3.95805e-19
3.62525e-19
3.6092e-19
3.478e-19
3.90785e-19
3.39668e-19
4.16117e-19
5.82601e-19
4.76232e-19
5.1556e-19
5.54955e-19
5.17998e-19
5.47273e-19
5.01772e-19
4.21817e-19
8.0637e-19
9.46225e-19
9.83821e-19
6.15124e-19
3.50351e-19
2.52016e-19
2.09004e-19
1.34517e-19
9.02222e-20
-1.09216e-19
-5.10016e-20
-3.3405e-19
-1.45829e-19
-3.56283e-19
-5.86198e-20
-9.86275e-20
-1.13537e-19
-4.4474e-21
4.09627e-19
1.03656e-19
3.96837e-19
-1.17937e-19
-2.98351e-19
-6.88118e-19
-1.0965e-18
-1.23158e-18
-1.59004e-18
-2.02544e-18
-1.89928e-18
-2.02866e-18
-2.21521e-18
-2.4464e-18
-1.83423e-18
-1.64676e-18
-1.05513e-18
-1.09844e-18
-1.53667e-18
-1.43411e-18
-2.39223e-20
-1.84454e-20
-1.50415e-20
-1.38765e-20
-1.22585e-20
-3.91526e-21
9.60782e-21
-1.17655e-21
9.48159e-21
9.59723e-21
1.81741e-20
2.16904e-20
3.53802e-20
5.48487e-20
6.12926e-20
5.18429e-20
6.40996e-20
4.92386e-20
5.34697e-20
7.16937e-20
5.86786e-20
5.93659e-20
6.14748e-20
6.63286e-20
7.36716e-20
7.98495e-20
6.91128e-20
8.72945e-20
7.65842e-20
9.22467e-20
7.52017e-20
8.74353e-20
7.17378e-20
8.3464e-20
7.45113e-20
8.30408e-20
6.97383e-20
8.2117e-20
6.92107e-20
8.33429e-20
6.92552e-20
8.361e-20
6.96918e-20
8.0102e-20
7.22782e-20
7.59193e-20
6.94903e-20
8.3489e-20
7.05418e-20
8.25283e-20
8.30422e-20
8.85683e-20
8.97639e-20
9.14637e-20
8.93614e-20
9.82136e-20
1.01639e-19
1.13166e-19
1.33234e-19
3.24125e-18
3.73756e-18
3.28608e-18
2.36716e-18
5.79186e-19
8.47162e-19
6.9698e-19
6.51984e-19
5.77029e-19
5.52053e-19
5.11296e-19
5.50252e-19
4.50245e-19
4.69875e-19
6.90383e-19
5.48249e-19
5.68628e-19
6.50826e-19
6.15056e-19
6.69662e-19
6.12972e-19
5.10205e-19
8.8352e-19
1.02986e-18
7.45434e-19
5.07034e-19
3.41457e-19
3.06507e-19
2.45655e-19
2.17785e-19
4.02009e-20
-8.23477e-20
6.70362e-20
-2.02834e-19
-1.83178e-19
-2.3722e-19
-2.52126e-19
-1.0002e-19
-1.42781e-19
1.3875e-19
-8.26667e-21
2.51691e-19
-2.69963e-19
-1.47658e-19
-5.57041e-19
-8.23129e-19
-1.49349e-18
-1.7209e-18
-1.77682e-18
-1.89117e-18
-1.97351e-18
-1.41374e-18
-1.36121e-18
-7.51883e-19
-5.14519e-19
-3.37508e-20
-5.79876e-20
-1.76544e-19
-6.60765e-19
-9.83686e-19
5.14873e-22
1.00862e-20
1.18719e-20
3.87948e-20
2.85276e-20
3.53604e-20
3.67292e-20
3.42921e-20
4.88108e-20
4.38762e-20
5.7227e-20
6.26004e-20
6.83998e-20
6.82165e-20
7.66483e-20
8.51996e-20
7.19175e-20
9.97022e-20
1.02763e-19
8.8768e-20
9.97242e-20
1.11466e-19
1.08835e-19
1.14996e-19
9.84399e-20
1.30616e-19
1.26497e-19
1.40721e-19
1.21433e-19
1.48634e-19
1.15551e-19
1.43628e-19
1.27822e-19
1.36418e-19
1.20377e-19
1.3406e-19
1.23449e-19
1.34799e-19
1.21942e-19
1.33296e-19
1.16841e-19
1.28692e-19
1.15827e-19
1.25213e-19
1.1285e-19
1.23395e-19
1.24681e-19
1.30737e-19
1.3686e-19
1.39749e-19
1.45163e-19
1.58223e-19
1.68968e-19
1.89993e-19
1.98741e-19
2.247e-19
2.28355e-19
2.37976e-19
2.29369e-19
3.52023e-18
6.34859e-18
5.53593e-18
3.24008e-18
1.5532e-18
1.33171e-18
1.0505e-18
8.56234e-19
7.72184e-19
5.41442e-19
5.13848e-19
5.84218e-19
4.90263e-19
5.06284e-19
7.52945e-19
5.82812e-19
6.22739e-19
6.87188e-19
6.78991e-19
7.18743e-19
7.03485e-19
7.25489e-19
9.29508e-19
8.48058e-19
5.81668e-19
4.29279e-19
4.43063e-19
3.79264e-19
3.53388e-19
3.24927e-19
2.2689e-19
9.04536e-20
8.36492e-20
1.50005e-20
-5.56751e-21
-1.09835e-19
-3.37891e-20
-1.37191e-20
1.66377e-20
1.34507e-19
1.49728e-19
6.07497e-20
-4.95411e-20
-5.51608e-19
-4.80758e-19
-1.12195e-18
-1.39873e-18
-1.73341e-18
-1.92823e-18
-2.02033e-18
-1.95169e-18
-1.04849e-18
-2.35446e-19
-3.52106e-19
1.02151e-18
3.88039e-19
1.51884e-18
1.49225e-18
1.33757e-18
1.25881e-18
8.69544e-20
8.69556e-20
8.59249e-20
7.82961e-20
1.14395e-19
1.0674e-19
8.2078e-20
9.62914e-20
9.50292e-20
1.37713e-19
1.08129e-19
1.3863e-19
1.2924e-19
1.14237e-19
1.41127e-19
1.38169e-19
1.48426e-19
1.45169e-19
1.56486e-19
1.56953e-19
1.67269e-19
1.56618e-19
1.6876e-19
1.89054e-19
1.80077e-19
2.13667e-19
2.00049e-19
2.334e-19
2.5438e-19
2.42281e-19
2.49751e-19
2.30253e-19
2.43661e-19
2.51399e-19
2.51128e-19
2.56689e-19
2.53567e-19
2.53217e-19
2.45231e-19
2.46268e-19
2.47988e-19
2.48287e-19
2.45039e-19
2.50403e-19
2.45825e-19
2.55395e-19
2.64445e-19
2.68649e-19
2.79612e-19
2.90013e-19
2.9682e-19
3.00199e-19
3.01111e-19
3.03118e-19
3.09674e-19
3.15822e-19
3.34255e-19
3.34192e-19
3.38159e-19
2.4424e-18
8.27893e-18
7.44074e-18
4.53109e-18
2.72054e-18
1.69589e-18
1.18908e-18
9.13708e-19
7.59267e-19
5.47675e-19
4.72431e-19
6.01393e-19
4.44424e-19
4.80999e-19
7.32488e-19
6.44183e-19
4.904e-19
6.91589e-19
7.33264e-19
7.46409e-19
7.43872e-19
7.67854e-19
7.30782e-19
6.42368e-19
5.17541e-19
5.00241e-19
4.22127e-19
4.14154e-19
3.92528e-19
3.27296e-19
2.42434e-19
1.37666e-19
1.36673e-19
9.02759e-20
-3.27291e-20
6.7518e-21
-3.20318e-20
-1.76458e-20
-4.62719e-20
8.804e-20
9.96019e-20
9.74767e-20
-3.7669e-20
-4.39102e-20
-7.4843e-19
-7.37941e-19
-8.8221e-19
-1.53791e-18
-1.71741e-18
-1.04458e-18
-8.32058e-19
-5.45469e-19
6.26623e-19
1.13776e-18
2.42684e-18
1.9289e-18
2.12137e-18
1.93518e-18
1.70248e-18
1.42146e-18
1.75893e-19
1.64095e-19
1.54832e-19
1.72822e-19
1.49041e-19
1.47423e-19
1.69847e-19
1.86266e-19
1.79811e-19
1.66081e-19
1.7708e-19
1.9001e-19
2.02688e-19
2.12974e-19
2.02189e-19
2.20238e-19
2.27723e-19
2.40277e-19
2.38271e-19
2.79786e-19
2.73599e-19
3.01068e-19
3.23948e-19
3.24975e-19
3.4372e-19
3.16108e-19
3.97533e-19
4.09398e-19
3.86268e-19
4.17012e-19
3.95721e-19
4.12933e-19
4.01917e-19
4.15711e-19
4.17845e-19
4.253e-19
4.32331e-19
4.35852e-19
4.3732e-19
4.45886e-19
4.47104e-19
4.46081e-19
4.392e-19
4.39733e-19
4.37539e-19
4.29132e-19
4.37817e-19
4.45134e-19
4.32923e-19
4.52868e-19
4.55057e-19
4.68927e-19
4.67107e-19
4.54474e-19
4.35583e-19
4.18956e-19
4.10164e-19
3.9424e-19
4.05613e-19
2.94293e-18
5.8416e-18
6.42313e-18
5.43335e-18
3.43257e-18
1.88765e-18
1.26328e-18
8.32363e-19
6.66816e-19
4.76913e-19
3.50444e-19
4.21781e-19
2.81019e-19
3.05309e-19
6.79028e-19
5.81877e-19
4.10177e-19
6.13148e-19
6.2478e-19
5.69401e-19
6.23713e-19
5.61956e-19
4.80448e-19
4.16881e-19
5.09179e-19
3.83859e-19
4.08504e-19
4.4179e-19
4.31461e-19
3.71898e-19
2.95849e-19
2.06455e-19
1.19217e-19
3.70353e-19
9.6703e-21
1.60994e-19
3.33582e-19
-2.2863e-19
1.40766e-19
-1.83569e-20
1.3244e-19
1.39099e-20
-3.3371e-19
-4.38255e-19
-6.504e-19
-1.09764e-18
-1.34276e-18
-1.35611e-18
-1.55521e-18
-7.14743e-19
-4.5874e-19
9.84039e-19
1.67327e-18
1.84512e-18
2.28064e-18
2.66281e-18
3.07039e-18
3.47691e-18
3.00193e-18
2.84177e-18
2.88186e-19
2.87353e-19
2.9661e-19
2.66285e-19
2.74274e-19
2.67931e-19
2.96964e-19
2.53407e-19
2.67689e-19
3.03558e-19
3.2461e-19
3.11916e-19
3.41187e-19
3.3942e-19
3.71049e-19
3.90101e-19
4.13262e-19
4.28096e-19
4.61921e-19
4.61431e-19
4.8785e-19
5.18544e-19
5.16708e-19
5.20443e-19
5.34347e-19
5.56169e-19
5.1401e-19
5.12444e-19
5.41513e-19
5.35156e-19
5.61207e-19
5.71757e-19
5.65784e-19
5.67511e-19
5.49454e-19
5.54393e-19
5.47183e-19
5.61958e-19
5.57269e-19
5.69655e-19
5.6343e-19
5.77302e-19
5.72883e-19
5.84075e-19
5.77686e-19
5.8174e-19
5.80082e-19
5.78388e-19
5.61007e-19
5.58775e-19
5.43298e-19
5.45139e-19
5.27285e-19
4.84065e-19
4.57963e-19
4.3048e-19
4.13039e-19
3.96131e-19
7.32413e-19
2.78887e-18
3.80765e-18
4.30425e-18
4.69965e-18
3.53168e-18
2.16029e-18
1.37845e-18
7.76798e-19
5.36444e-19
3.30505e-19
1.89663e-19
2.89942e-19
1.71648e-19
2.12137e-19
4.667e-19
4.24119e-19
2.54619e-19
3.75945e-19
3.29291e-19
3.1527e-19
2.994e-19
4.35901e-19
3.97211e-19
3.53066e-19
4.52705e-19
4.94052e-19
3.68618e-19
3.6576e-19
2.86731e-19
3.32664e-19
2.84191e-19
1.93077e-19
6.15771e-20
2.52731e-19
-1.89693e-19
1.43281e-19
3.98391e-19
7.30523e-20
-9.5377e-20
2.38234e-19
-7.11662e-20
-2.2732e-19
1.40554e-19
-5.88155e-19
-6.62136e-19
-1.05809e-18
-1.50391e-18
-1.39611e-18
-1.03832e-18
-9.04867e-20
1.76508e-19
1.73245e-18
2.51548e-18
3.18181e-18
3.27483e-18
3.59757e-18
3.74468e-18
3.69535e-18
3.41669e-18
3.2383e-18
4.97426e-19
4.97148e-19
5.08431e-19
4.80808e-19
4.8627e-19
4.84125e-19
5.04472e-19
4.88009e-19
5.01154e-19
4.83719e-19
4.97433e-19
5.19778e-19
5.32693e-19
5.51055e-19
5.84013e-19
5.84848e-19
5.96133e-19
6.27919e-19
6.54701e-19
6.53473e-19
6.77859e-19
6.50831e-19
6.67046e-19
6.52925e-19
6.56759e-19
6.42916e-19
6.19729e-19
6.00797e-19
5.69118e-19
5.58372e-19
5.61886e-19
5.69634e-19
5.45228e-19
5.57628e-19
5.53619e-19
5.61959e-19
5.53763e-19
5.55186e-19
5.49832e-19
5.49769e-19
5.40834e-19
5.40745e-19
5.34184e-19
5.35009e-19
5.37522e-19
5.31704e-19
5.32572e-19
5.23225e-19
5.30025e-19
5.1192e-19
5.07836e-19
4.93976e-19
4.50967e-19
4.07245e-19
3.60583e-19
3.30555e-19
3.11251e-19
3.0354e-19
9.2056e-19
2.04515e-18
2.09811e-18
2.22644e-18
2.57389e-18
2.51211e-18
1.86781e-18
9.23041e-19
5.9856e-19
2.12094e-19
2.0168e-19
2.12701e-20
9.95636e-21
-6.33296e-22
5.0331e-20
1.31683e-19
1.96306e-19
-7.63548e-20
-1.03265e-20
1.06402e-20
7.98378e-20
8.93191e-20
3.14304e-19
3.93739e-19
3.58774e-19
4.20255e-19
4.52638e-19
5.55715e-19
4.76078e-19
3.34483e-19
3.76907e-19
3.07398e-19
2.10938e-19
2.12683e-19
1.6248e-19
2.48869e-20
-9.39112e-21
7.69181e-20
1.25722e-21
-3.23293e-19
-9.53471e-21
3.5054e-20
-7.5057e-20
-2.05086e-19
-4.9058e-19
-8.29278e-19
-1.04562e-18
-1.57831e-18
-1.01298e-18
-8.6508e-19
1.12809e-19
9.36492e-19
2.08401e-18
2.63543e-18
3.71995e-18
4.19133e-18
3.5967e-18
3.59353e-18
3.60509e-18
3.65126e-18
4.00183e-18
8.45701e-19
8.41826e-19
8.63543e-19
8.6461e-19
8.34304e-19
8.38349e-19
7.41222e-19
7.69628e-19
8.01174e-19
7.69335e-19
7.51961e-19
7.58297e-19
7.16022e-19
7.90336e-19
7.62894e-19
7.60098e-19
7.31419e-19
7.14942e-19
7.25804e-19
7.08448e-19
6.77869e-19
6.36303e-19
6.40477e-19
6.02821e-19
5.96181e-19
5.8864e-19
5.24276e-19
5.40362e-19
4.4141e-19
4.37273e-19
4.16875e-19
4.15313e-19
3.69182e-19
3.50595e-19
3.67294e-19
3.58249e-19
3.70212e-19
3.55044e-19
3.4847e-19
3.37004e-19
3.48345e-19
3.33296e-19
3.23127e-19
3.14384e-19
3.0021e-19
3.21428e-19
2.90532e-19
2.80571e-19
2.70864e-19
2.70105e-19
2.2532e-19
1.76795e-19
1.73582e-19
1.65756e-19
1.56304e-19
1.37438e-19
1.29808e-19
1.0496e-19
4.43756e-19
5.35526e-19
3.51453e-19
4.28973e-19
6.9915e-19
8.60656e-19
7.64169e-19
5.13156e-19
2.5893e-19
2.94017e-20
-5.2054e-20
-1.3572e-19
-3.20952e-19
-2.72202e-19
-2.85521e-19
-2.48308e-19
-3.09367e-19
-3.17023e-19
-3.43272e-19
-2.13648e-19
-5.88326e-20
-4.71848e-20
2.64224e-19
3.0169e-19
3.8006e-19
2.79105e-19
3.63291e-19
4.64794e-19
4.72375e-19
5.02878e-19
4.69909e-19
3.69147e-19
2.57792e-19
1.94208e-20
1.38864e-19
2.33461e-19
-1.34864e-19
2.31293e-20
9.01159e-20
-6.30116e-20
-2.63843e-19
-1.55529e-19
-2.43122e-19
-2.88179e-19
-5.13261e-19
-6.21165e-19
-1.32537e-18
-1.14836e-18
-1.07407e-18
-3.96945e-19
6.49253e-19
1.0885e-18
2.44121e-18
2.88271e-18
3.62573e-18
3.50672e-18
3.72767e-18
2.95019e-18
2.93509e-18
2.65724e-18
2.67184e-18
1.1188e-18
1.11484e-18
1.07084e-18
1.07285e-18
1.06801e-18
1.05185e-18
1.06433e-18
1.07182e-18
9.39938e-19
9.14481e-19
9.18354e-19
8.66548e-19
8.2715e-19
7.82489e-19
7.33727e-19
7.00645e-19
6.82136e-19
6.31502e-19
5.53182e-19
5.08342e-19
4.66413e-19
4.60937e-19
3.91576e-19
3.7243e-19
3.5112e-19
3.29216e-19
3.16984e-19
2.14675e-19
2.56295e-19
1.88979e-19
1.91335e-19
1.55144e-19
1.29971e-19
1.10586e-19
8.36167e-20
8.51128e-20
5.92479e-20
4.77649e-20
6.62889e-20
4.09001e-20
2.19422e-20
6.58359e-21
4.5253e-21
2.05997e-21
-7.95438e-21
-1.67407e-20
-6.74997e-20
-6.69934e-20
-8.16023e-20
-9.67114e-20
-9.74152e-20
-9.69554e-20
-8.20564e-20
-6.92758e-20
-5.91776e-20
-5.55281e-20
-5.73726e-20
-1.24263e-19
-5.34161e-19
-6.34648e-19
-5.41844e-19
-4.68192e-19
-1.79879e-19
3.14469e-20
1.02201e-19
1.08815e-19
5.45497e-20
-7.05048e-20
-2.21442e-19
-2.69004e-19
-4.14704e-19
-5.50375e-19
-4.60053e-19
-4.01778e-19
-3.64095e-19
-4.6553e-19
-3.00618e-19
-4.28781e-19
-1.74568e-19
-1.82751e-20
5.64049e-20
1.88405e-19
5.12035e-19
4.6856e-19
5.35807e-19
5.7187e-19
6.09325e-19
5.92057e-19
5.49686e-19
4.36845e-19
3.14668e-19
1.04193e-19
-1.10512e-20
-1.14335e-20
2.74113e-19
2.24232e-19
-2.58616e-19
-3.96752e-19
2.91908e-20
-3.19083e-19
-5.21522e-19
-6.48868e-19
-3.44335e-19
-1.15889e-18
-1.05267e-18
-1.15844e-18
-9.28884e-19
1.32185e-19
1.4814e-18
2.23457e-18
3.24765e-18
3.7568e-18
4.06739e-18
3.08861e-18
2.93382e-18
2.64006e-18
2.26111e-18
2.54491e-18
2.72611e-18
1.2111e-18
1.20014e-18
1.17728e-18
1.18019e-18
1.19929e-18
1.19539e-18
1.18415e-18
1.15822e-18
1.11672e-18
1.08938e-18
8.96423e-19
8.52471e-19
8.47221e-19
6.97768e-19
6.59161e-19
5.5747e-19
5.03367e-19
3.69136e-19
2.94693e-19
2.86205e-19
2.30703e-19
1.84892e-19
1.31975e-19
1.25232e-19
4.57264e-20
1.17756e-20
-2.84684e-20
-2.43506e-20
-1.22444e-20
-1.81081e-20
-8.07565e-20
-1.1506e-19
-5.8483e-20
-8.80854e-20
-1.00661e-19
-1.49534e-19
-1.37624e-19
-1.82491e-19
-1.62896e-19
-2.01412e-19
-1.60082e-19
-1.98001e-19
-1.81634e-19
-2.09221e-19
-1.82045e-19
-1.96439e-19
-1.97547e-19
-1.97057e-19
-2.27326e-19
-2.07494e-19
-2.24476e-19
-2.07897e-19
-2.05862e-19
-1.93512e-19
-1.83657e-19
-1.78652e-19
-1.61421e-19
-6.03434e-19
-1.52748e-18
-1.28963e-18
-1.20246e-18
-8.58121e-19
-6.5367e-19
-5.10214e-19
-5.5137e-19
-3.75224e-19
-2.41255e-19
-2.05017e-19
-1.77452e-19
-2.98028e-19
-3.99356e-19
-4.96591e-19
-6.2816e-19
-4.5533e-19
-4.54436e-19
-4.9896e-19
-3.53296e-19
-2.23411e-19
-4.90808e-19
5.56278e-20
1.42755e-19
3.24959e-19
5.85736e-19
5.71154e-19
6.27462e-19
6.23058e-19
6.26592e-19
6.55971e-19
6.20267e-19
4.65399e-19
3.30233e-19
1.40073e-19
2.17239e-19
1.57777e-19
-7.06664e-20
-3.73739e-20
-3.02889e-19
-3.72747e-19
-4.07165e-19
-4.19522e-19
-2.82971e-19
-5.89981e-19
-7.01698e-19
-1.06871e-18
-1.62675e-18
-6.77455e-19
-3.40076e-19
5.12397e-19
1.53299e-18
3.09236e-18
3.58399e-18
4.27698e-18
3.77271e-18
2.86214e-18
2.04866e-18
1.03339e-18
1.21037e-20
7.17021e-20
8.59397e-19
9.24373e-19
9.77618e-19
9.49018e-19
9.29108e-19
8.31226e-19
7.92153e-19
7.77037e-19
7.38256e-19
7.45395e-19
7.26586e-19
6.95394e-19
6.56745e-19
5.77628e-19
5.29767e-19
4.03733e-19
3.46967e-19
2.58938e-19
2.38766e-19
2.00013e-19
9.09878e-20
-5.76949e-22
-7.51829e-21
-5.39917e-20
-7.61617e-20
-1.14979e-19
-1.33423e-19
-1.15349e-19
-1.28897e-19
-1.39082e-19
-1.62334e-19
-1.37369e-19
-1.68229e-19
-1.88091e-19
-2.00497e-19
-1.95322e-19
-2.24277e-19
-2.05295e-19
-2.35142e-19
-2.28744e-19
-2.63083e-19
-2.48301e-19
-2.61135e-19
-2.50446e-19
-2.50288e-19
-2.52241e-19
-2.55799e-19
-2.61697e-19
-2.71382e-19
-2.65907e-19
-2.80485e-19
-2.86987e-19
-2.64558e-19
-2.68452e-19
-2.48494e-19
-2.41077e-19
-2.29766e-19
-2.35417e-19
-1.35063e-18
-1.99784e-18
-1.71553e-18
-1.49173e-18
-1.27807e-18
-1.11862e-18
-1.05622e-18
-8.96526e-19
-4.68247e-19
-4.05473e-19
-1.54463e-19
-1.88598e-19
-2.04894e-19
-2.49332e-19
-3.9264e-19
-4.61286e-19
-4.53095e-19
-2.21829e-19
-3.64911e-19
-1.53353e-19
-2.33677e-19
-1.42616e-19
-2.31658e-19
-8.5849e-20
2.25904e-19
4.81547e-19
5.37039e-19
6.2496e-19
5.48793e-19
6.2991e-19
7.2027e-19
7.83749e-19
6.45045e-19
3.61062e-19
1.32333e-19
2.96824e-19
-4.0623e-19
1.6562e-19
-8.12555e-20
-2.80638e-19
1.40115e-19
-5.36408e-19
-1.07269e-18
-6.31449e-19
-1.14465e-18
-5.02019e-19
-9.59667e-19
-1.4724e-18
-6.9554e-19
-1.53989e-19
1.085e-18
1.70708e-18
2.7859e-18
3.88103e-18
3.81708e-18
3.55032e-18
9.60414e-19
2.25173e-19
4.92448e-19
6.52648e-19
1.49162e-18
1.15708e-18
2.11003e-19
1.91008e-19
2.6012e-19
2.10536e-19
3.36505e-19
3.36883e-19
4.02302e-19
4.18919e-19
4.2961e-19
4.13243e-19
4.65843e-19
4.08658e-19
3.45402e-19
3.26581e-19
2.82046e-19
2.58771e-19
1.83783e-19
2.06712e-19
1.23479e-19
1.33571e-19
4.96344e-20
6.68784e-20
4.99469e-21
-3.70897e-20
-7.52002e-20
-8.53649e-20
-1.33334e-19
-1.66563e-19
-1.93427e-19
-2.07432e-19
-2.03751e-19
-2.37694e-19
-2.33617e-19
-2.20458e-19
-2.27598e-19
-2.6258e-19
-2.37398e-19
-2.64032e-19
-2.51182e-19
-2.58097e-19
-2.56164e-19
-2.66158e-19
-2.68458e-19
-2.53136e-19
-2.79438e-19
-2.56714e-19
-2.67783e-19
-2.58336e-19
-2.67999e-19
-2.49994e-19
-2.3575e-19
-2.40514e-19
-2.3612e-19
-2.17676e-19
-2.15775e-19
-2.02048e-19
-2.56667e-19
-1.75342e-18
-1.97258e-18
-1.85164e-18
-1.68755e-18
-1.50611e-18
-1.32906e-18
-1.1211e-18
-6.66174e-19
-2.85534e-19
-8.77974e-20
-5.12078e-20
4.83946e-20
-1.90347e-19
-8.16518e-20
-1.70739e-19
-2.07002e-19
-3.42602e-19
-2.28662e-19
-2.74586e-19
-1.8446e-19
-3.23876e-19
-2.66317e-19
-1.17175e-19
-1.90318e-19
4.34239e-19
4.08344e-19
6.47445e-19
8.77751e-19
6.89489e-19
6.93923e-19
8.18052e-19
8.78753e-19
7.29705e-19
4.0794e-19
3.90044e-19
8.70207e-19
-5.29937e-19
2.14397e-19
1.24561e-20
-2.50405e-19
1.79397e-19
-6.04374e-19
-6.29024e-19
-7.79987e-19
-8.64514e-19
-1.11607e-18
-3.35156e-19
-1.64535e-18
-7.78031e-19
5.09322e-19
7.972e-19
2.76355e-18
3.66625e-18
2.92582e-18
3.52454e-18
3.70647e-18
1.83215e-18
-5.92249e-20
5.42637e-19
2.00127e-20
3.40093e-20
8.85834e-20
-1.81544e-19
-1.82858e-19
-2.16656e-19
-2.95336e-19
-2.11256e-19
-1.3808e-19
-1.43529e-19
-1.0947e-19
-9.77334e-20
-3.9464e-20
-4.80987e-20
-1.90633e-20
5.41196e-20
4.31754e-20
1.84077e-20
8.9724e-21
2.25973e-20
-1.95116e-20
-2.21466e-20
-9.99801e-20
-9.25423e-20
-1.11144e-19
-1.89775e-19
-1.81057e-19
-1.93691e-19
-2.13121e-19
-2.51671e-19
-2.48074e-19
-2.66303e-19
-2.44424e-19
-2.60891e-19
-2.55803e-19
-2.29947e-19
-2.61391e-19
-2.33681e-19
-2.40291e-19
-2.23624e-19
-2.22823e-19
-1.98034e-19
-2.2837e-19
-1.87187e-19
-2.1396e-19
-1.75397e-19
-2.19019e-19
-1.95601e-19
-2.06627e-19
-1.92922e-19
-2.0751e-19
-2.1227e-19
-1.93574e-19
-1.89509e-19
-1.82525e-19
-1.76812e-19
-1.64569e-19
-1.58255e-19
-1.52447e-19
-4.91443e-19
-1.6492e-18
-1.78801e-18
-1.73927e-18
-1.65535e-18
-1.57072e-18
-1.34061e-18
-9.76428e-19
-3.44031e-19
-8.74677e-20
8.87487e-20
1.25848e-19
1.36537e-19
6.15275e-20
-1.8082e-19
7.7717e-20
-1.7186e-19
-1.89792e-19
-2.4528e-20
-2.60698e-19
1.85769e-19
-1.91753e-19
-6.3913e-19
-5.93118e-20
-3.65144e-20
-3.50673e-20
3.16445e-20
5.85702e-19
4.84573e-19
9.08148e-19
8.54294e-19
9.10954e-19
9.27475e-19
7.69837e-19
5.18005e-19
5.87273e-19
7.49269e-19
-8.04954e-20
4.03072e-19
4.05198e-19
-2.41443e-19
4.0892e-19
-4.51557e-19
4.70143e-20
-1.24695e-18
-8.84743e-19
-7.18355e-19
-1.00104e-18
-1.46983e-19
-7.36436e-19
5.63654e-19
1.29196e-18
2.589e-18
4.17302e-18
3.7682e-18
1.49563e-18
1.34799e-18
7.28507e-19
1.21327e-18
1.25555e-18
5.25734e-19
8.85574e-19
9.42599e-19
-5.30696e-19
-5.07341e-19
-4.87892e-19
-4.47495e-19
-4.573e-19
-3.75171e-19
-4.40688e-19
-5.19173e-19
-5.12256e-19
-4.0453e-19
-3.55984e-19
-2.48025e-19
-3.1787e-19
-2.25933e-19
-2.00322e-19
-2.39613e-19
-2.04577e-19
-3.34408e-19
-3.08546e-19
-3.15027e-19
-3.36018e-19
-4.52432e-19
-3.1809e-19
-3.89381e-19
-3.68566e-19
-3.82232e-19
-3.18835e-19
-3.33298e-19
-2.84337e-19
-3.00048e-19
-2.91022e-19
-2.40645e-19
-2.40946e-19
-2.19147e-19
-2.22601e-19
-1.97865e-19
-1.73124e-19
-1.89363e-19
-1.6287e-19
-1.74139e-19
-1.58966e-19
-1.54467e-19
-1.46831e-19
-1.35914e-19
-1.53203e-19
-1.10439e-19
-1.3566e-19
-1.19561e-19
-8.77152e-20
-1.02669e-19
-9.80555e-20
-9.03506e-20
-7.55433e-20
-6.68776e-20
-5.89846e-20
-4.5192e-20
-5.11068e-19
-1.30188e-18
-1.38498e-18
-1.40011e-18
-1.41377e-18
-1.30376e-18
-9.20288e-19
-4.06872e-19
-1.10927e-20
2.90073e-19
1.70044e-19
2.22333e-19
8.74229e-20
8.26943e-20
1.57976e-19
5.51019e-20
-9.5997e-20
-2.265e-19
-1.58416e-19
-2.37408e-19
-1.40102e-19
-2.37231e-19
-1.79415e-19
-3.25548e-19
-2.21362e-19
1.79712e-19
1.15351e-19
1.76674e-19
5.1537e-19
2.40988e-19
5.47933e-19
4.77332e-19
1.14767e-18
9.60847e-19
6.22318e-19
5.69599e-19
9.58756e-19
8.66235e-19
7.39123e-19
3.05883e-19
-2.61655e-19
9.57851e-19
-5.89009e-19
2.74435e-19
-4.76283e-19
-6.7003e-19
-2.92185e-19
1.32494e-19
-1.24718e-19
9.06678e-20
1.09413e-18
2.12241e-18
1.963e-18
3.61304e-18
2.59698e-18
2.04778e-18
1.43045e-18
1.73928e-19
5.81501e-19
3.59583e-19
1.25148e-19
3.46121e-19
3.49409e-19
-8.50306e-19
-8.10167e-19
-7.61657e-19
-4.97543e-19
-5.08761e-19
-7.21016e-19
-5.86667e-19
-5.76335e-19
-5.15174e-19