/*--------------------------------*- C++ -*----------------------------------*\
| =========                 |                                                 |
| \\      /  F ield         | OpenFOAM: The Open Source CFD Toolbox           |
|  \\    /   O peration     | Version:  2.2.x                                 |
|   \\  /    A nd           | Web:      www.OpenFOAM.org                      |
|    \\/     M anipulation  |                                                 |
\*---------------------------------------------------------------------------*/
FoamFile
{
    version     2.0;
    format      ascii;
    class       surfaceScalarField;
    location    "0.45";
    object      cfmax;
}
// * * * * * * * * * * * * * * * * * * * * * * * * * * * * * * * * * * * * * //

dimensions      [0 3 -1 0 0 0 0];

internalField   nonuniform List<scalar> 
28084
(
0.00124377
0.00123837
0.00123374
0.00122985
0.00122665
0.00122412
0.00122221
0.00122089
0.00122011
0.00121983
0.00122
0.00122059
0.00122154
0.00122282
0.00122438
0.00122618
0.00122819
0.00123036
0.00123266
0.00123506
0.00123753
0.00124
0.00124249
0.00124496
0.00124738
0.00124974
0.00125198
0.00125408
0.00125606
0.00125788
0.00125952
0.00126101
0.00126224
0.00126325
0.001264
0.00126456
0.00126485
0.00126487
0.00126463
0.00126411
0.0012633
0.00126218
0.00126077
0.00125909
0.00125714
0.00127267
0.00128881
0.00130548
0.00132255
0.00133995
0.00135759
0.00137537
0.00139335
0.0014114
0.00142943
0.00144683
0.00146371
0.0014806
0.00149633
0.00100414
0.000940268
0.000967259
0.000990933
0.00101094
0.00103115
0.00105015
0.00106862
0.00108441
0.00109795
0.00110963
0.00111916
0.00112765
0.00113622
0.00114252
0.00114902
0.00115324
0.00115593
0.00115927
0.00116693
0.00117124
0.00117519
0.00118337
0.00119449
0.00124768
0.00124256
0.00113811
0.00103755
0.000968481
0.000924982
0.000896246
0.000873855
0.000856911
0.000843926
0.000832976
0.000822953
0.000813828
0.000805582
0.000798225
0.000791676
0.000785862
0.000780914
0.000776719
0.00077352
0.000771243
0.000770043
0.000769989
0.000772003
0.00077609
0.00078239
0.000790585
0.000800714
0.000812436
0.000825253
0.000839346
0.000854511
0.000869467
0.000881561
0.000887264
0.00289018
0.00288567
0.00124963
0.00287505
0.00124803
0.0028584
0.00124716
0.00283586
0.00124697
0.00280762
0.00124743
0.00277392
0.00124852
0.00273501
0.0012502
0.00269122
0.00125242
0.00264288
0.00125513
0.00259055
0.0012583
0.00253471
0.00126187
0.00247541
0.00126581
0.00241307
0.00127005
0.0023481
0.00127457
0.00228092
0.0012793
0.00221191
0.0012842
0.00214149
0.00128924
0.00207003
0.00129437
0.0019979
0.00129957
0.00192545
0.00130475
0.00185298
0.00130992
0.0017808
0.00131505
0.00170919
0.0013201
0.0016384
0.001325
0.00156864
0.00132977
0.0015001
0.00133439
0.00143296
0.00133881
0.00136736
0.00134303
0.00130345
0.00134698
0.00124132
0.00135068
0.00118106
0.00135413
0.00112271
0.00135732
0.00106634
0.00136017
0.00101198
0.00136269
0.000959656
0.00136488
0.000909368
0.00136677
0.000861389
0.00136831
0.000815429
0.00136951
0.000771466
0.00137036
0.000729463
0.00137085
0.000689386
0.00137097
0.000651188
0.00137069
0.000614827
0.00137003
0.000580256
0.00136904
0.000588504
0.00136769
0.000588968
0.0013824
0.000589488
0.00139766
0.000590068
0.0014134
0.000590688
0.0014295
0.000591348
0.0014459
0.000592052
0.00146246
0.000592811
0.00147924
0.00059363
0.00149615
0.000594461
0.0015131
0.000595289
0.00152999
0.000596086
0.00154674
0.000597128
0.00156382
0.0005968
0.00158033
0.000608725
0.0015957
0.000620886
0.00113495
0.000640246
0.00103587
0.00063954
0.00105305
0.00064001
0.0010723
0.000644757
0.00109139
0.000648984
0.00111015
0.00065304
0.00112748
0.000656432
0.00114294
0.000659275
0.00115738
0.000661284
0.00117108
0.000663223
0.00118135
0.000665796
0.00119022
0.000668231
0.00119709
0.000671241
0.00120288
0.000675135
0.00120807
0.00067953
0.00121141
0.000684162
0.00121522
0.000689156
0.00121731
0.000696029
0.00121931
0.000702322
0.00122652
0.000707963
0.00123002
0.000712623
0.00123295
0.000719528
0.00123994
0.000727597
0.00125667
0.000736936
0.00129108
0.000743406
0.00128413
0.000760428
0.00115797
0.000742681
0.00108779
0.000715252
0.00102593
0.000699578
0.000977045
0.000691502
0.000944272
0.000684594
0.000919361
0.000681935
0.000899397
0.000681818
0.000883564
0.00068289
0.000870085
0.000685054
0.00085769
0.000687807
0.000846082
0.000691104
0.000835227
0.000694818
0.000825431
0.000698918
0.000816496
0.000703193
0.000808561
0.000707752
0.000801861
0.000712005
0.000796472
0.000716452
0.000792298
0.000721301
0.000788973
0.000726065
0.000786557
0.000729639
0.000785096
0.000734506
0.000784061
0.000739779
0.000783955
0.000745272
0.00078571
0.000751409
0.00078987
0.000757475
0.000795909
0.000765052
0.000803272
0.000772109
0.000811903
0.000780967
0.00082214
0.000790158
0.000832745
0.000805404
0.000844532
0.000818614
0.000856983
0.00083817
0.00087622
0.00289133
0.00288637
0.00125746
0.00287532
0.00125961
0.00285826
0.00126244
0.00283533
0.00126591
0.00280672
0.00126999
0.00277267
0.00127466
0.00273451
0.00127988
0.00269167
0.00128559
0.00264419
0.00129176
0.00259245
0.00129834
0.00253683
0.00130528
0.00247772
0.00131253
0.00241554
0.00132003
0.0023507
0.00132774
0.00228361
0.00133561
0.00221468
0.00134359
0.00214431
0.00135163
0.00207288
0.00135968
0.00200075
0.00136772
0.00192826
0.00137568
0.00185576
0.00138356
0.00178352
0.00139127
0.00171184
0.00139882
0.00164094
0.00140616
0.00157106
0.00141329
0.00150241
0.00142015
0.00143513
0.00142669
0.00136941
0.00143295
0.00130534
0.0014389
0.00124304
0.0014445
0.00118261
0.00144972
0.00112409
0.00145459
0.00106755
0.00145904
0.001013
0.00146307
0.000960496
0.00146667
0.000910026
0.00146991
0.000861575
0.0014727
0.000815141
0.00147505
0.000771252
0.00147697
0.00072945
0.00147846
0.000689577
0.0014795
0.000651583
0.00148007
0.000615427
0.00148017
0.000581059
0.00147986
0.000597609
0.00147912
0.000598407
0.00149297
0.000599216
0.00150734
0.000600032
0.00152212
0.000600851
0.00153723
0.000601663
0.00155256
0.000602489
0.00156807
0.000603302
0.00158368
0.000604127
0.00159922
0.000604915
0.0016147
0.000605893
0.00163055
0.000607021
0.00164734
0.000608679
0.00166639
0.000608796
0.0016838
0.000638712
0.00169937
0.000651046
0.00119616
0.000643904
0.00109111
0.000638968
0.00110284
0.000639147
0.00111959
0.000641182
0.001137
0.000645055
0.00115322
0.000649867
0.00117068
0.000653703
0.001186
0.000657119
0.0012023
0.000659326
0.00121632
0.000661187
0.00122624
0.000663447
0.00123424
0.000665572
0.00124127
0.000667789
0.00124617
0.000670556
0.00125005
0.000674063
0.00125247
0.000678149
0.0012544
0.000683059
0.00125551
0.000690636
0.00125614
0.000697766
0.00126213
0.000703092
0.0012652
0.000708183
0.00126834
0.00071587
0.00127713
0.000730179
0.00131394
0.000735386
0.00130495
0.000768199
0.00128534
0.000794145
0.00117481
0.000788982
0.00111015
0.000753872
0.00105813
0.000723176
0.00100162
0.000703758
0.000960286
0.000692277
0.000931746
0.000686969
0.000910958
0.000685688
0.000895259
0.000685898
0.000881832
0.000687647
0.000869121
0.000690791
0.000856973
0.000694115
0.000845464
0.000697779
0.000834793
0.000701765
0.000824856
0.000705802
0.000815696
0.000710082
0.000807482
0.000714533
0.000800318
0.000719425
0.000794234
0.000724881
0.000789328
0.000730213
0.000785676
0.000735502
0.000783579
0.000740839
0.000782783
0.000745793
0.000783168
0.000751045
0.000784242
0.00075786
0.000785722
0.000765101
0.000788275
0.000774322
0.000792593
0.00078229
0.000799179
0.000793996
0.000807218
0.00080398
0.0008165
0.000820141
0.000829346
0.00082702
0.000846124
0.000860596
0.000866862
0.00289023
0.00288486
0.00126725
0.0028734
0.0012731
0.00285596
0.00127958
0.0028343
0.00128666
0.00280758
0.00129431
0.0027753
0.00130251
0.00273773
0.00131122
0.00269516
0.00132038
0.00264793
0.00132996
0.00259641
0.00133991
0.00254097
0.00135017
0.00248202
0.00136068
0.00241996
0.00137141
0.00235521
0.00138228
0.00228818
0.00139324
0.00221929
0.00140425
0.00214891
0.00141526
0.00207746
0.0014262
0.00200528
0.00143705
0.00193272
0.00144775
0.00186011
0.00145827
0.00178776
0.00146856
0.00171594
0.0014786
0.00164489
0.00148835
0.00157485
0.00149776
0.001506
0.00150683
0.00143854
0.00151553
0.00137262
0.00152383
0.00130834
0.00153173
0.00124583
0.00153914
0.00118518
0.00154611
0.00112644
0.00155266
0.00106965
0.00155871
0.00101488
0.00156425
0.000962144
0.00156925
0.00091144
0.00157378
0.00086275
0.00157782
0.000816073
0.00158133
0.00077139
0.00158431
0.000728925
0.00158679
0.000689301
0.00158874
0.000651557
0.00159015
0.000615646
0.00159102
0.000581524
0.00159137
0.00060639
0.00159123
0.000607498
0.00160427
0.00060857
0.00161769
0.000609601
0.00163146
0.000610604
0.00164551
0.000611535
0.00165979
0.000612399
0.0016742
0.000613208
0.00168853
0.000614
0.0017028
0.00061479
0.00171682
0.000615669
0.00173085
0.000616699
0.00174458
0.000618155
0.00175879
0.00061936
0.00177269
0.00070048
0.00178423
0.00066983
0.00121091
0.000659179
0.00112317
0.000651982
0.00114079
0.000652981
0.00115841
0.000655533
0.00117802
0.000659885
0.00119862
0.000663272
0.00121799
0.000665486
0.00123627
0.000668665
0.00125347
0.000669141
0.00126844
0.0006707
0.00128183
0.00067212
0.00128983
0.00067327
0.00129767
0.000674681
0.00130304
0.000676478
0.00130532
0.000679906
0.00130684
0.000684062
0.00130745
0.000689088
0.00130783
0.000697275
0.001309
0.000704764
0.00131437
0.000710467
0.00131621
0.000715557
0.00132279
0.000725617
0.00132895
0.000743851
0.00138198
0.000754706
0.00137536
0.000802905
0.00130332
0.00082967
0.00122129
0.000821564
0.00116959
0.000786397
0.00112384
0.000749192
0.00106201
0.000722603
0.00100662
0.000705653
0.000969428
0.000697588
0.000941549
0.000694622
0.000919887
0.000694238
0.000901408
0.000695699
0.000884637
0.000697809
0.000869116
0.000700171
0.000854857
0.000703357
0.00084194
0.00070692
0.0008302
0.000710791
0.000819586
0.000715035
0.000810127
0.000720003
0.000801931
0.000725426
0.000794911
0.000731286
0.000789216
0.000736969
0.000784923
0.000742762
0.000781887
0.000748844
0.000780326
0.000755049
0.00077999
0.000761744
0.000781057
0.000769601
0.000783191
0.000776692
0.000786729
0.000786437
0.0007912
0.000794608
0.000797013
0.000806515
0.000804917
0.000812368
0.000814397
0.000828324
0.000827197
0.000833958
0.000845466
0.000874281
0.000865993
0.00288693
0.00288241
0.00127901
0.00287391
0.00128849
0.00285931
0.00129856
0.00283872
0.0013092
0.00281233
0.00132037
0.00278036
0.00133204
0.00274307
0.00134419
0.00270075
0.00135675
0.00265374
0.00136969
0.0026024
0.00138296
0.00254712
0.00139649
0.00248829
0.00141023
0.00242632
0.00142412
0.00236162
0.0014381
0.00229462
0.00145212
0.0022257
0.00146612
0.00215529
0.00148004
0.00208376
0.00149384
0.00201148
0.00150746
0.0019388
0.00152086
0.00186604
0.001534
0.00179351
0.00154682
0.0017215
0.00155931
0.00165025
0.00157141
0.00157998
0.00158311
0.0015109
0.00159437
0.00144318
0.00160517
0.001377
0.00161546
0.00131247
0.00162525
0.00124968
0.00163452
0.00118875
0.00164326
0.00112973
0.00165143
0.00107267
0.00165903
0.00101762
0.00166608
0.000964581
0.00167249
0.000913588
0.00167828
0.000864611
0.00168351
0.00081765
0.00168819
0.000772681
0.00169223
0.000729666
0.00169568
0.000688567
0.00169855
0.000651101
0.00170079
0.000615484
0.00170242
0.000581653
0.00170346
0.00061486
0.00170393
0.000616263
0.00171613
0.000617579
0.00172865
0.000618797
0.00174146
0.00061993
0.00175446
0.000620967
0.00176747
0.000621904
0.00178058
0.000622736
0.00179367
0.000623475
0.00180674
0.000624073
0.00181942
0.000624514
0.00183131
0.00062515
0.00184196
0.000625409
0.00185177
0.000627045
0.00186101
0.000705049
0.00187005
0.000673539
0.0012455
0.00066376
0.00117083
0.000658022
0.00118869
0.000661854
0.00120952
0.000666352
0.00123086
0.000672716
0.00125512
0.000677967
0.00127925
0.000680473
0.00129999
0.000681937
0.00131582
0.000681317
0.00133236
0.000682682
0.00134331
0.000684644
0.00135439
0.000683036
0.00136006
0.000684076
0.00136416
0.000685389
0.0013654
0.000688337
0.00136621
0.000692717
0.00136593
0.000696951
0.00136562
0.000706124
0.0013657
0.000715344
0.00137115
0.000722442
0.00137318
0.000727007
0.00138084
0.000745838
0.00141851
0.000755102
0.00141579
0.000787119
0.00140728
0.000852263
0.0013107
0.000868904
0.0012704
0.000862285
0.00122559
0.000830166
0.00118055
0.00078774
0.00111726
0.000754231
0.00104828
0.000729017
0.00100203
0.00071573
0.000969615
0.000708772
0.000944473
0.000705726
0.000923174
0.000705272
0.000903574
0.000706655
0.000885101
0.000708478
0.000867949
0.000711311
0.000852066
0.000714864
0.000837545
0.000718889
0.000824525
0.000723299
0.000813112
0.000728667
0.000803312
0.000734193
0.000795209
0.000740163
0.000788885
0.000745899
0.000784504
0.000751796
0.000781483
0.000757772
0.000779992
0.000764607
0.000779812
0.000771796
0.000781424
0.000780214
0.000784396
0.000788026
0.000788815
0.000798672
0.000794296
0.000805279
0.000800496
0.000817079
0.000808252
0.000820617
0.000817954
0.000835975
0.00082995
0.000841351
0.000847736
0.00088753
0.000868725
0.00288994
0.00288798
0.00129274
0.00287984
0.0013058
0.00286557
0.00131939
0.00284532
0.00133351
0.00281923
0.00134814
0.00278754
0.00136323
0.0027505
0.00137875
0.00270841
0.00139466
0.0026616
0.00141091
0.00261042
0.00142743
0.00255527
0.00144418
0.00249652
0.00146109
0.00243461
0.0014781
0.00236993
0.00149515
0.0023029
0.00151217
0.00223393
0.00152911
0.00216343
0.00154591
0.00209178
0.00156251
0.00201935
0.00157886
0.00194649
0.00159491
0.00187353
0.00161062
0.00180078
0.00162594
0.00172852
0.00164083
0.001657
0.00165526
0.00158645
0.0016692
0.00151708
0.0016826
0.00144907
0.00169546
0.00138257
0.00170776
0.00131771
0.00171942
0.0012546
0.00173048
0.00119333
0.00174095
0.00113397
0.00175074
0.00107658
0.00175984
0.00102118
0.00176836
0.000967805
0.00177615
0.000916464
0.00178324
0.000867165
0.00178965
0.000819872
0.00179549
0.00077457
0.00180059
0.000731224
0.00180501
0.000689795
0.00180879
0.000650246
0.00181187
0.000614959
0.00181426
0.000581458
0.00181597
0.00062297
0.00181704
0.000624661
0.00182836
0.000626189
0.00184005
0.000627572
0.00185189
0.000628808
0.00186384
0.000629905
0.00187598
0.000630824
0.00188814
0.000631587
0.00190025
0.000632124
0.00191174
0.000632449
0.00192218
0.000632419
0.00193179
0.000632062
0.00193984
0.000631308
0.00194526
0.000631112
0.00195001
0.000701601
0.00195426
0.000675071
0.00128573
0.000678709
0.00121954
0.000673233
0.0012388
0.000680392
0.00126316
0.000687253
0.00129468
0.000693249
0.00132266
0.000697515
0.00134589
0.000697302
0.00136444
0.000699625
0.00138127
0.000695841
0.00139408
0.000695802
0.00140436
0.000693885
0.00141419
0.000694783
0.00142481
0.000695531
0.0014262
0.000696455
0.00143008
0.000697918
0.00143011
0.000702384
0.00142869
0.000707217
0.00142962
0.000716519
0.00142731
0.000727175
0.00143471
0.000732945
0.00143948
0.00073753
0.00144508
0.000754638
0.00148042
0.000773605
0.00147308
0.000829411
0.00139622
0.000884195
0.0013539
0.000909422
0.00133022
0.000902892
0.00129632
0.000874164
0.00125406
0.000835921
0.00119252
0.000790645
0.00111671
0.000755786
0.00105673
0.00073643
0.00101353
0.000725742
0.00098028
0.000720542
0.000952644
0.000718614
0.000928254
0.000718939
0.000906356
0.000720356
0.000886658
0.000723026
0.00086891
0.000725846
0.000852837
0.00072914
0.000838294
0.000732957
0.000825407
0.000737804
0.000814036
0.000743008
0.000804232
0.000748695
0.000796184
0.000754291
0.000790066
0.0007603
0.000785814
0.000766384
0.000783321
0.0007733
0.000782713
0.000780752
0.000784184
0.000789908
0.000787545
0.000798517
0.000792381
0.00080948
0.000798054
0.000815347
0.000804822
0.000826833
0.000812402
0.000830152
0.000821809
0.000845591
0.000833828
0.000850619
0.000852026
0.000901453
0.000872823
0.00289741
0.00289577
0.00130846
0.00288795
0.00132501
0.00287401
0.00134206
0.00285406
0.0013596
0.00282826
0.00137761
0.00279683
0.00139605
0.00276003
0.00141489
0.00271814
0.00143408
0.00267149
0.00145356
0.00262045
0.00147329
0.00256539
0.0014932
0.00250671
0.00151322
0.00244481
0.00153329
0.0023801
0.00155334
0.00231302
0.00157331
0.00224395
0.00159314
0.00217332
0.00161276
0.0021015
0.00163211
0.00202887
0.00165114
0.00195579
0.0016698
0.00188257
0.00168803
0.00180955
0.0017058
0.00173698
0.00172305
0.00166514
0.00173977
0.00159426
0.0017559
0.00152454
0.00177141
0.00145617
0.0017863
0.00138929
0.00180052
0.00132404
0.00181406
0.00126056
0.00182689
0.0011989
0.00183903
0.00113914
0.00185043
0.00108137
0.00186104
0.00102558
0.00187096
0.000971819
0.00188015
0.000920092
0.00188853
0.000870405
0.00189611
0.000822728
0.00190306
0.000777048
0.00190922
0.00073333
0.00191461
0.000691533
0.00191928
0.000651618
0.00192321
0.000614086
0.00192639
0.000580956
0.00192879
0.000630745
0.00193049
0.00063269
0.001941
0.00063443
0.00195189
0.000635968
0.00196288
0.000637328
0.001974
0.000638464
0.00198514
0.000639373
0.00199598
0.000640004
0.00200628
0.000640277
0.00201564
0.000640417
0.00202461
0.00064023
0.00203251
0.000639475
0.00203957
0.000638272
0.00204614
0.000636668
0.00204993
0.000674921
0.00205262
0.000677499
0.00134137
0.000696496
0.00128739
0.000697476
0.00131082
0.000703205
0.00133779
0.000711303
0.00136885
0.000713803
0.00139842
0.000712131
0.001423
0.000710466
0.0014441
0.000707181
0.00145742
0.000706083
0.00147505
0.000704352
0.0014818
0.000701836
0.0014943
0.000697324
0.00149969
0.000699267
0.00149912
0.0007005
0.00150058
0.000702249
0.00150215
0.000707345
0.00149864
0.000711255
0.00149771
0.000719174
0.00149264
0.000728215
0.00150484
0.000733362
0.00150431
0.000741068
0.00150884
0.000764252
0.00149819
0.000797315
0.00148224
0.000868123
0.00140927
0.000914309
0.00138558
0.000934225
0.00137463
0.00093832
0.0013518
0.000918809
0.00131322
0.000888532
0.00125574
0.000832631
0.00118457
0.000790545
0.0011111
0.000763264
0.00105716
0.000747079
0.00101692
0.000739508
0.00098466
0.000735778
0.000957932
0.000734496
0.00093444
0.000734269
0.000913119
0.000735424
0.00089361
0.000737051
0.000875697
0.000739748
0.000859248
0.000743499
0.000844435
0.00074819
0.000831181
0.000753241
0.000819506
0.000758712
0.000809631
0.000763838
0.000801981
0.00076972
0.000796325
0.000775547
0.000792679
0.000782336
0.000791068
0.000789535
0.000791521
0.000798941
0.000794114
0.000807934
0.000797928
0.000818678
0.000802833
0.000824442
0.000809364
0.000835481
0.000815726
0.000839667
0.000825223
0.000856034
0.000837433
0.000861242
0.000856421
0.000916155
0.000876965
0.00290708
0.00290576
0.00132617
0.00289824
0.00134614
0.00288459
0.00136657
0.00286492
0.00138745
0.00283939
0.00140877
0.0028082
0.00143048
0.00277161
0.00145257
0.00272991
0.00147496
0.00268341
0.00149762
0.00263247
0.00152048
0.00257748
0.00154348
0.00251882
0.00156655
0.0024569
0.00158961
0.00239215
0.00161261
0.00232496
0.00163547
0.00225576
0.00165812
0.00218495
0.0016805
0.00211292
0.00170255
0.00204004
0.00172421
0.00196668
0.00174541
0.00189316
0.00176612
0.0018198
0.00178628
0.00174688
0.00180586
0.00167467
0.0018248
0.00160339
0.00184308
0.00153326
0.00186067
0.00146447
0.00187754
0.00139717
0.00189365
0.00133149
0.001909
0.00126757
0.00192358
0.00120547
0.00193735
0.00114526
0.00195032
0.00108703
0.00196246
0.00103081
0.00197374
0.00097661
0.00198426
0.000924444
0.00199393
0.000874319
0.00200274
0.000826215
0.00201072
0.000780108
0.00201795
0.000735965
0.00202431
0.000693758
0.00202987
0.000653436
0.0020346
0.00061495
0.00203859
0.000580151
0.00204173
0.00063815
0.0020441
0.000640336
0.00205385
0.000642292
0.0020639
0.000644006
0.00207419
0.000645464
0.00208454
0.000646636
0.00209491
0.000647529
0.00210508
0.00064811
0.00211503
0.000648311
0.00212489
0.000648118
0.00213434
0.000647531
0.00214275
0.000646974
0.00215077
0.000645971
0.0021568
0.000643671
0.00216148
0.000657134
0.00216222
0.000686593
0.00143513
0.000729654
0.00138694
0.000736213
0.00142502
0.000734823
0.00145685
0.000739406
0.00149372
0.000733554
0.00150798
0.000729088
0.00152812
0.000723825
0.00154117
0.000718289
0.00155834
0.000714719
0.00156468
0.000711388
0.00156639
0.000705311
0.00157531
0.000698365
0.00158265
0.000701169
0.00157823
0.000700652
0.00157345
0.000700322
0.00157972
0.000706421
0.00157292
0.000713552
0.00156745
0.000717303
0.00156059
0.000726277
0.00156011
0.000727226
0.00155615
0.000741351
0.00154573
0.000760368
0.00153152
0.000820918
0.00144934
0.000898611
0.00144003
0.000936098
0.00143748
0.000955105
0.00142184
0.000960735
0.00139346
0.000943027
0.00135736
0.000915713
0.00130209
0.000868445
0.00123474
0.000826515
0.0011582
0.000795793
0.00109606
0.000775517
0.00105074
0.000764018
0.00101542
0.000756764
0.000986353
0.000753181
0.000960892
0.000751046
0.000937694
0.000750747
0.000916368
0.000751842
0.000897081
0.000753839
0.000879759
0.000757062
0.000864334
0.000761481
0.000850746
0.00076591
0.000839105
0.00077042
0.00082843
0.00077465
0.000819908
0.000779799
0.000812801
0.000784936
0.00080755
0.000791354
0.000804223
0.000798545
0.000802989
0.000808155
0.000803914
0.000816755
0.000805981
0.000827104
0.000809782
0.000832561
0.000814414
0.000843884
0.000819587
0.000849444
0.000828995
0.00086724
0.000841371
0.000871765
0.000861064
0.000931149
0.000880703
0.00291894
0.0029179
0.00134589
0.00291067
0.00136919
0.0028973
0.00139291
0.00287789
0.00141705
0.00285261
0.0014416
0.00282164
0.00146651
0.00278525
0.00149176
0.0027437
0.00151729
0.00269732
0.00154305
0.00264647
0.00156897
0.00259151
0.00159499
0.00253285
0.00162103
0.00247089
0.00164702
0.00240603
0.00167289
0.00233871
0.00169857
0.00226933
0.00172399
0.0021983
0.00174907
0.00212601
0.00177374
0.00205284
0.00179796
0.00197915
0.00182166
0.00190527
0.00184478
0.00183153
0.00186728
0.0017582
0.00188912
0.00168556
0.00191025
0.00161383
0.00193063
0.00154324
0.00195023
0.00147397
0.00196904
0.00140619
0.00198701
0.00134002
0.00200414
0.00127559
0.00202043
0.001213
0.0020358
0.00115231
0.00205027
0.00109359
0.00206391
0.00103686
0.00207663
0.00098217
0.00208838
0.000929521
0.00209931
0.000878908
0.00210932
0.00083033
0.0021184
0.000783751
0.00212657
0.000739143
0.00213397
0.000696473
0.00214042
0.000655707
0.002146
0.000616781
0.00215071
0.000579638
0.00215464
0.000645183
0.00215776
0.000647589
0.00216685
0.00064974
0.0021762
0.000651611
0.00218573
0.000653196
0.00219542
0.000654475
0.00220533
0.000655433
0.00221516
0.000656076
0.00222474
0.000656424
0.00223422
0.000656443
0.00224349
0.000656295
0.00225272
0.000655976
0.00226216
0.000655447
0.00227267
0.000654263
0.00228792
0.000653767
0.00229437
0.000721186
0.00165044
0.000769826
0.00154719
0.000775369
0.00156973
0.000772528
0.00160436
0.000770059
0.00161596
0.000756734
0.00162529
0.000747394
0.00164191
0.000734593
0.00164227
0.000725074
0.001647
0.000714068
0.00165412
0.000708594
0.00164858
0.000705918
0.00164971
0.000693117
0.00166482
0.000695842
0.00165944
0.000695829
0.00164607
0.000699459
0.00165174
0.000702215
0.00164373
0.000708542
0.00162466
0.000710523
0.00161455
0.000712277
0.00160165
0.000718133
0.00158588
0.000726788
0.001546
0.000760646
0.00147801
0.000841905
0.00143005
0.000906919
0.00142637
0.000951558
0.0014269
0.000965839
0.0014204
0.000972503
0.00139694
0.000962287
0.00136662
0.000943856
0.00132431
0.000902886
0.00127026
0.000856838
0.00120184
0.000819022
0.0011356
0.000795291
0.00108338
0.000781587
0.00104223
0.000774031
0.00100907
0.00077028
0.000981112
0.00076846
0.000956437
0.000768273
0.000934526
0.000768291
0.000914855
0.000769048
0.000896937
0.000771136
0.000880781
0.000774747
0.000866422
0.000778261
0.000853733
0.00078209
0.000842471
0.000785767
0.000833111
0.000790507
0.000824908
0.000795598
0.000818865
0.000802259
0.000814974
0.000808588
0.000813264
0.000817356
0.000812929
0.000825316
0.000813956
0.000835197
0.000816441
0.000840557
0.000819358
0.000852202
0.000823909
0.000859193
0.000832959
0.000879315
0.000845799
0.000882242
0.000865773
0.000946273
0.000884313
0.00293296
0.00293217
0.00136765
0.0029252
0.00139418
0.0029121
0.0014211
0.00289294
0.00144841
0.00286789
0.00147609
0.00283713
0.00150412
0.0028009
0.00153245
0.00275949
0.00156103
0.00271322
0.0015898
0.00266242
0.0016187
0.00260748
0.00164766
0.00254878
0.0016766
0.00248673
0.00170544
0.00242175
0.00173412
0.00235425
0.00176254
0.00228465
0.00179064
0.00221336
0.00181835
0.00214077
0.00184559
0.00206725
0.00187231
0.00199318
0.00189843
0.0019189
0.00192391
0.00184472
0.00194868
0.00177093
0.00197272
0.0016978
0.00199597
0.00162557
0.0020184
0.00155446
0.00203998
0.00148467
0.00206067
0.00141634
0.00208045
0.00134963
0.00209931
0.00128465
0.00211723
0.0012215
0.00213422
0.00116027
0.00215019
0.00110099
0.00216524
0.00104372
0.00217931
0.000988491
0.00219237
0.000935308
0.00220447
0.000884169
0.00221567
0.000835054
0.00222585
0.000787971
0.00223503
0.000742858
0.00224329
0.00069969
0.00225072
0.000658421
0.00225716
0.00061902
0.00226267
0.00058141
0.00226727
0.000651853
0.00227105
0.00065446
0.00227958
0.000656768
0.00228826
0.000658765
0.00229718
0.000660495
0.00230613
0.000661963
0.00231524
0.000663067
0.00232504
0.000663854
0.00233472
0.000664327
0.00234488
0.000664407
0.00235486
0.000664281
0.00236452
0.000663984
0.00237437
0.000664358
0.00239184
0.000663148
0.00240032
0.000736102
0.00240813
0.000839737
0.0020112
0.000826824
0.00174464
0.000806171
0.00171585
0.000804787
0.00172865
0.000794774
0.00173691
0.000781137
0.00174366
0.000767885
0.00176451
0.000746049
0.0017527
0.000736707
0.00174324
0.000726477
0.00176113
0.00071353
0.00175665
0.000707606
0.00173396
0.000692538
0.0017537
0.000693804
0.00174699
0.000693543
0.00171858
0.000701951
0.00171765
0.000704245
0.00170847
0.00070655
0.0016699
0.000709572
0.00164989
0.000704639
0.00160788
0.00070501
0.00156282
0.000728567
0.0014865
0.000785335
0.00141983
0.000851221
0.00138483
0.000898064
0.00137204
0.000929879
0.00136623
0.000956358
0.0013669
0.000966247
0.0013594
0.000964497
0.00133436
0.000950257
0.00130788
0.000920034
0.00126711
0.00088424
0.00121785
0.00084742
0.00115909
0.000820526
0.00110759
0.000802806
0.00106726
0.00079121
0.00103231
0.000785453
0.00100119
0.000782195
0.000973714
0.000781335
0.000949922
0.000781428
0.000929537
0.00078248
0.000911758
0.000784505
0.000895998
0.0007879
0.000881838
0.000790933
0.000869242
0.000794218
0.000857777
0.000797564
0.000847864
0.000801972
0.000839077
0.000806427
0.000832538
0.000812614
0.000827613
0.000818038
0.000824379
0.000826152
0.000822654
0.000833119
0.000822192
0.000842715
0.000823072
0.000848576
0.000824458
0.000860822
0.000828849
0.000869614
0.000837474
0.000890757
0.000851415
0.00089277
0.000870358
0.000960949
0.000887951
0.00294909
0.00294855
0.00139146
0.00294183
0.00142111
0.00292896
0.00145114
0.00291004
0.00148152
0.0028852
0.00151225
0.00285462
0.00154329
0.00281856
0.00157461
0.00277727
0.00160614
0.00273107
0.00163784
0.00268031
0.00166964
0.00262535
0.00170145
0.00256659
0.0017332
0.00250443
0.00176482
0.00243928
0.00179621
0.00237157
0.0018273
0.00230171
0.00185802
0.00223011
0.00188827
0.00215717
0.001918
0.00208327
0.00194714
0.00200877
0.00197562
0.00193402
0.00200338
0.00185935
0.00203037
0.00178505
0.00205654
0.00171138
0.00208186
0.0016386
0.00210627
0.00156692
0.00212976
0.00149653
0.00215228
0.00142762
0.00217383
0.00136031
0.00219437
0.00129473
0.0022139
0.00123097
0.0022324
0.00116913
0.00224986
0.00110926
0.00226629
0.00105138
0.00228169
0.00099556
0.00229601
0.000941804
0.00230929
0.00089009
0.00232163
0.000840412
0.00233288
0.000792749
0.0023431
0.000747096
0.00235226
0.00070339
0.00236054
0.000661594
0.00236786
0.000621648
0.00237417
0.000583526
0.00237948
0.00065806
0.0023839
0.000660867
0.00239184
0.000663328
0.00239985
0.000665428
0.00240811
0.000667201
0.00241649
0.000668644
0.00242478
0.000669819
0.00243348
0.000670601
0.00244255
0.000671252
0.00245236
0.000671431
0.00246174
0.000671446
0.00247192
0.000671392
0.00248247
0.000670549
0.00249969
0.000676007
0.00250937
0.000908589
0.00250123
0.000955335
0.0019769
0.000894602
0.00189887
0.000839737
0.00186192
0.000829588
0.00182207
0.000813907
0.0018233
0.000800139
0.00182067
0.000784667
0.00182597
0.000764786
0.00183609
0.00074606
0.00182966
0.000731624
0.00181961
0.000721886
0.00181922
0.000710189
0.00180855
0.000696501
0.00181973
0.000694499
0.00181078
0.000696524
0.00176471
0.000707751
0.00173954
0.000707333
0.00171537
0.000705127
0.00165406
0.000701796
0.00160286
0.000700848
0.00153431
0.000721438
0.00145719
0.000759305
0.00139629
0.000806057
0.0013444
0.000845764
0.00132955
0.000874782
0.00131548
0.000900956
0.00130367
0.000925099
0.00129426
0.000940544
0.00129081
0.000945542
0.00128437
0.000940558
0.00126508
0.000923979
0.00124105
0.000892886
0.00120604
0.000861477
0.00115944
0.000836785
0.00111296
0.000819825
0.0010755
0.000808561
0.00104368
0.000801984
0.00101505
0.000797129
0.000988214
0.000794856
0.000963407
0.000793755
0.000941728
0.000794302
0.00092309
0.000796736
0.000907239
0.000800235
0.000893261
0.000803351
0.000881063
0.000806687
0.000869764
0.000809716
0.000860057
0.000813923
0.000851358
0.000818001
0.000844538
0.000823754
0.000839109
0.000827837
0.000834644
0.000835093
0.000831761
0.000840655
0.000829753
0.000850188
0.000829222
0.000856483
0.000829503
0.000869528
0.000833775
0.000880316
0.000842299
0.00090235
0.000857554
0.0009033
0.000874703
0.000975106
0.000891582
0.00296731
0.00296699
0.00141734
0.0029605
0.00145002
0.00294786
0.00148303
0.00292916
0.00151638
0.00290451
0.00155005
0.00287411
0.00158401
0.00283818
0.00161821
0.002797
0.00165262
0.00275085
0.00168715
0.0027001
0.00172174
0.0026451
0.00175631
0.00258625
0.00179079
0.00252394
0.00182508
0.0024586
0.00185911
0.00239064
0.00189278
0.00232048
0.00192602
0.00224853
0.00195875
0.00217519
0.00199089
0.00210086
0.00202237
0.00202589
0.00205312
0.00195063
0.00208309
0.00187542
0.00211222
0.00180054
0.00214046
0.00172628
0.00216777
0.00165289
0.00219411
0.00158058
0.00221945
0.00150956
0.00224375
0.00143999
0.002267
0.00137203
0.00228917
0.00130579
0.00231026
0.00124138
0.00233024
0.00117888
0.00234912
0.00111835
0.00236692
0.00105984
0.00238357
0.00100339
0.00239912
0.000948999
0.00241361
0.000896659
0.00242702
0.000846344
0.00243931
0.00079808
0.00245047
0.000751832
0.00246058
0.000707547
0.00246973
0.000665173