/*--------------------------------*- C++ -*----------------------------------*\
| =========                 |                                                 |
| \\      /  F ield         | OpenFOAM: The Open Source CFD Toolbox           |
|  \\    /   O peration     | Version:  2.2.x                                 |
|   \\  /    A nd           | Web:      www.OpenFOAM.org                      |
|    \\/     M anipulation  |                                                 |
\*---------------------------------------------------------------------------*/
FoamFile
{
    version     2.0;
    format      ascii;
    class       volScalarField;
    location    "0.45";
    object      Ma;
}
// * * * * * * * * * * * * * * * * * * * * * * * * * * * * * * * * * * * * * //

dimensions      [0 0 0 0 0 0 0];

internalField   nonuniform List<scalar> 
14161
(
2.59808
2.59808
2.59809
2.59809
2.5981
2.59812
2.59814
2.59818
2.59821
2.59828
2.59838
2.5985
2.59868
2.59889
2.59918
2.59955
2.6
2.6006
2.60126
2.60206
2.60304
2.60422
2.60537
2.60676
2.60827
2.60997
2.61185
2.61367
2.61551
2.61758
2.61957
2.62161
2.62378
2.62566
2.62737
2.62902
2.63076
2.63227
2.63358
2.63471
2.63571
2.63646
2.63698
2.63733
2.63761
2.63788
2.63819
2.63854
2.63884
2.63891
2.63855
2.63786
2.63736
2.63708
2.6368
2.63385
2.63032
2.61627
2.62067
0.939562
0.516097
0.519814
0.573257
0.603617
0.630062
0.654805
0.680206
0.705856
0.729184
0.751292
0.771366
0.789056
0.805117
0.818757
0.829018
0.835554
0.839223
0.842043
0.854865
0.881801
0.904558
0.931218
0.98555
1.04135
1.10909
0.986332
0.733229
0.582923
0.47708
0.414815
0.378747
0.355293
0.338761
0.326453
0.316831
0.308594
0.300649
0.292664
0.284656
0.276017
0.267141
0.257494
0.247606
0.237088
0.225906
0.214174
0.202487
0.191631
0.181162
0.171395
0.161698
0.151902
0.141528
0.130174
0.117907
0.103456
0.0865159
0.0644437
0.0413156
2.59808
2.59808
2.59809
2.59809
2.5981
2.59812
2.59814
2.59818
2.59821
2.59828
2.59838
2.59851
2.59868
2.59889
2.59918
2.59955
2.6
2.60058
2.60129
2.60214
2.60301
2.60413
2.6054
2.60687
2.60829
2.60992
2.61177
2.61365
2.61569
2.61761
2.61953
2.62164
2.62373
2.62566
2.62741
2.62905
2.63075
2.63228
2.63362
2.63478
2.63583
2.6366
2.63707
2.63739
2.63767
2.63789
2.63818
2.63844
2.6386
2.63855
2.63806
2.63775
2.63757
2.63776
2.63761
2.63781
2.63633
2.64154
2.63667
1.41546
0.636305
0.62076
0.655852
0.674121
0.69682
0.718424
0.741318
0.763953
0.785118
0.805072
0.823959
0.84134
0.856857
0.870846
0.881558
0.889215
0.895546
0.901713
0.910552
0.939922
0.95817
0.983664
1.03646
1.0889
1.1414
0.931723
0.738595
0.616628
0.523501
0.452647
0.411456
0.385323
0.365837
0.350681
0.337974
0.326763
0.316114
0.305212
0.294363
0.28309
0.271934
0.26099
0.250294
0.239065
0.227177
0.214511
0.200401
0.18489
0.168932
0.153908
0.139543
0.125383
0.111001
0.0960325
0.08116
0.0651462
0.0541242
0.0449602
0.0635232
2.59808
2.59808
2.59809
2.59809
2.5981
2.59812
2.59814
2.59818
2.59821
2.59828
2.59838
2.5985
2.59868
2.59889
2.59918
2.59955
2.6
2.60058
2.60126
2.60206
2.60303
2.6042
2.60537
2.60675
2.60829
2.61005
2.61181
2.61355
2.61555
2.61759
2.61968
2.62167
2.62378
2.62576
2.62747
2.62914
2.63091
2.63247
2.63384
2.63503
2.63609
2.63694
2.63751
2.63792
2.63816
2.63839
2.63861
2.63875
2.63883
2.63851
2.63803
2.63746
2.63642
2.63489
2.63377
2.63749
2.64622
2.67016
2.67812
1.31781
0.62401
0.598704
0.630539
0.644893
0.667525
0.688786
0.711796
0.732281
0.754031
0.773812
0.792491
0.809339
0.825207
0.837622
0.84797
0.855571
0.863281
0.871858
0.877843
0.906514
0.92476
0.956456
1.00915
1.05854
1.05465
0.838512
0.707197
0.608765
0.527043
0.452541
0.40098
0.370955
0.350448
0.335636
0.323518
0.312276
0.301283
0.290168
0.278886
0.266968
0.254888
0.242471
0.230211
0.217887
0.205598
0.193024
0.180239
0.167157
0.152608
0.136169
0.11862
0.101528
0.08586
0.0708259
0.0588937
0.0489227
0.0534326
0.0485699
0.0819767
2.59808
2.59808
2.59809
2.59809
2.5981
2.59812
2.59814
2.59818
2.59821
2.59828
2.59838
2.5985
2.59868
2.59889
2.59918
2.59955
2.6
2.60057
2.60126
2.60206
2.60302
2.60414
2.60537
2.6068
2.60832
2.60998
2.61176
2.61364
2.61565
2.61771
2.61966
2.62168
2.62382
2.62584
2.62769
2.62936
2.63108
2.63271
2.63413
2.63533
2.63644
2.63738
2.63799
2.63845
2.63864
2.63888
2.63908
2.63891
2.63845
2.63793
2.63735
2.63638
2.63523
2.63239
2.63062
2.62844
2.62661
2.63125
2.61785
1.0504
0.564373
0.543813
0.58312
0.604137
0.630778
0.659755
0.687268
0.714419
0.740652
0.765995
0.787622
0.807612
0.823623
0.837814
0.848218
0.856907
0.864457
0.876318
0.88206
0.911401
0.929751
0.973121
1.01075
1.08291
0.994752
0.799198
0.731733
0.655263
0.580122
0.488848
0.418762
0.376799
0.34829
0.327251
0.309673
0.294151
0.279895
0.266465
0.253369
0.240462
0.227717
0.215167
0.203014
0.191
0.179408
0.167962
0.156237
0.144265
0.131951
0.119252
0.106199
0.092202
0.0794023
0.0669354
0.0617109
0.0526135
0.0581318
0.0521511
0.0952401
2.59808
2.59808
2.59809
2.59809
2.5981
2.59812
2.59814
2.59818
2.59821
2.59828
2.59838
2.5985
2.59868
2.59889
2.59918
2.59954
2.59999
2.60057
2.60125
2.60206
2.60302
2.60411
2.60537
2.60676
2.60831
2.60998
2.61179
2.61374
2.61564
2.61764
2.61972
2.62187
2.62392
2.62595
2.62799
2.62975
2.63134
2.63298
2.63463
2.63594
2.63712
2.63816
2.63893
2.63953
2.63981
2.64008
2.64032
2.64009
2.63952
2.63818
2.63671
2.63515
2.63333
2.631
2.62612
2.61821
2.60942
2.59288
2.59249
0.917471
0.541612
0.523933
0.562538
0.590952
0.620317
0.65516
0.686044
0.715021
0.745008
0.767619
0.792887
0.813552
0.83095
0.845147
0.857243
0.867019
0.875204
0.88967
0.895962
0.928018
0.953829
0.993652
1.02808
1.04757
0.875215
0.762848
0.746959
0.687188
0.620442
0.519182
0.43722
0.382794
0.348327
0.323287
0.302551
0.284043
0.266733
0.250282
0.234431
0.219239
0.204783
0.191288
0.178845
0.167478
0.157094
0.147347
0.137849
0.12827
0.11894
0.109512
0.100633
0.0906753
0.082789
0.0724278
0.0700722
0.0610301
0.0654166
0.0568441
0.106862
2.59808
2.59808
2.59809
2.59809
2.5981
2.59812
2.59814
2.59818
2.59821
2.59828
2.59838
2.5985
2.59867
2.59888
2.59918
2.59954
2.59999
2.60057
2.60125
2.60205
2.60301
2.60411
2.60536
2.60675
2.60831
2.60999
2.61179
2.61371
2.61575
2.6177
2.61982
2.62201
2.62411
2.62602
2.62821
2.63011
2.63171
2.63336
2.63519
2.63664
2.63794
2.63909
2.64001
2.6407
2.64111
2.64141
2.64162
2.64149
2.64071
2.64006
2.63937
2.6384
2.63587
2.63041
2.62281
2.61028
2.58961
2.56494
2.55542
0.840128
0.507793
0.50596
0.545809
0.578058
0.618209
0.660628
0.691271
0.728036
0.750801
0.781086
0.80633
0.830587
0.848633
0.862
0.875414
0.887897
0.894391
0.914483
0.921349
0.953594
0.977661
0.994596
1.05082
0.93188
0.820022
0.766478
0.782365
0.734807
0.683243
0.580425
0.495682
0.419777
0.372829
0.338266
0.310325
0.286529
0.265782
0.247135
0.229833
0.213616
0.198357
0.184257
0.171054
0.158709
0.147134
0.136373
0.126618
0.117575
0.109747
0.102635
0.0971683
0.0905062
0.0866982
0.0784499
0.07797
0.0691985
0.0728155
0.0616079
0.118042
2.59808
2.59808
2.59808
2.59809
2.5981
2.59812
2.59814
2.59818
2.59821
2.59828
2.59838
2.5985
2.59866
2.59888
2.59917
2.59954
2.59999
2.60055
2.60124
2.60205
2.603
2.6041
2.60536
2.60675
2.60831
2.60999
2.61179
2.61371
2.61574
2.61784
2.61994
2.62215
2.62433
2.62631
2.62847
2.63059
2.63238
2.63403
2.63598
2.63764
2.63906
2.64038
2.64152
2.64247
2.64316
2.64365
2.64423
2.64464
2.64448
2.64409
2.64265
2.63925
2.63288
2.62532
2.61517
2.6035
2.59144
2.57092
2.55714
0.826811
0.499474
0.515532
0.567816
0.60048
0.6499
0.694314
0.728692
0.770822
0.795167
0.826187
0.85132
0.880131
0.90041
0.908457
0.923174
0.933478
0.93672
0.956921
0.960213
0.994627
1.00895
1.01597
1.01593
0.851567
0.798895
0.772239
0.796599
0.766698
0.718072
0.626392
0.540086
0.452583
0.394171
0.353494
0.322377
0.29766
0.276576
0.257541
0.239425
0.221967
0.205415
0.190134
0.175586
0.161975
0.149334
0.137618
0.12716
0.117606
0.109526
0.102227
0.0975568
0.092451
0.0905688
0.0839525
0.0846151
0.0764904
0.079844
0.0662103
0.129022
2.59808
2.59808
2.59808
2.59809
2.5981
2.59812
2.59814
2.59818
2.59821
2.59828
2.59838
2.5985
2.59865
2.59888
2.59917
2.59953
2.59998
2.60054
2.60121
2.60204
2.60299
2.60409
2.60534
2.60674
2.6083
2.60999
2.6118
2.61377
2.61579
2.61789
2.62008
2.62229
2.62456
2.62672
2.62879
2.63102
2.6331
2.63494
2.63677
2.63868
2.64037
2.64186
2.64317
2.64447
2.64547
2.64638
2.64731
2.64812
2.64888
2.64922
2.64931
2.64823
2.64803
2.64789
2.64542
2.64213
2.63409
2.62647
2.5989
0.897651
0.533259
0.578565
0.657332
0.692004
0.748253
0.775276
0.826823
0.854
0.888127
0.92003
0.917433
0.963025
0.982023
0.976685
0.992882
1.0044
1.00002
1.01382
1.01819
1.02641
1.03868
1.04928
0.888593
0.788113
0.811679
0.807871
0.817733
0.797053
0.749194
0.67199
0.578793
0.484473
0.413752
0.366444
0.331483
0.304733
0.282758
0.26354
0.245473
0.228428
0.212511
0.198249
0.185073
0.172447
0.16004
0.147912
0.136672
0.125913
0.116561
0.107876
0.102581
0.0973719
0.0958207
0.0900288
0.0909247
0.0832639
0.0863353
0.0704588
0.139443
2.59808
2.59808
2.59808
2.59809
2.5981
2.59812
2.59814
2.59818
2.59821
2.59828
2.59838
2.5985
2.59865
2.59888
2.59917
2.59951
2.59997
2.60053
2.6012
2.60203
2.60296
2.60406
2.60531
2.60673
2.60828
2.60999
2.61182
2.61379
2.61585
2.61801
2.62032
2.6225
2.62471
2.62711
2.62941
2.63149
2.63384
2.63603
2.63795
2.63987
2.64194
2.64377
2.64536
2.64685
2.64846
2.65008
2.65186
2.65357
2.65522
2.65688
2.65902
2.66074
2.66253
2.66361
2.66404
2.66612
2.67138
2.68492
2.70892
1.4719
0.677234
0.728808
0.793886
0.822597
0.860401
0.866362
0.923188
0.922632
0.973566
0.991053
0.991145
1.01987
1.04324
1.03463
1.03916
1.04637
1.03511
1.03848
1.03892
1.04423
0.993627
0.856521
0.778168
0.708967
0.777685
0.799556
0.790845
0.776126
0.739121
0.685862
0.605927
0.521152
0.443726
0.387182
0.344108
0.311646
0.28625
0.265547
0.247321
0.230647
0.215338
0.20178
0.189458
0.177482
0.165516
0.153578
0.142318
0.131473
0.12221
0.113289
0.107808
0.102448
0.101409
0.09622
0.0970449
0.0897072
0.0923728
0.074307
0.149266
2.59808
2.59808
2.59808
2.59809
2.5981
2.59812
2.59814
2.59818
2.59821
2.59827
2.59837
2.5985
2.59865
2.59887
2.59914
2.59951
2.59997
2.60052
2.60119
2.60199
2.60295
2.60404
2.6053
2.6067
2.60826
2.60999
2.61184
2.61383
2.61592
2.61811
2.62041
2.62277
2.62505
2.62751
2.62996
2.63224
2.63461
2.63707
2.63935
2.64137
2.6435
2.64576
2.64786
2.64963
2.65139
2.65347
2.65617
2.65867
2.66154
2.66386
2.66722
2.67295
2.67928
2.68737
2.69658
2.70485
2.715
2.75062
2.75602
1.73117
0.989516
0.889321
0.855691
0.915467
0.917966
0.959434
0.973769
1.00255
0.981813
1.03614
1.04506
1.02703
1.06924
1.05394
1.04722
1.06196
1.02961
1.01907
0.961786
0.890108
0.77435
0.677839
0.627055
0.651698
0.664916
0.698314
0.71279
0.706264
0.684741
0.646399
0.591156
0.526905
0.458825
0.40464
0.360664
0.324172
0.294489
0.270756
0.251013
0.234001
0.219178
0.206569
0.195288
0.184175
0.173015
0.161711
0.150939
0.139995
0.130335
0.12055
0.114417
0.108396
0.107444
0.102495
0.103167
0.096299
0.0979581
0.0777834
0.158441
2.59808
2.59808
2.59808
2.59809
2.5981
2.59812
2.59814
2.59816
2.59821
2.59827
2.59837
2.59849
2.59865
2.59887
2.59914
2.5995
2.59994
2.60049
2.60118
2.60198
2.60291
2.604
2.60526
2.60668
2.60825
2.60996
2.61185
2.61385
2.61599
2.61823
2.62056
2.62297
2.62543
2.62798
2.63058
2.63302
2.63552
2.63818
2.64068
2.64306
2.64526
2.64782
2.65032
2.65271
2.65476
2.65726
2.66081
2.66416
2.668
2.67159
2.67525
2.68061
2.6884
2.69929
2.71119
2.72759
2.74131
2.78026
2.84164
1.42418
1.09492
1.01603
0.954511
0.922686
0.953795
0.934385
0.991781
0.98759
1.02611
1.02119
1.04514
1.02101
1.06612
1.03625
1.01411
0.991935
0.902128
0.818998
0.73444
0.638596
0.543302
0.527463
0.507528
0.554739
0.578609
0.600601
0.614753
0.616371
0.609646
0.587067
0.547689
0.496404
0.442079
0.399471
0.36223
0.329991
0.30203
0.277332
0.255089
0.236172
0.220691
0.208379
0.197943
0.187733
0.177746
0.167508
0.157778
0.147403
0.138126
0.127896
0.121197
0.114395
0.113492
0.108516
0.109047
0.102727
0.103386
0.0809747
0.166951
2.59808
2.59808
2.59808
2.59809
2.5981
2.59812
2.59814
2.59816
2.59821
2.59827
2.59837
2.59849
2.59864
2.59886
2.59913
2.59949
2.59993
2.60048
2.60114
2.60194
2.60289
2.60398
2.60523
2.60664
2.60821
2.60996
2.61184
2.61387
2.61604
2.61835
2.62077
2.62322
2.62579
2.6285
2.63106
2.63375
2.63655
2.63936
2.6421
2.64463
2.64722
2.64997
2.65261
2.65514
2.65756
2.66043
2.66448
2.66826
2.67287
2.67774
2.68211
2.688
2.69791
2.70619
2.71568
2.71829
2.73558
2.71447
2.38023
1.24918
1.10804
1.08609
0.953636
0.942068
0.901223
0.951837
0.938068
0.995716
0.988653
1.02152
0.993035
0.974491
0.996365
0.897408
0.823545
0.740523
0.655915
0.5661
0.487135
0.448683
0.418336
0.431402
0.445011
0.477288
0.50336
0.529809
0.541457
0.549732
0.550461
0.539161
0.514877
0.474519
0.424703
0.382858
0.351756
0.327325
0.305431
0.284878
0.264613
0.244727
0.227857
0.214263
0.203013
0.192709
0.183124
0.173489
0.164552
0.154758
0.146076
0.135882
0.128731
0.120897
0.119704
0.114313
0.114565
0.108609
0.108801
0.0839383
0.174812
2.59808
2.59808
2.59808
2.59809
2.5981
2.59812
2.59814
2.59816
2.59821
2.59827
2.59837
2.59847
2.59864
2.59884
2.59912
2.59948
2.59991
2.60046
2.60112
2.60191
2.60284
2.60393
2.60518
2.60659
2.60817
2.60991
2.61183
2.61389
2.6161
2.61844
2.62091
2.62349
2.62615
2.6289
2.63169
2.63461
2.63761
2.64049
2.64321
2.64622
2.6493
2.6522
2.65482
2.6573
2.66019
2.66375
2.66739
2.67124
2.67558
2.67999
2.68409
2.68898
2.6955
2.69906
2.70334
2.70052
2.71684
2.63477
1.71352
1.17655
1.11468
1.12033
1.05835
1.03563
0.934575
0.971373
0.89534
0.995767
0.932733
0.961933
0.888015
0.821047
0.75023
0.673355
0.591445
0.521905
0.466881
0.442616
0.412725
0.409923
0.398128
0.408651
0.419751
0.44121
0.464552
0.488791
0.502972
0.506084
0.507557
0.50153
0.485778
0.458635
0.419689
0.378252
0.344113
0.320861
0.302908
0.286221
0.269186
0.251273
0.235071
0.221198
0.208931
0.197767
0.188194
0.178915
0.170522
0.161258
0.153129
0.143288
0.136224
0.127592
0.125944
0.120043
0.119858
0.113785
0.113991
0.0868246
0.182041
2.59808
2.59808
2.59808
2.59809
2.59809
2.59812
2.59814
2.59816
2.59821
2.59827
2.59835
2.59847
2.59863
2.59883
2.59911
2.59945
2.59988
2.60042
2.60108
2.60187
2.60279
2.60387
2.60513
2.60653
2.60811
2.60986
2.61181
2.61388
2.61615
2.61853
2.62105
2.62372
2.62654
2.62932
2.63228
2.63534
2.63845
2.64167
2.64461
2.64773
2.65097
2.65404
2.65688
2.65979
2.66321
2.66662
2.67018
2.67389
2.67848
2.68286
2.68673
2.69106
2.69685
2.70068
2.70468
2.70609
2.72006
2.6938
1.33941
1.10304
1.08973
1.09759
1.09577
1.04448
1.00979
0.907006
0.908416
0.819813
0.811434
0.710518
0.661849
0.581467
0.509818
0.469685
0.435858
0.422014
0.404887
0.405773
0.394802
0.40461
0.403084
0.411375
0.417466
0.429361
0.444869
0.462808
0.47945
0.486691
0.484715
0.477563
0.463325
0.441776
0.411901
0.378945
0.345146
0.319444
0.30152
0.286401
0.271684
0.256351
0.242047
0.228968
0.216153
0.204245
0.19425
0.185041
0.176763
0.167731
0.159989
0.150504
0.143633
0.134593
0.132399
0.125974
0.125146
0.118436
0.118719
0.0896894
0.188568
2.59808
2.59808
2.59808
2.59809
2.59809
2.59812
2.59814
2.59816
2.59821
2.59827
2.59834
2.59846
2.59863
2.59882
2.59909
2.59943
2.59986
2.6004
2.60103
2.60181
2.60273
2.60381
2.60506
2.60646
2.60805
2.6098
2.61176
2.61387
2.61614
2.61859
2.62119
2.62392
2.62688
2.62969
2.63284
2.63611
2.63928
2.64234
2.64594
2.64935
2.65255
2.65549
2.6588
2.66247
2.66571
2.66898
2.67239
2.6767
2.6811
2.68545
2.68964
2.69461
2.70183
2.70949
2.7188
2.73287
2.74102
2.51815
1.19535
1.09462
1.09216
1.10105
1.09731
1.10058
1.01549
0.898322
0.725027
0.640923
0.559666
0.509901
0.462126
0.447312
0.42331
0.418879
0.40818
0.408997
0.40204
0.409769
0.405507
0.41355
0.412845
0.417895
0.421039
0.428155
0.438003
0.448469
0.460083
0.469518
0.470648
0.464417
0.450201
0.430274
0.404041
0.376764
0.348473
0.324055
0.304588
0.288434
0.273787
0.259969
0.247712
0.235644
0.223146
0.21092
0.200495
0.191069
0.182726
0.173814
0.166407
0.157312
0.150584
0.141494
0.138767
0.132039
0.13041
0.122726
0.122946
0.0926487
0.19437
2.59808
2.59808
2.59808
2.59809
2.59809
2.59812
2.59814
2.59816
2.5982
2.59826
2.59834
2.59846
2.59862
2.59882
2.59907
2.59942
2.59984
2.60035
2.601
2.60176
2.60267
2.60374
2.60496
2.60636
2.60796
2.60972
2.61167
2.61379
2.61613
2.6186
2.62122
2.62405
2.62701
2.63008
2.63329
2.63669
2.64011
2.64336
2.647
2.65054
2.65395
2.65717
2.66077
2.66433
2.66767
2.67098
2.67486
2.67905
2.68294
2.68632
2.68962
2.69271
2.69489
2.69703
2.69326
2.70366
2.66751
1.91795
1.11249
1.07271
1.07322
1.07547
1.07115
1.04236
0.928478
0.701651
0.530584
0.454326
0.42885
0.424071
0.411329
0.414713
0.40531
0.410304
0.412077
0.421894
0.418381
0.422766
0.420975
0.427117
0.427924
0.430047
0.43023
0.432656
0.437596
0.443522
0.451505
0.457987
0.458334
0.454637
0.444112
0.426733
0.40267
0.376313
0.350968
0.328806
0.309541
0.292382
0.277055
0.26417
0.253228
0.241899
0.230056
0.218065
0.2074
0.197617
0.188925
0.179974
0.172734
0.163921
0.157237
0.148212
0.145017
0.138185
0.135647
0.126896
0.126734
0.095852
0.199311
2.59808
2.59808
2.59808
2.59809
2.59809
2.59812
2.59814
2.59816
2.5982
2.59826
2.59834
2.59845
2.59859
2.59881
2.59906
2.59938
2.5998
2.6003
2.60094
2.60169
2.60259
2.60364
2.60485
2.60625
2.60782
2.6096
2.61155
2.61369
2.61604
2.61857
2.62129
2.62413
2.62713
2.63034
2.63364
2.63705
2.64055
2.64418
2.64782
2.65149
2.65523
2.65899
2.66242
2.66575
2.66916
2.6729
2.6767
2.6807
2.68449
2.68844
2.69293
2.69746
2.70006
2.70496
2.70463
2.71516
2.66774
1.46373
1.09372
1.06473
1.06428
1.05573
1.03438
0.943384
0.752378
0.529122
0.409055
0.391253
0.398508
0.413739
0.413458
0.426548
0.424712
0.430299
0.427924
0.434725
0.435187
0.441072
0.439534
0.443884
0.444007
0.443404
0.441076
0.440738
0.442914
0.445478
0.449605
0.452595
0.451542
0.446178
0.43716
0.424033
0.405553
0.382571
0.359072
0.337144
0.316416
0.297116
0.281105
0.268489
0.258087
0.247271
0.236146
0.224791
0.214147
0.204094
0.195048
0.185989
0.178837
0.170278
0.163606
0.154704
0.151082
0.144288
0.140943
0.131298
0.130076
0.0994913
0.203459
2.59808
2.59808
2.59808
2.59809
2.59809
2.59812
2.59813
2.59815
2.5982
2.59826
2.59833
2.59845
2.59859
2.59878
2.59902
2.59936
2.59975
2.60027
2.60088
2.60162
2.6025
2.60353
2.60473
2.60612
2.60768
2.60944
2.61138
2.61355
2.61588
2.61843
2.62116
2.62412
2.62722
2.63043
2.63381
2.63736
2.641
2.64478
2.64869
2.65233
2.65602
2.66013
2.66397
2.66747
2.67076
2.67465
2.67851
2.68249
2.68623
2.69045
2.69571
2.70166
2.70822
2.7165
2.72843
2.74804
2.70252
1.2243
1.06714
1.05303
1.05021
1.02325
0.963514
0.784479
0.558061
0.413044
0.365385
0.394836
0.40175
0.419838
0.42716
0.440823
0.441834
0.448142
0.446574
0.450684
0.451279
0.455933
0.455908
0.459484
0.461549
0.461158
0.458277
0.454522
0.453162
0.452464
0.452603
0.452987
0.449703
0.444253
0.43545
0.421337
0.404831
0.386633
0.366795
0.346886
0.326292
0.305198
0.287725
0.27458
0.263774
0.252929
0.242241
0.231478
0.221113
0.210783
0.201374
0.192184
0.184961
0.176535
0.169799
0.16103
0.157003
0.150273
0.146349
0.135567
0.132926
0.10382
0.206869
2.59808
2.59808
2.59808
2.59809
2.59809
2.59812
2.59813
2.59815
2.5982
2.59826
2.59833
2.59844
2.59858
2.59876
2.59901
2.59932
2.59972
2.60021
2.60082
2.60153
2.6024
2.60341
2.6046
2.60595
2.6075
2.60923
2.61117
2.61333
2.61566
2.61824
2.62098
2.62395
2.62707
2.63045
2.63391
2.63745
2.6412
2.64505
2.64895
2.65296
2.65694
2.66094
2.66496
2.66878
2.67229
2.67602
2.68042
2.68468
2.68952
2.69348
2.69769
2.7012
2.70322
2.69975
2.70235
2.66392
2.06241
1.09575
1.03805
1.03652
1.02758
0.96984
0.829001
0.595888
0.427718
0.367933
0.382029
0.407907
0.42201
0.43819
0.444153
0.457314
0.460491
0.466591
0.46595
0.468091
0.467357
0.470269
0.470806
0.472962
0.476219
0.477408
0.475713
0.470045
0.465663
0.461243
0.458679
0.457015
0.452103
0.445359
0.436137
0.424276
0.409221
0.392322
0.374253
0.355385
0.33534
0.313911
0.295513
0.281458
0.269903
0.258747
0.248244
0.237806
0.227731
0.217547
0.207883
0.198542
0.191187
0.182773
0.175897
0.167234
0.16279
0.156111
0.151757
0.13974
0.135347
0.108905
0.209569
2.59808
2.59808
2.59808
2.59809
2.59809
2.59812
2.59813
2.59815
2.5982
2.59825
2.59832
2.59843
2.59857
2.59875
2.59899
2.59929
2.59967
2.60015
2.60073
2.60144
2.60229
2.60327
2.60443
2.60576
2.60728
2.60899
2.61091
2.61304
2.61537
2.61793
2.62069
2.62367
2.62682
2.63021
2.63372
2.63753
2.64135
2.64531
2.64933
2.65337
2.65754
2.6618
2.6656
2.66951
2.67346
2.67718
2.68096
2.68516
2.68948
2.69324
2.69712
2.69948
2.70357
2.69972
2.70579
2.64381
1.54604
1.06125
1.02974
1.02188
0.974797
0.867074
0.629959
0.450817
0.370987
0.375031
0.397252
0.421843
0.438076
0.452953
0.458766
0.469619
0.4747
0.48094
0.481894
0.484341
0.483247
0.484461
0.485174
0.486408
0.488414
0.490414
0.492442
0.488658
0.48364
0.476816
0.471157
0.466697
0.45988
0.451202
0.440618
0.428475
0.414536
0.399173
0.382666
0.364842
0.345333
0.324072
0.304887
0.289695
0.277127
0.265493
0.254889
0.244461
0.234476
0.224454
0.21473
0.20527
0.197641
0.189114
0.182023
0.173448
0.168592
0.161972
0.156938
0.143794
0.137396
0.114659
0.211451
2.59808
2.59808
2.59808
2.59809
2.59809
2.59812
2.59813
2.59815
2.59819
2.59825
2.59832
2.59841
2.59856
2.59872
2.59895
2.59925
2.59962
2.60009
2.60065
2.60133
2.60214
2.6031
2.60424
2.60552
2.60702
2.60868
2.61057
2.61265
2.61497
2.6175
2.62025
2.62322
2.6264
2.62977
2.63334
2.63708
2.64095
2.64503
2.64924
2.65346
2.65775
2.66214
2.66635
2.67041
2.67474
2.67923
2.68368
2.68815
2.69282
2.69762
2.70243
2.70826
2.71661
2.72592
2.74384
2.77727
1.25871
1.04771
1.01545
0.987785
0.879016
0.677789
0.475454
0.389832
0.371386
0.402209
0.41436
0.437252
0.452007
0.466493
0.473032
0.48264
0.488419
0.494684
0.497365
0.499931
0.499588
0.499304
0.49938
0.499735
0.501206
0.501766
0.504897
0.503453
0.500196
0.49303
0.484387
0.477325
0.468534
0.458289
0.447059
0.435263
0.422013
0.407168
0.391208
0.374092
0.355407
0.335052
0.315343
0.298775
0.285008
0.272805
0.261989
0.251427
0.241395
0.231464
0.221803
0.212352
0.204379
0.195639
0.188272
0.179717
0.174484
0.167766
0.161815
0.147828
0.139425
0.120819
0.212993
2.59808
2.59808
2.59808
2.59809
2.59809
2.59812
2.59813
2.59815
2.59819
2.59825
2.59831
2.5984
2.59852
2.5987
2.59893
2.5992
2.59956
2.6
2.60054
2.60121
2.60199
2.60292
2.60401
2.60527
2.60669
2.60832
2.61016
2.61218
2.61447
2.61692
2.61966
2.62258
2.62574
2.6291
2.63271
2.63649
2.64049
2.64462
2.6489
2.6533
2.65779
2.66221
2.66684
2.67162
2.67612
2.68128
2.68679
2.69227
2.698
2.70371
2.70772
2.71215
2.71335
2.71858
2.69122
2.14488
1.10958
1.02129
0.993885
0.888651
0.722292
0.4975
0.395447
0.372019
0.402131
0.422494
0.437201
0.452911
0.465113
0.479281
0.486662
0.495004
0.500985
0.50712
0.511407
0.513921
0.515126
0.51489
0.51401
0.513149
0.513628
0.513262
0.5154
0.515313
0.514576
0.508792
0.500675
0.492371
0.482681
0.471349
0.458405
0.445014
0.431264
0.41656
0.400755
0.383932
0.365869
0.346675
0.326947
0.308794
0.29358
0.28063
0.269383
0.258567
0.248415
0.238499
0.228993
0.219745
0.211539
0.202499
0.194675
0.186065
0.18032
0.173332
0.166337
0.151951
0.14166
0.127141
0.213254
2.59808
2.59808
2.59808
2.59809
2.59809
2.59812
2.59813
2.59815
2.59819
2.59822
2.59831
2.59839
2.59851
2.59868
2.59888
2.59915
2.5995
2.59992
2.60043
2.60107
2.60182
2.60272
2.60375
2.60494
2.60632
2.6079
2.60966
2.61162
2.61381
2.61621
2.61885
2.62171
2.62483
2.62815
2.63173
2.63549
2.63951
2.64368
2.64809
2.6526
2.65725
2.66199
2.66687
2.67194
2.6767
2.68161
2.68679
2.69211
2.69712
2.70304
2.70775
2.71447
2.71223
2.72371
2.6571
1.54484
1.09607
1.00029
0.933802
0.733324
0.531074
0.41136
0.371952
0.405092
0.419651
0.442881
0.457279
0.469631
0.479046
0.491816
0.500242
0.507797
0.513736
0.519148
0.524052
0.526865
0.528589
0.52971
0.529227
0.527325
0.526632
0.525527
0.526736
0.52604
0.527038
0.522829
0.516179
0.507764
0.497141
0.485047
0.471482
0.456982
0.442234
0.426999
0.410993
0.394221
0.376634
0.358345
0.339206
0.319764
0.302891
0.28897
0.277053
0.265858
0.255543
0.245679
0.236481
0.227469
0.21911
0.20966
0.201315
0.192494
0.186194
0.178774
0.170841
0.156093
0.144419
0.133426
0.213614
2.59808
2.59808
2.59808
2.59809
2.59809
2.5981
2.59813
2.59814
2.59818
2.59822
2.59828
2.59838
2.5985
2.59864
2.59884
2.59911
2.59943
2.59982
2.60031
2.60091
2.60163
2.60248
2.60346
2.60461
2.6059
2.60738
2.60906
2.61093
2.613
2.61533
2.61783
2.62061
2.62359
2.62685
2.63032
2.63403
2.63797
2.64213
2.64656
2.65121
2.65616
2.66134
2.66645
2.67155
2.6767
2.68214
2.68837
2.69546
2.70296
2.71257
2.72598
2.74483
2.76647
2.80155
2.80599
1.2605
1.02953
0.960245
0.757787
0.554875
0.420197
0.375094
0.402961
0.42442
0.439718
0.458422
0.473116
0.485482
0.493214
0.503355
0.511738
0.519547
0.525545
0.530969
0.535801
0.539436
0.541613
0.542985
0.543493
0.541852
0.540129
0.537892
0.537904
0.536781
0.537937
0.535632
0.530164
0.522413
0.511956
0.49979
0.485762
0.470258
0.4541
0.437967
0.421632
0.40482
0.387672
0.370138
0.351539
0.3314
0.312925
0.297785
0.284996
0.273277
0.26277
0.252988
0.244022
0.235295
0.22685
0.217086
0.208204
0.198997
0.192081
0.184225
0.175224
0.160267
0.147303
0.13959
0.213163
2.59808
2.59808
2.59808
2.59809
2.59809
2.5981
2.59813
2.59814
2.59818
2.59821
2.59827
2.59837
2.59846
2.59862
2.59881
2.59905
2.59936
2.59973
2.60019
2.60074
2.60141
2.6022
2.60312
2.60419
2.60541
2.60679
2.60836
2.61012
2.61207
2.61423
2.61658
2.61921
2.62201
2.62512
2.62841
2.632
2.63575
2.63985
2.6442
2.6489
2.654
2.65944
2.66515
2.67112
2.67729
2.6839
2.69259
2.70261
2.71371
2.7241
2.73491
2.7383
2.7522
2.71005
2.04506
1.13834
0.941924
0.825815
0.572078
0.436423
0.379564
0.405348
0.423561
0.446403
0.459047
0.471315
0.48582
0.497997
0.506472
0.515724
0.522948
0.53049
0.536009
0.541266
0.545895
0.54969
0.55233
0.553841
0.55546
0.555529
0.554364
0.551177
0.550123
0.548525
0.54906
0.548178
0.54364
0.536722
0.527164
0.51513
0.501027
0.485793
0.469146
0.45231
0.434834
0.417261
0.399873
0.382248
0.363671
0.343476
0.323895
0.307491
0.293555
0.281149
0.270341
0.260572
0.251792
0.24324
0.234823
0.224895
0.215395
0.205672
0.197998
0.189592
0.179782
0.164655
0.150612
0.145702
0.212434
2.59808
2.59808
2.59808
2.59809
2.59809
2.5981
2.59812
2.59814
2.59816
2.59821
2.59827
2.59834
2.59845
2.59858
2.59876
2.59899
2.59927
2.59962
2.60005
2.60056
2.60119
2.6019
2.60276
2.60373
2.60487
2.60612
2.60757
2.60916
2.61095
2.61291
2.61508
2.61746
2.62006
2.6229
2.62594
2.62924
2.63275
2.63663
2.64079
2.64537
2.65022
2.65514
2.66012
2.66529
2.67027
2.67518
2.68163
2.68811
2.69391
2.69836
2.70625
2.70975
2.72966
2.6757
1.45757
0.926687
0.811399
0.581735
0.434681
0.38013
0.398813
0.425857
0.446602
0.46683
0.480878
0.489367
0.499329
0.510142
0.517282
0.526487
0.532831
0.540065
0.545362
0.55099
0.555908
0.560174
0.563343
0.565257
0.566944
0.568005
0.567438
0.564875
0.562816
0.560207
0.55983
0.55923
0.55586
0.54986
0.541436
0.530385
0.516708
0.501208
0.48431
0.466459
0.448268
0.430148
0.412396
0.394401
0.375497
0.355543
0.335534
0.317811
0.302592
0.28945
0.278248
0.268436
0.259629
0.251172
0.242681
0.232724
0.222758
0.21247
0.203962
0.195106
0.184492
0.169325
0.154229
0.151699
0.211032
2.59808
2.59808
2.59808
2.59808
2.59809
2.5981
2.59812
2.59814
2.59816
2.5982
2.59826
2.59833
2.59843
2.59856
2.59871
2.59893
2.59919
2.5995
2.59991
2.60037
2.60093
2.60159
2.60236
2.60324
2.60424
2.60538
2.60666
2.60807
2.60966
2.61138
2.61331
2.61536
2.61768
2.62012
2.62281
2.62566
2.62881
2.63217
2.63596
2.64003
2.64437
2.64895
2.65364
2.65864
2.66429
2.67118
2.68076
2.69356
2.70963
2.73086
2.75879
2.79328
2.83017
2.6306
1.1393
0.788857
0.624225
0.465012
0.379367
0.40608
0.422537
0.448431
0.465043
0.480338
0.49384
0.504497
0.512205
0.522256
0.528608
0.537073
0.542287
0.549411
0.554504
0.560432
0.565673
0.570303
0.573903
0.576218
0.578008
0.579087
0.579527
0.577882
0.575976
0.572796
0.571363
0.570954
0.568351
0.563184
0.555671
0.545457
0.532567
0.517503
0.500346
0.481832
0.462757
0.443711
0.425146
0.406514
0.387299
0.367645
0.347902
0.329021
0.312456
0.298579
0.286907
0.276786
0.267849
0.259356
0.250786
0.240943
0.23058
0.21971
0.210317
0.200591
0.189314
0.174328
0.158302
0.157532
0.209165
2.59808
2.59808
2.59808
2.59808
2.59809
2.59809
2.59812
2.59813
2.59815
2.5982
2.59825
2.59831
2.5984
2.59851
2.59866
2.59886
2.59909
2.59938
2.59974
2.60016
2.60066
2.60124
2.60191
2.60269
2.60356
2.60455
2.60564
2.60686
2.60818
2.60964
2.61124
2.61296
2.61483
2.61683
2.619
2.62128
2.62383
2.62655
2.6296
2.63285
2.63624
2.63968
2.64325
2.64639
2.64989
2.65426
2.65846
2.66201
2.66402
2.66796
2.66304
2.66917
2.59423
1.53206
0.792982
0.632504
0.469752
0.40094
0.40292
0.436103
0.454611
0.477338
0.491506
0.500898
0.509914
0.52063
0.526252
0.534892
0.540133
0.547745
0.5527
0.559752
0.565254
0.57098
0.576605
0.581459
0.585273
0.587939
0.589659
0.590645
0.591254
0.590732
0.588948
0.585923
0.583361
0.58233
0.580101
0.575609
0.568763
0.559504
0.54773
0.533236
0.516015
0.497259
0.477479
0.457458
0.43802
0.418599
0.399136
0.37994
0.360751
0.340875
0.32277
0.307919
0.295725
0.285315
0.276048
0.267409
0.258774
0.24909
0.238423
0.227245
0.216597
0.206228
0.194615
0.179518
0.162563
0.163165
0.206848
2.59808
2.59808
2.59808
2.59808
2.59809
2.59809
2.59812
2.59813
2.59815
2.59819
2.59822
2.59828
2.59838
2.59847
2.59862
2.59877
2.599
2.59925
2.59956
2.59993
2.60037
2.60087
2.60145
2.60209
2.60282
2.60364
2.60453
2.60551
2.60654
2.60769
2.60888
2.61019
2.61155
2.61301
2.6145
2.61612
2.61781
2.61968
2.6216
2.62366
2.62576
2.62793
2.63017
2.63302
2.63626
2.64088
2.64682
2.6536
2.66195
2.67071
2.68172
2.67302
2.69325
0.983393
0.636235
0.485605
0.425197
0.393233
0.433481
0.450072
0.471905
0.491392
0.5061
0.516758
0.523697
0.533841
0.539986
0.547939
0.552526
0.558941
0.563801
0.569875
0.575956
0.58119
0.587216
0.592185
0.5962
0.599325
0.601157
0.601812
0.602496
0.602275
0.601395
0.599114
0.596047
0.594236
0.592262
0.588574
0.582617
0.574093
0.562816
0.548741
0.531811
0.512684
0.491659
0.471199
0.45099
0.431064
0.411448
0.39264
0.373829
0.353656
0.33407
0.318067
0.305279
0.294325
0.28467
0.275803
0.2671
0.257527
0.246781
0.235305
0.223515
0.21233
0.200038
0.184714
0.166928
0.168552
0.204148
2.59808
2.59808
2.59808
2.59808
2.59809
2.59809
2.5981
2.59813
2.59814
2.59818
2.59821
2.59827
2.59834
2.59844
2.59856
2.5987
2.59889
2.59912
2.59938
2.59969
2.60006