/*--------------------------------*- C++ -*----------------------------------*\
| =========                 |                                                 |
| \\      /  F ield         | OpenFOAM: The Open Source CFD Toolbox           |
|  \\    /   O peration     | Version:  2.2.x                                 |
|   \\  /    A nd           | Web:      www.OpenFOAM.org                      |
|    \\/     M anipulation  |                                                 |
\*---------------------------------------------------------------------------*/
FoamFile
{
    version     2.0;
    format      ascii;
    class       volScalarField;
    location    "0.45";
    object      p;
}
// * * * * * * * * * * * * * * * * * * * * * * * * * * * * * * * * * * * * * //

dimensions      [1 -1 -2 0 0 0 0];

internalField   nonuniform List<scalar> 
14161
(
0.199999
0.199999
0.199998
0.199998
0.199996
0.199995
0.199992
0.199987
0.199981
0.199973
0.199961
0.199945
0.199923
0.199894
0.199857
0.199809
0.19975
0.199674
0.199588
0.199482
0.199358
0.19921
0.199058
0.198877
0.198681
0.198463
0.198226
0.197994
0.197752
0.197489
0.197239
0.196974
0.1967
0.196464
0.196252
0.196041
0.195819
0.195628
0.195461
0.195319
0.195194
0.195103
0.195039
0.194997
0.194963
0.194931
0.194891
0.194845
0.194806
0.194799
0.194843
0.194929
0.194996
0.195035
0.195077
0.195451
0.19588
0.197743
0.196659
0.88098
1.64167
1.68001
1.58298
1.53876
1.49845
1.46148
1.42438
1.38723
1.35438
1.3241
1.29716
1.27234
1.25001
1.23292
1.21847
1.20986
1.20518
1.20183
1.18518
1.14869
1.12041
1.08677
1.0191
0.954228
0.881584
1.01944
1.36256
1.56886
1.71657
1.7976
1.84145
1.87075
1.89042
1.90472
1.9139
1.91923
1.92313
1.92759
1.93254
1.93938
1.94677
1.95605
1.96526
1.97535
1.98584
1.99631
2.00627
2.01526
2.02274
2.03051
2.03658
2.04268
2.04741
2.05304
2.05652
2.05966
2.06095
2.06525
2.07741
0.199999
0.199999
0.199998
0.199998
0.199996
0.199995
0.199992
0.199987
0.199981
0.199973
0.199961
0.199945
0.199923
0.199894
0.199857
0.199809
0.19975
0.199676
0.199585
0.199479
0.199362
0.199214
0.199053
0.198869
0.198683
0.19847
0.198232
0.197992
0.197737
0.197492
0.197242
0.196973
0.196706
0.196463
0.19625
0.196037
0.195818
0.195624
0.195455
0.195307
0.195177
0.195085
0.195025
0.194987
0.194954
0.194927
0.19489
0.194855
0.194831
0.194839
0.194899
0.194934
0.194959
0.194935
0.194958
0.194944
0.195185
0.194444
0.195355
0.622894
1.59075
1.64967
1.58104
1.54567
1.50566
1.46731
1.42858
1.39122
1.35688
1.3255
1.29746
1.27275
1.25013
1.23162
1.21829
1.2078
1.20011
1.19224
1.17956
1.13917
1.11713
1.08324
1.01736
0.956244
0.897553
1.14154
1.43292
1.59629
1.72575
1.81188
1.86153
1.88876
1.90776
1.92141
1.93014
1.93562
1.94019
1.94563
1.95154
1.9591
1.9671
1.97626
1.98439
1.99333
2.00265
2.01199
2.02045
2.02966
2.03757
2.04503
2.05121
2.05679
2.06094
2.06555
2.06804
2.06988
2.07209
2.07081
2.0821
0.199999
0.199999
0.199998
0.199998
0.199996
0.199995
0.199992
0.199987
0.199981
0.199973
0.199961
0.199945
0.199923
0.199894
0.199857
0.19981
0.19975
0.199676
0.199588
0.199482
0.199358
0.199211
0.199058
0.198877
0.198679
0.198457
0.198233
0.198004
0.197746
0.197484
0.197223
0.196966
0.196701
0.196453
0.196242
0.196027
0.195799
0.195604
0.195431
0.195281
0.195147
0.195044
0.194974
0.194926
0.194899
0.194871
0.194843
0.194823
0.194816
0.194855
0.194917
0.19499
0.195128
0.195325
0.195471
0.19499
0.193976
0.190762
0.190471
0.678971
1.59668
1.65722
1.59625
1.5678
1.52829
1.48704
1.44614
1.40579
1.36603
1.32992
1.29885
1.27234
1.24912
1.23015
1.21562
1.20521
1.19547
1.1842
1.17483
1.13511
1.11402
1.07123
1.00883
0.95054
0.945174
1.21128
1.41432
1.54007
1.64583
1.75019
1.81781
1.85875
1.8863
1.90597
1.91916
1.9284
1.93571
1.94292
1.95013
1.95869
1.96729
1.97692
1.98655
1.99667
2.00646
2.0161
2.02537
2.03348
2.04065
2.04802
2.05454
2.0601
2.06271
2.06578
2.06573
2.06304
2.06102
2.06163
2.07147
0.199999
0.199999
0.199998
0.199998
0.199996
0.199995
0.199992
0.199987
0.199981
0.199973
0.199961
0.199945
0.199923
0.199894
0.199857
0.19981
0.19975
0.199677
0.199588
0.199483
0.199359
0.199216
0.199055
0.198874
0.198676
0.198463
0.198234
0.197993
0.197738
0.19748
0.197229
0.196966
0.196695
0.19644
0.19621
0.195998
0.195776
0.195571
0.195393
0.195241
0.195101
0.194986
0.19491
0.194855
0.194833
0.194802
0.194779
0.194802
0.194857
0.194916
0.194989
0.195114
0.195275
0.195634
0.195858
0.196137
0.196386
0.195676
0.197468
0.837201
1.61516
1.66075
1.59417
1.56365
1.52219
1.47702
1.43452
1.39352
1.35312
1.31603
1.28488
1.25859
1.23701
1.21882
1.20461
1.19308
1.18262
1.16615
1.15818
1.12001
1.0982
1.04603
0.996858
0.91672
1.01179
1.27348
1.38773
1.48042
1.58011
1.71586
1.80332
1.85473
1.88872
1.91252
1.92962
1.94234
1.9519
1.96087
1.96918
1.97753
1.98576
1.99466
2.00286
2.0116
2.01955
2.02775
2.03471
2.04147
2.04747
2.05342
2.05827
2.06193
2.06261
2.063
2.06081
2.05658
2.05459
2.05827
2.06538
0.199999
0.199999
0.199998
0.199998
0.199996
0.199995
0.199992
0.199988
0.199982
0.199973
0.199961
0.199945
0.199923
0.199895
0.199858
0.19981
0.199751
0.199678
0.199589
0.199484
0.19936
0.199218
0.199056
0.198877
0.198678
0.198462
0.198231
0.197984
0.197738
0.197481
0.197216
0.196943
0.196683
0.196425
0.196171
0.195955
0.195751
0.195541
0.195335
0.195169
0.195023
0.194892
0.194799
0.194726
0.194694
0.194659
0.194628
0.194659
0.19473
0.194898
0.195087
0.195288
0.195518
0.195819
0.19643
0.197449
0.198567
0.200833
0.20069
0.955975
1.63754
1.69577
1.62685
1.5847
1.53588
1.48133
1.43161
1.38501
1.34181
1.30522
1.26892
1.23756
1.21575
1.1972
1.18071
1.16886
1.15878
1.13963
1.13056
1.08916
1.05905
1.01679
0.976105
0.948397
1.14459
1.31786
1.35503
1.42346
1.50735
1.64937
1.76497
1.83654
1.87959
1.90824
1.92885
1.94434
1.95685
1.96808
1.97815
1.98768
1.9964
2.00533
2.01305
2.02107
2.02766
2.03455
2.03995
2.04525
2.0502
2.05526
2.05899
2.06138
2.06108
2.05965
2.05627
2.05225
2.05043
2.05492
2.06188
0.199999
0.199999
0.199998
0.199998
0.199996
0.199995
0.199992
0.199988
0.199982
0.199973
0.199961
0.199945
0.199924
0.199895
0.199858
0.199811
0.199751
0.199678
0.19959
0.199484
0.199361
0.199219
0.199057
0.198878
0.198678
0.198462
0.198231
0.197985
0.197726
0.197475
0.197204
0.196926
0.196665
0.196417
0.19614
0.195902
0.195703
0.195489
0.19526
0.195075
0.194915
0.194771
0.194657
0.194573
0.194522
0.194484
0.194457
0.194478
0.194577
0.194658
0.194746
0.194872
0.195201
0.195898
0.196871
0.198473
0.201069
0.204613
0.205517
1.02816
1.67266
1.70817
1.62831
1.57874
1.5174
1.45913
1.40587
1.35801
1.31758
1.27458
1.24309
1.21214
1.1861
1.17086
1.15598
1.14214
1.13496
1.10992
1.10141
1.06236
1.03458
1.01192
0.952571
1.07333
1.23577
1.30059
1.3027
1.35637
1.42332
1.56573
1.69137
1.79395
1.84993
1.88843
1.9159
1.93765
1.95508
1.9696
1.98151
1.99167
2.00058
2.00946
2.01686
2.02465
2.03072
2.03674
2.04124
2.04595
2.05028
2.05486
2.05817
2.06003
2.05875
2.05702
2.05276
2.04971
2.04819
2.05235
2.05937
0.199999
0.199999
0.199998
0.199998
0.199996
0.199995
0.199992
0.199988
0.199982
0.199973
0.199961
0.199945
0.199924
0.199895
0.199858
0.199811
0.199752
0.199679
0.199591
0.199486
0.199362
0.19922
0.199059
0.198879
0.198678
0.198462
0.19823
0.197984
0.197724
0.197458
0.19719
0.196907
0.196637
0.196385
0.196109
0.19584
0.195622
0.195406
0.195161
0.194954
0.194777
0.194612
0.194471
0.194356
0.19427
0.194209
0.194134
0.194085
0.194108
0.194161
0.194353
0.19479
0.195605
0.196572
0.197873
0.199382
0.200908
0.20361
0.205268
1.03155
1.67143
1.70324
1.59962
1.55395
1.48734
1.43066
1.37927
1.33185
1.29212
1.24573
1.21859
1.17952
1.15111
1.14202
1.12509
1.11012
1.1064
1.08202
1.07734
1.03848
1.02404
1.01197
1.01593
1.20984
1.30397
1.3055
1.27892
1.31166
1.3696
1.48931
1.61019
1.73541
1.81255
1.86214
1.89814
1.92452
1.94455
1.96078
1.97407
1.98551
1.99596
2.00673
2.01551
2.02451
2.03104
2.03682
2.0407
2.0448
2.04814
2.05182
2.05536
2.05696
2.05558
2.054
2.04919
2.04716
2.04585
2.04976
2.0565
0.199999
0.199999
0.199999
0.199998
0.199996
0.199995
0.199992
0.199988
0.199982
0.199973
0.199962
0.199946
0.199924
0.199896
0.199859
0.199812
0.199753
0.19968
0.199592
0.199487
0.199364
0.199222
0.199061
0.19888
0.198679
0.198462
0.198228
0.197977
0.19772
0.19745
0.197171
0.196889
0.196603
0.196335
0.196067
0.195784
0.195524
0.195295
0.19506
0.194821
0.194613
0.194429
0.194264
0.194103
0.193978
0.193864
0.193746
0.193645
0.19355
0.193507
0.193503
0.193637
0.19366
0.193697
0.194021
0.194448
0.195541
0.196664
0.200334
0.954123
1.63913
1.63678
1.51336
1.47764
1.42711
1.38313
1.31785
1.28663
1.23501
1.19191
1.18975
1.12927
1.10232
1.10946
1.08954
1.07437
1.07951
1.06459
1.0618
1.04877
1.03635
1.03465
1.22488
1.36247
1.35253
1.3149
1.28491
1.29774
1.34615
1.43823
1.55643
1.68651
1.77894
1.8365
1.87706
1.90745
1.93165
1.95172
1.96786
1.98153
1.99295
2.00428
2.01367
2.02246
2.02859
2.03386
2.03759
2.04181
2.04501
2.0485
2.05195
2.05332
2.05248
2.05116
2.04631
2.04495
2.04352
2.04722
2.05356
0.199999
0.199999
0.199999
0.199998
0.199996
0.199995
0.199992
0.199988
0.199982
0.199973
0.199962
0.199946
0.199925
0.199896
0.19986
0.199813
0.199754
0.199682
0.199594
0.19949
0.199367
0.199225
0.199063
0.198881
0.198681
0.198463
0.198226
0.197974
0.197712
0.197436
0.197144
0.196866
0.196581
0.196278
0.195993
0.195727
0.195429
0.195158
0.19492
0.194674
0.194415
0.194191
0.193998
0.193806
0.193605
0.193405
0.193188
0.192981
0.192774
0.192564
0.1923
0.192096
0.191891
0.191765
0.1917
0.191421
0.190732
0.188986
0.186057
0.575981
1.54359
1.52628
1.41458
1.37297
1.32817
1.30712
1.23776
1.22359
1.15958
1.13136
1.12593
1.09034
1.05899
1.07015
1.06417
1.05524
1.06848
1.0667
1.06523
1.0662
1.13143
1.29995
1.42955
1.46686
1.38767
1.35535
1.34719
1.35095
1.38491
1.44577
1.543
1.65342
1.75029
1.81428
1.85952
1.89364
1.92044
1.94269
1.96056
1.97532
1.98731
1.99899
2.00892
2.01778
2.02433
2.03021
2.03425
2.03907
2.0423
2.04545
2.04839
2.04919
2.04899
2.04831
2.04365
2.04288
2.0415
2.04475
2.05056
0.199999
0.199999
0.199999
0.199998
0.199997
0.199995
0.199992
0.199988
0.199982
0.199974
0.199962
0.199946
0.199925
0.199897
0.199861
0.199814
0.199756
0.199684
0.199597
0.199492
0.19937
0.199228
0.199067
0.198884
0.198683
0.198462
0.198225
0.19797
0.197702
0.197421
0.19713
0.196831
0.196539
0.196227
0.195922
0.195635
0.195332
0.195023
0.194743
0.194491
0.194221
0.193939
0.193681
0.193463
0.19324
0.192977
0.192644
0.19234
0.191996
0.19171
0.191272
0.190565
0.189793
0.188847
0.187801
0.186844
0.185636
0.18134
0.181777
0.470501
1.1624
1.31942
1.36411
1.2785
1.25991
1.20804
1.17304
1.14441
1.1564
1.07317
1.07425
1.09192
1.03618
1.05623
1.06314
1.04594
1.08839
1.10426
1.17899
1.26348
1.41362
1.53667
1.60191
1.57043
1.52295
1.47342
1.45158
1.45369
1.47029
1.51222
1.57534
1.65628
1.74842
1.80951
1.85349
1.88651
1.91366
1.93589
1.95411
1.96958
1.98231
1.9947
2.00528
2.01438
2.02127
2.02749
2.03184
2.0367
2.03955
2.04217
2.04456
2.04482
2.04527
2.04534
2.04133
2.04174
2.03917
2.0423
2.04763
0.199999
0.199999
0.199999
0.199998
0.199997
0.199995
0.199992
0.199988
0.199982
0.199974
0.199962
0.199947
0.199926
0.199898
0.199862
0.199816
0.199758
0.199686
0.199599
0.199495
0.199373
0.199232
0.19907
0.198888
0.198687
0.198464
0.198224
0.197966
0.197694
0.197406
0.19711
0.196804
0.19649
0.196168
0.195843
0.195536
0.195217
0.194883
0.194572
0.194283
0.194001
0.193683
0.193374
0.193083
0.192828
0.192511
0.192071
0.191664
0.1912
0.190785
0.190321
0.189639
0.188699
0.18741
0.186031
0.184158
0.182564
0.178118
0.176829
0.639623
1.01128
1.09421
1.21144
1.23989
1.20783
1.20732
1.13987
1.12185
1.08718
1.07733
1.05265
1.07986
1.02339
1.06345
1.09226
1.12151
1.2408
1.34367
1.4524
1.56786
1.66792
1.71809
1.72193
1.6848
1.65136
1.61122
1.5853
1.58011
1.58438
1.6042
1.64066
1.69625
1.76249
1.81485
1.85592
1.88754
1.9136
1.93433
1.95101
1.96545
1.97736
1.98949
2.00044
2.00987
2.01709
2.02376
2.02872
2.03374
2.0367
2.03894
2.04074
2.04027
2.04125
2.04195
2.03886
2.04059
2.03764
2.03972
2.04457
0.199999
0.199999
0.199999
0.199998
0.199997
0.199995
0.199992
0.199988
0.199982
0.199974
0.199963
0.199947
0.199926
0.199899
0.199863
0.199817
0.19976
0.199689
0.199603
0.199499
0.199378
0.199237
0.199075
0.198893
0.19869
0.198466
0.198224
0.197963
0.197685
0.197392
0.197084
0.196772
0.196446
0.196105
0.195779
0.195438
0.195085
0.194735
0.194399
0.194084
0.193756
0.193415
0.19309
0.19278
0.192481
0.192115
0.191617
0.191155
0.190602
0.190035
0.189495
0.188749
0.187566
0.186609
0.185497
0.185283
0.183044
0.18631
0.258376
0.822572
1.00064
1.02325
1.16027
1.20092
1.21907
1.17451
1.17873
1.10158
1.10153
1.06505
1.09494
1.11126
1.08438
1.21709
1.30895
1.40912
1.51879
1.62564
1.71197
1.7618
1.77547
1.77631
1.76405
1.74925
1.73432
1.70997
1.68819
1.67591
1.67163
1.68185
1.70237
1.7408
1.79023
1.83116
1.86498
1.89174
1.91468
1.93411
1.94977
1.96157
1.97238
1.98392
1.99478
2.00446
2.01218
2.01952
2.02511
2.03036
2.03328
2.03557
2.03691
2.03602
2.0372
2.03832
2.03632
2.03868
2.03638
2.03712
2.04174
0.199999
0.199999
0.199999
0.199998
0.199997
0.199995
0.199992
0.199988
0.199982
0.199974
0.199963
0.199948
0.199927
0.1999
0.199865
0.199819
0.199762
0.199692
0.199606
0.199504
0.199383
0.199243
0.199081
0.198899
0.198695
0.19847
0.198226
0.19796
0.197678
0.19738
0.197065
0.196737
0.196399
0.196052
0.195698
0.195333
0.194959
0.194602
0.194257
0.193878
0.193496
0.193139
0.192824
0.192512
0.192143
0.191705
0.191258
0.190791
0.190269
0.189751
0.189263
0.188652
0.18786
0.187479
0.186923
0.18734
0.185135
0.196132
0.466858
0.905262
0.98405
0.974352
1.03515
1.08334
1.19163
1.16719
1.22935
1.11023
1.16856
1.13893
1.23514
1.31814
1.3896
1.49372
1.59204
1.67185
1.73077
1.76471
1.78839
1.80049
1.79722
1.78933
1.77858
1.76741
1.7604
1.75136
1.74232
1.72941
1.72616
1.73278
1.74751
1.77318
1.81117
1.84493
1.87223
1.89581
1.9173
1.93457
1.94886
1.96043
1.9703
1.98056
1.99023
1.99897
2.00696
2.01478
2.02089
2.02634
2.0294
2.03171
2.03305
2.03191
2.03333
2.0348
2.03363
2.03614
2.0349
2.0344
2.03903
0.199999
0.199999
0.199999
0.199998
0.199997
0.199995
0.199992
0.199988
0.199983
0.199975
0.199964
0.199949
0.199928
0.199901
0.199866
0.199822
0.199765
0.199696
0.199611
0.199509
0.199389
0.19925
0.199088
0.198907
0.198702
0.198477
0.198229
0.197963
0.197674
0.197368
0.197047
0.196707
0.196352
0.195998
0.195624
0.195239
0.194848
0.194454
0.194084
0.193691
0.193289
0.192913
0.192566
0.1922
0.19178
0.191363
0.190931
0.190471
0.189915
0.189391
0.188931
0.188396
0.187713
0.187279
0.186787
0.186646
0.184922
0.191303
0.690363
0.981202
1.00227
0.989604
0.995797
1.03644
1.09753
1.1929
1.22094
1.3009
1.31814
1.43166
1.48872
1.58519
1.65714
1.70892
1.7399
1.76095
1.77442
1.78501
1.78974
1.79391
1.79093
1.78478
1.77731
1.77105
1.76813
1.76713
1.769
1.76498
1.76022
1.76497
1.77733
1.79827
1.82694
1.85532
1.87844
1.89752
1.91737
1.93389
1.94699
1.95815
1.96819
1.97785
1.98596
1.99363
2.00144
2.00962
2.01619
2.02183
2.02513
2.02758
2.02897
2.02813
2.0297
2.03141
2.03083
2.03306
2.03298
2.03136
2.03637
0.199999
0.199999
0.199999
0.199998
0.199997
0.199995
0.199992
0.199988
0.199983
0.199975
0.199964
0.199949
0.199929
0.199903
0.199868
0.199824
0.199769
0.1997
0.199616
0.199516
0.199397
0.199258
0.199097
0.198917
0.198711
0.198486
0.198235
0.197964
0.197672
0.197361
0.19703
0.196681
0.196311
0.195951
0.195554
0.195144
0.194753
0.194362
0.193911
0.19349
0.193102
0.192734
0.192317
0.191867
0.191473
0.191081
0.190656
0.190132
0.189602
0.189092
0.188581
0.187966
0.187114
0.186202
0.185186
0.18344
0.182992
0.226525
0.844037
0.996884
0.999594
0.990053
0.991551
0.990727
1.07251
1.20353
1.41195
1.52436
1.60722
1.65508
1.68998
1.71588
1.7408
1.75299
1.76281
1.76694
1.76696
1.76982
1.77331
1.77728
1.77713
1.77383
1.76957
1.76577
1.76492
1.76783
1.77555
1.78025
1.78416
1.78701
1.79727
1.81356
1.83645
1.8609
1.88238
1.89987
1.91732
1.93234
1.94453
1.95516
1.96561
1.97452
1.98232
1.98922
1.99645
2.00442
2.01108
2.01685
2.02043
2.02318
2.0248
2.02463
2.02626
2.02792
2.02771
2.02944
2.0306
2.02788
2.03375
0.199999
0.199999
0.199999
0.199998
0.199997
0.199995
0.199992
0.199989
0.199983
0.199976
0.199965
0.19995
0.199931
0.199904
0.199871
0.199827
0.199773
0.199705
0.199622
0.199523
0.199405
0.199268
0.199109
0.198928
0.198724
0.198497
0.198246
0.197974
0.197676
0.197359
0.197025
0.196666
0.196291
0.1959
0.195497
0.195071
0.194649
0.194237
0.19378
0.193344
0.19293
0.192525
0.192077
0.191641
0.191238
0.19083
0.190354
0.189848
0.189385
0.188986
0.188589
0.188209
0.187963
0.187679
0.188217
0.186722
0.191747
0.383679
0.961162
1.02444
1.02134
1.01698
1.01854
1.04553
1.16434
1.42697
1.6464
1.73605
1.74039
1.7437
1.74383
1.74496
1.74502
1.7423
1.74128
1.74461
1.74934
1.75112
1.75242
1.75613
1.75819
1.75928
1.76011
1.76077
1.76184
1.76593
1.77252
1.78111
1.79157
1.80099
1.81051
1.82334
1.84159
1.862
1.88135
1.89864
1.91542
1.92948
1.94083
1.95178
1.96227
1.97086
1.97844
1.98519
1.99194
1.99938
2.00572
2.01154
2.01546
2.01867
2.02075
2.02121
2.02288
2.0244
2.02445
2.02584
2.02766
2.02409
2.03122
0.199999
0.199999
0.199999
0.199998
0.199997
0.199995
0.199993
0.199989
0.199984
0.199976
0.199966
0.199951
0.199932
0.199906
0.199873
0.199831
0.199777
0.19971
0.199629
0.199531
0.199415
0.199279
0.199122
0.198942
0.19874
0.198512
0.198261
0.197986
0.197686
0.197364
0.197017
0.196656
0.196275
0.19587
0.195454
0.195025
0.194585
0.194134
0.193678
0.193225
0.192762
0.192304
0.191884
0.19147
0.191048
0.190594
0.190135
0.189657
0.189209
0.188725
0.188189
0.187648
0.187346
0.186756
0.186846
0.18543
0.192655
0.604153
0.989426
1.02598
1.02583
1.03676
1.05835
1.15662
1.36558
1.64454
1.8007
1.79819
1.77135
1.7563
1.74593
1.73573
1.72966
1.72343
1.7186
1.72045
1.72376
1.72563
1.7288
1.73186
1.73675
1.7413
1.74592
1.74826
1.75184
1.75897
1.76583
1.77733
1.78872
1.80078
1.81481
1.8288
1.84396
1.86132
1.8783
1.89585
1.91141
1.92448
1.93552
1.94742
1.95805
1.96674
1.97431
1.98125
1.98755
1.99439
2.00022
2.0061
2.01041
2.01418
2.01677
2.01776
2.01954
2.02082
2.021
2.0216
2.02434
2.02006
2.02875
0.199999
0.199999
0.199999
0.199998
0.199997
0.199995
0.199993
0.199989
0.199984
0.199977
0.199966
0.199952
0.199933
0.199908
0.199876
0.199834
0.199782
0.199717
0.199637
0.199541
0.199427
0.199293
0.199138
0.198959
0.198759
0.198532
0.198283
0.198005
0.197706
0.19738
0.197032
0.196657
0.196263
0.195859
0.195431
0.194985
0.194531
0.194059
0.193579
0.19313
0.192664
0.192156
0.191686
0.191267
0.190858
0.190385
0.18992
0.189444
0.188996
0.188475
0.187846
0.187143
0.186376
0.185414
0.183991
0.181817
0.194084
0.797238
1.01769
1.03766
1.04069
1.06887
1.12986
1.33
1.59249
1.79585
1.82069
1.79185
1.77122
1.74956
1.73456
1.72368
1.71501
1.70538
1.69762
1.69577
1.69546
1.69753
1.70137
1.70548
1.71106
1.71663
1.72227
1.72825
1.73535
1.74387
1.75477
1.76767
1.78139
1.79509
1.81014
1.82723
1.84408
1.85905
1.87476
1.89055
1.90547
1.91758
1.92911
1.94193
1.95315
1.9623
1.97004
1.97698
1.98333
1.98939
1.99477
2.0007
2.00541
2.00975
2.01281
2.01417
2.01605
2.017
2.01738
2.01728
2.02077
2.01578
2.0264
0.199999
0.199999
0.199999
0.199998
0.199997
0.199995
0.199993
0.199989
0.199984
0.199977
0.199967
0.199953
0.199935
0.199911
0.199879
0.199839
0.199787
0.199724
0.199646
0.199552
0.19944
0.199309
0.199156
0.198981
0.198783
0.198558
0.19831
0.198033
0.197734
0.197405
0.197055
0.196678
0.196283
0.195854
0.19542
0.194975
0.194505
0.194024
0.193539
0.193043
0.192552
0.192058
0.191567
0.191105
0.190678
0.190218
0.189688
0.189178
0.188607
0.188135
0.18761
0.18721
0.186954
0.18747
0.186955
0.192216
0.332289
0.95706
1.05684
1.05629
1.06462
1.12523
1.28317
1.56134
1.77497
1.83144
1.80354
1.78016
1.75753
1.73755
1.72305
1.71127
1.70183
1.69102
1.68274
1.67642
1.67249
1.67341
1.67605
1.67929
1.68432
1.69197
1.6984
1.70699
1.71631
1.72722
1.73987
1.75457
1.77164
1.78815
1.80507
1.82145
1.8384
1.85453
1.86989
1.88448
1.89836
1.91031
1.92236
1.93584
1.94766
1.9574
1.96555
1.97263
1.97905
1.98492
1.99008
1.99591
2.00096
2.00564
2.00898
2.01052
2.01251
2.01305
2.01341
2.01293
2.01695
2.01146
2.02414
0.199999
0.199999
0.199999
0.199998
0.199997
0.199995
0.199993
0.19999
0.199985
0.199978
0.199968
0.199955
0.199937
0.199913
0.199883
0.199843
0.199793
0.199732
0.199656
0.199565
0.199456
0.199328
0.199178
0.199007
0.198811
0.19859
0.198344
0.198071
0.197772
0.197444
0.197093
0.196714
0.196313
0.195886
0.195442
0.194965
0.194485
0.193993
0.193494
0.192992
0.192477
0.191959
0.191491
0.19101
0.190532
0.190086
0.189626
0.189123
0.188602
0.188161
0.187688
0.187417
0.186916
0.187423
0.186517
0.195174
0.550602
1.01074
1.06421
1.07208
1.12313
1.24073
1.52896
1.74526
1.83604
1.81615
1.78511
1.76291
1.74254
1.72638
1.71114
1.69688
1.68612
1.67608
1.66781
1.66049
1.65511
1.65375
1.6542
1.6561
1.65967
1.66544
1.67053
1.68071
1.68949
1.70131
1.71611
1.73361
1.75302
1.77383
1.79447
1.81391
1.83099
1.84679
1.86194
1.87644
1.89009
1.90231
1.91495
1.929
1.94141
1.95171
1.96052
1.96794
1.97449
1.98042
1.98573
1.99169
1.99699
2.00174
2.00518
2.00678
2.00881
2.00887
2.0093
2.00857
2.01287
2.00731
2.02166
0.199999
0.199999
0.199999
0.199998
0.199997
0.199996
0.199993
0.19999
0.199985
0.199978
0.199969
0.199956
0.199939
0.199916
0.199886
0.199848
0.1998
0.199741
0.199667
0.199579
0.199473
0.199349
0.199203
0.199037
0.198845
0.19863
0.198386
0.19812
0.197822
0.1975
0.197148
0.196771
0.196368
0.195941
0.195491
0.19502
0.194535
0.194026
0.193502
0.192978
0.192449
0.191912
0.191404
0.190899
0.19037
0.189828
0.1893
0.188755
0.1882
0.18763
0.187061
0.186378
0.185422
0.184321
0.182274
0.183599
0.757138
1.03677
1.07704
1.10765
1.22792
1.46699
1.71804
1.83943
1.82826
1.79068
1.76711
1.74159
1.72452
1.70973
1.69608
1.6829
1.67254
1.66334
1.65518
1.6479
1.64178
1.63791
1.63668
1.63661
1.63781
1.64116
1.64615
1.65522
1.66361
1.67728
1.69299
1.71278
1.73443
1.75765
1.78039
1.8013
1.81988
1.83691
1.8524
1.86698
1.88091
1.89415
1.90751
1.92198
1.93492
1.94583
1.95521
1.96299
1.96973
1.97588
1.98156
1.98772
1.99317
1.99783
2.00116
2.00278
2.00473
2.00449
2.00511
2.0042
2.00861
2.0034
2.01914
0.199999
0.199999
0.199999
0.199998
0.199997
0.199996
0.199994
0.19999
0.199986
0.199979
0.19997
0.199958
0.199941
0.199919
0.199891
0.199854
0.199808
0.19975
0.19968
0.199595
0.199493
0.199373
0.199233
0.199071
0.198885
0.198677
0.19844
0.19818
0.197888
0.197573
0.197225
0.196854
0.19645
0.196025
0.19557
0.195095
0.194594
0.194078
0.193545
0.193
0.192448
0.191901
0.191336
0.190759
0.190208
0.189584
0.188926
0.188265
0.187583
0.186904
0.186454
0.185896
0.185855
0.185057
0.188934
0.308472
0.939593
1.07557
1.10012
1.21989
1.41076
1.6902
1.8385
1.83564
1.79695
1.77425
1.74842
1.72673
1.70965
1.69583
1.68274
1.66998
1.6588
1.64982
1.64214
1.63616
1.63043
1.62549
1.62233
1.61978
1.61942
1.61983
1.62311
1.63122
1.63908
1.6533
1.66752
1.68614
1.70731
1.73135
1.75725
1.78223
1.80412
1.82323
1.84023
1.85576
1.87066
1.88518
1.89968
1.91457
1.92788
1.9395
1.94949
1.9577
1.96478
1.9713
1.97742
1.98367
1.98908
1.99352
1.99684
1.99848
2.00059
2.00009
2.00089
1.99972
2.00421
1.99966
2.01637
0.199999
0.199999
0.199999
0.199998
0.199997
0.199996
0.199994
0.199991
0.199986
0.19998
0.199971
0.199959
0.199944
0.199923
0.199895
0.19986
0.199816
0.199761
0.199694
0.199612
0.199515
0.1994
0.199266
0.199111
0.198934
0.198732
0.198506
0.198252
0.197972
0.197664
0.197327
0.196963
0.196568
0.196147
0.195695
0.195221
0.194717
0.194196
0.193646
0.193085
0.192512
0.19193
0.19133
0.190716
0.190138
0.189542
0.188924
0.188295
0.187695
0.186993
0.186459
0.185631
0.185957
0.184394
0.193609
0.550721
0.990933
1.09747
1.17003
1.40914
1.64823
1.83369
1.84093
1.80328
1.77751
1.75062
1.72999
1.71113
1.69422
1.68055
1.66919
1.65709
1.6458
1.63661
1.62938
1.62406
1.61914
1.61451
1.61038
1.60585
1.6038
1.60102
1.60312
1.60893
1.61609
1.62962
1.64313
1.66072
1.68078
1.70519
1.73208
1.7602
1.78613
1.80842
1.82733
1.84404
1.85989
1.87569
1.89116
1.90633
1.92023
1.93264
1.94338
1.95206
1.95954
1.96651
1.97293
1.97924
1.98453
1.98882
1.99209
1.9937
1.99589
1.99554
1.9963
1.9951
1.99943
1.99584
2.01247
0.199999
0.199999
0.199999
0.199998
0.199997
0.199996
0.199994
0.199991
0.199987
0.199981
0.199973
0.199961
0.199946
0.199926
0.1999
0.199867
0.199825
0.199773
0.199709
0.199632
0.19954
0.199431
0.199304
0.199156
0.198989
0.198796
0.198583
0.19834
0.198075
0.197778
0.197457
0.197103
0.196724
0.196312
0.195872
0.195405
0.194909
0.194388
0.193835
0.193258
0.192647
0.192009
0.191382
0.190761
0.190136
0.189483
0.188731
0.187898
0.186994
0.185847
0.184278
0.182126
0.179679
0.175845
0.182118
0.771827
1.07437
1.13951
1.37985
1.62097
1.81473
1.84168
1.80245
1.77755
1.75019
1.7272
1.71192
1.69749
1.68225
1.66795
1.65688
1.64569
1.63535
1.62632
1.618
1.61122
1.60578
1.60137
1.59725
1.59345
1.59022
1.58561
1.58718
1.59003
1.59594
1.60638
1.61929
1.63558
1.65483
1.67808
1.70522
1.73568
1.76591
1.79217
1.81349
1.83196
1.84921
1.86602
1.88232
1.89779
1.91215
1.92548
1.93696
1.9462
1.95411
1.96154
1.96836
1.97455
1.97963
1.98367
1.98679
1.98849
1.9909
1.99074
1.99164
1.9906
1.99462
1.99198
2.00825
0.199999
0.199999
0.199999
0.199998
0.199998
0.199996
0.199994
0.199991
0.199987
0.199982
0.199974
0.199963
0.199949
0.19993
0.199905
0.199874
0.199835
0.199786
0.199726
0.199654
0.199567
0.199466
0.199346
0.199209
0.199052
0.198873
0.198672
0.198445
0.198197
0.197918
0.197617
0.197282
0.196925
0.196531
0.196114
0.195661
0.195187
0.194675
0.194131
0.193545
0.192913
0.192242
0.191539
0.19081
0.190059
0.189263
0.188219
0.187026
0.185703
0.184533
0.183252
0.18299
0.181218
0.187094
0.346662
0.941174
1.17957
1.30505
1.61328
1.80651
1.84131
1.80656
1.77697
1.74917
1.72489
1.70542
1.69032
1.68034
1.66828
1.6563
1.64612
1.63487
1.62377
1.61291
1.6037
1.5966
1.59129
1.58763
1.58442
1.58149
1.57819
1.57338
1.57379
1.57376
1.57806
1.58513
1.597
1.61138
1.62981
1.6517
1.67812
1.70774
1.73991
1.76975
1.79484
1.81645
1.83628
1.8551
1.87256
1.88869
1.90349
1.91772
1.93008
1.93999
1.94853
1.95646
1.96355
1.96954
1.97423
1.97786
1.98102
1.98288
1.98554
1.98572
1.98663
1.98576
1.98945
1.98771
2.00302
0.199999
0.199999
0.199999
0.199998
0.199998
0.199996
0.199995
0.199992
0.199988
0.199983
0.199975
0.199965
0.199952
0.199934
0.199911
0.199882
0.199845
0.1998
0.199744
0.199677
0.199597
0.199504
0.199393
0.199268
0.199122
0.19896
0.198774
0.198569
0.198339
0.198087
0.197809
0.197505
0.197174
0.196814
0.196426
0.196009
0.195566
0.195078
0.194557
0.193985
0.193384
0.192774
0.19216
0.191526
0.190926
0.190323
0.18954
0.188762
0.188064
0.187528
0.186563
0.186208
0.183618
0.193117
0.635682
1.1746
1.29569
1.57111
1.76574
1.81758
1.79096
1.76475
1.7441
1.72215
1.70571
1.68913
1.6754
1.66596
1.65567
1.64443
1.63395
1.62221
1.61158
1.60062
1.59073
1.58269
1.57671
1.57289
1.57018
1.56812
1.56609
1.56271
1.56138
1.55967
1.56248
1.56729
1.57657
1.58929
1.60594
1.62662
1.65177
1.68096
1.71378
1.74716
1.77609
1.8005
1.82264
1.8432
1.86209
1.87903
1.89469
1.90966
1.92273
1.9332
1.94245
1.95078
1.95816
1.96405
1.9685
1.97185
1.97492
1.97696
1.97979
1.98036
1.98134
1.98065
1.98407
1.98304
1.99742
0.199999
0.199999
0.199999
0.199999
0.199998
0.199997
0.199995
0.199992
0.199989
0.199984
0.199977
0.199968
0.199955
0.199939
0.199917
0.19989
0.199857
0.199815
0.199764
0.199703
0.19963
0.199545
0.199446
0.199332
0.199202
0.199056
0.198891
0.19871
0.198505
0.198284
0.198037
0.197773
0.197478
0.197167
0.196823
0.196464
0.196064
0.195642
0.195163
0.194653
0.19411
0.193541
0.192957
0.192341
0.191644
0.190802
0.189636
0.188092
0.18618
0.183691
0.180564
0.176649
0.17349
0.216803
0.91823
1.35154
1.54398
1.77678
1.84728
1.80654
1.7787
1.74645
1.72008
1.69895
1.68186
1.66803
1.65669
1.64667
1.63738
1.6278
1.61881
1.60842
1.599
1.58841
1.57866
1.57012
1.56331
1.55871
1.55573
1.55402
1.55271
1.55119
1.54904
1.5468
1.54759
1.55048
1.5571
1.56789
1.58268
1.60258
1.62709
1.65523
1.68759
1.72213
1.75511
1.78342
1.80841
1.83095
1.851
1.86911
1.88584
1.90124
1.91486
1.92581
1.93583
1.94474
1.9522
1.95792
1.96207
1.96506
1.96823
1.97053
1.97354
1.97458
1.97587
1.97531
1.9782
1.97785
1.99104
0.199999
0.199999
0.199999
0.199999
0.199998
0.199997
0.199995
0.199993
0.19999
0.199985
0.199979
0.19997
0.199958
0.199943
0.199924
0.199899
0.199869
0.199831
0.199785
0.19973
0.199666
0.19959
0.199503
0.199403
0.19929
0.199163
0.199023
0.198866
0.198695
0.198508
0.198303
0.198084
0.197843
0.197587
0.197311
0.19702
0.196696
0.196352
0.195964
0.195556
0.195128
0.1947
0.194258
0.193864
0.193425
0.192887
0.192383
0.191938
0.191704
0.191203
0.191855
0.190861
0.202556
0.56848
1.29544
1.50611
1.70998
1.82326
1.80473
1.7714
1.748
1.72134
1.70016
1.68042
1.66308
1.65091
1.64083
1.63037
1.62094
1.61156
1.60276
1.59306
1.58435
1.57509
1.56591
1.55774
1.55079
1.54551
1.54212
1.53999
1.53855
1.53738
1.53587
1.53413
1.53272
1.53445
1.53878
1.54704
1.55992
1.57798
1.60128
1.62908
1.66152
1.6965
1.73264
1.7649
1.79283
1.81733
1.83884
1.85813
1.8758
1.89217
1.90636
1.91806
1.92885
1.93809
1.94561
1.95127
1.95528
1.95821
1.96153
1.96394
1.96714
1.96861
1.97004
1.96973
1.97212
1.97216
1.98384
0.199999
0.199999
0.199999
0.199999
0.199998
0.199997
0.199996
0.199993
0.19999
0.199986
0.19998
0.199972
0.199962
0.199948
0.199931
0.199909
0.199881
0.199848
0.199807
0.19976
0.199703
0.199638
0.199564
0.199479
0.199386
0.19928
0.199167
0.19904
0.198906
0.198759
0.198605
0.198437
0.198263
0.198076
0.197885
0.197678
0.197463
0.197225
0.196981
0.19672
0.196455
0.19618
0.195894
0.195535
0.195126
0.194551
0.19382
0.19297
0.191908
0.190924
0.189394
0.191174
0.20571
0.993596
1.52413
1.72509
1.83593
1.8288
1.77383
1.74797
1.71521
1.69505
1.67714
1.66008
1.64471
1.63272
1.62321
1.61293
1.6037
1.59419
1.5856
1.57736
1.56984
1.56224
1.55355
1.54584
1.53885
1.53312
1.52926
1.52709
1.52534
1.52417
1.52241
1.52077
1.51877
1.519
1.52143
1.52758
1.53861
1.5552
1.57756
1.60494
1.63675
1.67166
1.70951
1.74517
1.77601
1.80253
1.8257
1.84623
1.86508
1.8821
1.89694
1.90962
1.92113
1.93068
1.93831
1.94394
1.94798
1.95091
1.95434
1.95692
1.96031
1.96234
1.96428
1.9644
1.96578
1.96588
1.97577
0.199999
0.199999
0.199999
0.199999
0.199998
0.199997
0.199996
0.199994
0.199991
0.199987
0.199982
0.199975
0.199966
0.199953
0.199938
0.199919
0.199895
0.199866
0.199831
0.19979