/*--------------------------------*- C++ -*----------------------------------*\
| =========                 |                                                 |
| \\      /  F ield         | OpenFOAM: The Open Source CFD Toolbox           |
|  \\    /   O peration     | Version:  2.2.x                                 |
|   \\  /    A nd           | Web:      www.OpenFOAM.org                      |
|    \\/     M anipulation  |                                                 |
\*---------------------------------------------------------------------------*/
FoamFile
{
    version     2.0;
    format      ascii;
    class       volScalarField;
    location    "2.75";
    object      By;
}
// * * * * * * * * * * * * * * * * * * * * * * * * * * * * * * * * * * * * * //

dimensions      [1 0 -2 0 0 -1 0];

internalField   nonuniform List<scalar> 
14161
(
-4.10221e-06
-8.77196e-07
-1.36685e-06
-7.80846e-07
-1.55978e-06
-2.43728e-07
-1.45729e-06
-1.23214e-06
1.4384e-06
-4.02345e-06
-9.95911e-07
5.07153e-06
-4.78179e-06
-5.65863e-06
8.15144e-06
7.36138e-07
-1.631e-05
4.82013e-06
1.58079e-05
-6.55739e-06
-8.97127e-06
-9.39771e-06
1.13754e-05
2.4643e-05
-4.52758e-06
-1.81119e-05
-3.81114e-06
1.48203e-05
2.69088e-05
2.84558e-05
3.28556e-05
3.10535e-05
4.38519e-05
3.95566e-05
0.000100774
0.000130531
0.000168933
0.000283745
0.00020319
0.000369564
0.000312544
0.000231183
0.000281719
0.000307052
0.00241901
0.0156034
0.00787557
-0.000492147
-0.0096451
-0.0142817
-0.0163192
-0.0172097
-0.016066
-0.014128
-0.0126257
-0.0108755
-0.00980488
-0.0087026
-0.0075416
-0.00666741
-0.00584891
-0.00513233
-0.00420669
-0.00362138
-0.00313818
-0.00278616
-0.00236979
-0.00194496
-0.00147397
-0.00146931
-0.00192697
-0.00215895
-0.00216274
-0.00223017
-0.00201448
-0.00180057
-0.00189439
-0.00160054
-0.00140443
-0.00183204
-0.00138138
-0.00127925
-0.00139982
-0.00142381
-0.00137166
-0.00102949
-0.00107065
-0.00161751
-0.0011932
-0.000951411
-0.00140486
-0.00103383
-0.000974777
-0.00138064
-0.00117434
-0.00115042
-0.00131326
-0.00129688
-0.00122262
-0.0011896
-0.00154434
-0.00113839
-0.00143143
-0.00108006
-0.00141527
0.000624082
0.00252231
0.00573037
0.0153409
0.0399228
0.0661825
0.0904834
0.104052
0.0945964
0.0804787
0.076191
0.0716843
0.0688488
0.0657218
-8.75198e-06
-2.50083e-06
-3.5666e-06
-2.76305e-06
-3.97536e-06
-1.09726e-06
-3.6204e-06
-3.18323e-06
3.0974e-06
-9.92178e-06
-3.04677e-06
1.19641e-05
-1.34748e-05
-1.11696e-05
2.29041e-05
1.27629e-06
-3.22412e-05
1.16057e-05
3.86226e-05
-1.51132e-05
-3.22235e-05
-1.79956e-05
4.3216e-05
5.88442e-05
-6.56003e-06
-5.38317e-05
-1.75466e-05
3.36592e-05
7.10172e-05
8.37092e-05
0.000100094
0.000100177
0.000129182
0.000145466
0.000241356
0.000325896
0.000471685
0.000635357
0.000819633
0.000953014
0.0011586
0.000883954
0.000608713
0.000811171
0.0102217
0.0395609
0.0204507
-0.00343493
-0.031001
-0.0448003
-0.0466962
-0.0501858
-0.0468225
-0.0420747
-0.0391501
-0.0345391
-0.0318897
-0.0289248
-0.0257192
-0.023144
-0.0202861
-0.0178277
-0.0151423
-0.0134861
-0.0119869
-0.010708
-0.00930357
-0.00802942
-0.00631363
-0.00519588
-0.00478595
-0.00528114
-0.00556012
-0.00622751
-0.00603589
-0.00555493
-0.00598354
-0.00526047
-0.00467592
-0.00582022
-0.00484701
-0.00452801
-0.0049118
-0.00480941
-0.00447983
-0.00389472
-0.00390299
-0.0052218
-0.00425595
-0.00363169
-0.00461577
-0.00388222
-0.00348176
-0.00460038
-0.00411518
-0.00408186
-0.00447496
-0.00441981
-0.00431648
-0.0042334
-0.00501821
-0.00377254
-0.00371331
-0.00339877
-0.00269166
0.00171724
0.00727677
0.0158542
0.0424364
0.102101
0.200781
0.267879
0.273801
0.24892
0.220679
0.204854
0.187694
0.17059
0.159423
-1.3721e-05
-5.15011e-06
-5.91052e-06
-4.68279e-06
-6.36919e-06
-2.26601e-06
-6.20095e-06
-4.66766e-06
3.85803e-06
-1.51526e-05
-3.64641e-06
1.84522e-05
-2.19767e-05
-1.55186e-05
3.59496e-05
-2.64583e-06
-5.0305e-05
1.85625e-05
5.14687e-05
-1.6531e-05
-6.32333e-05
-1.55088e-05
7.70329e-05
8.5628e-05
-1.54257e-05
-8.72324e-05
-2.52327e-05
5.9653e-05
0.000123621
0.000149322
0.000168392
0.000164728
0.000196402
0.000304483
0.000390941
0.000493415
0.000688748
0.000990971
0.00150562
0.0017317
0.0022692
0.0023916
0.00254522
0.0052039
0.031559
0.0673382
0.0294355
-0.015451
-0.0589633
-0.0813807
-0.0842953
-0.0869184
-0.080228
-0.0719893
-0.0675153
-0.0598983
-0.0552212
-0.0499503
-0.0446737
-0.0402675
-0.0350835
-0.0306316
-0.025923
-0.0229174
-0.0202673
-0.0176649
-0.0151576
-0.0132303
-0.0110764
-0.00987928
-0.00883404
-0.0089607
-0.00908675
-0.00982635
-0.00927067
-0.00855834
-0.00905288
-0.00778082
-0.00691427
-0.00830193
-0.00699287
-0.00647504
-0.00751121
-0.00717036
-0.00621311
-0.00561897
-0.00579282
-0.00755393
-0.00643974
-0.00538166
-0.00675394
-0.00593894
-0.00530245
-0.00683443
-0.00619689
-0.00607666
-0.00679688
-0.00676737
-0.00661321
-0.0063648
-0.00709796
-0.0055935
-0.00527782
-0.00352037
-0.00140596
0.00721519
0.0233508
0.0512474
0.113106
0.23377
0.352698
0.407246
0.400745
0.366991
0.332976
0.315031
0.294961
0.266467
0.255621
-1.83672e-05
-7.70569e-06
-7.8209e-06
-5.82519e-06
-8.71917e-06
-3.80877e-06
-8.21541e-06
-6.49553e-06
4.17376e-06
-1.89219e-05
-5.65178e-06
2.11183e-05
-2.91356e-05
-1.88994e-05
4.45659e-05
-6.73075e-06
-5.64899e-05
1.86418e-05
6.46038e-05
-1.36842e-05
-8.98106e-05
-9.488e-06
0.000114196
0.000107454
-2.228e-05
-0.000116332
-3.53339e-05
7.87917e-05
0.00017443
0.000215676
0.000219587
0.000209352
0.000279317
0.00039659
0.000493952
0.000716482
0.0010133
0.00137317
0.0019403
0.00238596
0.00319692
0.00397942
0.00472763
0.010763
0.0578924
0.10238
0.0375965
-0.0346189
-0.0923409
-0.124814
-0.129247
-0.129097
-0.117737
-0.104354
-0.0955433
-0.0835417
-0.0750072
-0.0655901
-0.057948
-0.0520718
-0.0450368
-0.0394376
-0.0328856
-0.028814
-0.0245833
-0.0210294
-0.0184368
-0.0165279
-0.0145795
-0.013251
-0.0118254
-0.01132
-0.011547
-0.0126323
-0.0122164
-0.0116723
-0.0124334
-0.0111345
-0.0101074
-0.0111173
-0.00993849
-0.00957502
-0.0110385
-0.0104799
-0.00908286
-0.00827216
-0.00867369
-0.0103002
-0.00941367
-0.00836008
-0.00971594
-0.00909452
-0.00867352
-0.00992634
-0.00947372
-0.00945809
-0.00988829
-0.00964798
-0.00922898
-0.00964975
-0.00906913
-0.00623542
-0.00546908
0.000121294
0.00559289
0.0225731
0.0611618
0.124217
0.244583
0.395489
0.491105
0.525572
0.499551
0.455891
0.419032
0.397983
0.382907
0.346143
0.337273
-2.1146e-05
-9.42073e-06
-1.01973e-05
-8.2416e-06
-1.08305e-05
-5.9106e-06
-8.97201e-06
-8.74067e-06
2.68198e-06
-2.02856e-05
-6.4745e-06
1.9759e-05
-3.25302e-05
-1.85323e-05
4.74054e-05
-9.58672e-06
-5.61691e-05
1.42043e-05
7.23993e-05
-2.14726e-05
-0.000102256
-3.77435e-06
0.000134837
0.000117667
-2.6337e-05
-0.000129275
-5.01101e-05
9.40429e-05
0.000228024
0.000277309
0.000265371
0.000289772
0.000356568
0.000464246
0.000651352
0.000904398
0.00128501
0.00170646
0.00242601
0.00341138
0.0044929
0.0053702
0.00697836
0.0158967
0.0833327
0.144101
0.0434755
-0.0671519
-0.135349
-0.175463
-0.180509
-0.174681
-0.157155
-0.140614
-0.126523
-0.111326
-0.0990801
-0.0852162
-0.0744759
-0.0659242
-0.0576975
-0.049587
-0.0417393
-0.0362402
-0.0306569
-0.025576
-0.0220758
-0.0196752
-0.0179288
-0.0167472
-0.0155489
-0.0148206
-0.0146703
-0.0154839
-0.0148023
-0.0142903
-0.0149834
-0.0136753
-0.0120297
-0.0126026
-0.0115815
-0.0112512
-0.012681
-0.0120882
-0.0110491
-0.0100949
-0.0103682
-0.012027
-0.0114237
-0.0102213
-0.0118648
-0.0114235
-0.011377
-0.0121151
-0.0113389
-0.0114319
-0.0119467
-0.0113045
-0.0103796
-0.0106593
-0.00935486
-0.00393877
-0.00241322
0.00960253
0.03085
0.0668968
0.146987
0.275807
0.422662
0.53565
0.592033
0.601303
0.569085
0.522316
0.486149
0.464438
0.456135
0.416512
0.410419
-2.36094e-05
-1.18903e-05
-1.32996e-05
-1.09438e-05
-1.27681e-05
-8.20483e-06
-9.92938e-06
-1.10206e-05
-8.30206e-07
-1.99912e-05
-7.33315e-06
1.4858e-05
-3.21598e-05
-1.56644e-05
4.09568e-05
-8.52692e-06
-5.75086e-05
1.51926e-05
6.96094e-05
-2.33526e-05
-9.68761e-05
-2.73454e-07
0.00014499
0.00011441
-2.72379e-05
-0.000108717
-3.56513e-05
9.66512e-05
0.000273921
0.000322213
0.000285974
0.000310498
0.000375409
0.000539245
0.000697906
0.00097031
0.0013513
0.0019243
0.00272739
0.00368077
0.00476524
0.00623577
0.00910998
0.02046
0.0990732
0.179498
0.0373782
-0.107582
-0.185357
-0.235551
-0.240484
-0.223633
-0.19711
-0.174819
-0.150322
-0.130845
-0.114849
-0.0985368
-0.08452
-0.0720131
-0.0610987
-0.0531322
-0.0436836
-0.0376822
-0.0313945
-0.0268309
-0.0231269
-0.0204945
-0.0188293
-0.0172294
-0.0162566
-0.0154971
-0.0156239
-0.016818
-0.0163002
-0.015337
-0.0161764
-0.015195
-0.0139477
-0.0142522
-0.0133311
-0.0132697
-0.014461
-0.0142221
-0.0134805
-0.0120555
-0.0123853
-0.0139816
-0.0136065
-0.0127162
-0.0144345
-0.0143576
-0.0138112
-0.0144763
-0.0141158
-0.0141659
-0.0128756
-0.0123223
-0.010458
-0.0099401
-0.00762328
0.00279844
0.0123992
0.0354155
0.086679
0.163363
0.305919
0.45732
0.566195
0.631099
0.661442
0.655284
0.620571
0.574554
0.541193
0.519225
0.513418
0.476208
0.472504
-2.70151e-05
-1.43273e-05
-1.59712e-05
-1.27191e-05
-1.39937e-05
-9.58946e-06
-1.18359e-05
-1.35919e-05
-5.08465e-06
-1.81081e-05
-7.40527e-06
8.03058e-06
-2.8448e-05
-1.03944e-05
2.92643e-05
-7.00588e-06
-5.24767e-05
1.54857e-05
5.83503e-05
-2.7168e-05
-8.35928e-05
8.67711e-06
0.000129768
9.26977e-05
-1.7293e-05
-6.3934e-05
-2.33523e-05
0.000101833
0.000288633
0.000313685
0.000300886
0.000335541
0.000433503
0.000587902
0.000822583
0.00111127
0.00152271
0.00208957
0.0029491
0.00385991
0.00502493
0.00617261
0.00920539
0.016705
0.085563
0.212548
0.028924
-0.161981
-0.243068
-0.293235
-0.2933
-0.266357
-0.235396
-0.207592
-0.176397
-0.154569
-0.13101
-0.112297
-0.0955876
-0.0814825
-0.067545
-0.0577436
-0.0480244
-0.0402006
-0.0332017
-0.0290151
-0.0252409
-0.0220354
-0.0203236
-0.0186229
-0.0179554
-0.0171452
-0.0171346
-0.0177448
-0.0173818
-0.0165235
-0.0168092
-0.0159564
-0.015128
-0.0149639
-0.0140538
-0.0139744
-0.0148913
-0.0152351
-0.0147049
-0.0135111
-0.013641
-0.0149348
-0.0148671
-0.0143333
-0.015956
-0.016363
-0.0156567
-0.0152559
-0.0150027
-0.0139918
-0.011605
-0.0113241
-0.00837598
-0.00431919
0.00158726
0.0217108
0.0502356
0.097916
0.200384
0.341984
0.489641
0.60037
0.66409
0.695446
0.709758
0.692153
0.656271
0.614444
0.584844
0.564144
0.560122
0.528279
0.527303
-2.87366e-05
-1.64456e-05
-1.81e-05
-1.40465e-05
-1.45408e-05
-1.27824e-05
-1.302e-05
-1.47255e-05
-1.04817e-05
-1.49289e-05
-6.89155e-06
-4.12996e-06
-2.07131e-05
-9.01352e-06
1.59619e-05
-8.52286e-06
-3.91366e-05
1.60415e-05
4.18243e-05
-2.62774e-05
-6.09894e-05
2.18362e-05
9.96872e-05
6.33821e-05
-2.21518e-07
-1.47454e-05
9.29817e-07
0.000110115
0.000245758
0.000299205
0.000306393
0.000356962
0.000461922
0.000613392
0.000807597
0.00104593
0.00138851
0.00188304
0.00251795
0.00314651
0.00427019
0.00512695
0.00820232
0.0136109
0.0636307
0.202213
-0.0215865
-0.249316
-0.31947
-0.348334
-0.335222
-0.299631
-0.260942
-0.226153
-0.191408
-0.167225
-0.139083
-0.118043
-0.0975467
-0.0828621
-0.0683493
-0.056267
-0.0473558
-0.0387451
-0.0326874
-0.0272605
-0.0235465
-0.0209206
-0.0197547
-0.0187759
-0.0178986
-0.0173193
-0.0171731
-0.0174759
-0.0172739
-0.016804
-0.0168428
-0.0163014
-0.0158027
-0.0155548
-0.0150007
-0.0147733
-0.0156305
-0.0159121
-0.0157218
-0.0147543
-0.0146235
-0.0154695
-0.0156989
-0.0159169
-0.01675
-0.0161872
-0.0153833
-0.0142879
-0.0146029
-0.0130673
-0.00838436
-0.00650668
-0.000863108
0.0129474
0.0277387
0.0644615
0.134311
0.227533
0.379525
0.523002
0.625613
0.691547
0.728922
0.744234
0.742596
0.721269
0.686835
0.649046
0.621945
0.602216
0.599262
0.571792
0.572041
-3.17057e-05
-1.82898e-05
-1.98223e-05
-1.60129e-05
-1.68777e-05
-1.62197e-05
-1.48679e-05
-1.3926e-05
-1.7421e-05
-1.03361e-05
-6.54437e-06
-1.76359e-05
-1.12671e-05
-2.65229e-06
1.7908e-06
-1.4174e-05
-1.67599e-05
1.1689e-05
1.80495e-05
-2.67031e-05
-3.40975e-05
3.41223e-05
6.46517e-05
3.81265e-05
1.04177e-05
1.43554e-05
4.90613e-05
0.000128156
0.000179551
0.000231388
0.000299399
0.000374164
0.000464162
0.000607836
0.000825382
0.00104989
0.00134888
0.00180122
0.00219961
0.00259793
0.00351658
0.0041465
0.00562019
0.0100222
0.0336899
0.107414
-0.114297
-0.330575
-0.377703
-0.386648
-0.372319
-0.334791
-0.291475
-0.24506
-0.206354
-0.177089
-0.145233
-0.123564
-0.101049
-0.0827436
-0.0679734
-0.0548583
-0.0457931
-0.0371333
-0.0309331
-0.0254521
-0.0222248
-0.0204056
-0.0190715
-0.0183998
-0.0180268
-0.017614
-0.0169923
-0.0170818
-0.0170086
-0.0165318
-0.0162541
-0.0156843
-0.0152319
-0.0149381
-0.0145811
-0.0144873
-0.01509
-0.0156251
-0.0155945
-0.0148744
-0.0146
-0.0149957
-0.0146519
-0.0149384
-0.0154424
-0.0142888
-0.0137561
-0.011837
-0.0103458
-0.00753807
0.0016863
0.00871704
0.0204663
0.051043
0.0909039
0.159491
0.294334
0.420996
0.558847
0.65191
0.713288
0.752534
0.773318
0.777297
0.765523
0.740589
0.710282
0.676082
0.652569
0.634441
0.632082
0.609117
0.610972
-3.263e-05
-1.96789e-05
-2.16936e-05
-1.90641e-05
-1.80828e-05
-1.85611e-05
-1.54087e-05
-1.43334e-05
-2.5725e-05
-6.6063e-06
-7.615e-06
-2.94805e-05
-3.84001e-06
1.98999e-06
-1.77536e-05
-1.69407e-05
8.71827e-06
9.35415e-06
-1.34936e-05
-2.32541e-05
9.30828e-06
4.14726e-05
2.54441e-05
6.60047e-06
9.15287e-06
5.02893e-05
0.000106847
0.000122458
0.000114157
0.000159012
0.000289845
0.000370459
0.0004819
0.000571266
0.000713576
0.000861313
0.00104776
0.00116767
0.00119922
0.00130992
0.00127321
0.00145146
0.000364001
-4.23133e-05
-0.0152616
-0.0752782
-0.32049
-0.361788
-0.381113
-0.381493
-0.375636
-0.348001
-0.309079
-0.259535
-0.21715
-0.181924
-0.147666
-0.122487
-0.0989465
-0.0785126
-0.0640699
-0.0498083
-0.0414149
-0.0329791
-0.0266511
-0.022352
-0.0190386
-0.0178826
-0.0172934
-0.0172858
-0.0169503
-0.0164845
-0.0159246
-0.0160811
-0.016089
-0.0159379
-0.0155924
-0.0149545
-0.0148727
-0.0145554
-0.01409
-0.0138035
-0.0141096
-0.0144137
-0.0143408
-0.013466
-0.0125485
-0.0130605
-0.012109
-0.0121337
-0.0126128
-0.009193
-0.00819499
-0.00501696
0.00182965
0.00694612
0.0221054
0.0450378
0.0708721
0.13331
0.220633
0.337093
0.480177
0.59269
0.675168
0.734078
0.770405
0.791374
0.802807
0.799503
0.784478
0.76011
0.73218
0.700189
0.679711
0.662385
0.660186
0.640752
0.642513
-3.48717e-05
-2.18315e-05
-2.45079e-05
-2.09795e-05
-1.86377e-05
-2.21928e-05
-1.69645e-05
-1.68619e-05
-3.01012e-05
-4.74832e-06
-1.10573e-05
-3.6506e-05
1.79958e-06
8.08829e-06
-3.7857e-05
-1.9576e-05
3.32821e-05
4.2197e-06
-4.64014e-05
-1.29793e-05
4.9781e-05
4.06476e-05
-1.18603e-05
-2.59723e-05
2.66034e-05
0.00010294
0.000146852
0.000105976
5.7924e-05
9.17267e-05
0.000215717
0.000367064
0.000427274
0.000483067
0.000572397
0.000676878
0.000654819
0.000622297
0.000441241
0.000468722
6.06988e-05
0.000272419
-0.00120937
-0.00858228
-0.0601578
-0.329592
-0.576529
-0.461812
-0.392878
-0.375654
-0.366081
-0.345168
-0.313554
-0.271541
-0.224483
-0.186568
-0.147798
-0.118942
-0.0943345
-0.0734539
-0.0588347
-0.0449315
-0.0369158
-0.0295272
-0.0224593
-0.0190597
-0.0165788
-0.0161441
-0.015764
-0.0160265
-0.0157368
-0.0153155
-0.0145731
-0.0147322
-0.0146361
-0.0144497
-0.0139971
-0.0130531
-0.0128388
-0.0124774
-0.0117046
-0.011067
-0.0114076
-0.0111052
-0.0115734
-0.0105658
-0.0084642
-0.00942
-0.00768972
-0.0057274
-0.00578374
0.000869256
0.00517352
0.0110677
0.0287597
0.0432346
0.0717843
0.127005
0.182779
0.290833
0.407316
0.523966
0.628807
0.697864
0.753512
0.787143
0.807399
0.818422
0.821639
0.812999
0.7969
0.775288
0.749735
0.721042
0.70323
0.686602
0.684405
0.667744
0.669926
-3.65524e-05
-2.37875e-05
-2.61113e-05
-2.20183e-05
-2.04651e-05
-2.53463e-05
-1.88952e-05
-1.79267e-05
-3.15766e-05
-7.64126e-06
-1.4637e-05
-3.85668e-05
5.02184e-06
6.43285e-06
-5.5097e-05
-1.36731e-05
4.98624e-05
-3.62156e-06
-7.00977e-05
2.52688e-06
7.47656e-05
3.41728e-05
-5.86586e-05
-4.22276e-05
5.58792e-05
0.000154289
0.000170077
8.85893e-05
-6.11382e-06
1.18024e-05
0.000145321
0.000319695
0.000413773
0.000456349
0.00048894
0.000416744
0.000313701
0.00016468
2.00961e-05
-0.000104193
-0.000511408
-0.000886242
-0.00380964
-0.0217378
-0.147587
-0.593562
-0.714316
-0.575397
-0.450349
-0.404018
-0.380176
-0.347242
-0.314676
-0.276364
-0.227193
-0.186454
-0.14472
-0.11415
-0.0874637
-0.0659462
-0.0515207
-0.039532
-0.0306773
-0.023507
-0.0167345
-0.0139825
-0.012714
-0.0126468
-0.0125938
-0.0131553
-0.0130711
-0.0127171
-0.0120273
-0.0120631
-0.0117634
-0.0113046
-0.0109673
-0.00990712
-0.00982001
-0.00967475
-0.00831027
-0.00769645
-0.00814263
-0.00645926
-0.00707849
-0.00521454
9.79425e-05
-0.000869463
0.00267996
0.0092147
0.0117002
0.0238982
0.0392019
0.0521186
0.0874526
0.124509
0.177676
0.280936
0.364492
0.476808
0.580832
0.654319
0.719568
0.765884
0.799329
0.820949
0.831469
0.8373
0.83412
0.823897
0.808966
0.789065
0.765458
0.740133
0.724134
0.708007
0.705421
0.690814
0.692292
-3.81143e-05
-2.54474e-05
-2.74298e-05
-2.39913e-05
-2.33623e-05
-2.87891e-05
-1.93824e-05
-2.34746e-05
-2.90556e-05
-1.06071e-05
-2.06455e-05
-3.44448e-05
3.78548e-06
7.38898e-07
-6.12927e-05
-9.30742e-06
4.82073e-05
-1.986e-05
-7.02804e-05
2.27014e-05
8.14137e-05
1.59048e-05
-9.12346e-05
-4.15073e-05
9.02197e-05
0.000189069
0.000166644
5.18408e-05
-5.87999e-05
-3.97722e-05
8.62667e-05
0.000223111
0.00036423
0.000389675
0.000304453
0.000153671
-9.63961e-06
-0.000241605
-0.000509247
-0.000860574
-0.00154458
-0.00297985
-0.0091587
-0.0472961
-0.302542
-0.760591
-0.769898
-0.702685
-0.592047
-0.479404
-0.414855
-0.358858
-0.322288
-0.277054
-0.226854
-0.180761
-0.140191
-0.109955
-0.0804067
-0.0593488
-0.0449948
-0.034814
-0.0249288
-0.0182349
-0.0118701
-0.00997679
-0.00989541
-0.0100396
-0.0102283
-0.0106828
-0.0108253
-0.0103569
-0.00936449
-0.00949527
-0.00898503
-0.00781076
-0.00775567
-0.00660135
-0.00549694
-0.00520219
-0.00280602
-0.00106871
-0.000903379
0.00324134
0.00444107
0.00727543
0.0173363
0.0194223
0.0265817
0.0436003
0.0540377
0.0747637
0.110242
0.141647
0.204085
0.282952
0.352059
0.458709
0.54533
0.621219
0.685116
0.738376
0.778215
0.806842
0.828144
0.841035
0.847789
0.848195
0.842445
0.831806
0.818756
0.800231
0.779575
0.757184
0.74247
0.726989
0.72381
0.710705
0.71209
-3.96836e-05
-2.69087e-05
-2.89838e-05
-2.61645e-05
-2.63641e-05
-2.77272e-05
-2.33964e-05
-2.6609e-05
-2.49019e-05
-1.72334e-05
-2.68865e-05
-2.93189e-05
1.56952e-06
-1.16919e-05
-5.30836e-05
-1.21945e-07
3.43202e-05
-3.25632e-05
-5.29417e-05
3.51466e-05
6.86109e-05
-1.55956e-05
-9.53861e-05
-2.75516e-05
0.0001028
0.00018765
0.00013722
2.74817e-05
-6.52946e-05
-6.71505e-05
2.20095e-05
0.000147118
0.000273776
0.0002426
0.000113268
-6.30744e-05
-0.000240816
-0.000397373
-0.000480567
-0.000500354
-0.000792346
-0.00216164
-0.0111037
-0.0836248
-0.502888
-0.80898
-0.78955
-0.761408
-0.713838
-0.61389
-0.497459
-0.400694
-0.338049
-0.279201
-0.23685
-0.183263
-0.145064
-0.109732
-0.078704
-0.0586689
-0.0439317
-0.0336152
-0.0227642
-0.0149358
-0.00958212
-0.00931042
-0.00993627
-0.0099522
-0.0097132
-0.00918323
-0.00945191
-0.00862527
-0.00672376
-0.00682674
-0.00541066
-0.00237204
-0.00227686
-0.000336999
0.00366687
0.00388012
0.00798787
0.0142177
0.0153464
0.0228967
0.0322034
0.0364935
0.0534085
0.067481
0.0819463
0.114844
0.143312
0.184678
0.251768
0.307069
0.375816
0.457581
0.529145
0.60388
0.656593
0.711136
0.753656
0.786797
0.813756
0.832718
0.846113
0.854134
0.857571
0.855318
0.848854
0.839674
0.827554
0.810624
0.79282
0.772709
0.758951
0.744057
0.739949
0.727962
0.728781
-4.11078e-05
-2.84207e-05
-3.08797e-05
-2.87188e-05
-2.8708e-05
-2.72497e-05
-2.94934e-05
-2.92732e-05
-2.25955e-05
-2.41239e-05
-3.10512e-05
-1.98565e-05
-4.96618e-06
-3.30793e-05
-3.07837e-05
7.94276e-06
2.56263e-06
-4.36322e-05
-1.80617e-05
4.46404e-05
4.84083e-05
-4.32887e-05
-8.18251e-05
-7.41599e-06
0.000115216
0.000156943
8.26813e-05
-4.15773e-06
-3.28436e-05
-4.16276e-05
-4.31359e-06
9.71796e-05
0.000151369
8.36005e-05
-4.16557e-05
-0.000194319
-0.000324365
-0.000475642
-0.000553529
-0.000746175
-0.00106507
-0.0036419
-0.0207257
-0.153532
-0.665807
-0.824786
-0.814039
-0.79722
-0.769068
-0.716044
-0.627598
-0.506331
-0.393532
-0.319012
-0.25532
-0.187659
-0.148317
-0.103899
-0.0772943
-0.0534095
-0.0366999
-0.0261546
-0.014497
-0.00895645
-0.00654685
-0.00662958
-0.00731499
-0.00700598
-0.00675385
-0.00565672
-0.00604139
-0.00423408
-0.000656369
4.78735e-05
0.00246001
0.00793917
0.0102781
0.0133829
0.0231746
0.026445
0.0328256
0.0481584
0.0546779
0.0680908
0.0909808
0.102849
0.131393
0.168494
0.203726
0.252777
0.300877
0.346671
0.415183
0.475201
0.538892
0.597791
0.636445
0.692273
0.73103
0.7646
0.794359
0.817311
0.835313
0.848196
0.85684
0.862087
0.862664
0.859968
0.853931
0.846019
0.834851
0.820139
0.804774
0.786788
0.773801
0.7595
0.754427
0.743275
0.74396
-4.23252e-05
-2.9695e-05
-3.22426e-05
-3.07364e-05
-2.99648e-05
-2.86656e-05
-3.42023e-05
-2.90892e-05
-2.23438e-05
-3.37511e-05
-3.26884e-05
-9.69562e-06
-1.95077e-05
-4.70705e-05
-2.34986e-06
9.74024e-06
-3.74784e-05
-4.39101e-05
1.47062e-05
5.04814e-05
1.12022e-05
-5.40229e-05
-5.96516e-05
2.04859e-05
0.00010866
0.000106104
3.71785e-05
2.6345e-06
4.2806e-06
1.04626e-05
3.5421e-05
1.6852e-05
-1.10142e-05
-6.91478e-05
-0.000125912
-0.000212048
-0.000317335
-0.000513648
-0.000782224
-0.00124225
-0.00218445
-0.00670159
-0.038945
-0.287702
-0.768026
-0.836657
-0.823934
-0.808757
-0.787367
-0.762941
-0.71611
-0.629296
-0.500351
-0.36755
-0.270744
-0.204855
-0.157037
-0.108072
-0.0799123
-0.0554673
-0.0373529
-0.0256176
-0.0150563
-0.00952517
-0.00777051
-0.00724763
-0.00646604
-0.00322061
-0.00313276
-0.000468453
0.00166751
0.00413686
0.0104145
0.0169679
0.0196581
0.0296149
0.0403538
0.0451659
0.0618741
0.0768995
0.0871754
0.115314
0.137749
0.16522
0.207761
0.236658
0.276201
0.325886
0.365373
0.412822
0.45968
0.507472
0.55757
0.598363
0.632467
0.679105
0.710959
0.745471
0.774305
0.798007
0.8191
0.8354
0.848229
0.857568
0.863468
0.866484
0.866104
0.863319
0.858602
0.851579
0.84163
0.82901
0.815432
0.799518
0.787248
0.773506
0.767384
0.75692
0.757268
-4.40571e-05
-3.16574e-05
-3.41784e-05
-3.26761e-05
-3.22969e-05
-3.02948e-05
-3.73552e-05
-3.16116e-05
-2.38444e-05
-4.0446e-05
-2.94893e-05
-5.0527e-06
-4.2775e-05
-4.53389e-05
1.50436e-05
2.53991e-06
-6.27603e-05
-3.76651e-05
3.37854e-05
4.89262e-05
-2.37241e-05
-4.94884e-05
-2.33512e-05
3.98813e-05
7.64241e-05
2.71487e-05
1.1236e-05
2.88883e-05
6.19242e-05
7.72733e-05
3.77047e-05
-8.64047e-05
-0.000189116
-0.000194077
-0.000156356
-0.000168392
-0.000224284
-0.000274977
-0.000368771
-0.000468929
-0.00132321
-0.00774851
-0.0599913
-0.442325
-0.825258
-0.836809
-0.826952
-0.814939
-0.800869
-0.784317
-0.756042
-0.707461
-0.619159
-0.474203
-0.338113
-0.249583
-0.179535
-0.11725
-0.0825972
-0.0554293
-0.0352775
-0.0197395
-0.00988819
-0.0034572
-0.00200977
0.00166462
0.00325107
0.00984638
0.0108932
0.0154657
0.0247037
0.0280762
0.0382838
0.054537
0.0617556
0.0774331
0.101917
0.115745
0.143051
0.181499
0.207315
0.245045
0.284513
0.316371
0.361509
0.393687
0.435197
0.476469
0.511261
0.54657
0.577484
0.602381
0.638624
0.672299
0.697088
0.728058
0.753562
0.778624
0.800714
0.818383
0.834165
0.846543
0.856045
0.862748
0.866711
0.86845
0.868358
0.866283
0.862647
0.856316
0.847747
0.836765
0.824902
0.811226
0.799711
0.786359
0.779238
0.769283
0.769433
-4.54401e-05
-3.30207e-05
-3.53684e-05
-3.44086e-05
-3.42527e-05
-3.26195e-05
-3.96692e-05
-3.32685e-05
-2.42809e-05
-4.57535e-05
-2.95299e-05
-6.17317e-06
-5.66362e-05
-3.53329e-05
1.61898e-05
-1.99993e-05
-6.47985e-05
-2.45691e-05
3.16969e-05
2.36227e-05
-3.97037e-05
-2.76059e-05
2.12069e-05
4.3422e-05
1.02973e-05
-3.79314e-05
7.15632e-06
7.55304e-05
0.000118298
0.000104212
3.11785e-06
-0.000160147
-0.000305118
-0.000246929
-0.000136686
-3.31738e-05
1.18753e-05
-6.69007e-06
5.21082e-06
-6.83664e-06
-0.00110215
-0.0116376
-0.104055
-0.590522
-0.828277
-0.836416
-0.830493
-0.821574
-0.811572
-0.801321
-0.785318
-0.758862
-0.708211
-0.601157
-0.442991
-0.297422
-0.198333
-0.128735
-0.0855088
-0.0528094
-0.0299967
-0.0127301
-0.00397032
0.00453213
0.0102951
0.0195975
0.0228264
0.0327378
0.0417009
0.0496056
0.0683002
0.0808701
0.0965244
0.12882
0.15053
0.179806
0.220813
0.248591
0.281374
0.327553
0.358707
0.395714
0.431035
0.462813
0.497329
0.526875
0.553249
0.577302
0.597361
0.624321
0.648448
0.669287
0.690401
0.715148
0.735893
0.758874
0.779953
0.799094
0.816827
0.831134
0.843319
0.852919
0.860339
0.865778
0.868955
0.870298
0.870305
0.868827
0.865761
0.860227
0.852881
0.843504
0.833514
0.821966
0.811256
0.798066
0.790009
0.780488
0.78029
-4.72681e-05
-3.49181e-05
-3.72741e-05
-3.64746e-05
-3.7339e-05
-3.54045e-05
-4.09474e-05
-3.31109e-05
-3.43376e-05
-4.2083e-05
-2.04314e-05
-2.72629e-05
-5.27149e-05
-1.7798e-05
-5.84007e-06
-3.65451e-05
-3.94255e-05
-1.71034e-05
1.18836e-05
-1.71766e-05
-4.24769e-05
1.7237e-05
6.37507e-05
2.57463e-05
-7.14795e-05
-8.32999e-05
2.3812e-05
0.000126337
0.000162143
0.000102436
-4.87362e-05
-0.000187191
-0.000286265
-0.000278999
-0.000178123
-4.81084e-05
2.54323e-05
-1.99461e-05
-1.72057e-05
-0.000257176
-0.00253362
-0.0211494
-0.175051
-0.697063
-0.837574
-0.837515
-0.832881
-0.826237
-0.820319
-0.813654
-0.80315
-0.785453
-0.755828
-0.692216
-0.564523
-0.383461
-0.24042
-0.145662
-0.0938976
-0.0472771
-0.0174674
0.00483004
0.0176503
0.0310646
0.0445782
0.0601332
0.0693284
0.0846232
0.109735
0.12453
0.157296
0.189145
0.21571
0.256117
0.286406
0.320253
0.360521
0.39297
0.427217
0.460706
0.490556
0.51763
0.53984
0.560181
0.582547
0.600023
0.623239
0.642764
0.658504
0.675747
0.691549
0.706542
0.724039
0.742577
0.760864
0.778982
0.796656
0.81238
0.826796
0.838767
0.848951
0.857103
0.863232
0.867605
0.870199
0.87127
0.871284
0.870261
0.867848
0.863572
0.857708
0.850118
0.841641
0.831711
0.82157
0.808713
0.799733
0.790815
0.790261
-4.88351e-05
-3.63178e-05
-3.93406e-05
-3.82984e-05
-3.99109e-05
-3.7815e-05
-3.84291e-05
-3.83856e-05
-4.23913e-05
-3.52243e-05
-2.85918e-05
-4.6043e-05
-2.87859e-05
-2.05169e-05
-3.65904e-05
-3.32145e-05
-3.03254e-05
-1.13712e-05
-1.70041e-05
-6.28624e-05
-2.61162e-05
5.91266e-05
8.63776e-05
-1.04019e-05
-0.0001263
-9.5515e-05
4.86653e-05
0.000176263
0.000153291
4.2767e-05
-7.11927e-05
-0.000132864
-0.000163054
-0.000176386
-0.000129737
-0.000101801
-9.37599e-05
-0.000158674
-0.000321373
-0.000958938
-0.00500321
-0.0362252
-0.288218
-0.769882
-0.83967
-0.836998
-0.832992
-0.827003
-0.821898
-0.815293
-0.807482
-0.797259
-0.778087
-0.742237
-0.657387
-0.489837
-0.298941
-0.177415
-0.0871961
-0.0267206
0.0119069
0.0394435
0.0609122
0.086114
0.109514
0.13774
0.159544
0.186118
0.227061
0.251817
0.284319
0.322398
0.351865
0.389838
0.420382
0.447901
0.478924
0.504668
0.526375
0.549182
0.568636
0.588837
0.602502
0.620964
0.638312
0.653085
0.668112
0.682581
0.694042
0.70856
0.721864
0.732559
0.746158
0.760799
0.776784
0.792523
0.807654
0.821472
0.833846
0.844157
0.852668
0.85946
0.864566
0.8682
0.870466
0.871691
0.871983
0.871559
0.870099
0.866929
0.862049
0.855637
0.848306
0.840039
0.830692
0.81847
0.808773
0.800407
0.79908
-5.05747e-05
-3.81626e-05
-4.11284e-05
-4.04741e-05
-4.21108e-05
-4.1386e-05
-3.86631e-05
-4.52152e-05
-4.56651e-05
-2.51957e-05
-4.45229e-05
-5.11069e-05
-1.8299e-05
-3.56191e-05
-4.80471e-05
-3.92092e-05
-2.19143e-05
2.93922e-06
-4.43557e-05
-9.15623e-05
-9.30417e-06
9.18946e-05
6.99591e-05
-3.86794e-05
-0.000135777
-8.53311e-05
7.69316e-05
0.000159401
8.68617e-05
1.45162e-06
-5.53786e-05
-7.63117e-05
-5.74477e-05
-5.67763e-05
-8.10533e-05
-0.000150013
-0.000178224
-0.000271981
-0.000443138
-0.00137457
-0.00713859
-0.0543542
-0.411784
-0.817676
-0.834439
-0.832993
-0.832563
-0.830417
-0.828354
-0.824602
-0.820572
-0.813589
-0.798886
-0.769589
-0.712233
-0.569207
-0.364988
-0.182186
-0.0553969
0.0125696
0.0751732
0.118032
0.154496
0.190063
0.222369
0.256615
0.282805
0.31446
0.351958
0.382958
0.412236
0.440874
0.466198
0.489807
0.511096
0.531009
0.550804
0.570752
0.585281
0.604983
0.619412
0.634329
0.647165
0.656495
0.671008
0.684752
0.697698
0.710105
0.719991
0.730428
0.741947
0.750613
0.762203
0.774309
0.788231
0.802552
0.815975
0.82783
0.838339
0.847047
0.854304
0.860327
0.865138
0.868687
0.870865
0.872153
0.872549
0.872346
0.871295
0.869037
0.865579
0.861118
0.855295
0.848315
0.839223
0.827584
0.816872
0.809419
0.807088
-5.23523e-05
-4.01445e-05
-4.32313e-05
-4.20016e-05
-4.41246e-05
-4.51328e-05
-3.92858e-05
-5.00083e-05
-4.36405e-05
-3.12365e-05
-5.2777e-05
-3.85497e-05
-3.37307e-05
-3.23567e-05
-4.72613e-05
-6.12067e-05
-6.30667e-06
1.35704e-05
-7.01644e-05
-0.000104874
7.70062e-06
9.32802e-05
4.00576e-05
-4.96035e-05
-9.49852e-05
-2.32977e-05
6.36728e-05
7.32254e-05
3.13409e-05
1.09757e-05
1.9297e-05
4.13934e-05
2.75208e-05
2.7629e-06
-5.71396e-05
-9.97042e-05
-7.17822e-05
-5.65333e-05
-7.08239e-05
-0.000993983
-0.0095049
-0.081442
-0.534657
-0.831381
-0.835849
-0.838874
-0.8401
-0.839973
-0.838151
-0.834533
-0.829273
-0.820719
-0.805419
-0.774727
-0.723025
-0.580472
-0.363953
-0.135281
0.00859837
0.104013
0.174923
0.230403
0.272197
0.30823
0.342301
0.375814
0.40208
0.428601
0.454498
0.477429
0.498032
0.517898
0.534528
0.551097
0.56588
0.583785
0.59792
0.61299
0.624321
0.637536
0.649639
0.661883
0.674093
0.683262
0.695248
0.706659
0.717481
0.728272
0.738027
0.746774
0.756967
0.764359
0.774288
0.784346
0.796192
0.808796
0.820554
0.830982
0.840282
0.848375
0.855209
0.860771
0.865152
0.868394
0.870653
0.872155
0.873063
0.873571
0.873534
0.872419
0.87005
0.866268
0.860867
0.85456
0.846034
0.83538
0.824499
0.817463
0.814461
-5.43235e-05
-4.20234e-05
-4.55291e-05
-4.42183e-05
-4.75026e-05
-4.62163e-05
-4.40802e-05
-5.18875e-05
-4.01054e-05
-4.60903e-05
-4.59353e-05
-4.48789e-05
-4.59001e-05
-2.25722e-05
-6.23041e-05
-7.53477e-05
5.32555e-06
1.01369e-05
-8.57422e-05
-9.3255e-05
2.31446e-05
5.72514e-05
-8.54587e-06
-3.76802e-05
3.21167e-06
3.36221e-05
8.2278e-06
-4.45943e-05
7.79426e-07
8.68776e-05
0.000132819
0.000122504
7.68725e-05
4.54754e-05
-2.93684e-06
-7.95335e-06
7.35063e-05
0.000174446
0.000191598
-0.00120733
-0.0141979
-0.12322
-0.636353
-0.834382
-0.84093
-0.842074
-0.843097
-0.843453
-0.842286
-0.838769
-0.831528
-0.820764
-0.800794
-0.749061