/*--------------------------------*- C++ -*----------------------------------*\
| =========                 |                                                 |
| \\      /  F ield         | OpenFOAM: The Open Source CFD Toolbox           |
|  \\    /   O peration     | Version:  2.2.x                                 |
|   \\  /    A nd           | Web:      www.OpenFOAM.org                      |
|    \\/     M anipulation  |                                                 |
\*---------------------------------------------------------------------------*/
FoamFile
{
    version     2.0;
    format      ascii;
    class       volScalarField;
    location    "2.75";
    object      pB;
}
// * * * * * * * * * * * * * * * * * * * * * * * * * * * * * * * * * * * * * //

dimensions      [1 1 -3 0 0 -1 0];

internalField   nonuniform List<scalar> 
14161
(
-0.00191618
0.000292181
-9.34564e-05
-3.66527e-05
-8.05999e-05
-8.84941e-05
-0.000103199
-0.000120881
-0.000129257
-0.000139508
-0.000170694
-0.000165805
-0.000173837
-0.000217154
-0.000209837
-0.000196492
-0.000244823
-0.00026916
-0.000234402
-0.000236929
-0.000275169
-0.000304524
-0.000276895
-0.000234246
-0.000226359
-0.000267183
-0.000251411
-0.000195726
-0.000145061
-5.94658e-05
4.63287e-05
0.000211834
0.000332607
0.000587931
0.00091668
0.00126513
0.00186831
0.00234704
0.00322468
0.00392954
0.00504193
0.00574465
0.00741879
0.00500257
0.00462521
-0.00882022
0.00188598
-0.00120144
0.00816297
-0.000799506
0.00386943
0.00195153
0.00220139
0.00185578
0.00243653
0.00183157
0.00187178
0.0016689
0.00137759
0.00124717
0.000862867
0.000597354
0.000319266
2.17677e-06
-9.35439e-05
-0.000397271
-0.000522614
-0.000735907
-0.000923581
-0.000869449
-0.000868368
-0.000835355
-0.00115302
-0.000994569
-0.00120192
-0.00143511
-0.00125593
-0.00129001
-0.00150911
-0.0010556
-0.00156416
-0.00159691
-0.00156729
-0.00172764
-0.00180205
-0.00182978
-0.00214775
-0.00132166
-0.00203364
-0.00212078
-0.00193555
-0.00222915
-0.00242191
-0.00203945
-0.00272934
-0.00261036
-0.00275393
-0.00302814
-0.0031203
-0.00342672
-0.00304484
-0.0044636
-0.00383817
-0.00537407
-0.00533992
-0.00602377
-0.00807461
-0.0108374
-0.0161543
-0.0241479
-0.0257764
-0.0184748
-0.0197912
0.00439455
-0.0263498
0.0235026
-0.0514048
0.0537892
-0.138265
-0.00191701
0.000292941
-9.36974e-05
-3.70853e-05
-8.0583e-05
-8.89677e-05
-0.000103494
-0.000120277
-0.000129348
-0.000141147
-0.000167886
-0.000165273
-0.000176412
-0.000216195
-0.000207268
-0.000201857
-0.000251229
-0.000256682
-0.000239944
-0.000235044
-0.000283079
-0.000300939
-0.000268087
-0.000234519
-0.000237836
-0.00026547
-0.000246464
-0.000194543
-0.000143116
-6.33371e-05
3.30474e-05
0.000191339
0.000329296
0.000593349
0.000794572
0.00125208
0.00173646
0.0024942
0.00326972
0.00428285
0.00506994
0.00615457
0.0079231
0.00575784
0.0108714
-0.0167263
0.00654738
-0.00504067
0.0098735
-7.26831e-05
0.00287037
0.00211039
0.00211306
0.00101103
0.000452745
-0.00111529
-0.00173688
-0.00216724
-0.00261569
-0.00276817
-0.00320879
-0.00312634
-0.00319343
-0.00300691
-0.00284977
-0.0028106
-0.00254623
-0.00242028
-0.00199984
-0.00200856
-0.00198768
-0.00187128
-0.00188425
-0.0016378
-0.00179471
-0.00191845
-0.00176924
-0.00186895
-0.00198714
-0.00154369
-0.00215119
-0.00206231
-0.00207647
-0.00229661
-0.00245594
-0.00246141
-0.00256309
-0.00199329
-0.00269498
-0.00261666
-0.00260498
-0.00287576
-0.00292752
-0.00274391
-0.00331376
-0.00323165
-0.00335557
-0.00355774
-0.00390693
-0.00404438
-0.00373595
-0.00476908
-0.00446441
-0.00646531
-0.00464894
-0.00600194
-0.00562288
-0.00542515
-0.00418863
-0.00343652
-0.000525034
0.00694604
-0.00373475
0.0151862
-0.0161528
0.027163
-0.0439066
0.0524561
-0.122691
-0.00191736
0.000292721
-9.45141e-05
-3.71052e-05
-8.12328e-05
-8.84849e-05
-0.000103995
-0.000120155
-0.000129773
-0.000143222
-0.000165212
-0.000166606
-0.000179675
-0.000212014
-0.000206205
-0.000205085
-0.000248006
-0.000253592
-0.000246113
-0.00023508
-0.000285402
-0.000295553
-0.000266508
-0.000241507
-0.000245401
-0.000259422
-0.000245558
-0.000193099
-0.000143148
-7.37583e-05
1.26815e-05
0.000150464
0.000298191
0.000510802
0.000744804
0.00116942
0.00156572
0.00224079
0.00285492
0.0039411
0.00515106
0.00652607
0.00909331
0.00884413
0.0105551
-0.0206597
0.00934425
-0.00438391
0.00939627
0.000459289
0.00180209
0.00173567
0.00155388
0.000739576
0.00162257
0.00103769
0.00105151
0.00101825
0.000665958
0.000553102
0.000202707
5.73539e-06
-0.000298354
-0.00056479
-0.00064807
-0.000752055
-0.00094169
-0.0010715
-0.00117715
-0.00134347
-0.00136555
-0.00143287
-0.0014983
-0.00132643
-0.00152305
-0.00162302
-0.00145195
-0.00172541
-0.00164178
-0.00120721
-0.00203092
-0.00166662
-0.00173881
-0.00188421
-0.00204859
-0.0019821
-0.0022697
-0.00114285
-0.0024749
-0.00176675
-0.00204158
-0.00230637
-0.00240464
-0.00198698
-0.00274764
-0.00239988
-0.00283132
-0.00294305
-0.00330824
-0.00341487
-0.00329888
-0.00539827
-0.00456318
-0.00428969
-0.00548284
-0.00556923
-0.00873995
-0.00947737
-0.0175464
-0.0111271
-0.0129997
0.00470412
-0.00354699
0.013212
-0.0145423
0.0230041
-0.0383289
0.0454215
-0.111023
-0.00191297
0.000292182
-9.39061e-05
-3.76122e-05
-8.05115e-05
-8.91927e-05
-0.000104937
-0.000118264
-0.000130791
-0.000144931
-0.000160241
-0.000168436
-0.000184014
-0.000205045
-0.000205888
-0.000217429
-0.000240263
-0.000251409
-0.000245964
-0.000246858
-0.000283214
-0.000291432
-0.000264797
-0.00025679
-0.000256828
-0.000258337
-0.000247711
-0.000207191
-0.000164211
-9.7397e-05
-2.02633e-05
0.000107285
0.000227084
0.000416414
0.000662533
0.000912802
0.00130857
0.00189202
0.00265902
0.00345412
0.00440272
0.00521144
0.00651271
0.00558912
0.0139232
-0.0317062
0.0210411
-0.00417491
0.00878609
0.00224873
0.00197336
0.00169274
0.00152832
0.000446682
0.00143143
0.000668283
0.000198865
-0.000134247
-0.000607819
-0.000411153
-0.000781632
-0.00084134
-0.00110008
-0.0015384
-0.00152267
-0.00162723
-0.00162005
-0.0016197
-0.00154982
-0.00161674
-0.00169484
-0.00178903
-0.00177549
-0.00140532
-0.00163795
-0.00153239
-0.00132521
-0.00171839
-0.00165835
-0.00131382
-0.00220201
-0.00164325
-0.00180929
-0.0020256
-0.00221944
-0.0020715
-0.0023901
-0.00148178
-0.00275112
-0.00180542
-0.00245337
-0.00246563
-0.00258524
-0.0026139
-0.00297925
-0.00278259
-0.00322688
-0.00303676
-0.00352442
-0.00357784
-0.0033604
-0.00446907
-0.00359708
-0.00575008
-0.00528761
-0.00538029
-0.00685982
-0.00746227
-0.00612892
-0.00568682
-0.00408319
0.00125654
-0.00286459
0.00975951
-0.0123013
0.0176771
-0.0324991
0.0357503
-0.0978144
-0.00190945
0.000290597
-9.40177e-05
-3.78529e-05
-8.03099e-05
-8.90522e-05
-0.000104599
-0.000117022
-0.000131789
-0.00014624
-0.00015665
-0.000172062
-0.00018669
-0.000199195
-0.000207624
-0.000222795
-0.000233531
-0.000248136
-0.000248222
-0.000261516
-0.000276409
-0.000284516
-0.000263871
-0.000272094
-0.000271859
-0.000259021
-0.000249836
-0.000216653
-0.00018071
-0.000125243
-7.28441e-05
2.1105e-05
0.000129197
0.00029193
0.000451099
0.000686836
0.00101108
0.00147666
0.00188737
0.00238862
0.00311466
0.00397306
0.00611987
0.00417374
0.0194063
-0.0298899
0.0181323
-0.000885381
0.00758104
0.003857
0.00278162
0.00271356
0.00197251
0.00158443
0.00126464
0.00152524
0.000699454
0.000746091
-0.000367767
5.30594e-06
-0.000456771
0.000475452
-0.000385623
-0.000316038
-0.000656379
-0.000776623
-0.000979525
-0.0012212
-0.00127943
-0.00126497
-0.00114804
-0.00129404
-0.00140156
-0.00113033
-0.0015318
-0.00144074
-0.0011904
-0.001827
-0.00136066
-0.00156697
-0.00227182
-0.00157547
-0.00192748
-0.00209064
-0.00210022
-0.00184186
-0.00260961
-0.00149034
-0.0029451
-0.00161898
-0.00237441
-0.00239712
-0.00253643
-0.0023257
-0.00273608
-0.00244566
-0.00368326
-0.00350207
-0.00361847
-0.00356753
-0.00289854
-0.00452419
-0.00472998
-0.00453361
-0.00655394
-0.00525884
-0.0104674
-0.00694993
-0.00851106
-0.00262587
-0.00481134
0.00369381
-0.00122763
0.00747856
-0.0098
0.0146684
-0.0247378
0.0274106
-0.0819824
-0.00190478
0.000288679
-9.43778e-05
-3.84812e-05
-8.04663e-05
-8.88443e-05
-0.000105282
-0.000115309
-0.000132531
-0.000146988
-0.000152447
-0.000174576
-0.00018772
-0.000191478
-0.000210051
-0.000228633
-0.000230483
-0.000242944
-0.000251473
-0.000270638
-0.000268215
-0.000277819
-0.00027134
-0.00028854
-0.000282771
-0.000261663
-0.000245401
-0.000231237
-0.000202537
-0.00017054
-0.000111815
-7.43688e-05
2.43699e-05
0.000118498
0.000256348
0.000421375
0.000626105
0.000782814
0.00107324
0.00133051
0.00199498
0.00189576
0.00448378
-0.000152182
0.0262651
-0.0301355
0.0220849
0.000824462
0.00709955
0.00605644
0.00311755
0.00291262
0.00181933
0.00193565
0.00101211
0.00104303
0.000425678
0.000269987
-0.000453262
-0.000345485
-0.000481775
-0.000737223
-0.00090365
-0.0012438
-0.00112738
-0.00127453
-0.00124893
-0.00142572
-0.00139579
-0.00154653
-0.00159989
-0.00164249
-0.00183189
-0.00128346
-0.00200381
-0.00121567
-0.00132781
-0.00185645
-0.00139903
-0.00159954
-0.00192221
-0.0014959
-0.00189279
-0.00183831
-0.00181625
-0.0015422
-0.00210729
-0.00162137
-0.00256324
-0.00156615
-0.00232268
-0.00226675
-0.00218338
-0.00276784
-0.00262201
-0.00244278
-0.00326387
-0.0027362
-0.00233419
-0.00308077
-0.00366065
-0.00506855
-0.0054695
-0.00392702
-0.00683817
-0.00703111
-0.00604983
-0.00490605
-0.00542629
-0.00317441
-0.0032464
0.00200357
-0.00150618
0.00339787
-0.00784617
0.0102168
-0.0214824
0.0178372
-0.0702744
-0.00189923
0.000286164
-9.46642e-05
-3.87331e-05
-8.02479e-05
-8.84174e-05
-0.000106259
-0.000114302
-0.000134137
-0.00014863
-0.000148972
-0.00017643
-0.000191451
-0.000185095
-0.000211569
-0.000231963
-0.000227394
-0.000233415
-0.000259697
-0.00027773
-0.000267065
-0.000264321
-0.000274333
-0.000309067
-0.000297968
-0.000272208
-0.000253017
-0.000252506
-0.000237004
-0.000228777
-0.000197689
-0.000152584
-0.000111159
-5.56433e-05
1.125e-05
8.54597e-05
0.000157115
0.0001796
0.000223946
0.000172965
6.90408e-05
-0.000544166
-0.000312478
-0.00490486
0.0111044
0.0096989
0.00507797
0.0116299
0.00237071
0.00882746
0.000814295
0.000918058
-9.33933e-05
0.00135594
0.00031339
0.000584591
0.000209496
-0.000851429
0.000183705
-0.00100767
-9.42509e-05
-0.00117345
-0.000377342
-0.00122554
-0.000870783
-0.0012106
-0.0012111
-0.00129527
-0.00141006
-0.00140116
-0.00145274
-0.00135778
-0.00146432
-0.00144033
-0.00159135
-0.00121105
-0.00149222
-0.00159368
-0.00159419
-0.00163096
-0.00177527
-0.00145837
-0.00215107
-0.0018455
-0.00213185
-0.00187039
-0.00218232
-0.0020932
-0.00252317
-0.00138314
-0.00261469
-0.0024124
-0.00268281
-0.00284531
-0.00280036
-0.00211043
-0.00296618
-0.0024632
-0.00396002
-0.00487081
-0.00440347
-0.00271152
-0.00543029
-0.00482234
-0.00849929
-0.00441883
-0.00555985
-0.00430008
-0.00427282
-0.00145794
-0.0028713
0.0032816
-0.00308222
0.0028139
-0.00576201
0.00755407
-0.0170416
0.0126852
-0.056315
-0.00189362
0.000283728
-9.47536e-05
-3.87099e-05
-8.02971e-05
-8.81279e-05
-0.000107302
-0.00011324
-0.000133464
-0.000149044
-0.000147343
-0.000178208
-0.000191848
-0.00018254
-0.000210744
-0.000239579
-0.000230491
-0.000224626
-0.000266574
-0.000278533
-0.00027003
-0.000254551
-0.000278327
-0.000318735
-0.000310008
-0.000287046
-0.000260467
-0.000256251
-0.0002824
-0.000294258
-0.000273436
-0.000249472
-0.00023948
-0.000242471
-0.000262822
-0.000310038
-0.000412292
-0.000575783
-0.000921988
-0.00114006
-0.00163383
-0.00152449
-0.00245009
0.00111877
-0.00119988
0.0205546
-0.0054848
0.0174732
0.00148158
0.00888871
0.0016427
0.00364678
0.00337955
0.000421721
0.000893008
-0.00133089
-0.000742787
-0.00246844
-0.000387071
-0.0016361
-0.0010246
-0.00180807
-0.0015957
-0.00156712
-0.00141922
-0.00154727
-0.00145375
-0.00133428
-0.00138042
-0.0013915
-0.00141036
-0.00143446
-0.00134817
-0.00142585
-0.00149827
-0.00133457
-0.00160271
-0.0016193
-0.00168126
-0.00173224
-0.00177537
-0.0013646
-0.0019202
-0.00145098
-0.00179999
-0.00153543
-0.00158089
-0.00186953
-0.00204852
-0.00203717
-0.002023
-0.00172933
-0.00175768
-0.00200401
-0.00224204
-0.00257283
-0.00446474
-0.00320906
-0.00313278
-0.00294416
-0.00374092
-0.00373654
-0.00681558
-0.0071187
-0.00215806
-0.00389863
-0.00468273
-0.00348818
-0.00357546
-0.00283851
-0.00185722
-0.000264122
-0.00298645
0.0013333
-0.0049673
0.0039314
-0.014622
0.00815254
-0.0477449
-0.0018859
0.00028128
-9.45909e-05
-3.87516e-05
-8.09261e-05
-8.80279e-05
-0.000107566
-0.000112303
-0.000133585
-0.000148511
-0.000147162
-0.00017927
-0.0001912
-0.000181388
-0.000210914
-0.000242568
-0.000228081
-0.000220947
-0.000271347
-0.000288738
-0.000269002
-0.000249713
-0.000287303
-0.000330222
-0.000324269
-0.000299482
-0.000274289
-0.000273311
-0.00032406
-0.000368295
-0.000359991
-0.000354687
-0.000376188
-0.000429205
-0.000505403
-0.0006249
-0.000830468
-0.00114157
-0.00155475
-0.0023825
-0.00310171
-0.00516051
-0.0076563
-0.00638143
-0.0252201
0.0805664
-0.0350793
0.0213242
-0.00778067
0.0127989
-0.00377854
0.0058006
-0.00428227
0.00176722
-0.000994578
-0.00212433
-0.000970267
-0.00164313
-0.00139775
-0.00168471
-0.00169653
-0.00178848
-0.00162981
-0.00150539
-0.00133289
-0.00154108
-0.00143981
-0.00140269
-0.00143521
-0.00135882
-0.00136195
-0.00135575
-0.00137469
-0.00136996
-0.00136577
-0.0012574
-0.0013977
-0.00138276
-0.00138286
-0.00139055
-0.00146326
-0.00151842
-0.00166112
-0.00173222
-0.00193235
-0.00189935
-0.00197509
-0.00188555
-0.00188746
-0.00149324
-0.00192422
-0.0025117
-0.00278928
-0.00309501
-0.00309458
-0.00242547
-0.00213803
-0.00250492
-0.0027474
-0.00470336
-0.00357858
-0.00640342
-0.0022915
-0.00286191
-0.00357184
-0.00363259
-0.00360804
-0.00326258
-0.00339636
-0.00103517
-0.000978553
-0.000846995
-0.00180331
0.000527358
-0.00393883
0.0021985
-0.0115167
0.00524044
-0.0375958
-0.00187863
0.000278446
-9.50023e-05
-3.95349e-05
-8.11465e-05
-8.74512e-05
-0.000107467
-0.000112339
-0.000133828
-0.000146677
-0.000150462
-0.000178707
-0.000189626
-0.000182655
-0.000211237
-0.000241573
-0.00022789
-0.00022386
-0.000274894
-0.000292499
-0.000263415
-0.000253779
-0.000298889
-0.000340156
-0.000335482
-0.000305618
-0.00028937
-0.000310284
-0.000363046
-0.000413799
-0.00043254
-0.000455847
-0.000486806
-0.000594547
-0.000738874
-0.000944546
-0.00126353
-0.00178125
-0.00247259
-0.00340434
-0.00455592
-0.00637345
-0.00762003
-0.00721891
-0.0146244
0.031509
0.0618188
-0.00722226
0.00996567
-0.00633702
-0.000447904
-0.00108067
-0.00173945
-0.000711627
-0.00187355
-0.00267871
-0.00113009
-0.00167611
-0.00270299
-0.00252741
-0.00264009
-0.00145748
-0.00153904
-0.00120487
-0.00134404
-0.00112512
-0.00102592
-0.000773762
-0.000794456
-0.000635527
-0.000791177
-0.000715272
-0.00117723
-0.000875559
-0.00110208
-0.00108806
-0.00131146
-0.00145678
-0.00142422
-0.00148916
-0.00151283
-0.00134827
-0.00139169
-0.000985525
-0.00127942
-0.00111855
-0.00197296
-0.00160248
-0.00249602
-0.00170069
-0.00245482
-0.00247356
-0.00135304
-0.00153014
-0.00245365
-0.00224483
-0.00256703
-0.00403997
-0.00229363
-0.00570975
-0.00233012
-0.00770601
-0.000559873
-0.00347435
-0.00208917
-0.00328551
-0.00322344
-0.00287998
-0.00298927
-0.00136565
-0.0022497
-0.00172379
-0.00181308
-0.00101448
-0.00337675
0.000162835
-0.00976416
0.0033768
-0.031663
-0.00187007
0.000275795
-9.54456e-05
-3.97911e-05
-8.04702e-05
-8.80256e-05
-0.00010589
-0.000114352
-0.000132382
-0.000143923
-0.00015429
-0.00017628
-0.000186391
-0.00018631
-0.000214189
-0.000237059
-0.00022542
-0.00023015
-0.000281971
-0.000286225
-0.000262829
-0.000262816
-0.000308329
-0.000347895
-0.000340146
-0.000317949
-0.000315983
-0.000350935
-0.000398939
-0.000447336
-0.000498376
-0.000545499
-0.000617522
-0.000721357
-0.000895744
-0.00113022
-0.0014707
-0.00188753
-0.00234221
-0.00307643
-0.00360095
-0.00386591
-0.00377564
-0.00344735
0.0126321
0.0158621
0.0587765
-0.0145416
-0.00212726
-0.00599466
-0.0038837
-0.00455993
-0.00186461
-0.00354186
-0.00402619
-0.00388877
-0.002986
-0.00264102
-0.00288202
-0.00266062
-0.00252509
-0.00228345
-0.00138384
-0.00144264
-0.00155282
-0.00116156
-0.00145578
-0.00130641
-0.00141897
-0.00130936
-0.00123782
-0.00118454
-0.00144041
-0.00103604
-0.00117668
-0.000884385
-0.00102105
-0.00107726
-0.00087177
-0.00100229
-0.00123667
-0.00143124
-0.00138128
-0.00190554
-0.00195138
-0.00174162
-0.00244189
-0.00166019
-0.00163952
-0.00196368
-0.00185306
-0.00228483
-0.00195314
-0.00181959
-0.00289721
-0.00220767
-0.00290005
-0.00424419
-0.00113974
-0.00417719
0.00347385
-0.00315287
-0.00338979
-0.00192085
-0.00369019
-0.00284919
-0.00282724
-0.00277625
-0.00276495
-0.000383224
-0.00255691
-0.000825448
-0.00212402
-0.00122762
-0.0027185
-0.000872959
-0.00755207
0.00178867
-0.0247077
-0.00186144
0.000272826
-9.5589e-05
-3.96583e-05
-8.03083e-05
-8.88002e-05
-0.000104553
-0.000116699
-0.000131341
-0.000141027
-0.00015941
-0.000173249
-0.000182339
-0.000192419
-0.000218197
-0.000230949
-0.000225152
-0.000244797
-0.000278726
-0.000278512
-0.000262011
-0.000278501
-0.000325958
-0.000347254
-0.000333785
-0.000328837
-0.000346341
-0.000384822
-0.000431689
-0.000480322
-0.00053887
-0.000599633
-0.000679558
-0.000781864
-0.000950327
-0.0011883
-0.00160007
-0.00217023
-0.00258916
-0.00302615
-0.00382912
-0.00438002
-0.00603354
-0.00634436
0.00593443
0.0365688
0.0245257
-0.00528098
0.00462904
-0.00427122
-0.00222959
-0.00366373
-0.00308687
-0.00424102
-0.00320066
-0.00289826
-0.00171797
-0.00143499
-0.00194733
-0.00173645
-0.00163103
-0.00125673
-0.000929661
-0.0010309
-0.00084249
-0.000494945
-0.000536446
-0.000318187
-0.000389311
-0.000490632
-0.000446709
-0.000588555
-0.000892903
-0.000765258
-0.00108758
-0.00120806
-0.00120208
-0.00164305
-0.00120084
-0.00145188
-0.0014457
-0.00142637
-0.00129575
-0.00171965
-0.00120683
-0.000993366
-0.00315435
-0.00151864
-0.00178937
-0.00191211
-0.00172291
-0.00147492
-0.00195703
-0.0014514
-0.00249966
-0.00214556
-0.00227395
-0.00214797
-0.000278787
-0.00290164
-0.0011269
-0.00254991
-0.00194689
-0.00276764
-0.00262116
-0.00265921
-0.00273918
-0.00253782
-0.00189356
-0.00204752
-0.00233575
-0.00147006
-0.00233853
-0.00128291
-0.00243478
-0.00159732
-0.00630517
0.00100333
-0.0206733
-0.001852
0.000270089
-9.55579e-05
-3.98682e-05
-8.08599e-05
-8.8592e-05
-0.000102136
-0.00011927
-0.000129889
-0.00013857
-0.00016263
-0.000171433
-0.000177322
-0.000198866
-0.00021467
-0.000221243
-0.000230175
-0.000257882
-0.000273229
-0.000268456
-0.000274651
-0.00029627
-0.000330823
-0.000338718
-0.00033387
-0.000344236
-0.000378974
-0.000426954
-0.000454026
-0.000490222
-0.000559398
-0.000649064
-0.000731829
-0.000827065
-0.00103497
-0.00128976
-0.00153998
-0.00168722
-0.00199014
-0.00235418
-0.00241028
-0.00286846
-0.000108594
-0.00406404
0.0385837
-0.000345861
0.00725458
-0.0058219
0.0016984
-0.00352095
-0.00459046
-0.00480559
-0.00366129
-0.00436059
-0.00260189
-0.00363645
-0.00289119
-0.00272009
-0.00105202
-0.00193856
-0.0014789
-0.00155536
-0.00135749
-0.00131391
-0.00144972
-0.00115718
-0.00126073
-0.00107265
-0.00112612
-0.00113855
-0.00116187
-0.00100179
-0.00146061
-0.00083297
-0.00112733
-0.0010739
-0.00081263
-0.000949528
-0.00095969
-0.00101576
-0.00110357
-0.00122441
-0.00114729
-0.00212013
-0.0012504
-0.00119687
-0.0033169
-0.000922351
-0.00200132
-0.00139296
-0.00191255
-0.00162049
-0.00249393
-9.06156e-05
0.000217634
-0.00103439
-0.0027405
0.00017473
-0.00030598
-0.00176462
-0.000393393
-0.00280638
-0.00207082
-0.002256
-0.00284789
-0.0024677
-0.00263474
-0.00209397
-0.00185319
-0.00182189
-0.00183106
-0.00160357
-0.00210144
-0.00134036
-0.00232905
-0.00195342
-0.0048992
6.98327e-05
-0.0162848
-0.00184202
0.00026748
-9.5518e-05
-4.04433e-05
-8.14169e-05
-8.80569e-05
-0.000101185
-0.000120828
-0.000126839
-0.000139052
-0.00016429
-0.000169736
-0.000173742
-0.000207898
-0.000217261
-0.000207992
-0.000234024
-0.000269796
-0.00027135
-0.000259153
-0.000279271
-0.000315466
-0.00032954
-0.000339063
-0.000342689
-0.000363952
-0.000409156
-0.000451764
-0.000473081
-0.000507937
-0.000577382
-0.000644672
-0.000724683
-0.000853051
-0.00102156
-0.00113698
-0.00125874
-0.00139517
-0.00146833
-0.00135335
-0.000939632
-0.000131639
0.00204857
0.00685764
0.0504419
-0.0091649
0.00500317
-0.00920079
-9.32012e-05
-0.00761043
0.00113217
-0.00719388
-0.00386973
-0.00517401
-0.00328889
-0.00297134
-0.00227395
-0.00339661
-0.00068951
-0.00127646
-0.00122019
-0.00103407
-0.00149019
-0.00123287
-0.00124426
-0.000855517
-0.000877545
-0.000608619
-0.000813159
-0.000726909
-0.000809695
-0.000561091
-0.00117766
-0.000550011
-0.000866305
-0.00132875
-0.000842259
-0.000954602
-0.00145728
-0.00121977
-0.00113581
-0.00146472
-0.000971207
-0.00104808
-0.00172104
-0.000857652
-0.00131313
-0.00162783
-0.00243545
-0.000729598
0.000151001
0.000511541
-0.00190563
-0.00312762
0.000956905
0.00142694
-0.00187587
-0.00070836
-0.000149494
-0.00182262
-0.00149566
-0.00171701
-0.00211909
-0.0022137
-0.00238912
-0.00232882
-0.00251167
-0.00152862
-0.00248339
-0.00173679
-0.00217304
-0.00183634
-0.00203116
-0.00155607
-0.00229093
-0.00204238
-0.00399473
-0.000373036
-0.0134592
-0.00183111
0.000264871
-9.54942e-05
-4.08217e-05
-8.16459e-05
-8.62464e-05
-0.000102582
-0.000119871
-0.00012558
-0.000140123
-0.00016472
-0.000166295
-0.000171952
-0.000215697
-0.000214206
-0.000200788
-0.000243547
-0.000275768
-0.000265179
-0.000257108
-0.000287268
-0.000331474
-0.000331893
-0.000334469
-0.000343101
-0.000374369
-0.000435985
-0.000465108
-0.000479985
-0.000496396
-0.000539377
-0.000607372
-0.000717589
-0.00083803
-0.000945836
-0.0010315
-0.00114217
-0.00126576
-0.00144661
-0.00181374
-0.00229857
-0.00362735
-0.00389995
0.00788064
0.0189469
-0.00648586
0.00308247
-0.00433221
0.00213798
-0.000690961
0.00220314
3.45036e-05
-0.00102275
-0.00085652
-0.000251695
0.000306972
-0.00164315
-0.00209301
-0.00314003
-0.00217472
-0.00186288
-0.00132138
-0.0020303
-0.00108993
-0.00173402
-0.000907703
-0.00144746
-0.00128065
-0.00135231
-0.00132991
-0.00142953
-0.000778849
-0.00171284
-0.000740604
-0.00104982
-0.00120146
-0.000925492
-0.000866596
-0.00182762
-0.000992898
-0.000842597
-0.00166002
-0.00113573
-0.00158109
-0.00160759
-0.00087331
-0.000374862
0.00162066
-0.00013236
-0.000580699
-0.00220598
-0.00132624
0.0041542
0.00183078
-0.00154205
0.000910486
-0.000804104
-0.000894553
-0.000946161
-0.00115605
-0.0014864
-0.00178009
-0.00190452
-0.00207124
-0.00225542
-0.00234119
-0.0018397
-0.0018546
-0.00190116
-0.00147464
-0.00210512
-0.00152109
-0.00195589
-0.00158918
-0.00216842
-0.00194456
-0.00305764
-0.000854638
-0.0106694
-0.00181993
0.000262129
-9.54114e-05
-4.097e-05
-8.14645e-05
-8.57616e-05
-0.000103628
-0.00011769
-0.000125605
-0.000141936
-0.000163271
-0.00016234
-0.000177511
-0.000214309
-0.000207811
-0.000205463
-0.000252457
-0.000271209
-0.000259792
-0.000261837
-0.000306073
-0.000335834
-0.0003323
-0.000327456
-0.000347837
-0.000398646
-0.000453478
-0.000469381
-0.000473757
-0.00048475
-0.000501163
-0.000581879
-0.000705245
-0.000801597
-0.000809464
-0.00083671
-0.00085576
-0.000860974
-0.000776638
-0.00054554
-0.000434113
0.00195319
-0.000828384
0.029347
0.0167432
0.000418583
0.0012462
-0.00175973
-0.000804004
-0.00181245
-0.000888121
-0.00184765
-0.00079026
-0.00146047
-0.00470327
-0.00247218
-0.0045307
-0.000360788
-0.00246772
0.000171561
-0.000449716
0.000209465
-0.000423933
-0.000243092
-0.000234656
-0.000369389
-0.000930011
-0.00135049
-0.00118191
-0.00122629
-0.00152202
-0.00122133
-0.00145846
-0.00151425
-0.00113394
-0.00109546
-0.00135708
-0.00111993
-0.00105463
-0.00150443
-0.00151862
-0.000472661
0.000484167
0.000837352
0.00051061
-0.000694502
-0.00342262
0.00271592
0.000681864
0.00359493
0.00262213
-0.00110096
-0.000140665
0.00128081
-0.000208683
0.000559767
-0.000951278
-0.00047561
-0.000797279
-0.00117953
-0.00141429
-0.00158638
-0.00174064
-0.00190795
-0.00182573
-0.00223078
-0.00147824
-0.00203541
-0.00173953
-0.00191187
-0.00206813
-0.00172513
-0.00209787
-0.00169739
-0.00206422
-0.00182706
-0.00243032
-0.00103976
-0.00859729
-0.00180777
0.000259608
-9.4979e-05
-4.08296e-05
-8.06963e-05
-8.63274e-05
-0.000103429
-0.000115138
-0.000127607
-0.000141898
-0.000160477
-0.000160002
-0.000186988
-0.000207626
-0.000201846
-0.000219282
-0.000255545
-0.000263042
-0.000257108
-0.000274594
-0.000321585
-0.000335841
-0.000324542
-0.000316775
-0.000353588
-0.000431558
-0.000456523
-0.000454632
-0.000458622
-0.000471584
-0.000505793
-0.000582685
-0.000671931
-0.000694499
-0.000691979
-0.000674883
-0.000626826
-0.000502712
-0.0003948
0.000161742
0.000738645
0.00245904
0.00572494
0.0299643
-0.0130525
-0.00297298
-0.006176
-0.0028206
-0.00347954
-0.00205961
-0.00147522
-0.000228722
0.0026621
0.00363533
-7.21437e-05
0.00301218
0.00103797
0.00262146
-0.000771562
0.00084536
-0.00130329
-0.000688716
-0.00136733
-0.00175453
-0.00115528
-0.00210939
-0.00142113
-0.00278625
-0.0011531
-0.002035
-0.00211052
-0.00103227
-0.00174617
-0.00141774
-0.00111359
-0.00191454
-0.000536502
-0.000467262
0.000703302
0.000396184
-0.000262049
-0.00143198
-0.000354078
-0.00104494
0.00238664
0.00334784
0.000529558
0.000811548
0.00108586
0.000452584
0.00180466
0.000787725
0.000444549
0.00119391
-0.00034832
0.000339529
-0.000134106
-0.00076566
-0.000846016
-0.00107604
-0.00133283
-0.00144417
-0.00153902
-0.00180515
-0.00181321
-0.00195205
-0.00137587
-0.00186038
-0.00152996
-0.00187873
-0.0016788
-0.00166885
-0.00172578
-0.00150096
-0.00169279
-0.00169956
-0.00194586
-0.00125801
-0.00668293
-0.00179531
0.000256802
-9.46266e-05
-4.07184e-05
-7.99345e-05
-8.73717e-05
-0.00010304
-0.000112613
-0.000128001
-0.000144009
-0.00015283
-0.000163987
-0.000191619
-0.000196878
-0.000199923
-0.000236707
-0.000250396
-0.000248374
-0.0002569
-0.000287958
-0.000329794
-0.000334329
-0.000317782
-0.000321042
-0.000377514
-0.000444758
-0.000441894
-0.00044371
-0.000450921
-0.000477913
-0.000531416
-0.000578764
-0.000584009
-0.000605037
-0.000588136
-0.000536344
-0.000455489
-0.00036346
-0.000262368
-0.000121287
-7.97802e-05
0.00116661
0.00799454
0.0244307
-0.00512367
0.00271579
-0.00191379
0.000674711
-0.00181379
-0.000662887
-0.00169841
-0.00153533
-0.00198944
-0.000327052
0.00153817
-0.000266366
-0.00165793
-0.00174292
-0.000862353
-0.000848155
-0.000902819
-0.00137777
0.000241643
-0.00176727
-9.4893e-05
-0.00208073
-0.000704777
-0.000882519
-0.000983475
-0.00145377
-0.00116435
-0.00106948
-0.00221997
0.000393446
0.00106321
-0.00140755
-8.28424e-05
-0.00139526
-0.000799447
0.00144214
0.0027534
0.00273683
0.00253082
-0.000232094
0.000416221
0.00139253
0.000317577
0.00216882
0.00115419
0.000841545
0.00117997
0.000784458
0.000633593
0.000741121
0.000335334
-0.000153744
-0.000228807
-0.000653317
-0.000772638
-0.000920436
-0.00115211
-0.00129638
-0.00144511
-0.00153113
-0.00149201
-0.00165842
-0.0014775
-0.00174189
-0.00162746
-0.00184586
-0.00173415
-0.00178234
-0.00166756
-0.00157137
-0.00164821
-0.00161109
-0.00167457
-0.00127102
-0.00505732
-0.00178177
0.00025439
-9.39364e-05
-4.08028e-05
-7.91708e-05
-8.79721e-05
-0.000101847
-0.000110063
-0.000130036
-0.000144988
-0.000143919
-0.000174372
-0.000190068
-0.000181897
-0.000209366
-0.000242186
-0.000244472
-0.000242607
-0.000258041
-0.000306852
-0.000333681
-0.00032133
-0.000311149
-0.000338638
-0.000403115
-0.00043728
-0.000434709
-0.000431016
-0.00044118
-0.000483094
-0.000523019
-0.00052048
-0.000522761
-0.000533542
-0.000546144
-0.00056465
-0.000600575
-0.000657181
-0.000693431
-0.000871163
-0.000456466
-0.00185705
0.0109129
0.0106004
-0.00446875
0.0013762
-0.00268693
-0.000264234
-0.00362108
-0.00161324
-0.00310308
-0.000823368
-0.000901056
-0.000798507
0.00351935
-0.00171887
-0.000784151
0.000800305
-0.00218723
-0.00124764
-0.00166616
-0.00127457
-0.00062885
-0.00224266
-0.000992801
-0.00177128
-0.00111435
-0.00189424
-0.000695826
-0.000177385
5.08274e-05
-0.000227943
-0.00200812
-0.00118198
0.00206302
0.000166467
0.00297419
0.00297116
-0.000468189
0.000644639
0.000861273
-0.000266108
0.00247361
0.0006336
0.00165628
0.00129472
0.000516198
0.00116128
0.000813041
0.00101707
0.00102303
0.00104676
0.000549295
0.000563465
0.00031922
-1.13608e-05
-0.000150984
-0.000543948
-0.000735727
-0.000896706
-0.00109487
-0.0012155
-0.00136273
-0.00155043
-0.00166634
-0.00166666
-0.00155143
-0.00171953
-0.00157605
-0.00163217
-0.0013689
-0.00143832
-0.00118308
-0.00131643
-0.00137915
-0.00139497
-0.00151858
-0.00104079
-0.00360608
-0.00176758
0.000251813
-9.31998e-05
-4.08648e-05
-7.86349e-05
-8.77575e-05
-0.000100832
-0.000109832
-0.000132157
-0.000139277
-0.000144565
-0.000178733
-0.000182719
-0.000182468
-0.000215925
-0.000238218
-0.000246872
-0.000244926
-0.00026349
-0.000317308
-0.000331431
-0.000317179
-0.000324981
-0.000372075
-0.000406064
-0.000422133
-0.000423651
-0.000419359
-0.000450493
-0.000502141
-0.000505831
-0.000495585
-0.000477079
-0.000450689
-0.000435761
-0.000433595
-0.000430639
-0.000445527
-0.000397226
-0.000844523
-0.000609582
-0.00279011
0.0203599
0.0121048
-0.000481589
0.00120151
-0.00050033
0.000469648
0.000689428
0.00206172
0.00107905
0.00166854
0.000659638
0.000895074
0.00236412
-0.00170004
0.00341041
-0.00263366
-0.0018409
-0.000381235
-0.00300884
0.00198249
-0.00335353
0.00118945
-0.00104815
0.00157615
-2.99698e-05
-0.00150563
-0.0014668
0.000346491
0.000561366
0.00289226
0.00281353
0.000908952
0.0011357
0.000174777
0.000668327
0.000937485
0.00126679
0.00150358
0.00134846
0.00162726
0.00130005
0.000924711
0.00143382
0.00113819
0.00107
0.00118048
0.00097798
0.000541765
0.000781564
0.000630559
0.000555392
0.000283089
0.000230771
-0.000232505
-0.000308285
-0.000609208
-0.000729654
-0.00097266
-0.00115041
-0.00131713
-0.00133687
-0.00133244
-0.00132689
-0.00150159
-0.00136154
-0.00150633
-0.00138546
-0.00152696
-0.00142516
-0.00163825
-0.00132482
-0.00161204
-0.00136816
-0.00144843
-0.00137051
-0.000939179
-0.00243663
-0.00175238
0.000249292
-9.2473e-05
-4.04696e-05
-7.78163e-05
-8.63996e-05
-0.000100602
-0.000110712
-0.000131205
-0.000133774
-0.00015343
-0.000172483
-0.000176391
-0.00019417
-0.000208317
-0.000235893
-0.000249929
-0.000245003
-0.000273046
-0.000317698
-0.000322874
-0.000316386
-0.00034876
-0.000388659
-0.000396676
-0.000404961