/*--------------------------------*- C++ -*----------------------------------*\
| =========                 |                                                 |
| \\      /  F ield         | OpenFOAM: The Open Source CFD Toolbox           |
|  \\    /   O peration     | Version:  2.2.x                                 |
|   \\  /    A nd           | Web:      www.OpenFOAM.org                      |
|    \\/     M anipulation  |                                                 |
\*---------------------------------------------------------------------------*/
FoamFile
{
    version     2.0;
    format      ascii;
    class       volScalarField;
    location    "0.85";
    object      divBf;
}
// * * * * * * * * * * * * * * * * * * * * * * * * * * * * * * * * * * * * * //

dimensions      [1 -3 -2 0 0 -1 0];

internalField   nonuniform List<scalar> 
14161
(
584.095
339.64
339.868
304.731
281.253
258.318
241.76
228.484
220.858
217.502
219.781
226.079
238.621
252.62
273.968
294.46
318.714
346.784
363.914
396.936
411.591
419.374
451.227
461.531
429.045
456.91
423.921
392.123
366.377
302.934
268.083
215.463
158.218
121.199
75.3371
46.2572
61.9415
95.7756
80.8756
154.111
196.011
246.43
386.894
769.003
2008.01
-25925.3
-24848.7
-25652.7
-20425.8
-85471.3
-52008.1
-18369.8
-26878.8
-22297.6
-27298.7
-24019.7
-28282.7
-27519
-28824
-27811.5
-25658.2
-26179.3
-23870.4
-20306.2
-21997.9
-15601.7
-15430.3
-15540.1
-11179.3
-9943.44
-7952.22
-6390.08
-4008.63
-749.08
290.992
1854.03
6428.03
9305.97
16098.4
16250.8
28415
29835.6
27578.8
26527.3
19617.1
16740.2
12306.9
8897.9
6176.69
3671.66
2783.89
1694.24
2261.91
2124.92
2420.3
2358.24
2302.51
1844.75
1686.03
1054.48
802.847
-39.7351
-433.19
-1321.07
-1833.27
-2776.48
-3391.02
-4413.71
-5079.97
-6065.59
-6111.51
-6870.01
-4715.25
-7109.68
-1404.38
-6758.39
3906.36
-5508.12
9415.72
336.099
93.229
93.7764
58.0593
33.0814
7.78889
-12.0123
-29.3936
-42.0291
-51.2727
-55.9223
-57.2832
-53.9
-49.21
-39.2549
-30.0884
-19.2095
-5.68405
-2.06262
13.1021
17.1774
0.989308
14.5554
-1.75908
-33.0591
-42.3255
-88.0505
-142.261
-184.278
-275.2
-325.674
-409.618
-476.757
-537.086
-613.409
-665.476
-672.962
-643.562
-663.162
-610.741
-575.191
-365.685
-250.31
111.426
-668.357
-25469.5
-26156.7
-26045.5
-27881.1
-35965.7
-52619.5
-25813.3
-29617.4
-25330.4
-29446.8
-26684.5
-30036.7
-31911.9
-30781.3
-26886.6
-26543.8
-24601.8
-21564.3
-21691
-15903.1
-16902.1
-14495.9
-11182.6
-10327.4
-7835.69
-6139.42
-2987.79
34.659
2234.9
5200.6
6174.39
10172.4
9822.12
20600.4
22475.1
34494.7
32672.5
28492
31099.3
21797.9
20500.1
13443.9
9890.18
8284.65
6155.64
5162.43
3752.48
2999.57
2549.02
2637.03
2508.09
2514.9
1938.28
1893.55
1314.39
903.736
222.155
-260.115
-1049.38
-1555.21
-2467.08
-3025.06
-3951.46
-4376.99
-5181.17
-5347.92
-6171.29
-4431.09
-6837.92
-1462.54
-6622.9
3824.35
-5281.36
9305.12
92.2837
-146.878
-144.816
-179.638
-204.693
-230.86
-252.406
-272.317
-288.361
-301.773
-311.595
-318.743
-322.469
-325.142
-324.207
-324.352
-323.865
-322.341
-328.022
-330.202
-339.615
-363.396
-370.827
-401.79
-427.046
-484.434
-537.957
-605.313
-661.714
-758.518
-839.323
-938.669
-1024.4
-1123.43
-1202.44
-1260.47
-1312.1
-1289.51
-1335.28
-1383.43
-1488.2
-1388.77
-1105.79
-1024.35
534.651
-16948.2
-16736.3
-21509.7
-13889.3
5485.11
-44078.2
-18305.4
-40535.9
-38089.4
-42052.4
-39206
-33474.4
-31510.2
-28625.9
-24658.1
-23320.2
-20930
-17145.7
-18375.2
-13582
-12933.6
-12708.6
-8828.41
-9135.95
-7372.8
-5189.77
-3060.64
-523.447
3194.66
7870.43
11341.4
16740
17134.9
26368
22098.4
28712.2
30238.3
29282.6
33024
28588.5
29940.6
24488.4
21954.4
15545.4
10589.6
7135.32
4531.68
3683.18
2805
2632.44
2612.61
2604.05
2249.8
2088.06
1508.04
1233.11
453.185
93.3323
-795.571
-1200.43
-2140.13
-2573.45
-3547.08
-3980.56
-4948.99
-5069.36
-6011.65
-4470.2
-6629.23
-1326.34
-6516.45
3471.48
-5121.71
8199.05
-145.431
-379.445
-374.572
-407.21
-431.052
-456.803
-478.755
-499.854
-517.875
-533.994
-547.468
-558.612
-568.106
-575.514
-582.757
-588.752
-597.676
-605.382
-617.345
-635.533
-651.124
-675.575
-715.755
-749.677
-791.004
-859.354
-912.288
-994.449
-1087.8
-1181.97
-1290.61
-1390.36
-1493.79
-1585.69
-1661.21
-1739.34
-1769.72
-1778.16
-1764.64
-1727.09
-1550
-1288.03
-979.939
-906.797
-777.916
-20859.7
-26267
-21734.1
-30789.9
-530.938
-53346.6
-51631.5
-55863.3
-50145.9
-44121.7
-36558.9
-29965.5
-27891.5
-23295
-21848.9
-19839.5
-17345.9
-17005.4
-12839.4
-13873
-10642.3
-9263.3
-8310.16
-5537.25
-4370.03
-2878.25
-1348.31
242.151
2467.52
4795.92
8313.52
14366.3
14190.4
19927.6
23422.9
17915.6
24884.4
25478.8
34267
32093.5
41504.9
34822.2
30012.7
20946.9
16192
11418.6
7824.19
5572.41
4431.09
3629.78
3559.47
3290.72
2821.99
2619.41
1909.85
1596.69
809.876
406.096
-519.049
-1017.27
-1948.25
-2364.76
-3392.63
-3721.98
-4689.83
-4645
-5670.59
-3993.14
-6243.42
-1176.98
-6043.6
3366.01
-5144.23
8222.78
-375.989
-603.173
-594.506
-623.848
-645.413
-669.658
-690.949
-712.107
-731.002
-748.662
-764.501
-778.657
-792.05
-803.893
-816.506
-828.6
-843.213
-859.949
-878.036
-902.657
-929.985
-963.874
-1015.01
-1046.95
-1108.8
-1196.71
-1252.03
-1339.83
-1456.47
-1551.16
-1656.52
-1760.79
-1878.61
-1997.08
-2093.62
-2180.97
-2267.9
-2313.27
-2320.21
-2291.13
-2235.28
-2097.01
-1656.68
-1128.08
-331.756
-14540.4
-13516.3
-20713.1
-4550.3
-96792.5
-75750
-10512.5
-20354.1
-21504.8
-27239.6
-25349
-26688.9
-23958
-20654.8
-18849.4
-16135.8
-14069
-13231.3
-11162
-9956.67
-8077.24
-7175.84
-5611.48
-4803.65
-3066.12
-2554.39
269.542
-90.8064
4230.1
4884
9833.76
13705.5
20659.2
20340.3
23328.3
20995.7
22831.8
21608.2
28911.1
24045
34539.7
35716.2
42765.8
43965.2
34071.4
23044.5
14610.2
8828.52
6241.35
4718.68
4335.64
3981.34
3651.8
3275.95
2494.91
2102.1
1161.62
813.962
-236.431
-531.26
-1578.82
-1892.82
-2935.57
-3108.98
-4171.3
-4021.54
-5062.44
-3722.45
-5415.81
-1083.84
-5953.82
2693.81
-4973.37
6442.17
-597.705
-816.934
-803.528
-828.65
-847.031
-868.873
-888.582
-908.889
-927.673
-945.896
-963.08
-979.022
-995.411
-1009.79
-1027.23
-1043.1
-1062.1
-1085.27
-1106.85
-1147.85
-1173.18
-1210.32
-1275.9
-1323.38
-1384.06
-1473.48
-1541.87
-1635.48
-1762.22
-1869.62
-1988.81
-2113.84
-2231.53
-2342.35
-2435.31
-2511.26
-2533.93
-2539.17
-2494.35
-2337.47
-2147.04
-1838.21
-1467.78
-1345.38
-1101.9
-10497.9
-9226.49
-14057
-25666.5
-200020
-37069.9
-11757.5
-8036.56
-10822.4
-12118.9
-11978.5
-14787.1
-14123.4
-13721
-13380.9
-12645.8
-11041
-9886.77
-8905.36
-6416.06
-6472.77
-3904.91
-3827.91
-1623.65
-798.735
1798.23
2553.7
4989.48
5902.6
7491.45
13731
14803.3
23350.4
22672.9
20822.3
20310
22299
20274.2
27946.6
23742.4
30639.7
26969.7
32998.9
35192.4
39643.2
34934.5
23391.9
14417.6
10166.6
7976.39
6899.59
6757.44
5498.93
5050.73
3776.78
3135.44
1957.13
1347.5
391.116
-154.365
-1201.39
-1466.28
-2567.28
-2601.16
-3827.8
-3444.59
-4609.79
-3333.16
-5092.87
-1357.75
-5240.79
1790.39
-4808.22
5305.25
-809.565
-1019.64
-1000.85
-1021.04
-1035.55
-1054.29
-1071.74
-1090.49
-1108.45
-1126.53
-1144.22
-1161.33
-1179.49
-1196.3
-1216.54
-1236.21
-1258.91
-1287.95
-1313.83
-1353.79
-1393.65
-1435.08
-1504.83
-1552.88
-1620.88
-1723.36
-1802.66
-1902.87
-2026.03
-2136.52
-2260.44
-2377.7
-2498.26
-2621.27
-2735.27
-2842.55
-2930.78
-3009.91
-3040
-3006.03
-2927.07
-2757.14
-2437.33
-2089.83
-1354.95
-10543.6
-7955.15
-14789.3
-3872.36
-135573
-123003
-15156.7
-19030.1
-13298.5
-17616.3
-16263.7
-17677.8
-12912.1
-13614.7
-10572.2
-10965.4
-10006
-7687.79
-6731.93
-4922.34
-4317.9
-2539.23
-2235.22
-513.217
535.564
1920.83
3128.28
4518.78
6231.77
8377.22
12809.3
19412.4
23367
24146.2
19939.4
21547.8
20704
20520.6
24314.2
22230.1
27620.8
25377.6
29467
28865.5
33006.1
38332.8
36882.8
26144.9
17233.4
13015.7
11002.4
9646.08
8090.57
7350.02
5736.06
4677.83
3196.68
2312.21
933.798
579.916
-643.357
-801.215
-2083.01
-1964.45
-3226.57
-2755.7
-4119.86
-2799.4
-4195.87
-949.635
-4985.26
1908.35
-4745.18
4968.34
-1010.16
-1210.35
-1185.63
-1200.35
-1210.47
-1225.59
-1240.24
-1256.87
-1273.43
-1290.76
-1308.2
-1326
-1344.81
-1363.75
-1385.27
-1408.42
-1433.05
-1466.24
-1495.53
-1540.8
-1585.28
-1631.06
-1693.57
-1774.29
-1829.07
-1922.9
-2029.95
-2126.6
-2249
-2377.43
-2507.15
-2640.12
-2766.67
-2885.9
-2984
-3061.28
-3106.16
-3112.37
-3071.12
-2977.76
-2799.6
-2515.38
-2189.99
-1905.21
-1635.34
-9573.5
-9152.11
-13290.3
-4880.83
-56675.2
-91356.2
-36625.5
-40159
-31979.6
-28391.9
-24059
-23479.3
-16786.8
-14460.8
-14717.4
-9080.99
-9173.36
-6275.87
-5252.29
-3978.34
-3008.62
-1438.85
-249.203
1374.17
2861.7
4091.56
5784.74
6820.99
10269.3
12737.9
17562.9
25952.5
22462.2
27191.8
20429.7
22776.7
20789.4
19696
20214.9
18528.4
22358.6
18985.8
23579.2
21341.7
23960
24306.5
28336
28818.9
23889.7
21498.8
18609.5
16159.7
13732
11487.9
9275.38
7457.55
5548.17
4016.18
2431.56
1536.98
-29.0847
-366.355
-1727.54
-1473.02
-2819.52
-2182.59
-3605.3
-2646.12
-4004.56
-1583.12
-4422.26
286.65
-4181.89
2385.35
-1198.6
-1388.22
-1357.29
-1366.22
-1371.61
-1382.78
-1394.28
-1408.45
-1423.2
-1439.41
-1456.18
-1474.12
-1493.25
-1513.49
-1536.35
-1561.7
-1588.69
-1624.32
-1657.15
-1699.41
-1757.12
-1804.27
-1863.21
-1951.59
-2012.88
-2109.89
-2227.64
-2320.04
-2440.39
-2573.52
-2696.83
-2821.89
-2949.93
-3074.57
-3196.18
-3318.69
-3432.11
-3521.69
-3586.75
-3609.26
-3586.57
-3501.22
-3384.15
-3025.61
-2348.59
-7900.59
-7289.7
-11059.4
-3266.02
-57677.4
-95588.5
-24752.9
-35205.9
-35105
-32552.5
-26678.9
-26408.7
-16547.7
-17276.6
-11300
-11538.7
-7401.14
-7308.71
-4462.13
-2930.89
-1829.62
-6.82215
1574.99
2966.43
4244.23
5112.13
6945.24
7778.66
9479.72
12441.9
12389
20987.1
16870
23428.9
20373.9
21458
21229.5
21273.9
20774
18240.3
20558.8
18381.5
21818.6
20994.7
24637.4
25014.2
29256.9
31878.1
32572.9
27873.7
24017.8
20235.2
16708.2
14098.8
11835.8
8951.08
6451.62
5027.52
3084.57
2284.67
1103.77
746.803
-625.029
-447.069
-2109.24
-1354.53
-3177.43
-1734.78
-3604.31
-1670.39
-3653.28
-16.281
-4439.39
1948.4
-1373.76
-1552.52
-1515.23
-1518.2
-1518.69
-1525.71
-1533.85
-1545.29
-1557.97
-1572.7
-1588.39
-1606.24
-1624.75
-1646.48
-1668.85
-1696.77
-1725.04
-1760.41
-1800.07
-1842.21
-1902.02
-1952.43
-2018.62
-2100.22
-2180.88
-2262.21
-2384.18
-2487.44
-2604.88
-2742.05
-2877.95
-3011.95
-3143.97
-3258.61
-3371.7
-3460.95
-3510.83
-3541.82
-3512.3
-3439.41
-3263.19
-3056.44
-2643.63
-2231.63
-1599.96
-6100.61
-5782.41
-10195.3
-6412.38
-119536
-116534
-24833.7
-41443.1
-31627.7
-26598.3
-19874.5
-18716.9
-10940
-12917.8
-8202.83
-6211.73
-2336.81
-1610.55
-1290.69
990.44
3069.6
3305.36
3356.23
5063.3
6894.77
7392.2
8359.53
9978.9
15330
16377.9
21809.8
30923.3
22836.3
27830.9
25694.2
24610.7
23315.1
21624.1
21636.8
19728.9
21900.8
16960.9
20929.3
17982.2
20809.5
22856.5
25087.1
31286.6
31250
31873.3
27204.1
21813.6
17662
13958.5
11170.8
10144.3
8505.02
6650.28
4871.1
3853.33
1757.25
1055.74
-658.544
-281.983
-1775.22
-956.354
-2616.19
-1537.14
-3084.15
-1010.21
-3753.97
-664.903
-3702.29
241.052
-1534.93
-1702.63
-1659.07
-1656.09
-1651.69
-1654.52
-1659.22
-1667.85
-1678.31
-1691.41
-1705.94
-1723.16
-1741.48
-1763.25
-1786.67
-1814.74
-1845.16
-1880.71
-1923.89
-1965.66
-2023.64
-2087.29
-2146.37
-2221.23
-2329.21
-2394.43
-2506.14
-2640.65
-2744.16
-2871.5
-3010.36
-3142.2
-3264.86
-3387.28
-3519.33
-3643.03
-3759.33
-3853
-3945.69
-3992.41
-3998.23
-3878.29
-3765.09
-3511.04
-2980.12
-5835.62
-5287.62
-11061.3
-17467.8
-153810
-97882.2
-32803
-29678
-29752.7
-19188.7
-13732.3
-9177.14
-7545.68
-8599.19
-5363.89
-286.111
-3006.38
3395.82
1778.16
2507.49
4199.82
5061.47
5492.03
6217.99
7775.95
9035.18
10503.5
11243.5
14663.8
18812.3
25588.1
31061.2
25517.4
29246.8
27551.5
24667.1
26272
21708.9
20888
19925.2
25970.6
20436.3
25429.7
22996.8
23970
24036.8
25919.4
30355.4
29478.6
27884.1
25092.3
22685.9
18659.6
14705.9
11223.8
8796.84
7288.12
6271.79
4947
4064.07
2695.44
2479.66
438.845
815.108
-1335.54
-322.002
-1613.31
-1657.25
-2256.86
-2468.07
-2460.6
-1783.34
-3436.73
-1062.25
-1681.29
-1838.05
-1788.42
-1779.67
-1770.48
-1769.21
-1770.5
-1776.3
-1784.49
-1795.79
-1809.03
-1825.38
-1843.12
-1864.98
-1888.4
-1916.72
-1948.66
-1983.27
-2030.6
-2072.56
-2127.09
-2201.18
-2256.31
-2334.95
-2441.64
-2512.12
-2622.99
-2751.43
-2867.62
-2995.75
-3128.29
-3265.42
-3401.35
-3524.02
-3620.28
-3712.28
-3804.63
-3818.68
-3831.25
-3794.73
-3721.41
-3617.53
-3411.03
-3286.13
-2961.64
-4229.99
-4102.68
-7778.74
-24581.1
-111139
-86603.7
-58990.8
-58641.6
-35261.4
-16997.4
-8166.35
-9053.92
-2613.97
-7395.51
860.425
-1167.74
1084.98
786.964
3366.36
4339.15
4084.36
4843.56
5910.05
7670.97
9022.24
9362.63
11336.4
13652.3
17418.7
30239.6
34791.5
34760.3
32223.4
29059.5
24325.9
27990.6
26605.7
21176.8
23889.7
21988.1
24195.4
20562.1
22361.4
24894.5
22565.7
28923.9
25680.3
28880.5
26114.6
24576.5
19786.7
17260.2
15072.4
12100.6
10644.5
9858.71
7987.98
6500.72
4856.67
4130.37
3386.9
2193.3
731.686
782.875
-959.607
215.881
-2554.07
-448.343
-2903.22
-1237.61
-3126.1
-1839.78
-3351.61
-1436.04
-1812.34
-1958.42
-1903.12
-1888.9
-1875.17
-1869.98
-1868
-1871.07
-1877.05
-1886.57
-1898.54
-1913.81
-1931.17
-1952.39
-1976.38
-2003.91
-2037.89
-2072.35
-2118.99
-2165.17
-2217.96
-2290.07
-2352.26
-2428.23
-2522.64
-2625.32
-2711.12
-2824.18
-2985.4
-3075.05
-3197.64
-3347.38
-3500.12
-3601.25
-3719.69
-3846.49
-3973.6
-4125.36
-4242.87
-4285.5
-4313.37
-4337.77
-4257.94
-4133.96
-3700.33
-3686.81
-4822.04
-7294.81
-45025.9
-91027.6
-56789.4
-51461.4
-66743.9
-46102.7
-25839.4
-20622.2
-10928.2
-7322.41
-6226.09
-417.711
-1824.47
37.3363
1438.86
3371.61
4566.09
4478.2
5085.76
6735.29
8305.03
11727.9
12212.7
15953.1
22178
30817.9
41653.5
45490.7
38263.9
34253.2
27193.5
26105.3
24727
25205.4
19110.1
20410.6
21184.4
19012.9
22171.5
24506.3
24287.3
20378.2
19442.5
15654.4
15598.5
15937
14722.8
14236.1
12898.4
12570.2
12860.1
10986.5
9288.25
7421.04
6357.98
5041.13
4624.39
2868.37
2672.85
1627.8
762.899
557.982
-388.962
-769.227
-917.789
-1825.6
-1522.66
-2564.83
-2387.79
-3110.93
-2407.51
-1927.59
-2063.46
-2002.98
-1983.71
-1965.79
-1956.96
-1951.92
-1952.42
-1956.27
-1964
-1974.77
-1988.63
-2005.89
-2025.72
-2050.6
-2076.93
-2111.93
-2146.94
-2190.48
-2243.09
-2290.96
-2358.04
-2438.34
-2503.6
-2587.32
-2711.33
-2786.2
-2900.43
-3039.09
-3168.8
-3283.93
-3408.43
-3563.49
-3691.44
-3792.26
-3855.21
-3942.5
-4055.73
-4048.67
-4016.15
-3952.44
-3880.36
-3788.13
-3595.05
-3436.14
-2534.09
-5132.14
-9450.66
-102461
-31399.6
-36994.3
-29845
-46809.5
-49478
-43610.5
-24742.6
-20016.2
-10765.7
-7470.85
-1967.42
3857.27
1104.86
4035.69
4703.62
4721.91
7652.5
9037.67
11832
15406.5
26306.9
38584.7
57296.4
66785.3
76679.7
70397.5
55559.8
45558.9
32409
28032.8
21484.9
20709.5
16027.5
18894.7
17747.6
14132.1
12765.4
13543.1
9674.71
6973.61
5667.7
5436.5
6442.23
8536.06
10266
12819.9
11613.9
10848
10490.3
10224.7
9921.91
8380.47
6799.6
5750.45
4844.19
4324.38
3075.61
3035.38
1247.99
2159.5
-505.367
414.605
-419.07
-1195.06
-1091.53
-2437.93
-2192.33
-2782.08
-3094.95
-2966.75
-2026.77
-2153.03
-2088.01
-2064.21
-2042.54
-2030.43
-2022.63
-2020.76
-2022.68
-2028.76
-2038.33
-2051.1
-2067.68
-2087.01
-2111.43
-2138.02
-2171.88
-2208.29
-2250.06
-2304.66
-2353.95
-2414.77
-2502.51
-2563.4
-2648.98
-2761.29
-2857.57
-2960.62
-3069.7
-3245.4
-3330.54
-3451.52
-3579.88
-3775.58
-3855.66
-3959.15
-4101.48
-4241.66
-4355.25
-4530
-4538.79
-4532.23
-4489.26
-4354.19
-4254.16
-2143.97
-5301.89
-9925.29
-100520
-13627.7
-11100.8
-15151.5
-32485.4
-50815
-76169.7
-50079.6
-43505.3
-16987.7
-7037.47
61.2237
5372.34
5039.71
6093.06
10006.7
10541.3
22874.5
31089.7
50514.1
64238.6
84487.2
103825
111606
91248.7
68650.5
42885.5
23183.2
19270.3
9998.67
6255.68
4072.96
3809.97
2475.85
3471.86
2565.98
1483.61
1250.36
1587.98
1881.73
1686.34
624.773
1371.22
2053.54
4813.17
6592.31
8413.58
8429.81
9123.5
8793.13
8807.69
7742.12
6647.79
6662.43
6663.94
5164.12
3917.48
3232.4
2802.11
2074.46
1916.96
-215.497
1998.68
-2047.9
431.389
-2410.64
-998.921
-2551.65
-2442.37
-2995.8
-3088.23
-2109.68
-2227.1
-2158.24
-2130.51
-2105.58
-2090.6
-2080.36
-2076.41
-2076.57
-2081.14
-2089.57
-2101.19
-2117.19
-2135.73
-2159.51
-2186.57
-2218.09
-2257.13
-2296.2
-2351.1
-2404.34
-2459.68
-2539.39
-2618.67
-2693.21
-2785.3
-2919.21
-2997.08
-3107.3
-3254.96
-3392.11
-3497.86
-3608.01
-3745.89
-3908.22
-3980.61
-4042.6
-4080.13
-4146.84
-4242.17
-4249.58
-4295.51
-4267.43
-4103.32
-3719.35
-1202.23
-4382.05
-22020.2
-86053.3
-19144.1
-6073.67
-5266.49
-14623.1
-29004
-44496.1
-68627.8
-52447.9
-29156.6
-9579.97
5382.19
6549.27
13292.3
23725.5
42986.3
56588.2
80965.1
108172
123164
106709
88283.2
60363.8
46980.3
42090.1
32334.5
24125.1
15110.5
13753.9
9176.27
7498.37
4457.05
2903.75
1363.22
1130.32
93.0145
-712.006
-1031.69
-2592.78
-2838.41
-2691.88
-1865.5
-710.701
956.889
3047.71
4570.22
6005.66
6650.93
7886.38
8169.97
7107.71
7122.18
7286.26
6893.03
6057.15
4585.33
4200.64
3035.31
2949.17
2127.04
960.596
2076.44
-537.015
-267.454
-699.128
-1420.23
-1526.24
-2233.44
-2789.73
-2930.82
-3400.02
-2176.32
-2285.75
-2213.83
-2182.84
-2155.21
-2137.83
-2125.53
-2119.8
-2118.44
-2121.74
-2129.03
-2139.87
-2154.86
-2173.27
-2195.66
-2223.41
-2253.24
-2293.08
-2331.95
-2380.28
-2441.79
-2494.95
-2560.43
-2660.14
-2722.04
-2811.84
-2933.05
-3037.62
-3139.29
-3244.71
-3421.27
-3525.53
-3637.94
-3740.92
-3921.37
-4079.73
-4175.03
-4277.76
-4329.13
-4495.06
-4550.09
-4622.88
-4367.84
-4325.39
-4045.69
-1912.57
-5671.11
-45157.8
-96364
-13310.5
2139.38
1188.1
-4755.97
-12001.8
-24057.4
-43070
-55080.6
-38862.6
-8941.12
9728.51
31218.2
65221.4
92043.3
118017
111442
104913
71757.4
55261
51704.5
46898.5
36435.5
28001.7
22508.6
14814.4
11629.2
8206.41
7361.18
4985.98
4220.04
3195.69
2592.13
1952.16
1255.34
-148.558
-983.873
-1840.1
-2967.42
-4367.34
-3903.13
-2639.29
-967.079
630.845
2528.55
3768.74
6024.92
6631.98
7436.42
6434.81
7204.69
6316.61
6649.57
6499.54
5576.42
4574.79
4110.53
3292.61
3313.08
1866.65
2243.8
704.031
562.899
964.619
-1121.4
-343.043
-1922.39
-1936.18
-2817.48
-2793.35
-3533.14
-2226.79
-2329.15
-2255.02
-2221.46
-2191.7
-2172.39
-2158.46
-2151.24
-2148.63
-2150.85
-2157.05
-2167.37
-2181.09
-2199.59
-2220.4
-2248.66
-2277.46
-2316.12
-2356.46
-2401.19
-2462.75
-2518.81
-2580.1
-2666.99
-2750.34
-2830.15
-2920.38
-3066.66
-3145.48
-3254.15
-3387.04
-3553.2
-3635.36
-3740.48
-3848.55
-4059.27
-4093.76
-4116.9
-4150.07
-4140.97
-4202.46
-4126.21
-3980.24
-3715.31
-4032.21
-1958.83
-6639.07
-100433
-36334
-9215.45
-3558.82
-867.029
-489.588
-2259.07
-7485.65
-16160.2
-24717
-18934.9
8258.46
76648.7
120995
116233
97229.8
74983.2
62720.1
51264.3
40601.1
34789
32786.3
26854
23499.6
18901.3
17967.7
14275
13465.6
10861.2
10471.6
8367.8
6981.92
4750.46
3656.5
2186.7
1726.35
433.297
115.816
-923.252
-1880.46
-2677.41
-2602.39
-2202.74
-1209.01
288.74
2275.49
3567.26
5155.12
5581.01
6456.73
6128.88
6168.7
6585.82
6278.94
5610.23
5148.45
4606.58
3886.62
3663.73
2746.51
2114.64
2217.1
294.925
1782.58
-1154.86
437.611
-1639.24
-1075.47
-2116.94
-2478.65
-2814.38
-3438.08
-2261.34
-2357.62
-2282.12
-2246.71
-2215.44
-2194.73
-2179.56
-2171.22
-2167.61
-2168.97
-2174.35
-2183.95
-2197.1
-2214.88
-2235.33
-2262.33
-2291.34
-2326.77
-2370.1
-2411.07
-2468.44
-2533.44
-2588.65
-2657.8
-2766.91
-2831.04
-2920.22
-3041.98
-3160.88
-3257.53
-3355.66
-3512.65
-3661.05
-3749.79
-3865.32
-3997.82
-4216.04
-4325.69
-4364.05
-4360.86
-4386.83
-4326.47
-4339.95
-4391.5
-3325.13
-1782.85
-11517.8
-96703.3
-14412.4
-3177.05
-3927.71
-4674.73
-1635.98
1932.73
2927.96
3821.92
8823.9
25616.2
113425
121999
82863.9
67248
53645.3
45260.2
37324.1
29061.7
26662.9
22027.7
19543.5
15917.5
15802.6
13854.1
14822.1
13059.3
13487
10678
10458.2
9011.42
8124.32
6450.29
5248.56
3323.28
2503.53
1391.42
953.137
-659.036
-611.218
-790.07
-921.649
-723.168
-365.401
515.242
1848.84
3605.14
4146.98
4932.16
5615.38
5819.76
6300.88
5465.42
5470.95
4734.72
5182.36
4453.39
4109.21
3322.62
2880.17
2365.89
1521.14
1759.15
812.284
167.217
132.774
-1011.45
-941.522
-1931.39
-2344.61
-2739.03
-3318.02
-2280.34
-2371.53
-2295.53
-2258.99
-2226.81
-2205.18
-2189.22
-2180.09
-2175.77
-2176.48
-2181.1
-2190.29
-2202.54
-2219.82
-2239.98
-2265.16
-2295.55
-2327.42
-2372.02
-2413.38
-2461.8
-2532.53
-2586.78
-2652.95
-2745.07
-2834.23
-2913.33
-3000.3
-3154.29
-3235.87
-3341.9
-3445.88
-3641.2
-3731.17
-3824.93
-3864.73
-4052.8
-4231.52
-4268.61
-4234.36
-4230.75
-4199.61
-4335.08
-3843.94
-4639.5
-3933.62
-25002.9
-96293.1
-18472.2
-480.297
471.109
1549.37
3344.58
4302.79
10847.2
28576.8
68519.5
147866
119449
54088.8
47130.6
37430.7
30916.6
22109.5
18591.2
19885.8
18734.7
15331.5
14091.9
11848.7
12227.1
11490.8
13291.6
13046
13207.8
12578.7
12329.9
11365.9
10824.4
8680.6
7657.01
5136.42
4143.2
2714.45
2117.06
922.71
1000.16
986.921
424.71
321.748
378.086
1305.8
2252.85
3546.56
4001.67
4859.96
4944.16
5312.61
5294.62
4490.72
4886.45
4642.86
4780.74
4294.12
4141.88
3196.64
3126.53
2103.06
2071.49
1441.25
418.813
716.023
-529.57
-555.354
-1284.8
-1658.9
-2259.96
-2564.17
-3221.04
-2284.29
-2371.39
-2295.72
-2258.78
-2226.28
-2204.26
-2187.89
-2178.34
-2173.59
-2173.84
-2178.07
-2186.56
-2198.7
-2214.56
-2235.18
-2257.96
-2289.34
-2319.64
-2360.9
-2405.97
-2449.35
-2510.47
-2581.84
-2638.34
-2707.6
-2823.93
-2888.84
-2978.28
-3090.68
-3229.19
-3316.2
-3403.81
-3543.55
-3743.81
-3806.24
-3943.55
-3993.29
-4126.48
-4409.62
-4500.49
-4472.16
-4236.77
-3822.37
-3174.88
-3629.01
-2801.19
-75268.7
-76757.4
-11661.2
1857.08
3701.8
6409.8
7192.5
13062.6
29411.7
66570
137719
150540
69959.9
43551.4
34388.8
25148.6
17124.4
14012.6
13416.2
14224.7
14891.7
13916.2
12949.9
11616.8
12099.7
11904.1
11748
11312.4
10894.1
10378.5
10431.4
9824.67
10053.4
8692.65
9013.47
7446.95
6330.59
4319.21
3580.47
2483.42
2163.48
1670.96
1288.4
1200.49
1409.23
1727.03
2490.89
3376.21
3668.57
4109.56
4419.86
4438.85
4576.8
4623.76
4683.43
4418.3
4461.09
4139.92
3786.1
3394.14
3083.15
2246.29
2267.01
1226.67
1187.9
293.843
25.0194
-420.582
-1093.7
-1557.16
-2123.53
-2459.36
-2992.85
-2273.78
-2357.76
-2283.24
-2246.57
-2214.34
-2192.4
-2176.03
-2166.4
-2161.45
-2161.49
-2165.41
-2173.44
-2185.32
-2200.45
-2220.68
-2242.78
-2272.41
-2303.64
-2339.17
-2388.41
-2431.01
-2479.94
-2558.76
-2612.57
-2680.6
-2771.52
-2871.73
-2949.56
-3027.7
-3178.39
-3272.19
-3383.46
-3452.72
-3614.09
-3750.3
-3800.82
-3803.97
-3872.05
-3926.2
-3989.6
-4038
-3929.62
-4326.63
-4938.75
-9851.05
-17197.5
-126038
-29117.5
-7135.66
-1527.95
2756.53
6205.9
12830.5
26860.9
58490.7
127321
168039
88944.2
39810.1
31496.5
23618.6
19057.6
15788.2
12980.4
13666.9
12364.1
11791
11181.9
11215.2
12006.4
12375.1
12123.7
11046.2
10191.2
10153.3
10277.1
10376.1
9703.57
9892.66
9077.7
9020.1
8271.44
7180.73
6183.15
4703.83
3491.64
2735.42
2181.78
1917.64
1406.05
1277.28
2067.55
2647.7
3159.78
3327.97
3712.24
3940.22
3927.14
4121.76
4003.38
4412.03
4128.43
3930.06
3919.45
3546.66
3490.68
2860.37
2340.47
1855.92
1307.95
1057.38
404.322
150.905
-587.241
-814.12
-1457.44
-1882.96
-2246.49
-2788.61
-2249.53
-2331.31
-2258.7
-2222.96
-2191.53
-2170.14
-2154.18
-2144.75
-2139.92
-2139.88
-2143.71
-2151.38
-2162.95
-2177.48
-2196.95
-2218.83
-2245.69
-2278.78
-2310.52
-2357.46
-2403.41
-2448.08
-2511.22
-2588.26
-2644.47
-2710.17
-2833.41
-2900.06
-2986.56
-3082.97
-3245.82
-3327.85
-3410.98
-3521.79
-3702.59
-3857.31
-3923.42
-4122.42
-4173.38
-4301.13
-4463.98
-4634.52
-4899.53
-5790.44
-9613.07
-45589.4
-117734
-7163.41
2857.64
3656.23
3675.95
7745.48
19573.5
49441.7
120013
170968
105439
51182
28566.4
20144.9
15962.6
14551.9
11067.8
12902.2
12730.8
11933.9
11865.7
10802.4
11283.7
12058.4
11993.8
11152.1
10471.8
9630.29
9561.48
9759.66
9565
8697.68
9187.33
8127.41
8765.68
7675.58
8420.56
6695.14
6005.21
4275.92
3688.04
2594.12
2765.43
2097.21
2274.86
2221.67
2608.11
2884.69
2896.32
3122.71
3602.69
3453.77
3691.84
4055.34
3788.05
3775.49
3692.93
3610.93
3574.37
3268.39
2688.77
2286.95
1795.35
1566.23
1017.72
726.138
285.78
-315.527
-682.753
-1228.14
-1793.7
-2103.49
-2572.65
-2212.34
-2292.78
-2222.77
-2188.55
-2158.44
-2138.03
-2122.8
-2113.92
-2109.39
-2109.5
-2113.39
-2120.83
-2132.08
-2146.48
-2164.52
-2186.97
-2210.97
-2244.29
-2275.34
-2315.17
-2367.63
-2410.07
-2459.61
-2543.16
-2597.46
-2664.92
-2751.75
-2861.44
-2937.59
-3008.5
-3142.04
-3266.84
-3366.15
-3404.68
-3510.05
-3728.42
-3690.96
-3694.49
-3606.52
-3572.12
-3454.55
-3333.08
-3374.68
-6069.53
-20007.3
-109130
-51284.1
-3202.28
3054.94
5225.52
6965.45
17737.1
41871.6
108850
184899
98214
56530.6
34247.2
25216.5
15793.5
13424.9
12310.5
9497.26
12110.3
12101.9
11236.1
11899.1
10261.4
11281.2
11557.9
11356.9
10887.8
9945.9
9690.03
9341.23
9196.49
8696.83
8171.38
8592.03
7550.53
8052.8
7163.27
7609.32
6882.15
6262.63
5354.35
4390.23
3338.08
2940.88
2208.7
2364.97
2045.18
2402.49
2501.55
2666.68
2761.26
2971.99
3111.07
3272.66
3521.57
3501.64
3306.93
3424.96
3273.53
3399.68
3016.96
2582.31
2165.12
1876.37
1558.96
1063.59
813.466
263.336
-109.574
-742.046
-1081.37
-1640.92
-1842.34
-2370.08
-2163.09
-2242.96
-2176.18
-2144.03
-2115.69
-2096.63
-2082.5
-2074.39
-2070.43
-2070.89
-2074.88
-2082.36
-2093.09
-2107.55
-2124.12
-2146.71
-2169.42
-2200.27
-2233.94
-2266.51
-2316.82
-2364.46
-2409.85
-2471.95
-2554.42
-2610.42
-2671.21
-2793.32
-2869.11
-2953.72
-3028.22
-3201.25
-3291.04
-3379.16
-3456
-3578.7
-3874.33
-4076.82
-4256.11
-4508.34
-4814.27
-5110.76
-6632.36
-10860.8
-49019.4
-140924
-3886.59
5393.43
6373.29
7234.15
17306.7
39616.4
96876.9
192060
98211.6
60810.3
27823.8
19518.7
19866
15090.3
9799.22
13052.1
10020
12545.2
12193.5
10676.1
11265.6
10912.7
11779.5
11178.7
10932.7
9881.54
9623.24
9673.72
9245.47
8564.18
7450.4
7096.47
7470.31
6654.3
7322.35
6572.24
6764.66
6102.93
6572.86
5658.28
5240.54
3826.95
3638.33
2831.89
2812.85
2212.81
2334.1
2096.76
2575.98
2351.74
2585.25
2622.2
3103.13
2965.6
2990.75
2902.87
3084.47
3098.58
3088
2774.78
2452.16
2159.32
2031.63
1648.5
1299.75
971.14
477.551
77.4382
-513.355
-820.812
-1487.5
-1676.53
-1970.57
-2102.73
-2182.71
-2119.72
-2090.1
-2063.93
-2046.59
-2033.8
-2026.73
-2023.56
-2024.45
-2028.77
-2036.29
-2046.8
-2060.9
-2077.22
-2097.93
-2121.54
-2147.53
-2183.45
-2214.24
-2255.17
-2312.32
-2353.26
-2401.39
-2487.71
-2544.42
-2610.39
-2685.41
-2811.21
-2884.17
-2949.93
-3048.96
-3211.31
-3301.56
-3320.02
-3332.14
-3495.62
-3472.8
-3413.94
-3123.69
-3032.82
-3156.91
-5150.78
-19786.7
-120120
-64465
-5829.17
5050.37
8370.61
17178.1
36716.4
90682.8
186141
114820
56821.6
37482.6
20065.5
15988
16896.7
12612.2
9191.2
10536.2
10990.8
13262.9
12078.3
11125.1
10868.9
10403.9
11324.5
10473.7
9994.25
9149.71
9262.03
9011.5
8391.98
7642.69
6856.15
6590.79
6656.51
5891.71
6513.25
5688.53
6138.84
5149.86
5834.4
5181.27
5586.07
4221.77
3815.82
3066.26
2865.86
2323.37
2252.47
1964.67
2349.16
2065.1
2248.67
2278.61
2601.76
2500.29
2498.88
2630.01
2786.2
2660.04
2820.15
2606.78
2321.9
2230.13
2054.69
1621.68
1331.17
939.085
480.507
45.0866
-558.947
-825.005
-1373.68
-1372.98
-1636.42
-2032.26
-2112.93
-2054.18
-2027.51
-2003.86
-1988.51
-1977.35
-1971.54
-1969.26
-1970.86
-1975.46
-1983.16
-1993.53
-2007.13
-2023.31
-2042.19
-2066.41
-2089.72
-2123.53
-2157.41
-2189.66
-2242.24
-2290.9
-2335.94
-2394.83
-2482.04
-2538.98
-2592.51
-2709.89
-2795.63
-2885.93
-2940.57
-3092.48
-3216.87
-3282.34
-3419.75
-3537.96
-3839.89
-4149.38
-4624.85
-4934
-6433.51
-11034
-48451.1
-166487
-7508.92
5298.51
8644.11
17617.3
35229.6
84721.2
175083
135381
68600.6
38181.8
24246
13802.3
14944.6
13847.1
11918
10857.7
10089.9
10992.2
13044.8
11534.5
10581.3
9971.91
9748.12
10458.3
9755.77
9139.01
8342.75
8409.26
8203.65
7891.6
7099.5
6541.44
6149.1
5706.3
5300.58
5587.21
4727.75
5295.86
4390.84
5052.12
4388.57
5100.29
4380.79
3781.7
2973.03
2866.9
2325.09
2230.13
2017.96
2051.59
1703.56
1881.83
1826.87
2046.63
1924.96
2220.07
2264.13
2519.01
2255.86
2483.9
2366.04
2262.37
2207.12
2022.11
1630.8
1418.81
1103.06
663.569
253.788
-267.489
-503.574
-1133.85
-1026.57
-1592.43
-1952.7
-2034.56
-1980.41
-1957.02
-1936.16
-1923.06
-1913.74
-1909.31
-1908.19
-1910.48
-1915.55
-1923.55
-1933.77
-1946.99
-1962.83
-1980.74
-2003.4
-2027.34
-2054.91
-2092.05
-2123.1
-2162.66
-2223.12
-2263.24
-2309.27
-2392.47
-2456.2
-2520.62
-2581.08
-2715.66
-2794.37
-2852.47
-2909.82
-3053.6
-3119.69
-3115.92
-3048.02
-3042.64
-2871.56
-2717.68
-2792.12
-4962
-18106.6
-115074
-67636.8
-4418.88
6059.74
14432.7
30134.6
76964.2
168329
124610
77855.8
38455.2
25409.9
16409.2
12078.2
14253.2
12160.4
12656.1
11638.3
9544.1
9892.2
11040.5
10487.5
9817.57
9657.84
9797.66
10033.3
9383.58
9010.54
8028.72
8101.9
8051.06
7284.74
6986.48
6373.64
5881.03
4908.69
4470.25
4485.81
3706.99
4298.76
3559.33
4094.58
3447.75
4052.26
3724.13
3904.43
3072.55
3205.6
2441.35
2368.38
1933.87
1796.73
1377.62
1591.99
1503.07
1700.86
1555.97
1909.07
1828.03
2078.98
1881.79
2235.91
2219.22
2222.19
2105.93
1882.71
1635.77
1362.68
1026.07
525.591
137.383
-350.377
-479.013
-1002.28
-838.004
-1181.11
-1865.14
-1948.55
-1899.29
-1879.42
-1861.59
-1850.93
-1843.59
-1840.78
-1840.79
-1843.99
-1849.62
-1857.76
-1868.14
-1880.83
-1896.22
-1913.67
-1933.79
-1958.93
-1982.41
-2017.48
-2052.15
-2082.72
-2134.77
-2186.07
-2230.36
-2279.57
-2377.67
-2430.55
-2484.44
-2575.11
-2699.89
-2776.24
-2817.48
-2901.64
-3119.25
-3271.43
-3488.8
-3696.78
-4172.19
-4724.11
-6151.81
-12134.8
-42846.8
-144689
-12724.2
7675.13
15712.2
30746.9
72760
163413
135418
74812.6
33226
21730.5
16960
11091.2
8764.22
11643.5
11191.8
12786.6
11026.8
8933.96
9891.47
10865.6
10717.1
9852.8
9331.15
9205.89
9425.57
8893.02
8553.84
7983.31
7837.86
7648.76
6440.31
6109.8
5591.04
5912.96
4485.24
3996.61
3837.56
3152.08
3579.98
2954.88
3387.58
2751.53
3406.97
3117.83
3379.97
3037.72
3141.25
2255.12
2192.71
1671.02
1473.15
1205.56
1337.73
1107.96
1312.31
1258.8
1578.42
1429.61
1664.68
1651.43
2045.88
2057.09
1896.03
1884.23
1626.37
1548.2
1330.71
1019.74
678.506
374.069
5.24245
-171.683
-736.958
-554.107
-1110.57
-1770.62
-1855.85
-1811.67
-1795.52
-1780.87
-1772.78
-1767.6
-1766.4
-1767.73
-1771.91
-1778.02
-1786.62
-1796.93
-1809.34