/*--------------------------------*- C++ -*----------------------------------*\
| =========                 |                                                 |
| \\      /  F ield         | OpenFOAM: The Open Source CFD Toolbox           |
|  \\    /   O peration     | Version:  2.2.x                                 |
|   \\  /    A nd           | Web:      www.OpenFOAM.org                      |
|    \\/     M anipulation  |                                                 |
\*---------------------------------------------------------------------------*/
FoamFile
{
    version     2.0;
    format      ascii;
    class       volScalarField;
    location    "0.85";
    object      pB;
}
// * * * * * * * * * * * * * * * * * * * * * * * * * * * * * * * * * * * * * //

dimensions      [1 1 -3 0 0 -1 0];

internalField   nonuniform List<scalar> 
14161
(
-0.000183011
1.11608e-05
-3.44831e-05
-4.33775e-05
-6.19203e-05
-7.95003e-05
-0.000101978
-0.000126532
-0.000155657
-0.000188097
-0.000225501
-0.000266005
-0.000312651
-0.000359749
-0.00041453
-0.000467356
-0.000523848
-0.000585906
-0.000631503
-0.000697941
-0.000747948
-0.000778926
-0.000838704
-0.000879915
-0.00086588
-0.000919039
-0.000901526
-0.000882358
-0.000848666
-0.000805451
-0.000734687
-0.000669756
-0.000569922
-0.000462244
-0.000347125
-0.000218313
-9.32255e-05
3.21478e-05
0.000261427
0.000459056
0.00078241
0.00108375
0.00154281
0.00181444
0.00179433
0.00136912
0.000288507
-0.000256147
-0.0105726
0.0574146
0.0330266
-0.00118837
0.0057749
-0.000755966
0.0028616
-0.00119174
0.00344913
0.00121733
0.00075964
0.00160234
0.000114006
0.0016339
-0.000329798
2.87655e-05
5.53737e-06
-0.001756
-0.000115793
-0.000435991
-0.00125368
-0.000674557
-0.000980468
-0.000415947
-0.000176517
-0.000758724
3.58196e-05
-0.000230992
-0.00190638
0.000774132
0.000114262
0.00737916
-0.00197192
0.00243732
0.000849827
-0.00226079
-0.000838991
-0.0015811
-0.00154356
-0.000818722
-0.000967938
0.000179796
-0.000400985
0.000491228
-0.000297639
-4.82362e-05
-0.000285061
-0.000202242
-0.000366505
-0.000132107
-0.00039018
-0.000131946
-0.000414429
-0.000126068
-0.000412398
-0.0001276
-0.000427413
-0.000180284
-0.000470077
-0.000204053
-0.000473344
-9.02928e-05
-0.000388041
0.00026848
-0.00199684
0.00184969
-0.00490953
0.00467312
-0.00863763
0.00854757
-0.0107538
-0.00018329
1.12907e-05
-3.45698e-05
-4.34405e-05
-6.20174e-05
-7.95941e-05
-0.000102098
-0.000126661
-0.000155804
-0.000188301
-0.000225626
-0.000266385
-0.000312685
-0.00036038
-0.000414627
-0.000468205
-0.000524419
-0.000585361
-0.000633428
-0.000697127
-0.000752234
-0.000777207
-0.00084025
-0.000871725
-0.000869222
-0.000918038
-0.000900935
-0.00088634
-0.000847377
-0.000810095
-0.000737668
-0.000672791
-0.000576966
-0.000474183
-0.000357383
-0.000223003
-0.000115565
-6.43552e-06
0.000197815
0.000380044
0.000676827
0.000854259
0.00125239
0.00145411
0.00241504
0.00333856
0.00534116
0.00523793
0.00680775
0.0352181
0.0420684
0.00282405
0.00351992
-0.00416441
0.00238961
-0.00205213
0.00196937
0.002088
0.00190164
0.000117388
0.000956329
-0.000183958
0.000192655
-0.000186217
-0.00109845
0.000542623
-0.000654752
-0.000626867
2.04262e-05
-0.000484295
-0.000534271
-0.000297645
-0.000411883
0.000161289
7.99806e-05
0.00103797
-0.00110133
0.00186481
-0.00430085
0.00378594
-0.00215809
0.00063196
0.00218994
-0.00229185
0.00185655
-0.000464721
0.000678068
0.000919306
0.000191681
0.000290277
-0.000244305
-0.00012482
-0.000156038
-5.86649e-05
-0.000370708
-0.000301193
-0.000477014
-0.000151919
-0.000488493
-0.000215614
-0.000420635
-0.000197618
-0.000398192
-0.000152134
-0.000401881
-8.76326e-05
-0.000317148
3.56301e-05
-0.000269321
-6.29359e-05
-0.000514743
0.000157832
-0.00209953
0.0016757
-0.00483621
0.00453374
-0.00848886
0.00839171
-0.0105573
-0.000183228
1.12488e-05
-3.45906e-05
-4.34614e-05
-6.20353e-05
-7.96178e-05
-0.000102116
-0.000126705
-0.000155815
-0.000188388
-0.00022561
-0.000266542
-0.000312608
-0.000360596
-0.000414608
-0.000468324
-0.000524604
-0.000584414
-0.000636233
-0.000694291
-0.000749769
-0.000783212
-0.000842015
-0.000861701
-0.000893076
-0.000907051
-0.000908094
-0.000884031
-0.000851361
-0.000806532
-0.000749312
-0.000679307
-0.000582981
-0.000477413
-0.000358814
-0.000226126
-0.000102112
-2.19966e-06
0.00019809
0.000423418
0.000806539
0.00117776
0.00151893
0.00199864
0.00217082
0.00136693
-0.000362761
0.00220566
0.0142889
0.0150405
0.0352762
-0.0139376
0.00942899
-0.00107335
0.0046201
-0.00167851
-0.00261193
-0.00215778
-0.00195748
-0.00308097
-0.00134492
-0.00244746
-0.00189449
-0.000882397
-0.00231619
-0.000603293
-0.000834865
-0.00105522
0.000342993
7.41271e-05
-0.000216398
0.000301873
0.000946347
2.38886e-05
-0.000270849
0.000171159
-0.0023889
0.00213466
-0.00444006
0.0038622
-0.00283013
-0.00115974
0.000444298
-0.00134194
0.00483333
-0.00125304
-8.81635e-05
-0.00123267
-0.00111657
-0.000345741
-0.000479396
-2.31038e-05
-0.000390546
1.80654e-05
-0.000143827
-0.000205826
-0.000346218
-0.000158872
-0.000381019
-0.000136005
-0.000406725
-7.84244e-05
-0.000408781
-7.81696e-05
-0.000491528
-0.000161272
-0.000574053
-0.000216384
-0.000606585
-0.00015304
-0.000602265
0.000271372
-0.00179587
0.00171663
-0.0046307
0.00468561
-0.0081649
0.00810901
-0.0101952
-0.000183354
1.12117e-05
-3.46743e-05
-4.35511e-05
-6.21542e-05
-7.97371e-05
-0.000102277
-0.000126879
-0.000156033
-0.000188704
-0.000225795
-0.000267307
-0.000312476
-0.000362268
-0.000414266
-0.000470478
-0.000525385
-0.000584731
-0.000641481
-0.00069368
-0.000750719
-0.000795914
-0.000830568
-0.000874156
-0.000900484
-0.000905159
-0.000920805
-0.000893921
-0.000860445
-0.00081163
-0.000757572
-0.000675221
-0.000594315
-0.000498434
-0.000400793
-0.000300569
-0.000206779
-0.000119649
-2.15777e-05
0.000129817
0.00024332
0.000310085
0.000336295
0.000605803
0.00118383
0.00376037
0.00898963
0.0100684
0.0338467
0.0183522
0.0524217
0.00471613
0.00962685
0.00778256
0.002607
0.000574503
-0.00114345
-0.000129834
4.17461e-05
-0.000598451
0.000171273
0.000222429
2.63169e-05
-0.000885733
0.000375284
-0.000861538
-8.01166e-05
-0.000459941
-0.000696214
-0.000512935
-0.000311358
-0.000264603
0.000374177
0.00102031
0.000554397
0.00250237
-0.000944811
0.0045927
0.000234082
0.000405513
0.00437605
-0.00368151
0.00207716
-0.00492328
0.00535809
-0.00545808
0.00426609
0.00290742
0.00326024
0.00135191
0.000863921
5.63652e-05
-4.01786e-05
-0.000476998
-0.000159304
-0.00046763
-0.000462526
-0.000268825
-0.000488529
-0.000192381
-0.000455509
-0.000160213
-0.000441396
-7.41415e-05
-0.000377902
-4.1511e-05
-0.000422183
1.56389e-05
-0.000417237
0.00010696
-0.000667211
0.000302381
-0.00194337
0.00165814
-0.00452153
0.0043386
-0.007997
0.00765706
-0.0105018
-0.000183255
1.11184e-05
-3.47083e-05
-4.35921e-05
-6.21921e-05
-7.97875e-05
-0.000102325
-0.000126964
-0.000156097
-0.000188842
-0.000225893
-0.000267537
-0.000312585
-0.000362564
-0.000414402
-0.000470505
-0.000526388
-0.000583717
-0.000644062
-0.000693531
-0.000749663
-0.000803304
-0.000827828
-0.000879281
-0.000920855
-0.000882379
-0.000927203
-0.000896247
-0.000871321
-0.000809945
-0.000779035
-0.00070026
-0.000629439
-0.000528158
-0.000420257
-0.000319032
-0.00017851
-5.56054e-05
6.68982e-05
0.000222118
0.000371434
0.00052175
0.000481565
0.000370887
-0.000267241
-0.000470147
-0.00380988
-3.33739e-05
-0.0274817
0.0770385
0.048282
-0.0246223
-0.00245743
-0.00392655
0.00295425
0.00117984
0.00247194
0.000548811
-0.00045547
-0.00185654
0.000252059
-0.00144216
-0.000571142
-0.00105446
-0.00120309
-0.000798346
-0.000966246
-0.000237821
-6.71041e-05
-0.000879982
0.00115738
-0.000789621
0.0020786
-0.00199762
-4.08049e-06
0.000713934
-0.00146208
0.000154044
0.00163953
0.00154534
0.000685897
-0.0022357
0.00478915
-0.00572071
0.00721954
-0.00579004
0.00175198
-0.00497436
-0.00165519
-0.00192009
-0.0014862
-0.00105843
-0.000555627
-0.000500413
-0.000265556
-0.000380035
-0.000243346
-0.000275212
-0.000395886
-0.00012644
-0.00040929
-2.91982e-05
-0.000499776
-2.11299e-05
-0.000561965
-9.92662e-05
-0.000598932
-5.93692e-05
-0.000684971
2.36653e-05
-0.00084472
0.000223826
-0.00163428
0.00118815
-0.00412838
0.00435047
-0.00702451
0.00705605
-0.00881535
-0.000183305
1.10335e-05
-3.47982e-05
-4.37053e-05
-6.23289e-05
-7.99411e-05
-0.000102522
-0.000127198
-0.000156394
-0.000189235
-0.000226303
-0.000268318
-0.000312949
-0.000364219
-0.000414813
-0.000472514
-0.000528989
-0.000584667
-0.000650821
-0.00069111
-0.000753898
-0.000813683
-0.000828502
-0.000878378
-0.000924739
-0.000896891
-0.000938857
-0.000909901
-0.000885688
-0.000819939
-0.000787651
-0.000698399
-0.000626856
-0.000546846
-0.000469961
-0.000392162
-0.000354252
-0.00031883
-0.000307166
-0.000364978
-0.000463544
-0.000651946
-0.000949328
-0.0011902
-0.00127195
-0.00261
-0.00526953
-0.00133628
-0.028999
0.126189
0.000180115
-0.00440921
-0.00650357
-0.002439
-0.00252523
-0.00323551
-0.00175436
-0.00197647
-0.00199099
-0.00290535
0.000366383
-0.00261736
-0.000991054
-0.00100945
-0.00167514
-0.000490439
-0.00170821
-0.000450029
-0.00230027
-0.000975723
-0.00284746
-0.00105818
-0.00242561
-0.000819949
0.000581454
-0.00275889
0.00261297
-0.00395145
-0.000360397
0.000917399
-2.90172e-05
-0.00353459
0.00375008
-0.00514557
0.00610466
-0.00432315
0.00472941
-0.00124272
0.00134124
0.00106516
0.00283157
0.00137943
0.000704501
-0.000121871
-0.000390923
-0.000405855
-0.000875633
-0.000280082
-0.00071924
-0.000190147
-0.000505593
-0.000135135
-0.000452784
-0.000120058
-0.000443575
2.20355e-05
-0.000540336
0.000113747
-0.000649837
0.000298881
-0.000839423
0.000415288
-0.00162809
0.00122553
-0.00359158
0.00334437
-0.00638847
0.00642972
-0.00909033
-0.000183208
1.09159e-05
-3.4849e-05
-4.37663e-05
-6.23928e-05
-8.00194e-05
-0.000102614
-0.000127321
-0.000156546
-0.000189427
-0.000226534
-0.000268661
-0.000313308
-0.000364749
-0.00041566
-0.000473135
-0.000530673
-0.000584893
-0.000651844
-0.000698004
-0.000752516
-0.000818631
-0.000832987
-0.000890628
-0.000936928
-0.00090361
-0.000937371
-0.000924113
-0.000897541
-0.000852738
-0.000809639
-0.00075106
-0.000691081
-0.000614662
-0.000527022
-0.000430908
-0.000326191
-0.000199176
-9.89817e-05
-7.60196e-06
4.76219e-05
3.25958e-05
-0.000166599
-0.000363987
-0.000984919
-0.00160048
-0.0066088
0.00126008
-0.0278633
0.109635
0.0846043
-0.0377929
-0.00516665
-0.00956575
-0.000927719
-0.00645519
-0.00179674
-0.0034535
-0.00220538
-0.00296689
-0.00215746
-0.00108599
-0.00206706
-0.0012736
-0.00174844
-0.000751948
-0.00127614
-0.000490938
-0.000349899
0.000240497
0.000287841
0.000990955
0.000903712
0.000522595
0.00190647
-0.000584509
0.00178393
0.00209249
-0.00127409
0.00282175
-0.00183851
-0.00132952
3.67458e-05
-0.00556051
0.00163475
-0.00530546
0.000834919
-0.00413214
-0.00126705
-0.00120086
-0.0025884
7.54145e-05
-0.00052738
-0.00046212
-6.44125e-05
1.79347e-05
-0.000171996
8.53807e-05
-0.000560096
-1.95957e-05
-0.000335994
3.26879e-05
-0.000255641
0.000146592
-0.00055336
4.6387e-07
-0.000787172
8.81345e-05
-0.000895569
0.000256109
-0.00102923
0.000461479
-0.0014118
0.000626012
-0.00356996
0.00327919
-0.00596378
0.00546802
-0.00811174
-0.000183227
1.08109e-05
-3.49492e-05
-4.38989e-05
-6.25454e-05
-8.02119e-05
-0.000102838
-0.000127628
-0.000156927
-0.000189868
-0.0002273
-0.000269213
-0.000314731
-0.000365479
-0.000418053
-0.000474263
-0.00053435
-0.000587545
-0.000654855
-0.000703458
-0.000756364
-0.00082033
-0.000856281
-0.000881937
-0.000939781
-0.0009423
-0.000934277
-0.000951421
-0.000910717
-0.000871112
-0.000818222
-0.000759527
-0.000692808
-0.000632
-0.000572683
-0.000531341
-0.000518124
-0.00051696
-0.000536405
-0.000602055
-0.000687113
-0.000845871
-0.000975108
-0.000938699
-0.000683178
0.000751531
0.00171866
0.0100558
0.00105541
0.0739178
0.0784054
-0.0323097
-0.00127314
-0.00237542
-0.00103157
-0.00624573
-6.75354e-05
-0.00460866
-0.00597848
-0.000149832
-0.00478547
-0.000357751
-0.002345
-0.000504036
-0.000810907
8.50066e-05
-0.000487462
-0.000333062
-0.000367791
-0.000834222
-0.000675212
-0.00139149
-0.000768989
-0.00273705
-0.000176667
-0.0020302
-0.00405916
0.00279996
-0.00652081
0.000873381
-0.00305956
-0.000832047
-0.000131906
-0.00154834
0.00139994
-0.00334821
0.00309624
-0.0039112
0.00171509
0.000231584
0.00320509
0.00452929
0.00172632
0.00151419
-0.000461678
-0.000223094
-0.000815957
-0.000597013
-0.000702595
-0.000475534
-0.000658422
-0.000602298
-0.000672138
-0.000318449
-0.000598131
0.000168366
-0.000491503
0.000420995
-0.00071102
0.000483252
-0.00102267
0.000614173
-0.00125078
0.000879098
-0.00227374
0.0021065
-0.0043264
0.0042504
-0.00619709
-0.00018316
1.06937e-05
-3.50158e-05
-4.39819e-05
-6.26383e-05
-8.03207e-05
-0.000102988
-0.000127793
-0.000157196
-0.000190126
-0.000227765
-0.000269652
-0.000315473
-0.000366302
-0.0004191
-0.000475379
-0.000535862
-0.000589656
-0.000656177
-0.000714799
-0.000757191
-0.000820033
-0.00087628
-0.000887659
-0.000943958
-0.000971596
-0.000929611
-0.000975321
-0.000935979
-0.000907052
-0.000864994
-0.000835558
-0.000783552
-0.000721374
-0.00065221
-0.000565531
-0.000457283
-0.000333461
-0.000200359
-7.97836e-05
8.56711e-05
0.000264938
0.000541382
0.000865054
0.000986118
0.00211841
0.000422497
0.00724324
-0.00644652
0.0720193
0.0836967
-0.0372739
-0.00327839
-0.00379257
-0.000596061
-0.00497344
0.00346961
-0.00572629
0.00104331
-0.00319283
-0.00162889
0.0006827
-0.000996887
-0.000371407
-0.000676176
0.000520193
-0.000624409
-0.000237112
0.000141471
0.000420075
0.00165998
0.000909094
0.00312152
0.00316619
0.00650129
0.00778008
-0.00152225
0.00927155
-0.00380807
-0.000425402
-0.00293699
-0.00241814
-0.00253885
-0.00286422
-0.000393076
-0.00448731
-0.00104419
-0.00514894
-0.00183249
-0.00467015
-0.000739671
-0.000795993
0.000277572
-0.00169963
-0.000790744
-0.000641615
-0.000894198
-0.000611749
-0.000654824
-0.000135357
0.000232987
0.000553209
0.000352385
0.000604157
-0.00025879
-5.52581e-05
-0.000862852
-0.000146963
-0.00125073
0.000333402
-0.0011995
0.000857932
-0.00151226
0.00067727
-0.0024164
0.00169137
-0.0042269
0.00378646
-0.00602674
-0.000183177
1.05864e-05
-3.51269e-05
-4.41292e-05
-6.28089e-05
-8.05482e-05
-0.000103249
-0.000128171
-0.000157655
-0.000190681
-0.000228761
-0.00027025
-0.000317617
-0.000366843
-0.000422873
-0.000477112
-0.000539829
-0.00059659
-0.00065567
-0.000724148
-0.000763171
-0.000829092
-0.000882023
-0.000899959
-0.000947062
-0.000996393
-0.000955285
-0.000988034
-0.000973894
-0.000938476
-0.000884007
-0.000850399
-0.000804981
-0.000761401
-0.000719458
-0.000699132
-0.000702896
-0.000717422
-0.000778522
-0.000832138
-0.00100045
-0.00116205
-0.00148821
-0.00183338
-0.00242238
-0.00219347
-0.004986
0.00132275
-0.0281914
0.115809
0.0991726
-0.0359866
0.0165933
-0.00658341
-0.00149628
-0.00807232
0.00292497
-0.00710698
-0.000129933
-0.0035539
-0.000408544
-0.00299766
-0.00113194
-0.00136075
-0.000860961
-0.00142279
-0.00106751
-0.000250183
-0.000886129
-0.00116226
-0.000881432
-0.00106132
-0.000999784
-0.001673
-0.00148437
0.00774412
-0.0102456
0.00745477
-0.0053677
-0.000837994
-0.00350607
-0.00322668
-0.00083799
-0.00296465
-0.000851055
-0.00508235
0.00133045
-0.00367179
0.00204621
-0.00013606
0.00167443
0.00251214
0.00135657
0.00359204
0.0003282
0.000718443
0.000528883
0.000328122
0.000530768
0.000411606
-0.000482613
-0.000462873
-0.000749691
-0.00023543
-0.000538929
0.000662155
-9.27307e-05
0.00121519
-0.000464973
0.000899635
-0.000989167
0.000628301
-0.00103274
0.000600974
-0.00179268
0.000917394
-0.0027212
0.00203744
-0.00391606
-0.000183149
1.04824e-05
-3.52079e-05
-4.42345e-05
-6.29323e-05
-8.06962e-05
-0.000103454
-0.000128415
-0.000158016
-0.000191099
-0.000229365
-0.000270974
-0.00031846
-0.000368365
-0.000423892
-0.000479834
-0.000541242
-0.000601852
-0.000658588
-0.000730782
-0.000777132
-0.000826863
-0.000899206
-0.000932566
-0.000943573
-0.00101749
-0.00100969
-0.000989268
-0.00101222
-0.000993633
-0.000948275
-0.000925889
-0.000904231
-0.000869748
-0.000813576
-0.00074376
-0.000657559
-0.000573044
-0.000453997
-0.000343092
-0.000232043
-0.00019317
-9.82963e-05
-0.000184193
-0.000635018
-0.000254614
-0.00258268
0.00416045
-0.0197241
0.112229
0.0663657
-0.0298452
-0.00594849
-0.00172718
-0.00464023
-0.00756938
0.00117856
-0.00610577
-0.000950917
-0.00137503
-0.00615602
0.00429015
-0.00479286
-0.00174727
-0.00125221
-0.000310868
-0.000931806
-0.000635805
-3.0451e-06
-7.90685e-05
0.000664867
-0.000123497
0.00108794
0.00162438
0.0033485
0.00272661
-0.00508761
0.000702512
-0.00323557
-0.00165276
-0.00246308
-0.00513746
-0.000448396
-0.00221333
-0.00160962
-0.00757766
0.00124938
-0.0051139
0.00240863
0.00155259
0.0054531
0.00398898
0.00295651
0.00452217
0.0022715
0.00103287
-8.11448e-05
0.000197638
-0.000105768
-7.35713e-05
4.73571e-05
0.000305068
9.12648e-05
9.3901e-05
-0.000250476
-5.13977e-05
-0.000915591
0.00047964
-0.00117588
0.00098158
-0.00145791
0.0005716
-0.000944873
0.000231297
-0.000555179
4.46392e-05
-0.00170603
0.00141603
-0.00290331
-0.000183185
1.03824e-05
-3.53286e-05
-4.43958e-05
-6.31252e-05
-8.0947e-05
-0.000103776
-0.000128843
-0.000158567
-0.000191844
-0.000230343
-0.000272169
-0.000320334
-0.000370134
-0.000426902
-0.000483423
-0.000544475
-0.000610297
-0.000662575
-0.000735131
-0.000795435
-0.000832467
-0.000908246
-0.000956067
-0.000954497
-0.00103411
-0.00104622
-0.00101363
-0.00103886
-0.00103093
-0.00100321
-0.000964247
-0.000939357
-0.000928497
-0.000926532
-0.000907752
-0.000931865
-0.000997588
-0.00105614
-0.00112304
-0.00118783
-0.00124967
-0.00134305
-0.00116391
-0.000980762
-0.000206048
-0.000672542
0.00374537
-0.00336256
0.0723366
0.058071
-0.00654525
0.000686985
-0.00221204
-0.00901482
-0.00595574
-0.00232273
-0.0092653
0.00786013
-0.00748003
0.00061552
-0.00319263
0.000446457
-0.000743292
-0.00233654
0.000620476
-0.00043124
-0.000128871
-0.000468716
0.000452049
0.00112333
-0.000205411
0.000152672
0.000651623
-0.000953578
0.00724625
-0.00499593
-0.00160058
0.000520159
0.00255428
-0.00299758
-0.00366173
0.00191408
-0.00348432
0.000732197
-0.00294101
0.00655062
0.00308011
0.00695752
0.00946137
0.00373195
0.00378957
0.00131535
0.00220738
0.000415102
0.00126236
0.000614877
0.000490039
0.000792656
0.000204884
-0.000273783
-0.000219088
-0.000356293
0.000154648
-0.0001386
9.49831e-05
-0.000240516
0.00064214
-0.000374466
0.000932497
-0.00104627
0.00129474
-0.00146607
0.00105909
-0.00171819
0.000775673
-0.0014852
0.000624177
-0.002311
-0.000183201
1.02974e-05
-3.54227e-05
-4.45233e-05
-6.32804e-05
-8.11407e-05
-0.000104038
-0.000129189
-0.000159007
-0.000192473
-0.000231065
-0.00027329
-0.000321485
-0.000372255
-0.000428522
-0.000487719
-0.00054673
-0.000615262
-0.000670277
-0.00073869
-0.000807218
-0.000844554
-0.000915912
-0.000980821
-0.000990751
-0.00103204
-0.00108962
-0.00108153
-0.00104549
-0.00110752
-0.00110504
-0.0010419
-0.00102909
-0.00104411
-0.00101831
-0.000975988
-0.000902471
-0.000773864
-0.000644734
-0.000503942
-0.000351374
-0.000129788
4.69477e-05
0.000363941
0.000464599
0.00036953
0.0011699
0.00148916
0.01027
0.0574676
0.039843
0.00910877
0.00695745
0.0150539
-0.00459665
0.000511435
-0.00571123
-0.00964064
0.0039712
-0.0067804
0.000678681
-0.00220332
-0.000580879
-0.000810355
-0.00142853
-0.000295258
-0.00019497
0.00031562
0.000318734
-0.000420374
0.00247306
0.00112903
0.00245304
0.00523345
0.00657792
0.0069038
0.00235194
0.00139601
0.00720503
0.00341947
0.00608156
0.00342791
0.00765134
0.00601785
0.00681741
0.00890016
0.0073056
0.00542632
0.00212134
0.00721974
0.000825668
0.00347751
0.00249157
0.00214298
0.0015168
0.000505258
0.000325205
-0.000498569
-0.000998029
-0.000187696
-9.33182e-05
0.000306436
-5.7184e-05
0.000216641
-0.000547905
0.000495904
-0.000542577
0.000305859
-0.000324498
-1.61606e-05
-0.000216629
-0.000258371
-0.000283973
-0.000317708
-0.000352317
-0.000262229
-0.000566099
0.000104376
-0.00107502
-0.000183273
1.02115e-05
-3.55478e-05
-4.46954e-05
-6.35003e-05
-8.14161e-05
-0.000104427
-0.000129663
-0.000159672
-0.000193411
-0.000232023
-0.000275276
-0.000322769
-0.000375892
-0.00043057
-0.000493323
-0.000550877
-0.000621118
-0.000683449
-0.000740925
-0.000824337
-0.000871937
-0.000918005
-0.000996771
-0.00104122
-0.00104038
-0.00112045
-0.00114729
-0.00110576
-0.00113275
-0.00115983
-0.00114048
-0.0010973
-0.00110912
-0.00115245
-0.00121645
-0.00120377
-0.00125258
-0.00138342
-0.00146935
-0.00154243
-0.00162943
-0.0017272
-0.00194391
-0.00207205
-0.00243881
-2.75186e-05
-0.0110745
0.0526712
0.0331186
0.0295448
-0.00101067
0.00831706
0.00661176
0.00358048
0.00325301
-0.00695711
-0.00119314
-0.0018872
-0.000821061
-0.00308767
-0.000950235
-0.00156997
-0.000462751
0.00103686
-0.00162105
0.000532661
-2.99711e-06
0.0019639
0.00247612
0.00774615
-0.000969334
0.00707526
0.0062638
0.000280614
0.00196229
-0.0038254
0.00179643
-0.00047638
0.00410115
0.00386355
0.00663648
0.00452317
0.00436564
0.00672345
0.00644116
0.00482319
0.00513885
0.00285442
0.00165421
0.000997978
0.000959731
-0.00034615
0.00066726
-0.000655365
0.00061972
6.35184e-05
0.000756602
0.000460454
0.00050383
0.000245832
0.000442894
0.000132219
0.0002465
-0.000104166
0.000172531
-0.000364252
0.000634241
-0.00107697
0.00163663
-0.00141288
0.000955322
-0.000715693
0.00016988
-5.58575e-05
-0.000112471
-0.000141747
-7.05673e-05
-0.000674234
-0.000183339
1.0143e-05
-3.56561e-05
-4.48447e-05
-6.36873e-05
-8.16557e-05
-0.000104752
-0.000130115
-0.000160216
-0.000194273
-0.000232947
-0.000276714
-0.000324466
-0.000378182
-0.000433562
-0.00049677
-0.000556513
-0.000625211
-0.000694744
-0.000750277
-0.000829992
-0.000897998
-0.000925791
-0.00101634
-0.00107733
-0.00107288
-0.00114165
-0.00118974
-0.00120559
-0.00114854
-0.00124158
-0.00126513
-0.00122608
-0.00117683
-0.00125703
-0.00122233
-0.0011686
-0.00105064
-0.000902688
-0.000701957
-0.000568194
-0.00038729
-0.000109453
6.72402e-05
0.000560931
-0.000280515
0.00492435
-0.0134777
0.0955584
0.0195731
-0.00608061
-0.00470733
0.00813448
0.00139787
0.0196081
-0.0039092
0.0114784
-0.00627805
-0.00444759
0.00137271
-0.00376322
0.00128476
-0.000824587
0.000631011
0.00399517
-0.00344906
0.0106768
0.00267453
0.0134763
0.00353363
0.00938966
0.0027078
0.000324227
0.00244595
0.00317066
0.00720483
0.00385242
0.00632536
0.00595209
0.005036
0.00466894
0.00453356
0.00351092
0.00300137
0.00234457
0.00166548
0.000368861
-9.73462e-05
-0.00058948
0.000590032
0.000219911
0.00141491
0.000463439
0.00144836
0.000584075
0.000896819
0.000588386
0.000530504
7.58676e-08
0.000487166
0.000210533
-2.88225e-05
-0.000486167
0.00017096
-4.68292e-05
0.00022551
-0.000108464
-9.58324e-05
2.28704e-05
0.000322658
-0.0013349
0.00118506
-0.00147433
0.000951715
-0.00105768
0.000200926
-0.000240191
-0.00029518
-0.000212271
-0.000183457
1.00791e-05
-3.57848e-05
-4.50276e-05
-6.39327e-05
-8.19752e-05
-0.000105185
-0.000130683
-0.000160987
-0.000195319
-0.000234203
-0.000278721
-0.000326509
-0.000381443
-0.000437618
-0.000500661
-0.000565413
-0.000629623
-0.000707622
-0.000762609
-0.000836002
-0.000922744
-0.000956179
-0.00102574
-0.00110951
-0.00114002
-0.00115136
-0.00124129
-0.00128485
-0.00123869
-0.001287
-0.0013306
-0.00136776
-0.00133519
-0.00135753
-0.00145761
-0.00152891
-0.001578
-0.00164011
-0.00174076
-0.00176339
-0.00147261
-0.00105985
-0.000580357
3.38534e-05
0.000678004
0.00445742
0.00036687
0.0714387
0.0172797
-0.00473038
-0.00656416
-0.000614349
0.000734577
0.011294
0.014438
0.0167072
-0.00423096
0.000923756
-0.00933175
-0.00922027
0.00619902
0.00274191
-0.000959224
0.0148886
0.00207153
0.0128848
0.00276067
0.000197862
0.00106348
-0.00025915
-0.000107416
-0.000378036
0.000224987
0.000409096
0.000588852
-0.000773545
-0.000643369
-0.000885091
-0.000491853
-0.000484899
0.000212362
-0.00037245
0.000375842
-2.18372e-05
-0.00029891
-0.000179601
-0.000189731
5.85254e-05
0.000818821
0.000866372
0.00119797
0.000837617
0.00150219
0.000697128
0.00106869
0.000245703
0.000532283
0.000190103
-0.000179818
-0.00023371
-0.000111906
0.000188174
0.000461708
-0.00014999
0.000478004
-0.000402789
0.000449395
0.000156067
-0.000648384
0.000835744
-0.000384393
0.000459062
-0.000150144
0.000152925
-0.000158437
0.000312184
-0.000382506
0.000197551
-0.000183583
1.003e-05
-3.5905e-05
-4.5197e-05
-6.41559e-05
-8.22574e-05
-0.000105586
-0.000131209
-0.000161702
-0.000196262
-0.000235504
-0.000280313
-0.000329005
-0.000383766
-0.000442424
-0.000504204
-0.00057363
-0.00063628
-0.000714995
-0.000785748
-0.000844382
-0.00093464
-0.0010044
-0.00103157
-0.00113597
-0.00120431
-0.0011962
-0.00127518
-0.00134191
-0.00137122
-0.00132403
-0.00142378
-0.00148395
-0.00148683
-0.0014218
-0.001446
-0.00144861
-0.0013856
-0.0013654
-0.00115361
-0.00103973
-0.000900691
-0.00103085
-0.00090444
-0.000806863
-0.000514361
0.000724687
0.00389093
0.0671711
0.0169049
-0.00119938
-0.000727943
0.000252648
0.00171851
0.00136901
0.0103595
0.00721293
0.0126559
0.0029136
0.00693994
0.0124799
-0.00576667
0.0228633
-0.00417577
0.0123044
-0.00119369
0.00280003
0.0019449
-8.42662e-05
-0.00041041
-0.00150996
-0.000320687
-0.00109589
-0.000592647
-0.000277045
0.000598046
0.000418285
0.000886303
0.000880428
0.000312026
-0.000114087
-7.37828e-05
-0.00035891
0.000329369
0.000151384
0.000697394
-0.000229963
0.000299961
-1.16691e-05
0.00011535
0.000190114
0.000612592
-0.000104645
0.000781433
-0.000225927
0.000353112
-0.000172624
0.0004159
-0.000191022
0.000645816
0.00020104
0.000284764
0.000140696
0.000214203
0.000190329
0.000149429
-0.000353836
0.000383694
-0.00082822
0.00111554
-0.00076284
-3.39369e-05
-0.00013556
-0.000229816
7.83672e-05
-3.50693e-05
0.000252712
-0.000423715
0.000416298
-0.000183755
9.98622e-06
-3.60362e-05
-4.53881e-05
-6.44194e-05
-8.26339e-05
-0.000106053
-0.000131903
-0.000162573
-0.000197405
-0.000237279
-0.000281919
-0.000332403
-0.000386299
-0.000448213
-0.000508508
-0.000581352
-0.000645518
-0.000722196
-0.000803704
-0.000859729
-0.000946297
-0.00103919
-0.00106915
-0.00115424
-0.00124225
-0.00128979
-0.00129667
-0.00140492
-0.00147038
-0.00145545
-0.0014899
-0.00158727
-0.00165397
-0.0016733
-0.00162775
-0.00183793
-0.00195322
-0.00205227
-0.00214587
-0.00235183
-0.00283778
-0.00319903
-0.00411213
-0.00468868
-0.00301174
-0.0148267
0.048048
0.042796
0.0146829
0.00455466
-0.00191836
-0.0035255
-0.00675226
-0.00552303
-0.00459875
0.00391799
0.00140588
0.0177876
0.0150618
0.00353148
0.0143342
1.25969e-05
0.00364265
-0.000754674
9.19644e-05
-0.00168672
-0.00140019
-0.00238587
-0.00156793
-0.00287221
-0.00101089
-0.00230425
-0.0010075
-0.00127786
-0.000806734
-0.00173768
-0.0011338
-0.00119436
-0.000483239
-0.000795905
-1.18319e-05
-0.000776513
-5.03936e-05
-0.000737897
0.000294963
-0.000273132
-5.70861e-05
0.000422852
7.84377e-05
0.000323822
8.36122e-05
-0.000449327
0.00021472
0.000186139
0.000550329
0.000290747
0.000554803
0.000287135
0.000228704
-0.000129602
0.0002034
5.96244e-05
0.000215041
0.000153774
2.04155e-05
0.000154996
0.000178206
1.47265e-05
0.000582541
-0.000923258
0.00135299
-0.00107057
0.000949634
-0.000509502
0.000229018
6.4656e-05
-0.000264747
0.000441394
-0.000183946
9.96058e-06
-3.61635e-05
-4.55736e-05
-6.46814e-05
-8.29601e-05
-0.000106529
-0.000132508
-0.00016346
-0.000198515
-0.000238808
-0.000284004
-0.000334913
-0.000389768
-0.000452347
-0.000514493
-0.000587868
-0.000658666
-0.00072945
-0.000820269
-0.000885551
-0.000956179
-0.00106031
-0.00113349
-0.00116364
-0.00128093
-0.00136823
-0.00136571
-0.00145225
-0.0015386
-0.00160833
-0.00158575
-0.00166381
-0.00175042
-0.00177842
-0.00175519
-0.0016559
-0.00167011
-0.00168492
-0.00177831
-0.00171823
-0.0018253
-0.0021694
-0.00143087
-0.00362881
0.00167972
-0.0165931
0.0930741
0.0260831
-0.0105649
-0.00591758
-0.00419405
-0.00440317
-0.00430488
-0.0023302
0.00128274
0.00665513
0.0155025
0.011533
0.00456831
0.00319928
-0.000260891
0.000929467
-0.00271474
-0.00158538
-0.00165979
-0.00219918
-0.000628025
-0.000519517
-6.01104e-05
-0.000660542
-0.000208697
-0.000166915
0.000409727
-1.53874e-05
0.000475389
0.000207276
0.00016547
1.82398e-05
-1.97172e-05
-0.000560054
-0.000195329
-0.000798196
-0.000219827
-0.000879085
0.000330437
-0.000547544
-2.07054e-05
0.000195384
-4.42762e-05
0.000361989
-8.42566e-06
0.000514229
0.000427382
0.000398192
0.000271511
2.03483e-05
0.000210326
4.11849e-05
0.000537943
4.30622e-05
0.000472492
-0.000179627
0.000344043
-8.52661e-05
0.00036653
-0.000221361
0.000228107
0.000186247
-0.000404016
0.000383475
-0.000259994
-5.87209e-05
4.25365e-05
-0.000157369
8.88011e-05
0.000156388
-0.000220063
0.000521783
-0.000184179
9.93789e-06
-3.62965e-05
-4.5778e-05
-6.49604e-05
-8.33796e-05
-0.00010706
-0.000133281
-0.000164467
-0.000199789
-0.000240813
-0.000285996
-0.000338481
-0.000393606
-0.000457205
-0.000522511
-0.000592958
-0.000672943
-0.000739798
-0.000830699
-0.000917458
-0.000972009
-0.00108013
-0.00117974
-0.00121124
-0.00130951
-0.00141643
-0.00148197
-0.00148856
-0.00162142
-0.00171575
-0.00175379
-0.00174298
-0.00189443
-0.00200075
-0.00209124
-0.00199711
-0.00212329
-0.00217049
-0.00214898
-0.00193433
-0.00172631
-0.00110399
-0.000577356
0.00107552
0.00500789
0.00192535
0.0720565
0.0174202
-0.0057357
-0.00484482
-0.0031355
-0.00211043
0.000704912
0.0010498
0.00217384
0.00811405
0.0153638
0.00811645
0.0050994
-0.00134069
-0.00052181
-0.00243369
-0.000363812
-0.000961594
-0.000552765
-0.000728918
0.000209193
-0.000641327
-5.65433e-05
-0.000891383
-0.000198011
-0.000517925
-9.57854e-05
-0.000982325
-0.000904874
-0.00126095
-0.00111863
-0.00113924
-0.000707917
-0.000883327
-0.000348071
-0.000427006
-0.000404765
-0.000364172
-0.000345604
-0.000441172
-0.000547952
5.84495e-05
-4.73991e-05
0.000476348
-0.000249419
0.000458185
-5.89204e-05
0.000103258
-1.18991e-05
7.72894e-05
0.000175857
4.91657e-06
0.000436785
8.07009e-06
0.000191687
-1.83582e-05
0.000230167
-1.93e-05
0.000299878
-0.000178276
0.000520323
-0.00023593
0.000446718
0.000219302
-7.29754e-05
0.000286822
-9.74623e-05
0.000217843
-5.46224e-06
0.000147832
-0.000185352
0.000544032
-0.000184437
9.93135e-06
-3.6429e-05
-4.59723e-05
-6.5257e-05
-8.37563e-05
-0.000107601
-0.000133999
-0.000165453
-0.000201131
-0.000242445
-0.000288619
-0.000340906
-0.000398718