/*--------------------------------*- C++ -*----------------------------------*\
| =========                 |                                                 |
| \\      /  F ield         | OpenFOAM: The Open Source CFD Toolbox           |
|  \\    /   O peration     | Version:  2.2.x                                 |
|   \\  /    A nd           | Web:      www.OpenFOAM.org                      |
|    \\/     M anipulation  |                                                 |
\*---------------------------------------------------------------------------*/
FoamFile
{
    version     2.0;
    format      ascii;
    class       volScalarField;
    location    "0.85";
    object      T;
}
// * * * * * * * * * * * * * * * * * * * * * * * * * * * * * * * * * * * * * //

dimensions      [0 0 0 1 0 0 0];

internalField   nonuniform List<scalar> 
14161
(
0.998247
0.998353
0.998117
0.997767
0.997264
0.996603
0.995756
0.994706
0.993426
0.991893
0.990084
0.987978
0.985555
0.98281
0.979728
0.976322
0.972596
0.968547
0.964296
0.959714
0.954906
0.950288
0.945256
0.940255
0.935552
0.930562
0.926026
0.921843
0.917745
0.9141
0.910811
0.908037
0.906003
0.904486
0.903293
0.902161
0.901888
0.902262
0.90318
0.904687
0.90682
0.909658
0.913777
0.918226
0.922424
0.925157
0.921585
0.90909
0.897198
2.603
2.89569
2.94436
2.96324
2.97281
2.96627
2.95156
2.933
2.91224
2.88685
2.85974
2.83249
2.80733
2.78273
2.76357
2.74852
2.73969
2.73082
2.72278
2.72009
2.71538
2.70987
2.70769
2.71326
2.72187
2.73602
2.75186
2.76745
2.79122
2.83287
2.89589
2.96381
3.04195
3.09668
3.15532
3.19647
3.23098
3.26029
3.2697
3.26857
3.2706
3.27915
3.28583
3.29347
3.29962
3.30248
3.30445
3.30695
3.31097
3.31761
3.325
3.32993
3.33325
3.33694
3.33883
3.33941
3.33878
3.33784
3.33719
3.33786
3.3395
3.34338
3.34537
3.3535
3.35583
3.36701
3.36827
3.37655
3.37192
3.36642
0.998244
0.99835
0.998114
0.997763
0.997259
0.996597
0.995749
0.994698
0.993416
0.991882
0.990071
0.987963
0.985538
0.982789
0.979705
0.976295
0.972565
0.968515
0.964259
0.959687
0.954867
0.950219
0.94521
0.940204
0.935458
0.930503
0.925965
0.921713
0.917663
0.913925
0.910677
0.907888
0.905835
0.904313
0.903025
0.901843
0.901506
0.901827
0.90251
0.903843
0.905589
0.907786
0.911296
0.915457
0.922129
0.93153
0.941096
0.957347
1.05138
2.85547
3.05115
3.04333
3.03528
2.99932
2.97356
2.94882
2.92841
2.90638
2.87891
2.85525
2.83179
2.80891
2.78702
2.76718
2.75069
2.73851
2.73012
2.72501
2.71936
2.71631
2.71728
2.7235
2.737
2.75566
2.78275
2.81077
2.83504
2.86494
2.89402
2.93617
2.98634
3.0497
3.09333
3.14047
3.18366
3.21746
3.24898
3.26219
3.26298
3.26174
3.26739
3.27421
3.28251
3.29097
3.2964
3.2987
3.30029
3.30146
3.30478
3.31154
3.31973
3.32473
3.3287
3.33206
3.3347
3.33512
3.3349
3.33394
3.33339
3.33358
3.33614
3.33777
3.34495
3.34739
3.35871
3.36117
3.37131
3.36944
3.36598
0.998243
0.998348
0.998112
0.997761
0.997257
0.996595
0.995746
0.994694
0.993412
0.991878
0.990066
0.987957
0.985531
0.982782
0.979696
0.976286
0.972555
0.968511
0.964235
0.959679
0.954854
0.950185
0.945266
0.940267
0.935308
0.930493
0.925902
0.921647
0.917632
0.913813
0.910444
0.907728
0.905623
0.904062
0.902863
0.901709
0.901164
0.901544
0.902238
0.903523
0.905913
0.909131
0.913104
0.918454
0.923284
0.925132
0.932864
0.953797
1.26755
2.94878
3.10682
3.10222
3.07805
3.02736
2.9893
2.94816
2.91019
2.87254
2.83273
2.80324
2.77164
2.74278
2.7198
2.69766
2.68161
2.66353
2.65138
2.64516
2.63268
2.62701
2.62685
2.62777
2.63607
2.65117
2.67723
2.71872
2.75358
2.81112
2.84783
2.90572
2.9238
2.98361
3.03742
3.08497
3.13814
3.18158
3.2178
3.2472
3.26249
3.26468
3.26584
3.27432
3.28282
3.29214
3.29932
3.30225
3.30332
3.30359
3.30513
3.30991
3.317
3.32172
3.32491
3.32726
3.32944
3.33142
3.33194
3.33089
3.32985
3.32952
3.3313
3.33272
3.33953
3.34225
3.35337
3.35656
3.36793
3.36623
3.3648
0.99824
0.998345
0.998109
0.997757
0.997252
0.996588
0.995738
0.994685
0.9934
0.991863
0.990049
0.987936
0.985508
0.98275
0.979662
0.97624
0.972504
0.968462
0.964133
0.959618
0.954833
0.949932
0.945103
0.940035
0.935098
0.930398
0.9256
0.921268
0.917298
0.913544
0.910133
0.907413
0.90523
0.903734
0.902294
0.900981
0.900284
0.900201
0.900473
0.901002
0.901597
0.902596
0.903879
0.906298
0.910999
0.923152
0.949024
0.988012
1.08836
2.90762
3.05544
3.05994
2.99606
2.94686
2.89573
2.84103
2.79653
2.76356
2.72526
2.70713
2.67605
2.65367
2.63154
2.61247
2.59726
2.581
2.56619
2.55464
2.54775
2.54435
2.54027
2.54485
2.53786
2.56443
2.56706
2.61121
2.63765
2.70384
2.72726
2.79099
2.79182
2.81796
2.87053
2.92532
3.00785
3.08662
3.1633
3.21299
3.24522
3.25794
3.26082
3.26571
3.27542
3.28445
3.29353
3.30036
3.30283
3.3029
3.3036
3.30533
3.30928
3.31522
3.31995
3.32161
3.32187
3.32298
3.32451
3.32651
3.32668
3.32609
3.32632
3.32575
3.3322
3.33502
3.34622
3.34999
3.36175
3.36021
3.35978
0.99824
0.998343
0.998107
0.997755
0.997249
0.996585
0.995734
0.99468
0.993395
0.991856
0.99004
0.987925
0.985495
0.982735
0.979643
0.976219
0.972477
0.968433
0.964107
0.959559
0.954748
0.949819
0.945076
0.939902
0.934933
0.930209
0.92548
0.921056
0.917082
0.913375
0.909863
0.90695
0.904492
0.902881
0.901369
0.900012
0.899196
0.899225
0.899616
0.900277
0.901314
0.90258
0.9041
0.904549
0.904117
0.897551
0.887832
0.862818
0.904724
2.28234
2.8729
2.85529
2.8181
2.77978
2.75034
2.7095
2.68865
2.6466
2.63208
2.61257
2.57904
2.57057
2.54082
2.53453
2.51259
2.50499
2.4897
2.47891
2.47701
2.47001
2.47028
2.47257
2.46671
2.48704
2.47245
2.51542
2.53513
2.5759
2.61998
2.63558
2.66994
2.68226
2.72492
2.75683
2.81473
2.87263
2.95746
3.04969
3.14651
3.21067
3.24401
3.25999
3.26891
3.27722
3.28719
3.29477
3.30177
3.30444
3.30455
3.30298
3.30403
3.30697
3.31217
3.31823
3.31983
3.32045
3.32088
3.32241
3.32478
3.32738
3.32842
3.3266
3.32972
3.33032
3.34078
3.34461
3.35627
3.35454
3.35345
0.998238
0.998341
0.998103
0.99775
0.997243
0.996578
0.995725
0.994669
0.993381
0.991839
0.990019
0.987899
0.985464
0.982695
0.979596
0.976159
0.972401
0.968339
0.96391
0.959469
0.954672
0.94963
0.944803
0.939694
0.934703
0.929882
0.925121
0.920542
0.916492
0.912774
0.909229
0.906317
0.903857
0.902169
0.900647
0.899142
0.897808
0.897111
0.896518
0.895738
0.894674
0.893064
0.89022
0.887821
0.88464
0.875317
0.853626
0.8303
0.776576
1.11422
2.65147
2.678
2.65217
2.6392
2.61988
2.60862
2.59837
2.57823
2.57592
2.55341
2.53963
2.53224
2.50921
2.50378
2.4829
2.47998
2.46534
2.46332
2.45466
2.4508
2.44942
2.44581
2.45643
2.43995
2.4808
2.48219
2.54556
2.54335
2.61336
2.58454
2.61489
2.60169
2.62878
2.64214
2.68417
2.72854
2.79032
2.85737
2.94527
3.04534
3.14399
3.2049
3.22938
3.24696
3.25157
3.26083
3.26957
3.27932
3.28665
3.29241
3.29482
3.2942
3.2965
3.30128
3.30697
3.31197
3.31555
3.31743
3.31937
3.32182
3.32399
3.3234
3.32522
3.32436
3.33301
3.33619
3.34988
3.34801
3.34719
0.998237
0.998339
0.998101
0.997748
0.99724
0.996573
0.99572
0.994662
0.993372
0.991828
0.990006
0.987882
0.985443
0.982668
0.979562
0.976117
0.972345
0.968284
0.963878
0.959319
0.954537
0.949467
0.944616
0.939499
0.934356
0.929503
0.924793
0.920092
0.916019
0.912264
0.908656
0.905435
0.902662
0.90068
0.898986
0.897342
0.895928
0.895372
0.895278
0.895452
0.895497
0.895558
0.894662
0.893261
0.890168
0.881443
0.865735
0.854279
0.883082
2.03638
2.86756
2.82473
2.77761
2.74729
2.71407
2.68888
2.66102
2.63584
2.6225
2.58617
2.58125
2.55103
2.5474
2.5222
2.51829
2.50048
2.4977
2.4867
2.48727
2.48162
2.48806
2.48343
2.50006
2.48029
2.52946
2.52688
2.5952
2.57807
2.64008
2.59454
2.62027
2.58521
2.60594
2.58847
2.59962
2.62174
2.65998
2.70633
2.76457
2.842
2.94684
3.05263
3.13204
3.17667
3.19296
3.20699
3.21962
3.23097
3.24478
3.26025
3.27311
3.28142
3.28254
3.28084
3.28536
3.29164
3.29819
3.30277
3.30608
3.30909
3.31326
3.31392
3.31722
3.31701
3.3259
3.32774
3.34125
3.34081
3.34065
0.998236
0.998336
0.998098
0.997743
0.997234
0.996566
0.99571
0.994649
0.993356
0.991808
0.98998
0.987851
0.985402
0.982619
0.979499
0.976041
0.972246
0.968165
0.963716
0.95912
0.954374
0.949265
0.944205
0.939278
0.93395
0.928993
0.924251
0.919402
0.915227
0.911388
0.907715
0.904404
0.901714
0.899574
0.897785
0.895929
0.893979
0.892486
0.891204
0.889884
0.88837
0.886588
0.884813
0.883774
0.884133
0.889246
0.902019
0.92798
1.01318
2.49557
2.93548
2.92082
2.85639
2.80616
2.75861
2.72812
2.69334
2.66431
2.63997
2.60772
2.59277
2.56304
2.56121
2.5358
2.53197
2.51357
2.51065
2.49859
2.49903
2.49276
2.49958
2.49003
2.50458
2.48434
2.5308
2.53255
2.60289
2.57046
2.63194
2.59022
2.62495
2.59353
2.611
2.58422
2.58827
2.57976
2.58957
2.60821
2.63358
2.69239
2.75721
2.87345
2.95346
3.03203
3.06981
3.09775
3.12504
3.14711
3.16829
3.19018
3.21273
3.23067
3.24114
3.24494
3.2483
3.25741
3.26807
3.27679
3.28423
3.28905
3.29598
3.29796
3.30456
3.3055
3.31532
3.31727
3.33161
3.33306
3.3337
0.998235
0.998334
0.998096
0.99774
0.99723
0.99656
0.995703
0.99464
0.993344
0.991793
0.989961
0.987826
0.98537
0.982579
0.97945
0.975978
0.972167
0.968071
0.963633
0.95888
0.954194
0.949067
0.943878
0.938931
0.933505
0.928447
0.923615
0.918795
0.914365
0.910409
0.906601
0.902961
0.899969
0.897441
0.895373
0.893346
0.891467
0.890479
0.890019
0.890084
0.890579
0.89163
0.893088
0.896637
0.900237
0.906763
0.908928
0.925079
0.971649
2.34682
2.91301
2.89189
2.84579
2.80048
2.73611
2.70656
2.66528
2.64889
2.59834
2.58734
2.54638
2.54057
2.50831
2.49515
2.48462
2.46875
2.46223
2.44973
2.45125
2.44561
2.45644
2.45036
2.47054
2.46404
2.5228
2.52627
2.58799
2.54477
2.59567
2.54705
2.58068
2.55213
2.57758
2.56293
2.56665
2.55024
2.55108
2.5464
2.55569
2.58687
2.63599
2.7386
2.8365
2.94073
2.99819
3.04231
3.07361
3.09348
3.1153
3.13573
3.15629
3.17853
3.19763
3.21086
3.21949
3.2235
3.2336
3.24266
3.25179
3.25785
3.26702
3.2719
3.2839
3.28953
3.30322
3.30598
3.32377
3.32469
3.32676
0.998233
0.998332
0.998092
0.997735
0.997223
0.996552
0.995692
0.994626
0.993326
0.99177
0.98993
0.987788
0.985319
0.982518
0.979366
0.975876
0.972045
0.9679
0.963439
0.958605
0.953897
0.948741
0.943475
0.938405
0.933067
0.927727
0.922808
0.918065
0.913229
0.909086
0.905231
0.901469
0.898309
0.895588
0.893421
0.891091
0.888431
0.886259
0.884105
0.882034
0.879594
0.876965
0.873681
0.870541
0.864851
0.860177
0.846836
0.835412
0.890604
1.9373
2.81134
2.79013
2.75135
2.69083
2.63805
2.61966
2.58604
2.58683
2.52743
2.52678
2.47491
2.48031
2.43811
2.43448
2.41022
2.41291
2.39848
2.39894
2.38468
2.38615
2.37608
2.38326
2.36642
2.3995
2.39995
2.44511
2.50533
2.46357
2.52161
2.48464
2.51517
2.49351
2.51131
2.50231
2.5127
2.51218
2.51862
2.52055
2.53218
2.5609
2.60973
2.70012
2.80432
2.89432
2.97778
3.02522
3.06027
3.08712
3.10544
3.11822
3.13031
3.14225
3.15654
3.17291
3.1905
3.20088
3.21036
3.22277
3.23482
3.24216
3.25123
3.25489
3.26614
3.27279
3.28865
3.29375
3.3145
3.31442
3.31849
0.998232
0.99833
0.998089
0.997731
0.997218
0.996545
0.995683
0.994614
0.99331
0.991749
0.989904
0.987753
0.985276
0.98246
0.979296
0.975785
0.971932
0.967746
0.96328
0.958394
0.953521
0.948477
0.943042
0.937777
0.932588
0.926952
0.921889
0.917121
0.91201
0.90759
0.903507
0.899572
0.895911
0.892725
0.890121
0.88762
0.88508
0.88323
0.881832
0.881053
0.880501
0.88001
0.879741
0.879497
0.877856
0.874125
0.869299
0.855702
0.973563
1.86232
2.71265
2.69611
2.7001
2.61181
2.58028
2.55414
2.53187
2.54202
2.4782
2.47507
2.43425
2.41809
2.42028
2.3809
2.37813
2.36182
2.36871
2.36009
2.36124
2.35411
2.36615
2.36085
2.37874
2.35636
2.43935
2.4193
2.49467
2.42147
2.47635
2.42872
2.44867
2.44314
2.45843
2.45244
2.46358
2.47328
2.49221
2.50633
2.53416
2.58284
2.64957
2.742
2.83979
2.91478
2.98615
3.03206
3.06133
3.08681
3.10988
3.12754
3.13796
3.14612
3.15729
3.17072
3.18646
3.19666
3.20376
3.21468
3.22648
3.23373
3.24138
3.24486
3.25486
3.26018
3.27346
3.28023
3.30522
3.30439
3.30949
0.99823
0.998327
0.998086
0.997726
0.997211
0.996535
0.99567
0.994598
0.993289
0.991722
0.989868
0.987707
0.985215
0.982384
0.979196
0.975661
0.971774
0.967527
0.96305
0.958151
0.953075
0.948082
0.942513
0.937128
0.931924
0.926134
0.920817
0.915864
0.910828
0.905939
0.901715
0.897791
0.893857
0.890241
0.887011
0.884031
0.880929
0.877618
0.874309
0.871219
0.86818
0.865185
0.863211
0.861102
0.859345
0.859489
0.861542
0.858126
0.974668
2.13862
2.58928
2.57503
2.63455
2.53241
2.54381
2.48015
2.51274
2.46922
2.44859
2.45487
2.39952
2.41106
2.37524
2.38723
2.35595
2.34863
2.34669
2.34623
2.35084
2.33734
2.35131
2.35188
2.36413
2.35102
2.43641
2.43699
2.48343
2.45459
2.49553
2.45051
2.47329
2.47245
2.47678
2.46764
2.48958
2.50234
2.53226
2.57145
2.6217
2.69564
2.76989
2.85677
2.93958
3.00146
3.04849
3.06992
3.07787
3.09481
3.11727
3.13626
3.14568
3.15259
3.16237
3.17378
3.18664
3.1937
3.19744
3.20678
3.21752
3.2251
3.23298
3.23634
3.2441
3.24693
3.25923
3.26558
3.29535
3.29353
3.30095
0.998228
0.998325
0.998083
0.997722
0.997205
0.996527
0.995659
0.994583
0.99327
0.991696
0.989834
0.987663
0.985158
0.98231
0.979103
0.975538
0.971624
0.967331
0.962803
0.957899
0.952655
0.947582
0.94198
0.936345
0.93094
0.925374
0.919576
0.914406
0.909338
0.903822
0.899164
0.895075
0.890927
0.886545
0.882899
0.879734
0.876825
0.874074
0.871587
0.870125
0.869294
0.868716
0.870012
0.871098
0.872117
0.871311
0.87034
0.880389
0.948863
2.18477
2.43117
2.47628
2.55706
2.50032
2.56804
2.47689
2.51494
2.45064
2.44501
2.46251
2.40365
2.40336
2.36874
2.38333
2.34098
2.33835
2.33859
2.33924
2.34339
2.32054
2.34843
2.36945
2.3971
2.40739
2.54026
2.51111
2.57663
2.5568
2.60799
2.58766
2.62456
2.62429
2.64047
2.64387
2.66502
2.68844
2.71644
2.74951
2.78711
2.83613
2.88039
2.92665
2.98003
3.01895
3.06704
3.09669
3.1135
3.12485
3.13851
3.14818
3.1526
3.15596
3.16432
3.17504
3.18461
3.18829
3.18927
3.19656
3.20597
3.21425
3.22203
3.22635
3.23351
3.2362
3.24546
3.25136
3.28411
3.28421
3.29123
0.998226
0.998322
0.998079
0.997717
0.997197
0.996517
0.995645
0.994564
0.993245
0.991663
0.989792
0.987606
0.985087
0.982214
0.978983
0.975381
0.971429
0.967099
0.962454
0.957564
0.952206
0.946887
0.941486
0.935518
0.92987
0.9244
0.918228
0.912674
0.907504
0.90212
0.896731
0.89218
0.887903
0.88349
0.878851
0.874734
0.871131
0.867389
0.862726
0.858022
0.853889
0.849582
0.846698
0.843045
0.840085
0.828704
0.820558
0.861508
0.946967
2.20819
2.30671
2.36108
2.41351
2.45253
2.55832
2.50244
2.53599
2.44938
2.47737
2.3994
2.42257
2.35522
2.37421
2.34635
2.3313
2.31686
2.33758
2.34289
2.35581
2.34267
2.44814
2.54175
2.63663
2.70328
2.79913
2.78381
2.83576
2.82489
2.84511
2.83697
2.84823
2.83491
2.83556
2.83853
2.84306
2.84338
2.85332
2.87205
2.89783
2.92216
2.95129
2.98759
3.02394
3.05197
3.07877
3.10608
3.12218
3.13024
3.13985
3.14845
3.155
3.16116
3.17137
3.18052
3.18611
3.18674
3.18459
3.19076
3.20032
3.20735
3.21339
3.21593
3.22221
3.22492
3.23223
3.2374
3.27167
3.27372
3.28216
0.998224
0.998319
0.998075
0.997711
0.99719
0.996507
0.995632
0.994546
0.993221
0.991631
0.98975
0.987551
0.985015
0.982121
0.978863
0.975229
0.971234
0.96686
0.96209
0.957204
0.951806
0.946246
0.940844
0.934656
0.928725
0.923105
0.916992
0.910851
0.905442
0.900143
0.894
0.888644
0.884168
0.879583
0.874173
0.869771
0.866044
0.863116
0.860451
0.857437
0.855564
0.854513
0.854656
0.855447
0.856896
0.857416
0.855059
0.94058
1.56388
2.31934
2.31089
2.32779
2.36139
2.45776
2.44764
2.58229
2.48207
2.49473
2.43517
2.42772
2.38851
2.36399
2.37996
2.35109
2.384
2.37234
2.45979
2.53659
2.62998
2.71573
2.80301
2.89379
2.98047
2.98142
3.00854
2.97995
2.997
2.99362
3.01069
2.99959
2.9917
2.9767
2.97088
2.95794
2.94441
2.93566
2.93152
2.92586
2.92566
2.94211
2.96726
3.00185
3.0355
3.06588
3.08246
3.10256
3.12482
3.13914
3.1497
3.15727
3.16111
3.16637
3.1765
3.18331
3.18707
3.18518
3.17992
3.18606
3.19485
3.2015
3.20657
3.2076
3.21254
3.21373
3.2202
3.22397
3.25982
3.2639
3.27289
0.998221
0.998316
0.998071
0.997706
0.997182
0.996495
0.995616
0.994525
0.993193
0.991594
0.9897
0.987485
0.984929
0.982009
0.978719
0.975047
0.970995
0.966576
0.961689
0.956736
0.951311
0.945504
0.939907
0.933873
0.927489
0.921536
0.915644
0.908882
0.902938
0.897443
0.891578
0.885315
0.879906
0.875251
0.870351
0.8641
0.858893
0.853935
0.850255
0.845604
0.839244
0.835317
0.833667
0.833049
0.834939
0.838593
0.842857
0.950177
2.10763
2.32925
2.29654
2.27963
2.27836
2.30337
2.32538
2.48414
2.41793
2.52317
2.40028
2.48403
2.39472
2.39168
2.46273
2.48705
2.59892
2.68136
2.79235
2.88923
2.98635
3.03881
3.05973
3.04858
3.07129
3.06421
3.06331
3.03809
3.03518
3.02593
3.02528
3.01534
3.00428
2.99462
2.98557
2.97811
2.97078
2.96416
2.95278
2.939
2.93537
2.94469
2.9648
2.99546
3.03001
3.06538
3.0896
3.11003
3.1303
3.14542
3.15737
3.16431
3.16787
3.17323
3.18103
3.18601
3.18793
3.18359
3.17679
3.18215
3.19048
3.19676
3.19983
3.20127
3.2041
3.20408
3.20916
3.2118
3.24712
3.25294
3.26358
0.998218
0.998313
0.998067
0.9977
0.997174
0.996484
0.995601
0.994504
0.993164
0.991555
0.989649
0.987418
0.984841
0.981896
0.97857
0.974859
0.970748
0.966281
0.96137
0.956121
0.950785
0.944855
0.938873
0.933
0.926228
0.919839
0.913791
0.907113
0.90035
0.894454
0.888687
0.881758
0.875505
0.870255
0.865329
0.859418
0.853488
0.848855
0.845089
0.843244
0.840452
0.836229
0.833039
0.83061
0.82702
0.823233
0.831703
0.91823
2.20486
2.27695
2.26025
2.25219
2.24386
2.24319
2.27168
2.28913
2.45202
2.41845
2.55673
2.4848
2.60414
2.61506
2.76649
2.8321
2.94784
2.99113
3.03465
3.03856
3.07249
3.07745
3.08729
3.07851
3.08228
3.07063
3.06695
3.04728
3.04134
3.03352
3.0285
3.02444
3.0194
3.01252
3.00433
2.99373
2.98256
2.9731
2.96662
2.95715
2.95375
2.95819
2.97368
2.9991
3.03266
3.06693
3.09424
3.1157
3.13704
3.15167
3.16188
3.16611
3.16855
3.17445
3.18209
3.18764
3.18775
3.1817
3.17412
3.17916
3.18722
3.19135
3.19374
3.19418
3.19593
3.19583
3.19947
3.20161
3.23549
3.2426
3.25433
0.998215
0.998309
0.998062
0.997693
0.997165
0.996471
0.995583
0.99448
0.993132
0.991512
0.989591
0.987343
0.98474
0.981767
0.978401
0.974646
0.970477
0.965939
0.960973
0.955523
0.950146
0.944135
0.937816
0.931732
0.925136
0.918111
0.911634
0.905245
0.897737
0.890973
0.884937
0.878505
0.871075
0.864546
0.859366
0.853648
0.846031
0.839109
0.832657
0.828207
0.8234
0.81712
0.804096
0.793691
0.77579
0.75771
0.795687
0.908702
2.19926
2.2641
2.26069
2.25043
2.23405
2.21774
2.21698
2.24216
2.30715
2.49498
2.56435
2.73484
2.80804
2.95523
2.96452
3.02786
3.02858
3.0548
3.06429
3.07232
3.07485
3.06901
3.0726
3.06379
3.06708
3.05827
3.05471
3.04312
3.03576
3.03033
3.02648
3.02457
3.02115
3.01617
3.00779
2.99908
2.98563
2.97298
2.96934
2.97017
2.97217
2.97698
2.98877
3.0079
3.03649
3.06815
3.09219
3.11546
3.13489
3.15029
3.16018
3.16437
3.16989
3.17757
3.18608
3.18993
3.18623
3.17904
3.17224
3.17777
3.18402
3.18607
3.18756
3.18695
3.18934
3.18783
3.19103
3.1918
3.22452
3.23256
3.24539
0.998212
0.998306
0.998058
0.997687
0.997155
0.996458
0.995565
0.994456
0.993099
0.991468
0.989532
0.987264
0.984638
0.981633
0.978229
0.974424
0.970195
0.965551
0.960552
0.954972
0.949331
0.943458
0.936805
0.930326
0.923941
0.916396
0.909335
0.90274
0.895503
0.887666
0.880843
0.874414
0.867215
0.859361
0.852625
0.847687
0.841963
0.834438
0.828462
0.823053
0.821314
0.81724
0.809132
0.802492
0.797927
0.788049
0.880352
1.52373
2.29784
2.2741
2.26821
2.25503
2.23899
2.23132
2.23804
2.28169
2.38426
2.60612
2.82078
2.92582
2.99572
2.98962
3.01783
3.01818
3.04066
3.04331
3.04495
3.04516
3.05155
3.05072
3.05927
3.05806
3.06196
3.05509
3.0444
3.0388
3.02981
3.02738
3.02274
3.02123
3.01872
3.01555
3.00901
2.99993
2.98794
2.97464
2.97075
2.97427
2.97945
2.98791
2.99995
3.01613
3.03788
3.06035
3.08708
3.11089
3.12919
3.14585
3.15564
3.16229
3.17093
3.17814
3.18506
3.18769
3.18271
3.17653
3.1714
3.17633
3.18015
3.18091
3.18049
3.18084
3.18239
3.18055
3.18296
3.18312
3.21427
3.22283
3.23665
0.998208
0.998302
0.998053
0.997679
0.997145
0.996444
0.995546
0.994429
0.993062
0.991418
0.989466
0.987177
0.984523
0.981485
0.978037
0.974176
0.969891
0.965128
0.960079
0.954475
0.94847
0.942588
0.93578
0.928854
0.922249
0.91493
0.907074
0.899971
0.892976
0.884419
0.876603
0.869869
0.863023
0.854032
0.846126
0.839242
0.833691
0.826916
0.817542
0.81075
0.806509
0.80428
0.800229
0.802681
0.809068
0.811812
0.931923
2.07667
2.27612
2.2521
2.2408
2.23849
2.2346
2.24268
2.27597
2.36628
2.57687
2.86717
3.00853
3.03303
3.01838
3.03136
3.01881
3.02863
3.01958
3.02585
3.0246
3.02507
3.02982
3.03256
3.04017
3.04012
3.04224
3.04035
3.02897
3.02661
3.01713
3.01658
3.01003
3.01058
3.01035
3.01184
3.00623
2.99741
2.98613
2.97534
2.97176
2.97547
2.98169
2.99037
3.00282
3.01896
3.03866
3.05706
3.08015
3.10288
3.12207
3.14066
3.15305
3.16322
3.1729
3.17908
3.18339
3.18384
3.17858
3.17456
3.17088
3.17465
3.17663
3.17516
3.17432
3.1753
3.17602
3.17389
3.17493
3.17457
3.20468
3.21394
3.22898
0.998204
0.998298
0.998047
0.997672
0.997135
0.996429
0.995525
0.994401
0.993024
0.991367
0.989398
0.987087
0.984406
0.98133
0.97784
0.973917
0.969571
0.964719
0.959523
0.953913
0.947674
0.941456
0.934928
0.927466
0.920355
0.913325
0.904905
0.896975
0.889709
0.88177
0.872638
0.864596
0.857797
0.849964
0.840156
0.832088
0.825649
0.820386
0.813633
0.803935
0.7956
0.786299
0.774118
0.760367
0.73472
0.744184
0.847267
2.08647
2.20662
2.21237
2.2066
2.21021
2.21434
2.23799
2.32236
2.49848
2.81282
3.00163
3.03186
3.01623
3.01404
3.01325
3.00739
3.00619
3.00998
3.00809
3.01
3.01018
3.01547
3.01723
3.02192
3.01977
3.01886
3.01832
3.01524
3.01579
3.01086
3.00981
3.00223
3.00327
3.00078
3.00357
2.99934
2.99562
2.98562
2.97528
2.96976
2.97257
2.97902
2.98908
3.00232
3.01952
3.03787
3.05618
3.07718
3.0963
3.11391
3.13192
3.14731
3.16036
3.16976
3.17525
3.17867
3.17886
3.1745
3.17295
3.17013
3.17303
3.17298
3.16972
3.16896
3.16981
3.17025
3.16708
3.16767
3.16666
3.19478
3.20426
3.22054
0.9982
0.998293
0.998041
0.997664
0.997123
0.996414
0.995503
0.994371
0.992983
0.991312
0.989324
0.98699
0.984279
0.981165
0.977629
0.973648
0.969228
0.96432
0.958866
0.95331
0.946995
0.940324
0.933809
0.926166
0.918433
0.911131
0.903154
0.894214
0.886212
0.878475
0.869108
0.859867
0.851837
0.8441
0.834997
0.824038
0.814614
0.807961
0.799985
0.790089
0.776701
0.766448
0.760969
0.761048
0.759868
0.843087
1.14374
2.23349
2.21483
2.21213
2.21101
2.21776
2.23841
2.30918
2.46667
2.75797
2.97381
3.07225
3.02776
3.01082
2.99847
2.99082
2.9887
2.99318
2.99401
2.99237
2.98937
2.98943
2.99504
2.99662
3.00063
2.99785
2.99645
2.99779
3.00093
3.00813
3.00781
3.00734
2.99923
2.99659
2.99184
2.99613
2.99457
2.99216
2.98268
2.97166
2.96655
2.96827
2.97548
2.98659
3.00064
3.01789
3.03603
3.05444
3.07328
3.08914
3.10568
3.12262
3.13959
3.15362
3.16309
3.16882
3.17179
3.17221
3.16971
3.17069
3.16924
3.17136
3.16937
3.16516
3.16414
3.16486
3.1646
3.16043
3.1604
3.15846
3.1859
3.19636
3.21376
0.998195
0.998288
0.998035
0.997656
0.997112
0.996397
0.995481
0.99434
0.992941
0.991255
0.989248
0.986889
0.984147
0.980992
0.977408
0.973365
0.96886
0.963892
0.958262
0.95257
0.946271
0.939276
0.932366
0.925122
0.91669
0.90881
0.901089
0.891645
0.882656
0.874569
0.866113
0.855451
0.846074
0.838382
0.830446
0.819519
0.809727
0.801581
0.797184
0.79143
0.7846
0.77747
0.772712
0.769352
0.776385
0.875773
1.92929
2.15361
2.16993
2.17556
2.18432
2.20753
2.27135
2.42711
2.71558
2.94054
3.05342
3.05423
3.03291
3.02454
3.00798
2.98868
2.9846
2.98096
2.9771
2.96836
2.96629
2.96892
2.97604
2.97841
2.97993
2.97732
2.9787
2.98057
2.98592
2.99389
2.99621
2.99946
2.99502
2.99362
2.98642
2.98909
2.98637
2.98697
2.97922
2.96819
2.963
2.96307
2.96993
2.98148
2.99701
3.01517
3.03376
3.05222
3.06873
3.08103
3.09555
3.11179
3.12872
3.1427
3.15318
3.16059
3.16391
3.1654
3.16494
3.16793
3.16865
3.16961
3.16547
3.1606
3.15922
3.1597
3.15811
3.15378
3.15375
3.15144
3.17685
3.1875
3.20609
0.99819
0.998283
0.998029
0.997647
0.997099
0.99638
0.995457
0.994307
0.992896
0.991195
0.989168
0.986783
0.984009
0.980814
0.977177
0.973077
0.96848
0.963442
0.957789
0.951689
0.945515
0.938325
0.930941
0.923722
0.915141
0.906501
0.89843
0.889682
0.879487
0.870394
0.861903
0.852125
0.841091
0.831208
0.823703
0.814306
0.800246
0.788665
0.776841
0.769244
0.757328
0.746141
0.714581
0.701369
0.731541
0.927477
2.05003
2.12239
2.13744
2.14834
2.16943
2.22722
2.37868
2.66859
2.93172
3.03106
3.03828
3.01511
3.0093
3.00618
2.98571
2.97309
2.97312
2.97145
2.96366
2.94995
2.94489
2.94788
2.95459
2.9589
2.96286
2.9621
2.96415
2.96602
2.97196
2.9795
2.98478
2.99168
2.98971
2.98882
2.98177
2.98158
2.9773
2.98043
2.97523
2.9647
2.95758
2.95556
2.96269
2.97516
2.99235
3.01134
3.03009
3.0477
3.06185
3.0719
3.08468
3.09985
3.11577
3.12961
3.14173
3.15016
3.1544
3.15813
3.16017
3.16502
3.1682
3.16742
3.16115
3.15611
3.15429
3.15426
3.15205
3.1475
3.14666
3.14326
3.16851
3.17964
3.19948
0.998184
0.998278
0.998022
0.997638
0.997087
0.996362
0.995432
0.994273
0.99285
0.991132
0.989085
0.986673
0.983865
0.980629
0.976936
0.972776
0.9681
0.962954
0.957273
0.950889
0.944556
0.93746
0.929614
0.921949
0.913925
0.904476
0.895701
0.887176
0.876781
0.866605
0.857576
0.84856
0.836756
0.826075
0.81652
0.808705
0.798772
0.787025
0.779624
0.775363
0.774429
0.774343
0.779583
0.785612
0.90026
1.73933
2.11933
2.1369
2.14824
2.15974
2.21324
2.34097
2.63178
2.9546
3.04605
3.03784
3.02469
2.99145
2.99137
2.98076
2.9573
2.94835
2.95292
2.95375
2.94789
2.93409
2.9296
2.93377
2.9408
2.94514
2.94899
2.9507
2.95362
2.95529
2.95941
2.96425
2.96907
2.97687
2.97649
2.97721
2.97215
2.97082
2.96512
2.96742
2.96403
2.95817
2.95077
2.94791
2.95503
2.96784
2.98558
3.00493
3.02354
3.03976
3.05243
3.06165
3.07307
3.08709
3.10187
3.11595
3.12906
3.13861
3.14435
3.15092
3.1559
3.16225
3.16694
3.16453
3.15592
3.15087
3.14863
3.14803
3.14541
3.14113
3.1409
3.13715
3.16098
3.17115
3.19201
0.998178
0.998272
0.998014
0.997628
0.997073
0.996344
0.995406
0.994237
0.992802
0.991067
0.988999
0.98656
0.983717
0.98044
0.976696
0.97247
0.96773
0.962427
0.956729
0.950297
0.943467
0.936586
0.928445
0.920236
0.912246
0.902759
0.893126
0.884181
0.874765
0.863293
0.85293
0.843978
0.833897
0.821157
0.810023
0.800577
0.790367
0.777475
0.761427
0.746446
0.731313
0.715045
0.696461
0.713463
0.931766
1.99093
2.12654
2.13224
2.15111
2.18473
2.30737
2.56205
2.91621
3.02411
3.01815
2.996
2.97972
2.96548
2.97195
2.96827
2.9488
2.93635
2.93814
2.93785
2.93593
2.92644
2.92214
2.92579
2.93025
2.93253
2.9349
2.93812
2.94412
2.94574
2.9476
2.95066
2.95468
2.9615
2.96088
2.9632
2.96097
2.96056
2.95611
2.95713
2.95419
2.95151
2.94602
2.94163
2.94784
2.95938
2.97666
2.99604
3.01422
3.02953
3.0414
3.05033
3.06045
3.07348
3.0879
3.10226
3.11559
3.1264
3.13429
3.14357
3.15181
3.15969
3.1648
3.16123
3.15036
3.14542
3.14283
3.142
3.13911
3.13467
3.13415
3.12962
3.15191
3.1621
3.18485
0.998172
0.998265
0.998007
0.997618
0.99706
0.996325
0.99538
0.994201
0.992752
0.991001
0.98891
0.986444
0.983566
0.980246
0.976449
0.972155
0.967347
0.961934
0.956131
0.949678
0.942489
0.935421
0.927491
0.918711
0.910226
0.901423
0.890905
0.881173
0.871826
0.860847
0.849315
0.839218
0.829548
0.817865
0.805069
0.793799
0.787013
0.778144
0.76703
0.760019
0.755964
0.756471
0.76952
0.896088
1.69527
2.12863
2.15338
2.17133
2.20114
2.3134
2.54722
2.89592
3.02901
3.04151
3.00146
2.98212
2.95154
2.94108
2.95026
2.95153
2.9396
2.92722
2.9284
2.92839
2.92807
2.92058
2.91722
2.92031
2.92455
2.92644
2.92756
2.9303
2.9359
2.93685
2.93803
2.94004
2.94223
2.94532
2.94596
2.94943
2.9485
2.95059
2.94942
2.95061
2.94761
2.94564
2.94072
2.93657
2.94135
2.95082
2.96674
2.98537
3.00279
3.01784
3.02954
3.03797
3.0468
3.05958
3.07358
3.08846
3.10184
3.11424
3.12482
3.13654
3.14729
3.15645
3.16165
3.15714
3.14402
3.13918
3.13632
3.13532
3.13236
3.12817
3.12798
3.12371
3.14477
3.15479
3.17652
0.998165
0.998259
0.997999
0.997608
0.997045
0.996305
0.995353
0.994163
0.992701
0.990933
0.98882
0.986326
0.983413
0.98005
0.976203
0.971844
0.966962
0.961505
0.95545
0.949043
0.941802
0.934166
0.926513
0.917419
0.908312
0.899509
0.889226
0.878532
0.868718
0.858761
0.846298
0.834845
0.824797
0.814405
0.800096
0.787083
0.774422
0.763902
0.74969
0.730141
0.699744
0.686753
0.706236
0.95095
2.01916
2.14851
2.17678
2.19973
2.29259
2.5074
2.86256
2.98168
3.03278
3.0011
2.98521
2.97484
2.94877
2.93862
2.94601
2.94368
2.93452
2.92134
2.92075
2.922
2.92173
2.917
2.91399
2.91703
2.92111
2.92228
2.92134
2.92291
2.92664
2.92625
2.92577
2.92688
2.92959
2.9312
2.9331
2.93705
2.93731
2.94158
2.94304
2.94674
2.94457
2.94445
2.9411
2.93555
2.93642
2.94283
2.9564
2.97392
2.99037
3.00572
3.01727
3.02478
3.0326
3.04549
3.05926
3.07478
3.0881
3.10239
3.11598
3.12986
3.14241
3.15273
3.15732
3.1514
3.13695
3.13285
3.13028
3.12913
3.12585
3.12142
3.12101
3.11575
3.13553
3.14428
3.1689
0.998158
0.998252
0.997991
0.997597
0.997031
0.996285
0.995325
0.994125
0.99265
0.990864
0.988729
0.986206
0.98326
0.979853
0.975955
0.971535
0.966573
0.961057
0.954859
0.948325
0.941101
0.93307
0.92517
0.916476
0.906701
0.897331
0.887848
0.876362
0.865517
0.855593
0.844502
0.831607
0.819896
0.810012
0.798665
0.78531
0.775095
0.767389
0.76327
0.759579
0.763775
0.770238
0.893403
1.78221
2.16805
2.20295
2.23124
2.32364
2.52474
2.87226
3.01096
3.04648
3.02085
2.98561
2.9796
2.96747
2.93716
2.92565
2.93052
2.92982
2.92388
2.91102
2.90884
2.91221
2.91345
2.91091
2.90851
2.91093
2.91394
2.91366
2.91088
2.91079
2.91247
2.91155
2.91075
2.91182
2.91517
2.9161
2.91983
2.92447
2.92677
2.93349
2.93589
2.94137
2.94127
2.94293
2.94043
2.93661
2.93273
2.93523
2.94655
2.96208
2.97813
2.9938
3.00528
3.01207
3.01912
3.03188
3.04547
3.06146
3.07541
3.09152
3.10773
3.12357
3.137
3.14764
3.15084
3.14374
3.12922
3.12627
3.1238
3.12233
3.11905
3.11448
3.11434
3.10896
3.1275
3.1361
3.16051
0.998151
0.998245
0.997982
0.997586
0.997016
0.996264
0.995297
0.994086
0.992597
0.990794
0.988636
0.986087
0.983106
0.979657
0.97571
0.971231
0.9662
0.960604
0.954389
0.947523
0.94039
0.932332
0.923802
0.915364
0.905426
0.895317
0.885711
0.875054
0.863189
0.85236
0.84184
0.829466
0.816412
0.804417
0.792989
0.779824
0.762543
0.744644
0.724448
0.700854
0.668868
0.688835
0.914126
2.06571
2.20335
2.25538
2.3076
2.50038
2.80138
3.01094
3.02862
2.99984
2.98685
2.96087
2.96801
2.9614
2.94286
2.92618
2.92581
2.92487
2.92175
2.91041
2.90393
2.9046
2.90488