/*--------------------------------*- C++ -*----------------------------------*\
| =========                 |                                                 |
| \\      /  F ield         | OpenFOAM: The Open Source CFD Toolbox           |
|  \\    /   O peration     | Version:  2.2.x                                 |
|   \\  /    A nd           | Web:      www.OpenFOAM.org                      |
|    \\/     M anipulation  |                                                 |
\*---------------------------------------------------------------------------*/
FoamFile
{
    version     2.0;
    format      ascii;
    class       volScalarField;
    location    "1.9";
    object      divBf;
}
// * * * * * * * * * * * * * * * * * * * * * * * * * * * * * * * * * * * * * //

dimensions      [1 -3 -2 0 0 -1 0];

internalField   nonuniform List<scalar> 
14161
(
664.568
340.67
327.804
293.83
265.87
240.896
216.357
197.261
180.015
163.105
155.206
140.348
131.545
146.642
125.411
83.7248
171.332
98.9542
52.3153
76.488
16.8557
-29.6828
4.29471
-215.817
-315.6
-365.791
-445.996
-552.443
-743.666
-991.395
-1313.73
-1687.38
-2104.24
-2616.03
-3301.91
-4054.07
-4608.13
-5207.15
-6682.8
-6240.5
-5564.97
-2920.87
-971.051
3400.61
1894.59
-22917.9
-27759.5
-26057.1
-28705.3
-30027.6
-29360.4
-30712.3
-29391.3
-31723.7
-30629.7
-31490.3
-29852.7
-27907.7
-29830.1
-26494.4
-25424.4
-25342.5
-22778.3
-22419.7
-22059.3
-19069.3
-16997.6
-14793.2
-14001.1
-14277
-11342.2
-8988.42
-7102.82
-4499.91
-3114.39
-2565.63
-1851.37
474.591
2683.48
4677.92
6290.7
6679.8
8280.06
10141.5
11282.5
10762.6
12028.4
13839.2
15383
16650.4
14645.1
15076.9
13705.4
16658.8
15966.9
13379.8
12715.5
11704.1
9995.33
8327.9
7077.44
4925.17
1925.41
-785.064
-4505.03
-6089.31
-6350.96
-4302.71
-2342.53
8201.32
11734.9
-4478.53
-8768.64
-9236.66
-6864.93
-7215.76
11290.6
-2686.95
116638
416.175
94.1697
81.7538
47.1137
18.0153
-9.60809
-36.8089
-60.2911
-82.2653
-102.893
-120.124
-140.438
-152.315
-159.94
-185.586
-210.471
-190.745
-234.658
-279.735
-307.024
-356.859
-374.474
-469.792
-619.92
-702.169
-810.318
-902.85
-1017.4
-1215.83
-1456.89
-1783.76
-2166.57
-2553.13
-3056.98
-3768.37
-4469.27
-5181.42
-5888.49
-6649.41
-6927.86
-6958.47
-3668.43
-2529.16
4838.91
1090.45
-20702
-24341.2
-23629.8
-27093.7
-28946.2
-26659.7
-28980.8
-26143.5
-28861.4
-27638.6
-26603.2
-25580.7
-21708.6
-23598.2
-24422.4
-20602.8
-19143
-18370.7
-15248.6
-15521
-15985.3
-12944.1
-10158.7
-9896.5
-8089.65
-5410.38
-6089.76
-5003.76
-2997.43
87.0907
977.024
3439.14
6106.93
5556.98
5825.45
8814.43
9027.41
9516.57
12363.8
13953.6
15461.9
17599
15751.7
16014.9
15426.5
17617.1
15553.8
15050.1
17753.1
16596.7
17020
16015.7
14512.1
12499.4
10834
8865.63
6339.44
3001.09
1853.7
3134.11
-3445.11
-4348.53
-15595.1
-20229.7
-32609.9
-40669.7
-35075.5
-26303.5
-22165
-17307.5
-16708.8
3929.92
-13544.3
77193.5
171.764
-145.973
-156.854
-190.499
-219.712
-247.874
-276.338
-303.047
-327.113
-351.228
-375.004
-398.035
-414.002
-435.277
-466.335
-482.937
-504.364
-523.481
-587.168
-650.465
-664.882
-744.413
-842.053
-950.633
-1052.46
-1186.46
-1294.22
-1411.69
-1592.19
-1828.8
-2139.72
-2518.44
-2897.94
-3413.34
-4060.89
-4626.11
-5353.51
-6127.26
-6796.23
-7307.23
-7864.49
-5334.49
-2647.53
7570.46
683.107
-17548
-23012.9
-22978.9
-26295
-28079.5
-26485.8
-28066.5
-26192.4
-27351.3
-26296
-25528.8
-26434.3
-22501
-23977.5
-22819.8
-18680.4
-19623.3
-18703.1
-15315.6
-15059.5
-14134
-11088.7
-10105.5
-10459.6
-8965.55
-4669.8
-4560.49
-2668.29
-446.526
796.507
755.343
3375.61
4045.28
5604.42
7393.36
10007.8
11298.6
12235
12785.6
12794.7
13710
15250.5
16974.5
18605
17874.2
19052.7
15972.8
17569.2
18652.4
17107.4
16755.4
15210.6
14305.3
12888.8
11241.5
8541.02
6275.87
6162.17
4931.29
1118.77
-2740.94
-5736.15
-4215.39
-8872.29
-11466.7
-14861.4
-24705.8
-22507.6
-18065.9
-12833.7
-10086.8
5169.98
-8371.81
60576.7
-66.8933
-378.584
-386.576
-417.815
-446.148
-473.635
-501.788
-530.749
-555.454
-580.717
-611.178
-634.7
-656.055
-685.36
-716.274
-731.995
-787.16
-776.098
-869.22
-958.652
-915.543
-1064.1
-1185.68
-1224.26
-1346.45
-1509.79
-1633.75
-1746.26
-1913.14
-2134.71
-2428.97
-2767.32
-3200.52
-3723.74
-4241.96
-4784.74
-5591.94
-6437.26
-7099.48
-8159.54
-8774.78
-6167.98
-159.313
9845.35
1201.88
-16362.3
-22799
-24404.7
-25462.8
-27767
-27095.7
-27320.5
-26162.7
-26617.4
-24555.1
-24764.8
-24660.6
-20927.2
-21912.8
-21112.8
-17634.3
-18053.7
-16313.9
-13271.8
-13533
-13094
-10256.5
-8279.27
-7730.76
-5243.42
-2860.99
-3349.22
-1888.75
528.626
1702.82
2605.61
4985.35
6173.45
7663.19
9864.49
11186.9
11034.5
12137.7
13013.1
14907.8
16142.6
17655.9
18545
18110.1
18404.5
20223.6
17376.6
18660.9
17558.4
17226.4
17828.9
15206.2
15696.3
15278.6
12321.8
10338.2
10270.1
7728.79
5284.43
1811.38
-1774.13
-5050.1
-11821.1
-13890.3
-12094.1
-12247.3
-16458.1
-15300.6
-12799.1
-9327.2
-7560.51
3468.44
-5848.86
43789.8
-298.455
-602.4
-606.574
-634.043
-660.506
-686.385
-713.044
-742.729
-767.414
-793.352
-827.584
-852.176
-875.378
-914.676
-940.191
-961.27
-1031.64
-1018.73
-1116.39
-1212.76
-1174.58
-1331.78
-1462.3
-1499.04
-1592.23
-1768.59
-1921.38
-2025.33
-2179.78
-2379.96
-2611.57
-2932.94
-3431.32
-3876.55
-4274.18
-4945.64
-5704.35
-6508.79
-7318.14
-8470.79
-7831.64
-5110.34
3448.27
14177
47.7374
-17459.2
-25391.4
-26649.6
-27278
-28791.8
-27931.5
-27382.6
-26693.8
-25492
-25352.1
-23548.9
-22386.4
-20811.7
-19276.9
-18298.5
-18733.5
-15619.3
-13798.6
-12545
-10397.4
-10158.1
-9414.92
-7027.23
-4770
-3529.52
-3009.89
-1299.35
-116.057
1330.04
2963.9
3900.72
6556.37
8543.91
8523.84
10139.5
13720.8
12026.7
12248.5
15053.5
15517.5
18536.5
16246.3
20716.5
17295.7
18860.2
20803.2
19112.3
18869.6
19032.8
18721.2
18179.9
15545
15652.6
14192.9
14191.7
12044.7
9661.59
7792.6
6344.54
5477.18
77.8603
-5226.26
-6897.51
-6238.4
-5783.59
-8826.41
-13177.3
-11569.7
-9603.94
-6600.83
-5087.73
1738.18
-4144.66
31312.6
-521.515
-816.199
-815.543
-838.587
-862.143
-885.62
-909.969
-939.189
-963.604
-989.054
-1024.95
-1049.84
-1075.25
-1119.09
-1145.2
-1170.12
-1243.28
-1253.71
-1333.25
-1413.7
-1427.57
-1565.36
-1660.83
-1757.13
-1815
-1993.61
-2135.65
-2276.88
-2398.6
-2590.4
-2794.82
-3068.92
-3507.65
-3900.31
-4284.1
-4920.66
-5651.6
-6485.26
-7366.28
-8924.95
-8973.61
-6041.69
6689.03
22838.8
-5320.63
-19665.4
-28353.6
-29835.2
-29144.4
-31857.4
-30015.8
-29292.6
-28096
-26799.1
-25603.2
-23996.2
-21303.7
-20154.8
-20141.3
-17684.7
-15023
-13997.1
-13078.4
-10863.8
-9831.74
-9269.72
-6195.97
-5009.75
-4321.08
-2657.88
-485.465
-562.113
1476.97
4789.39
4795.18
5393.36
7442.92
9293
9248.15
10916.8
14142.2
15613.5
14858.5
15880.2
18441.6
17040.8
17788
18285.9
20647.2
19445.2
20836.4
20605.1
21390.1
19866.6
18033
18910.5
17786.8
17184.6
17503.9
15500
12596.9
10697.2
10141.6
12199.7
9550.09
1469.69
343.031
-913.709
-1901.22
-4451.35
-8518.83
-9460.25
-7853.69
-6879.94
-4850.64
-3681.72
862.684
-3582.88
22425.4
-734.874
-1018.93
-1012.73
-1030.8
-1050.41
-1070.97
-1092.61
-1120.08
-1143.87
-1168.48
-1203.55
-1230.7
-1257.45
-1301.31
-1332.32
-1360.57
-1420.31
-1461.9
-1527.26
-1574.3
-1673.56
-1758.68
-1835.43
-1968.99
-2034.77
-2177.93
-2293.18
-2451.78
-2599.31
-2748.02
-2937.25
-3137.15
-3407.7
-3817.23
-4268.2
-4656.48
-5255.84
-6290.66
-7408.75
-8880.82
-7990.35
-4908.16
11883.3
25704.5
-9761.24
-24899.1
-32119.3
-34200.2
-31470.3
-33370.9
-33302.3
-30458.9
-29646.4
-27663.9
-25167.4
-22331.1
-20878.7
-18505.9
-17958.8
-15940.4
-12603.3
-11601.9
-10974.6
-8920.44
-9176.56
-6384.27
-4395.12
-3153.82
-830.857
712.468
-322.74
1414.07
1957.64
5279.98
8603.76
9319.2
9123.78
8976.34
12483.2
11789.1
12951.7
15883.8
17675.9
17585.8
18004.3
19698.7
18718.9
20452.3
21604.6
21430.5
22275.8
20431.8
22380.9
21170.4
19656.2
18975.6
20578
19584.6
17226.3
18301.2
14508.7
16630.9
16407.1
16511.3
5462.4
3969.45
3660.28
1004.05
-483.778
-4668.21
-6598.47
-6565.08
-5535.4
-4913.2
-3601.25
-2447.15
353.615
-3503.99
16669.6
-937.313
-1209.62
-1197.45
-1210.17
-1224.76
-1242.5
-1261.09
-1284.7
-1309.18
-1333.03
-1364.02
-1394.17
-1422.78
-1462.02
-1496.7
-1530.93
-1577.89
-1650.57
-1693.35
-1741.34
-1855.8
-1946.12
-1973.17
-2123.32
-2268.57
-2336.53
-2419.92
-2582.54
-2745.77
-2888.61
-3031.21
-3203.31
-3305.02
-3621.59
-4104.92
-4363.8
-4765.68
-5595.83
-6729.86
-8003.35
-8442.94
-8397.35
-2029.26
26663.8
-10369.5
-30846.5
-37169.8
-39426.5
-35064.4
-34864.3
-35799.4
-33063.1
-28600.1
-28791.3
-23642.8
-21601.9
-18555.3
-15626.3
-15617.4
-11517
-11061.2
-10023.4
-6882.61
-7422.92
-5110.54
-3677.99
-3405.25
-3821.72
1377.49
3039.92
3874.47
3421.52
4266.74
4782.65
8022.42
11382.1
14110.6
13778.6
12037.5
13225
14665.8
17532.6
19576.4
20976.4
20812
21284.8
21919.1
21609.5
21870
22784.6
22929.3
22944.5
21195.8
21006.8
22799.1
23067.3
22764
20124.7
21174.8
19789.1
21546.6
23035.9
25321.4
14977.2
9656.31
5811.59
4454.53
1794.18
-1160.11
-3757.29
-4371.73
-4340.38
-3599.56
-3334.68
-2751.75
-1670.45
-45.4116
-3659.95
12908.9
-1127.76
-1387.48
-1368.98
-1376.21
-1385.15
-1400.03
-1415.33
-1434.35
-1459.3
-1481.88
-1508.42
-1541.24
-1571.85
-1604.59
-1644.71
-1684.17
-1722.91
-1806.25
-1846.85
-1882.8
-2011.09
-2127.7
-2078.28
-2271.49
-2419.46
-2530.97
-2515.52
-2665.2
-2814.97
-2986.9
-3115.22
-3191.98
-3253.28
-3355.94
-3521.03
-4011.89
-4318.97
-4681.56
-5235.41
-5931.94
-7500.13
-8585.57
-22009.7
31550.3
-19055.7
-39999.7
-43765.1
-45605.5
-38932.2
-36203.2
-35487.5
-30924.4
-30534.5
-24423
-21752.4
-18707.9
-16833.3
-15496
-12737.4
-10409.6
-9595.92
-5963.91
-7414.25
-3445.26
-2467.13
208.752
-1045.75
1876.59
1680.64
5141.64
5873.5
7297.86
7032.54
8262.31
10406.5
11736.8
12387.2
15208.7
15436.7
15790.4
18682.1
19898.8
19920.1
21700.3
21762.2
22188.2
23138.3
22641.6
23022.1
23030.8
22527
24140.5
24125.7
26200.9
25879.5
24764.6
23625
22635.3
26857.3
28612.1
35905
27035.1
21112
14088.5
8096.04
6457.72
4192.07
47.5707
-907.818
-1709.74
-2696.85
-2530.84
-2369.22
-1772.29
-2218.62
-1258.45
-551.62
-3818.04
10091.2
-1305.22
-1551.77
-1526.8
-1528.32
-1531.84
-1543.17
-1554.87
-1569.94
-1594.06
-1615.72
-1637.72
-1672.12
-1704.73
-1730.66
-1776.83
-1818.28
-1854.12
-1935.21
-1980.97
-2019.62
-2135.84
-2264.76
-2240.78
-2378.26
-2500.3
-2666.91
-2646.93
-2731.21
-2858.64
-2992.8
-3145.39
-3244.31
-3299
-3202.93
-3153.41
-3190.56
-3339.34
-3485.15
-3552.6
-3690.29
-5178.1
-9421.31
-42007.9
11748.7
-26952.1
-51454.6
-49854.7
-50069.8
-42287
-33937.8
-28806.3
-24080.9
-20358.5
-21362.1
-17385.4
-15375.8
-14135
-11503.6
-7712.61
-7002.17
-5502.45
-3552.94
-3022.25
-3044.45
-1979.5
793.597
4327.89
2789.15
4080.34
6140.06
8184.93
10084.9
9669.03
10654.1
9925.09
12469.5
15189.8
16736.6
17562.7
19165.9
18891.2
20397.6
21129
22639.5
24029.8
23137.7
23632.4
23636.6
25249.2
26176.2
27993.8
27590.8
28104.3
26720.8
25598
26941.3
30526
33913.1
38328.9
40262.9
32293
21384.4
15797.8
10676
7688.04
5655.93
2931.11
623.252
1625.75
-1138.02
-1242.66
-1603.3
-1452.65
-1125.57
-2059.28
-1356.93
-1147.72
-4038.74
7698.75
-1468.85
-1701.89
-1670.49
-1666.23
-1664.68
-1671.85
-1680.27
-1691.74
-1713.71
-1735.07
-1753.07
-1787.01
-1821.29
-1843.35
-1892.04
-1933.1
-1971.03
-2044.59
-2095.2
-2148.11
-2245.92
-2332.93
-2401.16
-2479.14
-2577
-2704.64
-2812.06
-2825.04
-2891.74
-2980.77
-3124.67
-3271.77
-3259.16
-3231.88
-2905.69
-2533.41
-2366.81
-2132.84
-1653.37
-1358.51
-839.972
-6254.38
-32824.5
-45734.7
-50415.1
-58988.8
-41530.9
-34430.3
-28274.6
-25110.3
-23274.3
-19302.7
-15820.2
-13122.2
-10941.8
-8379.43
-7979.17
-6115.88
-2466.16
-2700.03
-3544.64
-1387.2
1160.34
1214.14
454.759
566.861
3543.06
5536.04
4502.92
7586.6
11910.7
14685
13890.5
12173.1
12939.5
11417.7
17329.2
19355.4
21696
20414.1
21199
21039
23015.6
24056.5
23980.7
25897.7
26808.7
26993
28352.1
28759.9
27902.5
29297.5
29635.3
29875.2
34828.4
37707.6
41230.1
47710.2
40203
30372.2
24490.6
15200
11839.5
8503.05
6438.06
4223.96
1750.4
2569.52
908.736
-455.186
-708.918
-1229.31
-1076.79
-928.414
-2327.96
-1824.35
-1702.65
-3966.1
5708.39
-1617.92
-1837.33
-1799.71
-1789.84
-1783.52
-1786.08
-1791.94
-1799.85
-1818.98
-1839.63
-1855.3
-1886.8
-1921.62
-1945.79
-1988.85
-2034.95
-2083.06
-2126.18
-2188.07
-2272.59
-2313.53
-2398.52
-2527.42
-2589.86
-2639.35
-2729.48
-2882.21
-2990.62
-2924.19
-3013.67
-3096.74
-3107.46
-3045.01
-2961.02
-2872.57
-2547.65
-1852.85
-1113.33
122.163
2271.42
4879.05
4651.07
-22557
-164037
-72780.7
-46020.3
-13934.8
-12795.3
-10041.3
-11640.2
-11935.3
-13444.3
-13392.4
-9863.88
-9251.11
-5899.81
-2592.51
-3016.57
-822.642
-36.57
-1572.85
-334.253
5298.77
5024.2
3716.02
4051.21
5113.98
7509.65
6919.81
7345.51
11455.3
14713.3
18221.6
16539.3
16774.8
16028.6
17935.8
21591.4
22905.6
22796.2
21785.2
22457.7
24139.1
27496.3
27792.4
28374.7
28729.6
28830.2
31711.5
32177
31974.2
35777.9
37213.2
40960.8
43949.9
52944.6
46950.6
39918.4
28745.8
21366.1
15439.4
11526.6
8172.87
6779.26
5049.62
2832.14
2914.14
1947.68
876.011
46.1351
-358.04
-1041.62
-1345.3
-560.613
-2235.58
-2057.65
-2117.36
-3741.74
4064.31
-1751.85
-1957.68
-1914.21
-1899.12
-1888.58
-1885.78
-1889.83
-1895.14
-1909.54
-1930.3
-1945.8
-1971.89
-2008.61
-2036.38
-2069.04
-2118.76
-2178.38
-2195
-2270.15
-2370.42
-2396.95
-2464.68
-2590.11
-2698.77
-2701.11
-2768.52
-2904.19
-3036.38
-3073.83
-3059.43
-3063.11
-3084.86
-3008.1
-2906.15
-2724.53
-2454.9
-1912.41
-1071.78
-168.609
569.774
74.5531
-7000.08
-41291.5
-201343
-182179
-24526.9
-9028.83
7587.69
11304
7985.68
2147.66
-4711.26
-8858.01
-7541.73
-5192.59
-4306.68
1117.24
641.279
-118.003
3078.05
2040.35
2372.43
4454.55
7498.02
6199.65
6968.34
8112.05
9437.46
11686.3
8831.39
11375.5
15533.4
19062.7
19263.3
18252.9
18047.1
18835.6
23011.7
23281.2
23839
27013.2
26245.4
27375.8
29249.2
32403.7
33141.7
33711.8
34448.9
36964.1
39793.7
42413.7
43833
46740.7
55506.4
48723.6
41581.3
31508
25993.7
17773.2
14612
10273.5
7770.33
6202.06
5330.78
3697.51
2768.66
2603.94
1570.54
1090.33
318.275
-98.8528
-802.26
-1832.22
-675.113
-1935.69
-2041.9
-2530.84
-3764.47
2705.87
-1870.17
-2062.69
-2013.95
-1993.99
-1979.55
-1972.08
-1973.93
-1977.43
-1987.21
-2007.11
-2023.63
-2044.48
-2080.9
-2114.63
-2136.5
-2185.81
-2254.49
-2264.87
-2338.22
-2437.23
-2484.9
-2507.71
-2630.39
-2771.02
-2806.26
-2804.76
-2921.21
-3048.34
-3189.82
-3191.83
-3048.35
-3046.13
-3051.62
-2952.34
-2734.97
-2439.48
-1817.77
-975.994
249.675
1818.02
3100.4
2810.15
-51863.1
-164712
-108873
-53162.6
-12533.1
-4770.47
-589.872
-87.3223
406.05
582.967
-709.125
-922.393
-431.187
-444.268
1887.41
1798.76
1453.08
4961.72
4716.76
4283.05
4735.17
9146.66
8576.85
8438.27
10765.9
10925.2
12251.3
12859.2
12360.5
15491.8
17273.1
21777
22586.8
23643.1
21198.1
25524.9
27595.2
28524.7
32789.1
32288.5
33437.5
34562.5
39208.9
41308.7
42488.5
44517.5
44825.9
48908.6
53130.9
53313.8
46506.9
39659
32618.7
27039.8
19278
16039.7
11772.8
8676.23
6968.95
5519.65
4221.44
4045.15
2410
2704.19
1909.93
1549.89
884.946
633.154
-285.945
-543.794
-1236.9
-1281.05
-1954.78
-1757.06
-2751.11
-3602.29
1535.1
-1972.57
-2152.22
-2098.89
-2074.51
-2056.39
-2045.4
-2044.44
-2046.56
-2052.73
-2070.44
-2089.14
-2104.87
-2139.13
-2177.07
-2195.19
-2244.43
-2306.73
-2335.38
-2392.42
-2472.66
-2549.93
-2565.68
-2670.06
-2789.29
-2885.87
-2846.14
-2920.43
-3051.79
-3248.93
-3303.36
-3144.84
-3046.72
-3057.98
-3124.49
-2985
-2878.79
-2665.99
-2303.52
-1543.85
-2615.76
-5858.69
-21483.9
-116994
-52447.8
-30364.1
-60877.6
-53015.7
-21077.8
-5679.5
-5270.85
-976.016
16.4246
55.6965
-29.2501
-929.117
1624.76
1425.15
3731.33
2902.8
3681.63
7377.48
4828.57
5640.39
7545.52
11576.3
13336
12157.2
14196.2
16534.7
16426.5
14229.8
17625.7
22649.4
22375.8
28151.6
29898.4
28934.8
31354.8
33792.3
37469.4
42380.9
42049.6
42949.8
45554.1
46663.8
50338.3
52156.1
55042.2
49802.4
43477.7
40458
32304.5
30403.5
24838.1
18520.9
15474.1
12174.2
9099.81
6974.06
5449.79
4397.77
3692.02
2933.8
2516.9
2197.89
2323.36
1515.98
1354.82
993.277
520.383
-146.821
-544.029
-738.777
-1447.19
-2164.65
-2004.46
-2648.78
-3370.24
433.287
-2058.84
-2226.26
-2169.16
-2140.62
-2119.69
-2105.67
-2101.59
-2103.2
-2106.5
-2120.96
-2141.4
-2155.64
-2185.06
-2223.18
-2247.98
-2291.75
-2344.99
-2389.27
-2437.23
-2502.96
-2584.44
-2636.14
-2701.14
-2785.01
-2907.98
-2940.83
-2962.66
-3074.87
-3172.86
-3314.42
-3378.84
-3136.72
-3178.57
-3239.25
-3298.72
-3124.07
-3113.08
-3044.02
-3095.01
-3802.55
-6650.83
-34304.7
-107403
-11893.6
-20414.2
-34267.3
-67059.4
-65107.3
-33287
-13759.2
-5514.66
-4982.75
-2872.24
-178.927
-210.255
-356.665
3087.51
4895.14
5191.95
6058.53
8417.81
7747.95
6447.69
9708.68
11659.7
13145.3
19282
18161.4
19304.1
24107.3
22968.5
22729.1
29255.8
30073.6
36339.8
40071.5
41235.9
43403
45599.6
50952.5
52096
53279.8
54515.9
57576.2
51696.7
45886.3
41334.8
37128.5
33090.1
26496.3
24698.2
20425.2
15613.3
13419.5
11056.1
8396.67
6656.47
5208.38
3967.99
3271.88
2578.5
2242.07
2062.15
2027.39
1580.35
1714.58
1471.39
1013.04
893.767
467.341
-75.528
-361.245
-607.514
-1814.95
-1792.63
-2112.11
-2450.55
-2971.18
-567.634
-2128.99
-2284.88
-2224.88
-2192.62
-2169.58
-2153.43
-2145.8
-2147.08
-2149.18
-2159.82
-2180.71
-2196.18
-2220.63
-2257.95
-2289.38
-2324.51
-2373.29
-2426.69
-2472.01
-2529.34
-2597.52
-2681.51
-2726.25
-2803.44
-2881.28
-2988.57
-3031.35
-3108.02
-3185.86
-3230.93
-3367.95
-3414.18
-3317.95
-3370.09
-3490.98
-3493.83
-3457.73
-3414.96
-3946.86
-3930.97
-8132.5
-55444.4
-63449.7
-10248.9
-13910.6
-15897.7
-30571.1
-51941.6
-63887.8
-35834
-23412.1
-10569.1
-6113.57
-6386.39
903.018
1780.68
2202.97
6597.66
6683.8
7314.95
11465.3
11933.6
11130.8
15001.5
17366.7
16460.4
24507.6
26563.7
26670.2
33938.9
35931.9
37703.8
40999.4
46249.2
51242
52153.2
55795.1
60395.1
62617.3
57534.3
52484.3
46891.4
42833.7
36595.9
33177.3
28519.9
25428.2
22783.3
18807.2
15392.1
12670.4
11102.5
8374.7
6874
5270.78
4438.47
3225.61
2447.52
1967.51
1472.27
1163.36
1187.7
1169.69
1220
977.091
988.472
1380.07
1095.57
691.828
490.559
109.094
-168.464
-522.927
-1856.09
-1787.7
-2238.69
-2444.17
-2560.78
-1343.75
-2183.12
-2328.24
-2266.09
-2231.16
-2206.23
-2188.51
-2178.26
-2178.58
-2180.38
-2188.25
-2207.74
-2226.16
-2245.41
-2280.15
-2320.17
-2346.93
-2387.95
-2454.03
-2502.15
-2539.19
-2602.18
-2704.19
-2765.26
-2794.25
-2869.18
-3009.37
-3089.89
-3121.29
-3189.35
-3242.41
-3390.07
-3519.16
-3517.74
-3536.29
-3657.51
-3799.51
-3847.88
-3981.47
-4503.13
-6526.88
-15239.9
-90342.3
-32248.7
-9186.55
-9535.09
-7922.05
-15318.1
-27445.2
-48174.7
-61443.5
-42691.6
-24384.5
-15189.9
-1828.18
-3094.65
3343.15
4858.46
8114.61
11744.5
11474.4
16120.9
21061.6
17398.5
24425.1
28938.7
27910.9
33837.6
39360.7
45183.7
50080.6
55146.1
56986.6
61662.1
65845.1
66985.4
60778.2
55322.8
48448.3
43222.7
38188.4
33856
29311.3
26925.6
22432.5
19523.1
16924.4
14308.3
11797.7
9917.8
9028.89
6174.8
5516.53
4104.17
3368.64
2269.55
1628.13
978.429
587.323
344.843
271.015
356.692
585.112
711.209
642.462
687.778
621.683
1073.35
1225.27
646.069
465.364
266.888
-432.53
-725.224
-1082.39
-1998.54
-2113.71
-2433.63
-2221.84
-1888.96
-2221.45
-2356.61
-2293.17
-2256.5
-2230.01
-2211.23
-2199.37
-2198.26
-2200.52
-2206.06
-2223.3
-2245.42
-2260.18
-2291.78
-2337.9
-2361.23
-2395.71
-2465.89
-2518.13
-2542.27
-2608.26
-2710.08
-2785.9
-2771.24
-2873.15
-3008.8
-3134.91
-3126.7
-3155.28
-3279.36
-3381.37
-3594.84
-3712.71
-3672.19
-3820.42
-3983.21
-4105.91
-4474.77
-4937.94
-6881.83
-22807.8
-78692.7
-6370.8
-5944.02
-7021.1
-3110.43
-7360.59
-13081.1
-23097.3
-40876.2
-58126.3
-50213.3
-29530
-12029.8
-569.248
7969.1
10985.8
13591.2
17953.5
23118.4
25817.5
30165.3
34258.5
38619.8
47277.1
50970.4
52878.2
61627.7
70528.8
72420.9
69292.5
63583.6
57450.8
49974
44318.8
40088.1
34790.9
30668
26784.8
23023.7
20233.6
17516.9
14717.5
12940.5
10897.4
9678.05
8020.53
6818.58
4893.16
4609.78
3182.76
2812.03
1689.18
895.883
400.899
-74.1566
-348.518
-645.697
-761.128
-655.395
-516.928
-340.314
-89.8823
43.7998
607.867
390.005
491.669
935.829
711.263
414.466
392.254
-371.833
-899.9
-792.982
-1823.15
-2082.89
-2508.76
-2223.6
-2272.23
-2244.38
-2370.42
-2306.57
-2269.08
-2241.09
-2222.34
-2209.42
-2206.39
-2209.96
-2214.28
-2228.38
-2252.19
-2267.91
-2294.7
-2339.69
-2367.18
-2398.64
-2462.82
-2517.17
-2548.67
-2606.33
-2692.89
-2770.83
-2800.8
-2858.92
-2966.9
-3123.74
-3186.86
-3143.64
-3251.43
-3410.43
-3596.46
-3794.27
-3849.81
-3866.07
-3989.74
-4028.54
-4169.29
-4216
-7293.53
-35155.4
-53800.6
-4875.43
-7373.95
-7775.2
-2184.67
-3871.13
-7171.36
-11761.3
-19662
-32744
-49203.2
-47418.2
-25817.3
-674.609
11158.9
20580.6
29781.9
34621.1
40048.6
46055.8
53540.9
56716
63936.6
69245
75782.8
76855.1
66316.5
58960.8
52574.3
45462.8
41373.1
36878.5
32125.1
27224
22670
20554.3
17962.2
15310.4
13592.5
12178.7
10237.8
9088.95
8059.52
6302.68
5450.42
4055.1
3927.53
2621.81
2468.23
1512.3
805.334
316.89
-376.839
-626.661
-979.439
-1483.29
-1547.36
-1443.88
-1296.95
-1034.97
-715.25
-467.343
-329.189
15.0106
565.856
208.187
594.974
738.084
311.682
177.139
-283.308
-923.014
-807.335
-1397.05
-1845.65
-2285.85
-2124.76
-2550.05
-2252.32
-2370.17
-2306.76
-2269.31
-2240.18
-2221.85
-2208.96
-2203.94
-2208.2
-2213.02
-2224.8
-2247.25
-2266.58
-2290.69
-2328.81
-2363.77
-2396.28
-2448.5
-2501.05
-2547.44
-2601.18
-2670.68
-2739.18
-2805.7
-2858.64
-2948.79
-3054.43
-3159.64
-3182.28
-3282.76
-3415.71
-3527.13
-3765.7
-3917.69
-3985.29
-4054.43
-4238.01
-4464.7
-5253.03
-9267.12
-56232.5
-39754.7
-6412.24
-5602.4
-6120.21
-895.954
-2354.73
-4565.9
-5635.74
-8426.01
-16143
-22072.4
-30746.5
-35538.7
-358.521
25713
44230.6
53494.4
62408.5
67228.3
76310.7
78706.4
76183.8
70173.1
60824.8
53586.3
50294.1
43127.8
37326.3
33235.5
28324.1
24249.4
22107.5
19148.8
16284
13994.2
11989.6
10742.1
9212.8
8453.65
7479.43
6221.47
5425.11
4749.75
3794.21
3222.79
2475.98
2271.3
1401.18
1254.21
678.318
47.401
-327.451
-1123.19
-1601.13
-1839.09
-1980.12
-2078.11
-1978.66
-1777.43
-1540.62
-1192.33
-884.813
-493.302
-602.441
403.217
304.339
133.619
650.313
340.164
23.8082
-45.6682
-701.012
-941.177
-1222.61
-1613.26
-2248.38
-2096.39
-2962.85
-2245.92
-2356.44
-2294.29
-2257.37
-2228.23
-2210.26
-2197.84
-2191.94
-2196.16
-2202.13
-2212.24
-2232.46
-2256.13
-2277.85
-2309.07
-2350.53
-2385.78
-2425.41
-2480.42
-2533.34
-2580.79
-2640.27
-2706.41
-2783.33
-2842.2
-2925.12
-2982.15
-3119.85
-3236.31
-3278.97
-3397.79
-3542.29
-3703.65
-3863.83
-4112.11
-4310.18
-4554.13
-4901.27
-6155.15
-13118.9
-63599.8
-21233.9
-5086.38
-5447.03
-6169.31
567.925
749.703
236.247
1004.92
824.469
-1031.08
-536.712
748.293
7480.42
24895.4
57612.9
75094.9
83067.5
79047.2
72092.9
64916.5
55048
50966.2
46867.4
40483.6
33800
29596.2
26530.7
23509.9
20480.3
17339.1
15215.2
13174.1
11924.9
10174.4
9298.11
7885.62
6936.4
6105.57
5766.93
5146.09
4698.65
3942.88
3682.8
2923.76
2610.68
1966.91
1680.63
818.54
302.152
-96.3327
-572.62
-932.205
-1217.5
-1800.66
-2338.64
-2518.06
-2393.8
-2416.3
-2262.69
-1995.29
-1633.28
-1174.48
-790.437
-571.224
-70.1398
462.285
318.618
306.693
536.238
-143.661
-128.666
-681.416
-953.024
-1116.78
-1245.69
-2026.79
-1880.87
-3132.59
-2225.87
-2329.91
-2269.77
-2233.9
-2205.67
-2188.17
-2176.66
-2170.65
-2174.28
-2182.39
-2190.74
-2209.21
-2236.69
-2255.43
-2282.61
-2329.37
-2364.76
-2394.45
-2447.87
-2513.6
-2557.31
-2598.65
-2664.05
-2760.49
-2831.87
-2872.09
-2933.22
-3072.97
-3211.14
-3260.24
-3380.83
-3520.92
-3637.4
-3823.6
-4054.91
-4275.94
-4607.24
-5028.4
-6985.62
-19502.1
-58833.6
-3797.19
-3640.58
-4094.08
-4341.88
3061.96
3215.72
3083.36
4302.42
6299.39
8276.31
13780.4
28657.5
64601.4
85971.1
86204.5
69187.2
59305.8
52923.7
46963.6
41835.9
36073
32000
28868.4
25314.2
21718.9
18946
16553.7
15095.1
13830
12755.7
12038.4
10307.4
9287.8
7971.74
7243.85
6294.33
5110.86
4448.48
3933.21
3357.72
3326.21
2827.94
2659.08
2194.13
1907.79
1368.04
1081.27
525.691
-156.58
-413.405
-727.413
-1222.51
-1814.72
-2390.29
-2466.36
-2519.5
-2659.87
-2762.98
-2583.64
-2317.3
-2038.46
-1583.76
-1038.2
-769.639
-755.407
376.908
381.742
183.113
560.643
209.72
-63.0459
-270.448
-490.429
-1183.52
-1229.02
-2050.11
-1753.63
-3359.56
-2192.97
-2291.27
-2233.8
-2199.73
-2173.03
-2155.92
-2146.15
-2140.69
-2143.31
-2153.13
-2161.89
-2178.24
-2206.16
-2226.18
-2250.72
-2296.59
-2332.79
-2358.84
-2408.65
-2481.34
-2521.24
-2554.23
-2619.9
-2723.8
-2795.35
-2816.18
-2888.49
-2982.91
-3173.92
-3318.86
-3302.58
-3454.42
-3580.92
-3736.09
-3955.95
-4181.99
-4335.8
-4361.31
-6676.48
-28272.2
-44237.8
-4626.68
-4487.73
-4232.81
-4084.92
3405.88
4099.47
4606.39
5919.89
12830.5
24925.9
48992.3
88524
130551
102209
64339.1
49283
39661.2
33780.2
29840.4
26897.4
24022.4
21116.2
18296.1
17056.4
15725.2
14797.6
12618.6
10978.6
10375
10027.9
9637.32
8717.47
7514.65
6948.72
6637.7
6011.03
5303.93
4922.37
4271.43
3523.77
3364.18
2914.2
2664.16
2239.89
1901.41
1309.6
913.285
372.647
-258.22
-566.076
-1019.76
-1724.79
-2152.87
-2363.72
-2565.31
-2883.73
-3005.23
-2936.61
-2774.79
-2597.49
-2304.74
-1916.28
-1189.55
-662.411
-627.92
-452.985
975.858
471.243
137.424
384.731
-367.807
-441.853
-556.298
-1116.25
-904.357
-1722.29
-1255.38
-3506.46
-2148.08
-2241.32
-2187.19
-2155.48
-2130.84
-2114.42
-2106.42
-2102.31
-2104.3
-2114.85
-2125.48
-2140.48
-2165.98
-2189.92
-2214.26
-2252.01
-2290.71
-2322.46
-2365.83
-2428.11
-2474.34
-2510.73
-2574.31
-2658.9
-2729.95
-2779.98
-2834.67
-2934.44
-3090.57
-3238.22
-3282.18
-3391.49
-3510.3
-3649.1
-3821.11
-3940.45
-4199.31
-4914.2
-8075.22
-44445.3
-33828.9
-5756.43
-4121.78
-3835.92
-2941.89
6218.93
7539.82
9177.82
15055.9
29627.6
59406.9
99028.6
146711
109073
69560.7
47592.5
35111
27758.8
23027.1
19867.7
17697.8
16252.6
14941.4
14184.3
12938.5
11986
11922.3
11347.4
9969.2
9738.69
9299.8
9484.77
8664.82
7852.62
7298.04
6866.81
6111.17
5514.13
4856.52
4117.61
3249.35
3004.62
2554.46
2335.79
1904.97
1487.59
943.176
574.732
246.375
-185.104
-557.242
-1190.62
-1838.73
-2022.73
-2085.8
-2549.05
-2974.6
-2849.92
-2780.37
-2705.3
-2588.42
-2380.1
-2076.64
-1563.84
-843.745
-669.758
-770.331
144.409
33.513
65.3001
330.522
12.1358
-64.5514
-185.418
-913.232
-820.155
-1701.75
-1135.9
-3856.2
-2092.13
-2180.93
-2130.74
-2101.81
-2079.55
-2064.59
-2058.18
-2055.71
-2057.88
-2068.64
-2081.3
-2095.42
-2118.45
-2146.11
-2170.5
-2200.55
-2241.77
-2280.1
-2316.79
-2365.68
-2420.76
-2465.74
-2518.37
-2587.7
-2658.97
-2729.72
-2789.82
-2884.95
-2947.25
-3121.78
-3260.48
-3309.84
-3451.79
-3634.21
-3819.01
-4129.73
-4475.41
-5545.73
-11419.9
-53910.7
-24743.4
-5345.33
-4401.15
-3724.07
-2869.04
6491.67
10709.8
19067.8
31996
62054.7
116088
153942
105244
68704
46583.2
32882.7
24643.9
19666.8
16486.1
14288.8
12779.4
12070.9
11611.3
11825.2
11282
10719.1
10312.3
10384.4
9757.11
9492.71
9082.03
9279.41
8777.25
8642.79
8165.35
7519.07
6933.58
6304.76
5533.73
4931.58
4000.67
3556.21
3060.73
2698.72
2211.13
1770.56
1318.68
943.615
480.36
95.2986
-597.488
-1276.64
-1602.87
-1928.05
-2179.01
-2789.31
-2932.46
-2682.5
-2745.65
-2716
-2592.25
-2468.92
-2267.71
-1822.21
-1050.18
-570.338
-635.922
-532.787
940.902
117.598
38.2812
5.15533
-333.65
-369.734
-842.774
-539.448
-1353.77
-717.151
-3931.44
-2026.14
-2111
-2065.28
-2039.46
-2019.86
-2006.99
-2002.09
-2001.54
-2004.48
-2015.06
-2030.06
-2043.77
-2064.83
-2095.09
-2118.71
-2144.53
-2187.6
-2228.62
-2257.78
-2299
-2360.19
-2414.97
-2453.67
-2505.98
-2587.04
-2664.63
-2715.61
-2794.79
-2859.53
-2985.44
-3171.35
-3292.38
-3361.22
-3530.75
-3707.08
-4011.95
-4496.73
-6284.99
-17530.2
-56423.8
-4606.61
-4495.02
-3832.62
-3288.26
-784.918
9965.2
17668.4
40123
69456
116068
149103
100336
65622.8
44537.2
31272.5
22962.6
17508.1
14218.4
12228.9
11110.7
10376.4
9997.1
9577.53
9568.87
9242.75
9379.67
8998.43
9102.09
9691.83
9776.01
9751.38
10000.4
9629.9
9731.49
9509.87
8193.9
8039.27
6987.75
6067.82
5588.92
4652.19
4020.61
3336.81
2750.26
2181.04
1712.52
1252.85
813.776
520.732
56.0297
-513.486
-1183.2
-1371.32
-1788.61
-2089.96
-2565.47
-2605.96
-2602.47
-2722.34
-2639.11
-2616.85
-2442.46
-2234.68
-1928.76
-1445.9
-801.819
-650.887
-608.38
7.72645
0.110949
-31.3209
180.369
-4.45274
22.6391
-473.185
-460.713
-1584.76
-700.88
-4253.12
-1951.12
-2032.47
-1991.65
-1969.1
-1952.66
-1942.21
-1938.67
-1940.42
-1944.71
-1954.89
-1971.38
-1986.54
-2005.87
-2035.81
-2060.79
-2085.31
-2126.06
-2167.47
-2194.6
-2230.1
-2295.12
-2351.92
-2379.83
-2420.9
-2496.63
-2591.73
-2654.07
-2690.9
-2762.71
-2821.77
-3019.18
-3218.9
-3245.24
-3303.21
-3409.86
-3840.79
-4551.03
-6934.08
-28381.2
-47834.7
-6761.68
-4690.03
-2598.99
-408.936
6892.29
21038.9
38218.4
74152.6
128922
142513
94678.3
62680.3
42295.6
29616.8
21790.4
16627.5
13234.6
11100.3
9767.42
9026.15
8608.87
8497.48
8345.43
8335.22
8251.99
8594.41
8652.59
8598.64
9009.99
9039.35
9034.41
9373.26
8899.83
9178.36
9114.71
8605.3
8740.26
7803.98
6674.79
6351.13
5295.13
4525.92
3593.73
2906.64
2175.75
1931.18
1497.71
1135.94
524.857
173.536
-428.284
-1322.84
-1447.34
-1868.3
-2367.54
-2239.41
-2565.58
-2913.18
-3074.76
-2900.11
-2777.08
-2655.6
-2411.14
-2280.08
-1842.72
-1092.42
-557.424
-447.088
-551.442
804.104
-31.943
13.595
-218.079
-294.324
-513.26
-207.239
-1156.88
-81.3498
-4257.11
-1868.14
-1946.3
-1910.73
-1891.57
-1878.54
-1870.9
-1868.77
-1872.7
-1878.9
-1889.06
-1906.22
-1923.28
-1942.08
-1969.61
-1997.34
-2022.77
-2056.94
-2097.14
-2130.16
-2162.66
-2216.87
-2270.01
-2306.76
-2338.53
-2404.31
-2499.32
-2559.74
-2586.18
-2647.7
-2722.32
-2806.97
-3024.54
-3189.84
-3088.67
-3021.34
-3275.04
-3603.76
-7392.62
-44227.3
-36667.6
-4027.58
-3884.49
-1422.13
4296.21
18395.8
45530
82524.7
129799
133716
88166.7
58432
39847.4
27932.3
20651.6
15804.1
12691.3
10644.5
9309.34
8443.1
7923.67
7734.62
7709.14
7773.11
7685.02
7656.15
7937.61
8055.96
8060.06
8208.41
8219.01
8342.45
8586.58
8246.73
8880.52
8636.02
8798.92
8527.72
7652.77
6844.19
6399.1
5374.24
4679.78
3591.55
2916.69
2276.78
1744.57
1447.83
915.437
419.15
231.951
-362.901
-1152.17
-1424.42
-2089.57
-2480.73
-2275.42
-2744.92
-3039.9
-3114.87
-2959.94
-2786.86
-2599.73
-2480.22
-2218.74
-1969.25
-1335.51
-935.287
-818.695
-608.796
369.845
-166.317
34.3691
95.6485
51.1204
-140.681