/*--------------------------------*- C++ -*----------------------------------*\
| =========                 |                                                 |
| \\      /  F ield         | OpenFOAM: The Open Source CFD Toolbox           |
|  \\    /   O peration     | Version:  2.2.x                                 |
|   \\  /    A nd           | Web:      www.OpenFOAM.org                      |
|    \\/     M anipulation  |                                                 |
\*---------------------------------------------------------------------------*/
FoamFile
{
    version     2.0;
    format      ascii;
    class       volScalarField;
    location    "1.9";
    object      rho;
}
// * * * * * * * * * * * * * * * * * * * * * * * * * * * * * * * * * * * * * //

dimensions      [1 -3 0 0 0 0 0];

internalField   nonuniform List<scalar> 
14161
(
0.999453
0.99946
0.999432
0.999383
0.999301
0.999188
0.999053
0.998889
0.998674
0.998416
0.998149
0.997861
0.997425
0.996991
0.996678
0.996197
0.995463
0.995078
0.994721
0.994113
0.993331
0.992797
0.992463
0.992442
0.992343
0.991886
0.991469
0.991482
0.991698
0.992207
0.99297
0.993807
0.995029
0.996976
0.99931
1.00182
1.00404
1.00747
1.013
1.01701
1.01961
1.01969
1.6727
2.6224
2.72267
2.72615
2.71923
2.7052
2.68868
2.66316
2.63861
2.61544
2.59293
2.57156
2.54934
2.52739
2.50638
2.48643
2.46986
2.45514
2.43974
2.42314
2.40815
2.39469
2.38402
2.3758
2.36506
2.35371
2.34426
2.33503
2.32757
2.32535
2.32101
2.31061
2.29942
2.28793
2.27877
2.27136
2.26887
2.27201
2.26767
2.25526
2.23941
2.22386
2.20981
2.19702
2.18881
2.18038
2.17121
2.15742
2.14783
2.13681
2.09992
2.07922
2.04988
2.02203
1.99485
1.96879
1.94553
1.92715
1.90782
1.8846
1.8598
1.83412
1.81719
1.81111
1.81591
1.85693
1.93168
2.06886
2.35364
2.6922
2.92001
3.05132
3.12941
3.16272
3.16614
3.15355
3.17957
0.999453
0.99946
0.999432
0.999383
0.999301
0.999189
0.999053
0.99889
0.998673
0.998415
0.998152
0.99786
0.997422
0.997004
0.996681
0.996181
0.995479
0.995064
0.994705
0.994132
0.993306
0.992782
0.99254
0.992467
0.992294
0.991849
0.99145
0.991461
0.991661
0.992145
0.992887
0.993745
0.995022
0.997003
0.999258
1.0017
1.0041
1.00728
1.01256
1.0169
1.01952
1.01956
1.67876
2.62159
2.72352
2.72531
2.71748
2.70351
2.68488
2.6619
2.63554
2.61199
2.5885
2.56671
2.54409
2.52058
2.49975
2.4797
2.46142
2.44435
2.42737
2.41201
2.39921
2.38603
2.37398
2.36316
2.35238
2.34255
2.33357
2.32379
2.31594
2.31265
2.30936
2.30113
2.29172
2.28327
2.27409
2.26569
2.26073
2.2578
2.252
2.24541
2.23774
2.22486
2.20938
2.19327
2.1803
2.16883
2.15895
2.14504
2.13534
2.12881
2.09815
2.07873
2.0497
2.01999
1.99328
1.96858
1.94631
1.92873
1.90642
1.88179
1.85715
1.8319
1.82206
1.82859
1.85555
1.92689
2.04317
2.26383
2.54308
2.7839
2.93739
3.05943
3.13322
3.16005
3.16769
3.14291
3.18369
0.999453
0.99946
0.999433
0.999382
0.999302
0.999189
0.999053
0.998891
0.998672
0.998414
0.998158
0.997859
0.997423
0.997024
0.996674
0.996167
0.995506
0.995038
0.994673
0.994131
0.993271
0.992817
0.992643
0.992461
0.992187
0.991758
0.991403
0.991405
0.991564
0.991973
0.992667
0.993565
0.99502
0.996994
0.99906
1.00141
1.00397
1.00671
1.01134
1.01627
1.01977
1.01966
1.68836
2.61905
2.72411
2.72562
2.71497
2.70114
2.67763
2.65752
2.62909
2.60426
2.57943
2.55628
2.53283
2.50946
2.48891
2.4689
2.451
2.43292
2.4147
2.39904
2.38542
2.37203
2.36046
2.34971
2.33828
2.32741
2.31791
2.30836
2.3005
2.29526
2.28938
2.28196
2.27613
2.27276
2.26831
2.25981
2.25006
2.24012
2.23148
2.226
2.2215
2.2176
2.20827
2.19325
2.17598
2.15719
2.14124
2.12666
2.11873
2.1152
2.09078
2.07212
2.04632
2.01876
1.99319
1.96967
1.94762
1.92891
1.90661
1.88416
1.86149
1.84477
1.85183
1.8854
1.95516
2.10062
2.30691
2.52868
2.67276
2.77494
2.88222
2.99082
3.07977
3.12797
3.1468
3.12188
3.17003
0.999453
0.99946
0.999433
0.999382
0.999302
0.999189
0.999053
0.998891
0.998671
0.998414
0.998165
0.997858
0.997427
0.997044
0.996664
0.996159
0.995539
0.995015
0.994637
0.994121
0.99323
0.99284
0.99271
0.992453
0.99206
0.991617
0.991314
0.991299
0.991399
0.991694
0.992292
0.993204
0.994906
0.996797
0.99859
1.00084
1.00344
1.00554
1.00926
1.01488
1.02023
1.01914
1.69887
2.61733
2.72915
2.72689
2.712
2.69618
2.66855
2.64824
2.61789
2.59083
2.56329
2.53623
2.50966
2.4855
2.46476
2.44469
2.42692
2.40761
2.38763
2.37038
2.35619
2.34612
2.33762
2.3256
2.31204
2.30001
2.29129
2.28379
2.27625
2.26882
2.26118
2.25412
2.25017
2.24907
2.24973
2.24422
2.23286
2.22044
2.20911
2.20135
2.19565
2.1943
2.19248
2.18182
2.16683
2.14765
2.12697
2.11298
2.10396
2.09923
2.07888
2.06352
2.04206
2.01746
1.99477
1.97281
1.95131
1.93049
1.90575
1.88724
1.87651
1.88226
1.9257
2.01603
2.18936
2.4137
2.60928
2.72435
2.7839
2.81489
2.87009
2.94546
3.03039
3.09018
3.11852
3.09992
3.14735
0.999453
0.99946
0.999433
0.999382
0.999303
0.999189
0.999052
0.998892
0.998672
0.998415
0.998169
0.997856
0.997434
0.997054
0.996657
0.996154
0.99557
0.995015
0.994609
0.994092
0.99322
0.992828
0.992716
0.992436
0.991941
0.991434
0.991177
0.991142
0.991193
0.991354
0.99178
0.992679
0.99454
0.996177
0.997779
0.999968
1.00226
1.0038
1.00662
1.0124
1.01936
1.01782
1.70643
2.61677
2.73532
2.727
2.70813
2.68786
2.65377
2.63006
2.59733
2.56828
2.53721
2.5057
2.47755
2.45121
2.42803
2.40769
2.38754
2.36697
2.34921
2.33261
2.31684
2.30579
2.29763
2.28943
2.28038
2.27195
2.2635
2.25644
2.24942
2.24111
2.23276
2.22592
2.22119
2.21874
2.21737
2.21823
2.21442
2.20547
2.19325
2.1804
2.17079
2.16472
2.16371
2.16025
2.15152
2.13878
2.12183
2.10768
2.09706
2.08713
2.066
2.05394
2.03674
2.01598
1.99872
1.97981
1.95706
1.93696
1.91294
1.90706
1.91972
1.97013
2.08877
2.28403
2.50573
2.66323
2.74392
2.78351
2.81214
2.83365
2.86898
2.92252
2.99558
3.05706
3.08823
3.07715
3.11761
0.999454
0.999461
0.999433
0.999382
0.999304
0.999191
0.999052
0.998892
0.998673
0.998416
0.998169
0.997855
0.997441
0.997057
0.996654
0.996154
0.99559
0.995042
0.994581
0.994028
0.993241
0.992833
0.99266
0.992379
0.991844
0.9912
0.990955
0.990928
0.990959
0.991058
0.99126
0.991942
0.993646
0.995126
0.996567
0.998515
1.00042
1.00176
1.00363
1.00833
1.01758
1.01687
1.70922
2.59722
2.7316
2.72227
2.69725
2.67259
2.63229
2.60497
2.56871
2.5373
2.50342
2.4668
2.43484
2.40682
2.38372
2.3641
2.34275
2.32242
2.30602
2.29498
2.2812
2.26488
2.25412
2.2486
2.24478
2.24406
2.23965
2.23002
2.22258
2.21776
2.21296
2.20856
2.20459
2.19719
2.18975
2.18716
2.18884
2.19204
2.18673
2.1745
2.15939
2.14584
2.13767
2.13437
2.13252
2.12692
2.11761
2.10933
2.09753
2.08514
2.06297
2.04874
2.03325
2.01811
2.00601
1.98655
1.96919
1.95698
1.94263
1.96555
2.02761
2.16502
2.37671
2.58147
2.70147
2.75414
2.77993
2.80115
2.81966
2.83656
2.86577
2.91022
2.9736
3.0295
3.06218
3.05872
3.08985
0.999455
0.999462
0.999434
0.999382
0.999305
0.999193
0.999052
0.998891
0.998676
0.998418
0.998168
0.997857
0.99745
0.997056
0.996653
0.99615
0.995596
0.995094
0.994557
0.993955
0.993305
0.992816
0.992494
0.992245
0.991787
0.990979
0.990612
0.990612
0.990683
0.990797
0.990826
0.991024
0.992126
0.993574
0.994811
0.996171
0.997799
0.999516
1.00067
1.00346
1.01283
1.01521
1.68663
2.5662
2.72186
2.71014
2.67551
2.64729
2.60103
2.57167
2.53381
2.49719
2.46423
2.42794
2.39409
2.36609
2.34261
2.3241
2.30792
2.29015
2.27369
2.2652
2.25989
2.24392
2.22897
2.22132
2.21663
2.21626
2.21966
2.21224
2.20189
2.19494
2.19192
2.19304
2.19839
2.19335
2.18154
2.17104
2.16472
2.16746
2.17411
2.17049
2.16021
2.14422
2.13186
2.12153
2.11726
2.11551
2.11393
2.11054
2.10084
2.08888
2.06846
2.05154
2.03809
2.02708
2.02131
2.00309
2.00077
2.00943
2.0261
2.1125
2.26007
2.46072
2.63996
2.72817
2.75652
2.76994
2.78469
2.80064
2.81448
2.83158
2.86129
2.90055
2.95542
3.00595
3.04106
3.04546
3.07096
0.999457
0.999463
0.999435
0.999383
0.999306
0.999196
0.999053
0.998891
0.998681
0.998422
0.998163
0.997861
0.99746
0.997048
0.996658
0.996151
0.995593
0.995135
0.994538
0.993887
0.993366
0.992795
0.992284
0.992077
0.991755
0.990825
0.990145
0.990155
0.990272
0.990472
0.990458
0.99012
0.99013
0.991127
0.992142
0.993015
0.994287
0.996014
0.99754
0.998757
1.0051
1.01379
1.61929
2.52331
2.71267
2.69507
2.64516
2.61257
2.55784
2.52809
2.49525
2.45936
2.42747
2.39972
2.36735
2.3419
2.31994
2.29726
2.28641
2.27216
2.25317
2.24414
2.23876
2.23234
2.22007
2.20933
2.20212
2.19794
2.19915
2.20092
2.1929
2.18106
2.17461
2.17356
2.18158
2.18784
2.18339
2.17107
2.1578
2.15318
2.15805
2.16397
2.15958
2.14878
2.1353
2.1241
2.11781
2.11434
2.11595
2.11455
2.10707
2.09733
2.08026
2.06335
2.05398
2.04681
2.0559
2.05084
2.07758
2.13316
2.21553
2.38854
2.55938
2.68852
2.75063
2.75968
2.75917
2.76846
2.78397
2.79489
2.8078
2.82681
2.85621
2.88971
2.93862
2.98563
3.02291
3.03538
3.0593
0.999458
0.999465
0.999437
0.999384
0.999307
0.9992
0.999054
0.998889
0.998689
0.998428
0.998154
0.997865
0.997472
0.997041
0.996664
0.996156
0.995582
0.995147
0.994523
0.993848
0.993387
0.992781
0.992138
0.991915
0.99167
0.990729
0.989664
0.989543
0.989685
0.989966
0.989986
0.989548
0.988183
0.987802
0.988149
0.988996
0.989903
0.990955
0.99214
0.993532
0.996232
1.00504
1.49581
2.45839
2.71232
2.67724
2.59823
2.5648
2.50587
2.47605
2.45591
2.43127
2.40202
2.37733
2.34902
2.3268
2.30456
2.28428
2.27275
2.25932
2.24385
2.23194
2.22624
2.21876
2.20763
2.19915
2.19247
2.18676
2.18462
2.1871
2.18198
2.1734
2.16367
2.15993
2.16166
2.17045
2.17095
2.16525
2.15485
2.14987
2.1498
2.15559
2.1555
2.14755
2.13869
2.12923
2.12485
2.12156
2.12684
2.12937
2.12071
2.11607
2.10514
2.08934
2.09886
2.10126
2.13015
2.15472
2.23852
2.36425
2.50642
2.6638
2.73602
2.76599
2.76303
2.75642
2.7572
2.76604
2.77752
2.78736
2.80198
2.82203
2.84869
2.87737
2.92262
2.96743
3.00671
3.02692
3.05162
0.999461
0.999467
0.99944
0.999386
0.999308
0.999203
0.999057
0.998887
0.998695
0.998436
0.998146
0.99787
0.997485
0.997036
0.996665
0.996166
0.995591
0.995138
0.994517
0.993861
0.99336
0.992765
0.992111
0.991754
0.991446
0.990584
0.989384
0.988942
0.988928
0.989159
0.989345
0.988985
0.987044
0.984696
0.983869
0.983774
0.984085
0.984193
0.984496
0.985596
0.985097
0.990931
1.26834
2.31322
2.71433
2.66153
2.54966
2.51972
2.46714
2.43358
2.42291
2.4082
2.37729
2.3633
2.33045
2.30938
2.2921
2.26665
2.26135
2.24412
2.22706
2.22089
2.2144
2.20464
2.19085
2.18215
2.1771
2.17235
2.16918
2.16727
2.16639
2.16101
2.15268
2.14339
2.14015
2.14337
2.15373
2.15659
2.15294
2.14492
2.14331
2.14585
2.15105
2.14904
2.14782
2.14194
2.13949
2.13547
2.14597
2.15258
2.14187
2.15497
2.1593
2.15071
2.18293
2.20057
2.27445
2.36551
2.5082
2.64951
2.73974
2.78774
2.78504
2.77138
2.75731
2.75293
2.75506
2.76062
2.76921
2.7824
2.79727
2.81612
2.83958
2.86559
2.90752
2.95141
2.99277
3.01872
3.04451
0.999464
0.999469
0.999442
0.999389
0.99931
0.999207
0.999061
0.998887
0.998701
0.998446
0.998144
0.99787
0.9975
0.997038
0.99666
0.996185
0.995609
0.995096
0.994515
0.993887
0.993264
0.992687
0.992149
0.991657
0.991066
0.990307
0.989314
0.988613
0.98818
0.988248
0.988444
0.98805
0.9862
0.982819
0.980836
0.97915
0.977657
0.97631
0.975474
0.975618
0.97378
0.968719
1.02321
1.98659
2.77142
2.67931
2.5285
2.49735
2.44538
2.39962
2.38681
2.3774
2.34612
2.3461
2.3078
2.28588
2.27318
2.24791
2.2426
2.22296
2.20793
2.2009
2.19739
2.18509
2.17216
2.16208
2.15668
2.15169
2.14649
2.14478
2.14504
2.14614
2.14104
2.12965
2.12018
2.12311
2.13525
2.14754
2.14877
2.14411
2.14106
2.1455
2.15314
2.15737
2.1639
2.162
2.16524
2.16378
2.18334
2.19857
2.19183
2.22589
2.24523
2.25903
2.34124
2.4078
2.52897
2.64948
2.7544
2.81168
2.82579
2.8069
2.78389
2.76377
2.75411
2.75172
2.75181
2.75584
2.76733
2.77814
2.79099
2.8081
2.82877
2.85359
2.89339
2.93846
2.9812
3.00939
3.03565
0.999467
0.999472
0.999445
0.999393
0.999312
0.99921
0.999067
0.998889
0.998705
0.998457
0.998147
0.997867
0.997516
0.997048
0.996646
0.996207
0.995638
0.995033
0.99451
0.993935
0.993148
0.992592
0.992161
0.991595
0.990621
0.989858
0.989208
0.988576
0.987732
0.987074
0.986941
0.986489
0.984931
0.982007
0.979863
0.977167
0.973255
0.969427
0.966592
0.965988
0.965031
0.95654
0.972065
1.5749
2.77361
2.72801
2.55199
2.49783
2.43253
2.37434
2.35038
2.33127
2.30685
2.3154
2.27209
2.25041
2.24307
2.21363
2.20712
2.18898
2.17698
2.17117
2.16738
2.15532
2.14267
2.13452
2.12978
2.12545
2.12199
2.11961
2.12324
2.12751
2.12965
2.12429
2.11244
2.11348
2.12714
2.14229
2.14708
2.14592
2.14892
2.15785
2.16867
2.1768
2.19518
2.20214
2.21043
2.21676
2.24771
2.27824
2.29498
2.35826
2.41358
2.47728
2.59756
2.68396
2.77902
2.83487
2.86882
2.85315
2.82692
2.79896
2.77686
2.75929
2.75275
2.75008
2.75024
2.75708
2.76646
2.77251
2.78422
2.79991
2.81798
2.84062
2.88065
2.92826
2.97174
2.99981
3.02586
0.99947
0.999476
0.999448
0.999397
0.999316
0.999213
0.999075
0.998894
0.998706
0.998469
0.998157
0.99786
0.997531
0.997069
0.996621
0.996219
0.995675
0.994989
0.994496
0.993976
0.993086
0.992458
0.992111
0.991541
0.990249
0.989359
0.988949
0.988568
0.987799
0.986062
0.984878
0.984238
0.98314
0.981134
0.97953
0.977087
0.97194
0.966088
0.961332
0.958562
0.95817
0.957528
0.986877
1.35979
2.53486
2.71982
2.60848
2.53852
2.46358
2.3829
2.35122
2.30693
2.27329
2.26773
2.22731
2.21128
2.20769
2.1756
2.16715
2.14959
2.13972
2.13401
2.12929
2.12333
2.11142
2.10456
2.1018
2.10153
2.10167
2.09853
2.10325
2.11633
2.12235
2.12325
2.11452
2.11616
2.12745
2.1446
2.15579
2.16228
2.17648
2.18991
2.20246
2.21815
2.25298
2.27719
2.30232
2.32927
2.38316
2.44688
2.50323
2.59137
2.67337
2.74714
2.82962
2.87164
2.89922
2.89157
2.87489
2.84604
2.81697
2.79238
2.77121
2.759
2.75243
2.75027
2.75243
2.75786
2.76283
2.76812
2.77931
2.79225
2.80796
2.82917
2.86954
2.91794
2.96241
2.9918
3.0167
0.999475
0.999479
0.999452
0.999402
0.99932
0.999216
0.999082
0.998903
0.998707
0.998481
0.998175
0.997853
0.997541
0.997097
0.996608
0.996219
0.995706
0.99498
0.994466
0.993972
0.993085
0.992341
0.991994
0.991472
0.99009
0.988903
0.988556
0.988421
0.987875
0.985697
0.982977
0.981969
0.981182
0.980101
0.979449
0.977843
0.973403
0.965812
0.959596
0.955164
0.950959
0.954994
1.01467
1.42841
2.16646
2.43007
2.54511
2.55213
2.48705
2.37777
2.33777
2.28425
2.24677
2.22342
2.1889
2.18189
2.17579
2.14272
2.13238
2.11763
2.10662
2.09898
2.09572
2.0948
2.09223
2.08839
2.08725
2.08857
2.09062
2.08892
2.09226
2.10914
2.12255
2.13021
2.12934
2.13398
2.14625
2.16589
2.18757
2.20472
2.23633
2.26034
2.28333
2.31972
2.37882
2.43313
2.4828
2.53824
2.61634
2.69842
2.76364
2.83653
2.89221
2.9225
2.93452
2.92823
2.90975
2.88781
2.86336
2.83427
2.80943
2.78802
2.76939
2.75977
2.75481
2.75238
2.75406
2.75625
2.7595
2.76618
2.77593
2.78442
2.79759
2.82083
2.86026
2.90613
2.95212
2.9839
3.00787
0.999479
0.999484
0.999457
0.999407
0.999327
0.99922
0.99909
0.998914
0.998708
0.99849
0.998197
0.997856
0.997543
0.997126
0.996615
0.996211
0.995719
0.994998
0.994436
0.993933
0.993117
0.99227
0.9918
0.991302
0.990042
0.988633
0.98818
0.988162
0.987713
0.985697
0.982094
0.980461
0.979708
0.979306
0.979352
0.978739
0.975804
0.968412
0.960632
0.958313
0.957485
0.973619
1.16146
1.72892
1.9643
2.08
2.29352
2.45974
2.44113
2.37225
2.32681
2.27412
2.23714
2.20409
2.16695
2.16441
2.15229
2.12387
2.11437
2.10375
2.09205
2.08261
2.08073
2.0794
2.08351
2.08644
2.08626
2.08968
2.09419
2.09364
2.10036
2.11402
2.13702
2.15735
2.16931
2.18891
2.20545
2.23142
2.26957
2.31065
2.36851
2.41586
2.459
2.52023
2.60214
2.67587
2.73494
2.78544
2.84723
2.90832
2.94363
2.96552
2.96795
2.96247
2.93928
2.91924
2.89916
2.87703
2.84988
2.82407
2.80458
2.78655
2.77138
2.76087
2.756
2.756
2.75565
2.75558
2.75873
2.76564
2.77098
2.77723
2.78956
2.81492
2.85186
2.89467
2.94156
2.97483
2.99776
0.999484
0.999489
0.999461
0.999412
0.999334
0.999225
0.999097
0.998927
0.998714
0.998496
0.99822
0.997867
0.997541
0.997153
0.996643
0.996194
0.995713
0.995046
0.994413
0.993863
0.993149
0.992283
0.991595
0.99102
0.990005
0.988635
0.987831
0.987578
0.987146
0.985672
0.982053
0.979855
0.978859
0.978575
0.978703
0.978844
0.977231
0.972369
0.963264
0.961284
0.964377
1.00213
1.47778
1.93677
1.94023
1.98251
2.08632
2.31506
2.38901
2.38424
2.33335
2.27687
2.24966
2.20618
2.16788
2.16216
2.1411
2.12171
2.11114
2.10135
2.09016
2.08448
2.08192
2.08057
2.08724
2.09672
2.09941
2.11252
2.12382
2.12458
2.14414
2.16391
2.19099
2.22883
2.26505
2.31255
2.34798
2.38859
2.45031
2.52654
2.6003
2.65737
2.70649
2.76503
2.83016
2.88298
2.91803
2.93991
2.96453
2.98236
2.98542
2.97533
2.96032
2.94684
2.92673
2.90891
2.88909
2.86454
2.84053
2.82055
2.80366
2.78764
2.7747
2.76371
2.75844
2.75885
2.75821
2.75699
2.75877
2.76182
2.76405
2.77086
2.78507
2.81099
2.84282
2.88557
2.93225
2.96437
2.98609
0.99949
0.999494
0.999467
0.999418
0.999342
0.999232
0.999104
0.998941
0.998725
0.9985
0.998243
0.997891
0.997537
0.997174
0.996691
0.996176
0.995704
0.995122
0.994414
0.993765
0.993134
0.992363
0.991431
0.990664
0.989856
0.988825
0.987658
0.98675
0.986102
0.985057
0.982808
0.980246
0.978536
0.977789
0.977662
0.977991
0.977461
0.975429
0.96791
0.966039
0.97155
1.05976
1.76788
1.98534
1.97208
1.96791
1.99586
2.11095
2.25684
2.35175
2.34816
2.3031
2.2859
2.22431
2.18592
2.17371
2.14418
2.12899
2.11793
2.10879
2.09492
2.10024
2.10421
2.09885
2.11855
2.13368
2.14009
2.17566
2.19696
2.21198
2.25925
2.29028
2.33434
2.39888
2.46507
2.53832
2.59316
2.64749
2.70332
2.75964
2.81007
2.85759
2.89497
2.92444
2.94167
2.95146
2.96268
2.97304
2.97939
2.97327
2.96726
2.95774
2.94618
2.93176
2.91557
2.89878
2.87773
2.85636
2.83883
2.8216
2.80454
2.7894
2.77804
2.76843
2.76126
2.75931
2.75951
2.75772
2.75637
2.75612
2.75786
2.76516
2.78105
2.80594
2.83471
2.87925
2.9248
2.95421
2.97412
0.999496
0.999501
0.999473
0.999424
0.99935
0.999241
0.99911
0.998954
0.998741
0.998505
0.99826
0.997923
0.997538
0.997191
0.996746
0.996175
0.995689
0.995184
0.994445
0.993673
0.993089
0.992438
0.991367
0.990332
0.98968
0.988973
0.987709
0.985916
0.985009
0.984378
0.983387
0.981625
0.978764
0.977055
0.976484
0.976477
0.976686
0.976155
0.973603
0.973922
0.986957
1.26365
1.92146
2.00959
1.99044
1.97732
1.97675
2.00262
2.07818
2.207
2.32363
2.32331
2.30124
2.25067
2.20796
2.1924
2.16168
2.14495
2.14119
2.14003
2.11768
2.14253
2.15632
2.15818
2.2045
2.22749
2.24501
2.31447
2.35754
2.40069
2.47271
2.52816
2.58791
2.64906
2.7062
2.76315
2.81116
2.85019
2.87675
2.89427
2.91113
2.92953
2.94262
2.94929
2.95128
2.95441
2.95675
2.95973
2.96298
2.95617
2.94938
2.93966
2.93087
2.91897
2.90334
2.8869
2.86977
2.85499
2.84056
2.82322
2.80662
2.79247
2.78173
2.77297
2.76339
2.75785
2.75777
2.7576
2.75373
2.75129
2.75332
2.76051
2.77468
2.79595
2.82886
2.87486
2.91767
2.94455
2.96286
0.999502
0.999508
0.999481
0.999431
0.999359
0.999252
0.999118
0.998967
0.998761
0.998513
0.998273
0.997958
0.99755
0.997201
0.996791
0.996189
0.995673
0.995211
0.994488
0.993625
0.99304
0.992448
0.991362
0.990125
0.989539
0.988977
0.987787
0.98542
0.984181
0.983744
0.983486
0.982702
0.979949
0.976668
0.975635
0.975339
0.975311
0.975643
0.975768
0.978479
1.00341
1.49622
2.01028
2.01319
1.99506
1.98348
1.97512
1.97557
1.9969
2.04798
2.17054
2.26818
2.30936
2.27026
2.23736
2.22146
2.20059
2.18082
2.20043
2.20349
2.18358
2.24264
2.26756
2.29991
2.38405
2.42215
2.46711
2.54826
2.60281
2.64984
2.70451
2.75651
2.80506
2.84051
2.86825
2.88675
2.89881
2.90667
2.91224
2.92013
2.9292
2.93508
2.93687
2.9351
2.93808
2.944
2.94565
2.94335
2.9433
2.93728
2.93313
2.92592
2.91652
2.90529
2.89149
2.87885
2.86764
2.85649
2.84123
2.82465
2.81016
2.79628
2.78496
2.77613
2.76618
2.75652
2.75384
2.75578
2.75273
2.74925
2.75039
2.75528
2.76676
2.78507
2.82194
2.86847
2.91014
2.93571
2.95205
0.999509
0.999515
0.999489
0.999438
0.999368
0.999266
0.999128
0.998979
0.998784
0.998529
0.998282
0.997991
0.997578
0.997207
0.996815
0.996228
0.995674
0.99521
0.994531
0.993632
0.992984
0.992404
0.991382
0.990085
0.989365
0.988835
0.987782
0.98532
0.983695
0.983246
0.983319
0.982984
0.981284
0.976847
0.975321
0.974872
0.974696
0.974609
0.97502
0.979773
1.02605
1.72443
2.05499
2.05321
2.03605
2.01887
2.00187
1.98597
1.97875
1.99156
2.03727
2.12042
2.22098
2.27132
2.29724
2.27266
2.29461
2.2643
2.31319
2.32776
2.34912
2.43207
2.48705
2.54486
2.62445
2.66711
2.70944
2.7566
2.79636
2.82635
2.85274
2.87009
2.8831
2.89314
2.90142
2.90694
2.90898
2.91014
2.91272
2.91649
2.92089
2.9232
2.92411
2.92405
2.92622
2.93044
2.93054
2.92715
2.92575
2.92138
2.9183
2.91296
2.90343
2.89262
2.88273
2.87555
2.86851
2.85729
2.84167
2.82785
2.81419
2.79967
2.78702
2.77773
2.76943
2.75812
2.75067
2.75109
2.75156
2.74836
2.74669
2.74882
2.75852
2.77655
2.81297
2.85897
2.90104
2.92626
2.94175
0.999517
0.999523
0.999498
0.999447
0.999377
0.99928
0.999142
0.99899
0.998807
0.998554
0.998292
0.998016
0.997626
0.997215
0.99683
0.996297
0.995695
0.995187
0.994569
0.993687
0.992937
0.992306
0.991423
0.990165
0.989208
0.988522
0.987585
0.985582
0.9836
0.982811
0.982732
0.982696
0.981617
0.978085
0.975526
0.974893
0.974884
0.974958
0.975845
0.985367
1.14366
1.887
2.06965
2.06833
2.06021
2.04593
2.03151
2.01456
1.99307
1.98997
2.01299
2.03653
2.10895
2.26753
2.35884
2.38791
2.43656
2.43225
2.49832
2.53158
2.58347
2.65565
2.71169
2.75609
2.79856
2.82372
2.83734
2.85087
2.8638
2.87484
2.88478
2.89158
2.89429
2.89663
2.89886
2.89782
2.89893
2.90232
2.90726
2.90916
2.9091
2.90804
2.91115
2.91298
2.91356
2.91449
2.91337
2.91035
2.90985
2.90789
2.90524
2.89969
2.89119
2.88343
2.87827
2.87539
2.86905
2.85729
2.84314
2.83063
2.81723
2.80244
2.78861
2.77809
2.77061
2.76233
2.75143
2.74601
2.74659
2.74376
2.74099
2.7422
2.75045
2.76898
2.80293
2.8479
2.89086
2.91621
2.93037
0.999526
0.999531
0.999507
0.999458
0.999387
0.999294
0.999159
0.999003
0.998829
0.998587
0.998306
0.99804
0.997682
0.997237
0.996843
0.996376
0.995739
0.995159
0.994595
0.993802
0.992892
0.992177
0.99144
0.990374
0.989083
0.98816
0.987299
0.985989
0.983875
0.982367
0.981853
0.981789
0.981296
0.979679
0.976675
0.97541
0.975295
0.975588
0.97748
0.993937
1.34373
2.013
2.07019
2.06715
2.06323
2.05849
2.05084
2.0422
2.0261
2.01329
2.03759
2.04793
2.09208
2.29579
2.46267
2.58219
2.6141
2.64031
2.68433
2.72515
2.76974
2.8049
2.82601
2.83719
2.84672
2.85458
2.86173
2.86895
2.87383
2.87788
2.88166
2.88264
2.88512
2.88649
2.88844
2.88907
2.89053
2.89335
2.89526
2.89567
2.8959
2.89496
2.89713
2.89853
2.89827
2.89751
2.8964
2.89414
2.89443
2.89473
2.89342
2.88878
2.8827
2.87788
2.87591
2.87503
2.86768
2.85586
2.84455
2.83334
2.81947
2.80475
2.79042
2.77823
2.77018
2.76445
2.75466
2.74358
2.73925
2.73699
2.73399
2.73568
2.74321
2.7608
2.79325
2.83731
2.88037
2.9058
2.91886
0.999536
0.999541
0.999518
0.999471
0.999398
0.999309
0.999179
0.999017
0.99885
0.998622
0.99833
0.998062
0.997737
0.997271
0.996863
0.996441
0.995801
0.995152
0.994623
0.993934
0.992892
0.992059
0.991413
0.990579
0.989092
0.987827
0.987041
0.986165
0.984583
0.982126
0.980923
0.980632
0.980704
0.980193
0.978895
0.976378
0.974895
0.975012
0.977375
1.00189
1.54
2.08902
2.085
2.07867
2.0734
2.07075
2.07015
2.06953
2.06108
2.06144
2.09928
2.12982
2.23934
2.49074
2.65448
2.7429
2.76231
2.77575
2.7923
2.80961
2.82494
2.83764
2.84448
2.84736
2.84845
2.8514
2.85582
2.86065
2.86499
2.86825
2.87029
2.87065
2.87054
2.87203
2.87457
2.87661
2.8779
2.87845
2.87841
2.87928
2.88104
2.88096
2.88215
2.88335
2.88303
2.88249
2.88237
2.88092
2.88119
2.88205
2.88155
2.8781
2.87474
2.87379
2.8739
2.87198
2.86325
2.85389
2.84564
2.83454
2.82002
2.80581
2.79192
2.77855
2.76849
2.76223
2.75544
2.74329
2.7332
2.72963
2.72733
2.7289
2.73634
2.75291
2.78407
2.82755
2.86996
2.89474
2.90645
0.999546
0.999551
0.999529
0.999484
0.999411
0.999324
0.999201
0.999037
0.99887
0.99866
0.998364
0.998086
0.997783
0.997327
0.996889
0.99649
0.995877
0.995174
0.994649
0.994021
0.992947
0.992013
0.991378
0.990647
0.989195
0.987625
0.986811
0.986163
0.98509
0.982417
0.980271
0.979731
0.979749
0.980003
0.979667
0.978333
0.974485
0.973814
0.976606
1.01583
1.7475
2.11496
2.11927
2.1137
2.10515
2.09764
2.09796
2.10172
2.10073
2.11947
2.19986
2.28569
2.49743
2.74774
2.81249
2.82936
2.82197
2.81721
2.81804
2.82192
2.82671
2.83114
2.83349
2.83297
2.83471
2.83867
2.84178
2.84458
2.84753
2.85042
2.85318
2.85506
2.85577
2.85779
2.85987
2.86207
2.86315
2.86328
2.86305
2.86349
2.86586
2.8667
2.86753
2.86824
2.86778
2.86728
2.86774
2.86759
2.86814
2.86842
2.86848
2.86739
2.86715
2.869
2.86929
2.86508
2.8578
2.85279
2.84609
2.83419
2.81989
2.80638
2.79334
2.77967
2.76676
2.75781
2.75186
2.74236
2.72969
2.72284
2.72155
2.72282
2.73041
2.74658
2.7765
2.8195
2.85991
2.88336
2.89376
0.999558
0.999562
0.999541
0.999498
0.999427
0.99934
0.999225
0.999063
0.99889
0.998696
0.998412
0.998114
0.997826
0.997404
0.996932
0.996523
0.995975
0.995247
0.994657
0.994054
0.993063
0.992029
0.991319
0.990631
0.989348
0.98762
0.986626
0.986015
0.985155
0.98304
0.980146
0.979034
0.978879
0.979088
0.979422
0.978939
0.976124
0.974722
0.980576
1.11475
1.8967
2.12069
2.12554
2.12512
2.12151
2.11679
2.12373
2.14057
2.15285
2.19805
2.35938
2.53305
2.76654
2.85948
2.86386
2.85023
2.83296
2.82201
2.81588
2.81381
2.81328
2.81267
2.81253
2.81088
2.81247
2.81549
2.81885
2.82208
2.82536
2.829
2.83294
2.8368
2.83962
2.84137
2.84283
2.84462
2.84551
2.8467
2.84748
2.84811
2.85057
2.85192
2.85267
2.85288
2.85223
2.8518
2.8519
2.85238
2.85328
2.85341
2.85471
2.85638
2.85877
2.86159
2.85986
2.85487
2.85162
2.84949
2.84258
2.83045
2.81786
2.80594
2.79348
2.7805
2.76608
2.75362
2.74569
2.73918
2.72759
2.71785
2.71602
2.71698
2.7237
2.73969
2.76913
2.81147
2.84993
2.87201
2.88153
0.99957
0.999575
0.999553
0.999513
0.999444
0.999356
0.99925
0.999093
0.998913
0.998731
0.998466
0.998152
0.997868
0.997491
0.996993
0.996559
0.996076
0.995369
0.994678
0.994077
0.993248
0.992125
0.991262
0.990549
0.989532
0.987797
0.986452
0.985679
0.984945
0.983608
0.980765
0.978503
0.977924
0.977993
0.97837
0.978616
0.977921
0.978683
0.990823
1.31361
2.02014
2.10807
2.11012
2.11651
2.12411
2.12572
2.14467
2.1886
2.25007
2.35971
2.60662
2.77342
2.87193
2.87568
2.86232
2.84455
2.82816
2.81642
2.80793
2.80143
2.79664
2.79231
2.78989
2.78784
2.78835
2.7883
2.79051
2.79389
2.79784
2.80273
2.80768
2.81333
2.81824
2.82071
2.82247
2.82463
2.82588
2.82866
2.83091
2.83233
2.83489
2.8362
2.83721
2.83719
2.83672
2.8364
2.836
2.83646
2.83736
2.83777
2.84091
2.84481
2.84735
2.84964
2.84714
2.84418
2.84465
2.84403
2.83671
2.82551
2.81445
2.8033
2.79214
2.77981
2.76628
2.75134
2.73978
2.73211
2.72322
2.7129
2.70933
2.71109
2.71775
2.73386
2.76292
2.80354
2.83993
2.86074
2.86939
0.999583
0.999588
0.999567
0.99953
0.999464
0.999375
0.999275
0.999127
0.998942
0.998765
0.998525
0.998201
0.997915
0.997578
0.997071
0.996607
0.996175
0.995511
0.994726
0.994121
0.993434
0.992317
0.991239
0.990459
0.989644
0.988188
0.986359
0.985255
0.984562
0.983687
0.982029
0.978654
0.976691
0.976472
0.976536
0.977038
0.977897
0.980797
1.00429
1.52012
2.08515
2.1044
2.10323
2.11067
2.12598
2.14253
2.18665
2.26193
2.42839
2.60491
2.82063
2.87543
2.87569
2.86464
2.84996
2.83207
2.81787
2.8067
2.79719
2.78903
2.78233
2.77643
2.77186
2.76971
2.7693
2.76834
2.7689
2.76943
2.77066
2.77419
2.77857
2.78453
2.79091
2.79501
2.79855
2.80144
2.80445
2.80904
2.81321
2.81595
2.81878
2.82003
2.82162
2.82174
2.82181
2.82198
2.82133
2.82138
2.82213
2.82301
2.82712
2.83197
2.83424
2.83506
2.83334
2.83359
2.83571
2.83551
2.82941
2.82095
2.81145
2.80036
2.7895
2.7784
2.76538
2.75033
2.73504
2.72418
2.71637
2.70748
2.70259
2.70463
2.71124
2.727
2.75565
2.79466
2.82942
2.8496
2.85752
0.999598
0.999603
0.999582
0.999547
0.999486
0.999397
0.9993
0.999165
0.998979
0.998801
0.998585
0.998265
0.997967
0.997657
0.997175
0.996683
0.996268
0.995661
0.994822
0.994185
0.993586
0.992546
0.991273
0.990419
0.989728
0.988612
0.986489
0.984889
0.984027
0.98346
0.982452
0.980019
0.975908
0.974306
0.973844
0.973825
0.974779
0.980141
1.02505
1.73706
2.11671
2.12333
2.12126
2.12794
2.14089
2.18942
2.2879
2.42541
2.6815
2.81061
2.87717
2.87015
2.85882
2.84914
2.83329
2.8174
2.80488
2.79512
2.78663
2.77904
2.77189
2.76493
2.75887
2.75507
2.75312
2.75095
2.74972
2.74912
2.74925
2.75122
2.75346
2.758
2.76443
2.76958
2.77527
2.77957
2.7848
2.78986
2.79501
2.79852
2.80143
2.80314
2.80544
2.80613
2.80696
2.80703
2.80617
2.80573
2.80676
2.80877
2.81305
2.81743
2.81952
2.81976
2.82095
2.82446
2.82633
2.82565
2.82136
2.81558
2.80726
2.79649
2.78485
2.77367
2.76144
2.74744
2.73087
2.7163
2.70716
2.70058
2.69586
2.69789
2.70514
2.7212
2.74873
2.7859
2.8188
2.83807
2.84476
0.999614
0.999619
0.999599
0.999565
0.999509
0.999422
0.999327
0.999204
0.999023
0.99884
0.998643
0.998343
0.998028
0.997737
0.997301
0.996784
0.996358
0.995823
0.994995
0.994292
0.993699
0.992811
0.991441
0.990456
0.989738
0.988806
0.986868
0.984785
0.983592
0.982972
0.982288
0.980723
0.976756
0.972441
0.971207
0.970907
0.971864
0.981855
1.12676
1.89712
2.10821
2.1194
2.12848
2.15275
2.18024
2.28245
2.47275
2.66331
2.841
2.8749
2.86464
2.85008
2.84242
2.83084
2.817
2.80374
2.79387
2.78614
2.77927
2.77219
2.7647
2.75726
2.75035
2.74517
2.74166
2.73818
2.73575
2.73425
2.73356
2.73371
2.73353
2.73604
2.74015
2.7444
2.75002
2.7559
2.76346
2.76952
2.77485
2.78029
2.78434
2.78722
2.79023
2.79127
2.79238
2.79222
2.79159
2.79189
2.79405
2.79705
2.80017
2.80217
2.80414
2.80552
2.80995
2.81482
2.81582
2.81552
2.81378
2.81052
2.80352
2.79315
2.78141
2.76921
2.7566
2.74236
2.72597
2.70981
2.69907
2.69364
2.69008
2.69175
2.69909
2.71454
2.74088
2.7765
2.80797
2.82644
2.83206
0.99963
0.999636
0.999617
0.999585
0.999534
0.999451
0.999355
0.999244
0.999075
0.998885
0.998703
0.998431
0.998105
0.997822
0.997442
0.996912
0.996458
0.995984
0.995239
0.994435
0.993811
0.993063
0.991805
0.990579
0.989716
0.988881
0.987404
0.985006
0.983312
0.982264
0.981714
0.980604
0.978149
0.972273
0.969801
0.969863
0.972284
0.993237
1.35364
2.02976
2.09379
2.1069
2.1285
2.19251
2.2731
2.47262
2.71045
2.82929
2.86986
2.85631
2.83883
2.83253
2.82331
2.8125
2.80072
2.79114
2.78371
2.77791
2.77234
2.76562
2.75799
2.75073
2.74403
2.73799
2.73297
2.72833
2.72469
2.72201
2.71959
2.71823
2.71713
2.71854
2.71994
2.7228
2.72694
2.73202
2.73995
2.74736
2.75358
2.76027
2.76573
2.77015
2.77358
2.77466
2.77622
2.77595
2.77642
2.77765
2.78011
2.78373