/*--------------------------------*- C++ -*----------------------------------*\
| =========                 |                                                 |
| \\      /  F ield         | OpenFOAM: The Open Source CFD Toolbox           |
|  \\    /   O peration     | Version:  2.2.x                                 |
|   \\  /    A nd           | Web:      www.OpenFOAM.org                      |
|    \\/     M anipulation  |                                                 |
\*---------------------------------------------------------------------------*/
FoamFile
{
    version     2.0;
    format      ascii;
    class       volScalarField;
    location    "0.05";
    object      divBf;
}
// * * * * * * * * * * * * * * * * * * * * * * * * * * * * * * * * * * * * * //

dimensions      [1 -3 -2 0 0 -1 0];

internalField   nonuniform List<scalar> 
14161
(
399.219
350.812
304.633
260.414
217.912
176.918
137.247
98.7372
61.2505
24.6675
-11.1126
-46.167
-80.5592
-114.325
-147.483
-180.023
-211.907
-243.068
-273.397
-302.744
-330.907
-357.623
-382.558
-405.293
-425.307
-441.961
-454.472
-461.887
-463.049
-456.559
-440.728
-413.523
-372.497
-314.704
-236.612
-133.974
-1.70265
166.316
377.412
640.381
965.772
1366.25
1857.01
2456.3
3186.03
-24482.5
-25092.3
-25555.4
-25875.3
-26056.1
-26102.3
-26019
-25811.4
-25485.3
-25046.3
-24500.6
-23854.3
-23113.7
-22284.9
-21374.5
-20388.8
-19334.3
-18217.5
-17044.7
-15822.6
-14557.7
-13256.5
-11925.6
-10571.7
-9201.46
-7821.64
-6439.01
-5060.38
-3692.61
-2342.57
-1017.03
277.297
1533.78
2746.07
3908.3
5015.11
6061.73
7044.17
7960.34
8808.43
9592.39
10309.2
10974.9
11585.6
12167.7
12728.8
13282.3
13908.3
14440.1
15308.9
16011.5
17821.5
17929.2
16769.6
21281.1
26734.4
53669.5
-103750
-81383.5
39211.4
-46080
-19400.9
-27335
-11256.4
-18025
-17933.8
-18395.8
-19911.2
-22028.7
-8609.31
-21220.3
-7819.66
-19334
421.817
151.514
104.533
58.8804
14.3539
-29.2275
-72.0281
-114.193
-155.855
-197.133
-238.134
-278.949
-319.661
-360.334
-401.021
-441.756
-482.552
-523.402
-564.269
-605.082
-645.736
-686.075
-725.889
-764.901
-802.756
-839.001
-873.072
-904.265
-931.713
-954.355
-970.894
-979.749
-979.007
-966.347
-938.966
-893.48
-825.812
-731.044
-603.264
-435.352
-218.748
56.8454
403.81
837.028
1374.41
2037.48
-21280.5
-21832.4
-22253.7
-22547
-22715.4
-22762.4
-22692
-22508.5
-22216.6
-21820.9
-21326.6
-20738.9
-20063.1
-19304.6
-18469
-17562
-16589.3
-15556.7
-14470.1
-13335.3
-12158.5
-10945.7
-9703.14
-8437
-7153.62
-5859.45
-4560.96
-3264.74
-1977.36
-705.444
544.364
1765.51
2951.66
4096.7
5194.69
6240.36
7229.29
8157.87
9023.65
9825.07
10564.7
11242.1
11871.4
12448.1
13002.5
13538.9
14065.7
14656.8
15169
15965.8
16629.4
18167.8
17885.3
17043.7
21266.4
12116.9
43660.9
-101075
-85128.4
45492.9
-27989.1
-10297.4
-23869.1
-11166.2
-15712.2
-15618.4
-16680.1
-18456
-21961.2
-7925.53
-19417.6
-6945.88
-18933.8
229.548
-91.4704
-135.569
-179.253
-222.642
-265.848
-308.977
-352.132
-395.407
-438.894
-482.68
-526.846
-571.466
-616.61
-662.334
-708.683
-755.69
-803.365
-851.699
-900.652
-950.151
-1000.08
-1050.27
-1100.49
-1150.44
-1199.72
-1247.83
-1294.13
-1337.83
-1377.94
-1413.25
-1442.27
-1463.2
-1473.8
-1471.41
-1452.76
-1413.92
-1350.12
-1255.62
-1123.47
-945.33
-711.114
-408.692
-23.4468
462.215
1069.48
-18506.5
-18999.9
-19376.3
-19637.6
-19786.4
-19825.4
-19757.8
-19587.2
-19317.3
-18952.1
-18496
-17953.2
-17328.4
-16626.3
-15851.7
-15009.7
-14105.3
-13143.7
-12130.2
-11070.3
-9969.43
-8833.3
-7667.67
-6478.42
-5271.54
-4053.17
-2829.51
-1606.86
-391.611
809.826
1991.04
3145.66
4267.5
5350.59
6389.3
7378.51
8313.88
9191.79
10010.7
10768.6
11468.7
12111.3
12707.7
13259.9
13786.2
14308.3
14819.3
15412.4
15953.8
16723.4
17540.9
19038.9
19031
19050.9
25946.7
17374.7
55773.4
-101619
-86218.3
59172.8
-34657.2
-9657.23
-20608
-7708.98
-14098.9
-15342.1
-16509.5
-17156.8
-19777.9
-6032.69
-18450.6
-5840.66
-18677.9
-1397.09
-328.258
-368.148
-408.566
-449.536
-491.092
-533.274
-576.128
-619.71
-664.076
-709.289
-755.413
-802.512
-850.649
-899.883
-950.268
-1001.84
-1054.64
-1108.66
-1163.89
-1220.29
-1277.76
-1336.18
-1395.36
-1455.02
-1514.83
-1574.33
-1632.94
-1689.92
-1744.36
-1795.11
-1840.76
-1879.59
-1909.47
-1927.83
-1931.5
-1916.69
-1878.75
-1812.09
-1709.93
-1564.08
-1364.68
-1099.81
-755.097
-313.221
246.693
-16083.9
-16519.9
-16850.6
-17077.5
-17202.6
-17228
-17156.5
-16990.9
-16734.4
-16390.3
-15962.3
-15454.1
-14869.6
-14213
-13488.4
-12700.3
-11853.1
-10951.6
-10000.5
-9004.84
-7969.64
-6900.16
-5801.81
-4680.13
-3540.82
-2389.72
-1232.79
-76.117
1074.15
2211.78
3330.57
4424.36
5487.13
6513.1
7496.92
8433.56
9319.13
10150
10924.3
11641.8
12303.5
12912.8
13477
14004.2
14509
15006.8
15501.6
16045
16581.5
17356.6
18232.9
18720.2
18819.3
19146.4
27257.5
14344
49117.1
-107610
-75490.9
49493
-25651.2
-2488.74
-19540.7
-9274.19
-12188.9
-13112.3
-15288
-13740.6
-18922.5
-8519.4
-17716.3
-5191.6
-17285.2
-2066.76
-557.426
-591.942
-627.967
-665.418
-704.238
-744.396
-785.875
-828.681
-872.834
-918.364
-965.315
-1013.74
-1063.68
-1115.2
-1168.36
-1223.2
-1279.75
-1338.05
-1398.08
-1459.83
-1523.23
-1588.19
-1654.53
-1722.03
-1790.38
-1859.17
-1927.86
-1995.77
-2062.04
-2125.58
-2185.06
-2238.81
-2284.8
-2320.54
-2342.96
-2348.36
-2332.23
-2289.1
-2212.33
-2093.9
-1924.11
-1691.26
-1381.19
-976.834
-457.612
-13953.8
-14334.8
-14620.6
-14812.3
-14911.4
-14920
-14840.1
-14674.2
-14424.9
-14095
-13687.7
-13206
-12653.5
-12033.6
-11350.1
-10606.9
-9807.9
-8957.37
-8059.66
-7119.28
-6140.97
-5129.59
-4090.22
-3028.11
-1948.68
-857.534
239.586
1336.82
2428.19
3507.67
4569.22
5606.89
6614.84
7587.5
8519.7
9406.9
10245.1
11031.3
11764.3
12443.3
13070.7
13650.4
14187.2
14696.8
15179.5
15678.2
16164.1
16709.2
17285.8
18145
19113.3
19396.8
20486.6
21769.2
31427
17282.9
50578.7
-100500
-80198
46800.4
-21374.5
-576.031
-21622.2
-5528.97
-11510.7
-9419.66
-14066.6
-12937.2
-18149.9
-6999.53
-17332.8
-3867.88
-16210.8
-3811.27
-777.63
-805.784
-836.473
-869.494
-904.69
-941.946
-981.181
-1022.34
-1065.41
-1110.37
-1157.25
-1206.07
-1256.88
-1309.73
-1364.66
-1421.72
-1480.96
-1542.41
-1606.07
-1671.95
-1740
-1810.13
-1882.21
-1956.04
-2031.34
-2107.73
-2184.72
-2261.68
-2337.77
-2411.98
-2483.03
-2549.31
-2608.86
-2659.25
-2697.54
-2720.09
-2722.51
-2699.44
-2644.37
-2549.43
-2405.08
-2199.8
-1919.65
-1547.81
-1063.94
-12070.4
-12399.4
-12641.8
-12798.7
-12871.2
-12861.1
-12770
-12600.1
-12353.5
-12032.7
-11640.3
-11179
-10651.8
-10061.8
-9412.14
-8706.34
-7947.97
-7140.83
-6288.86
-5396.26
-4467.37
-3506.78
-2519.29
-1509.88
-483.742
553.733
1597
2640.37
3678.03
4704.16
5712.89
6698.45
7655.25
8577.98
9461.73
10302
11095.6
11839.4
12532.3
13174.9
13767.8
14318.1
14828.7
15319.7
15783.2
16266.2
16741.3
17272.5
17906.5
18643.3
19363.9
19238.9
20966
23257.7
27335.3
9515.8
30350.8
-80379.7
-79318.2
41729.5
-10917.6
9121.52
-25134
-5434.57
-11078.8
-8938.05
-11115.2
-10967.1
-16402.9
-6980.34
-17920.1
-3856.37
-14562.7
-3890.7
-987.603
-1008.61
-1033.21
-1061.09
-1091.97
-1125.64
-1161.95
-1200.79
-1242.09
-1285.8
-1331.91
-1380.43
-1431.37
-1484.78
-1540.7
-1599.18
-1660.25
-1723.97
-1790.34
-1859.36
-1931.02
-2005.25
-2081.92
-2160.87
-2241.83
-2324.47
-2408.32
-2492.78
-2577.08
-2660.22
-2740.99
-2817.84
-2888.87
-2951.73
-3003.52
-3040.73
-3059.03
-3053.19
-3016.82
-2942.17
-2819.87
-2638.57
-2384.51
-2041.1
-1588.28
-10397.1
-10677.5
-10878.7
-11001.9
-11047.9
-11018.2
-10914.3
-10737.9
-10490.9
-10175.3
-9793.47
-9347.7
-8840.54
-8274.67
-7652.97
-6978.49
-6254.46
-5484.3
-4671.67
-3820.39
-2934.61
-2018.58
-1076.89
-114.331
864.117
1853.24
2847.63
3841.79
4830.07
5806.75
6766.22
7702.85
8611.28
9486.44
10323.7
11119.1
11869.3
12572.5
13227.4
13835.6
14397.9
14922.9
15410.1
15886.6
16340.2
16817.7
17305.5
17854.5
18592.1
19267.3
20116
20229.3
23255.8
25750.6
28730.9
9076.78
26671.9
-56009.6
-66236.1
22249.6
-5213.63
5695.38
-21762.2
-5719.99
-8726.29
-6272.73
-8184.99
-11121.7
-14837.3
-8511.31
-16465
-4445.24
-13363.1
-6315.36
-1186.18
-1199.45
-1217.43
-1239.64
-1265.69
-1295.29
-1328.18
-1364.21
-1403.24
-1445.19
-1490.01
-1537.67
-1588.19
-1641.59
-1697.9
-1757.15
-1819.4
-1884.68
-1953.01
-2024.41
-2098.86
-2176.3
-2256.63
-2339.71
-2425.29
-2513.06
-2602.59
-2693.3
-2784.46
-2875.11
-2964.09
-3049.9
-3130.69
-3204.17
-3267.54
-3317.33
-3349.33
-3358.39
-3338.24
-3281.26
-3178.22
-3017.92
-2786.82
-2468.51
-2043.23
-8904.64
-9139.62
-9302.22
-9393.13
-9413.31
-9363.94
-9246.26
-9061.78
-8812.1
-8498.99
-8124.36
-7690.24
-7198.87
-6652.61
-6053.98
-5405.73
-4710.74
-3972.22
-3193.45
-2378.12
-1530
-653.265
247.733
1168.42
2103.9
3049.13
3998.86
4947.68
5890.08
6820.59
7733.66
8623.98
9486.38
10316.1
11108.8
11860.9
12569.4
13233.1
13850.6
14423.9
14955.8
15454.6
15921.7
16379.6
16824.3
17293.2
17794.7
18336.8
19055.1
19495.2
20379.5
21335.7
25304.5
22652.8
20995.7
7729.5
3538.65
-38496.2
-48545.2
12954.9
-7182.45
5079.8
-8373.38
-4728.52
-14134
-6155.03
-11014
-7806.07
-12381.2
-6783.36
-15675.9
-5543.87
-13592.1
-7088.32
-1372.29
-1377.47
-1388.48
-1404.69
-1425.6
-1450.78
-1479.94
-1512.82
-1549.23
-1589.06
-1632.21
-1678.63
-1728.32
-1781.26
-1837.49
-1897.04
-1959.94
-2026.23
-2095.94
-2169.09
-2245.66
-2325.61
-2408.85
-2495.25
-2584.58
-2676.57
-2770.79
-2866.7
-2963.6
-3060.58
-3156.5
-3249.92
-3339.04
-3421.63
-3494.94
-3555.6
-3599.47
-3621.49
-3615.5
-3574.01
-3487.91
-3346.17
-3135.42
-2839.49
-2438.81
-7568.8
-7761.8
-7888.21
-7948.7
-7944.1
-7875.32
-7743.54
-7549.99
-7296.06
-6983.26
-6613.24
-6187.76
-5708.78
-5178.36
-4598.78
-3972.49
-3302.2
-2590.74
-1841.31
-1057.27
-242.332
599.569
1464.23
2347.16
3243.59
4148.6
5057.03
5963.6
6862.96
7749.72
8618.57
9464.39
10282.3
11067.8
11817
12526.7
13194.3
13819.3
14401.6
14943.2
15446
15921.2
16369.7
16814.6
17258.6
17724.1
18265.6
18808.4
19592
20027.1
21331.9
22983.4
25971.7
22509.3
18111.1
29658.5
-1907.51
-71325.8
8139.35
9321.09
-13689.9
10275.3
-7552.57
-4933.6
-15169
-5163.98
-13012.3
-3024.43
-11140.7
-7915.28
-14472.6
-5509.32
-12566.6
-8545.81
-1545
-1541.94
-1545.83
-1555.89
-1571.49
-1592.1
-1617.33
-1646.87
-1680.46
-1717.93
-1759.17
-1804.08
-1852.64
-1904.82
-1960.63
-2020.09
-2083.25
-2150.12
-2220.74
-2295.13
-2373.28
-2455.15
-2540.68
-2629.72
-2722.1
-2817.53
-2915.62
-3015.85
-3117.55
-3219.86
-3321.66
-3421.55
-3517.78
-3608.19
-3690.09
-3760.16
-3814.35
-3847.69
-3854.13
-3826.29
-3755.2
-3629.98
-3437.41
-3161.57
-2783.1
-6369.61
-6523.86
-6616.67
-6648.62
-6620.37
-6532.86
-6386.96
-6183.77
-5924.53
-5610.47
-5243.03
-4823.79
-4354.42
-3836.77
-3272.94
-2665.12
-2015.76
-1327.64
-603.666
152.866
938.455
1749.23
2581.1
3429.65
4290.24
5157.98
6027.83
6894.59
7753.05
8597.97
9424.27
10227
11001.6
11743.9
12450.6
13118.5
13746
14332.5
14878.5
15387
15863.2
16313.2
16745.8
17176
17620.7
18080.9
18631.7
19148.3
19923.5
20641.5
22365.1
22984.7
21987.9
22112.7
19363.9
50541.3
-11648.8
-112519
42462.1
9916.33
-10212.6
9931.58
-5107.18
329.697
-11323.6
-2717.93
-12901.8
-4111.7
-12097.4
-6187.48
-12644
-7004.84
-11726.7
-10116
-1703.48
-1692.23
-1689.04
-1692.97
-1703.26
-1719.28
-1740.54
-1766.66
-1797.33
-1832.33
-1871.51
-1914.75
-1961.98
-2013.16
-2068.31
-2127.41
-2190.51
-2257.63
-2328.78
-2404.01
-2483.29
-2566.61
-2653.9
-2745.04
-2839.85
-2938.07
-3039.33
-3143.14
-3248.85
-3355.62
-3462.38
-3567.77
-3670.09
-3767.21
-3856.52
-3934.76
-3997.97
-4041.25
-4058.66
-4042.92
-3985.19
-3874.74
-3698.57
-3440.87
-3082.6
-5290.34
-5408.92
-5470.57
-5475.84
-5425.35
-5319.8
-5160.04
-4947.02
-4681.67
-4365.21
-3998.84
-3583.89
-3121.9
-2614.57
-2063.69
-1471.39
-839.991
-171.991
529.67
1261.93
2021.25
2803.94
3605.9
4422.81
5250.05
6082.82
6916.1
7744.83
8563.89
9368.22
10152.9
10913.3
11645.2
12344.8
13009
13635.6
14223.3
14772.4
15284.4
15761.8
16209.6
16638.6
17056.2
17474.6
17926.1
18386.5
18966.4
19512.6
20363.8
21346
22854.6
23153
21032.9
27406.2
30112.6
53117.8
-44637.4
-82987.1
32877.3
-19065.2
16304.2
9487.86
-4606.26
2763.74
-7419.36
-3454.97
-11862
-5564.12
-9605.87
-6278.53
-12201.7
-7260.57
-11439.2
-10386.1
-1847.03
-1827.85
-1817.79
-1815.77
-1820.88
-1832.4
-1849.76
-1872.5
-1900.26
-1932.76
-1969.82
-2011.29
-2057.08
-2107.14
-2161.44
-2219.98
-2282.79
-2349.88
-2421.28
-2497.01
-2577.06
-2661.43
-2750.04
-2842.8
-2939.52
-3039.98
-3143.81
-3250.55
-3359.57
-3470.07
-3581.01
-3691.05
-3798.55
-3901.45
-3997.16
-4082.51
-4153.59
-4205.63
-4232.73
-4227.77
-4182.02
-4084.89
-3923.54
-3682.4
-3342.63
-4316.84
-4402.55
-4435.42
-4415.88
-4344.46
-4221.77
-4048.56
-3825.61
-3553.79
-3234.06
-2867.52
-2455.38
-1998.98
-1499.88
-959.74
-380.583
235.448
885.83
1567.84
2278.34
3013.97
3770.97
4545.31
5332.67
6128.47
6927.92
7726.12
8518.04
9298.74
10063.3
10807
11525.6
12215.1
12872.2
13494.3
14079.5
14627.4
15137.8
15614.1
16061
16482.3
16889.3
17292.7
17702.1
18153.4
18616
19206.9
19838.9
20777
21687.8
21994.8
23099.9
23448
32821.4
25246.9
39283
-65102.9
-50714.8
48334.8
-38379.9
17438.9
-3080.53
-1672.63
-488.976
-4647.5
-991.46
-6844.86
-7078.69
-8102.18
-7768.65
-11173.1
-7376.7
-10177.4
-11324.9
-1975.1
-1948.41
-1931.85
-1924.18
-1924.38
-1931.62
-1945.24
-1964.71
-1989.64
-2019.7
-2054.66
-2094.34
-2138.64
-2187.48
-2240.83
-2298.66
-2361
-2427.86
-2499.26
-2575.22
-2655.75
-2740.82
-2830.38
-2924.34
-3022.54
-3124.75
-3230.63
-3339.74
-3451.47
-3565.05
-3679.46
-3793.44
-3905.34
-4013.17
-4114.4
-4205.93
-4283.92
-4343.66
-4379.38
-4384.05
-4349.06
-4264.01
-4116.17
-3890.2
-3567.48
-3436.91
-3492.5
-3498.78
-3456.19
-3365.16
-3226.28
-3040.12
-2807.35
-2528.76
-2205.2
-1837.6
-1427.06
-974.832
-482.278
48.9042
616.895
1219.56
1854.45
2518.85
3209.69
3923.55
4656.72
5405.15
6164.5
6930.19
7697.47
8461.46
9217.27
9960.03
10685
11387.9
12064.6
12711.5
13325.9
13905.5
14449.3
14957.3
15431.5
15873.4
16288.7
16684.9
17069.4
17463.4
17861.4
18319
18798.7
19411.2
20128.9
21002.4
21963.6
22205.3
24665.2
28292.3
35570.8
18907.7
21345.6
-39602.2
-47483.3
35114.4
-5894.66
10090.1
-10950.6
6255.82
-3192.62
-2450.98
-3128.03
-1482.92
-9802.19
-6577.73
-7518.85
-9076.45
-8090.59
-9571.25
-10774.1
-2087.26
-2053.65
-2031.11
-2018.22
-2013.86
-2017.11
-2027.24
-2043.66
-2065.9
-2093.62
-2126.55
-2164.49
-2207.29
-2254.88
-2307.2
-2364.23
-2425.97
-2492.43
-2563.64
-2639.61
-2720.35
-2805.83
-2896.03
-2990.84
-3090.12
-3193.66
-3301.13
-3412.11
-3526.02
-3642.1
-3759.39
-3876.63
-3992.25
-4104.28
-4210.26
-4307.14
-4391.16
-4457.7
-4501.09
-4514.4
-4489.15
-4415.06
-4279.61
-4067.64
-3760.77
-2640.21
-2668.09
-2649.87
-2585.88
-2476.59
-2322.38
-2123.81
-1881.49
-1596.04
-1268.23
-898.901
-489.033
-39.8124
447.437
971.147
1529.52
2120.41
2741.45
3389.87
4062.58
4756.18
5466.85
6190.54
6922.88
7659.29
8395.02
9125.27
9845.2
10550.1
11235.6
11897.5
12532.1
13136.2
13707.7
14244.8
14746.9
15214.9
15649.5
16057.2
16442.8
16813.1
17178.8
17558
17955.1
18408.8
18922.4
19545.9
20329.4
21020.8
22076.6
23035.6
27418.3
27502.4
23315.4
15726.2
10785.8
-37587.5
-19439.6
25298.6
12629.1
7239.06
-3189.28
2719.81
-4236.57
-2033.54
-6476.16
-907.732
-8459.52
-5142.23
-7790.68
-8087.03
-8295.71
-9683.78
-9760.99
-2183.23
-2143.44
-2115.51
-2097.94
-2089.47
-2089.11
-2096.06
-2109.67
-2129.44
-2154.98
-2185.99
-2222.25
-2263.61
-2309.94
-2361.21
-2417.37
-2478.41
-2544.36
-2615.22
-2691
-2771.73
-2857.38
-2947.93
-3043.27
-3143.3
-3247.78
-3356.43
-3468.84
-3584.44
-3702.52
-3822.13
-3942.05
-4060.76
-4176.34
-4286.37
-4387.87
-4477.17
-4549.71
-4599.93
-4620.98
-4604.55
-4540.48
-4416.44
-4217.44
-3925.34
-1917.7
-1920.1
-1879.28
-1795.51
-1669.12
-1500.53
-1290.19
-1038.56
-746.265
-413.937
-42.4044
367.449
814.521
1297.5
1814.85
2364.77
2945.16
3553.53
4187.17
4842.87
5517.18
6206.24
6905.92
7611.8
8319.28
9023.65
9720.11
10404
11070.8
11716.3
12336.6
12928.5
13489.3
14017.1
14511.1
14971.3
15399.2
15798.6
16170.9
16525.3
16871.5
17218.1
17584.8
17981
18436.7
18983.3
19605.1
20459.5
21156
22736.9
24369.4
27172.8
23610.8
20781
36205.5
24868.6
-87280.5
29167.2
17433.8
37.3127
8493.54
2034.77
2428.37
-2415.13
-496.294
-1439.6
-5105.81
-4774.16
-5062.13
-8978.35
-6517.28
-8361
-8951.52
-8779.21
-2262.85
-2217.72
-2185.14
-2163.48
-2151.41
-2147.88
-2152.01
-2163.12
-2180.66
-2204.21
-2233.46
-2268.15
-2308.12
-2353.24
-2403.45
-2458.7
-2518.98
-2584.3
-2654.68
-2730.13
-2810.65
-2896.26
-2986.9
-3082.5
-3182.95
-3288.04
-3397.5
-3510.93
-3627.8
-3747.41
-3868.84
-3990.91
-4112.15
-4230.67
-4344.13
-4449.6
-4543.48
-4621.29
-4677.57
-4705.6
-4697.18
-4642.3
-4528.79
-4341.86
-4063.65
-1261.51
-1240.52
-1178.84
-1076.72
-934.436
-752.349
-530.78
-270.237
28.8099
365.728
739.822
1150.16
1595.69
2075.14
2586.96
3129.31
3700.03
4296.63
4916.25
5555.68
6211.27
6879.17
7555.1
8234.64
8913.15
9585.93
10248.3
10895.7
11523.8
12128.7
12706.9
13255.5
13772.5
14256.5
14707.1
15125.1
15512.4
15872.3
16211.1
16536.5
16858.9
17186.1
17543.9
17940
18400.6
18976.4
19608.8
20532.9
21418.3
23129.5
24167.9
23544.9
26258
27718.6
58360
-7988.26
-82639.6
36318.6
3595.43
6242.85
9369.16
5357.87
3293.94
1596.27
-1138
26.4817
-5698.11
-4196.18
-4907.44
-8335.1
-5224.08
-7799.07
-8787.87
-8090.27
-2326.13
-2276.57
-2240.12
-2215.05
-2199.96
-2193.72
-2195.43
-2204.37
-2219.96
-2241.75
-2269.4
-2302.66
-2341.33
-2385.29
-2434.45
-2488.78
-2548.25
-2612.87
-2682.66
-2757.63
-2837.79
-2923.14
-3013.65
-3109.26
-3209.85
-3315.24
-3425.17
-3539.25
-3656.99
-3777.69
-3900.48
-4024.23
-4147.48
-4268.4
-4384.71
-4493.55
-4591.36
-4673.8
-4735.47
-4769.77
-4768.63
-4722.19
-4618.43
-4442.81
-4177.63
-664.772
-622.276
-541.349
-422.233
-265.163
-70.3771
161.734
430.847
736.449
1078.01
1454.77
1865.92
2310.35
2786.77
3293.6
3828.95
4390.57
4975.9
5581.95
6205.38
6842.51
7489.27
8141.39
8794.32
9443.46
10084.1
10711.7
11321.8
11910.4
12473.8
13009
13513.7
13986.1
14425.5
14832.2
15207.7
15555.1
15878.9
16184.9
16478.9
16778.1
17090.2
17432.9
17837.2
18298.7
18912.3
19587.5
20602.2
21609.3
22834.6
24101
23865.5
31948
32267.1
39864.2
-30482.5
-55261.3
46970.3
-32101.6
22324.3
2561.93
4877.38
2657.97
3225.46
991.453
-773.333
-3058.29
-4634.22
-5060.22
-6511.17
-5848.37
-6063.91
-9450.68
-7040.57
-2373.18
-2320.2
-2280.71
-2252.93
-2235.41
-2226.98
-2226.7
-2233.82
-2247.75
-2268.02
-2294.27
-2326.23
-2363.71
-2406.57
-2454.73
-2508.13
-2566.76
-2630.62
-2699.72
-2774.08
-2853.73
-2938.65
-3028.83
-3124.21
-3224.69
-3330.09
-3440.16
-3554.56
-3672.79
-3794.2
-3917.93
-4042.89
-4167.67
-4290.49
-4409.12
-4520.75
-4621.95
-4708.39
-4774.82
-4814.74
-4820.21
-4781.52
-4686.83
-4521.78
-4268.96
-121.474
-59.1639
39.5028
174.357
345.237
551.834
793.958
1071.18
1383.12
1729.18
2108.71
2520.79
2964.35
3438.03
3940.18
4468.81
5021.62
5595.86
6188.44
6795.89
7414.37
8039.72
8667.58
9293.34
9912.36
10520
11112
11683.8
12232
12753.2
13244.7
13704.7
14132
14526.7
14889.7
15222.9
15529.9
15815.4
16087.6
16354.8
16629.6
16927.5
17261.4
17668.8
18146.2
18788
19532.4
20510.8
21567
22470.9
24693.9
27259.4
35192.7
23131.1
23445
-37835.7
-15869.1
38729.7
-24732.4
21320.1
-6998.11
9157.28
589.571
4909.8
886.593
663.751
-4338.31
-2856.14
-4559.68
-5559.42
-6080.93
-5223.03
-9428.8
-6609.31
-2404.28
-2348.88
-2307.21
-2277.45
-2258.12
-2248.02
-2246.19
-2251.87
-2264.44
-2283.43
-2308.48
-2339.31
-2375.71
-2417.55
-2464.74
-2517.23
-2574.99
-2638.03
-2706.37
-2780.03
-2859.02
-2943.35
-3033
-3127.94
-3228.06
-3333.2
-3443.14
-3557.53
-3675.9
-3797.64
-3921.92
-4047.67
-4173.53
-4297.77
-4418.21
-4532.13
-4636.14
-4726.04
-4796.65
-4841.58
-4853.05
-4821.47
-4735.21
-4580.08
-4338.93
373.704
454.257
569.33
718.766
902.428
1120.14
1371.6
1656.53
1974.46
2324.89
2707.07
3120.11
3562.85
4033.87
4531.42
5053.42
5597.37
6160.43
6739.36
7330.5
7929.87
8533.23
9136.07
9733.8
10321.8
10895.5
11450.6
11983.2
12489.9
12967.8
13414.8
13829.5
14211.3
14560.9
14879.8
15170.9
15438.4
15688.5
15928.5
16168
16418.8
16703
17029.5
17440.6
17942.6
18602.2
19400.3
20316.1
21575.1
22756.3
26798.8
28377.5
26875.2
19135.3
16592.6
-49118.5
18844.8
19420.8
11195.4
12747.3
-4781.38
8720.11
-952.026
3615.6
-3232.27
5944.5
-5747.01
-3033.43
-3302.42
-4448.6
-5195.1
-4741.81
-8646.62
-5967.64
-2419.8
-2363.01
-2320.04
-2289.03
-2268.5
-2257.26
-2254.32
-2258.92
-2270.45
-2288.42
-2312.47
-2342.32
-2377.77
-2418.67
-2464.94
-2516.53
-2573.41
-2635.6
-2703.1
-2775.94
-2854.16
-2937.75
-3026.7
-3120.99
-3220.52
-3325.16
-3434.68
-3548.75
-3666.95
-3788.66
-3913.1
-4039.24
-4165.76
-4290.97
-4412.77
-4528.47
-4634.79
-4727.59
-4801.82
-4851.21
-4868.08
-4843.03
-4764.57
-4618.77
-4388.67
825.448
922.837
1053.04
1216.01
1411.57
1639.6
1899.82
2191.96
2515.56
2870.07
3254.74
3668.58
4110.41
4578.65
5071.48
5586.63
6121.5
6673.04
7237.82
7812.05
8391.62
8972.1
9548.97
10117.6
10673.3
11211.9
11729.1
12221.4
12685.6
13119.5
13521.3
13890.3
14226.5
14531.2
14806.6
15056
15284.3
15497.7
15705.1
15918.8
16149.1
16419.1
16743
17157.8
17682
18349.7
19198.7
20127.1
21851.6
23622.1
26430.3
24444.2
22745.6
38579.9
39286.4
-77524
19487.3
13007.1
16820.7
6888.91
3727.39
10569
-1990.54
5441.93
-3856
4959.12
-5339.95
-2568.19
-777.062
-5487.85
-3255.37
-5581.98
-6143.63
-5499.01
-2420.25
-2363.08
-2319.65
-2288.11
-2267.01
-2255.13
-2251.53
-2255.42
-2266.21
-2283.41
-2306.67
-2335.71
-2370.32
-2410.37
-2455.77
-2506.47
-2562.47
-2623.75
-2690.36
-2762.3
-2839.62
-2922.32
-3010.42
-3103.87
-3202.6
-3306.48
-3415.32
-3528.8
-3646.5
-3767.85
-3892.1
-4018.25
-4145.01
-4270.76
-4393.44
-4510.47
-4618.58
-4713.79
-4791.11
-4844.4
-4866.11
-4847.01
-4775.8
-4638.71
-4419.09
1237.91
1350.81
1495.02
1670.47
1877.1
2114.71
2383.11
2681.95
3010.81
3369.06
3755.92
4170.33
4610.96
5076.17
5563.94
6071.86
6597.16
7136.57
7686.52
8243
8801.77
9358.31
9908.01
10446.3
10968.6
11470.7
11948.8
12399.7
12820.6
13209.6
13565.8
13888.8
14179.4
14439.3
14671.5
14879.9
15070.2
15249.6
15427.1
15613.9
15823.6
16080.4
16403.6
16819.6
17367.6
18046
18993.6
20077.1
22024.6
23296.3
23596.3
27150.2
28799.6
56075
4650.32
-81415.1
30167.1
-8494.31
14130.7
10568
11498.2
7804.27
297.989
7117.07
-3079.54
2629.97
-2612.22
-3957.6
1550.69
-6097.47
-1148.24
-6159.08
-5256.82
-4833.25
-2406.26
-2349.67
-2306.59
-2275.23
-2254.13
-2242.13
-2238.27
-2241.82
-2252.16
-2268.84
-2291.51
-2319.88
-2353.78
-2393.06
-2437.64
-2487.49
-2542.59
-2602.94
-2668.58
-2739.54
-2815.86
-2897.54
-2984.61
-3077.04
-3174.77
-3277.68
-3385.58
-3498.18
-3615.09
-3735.77
-3859.47
-3985.25
-4111.87
-4237.74
-4360.88
-4478.75
-4588.2
-4685.31
-4765.19
-4821.84
-4847.86
-4834.14
-4769.6
-4640.67
-4430.94
1614.76
1741.98
1899.13
2086.17
2303.01
2549.52
2825.44
3130.49
3464.12
3825.71
4214.37
4628.96
5068
5529.74
6011.94
6512.06
7027.07
7553.56
8087.73
8625.45
9162.25
9693.6
10214.8
10721.4
11208.9
11673.3
12111.2
12519.7
12896.5
13240.3
13550.6
13827.8
14073.2
14289.3
14479.2
14647.8
14800.9
14946.1
15093.5
15256.7
15451.5
15692.7
16014.5
16435.4
17004.5
17719.8
18766.9
19964.5
21525
23160.4
23965.3
32056.1
30973.7
34209.8
-33403.6
-30404.3
46170.8
-30049.8
17986.9
6306.24
10171.6
2982.18
2155.51
7346.72
-1290.67
1915.66
-433.361
-2344.63
-1543.45
-2244.85
-3134.76
-4215.85
-5134.4
-4858.92
-2378.53
-2323.44
-2281.49
-2250.95
-2230.42
-2218.76
-2215.06
-2218.59
-2228.77
-2245.17
-2267.42
-2295.29
-2328.58
-2367.18
-2411
-2460.01
-2514.2
-2573.59
-2638.22
-2708.11
-2783.31
-2863.85
-2949.75
-3040.99
-3137.52
-3239.23
-3345.95
-3457.41
-3573.25
-3692.92
-3815.75
-3940.8
-4066.9
-4192.49
-4315.65
-4433.92
-4544.23
-4642.73
-4724.68
-4784.16
-4813.93
-4805.05
-4746.59
-4625.25
-4424.84
1959.28
2099.69
2268.78
2466.52
2692.8
2947.51
3230.38
3541.03
3878.95
4243.39
4633.36
5047.62
5484.57
5942.2
6418.19
6909.72
7413.6
7926.18
8443.47
8961.16
9474.75
9979.52
10470.9
10944.3
11395.7
11821.3
12218
12583.2
12915.4
13213.7
13478.3
13709.9
13910.8
14083.7
14232.5
14362.5
14480.2
14593.9
14714
14852.8
15028.1
15259.7
15579.3
16008.6
16602
17366.5
18443.5
19733
21173.7
24143.8
26695.1
31646.2
19555
19233.1
-48860
34046.6
24760.4
-11383.1
16994.6
-1058.79
7048.22
1218.66
4962.13
6919.38
1002.08
1370.67
912.29
-1094.75
-2854.22
-2718.61
-2291.68
-2975.97
-3819.08
-5045.32
-2337.88
-2285.11
-2245.01
-2215.9
-2196.46
-2185.58
-2182.4
-2186.23
-2196.52
-2212.84
-2234.87
-2262.37
-2295.17
-2333.15
-2376.25
-2424.44
-2477.73
-2536.13
-2599.68
-2668.43
-2742.42
-2821.7
-2906.28
-2996.16
-3091.3
-3191.6
-3296.91
-3406.98
-3521.45
-3639.84
-3761.46
-3885.44
-4010.63
-4135.55
-4258.31
-4376.53
-4487.22
-4586.64
-4670.12
-4731.92
-4764.89
-4760.27
-4707.34
-4592.99
-4401.31
2274.34
2426.94
2607.04
2814.63
3049.6
3311.82
3600.98
3916.68
4258.3
4625.03
5015.77
5429.08
5863.24
6316.08
6785.01
7267.05
7758.75
8256.26
8755.43
9251.79
9740.68
10217.5
10677.5
11116.6
11530.6
11916.2
12270.8
12592.3
12879.6
13132.6
13351.7
13538.8
13696.2
13827.4
13936.8
14029.9
14113.6
14196.4
14289.4
14407
14568
14789.7
15105
15546.7
16161.3
16975.9
18073.9
19609.9
21344.8
25344.1
24354.3
22256.1
26669.8
33145.9
-74759.5
31069.4
6059.26
15512.6
18555.8
-4761.29
7541.62
3690.19
5357.07
4542.79
1959.25
1586.09
2421.59
-106.708
-2467.44
-3686.02
-1268.98
-3161.9
-1706
-4493.36
-2285.2
-2235.51
-2197.88
-2170.75
-2152.85
-2143.16
-2140.85
-2145.27
-2155.9
-2172.35
-2194.32
-2221.58
-2253.98
-2291.42
-2333.84
-2381.24
-2433.6
-2490.98
-2553.41
-2620.94
-2693.63
-2771.52
-2854.65
-2943.01
-3036.58
-3135.27
-3238.95
-3347.38
-3460.22
-3577.01
-3697.12
-3819.68
-3943.6
-4067.44
-4189.39
-4307.12
-4417.73
-4517.57
-4602.09
-4665.63
-4701.25
-4700.31
-4652.31
-4544.34
-4360.76
2562.51
2726.34
2916.58
3133.22
3376.16
3645.18
3940.01
4260.11
4604.84
4973.22
5364.04
5775.73
6206.33
6653.5
7114.44
7585.89
8064.25
8545.45
9025.11
9498.68
9961.46
10408.8
10836.1
11239.4
11615
11959.9
12271.7
12549.2
12791.7
12999.7
13174.3
13317.8
13433.2
13524.3
13595.9
13654
13705.8
13760.4
13829.1
13926
14068.7
14285.6
14598.6
15050.6
15688.7
16568.7
17740.1
19693.4
21282.6
22826.2
23420.4
24157.3
51257.2
51343.6
-98382.1
28077.2
-5155.28
17115
13956.6
1149.77
4894.85
5365.89
4893
2805.08
3452.56
1956.62
4142.72
-485.272
-2106.92
-2863.2
-794.03
-3678.99
-901.079
-3726.91
-2221.44
-2175.47
-2140.87
-2116.2
-2100.27
-2092.11
-2090.97
-2096.24
-2107.43
-2124.19
-2146.24
-2173.38
-2205.47
-2242.43
-2284.21
-2330.82
-2382.27
-2438.59
-2499.84
-2566.09
-2637.38
-2713.78
-2795.31
-2882
-2973.82
-3070.71
-3172.53
-3279.08
-3390.03
-3504.95
-3623.22
-3744.03
-3866.32
-3988.7
-4109.42
-4226.22
-4336.28
-4436.03
-4521.05
-4585.81
-4623.47
-4625.65
-4581.93
-4479.7
-4303.59
2826.09
3000.26
3199.8
3424.71
3674.88
3950.05
4249.85
4573.72
4920.86
5290.19
5680.38
6089.62
6515.79
6956.32
7408.17
7867.91
8331.63
8795.11
9253.86
9703.17
10138.3
10554.8
10948.1
11314.6
11650.8
11954.1
12223.1
12456.5
12654.7
12818.5
12949.8
13051.3
13126.4
13179.5
13215.6
13240.8
13262.7
13290.4
13335.6
13413.6
13544.1
13751.5
14063.3
14529
15195.4
16159.3
17417.1
19283.9
20544.1
21558.6
27232
33345
53803.8
-17818
-71886.2
27357.6
-7073.26
9999.09
6225
8219.77
3193.96
6788.25
4964.81
2474.6
3878.37
1664.73
5662.67
-103.417
-3147.6
-868.817
48.1098
-3322.49
230.668
-4039.73
-2147.62
-2105.9
-2074.81
-2053
-2039.38
-2033.07
-2033.37
-2039.7
-2051.65
-2068.87
-2091.13
-2118.25
-2150.1
-2186.64
-2227.81
-2273.64
-2324.15
-2379.39
-2439.42
-2504.31
-2574.11
-2648.9
-2728.72
-2813.59
-2903.5
-2998.39
-3098.15
-3202.58
-3311.39
-3424.15
-3540.28
-3659.01
-3779.3
-3899.84
-4018.91
-4134.33
-4243.36
-4342.53
-4427.51
-4492.91
-4532.05
-4536.66
-4496.6
-4399.43
-4230.08
3067.1
3250.74
3458.8
3691.25
3947.92
4228.53
4532.63
4859.54
5208.39
5577.94
5966.63
6372.55
6793.32
7226.13
7667.75
8114.46
8562.21
9006.56
9442.92
9866.48
10272.6
10656.8
11015
11343.6
11639.8
11901.4
12127.3
12317.2
12471.8
12592.7
12682.2
12743.5
12780.4
12797.6
12800.4
12795.2
12789.6
12793
12817.3
12877.6
12993.9
13193
13510.4
13985.5
14684.2
15714.5
16974.5
18608.2
20352.2
22708.9
33436.7
28482.3
30162.8
-48153.2
7535.43
25505.1
-2416.71
14788.5
-7990.41
9008.82
3459.18
9082.18
3311.5
2686.63
5078.52
1104.04
6026.14
665.578
-2434.32
-493.5
184.317
-3382.94
1309.73
-3853.25
-2064.76
-2027.73
-2000.53
-1981.92
-1970.91
-1966.7
-1968.64
-1976.24
-1989.09
-2006.92
-2029.5
-2056.68
-2088.36
-2124.51
-2165.1
-2210.16
-2259.72
-2313.84
-2372.6
-2436.05
-2504.29
-2577.36
-2655.34
-2738.25
-2826.08
-2918.8
-3016.29
-3118.37
-3224.78
-3335.11
-3448.8
-3565.12
-3683.07
-3801.38
-3918.39
-4031.99
-4139.49
-4237.55
-4321.95
-4387.4
-4427.38
-4433.79
-4396.68
-4303.85
-4140.51
3287.35
3479.65
3695.47
3934.7
4197.16
4482.5
4790.17
5119.43
5469.19
5838.12
6224.46
6626.08
7040.38
7464.34
7894.46
8326.83
8757.18
9180.95
9593.42
9989.87
10365.6
10716.4
11038.4
11328.5
11584.2
11804
11987.3
12134.4
12246.7
12326.2
12375.8
12399.1
12400.3
12384.2
12356.4
12323.2
12292.3
12273.1
12277.7
12321.8
12427.2
12619.6
12939.9
13429.1
14151.3
15205.4
16505
18161.3
21149.6
25045.6
30432.4
20394.5
19369.2
-69118.8
26284.8
16289.1
-225.909
15429.2
-10607.1
11174.5
2839.37
9153.61
2625.94
3272.76
6443.78
436.038
6090.24
1446.4
-1467.56
1258.94
-339.288
-3126.02
2479.31
-4108.88
-1973.94
-1941.92
-1918.89
-1903.74
-1895.57
-1893.66
-1897.43
-1906.43
-1920.33
-1938.87
-1961.85
-1989.16
-2020.73
-2056.53
-2096.55
-2140.83
-2189.43
-2242.4
-2299.82
-2361.78
-2428.36
-2499.62
-2575.64
-2656.44
-2742.05
-2832.4
-2927.43
-3026.95
-3130.72
-3238.34
-3349.3
-3462.88
-3578.14
-3693.83
-3808.35
-3919.67
-4025.18
-4121.62
-4204.84
-4269.74
-4309.89
-4317.41
-4282.52
-4193.27
-4035.13
3488.44
3688.63
3911.44
4156.73
4424.26
4713.61
5024.12
5354.92
5704.8
6072.23
6455.27
6851.55
7258.26
7672.14
8089.47
8506.11
8917.65
9319.39
9706.58
10074.5
10418.7
10735.1
11020.2
11271.3
11486.4
11664.7
11806.2
11911.7
11983.2
12023.2
12035.1
12022.9
11990.9
11944.2
11888.4
11829.9
11776.3
11737.1
11724.3
11753.7
11846.7
12032.3
12353.1
12855
13597.5
14673.4
16111.2
17994.7
21691.6
23535.4
24041.6
33313.1
38677.9
-77666.8
12753.4
3973.9
9326.78
11538.9
-5569.82
10833.6
1280.11
8516.52
2587.22
3619.76
10323.3
-2348.17
6459.07
2174.1
-398.856
-46.9596
2238.67
-1792.94
858.006
-3255.42
-1876.22
-1849.43
-1830.77
-1819.26
-1814.09