/*--------------------------------*- C++ -*----------------------------------*\
| =========                 |                                                 |
| \\      /  F ield         | OpenFOAM: The Open Source CFD Toolbox           |
|  \\    /   O peration     | Version:  2.2.x                                 |
|   \\  /    A nd           | Web:      www.OpenFOAM.org                      |
|    \\/     M anipulation  |                                                 |
\*---------------------------------------------------------------------------*/
FoamFile
{
    version     2.0;
    format      ascii;
    class       volScalarField;
    location    "0.5";
    object      Bz;
}
// * * * * * * * * * * * * * * * * * * * * * * * * * * * * * * * * * * * * * //

dimensions      [1 0 -2 0 0 -1 0];

internalField   nonuniform List<scalar> 
14161
(
8.70837e-20
8.72795e-20
8.75181e-20
8.72887e-20
8.73315e-20
8.70146e-20
8.77694e-20
8.73825e-20
8.82548e-20
8.81419e-20
8.8854e-20
8.86992e-20
8.90333e-20
8.92388e-20
8.95405e-20
9.00857e-20
9.03205e-20
8.99724e-20
9.03964e-20
8.94157e-20
9.01895e-20
8.78217e-20
9.08294e-20
8.51963e-20
9.24278e-20
8.24069e-20
9.38587e-20
8.82617e-20
7.2668e-20
1.0432e-19
8.12938e-20
1.03282e-19
1.0359e-19
2.17997e-22
4.49327e-19
-8.11971e-19
2.21211e-18
-4.0637e-18
4.94926e-18
-4.36708e-18
6.91957e-18
-1.63141e-17
2.94369e-17
-3.72166e-17
6.13247e-17
-1.9673e-16
2.75481e-16
-3.83614e-16
1.39136e-15
-5.71988e-15
1.35412e-14
-2.91184e-14
5.7698e-14
-1.60568e-13
8.78938e-13
-2.57253e-12
9.44484e-12
-3.79541e-11
-1.64263e-10
1.2568e-09
-1.9143e-09
2.66597e-09
1.09187e-10
-2.77829e-08
4.97409e-08
4.69796e-08
-1.78088e-07
-1.0521e-07
3.72351e-07
3.22809e-07
-4.11044e-07
-5.16214e-07
3.16815e-07
9.15352e-07
4.1237e-07
-4.37785e-07
-6.79808e-07
-5.88222e-08
7.26327e-07
4.82213e-07
-2.35769e-07
-5.37469e-07
-3.1507e-07
1.18995e-07
2.61255e-07
1.11664e-07
-6.34687e-10
-1.53769e-07
-1.21194e-07
5.57848e-09
4.44397e-08
1.66653e-08
-2.25105e-08
-3.4465e-08
-1.98097e-09
8.98218e-09
-1.72298e-08
-9.83263e-09
5.09702e-09
4.6322e-09
2.39418e-10
-1.03091e-09
-1.45369e-09
-1.96371e-09
-1.57063e-09
-6.05989e-10
-6.33155e-12
4.79289e-11
-1.04247e-10
-1.84144e-10
-1.56172e-10
-9.95468e-11
-5.61541e-11
-3.05761e-11
-1.69444e-11
-9.07578e-12
-5.53155e-12
-8.84455e-13
-5.34376e-13
8.60761e-20
8.66317e-20
8.67103e-20
8.65435e-20
8.66608e-20
8.63613e-20
8.66569e-20
8.67108e-20
8.76335e-20
8.7728e-20
8.83796e-20
8.79348e-20
8.86768e-20
8.89955e-20
8.99785e-20
9.05875e-20
9.08045e-20
9.05706e-20
9.10838e-20
9.02665e-20
9.09775e-20
8.84448e-20
9.20337e-20
8.6027e-20
9.31693e-20
8.34146e-20
9.43097e-20
9.00326e-20
7.10092e-20
1.09437e-19
7.39661e-20
1.13337e-19
9.78646e-20
5.35239e-21
3.13471e-19
-6.21404e-19
1.8216e-18
-3.06125e-18
3.56362e-18
-3.54777e-18
4.62933e-18
-6.85395e-18
3.81064e-18
1.54117e-17
-3.66308e-17
-1.85927e-17
-6.48717e-17
1.40984e-16
-3.30781e-17
-3.75757e-16
4.01226e-15
-8.99648e-15
1.84042e-14
-1.24666e-13
8.20167e-13
-1.68595e-12
3.2754e-12
4.66066e-11
-3.01622e-10
9.57235e-09
-1.2277e-08
-2.56051e-08
8.64613e-08
-2.92986e-08
-1.77507e-07
2.10168e-07
1.66076e-07
-4.73329e-07
-1.97138e-07
7.49518e-07
4.86556e-07
-6.88066e-07
-8.45038e-07
2.24714e-07
7.96248e-07
2.56233e-07
-4.55802e-07
-6.54684e-07
-2.03292e-07
3.44216e-07
3.5267e-07
-1.23098e-08
-2.32789e-07
-1.2635e-07
1.30926e-07
1.50274e-07
8.24268e-08
-4.84482e-08
-7.75702e-08
-1.73666e-08
6.43597e-09
3.31798e-09
-1.71678e-08
-8.24585e-09
1.99983e-08
-2.73047e-09
-1.81315e-08
-2.2504e-09
6.5882e-09
2.88435e-09
-8.25894e-10
-1.11304e-09
-1.28766e-09
-1.62245e-09
-1.10107e-09
-2.52045e-10
1.479e-10
8.50738e-11
-9.35396e-11
-1.61195e-10
-1.26777e-10
-7.61263e-11
-4.2095e-11
-2.32542e-11
-1.36154e-11
-7.48293e-12
-4.4679e-12
-6.72533e-13
-3.89338e-13
8.5548e-20
8.59512e-20
8.64634e-20
8.65559e-20
8.64107e-20
8.60807e-20
8.63968e-20
8.66143e-20
8.76165e-20
8.78198e-20
8.81664e-20
8.7723e-20
8.89887e-20
8.97498e-20
9.08178e-20
9.10355e-20
9.13248e-20
9.13737e-20
9.17154e-20
9.11073e-20
9.15884e-20
8.9511e-20
9.35294e-20
8.66695e-20
9.4497e-20
8.41743e-20
9.70734e-20
9.30436e-20
6.88393e-20
1.17104e-19
5.53583e-20
1.50842e-19
6.79825e-20
7.37836e-20
1.07067e-19
-1.09478e-19
4.1425e-19
-4.19473e-20
-4.50328e-19
1.60409e-18
-3.19137e-18
2.12895e-18
-8.52442e-18
2.29151e-17
-3.31786e-17
3.00941e-17
-3.25611e-17
8.53543e-17
2.54843e-16
-1.96917e-15
6.13712e-15
-2.43403e-14
9.84862e-14
-2.86386e-13
7.41668e-13
-9.49819e-13
-2.4178e-12
3.52056e-10
-2.58991e-10
2.44447e-08
1.73718e-08
-1.76252e-07
6.49931e-08
4.11185e-07
-3.94067e-07
-4.71612e-07
5.13834e-07
3.64842e-07
-5.82757e-07
-2.14673e-07
5.51955e-07
1.2575e-07
-4.99659e-07
-2.07358e-07
4.61891e-07
4.72488e-07
9.66451e-09
-3.93241e-07
-2.91652e-07
1.40486e-07
2.67366e-07
5.96436e-08
-1.02944e-07
-6.75363e-08
8.27314e-08
1.51874e-07
4.57934e-08
-3.05018e-08
-5.9224e-08
-3.87148e-08
-1.29038e-08
-3.85932e-09
-5.74921e-09
2.93194e-08
2.03075e-08
-1.40087e-08
-1.10681e-08
2.66889e-09
6.01841e-09
1.17395e-09
-1.39112e-09
-8.88329e-10
-1.01914e-09
-1.32043e-09
-7.57224e-10
-2.58222e-11
2.26847e-10
9.19877e-11
-9.14251e-11
-1.40895e-10
-1.02182e-10
-5.73112e-11
-3.14382e-11
-1.79647e-11
-1.11425e-11
-6.1078e-12
-3.49181e-12
-4.62887e-13
-2.64723e-13
8.39886e-20
8.63238e-20
8.64666e-20
8.67186e-20
8.60882e-20
8.60911e-20
8.63838e-20
8.68089e-20
8.78972e-20
8.80755e-20
8.77454e-20
8.90073e-20
8.98842e-20
9.12467e-20
9.24661e-20
9.25378e-20
9.29655e-20
9.35481e-20
9.31349e-20
9.39869e-20
9.45782e-20
9.25579e-20
9.65388e-20
8.91762e-20
1.01307e-19
8.05509e-20
1.12111e-19
8.49738e-20
9.06751e-20
1.14697e-19
2.31574e-20
2.33795e-19
-6.31038e-20
3.22339e-19
-2.79347e-19
7.88777e-19
-1.86472e-18
4.59289e-18
-8.93708e-18
1.48987e-17
-2.28788e-17
2.74319e-17
-2.89386e-17
4.90387e-17
-6.98578e-17
7.18457e-17
1.76913e-17
-6.38005e-17
2.64565e-16
-2.67801e-15
8.27749e-15
-8.90225e-14
2.43439e-13
-5.05588e-13
6.91088e-13
-8.52954e-13
-3.03909e-12
4.75707e-12
7.18054e-10
-5.35008e-09
1.70244e-07
-1.55276e-07
-4.47921e-07
5.18646e-07
7.5639e-07
-7.5574e-07
-1.13911e-06
4.02269e-07
1.37586e-06
3.4798e-07
-1.15336e-06
-9.92045e-07
2.94184e-07
7.04986e-07
2.67945e-07
-4.74343e-07
-4.31076e-07
-1.26233e-07
1.42781e-07
1.48457e-07
-8.31898e-08
-1.65537e-07
-3.60448e-08
9.27084e-08
2.04881e-07
1.34173e-07
1.99795e-08
-3.33697e-08
-5.99233e-08
-3.8362e-08
-9.47431e-09
3.75428e-09
3.68144e-08
3.87747e-08
1.25425e-09
-1.04054e-08
-2.60171e-09
4.87636e-09
3.25406e-09
-1.22269e-09
-1.25688e-09
-3.28078e-10
-7.69329e-10
-8.75813e-10
-2.51103e-10
2.29847e-10
2.56967e-10
5.40895e-11
-9.62335e-11
-1.09957e-10
-6.91595e-11
-3.5944e-11
-1.99256e-11
-1.23983e-11
-8.58929e-12
-4.85597e-12
-2.58286e-12
-3.09447e-13
-1.72311e-13
8.62958e-20
8.82855e-20
8.72781e-20
8.84084e-20
8.75054e-20
8.77212e-20
8.6894e-20
8.83766e-20
8.94045e-20
8.91731e-20
8.90078e-20
9.32045e-20
9.21113e-20
9.45766e-20
9.40125e-20
9.64034e-20
9.73204e-20
9.97738e-20
9.9029e-20
9.55266e-20
9.93631e-20
9.71838e-20
1.0358e-19
9.10785e-20
1.16909e-19
6.95838e-20
1.48569e-19
3.62894e-20
1.64615e-19
5.83663e-20
5.79438e-20
2.71068e-19
-1.23599e-19
6.1856e-19
-7.46683e-19
2.00523e-18
-6.32956e-18
1.38621e-17
-2.6927e-17
7.3582e-17
-1.0893e-16
1.38988e-16
-2.22808e-16
2.57974e-16
-2.41315e-16
3.41837e-16
-2.62636e-16
-1.91181e-16
1.23808e-15
-3.94223e-15
5.03708e-15
-4.67833e-14
1.48063e-13
-3.7375e-13
2.57183e-13
1.48734e-13
3.00589e-12
2.28981e-10
-7.8639e-11
-5.11056e-09
-3.31465e-08
2.6214e-07
1.13707e-07
-8.85067e-07
-7.89021e-07
2.6828e-06
1.3878e-06
-4.74963e-06
-2.85007e-06
5.36929e-06
4.20748e-06
-2.77186e-06
-3.50646e-06
-6.99719e-07
2.3324e-06
1.48201e-06
-5.07096e-07
-1.25531e-06
-6.42267e-07
4.12514e-08
2.76292e-07
4.5425e-08
-9.79237e-08
-4.6979e-08
2.19393e-08
6.55908e-08
5.01052e-08
3.49811e-09
-3.02703e-08
-2.05506e-08
-2.10014e-09
3.56729e-08
5.08939e-08
1.87902e-08
-3.52297e-09
-4.15289e-09
1.82091e-09
3.50506e-09
-5.95301e-10
-1.83696e-09
-2.28704e-10
-1.05849e-11
-5.35282e-10
-3.19134e-10
1.59598e-10
3.26312e-10
2.00748e-10
-8.9712e-13
-9.35658e-11
-7.50922e-11
-3.76527e-11
-1.88461e-11
-1.2075e-11
-8.86284e-12
-6.72928e-12
-3.78128e-12
-1.82582e-12
-2.03982e-13
-1.10494e-13
9.46795e-20
9.26258e-20
9.21773e-20
8.98932e-20
8.98112e-20
8.95797e-20
9.22133e-20
9.67973e-20
9.13655e-20
9.44988e-20
9.81941e-20
9.44674e-20
9.84736e-20
1.04086e-19
1.023e-19
1.04504e-19
1.02017e-19
1.1264e-19
1.07649e-19
1.07921e-19
1.1219e-19
1.07009e-19
1.22188e-19
9.44332e-20
1.45885e-19
5.25182e-20
2.19551e-19
-6.5329e-20
3.61045e-19
-2.23076e-19
4.83452e-19
-1.0264e-19
4.22138e-19
-2.33864e-19
6.96025e-19
-7.86753e-19
1.5077e-18
-1.27077e-18
-4.91856e-19
8.64261e-18
-2.14062e-17
3.87522e-17
-1.25132e-16
2.96005e-16
-4.43348e-16
9.47501e-16
-2.26325e-15
2.66788e-15
2.3461e-15
-1.60464e-14
3.6316e-14
-6.95812e-14
5.3986e-14
-7.24624e-14
1.74676e-13
-1.52004e-12
1.712e-11
2.63035e-11
1.21433e-09
1.12768e-07
-1.52321e-07
-4.00812e-07
3.31021e-07
1.68368e-06
-2.15341e-06
-3.58664e-06
6.48009e-06
3.49165e-06
-8.59813e-06
-3.9957e-06
7.72932e-06
5.0838e-06
-4.61563e-06
-5.04709e-06
1.10448e-06
3.36692e-06
2.01303e-06
-6.23743e-07
-1.27627e-06
-7.32128e-07
-1.83556e-07
1.4202e-07
9.4748e-08
-1.08336e-08
-6.33501e-08
-1.50903e-08
2.84757e-08
1.93712e-08
-2.58645e-09
-4.42785e-09
3.53077e-08
5.37421e-08
3.0501e-08
3.32932e-09
-4.01336e-09
-1.56272e-09
1.35097e-09
-5.50398e-10
-2.0154e-09
-3.7252e-10
6.2415e-10
9.66011e-11
-1.38818e-10
1.30285e-10
3.12128e-10
2.72096e-10
1.0096e-10
-4.55086e-11
-7.20409e-11
-3.83735e-11
-1.45652e-11
-8.56006e-12
-7.75156e-12
-6.82159e-12
-5.28274e-12
-2.82342e-12
-1.23387e-12
-1.29985e-13
-6.76632e-14
9.7781e-20
9.55026e-20
9.53202e-20
9.45795e-20
1.01045e-19
1.01608e-19
9.93088e-20
1.06998e-19
1.01855e-19
1.04159e-19
1.08334e-19
1.1257e-19
1.18182e-19
1.14288e-19
1.15711e-19
1.22091e-19
1.2888e-19
1.25849e-19
1.25747e-19
1.32396e-19
1.32421e-19
1.23407e-19
1.39627e-19
1.05605e-19
1.70199e-19
3.99798e-20
2.89769e-19
-1.58026e-19
5.91753e-19
-5.78564e-19
1.11907e-18
-1.52768e-18
3.07151e-18
-5.47556e-18
9.54057e-18
-1.65921e-17
3.08681e-17
-6.02231e-17
1.23547e-16
-2.34138e-16
4.06578e-16
-6.78616e-16
1.00116e-15
-1.16282e-15
1.50568e-15
-1.65865e-15
1.24383e-15
-7.14022e-16
1.75469e-15
2.46086e-15
-1.94272e-14
7.39456e-14
-2.02465e-13
1.99773e-13
1.85902e-13
-1.80522e-12
4.51052e-12
6.45452e-11
-4.7609e-10
-5.98556e-08
1.97882e-07
7.51953e-08
-6.21298e-07
2.25162e-07
1.56115e-06
-2.80165e-06
-4.43393e-07
4.56077e-06
-4.33037e-07
-5.04433e-06
6.77036e-07
4.16082e-06
2.20228e-07
-2.85591e-06
-1.22805e-06
7.69811e-07
1.09047e-06
3.40573e-07
-3.16737e-07
-4.73397e-07
-2.36567e-07
8.16933e-08
1.25902e-07
2.79428e-08
-3.74921e-08
-1.98852e-09
3.71568e-08
1.61616e-08
-1.93587e-09
2.98285e-08
4.87599e-08
3.12512e-08
5.48721e-09
-5.93988e-09
-5.87562e-09
-2.55064e-09
-1.23673e-09
-1.40786e-09
-4.34741e-11
1.20277e-09
8.1178e-10
2.04675e-10
1.6501e-10
2.62205e-10
2.63341e-10
1.64996e-10
1.92417e-11
-5.44625e-11
-3.88397e-11
-9.90349e-12
-2.24824e-12
-4.20649e-12
-5.79438e-12
-5.56532e-12
-4.13264e-12
-2.01726e-12
-7.95906e-13
-7.85112e-14
-3.76958e-14
7.14976e-20
9.19281e-20
1.00477e-19
1.04217e-19
1.09296e-19
1.18447e-19
1.26052e-19
1.21225e-19
1.28513e-19
1.29656e-19
1.3556e-19
1.39499e-19
1.50254e-19
1.61024e-19
1.59991e-19
1.53364e-19
1.58161e-19
1.48464e-19
1.54244e-19
1.61741e-19
1.52825e-19
1.47588e-19
1.59872e-19
1.38689e-19
1.91465e-19
9.17285e-20
2.69372e-19
-4.46599e-20
4.74355e-19
-3.3165e-19
9.1657e-19
-1.20509e-18
2.73062e-18
-4.74832e-18
8.59872e-18
-1.36686e-17
2.32253e-17
-4.04245e-17
7.75346e-17
-1.61698e-16
2.96501e-16
-5.45235e-16
6.94238e-16
-8.33777e-16
1.10304e-15
-1.24746e-15
8.0991e-16
-1.45397e-16
-2.1728e-16
5.65976e-15
-1.56538e-14
2.57712e-14
-4.7318e-14
4.65336e-14
1.22061e-13
-8.16098e-13
2.98647e-12
-2.66004e-11
3.2086e-10
-7.76086e-09
-1.40015e-08
4.18257e-08
1.57403e-08
-1.69145e-07
5.41097e-07
-3.8742e-07
-1.43796e-06
1.75239e-06
1.71349e-06
-2.30857e-06
-1.76822e-06
2.12826e-06
1.5738e-06
-8.013e-07
-1.201e-06
-1.74358e-07
5.18195e-07
3.83666e-07
8.23112e-08
-1.96476e-07
-1.78189e-07
3.93779e-08
1.2227e-07
4.57783e-08
-4.82491e-09
2.18358e-08
1.36304e-08
-2.77768e-09
1.97307e-08
3.58781e-08
2.46999e-08
3.05646e-09
-9.50591e-09
-1.08962e-08
-7.1048e-09
-2.03458e-09
2.70835e-10
1.3305e-09
1.95486e-09
1.44942e-09
5.88274e-10
2.45847e-10
2.0817e-10
1.98897e-10
1.66642e-10
7.29059e-11
-2.39098e-11
-3.78806e-11
-8.64097e-12
4.97954e-12
1.56618e-12
-3.07404e-12
-4.93147e-12
-4.60067e-12
-3.14301e-12
-1.36425e-12
-4.78651e-13
-4.16839e-14
-1.62311e-14
9.73315e-20
1.25135e-19
1.36446e-19
1.58041e-19
1.53517e-19
1.59534e-19
1.60309e-19
1.6065e-19
1.70496e-19
1.67604e-19
1.7675e-19
1.80053e-19
1.80946e-19
1.80537e-19
1.85556e-19
1.8575e-19
1.78634e-19
1.9474e-19
1.92133e-19
1.81385e-19
1.88657e-19
1.92504e-19
1.91207e-19
1.78498e-19
1.87195e-19
1.59059e-19
2.27278e-19
1.06646e-19
2.99547e-19
-1.04876e-21
5.62174e-19
-4.53646e-19
1.23041e-18
-1.9062e-18
3.43067e-18
-5.62571e-18
9.13201e-18
-1.46903e-17
3.48048e-17
-6.66164e-17
1.17089e-16
-2.15144e-16
3.44759e-16
-5.14455e-16
6.58622e-16
-8.08585e-16
8.99343e-16
-9.83475e-16
1.15871e-15
-4.17582e-16
-1.36851e-15
6.25548e-15
-1.91353e-14
3.46763e-14
1.31133e-14
-3.85187e-13
2.49358e-12
-6.63208e-12
5.03405e-10
1.65125e-09
8.21949e-11
2.44554e-08
-1.96842e-09
-8.28895e-08
2.05637e-07
7.83569e-08
-7.52198e-07
3.0583e-07
1.33334e-06
-7.4679e-07
-1.47308e-06
7.04415e-07
1.44687e-06
2.10985e-08
-9.9365e-07
-5.38121e-07
2.06398e-07
3.54539e-07
1.48531e-07
-1.49091e-07
-1.31409e-07
5.44188e-08
9.29255e-08
2.27028e-08
9.39908e-09
2.13503e-09
-6.00852e-09
9.80883e-09
2.16699e-08
1.5209e-08
-2.09448e-10
-1.17675e-08
-1.43492e-08
-1.06075e-08
-2.67093e-09
2.71097e-09
3.62186e-09
2.94261e-09
1.88343e-09
8.40733e-10
3.03901e-10
1.4794e-10
1.06453e-10
1.15074e-10
9.21834e-11
1.14076e-11
-3.11753e-11
-1.13031e-11
9.99999e-12
8.78032e-12
1.02234e-12
-3.12907e-12
-4.39414e-12
-3.72567e-12
-2.28306e-12
-8.63397e-13
-2.62987e-13
-1.66972e-14
-1.86496e-15
2.17078e-19
2.14605e-19
2.13251e-19
2.11281e-19
2.35228e-19
2.22432e-19
2.03411e-19
2.08456e-19
2.0896e-19
2.28054e-19
2.06992e-19
2.22373e-19
2.06707e-19
1.94585e-19
2.08979e-19
2.02417e-19
2.03772e-19
1.99352e-19
2.02571e-19
1.99974e-19
1.98073e-19
1.90357e-19
1.94879e-19
1.99056e-19
2.01769e-19
2.05793e-19
2.08295e-19
1.86735e-19
2.2396e-19
1.56849e-19
2.91691e-19
-4.11682e-20
5.39257e-19
-4.29043e-19
1.46043e-18
-1.55884e-18
2.59687e-18
-3.89562e-18
1.04633e-17
-2.72161e-17
5.01265e-17
-8.29004e-17
1.51633e-16
-2.55048e-16
3.55803e-16
-4.4928e-16
6.1902e-16
-7.63966e-16
7.52093e-16
-3.03517e-16
-1.36157e-15
4.34696e-15
-9.56707e-15
8.64136e-16
9.34128e-14
-4.2256e-13
2.42416e-12
6.35525e-12
1.89114e-10
7.2229e-10
-1.39003e-08
2.95106e-08
2.2928e-08
-9.81195e-08
7.76063e-08
1.36744e-07
-2.72021e-07
-1.18659e-07
7.64432e-07
-2.69655e-08
-9.05261e-07
1.63857e-08
7.54202e-07
1.57925e-07
-4.29573e-07
-3.40122e-07
1.16703e-07
2.33467e-07
2.83331e-09
-1.4446e-07
-3.43538e-08
6.95804e-08
3.35392e-08
5.50054e-09
-3.08346e-09
-6.86768e-09
3.67715e-09
1.11645e-08
7.44685e-09
-2.05975e-09
-1.08448e-08
-1.45095e-08
-1.15302e-08
-3.39336e-09
4.73872e-09
6.04575e-09
3.92752e-09
1.99478e-09
8.26581e-10
2.55589e-10
6.26588e-11
6.60475e-12
3.47655e-11
7.44515e-11
3.7379e-11
-1.92907e-11
-1.63008e-11
1.05691e-11
1.58239e-11
6.31943e-12
-6.68019e-13
-3.3018e-12
-3.85256e-12
-2.886e-12
-1.55782e-12
-5.00542e-13
-1.2187e-13
-6.64946e-16
6.84508e-15
2.83655e-19
2.53636e-19
2.4272e-19
2.47411e-19
2.23969e-19
2.22698e-19
2.35013e-19
2.34295e-19
2.19131e-19
2.04094e-19
2.06167e-19
2.07256e-19
2.0567e-19
1.98394e-19
1.83435e-19
1.8746e-19
1.84539e-19
1.80591e-19
1.79978e-19
1.94081e-19
1.87354e-19
1.99107e-19
2.05844e-19
2.03022e-19
2.00422e-19
1.93857e-19
1.99893e-19
2.01286e-19
1.93255e-19
2.12706e-19
2.1005e-19
1.33588e-19
2.48084e-19
8.314e-20
5.2959e-19
-2.13052e-19
8.87679e-19
-1.44904e-18
3.65021e-18
-8.29204e-18
1.67924e-17
-3.59512e-17
6.91047e-17
-1.17479e-16
1.72287e-16
-2.46908e-16
3.89474e-16
-4.89769e-16
5.29408e-16
-1.81712e-16
-8.52264e-16
2.08509e-15
-2.59763e-15
-3.83709e-15
1.66114e-14
3.99965e-14
4.54837e-14
2.86562e-11
-2.55765e-11
1.55131e-10
-7.42108e-09
1.88966e-08
2.24057e-09
-3.87151e-08
1.29404e-08
6.21347e-08
-8.08542e-08
-1.19901e-07
2.90028e-07
-3.35352e-08
-3.17875e-07
1.67999e-08
2.46345e-07
7.08564e-08
-1.57617e-07
-9.27836e-08
9.66382e-08
4.77332e-08
-7.51999e-08
-4.17413e-08
3.28655e-08
2.48951e-08
5.37114e-09
-2.47637e-09
-4.81311e-09
8.8615e-10
5.04287e-09
2.70282e-09
-2.22979e-09
-7.72401e-09
-1.1361e-08
-1.00742e-08
-3.28551e-09
5.17279e-09
7.52432e-09
4.50984e-09
1.71793e-09
4.96974e-10
6.47746e-11
-6.40682e-11
-9.10046e-11
-5.00978e-11
3.06342e-11
4.4708e-11
-5.30057e-12
-2.17839e-11
5.53486e-12
2.06357e-11
1.26247e-11
2.30259e-12
-1.92763e-12
-3.28011e-12
-3.23067e-12
-2.11108e-12
-9.804e-13
-2.5338e-13
-3.56114e-14
8.14096e-15
1.09987e-14
1.83365e-19
1.85052e-19
1.89128e-19
1.7382e-19
1.80337e-19
1.82407e-19
1.91713e-19
1.60726e-19
1.71541e-19
1.90164e-19
1.88543e-19
1.70375e-19
1.74166e-19
1.63649e-19
1.71337e-19
1.71678e-19
1.73546e-19
1.76998e-19
1.83418e-19
1.75891e-19
1.88392e-19
1.97588e-19
1.88836e-19
1.87929e-19
1.89959e-19
1.97198e-19
1.90475e-19
1.92332e-19
1.99935e-19
2.12668e-19
2.10704e-19
2.02151e-19
1.84467e-19
2.14477e-19
3.57515e-19
1.7323e-19
3.06025e-19
-3.92657e-19
1.3092e-18
-2.02466e-18
5.81142e-18
-1.26849e-17
2.57018e-17
-4.55749e-17
6.92925e-17
-1.00923e-16
1.47054e-16
-1.65094e-16
1.60954e-16
-1.48675e-16
5.21931e-17
-2.20867e-16
4.54863e-16
1.19811e-15
-6.1006e-15
5.70203e-14
9.33503e-15
5.96294e-12
3.31873e-11
1.58725e-11
1.21668e-09
-3.15415e-09
-1.15586e-09
3.78714e-09
8.10194e-09
5.58842e-09
-4.85962e-08
2.19357e-08
7.05966e-08
-4.34208e-08
-6.76791e-08
3.81901e-08
7.79559e-08
-2.46368e-08
-6.13372e-08
1.38271e-08
2.97602e-08
-3.02167e-08
-2.08174e-08
1.17529e-08
1.3128e-08
4.70225e-09
-7.6026e-10
-2.55596e-09
1.29553e-11
1.78967e-09
2.86983e-10
-1.79827e-09
-4.36423e-09
-7.01281e-09
-6.99125e-09
-2.50118e-09
4.08834e-09
7.25822e-09
4.3916e-09
1.11875e-09
-6.03763e-11
-2.25241e-10
-2.14569e-10
-1.77024e-10
-1.19205e-10
-2.42958e-11
3.22408e-11
4.46211e-12
-2.574e-11
-5.22646e-12
2.08695e-11
1.91477e-11
6.13801e-12
-6.68343e-13
-2.45699e-12
-3.02744e-12
-2.55708e-12
-1.42966e-12
-5.51121e-13
-9.74531e-14
1.23561e-14
1.17113e-14
1.18004e-14
1.17555e-19
1.2569e-19
1.35995e-19
1.21948e-19
1.31725e-19
1.38255e-19
1.50882e-19
1.45434e-19
1.54469e-19
1.44527e-19
1.5539e-19
1.6557e-19
1.69311e-19
1.82099e-19
1.96404e-19
1.89034e-19
1.94384e-19
2.1783e-19
2.28906e-19
2.33307e-19
2.42216e-19
2.26561e-19
2.3826e-19
2.40326e-19
2.49703e-19
2.66529e-19
2.6972e-19
2.88123e-19
2.76637e-19
2.85892e-19
2.88629e-19
2.98455e-19
2.48875e-19
3.07891e-19
3.82837e-19
3.4384e-19
2.74488e-19
3.7286e-20
6.45415e-19
-3.37413e-19
2.42222e-18
-4.21719e-18
8.26595e-18
-1.32955e-17
1.89558e-17
-2.22544e-17
3.27649e-17
-2.87025e-17
1.49952e-17
-1.23198e-17
-2.01332e-17
5.77409e-17
-8.66032e-17
2.11886e-16
6.20706e-17
-2.72178e-15
2.45655e-13
6.23123e-13
4.66269e-12
1.09181e-11
-6.65419e-11
3.78583e-10
-9.25879e-10
8.01546e-10
3.21767e-09
-8.43031e-09
-2.71031e-09
1.66373e-08
6.64234e-10
-2.12203e-08
-2.23073e-10
2.25629e-08
1.33122e-09
-1.92645e-08
2.47291e-09
9.63972e-09
-7.47508e-09
-7.66635e-09
3.09678e-09
5.79178e-09
3.1529e-09
1.89267e-10
-1.23923e-09
-1.8851e-10
3.25276e-10
-8.46894e-10
-1.40083e-09
-1.80933e-09
-3.0012e-09
-3.5468e-09
-1.37817e-09
2.83433e-09
5.43554e-09
3.58348e-09
3.22461e-10
-7.17737e-10
-5.338e-10
-3.40804e-10
-2.37611e-10
-1.56883e-10
-7.24146e-11
9.24423e-13
3.53625e-12
-2.83872e-11
-1.94078e-11
1.46227e-11
2.40164e-11
1.12816e-11
7.30918e-13
-2.01833e-12
-2.48059e-12
-2.60705e-12
-1.88038e-12
-8.76954e-13
-2.53521e-13
-7.25437e-15
3.42838e-14
1.20934e-14
1.07294e-14
1.34182e-19
1.188e-19
1.40924e-19
1.4154e-19
1.36719e-19
1.45339e-19
1.12859e-19
1.66841e-19
2.1297e-19
2.14281e-19
2.281e-19
2.4506e-19
2.53305e-19
3.21355e-19
3.21106e-19
3.34656e-19
3.31654e-19
3.45573e-19
3.77366e-19
3.84866e-19
3.82377e-19
3.82228e-19
3.98885e-19
4.10937e-19
4.32075e-19
4.37572e-19
4.50024e-19
4.50404e-19
4.50048e-19
4.65023e-19
4.72535e-19
4.69696e-19
4.43929e-19
4.62801e-19
4.96118e-19
5.03041e-19
4.36348e-19
3.71151e-19
4.76608e-19
3.37822e-19
9.14794e-19
-4.16915e-19
1.95898e-18
-1.95219e-18
3.22412e-18
-1.85576e-18
3.27299e-18
-1.80295e-18
2.17336e-18
-1.48107e-18
2.49664e-18
-7.98734e-19
6.4852e-18
-5.20208e-17
2.62856e-16
1.05912e-16
3.16001e-14
4.03265e-13
6.71835e-13
2.52722e-12
5.00286e-12
-4.11691e-11
1.09086e-10
-1.24677e-10
-4.10546e-11
2.5341e-10
1.42922e-09
1.69602e-10
-3.58493e-09
-5.11807e-10
4.57779e-09
3.10323e-10
-4.57908e-09
3.6352e-10
2.60979e-09
-1.34305e-09
-2.35e-09
3.93706e-10
2.04835e-09
1.81976e-09
4.23975e-10
-6.09443e-10
-2.01774e-10
-6.21494e-11
-1.09175e-09
-1.286e-09
-6.38911e-10
-6.46785e-10
-9.64705e-10
-2.67349e-10
1.88115e-09
3.31191e-09
2.13767e-09
-5.32609e-10
-1.36102e-09
-8.10824e-10
-4.01294e-10
-2.5406e-10
-1.59691e-10
-9.57959e-11
-4.00809e-11
-1.50424e-11
-3.28664e-11
-3.34453e-11
1.69245e-12
2.4756e-11
1.73019e-11
3.17621e-12
-2.00671e-12
-2.25233e-12
-2.25589e-12
-2.0792e-12
-1.25199e-12
-4.56997e-13
-6.54185e-14
3.75889e-14
4.00464e-14
1.07201e-14
8.76862e-15
2.8053e-19
2.47292e-19
1.95701e-19
2.10482e-19
2.33577e-19
2.63832e-19
3.25553e-19
3.58642e-19
3.19908e-19
3.64984e-19
4.19883e-19
4.4037e-19
4.69475e-19
4.91624e-19
5.12245e-19
5.48676e-19
5.85215e-19
5.862e-19
5.76655e-19
5.88094e-19
6.11896e-19
6.42852e-19
6.37233e-19
6.58706e-19
6.70594e-19
6.71027e-19
6.63558e-19
6.45998e-19
6.499e-19
6.50747e-19
6.60471e-19
6.40557e-19
6.25573e-19
6.29966e-19
6.31849e-19
6.38587e-19
6.50546e-19
6.3107e-19
5.8312e-19
5.62527e-19
5.96683e-19
5.10478e-19
6.84593e-19
4.0196e-19
7.77571e-19
3.98596e-19
8.83672e-19
3.97408e-19
3.12996e-19
1.28499e-18
1.48525e-19
-9.19682e-19
2.72101e-18
1.58532e-18
-5.15227e-17
1.22534e-15
-6.90894e-15
3.69674e-14
1.64521e-13
-7.57428e-15
9.92685e-13
1.13003e-12
-9.99905e-12
1.26381e-11
-3.05961e-11
5.10803e-11
9.71886e-11
-4.42519e-10
-2.62704e-12
7.26076e-10
-3.61698e-11
-6.92591e-10
4.21822e-11
6.05749e-10
-1.7277e-10
-5.40381e-10
-1.10617e-10
5.39207e-10
8.96014e-10
3.66727e-10
-3.02104e-10
-1.45573e-10
-4.37291e-11
-8.02256e-10
-1.11445e-09
-2.94018e-10
3.51567e-10
4.39762e-10
6.03138e-10
1.23993e-09
1.62847e-09
6.88664e-10
-1.19877e-09
-1.85855e-09
-1.04668e-09
-3.92983e-10
-2.03801e-10
-1.22728e-10
-8.27645e-11
-7.18901e-11
-5.11541e-11
-4.6456e-11
-4.58079e-11
-1.51627e-11
1.95097e-11
2.25684e-11
7.46246e-12
-1.73712e-12
-2.63509e-12
-2.01818e-12
-1.91471e-12
-1.50754e-12
-7.30613e-13
-1.69101e-13
4.11324e-14
5.33157e-14
3.68922e-14
8.63228e-15
6.65067e-15
5.69077e-19
5.22876e-19
4.79095e-19
4.89688e-19
5.3079e-19
5.68258e-19
6.07173e-19
6.44991e-19
6.79992e-19
6.95479e-19
6.33698e-19
6.971e-19
7.54162e-19
7.2498e-19
7.62818e-19
7.60668e-19
7.73254e-19
7.28667e-19
7.36622e-19
7.7196e-19
7.75747e-19
7.69796e-19
7.73454e-19
7.73778e-19
7.41546e-19
7.48791e-19
7.11483e-19
7.21648e-19
7.09471e-19
7.05466e-19
7.0937e-19
6.97744e-19
6.80848e-19
6.82455e-19
6.39578e-19
5.85628e-19
7.29438e-19
8.08367e-19
7.60441e-19
6.25672e-19
5.24475e-19
4.79921e-19
4.8829e-19
5.34124e-19
5.92157e-19
6.71191e-19
6.6684e-19
7.83873e-19
6.37837e-19
6.73219e-19
1.28306e-19
-2.46006e-19
-6.49494e-19
-1.30895e-18
-1.02831e-17
-1.98749e-16
2.54699e-15
3.94569e-15
2.42314e-14
3.92943e-14
-2.1551e-13
5.39848e-13
4.43286e-13
-1.99085e-12
3.01362e-12
1.15268e-11
-3.43132e-11
-2.24249e-11
1.28045e-10
-5.56638e-11
-9.64691e-11
3.19831e-11
8.52915e-11
-5.44479e-12
-8.78344e-11
-9.18274e-11
5.13017e-11
3.67827e-10
2.98891e-10
-1.51493e-10
-1.35105e-10
4.87108e-11
-3.51307e-10
-7.7066e-10
-3.52486e-10
3.48359e-10
7.08478e-10
7.93722e-10
8.28908e-10
6.66641e-10
-1.42462e-10
-1.36669e-09
-2.00921e-09
-1.234e-09
-3.64279e-10
-9.32316e-11
-3.88125e-11
-2.99178e-11
-7.54701e-11
-9.36415e-11
-7.50355e-11
-5.89521e-11
-3.14678e-11
8.4141e-12
2.49613e-11
1.33563e-11
-8.3404e-14
-3.39231e-12
-2.2645e-12
-1.66956e-12
-1.49237e-12
-9.61525e-13
-3.26381e-13
8.46484e-15
8.90617e-14
5.28799e-14
3.00722e-14
6.34695e-15
4.6304e-15
9.14611e-19
9.31092e-19
9.09874e-19
9.09844e-19
8.56357e-19
8.56048e-19
8.64507e-19
8.67117e-19
9.01365e-19
9.2011e-19
9.33956e-19
9.37552e-19
9.23605e-19
9.14411e-19
8.6506e-19
8.54256e-19
8.34526e-19
8.58017e-19
8.48182e-19
7.748e-19
7.3552e-19
7.44154e-19
7.19198e-19
7.01211e-19
6.68142e-19
6.6232e-19
6.52771e-19
6.36832e-19
6.2281e-19
5.95374e-19
5.94685e-19
5.72342e-19
5.39387e-19
6.26147e-19
4.75513e-19
1.643e-19
4.54038e-19
8.52929e-19
9.50256e-19
8.39122e-19
4.15773e-19
9.53222e-20
-5.31804e-20
-1.35423e-19
4.14607e-20
3.99487e-19
6.53139e-19
1.2743e-18
1.22964e-18
1.54912e-18
3.22557e-19
-1.63636e-18
-2.77636e-18
-3.73972e-18
-9.39114e-18
-1.84345e-16
1.17936e-17
4.48484e-16
2.93649e-15
5.46664e-15
2.20952e-14
-1.16728e-13
1.35425e-13
4.0221e-13
-2.6566e-13
4.18243e-13
-6.38111e-12
1.51633e-11
4.71572e-12
-4.31802e-11
3.59943e-11
5.10635e-12
-2.06398e-11
1.76646e-11
-2.34267e-11
-5.11211e-11
1.04264e-10
1.9217e-10
-2.33827e-11
-1.36761e-10
5.09634e-11
-2.95626e-11
-3.74187e-10
-4.00074e-10
2.81301e-11
4.50701e-10
6.43067e-10
6.30759e-10
3.6978e-10
-2.69148e-10
-1.19534e-09
-1.76197e-09
-1.35262e-09
-4.07885e-10
1.66212e-11
7.48215e-11
5.76676e-11
-3.91314e-11
-1.21759e-10
-1.15394e-10
-7.81226e-11
-4.52195e-11
-5.54216e-12
2.26223e-11
1.95712e-11
3.76009e-12
-3.70162e-12
-3.11933e-12
-1.67159e-12
-1.30821e-12
-1.03738e-12
-4.92503e-13
-4.9851e-14
1.03826e-13
1.00764e-13
4.50293e-14
2.25238e-14
4.22299e-15
2.88102e-15
1.167e-18
1.18219e-18
1.23882e-18
1.21764e-18
1.28184e-18
1.24582e-18
1.23925e-18
1.18797e-18
1.13319e-18
1.08276e-18
1.07233e-18
9.93775e-19
9.28526e-19
9.00214e-19
8.63243e-19
8.32438e-19
7.88392e-19
7.93605e-19
7.42673e-19
7.31685e-19
6.73613e-19
6.74947e-19
6.2173e-19
5.70404e-19
5.34769e-19
5.37455e-19
4.71213e-19
4.18099e-19
4.37393e-19
4.37789e-19
3.26843e-19
2.9456e-19
2.95228e-19
6.6511e-19
5.52705e-19
-6.72318e-19
-5.65311e-19
5.61206e-19
1.38561e-18
1.78448e-18
1.16113e-18
-1.62644e-20
-1.28674e-18
-1.91216e-18
-2.18955e-18
-1.21161e-18
4.23133e-19
1.87165e-18
6.12302e-18
5.11475e-18
7.79705e-19
-5.53648e-18
-9.10375e-18
-8.2796e-18
-1.59638e-17
-4.81947e-17
-4.78082e-16
-4.17731e-16
3.59558e-17
-7.2927e-16
6.07402e-15
1.43865e-14
-9.1526e-14
3.86467e-13
-5.78615e-13
1.64458e-13
2.71074e-13
3.81985e-12
-8.06581e-12
-9.35883e-13
1.87975e-11
-2.34636e-11
5.21018e-12
2.268e-11
-4.07357e-11
-7.55872e-12
9.63165e-11
4.61722e-11
-9.64013e-11
-3.123e-11
7.9066e-11
-9.10806e-11
-2.66271e-10
-1.59481e-10
1.19336e-10
3.58203e-10
4.50981e-10
3.19033e-10
-1.17103e-10
-8.06429e-10
-1.37569e-09
-1.28674e-09
-5.57793e-10
4.32007e-11
1.76487e-10
1.55286e-10
3.9045e-11
-1.10275e-10
-1.50806e-10
-1.04078e-10
-5.65159e-11
-1.84493e-11
1.53093e-11
2.35796e-11
9.7038e-12
-2.48565e-12
-4.23607e-12
-2.20037e-12
-1.17049e-12
-9.38701e-13
-5.86257e-13
-1.33362e-13
1.18345e-13
1.4214e-13
9.27888e-14
3.51685e-14
1.59179e-14
2.5358e-15
1.56768e-15
1.40343e-18
1.41606e-18
1.34996e-18
1.2874e-18
1.32874e-18
1.31873e-18
1.24254e-18
1.18555e-18
1.12783e-18
1.08984e-18
1.01405e-18
9.78112e-19
9.61421e-19
8.86229e-19
8.07959e-19
7.59232e-19
7.12789e-19
6.4559e-19
5.90479e-19
5.04567e-19
4.73476e-19
4.24093e-19
3.55809e-19
3.34257e-19
2.65489e-19
2.6081e-19
2.07856e-19
7.04827e-20
1.82428e-19
4.28264e-19
3.28012e-20
-1.86608e-19
-1.59752e-19
5.2226e-19
1.62623e-18
-9.51108e-19
-2.84744e-18
-1.56574e-18
1.04181e-18
3.92774e-18
4.89277e-18
3.55339e-18
-2.75887e-18
-6.20618e-18
-9.35735e-18
-7.53892e-18
-2.82676e-18
2.46098e-18
1.90228e-17
2.29985e-17
1.06268e-17
-7.86547e-18
-1.72894e-17
-1.6489e-17
-1.08462e-17
8.93343e-17
-1.79903e-16
-2.34927e-16
-2.00991e-17
-4.4323e-16
1.39869e-15
-2.64205e-16
-2.45938e-14
2.32593e-13
-6.05054e-13
5.96781e-13
2.9294e-13
-3.7426e-13
-2.60197e-12
5.20897e-12
-1.76203e-13
-1.21133e-11
1.75517e-11
-5.6277e-13
-3.1778e-11
2.29716e-11
5.45173e-11
-2.69017e-11
-6.67796e-11
3.96665e-11
4.55501e-11
-9.21435e-11
-1.46866e-10
-6.86793e-11
9.80664e-11
2.47541e-10
2.65915e-10
4.13713e-11
-4.22023e-10
-9.16266e-10
-1.06564e-09
-6.44167e-10
-5.07281e-11
2.13306e-10
2.35001e-10
1.46685e-10
-3.87996e-11
-1.53794e-10
-1.29314e-10
-6.66875e-11
-2.58498e-11
5.59185e-12
2.32529e-11
1.61663e-11
1.1233e-12
-4.79701e-12
-3.25633e-12
-1.35385e-12
-7.86316e-13
-5.57959e-13
-1.89685e-13
1.12652e-13
2.02862e-13
1.44785e-13
7.64319e-14
2.61175e-14
1.08375e-14
1.30707e-15
6.60961e-16
1.54262e-18
1.52384e-18
1.53653e-18
1.50699e-18
1.43849e-18
1.41343e-18
1.26055e-18
1.11428e-18
1.04273e-18
1.03797e-18
9.83007e-19
9.42427e-19
7.90778e-19
7.70485e-19
6.80886e-19
5.71723e-19
4.89862e-19
3.26572e-19
2.87798e-19
2.26235e-19
1.13806e-19
2.70515e-20
9.81987e-20
2.47872e-20
-1.03758e-19
-1.07186e-19
3.80987e-21
-2.93185e-19
-2.28609e-19
5.55232e-19
-1.10867e-20
-7.30604e-19
-6.83418e-19
-8.50538e-19
2.65311e-18
1.97684e-18
-3.68725e-18
-8.39976e-18
-9.78373e-18
8.03544e-18
1.72275e-17
1.79352e-17
3.73985e-18
-1.5365e-17
-2.66782e-17
-3.23809e-17
-2.04701e-17
-4.55311e-18
3.80178e-17
7.37982e-17
5.09019e-17
-4.71806e-18
-3.66673e-17
-3.81833e-17
7.76886e-19
2.24008e-16
7.01465e-17
-4.38019e-17
2.03e-16
-8.68592e-16
5.43136e-15
-1.75947e-14
2.26772e-14
5.93765e-14
-3.00236e-13
5.33516e-13
-2.62273e-13
-5.64602e-13
3.53123e-13
2.19652e-12
-4.06822e-12
-6.73675e-13
1.11471e-11
-1.15506e-11
-1.16208e-11
2.66759e-11
1.6117e-11
-3.99966e-11
-1.76816e-11
4.32143e-11
9.36517e-12
-4.59276e-11
-6.82126e-11
-4.68856e-11
5.59511e-11
1.6045e-10
1.26595e-10
-1.24218e-10
-4.91479e-10
-7.28631e-10
-6.03982e-10
-1.70711e-10
1.64338e-10
2.57694e-10
2.29947e-10
7.5004e-11
-1.01265e-10
-1.3676e-10
-7.72302e-11
-2.83558e-11
-1.71924e-12
1.80957e-11
2.03379e-11
6.77758e-12
-3.73217e-12
-4.47814e-12
-2.01478e-12
-7.78415e-13
-4.57817e-13
-1.84961e-13
1.14714e-13
2.5611e-13
2.28398e-13
1.30198e-13