/*--------------------------------*- C++ -*----------------------------------*\
| =========                 |                                                 |
| \\      /  F ield         | OpenFOAM: The Open Source CFD Toolbox           |
|  \\    /   O peration     | Version:  2.2.x                                 |
|   \\  /    A nd           | Web:      www.OpenFOAM.org                      |
|    \\/     M anipulation  |                                                 |
\*---------------------------------------------------------------------------*/
FoamFile
{
    version     2.0;
    format      ascii;
    class       volScalarField;
    location    "0.5";
    object      T;
}
// * * * * * * * * * * * * * * * * * * * * * * * * * * * * * * * * * * * * * //

dimensions      [0 0 0 1 0 0 0];

internalField   nonuniform List<scalar> 
14161
(
1
1
1
1
1
1
1
1
1
0.999999
0.999998
0.999997
0.999994
0.999989
0.999981
0.999968
0.999947
0.999914
0.999863
0.999787
0.999677
0.99952
0.999301
0.999004
0.998611
0.998099
0.997448
0.99664
0.995652
0.994476
0.993099
0.991488
0.989719
0.987791
0.985551
0.983283
0.981054
0.978432
0.975917
0.973841
0.971806
0.969782
0.967946
0.967042
0.966428
0.966226
0.966376
0.96719
0.968832
0.971867
0.97608
0.983078
0.991206
1.00214
1.0195
1.04152
1.05698
1.53932
2.87365
3.0992
3.13264
3.09996
3.08254
3.03686
3.0013
2.9581
2.91622
2.87628
2.84465
2.81711
2.79267
2.77301
2.75597
2.74686
2.73492
2.72011
2.70567
2.69125
2.67823
2.66444
2.64615
2.6269
2.60248
2.5919
2.57987
2.56816
2.5184
2.49018
2.4905
2.46491
2.46298
2.4417
2.50413
2.53032
2.62848
2.72617
2.78904
2.86409
2.93778
2.9964
3.03561
3.06942
3.09339
3.10863
3.12531
3.14225
3.16062
3.17562
3.18432
3.19364
3.2046
3.21674
3.2293
3.24205
3.25587
3.27329
3.29435
3.3081
3.31603
1
1
1
1
1
1
1
1
1
0.999999
0.999998
0.999997
0.999994
0.999989
0.999981
0.999968
0.999947
0.999914
0.999863
0.999787
0.999677
0.99952
0.999301
0.999005
0.99861
0.998099
0.997449
0.996639
0.995653
0.994475
0.993094
0.991504
0.98972
0.98775
0.985575
0.983251
0.980953
0.978413
0.975997
0.973852
0.971438
0.969536
0.968237
0.967167
0.965939
0.965549
0.965564
0.966178
0.96772
0.970592
0.974439
0.980985
0.988092
0.999176
1.01657
1.03891
1.06592
1.58424
2.88692
3.11099
3.13189
3.08797
3.05781
3.00224
2.95948
2.91281
2.87253
2.83323
2.8011
2.77599
2.75439
2.73346
2.71851
2.70813
2.70153
2.68868
2.67641
2.66425
2.65083
2.63925
2.62229
2.60635
2.58145
2.5562
2.5424
2.5338
2.48641
2.47113
2.48675
2.47306
2.50257
2.51914
2.62448
2.70511
2.82512
2.91464
2.95979
2.98945
3.02854
3.06195
3.08376
3.10457
3.11931
3.13074
3.14489
3.15996
3.17596
3.1889
3.19662
3.20567
3.21633
3.22813
3.24004
3.25155
3.26429
3.28037
3.29856
3.30859
3.31574
1
1
1
1
1
1
1
1
1
0.999999
0.999998
0.999997
0.999994
0.999989
0.999981
0.999968
0.999947
0.999914
0.999863
0.999787
0.999677
0.99952
0.999302
0.999005
0.998611
0.9981
0.99745
0.99664
0.995654
0.994475
0.993089
0.991506
0.98971
0.987689
0.98558
0.983248
0.980776
0.978314
0.975897
0.973641
0.971018
0.969063
0.967839
0.966548
0.964903
0.964083
0.963796
0.964147
0.965376
0.967662
0.970492
0.975278
0.981334
0.991573
1.00593
1.02148
1.0423
1.51892
2.86173
3.12063
3.12761
3.08238
3.05131
2.9932
2.94887
2.90338
2.86514
2.82552
2.7874
2.76023
2.73652
2.71654
2.69178
2.67807
2.66836
2.6567
2.64677
2.63785
2.62373
2.60806
2.58881
2.58038
2.54815
2.5221
2.50235
2.5068
2.48059
2.47336
2.50317
2.50764
2.56394
2.61701
2.71791
2.82637
2.92848
3.02282
3.07291
3.08531
3.10206
3.11868
3.1293
3.13887
3.1456
3.15276
3.16398
3.17766
3.19209
3.20213
3.20837
3.21668
3.22667
3.23753
3.24816
3.25789
3.26882
3.2828
3.2981
3.3054
3.31045
1
1
1
1
1
1
1
1
1
0.999999
0.999998
0.999997
0.999994
0.999989
0.999981
0.999968
0.999947
0.999914
0.999863
0.999788
0.999678
0.999521
0.999303
0.999007
0.998613
0.998102
0.997451
0.996642
0.995655
0.994473
0.993086
0.991498
0.989688
0.987644
0.985543
0.983201
0.98067
0.978178
0.975769
0.973025
0.970638
0.968768
0.966732
0.964794
0.963008
0.962269
0.961298
0.961082
0.961248
0.962109
0.963648
0.966128
0.971103
0.978819
0.986887
0.996409
1.01504
1.41432
2.82666
3.12149
3.10701
3.05014
3.01467
2.9542
2.91069
2.86397
2.82764
2.79249
2.75085
2.71601
2.68974
2.67091
2.64333
2.62229
2.60884
2.59966
2.59393
2.58813
2.57129
2.54851
2.52939
2.52665
2.499
2.48395
2.48186
2.4993
2.49633
2.4893
2.55418
2.59422
2.69301
2.80498
2.91149
3.02497
3.08145
3.13118
3.1669
3.18294
3.18701
3.19049
3.19391
3.1947
3.19365
3.19326
3.19819
3.20756
3.21865
3.22629
3.22991
3.23633
3.24465
3.25343
3.26132
3.26732
3.27415
3.28475
3.29763
3.30233
3.30633
1
1
1
1
1
1
1
1
1
0.999999
0.999998
0.999997
0.999994
0.999989
0.999981
0.999968
0.999947
0.999914
0.999864
0.999789
0.999679
0.999523
0.999305
0.99901
0.998617
0.998106
0.997455
0.996646
0.995656
0.994471
0.993082
0.991479
0.989662
0.98763
0.985425
0.9831
0.9805
0.978009
0.975478
0.972281
0.970048
0.968109
0.965153
0.962314
0.961057
0.959873
0.957792
0.955725
0.954822
0.954142
0.953664
0.953961
0.956466
0.958585
0.960066
0.960972
0.974828
1.21817
2.74962
3.11832
3.08341
3.00591
2.96869
2.90494
2.86491
2.81403
2.76824
2.73354
2.69414
2.64852
2.62121
2.60058
2.57827
2.55254
2.53457
2.52914
2.52283
2.51907
2.50443
2.48925
2.47752
2.48393
2.46755
2.47562
2.48079
2.50456
2.53432
2.55129
2.64877
2.745
2.83416
2.95064
3.04752
3.1111
3.14874
3.17542
3.1952
3.21819
3.23414
3.24177
3.24494
3.24188
3.23473
3.23185
3.23443
3.23973
3.24615
3.24971
3.25005
3.25386
3.25981
3.26651
3.27151
3.27438
3.27883
3.28664
3.2974
3.29959
3.3029
1
1
1
1
1
1
1
1
1
0.999999
0.999998
0.999997
0.999994
0.999989
0.999981
0.999968
0.999948
0.999915
0.999865
0.99979
0.999681
0.999525
0.999308
0.999014
0.998622
0.998111
0.997462
0.996651
0.99566
0.994472
0.993078
0.991461
0.989631
0.987582
0.985303
0.982946
0.980305
0.977643
0.974967
0.971791
0.969351
0.966794
0.963167
0.960231
0.958878
0.957047
0.952893
0.948904
0.946728
0.94514
0.942757
0.93779
0.934187
0.931944
0.927588
0.917735
0.917519
0.935958
2.55556
3.1091
3.03978
2.93473
2.87744
2.80537
2.76462
2.7196
2.6695
2.63469
2.60068
2.55803
2.53169
2.50184
2.48609
2.47058
2.45714
2.44777
2.4457
2.4516
2.44801
2.45153
2.44198
2.46329
2.4578
2.48508
2.5055
2.549
2.61754
2.6912
2.77797
2.8868
2.98685
3.06135
3.10811
3.14484
3.17131
3.18787
3.20891
3.23504
3.2601
3.27336
3.27409
3.26811
3.26356
3.26301
3.26643
3.2715
3.27367
3.27107
3.26961
3.27052
3.27406
3.27779
3.27947
3.28049
3.28323
3.28879
3.29741
3.29757
3.30046
1
1
1
1
1
1
1
1
1
0.999999
0.999998
0.999997
0.999994
0.999989
0.999982
0.999969
0.999948
0.999916
0.999866
0.999792
0.999683
0.999528
0.999313
0.999019
0.998629
0.99812
0.997471
0.99666
0.995667
0.994476
0.993072
0.991444
0.989591
0.987509
0.985208
0.982734
0.980058
0.977136
0.974252
0.971337
0.968181
0.964809
0.961428
0.958648
0.955766
0.952234
0.947436
0.943266
0.939545
0.934854
0.928996
0.921604
0.913294
0.904033
0.893651
0.875096
0.853273
0.850645
2.26094
3.05693
2.9842
2.84858
2.76842
2.69976
2.65587
2.62164
2.56258
2.53603
2.50306
2.46653
2.44094
2.41849
2.40988
2.3987
2.39749
2.38202
2.39545
2.40716
2.40235
2.43032
2.42444
2.4624
2.47605
2.52153
2.59629
2.66287
2.76187
2.83197
2.91776
3.00686
3.06273
3.09917
3.12698
3.15382
3.17489
3.19419
3.21571
3.24048
3.26541
3.28199
3.28588
3.28687
3.28588
3.28807
3.29248
3.29501
3.29334
3.28996
3.28644
3.28532
3.28576
3.28653
3.28617
3.28627
3.28705
3.29091
3.29766
3.29651
3.29899
1
1
1
1
1
1
1
1
1
0.999999
0.999998
0.999997
0.999994
0.99999
0.999982
0.999969
0.999949
0.999917
0.999867
0.999794
0.999686
0.999533
0.999319
0.999027
0.998638
0.998131
0.997483
0.996673
0.99568
0.994485
0.99307
0.991429
0.989553
0.98744
0.985093
0.982515
0.979767
0.976757
0.973572
0.970527
0.967045
0.963144
0.959795
0.956706
0.95274
0.947342
0.942625
0.938715
0.933143
0.923917
0.915404
0.907089
0.897789
0.881438
0.866236
0.851555
0.832741
0.836778
1.68545
2.93485
2.89686
2.75214
2.66859
2.60668
2.56265
2.53147
2.48522
2.44961
2.43429
2.3991
2.38385
2.36625
2.36451
2.34278
2.35826
2.3467
2.3741
2.38809
2.38235
2.43536
2.44689
2.50596
2.56516
2.63388
2.74262
2.81492
2.89992
2.9742
3.01822
3.05929
3.08512
3.1043
3.1292
3.15112
3.17407
3.19526
3.21728
3.24082
3.26367
3.27888
3.28901
3.29645
3.30006
3.30386
3.30723
3.3083
3.30783
3.30525
3.30074
3.29743
3.29498
3.29387
3.29241
3.29147
3.29095
3.293
3.29768
3.29624
3.29829
1
1
1
1
1
1
1
1
1
0.999999
0.999998
0.999997
0.999994
0.99999
0.999982
0.99997
0.99995
0.999918
0.999869
0.999797
0.99969
0.999538
0.999326
0.999036
0.99865
0.998145
0.9975
0.996691
0.995697
0.994498
0.993076
0.99142
0.989523
0.987376
0.984981
0.982322
0.979477
0.976385
0.973024
0.969518
0.966023
0.962026
0.957953
0.954129
0.949845
0.944507
0.939002
0.933679
0.927482
0.917336
0.907406
0.897393
0.886744
0.867054
0.844652
0.820068
0.801292
0.87118
1.35476
2.71232
2.7486
2.68476
2.60366
2.54895
2.4943
2.4629
2.43651
2.39574
2.38993
2.35857
2.36595
2.3338
2.33949
2.30998
2.34475
2.33673
2.38291
2.4107
2.41227
2.49537
2.55246
2.63189
2.73247
2.80025
2.89127
2.95905
3.00193
3.03349
3.05537
3.06989
3.08341
3.10428
3.12506
3.14837
3.17206
3.19338
3.21537
3.23845
3.2579
3.27175
3.28507
3.29618
3.30412
3.30962
3.3141
3.31788
3.31914
3.31702
3.31118
3.30588
3.30223
3.30036
3.29797
3.29595
3.29462
3.29513
3.29826
3.29647
3.29797
1
1
1
1
1
1
1
1
1
0.999999
0.999998
0.999997
0.999994
0.99999
0.999983
0.99997
0.999951
0.999919
0.999872
0.9998
0.999695
0.999545
0.999335
0.999048
0.998665
0.998164
0.997522
0.996716
0.995722
0.994521
0.993095
0.991426
0.989507
0.987333
0.984891
0.982188
0.979221
0.976052
0.97259
0.968777
0.964995
0.961207
0.956511
0.951907
0.947534
0.942873
0.936231
0.929505
0.92295
0.914281
0.903315
0.891675
0.879801
0.858986
0.830645
0.786646
0.752215
0.859276
1.14095
2.47507
2.5571
2.66829
2.55696
2.54712
2.48219
2.43469
2.41506
2.37047
2.37647
2.33984
2.35676
2.30843
2.33991
2.31698
2.36793
2.37912
2.44822
2.50791
2.53973
2.63001
2.73776
2.81141
2.9028
2.9642
3.00861
3.03043
3.04382
3.05662
3.06331
3.07205
3.0871
3.10399
3.12423
3.14601
3.16847
3.18873
3.21108
3.23233
3.24874
3.26366
3.27842
3.29046
3.30061
3.31
3.31763
3.32322
3.326
3.32358
3.31719
3.31167
3.30803
3.30549
3.30212
3.29946
3.29777
3.29763
3.29923
3.29673
3.29759
1
1
1
1
1
1
1
1
1
0.999999
0.999998
0.999997
0.999995
0.99999
0.999983
0.999971
0.999952
0.999921
0.999874
0.999804
0.999701
0.999553
0.999346
0.999063
0.998684
0.998188
0.99755
0.996748
0.995758
0.994557
0.993126
0.991448
0.989514
0.987313
0.984843
0.982092
0.979063
0.975754
0.972253
0.968345
0.964238
0.960321
0.955557
0.950686
0.946174
0.941512
0.934588
0.927718
0.921147
0.913355
0.902921
0.892511
0.881826
0.865253
0.844042
0.816477
0.808161
0.81081
1.76573
2.32841
2.40809
2.60645
2.58074
2.59767
2.49925
2.43165
2.4232
2.36694
2.373
2.33254
2.37467
2.33427
2.39766
2.3867
2.47022
2.5189
2.59296
2.67922
2.74193
2.81904
2.92877
2.99079
3.0255
3.03931
3.04683
3.04615
3.04837
3.05529
3.0639
3.0745
3.08843
3.10608
3.12343
3.14375
3.16351
3.18327
3.20419
3.22254
3.23919
3.25563
3.27005
3.28311
3.29601
3.30791
3.31766
3.32467
3.32806
3.32608
3.3205
3.31583
3.31194
3.30852
3.30502
3.30236
3.30085
3.30016
3.30015
3.29704
3.29732
1
1
1
1
1
1
1
1
1
0.999999
0.999998
0.999997
0.999995
0.999991
0.999984
0.999972
0.999953
0.999923
0.999878
0.999809
0.999708
0.999563
0.99936
0.999081
0.998708
0.998217
0.997587
0.996791
0.995806
0.994609
0.993178
0.991496
0.989551
0.98733
0.984826
0.982045
0.978988
0.975612
0.972043
0.968109
0.963803
0.959748
0.955097
0.950084
0.945401
0.940716
0.934049
0.927531
0.921391
0.914117
0.904351
0.895223
0.88625
0.874645
0.861566
0.860916
0.937609
1.24771
2.06361
2.23885
2.27071
2.39841
2.43786
2.57479
2.49185
2.43321
2.43968
2.3982
2.39619
2.38819
2.44871
2.43195
2.52421
2.54933
2.64047
2.73794
2.79349
2.87619
2.95035
3.00354
3.04589
3.05564
3.05613
3.05714
3.0543
3.05078
3.05174
3.05906
3.06783
3.07801
3.0931
3.10729
3.12306
3.14162
3.16024
3.1789
3.19686
3.21407
3.23188
3.248
3.26168
3.27532
3.28921
3.30289
3.31403
3.32183
3.32647
3.32593
3.32206
3.31797
3.31345
3.31014
3.30701
3.30465
3.30341
3.30212
3.30115
3.29773
3.29761
1
1
1
1
1
1
1
1
1
0.999999
0.999999
0.999997
0.999995
0.999991
0.999984
0.999973
0.999955
0.999926
0.999881
0.999814
0.999716
0.999575
0.999376
0.999103
0.998737
0.998254
0.997632
0.996845
0.995869
0.99468
0.993255
0.991575
0.989627
0.987398
0.984884
0.982076
0.978971
0.975568
0.971953
0.967988
0.963623
0.959531
0.954932
0.949921
0.945298
0.940718
0.934273
0.927953
0.922198
0.915343
0.906858
0.899288
0.89209
0.882347
0.871902
0.874754
0.959168
1.73211
2.26939
2.27291
2.2596
2.30453
2.34635
2.52268
2.48001
2.52169
2.4832
2.48717
2.44972
2.53066
2.60786
2.60874
2.7196
2.77844
2.85506
2.94012
2.98523
3.02849
3.05482
3.06455
3.0728
3.07013
3.06239
3.05451
3.05332
3.05212
3.05531
3.0608
3.0675
3.07953
3.09293
3.10749
3.12356
3.14135
3.15841
3.1747
3.19063
3.20797
3.22556
3.24068
3.25378
3.26811
3.28317
3.29738
3.30843
3.31649
3.3224
3.32379
3.32172
3.31779
3.31353
3.31098
3.3081
3.30584
3.30497
3.30387
3.30243
3.29874
3.2984
1
1
1
1
1
1
1
1
1
0.999999
0.999999
0.999997
0.999995
0.999991
0.999985
0.999974
0.999957
0.999929
0.999886
0.999821
0.999726
0.999588
0.999395
0.999129
0.998771
0.998299
0.997688
0.996914
0.995951
0.994775
0.993363
0.991694
0.989751
0.987525
0.985011
0.982197
0.979087
0.975667
0.972065
0.968088
0.963751
0.959688
0.955109
0.950129
0.945541
0.941046
0.934862
0.928922
0.923417
0.916799
0.909333
0.902177
0.894892
0.882545
0.865799
0.871518
0.939422
2.03267
2.28684
2.28564
2.2632
2.25408
2.3213
2.43708
2.48801
2.63191
2.56841
2.63084
2.6095
2.70518
2.80556
2.852
2.93639
2.98338
3.02245
3.05599
3.06495
3.07683
3.08442
3.07932
3.06923
3.06558
3.06375
3.05859
3.05786
3.05746
3.06063
3.06327
3.06921
3.07804
3.09125
3.10542
3.12149
3.13889
3.1544
3.16861
3.18449
3.20213
3.2188
3.23251
3.24616
3.26115
3.27714
3.29114
3.30125
3.3097
3.31675
3.31973
3.31893
3.31635
3.31304
3.31071
3.30811
3.30617
3.30578
3.30537
3.30377
3.29992
3.29953
1
1
1
1
1
1
1
1
1
0.999999
0.999999
0.999998
0.999996
0.999992
0.999986
0.999975
0.999959
0.999932
0.999891
0.999829
0.999737
0.999605
0.999418
0.99916
0.998812
0.998353
0.997757
0.996999
0.996055
0.994898
0.993506
0.991857
0.989932
0.987721
0.985225
0.982429
0.979327
0.975878
0.972349
0.968389
0.964096
0.960063
0.955568
0.950615
0.946128
0.941748
0.935818
0.930262
0.924938
0.918385
0.91189
0.906605
0.901236
0.893787
0.88963
0.950621
1.19842
2.16878
2.30602
2.31166
2.29742
2.28182
2.3221
2.4639
2.51853
2.72081
2.75365
2.83014
2.85237
2.9326
2.99732
3.03515
3.06178
3.06897
3.07656
3.08353
3.08994
3.07869
3.07443
3.07443
3.07095
3.06539
3.06256
3.05801
3.05622
3.05744
3.05973
3.0635
3.0683
3.07632
3.08937
3.103
3.11805
3.13387
3.14732
3.16118
3.17769
3.1953
3.21084
3.22394
3.2388
3.25478
3.27083
3.28415
3.29337
3.30225
3.30989
3.31378
3.31494
3.31441
3.31145
3.30867
3.30691
3.30615
3.30648
3.30635
3.30471
3.30108
3.30113
1
1
1
1
1
1
1
1
1
0.999999
0.999999
0.999998
0.999996
0.999992
0.999987
0.999977
0.999961
0.999936
0.999897
0.999838
0.99975
0.999624
0.999444
0.999197
0.998861
0.998417
0.997839
0.997103
0.996183
0.995053
0.993689
0.992072
0.990177
0.987996
0.985529
0.982773
0.979705
0.976234
0.972798
0.96893
0.964726
0.960622
0.956376
0.951429
0.94703
0.942772
0.937199
0.931648
0.926375
0.920527
0.914301
0.909788
0.906129
0.902382
0.903983
0.995317
1.65561
2.35094
2.34005
2.3478
2.34749
2.34232
2.43896
2.58621
2.69244
2.89401
3.00435
3.04365
3.06459
3.07796
3.08763
3.09477
3.10139
3.0985
3.08559
3.07703
3.0757
3.07952
3.07272
3.07246
3.06848
3.06516
3.06324
3.05868
3.05666
3.05693
3.05854
3.06205
3.06636
3.07354
3.08471
3.09701
3.1107
3.12565
3.13947
3.154
3.17034
3.18721
3.20205
3.21617
3.23189
3.24877
3.26402
3.27585
3.28502
3.29441
3.30229
3.30727
3.3105
3.31126
3.30825
3.30556
3.30504
3.30612
3.30696
3.30672
3.30527
3.3023
3.30328
1
1
1
1
1
1
1
1
1
0.999999
0.999999
0.999998
0.999996
0.999993
0.999988
0.999979
0.999964
0.99994
0.999904
0.999848
0.999765
0.999645
0.999475
0.999239
0.998919
0.998493
0.997938
0.997229
0.99634
0.995244
0.993918
0.992342
0.990495
0.988359
0.985932
0.983231
0.980218
0.97678
0.973353
0.969691
0.9655
0.961397
0.957378
0.952469
0.947955
0.943894
0.938987
0.933012
0.927612
0.922457
0.916046
0.909315
0.901665
0.893123
0.894388
0.949871
2.05382
2.37065
2.36741
2.37912
2.39286
2.39537
2.55438
2.71807
2.87374
3.06398
3.1391
3.13148
3.12832
3.12046
3.11416
3.10202
3.09249
3.0867
3.08157
3.07486
3.0682
3.06834
3.06763
3.06764
3.06542
3.06253
3.06008
3.05552
3.05376
3.0543
3.05608
3.05888
3.06307
3.06951
3.0794
3.09083
3.1038
3.11858
3.13254
3.14694
3.16305
3.17905
3.19366
3.20915
3.22627
3.24258
3.256
3.26636
3.27665
3.28661
3.29513
3.30142
3.30531
3.3057
3.30386
3.30235
3.30358
3.30581
3.30658
3.30679
3.30573
3.3035
3.30549
1
1
1
1
1
1
1
1
1
1
0.999999
0.999998
0.999997
0.999994
0.999989
0.999981
0.999967
0.999945
0.999911
0.999859
0.999782
0.99967
0.99951
0.999288
0.998985
0.998581
0.998054
0.997377
0.996527
0.995476
0.994199
0.992674
0.990888
0.988815
0.986446
0.983801
0.980869
0.97756
0.974038
0.970558
0.966409
0.962258
0.958345
0.953837
0.949057
0.94471
0.940227
0.93419
0.928254
0.923018
0.917195
0.909869
0.901621
0.896873
0.944146
1.15829
2.20999
2.36896
2.37565
2.40418
2.44008
2.49195
2.70658
2.86859
3.06141
3.16149
3.16564
3.15271
3.13549
3.12075
3.10899
3.09905
3.09103
3.08396
3.07598
3.06926
3.06274
3.06189
3.06149
3.06153
3.06137
3.05986
3.05733
3.05341
3.0518
3.05174
3.05321
3.0559
3.05915
3.06489
3.07477
3.08537
3.0968
3.11091
3.12482
3.13922
3.15473
3.17028
3.18616
3.20334
3.22019
3.23461
3.24633
3.25707
3.26835
3.27929
3.28861
3.29543
3.29855
3.29847
3.29873
3.29963
3.30254
3.30465
3.30582
3.30644
3.30596
3.30442
3.3072
1
1
1
1
1
1
1
1
1
1
0.999999
0.999998
0.999997
0.999994
0.99999
0.999983
0.99997
0.999951
0.99992
0.999872
0.999801
0.999698
0.99955
0.999344
0.999062
0.998684
0.998189
0.997552
0.996747
0.995751
0.994535
0.993078
0.99136
0.989371
0.987083
0.984499
0.981652
0.978466
0.974922
0.971483
0.967534
0.963332
0.959268
0.955201
0.950152
0.945302
0.940789
0.935609
0.929105
0.923814
0.918808
0.913438
0.908782
0.913153
1.00088
1.65242
2.35833
2.39044
2.39763
2.45723
2.51885
2.67154
2.864
3.04287
3.14588
3.17028
3.14817
3.1362
3.11938
3.10742
3.0963
3.08716
3.08193
3.0781
3.07239
3.06639
3.06033
3.05847
3.05713
3.05619
3.05639
3.0534
3.05095
3.0467
3.04544
3.04563
3.04806
3.05141
3.05487
3.06078
3.07017
3.07985
3.09024
3.1041
3.11828
3.13243
3.14734
3.16297
3.17964
3.19663
3.21196
3.22497
3.23678
3.24854
3.2608
3.27262
3.28208
3.28808
3.29051
3.29205
3.29353
3.29757
3.30137
3.30287
3.30473
3.30568
3.30603
3.30507
3.30817
1
1
1
1
1
1
1
1
1
1
0.999999
0.999999
0.999997
0.999995
0.999991
0.999985
0.999974
0.999957
0.999929
0.999887
0.999823
0.999729
0.999595
0.999407
0.999149
0.998802
0.998345
0.997755
0.997006
0.996073
0.994933
0.993559
0.991929
0.99003
0.987847
0.985362
0.982591
0.979511
0.976053
0.972523
0.968828
0.964518
0.960255
0.956264
0.951621
0.946217
0.941006
0.936111
0.930205
0.923599
0.916756
0.908095
0.899897
0.90046
0.955635
2.05622
2.412
2.42851
2.45201
2.55908
2.68427
2.85201
3.03125
3.14486
3.17007
3.14153
3.13268
3.11619
3.10499
3.09444
3.08488
3.0785
3.0757
3.07332
3.06937
3.06389
3.05785
3.05562
3.05298
3.05102
3.04898
3.04567
3.0434
3.04061
3.04079
3.04135
3.04407
3.04699
3.05027
3.05599
3.06481
3.07442
3.085
3.09889
3.11264
3.12586
3.14013
3.15576
3.17232
3.18835
3.20237
3.21499
3.22757
3.24073
3.25409
3.26597
3.27451
3.27933
3.28266
3.28614
3.28974
3.29573
3.29907
3.30074
3.30314
3.30481
3.30604
3.30554
3.30852
1
1
1
1
1
1
1
1
1
1
1
0.999999
0.999998
0.999996
0.999993
0.999988
0.999978
0.999963
0.999939
0.999902
0.999847
0.999764
0.999646
0.999479
0.999248
0.998936
0.998524
0.997988
0.997306
0.99645
0.995397
0.994125
0.992604
0.990816
0.98875
0.986392
0.983726
0.980754
0.977442
0.973821
0.9702
0.965947
0.961497
0.957417
0.953023
0.947053
0.941394
0.936195
0.930517
0.922258
0.913528
0.901668
0.896138
0.954539
1.17567
2.24122
2.42959
2.43432
2.52961
2.65932
2.83064
3.00072
3.13566
3.17028
3.14711
3.13489
3.11385
3.10244
3.0927
3.08447
3.07718
3.07201
3.07033
3.06874
3.06593
3.06108
3.05409
3.05063
3.04621
3.04462
3.04138
3.03826
3.03545
3.03342
3.0333
3.03441
3.03713
3.04021
3.0442
3.05027
3.05914
3.06879
3.07899
3.09209
3.10516
3.1181
3.13246
3.14851
3.16525
3.18009
3.19281
3.20564
3.21942
3.23395
3.24764
3.25829
3.26547
3.27059
3.27541
3.28043
3.28703
3.29291
3.29577
3.29822
3.3013
3.30404
3.30616
3.30614
3.30862
1
1
1
1
1
1
1
1
1
1
1
0.999999
0.999999
0.999997
0.999995
0.99999
0.999983
0.999971
0.999951
0.99992
0.999873
0.999803
0.999702
0.999559
0.999359
0.999088
0.998727
0.998255
0.99765
0.996887
0.995939
0.994783
0.9934
0.991755
0.98983
0.987614
0.985115
0.982269
0.979013
0.975545
0.971962
0.967702
0.963172
0.958984
0.954467
0.948064
0.942298
0.937195
0.931561
0.922631
0.915417
0.909073
0.916269
1.02428
1.66355
2.44618
2.49021
2.52884
2.66219
2.8211
2.98726
3.12242
3.16137
3.14075
3.13769
3.11952
3.10534
3.09475
3.08662
3.07927
3.07259
3.06659
3.06364
3.06202
3.05991
3.05667
3.05047
3.04585
3.03908
3.03699
3.0332
3.03173
3.0297
3.02775
3.02682
3.02792
3.0305
3.03451
3.03982
3.04646
3.05513
3.0645
3.07425
3.08595
3.09797
3.11059
3.1247
3.14043
3.1567
3.17081
3.18337
3.19742
3.21254
3.22745
3.24021
3.24954
3.25626
3.26248
3.2687
3.27602
3.28353
3.28868
3.29196
3.29568
3.29981
3.30353
3.3063
3.30662
3.30891
1
1
1
1
1
1
1
1
1
1
1
1
0.999999
0.999998
0.999996
0.999993
0.999988
0.999978
0.999963
0.999939
0.999902
0.999846
0.999764
0.999647
0.999483
0.999258
0.998956
0.998557
0.998041
0.997386
0.996567
0.995555
0.994327
0.992869
0.991134
0.989103
0.986789
0.984168
0.981107
0.977663
0.974296
0.970102
0.965649
0.961269
0.956607
0.950001
0.943832
0.938171
0.931014
0.919983
0.90559
0.885615
0.879469
0.973417
2.07987
2.47405
2.50479
2.67171
2.77835
2.99542
3.13235
3.16697
3.14225
3.13822
3.12337
3.11097
3.09779
3.08731
3.07946
3.07295
3.06617
3.05976
3.05535
3.05268
3.05036
3.04874
3.04442
3.03992
3.03226
3.02882
3.02484
3.02609
3.02539
3.02391
3.02174
3.02137
3.02304
3.02742
3.0337
3.0405
3.04814
3.05685
3.06603
3.0766
3.08921
3.10256
3.11701
3.13275
3.14817
3.16175
3.17542
3.19056
3.20612
3.2202
3.23176
3.24028
3.24754
3.25499
3.26311
3.27204
3.27882
3.28332
3.28786
3.29334
3.29886
3.3032
3.30629
3.30701
3.30909
1
1
1
1
1
1
1
1
1
1
1
1
1
0.999999
0.999998
0.999996
0.999993
0.999987
0.999977
0.99996
0.999933
0.999893
0.999832
0.999744
0.99962
0.999446
0.99921
0.998896
0.998484
0.997954
0.997284
0.99645
0.99542
0.994174
0.992694
0.990928
0.988856
0.986516
0.983781
0.980523
0.977269
0.973555
0.969122
0.964536
0.959923
0.953558
0.946565
0.939129
0.930708
0.920905
0.912202
0.918974
1.00315
1.45263
2.33861
2.54951
2.61721
2.81315
2.98104
3.12098
3.1593
3.13997
3.13739
3.12372
3.11507
3.10434
3.0923
3.08145
3.07223
3.06517
3.05854
3.05221
3.04685
3.04278
3.0395
3.03775
3.03519
3.03208
3.02524
3.02105
3.01662
3.01955
3.01854
3.01843
3.01565
3.01579
3.0178
3.02176
3.02821
3.03518
3.04259
3.05088
3.05915
3.06823
3.08057
3.09433
3.10899
3.12438
3.1391
3.15287
3.16775
3.18348
3.19884
3.21229
3.22287
3.23109
3.23925
3.24828
3.25822
3.26679
3.27264
3.27754
3.28339
3.29072
3.29814
3.30299
3.30629
3.30754
3.30957
1
1
1
1
1
1
1
1
1
1
1
1
1
1
1
1
0.999999
0.999996
0.999991
0.999982
0.999967
0.999943
0.999906
0.99985
0.999769
0.999653
0.999492
0.999273
0.99898
0.998596
0.9981
0.997472
0.996688
0.995715
0.994535
0.993118
0.991418
0.989417
0.987144
0.984418
0.981237
0.97811
0.974174
0.969845
0.965384
0.960451
0.953332
0.945975
0.938577
0.927269
0.912843
0.903399
0.96755
1.95898
2.60879
2.64178
2.84009
3.00567
3.14868
3.18232
3.14771
3.13702
3.1225
3.11413
3.10534
3.09652
3.08595
3.0749
3.0652
3.05739
3.05102
3.04454
3.03859
3.03302
3.02841
3.02536
3.02384
3.02266
3.01776
3.01335
3.00845
3.01115
3.00909
3.01187
3.00932
3.00959
3.01109
3.01525
3.02154
3.02853
3.03579
3.04341
3.05111
3.05962
3.07164
3.08656
3.10174
3.11644
3.13042
3.14443
3.15999
3.17638
3.19162
3.20386
3.21334
3.22252
3.23205
3.24252
3.25267
3.26049
3.26596
3.27157
3.27866
3.28795
3.29728
3.30287
3.3064
3.30805
3.30997
1
1
1
1
1
1
1
1
1
1
1
1
1
1
1
1
1
1.00001
1.00001
1.00001
1
0.999997
0.999985
0.999964
0.99993
0.999878
0.9998
0.999688
0.99953
0.999313
0.999019
0.998633
0.998133
0.997496
0.996693
0.99571
0.994503
0.993034
0.991304
0.989254
0.986763
0.984012
0.981081
0.977315
0.973286
0.969075
0.962661
0.95486
0.946295
0.933383
0.926891
0.987287
1.20919
2.4353
2.7137
2.7889
2.96388
3.11845
3.17111
3.14822
3.13954
3.12478
3.11277
3.10217
3.09225
3.08335
3.07487
3.06644
3.05808
3.05035
3.04383
3.03667
3.0303
3.02398
3.01908
3.0151
3.013
3.01205
3.00878
3.00502
3.00026
3.00255
2.99892
3.00414
3.00289
3.00174
3.00253
3.00628
3.01274
3.02026
3.02813
3.0351
3.04246
3.05122
3.06305
3.07899
3.09432
3.10817
3.12162
3.13588
3.15192
3.16884
3.18378
3.19475
3.20415
3.21481
3.226
3.23714
3.24649
3.25347
3.25917
3.26545
3.27408
3.28539
3.29632
3.30286
3.30671
3.30858
3.31015
1
1
1
1
1
1
1
1
1
1
1
1
1
1
1
1.00001
1.00001
1.00002
1.00002
1.00003
1.00004
1.00005
1.00007
1.00009
1.0001
1.00012
1.00014
1.00014
1.00013
1.0001
1.00003
0.999923
0.999756
0.999514
0.999174
0.998714
0.998125
0.997358
0.996385
0.995195
0.993721
0.991859
0.98998
0.987637
0.985012
0.982358
0.97884
0.973787
0.967001
0.955711
0.95102
1.00239
2.02693
2.7834
2.82445
2.99908
3.13352
3.17784
3.1501
3.13392
3.1181
3.10697
3.0958
3.08525
3.07568
3.06816
3.0623
3.05552
3.04844
3.0405
3.03371
3.02756
3.02199
3.01601
3.01131
3.00694
3.0034
3.00095
2.9988
2.99745
2.99417
2.99608
2.9918
2.99452
2.99508
2.99282
2.99441
2.99827
3.00414
3.01087
3.01869
3.02672
3.0347
3.04324
3.05448
3.07012
3.08499
3.09856
3.11215
3.12666
3.14323
3.1607
3.17562
3.18608
3.19667
3.2086
3.22053
3.23142
3.23991
3.24589
3.2518
3.25947
3.2697
3.28264
3.29499
3.30286
3.30732
3.3094
3.31042
1
1
1
1
1
1
1
1
1
1
1
1
1
1
1.00001
1.00001
1.00002
1.00003
1.00004
1.00006
1.00008
1.00011
1.00016
1.00022
1.00029
1.00038
1.00049
1.00062
1.00077
1.00094
1.00113
1.00134
1.00155
1.00177
1.00197
1.00213
1.00229
1.00236
1.00235
1.00221
1.00195
1.00151
1.00093
1.00033
0.999394
0.998083
0.996859
0.995038
0.993435
0.995725
1.04869
1.3612
2.66904
2.86534
2.9585
3.08154
3.15711
3.1369
3.12412
3.1044
3.0905
3.07876
3.06883
3.06067
3.0543
3.05081
3.04795
3.0429
3.03803
3.031
3.02538
3.01917
3.01439
3.00887
3.00484
3.0003
2.99646
2.99215
2.99016
2.98986
2.98815
2.98996
2.98566
2.98314
2.98556
2.98193
2.98526
2.98909
2.99412
3.0003
3.00812
3.01726
3.02674
3.03525
3.04568
3.06096
3.07618
3.08972
3.10319
3.11805
3.13506
3.15293
3.16818
3.17935
3.19088
3.20317
3.21436
3.22493
3.23263
3.23774
3.24427
3.25357
3.26556
3.27978
3.2937
3.30302
3.30814
3.3104
3.31159
1
1
1
1
1
1
1
1
1
1
1
1
1
1.00001
1.00001
1.00002
1.00002
1.00004
1.00006
1.00008
1.00012
1.00017
1.00025
1.00034
1.00047
1.00063
1.00084
1.0011
1.00142
1.0018
1.00225
1.00279
1.00339
1.00408
1.00485
1.00569
1.00659
1.00755
1.00854
1.00958
1.01065
1.01172
1.01275
1.01389
1.01495
1.01574
1.01638
1.01571
1.01116
1.01616
1.04643
2.26506
2.93299
2.98473
3.07333
3.15647
3.13337
3.11784
3.0984
3.08225
3.06734
3.05502
3.04558
3.03883
3.03375
3.03017
3.02797
3.02536
3.02358
3.01934
3.01755
3.01241
3.0088
3.00299
2.99949
2.99443
2.99028
2.98496
2.98141
2.9806
2.98056
2.98329
2.97897
2.97322
2.97598
2.97178
2.97638
2.97953
2.98318
2.98843
2.99665
3.00732
3.01773
3.02648
3.03634
3.05103
3.06671
3.08048
3.09402
3.10938
3.12712
3.14552
3.16143
3.17343
3.18485
3.19645
3.20774
3.2177
3.2246
3.22986
3.23773
3.24841
3.26191
3.27745
3.29273
3.30316
3.30883
3.31134
3.31293
1
1
1
1
1
1
1
1
1
1
1
1
1
1.00001
1.00001
1.00002
1.00003
1.00005
1.00007
1.00011
1.00016
1.00023
1.00033
1.00047
1.00065
1.00089
1.00119
1.00157
1.00204
1.00262
1.00332
1.00416
1.00513
1.00627
1.00756
1.00903
1.01065
1.01245
1.01439
1.01651
1.01877
1.02112
1.02349
1.0259
1.02853
1.03151
1.03571
1.04172
1.05294
1.09979
1.64705
2.8435
2.99408
3.07915
3.11568
3.1294
3.10071
3.09118
3.07202
3.05915
3.04782
3.03843
3.03045
3.02438
3.0194
3.01479
3.01222
3.0101
3.00959
3.00659
3.00707
3.00332
3.0025
2.99695
2.99372
2.98888
2.98382
2.97823
2.97182
2.96848
2.96868
2.97272
2.96992
2.96359
2.96593
2.96246
2.96788
2.96989
2.97292
2.97786
2.98545
2.99671
3.00803
3.01825
3.02793
3.04148
3.05734
3.07158
3.0856
3.10135
3.11952
3.13812
3.15395
3.16571
3.17718
3.18912
3.20042
3.20936
3.21609
3.2231
3.23242
3.24422
3.25883
3.27557
3.29194
3.30298
3.30919
3.31217
3.31437
1
1
1
1
1
1
1
1
1
1
1
1
1.00001
1.00001
1.00001
1.00002
1.00004
1.00006
1.00009
1.00013
1.0002
1.00029
1.00042
1.00059
1.00082
1.00112
1.00151
1.00201
1.00262
1.00338
1.0043
1.0054
1.0067
1.00822
1.00997
1.01196
1.01421
1.01671
1.01946
1.02248
1.02577
1.02917
1.03263
1.03612
1.03973
1.04345
1.04796
1.05361
1.07287
1.10907
2.43743
2.98415
3.07205
3.13156
3.14015
3.10348
3.09354
3.07375
3.06005
3.04679
3.03542
3.02607
3.0185
3.01261
3.00788
3.00335
3.00004
2.99771
2.99698
2.99407
2.99583
2.99249
2.99364
2.98917
2.98506
2.98119
2.97566
2.97183
2.96531
2.95916
2.9579
2.96172
2.9603
2.9544
2.95503
2.9524
2.95928
2.9595
2.96305
2.96861
2.97604
2.98629
2.99813
3.01002
3.02003
3.03222
3.04804
3.06286
3.07772
3.09396
3.11248
3.1307
3.14526
3.15648
3.16841
3.18063
3.19177
3.20016
3.20763
3.21687
3.22799
3.2413
3.25673
3.27431
3.29163
3.3024
3.30894
3.31268
3.31524
1
1
1
1
1
1
1
1
1
1
1
1
1.00001
1.00001
1.00002
1.00003
1.00004
1.00007
1.0001
1.00016
1.00024
1.00035
1.0005
1.0007
1.00098
1.00134
1.00181
1.0024
1.00314
1.00405
1.00516
1.00648
1.00804
1.00985
1.01195
1.01434
1.01705
1.02006
1.0234
1.0271
1.03113
1.03549
1.03997
1.04468
1.04959
1.0551
1.0608
1.06898
1.10525
1.86799
2.882
3.07888
3.13153
3.13959
3.10713
3.09367
3.0716
3.06004
3.04857
3.03713
3.0264
3.01821
3.01141
3.00588
3.00112
2.99643
2.99176
2.98823
2.98728
2.98286
2.98452
2.98069
2.98069
2.9785
2.97345
2.97026
2.96456
2.96107
2.9581
2.9516
2.94838
2.95094
2.95145
2.94658
2.94475
2.94055
2.94735
2.94633
2.95103
2.95789
2.96691
2.97692
2.98868
3.00139
3.01247
3.02412
3.03964
3.05507
3.07058
3.08701
3.10489
3.12166
3.13496
3.14675
3.15949
3.17244
3.18327
3.19111
3.19983