/*--------------------------------*- C++ -*----------------------------------*\
| =========                 |                                                 |
| \\      /  F ield         | OpenFOAM: The Open Source CFD Toolbox           |
|  \\    /   O peration     | Version:  2.2.x                                 |
|   \\  /    A nd           | Web:      www.OpenFOAM.org                      |
|    \\/     M anipulation  |                                                 |
\*---------------------------------------------------------------------------*/
FoamFile
{
    version     2.0;
    format      ascii;
    class       volScalarField;
    location    "0.15";
    object      Bz;
}
// * * * * * * * * * * * * * * * * * * * * * * * * * * * * * * * * * * * * * //

dimensions      [1 0 -2 0 0 -1 0];

internalField   nonuniform List<scalar> 
14161
(
1.08681e-20
1.11106e-20
1.10567e-20
1.04426e-20
1.0588e-20
9.89205e-21
1.05856e-20
1.01487e-20
1.02013e-20
9.65573e-21
9.47808e-21
8.53607e-21
8.81917e-21
8.48055e-21
8.3142e-21
8.22803e-21
7.95343e-21
7.55676e-21
7.44426e-21
6.95307e-21
6.76557e-21
6.63163e-21
6.22145e-21
5.97366e-21
5.80103e-21
5.76919e-21
5.52027e-21
5.47297e-21
5.37919e-21
5.7383e-21
5.75761e-21
5.93579e-21
5.90136e-21
6.08297e-21
5.77374e-21
6.07563e-21
5.87668e-21
5.90089e-21
5.84392e-21
5.83576e-21
5.77809e-21
5.73914e-21
5.69045e-21
5.71493e-21
5.45403e-21
5.76635e-21
5.6576e-21
6.36218e-21
6.27381e-21
6.15792e-21
5.92699e-21
6.06548e-21
5.67202e-21
5.65264e-21
5.16385e-21
5.28484e-21
5.34555e-21
5.33971e-21
4.898e-21
5.07609e-21
4.40309e-21
4.64632e-21
3.65718e-21
4.32461e-21
3.67573e-21
3.7202e-21
3.92465e-21
3.92225e-21
4.26025e-21
3.95045e-21
4.02057e-21
3.90277e-21
4.27529e-21
3.81266e-21
3.82334e-21
4.08158e-21
3.6389e-21
4.11339e-21
3.24971e-21
4.0375e-21
3.76834e-21
3.71662e-21
3.06328e-21
4.07326e-21
3.47022e-21
3.35818e-21
2.9395e-21
8.4685e-21
1.74527e-20
1.51816e-20
7.24667e-21
3.13081e-21
1.47761e-21
5.29935e-21
5.10211e-22
3.27536e-21
2.65594e-21
4.31277e-21
2.87239e-21
4.12254e-21
8.34523e-21
-4.3034e-21
1.19839e-21
1.38152e-21
-7.01399e-21
-3.31362e-21
-2.36722e-20
1.23385e-20
-1.36776e-20
-1.7271e-21
-2.18386e-20
-1.75973e-20
-2.57909e-20
-1.78871e-20
-4.61199e-21
-4.73253e-20
-3.88716e-20
2.61635e-21
1.18335e-21
1.1643e-20
1.19192e-20
1.1544e-20
1.13551e-20
1.15085e-20
1.13045e-20
1.12573e-20
1.07849e-20
1.09684e-20
9.96319e-21
1.00358e-20
9.59188e-21
9.7325e-21
9.39613e-21
9.09406e-21
8.95146e-21
8.68843e-21
8.05463e-21
8.09575e-21
7.50547e-21
7.28469e-21
6.8026e-21
6.6193e-21
6.47066e-21
6.35136e-21
6.08371e-21
5.77471e-21
5.88676e-21
5.89014e-21
6.52737e-21
6.15548e-21
6.62469e-21
6.38883e-21
6.49303e-21
6.15852e-21
6.64715e-21
6.11326e-21
6.29719e-21
6.25981e-21
6.25215e-21
6.11791e-21
6.14663e-21
6.03629e-21
6.00598e-21
5.89308e-21
5.62311e-21
6.3338e-21
6.91014e-21
5.95537e-21
6.60282e-21
5.89936e-21
5.53763e-21
5.24493e-21
5.49031e-21
5.51852e-21
6.01701e-21
5.6573e-21
5.48031e-21
4.99783e-21
4.79417e-21
4.50425e-21
4.88454e-21
4.86131e-21
5.41579e-21
3.13358e-21
5.13534e-21
4.96804e-21
4.69009e-21
4.48912e-21
4.55385e-21
4.22687e-21
4.40696e-21
4.05018e-21
4.86589e-21
3.96911e-21
4.8674e-21
3.76822e-21
4.60333e-21
3.20997e-21
4.40696e-21
3.71846e-21
4.038e-21
3.05351e-21
4.74996e-21
2.81899e-21
3.88079e-21
3.05541e-21
1.21906e-20
2.33939e-20
2.06478e-20
8.76439e-21
-2.95644e-21
-1.28893e-20
2.60648e-21
-9.56094e-22
-9.00371e-21
1.95198e-21
8.78106e-22
1.24665e-20
-1.37043e-20
-1.66718e-21
-1.05374e-20
3.72183e-20
1.70033e-20
1.60297e-20
4.10836e-20
1.41539e-20
2.4961e-20
-1.98397e-20
1.12808e-20
1.41793e-20
-1.86055e-20
-3.60241e-20
-3.69282e-20
-8.51801e-20
-6.75066e-20
-6.46149e-20
-1.44145e-19
-1.45926e-19
1.31781e-20
1.3433e-20
1.30627e-20
1.3102e-20
1.26756e-20
1.29536e-20
1.32227e-20
1.27867e-20
1.23619e-20
1.17539e-20
1.18975e-20
1.14176e-20
1.18831e-20
1.04181e-20
1.06024e-20
1.00366e-20
9.73145e-21
9.09251e-21
8.92808e-21
8.34197e-21
7.81522e-21
7.31608e-21
7.93703e-21
7.13256e-21
6.42175e-21
6.82945e-21
6.93947e-21
7.28334e-21
7.6729e-21
8.03822e-21
7.47494e-21
7.6252e-21
7.12462e-21
7.6633e-21
6.8239e-21
7.2411e-21
7.03372e-21
6.95217e-21
6.85732e-21
6.79609e-21
6.72397e-21
6.73976e-21
6.6002e-21
6.50536e-21
6.27649e-21
7.02644e-21
7.54074e-21
7.48667e-21
6.51543e-21
7.29427e-21
5.21064e-21
6.28048e-21
5.59322e-21
5.79633e-21
6.29406e-21
5.22985e-21
5.74796e-21
4.99904e-21
5.14437e-21
6.61998e-21
4.68457e-21
6.16198e-21
6.12529e-21
4.64084e-21
4.97696e-21
4.89924e-21
5.61755e-21
4.85903e-21
5.76411e-21
5.42591e-21
4.60278e-21
4.95634e-21
4.82935e-21
5.54176e-21
3.5391e-21
5.91092e-21
3.67714e-21
4.77637e-21
3.90206e-21
6.00981e-21
3.93311e-21
3.9255e-21
3.66394e-21
5.32676e-21
3.48591e-21
3.31025e-21
5.32974e-21
1.52617e-20
3.80252e-20
3.13382e-20
1.48041e-20
8.10444e-22
-2.51661e-20
-3.44063e-21
-5.81775e-20
-1.04444e-20
-3.14545e-20
-2.72251e-20
-3.94144e-20
-6.48807e-22
-4.11074e-20
-2.09847e-20
-6.10685e-20
-1.58728e-20
-7.41069e-20
1.98465e-20
-5.3372e-20
2.60063e-20
2.04098e-20
-2.9096e-20
-3.79902e-20
-1.21902e-19
-1.44671e-20
-1.45696e-19
-4.48761e-20
-1.90301e-19
-2.39302e-19
-2.70313e-19
-2.71481e-19
1.48464e-20
1.59468e-20
1.5749e-20
1.58277e-20
1.47464e-20
1.4686e-20
1.54217e-20
1.63266e-20
1.47079e-20
1.44494e-20
1.34375e-20
1.36333e-20
1.37303e-20
1.3842e-20
1.37733e-20
1.25376e-20
1.23185e-20
1.15746e-20
9.83493e-21
1.11358e-20
9.93082e-21
1.03689e-20
9.04215e-21
9.48821e-21
9.11442e-21
7.99957e-21
9.65567e-21
1.07356e-20
9.60276e-21
8.00941e-21
8.50641e-21
8.54748e-21
8.59888e-21
8.47825e-21
8.25727e-21
8.22143e-21
7.85641e-21
8.01094e-21
7.8479e-21
7.66308e-21
7.513e-21
7.42118e-21
7.64369e-21
7.2153e-21
7.29003e-21
5.61371e-21
7.13283e-21
6.47555e-21
5.6158e-21
7.08792e-21
5.90023e-21
8.55843e-21
5.98513e-21
7.47077e-21
6.56613e-21
1.04061e-20
7.59236e-21
7.53478e-21
7.2252e-21
8.04597e-21
6.74245e-21
9.04191e-21
7.07587e-21
8.18179e-21
7.72106e-21
5.1458e-21
7.10683e-21
4.27728e-21
8.22396e-21
4.224e-21
4.96048e-21
5.60469e-21
4.86059e-21
6.95395e-21
4.09344e-21
6.70316e-21
5.03951e-21
6.2217e-21
6.26072e-21
5.54268e-21
5.23122e-21
3.86264e-21
5.59212e-21
5.41797e-21
4.46571e-21
5.92902e-21
6.95424e-21
3.01568e-20
5.80147e-20
4.35041e-20
1.93335e-20
-8.67031e-21
-4.618e-20
-2.21248e-20
-7.80237e-20
-2.94911e-20
-4.30932e-20
-5.20808e-20
-7.46283e-20
-9.16448e-20
-9.62282e-20
-1.40549e-19
-1.18473e-19
-1.92158e-19
-1.22409e-19
-2.53319e-19
-1.71156e-19
-3.72142e-19
-2.26665e-19
-3.5162e-19
-3.65906e-19
-3.12112e-19
-4.07802e-19
-2.91965e-19
-3.25488e-19
-3.38418e-19
-3.1899e-19
-4.09469e-19
-4.14055e-19
2.124e-20
1.92785e-20
1.89806e-20
1.89874e-20
1.91487e-20
1.8716e-20
1.8016e-20
1.87618e-20
1.80921e-20
1.76305e-20
1.66053e-20
1.73246e-20
1.60249e-20
1.77944e-20
1.54531e-20
1.54331e-20
1.61635e-20
1.54948e-20
1.39959e-20
1.00394e-20
1.10659e-20
1.19613e-20
1.09376e-20
1.14677e-20
1.29663e-20
1.36183e-20
1.26489e-20
1.14027e-20
1.22486e-20
1.40123e-20
1.2879e-20
1.10301e-20
1.17e-20
9.82988e-21
9.09862e-21
9.76421e-21
1.08761e-20
8.73808e-21
9.40188e-21
9.13839e-21
9.00301e-21
9.19544e-21
9.86327e-21
8.65592e-21
8.5318e-21
9.81445e-21
8.87842e-21
1.13275e-20
8.50127e-21
8.32472e-21
9.23453e-21
9.29676e-21
1.13776e-20
8.50717e-21
8.30688e-21
7.75173e-21
8.62382e-21
8.58685e-21
7.87707e-21
8.03519e-21
7.5862e-21
8.40565e-21
8.4144e-21
6.7531e-21
7.99562e-21
6.48702e-21
9.63683e-21
6.93023e-21
1.00367e-20
8.84308e-21
8.61814e-21
1.00179e-20
5.20994e-21
1.22468e-20
4.99696e-21
1.02768e-20
2.73336e-21
1.18821e-20
8.00321e-21
7.41452e-21
5.17197e-21
5.58071e-21
1.00175e-20
4.60134e-21
6.64235e-21
8.37541e-21
1.24531e-20
4.52462e-20
6.92412e-20
4.86003e-20
5.0237e-20
3.99354e-20
2.47432e-20
9.0791e-21
1.45424e-20
-1.95442e-20
-1.49011e-20
-7.50977e-20
-3.64347e-20
-1.15437e-19
-1.10547e-20
-1.30675e-19
-8.62293e-20
-1.74753e-19
-8.55164e-20
-2.20037e-19
-8.55222e-20
-2.5314e-19
-1.62393e-19
-3.21399e-20
-7.40473e-20
2.37813e-20
-2.47083e-20
1.15026e-19
7.49111e-20
4.96356e-19
5.52761e-19
5.72176e-19
5.74423e-19
2.37091e-20
2.34497e-20
2.42098e-20
2.43693e-20
2.26939e-20
2.33703e-20
2.35721e-20
2.18659e-20
2.07695e-20
2.1831e-20
2.34276e-20
2.16167e-20
2.3217e-20
2.10269e-20
1.83034e-20
1.82209e-20
1.39632e-20
2.09249e-20
1.59279e-20
1.55394e-20
1.65901e-20
1.6347e-20
1.73293e-20
1.66318e-20
1.73619e-20
1.74181e-20
1.64958e-20
1.4907e-20
1.38038e-20
1.2254e-20
1.27941e-20
1.13398e-20
1.23005e-20
1.16544e-20
1.21424e-20
1.17613e-20
1.25441e-20
1.22019e-20
1.23108e-20
1.24026e-20
1.22892e-20
1.22522e-20
1.30638e-20
1.15627e-20
1.3844e-20
9.82786e-21
1.19161e-20
1.36886e-20
1.53254e-20
1.41041e-20
1.57685e-20
5.89586e-21
1.31654e-20
8.79667e-21
1.01654e-20
8.29388e-21
8.63609e-21
1.01014e-20
1.14403e-20
1.24891e-20
1.30415e-20
8.91446e-21
1.15723e-20
1.21536e-20
1.18553e-20
1.11092e-20
1.36758e-20
1.04408e-20
1.52273e-20
1.06001e-20
1.43762e-20
1.34838e-20
7.41671e-21
1.20902e-20
9.94699e-21
1.34559e-20
9.6967e-21
1.26559e-20
4.05814e-21
1.17763e-20
8.32982e-21
1.17311e-20
8.91941e-21
9.22071e-21
1.10368e-20
1.25822e-20
1.75173e-20
5.97417e-20
7.86838e-20
5.2637e-20
4.19524e-20
3.0804e-20
7.6262e-20
6.55326e-20
6.73627e-20
7.05398e-20
9.17727e-20
1.03649e-19
7.53976e-20
8.8109e-20
1.14149e-19
1.28549e-20
1.1759e-19
1.01701e-19
9.31313e-20
3.18894e-19
6.1242e-20
4.61148e-19
1.14059e-19
4.27168e-19
4.17884e-19
5.61286e-19
9.68861e-19
1.00281e-18
1.16089e-18
1.42228e-18
1.42897e-18
1.9133e-18
1.97745e-18
3.03766e-20
2.9498e-20
2.89984e-20
2.84155e-20
2.95991e-20
2.94777e-20
2.77975e-20
2.96454e-20
2.70069e-20
2.70977e-20
2.74711e-20
2.75286e-20
2.66765e-20
2.30102e-20
2.04153e-20
2.30591e-20
2.55406e-20
2.06986e-20
2.01141e-20
2.43271e-20
2.2377e-20
1.97152e-20
1.9155e-20
1.88218e-20
1.46897e-20
1.54619e-20
1.64612e-20
1.81347e-20
1.67411e-20
1.40299e-20
1.57313e-20
1.70597e-20
1.75652e-20
1.79513e-20
1.75822e-20
1.7797e-20
1.7501e-20
1.7707e-20
1.7876e-20
1.84238e-20
1.7741e-20
1.68493e-20
1.64991e-20
1.63147e-20
1.61091e-20
1.65514e-20
1.40653e-20
1.09169e-20
1.06935e-20
8.26461e-21
1.03722e-20
9.97237e-21
1.27263e-20
1.6034e-20
1.51669e-20
1.21494e-20
1.9004e-20
1.75333e-20
1.4498e-20
1.64441e-20
1.51193e-20
1.67662e-20
1.92108e-20
1.57771e-20
2.03708e-20
1.85297e-20
1.82471e-20
1.6638e-20
1.53884e-20
1.85433e-20
1.3833e-20
1.86265e-20
1.10789e-20
1.63088e-20
1.38867e-20
1.58824e-20
1.32591e-20
1.74187e-20
1.21569e-20
1.43571e-20
1.15717e-20
1.32246e-20
1.31719e-20
8.81561e-21
1.64238e-20
1.72156e-20
2.34496e-20
8.84864e-20
1.0399e-19
1.12004e-19
6.04289e-20
8.68722e-20
5.3929e-20
1.09143e-19
1.07113e-19
2.11616e-19
1.77762e-19
1.0332e-19
2.11306e-19
2.75764e-19
2.72399e-19
4.42195e-19
3.92272e-19
5.3766e-19
5.51156e-19
6.70686e-19
8.29054e-19
9.33315e-19
9.1758e-19
1.18321e-18
1.35636e-18
1.38351e-18
1.30121e-18
1.92645e-18
1.7349e-18
1.92956e-18
2.05153e-18
2.43906e-18
2.51064e-18
3.52246e-20
3.73333e-20
3.51956e-20
3.75344e-20
3.60636e-20
3.61647e-20
3.63395e-20
3.52427e-20
3.58174e-20
3.46241e-20
3.44311e-20
3.23416e-20
3.60233e-20
3.52355e-20
3.24555e-20
2.7052e-20
3.04098e-20
2.20884e-20
2.69651e-20
3.19495e-20
2.46492e-20
2.17588e-20
2.3101e-20
2.47146e-20
2.97419e-20
2.621e-20
2.4246e-20
2.40503e-20
2.47868e-20
2.63266e-20
2.34137e-20
2.4041e-20
2.10992e-20
2.44079e-20
2.08686e-20
1.99473e-20
1.89213e-20
1.93796e-20
1.71787e-20
1.84795e-20
1.85502e-20
1.8529e-20
1.77438e-20
1.88027e-20
1.93103e-20
1.65148e-20
1.6035e-20
1.96518e-20
1.22175e-20
2.24033e-20
1.9056e-20
2.30774e-20
2.12785e-20
2.26041e-20
1.81877e-20
2.82116e-20
1.97315e-20
2.10582e-20
1.63714e-20
2.05014e-20
2.04798e-20
1.83942e-20
1.58585e-20
2.53267e-20
2.62203e-20
2.24869e-20
2.28791e-20
1.70009e-20
2.0335e-20
2.10103e-20
2.12264e-20
2.74635e-20
1.42974e-20
1.98395e-20
1.77085e-20
1.99854e-20
1.63951e-20
2.02741e-20
1.85033e-20
2.70201e-20
1.0526e-20
1.82097e-20
1.49172e-20
1.43533e-20
1.46606e-20
1.57403e-20
3.05812e-20
1.02493e-19
1.06831e-19
4.47187e-20
4.58223e-20
9.9038e-20
4.06485e-20
2.64981e-20
5.15104e-20
6.15856e-20
1.97439e-19
1.14592e-19
2.70505e-19
2.43915e-19
3.39324e-19
3.42188e-19
4.30276e-19
5.87718e-19
5.87055e-19
6.09687e-19
6.15686e-19
8.07512e-19
8.30648e-19
5.93857e-19
8.03136e-19
7.89637e-19
8.8747e-19
9.03551e-19
1.16239e-18
8.03788e-19
7.10463e-19
9.47061e-19
9.56582e-19
4.4188e-20
4.4129e-20
4.52232e-20
4.78359e-20
4.47897e-20
4.77214e-20
4.50593e-20
4.22378e-20
4.56084e-20
4.25776e-20
4.29897e-20
4.65947e-20
3.90405e-20
3.79757e-20
3.83132e-20
3.58725e-20
2.99437e-20
4.3711e-20
4.0694e-20
3.2344e-20
3.60779e-20
4.17778e-20
3.91763e-20
3.41426e-20
2.7699e-20
3.04319e-20
3.35915e-20
3.35145e-20
2.8604e-20
3.47751e-20
2.70051e-20
3.21028e-20
2.84961e-20
2.96327e-20
2.48216e-20
2.59272e-20
2.59694e-20
2.70899e-20
2.69169e-20
2.69481e-20
2.70935e-20
2.71016e-20
2.59751e-20
2.68702e-20
2.69663e-20
3.16648e-20
3.07987e-20
3.10004e-20
3.21006e-20
3.13772e-20
2.98127e-20
3.2746e-20
2.48135e-20
3.31717e-20
2.31773e-20
3.02631e-20
2.93396e-20
2.71466e-20
3.23298e-20
3.076e-20
3.18858e-20
3.03061e-20
3.16841e-20
3.08777e-20
2.74749e-20
3.04279e-20
2.33062e-20
3.06267e-20
3.21399e-20
2.68437e-20
2.1524e-20
2.89712e-20
1.85452e-20
3.71435e-20
2.24369e-20
2.47392e-20
2.42164e-20
2.29729e-20
2.10763e-20
2.54717e-20
1.93795e-20
2.24313e-20
2.17945e-20
2.32143e-20
1.61959e-20
2.00255e-20
4.60618e-20
1.40135e-19
1.37009e-19
2.87686e-20
2.97883e-20
1.76928e-20
8.14862e-20
1.05657e-19
1.45913e-20
1.59567e-19
3.36599e-20
2.31529e-19
9.49094e-20
2.67187e-19
1.62447e-19
2.36868e-19
2.01867e-19
4.04065e-19
3.2839e-19
4.34648e-19
5.33545e-19
4.70312e-19
6.24779e-19
5.99809e-19
7.4793e-19
7.89093e-19
4.37974e-19
6.32258e-19
3.46703e-19
7.44436e-19
7.37403e-19
7.75761e-19
7.90466e-19
5.84424e-20
5.99371e-20
5.71523e-20
5.60799e-20
5.86568e-20
5.6448e-20
5.35628e-20
5.52721e-20
5.33626e-20
5.52362e-20
4.76594e-20
4.94277e-20
4.59575e-20
4.176e-20
5.19411e-20
4.49686e-20
4.65072e-20
4.30863e-20
4.57037e-20
4.34457e-20
4.12457e-20
3.60841e-20
3.83411e-20
4.08196e-20
4.44321e-20
5.07263e-20
4.4652e-20
4.85777e-20
5.23878e-20
4.24964e-20
4.63649e-20
4.0609e-20
4.4172e-20
4.32019e-20
4.61349e-20
4.61058e-20
4.84674e-20
4.21968e-20
4.60282e-20
4.33303e-20
4.4158e-20
4.09868e-20
4.02652e-20
3.86497e-20
3.87601e-20
4.02004e-20
3.9486e-20
3.63131e-20
3.62724e-20
3.40773e-20
3.40629e-20
3.04084e-20
3.50125e-20
3.37858e-20
3.71341e-20
3.68579e-20
4.2815e-20
3.56854e-20
4.55784e-20
3.76281e-20
4.57528e-20
3.46268e-20
4.60551e-20
3.58581e-20
4.10284e-20
3.30376e-20
3.76857e-20
3.60876e-20
3.81268e-20
3.56965e-20
3.50963e-20
3.35474e-20
3.29752e-20
3.08766e-20
3.56391e-20
3.59867e-20
2.32879e-20
3.72551e-20
3.14496e-20
2.85583e-20
2.26146e-20
2.66614e-20
2.84888e-20
2.47246e-20
2.60813e-20
2.57152e-20
7.19196e-20
1.8621e-19
1.52279e-19
3.58219e-20
-3.83007e-21
-1.61171e-20
-5.54713e-20
-4.08125e-20
-2.06669e-20
1.94319e-20
2.86479e-20
-3.59232e-20
1.76007e-19
-9.78338e-21
2.34832e-19
8.84831e-20
3.02257e-19
1.45364e-19
2.84129e-19
3.39854e-19
1.86959e-20
-5.91605e-20
7.2338e-20
7.69442e-21
-3.39515e-19
7.24049e-20
-2.30641e-19
-5.19564e-19
-7.61651e-19
-1.09614e-18
-1.2954e-18
-1.27456e-18
-1.33135e-18
7.40128e-20
6.95503e-20
7.06801e-20
6.99524e-20
6.74829e-20
6.768e-20
6.98061e-20
6.6422e-20
6.29312e-20
6.42735e-20
6.10563e-20
6.24375e-20
5.68329e-20
5.25063e-20
4.41758e-20
4.92313e-20
4.52131e-20
4.08757e-20
4.03054e-20
5.22112e-20
4.92949e-20
5.75162e-20
6.24934e-20
6.05268e-20
5.90585e-20
5.01107e-20
5.79547e-20
6.04457e-20
5.33085e-20
6.22628e-20
5.42108e-20
5.52443e-20
5.04681e-20
5.36153e-20
5.16314e-20
4.9493e-20
5.17332e-20
5.26549e-20
5.27067e-20
4.9645e-20
5.4297e-20
5.26512e-20
4.92853e-20
5.07885e-20
5.01118e-20
4.32949e-20
4.89635e-20
4.84072e-20
4.176e-20
5.03396e-20
5.01883e-20
5.41029e-20
5.05242e-20
4.90471e-20
4.33567e-20
4.18466e-20
4.34948e-20
4.01863e-20
4.18143e-20
4.44491e-20
4.56514e-20
4.20332e-20
3.71966e-20
4.68901e-20
4.24338e-20
3.77387e-20
4.17593e-20
4.00582e-20
4.09964e-20
3.92842e-20
4.14975e-20
3.6025e-20
3.8801e-20
4.63314e-20
4.00317e-20
4.45649e-20
2.5719e-20
5.01509e-20
2.69001e-20
4.04432e-20
4.20939e-20
3.39249e-20
2.8125e-20
3.135e-20
3.05298e-20
3.96541e-20
1.69431e-19
2.18684e-19
1.6917e-19
1.05445e-19
6.49558e-20
5.62103e-20
1.19176e-19
-2.35318e-20
-3.1805e-20
8.55194e-20
-1.92862e-19
7.84141e-21
-1.30343e-19
6.40979e-20
-2.25359e-19
-1.27886e-19
-2.59194e-19
-9.84364e-20
-1.13389e-19
-3.30993e-19
-1.93273e-19
-5.21767e-19
-4.02563e-19
-6.94632e-19
-7.65563e-19
-8.70282e-19
-5.34619e-19
-1.23439e-18
-1.14394e-18
-9.72838e-19
-8.5057e-19
-1.27757e-18
-1.34213e-18
8.62634e-20
8.48631e-20
8.82144e-20
7.92384e-20
8.22516e-20
8.0029e-20
7.96129e-20
7.72411e-20
7.84204e-20
7.45996e-20
6.93341e-20
6.60275e-20
6.52861e-20
5.98927e-20
6.25012e-20
5.90045e-20
5.88846e-20
5.88318e-20
6.13496e-20
5.22494e-20
5.84938e-20
6.19177e-20
5.36415e-20
5.18477e-20
5.39976e-20
5.41795e-20
4.64111e-20
3.81484e-20
5.42567e-20
4.90505e-20
5.79017e-20
5.55462e-20
5.61451e-20
5.97195e-20
5.77118e-20
5.92987e-20
5.57924e-20
5.64489e-20
5.23294e-20
5.97372e-20
4.95579e-20
5.67294e-20
5.37194e-20
5.62065e-20
5.42547e-20
5.22342e-20
5.46293e-20
5.40736e-20
4.66164e-20
5.21804e-20
4.65228e-20
5.26807e-20
5.10991e-20
4.81683e-20
4.31853e-20
5.11779e-20
4.99809e-20
5.30531e-20
4.59447e-20
4.97606e-20
4.86244e-20
5.13173e-20
4.57629e-20
5.32388e-20
5.1408e-20
4.09048e-20
5.63389e-20
4.40801e-20
5.37432e-20
4.0122e-20
5.00865e-20
4.32909e-20
5.124e-20
3.64767e-20
5.26237e-20
2.89866e-20
5.47773e-20
4.03555e-20
5.02859e-20
3.03518e-20
4.03216e-20
4.77002e-20
3.84563e-20
3.95167e-20
4.04e-20
7.1753e-20
2.52922e-19
2.67541e-19
1.84514e-19
8.59252e-20
-9.13021e-21
3.79582e-21
5.2797e-20
-1.19094e-19
-3.58975e-20
-1.71793e-20
-1.11747e-19
-1.91475e-19
-7.62891e-20
-1.71545e-19
-1.37308e-19
-3.39545e-21
-6.06305e-20
-2.72632e-19
-6.55589e-20
-3.53399e-19
-4.45937e-19
-1.53162e-19
-2.47154e-19
-3.58699e-19
1.36801e-19
-6.9492e-19
-2.06573e-19
-1.19732e-19
-1.70681e-19
-2.93785e-19
-2.63708e-19
-1.22418e-19
-8.53988e-20
9.92486e-20
1.02928e-19
1.0022e-19
9.53293e-20
9.62772e-20
9.83159e-20
9.40681e-20
9.1759e-20
8.97129e-20
8.49494e-20
8.11211e-20
7.685e-20
7.58061e-20
7.90546e-20
7.66959e-20
6.06788e-20
6.09348e-20
7.59504e-20
7.65913e-20
7.01838e-20
6.55322e-20
5.0468e-20
5.17194e-20
4.7577e-20
5.05976e-20
5.94449e-20
6.14439e-20
7.11428e-20
5.86922e-20
5.79138e-20
5.71274e-20
5.89094e-20
5.08336e-20
5.71229e-20
5.27094e-20
5.94708e-20
5.52266e-20
5.97008e-20
5.61797e-20
5.8797e-20
5.17285e-20
5.60996e-20
5.08443e-20
5.43835e-20
5.24151e-20
5.3779e-20
5.29654e-20
5.49321e-20
5.46197e-20
5.27851e-20
5.01199e-20
5.89078e-20
5.20643e-20
5.18114e-20
5.49575e-20
4.37735e-20
5.43888e-20
4.79752e-20
5.86653e-20
5.29777e-20
5.2948e-20
5.93594e-20
4.74535e-20
4.89367e-20
5.49169e-20
4.50463e-20
5.09126e-20
4.63328e-20
5.1007e-20
5.00957e-20
4.91556e-20
3.86647e-20
5.50489e-20
3.30276e-20
5.69964e-20
4.6133e-20
4.27751e-20
4.95864e-20
3.72834e-20
5.17435e-20
3.38872e-20
4.56966e-20
4.21225e-20
5.137e-20
4.88578e-20
8.98609e-20
3.28041e-19
3.06006e-19
2.37196e-19
1.4076e-19
3.33349e-20
3.11622e-20
-3.21408e-21
4.88008e-20
2.25318e-20
-1.28324e-19
-2.99933e-19
-2.61295e-19
-1.87158e-19
-2.67007e-19
-2.66475e-19
-2.72281e-19
-3.39343e-19
-6.38903e-20
-3.25031e-19
-1.79576e-19
-9.12625e-20
-3.83938e-19
-8.01734e-21
-5.43453e-19
-1.06796e-20
-6.05569e-20
2.20184e-20
-1.68496e-19
-1.05481e-19
-4.33423e-20
-2.49216e-22
2.53156e-20
6.23239e-20
1.15936e-19
1.18155e-19
1.16308e-19
1.13214e-19
1.12094e-19
1.11449e-19
1.07313e-19
1.08052e-19
1.01419e-19
9.03665e-20
8.99205e-20
8.67818e-20
8.82575e-20
1.02861e-19
8.57976e-20
8.08677e-20
6.4111e-20
6.55941e-20
7.97367e-20
7.42976e-20
6.19954e-20
5.31616e-20
5.74141e-20
6.04233e-20
6.723e-20
6.30506e-20
6.66088e-20
6.05868e-20
5.41746e-20
5.55021e-20
5.98971e-20
5.9148e-20
5.6244e-20
5.14624e-20
5.2129e-20
4.93426e-20
5.14445e-20
4.88797e-20
5.04566e-20
5.2059e-20
4.52438e-20
5.61109e-20
4.71155e-20
5.81064e-20
3.40967e-20
6.16549e-20
5.28744e-20
5.13407e-20
4.90735e-20
5.01085e-20
5.00318e-20
4.90503e-20
4.96551e-20
4.39983e-20
5.11826e-20
4.02984e-20
3.99489e-20
3.81841e-20
3.75551e-20
3.94053e-20
3.52723e-20
4.46908e-20
3.09366e-20
4.56782e-20
2.1851e-20
3.65664e-20
3.22442e-20
4.24518e-20
2.7951e-20
4.73919e-20
3.58508e-20
3.80276e-20
3.42934e-20
3.91281e-20
3.91606e-20
4.07185e-20
4.38487e-20
2.7426e-20
5.88421e-20
2.95695e-20
5.54099e-20
4.235e-20
4.41137e-20
4.41194e-20
5.18504e-20
1.79495e-19
3.38694e-19
3.22646e-19
3.10347e-19
1.71029e-19
1.73036e-19
-1.70939e-20
-2.98278e-20
-3.14269e-20
-5.23951e-20
1.24908e-19
6.20108e-20
-2.29017e-19
-4.214e-20
-1.34754e-19
-1.80073e-19
-1.89069e-19
-3.47881e-19
-1.0905e-19
-4.36964e-19
-3.11984e-19
-2.32951e-19
-4.27661e-19
-2.17674e-21
-2.77496e-19
-4.09318e-19
-8.35782e-19
-9.01671e-20
-8.25667e-19
-6.07864e-19
-5.84528e-19
-5.6128e-19
-3.9291e-19
-4.46869e-19
1.32874e-19
1.32462e-19
1.24419e-19
1.28998e-19
1.26974e-19
1.2678e-19
1.25323e-19
1.18528e-19
1.0532e-19
1.10894e-19
9.66104e-20
9.70745e-20
9.78058e-20
9.5785e-20
9.27364e-20
1.03394e-19
1.09259e-19
8.51835e-20
6.95372e-20
7.04222e-20
8.20609e-20
9.42519e-20
8.73808e-20
9.90797e-20
1.04667e-19
9.79977e-20
8.68495e-20
7.20231e-20
7.54823e-20
7.03818e-20
7.22186e-20
6.26221e-20
6.36017e-20
6.68757e-20
5.0702e-20
6.69556e-20
4.29891e-20
5.88163e-20
5.27771e-20
5.925e-20
4.3278e-20
6.45986e-20
3.61168e-20
7.07973e-20
3.23413e-20
6.67034e-20
3.09898e-20
6.11196e-20
3.39384e-20
5.24071e-20
3.05681e-20
4.24348e-20
3.73458e-20
4.09768e-20
3.66549e-20
4.24919e-20
3.40904e-20
4.63787e-20
4.38396e-20
3.51005e-20
5.09011e-20
3.86881e-20
2.41011e-20
5.92268e-20
4.39667e-20
4.77733e-20
4.19946e-20
4.7749e-20
4.07564e-20
3.21009e-20
5.51736e-20
3.85458e-20
4.7459e-20
2.66066e-20
5.53639e-20
3.16994e-20
5.49688e-20
2.47786e-20
4.26528e-20
2.06144e-20
4.68447e-20
3.49513e-20
4.12339e-20
3.35975e-20
6.55062e-20
2.62052e-19
3.66899e-19
2.82323e-19
1.93256e-19
1.46855e-19
8.26189e-20
1.6339e-19
9.16002e-20
-2.18601e-21
1.56282e-19
1.67295e-19
4.38781e-20
-1.76438e-19
-1.10119e-19
-8.44524e-21
-2.93165e-19
-3.70873e-21
-2.18349e-20
-2.65967e-19
-3.05044e-19
-7.79446e-19
-5.56049e-19
-5.02651e-19
-1.02577e-18
-7.9323e-19
-3.75409e-19
-1.1227e-18
-9.5522e-19
-1.15678e-18
-8.08464e-19
-1.02142e-18
-1.20394e-18
-1.70779e-18
-1.71669e-18
1.47517e-19
1.54532e-19
1.44512e-19
1.45563e-19
1.46951e-19
1.40167e-19
1.37486e-19
1.28022e-19
1.17464e-19
1.14614e-19
9.63844e-20
1.09459e-19
1.10285e-19
8.57032e-20
1.04468e-19
9.35077e-20
9.17047e-20
6.31562e-20
7.0728e-20
9.05496e-20
9.15643e-20
8.88585e-20
9.4335e-20
9.00532e-20
7.20283e-20
7.59014e-20
5.67544e-20
6.84229e-20
6.59191e-20
6.77262e-20
6.16436e-20
5.97668e-20
7.16682e-20
6.22432e-20
6.25814e-20
6.06432e-20
6.69166e-20
6.38135e-20
7.3126e-20
5.69486e-20
7.64065e-20
6.0074e-20
7.09181e-20
6.26147e-20
5.88371e-20
7.56383e-20
3.72692e-20
7.73217e-20
3.68135e-20
8.07796e-20
3.94105e-20
6.81565e-20
4.79434e-20
5.548e-20
5.14947e-20
5.57464e-20
5.2037e-20
5.60715e-20
4.28357e-20
6.1942e-20
3.89676e-20
4.85444e-20
4.9807e-20
6.25475e-20
4.02658e-20
5.5083e-20
4.71152e-20
4.57214e-20
4.44426e-20
4.74692e-20
4.10394e-20
5.24433e-20
5.31659e-20
3.65649e-20
5.50964e-20
4.16503e-20
3.7044e-20
4.78238e-20
5.36737e-20
4.37713e-20
4.47737e-20
4.61474e-20
5.2797e-20
5.22298e-20
7.32444e-20
3.26553e-19
2.99517e-19
2.23527e-19
1.15461e-19
1.41171e-19
7.56534e-20
2.50487e-20
1.74422e-19
2.1618e-19
1.97974e-20
9.94043e-20
6.95165e-20
2.75843e-19
1.22341e-19
8.05989e-21
1.4025e-19
-2.47342e-20
2.73101e-20
1.49895e-19
2.73484e-19
2.14824e-19
4.27866e-20
7.91924e-19
5.53847e-19
2.79983e-19
5.22503e-19
1.16618e-18
1.19314e-18
1.41284e-18
1.58789e-18
1.86363e-18
1.87054e-18
2.42465e-18
2.57048e-18
1.69515e-19
1.7464e-19
1.6424e-19
1.60335e-19
1.52756e-19
1.50979e-19
1.42637e-19
1.29538e-19
1.24387e-19
1.20568e-19
1.09133e-19
1.07925e-19
1.0442e-19
9.77874e-20
7.48089e-20
8.24002e-20
8.96342e-20
1.10094e-19
9.73257e-20
5.47332e-20
4.81621e-20
6.3921e-20
5.86016e-20
5.62776e-20
4.85735e-20
5.79889e-20
7.31559e-20
7.30082e-20
6.41225e-20
5.87427e-20
6.92671e-20
5.79474e-20
4.8348e-20
5.18483e-20
5.33942e-20
5.54781e-20
6.19817e-20
5.04649e-20
5.98529e-20
4.61341e-20
5.78535e-20
4.8216e-20
4.99634e-20
5.34284e-20
5.87256e-20
4.51566e-20
5.20935e-20
4.07206e-20
6.11327e-20
3.68317e-20
5.28271e-20
3.48829e-20
6.12892e-20
2.7562e-20
7.05435e-20
2.54586e-20
6.79441e-20
2.117e-20
6.33288e-20
3.11195e-20
4.7892e-20
3.98519e-20
4.93904e-20
5.32415e-20
4.34835e-20
3.31938e-20
4.69853e-20
2.86352e-20
5.0862e-20
2.56793e-20
4.74882e-20
2.89269e-20
4.17215e-20
1.6681e-20
3.73096e-20
2.44028e-20
3.17885e-20
3.82711e-20
3.5206e-20
6.10783e-20
3.8551e-20
2.6982e-20
3.87947e-20
4.82933e-20
1.25667e-19
2.3913e-19
2.07153e-19
1.77196e-19
1.16376e-19
8.32464e-20
7.7077e-20
-8.30857e-21
8.4165e-20
-5.90044e-21
1.19744e-19
1.14501e-19
7.55064e-20
2.49992e-19
2.57976e-19
5.95994e-20
1.57338e-19
1.51376e-19
3.12121e-19
-2.36829e-20
4.18505e-19
6.7531e-19
-1.23193e-19
2.42315e-19
2.66447e-19
8.767e-19
4.78882e-19
7.29028e-20
4.95945e-19
4.5243e-19
4.0284e-19
-1.35908e-19
-5.84168e-20
-6.63648e-20
-1.92855e-19
1.95831e-19
1.91966e-19
1.86126e-19
1.72894e-19
1.83227e-19
1.54673e-19
1.42044e-19
1.25922e-19
1.23678e-19
1.29675e-19
1.16036e-19
1.05412e-19
9.68872e-20
9.45121e-20
8.46078e-20
8.09934e-20
7.77768e-20
9.62859e-20
8.35281e-20
8.76265e-20
7.39717e-20
8.57122e-20
6.60924e-20
5.95579e-20
6.4634e-20
7.09585e-20
5.89432e-20
5.78265e-20
5.12034e-20
5.71017e-20
6.17619e-20
5.38272e-20
5.27418e-20
7.55061e-20
6.4185e-20
5.42496e-20
5.67639e-20
5.05683e-20
5.59507e-20
4.96792e-20
4.51459e-20
4.38721e-20
4.71298e-20
6.02196e-20
2.15916e-20
5.24671e-20
3.22912e-20
5.64709e-20
3.16343e-20
4.43309e-20
4.83428e-20
5.72045e-20
2.89781e-20
4.9234e-20
3.78715e-20
4.31748e-20
4.45879e-20
1.60587e-20
4.30003e-20
2.03689e-20
3.72424e-20
1.67704e-20
3.26561e-20
1.67449e-20
3.13937e-20
1.72555e-20
2.86821e-20
1.06755e-20
3.68547e-20
1.61248e-20
2.74954e-20
1.22839e-20
3.06485e-20
7.73873e-21
3.2719e-20
1.38011e-20
3.16881e-20
1.2955e-20
1.75611e-20
2.32391e-20
1.53445e-20
2.34975e-20
3.07132e-20
3.59359e-20
1.48541e-19
1.83153e-19
1.00152e-19
2.00424e-19
1.82066e-19
1.05568e-19
-4.09707e-21
1.36006e-19
3.27223e-19
1.25773e-19
1.50582e-19
1.58548e-19
2.47092e-19
2.8264e-19
-1.77374e-19
2.19405e-19
1.03796e-19
4.8075e-20
2.50654e-19
1.94141e-19
-4.03629e-19
5.85947e-19
4.07983e-19
-3.66343e-19
-1.14705e-19
-7.23933e-20
3.41964e-19
3.13188e-19
2.17312e-19
5.0453e-20
-1.38411e-19
3.14407e-19
3.50602e-19
3.44763e-19
3.53435e-19
2.13958e-19
2.07429e-19
1.97164e-19
1.86051e-19
1.84723e-19
1.54009e-19
1.34441e-19
1.22597e-19
1.24929e-19
1.28417e-19
1.16593e-19
1.05878e-19
9.5294e-20
8.27181e-20
6.73781e-20
7.04008e-20
6.75495e-20
5.77776e-20
5.63228e-20
4.79612e-20
6.22878e-20
5.6659e-20
4.57754e-20
6.1722e-20
6.07732e-20
5.34909e-20
4.47577e-20
5.03637e-20
5.88936e-20
6.76244e-20
4.54331e-20
5.37098e-20
6.27843e-20
3.92426e-20
4.7007e-20
5.29412e-20
4.38641e-20
5.46061e-20
5.32517e-20
4.56433e-20
6.66484e-20
4.78885e-20
7.41533e-20
3.178e-20
7.15688e-20
4.38173e-20
6.77846e-20
3.42709e-20
5.43882e-20
3.63862e-20
4.36156e-20
2.25089e-20
3.94646e-20
9.6036e-22
5.26414e-20
2.09552e-21
6.3688e-20
-5.63411e-21
4.61695e-20
4.2543e-21
3.90087e-20
1.35919e-20
3.37249e-20
2.19263e-20
1.46926e-20
2.19997e-20
1.25295e-20
1.78769e-20
2.28776e-20
2.08525e-20
3.16707e-20
-4.12316e-21
5.52068e-20
-5.31228e-21
3.96284e-20
9.63371e-21
9.13887e-21
5.1755e-20
1.08058e-20
1.71086e-20
1.57937e-20
1.70489e-20
1.86987e-20
4.84905e-20
1.47474e-19
1.38548e-19
1.73676e-19
1.37153e-20
-2.18619e-20
-5.31265e-20
-1.03918e-20
1.39554e-20
-7.23377e-20
1.79092e-22
2.03145e-19
2.25405e-19
1.20754e-19
5.66033e-19
2.96476e-19
3.06117e-19
1.46085e-19
1.69574e-19
3.25654e-19
3.2016e-19
3.58927e-19
2.54873e-19
5.85874e-19
4.30439e-19
8.03814e-19
6.82972e-19
8.71956e-19
6.41519e-19
1.24266e-18
1.10019e-18
1.32552e-18
1.19548e-18
1.12845e-18
1.28349e-18
1.36177e-18
2.24886e-19
2.25446e-19
2.18429e-19
1.95359e-19
1.76217e-19
1.50572e-19
1.27556e-19
1.17055e-19
1.19308e-19
1.29606e-19
1.10077e-19
9.11258e-20
7.58723e-20
1.00061e-19
8.70141e-20
6.75477e-20
5.6068e-20
1.98159e-20
4.79198e-20
5.07137e-20
2.94347e-20
2.72522e-20
6.55832e-20
3.34937e-20
4.00626e-20
4.38215e-20
5.6412e-20
4.83271e-20
5.92949e-20
3.64449e-20
4.65849e-20
6.12989e-20
5.15316e-20
5.19307e-20
3.41752e-20
4.2913e-20
3.90427e-20
2.90466e-20
4.57143e-20
2.7663e-20
3.50038e-20
2.50069e-20
3.60466e-20
2.52323e-20
2.35932e-20
3.81931e-20
9.98109e-21
3.6126e-20
2.26116e-20
3.77237e-20
2.91859e-20
3.32144e-20
3.07004e-20
3.34617e-20
3.10089e-20
1.92212e-20
4.67699e-20
6.22918e-21
4.04574e-20
2.84715e-21
3.32107e-20
2.6453e-21
1.31503e-20
2.09285e-20
3.9245e-21
-4.34248e-21
2.5123e-20
-1.64013e-20
4.26316e-20
-1.73311e-20
1.21658e-20
-2.75186e-21
1.20456e-20
-1.02812e-20
7.35843e-21
-6.78867e-21
9.85444e-21
-1.08107e-20
4.929e-21
8.94075e-21
9.05982e-21
9.68896e-21
1.57717e-20
5.69819e-20
9.58116e-20
-6.29009e-21
-8.44599e-20
-7.31911e-21
2.96318e-20
-1.6492e-20
-1.57976e-19
-9.95152e-21
6.9693e-20
1.84871e-20
3.11961e-21
-6.54951e-20
-2.47175e-19
6.56514e-21
-1.00013e-19
2.61565e-19
1.33007e-19
1.63824e-19
1.88192e-19
2.95637e-19
-8.66128e-20
1.16254e-20
3.33657e-20
-1.56578e-19
-5.28693e-19
4.16329e-19
5.91507e-20
-9.67942e-20
-2.57615e-19
-4.18078e-19
-2.22339e-19
-4.37441e-19
-3.86503e-19
-1.82121e-19
-1.7651e-19
2.26661e-19
2.29522e-19
2.22444e-19
1.99485e-19
1.41336e-19
1.22758e-19
1.34034e-19
1.13842e-19
1.11719e-19
1.01973e-19
8.76636e-20
6.37979e-20
7.38375e-20
4.54139e-20
7.82262e-20
6.2248e-20
5.38135e-20
5.78348e-20
4.19587e-20
6.03694e-20
6.62172e-20
4.47988e-20
4.21282e-20
4.79322e-20
4.08689e-20
3.98987e-20
2.67824e-20
3.37486e-20
2.96441e-20
3.27257e-20
4.65936e-20
3.66499e-20
2.51405e-20
4.13717e-20
2.87573e-20
4.3874e-20
3.0609e-20
3.67548e-20
2.94435e-20
1.56275e-20
4.20489e-20
3.12274e-20
2.83613e-20
2.59725e-20
3.03918e-20
2.31979e-20
3.39392e-20
2.11961e-20