/*--------------------------------*- C++ -*----------------------------------*\
| =========                 |                                                 |
| \\      /  F ield         | OpenFOAM: The Open Source CFD Toolbox           |
|  \\    /   O peration     | Version:  2.2.x                                 |
|   \\  /    A nd           | Web:      www.OpenFOAM.org                      |
|    \\/     M anipulation  |                                                 |
\*---------------------------------------------------------------------------*/
FoamFile
{
    version     2.0;
    format      ascii;
    class       volScalarField;
    location    "0.15";
    object      T;
}
// * * * * * * * * * * * * * * * * * * * * * * * * * * * * * * * * * * * * * //

dimensions      [0 0 0 1 0 0 0];

internalField   nonuniform List<scalar> 
14161
(
1
1
1
1
1
1
1
1
1
1
1
1
1
1
1
1
1
1
1
1
1
1
1
1
1
1
1
1
1
1
1
1
1.00001
1.00001
1.00001
1.00001
1.00001
1.00001
1.00001
1.00001
1.00001
1.00001
0.999998
0.999989
0.999977
0.999961
0.99994
0.999917
0.999884
0.999848
0.999799
0.999744
0.999676
0.999601
0.999495
0.999389
0.999241
0.999088
0.998896
0.998678
0.998395
0.998137
0.997764
0.997358
0.99687
0.996332
0.995673
0.995005
0.994166
0.99306
0.992047
0.990715
0.989202
0.987661
0.985744
0.983224
0.981179
0.978191
0.974894
0.971066
0.9664
0.960063
0.955225
0.950782
0.946106
0.938208
0.934239
1.71385
3.15948
3.3377
3.3008
3.2866
3.33151
3.35252
3.39389
3.43136
3.45943
3.48001
3.49237
3.4957
3.50223
3.51521
3.53218
3.55025
3.5715
3.59392
3.61487
3.63172
3.6457
3.66362
3.68832
3.72091
3.76385
3.82467
3.91031
4.00856
4.08423
4.11741
4.13957
1
1
1
1
1
1
1
1
1
1
1
1
1
1
1
1
1
1
1
1
1
1
1
1
1
1
1
1
1
1
1
1
1.00001
1.00001
1.00001
1.00001
1.00001
1.00001
1.00001
1.00001
1.00001
1.00001
0.999999
0.999989
0.999978
0.999961
0.999943
0.999916
0.999888
0.999847
0.999805
0.999741
0.999679
0.999596
0.999505
0.99938
0.999257
0.999083
0.998911
0.998675
0.998435
0.998119
0.997783
0.99733
0.99691
0.996296
0.995702
0.994989
0.994137
0.993137
0.992056
0.990754
0.989294
0.987727
0.985699
0.98346
0.981078
0.978427
0.974811
0.971119
0.96625
0.961064
0.956146
0.951568
0.944855
0.934757
0.927225
1.72664
3.15979
3.3354
3.29743
3.27946
3.33177
3.35446
3.39592
3.42682
3.45251
3.47289
3.48585
3.4904
3.49873
3.51329
3.531
3.54997
3.57177
3.59411
3.61481
3.63123
3.64531
3.66348
3.68833
3.72095
3.76391
3.82462
3.91012
4.00737
4.08272
4.11506
4.13708
1
1
1
1
1
1
1
1
1
1
1
1
1
1
1
1
1
1
1
1
1
1
1
1
1
1
1
1
1
1
1
1
1.00001
1.00001
1.00001
1.00001
1.00001
1.00001
1.00001
1.00001
1.00001
1.00001
0.999999
0.999991
0.999978
0.999964
0.999943
0.99992
0.999888
0.999853
0.999804
0.999752
0.999682
0.999606
0.999509
0.999399
0.999254
0.999115
0.998913
0.998705
0.998446
0.998166
0.997766
0.997433
0.996915
0.996395
0.995725
0.995091
0.994218
0.993189
0.992213
0.990818
0.989517
0.987907
0.986077
0.98349
0.981451
0.978506
0.975309
0.970866
0.967198
0.962626
0.957958
0.951391
0.942657
0.9251
0.921592
1.77621
3.16005
3.33045
3.29623
3.27684
3.32642
3.35282
3.39912
3.42783
3.451
3.47154
3.4845
3.49031
3.50071
3.5166
3.53431
3.55365
3.57527
3.59669
3.61584
3.6315
3.64515
3.66381
3.6889
3.72166
3.76468
3.82538
3.91079
4.00688
4.08161
4.11251
4.134
1
1
1
1
1
1
1
1
1
1
1
1
1
1
1
1
1
1
1
1
1
1
1
1
1
1
1
1
1
1
1
1
1.00001
1.00001
1.00001
1.00001
1.00001
1.00001
1.00001
1.00001
1.00001
1.00001
1
0.999992
0.999981
0.999965
0.999948
0.999922
0.999895
0.999855
0.999816
0.999754
0.999696
0.999615
0.999529
0.999404
0.999289
0.999118
0.998951
0.998719
0.998498
0.998185
0.997863
0.99742
0.997033
0.9965
0.995813
0.995229
0.994329
0.993418
0.99236
0.991124
0.989683
0.988249
0.986336
0.984192
0.981646
0.9791
0.975596
0.972036
0.968049
0.964212
0.958349
0.951042
0.938934
0.918057
0.922626
1.90093
3.16899
3.33035
3.30693
3.29116
3.32976
3.34955
3.39299
3.42213
3.44455
3.46635
3.47957
3.48776
3.50048
3.51733
3.53589
3.55606
3.57787
3.59849
3.61634
3.63113
3.64492
3.66444
3.69011
3.72319
3.76645
3.82715
3.91267
4.00682
4.08078
4.11007
4.1315
1
1
1
1
1
1
1
1
1
1
1
1
1
1
1
1
1
1
1
1
1
1
1
1
1
1
1
1
1
1
1
1
1.00001
1.00001
1.00001
1.00001
1.00001
1.00002
1.00002
1.00002
1.00001
1.00001
1
0.999995
0.999984
0.99997
0.999951
0.999929
0.999899
0.999866
0.999821
0.999773
0.999705
0.999633
0.999541
0.999439
0.999296
0.999165
0.998979
0.998776
0.998531
0.998252
0.997902
0.997568
0.997089
0.996592
0.996009
0.995333
0.994588
0.99358
0.992632
0.991332
0.990037
0.988543
0.986772
0.984511
0.982319
0.979672
0.976636
0.973
0.969477
0.964789
0.958758
0.949857
0.940817
0.931122
0.971473
2.12081
3.19558
3.33453
3.31946
3.30697
3.33507
3.3528
3.38655
3.41213
3.43417
3.45706
3.47214
3.48377
3.49867
3.51729
3.53737
3.55853
3.58005
3.59945
3.61637
3.63047
3.64522
3.66564
3.69186
3.72542
3.76919
3.82986
3.91492
4.00686
4.08048
4.10823
4.12995
1
1
1
1
1
1
1
1
1
1
1
1
1
1
1
1
1
1
1
1
1
1
1
1
1
1
1
1
1
1
1
1
1.00001
1.00001
1.00001
1.00001
1.00001
1.00002
1.00002
1.00002
1.00002
1.00001
1.00001
0.999999
0.999989
0.999975
0.999959
0.999935
0.999911
0.999874
0.999837
0.999783
0.999725
0.999653
0.99957
0.999461
0.999347
0.999189
0.999034
0.998826
0.998605
0.998311
0.998024
0.997631
0.997239
0.99673
0.99617
0.995528
0.994765
0.993921
0.99285
0.991758
0.990432
0.989048
0.987242
0.985288
0.982953
0.980653
0.977549
0.974437
0.970596
0.965667
0.959228
0.95435
0.950437
0.951835
0.986202
2.36249
3.20903
3.34491
3.33595
3.33013
3.3496
3.36667
3.38804
3.41212
3.43521
3.45771
3.47306
3.48676
3.50367
3.52266
3.54302
3.56343
3.58293
3.60033
3.61599
3.62988
3.64627
3.66741
3.6943
3.72831
3.77274
3.83323
3.91715
4.00679
4.08046
4.10698
4.1287
1
1
1
1
1
1
1
1
1
1
1
1
1
1
1
1
1
1
1
1
1
1
1
1
1
1
1
1
1
1
1
1
1.00001
1.00001
1.00001
1.00001
1.00002
1.00002
1.00002
1.00002
1.00002
1.00002
1.00001
1
0.999994
0.999983
0.999966
0.999947
0.99992
0.99989
0.999851
0.999806
0.999747
0.999681
0.999596
0.999505
0.999381
0.999256
0.99908
0.998906
0.998672
0.99844
0.998108
0.997794
0.997358
0.996912
0.99639
0.995766
0.995062
0.994224
0.993345
0.992117
0.991105
0.989603
0.988056
0.986032
0.98413
0.981563
0.978925
0.975863
0.972045
0.967483
0.963626
0.960373
0.957036
0.95624
0.984558
2.61271
3.23555
3.35365
3.34876
3.34721
3.359
3.37159
3.38636
3.41004
3.42945
3.44873
3.46489
3.48053
3.49985
3.5205
3.54203
3.56291
3.5821
3.59911
3.6144
3.62839
3.64628
3.66894
3.69666
3.73152
3.77652
3.83654
3.91859
4.00636
4.08052
4.10638
4.12823
1
1
1
1
1
1
1
1
1
1
1
1
1
1
1
1
1
1
1
1
1
1
1
1
1
1
1
1
1
1
1
1
1.00001
1.00001
1.00001
1.00001
1.00002
1.00002
1.00002
1.00002
1.00002
1.00002
1.00002
1.00001
1
0.999991
0.999978
0.999958
0.999937
0.999906
0.999874
0.999828
0.999779
0.99971
0.999643
0.999541
0.999448
0.999307
0.999169
0.998979
0.998789
0.998534
0.998272
0.997932
0.997563
0.997118
0.996636
0.996095
0.995385
0.994673
0.993694
0.99279
0.991631
0.990355
0.98876
0.987149
0.985035
0.982978
0.980371
0.977367
0.973982
0.970684
0.967793
0.963919
0.956121
0.951051
1.00303
2.77958
3.28889
3.36155
3.35314
3.35634
3.3625
3.37914
3.39502
3.41963
3.43799
3.45411
3.46951
3.48533
3.5041
3.52396
3.54434
3.56446
3.58295
3.59884
3.61306
3.62815
3.64723
3.67119
3.69935
3.73485
3.77994
3.83858
3.91959
4.00647
4.08061
4.10615
4.12848
1
1
1
1
1
1
1
1
1
1
1
1
1
1
1
1
1
1
1
1
1
1
1
1
1
1
1
1
1
1
1
1
1.00001
1.00001
1.00001
1.00002
1.00002
1.00002
1.00002
1.00003
1.00003
1.00003
1.00002
1.00002
1.00001
1
0.99999
0.999975
0.999953
0.99993
0.999896
0.99986
0.999811
0.999756
0.999684
0.999606
0.999502
0.999389
0.999249
0.999092
0.998892
0.998687
0.998423
0.998125
0.997785
0.997381
0.996924
0.996402
0.995811
0.995078
0.994275
0.993382
0.992344
0.991086
0.989688
0.988051
0.986444
0.98435
0.982067
0.979293
0.976712
0.973613
0.969869
0.964123
0.95122
0.94504
1.34305
2.99445
3.33276
3.36903
3.35319
3.35849
3.35554
3.37198
3.39059
3.4152
3.43564
3.45475
3.47242
3.48902
3.50754
3.5268
3.54652
3.56573
3.58286
3.59751
3.61192
3.62797
3.64854
3.67355
3.70223
3.73803
3.78257
3.83992
3.92016
4.0066
4.08055
4.1061
4.12878
1
1
1
1
1
1
1
1
1
1
1
1
1
1
1
1
1
1
1
1
1
1
1
1
1
1
1
1
1
1
1
1
1.00001
1.00001
1.00001
1.00002
1.00002
1.00002
1.00003
1.00003
1.00003
1.00003
1.00003
1.00003
1.00002
1.00001
1.00001
0.999992
0.999975
0.999953
0.999927
0.999892
0.999853
0.999802
0.999742
0.999667
0.999583
0.999473
0.999354
0.9992
0.999046
0.99883
0.99861
0.99834
0.998031
0.99767
0.997261
0.996791
0.996234
0.995607
0.99487
0.99407
0.993087
0.992001
0.990721
0.989278
0.987782
0.986037
0.983844
0.981537
0.978981
0.975828
0.971502
0.965728
0.962767
0.999658
1.86232
3.14489
3.37009
3.38561
3.36436
3.36443
3.36008
3.3721
3.39238
3.41282
3.43571
3.45587
3.47516
3.49205
3.5096
3.52798
3.54703
3.56517
3.58068
3.59469
3.61002
3.62805
3.65024
3.67555
3.70475
3.74056
3.78424
3.84077
3.92061
4.00657
4.08036
4.10569
4.12795
1
1
1
1
1
1
1
1
1
1
1
1
1
1
1
1
1
1
1
1
1
1
1
1
1
1
1
1
1
1
1
1
1.00001
1.00001
1.00001
1.00002
1.00002
1.00003
1.00003
1.00003
1.00004
1.00004
1.00004
1.00004
1.00003
1.00003
1.00002
1.00001
1
0.999982
0.999961
0.999931
0.9999
0.999855
0.999805
0.999742
0.999666
0.999577
0.999466
0.999345
0.999188
0.999019
0.998816
0.998575
0.998309
0.997988
0.997625
0.997208
0.996746
0.996156
0.995552
0.994767
0.993984
0.992972
0.991928
0.990585
0.989277
0.987676
0.985898
0.983648
0.980984
0.978026
0.975593
0.972729
0.975127
1.0161
2.31613
3.21273
3.38462
3.38536
3.37705
3.3667
3.36473
3.37094
3.39165
3.41193
3.43864
3.45964
3.48022
3.49767
3.51376
3.53065
3.54824
3.56511
3.57945
3.59356
3.61013
3.62987
3.65248
3.67756
3.70685
3.74217
3.78481
3.8407
3.92123
4.00641
4.07991
4.10451
4.12601
1
1
1
1
1
1
1
1
1
1
1
1
1
1
1
1
1
1
1
1
1
1
1
1
1
1
1
1
1
1
1
1.00001
1.00001
1.00001
1.00002
1.00002
1.00002
1.00003
1.00004
1.00004
1.00004
1.00005
1.00005
1.00005
1.00005
1.00005
1.00004
1.00004
1.00003
1.00002
0.999999
0.999978
0.99995
0.999918
0.999875
0.999825
0.999762
0.999688
0.999593
0.99949
0.99936
0.999219
0.99904
0.998846
0.998599
0.99835
0.998014
0.997693
0.99724
0.996807
0.996204
0.99561
0.994853
0.994055
0.993099
0.992052
0.990716
0.989449
0.987709
0.985786
0.983655
0.981604
0.979488
0.976304
0.974916
0.999673
2.6873
3.2758
3.39688
3.3793
3.38311
3.36726
3.36769
3.3684
3.3879
3.40729
3.43544
3.45771
3.4808
3.50009
3.51592
3.53204
3.54832
3.56452
3.57882
3.5938
3.61201
3.63213
3.65387
3.67869
3.7079
3.74238
3.78447
3.84088
3.92226
4.00689
4.07963
4.10287
4.12341
1
1
1
1
1
1
1
1
1
1
1
1
1
1
1
1
1
1
1
1
1
1
1
1
1
1
1
1
1
1
1
1.00001
1.00001
1.00001
1.00002
1.00002
1.00003
1.00003
1.00004
1.00005
1.00005
1.00006
1.00006
1.00006
1.00006
1.00007
1.00007
1.00006
1.00006
1.00005
1.00004
1.00003
1.00001
0.999983
0.999954
0.999912
0.999868
0.999805
0.999738
0.999647
0.999549
0.999426
0.999295
0.999117
0.998937
0.998706
0.998461
0.998156
0.997822
0.997415
0.996967
0.996426
0.995825
0.995129
0.994341
0.993393
0.992334
0.991108
0.989704
0.988114
0.986532
0.984649
0.981741
0.975963
0.979937
1.32839
2.97812
3.35758
3.40631
3.37548
3.37881
3.36686
3.36727
3.36805
3.38517
3.40281
3.42997
3.45175
3.47499
3.4951
3.51125
3.5282
3.54484
3.5613
3.57695
3.5944
3.61332
3.63306
3.65433
3.67896
3.70785
3.74156
3.78395
3.84197
3.92419
4.00828
4.07923
4.10055
4.12052
1
1
1
1
1
1
1
1
1
1
1
1
1
1
1
1
1
1
1
1
1
1
1
1
1
1
1
1
1
1
1
1.00001
1.00001
1.00001
1.00002
1.00002
1.00003
1.00004
1.00005
1.00005
1.00006
1.00007
1.00007
1.00008
1.00008
1.00009
1.00009
1.00009
1.00009
1.00009
1.00009
1.00008
1.00007
1.00006
1.00004
1.00001
0.999975
0.999939
0.999881
0.999824
0.999742
0.999656
0.999541
0.999426
0.99927
0.999106
0.998901
0.99867
0.998402
0.998086
0.997714
0.9973
0.9968
0.996256
0.995569
0.994853
0.99391
0.992946
0.99174
0.990527
0.988959
0.987076
0.983423
0.981164
1.01273
1.9552
3.17392
3.40899
3.41081
3.38598
3.37599
3.3689
3.36665
3.37163
3.38787
3.40492
3.42931
3.45068
3.47376
3.49384
3.51017
3.52725
3.54366
3.56085
3.57836
3.59673
3.61447
3.63341
3.65444
3.67859
3.70693
3.74071
3.78478
3.8438
3.92668
4.00995
4.07788
4.09727
4.11697
1
1
1
1
1
1
1
1
1
1
1
1
1
1
1
1
1
1
1
1
1
1
1
1
1
1
1
1
1
1
1
1.00001
1.00001
1.00001
1.00002
1.00003
1.00003
1.00004
1.00005
1.00006
1.00007
1.00008
1.00009
1.0001
1.0001
1.00011
1.00012
1.00012
1.00013
1.00013
1.00014
1.00014
1.00014
1.00013
1.00013
1.00011
1.0001
1.00007
1.00004
0.999999
0.999951
0.999886
0.999816
0.999725
0.999625
0.999498
0.99936
0.999186
0.998995
0.998748
0.998493
0.998151
0.997814
0.997359
0.996876
0.996245
0.995593
0.994718
0.993817
0.99267
0.991285
0.989972
0.988746
0.990001
1.028
2.54587
3.27483
3.42852
3.39602
3.39009
3.36949
3.36227
3.35742
3.36017
3.37822
3.39627
3.41993
3.44228
3.46623
3.48755
3.50531
3.52373
3.54119
3.56039
3.5792
3.59772
3.61486
3.63372
3.65432
3.67805
3.70582
3.74012
3.78632
3.84592
3.92907
4.01108
4.07557
4.09373
4.11346
1
1
1
1
1
1
1
1
1
1
1
1
1
1
1
1
1
1
1
1
1
1
1
1
1
1
1
1
1
1
1
1.00001
1.00001
1.00002
1.00002
1.00003
1.00004
1.00005
1.00006
1.00007
1.00008
1.00009
1.0001
1.00011
1.00012
1.00013
1.00015
1.00016
1.00017
1.00018
1.00019
1.0002
1.00021
1.00021
1.00022
1.00022
1.00022
1.00021
1.0002
1.00018
1.00016
1.00012
1.00008
1.00003
0.999972
0.999894
0.999808
0.999701
0.999574
0.99942
0.999242
0.999029
0.998782
0.998478
0.998132
0.997689
0.997186
0.996531
0.995809
0.995007
0.994086
0.993063
0.992506
1.00035
1.19605
2.88443
3.37629
3.43446
3.38888
3.38572
3.36986
3.36259
3.35933
3.35945
3.37807
3.39609
3.41947
3.44085
3.46316
3.48465
3.50294
3.52168
3.53954
3.55984
3.57887
3.59751
3.61472
3.63362
3.65387
3.67712
3.70522
3.74022
3.7877
3.8479
3.93145
4.01189
4.07307
4.09036
4.11007
1
1
1
1
1
1
1
1
1
1
1
1
1
1
1
1
1
1
1
1
1
1
1
1
1
1
1
1
1
1
1
1.00001
1.00001
1.00002
1.00002
1.00003
1.00004
1.00005
1.00006
1.00008
1.00009
1.0001
1.00012
1.00013
1.00015
1.00016
1.00018
1.00019
1.00021
1.00023
1.00024
1.00026
1.00028
1.0003
1.00031
1.00033
1.00034
1.00035
1.00036
1.00036
1.00036
1.00036
1.00035
1.00033
1.00031
1.00028
1.00024
1.0002
1.00013
1.00007
0.999975
0.999868
0.999726
0.999569
0.999365
0.999114
0.998772
0.99838
0.997875
0.997283
0.996534
0.994353
0.991083
1.00512
1.87375
3.17704
3.43991
3.41889
3.39189
3.37165
3.36251
3.35341
3.35174
3.34932
3.3685
3.38743
3.41416
3.43595
3.45833
3.48095
3.50023
3.51947
3.53758
3.55812
3.57724
3.59655
3.61389
3.63273
3.65244
3.676
3.70546
3.74105
3.78935
3.85062
3.93453
4.0124
4.07026
4.08728
4.10667
1
1
1
1
1
1
1
1
1
1
1
1
1
1
1
1
1
1
1
1
1
1
1
1
1
1
1
1
1
1
1
1.00001
1.00001
1.00002
1.00002
1.00003
1.00004
1.00006
1.00007
1.00008
1.0001
1.00012
1.00013
1.00015
1.00017
1.00019
1.00021
1.00023
1.00025
1.00027
1.0003
1.00033
1.00035
1.00038
1.00041
1.00044
1.00047
1.00049
1.00052
1.00054
1.00057
1.00059
1.00061
1.00063
1.00064
1.00065
1.00066
1.00066
1.00067
1.00067
1.00066
1.00065
1.00062
1.0006
1.00056
1.00047
1.00034
1.00015
0.999855
0.999314
0.999048
0.998789
1.00033
1.03038
2.58067
3.31368
3.45447
3.40106
3.38905
3.36935
3.36016
3.34931
3.3487
3.34554
3.36315
3.38121
3.40886
3.43061
3.45399
3.47691
3.49666
3.51621
3.53449
3.55525
3.57454
3.59462
3.61205
3.63122
3.65124
3.67581
3.70659
3.74271
3.79177
3.85455
3.93814
4.01265
4.0677
4.08463
4.1035
1
1
1
1
1
1
1
1
1
1
1
1
1
1
1
1
1
1
1
1
1
1
1
1
1
1
1
1
1
1
1.00001
1.00001
1.00001
1.00002
1.00003
1.00004
1.00005
1.00006
1.00008
1.00009
1.00011
1.00013
1.00015
1.00017
1.00019
1.00021
1.00024
1.00026
1.00029
1.00032
1.00036
1.00039
1.00043
1.00047
1.00051
1.00055
1.00059
1.00063
1.00068
1.00072
1.00076
1.00081
1.00085
1.0009
1.00095
1.00099
1.00104
1.0011
1.00116
1.00122
1.00128
1.00136
1.00144
1.00153
1.00164
1.00175
1.00181
1.00185
1.00188
1.00193
1.00222
1.00233
1.00141
1.25544
2.94248
3.41501
3.43622
3.39023
3.37575
3.36325
3.35277
3.34131
3.34104
3.34101
3.35598
3.37369
3.40071
3.42372
3.44932
3.47248
3.49246
3.51235
3.53089
3.55183
3.57135
3.59222
3.60981
3.62973
3.65076
3.6764
3.7073
3.74429
3.79443
3.85832
3.9409
4.01286
4.06574
4.08256
4.10069
1
1
1
1
1
1
1
1
1
1
1
1
1
1
1
1
1
1
1
1
1
1
1
1
1
1
1
1
1
1
1.00001
1.00001
1.00001
1.00002
1.00003
1.00004
1.00005
1.00007
1.00008
1.0001
1.00012
1.00014
1.00017
1.00019
1.00021
1.00024
1.00027
1.0003
1.00034
1.00037
1.00041
1.00046
1.0005
1.00055
1.0006
1.00065
1.00071
1.00077
1.00083
1.00089
1.00095
1.00102
1.00109
1.00116
1.00124
1.00132
1.0014
1.0015
1.0016
1.00171
1.00182
1.00197
1.00214
1.00233
1.00257
1.00284
1.00317
1.0035
1.00393
1.00422
1.00445
1.00529
1.00956
2.0491
3.25087
3.46289
3.41083
3.38924
3.36368
3.35353
3.34311
3.33415
3.33324
3.33588
3.34915
3.36647
3.39233
3.41688
3.44479
3.46817
3.48832
3.50831
3.52702
3.54807
3.56786
3.58946
3.60766
3.62874
3.65041
3.67649
3.70758
3.74563
3.79642
3.86097
3.94356
4.01376
4.0643
4.08055
4.09783
1
1
1
1
1
1
1
1
1
1
1
1
1
1
1
1
1
1
1
1
1
1
1
1
1
1
1
1
1
1
1.00001
1.00001
1.00001
1.00002
1.00003
1.00004
1.00005
1.00007
1.00009
1.00011
1.00013
1.00016
1.00018
1.00021
1.00024
1.00027
1.0003
1.00034
1.00038
1.00042
1.00047
1.00052
1.00057
1.00063
1.00069
1.00076
1.00083
1.0009
1.00098
1.00106
1.00114
1.00122
1.00131
1.00141
1.00151
1.00161
1.00172
1.00185
1.00198
1.00213
1.00227
1.00246
1.00269
1.00298
1.0033
1.0037
1.00418
1.00483
1.00561
1.00638
1.00687
1.00602
1.02487
2.71532
3.35007
3.45506
3.39281
3.37672
3.35509
3.34353
3.33387
3.32691
3.32691
3.32991
3.3424
3.35876
3.38254
3.40794
3.43743
3.46175
3.48236
3.5026
3.52189
3.5436
3.56409
3.5867
3.60577
3.62791
3.64955
3.67603
3.70748
3.74631
3.79789
3.86359
3.94637
4.01489
4.06243
4.07805
4.09446
1
1
1
1
1
1
1
1
1
1
1
1
1
1
1
1
1
1
1
1
1
1
1
1
1
1
1
1
1
1
1.00001
1.00001
1.00001
1.00002
1.00003
1.00004
1.00006
1.00007
1.00009
1.00012
1.00014
1.00017
1.0002
1.00023
1.00026
1.00029
1.00033
1.00037
1.00042
1.00047
1.00052
1.00058
1.00065
1.00071
1.00079
1.00086
1.00094
1.00103
1.00112
1.00121
1.00131
1.00141
1.00153
1.00164
1.00176
1.00189
1.00202
1.00216
1.00232
1.00249
1.00267
1.00286
1.00313
1.00345
1.00384
1.00425
1.00479
1.00546
1.00634
1.0076
1.01086
1.01571
1.50819
3.09454
3.44898
3.42045
3.38395
3.35944
3.34497
3.33195
3.32482
3.3183
3.31988
3.32194
3.33468
3.35164
3.37479
3.40034
3.42982
3.45517
3.47645
3.49683
3.51672
3.53934
3.56072
3.58435
3.60409
3.62682
3.64849
3.67564
3.7073
3.74677
3.79945
3.86629
3.94862
4.01534
4.05964
4.07485
4.09001
1
1
1
1
1
1
1
1
1
1
1
1
1
1
1
1
1
1
1
1
1
1
1
1
1
1
1
1
1
1
1.00001
1.00001
1.00001
1.00002
1.00003
1.00004
1.00006
1.00008
1.0001
1.00012
1.00015
1.00018
1.00021
1.00024
1.00028
1.00032
1.00036
1.00041
1.00046
1.00051
1.00057
1.00064
1.00071
1.00079
1.00087
1.00096
1.00105
1.00116
1.00126
1.00137
1.00148
1.0016
1.00173
1.00186
1.00199
1.00214
1.0023
1.00245
1.00263
1.00281
1.003
1.0032
1.00346
1.00378
1.00417
1.00457
1.00509
1.00582
1.00708
1.00792
1.00749
0.999739
2.31745
3.31625
3.46061
3.38883
3.37144
3.3464
3.33409
3.32211
3.31647
3.30999
3.31179
3.31421
3.32692
3.34384
3.36642
3.39132
3.42062
3.44707
3.46936
3.49043
3.51097
3.53432
3.55678
3.5816
3.60221
3.62546
3.64737
3.67484
3.70672
3.74695
3.80041
3.8684
3.95007
4.01521
4.05651
4.07146
4.08568
1
1
1
1
1
1
1
1
1
1
1
1
1
1
1
1
1
1
1
1
1
1
1
1
1
1
1
1
1
1
1.00001
1.00001
1.00002
1.00002
1.00003
1.00005
1.00006
1.00008
1.0001
1.00013
1.00016
1.00019
1.00022
1.00026
1.0003
1.00034
1.00038
1.00044
1.00049
1.00056
1.00062
1.0007
1.00078
1.00086
1.00096
1.00106
1.00116
1.00127
1.00139
1.00152
1.00165
1.00178
1.00193
1.00208
1.00222
1.00239
1.00256
1.00273
1.00291
1.0031
1.0033
1.0035
1.00374
1.00403
1.00439
1.0048
1.0053
1.00572
1.0061
1.00657
1.00624
1.13218
2.84894
3.4036
3.41527
3.36782
3.35013
3.33203
3.32196
3.3126
3.30686
3.30033
3.30195
3.30611
3.31846
3.33579
3.35843
3.38335
3.41256
3.43965
3.46267
3.48409
3.50481
3.52845
3.55136
3.57704
3.5989
3.62298
3.64545
3.67357
3.706
3.74715
3.80115
3.87031
3.95086
4.0141
4.05287
4.06841
4.08197
1
1
1
1
1
1
1
1
1
1
1
1
1
1
1
1
1
1
1
1
1
1
1
1
1
1
1
1
1
1
1.00001
1.00001
1.00002
1.00002
1.00003
1.00005
1.00006
1.00008
1.00011
1.00013
1.00016
1.0002
1.00023
1.00027
1.00031
1.00036
1.00041
1.00046
1.00053
1.00059
1.00067
1.00075
1.00084
1.00094
1.00104
1.00115
1.00127
1.00139
1.00152
1.00167
1.00181
1.00196
1.00212
1.0023
1.00246
1.00263
1.00281
1.003
1.00318
1.00337
1.00357
1.00378
1.00399
1.00425
1.00454
1.00486
1.00526
1.00586
1.00718
1.01024
1.00825
1.86604
3.20729
3.43492
3.37664
3.35523
3.3321
3.32154
3.31022
3.3029
3.29587
3.29094
3.29178
3.29656
3.30828
3.32516
3.34724
3.37264
3.40269
3.43085
3.45519
3.47754
3.49856
3.52246
3.54561
3.57176
3.59449
3.61942
3.643
3.67226
3.70553
3.74742
3.80193
3.87211
3.95117
4.01225
4.0493
4.0661
4.0792
1
1
1
1
1
1
1
1
1
1
1
1
1
1
1
1
1
1
1
1
1
1
1
1
1
1
1
1
1
1
1.00001
1.00001
1.00002
1.00002
1.00003
1.00005
1.00006
1.00008
1.00011
1.00014
1.00017
1.0002
1.00024
1.00028
1.00032
1.00037
1.00043
1.00049
1.00056
1.00063
1.00071
1.0008
1.0009
1.001
1.00112
1.00123
1.00137
1.00151
1.00165
1.0018
1.00197
1.00214
1.00232
1.00251
1.0027
1.00288
1.00308
1.00327
1.00347
1.00366
1.00385
1.00405
1.00425
1.00447
1.0047
1.00496
1.00531
1.00586
1.00595
1.00149
1.01438
2.60597
3.30664
3.411
3.35548
3.34157
3.32046
3.30712
3.29544
3.28867
3.28369
3.28261
3.28396
3.28799
3.29826
3.31508
3.33687
3.36207
3.39151
3.4202
3.44675
3.47077
3.4924
3.5163
3.53959
3.56611
3.58959
3.61516
3.6398
3.66998
3.70449
3.74754
3.80263
3.8733
3.9509
4.00973
4.04577
4.06355
4.07608
1
1
1
1
1
1
1
1
1
1
1
1
1
1
1
1
1
1
1
1
1
1
1
1
1
1
1
1
1
1
1.00001
1.00001
1.00001
1.00002
1.00003
1.00005
1.00006
1.00008
1.00011
1.00014
1.00017
1.00021
1.00025
1.00029
1.00033
1.00038
1.00044
1.00051
1.00058
1.00066
1.00075
1.00084
1.00095
1.00106
1.00118
1.00132
1.00146
1.00161
1.00177
1.00195
1.00213
1.00232
1.00251
1.00272
1.00294
1.00314
1.00336
1.00357
1.00378
1.00397
1.00416
1.00435
1.00454
1.00474
1.00494
1.00507
1.00516
1.00516
1.0047
1.0021
1.42592
3.00037
3.38881
3.37032
3.33734
3.32042
3.30791
3.29077
3.28168
3.27441
3.27117
3.27003
3.27199
3.27561
3.28737
3.30452
3.32558
3.35069
3.37944
3.40825
3.43587
3.46152
3.4847
3.50922
3.53308
3.56031
3.58482
3.61139
3.63711
3.66801
3.70313
3.74699
3.80265
3.87365
3.95005
4.00764
4.04303
4.06098
4.07294
1
1
1
1
1
1
1
1
1
1
1
1
1
1
1
1
1
1
1
1
1
1
1
1
1
1
1
1
1
1
1.00001
1.00001
1.00001
1.00002
1.00003
1.00005
1.00006
1.00008
1.00011
1.00014
1.00017
1.00021
1.00025
1.00029
1.00034
1.00039
1.00045
1.00052
1.0006
1.00068
1.00077
1.00088
1.00099
1.00111
1.00124
1.00139
1.00155
1.00171
1.00189
1.00208
1.00228
1.00249
1.00271
1.00294
1.00318
1.00341
1.00365
1.00388
1.00411
1.00433
1.00454
1.00474
1.0049
1.00504
1.00514
1.00526
1.00546
1.00615
1.00572
1.0062
2.17935
3.24593
3.38829
3.34478
3.32381
3.29879
3.28862
3.275
3.27261
3.26514
3.26137
3.25766
3.25912
3.26245
3.27554
3.29347
3.31496
3.34008
3.36802
3.39709
3.42521
3.45163
3.47539
3.50122
3.52623
3.55423
3.57985
3.60742
3.63431
3.66588
3.70153
3.7461
3.8022
3.8734
3.94874
4.00477
4.0394
4.0572
4.06819
1
1
1
1
1
1
1
1
1
1
1
1
1
1
1
1
1
1
1
1
1
1
1
1
1
1
1
1
1
1
1.00001
1.00001
1.00001
1.00002
1.00003
1.00004
1.00006
1.00008
1.00011
1.00014
1.00017
1.00021
1.00025
1.00029
1.00034
1.0004
1.00046
1.00053
1.00061
1.0007
1.00079
1.0009
1.00102
1.00115
1.00129
1.00145
1.00162
1.0018
1.00199
1.0022
1.00242
1.00266
1.00291
1.00316
1.00342
1.00369
1.00396
1.00422
1.00449
1.00474
1.00497
1.00516
1.00532
1.00547
1.00557
1.00559
1.00531
1.00403
0.996269
1.09728
2.69473
3.31583
3.34223
3.32134
3.29938
3.28586
3.27153
3.25893
3.25583
3.25042
3.24892
3.24565
3.24659
3.24917
3.2616
3.27924
3.30217
3.32821
3.3559
3.38547
3.41418
3.44153
3.46586
3.49247
3.51852
3.54776
3.57507
3.60384
3.63155
3.66371
3.69992
3.74484
3.80109
3.87245
3.94672
4.00182
4.03607
4.05347
4.06419
1
1
1
1
1
1
1
1
1
1
1
1
1
1
1
1
1
1
1
1
1
1
1
1
1
1
1
1
1
1
1
1.00001
1.00001
1.00002
1.00003
1.00004
1.00006
1.00008
1.0001
1.00013
1.00017
1.0002
1.00025
1.00029
1.00034
1.0004
1.00046
1.00053
1.00061
1.0007
1.00081
1.00092
1.00104
1.00118
1.00133
1.0015
1.00168
1.00187
1.00209
1.00231
1.00256
1.00282
1.00309
1.00338
1.00368
1.00398
1.00429
1.0046
1.0049
1.00519
1.00547
1.00571
1.0059
1.00602
1.00607
1.00596
1.00601
1.00655
1.00217
1.6892
3.06738
3.3185
3.30409
3.29328
3.27532
3.27752
3.25896
3.24679
3.24125
3.23512
3.23202
3.23147
3.2364
3.23821
3.24802
3.26578
3.28892
3.31457
3.34303
3.37436
3.40434
3.43242
3.45683
3.4838
3.5105
3.54066
3.56938
3.59945
3.62836
3.66144
3.69831
3.74376
3.80019
3.87148
3.9447
3.99856
4.03193
4.04848
4.05783
1
1
1
1
1
1
1
1
1
1
1
1
1
1
1
1
1
1
1
1
1
1
1
1
1
1
1
1
1
1
1
1.00001
1.00001
1.00002
1.00003
1.00004
1.00006
1.00008
1.0001
1.00013
1.00016
1.0002
1.00024
1.00028
1.00033
1.00039
1.00046
1.00053
1.00061
1.00071
1.00081
1.00093
1.00106
1.0012
1.00136
1.00153
1.00173
1.00194
1.00216
1.00241
1.00267
1.00296
1.00326
1.00359
1.00392
1.00427
1.00463
1.005
1.00536
1.00571
1.00605
1.00632
1.00657
1.00679
1.00695
1.00706
1.00713
1.00284
1.00245
2.34996
3.18931
3.28738
3.28358
3.26818
3.25132
3.25233
3.2358
3.23245
3.22661
3.22035
3.21703
3.2162
3.22198
3.22624
3.23472
3.25165
3.2744
3.30059
3.32935
3.36102
3.3922
3.42237
3.44769
3.47526
3.50253
3.5336
3.5633
3.5946
3.62464
3.65829
3.69562
3.7415
3.79811
3.8695
3.94202
3.99509
4.02816
4.0444
4.05352
1
1
1
1
1
1
1
1
1
1
1
1
1
1
1
1
1
1
1
1
1
1
1
1
1
1
1
1
1
1
1
1.00001
1.00001
1.00002
1.00003
1.00004
1.00005
1.00007
1.00009
1.00012
1.00015
1.00019
1.00023
1.00027
1.00032
1.00038
1.00044
1.00052
1.0006
1.0007
1.00081
1.00093
1.00106
1.00121
1.00137
1.00155
1.00175
1.00198
1.00222
1.00248
1.00277
1.00308
1.00341
1.00377
1.00415
1.00455
1.00496
1.00539
1.00582
1.00625
1.00667
1.00706
1.00743
1.00771
1.00781
1.00743
1.00621
0.999781
1.25533
2.74832
3.24716
3.25502
3.26319
3.24493
3.23558
3.23054
3.21561
3.21036
3.20864
3.206
3.20421
3.20175
3.20575
3.21265
3.22069
3.23754
3.25966
3.28657
3.31616
3.34767
3.37869
3.41091
3.43832
3.46658
3.494
3.52559
3.55645
3.58874
3.61977
3.65445
3.69274
3.73971
3.79672
3.86822
3.93999
3.99208
4.02422
4.03952
4.04765
1
1
1
1
1
1
1
1
1
1
1
1
1
1
1
1
1
1
1
1
1
1
1
1
1
1
1
1
1
1
1
1.00001
1.00001
1.00002
1.00002
1.00003
1.00005
1.00007
1.00009
1.00011
1.00014
1.00018
1.00022
1.00026
1.00031
1.00036
1.00043
1.0005
1.00059
1.00068
1.00079
1.00091
1.00105
1.0012
1.00137
1.00156
1.00177
1.00199
1.00225
1.00253
1.00284
1.00317
1.00354
1.00393
1.00435
1.00481
1.00527
1.00577
1.00628
1.00681
1.00733
1.00782
1.00825
1.00864
1.00907
1.00981
1.00935
1.00021
1.82025
3.0423
3.22456
3.21629
3.22164
3.21009
3.21675
3.21082
3.19728
3.19195
3.18845
3.18814
3.18969
3.18849
3.19
3.19753
3.20704
3.22315
3.24424
3.27202
3.30263
3.33438
3.36491
3.39773
3.42637
3.45622
3.48489
3.51745
3.54937
3.58299
3.61522
3.65066
3.68946
3.73674
3.79392
3.86559
3.9368
3.98819
4.01955
4.03546
4.04344
1
1
1
1
1
1
1
1
1
1
1
1
1
1
1
1
1
1
1
1
1
1
1
1
1
1
1
1
1
1
1
1.00001
1.00001
1.00001
1.00002
1.00003
1.00004
1.00006
1.00008
1.0001
1.00013
1.00017
1.0002
1.00024
1.00029
1.00034
1.00041
1.00048
1.00056
1.00065
1.00076
1.00088
1.00102
1.00117
1.00135
1.00154
1.00176
1.002
1.00227
1.00255
1.00287
1.00323
1.00362
1.00405
1.00452
1.00501
1.00555
1.00612
1.00671
1.00732
1.00793
1.00854
1.00918
1.0098
1.01037
1.01107
1.00541
0.998836
2.35534
3.09894
3.18029
3.19758
3.19177
3.18148
3.18553
3.18659
3.18063
3.17367
3.16938
3.1699
3.17115
3.17256
3.17616
3.18263
3.19301
3.20835
3.22897
3.25698
3.2884
3.3209
3.35152
3.38517
3.4144
3.44493
3.47487
3.5084
3.54173
3.57688
3.61035
3.64684
3.68677
3.73484
3.79247
3.86417
3.93442
3.98454
4.01463
4.03014
4.03691
1
1
1
1
1
1
1
1
1
1
1
1
1
1
1
1
1
1
1
1
1
1
1
1
1
1
1
1
1
1
1
1
1.00001
1.00001
1.00002
1.00003
1.00004
1.00005
1.00007
1.00009
1.00012
1.00015
1.00019
1.00022
1.00027
1.00032
1.00038
1.00045
1.00053
1.00062
1.00072
1.00084
1.00098
1.00113
1.00131
1.0015
1.00172
1.00197
1.00225
1.00255
1.00289
1.00326
1.00366
1.00412
1.00462
1.00517
1.00577
1.0064
1.00707
1.00778
1.00853
1.0093
1.01012
1.01068
1.01101
1.01114
1.0056
1.28004
2.69423
3.15908
3.16013
3.17615
3.16682
3.16139
3.15843
3.15969
3.15881
3.15444
3.15112
3.15239
3.15327
3.15495
3.15988
3.16727
3.178
3.19271
3.2136
3.24103
3.27285
3.30664
3.3384
3.37289
3.40268
3.43426
3.46522
3.50008
3.53473
3.57137
3.60563
3.64275
3.68263
3.73074
3.78831
3.86001
3.92949
3.97923
4.00852
4.0253
4.0321
1
1
1
1
1
1
1
1
1
1
1
1
1
1
1
1
1
1
1
1
1
1
1
1
1
1
1
1
1
1
1
1
1.00001
1.00001
1.00002
1.00002
1.00003
1.00005
1.00006
1.00008
1.00011
1.00014
1.00017
1.0002
1.00024
1.00029
1.00035
1.00041
1.00049
1.00058
1.00068
1.00079
1.00093
1.00108
1.00125
1.00144
1.00166
1.00191
1.00219
1.0025
1.00286
1.00325
1.00368
1.00415
1.00468
1.00526
1.00591
1.0066
1.00736
1.00817
1.00904
1.0099
1.01078
1.01182
1.01292
1.01302
1.00102
1.74504
2.93885
3.12979
3.12409
3.13584
3.13563
3.13874
3.13481
3.13542
3.13585
3.13104
3.13041
3.13555
3.13713
3.13865
3.14163
3.15059
3.162
3.17756
3.19843
3.22502
3.25709
3.29164
3.32497
3.3604
3.39059
3.42248
3.45414
3.48991
3.52582
3.56364
3.59925
3.63708
3.6781
3.72685
3.78521
3.85702
3.92557
3.9744
4.0026
4.01967
4.02543
1
1
1
1
1
1
1
1
1
1
1
1
1
1
1
1
1
1
1
1
1
1
1
1
1
1
1
1
1
1
1
1
1
1.00001
1.00001
1.00002
1.00003
1.00004
1.00005
1.00007
1.00009
1.00012
1.00015
1.00018
1.00021
1.00026
1.00031
1.00037
1.00044
1.00053
1.00062
1.00073
1.00086
1.001
1.00117
1.00136
1.00158
1.00183
1.00211
1.00242
1.00278
1.00318
1.00363
1.00414
1.00469
1.00531
1.00598
1.00673
1.00755
1.00845
1.00942
1.01048
1.01151
1.0127
1.01413
1.01173
1.00074
2.18894
2.99873
3.0887
3.10561
3.10221
3.09952
3.10819
3.11238
3.11157
3.11275
3.11006
3.10955
3.11613
3.12101
3.12247
3.12246
3.13412
3.14603
3.16137
3.18188
3.20793
3.23976
3.27404
3.30889
3.34625
3.37808
3.41064
3.44273
3.47921
3.51609
3.55558
3.59241
3.63174
3.67327
3.72194
3.77986
3.85085
3.918
3.96694
3.99517
4.01422
4.02062
1
1
1
1
1
1
1
1
1
1
1
1
1
1
1
1
1
1
1
1
1
1
1
1
1
1
1
1
1
1
1
1
1
1.00001
1.00001
1.00002
1.00002
1.00003
1.00004
1.00006
1.00008
1.0001
1.00012
1.00015
1.00018
1.00022
1.00027
1.00033
1.00039
1.00047
1.00056
1.00066
1.00078
1.00092
1.00108
1.00126
1.00147
1.00171
1.00199
1.0023
1.00266
1.00306
1.00353
1.00404
1.00463
1.00528
1.00601
1.00678
1.00766
1.00864
1.0097
1.01083
1.01204
1.01336
1.01498
1.00905
1.11794
2.45828
3.05543
3.06521
3.07687
3.07749
3.07535
3.07889
3.08513
3.08818
3.09025
3.0902
3.09003
3.09547
3.10175
3.10542
3.10396
3.11636
3.13076