/*--------------------------------*- C++ -*----------------------------------*\
| =========                 |                                                 |
| \\      /  F ield         | OpenFOAM: The Open Source CFD Toolbox           |
|  \\    /   O peration     | Version:  2.2.x                                 |
|   \\  /    A nd           | Web:      www.OpenFOAM.org                      |
|    \\/     M anipulation  |                                                 |
\*---------------------------------------------------------------------------*/
FoamFile
{
    version     2.0;
    format      ascii;
    class       volScalarField;
    location    "0.45";
    object      Bx;
}
// * * * * * * * * * * * * * * * * * * * * * * * * * * * * * * * * * * * * * //

dimensions      [1 0 -2 0 0 -1 0];

internalField   nonuniform List<scalar> 
14161
(
1
1
1
1
1
1
1
1
1
1
1.00001
1.00001
1.00001
1.00002
1.00002
1.00003
1.00004
1.00006
1.00007
1.00009
1.00012
1.00014
1.00016
1.00017
1.00018
1.00018
1.00016
1.00012
1.00006
0.99996
0.999821
0.999634
0.999392
0.999088
0.998719
0.998277
0.997763
0.997172
0.996507
0.995767
0.99496
0.994087
0.993148
0.992165
0.991136
0.990029
0.988821
0.987511
0.986078
0.984514
0.982834
0.981033
0.979092
0.977014
0.974812
0.972488
0.970048
0.967487
0.964696
0.959225
0.947963
0.935385
0.931
0.937782
0.951634
0.972102
0.999556
1.03135
1.06457
1.09635
1.12537
1.15178
1.17578
1.19769
1.21739
1.23593
1.25381
1.27045
1.28547
1.30048
1.31626
1.33239
1.34741
1.35926
1.36681
1.3704
1.36809
1.35768
1.33474
1.29432
1.23223
1.15349
1.06719
0.984243
0.910849
0.846209
0.788503
0.737266
0.691156
0.649504
0.611454
0.575797
0.542136
0.510559
0.480636
0.451667
0.423415
0.395769
0.368322
0.34064
0.312324
0.28286
0.251824
0.218754
0.182742
0.144156
0.099675
0.0618304
0.0180509
1
1
1
1
1
1
1
1
1
1
1.00001
1.00001
1.00001
1.00002
1.00002
1.00003
1.00004
1.00006
1.00007
1.00009
1.00012
1.00014
1.00016
1.00017
1.00018
1.00018
1.00016
1.00012
1.00006
0.999964
0.999827
0.999641
0.9994
0.999098
0.99873
0.99829
0.997779
0.99719
0.996528
0.99579
0.994987
0.994111
0.993179
0.992197
0.991167
0.990058
0.988853
0.987544
0.986107
0.984546
0.982862
0.98104
0.979083
0.977003
0.974785
0.972443
0.969973
0.967506
0.963794
0.959223
0.949316
0.938279
0.935008
0.943524
0.963546
0.987696
1.0185
1.05232
1.08656
1.11802
1.146
1.17081
1.19299
1.21265
1.23065
1.2478
1.2646
1.28027
1.29558
1.31099
1.32593
1.34052
1.35117
1.35671
1.36038
1.35826
1.34899
1.33028
1.29809
1.24855
1.17949
1.09871
1.02009
0.950917
0.887851
0.830393
0.778416
0.730996
0.687217
0.646718
0.608828
0.572962
0.539086
0.507128
0.47657
0.447019
0.418258
0.390083
0.362025
0.333678
0.304641
0.274388
0.242434
0.208388
0.171217
0.132998
0.091824
0.0591194
0.0207259
1
1
1
1
1
1
1
1
1
1
1.00001
1.00001
1.00001
1.00002
1.00002
1.00003
1.00004
1.00006
1.00007
1.00009
1.00012
1.00014
1.00016
1.00018
1.00018
1.00018
1.00017
1.00013
1.00007
0.999975
0.99984
0.999658
0.99942
0.999123
0.998759
0.998326
0.997818
0.997237
0.99658
0.995851
0.995051
0.994183
0.993262
0.992285
0.991255
0.990149
0.988952
0.987637
0.986207
0.984657
0.982983
0.981162
0.979204
0.977132
0.974911
0.97255
0.969982
0.967379
0.963338
0.960535
0.951712
0.943415
0.943277
0.949507
0.974678
1.00367
1.03856
1.07532
1.11025
1.1412
1.1692
1.19422
1.21672
1.23613
1.25432
1.27141
1.28707
1.30073
1.31516
1.32702
1.33692
1.34394
1.34731
1.34977
1.34488
1.33179
1.30819
1.26892
1.2124
1.14149
1.06493
0.992341
0.931796
0.87921
0.831071
0.78637
0.744258
0.703759
0.665139
0.628414
0.592755
0.558305
0.525566
0.494471
0.464368
0.434973
0.406264
0.378016
0.349784
0.321223
0.291977
0.261302
0.228812
0.194924
0.159341
0.124011
0.0861287
0.0560694
0.0204776
1
1
1
1
1
1
1
1
1
1
1.00001
1.00001
1.00001
1.00002
1.00002
1.00003
1.00004
1.00006
1.00007
1.00009
1.00012
1.00014
1.00016
1.00018
1.00019
1.00019
1.00017
1.00014
1.00008
0.999993
0.999863
0.999686
0.999455
0.999166
0.99881
0.998387
0.997887
0.997319
0.996673
0.995958
0.995162
0.994307
0.9934
0.992432
0.991401
0.990312
0.989126
0.987817
0.986402
0.984865
0.98319
0.981371
0.979426
0.977328
0.975056
0.97267
0.970017
0.967485
0.963703
0.961863
0.954721
0.95093
0.955649
0.964718
0.994251
1.02892
1.06782
1.10921
1.14685
1.17918
1.20746
1.23193
1.25227
1.26849
1.2834
1.29634
1.30719
1.31655
1.32512
1.33162
1.33547
1.33623
1.33372
1.32306
1.3033
1.27138
1.22375
1.15949
1.08347
1.0079
0.948319
0.896578
0.854136
0.813389
0.773813
0.736373
0.70078
0.666209
0.632649
0.599907
0.56741
0.535887
0.505795
0.476504
0.447506
0.418879
0.390644
0.362469
0.333961
0.305032
0.275546
0.245447
0.214292
0.182151
0.148862
0.117035
0.0824887
0.0546685
0.0220562
1
1
1
1
1
1
1
1
1
1
1.00001
1.00001
1.00001
1.00002
1.00002
1.00003
1.00004
1.00006
1.00008
1.0001
1.00012
1.00014
1.00017
1.00019
1.0002
1.0002
1.00019
1.00016
1.0001
1.00002
0.999897
0.999728
0.999508
0.999229
0.998888
0.998477
0.997996
0.997441
0.996815
0.996115
0.995339
0.994506
0.993608
0.992651
0.991642
0.990576
0.989402
0.988109
0.986718
0.985193
0.983516
0.981709
0.979762
0.97764
0.97534
0.972927
0.970175
0.967493
0.964736
0.963512
0.959976
0.959171
0.970893
0.987455
1.0225
1.06498
1.10661
1.14994
1.18836
1.22177
1.25082
1.27337
1.28916
1.30102
1.31074
1.31834
1.32197
1.32529
1.32774
1.32869
1.32573
1.31605
1.29791
1.26905
1.22646
1.1664
1.08831
1.00376
0.934827
0.884099
0.842468
0.810201
0.781981
0.752149
0.721176
0.690347
0.659847
0.629304
0.599242
0.569251
0.539184
0.510285
0.482339
0.454464
0.426541
0.399031
0.371787
0.34433
0.316601
0.288551
0.260023
0.231095
0.201329
0.171157
0.140106
0.111629
0.0803376
0.0544594
0.0245787
1
1
1
1
1
1
1
1
1
1
1.00001
1.00001
1.00001
1.00002
1.00002
1.00003
1.00004
1.00006
1.00008
1.0001
1.00012
1.00015
1.00017
1.00019
1.00021
1.00021
1.0002
1.00018
1.00013
1.00006
0.999944
0.999787
0.999581
0.999318
0.998995
0.998604
0.998146
0.997614
0.997013
0.996335
0.995595
0.994786
0.993909
0.992975
0.991997
0.990956
0.989799
0.988535
0.987167
0.985652
0.983995
0.982194
0.980238
0.978084
0.975739
0.9733
0.97068
0.968239
0.96707
0.966768
0.970552
0.976544
0.992789
1.02169
1.06271
1.11145
1.15864
1.2048
1.24072
1.26887
1.29141
1.30658
1.31719
1.32334
1.32708
1.32834
1.32797
1.32638
1.32177
1.31202
1.29336
1.26578
1.22562
1.16895
1.09479
1.00846
0.930779
0.870345
0.824765
0.789485
0.761937
0.741259
0.720225
0.697624
0.672786
0.647557
0.621196
0.594238
0.567429
0.540202
0.512948
0.486729
0.460615
0.433939
0.40717
0.380766
0.354377
0.327751
0.300857
0.273628
0.246099
0.218354
0.190165
0.162169
0.133377
0.107773
0.0796273
0.0556056
0.0283857
1
1
1
1
1
1
1
1
1
1
1.00001
1.00001
1.00001
1.00002
1.00002
1.00003
1.00004
1.00006
1.00008
1.0001
1.00012
1.00015
1.00018
1.0002
1.00022
1.00023
1.00022
1.00021
1.00017
1.00011
1.00001
0.999865
0.999677
0.999436
0.999135
0.998772
0.998342
0.997844
0.997274
0.996632
0.995928
0.995154
0.994315
0.99342
0.992468
0.991457
0.990347
0.989123
0.987772
0.986276
0.984657
0.982872
0.98089
0.9787
0.976333
0.973698
0.971011
0.968276
0.967072
0.971415
0.983923
0.9988
1.02283
1.06324
1.11253
1.16474
1.21446
1.25716
1.28652
1.31021
1.32598
1.33431
1.33886
1.33871
1.3386
1.33415
1.32853
1.31543
1.29345
1.26373
1.22406
1.17035
1.09963
1.01418
0.927041
0.859472
0.808337
0.769334
0.739442
0.716061
0.699306
0.683726
0.667895
0.649574
0.62922
0.607882
0.584734
0.560889
0.536613
0.511628
0.486984
0.462998
0.438296
0.412991
0.387666
0.362579
0.337285
0.311658
0.285779
0.259622
0.23325
0.206921
0.1805
0.154914
0.128331
0.105208
0.0799081
0.0580315
0.0334871
1
1
1
1
1
1
1
1
1
1
1.00001
1.00001
1.00001
1.00002
1.00002
1.00003
1.00005
1.00006
1.00008
1.0001
1.00013
1.00015
1.00018
1.00021
1.00023
1.00025
1.00025
1.00024
1.00022
1.00017
1.00008
0.999963
0.999797
0.999583
0.999312
0.998983
0.99859
0.998131
0.997606
0.997012
0.996352
0.995623
0.994837
0.993994
0.993083
0.992115
0.991066
0.989887
0.98857
0.98712
0.985537
0.983743
0.981742
0.979493
0.977011
0.974341
0.971518
0.968534
0.966711
0.971108
0.987677
1.02149
1.06378
1.12027
1.18013
1.22671
1.26991
1.29926
1.31766
1.33372
1.34075
1.34434
1.34611
1.34458
1.33819
1.32124
1.29758
1.2672
1.2237
1.16821
1.09819
1.01452
0.923272
0.849787
0.794628
0.751427
0.719095
0.694218
0.674538
0.660628
0.648458
0.636396
0.62338
0.607887
0.590578
0.571837
0.551285
0.530115
0.508045
0.485374
0.46312
0.440767
0.417286
0.393439
0.369569
0.345695
0.321343
0.296704
0.271836
0.246737
0.221684
0.196884
0.172136
0.148786
0.124417
0.103544
0.0810944
0.0615114
0.0395947
1
1
1
1
1
1
1
1
1
1
1.00001
1.00001
1.00001
1.00002
1.00002
1.00003
1.00005
1.00006
1.00008
1.0001
1.00013
1.00016
1.00019
1.00022
1.00025
1.00027
1.00029
1.00029
1.00028
1.00024
1.00018
1.00008
0.999943
0.999761
0.999528
0.99924
0.998894
0.998485
0.998014
0.99748
0.99688
0.996214
0.99549
0.99471
0.99386
0.992962
0.99198
0.990863
0.989619
0.988241
0.986701
0.984951
0.982978
0.980736
0.978165
0.975265
0.971826
0.968392
0.966
0.966904
0.984636
1.0407
1.11928
1.19748
1.25854
1.3045
1.33417
1.34559
1.34892
1.35195
1.35109
1.35076
1.34099
1.32576
1.29832
1.2664
1.22144
1.16501
1.09241
1.0071
0.91638
0.842224
0.782621
0.736095
0.7014
0.674675
0.654171
0.637731
0.626193
0.616355
0.606798
0.596989
0.585571
0.571919
0.55663
0.539655
0.52121
0.502017
0.481803
0.461338
0.440982
0.41981
0.397481
0.375013
0.352457
0.329668
0.306326
0.282746
0.258973
0.235134
0.211467
0.188307
0.16524
0.143956
0.121843
0.103015
0.0831493
0.0655892
0.046182
1
1
1
1
1
1
1
1
1
1
1.00001
1.00001
1.00001
1.00002
1.00003
1.00003
1.00005
1.00006
1.00008
1.00011
1.00013
1.00017
1.0002
1.00024
1.00027
1.00031
1.00033
1.00034
1.00034
1.00033
1.00029
1.00022
1.00012
0.999973
0.999784
0.999547
0.999256
0.998911
0.998505
0.998042
0.997516
0.996934
0.996289
0.995587
0.994818
0.994016
0.993128
0.992108
0.990986
0.989717
0.988282
0.986651
0.984819
0.982679
0.9802
0.977292
0.973949
0.971288
0.97102
0.974579
1.00913
1.05812
1.16666
1.2433
1.31145
1.3517
1.36511
1.37138
1.3695
1.36603
1.34924
1.33032
1.30261
1.26551
1.21328
1.1513
1.07746
0.991542
0.901909
0.829826
0.771264
0.723559
0.686923
0.658938
0.637213
0.620305
0.606385
0.596582
0.588331
0.58039
0.572652
0.56407
0.553596
0.541052
0.526997
0.511363
0.494692
0.47718
0.458754
0.440106
0.420907
0.400497
0.379382
0.358259
0.336858
0.315043
0.292689
0.270168
0.247585
0.225049
0.202782
0.181189
0.159754
0.140277
0.120335
0.103375
0.0858965
0.0701977
0.0530447
1
1
1
1
1
1
1
1
1
1
1.00001
1.00001
1.00001
1.00002
1.00003
1.00004
1.00005
1.00007
1.00009
1.00011
1.00014
1.00017
1.00021
1.00025
1.0003
1.00034
1.00038
1.00041
1.00043
1.00043
1.00042
1.00038
1.00032
1.00022
1.00009
0.999907
0.999683
0.99941
0.999086
0.998707
0.998274
0.997787
0.997243
0.996646
0.995985
0.995304
0.994545
0.993671
0.992713
0.991616
0.990375
0.988982
0.987393
0.985571
0.983546
0.981125
0.979036
0.978208
0.980225
0.99153
1.02616
1.08814
1.17133
1.24959
1.31062
1.34151
1.36308
1.36712
1.35559
1.33517
1.29897
1.25438
1.20125
1.13076
1.04968
0.960547
0.882015
0.814604
0.758622
0.71215
0.675572
0.646889
0.624735
0.60708
0.593251
0.581358
0.572686
0.565324
0.558373
0.551503
0.544324
0.536214
0.526266
0.514576
0.501411
0.486949
0.471678
0.455502
0.438608
0.421194
0.402677
0.383124
0.363169
0.343156
0.32266
0.301714
0.280364
0.258964
0.237568
0.216329
0.195448
0.175398
0.155605
0.137821
0.11992
0.104561
0.0891606
0.075076
0.0599934
1
1
1
1
1
1
1
1
1
1
1.00001
1.00001
1.00001
1.00002
1.00003
1.00004
1.00005
1.00007
1.00009
1.00012
1.00015
1.00018
1.00023
1.00027
1.00032
1.00038
1.00043
1.00048
1.00052
1.00055
1.00057
1.00057
1.00055
1.0005
1.00043
1.00032
1.00017
0.999984
0.999753
0.999475
0.999151
0.998778
0.998357
0.997889
0.997362
0.996828
0.99624
0.995564
0.994819
0.993964
0.993014
0.991947
0.990726
0.989431
0.98794
0.986523
0.985796
0.986241
0.989446
1.00589
1.03449
1.09196
1.14395
1.19816
1.23671
1.27381
1.30492
1.30708
1.28316
1.23966
1.17827
1.10057
1.01531
0.930129
0.859806
0.799742
0.74758
0.704917
0.670133
0.641915
0.618813
0.600137
0.585218
0.573335
0.562958
0.554856
0.548184
0.541635
0.535394
0.528677
0.521504
0.513124
0.503123
0.491886
0.479334
0.46588
0.451594
0.436462
0.420656
0.404051
0.386283
0.367765
0.348996
0.329959
0.310305
0.290273
0.269943
0.249618
0.229357
0.209327
0.18972
0.171041
0.152748
0.136476
0.120446
0.106532
0.0929981
0.0803894
0.0670784
1
1
1
1
1
1
1
1
1
1
1.00001
1.00001
1.00001
1.00002
1.00003
1.00004
1.00005
1.00007
1.00009
1.00012
1.00015
1.0002
1.00024
1.0003
1.00036
1.00042
1.00049
1.00055
1.00062
1.00068
1.00074
1.00078
1.00081
1.00083
1.00082
1.00078
1.00072
1.00063
1.00051
1.00035
1.00015
0.999907
0.999628
0.999316
0.998947
0.998582
0.998208
0.997765
0.997285
0.996731
0.99614
0.995458
0.994772
0.994051
0.993372
0.993299
0.993742
0.996421
1.00349
1.02672
1.06256
1.09855
1.13173
1.1564
1.17123
1.19229
1.19968
1.19504
1.15321
1.07722
0.988391
0.909846
0.843001
0.787704
0.74078
0.702689
0.670303
0.643153
0.620389
0.60138
0.586059
0.572922
0.561994
0.552365
0.544138
0.537634
0.531041
0.524809
0.518154
0.511012
0.503124
0.494286
0.484012
0.473019
0.460867
0.448136
0.434475
0.420098
0.404959
0.388879
0.371823
0.354274
0.336467
0.318195
0.29934
0.280199
0.260861
0.241595
0.222471
0.203669
0.185354
0.168024
0.1512
0.136322
0.121971
0.109295
0.0973436
0.0859975
0.0742838
1
1
1
1
1
1
1
1
1
1
1.00001
1.00001
1.00001
1.00002
1.00003
1.00004
1.00005
1.00007
1.0001
1.00013
1.00016
1.00021
1.00026
1.00032
1.00039
1.00047
1.00055
1.00064
1.00073
1.00083
1.00092
1.00102
1.00111
1.00118
1.00125
1.0013
1.00134
1.00135
1.00134
1.00131
1.00125
1.00116
1.00104
1.0009
1.00071
1.00055
1.00041
1.00023
1.00004
0.999843
0.999604
0.999417
0.9992
0.999013
0.999072
0.999457
1.0007
1.00437
1.01332
1.04163
1.07668
1.10301
1.11333
1.11719
1.11329
1.10582
1.084
1.0386
0.963593
0.892428
0.834473
0.782643
0.740773
0.705492
0.675948
0.650246
0.629087
0.611027
0.59597
0.582144
0.570739
0.559807
0.550097
0.541227
0.533741
0.526846
0.520085
0.513299
0.505961
0.498036
0.489277
0.479742
0.469004
0.458026
0.445986
0.43364
0.420313
0.406535
0.391862
0.376328
0.360082
0.343501
0.326512
0.308918
0.290813
0.272478
0.254021
0.235668
0.217517
0.199772
0.182586
0.166429
0.15092
0.137267
0.124411
0.112879
0.102356
0.0921788
0.0818405
1
1
1
1
1
1
1
1
1
1
1.00001
1.00001
1.00001
1.00002
1.00003
1.00004
1.00005
1.00007
1.0001
1.00013
1.00017
1.00022
1.00028
1.00035
1.00043
1.00052
1.00062
1.00073
1.00086
1.00099
1.00113
1.00127
1.00142
1.00157
1.00172
1.00186
1.002
1.00213
1.00225
1.00236
1.00246
1.00254
1.00259
1.00264
1.00263
1.00268
1.00278
1.00286
1.00299
1.00311
1.00328
1.00342
1.00365
1.0039
1.00431
1.00516
1.00705
1.01136
1.02215
1.04656
1.07633
1.09823
1.0947
1.09057
1.07184
1.03229
0.969668
0.894437
0.831368
0.784585
0.745447
0.713164
0.685242
0.66189
0.642559
0.625663
0.610686
0.597191
0.585785
0.574538
0.564805
0.554993
0.545513
0.536774
0.529064
0.521412
0.513995
0.506314
0.498127
0.489376
0.479878
0.469707
0.458312
0.446947
0.434536
0.422088
0.408651
0.395053
0.380478
0.365373
0.349795
0.333936
0.3176
0.300693
0.283394
0.265928
0.248422
0.231045
0.213939
0.197274
0.181215
0.166217
0.151974
0.139468
0.127941
0.117413
0.108065
0.0988543
0.0897242
1
1
1
1
1
1
1
1
1
1
1.00001
1.00001
1.00001
1.00002
1.00003
1.00004
1.00006
1.00008
1.0001
1.00014
1.00018
1.00024
1.0003
1.00038
1.00047
1.00058
1.0007
1.00083
1.00099
1.00116
1.00134
1.00154
1.00176
1.00198
1.00222
1.00246
1.00271
1.00297
1.00322
1.00347
1.00373
1.00397
1.00421
1.00444
1.00463
1.00489
1.00522
1.00556
1.00596
1.00638
1.00686
1.00737
1.00795
1.0085
1.00918
1.01016
1.01262
1.01665
1.03496
1.05092
1.08807
1.09213
1.08381
1.06454
1.02268
0.957683
0.874288
0.805494
0.760121
0.726002
0.699745
0.67799
0.659465
0.643146
0.628987
0.616663
0.605595
0.594702
0.585142
0.574948
0.565762
0.55632
0.547026
0.53798
0.529206
0.520271
0.511428
0.502348
0.493029
0.483386
0.472972
0.462098
0.450356
0.438806
0.426275
0.413876
0.400393
0.386958
0.372483
0.357885
0.342841
0.327504
0.311618
0.295265
0.278614
0.261861
0.245115
0.228546
0.212319
0.196586
0.181521
0.167516
0.154354
0.14282
0.132406
0.122737
0.114391
0.106049
0.0979997
1
1
1
1
1
1
1
1
1
1
1.00001
1.00001
1.00001
1.00002
1.00003
1.00004
1.00006
1.00008
1.00011
1.00015
1.00019
1.00025
1.00032
1.00041
1.00051
1.00064
1.00078
1.00094
1.00113
1.00134
1.00157
1.00183
1.00211
1.00241
1.00273
1.00308
1.00344
1.00381
1.00421
1.0046
1.00501
1.00542
1.00584
1.00625
1.00664
1.0071
1.00764
1.00822
1.00888
1.00959
1.01038
1.01122
1.01218
1.01312
1.0144
1.01637
1.02102
1.02939
1.0576
1.08218
1.10277
1.09188
1.07223
1.03283
0.967081
0.880852
0.805004
0.754948
0.720231
0.695928
0.677271
0.66211
0.648999
0.637032
0.626251
0.61614
0.607086
0.597651
0.589327
0.579802
0.570794
0.561365
0.551945
0.54253
0.532988
0.523011
0.512992
0.502655
0.492052
0.481068
0.469398
0.457683
0.445314
0.433293
0.420323
0.407614
0.393822
0.380318
0.365841
0.351642
0.336902
0.32199
0.30656
0.290833
0.27491
0.258946
0.243025
0.227312
0.21197
0.197176
0.183117
0.170082
0.157912
0.14726
0.137826
0.128923
0.121405
0.113796
0.106668
1
1
1
1
1
1
1
1
1
1
1.00001
1.00001
1.00001
1.00002
1.00003
1.00004
1.00006
1.00008
1.00012
1.00015
1.0002
1.00027
1.00035
1.00044
1.00056
1.0007
1.00086
1.00105
1.00127
1.00152
1.0018
1.00211
1.00246
1.00284
1.00325
1.00369
1.00416
1.00466
1.00518
1.00573
1.00629
1.00686
1.00744
1.00803
1.0086
1.00925
1.01001
1.01081
1.0117
1.01267
1.01375
1.0149
1.01622
1.01749
1.01897
1.02151
1.02686
1.04094
1.06631
1.10511
1.0995
1.07295
1.03962
0.974083
0.893924
0.813711
0.761898
0.726606
0.701679
0.683074
0.668807
0.657065
0.64702
0.637682
0.629043
0.620622
0.612954
0.604556
0.59672
0.587644
0.578542
0.568908
0.559306
0.54936
0.539066
0.528261
0.517179
0.50578
0.494096
0.482135
0.469676
0.457219
0.444255
0.431622
0.418113
0.405101
0.391058
0.377531
0.363048
0.349084
0.334392
0.319677
0.304478
0.289172
0.273759
0.258389
0.243129
0.228141
0.213563
0.199563
0.186317
0.174064
0.162655
0.152652
0.143922
0.135633
0.1288
0.121855
0.11559
1
1
1
1
1
1
1
1
1
1
1.00001
1.00001
1.00002
1.00002
1.00003
1.00005
1.00006
1.00009
1.00012
1.00016
1.00022
1.00029
1.00037
1.00048
1.00061
1.00076
1.00094
1.00116
1.00141
1.0017
1.00203
1.00239
1.00281
1.00326
1.00376
1.00429
1.00487
1.00549
1.00614
1.00682
1.00753
1.00826
1.009
1.00976
1.0105
1.01134
1.01228
1.01328
1.01436
1.0155
1.01672
1.01803
1.01936
1.02078
1.02236
1.0257
1.03124
1.05552
1.07666
1.10365
1.08636
1.05224
0.994186
0.910758
0.830942
0.772608
0.735654
0.709381
0.690871
0.676732
0.665596
0.656197
0.648195
0.640809
0.633932
0.626869
0.620246
0.613012
0.605827
0.597581
0.588953
0.579269
0.56927
0.558782
0.547868
0.536268
0.524221
0.511624
0.498595
0.485187
0.471436
0.457717
0.443746
0.430309
0.416428
0.403122
0.388936
0.375395
0.36097
0.347225
0.332634
0.318256
0.303414
0.288638
0.27377
0.259021
0.244424
0.230106
0.216229
0.202944
0.190408
0.178841
0.168095
0.158676
0.150555
0.142892
0.13673
0.13045
0.124948
1
1
1
1
1
1
1
1
1
1
1.00001
1.00001
1.00002
1.00002
1.00003
1.00005
1.00007
1.00009
1.00013
1.00017
1.00023
1.0003
1.0004
1.00051
1.00065
1.00082
1.00103
1.00127
1.00155
1.00187
1.00225
1.00267
1.00314
1.00367
1.00424
1.00487
1.00555
1.00627
1.00705
1.00786
1.0087
1.00958
1.01048
1.0114
1.01232
1.01333
1.01445
1.01565
1.01695
1.01833
1.01979
1.02142
1.02318
1.02532
1.02839
1.0334
1.04444
1.06462
1.10092
1.08531
1.0417
0.99979
0.91959
0.846773
0.788438
0.750845
0.723644
0.704178
0.689504
0.678066
0.668726
0.660618
0.653517
0.646826
0.640638
0.634287
0.628079
0.621628
0.614942
0.607393
0.599468
0.59037
0.580623
0.569913
0.558495
0.546345
0.533553
0.520016
0.505975
0.491302
0.476585
0.461787
0.447107
0.432822
0.418437
0.404499
0.390096
0.37641
0.361986
0.348296
0.333665
0.319461
0.304792
0.290341
0.275843
0.261552
0.247455
0.233661
0.220326
0.207591
0.19562
0.184585
0.174387
0.165433
0.15775
0.150596
0.144966
0.139258
0.134456
1
1
1
1
1
1
1
1
1
1
1.00001
1.00001
1.00002
1.00002
1.00003
1.00005
1.00007
1.0001
1.00013
1.00018
1.00024
1.00032
1.00042
1.00054
1.0007
1.00088
1.00111
1.00137
1.00168
1.00204
1.00246
1.00293
1.00346
1.00405
1.0047
1.00541
1.00618
1.00701
1.00789
1.00882
1.00979
1.0108
1.01185
1.01292
1.014
1.01518
1.01647
1.01786
1.01935
1.02095
1.02263
1.02452
1.02645
1.0287
1.0325
1.03877
1.05817
1.08217
1.08722
1.05775
1.01494
0.94379
0.867598
0.809041
0.767786
0.74036
0.719683
0.704599
0.692701
0.683128
0.675079
0.668004
0.661638
0.655507
0.649574
0.643507
0.637323
0.631015
0.624451
0.617193
0.609546
0.600958
0.591609
0.581288
0.569926
0.557389
0.544111
0.529859
0.515033
0.499186
0.483585
0.467526
0.452055
0.436765
0.421982
0.407464
0.392977
0.379012
0.364604
0.350808
0.336199
0.322193
0.307669
0.293473
0.279226
0.265243
0.251446
0.238008
0.225062
0.212753
0.201258
0.190697
0.181042
0.17259
0.165335
0.158715
0.153584
0.148491
0.144351
1
1
1
1
1
1
1
1
1
1
1.00001
1.00001
1.00002
1.00002
1.00004
1.00005
1.00007
1.0001
1.00014
1.00019
1.00025
1.00034
1.00044
1.00058
1.00074
1.00094
1.00119
1.00147
1.00181
1.00221
1.00266
1.00317
1.00376
1.0044
1.00512
1.0059
1.00675
1.00767
1.00864
1.00967
1.01076
1.01189
1.01306
1.01426
1.01548
1.01681
1.01827
1.01985
1.02155
1.0234
1.02539
1.02765
1.02998
1.03299
1.03719
1.04827
1.0624
1.09284
1.07149
1.01621
0.963251
0.884207
0.828129
0.78368
0.756682
0.735295
0.720051
0.70763
0.697784
0.689369
0.682166
0.675661
0.669812
0.664128
0.65854
0.652746
0.646766
0.64052
0.633891
0.626822
0.619399
0.611372
0.602426
0.592585
0.581551
0.569254
0.555744
0.54096
0.525578
0.50886
0.492436
0.475138
0.458891
0.442452
0.427215
0.411788
0.397125
0.382608
0.368112
0.354028
0.339448
0.325538
0.311145
0.29721
0.283234
0.269578
0.256123
0.243068
0.230561
0.218727
0.207729
0.197655
0.188491
0.180448
0.173494
0.167274
0.162496
0.157922
0.154368
1
1
1
1
1
1
1
1
1
1
1.00001
1.00001
1.00002
1.00003
1.00004
1.00005
1.00007
1.0001
1.00014
1.0002
1.00027
1.00036
1.00047
1.00061
1.00079
1.001
1.00126
1.00157
1.00193
1.00235
1.00284
1.0034
1.00402
1.00472
1.00549
1.00633
1.00725
1.00824
1.00929
1.0104
1.01157
1.0128
1.01408
1.01539
1.01673
1.01818
1.01978
1.02151
1.0234
1.02543
1.02774
1.03019
1.03313
1.03697
1.04323
1.05704
1.0794
1.06926
1.02862
0.979614
0.907738
0.848197
0.801403
0.77294
0.751057
0.735533
0.722878
0.712687
0.703973
0.696393
0.689612
0.683371
0.677646
0.672236
0.666826
0.661273
0.65551
0.649472
0.643046
0.636198
0.629019
0.621559
0.612879
0.603362
0.592633
0.580637
0.567408
0.552779
0.537074
0.520086
0.502754
0.484593
0.467575
0.45008
0.4344
0.418028
0.403173
0.387843
0.373258
0.358711
0.344157
0.330198
0.315892
0.302149
0.288376
0.274967
0.261775
0.248996
0.236802
0.225309
0.214694
0.205021
0.196283
0.188592
0.181961
0.176146
0.17167
0.167636
0.164676
1
1
1
1
1
1
1
1
1
1.00001
1.00001
1.00001
1.00002
1.00003
1.00004
1.00005
1.00008
1.00011
1.00015
1.00021
1.00028
1.00037
1.00049
1.00064
1.00083
1.00105
1.00133
1.00165
1.00204
1.00249
1.003
1.00359
1.00425
1.00499
1.00581
1.0067
1.00767
1.0087
1.00981
1.01099
1.01222
1.01351
1.01486
1.01625
1.01767
1.01921
1.02091
1.02276
1.02482
1.02703
1.02966
1.0323
1.03564
1.03982
1.05026
1.06481
1.06496
1.03947
0.985917
0.925574
0.861948
0.819968
0.789266
0.768208
0.751828
0.739353
0.728928
0.72011
0.712388
0.705483
0.699046
0.692937
0.687123
0.681702
0.67639
0.670884
0.66521
0.659385
0.653277
0.646619
0.639394
0.632418
0.623947
0.614653
0.60416
0.592419
0.579416
0.565062
0.549385
0.532288
0.514249
0.495519
0.477616
0.459225
0.442928
0.425694
0.410503
0.394279
0.379587
0.364387
0.349879
0.335707
0.321473
0.307854
0.294222
0.28101
0.26804
0.255551
0.243719
0.232609
0.222414
0.213153
0.204777
0.197377
0.190975
0.185451
0.181139
0.177604
0.175173
1
1
1
1
1
1
1
1
1
1.00001
1.00001
1.00001
1.00002
1.00003
1.00004
1.00006
1.00008
1.00011
1.00016
1.00021
1.00029
1.00039
1.00051
1.00067
1.00086
1.0011
1.00139
1.00173
1.00214
1.00261
1.00315
1.00376
1.00445
1.00522
1.00607
1.007
1.008
1.00907
1.01022
1.01143
1.0127
1.01403
1.01541
1.01683
1.01828
1.01983
1.02154
1.02337
1.02534
1.02753
1.02976
1.03213
1.03484
1.04042
1.04708
1.06342
1.04602
0.992726
0.944525
0.879469
0.838237
0.805468
0.784144
0.767228
0.754552
0.743956
0.735266
0.72764
0.7208
0.714522
0.708626
0.702759
0.696936
0.691301
0.686042
0.680606
0.675043
0.6694
0.663598
0.657266
0.65003
0.643451
0.635299
0.626185
0.616002
0.604538
0.591818
0.577698
0.562193
0.545215
0.526911
0.507591
0.488903
0.469665
0.452562
0.434649
0.4189
0.402003
0.387126
0.371294
0.356917
0.34237
0.328281
0.314688
0.301129
0.288031
0.27522
0.262946
0.251362
0.240502
0.230574
0.221591
0.213477
0.206308
0.20012
0.194869
0.190806
0.187803
0.185875
1
1
1
1
1
1
1
1
1
1.00001
1.00001
1.00001
1.00002
1.00003
1.00004
1.00006
1.00008
1.00012
1.00016
1.00022
1.0003
1.0004
1.00053
1.0007
1.0009
1.00115
1.00145
1.0018
1.00222
1.00271
1.00327
1.00391
1.00462
1.00541
1.00628
1.00723
1.00825
1.00934
1.0105
1.01172
1.013
1.01432
1.01571
1.01712
1.01859
1.02015
1.02193
1.02387
1.02601
1.02848
1.03099
1.03375
1.03721
1.043
1.05367
1.04153
1.00271
0.954125
0.89714
0.853674
0.820325
0.79885
0.781991
0.769297
0.758756
0.749937
0.742153
0.735348
0.729022
0.722975
0.717322
0.711693
0.706043
0.700297
0.694988
0.689664
0.684183
0.678648
0.673086
0.667174
0.660047
0.653812
0.64624
0.637443
0.627662
0.61657
0.604217
0.59038
0.575178
0.558397
0.540333
0.52073
0.50134
0.481383
0.463321
0.444861
0.428311
0.410951
0.395589
0.379315
0.364882
0.349858
0.335908
0.322074
0.308537
0.295495
0.282809
0.270758
0.259477
0.248941
0.239372
0.230691
0.222853
0.215898
0.209881
0.204822
0.200955
0.198375
0.196785
1
1
1
1
1
1
1
1
1
1.00001
1.00001
1.00001
1.00002
1.00003
1.00004
1.00006
1.00009
1.00012
1.00017
1.00023
1.00031
1.00042
1.00055
1.00072
1.00093
1.00119
1.0015
1.00187
1.0023
1.0028
1.00338
1.00403
1.00475
1.00556
1.00644
1.0074
1.00843
1.00952
1.01068
1.01189
1.01315
1.01446
1.0158
1.01716
1.01855
1.02005
1.0217
1.02348
1.02543
1.02757
1.03014
1.03279
1.03759
1.04177
1.03574
1.00796
0.959995
0.913438
0.869237
0.837674
0.815727
0.79889
0.785781
0.774953
0.765902
0.758207
0.751168
0.744812
0.739007
0.733172
0.727544
0.722158
0.716674
0.710748
0.704997
0.699728
0.69425
0.68866
0.683096
0.677458
0.670461
0.664331
0.657352
0.64889
0.639623
0.629005
0.617112
0.60371
0.588844
0.572341
0.554484
0.534911
0.514765
0.494347
0.475055
0.456097
0.438583
0.420818
0.404796
0.388249
0.373548
0.358237
0.344394
0.330294
0.316931
0.303939
0.291412
0.279576
0.268505
0.258113
0.248701
0.240074
0.232337
0.22551
0.219631
0.214781
0.211237
0.209008
0.207793
1
1
1
1
1
1
1
1
1
1.00001
1.00001
1.00001
1.00002
1.00003
1.00004
1.00006
1.00009
1.00012
1.00017
1.00024
1.00032
1.00043
1.00057
1.00075
1.00096
1.00123
1.00155
1.00192
1.00237
1.00288
1.00346
1.00412
1.00486
1.00568
1.00656
1.00752
1.00855
1.00964
1.01079
1.01199
1.01322
1.0145
1.01579
1.01712
1.01845
1.01986
1.02137
1.02293
1.0246
1.02623
1.02771
1.03002
1.02877
1.03372
1.01345
0.968393
0.93001
0.883913
0.854587
0.832574
0.816317
0.803149
0.792217
0.782844
0.774464
0.767324
0.761024
0.754846
0.749183
0.743747
0.737926
0.73258
0.727522
0.721888
0.71561
0.709789
0.704395
0.698656
0.69296
0.687415
0.680636
0.674428
0.668059
0.660066
0.65131
0.641296
0.630003
0.617156
0.602678
0.586566
0.568828
0.549709
0.528994
0.508312
0.48783
0.468353
0.44989
0.431731
0.414992
0.39818
0.383004
0.367492
0.353496
0.339177
0.325908
0.312862
0.300442
0.288726
0.27773
0.267485
0.258297
0.249834
0.242393
0.235767
0.230139
0.225436
0.222112
0.220061
0.219085
1
1
1
1
1
1
1
1
1
1.00001
1.00001
1.00001
1.00002
1.00003
1.00004
1.00006
1.00009
1.00013
1.00018
1.00024
1.00033
1.00044
1.00059
1.00077
1.00099
1.00126
1.00159
1.00197
1.00242
1.00294
1.00354
1.00421
1.00495
1.00577
1.00666
1.00762
1.00864
1.00972
1.01085
1.01203
1.01323
1.01446
1.01571
1.01697
1.01824
1.01957
1.02099
1.02244
1.0241
1.0255
1.02668
1.02606
1.02316
1.01464
0.983243
0.942362
0.900952
0.870873
0.848289
0.832471
0.819509
0.808981
0.799665
0.79131
0.783553
0.776204
0.770121
0.764312
0.758523
0.753614
0.74815
0.742471
0.7376
0.732711
0.726851
0.720529
0.715005
0.709197
0.703177
0.697558
0.690918
0.68449
0.678519
0.670981
0.662578
0.653175
0.642485
0.630375
0.616583
0.601052
0.583733
0.565024
0.544241
0.52308
0.50184
0.481437
0.462185
0.443444
0.426021
0.408889
0.393205
0.377458
0.363228
0.348842
0.33573
0.322688
0.310475
0.298833
0.287939
0.277781
0.268657
0.260165
0.252729
0.246064
0.240573
0.235957
0.233044
0.230972
0.230455
1
1
1
1
1
1
1
1
1
1.00001
1.00001
1.00001
1.00002
1.00003
1.00004
1.00006
1.00009
1.00013
1.00018
1.00025
1.00034
1.00046
1.0006
1.00079
1.00101
1.00129
1.00162
1.00201
1.00247
1.003
1.0036
1.00427
1.00502
1.00584
1.00673
1.00769
1.00871
1.00978
1.01089
1.01205
1.01322
1.01442
1.01562
1.01682
1.01802
1.0193
1.02072
1.02219
1.02384
1.02522
1.02583
1.02513
1.01888
0.988041
0.955512
0.916895
0.886819
0.86469
0.848562
0.8358
0.825617
0.816567
0.808442
0.800908
0.793716
0.786482
0.78004
0.774867
0.768955
0.763799
0.75882
0.753039
0.747653
0.743286
0.73823
0.731994
0.726147
0.720616
0.714343
0.708426
0.701806
0.695093
0.689156
0.681963
0.673783
0.664886
0.654711
0.643273
0.630189
0.615399
0.598657
0.580386
0.560068
0.538505
0.516689
0.495255
0.475433
0.456037
0.438144
0.420574
0.404446
0.388425
0.373894
0.359437
0.346301
0.333126
0.320935
0.309142
0.29817
0.287957
0.278841
0.270411
0.263244
0.256789
0.251693
0.247278
0.244472
0.242339
0.242291
1
1
1
1
1
1
1
1
1
1.00001
1.00001
1.00001
1.00002
1.00003
1.00005
1.00007
1.00009
1.00013
1.00019
1.00026
1.00035
1.00047
1.00062
1.0008
1.00103
1.00132
1.00165
1.00205
1.00251
1.00304
1.00365
1.00433
1.00508
1.0059
1.00679
1.00775
1.00876
1.00983
1.01094
1.01209
1.01327
1.01446
1.01568
1.01691
1.01814
1.01939
1.02065
1.02178
1.02266
1.02263
1.02033
1.01378
0.997346
0.970213
0.932151
0.90189
0.879539
0.863257
0.850373
0.839946
0.830953
0.822952
0.815156
0.808205
0.80184
0.795271
0.788279
0.783264
0.777713
0.771933
0.76756
0.76256
0.75673
0.752524
0.747965
0.742409
0.736312
0.731328
0.725361
0.719388
0.712896
0.706129
0.700133
0.693224
0.685304
0.676695
0.666877
0.655957
0.643549
0.629505
0.613471
0.595687
0.57595
0.554451
0.532346
0.509968
0.489508
0.46941