/*--------------------------------*- C++ -*----------------------------------*\
| =========                 |                                                 |
| \\      /  F ield         | OpenFOAM: The Open Source CFD Toolbox           |
|  \\    /   O peration     | Version:  2.2.x                                 |
|   \\  /    A nd           | Web:      www.OpenFOAM.org                      |
|    \\/     M anipulation  |                                                 |
\*---------------------------------------------------------------------------*/
FoamFile
{
    version     2.0;
    format      ascii;
    class       volScalarField;
    location    "0.45";
    object      T;
}
// * * * * * * * * * * * * * * * * * * * * * * * * * * * * * * * * * * * * * //

dimensions      [0 0 0 1 0 0 0];

internalField   nonuniform List<scalar> 
14161
(
1
1
0.999999
0.999999
0.999998
0.999997
0.999996
0.999994
0.99999
0.999986
0.999979
0.999969
0.999955
0.999936
0.999911
0.999878
0.999836
0.999783
0.999719
0.999643
0.999556
0.999465
0.999381
0.999329
0.99931
0.99932
0.999383
0.999519
0.999758
1.00013
1.00065
1.00135
1.00227
1.00342
1.00481
1.00649
1.00843
1.01067
1.01319
1.01599
1.01905
1.02238
1.02594
1.02965
1.0336
1.03789
1.04241
1.04729
1.05281
1.05883
1.06503
1.07196
1.0795
1.08703
1.09491
1.1031
1.11246
1.12677
1.16425
1.33715
2.05932
2.72288
2.988
3.07241
3.10998
3.08766
3.05713
3.02111
2.98227
2.94055
2.90076
2.86381
2.82832
2.79661
2.76856
2.7419
2.71623
2.69441
2.67562
2.65242
2.62631
2.60091
2.57729
2.55576
2.53676
2.52167
2.51862
2.53643
2.58661
2.66962
2.75927
2.82687
2.90116
2.97008
3.02055
3.06352
3.09962
3.12853
3.14977
3.1658
3.18116
3.19447
3.20385
3.21108
3.21748
3.22053
3.22022
3.21851
3.21375
3.20794
3.20735
3.21244
3.22065
3.23141
3.25049
3.28389
3.32319
3.34841
3.35927
1
1
0.999999
0.999999
0.999998
0.999997
0.999996
0.999994
0.99999
0.999986
0.999979
0.999969
0.999955
0.999936
0.999911
0.999878
0.999836
0.999783
0.999718
0.999642
0.999555
0.999464
0.999379
0.999326
0.999305
0.999314
0.999375
0.999509
0.999745
1.00011
1.00063
1.00133
1.00224
1.00338
1.00477
1.00643
1.00837
1.0106
1.01311
1.0159
1.01895
1.02227
1.0258
1.02952
1.03348
1.03774
1.04223
1.0472
1.05277
1.05863
1.06487
1.07194
1.07947
1.08698
1.09509
1.1033
1.1128
1.12676
1.16655
1.33106
2.04245
2.7109
2.97781
3.06595
3.09629
3.05998
3.0188
2.975
2.92873
2.88251
2.84066
2.80362
2.76963
2.7408
2.71662
2.69382
2.66928
2.64777
2.62769
2.60514
2.58172
2.55918
2.54804
2.54369
2.54195
2.5485
2.57155
2.61705
2.69654
2.79708
2.88307
2.9555
3.01566
3.0546
3.08322
3.11069
3.13364
3.15237
3.16673
3.17903
3.19195
3.2036
3.21178
3.21817
3.22391
3.22642
3.226
3.22425
3.2192
3.2133
3.21254
3.21742
3.22539
3.23592
3.25476
3.28764
3.3255
3.34877
3.35913
1
1
0.999999
0.999999
0.999998
0.999997
0.999996
0.999994
0.99999
0.999986
0.999978
0.999969
0.999955
0.999936
0.999911
0.999877
0.999835
0.999782
0.999717
0.999641
0.999553
0.99946
0.999374
0.999318
0.999293
0.999299
0.999356
0.999486
0.999714
1.00007
1.00058
1.00126
1.00216
1.00328
1.00466
1.0063
1.00822
1.01042
1.01291
1.01567
1.0187
1.02199
1.02548
1.02923
1.03319
1.03734
1.04181
1.04694
1.05248
1.05805
1.0644
1.07153
1.07891
1.08646
1.09479
1.10286
1.1128
1.12719
1.16655
1.31669
2.01617
2.69556
2.9655
3.0717
3.09624
3.04935
3.0059
2.95737
2.90901
2.86256
2.81917
2.77916
2.74311
2.7126
2.68609
2.66148
2.63429
2.60881
2.58377
2.5647
2.54889
2.54124
2.54372
2.54393
2.55796
2.57844
2.62125
2.69096
2.78094
2.87433
2.96566
3.04838
3.09799
3.1214
3.13481
3.14984
3.1642
3.17651
3.18542
3.1935
3.2034
3.21304
3.21983
3.22524
3.22998
3.23165
3.23082
3.22861
3.22301
3.21728
3.21652
3.22112
3.22867
3.23895
3.25716
3.28891
3.32636
3.34794
3.3569
1
1
0.999999
0.999999
0.999998
0.999997
0.999996
0.999994
0.99999
0.999985
0.999978
0.999968
0.999955
0.999936
0.99991
0.999877
0.999834
0.999781
0.999716
0.999638
0.99955
0.999455
0.999367
0.999305
0.999274
0.999276
0.999326
0.999446
0.999662
1
1.00049
1.00116
1.00203
1.00312
1.00447
1.00607
1.00796
1.01011
1.01256
1.01527
1.01829
1.02152
1.02496
1.02873
1.0327
1.03661
1.04115
1.04631
1.05155
1.05717
1.06374
1.07078
1.07783
1.08575
1.09436
1.10223
1.11275
1.12705
1.16471
1.2992
1.98141
2.67574
2.95019
3.06813
3.07827
3.01808
2.96915
2.91308
2.85929
2.81052
2.76637
2.72726
2.68985
2.65993
2.6323
2.60694
2.5827
2.56154
2.54207
2.53469
2.53417
2.54309
2.55488
2.57475
2.60914
2.6683
2.75055
2.84173
2.93041
3.01229
3.0718
3.12717
3.16561
3.18651
3.19581
3.20083
3.20673
3.21238
3.21666
3.22116
3.22703
3.23241
3.23598
3.23939
3.24205
3.24191
3.23972
3.23626
3.22963
3.22399
3.22321
3.22703
3.23337
3.24247
3.25955
3.29056
3.32738
3.34776
3.35579
1
1
0.999999
0.999999
0.999998
0.999997
0.999996
0.999994
0.99999
0.999985
0.999978
0.999968
0.999954
0.999935
0.99991
0.999876
0.999833
0.999779
0.999713
0.999635
0.999545
0.999448
0.999355
0.999284
0.999244
0.999241
0.999278
0.999384
0.999582
0.999898
1.00036
1.00099
1.00182
1.00288
1.00417
1.00572
1.00754
1.00964
1.01202
1.01467
1.0176
1.02075
1.02419
1.0279
1.03168
1.03558
1.04019
1.04522
1.05021
1.05595
1.06253
1.06939
1.07643
1.08464
1.09333
1.10121
1.11234
1.12747
1.16045
1.26866
1.90772
2.64169
2.95026
3.07402
3.06316
2.98942
2.93621
2.87502
2.81611
2.76065
2.70939
2.66642
2.63208
2.60325
2.57463
2.55415
2.53711
2.52781
2.52021
2.52967
2.54551
2.56637
2.59521
2.63996
2.70115
2.77293
2.85676
2.95381
3.03249
3.08083
3.11819
3.15364
3.18445
3.2104
3.22653
3.23348
3.23722
3.24013
3.24229
3.24543
3.24911
3.25141
3.25253
3.25408
3.25433
3.25211
3.24841
3.24293
3.2345
3.22865
3.22781
3.2312
3.23667
3.24539
3.26239
3.29288
3.32895
3.34838
3.35588
1
1
0.999999
0.999999
0.999998
0.999997
0.999996
0.999994
0.99999
0.999985
0.999978
0.999968
0.999954
0.999935
0.999909
0.999875
0.999831
0.999776
0.99971
0.99963
0.999537
0.999438
0.999341
0.999257
0.999205
0.999191
0.999214
0.9993
0.999472
0.999758
1.00018
1.00077
1.00155
1.00254
1.00376
1.00524
1.00697
1.00899
1.01126
1.01383
1.01663
1.01971
1.02307
1.02662
1.03022
1.03424
1.03877
1.0435
1.04845
1.05432
1.06079
1.0674
1.07451
1.08286
1.09177
1.09982
1.11084
1.12516
1.14983
1.22078
1.78684
2.58321
2.94692
3.0712
3.02275
2.92837
2.85274
2.7763
2.71596
2.66524
2.62223
2.58766
2.56264
2.54391
2.52233
2.51547
2.50879
2.51281
2.52612
2.54999
2.57815
2.622
2.67881
2.74684
2.81741
2.89415
2.97585
3.03755
3.07948
3.11071
3.13901
3.16299
3.18755
3.21466
3.23612
3.25043
3.25891
3.26105
3.2617
3.2633
3.26564
3.26788
3.26884
3.26848
3.26615
3.26201
3.25672
3.2488
3.23865
3.23272
3.23174
3.23435
3.23893
3.24802
3.26563
3.29599
3.33128
3.34984
3.35708
1
1
0.999999
0.999999
0.999998
0.999997
0.999996
0.999994
0.99999
0.999985
0.999978
0.999968
0.999954
0.999934
0.999908
0.999873
0.999829
0.999773
0.999705
0.999623
0.999529
0.999425
0.999321
0.999223
0.999156
0.999123
0.999129
0.999191
0.999329
0.999573
0.999948
1.00048
1.00119
1.0021
1.00323
1.0046
1.00623
1.00812
1.01028
1.0127
1.01537
1.01832
1.02152
1.02486
1.02847
1.0324
1.03663
1.04111
1.04626
1.05201
1.05811
1.06474
1.0722
1.08056
1.08948
1.09831
1.10953
1.12527
1.1467
1.1692
1.63998
2.50949
2.92631
3.05549
2.9666
2.85452
2.75434
2.67164
2.61532
2.5666
2.53573
2.50976
2.50086
2.49282
2.47769
2.4845
2.49941
2.52121
2.55566
2.59698
2.65358
2.72038
2.78662
2.85316
2.93578
2.99961
3.04303
3.07494
3.10052
3.12439
3.14592
3.16515
3.18524
3.20845
3.23003
3.24944
3.26296
3.27041
3.27545
3.27708
3.27872
3.28037
3.28092
3.27939
3.27587
3.2712
3.26413
3.25391
3.24269
3.23628
3.23492
3.23692
3.24106
3.25071
3.26922
3.29987
3.33446
3.35198
3.35915
0.999999
1
0.999999
0.999999
0.999998
0.999997
0.999996
0.999994
0.99999
0.999985
0.999978
0.999968
0.999953
0.999933
0.999907
0.999872
0.999826
0.999769
0.999699
0.999615
0.999518
0.999408
0.999295
0.999186
0.999097
0.999038
0.999023
0.99905
0.99915
0.999342
0.999654
1.00011
1.00073
1.00154
1.00256
1.0038
1.00529
1.00702
1.00901
1.01126
1.01376
1.01652
1.01949
1.02269
1.02617
1.02987
1.03378
1.03828
1.04335
1.04874
1.05464
1.06156
1.06913
1.07735
1.08655
1.09576
1.10743
1.12439
1.14778
1.15921
1.5231
2.4265
2.86764
2.99421
2.87014
2.74304
2.63288
2.57144
2.52361
2.48424
2.47932
2.45779
2.46297
2.45157
2.46242
2.48642
2.53047
2.5694
2.6298
2.69829
2.76578
2.83118
2.91094
2.97408
3.0176
3.04912
3.07114
3.08985
3.10922
3.12846
3.14638
3.16347
3.18168
3.20074
3.2186
3.23701
3.25384
3.26804
3.27826
3.28302
3.28576
3.28724
3.288
3.28683
3.28366
3.27852
3.27
3.25757
3.24555
3.2392
3.23776
3.23923
3.2434
3.2538
3.27311
3.30451
3.33842
3.35481
3.36187
0.999999
1
0.999999
0.999999
0.999998
0.999997
0.999996
0.999994
0.99999
0.999985
0.999978
0.999967
0.999953
0.999933
0.999905
0.99987
0.999823
0.999765
0.999692
0.999605
0.999503
0.999388
0.999265
0.999142
0.999028
0.998939
0.998888
0.998881
0.998931
0.999062
0.999296
0.999659
1.00017
1.00086
1.00174
1.00283
1.00413
1.00568
1.00746
1.00948
1.01176
1.01427
1.01701
1.01997
1.02321
1.02659
1.03034
1.03464
1.03931
1.04437
1.05034
1.05716
1.06422
1.07245
1.08221
1.09219
1.10596
1.12588
1.15882
1.25271
1.55618
2.2886
2.7182
2.8204
2.72253
2.59897
2.52312
2.48659
2.45629
2.44245
2.44124
2.42244
2.45449
2.45338
2.50231
2.54973
2.61895
2.68645
2.75335
2.8184
2.89894
2.96059
3.00582
3.03607
3.05754
3.0722
3.08454
3.09903
3.11473
3.13002
3.14553
3.16093
3.17743
3.19293
3.20845
3.22474
3.24103
3.25699
3.27055
3.28021
3.28701
3.29159
3.29303
3.29229
3.28918
3.28329
3.27358
3.26022
3.24814
3.24205
3.24041
3.24134
3.24596
3.25723
3.27813
3.31003
3.34243
3.358
3.36483
0.999999
0.999999
0.999999
0.999999
0.999998
0.999997
0.999996
0.999993
0.99999
0.999985
0.999977
0.999967
0.999952
0.999932
0.999904
0.999867
0.99982
0.999759
0.999684
0.999593
0.999485
0.999363
0.999228
0.999088
0.998951
0.998827
0.998731
0.998675
0.998669
0.998727
0.998874
0.999128
0.999516
1.00005
1.00076
1.00166
1.00275
1.00406
1.00559
1.00735
1.00933
1.01154
1.01399
1.01665
1.01955
1.02258
1.02602
1.02993
1.034
1.03883
1.04445
1.05053
1.05708
1.06525
1.07461
1.08423
1.09946
1.11724
1.14945
1.2287
1.52268
2.05962
2.48672
2.5949
2.56037
2.47837
2.45875
2.4524
2.43353
2.43627
2.43266
2.44597
2.49238
2.54209
2.61021
2.68632
2.75632
2.82894
2.90661
2.96505
3.00704
3.03656
3.05602
3.06873
3.07788
3.08566
3.09616
3.10802
3.12001
3.13296
3.14614
3.15989
3.17412
3.18734
3.20123
3.21572
3.23059
3.24565
3.25973
3.27262
3.28353
3.2907
3.29353
3.29359
3.29117
3.28527
3.27531
3.26188
3.25019
3.24456
3.24258
3.24337
3.24873
3.26096
3.28411
3.31635
3.34665
3.36145
3.36803
0.999999
0.999999
0.999999
0.999999
0.999998
0.999997
0.999996
0.999993
0.99999
0.999985
0.999977
0.999966
0.999951
0.99993
0.999902
0.999864
0.999815
0.999752
0.999674
0.999578
0.999464
0.999332
0.999185
0.999026
0.998861
0.998704
0.998554
0.998433
0.998357
0.998334
0.998382
0.998507
0.998748
0.999109
0.99962
1.00029
1.00113
1.00216
1.00339
1.00482
1.00646
1.0083
1.01037
1.01263
1.01512
1.01773
1.02066
1.02392
1.02747
1.03177
1.03655
1.04146
1.04752
1.05459
1.06167
1.07076
1.08278
1.09591
1.13262
1.19378
1.57446
1.87139
2.2801
2.40489
2.44823
2.45497
2.44265
2.48109
2.45944
2.48963
2.50086
2.57121
2.63554
2.71192
2.77951
2.86348
2.93335
2.98784
3.02413
3.04831
3.06516
3.077
3.08424
3.08882
3.09155
3.09734
3.10566
3.11464
3.12541
3.13698
3.14889
3.16146
3.17352
3.18505
3.19767
3.21113
3.22515
3.23938
3.2531
3.26593
3.27742
3.28579
3.29051
3.29282
3.29157
3.28666
3.27673
3.26321
3.25187
3.24656
3.24447
3.24554
3.25156
3.26489
3.29053
3.32294
3.35105
3.36515
3.37142
0.999999
0.999999
0.999999
0.999999
0.999998
0.999997
0.999996
0.999993
0.99999
0.999985
0.999977
0.999966
0.99995
0.999929
0.9999
0.999861
0.99981
0.999745
0.999663
0.999561
0.999439
0.999297
0.999134
0.998952
0.998759
0.998562
0.99836
0.998171
0.998003
0.997885
0.997805
0.997792
0.997873
0.998033
0.998311
0.998719
0.999271
0.999978
1.00085
1.0019
1.00312
1.00454
1.00614
1.0079
1.00991
1.01198
1.01419
1.01669
1.01958
1.02295
1.02636
1.03033
1.03506
1.03995
1.04548
1.05322
1.06052
1.07269
1.12158
1.20857
1.73464
1.92996
2.20514
2.37306
2.45464
2.48845
2.50856
2.57147
2.58781
2.64746
2.69015
2.77073
2.84235
2.91581
2.9727
3.0235
3.05468
3.0714
3.07942
3.08479
3.0903
3.0929
3.09477
3.09634
3.09965
3.10525
3.11131
3.11992
3.13016
3.14088
3.1518
3.16378
3.17481
3.18556
3.19723
3.20948
3.22215
3.23516
3.24811
3.26063
3.27159
3.27956
3.28568
3.2899
3.29011
3.28621
3.27665
3.26348
3.25275
3.24809
3.24627
3.24774
3.25436
3.26911
3.29699
3.32942
3.35563
3.36913
3.37508
0.999999
0.999999
0.999999
0.999999
0.999998
0.999997
0.999996
0.999993
0.99999
0.999984
0.999977
0.999965
0.99995
0.999928
0.999898
0.999858
0.999805
0.999736
0.99965
0.999542
0.999411
0.999255
0.999074
0.998869
0.998642
0.998398
0.998139
0.99788
0.99762
0.997376
0.99716
0.996983
0.996861
0.996806
0.996838
0.996958
0.99718
0.997513
0.99798
0.998583
0.999339
1.00025
1.00132
1.00249
1.00391
1.00533
1.00668
1.00835
1.01025
1.01244
1.01456
1.0172
1.01993
1.02279
1.02656
1.02871
1.03303
1.04429
1.09952
1.25681
1.70852
1.99657
2.22472
2.36993
2.43468
2.49486
2.59094
2.67502
2.76982
2.85457
2.92192
2.98092
3.02808
3.05973
3.08092
3.09503
3.10086
3.10153
3.10115
3.10153
3.10057
3.09991
3.0994
3.10005
3.10306
3.10681
3.11298
3.12184
3.13262
3.14369
3.15512
3.16679
3.17724
3.18753
3.19824
3.20944
3.22129
3.23359
3.24581
3.25769
3.26776
3.2752
3.28178
3.28708
3.28824
3.28469
3.27557
3.26297
3.25316
3.24941
3.24809
3.24988
3.25721
3.27354
3.30329
3.33578
3.36042
3.37331
3.37897
0.999999
0.999999
0.999999
0.999999
0.999998
0.999997
0.999996
0.999993
0.99999
0.999984
0.999976
0.999965
0.999949
0.999926
0.999895
0.999853
0.999798
0.999727
0.999635
0.99952
0.999379
0.999209
0.999008
0.998775
0.998511
0.998216
0.997895
0.997554
0.997193
0.99682
0.996456
0.996098
0.995752
0.995456
0.995194
0.994986
0.99484
0.99477
0.994796
0.994926
0.995151
0.995487
0.995954
0.99647
0.997183
0.997824
0.998334
0.999009
0.999774
1.00057
1.00151
1.00232
1.0033
1.00453
1.00522
1.00643
1.01013
1.02869
1.11743
1.33139
1.76787
2.1071
2.31645
2.42006
2.48731
2.60769
2.73242
2.84981
2.97901
3.04951
3.08133
3.10023
3.11063
3.11644
3.11766
3.11677
3.11306
3.10902
3.10394
3.10233
3.09943
3.1009
3.10101
3.10191
3.1041
3.10805
3.11405
3.12211
3.13193
3.14236
3.15341
3.16457
3.17469
3.1844
3.19426
3.20493
3.21678
3.22908
3.24114
3.25269
3.26227
3.26986
3.2771
3.28268
3.28417
3.28146
3.27321
3.26165
3.25324
3.25046
3.24957
3.2519
3.26021
3.27805
3.30951
3.34213
3.36544
3.37777
3.38328
0.999999
0.999999
0.999999
0.999999
0.999998
0.999997
0.999996
0.999993
0.999989
0.999984
0.999976
0.999964
0.999947
0.999924
0.999892
0.999849
0.999791
0.999716
0.999619
0.999496
0.999344
0.999158
0.998934
0.998671
0.998366
0.998017
0.997627
0.997196
0.996724
0.996218
0.995688
0.995132
0.994558
0.993972
0.993395
0.992833
0.992307
0.991801
0.991329
0.990907
0.990538
0.990224
0.990035
0.989861
0.989832
0.989676
0.989346
0.989001
0.988474
0.988087
0.987722
0.987253
0.986118
0.985527
0.985106
0.985595
0.990447
1.02341
1.13237
1.52304
1.89255
2.22281
2.41533
2.49125
2.59326
2.72014
2.86047
3.02716
3.11298
3.13367
3.13832
3.13835
3.13627
3.13153
3.12471
3.11826
3.11294
3.11185
3.10753
3.10626
3.10284
3.10326
3.10245
3.10304
3.1049
3.10876
3.11414
3.12143
3.13051
3.14061
3.15145
3.16244
3.17273
3.18245
3.1924
3.20309
3.21458
3.22657
3.23857
3.24973
3.2588
3.26664
3.27383
3.27839
3.27971
3.27785
3.27032
3.25997
3.25309
3.25104
3.25068
3.2539
3.26328
3.28263
3.31568
3.34844
3.37063
3.38248
3.38798
0.999999
0.999999
0.999999
0.999999
0.999998
0.999997
0.999996
0.999993
0.999989
0.999984
0.999975
0.999963
0.999946
0.999922
0.999889
0.999844
0.999784
0.999704
0.999601
0.99947
0.999305
0.999102
0.998854
0.998558
0.998209
0.997803
0.997337
0.99681
0.99622
0.995569
0.994859
0.994091
0.993269
0.992399
0.991493
0.990544
0.989596
0.988618
0.98765
0.986666
0.985691
0.984723
0.983807
0.982969
0.982196
0.981184
0.979975
0.978707
0.977126
0.975563
0.974163
0.972229
0.969359
0.967606
0.966798
0.96817
0.977554
1.03192
1.1564
1.74095
1.98311
2.33313
2.49556
2.56655
2.69313
2.83413
3.02049
3.1289
3.15543
3.15145
3.15026
3.1438
3.13581
3.12931
3.12343
3.11855
3.11374
3.11213
3.10857
3.10803
3.10481
3.10417
3.1036
3.1049
3.10706
3.11078
3.11536
3.12142
3.12878
3.13735
3.14737
3.15804
3.16805
3.17739
3.18721
3.19785
3.20933
3.22146
3.23342
3.24442
3.25341
3.26149
3.26824
3.27273
3.27483
3.27351
3.26657
3.25776
3.25216
3.25093
3.25154
3.25582
3.26645
3.2875
3.32186
3.35454
3.37584
3.38735
3.393
0.999999
0.999999
0.999999
0.999999
0.999998
0.999997
0.999995
0.999993
0.999989
0.999983
0.999975
0.999963
0.999945
0.99992
0.999886
0.999839
0.999775
0.999692
0.999582
0.999442
0.999264
0.999042
0.998769
0.998438
0.998042
0.997575
0.997032
0.996405
0.995692
0.99489
0.993996
0.993011
0.991934
0.990775
0.989527
0.988209
0.986811
0.985368
0.983862
0.982333
0.980754
0.979187
0.977573
0.976001
0.974516
0.972721
0.970578
0.968407
0.965946
0.963218
0.96063
0.95732
0.952785
0.949862
0.948194
0.947245
0.966098
1.00362
1.3309
1.67233
2.13594
2.43878
2.55247
2.65782
2.79564
2.9881
3.1245
3.15911
3.15238
3.14605
3.14014
3.13392
3.12879
3.12463
3.12031
3.11596
3.11159
3.11001
3.10671
3.10721
3.10506
3.10522
3.10504
3.10613
3.1082
3.11173
3.11624
3.1223
3.12926
3.13742
3.147
3.15704
3.16649
3.1753
3.18475
3.1953
3.20672
3.21863
3.23016
3.24064
3.24907
3.25668
3.26299
3.26791
3.27059
3.26927
3.26274
3.25515
3.25061
3.25055
3.25227
3.25769
3.26981
3.29288
3.32817
3.36032
3.38099
3.39235
3.39825
0.999999
0.999999
0.999999
0.999999
0.999998
0.999997
0.999995
0.999993
0.999989
0.999983
0.999974
0.999962
0.999944
0.999918
0.999882
0.999833
0.999767
0.999678
0.999562
0.999411
0.999219
0.998978
0.998678
0.998312
0.997869
0.99734
0.996717
0.995992
0.995156
0.994203
0.993128
0.991926
0.9906
0.989142
0.987567
0.985865
0.984057
0.982133
0.980119
0.97802
0.975855
0.973662
0.971407
0.969099
0.966918
0.964424
0.9615
0.958362
0.954973
0.951396
0.947273
0.942465
0.936674
0.93325
0.93182
0.932378
0.970893
0.986777
1.58071
1.7476
2.31187
2.55678
2.63618
2.77673
2.96062
3.12404
3.16572
3.15592
3.14157
3.13268
3.12665
3.12169
3.11787
3.11521
3.11231
3.10868
3.10484
3.10417
3.10145
3.10373
3.10265
3.10419
3.10538
3.10728
3.10969
3.11296
3.11672
3.12141
3.12686
3.13403
3.14296
3.1525
3.16161
3.17045
3.1801
3.19078
3.20204
3.21378
3.22509
3.23539
3.24357
3.25114
3.25765
3.26299
3.26585
3.26443
3.25839
3.25185
3.24866
3.24997
3.25281
3.25951
3.2733
3.29865
3.33461
3.36596
3.3861
3.39744
3.40343
0.999999
0.999999
0.999999
0.999999
0.999998
0.999997
0.999995
0.999993
0.999989
0.999983
0.999974
0.999961
0.999942
0.999915
0.999878
0.999827
0.999757
0.999664
0.999541
0.99938
0.999174
0.998912
0.998586
0.998183
0.997693
0.997102
0.996401
0.995576
0.994618
0.993517
0.992262
0.990851
0.989274
0.987536
0.985628
0.983563
0.981338
0.978971
0.97646
0.973841
0.971101
0.968281
0.965389
0.962479
0.959557
0.956251
0.952635
0.948889
0.944795
0.941078
0.935985
0.929233
0.923472
0.920721
0.920429
0.927865
0.984663
1.06891
1.60089
1.99847
2.49733
2.62852
2.75464
2.94073
3.11308
3.16741
3.16085
3.14435
3.13222
3.12192
3.11438
3.10933
3.10636
3.10439
3.10242
3.10008
3.09695
3.09614
3.09387
3.0967
3.09656
3.09945
3.10233
3.10583
3.10945
3.11332
3.11743
3.12196
3.12679
3.13299
3.1412
3.1504
3.15937
3.16826
3.17786
3.18825
3.19904
3.21038
3.22121
3.23117
3.2391
3.24679
3.25341
3.25871
3.2613
3.25953
3.25369
3.24821
3.24669
3.24927
3.2532
3.26128
3.27692
3.30446
3.34101
3.37156
3.39124
3.40254
3.40847
0.999999
0.999999
0.999999
0.999999
0.999998
0.999997
0.999995
0.999993
0.999988
0.999982
0.999973
0.99996
0.99994
0.999913
0.999874
0.999821
0.999748
0.999649
0.999518
0.999348
0.999127
0.998846
0.998492
0.998053
0.997516
0.996865
0.996086
0.995165
0.994088
0.992842
0.991418
0.989802
0.987991
0.98598
0.983765
0.981353
0.978742
0.975952
0.972975
0.969854
0.966579
0.963173
0.959663
0.956134
0.952577
0.948564
0.94415
0.93961
0.934771
0.930333
0.924154
0.915634
0.90867
0.904338
0.900119
0.92437
0.928105
1.36013
1.59342
2.39543
2.67451
2.75095
2.93389
3.10708
3.16797
3.166
3.14484
3.13422
3.123
3.11218
3.10343
3.09744
3.09435
3.09317
3.09253
3.09156
3.08949
3.08895
3.08679
3.08899
3.08871
3.09165
3.09554
3.10046
3.10566
3.11072
3.11552
3.12019
3.12471
3.13003
3.13759
3.14659
3.15569
3.16471
3.17434
3.1846
3.19525
3.20635
3.21687
3.22665
3.23463
3.24266
3.24941
3.25447
3.25649
3.25427
3.24866
3.24451
3.24469
3.24842
3.25342
3.26301
3.28052
3.3101
3.34721
3.37715
3.39645
3.40761
3.41318
0.999999
0.999999
0.999999
0.999999
0.999998
0.999997
0.999995
0.999992
0.999988
0.999982
0.999973
0.999959
0.999939
0.99991
0.99987
0.999814
0.999738
0.999634
0.999496
0.999315
0.999079
0.998778
0.998398
0.997924
0.997341
0.996631
0.995778
0.994765
0.993576
0.992195
0.990608
0.988805
0.986775
0.984511
0.982016
0.979283
0.976324
0.973139
0.969751
0.966163
0.962394
0.958457
0.954426
0.950253
0.946033
0.94141
0.936411
0.930902
0.925508
0.919299
0.912133
0.903237
0.897373
0.893919
0.896957
0.927113
1.06675
1.40053
2.09066
2.62275
2.74146
2.91379
3.08999
3.15946
3.16878
3.14498
3.13515
3.12519
3.115
3.10478
3.09585
3.08899
3.08461
3.08266
3.08239
3.08233
3.08154
3.08098
3.07938
3.08119
3.08094
3.08273
3.08701
3.09268
3.09922
3.10609
3.11273
3.11875
3.12399
3.12891
3.13562
3.14426
3.15331
3.1622
3.17157
3.18148
3.19196
3.2028
3.21306
3.22277
3.231
3.23917
3.24568
3.25031
3.2516
3.24876
3.2435
3.24094
3.24272
3.24756
3.25374
3.26476
3.28406
3.3155
3.35321
3.38275
3.40172
3.41254
3.41765
0.999999
0.999999
0.999999
0.999999
0.999998
0.999997
0.999995
0.999992
0.999988
0.999982
0.999972
0.999958
0.999937
0.999908
0.999866
0.999807
0.999727
0.999619
0.999473
0.999282
0.999032
0.998712
0.998306
0.997798
0.99717
0.996404
0.995482
0.994383
0.993089
0.991584
0.98985
0.987876
0.985648
0.983163
0.980414
0.977404
0.974134
0.970616
0.966859
0.962875
0.958678
0.9543
0.949766
0.945043
0.940245
0.935132
0.929418
0.923341
0.917831
0.910029
0.899636
0.890083
0.884809
0.880391
0.897672
0.909855
1.20979
1.62697
2.54383
2.77136
2.8864
3.06635
3.1493
3.16808
3.14414
3.13465
3.12507
3.11627
3.10775
3.09965
3.09159
3.08409
3.07838
3.07495
3.07371
3.07355
3.07312
3.07247
3.07118
3.07246
3.07314
3.07347
3.07801
3.08412
3.09115
3.09886
3.10686
3.11474
3.12175
3.12738
3.13347
3.14175
3.15087
3.15966
3.16883
3.17841
3.1888
3.19941
3.20957
3.21937
3.22802
3.23604
3.24202
3.24607
3.24651
3.24314
3.23862
3.23761
3.24076
3.24672
3.2542
3.26648
3.28756
3.32071
3.35904
3.38836
3.40699
3.41721
3.4217
0.999999
0.999999
0.999999
0.999999
0.999998
0.999997
0.999995
0.999992
0.999988
0.999981
0.999971
0.999957
0.999935
0.999905
0.999861
0.999801
0.999717
0.999603
0.999451
0.999249
0.998986
0.998646
0.998215
0.997675
0.997006
0.996188
0.995201
0.994023
0.992636
0.991018
0.989155
0.98703
0.984633
0.981957
0.978996
0.97575
0.972226
0.96843
0.964372
0.960062
0.955528
0.950767
0.945808
0.94066
0.935477
0.92984
0.923538
0.916798
0.910337
0.901854
0.890482
0.881719
0.875458
0.876938
0.883772
1.05197
1.27095
2.2403
2.74651
2.88217
3.04809
3.14611
3.17247
3.14807
3.13777
3.12566
3.11599
3.10799
3.10118
3.09459
3.08765
3.08022
3.07365
3.06864
3.0659
3.06493
3.06421
3.06318
3.06198
3.06254
3.06469
3.06413
3.06845
3.07447
3.08171
3.08979
3.09843
3.10749
3.11639
3.12408
3.13085
3.1385
3.14771
3.15657
3.16567
3.17495
3.18531
3.19569
3.20607
3.21589
3.22477
3.23261
3.23823
3.24172
3.24131
3.23767
3.23415
3.23471
3.2391
3.24605
3.25455
3.26806
3.29097
3.32577
3.36462
3.3939
3.41222
3.42154
3.42546
0.999999
0.999999
0.999999
0.999999
0.999998
0.999997
0.999995
0.999992
0.999988
0.999981
0.999971
0.999956
0.999934
0.999902
0.999857
0.999794
0.999707
0.999588
0.999428
0.999217
0.99894
0.998583
0.998128
0.997558
0.99685
0.995985
0.994939
0.993691
0.99222
0.990506
0.988531
0.986281
0.983742
0.980911
0.977779
0.974352
0.970631
0.966628
0.962346
0.957812
0.953017
0.948011
0.942763
0.937365
0.931825
0.925859
0.919135
0.912459
0.904253
0.893959
0.882715
0.875063
0.869683
0.878304
0.910415
1.09671
1.83265
2.65589
2.87818
3.03353
3.15416
3.17879
3.15585
3.1417
3.12947
3.11824
3.10885
3.10128
3.09492
3.08894
3.08279
3.07625
3.07
3.06448
3.06048
3.05831
3.05673
3.05458
3.05281
3.05242
3.05541
3.0544
3.05797
3.06375
3.07094
3.07927
3.08851
3.09837
3.1085
3.11828
3.1266
3.13419
3.14362
3.15292
3.16231
3.17141
3.18181
3.19202
3.20273
3.21238
3.2213
3.22882
3.23422
3.23712
3.23605
3.23255
3.23027
3.23229
3.23802
3.24543
3.25464
3.26977
3.29434
3.33065
3.37014
3.39934
3.4173
3.42583
3.42926
0.999999
0.999999
0.999999
0.999999
0.999998
0.999997
0.999995
0.999992
0.999987
0.99998
0.99997
0.999954
0.999932
0.999899
0.999852
0.999787
0.999697
0.999573
0.999406
0.999185
0.998896
0.998522
0.998046
0.997447
0.996705
0.995796
0.994699
0.993389
0.991847
0.990051
0.987983
0.985631
0.982981
0.980032
0.976773
0.973216
0.969359
0.965218
0.960796
0.956124
0.951189
0.946034
0.940651
0.935137
0.929489
0.923345
0.916699
0.910721
0.902476
0.891368
0.882699
0.877916
0.880805
0.886253
1.00092
1.41146
2.45579
2.86294
3.01538
3.1501
3.18339
3.16462
3.14765
3.13599
3.12401
3.1134
3.1039
3.09593
3.0892
3.08289
3.07686
3.0711
3.06573
3.06086
3.05648
3.05336
3.05084
3.04762
3.04502
3.0436
3.04669
3.04523
3.04718
3.0525
3.05955
3.06782
3.07734
3.08786
3.09886
3.10985
3.11989
3.12854
3.1384
3.14841
3.1584
3.16765
3.17815
3.18827
3.19921
3.20865
3.21766
3.22491
3.23004
3.2322
3.23062
3.22786
3.22714
3.23056
3.23713
3.24463
3.25493
3.27165
3.29769
3.33522
3.37548
3.40429
3.42193
3.43012
3.43315
0.999999
0.999999
0.999999
0.999999
0.999998
0.999997
0.999995
0.999992
0.999987
0.99998
0.999969
0.999953
0.99993
0.999896
0.999848
0.99978
0.999686
0.999558
0.999385
0.999155
0.998853
0.998464
0.997967
0.997343
0.996569
0.995623
0.99448
0.993118
0.991516
0.989652
0.987512
0.985081
0.982349
0.979314
0.975972
0.972333
0.968399
0.964185
0.959709
0.954989
0.950033
0.944869
0.939511
0.933997
0.928277
0.922036
0.915038
0.907942
0.899104
0.887517
0.879165
0.874645
0.877578
0.937438
1.09338
2.14548
2.7745
3.00007
3.14024
3.18523
3.17018
3.15067
3.13916
3.12771
3.11733
3.10792
3.0994
3.09121
3.0844
3.07837
3.07205
3.06617
3.06114
3.05711
3.05316
3.04937
3.04606
3.04203
3.03858
3.03611
3.03894
3.03705
3.0369
3.0415
3.04831
3.05633
3.06574
3.07641
3.08797
3.09979
3.11116
3.12133
3.13197
3.14289
3.15378
3.16366
3.1744
3.18456
3.19563
3.20484
3.21393
3.22094
3.22577
3.22733
3.22568
3.22385
3.22472
3.22916
3.23586
3.24367
3.25553
3.2737
3.30109
3.34002
3.38081
3.40879
3.42643
3.43441
3.43725
0.999999
0.999999
0.999999
0.999999
0.999998
0.999997
0.999995
0.999992
0.999987
0.99998
0.999969
0.999952
0.999928
0.999893
0.999844
0.999774
0.999677
0.999544
0.999364
0.999126
0.998813
0.998409
0.997894
0.997247
0.996445
0.995466
0.994284
0.992878
0.991226
0.989309
0.987112
0.984622
0.981833
0.978742
0.975351
0.971669
0.967705
0.963474
0.959005
0.954311
0.949419
0.94434
0.939138
0.933801
0.928288
0.922464
0.916976
0.909511
0.899663
0.890303
0.884064
0.883749
0.887681
0.980019
1.70791
2.60943
2.96918
3.12949
3.1855
3.17088
3.15102
3.1386
3.12667
3.11652
3.10774
3.09946
3.09221
3.08514
3.07846
3.07311
3.06743
3.06109
3.05548
3.05202
3.04964
3.04517
3.04113
3.0367
3.03281
3.02978
3.03187
3.02995
3.02788
3.03118
3.03745
3.04498
3.05394
3.06437
3.07604
3.08843
3.10068
3.11223
3.12414
3.13612
3.14818
3.15913
3.17039
3.18074
3.19192
3.20105
3.21007
3.2166
3.2212
3.22237
3.22151
3.22061
3.22261
3.22766
3.23445
3.24335
3.25666
3.27578
3.30466
3.34483
3.38541
3.41285
3.43051
3.43837
3.44094
0.999999
0.999999
0.999999
0.999999
0.999998
0.999997
0.999995
0.999992
0.999987
0.999979
0.999968
0.999951
0.999926
0.999891
0.999839
0.999767
0.999667
0.99953
0.999345
0.999098
0.998775
0.998358
0.997826
0.997159
0.996332
0.995324
0.994109
0.992667
0.990975
0.989016
0.986776
0.984244
0.981418
0.978292
0.974878
0.97118
0.967219
0.963005
0.958576
0.953945
0.949148
0.944198
0.939145
0.933941
0.928747
0.923346
0.917717
0.910945
0.902606
0.89731
0.895369
0.893545
0.908896
1.2669
2.39282
2.89254
3.09581
3.17494
3.16638
3.1453
3.13254
3.12116
3.11056
3.10163
3.09531
3.08907
3.08263
3.07746
3.07146
3.0663
3.06214
3.05604
3.04964
3.04548
3.04422
3.04112
3.03558
3.03103
3.02715
3.02415
3.02503
3.02344
3.02019
3.02193
3.0274
3.03422
3.04242
3.05216
3.06339
3.07594
3.08886
3.10182
3.11485
3.12783
3.14149
3.15393
3.16597
3.17669
3.18793
3.19721
3.20613
3.2121
3.21669
3.2179
3.21764
3.21775
3.2204
3.22587
3.23326
3.24326
3.25776
3.27798
3.30853
3.34942
3.38956
3.41678
3.43447
3.44237
3.44514
0.999999
0.999999
0.999999
0.999999
0.999998
0.999997
0.999995
0.999991
0.999986
0.999979
0.999967
0.99995
0.999925
0.999888
0.999835
0.999761
0.999658
0.999517
0.999326
0.999072
0.99874
0.99831
0.997764
0.997078
0.99623
0.995197
0.993955
0.992482
0.990759
0.988767
0.986496
0.983934
0.981083
0.977939
0.974515
0.970818
0.966872
0.962697
0.958318
0.953775
0.949103
0.944316
0.939432
0.934443
0.929589
0.925316
0.919175
0.911261
0.904413
0.901184
0.901274
0.930832
1.07469
1.97323
2.73718
3.05035
3.15421
3.16188
3.13415
3.12158
3.11181
3.10279
3.09425
3.08631
3.08064
3.07721
3.07184
3.06747
3.06363
3.05805
3.05438
3.0504
3.04415
3.0384
3.03634
3.03574
3.03012
3.0257
3.02213
3.01874
3.01801
3.01713
3.01365
3.01364
3.01822
3.02436
3.03162
3.04033
3.05063
3.06279
3.07626
3.09028
3.1041
3.11788
3.13327
3.14749
3.16077
3.17219
3.18359
3.19309
3.20193
3.20782
3.21235
3.21364
3.21388
3.21461
3.21807
3.22414
3.23245
3.24353
3.25918
3.28063
3.3124
3.35356
3.39311
3.42003
3.43774
3.44567
3.4489
0.999999
0.999999
0.999999
0.999999
0.999998
0.999997
0.999995
0.999991
0.999986
0.999978
0.999966
0.999949
0.999923
0.999885
0.999831
0.999755
0.999649
0.999504
0.999308
0.999048
0.998707
0.998266
0.997707
0.997005
0.996139
0.995085
0.99382
0.992322
0.990574
0.988556
0.986262
0.983678
0.980811
0.977656
0.97423
0.970539
0.966614
0.962473
0.958156
0.953692
0.949124
0.944478
0.939778
0.935027
0.930423
0.925987
0.919868
0.91232
0.906219
0.901994
0.905727
0.941087
1.49569
2.53461
2.98447
3.13612
3.15618
3.12512
3.10908
3.09824
3.08894
3.0823
3.07664
3.06983
3.06431
3.06189
3.06026
3.05535
3.05426
3.04902
3.04481
3.04215
3.03894
3.03261
3.02918
3.02905
3.02482
3.01984
3.01676