/*--------------------------------*- C++ -*----------------------------------*\
| =========                 |                                                 |
| \\      /  F ield         | OpenFOAM: The Open Source CFD Toolbox           |
|  \\    /   O peration     | Version:  2.2.x                                 |
|   \\  /    A nd           | Web:      www.OpenFOAM.org                      |
|    \\/     M anipulation  |                                                 |
\*---------------------------------------------------------------------------*/
FoamFile
{
    version     2.0;
    format      ascii;
    class       volVectorField;
    location    "0.45";
    object      U;
}
// * * * * * * * * * * * * * * * * * * * * * * * * * * * * * * * * * * * * * //

dimensions      [0 1 -1 0 0 0 0];

internalField   nonuniform List<vector> 
14161
(
(1.5 -2.13626e-11 3.18646e-22)
(1.5 -3.82802e-11 4.58231e-22)
(1.5 -2.67027e-11 8.84539e-22)
(1.5 1.99146e-11 7.23586e-22)
(1.5 4.61221e-11 1.48383e-21)
(1.5 5.14881e-11 1.92276e-21)
(1.5 3.49837e-11 3.54102e-21)
(1.5 3.90706e-11 3.36867e-21)
(1.5 1.28083e-10 4.45939e-21)
(1.5 -1.49481e-10 3.5831e-21)
(1.50001 8.69681e-11 3.05833e-21)
(1.50001 3.28822e-10 1.22504e-21)
(1.50001 -1.08161e-09 -2.6092e-22)
(1.50002 -1.89747e-10 -1.88741e-21)
(1.50003 -1.05574e-09 -3.24751e-21)
(1.50004 -2.90105e-09 -3.47107e-21)
(1.50005 -5.08044e-10 -3.99031e-21)
(1.50007 -7.73127e-09 -4.98633e-21)
(1.50009 -1.87548e-08 -4.97471e-21)
(1.50011 3.30404e-09 -6.17783e-21)
(1.50014 -1.05858e-08 -7.81295e-21)
(1.50017 8.88187e-09 -8.0004e-21)
(1.50019 -2.17321e-08 -8.45594e-21)
(1.50021 -3.61674e-08 -8.83886e-21)
(1.50022 2.64659e-09 -9.59905e-21)
(1.50022 -2.50145e-09 -1.06227e-20)
(1.5002 -6.18918e-08 -1.10501e-20)
(1.50017 -1.32986e-07 -1.12278e-20)
(1.5001 -2.09627e-07 -1.13535e-20)
(1.49999 -2.77528e-07 -1.08351e-20)
(1.49984 -4.33505e-07 -1.07203e-20)
(1.49964 -4.32186e-07 -1.04705e-20)
(1.49937 -6.80434e-07 -1.04047e-20)
(1.49903 -5.52674e-07 -1.04036e-20)
(1.49861 -9.7618e-07 -1.04661e-20)
(1.49811 -7.19011e-07 -9.97654e-21)
(1.49753 -1.38513e-06 -1.06725e-20)
(1.49685 -9.74531e-07 -1.27303e-20)
(1.49609 -2.09759e-06 -9.24671e-21)
(1.49525 -2.0082e-07 -3.1078e-21)
(1.49432 -1.77714e-06 -1.05073e-20)
(1.4933 -4.22942e-06 -2.57312e-20)
(1.49221 -1.3126e-06 -2.36402e-20)
(1.49107 -5.37883e-07 -5.97119e-22)
(1.48985 -5.59347e-06 1.80556e-20)
(1.48853 -3.33037e-06 -1.27868e-21)
(1.48713 1.16296e-07 -7.60144e-20)
(1.48559 -5.08797e-06 -4.30362e-20)
(1.48386 -5.16881e-06 1.56716e-20)
(1.48197 2.28562e-06 3.76762e-20)
(1.47999 3.34895e-06 -7.57844e-21)
(1.47777 3.59718e-06 -3.88543e-20)
(1.47539 6.62402e-06 -4.07785e-20)
(1.473 4.59146e-06 -1.4096e-20)
(1.47044 4.81647e-06 -3.73028e-21)
(1.46754 2.92983e-05 -4.71699e-21)
(1.46397 8.35544e-05 -9.30888e-21)
(1.45742 0.000378861 -1.88319e-21)
(1.43548 0.00131373 5.47666e-20)
(1.34239 0.00375067 1.61684e-19)
(1.02075 0.00659552 3.98799e-19)
(0.679653 0.00468165 4.15253e-19)
(0.54919 0.00309643 4.11403e-19)
(0.516574 -0.0028146 3.59905e-19)
(0.518406 -0.00641068 2.75904e-19)
(0.534055 -0.0093925 3.26458e-19)
(0.558503 -0.0120217 1.35297e-19)
(0.588371 -0.0142093 -1.78498e-19)
(0.62047 -0.0148893 -8.86196e-19)
(0.65217 -0.0147508 2.96613e-18)
(0.682608 -0.0142565 1.93774e-18)
(0.711699 -0.0135305 -7.98581e-18)
(0.738785 -0.0125411 -6.17045e-18)
(0.764147 -0.0118165 1.73841e-17)
(0.787335 -0.0107618 1.35414e-17)
(0.808168 -0.00966195 -3.19543e-17)
(0.826225 -0.008805 -3.25621e-17)
(0.842393 -0.00865623 4.12906e-17)
(0.857275 -0.00839647 5.26053e-17)
(0.870055 -0.00724948 -3.62619e-17)
(0.881231 -0.00654962 -6.72152e-17)
(0.891272 -0.00631478 2.16834e-17)
(0.899896 -0.00466017 5.89596e-17)
(0.907529 -0.00311585 1.23799e-17)
(0.912957 -0.00113677 -3.73704e-17)
(0.911567 0.002436 -1.80857e-17)
(0.903815 0.00737547 2.57064e-18)
(0.882415 0.0138171 1.2672e-17)
(0.842979 0.0210371 1.01855e-17)
(0.785638 0.0277027 7.36984e-19)
(0.71344 0.0332538 -4.26044e-18)
(0.636353 0.0354483 -1.23866e-18)
(0.567583 0.0345927 9.93362e-19)
(0.510843 0.0295559 3.65298e-19)
(0.464466 0.024386 -4.29291e-21)
(0.426277 0.0203102 7.59273e-20)
(0.394119 0.0172532 1.55867e-19)
(0.365821 0.014752 1.54862e-19)
(0.340009 0.0126784 1.24212e-19)
(0.316932 0.0111779 8.53217e-20)
(0.297062 0.00994087 6.16551e-20)
(0.279292 0.00892124 3.89751e-20)
(0.262413 0.00834256 3.40371e-20)
(0.246725 0.00799698 2.38273e-20)
(0.231999 0.00766141 1.38416e-20)
(0.217411 0.00730552 1.97305e-20)
(0.202917 0.00706441 1.8443e-20)
(0.189037 0.00693122 5.2273e-20)
(0.176027 0.0069197 7.67616e-20)
(0.163228 0.00698517 8.14755e-20)
(0.150306 0.007188 1.12276e-19)
(0.13684 0.00749151 1.13254e-19)
(0.122562 0.00791944 1.47354e-19)
(0.107232 0.00850704 1.64685e-19)
(0.0906734 0.00934679 2.13641e-19)
(0.0727886 0.0100664 2.39001e-19)
(0.0542586 0.0107697 2.57745e-19)
(0.0346935 0.0104406 2.76213e-19)
(0.0160983 0.016778 5.18445e-19)
(1.5 -9.64712e-11 4.56156e-22)
(1.5 -1.19605e-10 1.19294e-21)
(1.5 -8.02013e-11 1.27371e-21)
(1.5 9.85133e-12 6.48199e-22)
(1.5 3.61142e-11 1.52853e-21)
(1.5 2.48097e-11 2.0688e-21)
(1.5 -6.73562e-14 3.20749e-21)
(1.5 -9.60428e-11 3.36454e-21)
(1.5 1.29506e-10 4.07141e-21)
(1.5 -1.11299e-10 3.09528e-21)
(1.50001 -5.00136e-10 2.06479e-21)
(1.50001 1.16727e-09 -7.57486e-22)
(1.50001 -7.74839e-11 -1.30564e-21)
(1.50002 -3.56895e-10 -4.00167e-21)
(1.50003 2.63586e-09 -4.32674e-21)
(1.50004 -7.00224e-10 -4.42599e-21)
(1.50005 6.51427e-09 -4.68196e-21)
(1.50007 8.30781e-09 -6.15782e-21)
(1.50009 -1.77334e-08 -6.13007e-21)
(1.50011 3.41873e-08 -7.5885e-21)
(1.50014 3.37339e-08 -8.78469e-21)
(1.50017 1.04516e-07 -9.66876e-21)
(1.5002 7.54433e-08 -1.01587e-20)
(1.50022 1.48616e-07 -1.01111e-20)
(1.50022 3.21837e-07 -1.12093e-20)
(1.50022 4.00111e-07 -1.18298e-20)
(1.50021 3.80475e-07 -1.20641e-20)
(1.50017 3.99184e-07 -1.19874e-20)
(1.5001 4.41974e-07 -1.21223e-20)
(1.5 5.55999e-07 -1.1326e-20)
(1.49985 5.79698e-07 -1.16616e-20)
(1.49964 9.02985e-07 -1.10474e-20)
(1.49937 9.14227e-07 -1.10937e-20)
(1.49904 1.47263e-06 -1.10895e-20)
(1.49862 1.37842e-06 -1.117e-20)
(1.49812 2.2599e-06 -1.05831e-20)
(1.49754 1.84248e-06 -1.14132e-20)
(1.49687 2.62201e-06 -1.31648e-20)
(1.49611 2.25698e-06 -9.87655e-21)
(1.49527 4.9078e-06 -4.52177e-21)
(1.49434 3.65075e-06 -1.17423e-20)
(1.49333 -1.05106e-06 -2.55477e-20)
(1.49224 6.46067e-06 -2.4711e-20)
(1.4911 7.46409e-06 -2.24431e-21)
(1.48988 -1.5004e-06 1.61473e-20)
(1.48857 5.56381e-06 -7.82995e-21)
(1.48716 1.7513e-05 -6.19786e-20)
(1.48561 3.7154e-06 -4.14516e-20)
(1.48387 -1.06815e-06 1.62703e-21)
(1.48203 2.27079e-05 2.30524e-20)
(1.48003 2.50706e-05 -9.92381e-21)
(1.47778 1.30758e-05 -3.40194e-20)
(1.47539 1.99241e-05 -3.77842e-20)
(1.47304 1.00942e-05 -2.1039e-20)
(1.47041 7.06337e-06 -1.03035e-20)
(1.46752 3.73273e-05 -8.40651e-21)
(1.46397 0.000259735 -9.62986e-21)
(1.45748 0.00110074 2.79011e-21)
(1.43576 0.00375189 5.95603e-20)
(1.3448 0.0106789 2.07409e-19)
(1.02772 0.0187347 4.19568e-19)
(0.683833 0.0156998 4.55752e-19)
(0.552996 0.00617374 4.51415e-19)
(0.520937 -0.00814413 3.96451e-19)
(0.52509 -0.0196453 3.11691e-19)
(0.54594 -0.0252525 2.3284e-19)
(0.573932 -0.0311333 3.27774e-19)
(0.60625 -0.034855 -4.39723e-19)
(0.639879 -0.0340913 -3.48371e-19)
(0.672016 -0.0311088 2.24123e-18)
(0.701971 -0.0275926 1.85428e-18)
(0.729976 -0.0241647 -8.04212e-18)
(0.755834 -0.0211228 -4.49062e-18)
(0.779929 -0.0191112 1.69119e-17)
(0.80148 -0.0165172 1.23825e-17)
(0.820912 -0.0138494 -2.92202e-17)
(0.838172 -0.0123392 -2.46348e-17)
(0.853397 -0.0131713 2.98045e-17)
(0.866749 -0.0128272 4.47445e-17)
(0.878333 -0.0113286 -2.55428e-17)
(0.887816 -0.00945524 -5.32598e-17)
(0.895487 -0.00877347 1.11509e-17)
(0.900548 -0.00597127 4.38026e-17)
(0.904639 -0.00390958 1.10661e-17)
(0.905089 -0.000767634 -2.19715e-17)
(0.897277 0.0030394 -1.70833e-17)
(0.880176 0.00803185 -9.27855e-19)
(0.848561 0.0165832 8.89972e-18)
(0.797902 0.0282734 6.8862e-18)
(0.731476 0.0437683 -8.25987e-19)
(0.657 0.0594569 -2.93844e-18)
(0.584921 0.0639148 6.01099e-20)
(0.524822 0.0582347 6.0302e-19)
(0.477079 0.0503572 1.75855e-20)
(0.437213 0.0440822 -6.78871e-20)
(0.403718 0.039063 2.5607e-20)
(0.375218 0.0349302 9.91306e-20)
(0.349784 0.0313212 1.01192e-19)
(0.326277 0.0282532 1.04093e-19)
(0.305055 0.0259268 8.19521e-20)
(0.286624 0.0236194 7.11654e-20)
(0.269843 0.0215542 5.12478e-20)
(0.253553 0.0203231 6.64968e-20)
(0.238272 0.0195041 6.36852e-20)
(0.223863 0.0186496 5.7951e-20)
(0.209558 0.0177648 8.22338e-20)
(0.195364 0.0172831 9.37637e-20)
(0.181728 0.0170662 1.19928e-19)
(0.168877 0.0172146 1.60949e-19)
(0.156136 0.0175463 1.6309e-19)
(0.143195 0.0183332 1.94732e-19)
(0.129632 0.0194293 2.02193e-19)
(0.115202 0.020905 2.36097e-19)
(0.0997046 0.0227301 2.72073e-19)
(0.0830083 0.0254738 3.22585e-19)
(0.0656763 0.0272684 3.34299e-19)
(0.0483341 0.0292614 5.21089e-19)
(0.0294419 0.0297231 5.19612e-19)
(0.0119373 0.0378243 7.07827e-19)
(1.5 -1.28624e-10 3.93355e-22)
(1.5 -1.79863e-10 1.97876e-23)
(1.5 -1.34295e-10 4.02099e-22)
(1.5 4.3789e-11 7.24792e-22)
(1.5 1.23381e-10 1.66228e-21)
(1.5 1.34042e-10 1.93556e-21)
(1.5 1.18957e-10 2.88736e-21)
(1.5 8.92595e-11 2.43583e-21)
(1.5 1.17143e-10 1.87657e-21)
(1.5 3.05243e-10 2.3708e-22)
(1.50001 -5.41813e-10 -7.21015e-22)
(1.50001 -5.36685e-11 -6.36604e-21)
(1.50001 8.68556e-10 -7.80208e-21)
(1.50002 -2.58089e-09 -6.84723e-21)
(1.50003 6.13408e-10 -6.95654e-21)
(1.50004 -3.38794e-09 -7.3482e-21)
(1.50005 -3.88093e-09 -6.82361e-21)
(1.50007 8.93652e-09 -9.41724e-21)
(1.50009 -4.41598e-08 -8.3891e-21)
(1.50011 2.18349e-08 -1.12837e-20)
(1.50014 3.77343e-08 -1.31253e-20)
(1.50017 8.29563e-08 -1.40025e-20)
(1.5002 -4.52906e-09 -1.35489e-20)
(1.50022 1.34406e-07 -1.33441e-20)
(1.50023 3.57992e-07 -1.62108e-20)
(1.50023 4.25637e-07 -1.50838e-20)
(1.50021 4.4207e-07 -1.53108e-20)
(1.50018 4.69288e-07 -1.50964e-20)
(1.50011 4.40735e-07 -1.45528e-20)
(1.50001 4.68381e-07 -1.37897e-20)
(1.49986 5.06692e-07 -1.42938e-20)
(1.49966 7.65591e-07 -1.36759e-20)
(1.4994 9.90633e-07 -1.41549e-20)
(1.49906 1.36175e-06 -1.33021e-20)
(1.49865 1.48002e-06 -1.39306e-20)
(1.49816 2.458e-06 -1.32677e-20)
(1.49758 2.01708e-06 -1.38901e-20)
(1.49692 2.11781e-06 -1.50947e-20)
(1.49617 2.75088e-06 -1.28467e-20)
(1.49533 6.23574e-06 -9.31706e-21)
(1.4944 3.0019e-06 -1.42323e-20)
(1.4934 -2.73367e-06 -2.69612e-20)
(1.49233 4.16158e-06 -2.56864e-20)
(1.49118 4.25921e-06 -4.08932e-21)
(1.48996 -8.17303e-06 5.06457e-21)
(1.48868 5.7556e-06 -2.1965e-20)
(1.48727 1.76407e-05 -4.16548e-20)
(1.48567 7.10971e-06 -3.72023e-20)
(1.48395 1.8533e-05 -1.43388e-20)
(1.4822 3.05785e-05 -6.22359e-21)
(1.48017 2.58101e-05 -1.3286e-20)
(1.4779 5.35009e-06 -2.45945e-20)
(1.47556 2.60982e-05 -3.2678e-20)
(1.47319 1.28467e-05 -2.93615e-20)
(1.47048 3.72836e-06 -2.40502e-20)
(1.46761 8.08445e-05 -1.95844e-20)
(1.46409 0.000441799 -1.37171e-20)
(1.45761 0.0018593 7.42917e-21)
(1.43667 0.0064399 7.50866e-20)
(1.34957 0.0165619 2.69795e-19)
(1.03836 0.0280221 4.70606e-19)
(0.690512 0.0241289 5.23515e-19)
(0.556572 0.00853025 5.01851e-19)
(0.52518 -0.016549 4.37013e-19)
(0.530316 -0.0390103 3.41137e-19)
(0.557199 -0.0496302 3.00344e-19)
(0.587986 -0.0601905 3.47742e-19)
(0.622269 -0.0646896 -8.97527e-19)
(0.65572 -0.0633666 -3.9168e-19)
(0.687701 -0.0586452 3.28475e-18)
(0.717477 -0.052825 2.64701e-18)
(0.745144 -0.0468991 -9.54263e-18)
(0.770778 -0.0421293 -7.16424e-18)
(0.794612 -0.0383595 1.74601e-17)
(0.815456 -0.0337875 1.58698e-17)
(0.833633 -0.0288774 -2.69703e-17)
(0.849595 -0.0260023 -2.75112e-17)
(0.862849 -0.0255095 2.8381e-17)
(0.87382 -0.0239811 3.93841e-17)
(0.883017 -0.0210168 -2.16348e-17)
(0.889938 -0.0173591 -3.50123e-17)
(0.893985 -0.0153636 2.77138e-18)
(0.893195 -0.011318 2.17788e-17)
(0.891898 -0.00568227 9.17355e-18)
(0.883518 0.00244235 -8.1384e-18)
(0.866408 0.0133153 -9.41314e-18)
(0.835928 0.027647 -6.55537e-19)
(0.789398 0.0472036 5.84501e-18)
(0.725519 0.0723453 3.17351e-18)
(0.654069 0.100524 -2.41387e-18)
(0.585988 0.114665 -1.01753e-18)
(0.529544 0.114133 7.51501e-19)
(0.485809 0.102873 2.1332e-19)
(0.449586 0.0895381 -8.00045e-20)
(0.41786 0.0787739 -3.81501e-20)
(0.390459 0.0700174 3.89095e-20)
(0.365984 0.062695 1.01149e-19)
(0.343015 0.0561136 9.58749e-20)
(0.320996 0.0505151 1.07634e-19)
(0.30064 0.046087 1.00322e-19)
(0.282674 0.041877 1.09344e-19)
(0.265949 0.038333 8.89752e-20)
(0.249471 0.0360636 1.10841e-19)
(0.233986 0.0343772 9.47722e-20)
(0.219373 0.032721 1.12151e-19)
(0.204821 0.0312344 1.17786e-19)
(0.190438 0.0304387 1.45442e-19)
(0.176608 0.0300299 1.28282e-19)
(0.163488 0.0301585 2.38195e-19)
(0.150466 0.0305892 2.50968e-19)
(0.137241 0.0317703 2.29951e-19)
(0.12333 0.0334182 2.14256e-19)
(0.108406 0.0356337 2.4677e-19)
(0.0926791 0.0383384 2.76485e-19)
(0.076655 0.0424814 2.98701e-19)
(0.0604535 0.0445555 3.98359e-19)
(0.0445166 0.0477996 5.50874e-19)
(0.0270182 0.0488913 5.5283e-19)
(0.0118515 0.0582298 7.11173e-19)
(1.5 -1.86474e-10 1.45267e-22)
(1.5 -2.54696e-10 7.93349e-22)
(1.5 -1.74849e-10 1.00838e-21)
(1.5 6.60945e-11 4.73332e-22)
(1.5 1.74225e-10 1.11878e-21)
(1.5 1.93324e-10 1.11188e-21)
(1.5 1.71116e-10 2.0197e-21)
(1.5 1.63796e-10 1.14293e-21)
(1.5 -8.34751e-11 -9.22465e-22)
(1.5 3.05646e-10 -7.59672e-21)
(1.50001 6.88086e-10 -1.18526e-20)
(1.50001 -9.40498e-10 -1.31837e-20)
(1.50001 1.50775e-09 -1.74649e-20)
(1.50002 1.58589e-09 -1.72933e-20)
(1.50003 6.94786e-10 -1.55583e-20)
(1.50004 7.03893e-09 -1.74541e-20)
(1.50005 -4.03261e-09 -1.83126e-20)
(1.50007 2.37161e-08 -1.85565e-20)
(1.50009 -1.27033e-08 -2.28175e-20)
(1.50011 1.45475e-08 -2.01312e-20)
(1.50014 5.64995e-08 -2.48983e-20)
(1.50017 2.1602e-07 -2.74641e-20)
(1.5002 1.72269e-07 -2.73835e-20)
(1.50022 4.60098e-07 -2.50235e-20)
(1.50023 6.00299e-07 -2.70748e-20)
(1.50023 6.85453e-07 -3.00865e-20)
(1.50022 8.69155e-07 -2.82284e-20)
(1.50019 9.95952e-07 -2.56402e-20)
(1.50013 1.14047e-06 -2.53151e-20)
(1.50003 1.13575e-06 -2.66764e-20)
(1.49989 1.54547e-06 -2.60357e-20)
(1.49969 1.86379e-06 -2.54996e-20)
(1.49943 2.6033e-06 -2.54735e-20)
(1.49911 2.95181e-06 -2.51532e-20)
(1.49871 3.78629e-06 -2.51432e-20)
(1.49823 4.53762e-06 -2.48483e-20)
(1.49766 5.69365e-06 -2.58086e-20)
(1.49701 4.84769e-06 -2.50957e-20)
(1.49627 7.30637e-06 -2.39351e-20)
(1.49545 7.52808e-06 -2.44139e-20)
(1.49453 4.64759e-06 -2.88178e-20)
(1.49354 9.13998e-06 -3.478e-20)
(1.49248 1.19017e-05 -2.65847e-20)
(1.49133 1.48316e-06 -1.30897e-20)
(1.49011 -2.49716e-06 -1.74328e-20)
(1.48889 2.44067e-05 -4.10663e-20)
(1.48747 2.61928e-05 -3.47317e-20)
(1.48585 2.31757e-05 -2.45062e-20)
(1.48421 3.84332e-05 -3.06954e-20)
(1.48247 3.39992e-05 -3.99449e-20)
(1.48038 2.25903e-05 -3.66077e-20)
(1.47815 1.16944e-05 -2.46941e-20)
(1.47593 3.3251e-05 -3.55235e-20)
(1.4734 4.56048e-06 -4.88895e-20)
(1.47063 -1.31902e-06 -4.78935e-20)
(1.4678 0.000118055 -2.61621e-20)
(1.4643 0.000580506 -1.23321e-20)
(1.45796 0.00249966 1.67192e-20)
(1.43809 0.00902016 9.2165e-20)
(1.35635 0.0209298 3.6334e-19)
(1.05286 0.0359662 5.77663e-19)
(0.69895 0.029937 6.28739e-19)
(0.560819 0.00698606 6.496e-19)
(0.537137 -0.0284836 5.2822e-19)
(0.544156 -0.0593956 2.45622e-19)
(0.578396 -0.0745035 5.6559e-19)
(0.613853 -0.0880203 1.14974e-18)
(0.652441 -0.0914593 -1.69017e-18)
(0.689588 -0.0860716 -2.94775e-18)
(0.723723 -0.0777156 4.96623e-18)
(0.754029 -0.0686374 7.31368e-18)
(0.78045 -0.0597353 -1.02417e-17)
(0.804647 -0.0530333 -1.40561e-17)
(0.82582 -0.0474378 1.52423e-17)
(0.84283 -0.0410739 1.8522e-17)
(0.856472 -0.0347197 -1.71142e-17)
(0.869289 -0.0315395 -2.30743e-17)
(0.878596 -0.0296562 1.66527e-17)
(0.885566 -0.0279419 2.22864e-17)
(0.889147 -0.0232128 -4.30917e-18)
(0.891446 -0.0212569 -1.61786e-17)
(0.887524 -0.0164933 -2.8681e-18)
(0.878757 -0.00898678 7.59257e-18)
(0.863829 0.00115694 5.03642e-18)
(0.840089 0.0150201 -2.42076e-18)
(0.802211 0.0312144 -3.88188e-18)
(0.74731 0.0508599 2.53841e-19)
(0.681058 0.0805049 2.69258e-18)
(0.610589 0.112431 -2.68248e-19)
(0.548319 0.133552 -1.01202e-18)
(0.499572 0.142496 2.97639e-19)
(0.463054 0.139696 2.619e-19)
(0.434192 0.124881 -6.86061e-20)
(0.40826 0.110083 -4.29258e-20)
(0.384785 0.0979496 -1.01068e-20)
(0.363352 0.0876736 4.53158e-20)
(0.343152 0.0792882 1.06702e-19)
(0.3238 0.0722018 1.14494e-19)
(0.305028 0.0664023 1.4311e-19)
(0.287404 0.0615093 1.52068e-19)
(0.271353 0.0565359 1.82779e-19)
(0.255644 0.0523503 1.87704e-19)
(0.239835 0.0495663 2.14457e-19)
(0.224816 0.0472412 2.27411e-19)
(0.210442 0.0448979 2.44005e-19)
(0.195983 0.0429791 2.83237e-19)
(0.181592 0.0419858 2.43904e-19)
(0.167707 0.0414746 2.60443e-19)
(0.154488 0.0416128 1.70915e-19)
(0.141312 0.0420881 3.87952e-19)
(0.128046 0.0436942 1.58206e-19)
(0.11435 0.0461085 2.40863e-19)
(0.100134 0.0495705 1.70135e-19)
(0.0854069 0.0531127 1.86456e-19)
(0.0708863 0.058079 2.50288e-19)
(0.0560755 0.0604059 1.76048e-19)
(0.0416658 0.0647593 4.65634e-19)
(0.0257 0.066035 4.70444e-19)
(0.0127839 0.0757479 5.64797e-19)
(1.5 -2.37833e-10 -1.3655e-21)
(1.5 -2.95977e-10 -1.1854e-21)
(1.5 -1.93121e-10 -3.16809e-21)
(1.5 9.25623e-11 -1.12682e-21)
(1.5 2.31289e-10 -6.13543e-21)
(1.5 2.37596e-10 -4.39768e-21)
(1.5 2.06215e-10 -9.65982e-21)
(1.5 2.85716e-10 -1.80228e-20)
(1.5 2.65698e-10 -1.70015e-20)
(1.5 4.06892e-11 -2.13624e-20)
(1.50001 1.30297e-09 -3.18282e-20)
(1.50001 5.11496e-10 -2.49526e-20)
(1.50001 9.27048e-11 -2.88828e-20)
(1.50002 3.84444e-09 -3.23998e-20)
(1.50003 1.04051e-09 -3.23421e-20)
(1.50004 8.25847e-09 -3.27293e-20)
(1.50005 -4.74815e-09 -2.68006e-20)
(1.50007 8.24479e-09 -2.94315e-20)
(1.50009 1.03769e-08 -3.40405e-20)
(1.50011 1.69424e-08 -3.8574e-20)
(1.50014 -4.50414e-08 -4.13325e-20)
(1.50017 1.68431e-07 -4.81932e-20)
(1.5002 2.46728e-07 -4.88671e-20)
(1.50023 7.01124e-07 -4.93284e-20)
(1.50024 9.20312e-07 -4.85669e-20)
(1.50024 6.07292e-07 -4.48906e-20)
(1.50023 1.11669e-06 -4.72757e-20)
(1.50021 1.33164e-06 -4.72542e-20)
(1.50015 1.43829e-06 -4.3445e-20)
(1.50006 1.54319e-06 -3.87673e-20)
(1.49993 1.6688e-06 -3.78526e-20)
(1.49974 2.03275e-06 -3.86472e-20)
(1.4995 2.54448e-06 -3.76662e-20)
(1.49918 3.31988e-06 -4.00516e-20)
(1.4988 3.88605e-06 -4.11374e-20)
(1.49833 4.34401e-06 -4.00737e-20)
(1.49779 5.85528e-06 -4.06513e-20)
(1.49715 8.0245e-06 -4.33301e-20)
(1.49644 7.904e-06 -4.11165e-20)
(1.49563 4.62373e-06 -4.26464e-20)
(1.49474 7.88179e-06 -4.45244e-20)
(1.49377 2.3598e-05 -5.30455e-20)
(1.49273 1.66612e-05 -4.07255e-20)
(1.49159 4.70744e-06 -1.73433e-20)
(1.49043 2.46318e-05 -4.43592e-20)
(1.48921 3.24393e-05 -8.20237e-20)
(1.48777 2.63027e-05 -4.82555e-20)
(1.4862 3.02892e-05 -4.10576e-21)
(1.48466 3.35693e-05 -3.78464e-20)
(1.48285 1.68249e-05 -1.0404e-19)
(1.48077 1.99584e-05 -1.00619e-19)
(1.4786 3.33175e-05 -3.08976e-20)
(1.47641 2.86843e-05 -2.84176e-20)
(1.47378 -9.44972e-06 -8.4314e-20)
(1.471 -3.36272e-06 -1.00654e-19)
(1.46818 0.000101916 -5.70625e-20)
(1.46459 0.000637419 -1.85715e-20)
(1.4585 0.002871 2.04446e-20)
(1.44076 0.0109918 1.03603e-19)
(1.3687 0.023897 4.19521e-19)
(1.07994 0.0420709 6.76095e-19)
(0.709976 0.0327844 7.79927e-19)
(0.5681 -0.00229621 7.33398e-19)
(0.548005 -0.0494456 7.68298e-19)
(0.562555 -0.088693 1.60904e-19)
(0.603878 -0.110363 -5.73249e-20)
(0.643945 -0.12741 1.95124e-18)
(0.686035 -0.130753 8.39128e-19)
(0.725051 -0.122438 -5.27919e-18)
(0.760919 -0.109194 -8.0555e-20)
(0.79189 -0.0943348 1.01292e-17)
(0.817973 -0.0801676 -3.00134e-18)
(0.840375 -0.0696007 -1.60452e-17)
(0.858112 -0.0600158 5.59133e-18)
(0.871397 -0.0505574 1.52313e-17)
(0.881129 -0.0420509 -6.57688e-18)
(0.889605 -0.038176 -1.29999e-17)
(0.893032 -0.0334506 5.7575e-18)
(0.895247 -0.0310696 1.14406e-17)
(0.890667 -0.0272944 -4.94584e-19)
(0.882841 -0.020833 -5.21117e-18)
(0.868546 -0.0100208 -2.44732e-18)
(0.844925 0.00386877 2.12383e-18)
(0.811049 0.0214544 1.93763e-18)
(0.76381 0.0432434 -9.32901e-19)
(0.704095 0.071676 -1.21504e-18)
(0.632915 0.10703 8.81152e-19)
(0.56296 0.137232 4.47649e-19)
(0.507119 0.158482 -5.97719e-19)
(0.465461 0.16981 -4.48251e-20)
(0.434422 0.171129 1.39744e-19)
(0.409938 0.161552 -2.76682e-20)
(0.391217 0.145503 -5.80349e-20)
(0.372691 0.130067 -1.6651e-20)
(0.354758 0.117096 9.50722e-22)
(0.337059 0.105732 7.41669e-20)
(0.319849 0.0965293 8.71598e-20)
(0.303347 0.0887499 1.06347e-19)
(0.287208 0.0821385 1.33358e-19)
(0.272091 0.0762489 1.42815e-19)
(0.257955 0.0704476 1.91952e-19)
(0.243585 0.0662205 2.14628e-19)
(0.229173 0.0636034 2.14816e-19)
(0.21533 0.0610393 2.59126e-19)
(0.201625 0.0583248 2.6025e-19)
(0.187474 0.0560156 3.1394e-19)
(0.173333 0.0547462 2.82581e-19)
(0.159758 0.0540965 2.95625e-19)
(0.146684 0.0542368 1.33979e-19)
(0.13365 0.0548483 2.45754e-19)
(0.120489 0.056733 2.84407e-19)
(0.10698 0.0594323 9.73835e-20)
(0.0931038 0.0632017 2.06541e-19)
(0.0791703 0.067054 1.1933e-19)
(0.0660425 0.0723924 1.79482e-19)
(0.0525722 0.0749465 3.23988e-21)
(0.0396555 0.0802244 3.19098e-19)
(0.0250973 0.0816491 3.94779e-19)
(0.0141576 0.0914383 4.85666e-19)
(1.5 -2.72557e-10 -2.90377e-22)
(1.5 -3.4319e-10 -1.3699e-21)
(1.5 -2.27691e-10 -1.25872e-21)
(1.5 1.07363e-10 -7.0995e-21)
(1.5 2.85714e-10 -1.2942e-20)
(1.5 3.23544e-10 -2.76619e-20)
(1.5 2.65347e-10 -2.90411e-20)
(1.5 2.05782e-10 -2.43612e-20)
(1.5 4.43251e-10 -4.16772e-20)
(1.5 2.18108e-10 -4.11796e-20)
(1.50001 3.19867e-10 -3.8974e-20)
(1.50001 2.04788e-09 -5.4581e-20)
(1.50001 1.00542e-09 -5.49777e-20)
(1.50002 1.41876e-09 -4.80249e-20)
(1.50003 5.95329e-09 -5.83438e-20)
(1.50004 7.14577e-09 -5.37104e-20)
(1.50005 1.13457e-08 -7.31561e-20)
(1.50007 3.22268e-09 -5.24786e-20)
(1.50009 -3.90628e-09 -6.62725e-20)
(1.50011 7.84504e-08 -6.68151e-20)
(1.50014 -1.14764e-07 -6.83567e-20)
(1.50017 1.55299e-07 -7.31505e-20)
(1.50021 3.71902e-07 -7.74057e-20)
(1.50024 9.09543e-07 -8.05537e-20)
(1.50025 1.06415e-06 -7.71271e-20)
(1.50026 8.01152e-07 -7.73974e-20)
(1.50025 1.32515e-06 -7.72418e-20)
(1.50023 1.56484e-06 -7.66139e-20)
(1.50018 1.99094e-06 -8.13182e-20)
(1.5001 2.62125e-06 -8.7673e-20)
(1.49998 3.0957e-06 -8.94543e-20)
(1.49981 3.77818e-06 -9.2152e-20)
(1.49958 4.12031e-06 -9.08749e-20)
(1.49929 5.55549e-06 -9.22665e-20)
(1.49892 6.2238e-06 -9.21095e-20)
(1.49848 7.61657e-06 -9.16244e-20)
(1.49796 8.04919e-06 -8.96778e-20)
(1.49736 1.28744e-05 -9.04946e-20)
(1.49667 1.34126e-05 -8.91302e-20)
(1.49589 9.26474e-06 -8.2949e-20)
(1.49504 1.35588e-05 -8.13636e-20)
(1.4941 2.61694e-05 -9.56638e-20)
(1.49308 2.16692e-05 -8.49915e-20)
(1.49199 1.96585e-05 -1.46184e-20)
(1.49088 2.81912e-05 -3.08383e-20)
(1.48964 2.80761e-05 -1.5655e-19)
(1.48824 2.81651e-05 -1.38976e-19)
(1.48678 5.05166e-05 4.01777e-20)
(1.48523 4.23142e-05 5.93032e-21)
(1.48338 1.54218e-05 -1.97092e-19)
(1.48136 2.10876e-05 -2.60468e-19)
(1.47929 4.87654e-05 7.98207e-21)
(1.47705 2.92398e-05 2.51899e-20)
(1.47439 -2.40581e-05 -1.05853e-19)
(1.47155 -8.02983e-06 -1.5701e-19)
(1.46867 4.32857e-05 -9.98617e-20)
(1.46514 0.000450893 -2.60713e-20)
(1.45967 0.00233614 2.53726e-20)
(1.44544 0.00964641 1.38134e-19)
(1.38749 0.0228214 3.97661e-19)
(1.12307 0.0410677 8.23816e-19)
(0.727754 0.0283893 9.71458e-19)
(0.583801 -0.0197873 9.09645e-19)
(0.564676 -0.077761 9.7947e-19)
(0.592702 -0.121474 7.27535e-19)
(0.642862 -0.147754 -3.7484e-19)
(0.69211 -0.164242 6.45085e-19)
(0.738782 -0.162243 2.38584e-18)
(0.778019 -0.147762 -1.54631e-18)
(0.810879 -0.128287 -2.66117e-18)
(0.837294 -0.108417 4.46727e-18)
(0.8591 -0.0900106 1.41648e-18)
(0.875729 -0.0772457 -7.64149e-18)
(0.888866 -0.0643013 4.39113e-19)
(0.898676 -0.0525831 7.80216e-18)
(0.902496 -0.0438229 -1.78845e-18)
(0.904415 -0.0378286 -5.76373e-18)
(0.900878 -0.0338223 1.84649e-18)
(0.891989 -0.0289339 3.34764e-18)
(0.876631 -0.0199864 6.44544e-19)
(0.853736 -0.00651523 -1.69528e-18)
(0.820384 0.0106748 -1.01201e-18)
(0.774922 0.0323648 7.19742e-19)
(0.716885 0.0585919 5.28957e-19)
(0.650149 0.0939637 -5.48758e-19)
(0.580153 0.13103 -6.48106e-20)
(0.516949 0.160972 2.4582e-19)
(0.468849 0.181406 -2.63576e-19)
(0.433863 0.192281 -1.97508e-19)
(0.406957 0.194858 -1.44582e-20)
(0.386187 0.189319 -1.12121e-19)
(0.370149 0.176897 -1.15715e-19)
(0.356721 0.160391 -9.58495e-20)
(0.342382 0.145156 -7.04456e-20)
(0.327762 0.131993 -3.73468e-20)
(0.313317 0.12102 1.23874e-21)
(0.299035 0.111828 3.80078e-20)
(0.284454 0.103204 9.56325e-21)
(0.270101 0.095634 8.62303e-20)
(0.256786 0.0890608 5.26417e-20)
(0.243958 0.0833944 1.36523e-19)
(0.230772 0.0795766 7.3488e-20)
(0.217496 0.0766847 1.25657e-19)
(0.204525 0.0734136 1.52075e-19)
(0.191372 0.0703207 1.24368e-19)
(0.177913 0.0680138 2.21449e-19)
(0.164585 0.0667594 1.70693e-19)
(0.151731 0.0661784 2.25981e-19)
(0.139097 0.0664003 1.84944e-19)
(0.126431 0.0671348 -2.62439e-20)
(0.113691 0.0693236 2.27508e-19)
(0.100595 0.0722096 -9.98263e-20)
(0.0874187 0.0765378 -7.73839e-21)
(0.0743071 0.0803154 8.45483e-20)
(0.0623903 0.0857438 5.43564e-20)
(0.0500453 0.0884222 1.27473e-19)
(0.0384858 0.094305 1.4395e-19)
(0.025185 0.0959343 2.18671e-19)
(0.0159484 0.105573 2.92719e-19)
(1.5 -3.07071e-10 3.22134e-21)
(1.5 -3.81789e-10 6.32792e-22)
(1.5 -2.51663e-10 -1.77261e-21)
(1.5 1.21454e-10 -9.18396e-21)
(1.5 3.31462e-10 -3.67405e-21)
(1.5 3.7739e-10 -7.18092e-21)
(1.5 3.5365e-10 -2.83469e-20)
(1.5 2.89654e-10 -2.75329e-20)
(1.5 4.53825e-10 -4.93006e-20)
(1.5 1.01001e-09 -5.86475e-20)
(1.50001 4.84827e-10 -6.12478e-20)
(1.50001 1.38008e-09 -6.41378e-20)
(1.50001 4.25465e-09 -6.2442e-20)
(1.50002 1.64163e-09 -7.91894e-20)
(1.50003 7.2903e-09 -8.83353e-20)
(1.50004 6.5679e-09 -8.82456e-20)
(1.50005 1.76413e-08 -8.02762e-20)
(1.50007 2.19547e-08 -8.65412e-20)
(1.50009 -3.03236e-08 -8.99878e-20)
(1.50012 7.71603e-08 -8.24583e-20)
(1.50015 -1.79018e-07 -9.47423e-20)
(1.50018 1.00044e-07 -9.22193e-20)
(1.50021 6.99639e-07 -1.08307e-19)
(1.50024 8.95424e-07 -1.09103e-19)
(1.50027 1.31927e-06 -1.11002e-19)
(1.50028 1.11015e-06 -1.15798e-19)
(1.50028 1.32527e-06 -1.11026e-19)
(1.50027 1.8494e-06 -1.15002e-19)
(1.50023 2.28396e-06 -1.20319e-19)
(1.50016 2.75497e-06 -1.2455e-19)
(1.50005 3.24324e-06 -1.22903e-19)
(1.4999 3.98199e-06 -1.21931e-19)
(1.49969 4.60585e-06 -1.20992e-19)
(1.49942 5.45262e-06 -1.1866e-19)
(1.49909 6.82079e-06 -1.18381e-19)
(1.49868 7.76461e-06 -1.15558e-19)
(1.49819 9.26084e-06 -1.13468e-19)
(1.49762 1.07746e-05 -1.12213e-19)
(1.49697 1.1904e-05 -1.09391e-19)
(1.49624 1.59492e-05 -9.79216e-20)
(1.49543 2.12245e-05 -1.00685e-19)
(1.49454 2.20043e-05 -1.44834e-19)
(1.49357 2.03338e-05 -1.35621e-19)
(1.49254 3.22403e-05 3.52432e-20)
(1.49143 3.36082e-05 -3.61148e-20)
(1.49023 3.32518e-05 -2.84359e-19)
(1.48893 6.12832e-05 -2.9195e-19)
(1.48755 5.85779e-05 7.95667e-20)
(1.48594 3.18687e-05 9.74647e-20)
(1.48415 1.54335e-05 -2.87526e-19)
(1.48225 5.32554e-05 -4.13235e-19)
(1.48017 4.3387e-05 6.23513e-20)
(1.47783 2.08173e-05 1.37011e-19)
(1.47519 -1.72802e-05 -1.29131e-19)
(1.47233 -2.27733e-05 -2.16167e-19)
(1.4693 -6.79722e-05 -1.75528e-19)
(1.46557 1.76164e-05 -6.8521e-20)
(1.46034 0.000736914 9.7455e-21)
(1.4493 0.00388387 1.50165e-19)
(1.40802 0.0107208 4.63169e-19)
(1.17733 0.0234217 9.65209e-19)
(0.759011 0.00841912 1.26485e-18)
(0.608862 -0.050121 1.26552e-18)
(0.588823 -0.118378 1.11655e-18)
(0.630933 -0.167439 1.03305e-18)
(0.686414 -0.199068 5.97234e-19)
(0.741561 -0.212255 2.31823e-19)
(0.788475 -0.203764 1.06353e-18)
(0.826012 -0.181391 1.60305e-19)
(0.854707 -0.152121 -1.40166e-18)
(0.875493 -0.12318 2.31723e-18)
(0.892653 -0.0984452 1.33012e-18)
(0.902423 -0.0824182 -3.89968e-18)
(0.909767 -0.0661638 -5.81356e-19)
(0.913822 -0.0524988 3.26392e-18)
(0.90988 -0.0418885 -2.9998e-19)
(0.901403 -0.0340054 -1.59092e-18)
(0.8871 -0.024295 4.6871e-20)
(0.86289 -0.0124646 9.57742e-19)
(0.829954 0.00390562 1.52583e-19)
(0.785172 0.0246789 -6.98928e-19)
(0.728177 0.0496743 -3.27329e-19)
(0.663494 0.0835551 2.0544e-19)
(0.594908 0.124598 -1.38295e-19)
(0.528272 0.157927 -2.5189e-19)
(0.474994 0.185486 -3.10742e-20)
(0.435506 0.203702 -2.13013e-19)
(0.406368 0.214364 -2.06541e-19)
(0.38352 0.21726 -1.4574e-19)
(0.365569 0.213683 -1.13111e-19)
(0.351413 0.203681 -1.57122e-19)
(0.339965 0.189305 -1.02945e-19)
(0.329102 0.172699 -1.07017e-19)
(0.316787 0.157798 -1.15623e-19)
(0.304478 0.145 -7.60866e-20)
(0.292327 0.134258 -6.80847e-20)
(0.279947 0.12453 1.28893e-20)
(0.267223 0.115774 -6.61969e-20)
(0.254822 0.108467 -3.54167e-20)
(0.243006 0.101751 3.56852e-20)
(0.230899 0.0963166 -3.56994e-20)
(0.218378 0.0923968 5.64275e-20)
(0.206041 0.0887561 2.7083e-20)
(0.19391 0.0849784 1.17925e-19)
(0.181444 0.0819434 8.2306e-20)
(0.168816 0.0799123 4.04909e-20)
(0.156309 0.0787971 2.42505e-20)
(0.144121 0.0781468 1.29399e-19)
(0.131923 0.0783137 -2.70106e-20)
(0.119758 0.0791061 -1.06269e-19)
(0.107485 0.0814193 -5.3522e-20)
(0.0949466 0.0846029 1.09402e-19)
(0.0825726 0.0891026 -2.07273e-19)
(0.0703985 0.0927798 -7.29478e-20)
(0.0596479 0.0982482 4.64098e-20)
(0.0482712 0.100916 -6.91713e-20)
(0.0379299 0.107157 -6.31688e-21)
(0.0257732 0.109074 5.61534e-20)
(0.0180698 0.118437 2.27046e-19)
(1.5 -3.28037e-10 -6.56166e-21)
(1.5 -4.20158e-10 -7.50122e-21)
(1.5 -2.90154e-10 -8.02797e-21)
(1.5 1.14056e-10 -1.45582e-20)
(1.5 3.62493e-10 -2.19889e-20)
(1.5 4.06096e-10 -2.34086e-20)
(1.5 3.8288e-10 -2.08767e-20)
(1.5 3.96288e-10 -4.51963e-20)
(1.5 2.35679e-10 -4.97414e-20)
(1.5 6.72251e-10 -6.59722e-20)
(1.50001 1.4486e-09 -7.25481e-20)
(1.50001 5.5777e-10 -7.69011e-20)
(1.50001 3.38382e-09 -7.66968e-20)
(1.50002 4.704e-09 -6.28284e-20)
(1.50003 6.50982e-09 -6.41314e-20)
(1.50004 7.85557e-09 -8.58025e-20)
(1.50005 1.08138e-08 -8.39555e-20)
(1.50007 3.88369e-08 -1.16772e-19)
(1.50009 1.5109e-08 -1.15347e-19)
(1.50012 8.06772e-10 -1.05142e-19)
(1.50015 1.84231e-08 -1.34e-19)
(1.50018 8.27565e-08 -1.42022e-19)
(1.50022 5.0963e-07 -1.52138e-19)
(1.50025 5.2096e-07 -1.55423e-19)
(1.50029 1.18791e-06 -1.53923e-19)
(1.50031 1.99465e-06 -1.59288e-19)
(1.50031 1.59614e-06 -1.6951e-19)
(1.50031 2.00811e-06 -1.70102e-19)
(1.50028 2.4803e-06 -1.66193e-19)
(1.50023 2.80467e-06 -1.60632e-19)
(1.50014 3.38439e-06 -1.61298e-19)
(1.50001 4.22582e-06 -1.59576e-19)