/*--------------------------------*- C++ -*----------------------------------*\
| =========                 |                                                 |
| \\      /  F ield         | OpenFOAM: The Open Source CFD Toolbox           |
|  \\    /   O peration     | Version:  2.2.x                                 |
|   \\  /    A nd           | Web:      www.OpenFOAM.org                      |
|    \\/     M anipulation  |                                                 |
\*---------------------------------------------------------------------------*/
FoamFile
{
    version     2.0;
    format      ascii;
    class       volScalarField;
    location    "0.4";
    object      rho;
}
// * * * * * * * * * * * * * * * * * * * * * * * * * * * * * * * * * * * * * //

dimensions      [1 -3 0 0 0 0 0];

internalField   nonuniform List<scalar> 
14161
(
0.997676
0.9978
0.998817
0.99976
1.0002
1.0001
0.999601
0.999046
0.998925
0.9992
0.999545
0.999788
1.00001
0.999923
0.999547
0.999201
0.999347
0.999456
0.999063
0.998596
0.998449
0.998571
0.998702
0.998503
0.99824
0.997879
0.997448
0.997024
0.99681
0.996559
0.996415
0.996326
0.995585
0.99408
0.993093
0.992267
0.991646
0.991227
0.991014
0.991052
0.990737
0.989268
0.987177
0.986195
0.985449
0.984762
0.984128
0.983458
0.983008
0.982847
0.982905
0.983008
0.982419
0.981274
0.979619
0.978472
0.97818
0.978017
0.97862
0.979984
0.98538
0.964489
1.82224
2.50642
2.79771
2.87055
2.74968
2.64462
2.53147
2.43437
2.37072
2.26518
2.1914
2.14183
2.11609
2.11742
2.15051
2.19428
2.23468
2.27154
2.28284
2.27618
2.26299
2.25585
2.25725
2.27047
2.30618
2.37988
2.47048
2.55789
2.62343
2.66166
2.69022
2.72855
2.76597
2.78532
2.78916
2.79296
2.81375
2.84736
2.86966
2.88399
2.89491
2.90786
2.92483
2.94858
2.97099
2.99566
3.01503
3.0369
3.04649
3.06186
3.0653
3.08741
3.09421
3.12126
3.13201
3.1567
3.05148
0.999243
0.99757
0.998602
0.998679
0.997837
0.995986
0.993226
0.992834
0.992966
0.993539
0.99478
0.99646
0.997879
0.998639
0.999994
1.00039
1.00044
1.0004
0.999736
0.998685
0.997445
0.996516
0.995687
0.994826
0.993626
0.992666
0.992195
0.991729
0.991331
0.990865
0.990346
0.989805
0.989157
0.988429
0.987819
0.987202
0.986666
0.98618
0.985814
0.985532
0.985396
0.985617
0.985345
0.984381
0.983811
0.983816
0.983649
0.982919
0.98192
0.981353
0.98094
0.980616
0.980279
0.979822
0.979029
0.977513
0.976033
0.97536
0.975949
0.975158
0.981095
0.961999
1.69024
2.45233
2.69767
2.73217
2.64852
2.59277
2.5113
2.46092
2.37233
2.30737
2.25855
2.24705
2.2478
2.2652
2.30533
2.34881
2.38206
2.41316
2.44635
2.48276
2.50895
2.52735
2.54319
2.56226
2.5922
2.63247
2.66868
2.70519
2.72639
2.73197
2.74548
2.77439
2.79943
2.81309
2.82149
2.83202
2.85711
2.88676
2.90593
2.92102
2.9361
2.95179
2.96679
2.98421
3.00289
3.02392
3.03817
3.05172
3.05767
3.07066
3.06919
3.08829
3.09616
3.12355
3.13513
3.1583
3.05966
1.00797
1.00732
1.00241
1.00211
1.0039
1.00759
1.01184
1.01346
1.01322
1.01202
1.00969
1.00661
1.00309
1.00025
0.999412
0.998887
0.999321
0.999012
0.99987
1.0012
1.00278
1.00444
1.00598
1.00687
1.0077
1.00841
1.00883
1.00917
1.00901
1.00843
1.00769
1.00691
1.00607
1.00534
1.00469
1.00396
1.00303
1.00174
1.00019
0.998427
0.996827
0.995502
0.994355
0.993323
0.992312
0.990842
0.989467
0.987953
0.986282
0.985413
0.984704
0.98437
0.984194
0.984254
0.984313
0.983723
0.982331
0.980974
0.979761
0.977776
0.978369
0.96302
1.28271
2.35093
2.57976
2.64716
2.57866
2.51042
2.44228
2.38647
2.3261
2.26495
2.25069
2.238
2.2387
2.25002
2.29207
2.34565
2.42107
2.50526
2.57858
2.65568
2.71518
2.75367
2.77233
2.78597
2.79844
2.81816
2.85463
2.87733
2.8896
2.89355
2.90946
2.93055
2.93731
2.9404
2.94556
2.9528
2.96161
2.96885
2.97392
2.98031
2.98685
2.99513
3.00202
3.01279
3.02223
3.03435
3.03958
3.04451
3.04628
3.05597
3.06205
3.0801
3.08711
3.11901
3.13157
3.15126
3.04603
0.991833
0.989077
0.993369
0.993461
0.99137
0.986511
0.982323
0.981971
0.982594
0.984053
0.986593
0.989952
0.992892
0.995326
0.998782
0.999083
0.998366
0.997281
0.995497
0.993162
0.990624
0.988846
0.987383
0.98523
0.983966
0.983647
0.983268
0.983023
0.982908
0.982753
0.982594
0.982322
0.982036
0.981689
0.981321
0.980925
0.980559
0.98018
0.979759
0.97925
0.97887
0.978587
0.978499
0.978629
0.979055
0.979731
0.979586
0.979106
0.97868
0.978255
0.977719
0.976951
0.975926
0.975094
0.974136
0.972604
0.971337
0.969522
0.9673
0.964708
0.960429
0.968606
1.04967
1.86915
2.66495
2.64103
2.5327
2.42242
2.3632
2.3085
2.26853
2.23221
2.19027
2.18213
2.19174
2.20946
2.24167
2.29289
2.36393
2.46834
2.55008
2.64188
2.73586
2.78611
2.79803
2.79623
2.79754
2.82553
2.86982
2.89163
2.90636
2.91196
2.93441
2.95984
2.97206
2.97951
2.98701
2.99753
3.00808
3.01558
3.02059
3.02481
3.02764
3.03343
3.03529
3.04043
3.0427
3.04715
3.04632
3.04614
3.04381
3.04525
3.0488
3.06597
3.0791
3.11954
3.1346
3.14735
3.02812
1.01295
1.01635
1.01005
1.00987
1.01253
1.01854
1.02371
1.02476
1.02399
1.02193
1.01851
1.01434
1.00959
1.0058
1.00523
1.00473
1.00499
1.00554
1.00655
1.00844
1.01078
1.01373
1.01541
1.01642
1.01784
1.01933
1.01939
1.01898
1.01831
1.01748
1.01661
1.01571
1.01481
1.01387
1.01283
1.01165
1.0103
1.00876
1.00699
1.0051
1.00351
1.00217
1.00089
0.999694
0.998534
0.996391
0.993722
0.99153
0.99017
0.9886
0.987203
0.986247
0.985671
0.985224
0.984521
0.983459
0.98225
0.980627
0.978384
0.977619
0.975624
0.97969
1.00631
2.05841
2.69532
2.66139
2.54134
2.40742
2.32715
2.26079
2.25042
2.22223
2.16827
2.13063
2.11337
2.13069
2.15714
2.26763
2.34872
2.46336
2.58334
2.6976
2.79979
2.86289
2.88788
2.89207
2.89016
2.9317
2.98034
3.00182
3.01358
3.01918
3.04298
3.07342
3.09013
3.09616
3.09782
3.10411
3.11279
3.11761
3.11626
3.11024
3.10284
3.10208
3.09906
3.09796
3.08937
3.08264
3.07682
3.07065
3.06175
3.05618
3.05004
3.05683
3.0688
3.11249
3.12942
3.1384
3.01429
0.985175
0.980976
0.986852
0.987206
0.98481
0.979021
0.975067
0.974922
0.975786
0.977608
0.980565
0.984278
0.987384
0.990042
0.992154
0.992141
0.991662
0.990602
0.988932
0.986507
0.984318
0.982368
0.980576
0.980004
0.980126
0.980293
0.980306
0.980457
0.980629
0.980753
0.980816
0.980829
0.980687
0.980385
0.979943
0.979395
0.978759
0.978038
0.977249
0.976475
0.975683
0.975056
0.974656
0.974615
0.973781
0.974086
0.97435
0.974462
0.974501
0.974436
0.973974
0.973132
0.97258
0.971976
0.971257
0.969996
0.968149
0.96705
0.965855
0.964492
0.96392
0.96683
1.01288
2.18494
2.62907
2.59294
2.46729
2.37017
2.30144
2.21944
2.2062
2.18455
2.14599
2.13063
2.1156
2.14857
2.16616
2.22976
2.27214
2.33877
2.4229
2.52466
2.64136
2.72553
2.76999
2.78772
2.81774
2.88419
2.92828
2.94278
2.9504
2.96153
2.99179
3.02723
3.0436
3.04659
3.04948
3.05588
3.06313
3.07179
3.0718
3.0725
3.07203
3.07247
3.0722
3.07693
3.07501
3.07345
3.0681
3.06047
3.04873
3.03953
3.03098
3.03647
3.04757
3.09438
3.11558
3.11974
2.98843
1.01605
1.02571
1.01869
1.01802
1.0205
1.02701
1.03163
1.03265
1.03175
1.02956
1.0258
1.02119
1.01623
1.01265
1.01094
1.00965
1.0095
1.00981
1.01085
1.01277
1.0154
1.01853
1.01971
1.02051
1.02216
1.02246
1.02208
1.02142
1.02056
1.01956
1.01848
1.01735
1.01616
1.01491
1.01359
1.01218
1.01067
1.00898
1.0072
1.00561
1.00421
1.0029
1.00168
1.00066
0.999591
0.997321
0.994602
0.992028
0.989631
0.98725
0.986013
0.984906
0.984428
0.983959
0.982914
0.981393
0.979049
0.977948
0.977129
0.976361
0.976404
0.977822
1.04603
2.24521
2.66111
2.6808
2.56546
2.48313
2.40072
2.31915
2.29395
2.25483
2.19765
2.18899
2.16745
2.19047
2.19315
2.23202
2.24425
2.29413
2.37623
2.47779
2.59184
2.69802
2.76328
2.78892
2.81348
2.87455
2.92164
2.94268
2.95337
2.97105
3.00359
3.03416
3.04687
3.05228
3.05703
3.06065
3.06551
3.06943
3.07108
3.07404
3.07595
3.07715
3.07658
3.08426
3.08535
3.08624
3.08029
3.06909
3.05364
3.04043
3.02926
3.03334
3.04295
3.08713
3.1068
3.10747
2.97361
0.97841
0.971236
0.978015
0.97991
0.978702
0.975336
0.971526
0.970619
0.971289
0.972928
0.97554
0.978624
0.981526
0.983351
0.985019
0.985827
0.985826
0.985359
0.984364
0.982885
0.982199
0.98216
0.981637
0.981651
0.981936
0.982311
0.982553
0.98281
0.983049
0.983086
0.983107
0.982886
0.982583
0.982103
0.981546
0.980957
0.98014
0.979141
0.978276
0.97733
0.976412
0.975603
0.974969
0.974699
0.974218
0.97444
0.974386
0.974127
0.973867
0.973552
0.973329
0.973144
0.97317
0.973508
0.972966
0.971086
0.967967
0.966679
0.96571
0.964363
0.96442
0.965313
1.0571
2.236
2.5573
2.60994
2.55187
2.49692
2.42558
2.3636
2.32535
2.26816
2.24307
2.21639
2.23214
2.25781
2.29841
2.34609
2.36401
2.40764
2.48224
2.57447
2.67808
2.76897
2.81745
2.82985
2.84137
2.88592
2.9251
2.94226
2.95265
2.97157
3.00459
3.03184
3.04772
3.06279
3.07273
3.0733
3.07639
3.07862
3.07727
3.07823
3.07931
3.0809
3.07966
3.08677
3.08668
3.08722
3.08099
3.07032
3.05647
3.04118
3.02827
3.03109
3.03923
3.0804
3.09556
3.091
2.95523
1.01774
1.03152
1.02478
1.02237
1.02344
1.02744
1.03039
1.03109
1.03009
1.02789
1.02439
1.02027
1.01643
1.01301
1.01117
1.01005
1.00934
1.00929
1.00962
1.01051
1.01203
1.01383
1.01433
1.01468
1.01503
1.01485
1.01441
1.01367
1.0127
1.01156
1.01033
1.00903
1.00771
1.00637
1.00508
1.00383
1.00263
1.00139
0.999957
0.998265
0.996856
0.995762
0.994843
0.993994
0.993074
0.991424
0.989448
0.986799
0.984483
0.983316
0.982394
0.981798
0.98172
0.981933
0.980973
0.978632
0.974538
0.972829
0.971834
0.970159
0.970902
0.972218
1.11544
2.21547
2.42788
2.49113
2.50069
2.50536
2.49366
2.45281
2.40178
2.35645
2.3261
2.30368
2.31515
2.34992
2.39312
2.44403
2.49571
2.53461
2.58221
2.62519
2.67668
2.74558
2.79251
2.81694
2.8448
2.89663
2.93249
2.94976
2.95727
2.97243
3.00188
3.02745
3.04144
3.052
3.0579
3.06344
3.07022
3.07696
3.07753
3.07839
3.08074
3.08328
3.08325
3.08776
3.08489
3.08425
3.07659
3.06678
3.05469
3.03986
3.02646
3.02842
3.03551
3.07308
3.08271
3.07208
2.93596
0.974612
0.962178
0.96792
0.972782
0.974024
0.971679
0.970753
0.971881
0.973298
0.975199
0.977516
0.980057
0.982604
0.984733
0.986308
0.987184
0.987671
0.987903
0.988053
0.987881
0.98787
0.987899
0.987887
0.987871
0.988046
0.988314
0.988521
0.988526
0.988609
0.988481
0.988379
0.988128
0.987827
0.987386
0.986916
0.986414
0.985871
0.985322
0.984838
0.983994
0.982868
0.981943
0.981172
0.980648
0.980561
0.980415
0.979347
0.978197
0.977263
0.976491
0.975683
0.975042
0.974867
0.974925
0.975201
0.973965
0.969767
0.966619
0.965426
0.963017
0.965186
0.965452
1.30487
2.13998
2.26239
2.31236
2.36486
2.39808
2.43759
2.41151
2.41848
2.40448
2.40406
2.44257
2.4933
2.51378
2.57878
2.63614
2.64481
2.6598
2.69041
2.7282
2.76585
2.79808
2.82387
2.8464
2.89021
2.93196
2.9556
2.96624
2.97544
2.99225
3.01806
3.03492
3.04097
3.04509
3.04852
3.06073
3.07127
3.07776
3.07988
3.08086
3.08381
3.0846
3.084
3.08659
3.08121
3.07829
3.06985
3.06144
3.05092
3.03694
3.0233
3.02419
3.03063
3.06446
3.068
3.05097
2.91635
1.01796
1.03423
1.02885
1.0238
1.0224
1.02354
1.02336
1.02271
1.02146
1.01946
1.01694
1.01423
1.01151
1.00903
1.0069
1.00569
1.00483
1.00445
1.0045
1.00478
1.00531
1.00576
1.00578
1.00583
1.00572
1.00542
1.00492
1.0042
1.00333
1.00232
1.00119
1
0.998651
0.997027
0.996133
0.99545
0.99458
0.993547
0.99228
0.99042
0.988165
0.987145
0.986476
0.986188
0.986264
0.985787
0.984269
0.980849
0.978206
0.976923
0.975877
0.975218
0.974908
0.974917
0.975238
0.974061
0.970058
0.967517
0.966186
0.963507
0.967038
0.982835
1.60357
2.07186
2.14395
2.16762
2.2034
2.28092
2.35505
2.45739
2.45661
2.48445
2.5478
2.6022
2.64918
2.68702
2.69446
2.72261
2.7357
2.7436
2.75716
2.77123
2.7938
2.81943
2.83902
2.86865
2.89768
2.91922
2.93277
2.9421
2.95861
2.98851
3.01684
3.03039
3.03308
3.03365
3.05027
3.06972
3.0793
3.0841
3.08733
3.08777
3.08896
3.08687
3.08371
3.0839
3.07622
3.07112
3.06205
3.05444
3.04473
3.03138
3.01838
3.01892
3.02519
3.05442
3.05366
3.0325
2.898
0.976683
0.96227
0.968209
0.974562
0.978836
0.979456
0.980116
0.981263
0.982647
0.984359
0.986356
0.988478
0.990679
0.992733
0.994087
0.994799
0.995136
0.995355
0.995508
0.995734
0.996015
0.996009
0.995848
0.995417
0.995196
0.994936
0.994701
0.994447
0.994144
0.993798
0.99342
0.992962
0.992458
0.992096
0.991548
0.991244
0.991268
0.99033
0.988629
0.987531
0.986464
0.985667
0.985163
0.984949
0.985028
0.984713
0.983378
0.980101
0.976362
0.9748
0.973588
0.972567
0.971389
0.970628
0.970409
0.971044
0.970832
0.967531
0.965738
0.96418
0.966951
1.01742
1.84243
2.06035
2.09494
2.10291
2.13233
2.18144
2.30018
2.43576
2.54972
2.63406
2.69563
2.71302
2.75686
2.76749
2.74901
2.7422
2.75055
2.75909
2.76435
2.77716
2.79995
2.82545
2.85651
2.87973
2.89228
2.90251
2.91367
2.92855
2.95251
2.98565
3.00928
3.01828
3.02355
3.02399
3.04812
3.06772
3.07622
3.08011
3.08737
3.08961
3.09014
3.08609
3.0782
3.07494
3.06604
3.06041
3.05132
3.04409
3.03464
3.02207
3.01041
3.01128
3.01888
3.0428
3.03866
3.01391
2.8786
1.01567
1.02975
1.02506
1.01804
1.01398
1.01285
1.01167
1.0106
1.00954
1.00832
1.00709
1.00579
1.00448
1.0028
1.00181
1.00121
1.0007
1.0005
1.00034
1.00034
1.00031
1.00036
1.00023
1.00016
1.00002
0.999726
0.999431
0.999091
0.99856
0.997845
0.997026
0.996182
0.995331
0.993982
0.99294
0.992206
0.991552
0.990485
0.988596
0.987134
0.986092
0.985316
0.984893
0.984831
0.984298
0.98289
0.98061
0.976943
0.975068
0.973751
0.972414
0.971332
0.970173
0.968856
0.967825
0.967429
0.967523
0.966425
0.963027
0.963426
0.964455
1.21848
1.96196
2.04598
2.05574
2.06046
2.09067
2.16827
2.31878
2.56813
2.67336
2.71865
2.73462
2.75403
2.7729
2.78437
2.77205
2.77378
2.78127
2.78511
2.79369
2.80556
2.82202
2.84285
2.86105
2.87657
2.88542
2.8932
2.90678
2.92722
2.9515
2.97864
2.99673
3.0093
3.01975
3.02338
3.04876
3.06724
3.07492
3.07756
3.08804
3.09228
3.09324
3.08726
3.07437
3.06725
3.05739
3.05195
3.04286
3.03525
3.0252
3.01263
3.00388
3.00553
3.01309
3.03136
3.02475
2.99827
2.85941
0.983021
0.971551
0.977241
0.983076
0.988927
0.991175
0.991719
0.992288
0.992887
0.993676
0.994821
0.996174
0.99779
0.998915
0.999845
1.00013
1.0002
1.00019
1.00008
0.999892
0.999601
0.999139
0.998578
0.998094
0.997734
0.997299
0.996878
0.996435
0.996
0.995538
0.995001
0.994598
0.994012
0.992789
0.991769
0.991129
0.990889
0.990327
0.988814
0.987319
0.986328
0.985683
0.985459
0.985558
0.984867
0.983251
0.980896
0.977619
0.975824
0.974398
0.9733
0.972586
0.972249
0.970681
0.965862
0.962824
0.961142
0.960604
0.960633
0.96539
0.982677
1.60786
2.00752
2.03232
2.02508
2.03191
2.07198
2.17189
2.42205
2.64497
2.73857
2.73431
2.74603
2.76875
2.77823
2.77888
2.78554
2.78618
2.79145
2.80223
2.81349
2.82204
2.83411
2.84709
2.85953
2.86692
2.87362
2.88568
2.90311
2.92417
2.94283
2.96077
2.97481
2.99103
3.00858
3.02252
3.04367
3.06179
3.07116
3.07493
3.08561
3.09013
3.08906
3.0796
3.06534
3.05797
3.04856
3.04312
3.03364
3.02511
3.01436
3.00187
2.99644
2.9991
3.00638
3.0189
3.01037
2.981
2.83917
1.01117
1.02049
1.01621
1.01063
1.00423
1.00317
1.00292
1.00268
1.00219
1.00168
1.00142
1.00108
1.00067
1.00024
0.999766
0.99944
0.99913
0.99904
0.999
0.99887
0.998835
0.998735
0.998727
0.998607
0.998471
0.998307
0.998079
0.997674
0.997258
0.996857
0.996192
0.995608
0.99501
0.994034
0.99255
0.991518
0.990663
0.989804
0.988729
0.987278
0.9859
0.984774
0.984039
0.983761
0.983408
0.982065
0.979477
0.975936
0.973892
0.972109
0.970901
0.970437
0.970741
0.970603
0.966403
0.960685
0.958998
0.957704
0.957716
0.963231
1.05472
1.91058
2.04964
2.05707
2.05507
2.07383
2.13334
2.30247
2.57883
2.74067
2.75933
2.73083
2.72969
2.75003
2.75136
2.75872
2.76875
2.77821
2.79206
2.80148
2.81096
2.82058
2.83154
2.84487
2.85092
2.85235
2.85545
2.86777
2.88922
2.90876
2.92448
2.93758
2.95293
2.97367
2.99625
3.02048
3.03874
3.05598
3.06803
3.07305
3.08202
3.08533
3.08113
3.06836
3.05428
3.04745
3.03801
3.03185
3.02173
3.01288
3.00224
2.99108
2.98985
2.99433
3.00007
3.00718
2.99751
2.9652
2.82016
0.989861
0.983459
0.987807
0.992461
0.995951
0.997389
0.997965
0.998302
0.998546
0.998848
0.999241
0.999827
1.00049
1.00109
1.00141
1.00144
1.00134
1.00117
1.00093
1.00057
1.00018
0.999708
0.99924
0.998818
0.998319
0.997683
0.997212
0.996619
0.995875
0.995255
0.994713
0.994269
0.993502
0.992267
0.990785
0.989612
0.988518
0.987675
0.987085
0.98639
0.984795
0.983039
0.98192
0.981254
0.981062
0.980609
0.978558
0.97569
0.973804
0.971972
0.970459
0.969627
0.969354
0.969404
0.967775
0.960846
0.956322
0.951842
0.954701
0.961584
1.33843
2.02133
2.07649
2.08284
2.08124
2.10959
2.22494
2.48788
2.70695
2.74381
2.75571
2.73466
2.72808
2.74201
2.74958
2.75445
2.76254
2.77483
2.79047
2.7993
2.80587
2.81257
2.82272
2.8351
2.84129
2.84459
2.85094
2.86064
2.877
2.89108
2.90552
2.92054
2.93792
2.95984
2.98317
3.01043
3.02799
3.04221
3.05592
3.06469
3.07218
3.07418
3.06845
3.05618
3.04425
3.03773
3.02858
3.02224
3.01226
3.0039
2.99349
2.98368
2.98523
2.99099
2.99385
2.99604
2.98493
2.94899
2.80008
1.0063
1.01148
1.00814
1.00362
0.9997
0.998971
0.998916
0.999012
0.999175
0.999317
0.999584
0.999801
0.99982
0.999776
0.999688
0.999534
0.99943
0.999277
0.999185
0.999037
0.998981
0.998911
0.998818
0.998696
0.998546
0.998344
0.998093
0.997759
0.997258
0.996739
0.996433
0.996418
0.995947
0.994757
0.993479
0.99238
0.991168
0.990179
0.989487
0.988684
0.987032
0.985243
0.984194
0.98357
0.983065
0.981718
0.979045
0.976368
0.974721
0.973267
0.971503
0.968944
0.966618
0.965131
0.964126
0.96074
0.956889
0.953006
0.955545
0.981995
1.71455
2.07978
2.10153
2.10067
2.11164
2.18018
2.37941
2.63949
2.7825
2.77315
2.77774
2.74892
2.72818
2.73273
2.74092
2.74356
2.74819
2.76321
2.7793
2.78898
2.79837
2.8084
2.82179
2.83786
2.84822
2.85269
2.85675
2.85882
2.86543
2.8739
2.88639
2.90491
2.922
2.94192
2.96706
2.99525
3.01432
3.02667
3.04351
3.054
3.06028
3.06146
3.05572
3.04521
3.0351
3.02839
3.01918
3.01343
3.00391
2.99592
2.98609
2.97777
2.98111
2.98787
2.98781
2.98604
2.97252
2.9318
2.77968
0.994765
0.992286
0.994974
0.998213
0.999774
1.00024
1.00019
1.00004
0.999966
1.00006
1.00033
1.00063
1.00077
1.00086
1.00091
1.00085
1.00072
1.00048
1.00021
0.999908
0.999576
0.99925
0.998953
0.998603
0.998201
0.997737
0.997179
0.996537
0.995839
0.995004
0.994084
0.993328
0.992381
0.990972
0.989927
0.98876
0.987048
0.985819
0.984927
0.984022
0.982237
0.98031
0.978974
0.977984
0.977414
0.977097
0.975353
0.973244
0.971525
0.970185
0.969236
0.967748
0.965134
0.963488
0.962168
0.960364
0.956961
0.954838
0.957308
1.07523
1.96889
2.11636
2.13087
2.14777
2.20852
2.35433
2.6143
2.79049
2.76924
2.76771
2.77657
2.73852
2.71328
2.71226
2.71982
2.72731
2.73791
2.75169
2.76171
2.77282
2.78674
2.80057
2.81389
2.82972
2.84367
2.85163
2.85575
2.85454
2.8548
2.85979
2.87179
2.89061
2.90814
2.92847
2.95388
2.98125
2.99966
3.01127
3.02965
3.04082
3.04728
3.04862
3.04376
3.03487
3.02607
3.01921
3.01047
3.00545
2.99651
2.98858
2.97948
2.97332
2.97812
2.98494
2.98204
2.97649
2.96
2.91493
2.7592
1.00268
1.00544
1.00324
1.0011
0.998901
0.998396
0.998489
0.998677
0.998945
0.999274
0.999689
0.999905
1.00003
1.00005
1.00007
1.00002
0.999887
0.99968
0.999564
0.999423
0.999289
0.999124
0.998968
0.99879
0.99859
0.998381
0.998156
0.997878
0.997498
0.997021
0.996474
0.995909
0.995368
0.994622
0.993917
0.993616
0.992915
0.991538
0.990512
0.989805
0.988904
0.987468
0.986201
0.985253
0.984277
0.982661
0.980158
0.977811
0.976316
0.97481
0.972659
0.969263
0.965991
0.963829
0.961962
0.958536
0.951234
0.952763
0.958334
1.43048
2.03945
2.10734
2.14556
2.20697
2.33133
2.55652
2.78378
2.79534
2.76411
2.77792
2.76406
2.7318
2.71428
2.7124
2.72119
2.73151
2.73609
2.73945
2.74288
2.75739
2.77469
2.78812
2.80447
2.82124
2.83703
2.84794
2.85065
2.84743
2.84276
2.84607
2.85747
2.87546
2.89416
2.91552
2.94208
2.96699
2.98347
2.9955
3.01575
3.02882
3.03692
3.03902
3.03417
3.02572
3.01725
3.01107
3.00371
2.99961
2.99079
2.98218
2.97378
2.96984
2.97555
2.98119
2.97574
2.96678
2.94724
2.8975
2.7389
0.997514
0.997376
0.998585
1.00018
1.00071
1.00053
1.00033
1.00013
0.999957
0.999983
1.0001
1.00023
1.00031
1.00036
1.00036
1.00031
1.00018
0.99997
0.999776
0.99961
0.999417
0.999167
0.998865
0.998482
0.998056
0.997667
0.99726
0.996784
0.996118
0.995213
0.994156
0.993025
0.991804
0.990578
0.989166
0.987693
0.986263
0.984147
0.982799
0.981448
0.979214
0.977428
0.97612
0.974633
0.97201
0.970778
0.969567
0.96848
0.968008
0.968357
0.966675
0.963053
0.96002
0.958331
0.957514
0.957798
0.955641
0.955681
0.989392
1.78772
2.10757
2.15831
2.20077
2.31832
2.52528
2.73716
2.83556
2.80762
2.80177
2.80029
2.76588
2.73752
2.72253
2.72048
2.72884
2.73048
2.72873
2.72579
2.73414
2.74985
2.7634
2.77712
2.79375
2.8106
2.82702
2.83936
2.84165
2.83979
2.83554
2.83604
2.84317
2.85682
2.8745
2.89688
2.92286
2.94531
2.96226
2.97683
3.0005
3.01559
3.02607
3.02927
3.02515
3.01676
3.00819
3.00331
2.9977
2.99426
2.98534
2.97591
2.96886
2.96721
2.97351
2.97693
2.96858
2.95675
2.9349
2.88122
2.71985
1.0008
1.00251
1.00135
1.0002
0.999298
0.999036
0.99909
0.999192
0.99936
0.999569
0.999813
0.99997
1.00007
1.00012
1.00013
1.00008
0.999944
0.999774
0.999672
0.99956
0.99943
0.999255
0.999029
0.998765
0.998472
0.998193
0.997989
0.997909
0.997582
0.996908
0.996227
0.995666
0.995153
0.994696
0.994232
0.993618
0.99318
0.993036
0.992295
0.991305
0.990688
0.990427
0.990498
0.989637
0.988298
0.986719
0.985214
0.983525
0.981378
0.979003
0.976397
0.973474
0.970859
0.967978
0.96464
0.95941
0.957558
0.959789
1.16202
2.04291
2.14285
2.19179
2.31124
2.54619
2.79253
2.86547
2.83035
2.80689
2.81942
2.78949
2.75824
2.73363
2.72384
2.72569
2.72809
2.72207
2.71463
2.71341
2.72235
2.73434
2.74729
2.76021
2.77576
2.79403
2.81276
2.82789
2.83295
2.83279
2.82897
2.82664
2.83054
2.84124
2.857
2.87751
2.90134
2.92174
2.93999
2.95859
2.98557
3.00338
3.01653
3.01979
3.01593
3.00782
3.00005
2.9967
2.99236
2.98916
2.97998
2.97003
2.96453
2.96478
2.97113
2.97184
2.96046
2.94666
2.92292
2.86458
2.70148
0.999006
0.99941
1.00006
1.00058
1.00055
1.00034
1.00008
0.999864
0.99978
0.999796
0.999869
0.999966
1.00002
1.00006
1.00009
1.00005
0.99994
0.999791
0.999663
0.999542
0.999405
0.999195
0.998895
0.998529
0.99813
0.997734
0.997336
0.996877
0.996236
0.99534
0.994262
0.993086
0.991835
0.990473
0.989023
0.987353
0.985467
0.983488
0.981457
0.979119
0.977043
0.974311
0.972112
0.96978
0.96623
0.964859
0.96367
0.9622
0.960494
0.958716
0.957008
0.955707
0.954355
0.951634
0.949787
0.946911
0.951614
0.969191
1.61569
2.12376
2.20152
2.27785
2.50204
2.74469
2.9236
2.90028
2.8339
2.82766
2.82477
2.78717
2.75189
2.73475
2.72887
2.73208
2.72554
2.71527
2.70545
2.70489
2.71267
2.72023
2.73019
2.74138
2.75743
2.77551
2.79542
2.81295
2.82021
2.82253
2.82093
2.81817
2.82007
2.82753
2.83992
2.85699
2.87965
2.8992
2.91884
2.94069
2.97091
2.9913
3.0066
3.00978
3.0068
2.99959
2.99291
2.99093
2.98759
2.9841
2.974
2.96369
2.96007
2.96205
2.96753
2.9654
2.95205
2.93671
2.91141
2.84939
2.68437
1.0002
1.00102
1.00071
1.00024
0.99979
0.999683
0.999627
0.999597
0.999624
0.999712
0.999839
0.999943
0.999982
0.999989
1
0.999973
0.999871
0.999729
0.999625
0.999529
0.999459
0.999289
0.998993
0.99867
0.998376
0.998097
0.997849
0.997618
0.997231
0.996614
0.995974
0.995446
0.994993
0.994602
0.994296
0.994012
0.993784
0.993636
0.993636
0.993617
0.993943
0.994574
0.994794
0.994665
0.995253
0.996192
0.996047
0.994445
0.992635
0.991212
0.989426
0.98732
0.985308
0.98206
0.978218
0.975179
0.978048
1.07593
2.00121
2.19174
2.34315
2.58278
2.80119
2.8801
2.88643
2.84679
2.81876
2.82017
2.80048
2.76766
2.74644
2.73706
2.73806
2.73609
2.72406
2.70847
2.6982
2.6979
2.70362
2.70735
2.70921
2.72047
2.73862
2.75434
2.77435
2.79231
2.80215
2.80882
2.80987
2.80791
2.80849
2.81357
2.82196
2.8353
2.8569
2.8777
2.89873
2.92277
2.95562
2.97812
2.99476
2.99782
2.99699
2.9919
2.98659
2.98575
2.98291
2.97864
2.96705
2.95724
2.95541
2.95863
2.96258
2.95806
2.94323
2.92736
2.90088
2.83401
2.66729
0.999663
0.999961
1.00043
1.00052
1.00044
1.00025
1.00005
0.99978
0.99974
0.999771
0.999826
0.999893
0.999916
0.999913
0.999911
0.999887
0.999808
0.999682
0.999578
0.999475
0.999388
0.999219
0.998901
0.99853
0.998208
0.997879
0.997515
0.997005
0.996291
0.995408
0.994413
0.993331
0.992174
0.990903
0.989441
0.987756
0.985822
0.983628
0.981209
0.978475
0.975367
0.97168
0.968884
0.965851
0.95996
0.956635
0.954674
0.95182
0.949131
0.946429
0.943233
0.94047
0.938739
0.936282
0.929297
0.932386
0.941609
1.45545
2.18103
2.30971
2.50885
2.75247
2.84661
2.82107
2.80206
2.77674
2.76364
2.7652
2.75472
2.73931
2.72946
2.72728
2.7355
2.73114
2.71895
2.6997
2.69313
2.69562
2.69398
2.69384
2.69099
2.70258
2.72131
2.73468
2.75354
2.77091
2.78293
2.79325
2.79674
2.79604
2.7962
2.79927
2.80428
2.81451
2.83423
2.85666
2.87953
2.90526
2.93866
2.96187
2.98003
2.98416
2.98652
2.98462
2.98068
2.98061
2.97776
2.97209
2.95873
2.95049
2.95024
2.95419
2.95606
2.94937
2.93413
2.91867
2.89133
2.81953
2.65045
1.00001
1.00041
1.00044
1.00033
1.00017
1.00006
0.999967
0.999772
0.99975
0.99978
0.999834
0.999904
0.999927
0.999914
0.99987
0.999844
0.9998
0.999697
0.999569
0.999456
0.999377
0.999248
0.99895
0.998589
0.998289
0.998029
0.997824
0.997456
0.996821
0.996153
0.995579
0.995105
0.994702
0.99439
0.994098
0.993909
0.993957
0.99414
0.994564
0.995233
0.996193
0.997591
0.999724
1.00158
1.00399
1.00645
1.00855
1.01043
1.01257
1.0134
1.01292
1.01202
1.01244
1.01277
1.01371
1.01414
1.11626
1.93069
2.41998
2.59561
2.75213
2.8027
2.80818
2.83677
2.8441
2.81477
2.78465
2.77349
2.75834
2.73663
2.7246
2.72289
2.72999
2.7226
2.70541
2.68949
2.6867
2.68839
2.68225
2.67791
2.67886
2.69032
2.70632
2.71611
2.73365
2.75188
2.76566
2.77756
2.78255
2.78397
2.78412
2.78548
2.78843
2.79631
2.81445
2.83785
2.86158
2.88651
2.9191
2.94338
2.96445
2.97061
2.97623
2.97755
2.97497
2.97528
2.97095
2.96431
2.95015
2.94368
2.94453
2.94864
2.94851
2.94032
2.92547
2.91076
2.88213
2.80419
2.63228
0.999856
1.00001
1.0004
1.00048
1.00041
1.00025
1.00009
0.999905
0.999776
0.99978
0.999817
0.999872
0.999893
0.999889
0.999841
0.999797
0.999769
0.999688
0.999561
0.999439
0.99934
0.999171
0.998857
0.998511
0.998231
0.997949
0.997591
0.99703
0.996287
0.995448
0.994584
0.993712
0.992784
0.991739
0.990494
0.988934
0.987055
0.984861
0.982271
0.979331
0.975799
0.971669
0.967459
0.962718
0.956974
0.949035
0.943336
0.938143
0.932634
0.926795
0.920414
0.915809
0.910315
0.898541
0.902116
0.903436
1.66791
2.30438
2.5536
2.6436
2.70965
2.71231
2.72976
2.75161
2.75048
2.72253
2.70992
2.71016
2.71295
2.70842
2.70285
2.70484
2.70763
2.69691
2.67707
2.66972
2.6713
2.67046
2.66679
2.66029
2.66611
2.67517
2.6878
2.69668
2.71334
2.73323
2.74866
2.7614
2.76736
2.77141
2.77218
2.77273
2.77492
2.78092
2.79664
2.81854
2.84103
2.86557
2.89932
2.92462
2.94865
2.95709
2.96618
2.9701
2.96817
2.96789
2.96176
2.95559
2.94203
2.93685
2.93807
2.94207
2.94013
2.93146
2.91752
2.90352
2.87271
2.78853
2.61353
0.99995
1.0001
1.00036
1.0004
1.00035
1.00024
1.00008
0.999976
0.999815
0.999802
0.99983
0.999871
0.999883
0.999881
0.999838
0.999792
0.999763
0.999677
0.999554
0.999446
0.999358
0.999159
0.998838
0.998529
0.998274
0.998085
0.997788
0.997152
0.996401
0.995759
0.995176
0.994688
0.994256
0.993913
0.993615
0.993203
0.993181
0.993304
0.993762
0.99467
0.996041
0.997966
1.00077
1.00487
1.00915
1.01447
1.02207
1.02865
1.03342
1.03854
1.04558
1.05273
1.05732
1.06135
1.07214
1.23123
2.20436
2.75101
2.93703
2.97382
2.97577
2.9584
2.9492
2.92757
2.897
2.83486
2.77846
2.75514
2.73948
2.72318
2.71253
2.71219
2.70453
2.68897
2.6646
2.65648
2.65814
2.65465
2.64888
2.64538
2.65299
2.65799
2.66556
2.67571
2.6915
2.71334
2.73068
2.74414
2.75157
2.7589
2.76026
2.76058
2.76192
2.76517
2.77713
2.79653
2.81938
2.84494
2.88013
2.90598
2.93232
2.94394
2.95656
2.96119
2.95845
2.95827
2.95118
2.94626
2.9343
2.92986
2.9312
2.93476
2.93149
2.92321
2.91028
2.89673
2.86252
2.77126
2.59188
0.999903
1.00002
1.0003
1.00043
1.00041
1.00032
1.00016
1.00002
0.999898
0.999832
0.999832
0.999854
0.99987
0.999866
0.999825
0.999786
0.999755
0.999662
0.999539
0.999451
0.999352
0.999107
0.99877
0.99851
0.998314
0.998056
0.997611
0.996925
0.996153
0.995374
0.99467
0.993999
0.99331
0.992574
0.99166
0.990407
0.9887
0.986643
0.984313
0.981366
0.977705
0.973188
0.968071
0.961635
0.953986
0.943479
0.932786
0.921846
0.908809
0.896508
0.885915
0.875459
0.865444
0.848873
0.880788
1.95905
2.21467
2.34956
2.41579
2.42518
2.43051
2.46443
2.50948
2.56732
2.60462
2.61955
2.64014
2.65947
2.67213
2.67628
2.67635
2.68024
2.67752
2.66709
2.64918
2.64182
2.63971
2.63205
2.62344
2.62769
2.63725
2.64141
2.64143
2.65099
2.66833
2.68998
2.70773
2.72469
2.73549
2.74542
2.74732
2.7469
2.74794
2.74975
2.75836
2.77506
2.79808
2.82421
2.86043
2.88697
2.9153
2.92952
2.94455
2.94889
2.94576
2.94769
2.94079
2.93669
2.92643
2.92221
2.92361
2.92695
2.92329
2.91608
2.90413
2.88973
2.85124
2.75117
2.57053
0.999917
1.00005
1.00025
1.00039
1.00038
1.00032
1.00021
1.00007
0.999959
0.999878
0.99984
0.999848
0.99987
0.999868
0.999831
0.999794
0.999761
0.999662
0.999538
0.99946
0.999366
0.999094
0.998741
0.998479
0.998306
0.998181
0.997616
0.996733
0.996042
0.995379
0.994746
0.994147
0.993604
0.993111
0.992584
0.99188
0.990785
0.990375
0.99042
0.990618
0.991322
0.992532
0.994381
0.997859
1.0026
1.0091
1.01749
1.02818
1.03881
1.04899
1.05874
1.0663
1.07369
1.08616
1.19152
1.43364
2.43401
2.96516
3.18155
3.17168
3.13368
3.0807
3.02222
2.94493
2.88684
2.83075
2.77858
2.7464
2.72803
2.70596
2.68595
2.67653
2.66638
2.65249
2.63655
2.6301
2.62277
2.61294
2.6038
2.60804
2.61631
2.6206
2.61506
2.6243
2.64456
2.66446
2.68044
2.70156
2.7165
2.72823
2.73166
2.73186
2.73302
2.73461
2.74045
2.75448
2.77734
2.80343
2.83948
2.86708
2.8966
2.91305
2.92945
2.93364
2.9314
2.93712
2.93082
2.92741
2.91845
2.91408
2.91598
2.9196
2.9161
2.91028
2.8988
2.88173
2.83802
2.73058
2.54874
0.999922
1.00002
1.00018
1.00036
1.00038
1.00034
1.00025
1.00014
1.00005
0.999937
0.999867
0.999861
0.999867
0.999866
0.999831
0.99979
0.999751
0.999649
0.999527
0.999458
0.999367
0.999081
0.998709
0.998455
0.998278
0.998083
0.997581
0.996743
0.99586
0.995129
0.994402
0.993946
0.993465
0.993024
0.992388
0.991237
0.989529
0.987565
0.985471
0.982923
0.979509
0.97489
0.968596
0.960491
0.950345
0.937622
0.918429
0.89663
0.872343
0.849867
0.826866
0.806816
0.785542
0.768633
1.74006
1.96472
2.16475
2.214
2.2943
2.34162
2.39199
2.46319
2.52614
2.5926
2.64563
2.66627
2.66713
2.67169
2.6696