/*--------------------------------*- C++ -*----------------------------------*\
| =========                 |                                                 |
| \\      /  F ield         | OpenFOAM: The Open Source CFD Toolbox           |
|  \\    /   O peration     | Version:  2.2.x                                 |
|   \\  /    A nd           | Web:      www.OpenFOAM.org                      |
|    \\/     M anipulation  |                                                 |
\*---------------------------------------------------------------------------*/
FoamFile
{
    version     2.0;
    format      ascii;
    class       volScalarField;
    location    "0.15";
    object      divBf;
}
// * * * * * * * * * * * * * * * * * * * * * * * * * * * * * * * * * * * * * //

dimensions      [1 -3 -2 0 0 -1 0];

internalField   nonuniform List<scalar> 
14161
(
399.219
350.812
304.633
260.414
217.912
176.918
137.247
98.7372
61.2505
24.6675
-11.1126
-46.167
-80.5592
-114.325
-147.483
-180.023
-211.907
-243.068
-273.397
-302.744
-330.906
-357.622
-382.556
-405.289
-425.3
-441.948
-454.449
-461.846
-462.98
-456.446
-440.549
-413.245
-372.074
-314.079
-235.708
-132.696
0.067621
168.719
380.613
644.567
971.157
1373.06
1865.51
2466.75
3198.71
-24468.5
-25075.9
-25536.2
-25852.9
-26030
-26071.9
-25983.7
-25770.6
-25438
-24991.6
-24437.5
-23781.4
-23029.7
-22188.2
-21263.4
-20260.9
-19187.8
-18048.7
-16851.8
-15600.8
-14304.6
-12966.1
-11594.8
-10193.9
-8771.19
-7332.98
-5883.37
-4428.93
-2973.8
-1514.25
-82.9977
1333.93
2715.28
4020.21
5233.05
6361.42
7367.49
8246.52
9184.89
10225.2
11202.6
15246.9
7518.31
10622.6
15721.1
14828.1
13916.9
11563.2
9402.62
7328.43
5776.5
4242.71
2629.97
1017.95
-485.249
-2048.79
-3537.53
-5061.85
-6282.67
-7489.3
-8540.51
-9483.12
-10066.6
-10652.7
-10857.8
-10962.6
-10591.7
-10275.4
-9358.5
-8489.03
-7194.31
-2903.75
-6946.94
23619.8
151.514
104.533
58.8804
14.3539
-29.2275
-72.0281
-114.193
-155.855
-197.133
-238.134
-278.949
-319.661
-360.334
-401.021
-441.756
-482.552
-523.402
-564.269
-605.082
-645.735
-686.074
-725.888
-764.899
-802.752
-838.995
-873.059
-904.243
-931.675
-954.291
-970.789
-979.583
-978.749
-965.956
-938.388
-892.645
-824.632
-729.411
-601.05
-432.407
-214.899
61.7903
410.067
844.82
1383.99
2049.09
-21267.5
-21817.2
-22235.9
-22526.2
-22691.1
-22734.1
-22659.1
-22470.4
-22172.2
-21769.6
-21267.2
-20670.3
-19983.8
-19213.3
-18363.6
-17440.9
-16449.8
-15396.6
-14286
-13124.5
-11916.3
-10668.8
-9385.15
-8074
-6737.93
-5386.22
-4020.66
-2650.33
-1280.86
76.8077
1432.3
2764.76
4062.87
5302.38
6521.65
7669
8719.22
9792.05
10978.4
12302
13813.8
15373.8
8077.24
15687.2
9757.69
17493.8
14299.4
13451.2
11321.2
9053.5
7113.16
5420.66
3857.1
2087.98
372.432
-1145.93
-2437.57
-3729.86
-5018.68
-6220.93
-7306.64
-8258.68
-8959.58
-9581.12
-9843.44
-10063.4
-9808.74
-9560.05
-8796.97
-8053.36
-7062.45
-2605.15
-7341.3
21712.1
-91.4704
-135.569
-179.253
-222.642
-265.848
-308.977
-352.132
-395.407
-438.894
-482.68
-526.846
-571.466
-616.61
-662.334
-708.683
-755.69
-803.365
-851.699
-900.652
-950.151
-1000.08
-1050.27
-1100.49
-1150.44
-1199.72
-1247.82
-1294.11
-1337.79
-1377.88
-1413.15
-1442.12
-1462.95
-1473.44
-1470.87
-1451.99
-1412.82
-1348.61
-1253.57
-1120.75
-941.777
-706.554
-402.926
-16.2683
471.032
1080.17
-18494.6
-18985.8
-19359.7
-19618.3
-19763.8
-19799.1
-19727
-19551.5
-19275.7
-18904
-18440
-17888.6
-17253.4
-16540
-15751.8
-14895
-13972.5
-12991.8
-11954.5
-10869.7
-9737.55
-8569.07
-7362.82
-6131.66
-4873.25
-3600.92
-2311.97
-1023.05
275.642
1560.32
2842.61
4094.32
5337.71
6544.55
7736.69
8872.32
10080
11263.2
12245.8
12803.2
12272.6
14226.2
7234.06
16548.8
15649.8
16541.9
14701.7
13647.1
12474.1
11514
9412.63
7547.13
5738.12
4076.57
2438.07
793.067
-723.779
-2244.07
-3613.92
-4878.81
-5982.29
-6944.65
-7684.91
-8390
-8716.67
-8973.42
-8820.3
-8719.15
-8102.35
-7430.62
-6744.43
-2211.45
-7385.43
20428.5
-328.258
-368.148
-408.566
-449.536
-491.092
-533.274
-576.128
-619.71
-664.076
-709.289
-755.413
-802.512
-850.649
-899.883
-950.268
-1001.84
-1054.64
-1108.66
-1163.89
-1220.29
-1277.76
-1336.18
-1395.36
-1455.02
-1514.83
-1574.32
-1632.92
-1689.89
-1744.3
-1795.02
-1840.62
-1879.37
-1909.13
-1927.33
-1930.78
-1915.67
-1877.35
-1810.19
-1707.4
-1560.79
-1360.46
-1094.48
-748.454
-305.077
256.571
-16072.8
-16506.8
-16835.2
-17059.4
-17181.4
-17203.2
-17127.6
-16957.2
-16695.2
-16344.8
-15909.5
-15392.9
-14798.8
-14130.9
-13393.8
-12590.9
-11727.1
-10806.2
-9833.43
-8812.37
-7748.91
-6646.28
-5511.45
-4346.54
-3159.99
-1953.11
-735.003
490.299
1717.31
2933.82
4144.09
5335.78
6520.97
7693.42
8848.23
10010.2
11163.8
12392.9
13247.9
12362.1
12039.7
16608.6
12395.9
15529.4
18396.2
21633.6
17052.1
17052.6
14486.4
13122.1
11083.8
9302.12
7587.1
5713.09
3989.76
2326.04
622.653
-920.085
-2203.35
-3439.24
-4607.56
-5662.37
-6468.44
-7179.54
-7612.42
-7977.04
-7979.15
-7903.61
-7457.92
-6813.74
-6455.35
-1801.87
-7422.42
18637.4
-557.426
-591.942
-627.967
-665.418
-704.238
-744.396
-785.875
-828.681
-872.834
-918.364
-965.315
-1013.74
-1063.68
-1115.2
-1168.36
-1223.2
-1279.75
-1338.05
-1398.08
-1459.83
-1523.23
-1588.19
-1654.53
-1722.03
-1790.37
-1859.16
-1927.84
-1995.74
-2061.98
-2125.49
-2184.92
-2238.6
-2284.49
-2320.07
-2342.29
-2347.42
-2330.93
-2287.33
-2209.98
-2090.84
-1920.19
-1686.31
-1375.03
-969.28
-448.467
-13943.4
-14322.6
-14606.2
-14795.3
-14891.6
-14896.8
-14813
-14642.5
-14388
-14052
-13637.8
-13148
-12586.4
-11955.7
-11260.3
-10502.7
-9688.13
-8818.61
-7900.69
-6935.12
-5930.79
-4886.15
-3813.12
-2707.69
-1584.42
-438.029
715.11
1880.4
3041.73
4202.24
5355.21
6495.65
7621.33
8749.61
9858.93
10991.6
12054.8
12369.8
12121.8
12034.9
13613.8
9645.03
14354.9
18903.7
21008.9
21923.8
18997.6
19211.1
15663.5
14411
12307
10095.1
8268.74
6619.67
4812.87
3007.54
1346.86
-72.9377
-1358.92
-2610.67
-3735.63
-4738.64
-5605.71
-6301.87
-6738.12
-7135.54
-7182.06
-7190.6
-6862.77
-6225.94
-6290.52
-1548.11
-7248.61
16612.6
-777.63
-805.784
-836.473
-869.494
-904.69
-941.946
-981.181
-1022.34
-1065.41
-1110.37
-1157.25
-1206.07
-1256.88
-1309.73
-1364.66
-1421.72
-1480.96
-1542.41
-1606.07
-1671.95
-1740
-1810.13
-1882.21
-1956.03
-2031.33
-2107.72
-2184.71
-2261.65
-2337.72
-2411.9
-2482.9
-2549.11
-2608.56
-2658.82
-2696.91
-2719.21
-2721.29
-2697.79
-2642.18
-2546.58
-2401.43
-2195.2
-1913.93
-1540.78
-1055.45
-12060.7
-12388
-12628.3
-12782.8
-12852.5
-12839.2
-12744.4
-12570.2
-12318.5
-11992.1
-11592.9
-11124.1
-10587.9
-9987.94
-9326.36
-8607.5
-7833.34
-7009.13
-6136.24
-5221.45
-4265.02
-3275.58
-2252.17
-1205.32
-132.967
953.067
2053.96
3161.33
4269.26
5379.48
6473.77
7568.86
8631.47
9707.24
10685.5
11567.3
12044.8
12208.8
12502.7
11251.2
11400.3
7640.73
21831.3
21352.2
24692.2
23843.4
20805.8
20794.4
16810
15941.9
14523.9
12681.3
10520.4
8294.05
6360.4
4584.2
2961.82
1401.61
-70.3173
-1456.29
-2636.92
-3694.78
-4581.79
-5293.94
-5859.4
-6238.43
-6453.22
-6509.27
-6418.97
-5677.08
-6175.56
-1455.88
-7181.29
14611.5
-987.603
-1008.61
-1033.21
-1061.09
-1091.97
-1125.64
-1161.95
-1200.79
-1242.09
-1285.8
-1331.91
-1380.43
-1431.37
-1484.78
-1540.7
-1599.18
-1660.25
-1723.97
-1790.34
-1859.36
-1931.02
-2005.25
-2081.92
-2160.86
-2241.83
-2324.46
-2408.3
-2492.75
-2577.03
-2660.15
-2740.87
-2817.66
-2888.59
-2951.32
-3002.94
-3039.9
-3057.9
-3051.65
-3014.78
-2939.52
-2816.47
-2634.27
-2379.18
-2034.56
-1580.37
-10388
-10666.7
-10866
-10986.9
-11030.3
-10997.6
-10890.1
-10709.6
-10457.8
-10136.9
-9748.53
-9295.65
-8779.85
-8204.52
-7571.4
-6884.47
-6145.23
-5358.88
-4526.01
-3653.75
-2741.2
-1798.06
-821.375
176.385
1199.59
2235
3285.88
4340.52
5398.85
6454.72
7497.84
8535.82
9525.84
10487.8
11371.7
12211
12814.1
13351.2
13702.6
11744.8
10620.6
11347.9
18974.8
23790.7
27436.9
25991.1
22792.4
22378
17678.2
17484.6
15259.2
12985.7
11155.6
9293.85
7476.11
5766.52
4077.84
2579.88
1076.98
-231.434
-1448.55
-2532.85
-3509.69
-4262.65
-4905.15
-5382.7
-5725.41
-5821.14
-5948.49
-5128.93
-6026.56
-1501.35
-7150.16
12677.5
-1186.18
-1199.45
-1217.43
-1239.64
-1265.69
-1295.29
-1328.18
-1364.21
-1403.24
-1445.19
-1490.01
-1537.67
-1588.19
-1641.59
-1697.9
-1757.15
-1819.4
-1884.68
-1953.01
-2024.41
-2098.86
-2176.3
-2256.63
-2339.71
-2425.29
-2513.06
-2602.57
-2693.27
-2784.41
-2875.04
-2963.98
-3049.73
-3130.43
-3203.79
-3266.99
-3316.56
-3348.27
-3356.96
-3336.33
-3278.78
-3175.05
-3013.92
-2781.85
-2462.42
-2035.87
-8896.08
-9129.51
-9290.25
-9379.05
-9396.71
-9344.46
-9223.4
-9035.03
-8780.8
-8462.49
-8081.79
-7640.7
-7141.3
-6585.75
-5976.49
-5315.96
-4606.96
-3852.17
-3055.13
-2218.27
-1346.45
-441.3
490.1
1448.18
2422.37
3416.14
4415.59
5425.56
6432.83
7436.48
8429.87
9401.64
10343.5
11254.6
12146.8
12991.7
13742.7
14263.6
15171.3
15693.1
22280
-945.422
18212.1
24248.3
28995.2
26407.9
23614.7
22475.4
18730.9
18506.9
15904.2
14388.7
12145.7
10258.2
8300.71
6483.33
4814.61
3321.71
1902.44
524.988
-732.408
-1749.01
-2735.75
-3473.14
-4172.32
-4646.26
-5082.94
-5201.47
-5562.32
-4633.29
-5847.34
-1616.02
-7117.58
10853.3
-1372.29
-1377.47
-1388.48
-1404.69
-1425.6
-1450.78
-1479.94
-1512.82
-1549.23
-1589.06
-1632.21
-1678.63
-1728.32
-1781.26
-1837.49
-1897.04
-1959.94
-2026.23
-2095.94
-2169.09
-2245.66
-2325.6
-2408.85
-2495.24
-2584.58
-2676.56
-2770.77
-2866.67
-2963.56
-3060.52
-3156.4
-3249.76
-3338.79
-3421.27
-3494.43
-3554.88
-3598.47
-3620.14
-3613.72
-3571.69
-3484.94
-3342.43
-3130.78
-2833.8
-2431.94
-7560.76
-7752.29
-7876.95
-7935.43
-7928.45
-7856.92
-7721.93
-7524.68
-7266.45
-6948.64
-6572.89
-6140.73
-5654.11
-5114.83
-4525.12
-3887.07
-3203.5
-2476.38
-1709.66
-904.929
-67.4777
801.554
1695.47
2613.31
3548.19
4497.15
5455.28
6417.79
7378.97
8334.92
9277.9
10206.9
11122.2
12001.7
12878.8
13708.1
14515.7
15529.9
16360.3
15209.1
19497.3
14193.3
15889.7
23140.9
28125.9
25489.1
23337.7
21714.9
18845.9
18728.5
16159.9
15157.3
13011.9
11315.7
9402.05
7655.95
5941.06
4389.2
2815.7
1527.46
307.607
-729.89
-1793.17
-2591.28
-3378.12
-3934.75
-4474.9
-4598.09
-5162.87
-4214.21
-5636.77
-1767.1
-7068.08
9124.96
-1545
-1541.94
-1545.83
-1555.89
-1571.49
-1592.1
-1617.33
-1646.87
-1680.46
-1717.93
-1759.17
-1804.08
-1852.64
-1904.82
-1960.63
-2020.09
-2083.25
-2150.12
-2220.74
-2295.13
-2373.28
-2455.15
-2540.67
-2629.72
-2722.1
-2817.52
-2915.6
-3015.83
-3117.51
-3219.8
-3321.56
-3421.4
-3517.55
-3607.85
-3689.6
-3759.48
-3813.42
-3846.44
-3852.47
-3824.12
-3752.43
-3626.49
-3433.08
-3156.27
-2776.69
-6362.05
-6514.91
-6606.05
-6636.1
-6605.58
-6515.49
-6366.5
-6159.84
-5896.41
-5577.71
-5204.65
-4779.23
-4302.35
-3776.49
-3202.71
-2584.02
-1921.49
-1219.09
-477.75
297.418
1105.91
1940.72
2802.63
3682.29
4581.27
5489.46
6408.19
7326.01
8245.53
9155.21
10056
10932.1
11814.5
12640.1
13476.8
14095.1
14406.8
14136.4
12097.6
10268.2
8153.08
26404.4
27445.1
26891.6
25999.2
24677.3
22710.2
21112.7
18469.7
18416.7
16371.9
15145.9
13211
11632.5
9800.82
8116.67
6386.7
4913.84
3360.26
2146.73
925.599
-75.4872
-1135.82
-1912.26
-2762.41
-3271.96
-3967.67
-4030.18
-4796.05
-3834.41
-5403.09
-1925.84
-6967.31
7536.44
-1703.48
-1692.23
-1689.04
-1692.97
-1703.26
-1719.28
-1740.54
-1766.66
-1797.33
-1832.33
-1871.51
-1914.75
-1961.98
-2013.16
-2068.31
-2127.41
-2190.51
-2257.63
-2328.78
-2404.01
-2483.29
-2566.61
-2653.9
-2745.04
-2839.85
-2938.06
-3039.32
-3143.12
-3248.81
-3355.56
-3462.28
-3567.63
-3669.87
-3766.89
-3856.06
-3934.13
-3997.09
-4040.07
-4057.1
-4040.89
-3982.6
-3871.48
-3694.52
-3435.92
-3076.62
-5283.23
-5400.5
-5460.56
-5464.05
-5411.38
-5303.41
-5140.68
-4924.38
-4655.04
-4334.17
-3962.44
-3541.59
-3072.49
-2557.28
-1996.96
-1394.26
-750.363
-68.684
649.425
1399.67
2180.34
2986.78
3816.1
4664.08
5526.39
6399.36
7277.16
8156.32
9032.33
9896.37
10752.5
11574.5
12384.7
13140.7
13854.6
14300.3
14661.3
15141.2
13510.7
13946.8
17632.8
25763.7
33814.2
34291.5
28035.9
24890.7
22176
20929.1
17739.6
17793.2
16132.6
14885.3
13325.8
11871.9
10283.5
8793.19
7128.04
5672.44
4259.79
3079.11
1799.98
756.372
-372.139
-1119.57
-2086.21
-2613.25
-3424.47
-3477.67
-4360.33
-3551.94
-5136.31
-2094.06
-6831.62
6029.69
-1847.03
-1827.85
-1817.79
-1815.77
-1820.88
-1832.4
-1849.76
-1872.5
-1900.26
-1932.76
-1969.82
-2011.29
-2057.08
-2107.14
-2161.44
-2219.98
-2282.79
-2349.88
-2421.28
-2497.01
-2577.06
-2661.43
-2750.04
-2842.79
-2939.52
-3039.97
-3143.8
-3250.53
-3359.54
-3470.01
-3580.92
-3690.91
-3798.35
-3901.15
-3996.73
-4081.92
-4152.78
-4204.52
-4231.27
-4225.87
-4179.6
-4081.84
-3919.76
-3677.77
-3337.04
-4310.14
-4394.62
-4425.99
-4404.74
-4331.27
-4206.25
-4030.27
-3804.15
-3528.6
-3204.57
-2833.03
-2415.17
-1952.07
-1445.36
-896.336
-307.057
320.649
984.413
1681.76
2409.82
3165.44
3945.44
4745.68
5562.79
6392.34
7229.47
8070.68
8910.26
9743.23
10564.9
11374.5
12158.4
12917.9
13648.2
14340.4
14935.2
15296
16096.2
16914.6
20476.5
15889.3
23166.7
34467.5
35372.3
27239.8
24562.6
21606.2
20664.2
17370.8
17501.9
15943.9
14575
13604.1
11928
10465.6
8954.9
7373.59
6069.42
4707.72
3535.31
2249.83
1289.02
197.81
-540.224
-1584.59
-2042.53
-2903.87
-2997.71
-3945.82
-3334.49
-4890.04
-2208.26
-6599.22
4636.04
-1975.1
-1948.41
-1931.85
-1924.18
-1924.38
-1931.62
-1945.24
-1964.71
-1989.64
-2019.7
-2054.66
-2094.34
-2138.64
-2187.48
-2240.83
-2298.66
-2361
-2427.86
-2499.26
-2575.22
-2655.75
-2740.82
-2830.38
-2924.34
-3022.54
-3124.74
-3230.62
-3339.72
-3451.44
-3565
-3679.38
-3793.31
-3905.15
-4012.89
-4114.01
-4205.37
-4283.15
-4342.63
-4378.02
-4382.28
-4346.8
-4261.16
-4112.64
-3885.88
-3562.26
-3430.62
-3485.04
-3489.89
-3445.69
-3352.71
-3211.63
-3022.81
-2787.05
-2504.86
-2177.28
-1804.84
-1388.92
-930.217
-430.48
109.29
686.85
1300.81
1948.35
2627.58
3335.04
4068.28
4823.06
5596.7
6383.99
7182.08
7984.97
8790.18
9590.15
10384.5
11164.8
11932.1
12682.3
13404.7
14117
14744.9
15240.8
15854.9
15225.4
14296.9
16342.6
18701.1
26756.5
32968.8
30777
25661.7
22717.6
20217.1
19910.3
16612.9
16862.5
15425.2
14249.7
13626.6
11947.5
10673.8
9283.52
7829.83
6589.95
5186.82
4050.5
2801.34
1913.33
798.431
-46.6275
-1050.99
-1500.72
-2394.98
-2537.98
-3531.1
-3139.46
-4630.18
-2296.87
-6310.25
3299.65
-2087.26
-2053.65
-2031.11
-2018.22
-2013.86
-2017.11
-2027.24
-2043.66
-2065.9
-2093.62
-2126.55
-2164.49
-2207.29
-2254.88
-2307.2
-2364.23
-2425.97
-2492.43
-2563.64
-2639.61
-2720.35
-2805.83
-2896.03
-2990.84
-3090.12
-3193.65
-3301.12
-3412.09
-3525.99
-3642.06
-3759.31
-3876.51
-3992.07
-4104.02
-4209.89
-4306.62
-4390.45
-4456.74
-4499.82
-4512.74
-4487.04
-4412.4
-4276.31
-4063.6
-3755.9
-2634.29
-2661.07
-2641.49
-2575.99
-2464.82
-2308.54
-2107.43
-1862.27
-1573.38
-1241.73
-867.776
-452.735
2.64738
496.817
1028.74
1596.27
2198.02
2831.24
3493.85
4182.66
4894.62
5626.53
6373.96
7133.83
7900.63
8671.72
9440.42
10204.9
10959.6
11700.5
12420.8
13124.5
13787.2
14402.3
14802.9
15073.5
15147.9
13920.5
12141.1
19850.1
36386.8
39973.7
37884.3
29228.4
24528.4
21937.9
19371.9
19339.4
16192.3
16530.8
14986.1
14067.2
13341.6
11889.7
10735.1
9455.19
8118.06
6977.22
5668.52
4625.74
3410.88
2488.3
1291.5
523.844
-467.409
-995.031
-1883.38
-2131.79
-3165.88
-3021.35
-4280.25
-2393.21
-5865.69
2067.31
-2183.23
-2143.44
-2115.51
-2097.94
-2089.47
-2089.11
-2096.06
-2109.67
-2129.44
-2154.98
-2185.99
-2222.25
-2263.61
-2309.94
-2361.21
-2417.37
-2478.41
-2544.36
-2615.22
-2691
-2771.73
-2857.38
-2947.93
-3043.27
-3143.29
-3247.77
-3356.42
-3468.82
-3584.42
-3702.48
-3822.06
-3941.94
-4060.6
-4176.09
-4286.02
-4387.39
-4476.5
-4548.81
-4598.74
-4619.43
-4602.57
-4538
-4413.36
-4213.66
-3920.79
-1912.13
-1913.5
-1871.39
-1786.17
-1658.02
-1487.43
-1274.67
-1020.33
-724.76
-388.742
-12.7933
402.022
855.017
1344.66
1869.88
2428.69
3019.5
3639.66
4286.98
4958.18
5650.49
6359.65
7082.52
7814.59
8551.71
9289.52
10024.1
10750.4
11465.8
12162.3
12835.9
13474.1
14087.6
14664.5
15184.6
15629.3
16009.4
16145.7
17553
23040
30657
41845.1
37129.1
27754.2
23571.7
20808.6
18126.9
18180.1
15273.6
15706.3
14326.7
13532.1
12983.5
11729.1
10659.5
9449.62
8193.94
7080.11
5847.94
4871.82
3667.31
2747.41
1698.4
960.172
-10.4027
-562.264
-1458.03
-1812.69
-2818.11
-2843.05
-3911.69
-2508.62
-5396.34
909.701
-2262.85
-2217.72
-2185.14
-2163.48
-2151.41
-2147.88
-2152.01
-2163.12
-2180.66
-2204.21
-2233.46
-2268.15
-2308.12
-2353.24
-2403.45
-2458.7
-2518.98
-2584.3
-2654.68
-2730.13
-2810.65
-2896.25
-2986.89
-3082.5
-3182.94
-3288.04
-3397.49
-3510.91
-3627.77
-3747.36
-3868.77
-3990.81
-4112
-4230.45
-4343.81
-4449.14
-4542.85
-4620.45
-4676.46
-4704.16
-4695.34
-4639.98
-4525.91
-4338.34
-4059.39
-1256.28
-1234.29
-1171.4
-1067.89
-923.926
-739.944
-516.063
-252.925
49.2717
389.723
768.074
1183.19
1634.44
2120.33
2639.78
3190.74
3771.59
4379.7
5012.63
5667.21
6340.3
7027.87
7726.69
8431.79
9139.46
9844.9
10544.7
11232
11905.6
12558.9
13195
13803.3
14394.2
14962.9
15458.4
15915
16338.6
17517.1
25460.2
18252.2
33310.5
38396.4
31516.2
25247.7
21739.9
19527.6
17134.9
17229.3
14995
15308.2
13895.5
13246.6
12685.1
11569
10608.1
9536.02
8429.63
7376.31
6255.19
5298.87
4128.05
3224.02
2221.19
1452.99
481.921
-129.895
-1032.5
-1502.76
-2456.25
-2604.97
-3518.06
-2559.66
-4885.2
-95.3116
-2326.13
-2276.57
-2240.12
-2215.05
-2199.96
-2193.72
-2195.43
-2204.37
-2219.96
-2241.75
-2269.4
-2302.66
-2341.33
-2385.29
-2434.45
-2488.78
-2548.25
-2612.87
-2682.66
-2757.63
-2837.79
-2923.14
-3013.65
-3109.26
-3209.85
-3315.24
-3425.16
-3539.24
-3656.96
-3777.65
-3900.42
-4024.14
-4147.34
-4268.19
-4384.41
-4493.13
-4590.78
-4673.02
-4734.44
-4768.43
-4766.91
-4720.01
-4615.73
-4439.51
-4173.65
-659.841
-616.403
-534.316
-413.886
-255.209
-58.6027
175.719
447.335
755.961
1100.94
1481.81
1897.59
2347.59
2830.26
3344.56
3888.33
4459.88
5056.43
5675.56
6313.9
6967.99
7633.38
8307.69
8985.79
9662.82
10336
10998.6
11647.3
12277.1
12885.5
13476.9
14050.4
14617.7
15147.8
15464.6
15725.6
15778.5
14643.7
24537.5
35309.7
43376.7
39041.9
28402.7
23311.8
19808
17965.1
15773.9
16062
14224.3
14422
13196.1
12713.2
12109.7
11231
10294.5
9312.61
8303.64
7341.65
6291.94
5370.28
4339.38
3519.6
2542.21
1770.32
837.834
200.554
-657.097
-1253.93
-2095.06
-2363.15
-3146.22
-2582.55
-4376.38
-963.023
-2373.18
-2320.2
-2280.71
-2252.93
-2235.41
-2226.98
-2226.7
-2233.82
-2247.75
-2268.02
-2294.27
-2326.23
-2363.71
-2406.57
-2454.73
-2508.13
-2566.76
-2630.62
-2699.72
-2774.08
-2853.73
-2938.65
-3028.83
-3124.21
-3224.68
-3330.08
-3440.16
-3554.55
-3672.77
-3794.16
-3917.88
-4042.81
-4167.54
-4290.3
-4408.84
-4520.36
-4621.4
-4707.66
-4773.85
-4813.48
-4818.6
-4779.48
-4684.31
-4518.68
-4265.22
-116.824
-53.6158
46.1576
182.27
354.69
563.037
807.289
1086.93
1401.8
1751.18
2134.7
2551.31
3000.31
3480.14
3989.61
4526.55
5089.21
5674.46
6279.62
6901.96
7537.7
8183.33
8833.76
9484.75
10133.4
10773.2
11401.4
12012.5
12606.3
13181.2
13746.6
14267.1
14720.5
15061.7
15383.5
15718.7
16454.8
19061.4
23452.5
37430.5
42726.8
33401.3
25867.6
21776.1
18459.9
16714.8
14527.8
14818.5
13344.7
13505.4
12395.7
12095.6
11523.4
10833.1
10005.8
9193.91
8272.24
7416.12
6423.95
5519.14
4558.71
3801.98
2826.49
2076.5
1170.26
505.747
-327.182
-912.427
-1687.54
-2126.45
-2813.73
-2569.06
-3883.55
-1706.48
-2404.28
-2348.88
-2307.21
-2277.45
-2258.12
-2248.02
-2246.19
-2251.87
-2264.44
-2283.43
-2308.48
-2339.31
-2375.71
-2417.55
-2464.74
-2517.23
-2574.99
-2638.03
-2706.37
-2780.03
-2859.01
-2943.35
-3033
-3127.94
-3228.05
-3333.2
-3443.13
-3557.51
-3675.88
-3797.6
-3921.86
-4047.58
-4173.41
-4297.59
-4417.95
-4531.76
-4635.64
-4725.36
-4795.74
-4840.4
-4851.54
-4819.56
-4732.84
-4577.18
-4335.41
378.096
459.511
575.642
726.29
911.433
1130.84
1384.36
1671.64
1992.41
2346.09
2732.18
3149.7
3597.76
4074.88
4579.73
5109.89
5663.44
6237.74
6830.32
7436.14
8053.17
8676.01
9301.97
9925.26
10543.9
11149.4
11744
12317.6
12879
13410.6
13930.5
14373.8
14759.6
15128.5
15592.9
16454.5
18463.8
24465.2
28699.7
39078.3
40007.6
28258.7
23117.4
19257.2
16794.7
15353.9
13436
13941.8
12654.7
12779.3
11878.1
11657.2
11068.1
10544.4
9736.86
9026.67
8165.31
7413.78
6504.85
5697.55
4799.13
4032.95
3108.55
2384
1553.14
772.279
11.2893
-638.37
-1322.63
-1921.32
-2460.63
-2488.8
-3421.45
-2293.84
-2419.8
-2363.01
-2320.04
-2289.03
-2268.5
-2257.26
-2254.32
-2258.92
-2270.45
-2288.42
-2312.47
-2342.32
-2377.77
-2418.67
-2464.94
-2516.53
-2573.41
-2635.6
-2703.1
-2775.94
-2854.16
-2937.75
-3026.7
-3120.99
-3220.52
-3325.16
-3434.67
-3548.74
-3666.93
-3788.63
-3913.05
-4039.17
-4165.65
-4290.8
-4412.52
-4528.13
-4634.31
-4726.95
-4800.97
-4850.1
-4866.66
-4841.24
-4762.34
-4616.03
-4385.35
829.611
927.829
1059.04
1223.19
1420.18
1649.86
1912.08
2206.52
2532.91
2890.62
3279.13
3697.41
4144.55
4618.85
5118.77
5642.35
6187.31
6750
7328.33
7917.59
8515.46
9116.47
9717.55
10313.6
10900.8
11475.7
12033
12572.1
13087.1
13575.9
14023.8
14455.9
14815.7
15311
15895.9
17096.1
19707.6
25043.7
38886.5
42692.3
32625.8
24844.6
20488.9
17375.4
15140.2
13903.1
12168
12894.6
11650.9
11776.3
11032.2
10897.8
10370.2
10024.1
9263.95
8688.21
7866.55
7205.79
6358.43
5643.19
4817.67
4060.68
3243.21
2507.61
1724.33
986.75
304.603
-367.997
-1005.44
-1628.51
-2075.02
-2437.81
-2949.05
-2757.12
-2420.25
-2363.08
-2319.65
-2288.11
-2267.01
-2255.13
-2251.53
-2255.42
-2266.21
-2283.41
-2306.67
-2335.71
-2370.32
-2410.37
-2455.77
-2506.47
-2562.47
-2623.75
-2690.36
-2762.3
-2839.62
-2922.32
-3010.42
-3103.86
-3202.6
-3306.48
-3415.31
-3528.79
-3646.48
-3767.82
-3892.05
-4018.17
-4144.9
-4270.6
-4393.21
-4510.14
-4618.14
-4713.19
-4790.31
-4843.36
-4864.77
-4845.32
-4773.69
-4636.12
-4415.95
1241.87
1355.57
1500.76
1677.36
1885.38
2124.59
2394.95
2696.06
3027.66
3389.09
3779.77
4198.59
4644.42
5115.81
5611
6127.34
6662.72
7213.74
7777.58
8350.01
8927.57
9505.7
10080.7
10647.9
11203.6
11744.9
12265.2
12767.8
13239.6
13697.8
14111.8
14553.9
14956.2
15370.6
15970.9
17513
19169.6
33049.5
44285.8
40933
27015.2
22450.4
18407.5
15855.7
13771.3
12557
10921.3
11735.9
10558.6
10773.6
10263.5
10250.7
9720.4
9509.9
8792.26
8341.38
7620.16
7093.44
6339.02
5701.82
4971.47
4239.33
3500.33
2738.75
2041.88
1306.97
625.744
-56.6102
-724.43
-1374.25
-1700.98
-2293.54
-2534.99
-3125.67
-2406.26
-2349.67
-2306.59
-2275.23
-2254.13
-2242.13
-2238.27
-2241.82
-2252.16
-2268.84
-2291.51
-2319.88
-2353.78
-2393.06
-2437.64
-2487.49
-2542.59
-2602.94
-2668.58
-2739.54
-2815.86
-2897.54
-2984.61
-3077.04
-3174.77
-3277.68
-3385.57
-3498.17
-3615.07
-3735.74
-3859.43
-3985.18
-4111.77
-4237.6
-4360.66
-4478.45
-4587.78
-4684.74
-4764.43
-4820.86
-4846.6
-4832.54
-4767.6
-4638.21
-4427.95
1618.54
1746.54
1904.64
2092.79
2310.99
2559.09
2836.94
3144.23
3480.58
3845.35
4237.77
4656.81
5101.27
5569.19
6058.86
6567.65
7093.08
7631.64
8180.14
8734.52
9291.05
9845.15
10393.7
10930.6
11455.6
11959.8
12448.9
12909.9
13354.8
13772.5
14168.5
14488.3
14808.5
15220.1
16290.1
20675.6
22795
38764.6
40223.7
31335.1
23745
19568.2
16124.7
14071.1
12371.4
11394.7
9992.55
10629.5
9624.88
9829.53
9468.86
9521.46
9012.26
8966.55
8276.69
7933.38
7262.1
6810.75
6110.35
5555.63
4899.94
4213.17
3541.04
2788.09
2164.97
1445.65
817.611
147.297
-477.048
-1062.16
-1346.11
-2171.41
-2107.22
-3303.54
-2378.53
-2323.44
-2281.49
-2250.95
-2230.42
-2218.76
-2215.06
-2218.59
-2228.77
-2245.17
-2267.42
-2295.29
-2328.58
-2367.18
-2411
-2460.01
-2514.2
-2573.59
-2638.22
-2708.11
-2783.31
-2863.85
-2949.75
-3040.99
-3137.52
-3239.22
-3345.94
-3457.4
-3573.23
-3692.9
-3815.71
-3940.74
-4066.8
-4192.35
-4315.45
-4433.63
-4543.84
-4642.2
-4723.97
-4783.23
-4812.73
-4803.53
-4744.69
-4622.9
-4421.99
1962.91
2104.08
2274.09
2472.93
2700.54
2956.83
3241.6
3554.5
3895.13
4262.73
4656.58
5075.34
5517.69
5981.71
6465.34
6965.87
7480.43
8005.61
8537.9
9073.03
9607.65
10136.4
10656.8
11163.1
11654.3
12124.3
12575.6
12999.7
13404.7
13772.8
14132.5
14477
14936.1
15665.7
17546.4
19057.5
32125.4
44331.9
38668.2
24507.6
20266.7
16522.8
14005.7
12181.5
10837.2
10088.5
9100.92
9199.7
8543.44
8784.53
8569.24
8773.85
8327.79
8380.92
7749.21
7531.11
6906.45
6551.09
5940.33
5483.27
4910.2
4291.42
3701.91
3008.73
2425.75
1724.79
1133.74
448.935
-191.02
-771.818
-1051.39
-1964.9
-1707.15
-3370.65
-2337.88
-2285.11
-2245.01
-2215.9
-2196.46
-2185.58
-2182.4
-2186.23
-2196.52
-2212.84
-2234.87
-2262.37
-2295.17
-2333.15
-2376.25
-2424.44
-2477.73
-2536.13
-2599.68
-2668.43
-2742.42
-2821.7
-2906.28
-2996.16
-3091.29
-3191.6
-3296.91
-3406.97
-3521.44
-3639.82
-3761.42
-3885.39
-4010.54
-4135.42
-4258.12
-4376.27
-4486.85
-4586.14
-4669.45
-4731.04
-4763.75
-4758.83
-4705.52
-4590.74
-4398.57
2277.83
2431.17
2612.19
2820.86
3057.15
3320.94
3612
3929.94
4274.28
4644.24
5038.86
5456.77
5896.48
6355.86
6832.68
7323.98
7826.88
8337.5
8852.4
9367.22
9878.19
10380.6
10871.7
11345.8
11802.8
12237.4
12648.6
13038.2
13397.9
13742.4
14069.1
14359.5
14687.5
15521.7
18485
17640.1
43637.2
43148.1
31280.4
21490
17850.9
14493.6
12308.5
10765.5
9567.89
8955.63
8503.72
7862.69
7682.91
7873.73
7792.08
7969.34
7540.3
7868.24
7193.28
7088.11
6508.02
6212.82
5665.19
5279.36
4773.68
4230.64
3688.41
3050.73
2478.8
1806.75
1239.07
564.193
20.7053
-485.307
-728.032
-1708.13
-1388.9
-3354.53
-2285.2
-2235.51
-2197.88
-2170.75
-2152.85
-2143.16
-2140.85
-2145.27
-2155.9
-2172.35
-2194.32
-2221.58
-2253.98
-2291.42
-2333.84
-2381.24
-2433.6
-2490.98
-2553.41
-2620.94
-2693.63
-2771.52
-2854.65
-2943.01
-3036.58
-3135.27
-3238.94
-3347.37
-3460.21
-3576.99
-3697.08
-3819.62
-3943.52
-4067.32
-4189.21
-4306.87
-4417.38
-4517.09
-4601.45
-4664.79
-4700.17
-4698.93
-4650.57
-4542.18
-4358.12
2565.88
2730.45
2921.59
3139.31
3383.55
3654.14
3950.87
4273.24
4620.7
4992.35
5387.11
5803.51
6239.79
6693.7
7162.77
7643.89
8133.85
8628.77
9124.98
9618
10104
10579.1
11038.4
11481
11900.4
12299.6
12672.6
13020.4
13338.6
13645.8
13910.2
14281.4
14931.8
16703
20698.7
29983
44408.1
33987.9
22900
18069
15389.2
12723.3
10807.8
9396.31
8278.37
7627.59
7587.89
6500.56
6669.67
6792.63
7016.11
7170.49
6859.6
7262.15
6619.62
6585.64
6065.21
5832.16
5370.19
5065.92
4631.4
4196.83
3734.07
3167.65
2674.48
2070.99
1553.76
865.181
355.926
-156.79
-489.971
-1440.23
-1075.93
-3302.25
-2221.44
-2175.47
-2140.87
-2116.2
-2100.27
-2092.11
-2090.97
-2096.24
-2107.43
-2124.19
-2146.24
-2173.38
-2205.47
-2242.43
-2284.21
-2330.82
-2382.27
-2438.59
-2499.84
-2566.09
-2637.38
-2713.78
-2795.31
-2882
-2973.82
-3070.71
-3172.53
-3279.07
-3390.02
-3504.93
-3623.18
-3743.98
-3866.24
-3988.59
-4109.25
-4225.98
-4335.95
-4435.58
-4520.44
-4585.01
-4622.43
-4624.32
-4580.25
-4477.62
-4301.04
2829.36
3004.26
3204.69
3430.67
3682.15
3958.89
4260.6
4586.74
4936.66
5309.31
5703.53
6117.57
6549.55
6997.08
7457.28
7927.07
8402.84
8880.71
9356.7
9826.59
10286.2
10731.8
11159.7
11567.3
11951
12311.1
12645.1
12957.8
13250
13534.9
13811.9
14032.3
14480.7
15871.4
18998.4
44111.2
46361.4
29270.1
18657
15552.8
12988.4
10996.9
9444.61
8275.79
7266.17
6615.89
6849.91
5570.55
5785.47
5880.93
6227.48
6350.82
6214.2
6562.43
6029.16
6064.47
5620.17
5465.77
5081.56
4844.07
4481.63
4111.88
3702.3
3173.3
2694.87
2110.79
1585.25
954.647
552.065
56.4748
-142.088
-1128.64
-778.222
-3217.24
-2147.62
-2105.9
-2074.81
-2053
-2039.38
-2033.07
-2033.37
-2039.7
-2051.65
-2068.87
-2091.13
-2118.25
-2150.1
-2186.64
-2227.81
-2273.64
-2324.15
-2379.39
-2439.42
-2504.31
-2574.11
-2648.9
-2728.72
-2813.59
-2903.5
-2998.39
-3098.15
-3202.57
-3311.38
-3424.13
-3540.25
-3658.96
-3779.23
-3899.73
-4018.75
-4134.11
-4243.05
-4342.1
-4426.92
-4492.14
-4531.05
-4535.38
-4494.98
-4397.42
-4227.61
3070.29
3254.64
3463.59
3697.11
3955.08
4237.26
4543.28
4872.49
5224.16
5597.09
5989.84
6400.76
6827.46
7267.42
7717.76
8174.79
8635.08
9094.48
9548.73
9993.96
10425.8
10840.7
11235.6
11607.3
11956
12277.4
12578.2
12851.1
13098.6
13283.2
13496.5
13792
14855.3
18682.9
26063
44617.6
33752.2
23980.5
15620.6
13140.4
11021.5
9485.91
8214.38
7162.01
6295.66
5468.77
5710.36
4756.61
4919.95
4925.49
5381.48
5540.53
5594.33
5894.81
5442.39
5497.33
5122.7
5026.28
4701.5
4532.39
4248.55
3965.16
3635.3
3221.38
2842.12
2355.54
1912.35
1348.27
915.685
352.521
130.44
-931.806
-481.291
-3155.87
-2064.76
-2027.73
-2000.53
-1981.92
-1970.91
-1966.7
-1968.64
-1976.24
-1989.09
-2006.92
-2029.5
-2056.68
-2088.36
-2124.51
-2165.1
-2210.16
-2259.72
-2313.84
-2372.6
-2436.05
-2504.29
-2577.36
-2655.34
-2738.25
-2826.08
-2918.8
-3016.28
-3118.37
-3224.77
-3335.09
-3448.77
-3565.08
-3683.01
-3801.27
-3918.24
-4031.77
-4139.19
-4237.14
-4321.4
-4386.66
-4426.42
-4432.56
-4395.12
-4301.91
-4138.11
3290.44
3483.47
3700.15
3940.45
4204.21
4491.13
4800.73
5132.36
5484.88
5857.31
6247.8
6654.39
7074.87
7506.15
7945.14
8388.31
8831.5
9270.88
9702.08
10120.9
10523.7
10906.5
11267.4
11603.1
11913.9
12198.2
12459.1
12691.4
12915.7
13129.4
13393.6
13943.1
15476.7
20264.8
34173.3
44740
26351.9
17637.1
12828.3
11041.9
9250.84
8080.43
7055.75
6187.84
5384.93
4556.83
4757.82
4145.42
4166.15
4116.03
4532.89
4665.91
4944.59
5198.28
4830.33
4926.79
4653.66
4632.43
4390.57
4298.39
4096.39
3866.33
3601.48
3212.36
2860.94
2366.36
1887.77
1405.38
999.974
630.451
379.027
-582.774
-108.417
-3104.95
-1973.94
-1941.92
-1918.89
-1903.74
-1895.57
-1893.66
-1897.43
-1906.43
-1920.33
-1938.87
-1961.85
-1989.16
-2020.73
-2056.53
-2096.55
-2140.83
-2189.43
-2242.4
-2299.82
-2361.78
-2428.36
-2499.62
-2575.64
-2656.44
-2742.04
-2832.4
-2927.42
-3026.95
-3130.71
-3238.33
-3349.28
-3462.84
-3578.08
-3693.74
-3808.21
-3919.47
-4024.9
-4121.22
-4204.31
-4269.03
-4308.97
-4316.22
-4281.01
-4191.38
-4032.8
3491.45
3692.35
3916.03
4162.38
4431.21
4722.14
5034.58
5367.73
5720.51
6091.32
6478.65
6880.05
7292.9
7714.34
8140.73
8568.36
8993.25
9410.89
9817.49
10208.5
10580.7
10930.6
11255.8
11554.9
11827.1
12073.9
12295.7
12498.7
12677.6
12870.5
13116.2
13921.6
16605
23684
43476.4
38760.1
22742.8
14984.8
11532.5
9827.02
8091.34
6783.68
5912.42
5109.91
4484.67
3665.37
3900.2
3486.38
3393.46
3317.98
3747.45
3872.94
4332.95
4471.27
4249.6
4337.74
4144.27
4162.14
3969.23
3937.32
3785.29
3644.26
3461.78
3156.8
2941.73
2559.97
2269.52
1797.61
1439.28
941.33
566.765
-365.884
271.229
-3151.7
-1876.22
-1849.43
-1830.77
-1819.26
-1814.09
-1814.63
-1820.36