/*--------------------------------*- C++ -*----------------------------------*\
| =========                 |                                                 |
| \\      /  F ield         | OpenFOAM: The Open Source CFD Toolbox           |
|  \\    /   O peration     | Version:  2.2.x                                 |
|   \\  /    A nd           | Web:      www.OpenFOAM.org                      |
|    \\/     M anipulation  |                                                 |
\*---------------------------------------------------------------------------*/
FoamFile
{
    version     2.0;
    format      ascii;
    class       surfaceScalarField;
    location    "0.08";
    object      cfmax;
}
// * * * * * * * * * * * * * * * * * * * * * * * * * * * * * * * * * * * * * //

dimensions      [0 3 -1 0 0 0 0];

internalField   nonuniform List<scalar> 
1023
(
3.65856
3.65856
3.65856
3.65856
3.65856
3.65856
3.65856
3.65856
3.65856
3.65856
3.65856
3.65856
3.65856
3.65856
3.65856
3.65856
3.65856
3.65856
3.65856
3.65856
3.65856
3.65856
3.65856
3.65856
3.65856
3.65856
3.65856
3.65856
3.65856
3.65856
3.65856
3.65856
3.65856
3.65856
3.65856
3.65856
3.65856
3.65856
3.65856
3.65856
3.65856
3.65856
3.65856
3.65856
3.65856
3.65856
3.65856
3.65856
3.65856
3.65856
3.65856
3.65856
3.65856
3.65856
3.65856
3.65856
3.65856
3.65856
3.65856
3.65856
3.65856
3.65856
3.65856
3.65856
3.65856
3.65856
3.65856
3.65856
3.65856
3.65856
3.65856
3.65856
3.65856
3.65856
3.65856
3.65856
3.65856
3.65856
3.65856
3.65856
3.65856
3.65856
3.65856
3.65856
3.65856
3.65856
3.65856
3.65856
3.65856
3.65856
3.65856
3.65856
3.65856
3.65856
3.65856
3.65856
3.65856
3.65856
3.65856
3.65856
3.65856
3.65856
3.65856
3.65856
3.65856
3.65856
3.65856
3.65856
3.65856
3.65856
3.65856
3.65856
3.65856
3.65856
3.65856
3.65856
3.65856
3.65856
3.65856
3.65856
3.65856
3.65856
3.65856
3.65856
3.65856
3.65856
3.65856
3.65856
3.65856
3.65856
3.65856
3.65856
3.65856
3.65856
3.65856
3.65856
3.65856
3.65856
3.65856
3.65856
3.65856
3.65856
3.65856
3.65856
3.65856
3.65856
3.65856
3.65856
3.65856
3.65856
3.65856
3.65856
3.65856
3.65856
3.65856
3.65856
3.65856
3.65856
3.65856
3.65856
3.65856
3.65856
3.65856
3.65856
3.65856
3.65856
3.65856
3.65856
3.65856
3.65856
3.65856
3.65856
3.65856
3.65856
3.65856
3.65856
3.65856
3.65856
3.65856
3.65856
3.65856
3.65856
3.65856
3.65856
3.65856
3.65856
3.65856
3.65856
3.65856
3.65857
3.65857
3.65857
3.65858
3.65859
3.6586
3.65862
3.65864
3.65868
3.65874
3.65882
3.65892
3.65907
3.65927
3.65954
3.65989
3.66035
3.66093
3.66167
3.66258
3.66368
3.665
3.66656
3.66836
3.67042
3.67273
3.6753
3.67809
3.68111
3.68433
3.68773
3.6913
3.69502
3.69888
3.70268
3.70643
3.71013
3.71382
3.71746
3.72111
3.72473
3.72835
3.73195
3.73556
3.73914
3.74273
3.74629
3.74982
3.75338
3.75679
3.76032
3.76359
3.76701
3.77016
3.77333
3.7764
3.77915
3.78211
3.78444
3.78706
3.78912
3.79115
3.79302
3.79442
3.79595
3.79695
3.79796
3.79868
3.79928
3.79969
3.8
3.80022
3.80029
3.80039
3.8004
3.80039
3.80036
3.80028
3.80011
3.7998
3.79934
3.79881
3.79842
3.79806
3.79781
3.79756
3.79737
3.79719
3.79703
3.79687
3.79672
3.79655
3.79639
3.79626
3.79611
3.796
3.7959
3.79584
3.79577
3.79575
3.79572
3.79572
3.79572
3.79572
3.79574
3.79578
3.79586
3.79598
3.79614
3.79625
3.79634
3.7964
3.79643
3.79645
3.79646
3.79645
3.79645
3.79643
3.79639
3.79634
3.79631
3.7963
3.79629
3.79629
3.79629
3.79631
3.79634
3.7964
3.79649
3.79658
3.79664
3.79668
3.79672
3.79674
3.79677
3.79678
3.7968
3.79682
3.79683
3.79685
3.79688
3.79692
3.79697
3.79702
3.79705
3.79708
3.79709
3.79709
3.79709
3.79709
3.79708
3.79706
3.79705
3.79704
3.79703
3.79703
3.79704
3.79705
3.79708
3.79714
3.79721
3.79725
3.79728
3.7973
3.79731
3.79731
3.79731
3.7973
3.79728
3.79725
3.79724
3.79723
3.79722
3.79722
3.79723
3.79724
3.79726
3.79729
3.79731
3.79733
3.79733
3.79733
3.79733
3.79733
3.79733
3.79733
3.79733
3.79733
3.79734
3.79735
3.79739
3.79744
3.7975
3.79755
3.79759
3.79761
3.79761
3.79761
3.79761
3.79761
3.79759
3.79756
3.79752
3.79734
3.79681
3.79509
3.78946
3.77154
3.71716
3.56535
3.20003
2.95558
2.88769
2.87695
2.87332
2.87131
2.87067
2.87049
2.87045
2.87044
2.87042
2.87037
2.8703
2.87018
2.87012
2.87014
2.8702
2.87027
2.87036
2.87045
2.87051
2.87054
2.87052
2.87047
2.8704
2.87035
2.87036
2.87041
2.87052
2.87068
2.87091
2.87118
2.87149
2.87184
2.87225
2.87278
2.8735
2.8745
2.87534
2.87587
2.87611
2.87616
2.87614
2.87597
2.87537
2.87396
2.87132
2.86695
2.86019
2.85032
2.83642
2.81749
2.79251
2.76051
2.72078
2.67291
2.617
2.55372
2.48434
2.41048
2.34199
2.28911
2.24785
2.21572
2.19078
2.17148
2.1566
2.14515
2.13632
2.12953
2.1243
2.12028
2.11721
2.11485
2.11301
2.11153
2.11027
2.10914
2.10811
2.10721
2.10644
2.10576
2.10519
2.10475
2.10432
2.10384
2.10334
2.10288
2.10249
2.10217
2.10197
2.1019
2.10186
2.10167
2.10136
2.10091
2.10049
2.10018
2.10005
2.1001
2.10034
2.10053
2.10058
2.10059
2.1005
2.10037
2.10026
2.10033
2.10046
2.09978
2.09827
2.09525
2.09128
2.08663
2.08112
2.07497
2.06735
2.05781
2.04585
2.0307
2.01509
1.99947
1.98376
1.96779
1.9509
1.93204
1.91133
1.88964
1.8684
1.84783
1.82683
1.8037
1.77772
1.7486
1.72491
1.71007
1.72324
1.79258
1.91168
2.00174
2.0539
2.08136
2.09474
2.10104
2.10398
2.10538
2.10612
2.10659
2.1068
2.10703
2.10726
2.10763
2.10815
2.10881
2.10983
2.11106
2.11254
2.11433
2.11565
2.11651
2.11698
2.11715
2.11718
2.11712
2.11683
2.11625
2.11539
2.11398
2.11197
2.10967
2.10684
2.10333
2.09963
2.09568
2.09123
2.08669
2.08215
2.07732
2.07249
2.06771
2.06283
2.05798
2.05314
2.04829
2.04344
2.03859
2.03374
2.02889
2.02403
2.01915
2.01429
2.00941
2.00451
1.99962
1.99473
1.98982
1.98491
1.98001
1.9751
1.97017
1.96525
1.96034
1.9554
1.95046
1.94554
1.9406
1.93565
1.93071
1.92577
1.92081
1.91586
1.91092
1.90595
1.901
1.89605
1.89107
1.88611
1.88116
1.87618
1.87122
1.86626
1.86128
1.85631
1.85135
1.84636
1.8414
1.83643
1.83145
1.82649
1.82151
1.81654
1.81157
1.80659
1.80163
1.79665
1.79169
1.78673
1.78177
1.77682
1.77187
1.76693
1.76199
1.75714
1.75238
1.74773
1.74319
1.7388
1.73458
1.73056
1.72679
1.72328
1.72009
1.71724
1.71473
1.71259
1.71079
1.70932
1.70815
1.70725
1.70656
1.70604
1.70567
1.70541
1.70523
1.70511
1.70503
1.70497
1.70494
1.70492
1.7049
1.7049
1.70489
1.70489
1.70489
1.70488
1.70488
1.70488
1.70488
1.70488
1.70488
1.70488
1.70488
1.70488
1.70488
1.70488
1.70488
1.70488
1.70488
1.70488
1.70488
1.70488
1.70488
1.70488
1.70488
1.70488
1.70488
1.70488
1.70488
1.70488
1.70488
1.70488
1.70488
1.70488
1.70488
1.70488
1.70488
1.70488
1.70488
1.70488
1.70488
1.70488
1.70488
1.70488
1.70488
1.70488
1.70488
1.70488
1.70488
1.70488
1.70488
1.70488
1.70488
1.70488
1.70488
1.70488
1.70488
1.70488
1.70488
1.70488
1.70488
1.70488
1.70488
1.70488
1.70488
1.70488
1.70488
1.70488
1.70488
1.70488
1.70488
1.70488
1.70488
1.70488
1.70488
1.70488
1.70488
1.70488
1.70488
1.70488
1.70488
1.70488
1.70488
1.70488
1.70488
1.70488
1.70488
1.70488
1.70488
1.70488
1.70488
1.70488
1.70488
1.70488
1.70488
1.70488
1.70488
1.70488
1.70488
1.70488
1.70488
1.70488
1.70488
1.70488
1.70488
1.70488
1.70488
1.70488
1.70488
1.70488
1.70488
1.70488
1.70488
1.70488
1.70488
1.70488
1.70488
1.70488
1.70488
1.70488
1.70488
1.70488
1.70488
1.70488
1.70488
1.70488
1.70488
1.70488
1.70488
1.70488
1.70488
1.70488
1.70488
1.70488
1.70488
1.70488
1.70488
1.70488
1.70488
1.70488
1.70488
1.70488
1.70488
1.70488
1.70488
1.70488
1.70488
1.70488
1.70488
1.70488
1.70488
1.70488
1.70488
1.70488
1.70488
1.70488
1.70488
1.70488
1.70488
1.70488
1.70488
1.70488
1.70488
1.70488
1.70488
1.70488
1.70488
1.70488
1.70488
1.70488
1.70488
1.70488
1.70488
1.70488
1.70488
1.70488
1.70488
1.70488
1.70488
1.70488
1.70488
1.70488
1.70488
1.70488
1.70488
1.70488
1.70488
1.70488
1.70488
1.70488
1.70488
1.70488
1.70488
1.70488
1.70488
1.70488
1.70488
1.70488
1.70488
1.70488
1.70488
1.70488
1.70488
1.70488
1.70488
1.70488
1.70488
1.70488
1.70488
1.70488
1.70488
1.70488
1.70488
1.70488
1.70488
1.70488
1.70488
1.70488
1.70488
1.70488
1.70488
1.70488
1.70488
1.70488
1.70488
1.70488
1.70488
1.70488
1.70488
1.70488
1.70488
1.70488
1.70488
1.70488
1.70488
1.70488
1.70488
1.70488
1.70488
1.70488
1.70488
1.70488
1.70488
1.70488
1.70488
1.70488
1.70488
1.70488
1.70488
1.70488
1.70488
1.70488
1.70488
1.70488
1.70488
1.70488
1.70488
1.70488
1.70488
1.70488
1.70488
1.70488
1.70488
1.70488
1.70488
1.70488
1.70488
1.70488
1.70488
1.70488
1.70488
1.70488
1.70488
1.70488
1.70488
1.70488
1.70488
1.70488
1.70488
1.70488
1.70488
1.70488
1.70488
1.70488
1.70488
1.70488
1.70488
1.70488
1.70488
1.70488
1.70488
1.70488
1.70488
1.70488
1.70488
1.70488
1.70488
1.70488
1.70488
1.70488
1.70488
1.70488
1.70488
1.70488
1.70488
1.70488
1.70488
1.70488
1.70488
1.70488
1.70488
1.70488
1.70488
1.70488
1.70488
1.70488
1.70488
1.70488
1.70488
1.70488
1.70488
1.70488
1.70488
1.70488
1.70488
1.70488
1.70488
1.70488
1.70488
1.70488
1.70488
1.70488
1.70488
1.70488
1.70488
1.70488
1.70488
1.70488
1.70488
1.70488
1.70488
1.70488
1.70488
1.70488
1.70488
1.70488
1.70488
1.70488
1.70488
1.70488
1.70488
1.70488
1.70488
1.70488
1.70488
)
;

boundaryField
{
    front-back
    {
        type            empty;
        value           nonuniform 0();
    }
    inlet-outlet
    {
        type            calculated;
        value           nonuniform List<scalar> 2(1.70488 3.65856);
    }
    top-down
    {
        type            empty;
        value           nonuniform 0();
    }
}


// ************************************************************************* //
