/*--------------------------------*- C++ -*----------------------------------*\
| =========                 |                                                 |
| \\      /  F ield         | OpenFOAM: The Open Source CFD Toolbox           |
|  \\    /   O peration     | Version:  2.2.x                                 |
|   \\  /    A nd           | Web:      www.OpenFOAM.org                      |
|    \\/     M anipulation  |                                                 |
\*---------------------------------------------------------------------------*/
FoamFile
{
    version     2.0;
    format      ascii;
    class       volScalarField;
    location    "0.08";
    object      T;
}
// * * * * * * * * * * * * * * * * * * * * * * * * * * * * * * * * * * * * * //

dimensions      [0 0 0 1 0 0 0];

internalField   nonuniform List<scalar> 
1024
(
0.4
0.4
0.4
0.4
0.4
0.4
0.4
0.4
0.4
0.4
0.4
0.4
0.4
0.4
0.4
0.4
0.4
0.4
0.4
0.4
0.4
0.4
0.4
0.4
0.4
0.4
0.4
0.4
0.4
0.4
0.4
0.4
0.4
0.4
0.4
0.4
0.4
0.4
0.4
0.4
0.4
0.4
0.4
0.4
0.4
0.4
0.4
0.4
0.4
0.4
0.4
0.4
0.4
0.4
0.4
0.4
0.4
0.4
0.4
0.4
0.4
0.4
0.4
0.4
0.4
0.4
0.4
0.4
0.4
0.4
0.4
0.4
0.4
0.4
0.4
0.4
0.4
0.4
0.4
0.4
0.4
0.4
0.4
0.4
0.4
0.4
0.4
0.4
0.4
0.4
0.4
0.4
0.4
0.4
0.4
0.4
0.4
0.4
0.4
0.4
0.4
0.4
0.4
0.4
0.4
0.4
0.4
0.4
0.4
0.4
0.4
0.4
0.4
0.4
0.4
0.4
0.4
0.4
0.4
0.4
0.4
0.4
0.4
0.4
0.4
0.4
0.4
0.4
0.4
0.4
0.4
0.4
0.4
0.4
0.4
0.4
0.4
0.4
0.4
0.4
0.4
0.4
0.4
0.4
0.4
0.4
0.4
0.4
0.4
0.4
0.4
0.4
0.4
0.4
0.4
0.4
0.4
0.4
0.4
0.4
0.4
0.4
0.4
0.4
0.4
0.4
0.4
0.4
0.4
0.4
0.4
0.4
0.4
0.4
0.4
0.4
0.4
0.4
0.4
0.4
0.4
0.4
0.4
0.4
0.4
0.4
0.4
0.4
0.4
0.399999
0.399999
0.399999
0.399998
0.399997
0.399996
0.399993
0.39999
0.399985
0.399978
0.399969
0.399955
0.399937
0.399912
0.399878
0.399833
0.399775
0.3997
0.399605
0.399487
0.399343
0.399169
0.398963
0.398723
0.398447
0.398134
0.397787
0.397405
0.396991
0.396547
0.396076
0.39558
0.39506
0.394507
0.393952
0.393416
0.392887
0.392362
0.391842
0.391323
0.390808
0.390294
0.389782
0.38927
0.388761
0.388252
0.387747
0.387243
0.386743
0.38625
0.38576
0.385282
0.384804
0.384348
0.383895
0.383464
0.383049
0.382648
0.382284
0.381924
0.381613
0.381311
0.38105
0.380818
0.380609
0.380444
0.380292
0.38018
0.380085
0.380016
0.379964
0.37993
0.379909
0.379894
0.379892
0.37989
0.379891
0.3799
0.37992
0.379954
0.380009
0.38008
0.380143
0.380196
0.380238
0.380275
0.380304
0.380331
0.380354
0.380377
0.3804
0.380422
0.380444
0.380465
0.380485
0.380502
0.380517
0.380529
0.380538
0.380543
0.380547
0.380548
0.380549
0.380549
0.380547
0.380543
0.380535
0.38052
0.3805
0.380481
0.380467
0.380457
0.380451
0.380447
0.380446
0.380445
0.380446
0.380448
0.380452
0.380459
0.380464
0.380467
0.380469
0.380469
0.380469
0.380468
0.380465
0.380458
0.380446
0.380434
0.380424
0.380417
0.380411
0.380407
0.380404
0.380401
0.380399
0.380396
0.380394
0.380391
0.380388
0.380383
0.380376
0.380369
0.380364
0.38036
0.380358
0.380357
0.380357
0.380357
0.380357
0.38036
0.380362
0.380364
0.380365
0.380365
0.380365
0.380364
0.380361
0.380354
0.380345
0.380338
0.380332
0.380329
0.380328
0.380327
0.380327
0.380328
0.38033
0.380333
0.380336
0.380338
0.380339
0.38034
0.38034
0.380339
0.380336
0.380332
0.380329
0.380326
0.380325
0.380325
0.380325
0.380325
0.380325
0.380326
0.380326
0.380326
0.380326
0.380324
0.380321
0.380314
0.380306
0.380298
0.380293
0.380289
0.380287
0.380286
0.380287
0.380288
0.38029
0.38029
0.380289
0.380302
0.38034
0.380454
0.380853
0.382293
0.387499
0.4059
0.463846
0.595578
0.772632
0.869354
0.909964
0.923255
0.928114
0.92995
0.930649
0.930917
0.931013
0.93104
0.931049
0.931014
0.930967
0.930938
0.930919
0.930904
0.930893
0.930882
0.93087
0.93086
0.930848
0.930833
0.930815
0.930801
0.930807
0.930839
0.930899
0.930987
0.931101
0.931245
0.931431
0.931674
0.93199
0.932407
0.932966
0.933724
0.934529
0.93514
0.935487
0.935619
0.935626
0.935496
0.935089
0.934168
0.932419
0.929453
0.924786
0.917841
0.907944
0.894349
0.876298
0.853122
0.824358
0.789874
0.749969
0.705442
0.657541
0.607775
0.560281
0.521899
0.492906
0.470846
0.454017
0.441164
0.431345
0.423846
0.418121
0.413746
0.410395
0.407823
0.40584
0.404302
0.403097
0.402133
0.40134
0.400666
0.400075
0.399553
0.399096
0.398692
0.398317
0.397979
0.397668
0.397364
0.397062
0.396775
0.396516
0.396279
0.39606
0.395863
0.395709
0.395575
0.395425
0.395259
0.395106
0.394949
0.394799
0.394678
0.39457
0.394407
0.394207
0.394033
0.393842
0.393683
0.393588
0.393561
0.393642
0.393692
0.3938
0.393862
0.394073
0.394639
0.395422
0.396508
0.397819
0.399384
0.401163
0.403006
0.405043
0.40739
0.410153
0.413199
0.41632
0.419469
0.422568
0.425596
0.428968
0.432778
0.436849
0.441001
0.445259
0.449031
0.454455
0.459098
0.455842
0.439138
0.42173
0.401224
0.386859
0.379292
0.375712
0.374069
0.37332
0.372975
0.372792
0.372654
0.372567
0.372509
0.37244
0.372347
0.372215
0.372017
0.371772
0.371455
0.371039
0.370549
0.370074
0.369737
0.369533
0.369436
0.369408
0.369418
0.369465
0.369582
0.369816
0.370171
0.370651
0.371304
0.372113
0.373038
0.374104
0.375299
0.376557
0.377889
0.379293
0.380716
0.382162
0.383636
0.385108
0.386586
0.388067
0.38955
0.391034
0.392519
0.394006
0.395497
0.396991
0.398487
0.399988
0.401495
0.403002
0.404513
0.406031
0.407549
0.40907
0.410595
0.412125
0.413654
0.415188
0.416726
0.418266
0.419807
0.421355
0.422904
0.424454
0.426009
0.427568
0.429126
0.430689
0.432256
0.433822
0.435392
0.436967
0.438541
0.440119
0.441701
0.443283
0.444868
0.446457
0.448046
0.449639
0.451234
0.452829
0.45443
0.456031
0.457633
0.45924
0.460846
0.462456
0.464068
0.46568
0.467296
0.468912
0.47053
0.472149
0.473768
0.475389
0.47701
0.478631
0.480259
0.481879
0.483462
0.485012
0.486525
0.487998
0.489421
0.490783
0.492074
0.493282
0.494393
0.495399
0.496291
0.497065
0.497723
0.498268
0.498709
0.499057
0.499325
0.499526
0.499673
0.499779
0.499854
0.499904
0.499939
0.499961
0.499976
0.499985
0.499991
0.499995
0.499997
0.499998
0.499999
0.499999
0.5
0.5
0.5
0.5
0.5
0.5
0.5
0.5
0.5
0.5
0.5
0.5
0.5
0.5
0.5
0.5
0.5
0.5
0.5
0.5
0.5
0.5
0.5
0.5
0.5
0.5
0.5
0.5
0.5
0.5
0.5
0.5
0.5
0.5
0.5
0.5
0.5
0.5
0.5
0.5
0.5
0.5
0.5
0.5
0.5
0.5
0.5
0.5
0.5
0.5
0.5
0.5
0.5
0.5
0.5
0.5
0.5
0.5
0.5
0.5
0.5
0.5
0.5
0.5
0.5
0.5
0.5
0.5
0.5
0.5
0.5
0.5
0.5
0.5
0.5
0.5
0.5
0.5
0.5
0.5
0.5
0.5
0.5
0.5
0.5
0.5
0.5
0.5
0.5
0.5
0.5
0.5
0.5
0.5
0.5
0.5
0.5
0.5
0.5
0.5
0.5
0.5
0.5
0.5
0.5
0.5
0.5
0.5
0.5
0.5
0.5
0.5
0.5
0.5
0.5
0.5
0.5
0.5
0.5
0.5
0.5
0.5
0.5
0.5
0.5
0.5
0.5
0.5
0.5
0.5
0.5
0.5
0.5
0.5
0.5
0.5
0.5
0.5
0.5
0.5
0.5
0.5
0.5
0.5
0.5
0.5
0.5
0.5
0.5
0.5
0.5
0.5
0.5
0.5
0.5
0.5
0.5
0.5
0.5
0.5
0.5
0.5
0.5
0.5
0.5
0.5
0.5
0.5
0.5
0.5
0.5
0.5
0.5
0.5
0.5
0.5
0.5
0.5
0.5
0.5
0.5
0.5
0.5
0.5
0.5
0.5
0.5
0.5
0.5
0.5
0.5
0.5
0.5
0.5
0.5
0.5
0.5
0.5
0.5
0.5
0.5
0.5
0.5
0.5
0.5
0.5
0.5
0.5
0.5
0.5
0.5
0.5
0.5
0.5
0.5
0.5
0.5
0.5
0.5
0.5
0.5
0.5
0.5
0.5
0.5
0.5
0.5
0.5
0.5
0.5
0.5
0.5
0.5
0.5
0.5
0.5
0.5
0.5
0.5
0.5
0.5
0.5
0.5
0.5
0.5
0.5
0.5
0.5
0.5
0.5
0.5
0.5
0.5
0.5
0.5
0.5
0.5
0.5
0.5
0.5
0.5
0.5
0.5
0.5
0.5
0.5
0.5
0.5
0.5
0.5
0.5
0.5
0.5
0.5
0.5
0.5
0.5
0.5
0.5
0.5
0.5
0.5
0.5
0.5
0.5
0.5
0.5
0.5
0.5
0.5
0.5
0.5
0.5
0.5
0.5
0.5
0.5
0.5
0.5
0.5
0.5
0.5
0.5
0.5
0.5
0.5
0.5
0.5
0.5
0.5
0.5
0.5
0.5
0.5
0.5
0.5
0.5
0.5
0.5
0.5
0.5
0.5
0.5
0.5
0.5
0.5
0.5
0.5
0.5
0.5
0.5
0.5
0.5
0.5
0.5
0.5
0.5
0.5
0.5
0.5
0.5
0.5
0.5
0.5
0.5
0.5
0.5
0.5
0.5
0.5
)
;

boundaryField
{
    front-back
    {
        type            empty;
    }
    inlet-outlet
    {
        type            zeroGradient;
    }
    top-down
    {
        type            empty;
    }
}


// ************************************************************************* //
