/*--------------------------------*- C++ -*----------------------------------*\
| =========                 |                                                 |
| \\      /  F ield         | OpenFOAM: The Open Source CFD Toolbox           |
|  \\    /   O peration     | Version:  2.2.x                                 |
|   \\  /    A nd           | Web:      www.OpenFOAM.org                      |
|    \\/     M anipulation  |                                                 |
\*---------------------------------------------------------------------------*/
FoamFile
{
    version     2.0;
    format      ascii;
    class       volScalarField;
    location    "1.4";
    object      By;
}
// * * * * * * * * * * * * * * * * * * * * * * * * * * * * * * * * * * * * * //

dimensions      [1 0 -2 0 0 -1 0];

internalField   nonuniform List<scalar> 
14161
(
-2.26e-06
2.19967e-07
-2.15701e-07
1.87731e-08
1.40623e-07
1.9002e-07
4.2569e-07
2.26229e-07
8.73648e-07
3.49159e-07
6.38551e-07
-3.39084e-06
5.28461e-06
5.5196e-06
-1.63175e-06
2.16882e-06
6.11092e-06
-4.85128e-06
7.66648e-06
6.35774e-06
1.50474e-06
7.90236e-07
4.40355e-06
6.02934e-06
6.97014e-06
7.7071e-06
1.18336e-05
9.68717e-06
1.02128e-05
1.39538e-05
1.75687e-05
3.50376e-05
5.7467e-05
0.000106931
0.000129366
0.000345801
0.00039711
0.000751303
0.00100027
0.000537194
-0.00132966
-0.0340278
-0.13948
-0.0826887
-0.00205201
0.00321417
0.00256576
0.000940411
0.00180218
0.00103715
0.000201265
0.000415841
0.00126974
0.00155417
0.00221636
0.00266722
0.00359125
0.0045121
0.00581045
0.00707631
0.00788905
0.00807622
0.00719204
0.00611674
0.005239
0.0041385
0.00309422
0.00226185
0.00133365
0.000797872
0.000462564
0.000123712
-0.000510692
-0.00133114
-0.00240377
-0.0032148
-0.00313749
-0.00423113
-0.00585751
-0.00571793
-0.00469811
-0.00384013
-0.00390577
-0.00344588
-0.00396419
-0.00264361
-0.0061442
-0.0105561
-0.00206044
0.0326124
0.125675
0.208133
0.188172
0.112965
0.0680877
0.0509542
0.0363859
0.0254972
0.0124021
0.00546739
0.00272422
-0.00225765
-0.0038703
-0.00418528
-0.00245705
-0.00358236
-0.0027419
-0.00381585
-0.0025419
-0.000221503
0.00352778
0.00918634
0.0148217
0.0183749
0.0183061
0.0218568
0.0231308
0.0199455
0.0254492
-3.87208e-06
-5.78357e-08
-4.32624e-07
7.72746e-08
4.79482e-07
7.10644e-07
1.24513e-06
9.55323e-07
1.8054e-06
9.42731e-07
1.0417e-06
3.78071e-06
3.40337e-06
1.07623e-05
-1.01778e-06
-3.32115e-06
1.72528e-05
-1.01838e-05
1.138e-05
3.4739e-05
2.30338e-07
7.39906e-06
1.21494e-05
2.35789e-05
2.42679e-05
1.74031e-05
2.51666e-05
1.22436e-05
1.90206e-05
2.02012e-05
2.00326e-05
3.06191e-06
-1.58022e-05
-6.53179e-05
-0.000136315
-0.000258336
-0.00068589
-0.00156694
-0.00285143
-0.00713741
-0.014255
-0.0599682
-0.207246
-0.0551652
0.000609226
-0.00161959
-0.00913601
-0.00987883
-0.00764991
-0.00714656
-0.00613594
-0.0057008
-0.00386235
-0.00432168
-0.00340067
-0.00349154
-0.00246231
-0.00150735
-0.000126861
0.000434187
0.000502174
0.000458146
-0.0005783
-0.00141858
-0.00245369
-0.00371085
-0.00462138
-0.00546802
-0.00618136
-0.00597397
-0.00628433
-0.00573376
-0.00611444
-0.00602591
-0.00640922
-0.00600508
-0.00547553
-0.00561983
-0.00606018
-0.00553676
-0.0039059
-0.00253857
-0.0008868
-0.00191942
-0.000961138
-0.000631581
-0.00265887
-0.00711708
0.00289766
0.0972238
0.217706
0.271483
0.231034
0.169831
0.111796
0.0828781
0.0512554
0.0392352
0.0260773
0.0196334
0.0137088
0.00895617
0.00758188
0.00549927
0.00784772
0.00765758
0.00987209
0.0128093
0.0173179
0.0215557
0.0273747
0.0335428
0.0406934
0.0470881
0.0485949
0.0546698
0.0544102
0.0602307
0.0721304
-5.79129e-06
-2.13039e-07
-9.59141e-07
1.14921e-07
4.09021e-07
9.31533e-07
1.75075e-06
1.19967e-06
3.25869e-06
1.19623e-06
3.44712e-06
5.20887e-06
5.30761e-06
1.3774e-05
-1.6207e-06
5.979e-06
3.05096e-05
-8.01149e-06
8.76692e-06
3.86019e-05
6.25553e-06
2.01064e-05
1.98536e-05
3.27695e-05
3.6979e-05
2.67436e-05
4.53416e-05
2.54e-05
4.34186e-05
4.66682e-05
5.89517e-05
6.75443e-05
8.90417e-05
0.000114671
0.000147572
0.000160081
3.11595e-05
-0.000249348
-0.000950741
-0.00308417
-0.00707172
-0.0418728
-0.185448
-0.108456
-0.0526248
-0.0519766
-0.0341173
-0.038506
-0.0295414
-0.0287404
-0.0258908
-0.0258337
-0.0213405
-0.0193296
-0.0159146
-0.0141124
-0.0113327
-0.0100637
-0.00829383
-0.0068656
-0.00574284
-0.0043738
-0.0038422
-0.00330393
-0.00271939
-0.0027658
-0.00291689
-0.00337901
-0.0038507
-0.00402475
-0.00368349
-0.00371452
-0.00463592
-0.00638112
-0.00758441
-0.00722786
-0.00716021
-0.00724451
-0.00766368
-0.00698454
-0.00621794
-0.00811566
-0.011607
-0.0138524
-0.0089956
0.00937696
0.0508805
0.149984
0.205577
0.284708
0.361213
0.376755
0.326256
0.245009
0.167447
0.118201
0.0799522
0.0598731
0.0438497
0.029188
0.020251
0.014211
0.010744
0.00934897
0.0105984
0.013271
0.0154549
0.018857
0.0277977
0.0355293
0.0448473
0.0551413
0.0672488
0.0775902
0.0818269
0.0884227
0.0900552
0.0960603
0.115572
-6.21868e-06
-5.75845e-07
-1.23835e-06
2.50249e-07
1.08895e-06
1.44185e-06
2.65464e-06
2.23596e-06
4.53467e-06
3.3583e-06
3.2563e-06
8.50686e-06
1.02745e-05
2.3328e-05
-4.39052e-06
1.66011e-06
4.64233e-05
-2.02504e-06
4.91512e-06
6.56879e-05
2.7519e-06
3.80968e-05
1.888e-05
5.48807e-05
6.10887e-05
5.10712e-05
7.27403e-05
4.05093e-05
5.28403e-05
5.4569e-05
5.84273e-05
5.94469e-05
5.1556e-05
3.23434e-05
-3.02434e-06
-3.9884e-05
-0.000224135
-0.000519498
-0.000673799
-0.00112433
-0.00204487
-0.0171678
-0.101967
-0.071964
-0.0647225
-0.0677513
-0.0566927
-0.0685467
-0.0630182
-0.0578893
-0.0547873
-0.0547721
-0.0471657
-0.0446985
-0.0394849
-0.0379745
-0.0333053
-0.0308917
-0.026733
-0.0235087
-0.0207149
-0.0181108
-0.015084
-0.0134514
-0.0124922
-0.0112228
-0.0111594
-0.0119499
-0.0124679
-0.0130345
-0.0136133
-0.0136748
-0.0136429
-0.0140133
-0.0126623
-0.0099137
-0.00745055
-0.00483727
-0.00356363
-0.00307766
-0.00313008
-0.00315938
-0.00415102
-0.00307112
0.0167052
0.0836463
0.200713
0.308807
0.344668
0.396406
0.426281
0.414727
0.356945
0.269074
0.183499
0.13138
0.0919307
0.0670876
0.0510085
0.0382183
0.0292954
0.0245033
0.0234244
0.0235544
0.0271255
0.0275931
0.0331212
0.0371232
0.0468091
0.0565726
0.0687707
0.0811774
0.0953103
0.107841
0.114862
0.1215
0.121483
0.130707
0.152285
-7.02635e-06
-6.8184e-07
-1.62291e-06
1.32505e-07
1.1825e-06
1.51816e-06
3.06229e-06
2.3275e-06
5.63019e-06
3.86189e-06
4.45647e-06
1.42653e-05
8.75565e-06
1.5376e-05
9.74626e-06
9.25805e-06
3.94024e-05
1.81956e-05
7.87558e-06
6.27457e-05
5.4309e-06
5.16036e-05
2.00428e-05
6.83324e-05
6.54592e-05
6.40019e-05
7.89331e-05
5.9853e-05
6.96586e-05
7.60021e-05
8.90736e-05
9.99016e-05
0.000109761
0.000124164
0.00017157
0.000180518
0.000118318
1.67824e-05
-0.000198808
-0.000481506
-0.00124904
-0.000254844
-0.0113775
-0.0447976
-0.0750096
-0.094216
-0.100958
-0.111944
-0.110875
-0.102474
-0.09779
-0.0951119
-0.0832831
-0.0787375
-0.0700093
-0.0664472
-0.0579838
-0.0524874
-0.0440613
-0.0372074
-0.0299912
-0.0254254
-0.0207591
-0.017838
-0.0161231
-0.0144921
-0.0140233
-0.01425
-0.0148314
-0.0159909
-0.0172297
-0.0178952
-0.0189554
-0.0184338
-0.0153193
-0.0112153
-0.00857032
-0.00709241
-0.00608556
-0.00454394
-0.00524443
-0.0046074
-0.00457476
0.0219951
0.089271
0.210933
0.336293
0.434347
0.457867
0.500452
0.485422
0.454853
0.381581
0.287678
0.197212
0.144206
0.104686
0.0770582
0.0596286
0.0446903
0.0363816
0.0332141
0.0329368
0.0351983
0.0403347
0.0438527
0.0510214
0.0567126
0.0723851
0.0840173
0.099766
0.114957
0.13022
0.142697
0.146735
0.152251
0.148406
0.15753
0.184255
-6.68235e-06
-8.34528e-07
-1.69061e-06
3.96964e-07
1.37747e-06
2.51241e-06
4.0724e-06
3.58316e-06
6.82196e-06
7.17705e-06
5.65227e-06
1.63328e-05
1.2511e-05
2.04723e-05
1.02868e-05
2.1499e-05
3.03639e-05
2.54333e-05
1.15395e-05
8.35045e-05
1.52254e-05
8.65723e-05
3.0056e-05
8.9923e-05
7.94574e-05
9.95215e-05
0.000100722
0.000101864
0.000100849
0.000100332
0.000111953
0.000124712
0.000138947
0.000174169
0.000229665
0.000393376
0.000644487
0.0011282
0.00195895
0.00278316
0.00484651
0.0186091
0.0944448
0.00597213
-0.0860084
-0.126525
-0.144594
-0.156864
-0.161123
-0.15013
-0.144397
-0.135861
-0.120123
-0.11243
-0.0996748
-0.093216
-0.0815217
-0.0734581
-0.062481
-0.0536639
-0.0453135
-0.0373287
-0.0315052
-0.0272359
-0.0231111
-0.0211721
-0.0200791
-0.0195808
-0.0201719
-0.0211703
-0.0221027
-0.0228183
-0.0234755
-0.0230749
-0.0213363
-0.0171976
-0.00937353
-0.00076871
0.0056344
0.00929514
0.0143136
0.0213133
0.0450321
0.0932426
0.202514
0.328456
0.416854
0.492655
0.516335
0.534252
0.506643
0.475961
0.405074
0.312537
0.219045
0.160225
0.116117
0.0853167
0.0674825
0.0565957
0.0520721
0.0524707
0.0559406
0.0605556
0.067713
0.0721105
0.084747
0.0875415
0.0966355
0.111012
0.123901
0.141345
0.155304
0.171024
0.177328
0.183312
0.17138
0.178851
0.209746
-6.71063e-06
-7.21234e-07
-1.77597e-06
3.46799e-07
1.50798e-06
2.37097e-06
4.46034e-06
3.50416e-06
7.50553e-06
8.09398e-06
6.90228e-06
1.9188e-05
1.29343e-05
9.45195e-06
2.82235e-05
3.0162e-05
1.04389e-05
5.6823e-05
1.51052e-05
6.86026e-05
4.09101e-05
7.85044e-05
2.50082e-05
9.9856e-05
7.02496e-05
0.000120542
9.0568e-05
0.000129347
0.000100456
0.000111772
0.000117428
0.000127079
0.000135535
0.000168142
0.000216601
0.000299899
0.000424894
0.000615402
0.000900948
0.00173226
0.00396879
0.030302
0.149499
0.0346578
-0.0697691
-0.133684
-0.158704
-0.167965
-0.175972
-0.168393
-0.163944
-0.152364
-0.136059
-0.127695
-0.112383
-0.102197
-0.0888435
-0.079788
-0.0673952
-0.0585317
-0.0478913
-0.0400189
-0.0328849
-0.0278639
-0.0240632
-0.021348
-0.0201416
-0.0201076
-0.020782
-0.0219231
-0.0233476
-0.0240838
-0.0246319
-0.0237857
-0.0208573
-0.0153526
-0.00663741
0.00267351
0.00823514
0.0145185
0.0258708
0.0469442
0.102748
0.183961
0.313325
0.421741
0.473631
0.527178
0.544128
0.559084
0.545862
0.525331
0.461992
0.371574
0.261562
0.18812
0.137982
0.10434
0.0880377
0.0792016
0.0771816
0.079319
0.083792
0.0884479
0.0955387
0.0983023
0.107066
0.113213
0.126577
0.137095
0.151185
0.171669
0.183383
0.197718
0.20105
0.206598
0.193538
0.197363
0.232368
-5.98208e-06
-5.28845e-07
-1.61482e-06
5.80637e-07
2.16022e-06
3.23455e-06
5.10744e-06
5.5764e-06
8.59384e-06
1.20488e-05
6.65446e-06
2.12219e-05
2.35486e-05
8.46204e-06
3.40527e-05
4.11111e-05
-3.2097e-06
6.48426e-05
5.33992e-05
4.63295e-05
7.04601e-05
9.54056e-05
6.68645e-05
0.000106618
9.793e-05
0.000156685
0.000128198
0.000185447
0.000150694
0.000161123
0.000166909
0.000184949
0.000207465
0.000254502
0.000362753
0.000572354
0.000989198
0.00191758
0.00395377
0.00837874
0.0171832
0.0584832
0.209852
0.015854
-0.173631
-0.218545
-0.22903
-0.224426
-0.219376
-0.208551
-0.198087
-0.179604
-0.161325
-0.147934
-0.130617
-0.117959
-0.103024
-0.0920877
-0.0777793
-0.067593
-0.0552233
-0.0471521
-0.0381755
-0.0324402
-0.0278292
-0.025303
-0.0239366
-0.0231951
-0.023365
-0.0246963
-0.0264963
-0.0273689
-0.0276304
-0.0267414
-0.0235742
-0.0167647
-0.00733105
0.00617084
0.0205727
0.0347239
0.0583706
0.0978352
0.187869
0.294434
0.394682
0.479365
0.51656
0.553673
0.565671
0.581621
0.567904
0.560198
0.51446
0.44004
0.317144
0.226176
0.165399
0.125681
0.107481
0.0990765
0.0953192
0.0961218
0.103267
0.109374
0.119941
0.128072
0.140135
0.143754
0.155258
0.169718
0.180573
0.198903
0.207502
0.2228
0.219376
0.222795
0.212824
0.215734
0.251959
-5.52101e-06
-1.54017e-07
-1.32763e-06
5.3464e-07
2.36182e-06
3.07085e-06
5.34859e-06
5.60499e-06
8.7382e-06
1.25943e-05
7.18449e-06
2.44332e-05
2.6922e-05
7.45017e-06
3.82878e-05
4.30394e-05
-1.7472e-06
8.13117e-05
6.27434e-05
2.56673e-05
9.22408e-05
8.63109e-05
9.17264e-05
8.13334e-05
0.000116493
0.000139596
0.000129386
0.000188958
0.000140743
0.000171612
0.000164067
0.000163284
0.000161179
0.000167071
0.000158686
0.00026504
0.000290836
0.000456048
0.000625616
0.0009479
9.75011e-05
0.0110723
0.0439748
-0.0487201
-0.131905
-0.161892
-0.182378
-0.187963
-0.192786
-0.192035
-0.186793
-0.17383
-0.162354
-0.145146
-0.128492
-0.118315
-0.103377
-0.0916805
-0.0769884
-0.0663295
-0.0539248
-0.0451761
-0.0363971
-0.0308566
-0.0256121
-0.0230972
-0.021979
-0.0216088
-0.0219599
-0.0232005
-0.0253593
-0.0272467
-0.0283172
-0.0275402
-0.0244275
-0.0171643
-0.00647049
0.00898905
0.0274042
0.0470959
0.0923827
0.167572
0.288994
0.397615
0.458573
0.514308
0.537627
0.570527
0.584655
0.601616
0.594727
0.599025
0.572724
0.516733
0.404566
0.290402
0.21403
0.157746
0.131937
0.118541
0.117699
0.121592
0.130003
0.134464
0.143882
0.149335
0.159072
0.166377
0.178234
0.192241
0.204736
0.225933
0.234726
0.247053
0.238933
0.23945
0.231129
0.231819
0.269713
-4.52418e-06
3.7246e-07
-9.21054e-07
1.09929e-06
2.49406e-06
4.36834e-06
6.06645e-06
7.82764e-06
9.60807e-06
1.61862e-05
1.29497e-05
2.19271e-05
3.29191e-05
9.95901e-06
3.9452e-05
5.54446e-05
1.63318e-05
5.89061e-05
9.49883e-05
1.52174e-05
0.0001102
9.56675e-05
0.000158019
7.25547e-05
0.000159987
0.000143693
0.000211406
0.000216321
0.000209995
0.000241106
0.00023712
0.000241896
0.000233073
0.000228049
0.000210037
0.000140509
-1.32373e-05
-0.000635343
-0.00193158
-0.00463397
-0.0112362
-0.0436093
-0.183527
-0.21774
-0.154119
-0.148015
-0.166694
-0.185089
-0.195564
-0.19764
-0.192502
-0.181373
-0.170683
-0.152231
-0.139485
-0.124735
-0.111174
-0.0987438
-0.0840883
-0.0714082
-0.0579203
-0.0474005
-0.0378604
-0.0312809
-0.025975
-0.0232066
-0.0227134
-0.0227294
-0.0231445
-0.0244663
-0.0269693
-0.0296642
-0.031267
-0.0300018
-0.0260551
-0.0173527
-0.00262801
0.0126888
0.0319408
0.0738947
0.147888
0.264903
0.392333
0.47906
0.517944
0.565639
0.579231
0.607521
0.615354
0.634336
0.630898
0.643978
0.628236
0.5856
0.493741
0.374943
0.273418
0.201494
0.168818
0.15032
0.143188
0.144052
0.151596
0.157282
0.167507
0.173848
0.185521
0.190439
0.20306
0.216537
0.226295
0.246646
0.254929
0.267848
0.25864
0.25666
0.24889
0.247823
0.286065
-3.84416e-06
9.66345e-07
-3.25405e-07
1.24319e-06
2.7777e-06
4.25677e-06
6.04541e-06
8.23413e-06
8.71743e-06
1.60866e-05
1.66227e-05
1.80662e-05
3.57925e-05
3.01599e-05
2.67991e-05
5.3053e-05
4.57699e-05
4.88421e-05
0.000106031
4.34034e-05
0.000100745
0.000114362
0.00015869
6.85061e-05
0.000173981
0.000138764
0.000225557
0.000203363
0.000195827
0.000199117
0.000241771
0.000225371
0.000210505
0.000181596
0.00012411
9.34594e-05
-0.000115193
-0.000477091
-0.0011545
-0.00282001
-0.00948102
-0.0535461
-0.261107
-0.239735
-0.20248
-0.176826
-0.187229
-0.20248
-0.213386
-0.214311
-0.205289
-0.192852
-0.183916
-0.166551
-0.156941
-0.138719
-0.12545
-0.108818
-0.0939757
-0.078376
-0.0636968
-0.0516512
-0.0413054
-0.033173
-0.0271969
-0.0245775
-0.0234218
-0.0239676
-0.0247867
-0.026516
-0.0287739
-0.0315002
-0.0333479
-0.0327099
-0.0286651
-0.0188845
-0.000566555
0.0208243
0.0477713
0.117663
0.23617
0.375263
0.46444
0.53837
0.567137
0.607321
0.617492
0.645193
0.650398
0.673547
0.672838
0.689421
0.681928
0.651628
0.582316
0.473664
0.347076
0.252187
0.206883
0.180352
0.17033
0.170658
0.176331
0.181681
0.191913
0.197891
0.21008
0.214788
0.227634
0.23894
0.248104
0.268156
0.274727
0.2868
0.278775
0.274108
0.266771
0.262218
0.301948
-2.6382e-06
1.7862e-06
3.79038e-07
1.81743e-06
3.20087e-06
5.42764e-06
6.57874e-06
1.05428e-05
1.01634e-05
1.91476e-05
2.05787e-05
1.80533e-05
3.35994e-05
4.35018e-05
2.63525e-05
5.82665e-05
6.68507e-05
3.02693e-05
9.87784e-05
8.99433e-05
7.75194e-05
0.00012654
0.000167156
0.000103087
0.000182303
0.000192973
0.000245925
0.000287547
0.000239189
0.000263672
0.000338508
0.000336221
0.000320184
0.000281284
0.000227216
0.000130117
-7.4426e-05
-0.000375237
-0.00126598
-0.00235463
-0.00779772
-0.0395678
-0.220689
-0.291923
-0.303266
-0.267052
-0.262429
-0.263215
-0.268355
-0.259412
-0.24159
-0.228349
-0.214669
-0.193327
-0.181463
-0.160358
-0.145523
-0.12458
-0.1097
-0.0900296
-0.0730638
-0.0584176
-0.0476987
-0.0367532
-0.0301566
-0.0270635
-0.0247779
-0.0250713
-0.0264746
-0.028729
-0.0312605
-0.0333728
-0.0342789
-0.0334766
-0.0284324
-0.0164415
0.00537341
0.0373928
0.0858455
0.186584
0.330516
0.456406
0.525073
0.585102
0.612334
0.646657
0.65823
0.689304
0.692837
0.720055
0.722585
0.739716
0.739456
0.714132
0.659537
0.565203
0.419973
0.303497
0.243806
0.210014
0.196429
0.195073
0.199673
0.205168
0.216324
0.22253
0.235544
0.239217
0.251994
0.261052
0.270846
0.29068
0.29497
0.306823
0.299525
0.292017
0.284401
0.275842
0.318219
-1.82992e-06
2.5493e-06
1.1972e-06
2.25188e-06
3.44712e-06
5.55401e-06
6.42092e-06
1.10315e-05
9.64688e-06
1.76175e-05
2.82631e-05
1.26764e-05
3.52709e-05
6.22802e-05
1.48585e-05
5.14567e-05
9.80613e-05
3.87299e-05
8.13606e-05
0.000136294
8.03559e-05
0.000136777
0.000175564
0.000153173
0.000169317
0.000217418
0.00023729
0.000283893
0.000209661
0.000222817
0.000309237
0.000342815
0.000366643
0.000369225
0.000409363
0.000485214
0.00056851
0.000887064
0.00115706
0.00267407
0.000538255
-0.0159754
-0.151067
-0.346645
-0.380851
-0.359223
-0.343938
-0.33503
-0.332213
-0.312762
-0.289305
-0.272292
-0.25066
-0.225756
-0.210518
-0.186126
-0.167939
-0.143863
-0.12412
-0.101871
-0.0859976
-0.0693037
-0.0555857
-0.0441792
-0.0377131
-0.0334997
-0.030712
-0.0299253
-0.0314725
-0.0341816
-0.0364029
-0.038355
-0.0385852
-0.0375364
-0.0316352
-0.0186876
0.00511056
0.0553443
0.147805
0.283038
0.416041
0.52455
0.571537
0.62126
0.652075
0.68953
0.703721
0.737112
0.738183
0.765408
0.766985
0.783183
0.782431
0.759757
0.717024
0.637237
0.503049
0.360825
0.277888
0.233479
0.217886
0.217186
0.221589
0.227775
0.238784
0.245427
0.259484
0.262826
0.276637
0.283434
0.294611
0.314073
0.316628
0.328451
0.321532
0.311221
0.301691
0.290834
0.33504
-5.13255e-07
3.57245e-06
2.03747e-06
3.14246e-06
3.72345e-06
6.74815e-06
7.07524e-06
1.27444e-05
1.22942e-05
1.78681e-05
3.42979e-05
1.82056e-05
2.94758e-05
6.24556e-05
3.40429e-05
4.51064e-05
0.00010229
6.88697e-05
3.99138e-05
0.000162841
0.000106637
0.000113075
0.000172626
0.000211876
0.000163291
0.000247418
0.000282064
0.000356959
0.000286944
0.000304131
0.000366079
0.00049138
0.000525799
0.000549561
0.00056992
0.000693464
0.00101744
0.00174505
0.00294353
0.00465765
0.00303113
-0.017663
-0.172541
-0.380674
-0.408917
-0.397652
-0.39727
-0.381578
-0.375412
-0.350954
-0.329912
-0.299472
-0.272342
-0.243297
-0.225074
-0.198761
-0.175787
-0.14868
-0.125006
-0.100709
-0.081513
-0.0655438
-0.0553357
-0.044539
-0.0364261
-0.0321626
-0.0300311
-0.0294458
-0.0303288
-0.0329471
-0.0356225
-0.0377916
-0.0389214
-0.0377053
-0.0321262
-0.0162909
0.0182736
0.0982711
0.242231
0.394502
0.487896
0.574722
0.620104
0.668464
0.695044
0.731249
0.7511
0.787867
0.788128
0.815057
0.815422
0.829927
0.828723
0.809519
0.77816
0.713709
0.59465
0.432642
0.32366
0.2646
0.247077
0.244167
0.245772
0.250713
0.262212
0.269466
0.285638
0.288301
0.304437
0.308305
0.320538
0.338686
0.339917
0.352134
0.344783
0.331264
0.32025
0.30659
0.352912
4.10295e-07
4.46133e-06
2.9945e-06
3.87148e-06
4.04131e-06
6.98935e-06
7.18e-06
1.28156e-05
1.31845e-05
1.62324e-05
3.6993e-05
2.16051e-05
3.12077e-05
6.39447e-05
4.20016e-05
4.17802e-05
0.000115738
8.43091e-05
4.67663e-05
0.000175012
0.000138023
9.49778e-05
0.000182407
0.000243206
0.000181798
0.000220793
0.000314961
0.000349951
0.000309884
0.000248195
0.00032657
0.000442573
0.000536065
0.000574673
0.000552853
0.000525659
0.000578636
0.000522149
0.000493841
-0.00109623
-0.00832278
-0.0556359
-0.289939
-0.485554
-0.476323
-0.428888
-0.434643
-0.414658
-0.40416
-0.376623
-0.352692
-0.319984
-0.292233
-0.259389
-0.233893
-0.205866
-0.181412
-0.154679
-0.131197
-0.106955
-0.0875912
-0.0709282
-0.0595527
-0.0483418
-0.0410168
-0.0369389
-0.0348704
-0.0335965
-0.0337918
-0.0364259
-0.0399947
-0.0431032
-0.0433058
-0.0416392
-0.0328235
-0.00994884
0.0426016
0.155502
0.348433
0.489895
0.561621
0.630055
0.66987
0.716914
0.743334
0.773348
0.800717
0.83369
0.838087
0.864859
0.863469
0.875349
0.874264
0.85842
0.834235
0.777401
0.669595
0.499689
0.360529
0.288278
0.267357
0.26321
0.265336
0.271324
0.284409
0.293308
0.311369
0.315082
0.333281
0.333665
0.346206
0.362019
0.363711
0.377342
0.369076
0.353683
0.339402
0.3243
0.371706
1.74806e-06
5.60611e-06
3.95818e-06
4.8721e-06
4.55276e-06
7.93877e-06
7.99863e-06
1.36476e-05
1.71381e-05
1.64405e-05
3.63459e-05
3.49415e-05
2.42235e-05
6.21873e-05
6.47292e-05
3.61126e-05
9.91409e-05
0.000109961
6.97208e-05
0.00011539
0.000174637
0.000150175
0.000115618
0.000266422
0.000234632
0.000210781
0.000299278
0.000433914
0.00040508
0.000313228
0.000354632
0.000462413
0.00065671
0.000607007
0.000604927
0.000564991
0.000400227
0.000204017
-0.000286141
-0.00222513
-0.0114271
-0.0811374
-0.423912
-0.581508
-0.572258
-0.50836
-0.499436
-0.465332
-0.443128
-0.409468
-0.380277
-0.344377
-0.314702
-0.278128
-0.245948
-0.216522
-0.186433
-0.158888
-0.134289
-0.109243
-0.0906822
-0.0717265
-0.0587275
-0.0465895
-0.0416046
-0.0384976
-0.0364849
-0.0341433
-0.033863
-0.0363711
-0.0403158
-0.0413548
-0.0411672
-0.0376824
-0.0244686
0.0129296
0.0959999
0.272266
0.435516
0.576895
0.6384
0.691805
0.730137
0.770883
0.80567
0.825509
0.855221
0.879931
0.885396
0.910722
0.910663
0.917431
0.915074
0.900434
0.879357
0.83232
0.737989
0.572543
0.410284
0.325058
0.299894
0.293061
0.294866
0.300426
0.313042
0.321422
0.338668
0.342363
0.360478
0.359001
0.372249
0.385959
0.389543
0.404208
0.39553
0.377993
0.359685
0.343611
0.39226
2.74481e-06
6.54077e-06
4.88058e-06
5.86923e-06
5.02434e-06
8.12505e-06
8.77966e-06
1.25818e-05
1.88913e-05
1.71813e-05
3.35207e-05
4.27967e-05
3.05687e-05
5.75504e-05
7.36374e-05
5.34306e-05
8.60947e-05
0.000127353
0.000105097
0.000100074
0.000195867
0.000206106
0.000103778
0.000232058
0.000325449
0.000282808
0.000242792
0.000355698
0.000467786
0.000407858
0.000351768
0.000289002
0.000507505
0.000650629
0.000648698
0.000481366
0.000397772
0.000314764
0.000299226
-0.00142484
-0.012641
-0.109677
-0.545692
-0.682654
-0.673744
-0.617368
-0.578927
-0.525475
-0.491023
-0.445014
-0.413326
-0.373682
-0.342388
-0.302778
-0.267349
-0.227551
-0.194615
-0.16417
-0.136807
-0.113207
-0.0913367
-0.0724482
-0.0603355
-0.0508522
-0.0460158
-0.043142
-0.0403179
-0.0360397
-0.0353745
-0.0380627
-0.0405414
-0.0400057
-0.0403489
-0.0348103
-0.0113121
0.0570063
0.213671
0.420633
0.559685
0.640761
0.713505
0.761688
0.811034
0.840758
0.867475
0.885934
0.907431
0.921857
0.926904
0.946829
0.943565
0.955405
0.959126
0.949097
0.931822
0.888496
0.800227
0.646164
0.46838
0.361669
0.324954
0.31479
0.317016
0.322431
0.334568
0.343094
0.359763
0.364759
0.383767
0.38341
0.398356
0.410424
0.416393
0.430742
0.42196
0.403999
0.380014
0.365158
0.414046
4.04102e-06
7.75332e-06
5.87622e-06
6.96319e-06
5.83277e-06
8.80254e-06
9.85956e-06
1.28108e-05
2.268e-05
1.74626e-05
3.01102e-05
5.36982e-05
2.8063e-05
4.96516e-05
9.22429e-05
5.89539e-05
6.40862e-05
0.000144552
0.000136651
6.88213e-05
0.000179434
0.000227419
0.00017204
0.000143654
0.00030155
0.000351597
0.000277738
0.000268297
0.00047858
0.000535335
0.000441786
0.000364798
0.000384605
0.000792769
0.000914251
0.0009973
0.00113438
0.00152468
0.00200884
0.000138472
-0.0160098
-0.164578
-0.674569
-0.755524
-0.739929
-0.700152
-0.647333
-0.591411
-0.542574
-0.490164
-0.451658
-0.404079
-0.368711
-0.323755
-0.28476
-0.238099
-0.201345
-0.16653
-0.137913
-0.113528
-0.0920303
-0.0740405
-0.0601683
-0.0516995
-0.0470463
-0.045267
-0.0414577
-0.0364632
-0.0350901
-0.0377797
-0.0408742
-0.0311753
-0.0152108
0.00937433
0.0723408
0.22132
0.419923
0.546889
0.657239
0.72942
0.777345
0.816385
0.843101
0.871111
0.910046
0.933098
0.96249
0.971936
0.973061
0.981802
0.97961
0.989923
0.989265
0.985147
0.971155
0.934468
0.854156
0.706545
0.516975
0.397868
0.355214
0.343101
0.344891
0.349257
0.360655
0.368699
0.385232
0.391808
0.412034
0.412495
0.426705
0.435196
0.442731
0.455788
0.447986
0.431
0.402449
0.388631
0.438094
5.07881e-06
8.66035e-06
6.74848e-06
7.99141e-06
6.57987e-06
8.79945e-06
1.13064e-05
1.15921e-05
2.42213e-05
2.11545e-05
2.58367e-05
5.78563e-05
4.10449e-05
4.215e-05
9.59518e-05
8.16072e-05
5.50898e-05
0.000146718
0.000160657
9.99964e-05
0.000162088
0.000261536
0.000211519
0.000129622
0.000294521
0.000397342
0.000365932
0.000226072
0.000321783
0.000591052
0.000541136
0.000444072
0.000262256
0.000356345
0.000956349
0.000946923
0.000873
0.000675233
0.000877629
-0.00417464
-0.0377052
-0.301228
-0.788969
-0.803256
-0.797252
-0.770798
-0.733416
-0.683424
-0.611996
-0.561819
-0.497774
-0.449831
-0.396189
-0.349143
-0.298074
-0.252664
-0.207139
-0.168878
-0.135354
-0.107941
-0.0896601
-0.0741006
-0.061649
-0.0506942
-0.0480784
-0.0481393
-0.0472101
-0.0325448
-0.0194125
-0.00151337
0.00823385
0.0545499
0.13872
0.25994
0.353633
0.458973
0.583331
0.646792
0.711255
0.773625
0.819744
0.864474
0.905862
0.935751
0.959471
0.966432
0.963086
0.976822
0.997189
1.01677
1.02349
1.03388
1.0317
1.01973
1.0014
0.964542
0.89381
0.757165
0.571211
0.445937
0.397213
0.379145
0.377293
0.37969
0.389986
0.396823
0.412184
0.418265
0.437208
0.437908
0.452003
0.456596
0.46643
0.478914
0.472879
0.458927
0.425984
0.413871
0.461846
6.32542e-06
9.84013e-06
7.75135e-06
8.89353e-06
7.79928e-06
9.36143e-06
1.21694e-05
1.21028e-05
2.5558e-05
2.45282e-05
2.46994e-05
5.59781e-05
4.76292e-05
3.73725e-05
9.63986e-05
9.20132e-05
6.42086e-05
0.00014008
0.000171755
0.00011825
0.000133662
0.000258444
0.00026189
0.000174547
0.000192252
0.000385164
0.000395772
0.000355467
0.000207349
0.000405875
0.000613755
0.000616528
0.000432634
0.000220122
0.00035197
0.000711554
0.000479364
-0.000491734
-0.00290563
-0.013153
-0.0768212
-0.464717
-0.809598
-0.839201
-0.830393
-0.809603
-0.788511
-0.74534
-0.705335
-0.631698
-0.573002
-0.499742
-0.446123
-0.380608
-0.328226
-0.270408
-0.216876
-0.169833
-0.13217
-0.103251
-0.0847188
-0.0673607
-0.0554675
-0.0329187
-0.0261106
-0.00571453
0.00359475
0.0514261
0.133013
0.242014
0.280454
0.341699
0.41661
0.483094
0.541053
0.581684
0.636433
0.686697
0.732064
0.769558
0.809027
0.84399
0.880068
0.896001
0.917916
0.944727
0.992178
1.02535
1.03577
1.03037
1.03151
1.03757
1.04854
1.04598
1.02988
0.993803
0.923217
0.792088
0.614318
0.48969
0.434592
0.410017
0.405258
0.406725
0.416401
0.421786
0.435927
0.441584
0.459892
0.461072
0.475657
0.477177
0.488779
0.50037
0.498075
0.487353
0.45171
0.440261
0.48734
7.3477e-06
1.06887e-05
8.602e-06
9.8432e-06
8.84594e-06
9.32692e-06
1.37437e-05
1.16413e-05
2.46515e-05
3.23789e-05
2.14966e-05
5.32652e-05
6.29486e-05
3.38329e-05
8.88761e-05
0.000110151
7.25529e-05
0.000122828
0.000179221
0.000156296
0.000134809
0.000258524
0.000280605
0.000241044
0.000155885
0.000357744
0.000456075
0.000419331
0.000232306
0.000221236
0.000587599
0.000642292
0.000587544
0.00023415
6.73462e-05
0.000694428
0.00104525
0.00160238
-0.000129343
-0.0135434
-0.118914
-0.589987
-0.834965
-0.865091
-0.863001
-0.85392
-0.844953
-0.821629
-0.795852
-0.739118
-0.680429
-0.599598
-0.521928
-0.438121
-0.362321
-0.288996
-0.220099
-0.169925
-0.123109
-0.0816752
-0.0683481
-0.0364771
-0.00747356
0.0423595
0.126303
0.232402
0.27547
0.322035
0.399118
0.457609
0.497503
0.519226
0.561777
0.597677
0.630926
0.647441
0.675995
0.704077
0.730223
0.76079
0.7934
0.82517
0.854673
0.886692
0.92806
0.968564
0.988431
0.996763
1.01545
1.04061
1.05833
1.06646
1.06231
1.05175
1.03409
1.00459
0.944304
0.822865
0.655641
0.535004
0.475143
0.445011
0.437168
0.437642
0.444984
0.448621
0.460836
0.466202
0.484169
0.485172
0.500251
0.498983
0.510935
0.521796
0.522499
0.515794
0.477631
0.467716
0.511565
8.51785e-06
1.17665e-05
9.60664e-06
1.04758e-05
1.02137e-05
9.92284e-06
1.42171e-05
1.33321e-05
2.26002e-05
3.6186e-05
2.38496e-05
4.48421e-05
6.89492e-05
4.04316e-05
7.35045e-05
0.00011984
9.11048e-05
0.000102474
0.000186978
0.000175915
0.000133616
0.000225288
0.000315835
0.000268085
0.000171849
0.000252738
0.000457999
0.000443607
0.000377101
0.000122194
0.000249074
0.000694879
0.000585177
0.000584204
3.01627e-05
0.000362886
0.000511821
0.00109311
-0.00297592
-0.0279291
-0.222608
-0.741221
-0.842496
-0.859401
-0.860199
-0.860474
-0.858831
-0.852141
-0.837379
-0.80658
-0.7712
-0.695829
-0.629048
-0.512056
-0.420364
-0.314556
-0.216836
-0.140281
-0.0797884
-0.0135862
0.0696161
0.171108
0.233699
0.296366
0.381562
0.444488
0.490354
0.512517
0.541023
0.577728
0.608344
0.620655
0.639203
0.650325
0.669199
0.6796
0.694173
0.710031
0.727145
0.750727
0.775145
0.800515
0.824655
0.851741
0.881892
0.912057
0.941538
0.983831
1.02486
1.03878
1.0471
1.057
1.0698
1.06883
1.05001
1.01456
0.94978
0.842158
0.690808
0.580064
0.516789
0.481808
0.470404
0.467108
0.47149
0.473928
0.484985
0.49007
0.507062
0.507676
0.522097
0.518054
0.530135
0.539894
0.54472
0.541794
0.505337
0.494889
0.536185
9.47991e-06
1.25327e-05
1.04305e-05
1.1159e-05
1.14566e-05
9.96059e-06
1.55281e-05
1.46805e-05
2.03445e-05
4.21863e-05
2.67642e-05
3.86729e-05
7.98698e-05
5.07553e-05
5.66758e-05
0.000130499
0.000109805
8.41686e-05
0.000174905
0.000204628
0.000149353
0.000209125
0.000309962
0.000302369
0.000221882
0.000206815
0.000434916
0.000499733
0.000403588
0.000221026
5.285e-05
0.000481274
0.000672457
0.00072018
0.000153597
-0.000494248
-0.000623929
-0.00177842
-0.0091176
-0.055613
-0.384285
-0.817571
-0.854379
-0.863493
-0.866571
-0.871312
-0.872073
-0.871809
-0.869033
-0.858548
-0.837937
-0.799277
-0.726615
-0.624882
-0.472499
-0.303132
-0.15849
0.0316506
0.142072
0.248075
0.327252
0.396079
0.44428
0.480783
0.513992
0.555493
0.583899
0.618399
0.628989
0.64354
0.657962
0.667954
0.678357
0.68664
0.698476
0.703319
0.708758
0.718435
0.730237
0.746932
0.764854
0.788066
0.810968
0.834803
0.85573
0.879783
0.908311
0.942524
0.980738
1.01816
1.05169
1.06721
1.07118
1.05778
1.03888
1.00774
0.958732
0.858189
0.721284
0.619826
0.554797
0.518015
0.502059
0.493557
0.495056
0.496597
0.506693
0.511891
0.527538
0.528701
0.542931
0.538791
0.550361
0.560389
0.567408
0.567519
0.532989
0.522079
0.558427
1.05351e-05
1.34656e-05
1.14264e-05
1.15642e-05
1.2614e-05
1.08981e-05
1.50124e-05
1.77181e-05
1.77998e-05
4.02522e-05
3.52648e-05
2.96108e-05
7.63695e-05
6.72378e-05
4.31621e-05
0.000124435
0.000131799
7.62686e-05
0.000164302
0.000207688
0.00016505
0.000172869
0.000307544
0.000297574
0.000237999
0.000193771
0.000390582
0.000511883
0.000431991
0.000301377
6.9313e-05
0.000148935
0.000757721