/*--------------------------------*- C++ -*----------------------------------*\
| =========                 |                                                 |
| \\      /  F ield         | OpenFOAM: The Open Source CFD Toolbox           |
|  \\    /   O peration     | Version:  2.2.x                                 |
|   \\  /    A nd           | Web:      www.OpenFOAM.org                      |
|    \\/     M anipulation  |                                                 |
\*---------------------------------------------------------------------------*/
FoamFile
{
    version     2.0;
    format      ascii;
    class       volScalarField;
    location    "1.4";
    object      pB;
}
// * * * * * * * * * * * * * * * * * * * * * * * * * * * * * * * * * * * * * //

dimensions      [1 1 -3 0 0 -1 0];

internalField   nonuniform List<scalar> 
14161
(
-0.00159006
0.000145833
-0.000143551
-0.000134707
-0.00018148
-0.000214799
-0.000256119
-0.000295612
-0.000338146
-0.000377648
-0.000420865
-0.000460077
-0.000499154
-0.000536216
-0.000552558
-0.000607578
-0.000612883
-0.000610558
-0.000639036
-0.00062089
-0.000596708
-0.000567658
-0.000527413
-0.000479486
-0.000415623
-0.000349732
-0.000270945
-0.000185421
-8.48317e-05
-2.11822e-05
8.8325e-05
0.00022916
0.000377977
0.00055934
0.000722793
0.000845246
0.000809359
0.000618658
-0.000108895
-0.00260815
0.00128741
-0.0280004
0.157049
-0.00549427
-0.0244709
-0.0073232
-0.00623825
-0.00206609
-0.00206428
-0.0003534
-0.000943726
0.000246897
-0.00033541
0.000272983
-0.00023647
0.000334669
-0.000183312
-6.43224e-05
-0.000471018
-0.000106974
-6.39167e-05
-8.65339e-05
-0.000165451
-0.00031639
-0.000312734
-0.000258509
-0.000316539
-0.000324959
-0.000432293
-0.000429416
-0.000488753
-0.000190312
-0.000392913
-0.00019776
-0.000525174
-0.000291172
-0.000532905
-0.000121718
7.84262e-05
0.000458831
0.000915245
0.000763501
0.000371283
0.000389041
0.00121884
0.00156855
0.00108455
0.00237307
-0.00403188
-0.0099144
-0.0072219
0.0019988
0.00332097
0.00406211
0.00317686
0.00140478
0.000883917
-0.000154496
0.000202372
-8.99328e-05
0.000196619
-0.000280309
6.97296e-05
-0.000128514
-0.000415008
-0.000214454
-0.000166031
6.14271e-05
-0.000237053
0.000103773
-0.000299955
0.000407232
-0.00198459
0.00257742
-0.00532214
0.00578352
-0.00960422
0.00954425
-0.0124805
-0.00159224
0.000147141
-0.000143887
-0.000134745
-0.000181768
-0.000215048
-0.00025642
-0.000295842
-0.00033857
-0.00037776
-0.00042078
-0.000458645
-0.000497517
-0.000538155
-0.000557481
-0.000602824
-0.000614845
-0.000617375
-0.000635866
-0.000623643
-0.000597948
-0.00056923
-0.00052925
-0.000481764
-0.000419314
-0.000351617
-0.000273414
-0.000184921
-8.95974e-05
-2.23168e-05
8.21569e-05
0.000198565
0.000331039
0.000479654
0.000577324
0.000585498
0.000471259
0.000219282
-0.000287675
-0.00253228
-0.00108447
-0.0236416
0.0446002
0.0358703
-0.00367365
0.00878291
0.0030463
0.00395306
0.00125798
0.00205935
0.000641318
0.00097021
0.000230208
0.000268076
-0.000852149
-0.000210312
-0.000524837
-0.000294925
-0.000371938
-0.000576606
-0.000563585
-0.000474972
-0.00073843
-0.000238267
-0.000271642
-0.000146723
0.00012877
-0.000146554
-0.000299006
0.000183137
0.000198069
6.13251e-06
0.000157965
0.000280116
-0.000137872
-9.72025e-05
-0.000261872
0.000788953
0.000608763
0.000617784
0.000530955
-0.000313736
-0.000650561
-4.35908e-05
0.00200488
8.67936e-05
0.00409275
0.00786584
0.0059527
0.00748522
0.0146806
0.00426354
0.00812738
0.00194097
-0.00014386
0.00068865
0.000374471
0.000132716
2.52554e-05
-0.000388471
-5.56174e-05
-0.000291066
-0.000208873
-9.93838e-05
-0.00017161
9.25354e-05
-0.000147355
0.000203829
-0.000191326
0.000279059
-0.0008659
0.000529565
-0.00240053
0.00241986
-0.00553072
0.00544779
-0.00908145
0.00900894
-0.0119022
-0.00159149
0.000146775
-0.000144
-0.000134949
-0.000181824
-0.000215097
-0.000256487
-0.000295945
-0.000338329
-0.00037788
-0.000420734
-0.000462124
-0.00049543
-0.000536995
-0.000562965
-0.000595475
-0.000612622
-0.000623274
-0.000631753
-0.000626065
-0.000599204
-0.000571463
-0.000527413
-0.000481589
-0.000421504
-0.000353054
-0.000274876
-0.000186229
-8.8017e-05
-2.045e-05
8.49118e-05
0.000250531
0.000419761
0.00065598
0.000897093
0.00125065
0.00157342
0.00212527
0.00332105
0.00494987
0.0086034
0.00971994
0.0339417
0.0370568
-0.00894594
0.00138806
-0.00010063
0.0010991
-0.0013732
-0.000510551
-0.00051902
-0.000466069
-0.000406464
0.000307236
-0.000571603
0.000159769
-0.000811026
0.000241287
-0.000175481
-0.00102499
0.000633402
-0.000646043
-0.000932651
0.000359634
-0.000788238
-0.000900329
0.00029963
-0.000248249
-0.000675104
0.000245631
-0.00027464
-0.00127591
-0.000856802
-0.000679568
-0.00139843
-0.0011574
-0.00101592
-0.000785061
-9.39055e-06
0.000765353
0.000685281
-0.000276066
-0.00123638
0.00103453
0.000617804
0.00164807
-0.00210549
0.00531131
0.00898081
0.00125726
-6.81896e-05
-0.00235225
0.000174999
-0.00140255
-0.000795497
-0.00157203
-0.000619108
-0.000887851
-0.000264817
-0.000445188
-0.000205884
-0.000386771
6.11457e-05
-0.000324889
-0.000125847
-0.000307387
-0.00031398
0.000113313
-0.000268978
3.46601e-05
-0.000482224
0.000840222
-0.00236473
0.00253242
-0.00524983
0.00548381
-0.00869207
0.00840195
-0.0109617
-0.00159226
0.000146485
-0.000144351
-0.000135212
-0.000182362
-0.00021524
-0.000257135
-0.000296247
-0.000339322
-0.000378711
-0.000421435
-0.000461579
-0.000497883
-0.000537542
-0.000567637
-0.000592946
-0.000618779
-0.000637584
-0.0006201
-0.000631892
-0.000601222
-0.000577903
-0.000532983
-0.000488097
-0.000427548
-0.000360656
-0.000281748
-0.000194108
-0.000107394
-2.78163e-05
5.36261e-05
0.000162992
0.000276892
0.000410603
0.000520508
0.000644514
0.000781389
0.0010326
0.00156129
0.00215269
0.00443009
0.00345909
-0.00197553
0.064969
-0.00797292
0.015847
-0.00145007
0.00779384
-0.000330866
0.00169331
0.000561372
0.000598939
0.000168965
0.000677532
-0.000178667
-0.000498487
-0.000384459
-0.00107223
4.06173e-05
-0.00168184
-0.000260312
-0.000593976
-0.0012053
2.89885e-05
-0.000427087
-0.000831735
0.000284111
0.0001467
-0.000409434
0.000104091
0.00019762
-0.00014268
0.000483928
-0.000154302
-0.000583654
0.000232625
0.000821397
0.00180264
0.000546551
-0.00222047
-0.00222529
-0.00188779
0.00376304
0.00112069
0.00171454
-0.000941824
0.0113898
0.0046412
0.00406128
-0.00289969
0.00617203
-0.000800875
-0.000313376
6.13851e-05
0.000498606
0.000393273
0.000287438
0.000190186
7.46747e-06
-0.000293273
7.59421e-05
-0.000205928
7.31453e-06
-0.00017313
-8.0216e-05
-0.000127416
-0.000275129
4.78036e-05
-0.000717481
0.00037927
-0.00117929
0.00094967
-0.00276457
0.00258954
-0.00526856
0.00509672
-0.00787606
0.00790973
-0.00979414
-0.00159105
0.000145637
-0.00014468
-0.000135287
-0.00018262
-0.00021553
-0.000257108
-0.00029657
-0.000339248
-0.000379429
-0.000421195
-0.000464613
-0.000496351
-0.00053484
-0.000576423
-0.00058645
-0.00061779
-0.000642883
-0.000620917
-0.000630038
-0.000606573
-0.000578933
-0.000536219
-0.000489592
-0.000429699
-0.000366995
-0.000285474
-0.000201319
-0.000102645
-2.73106e-05
7.36519e-05
0.000246028
0.000414657
0.00069221
0.000974827
0.00139107
0.00181386
0.00253947
0.00370122
0.00558747
0.0080089
0.00630787
0.0117811
0.0407432
-0.00855104
0.0120111
-0.00544464
0.00657737
-0.0010797
0.00163467
0.000570764
0.00128653
-0.0018516
-0.000694929
-0.00109351
0.000481812
-0.00210272
-7.9084e-05
-0.00166918
-0.000225851
-0.00125113
-0.000930737
0.000330921
-0.00112401
-0.000315522
0.00033649
-0.000932266
-0.000346905
0.000299692
-0.000264644
-0.00111562
-0.000734461
-0.000844012
-0.000694276
-0.000158593
-0.00123756
-0.001372
-0.00140625
0.00153728
0.000796531
-0.00320757
-0.00473291
-0.0020118
0.00653698
-0.00797192
0.0113927
0.00666068
-0.00257573
0.00297806
-0.00714198
0.00217106
-0.00571245
0.00332914
-0.00103431
-6.20221e-05
-0.00131119
-0.000217413
-0.00100197
-0.000203267
-0.000642696
-7.53399e-05
-0.000386267
-7.68868e-05
-0.000108078
0.000218636
-0.000158565
-0.000313684
0.000306155
-0.000811035
0.000388531
-0.00116624
0.00121031
-0.00249695
0.00267154
-0.00469911
0.00470283
-0.00693355
0.00620296
-0.00791769
-0.00159106
0.00014491
-0.000145197
-0.000135662
-0.000183217
-0.000215937
-0.000257952
-0.000296994
-0.000340187
-0.000380963
-0.000421198
-0.000463777
-0.000499052
-0.000533736
-0.000580415
-0.00058757
-0.000616841
-0.000651292
-0.000622781
-0.000637829
-0.000616129
-0.000586426
-0.000546969
-0.000501858
-0.000439895
-0.000381218
-0.000298906
-0.000220225
-0.000132514
-4.23071e-05
1.59747e-05
0.000123732
0.000214026
0.000346189
0.000471121
0.000649889
0.000918183
0.00126165
0.00191404
0.00300311
0.00484768
0.00210238
0.00935735
0.0519511
-0.00405361
0.0150632
-0.00473485
0.00700286
-0.00133972
0.00156068
-0.00124962
0.0003456
-0.00141761
-0.000591241
-0.00119864
-0.000788119
-0.00204809
-0.000396993
-0.00133987
-0.000201679
-0.000873415
-0.000200724
1.9461e-05
-0.000482215
-0.000104155
-0.000244873
-0.000107287
0.000359596
-0.000246545
-0.000649354
0.000278156
0.000515203
0.000255582
0.000791766
0.00123196
0.00115421
0.00058538
0.00102519
-0.000173304
-0.00066739
0.00268688
0.0143805
0.0145838
-0.0157091
0.0143195
0.00116138
-0.00327525
-0.00270508
0.00557545
-0.00852292
0.00942353
-0.00423513
0.00511633
0.000205839
0.00152202
0.000633391
0.000949394
0.000140319
0.000353058
0.000384059
0.000207225
-8.71986e-06
-0.000302883
-0.000399677
-0.000664869
-0.000553933
-0.000650444
-0.000141231
-0.000982718
0.000467517
-0.00152114
0.000979833
-0.00255052
0.0020804
-0.00420564
0.00377389
-0.00609309
0.00589219
-0.00720029
-0.00158973
0.000143811
-0.000145487
-0.00013618
-0.000183497
-0.000216141
-0.000258282
-0.000297635
-0.000340134
-0.000381722
-0.000420839
-0.000468063
-0.000499999
-0.000534041
-0.000584527
-0.000586677
-0.000619846
-0.000653519
-0.00062981
-0.000631654
-0.000627572
-0.000586612
-0.000556377
-0.000505887
-0.000449118
-0.000388706
-0.000308072
-0.000227748
-0.000128691
-4.37568e-05
3.80562e-05
0.0001937
0.000352965
0.000551463
0.000746654
0.000877232
0.000927896
0.00103431
0.00161725
0.0025782
0.00527478
0.0041434
0.0173343
0.0562136
-0.00942976
0.0139796
-0.00122677
0.00667197
0.00206568
0.00315771
0.00199015
0.00263621
-0.000273506
0.0015469
-0.00113407
0.0010856
-0.000627299
0.000344292
-0.000772655
8.44586e-05
-0.00135498
-5.32102e-05
-0.000916374
-0.000504774
-0.000207128
-0.00114546
-0.000426254
-8.20981e-06
-0.000666356
-0.000872253
-0.00016693
-0.000833932
-0.000775787
-0.000180739
-0.000570077
-0.00171971
-0.00282743
-0.00123918
0.00327788
0.00423057
-0.00157601
-0.00803079
-0.0143797
0.0155133
0.00229473
-0.00101844
0.00210832
-0.00219628
0.00395322
-0.00763308
0.00634556
-0.00693162
0.00431797
-0.00352867
-0.00128892
-0.00175771
-0.000778678
-0.00152689
-0.00105892
-0.00137763
-0.000919165
-0.000766354
-0.000535982
-0.000220023
-0.000187968
3.10639e-05
-0.000410961
4.99077e-05
-0.000821315
0.000673885
-0.00119716
0.00117999
-0.00194981
0.00192139
-0.0034121
0.00316192
-0.00438247
0.00449586
-0.00500079
-0.00158949
0.000142903
-0.000146123
-0.000136695
-0.000184218
-0.000216724
-0.000259066
-0.000298687
-0.000340715
-0.000384348
-0.000421886
-0.00046616
-0.0005075
-0.000534765
-0.000580728
-0.000605347
-0.000617578
-0.000657384
-0.000655894
-0.000623539
-0.000641897
-0.000596799
-0.000570825
-0.000518149
-0.000470961
-0.000402812
-0.000335746
-0.00025769
-0.000174797
-8.42449e-05
-2.03996e-05
5.43556e-05
0.000133412
0.000222956
0.000297707
0.00033136
0.000370095
0.000378343
0.000774843
-8.4776e-05
0.00450213
-0.0108864
0.0576832
0.0516195
-0.0460998
-0.00407006
-0.00810535
-0.00302
-0.00310475
-0.00105333
-0.00271878
0.000740682
-0.00230043
0.000841926
-0.00144936
0.000429746
-0.000786103
0.000188789
-0.000800835
5.4621e-05
-0.000261799
-0.000175832
-0.000132726
-0.000402585
0.000212982
-0.000371678
4.07151e-06
0.000169351
-1.10476e-05
0.000279639
0.000325397
0.000204334
0.000473434
-0.000242396
-0.000557121
-0.000430838
0.00291657
0.00348952
0.000481716
-0.00613453
-0.00130411
0.0123271
0.00564098
0.0113257
-0.00262379
0.00265607
-0.00129577
-0.00279929
0.00330163
-0.00885308
0.00910787
-0.00752225
0.00684592
-0.00205962
0.00301423
0.000592179
0.000966143
-0.000311153
-0.000167545
-1.3607e-05
-0.000198986
-0.000416089
-0.00067301
-0.000443973
-0.000792967
-0.000303399
-0.000691891
0.000312485
-0.000819941
0.000532602
-0.00128406
0.000591277
-0.00178208
0.0010899
-0.00293474
0.00251366
-0.00396062
0.0040372
-0.00450118
-0.00158828
0.000141797
-0.000146682
-0.000137063
-0.00018463
-0.000217406
-0.000259263
-0.000299468
-0.000341013
-0.00038504
-0.000423496
-0.000467813
-0.000508598
-0.000537622
-0.000580748
-0.000605543
-0.000622028
-0.000657008
-0.000658329
-0.000630397
-0.000646241
-0.000605726
-0.000585263
-0.000517472
-0.000490885
-0.000416754
-0.000356932
-0.000269648
-0.000178946
-8.89225e-05
-1.34564e-05
9.59578e-05
0.000209518
0.000329638
0.000322951
0.000261992
1.03139e-07
-0.00116247
-0.00339658
-0.00741666
-0.010576
-0.0281082
0.0732331
0.0462551
0.0322987
0.00622597
0.00262167
0.00276443
-0.00148534
0.000522054
-0.00173509
0.000109728
-0.00285955
0.00154969
-0.00188566
-0.000956283
-0.000523171
-0.000715394
-0.000948576
-0.00125275
-0.00149219
-0.00135287
-0.00169059
-0.00144052
-0.00167865
-0.00123603
-0.000707999
-0.00103778
-0.000692639
-0.000568247
-0.000899679
-0.00129019
-0.000622932
-0.000920959
-0.000513745
-0.00224466
-0.00132295
-0.00260049
-0.00157214
0.00494642
-0.000602093
-0.000927696
-0.00231011
0.00045229
-0.000818714
-0.00233741
4.09968e-05
-0.00207433
0.00369659
-0.00683116
0.00611716
-0.00737877
0.0055775
-0.00496089
0.00164953
-0.00116202
-0.000394123
-0.00116502
-0.000497552
-0.00054554
0.000108487
-0.000198864
0.000189246
0.000232525
-0.000121431
0.000297018
-0.00035984
0.000345204
-0.00071776
0.000613673
-0.000918878
0.000633161
-0.00120865
0.000962156
-0.00225638
0.00212175
-0.00293384
0.00309602
-0.0031675
-0.00158801
0.000140877
-0.000147375
-0.00013778
-0.000185341
-0.000218286
-0.000260065
-0.000301265
-0.000341549
-0.000387922
-0.000426912
-0.000463924
-0.00051718
-0.000540237
-0.000578653
-0.000616964
-0.00064332
-0.000640841
-0.000684066
-0.000651118
-0.000649547
-0.000634182
-0.000600017
-0.000545565
-0.000513238
-0.000442676
-0.000393564
-0.000308023
-0.000235221
-0.000155973
-7.84415e-05
-2.01692e-05
2.75099e-05
5.93264e-05
6.0523e-05
5.79849e-05
-2.46602e-05
-0.000305343
-0.000314458
-0.00207172
0.000114111
-0.0145307
0.0780975
0.0644236
-0.0321425
-0.00957743
-0.00857787
-0.00406325
-0.00494651
-0.00304832
-0.00471159
-0.00479761
-0.00371263
-0.00438608
-0.00501385
5.85474e-05
-0.00304406
-0.00111642
-0.00139825
-0.000649
-0.000492193
-0.000461871
0.000415818
-0.000722456
-0.00028448
-9.0729e-05
0.000275151
-5.096e-06
0.000273587
2.33851e-06
-2.46579e-05
-0.000795167
0.000950614
0.000308026
0.000661581
-0.00125482
0.00208442
0.000192121
0.00292047
0.00125175
-0.00448848
0.00409958
0.00235063
0.000193768
-0.00095575
-0.0034796
-0.00137924
-0.00725952
0.00232993
-0.00705683
0.00581228
-0.00529487
0.00469046
-0.00353486
0.00284789
3.73371e-05
0.000685133
-0.000640368
-0.000599501
-0.000689004
-0.000875107
-0.000491383
-0.000834786
-0.000423856
-0.000865352
-0.000115558
-0.001036
0.000192073
-0.0011612
0.00039204
-0.00115302
0.000247399
-0.00105032
0.000413816
-0.00191967
0.00178448
-0.0025833
0.00286262
-0.00295673
-0.00158712
0.000139882
-0.000147856
-0.000138494
-0.000185883
-0.000218882
-0.000260782
-0.000302102
-0.000342345
-0.00038847
-0.000429065
-0.00046584
-0.000517372
-0.000554774
-0.000569644
-0.000625092
-0.000657922
-0.000626418
-0.000693356
-0.000677323
-0.000639602
-0.000647243
-0.000611113
-0.000567617
-0.000528668
-0.000470238
-0.000410955
-0.000342172
-0.000261316
-0.000169538
-7.9457e-05
-3.0676e-06
0.000115273
0.000227175
0.00033115
0.000395716
0.000488573
0.00031055
0.000432812
-0.000527898
0.00364121
-0.00671056
0.0565455
0.0703829
-0.0223057
0.00745927
-0.00188756
-0.000345264
-0.00118487
-0.000882734
-0.00148217
-0.00353049
0.00053367
-0.00285843
2.1055e-05
-0.00229944
-0.00167138
-0.0020623
-0.00211761
-0.00138051
-0.0020601
-0.00141749
-0.00178823
-0.00120433
-0.00100746
-0.0011656
-0.00058436
-0.00114481
-0.000999327
-0.000490981
-0.000617493
-0.000860536
-0.000251308
-0.00120826
-0.000548598
-0.000452734
-0.000714004
0.000790959
0.000916878
-0.00145518
0.00489855
0.0050754
-0.00211953
0.00154596
0.0018326
-0.00185144
0.00402206
-0.00305089
0.00455321
-0.00403342
0.00749445
-0.000745443
0.00592248
-0.00174758
0.00563888
0.00173714
0.00187123
0.000236877
0.000703387
-0.000133369
0.000322083
5.55084e-05
3.52202e-05
-0.000191996
-0.000336275
-5.80293e-05
-0.000796509
0.000272561
-0.000906278
0.000616488
-0.000744809
0.000405749
-0.000639392
0.000356992
-0.00147
0.00145
-0.00203526
0.00201585
-0.00222601
-0.00158702
0.000139062
-0.000148604
-0.000139329
-0.000186623
-0.000220132
-0.000261668
-0.000303943
-0.000343644
-0.000390845
-0.000432635
-0.000467705
-0.000520864
-0.000559082
-0.000570862
-0.000635027
-0.000663662
-0.000633843
-0.000706419
-0.000702505
-0.000640571
-0.000679035
-0.000641651
-0.000601553
-0.000554147
-0.000513407
-0.00045168
-0.000391206
-0.00031796
-0.000247698
-0.000183032
-0.000109185
-4.97622e-05
3.89524e-06
8.97122e-05
0.000238253
0.000512878
0.00107359
0.00196184
0.00194481
0.00686316
-0.00419915
0.0507684
0.0601381
-0.0136668
0.00545217
-0.00144015
-0.00299335
-0.00169022
-0.00200387
-0.00338815
-0.00402703
-0.000831885
-0.00430683
0.000201264
-0.00304823
0.00129124
-0.00272854
0.00122072
-0.00230544
-0.000778611
0.000928479
-0.000408332
7.29052e-05
0.000308094
0.000169534
-5.22133e-05
-9.17609e-05
-0.00021637
-0.000190204
-0.000208505
-0.000314965
2.17338e-05
-0.000362614
0.000134269
-0.000780509
-0.00160488
0.00152839
0.00613972
0.00354342
0.000926246
-0.00145305
-0.00227197
-0.00338977
-0.00194626
-0.00578179
0.000906157
-0.00747803
0.00201702
-0.00562143
0.00276225
-0.0026923
0.00172973
-0.00375463
0.00297202
-0.00300786
0.000364253
-0.00143681
-0.00118861
-0.00113006
-0.00125438
-0.000752745
-0.000923379
-0.000674957
-0.000969214
-0.000260952
-0.00118743
0.000195881
-0.0011792
0.000442988
-0.000821624
0.000107427
-0.000564703
6.55184e-05
-0.00129845
0.00132092
-0.0020437
0.00229388
-0.00233176
-0.00158652
0.000138229
-0.000149196
-0.000140078
-0.00018728
-0.000221066
-0.000262425
-0.000304881
-0.000345522
-0.00039067
-0.00043654
-0.000471629
-0.000521228
-0.000563612
-0.000579606
-0.000637936
-0.000666854
-0.000666281
-0.000695355
-0.00071887
-0.000673293
-0.000680489
-0.000663794
-0.00064004
-0.000574729
-0.000548249
-0.000493168
-0.000434031
-0.000364903
-0.000285169
-0.000190873
-9.99881e-05
-1.95291e-05
0.000156715
0.000365428
0.000692661
0.00116121
0.0018527
0.00308861
0.00376729
0.00905337
0.00158535
0.0554576
0.0635945
-0.0263448
0.00221066
-0.00276113
-0.00391676
-0.000277962
-0.00220012
0.000800383
-0.00507896
0.00254782
-0.00334886
0.001661
-0.00165214
0.00131047
-0.00153182
0.000389369
-0.00107703
-0.000991488
-0.000245385
-0.00116922
0.000261797
-0.000286147
0.000350112
-0.000897375
-0.000491824
-0.00051482
-0.000557955
-0.000340219
-0.000134604
-0.000806307
-0.0008135
-0.00101622
-0.00138374
-0.00214618
0.00241273
0.00453439
0.00836119
-0.0064752
0.000209026
-0.00126443
-0.00352825
0.00122794
-0.00369423
0.00151669
-0.00727059
0.00443477
-0.00317142
0.00369353
-0.000961258
0.00236312
-0.00186152
0.00226372
-0.00123542
0.00301965
0.000433936
0.00132605
0.000215914
7.99656e-05
8.06351e-05
-8.40792e-05
-0.000145954
-0.000304272
5.50133e-05
-0.000687251
0.000498874
-0.000856552
0.000590347
-0.000684084
0.000228953
-0.000655655
0.000137022
-0.00094797
0.000923602
-0.00143841
0.00171469
-0.00207617
-0.00158679
0.000137546
-0.000149897
-0.000141073
-0.000188106
-0.000222448
-0.000263547
-0.000306545
-0.000348236
-0.000391965
-0.000440499
-0.000477753
-0.000519446
-0.000567699
-0.000602023
-0.000633438
-0.000670905
-0.00069974
-0.000684896
-0.000742549
-0.000714454
-0.00068956
-0.000699005
-0.000676962
-0.000622403
-0.00059113
-0.000548732
-0.000498399
-0.000450437
-0.000383562
-0.000329124
-0.000294689
-0.000243485
-0.000208827
-0.000126993
-8.39252e-05
5.28559e-05
0.000229144
0.000403888
-0.000798932
0.00363574
-0.0235646
0.0785652
0.0866618
-0.0291764
0.0181147
-0.00500416
0.00128941
0.00142596
-0.00213407
0.000140241
-0.00683207
0.00259838
-0.00489005
0.000210661
-0.00312945
-0.000288757
-0.00269976
-0.00018455
-0.00194992
-0.00173235
-0.00129435
-0.00170915
-0.000418671
-0.00077366
-0.000373883
-0.000111628
-0.000307554
-0.000642149
-0.000583791
-0.000443771
-0.000742919
-0.000869555
-0.00105635
-0.00171716
-0.00139382
-0.00479498
0.00424409
0.00420733
0.00677534
-0.00633571
-0.00111333
-0.00433326
-0.00714632
-0.000899268
-0.00398257
-0.00152589
-0.0106973
0.00021866
-0.00465889
0.00118037
-0.00270613
0.00040652
-0.00254017
0.00139669
-0.0007199
0.00041442
-0.00088378
0.000236694
-0.000829635
-0.000477635
-0.000495928
-0.000532575
-0.00070137
-0.000819803
-0.000203351
-0.00110975
0.000283806
-0.00117459
0.000402143
-0.000746158
5.71798e-05
-0.000637079
8.38421e-05
-0.000967966
0.000935195
-0.00148899
0.00168636
-0.0021216
-0.0015867
0.000136927
-0.000150477
-0.000142002
-0.000188941
-0.000223342
-0.000264818
-0.000307533
-0.000351085
-0.000392915
-0.000442741
-0.000483784
-0.00052186
-0.000573345
-0.000616133
-0.000628077
-0.000687107
-0.000719547
-0.000698546
-0.000744432
-0.000753342
-0.000710924
-0.000718201
-0.000708544
-0.000680582
-0.000630681
-0.000596188
-0.000566266
-0.000523464
-0.000456394
-0.000392667
-0.000319617
-0.000250122
-0.000161741
-0.000123402
-7.30976e-05
-0.000229303
-0.0010791
-0.00161197
-0.0034294
-0.000344161
-0.0215714
0.102663
0.0719523
-0.0319635
0.00719021
-0.00765015
-0.00912684
-0.00387833
-0.00940409
-0.00142678
-0.00721369
-0.000552052
-0.00480045
9.7341e-05
-0.00200521
-0.000656159
-0.00171478
-2.10749e-05
-0.00193875
-0.000284114
-0.000232911
-0.00132955
-0.000389951
-0.000140695
1.95795e-05
-0.000263909
0.000186806
-0.000396861
-0.000579692
-0.000486263
-0.000333159
-0.000262923
-0.000176828
-0.000738108
0.000186748
0.00300751
0.00725186
-0.00110101
0.0024252
-0.00663853
-0.000311274
-0.0041456
-0.00317509
0.00114518
0.00234806
-0.00340862
-0.00397073
-0.00132606
-0.00501219
0.00065893
-0.00159239
0.00024671
-0.00177856
-5.41795e-05
-0.00159004
0.000115747
0.00163902
0.00105057
0.000166008
-0.000218652
0.000193774
0.000128026
2.10926e-05
5.53955e-05
0.000300822
-0.000611239
0.000675283
-0.00083588
0.000537855
-0.00016052
-6.58933e-05
-0.000209624
-0.000390241
-0.000444687
0.000584499
-0.00101274
0.00111816
-0.00189058
-0.00158745
0.000136425
-0.00015112
-0.000143093
-0.000189886
-0.000224815
-0.000266459
-0.000308977
-0.000354926
-0.000394729
-0.000446494
-0.00049267
-0.000521555
-0.00058156
-0.000628047
-0.000633621
-0.000693653
-0.000737418
-0.00072597
-0.000743559
-0.000790852
-0.000766397
-0.000723679
-0.000763218
-0.000750923
-0.000680064
-0.000654101
-0.000646039
-0.000623846
-0.000574707
-0.000530543
-0.00051352
-0.000536079
-0.000530543
-0.000410536
-0.00024633
8.26139e-05
0.000400356
0.0015327
0.00138279
0.00746818
-0.00803082
0.0929257
0.0583541
-0.0198011
-0.00700289
-0.00508344
-0.00885248
0.000585644
-0.00481719
0.00133698
-0.00206015
0.00119781
-0.000283954
0.0012994
0.00162022
-0.00183029
0.000389944
-0.00196069
-0.000994972
-0.00291748
0.000392977
-0.00130982
-0.000312053
-0.00132484
0.000118333
-0.000560975
-2.2084e-05
0.000201192
2.19943e-05
-3.10427e-05
-0.000434791
-0.00015853
-6.93485e-05
-0.00235721
3.43335e-05
-0.00307897
0.0174118
-0.0136348
0.00128737
-0.00734965
-0.00419046
-0.00553608
-0.00483548
-0.0025236
-0.00548348
-0.00703983
-0.000934419
-0.00200411
-0.00258916
0.00057522
-0.00202746
0.000684604
-0.000239643
0.00233005
0.000445838
0.000810816
0.00181737
-0.00036561
-0.000178668
-0.000302118
-6.31731e-05
-9.801e-05
-0.000298119
-0.000307753
0.000125816
-0.000797219
0.000410906
-0.00116099
0.000120833
-0.000388681
-0.000121711
-0.000334906
-0.000380638
-0.000400134
0.000485933
-0.00101961
0.00102157
-0.00184607
-0.001588
0.000136012
-0.00015174
-0.000144084
-0.000190938
-0.000225775
-0.000268205
-0.000310222
-0.000357584
-0.000397505
-0.000448989
-0.000497355
-0.000528471
-0.000585796
-0.000636179
-0.000651744
-0.000700809
-0.000751615
-0.000763877
-0.000752991
-0.000820322
-0.000812697
-0.000769213
-0.000788769
-0.000802475
-0.000776657
-0.000705831
-0.000717433
-0.000730034
-0.000703623
-0.000629373
-0.000573707
-0.00048148
-0.000438439
-0.000310472
-0.000238782
-7.11895e-05
-4.72748e-05
0.000176019
0.000385289
0.00471567
0.0016389
0.0671315
0.049548
-0.00623416
0.00314687
0.00449541
-0.000298782
0.00137265
-0.00366698
-0.000326925
-0.00400632
-0.001663
-0.0028132
-0.00821789
0.00439153
-0.00417427
0.000217791
-0.00238588
-0.00151578
-0.000288705
0.00021914
-0.00044382
-0.000363407
0.000113252
0.000727512
5.45775e-05
0.000440022
0.000410903
0.000447905
0.000729894
0.000449481
0.000788737
-0.000227746
0.00124436
0.000227818
0.0100439
-0.00434869
0.00171134
0.0046312
-0.00492796
-0.000321151
0.00193174
0.00128986
0.000569817
-0.000596365
-0.00102846
0.00332889
-0.00230226
-0.00392391
-0.00372842
-0.00142412
-0.00055305
0.00042951
-0.000436003
-0.00151336
0.000630291
0.000917401
-0.000519658
-0.00086983
-0.00133092
-0.000657798
-0.00021874
-0.000286178
-0.00023744
5.67208e-05
-0.000602356
0.00062708
-0.000915834
0.000517195
-8.89252e-05
1.95169e-05
0.000117748
-0.000519005
0.000110953
5.32705e-05
-0.000614801
0.000466242
-0.00158388
-0.00158927
0.000135731
-0.000152366
-0.000145112
-0.000192136
-0.000227101
-0.000270429
-0.000311917
-0.000361261
-0.000400886
-0.000451109
-0.000505036
-0.000535876
-0.000591223
-0.00064474
-0.000669042
-0.000707064
-0.00076806
-0.000787148
-0.000775824
-0.000842687
-0.000852566
-0.000844741
-0.000802337
-0.000872663
-0.000868019
-0.000817
-0.000773011
-0.000818633
-0.000829233
-0.000802542
-0.000786498
-0.000699742
-0.000834884
-0.000867429
-0.000826418
-0.000595653
4.01541e-06
0.000542195
0.00255005
0.00479582
0.0101047
0.0634752
0.0377038
0.0166125
0.0148405
0.011194
0.00669091
0.00556123
0.00204167
-0.00104963
0.00277202
-0.0039652
0.00532799
-0.00487921
0.000759616
-0.000358221
-0.000153319
-0.000336824
-0.00143375
-0.00216724
0.00177751
-0.000203687
0.00063325
-0.000112826
-2.40693e-05
0.000912554
-1.82853e-05
9.59129e-05
0.00169741
0.000954483
0.00322072
0.00468901
0.00306373
0.00245336
0.00436481
0.0122845
-0.00847359
-0.00190793
0.000622484
-0.000398936
0.00117784
0.00799431
0.000734221
-0.00342404
0.000551776
0.00245048
0.0040197
0.00301265
0.00254593
-0.000337841
-0.00220708
-0.0016692
-0.00201549
-0.00114236
-0.000850344
0.000843538
4.76232e-05
0.000462097
0.000343883
0.000160393
6.22778e-05
-0.000163959
-0.000212894
-9.96785e-05
9.53458e-05
-0.000411464
0.00056438
-0.000965802
0.00030795
-0.000369172
-2.69223e-05
-0.000159459
-0.000523303
0.00013436
-0.000301831
-0.000597389
0.000324614
-0.00146108
-0.00159053
0.000135573
-0.000152994
-0.000146066
-0.000193467
-0.000228169
-0.000272573
-0.000313719
-0.000363389
-0.000406125
-0.000454358
-0.000508969
-0.000549441
-0.000594867
-0.000653177
-0.000695277
-0.000717858
-0.000782355
-0.000814294
-0.000823831
-0.000855155
-0.000898985
-0.000908359
-0.000859431
-0.000923375
-0.000932956
-0.000948938
-0.000886796
-0.000878416
-0.000959153
-0.000951246
-0.000937882
-0.000882931
-0.000871892
-0.000962592
-0.00126696
-0.00154807
-0.0022704
-0.00358403
-0.00341359
-0.0136625
0.0443503
0.028156
0.0214194
-0.00436423
0.00170185
-0.00278788
0.0036122
0.0023635
0.00429378
0.0028055
-0.000433782
0.00258103
-0.00435604
0.000174025
-0.00271023
-0.00259095
-0.00270141
0.00266695
-0.00296981
-8.72863e-05
-0.0017734
0.000918158
0.000513923
0.0011756
0.00148585
0.002406
0.00257112
0.00684831
0.00306975
0.00923116
0.00381053
0.00722557
0.00106333
0.00542384
0.00106677
0.00314524
0.00103123
0.00932437
0.00355212
7.44835e-05
0.00486006
0.00294925
0.00281892
0.002919
0.00483524
0.00729817
0.00558359
-0.000932718
0.00232008
0.00388551
-0.000528335
-0.000797316
0.000236816
-0.000999496
-0.00093285
0.000820356
-0.000934696
0.000743732
-0.000203145
-0.000392078
-0.000119461
0.000125793
-7.4817e-05
0.000149497
0.00019231
-0.000291788
0.000512769
-0.000862911
0.000348689
-0.000163711
2.01103e-05
0.000175899
-0.00047923
0.000425959
-0.000705541
-5.29404e-05
-0.000246692
-0.000934688
-0.00159244
0.000135502
-0.000153644
-0.000147027
-0.000194944
-0.000229445
-0.000275023
-0.000315971
-0.000366405
-0.000412058
-0.000457496
-0.000514112
-0.000561569
-0.000598616
-0.000664097
-0.000712614
-0.000735365
-0.000794592
-0.000840119
-0.000869455
-0.000874678
-0.000944035
-0.000966495
-0.000955755
-0.000939234
-0.00104329
-0.00103968
-0.00104542
-0.000956898
-0.00108192
-0.00115282
-0.00117852
-0.00120826
-0.00123818
-0.00152522
-0.00161082
-0.00172691
-0.00102973
-0.00152788
0.0032083
-0.0103558
0.0907406
0.0190301
-0.00494739
-0.000261768
0.00139099
0.00889974
0.00493146
0.013634
0.00548436
0.0151672
-0.00269484
0.00640697
-0.00563798
0.000624966
-0.00334657
1.32092e-05
-0.00231942
-0.00361179
0.00129761
-0.00117826
0.00118583
0.00238848
-0.000848179
0.0090329
0.00219061
0.0132351
0.00549918
0.0104108
-0.00117693
0.00847554
0.00159172
0.00555415
0.00264211
0.00364298
0.00160333
0.00434549
0.00213377
0.00316664
0.00227318
0.0041338
0.00425125
0.00455676
0.00953651
0.00702287
0.00251397
0.000414434
-0.000446201
0.00372864
0.0045343
0.00398233
0.00456217
0.000596136
0.00341418
0.00287565
0.00231547
0.00122009
0.000611911
0.00168237
0.000170408
0.000231849
8.3747e-05
9.85826e-05
-0.000124301
-2.32716e-05
-0.000107216
-0.000365118
0.000316728
-0.00080605
0.000406363
-0.000433146
-2.02044e-05
3.32305e-05
-0.000324379
5.98009e-05
-0.000832162
-2.45274e-05
-0.000359055
-0.00055598
-0.00159449
0.00013557
-0.000154317
-0.000147849
-0.000196455
-0.000230756
-0.000277197
-0.000318657
-0.000368258
-0.000419383
-0.000460452
-0.000518763
-0.0005755
-0.000605627
-0.000673859
-0.00073272
-0.000755298
-0.000810072
-0.000873143
-0.00090685
-0.000913