/*--------------------------------*- C++ -*----------------------------------*\
| =========                 |                                                 |
| \\      /  F ield         | OpenFOAM: The Open Source CFD Toolbox           |
|  \\    /   O peration     | Version:  2.2.x                                 |
|   \\  /    A nd           | Web:      www.OpenFOAM.org                      |
|    \\/     M anipulation  |                                                 |
\*---------------------------------------------------------------------------*/
FoamFile
{
    version     2.0;
    format      ascii;
    class       volScalarField;
    location    "1.4";
    object      rho;
}
// * * * * * * * * * * * * * * * * * * * * * * * * * * * * * * * * * * * * * //

dimensions      [1 -3 0 0 0 0 0];

internalField   nonuniform List<scalar> 
14161
(
0.996846
0.996957
0.996806
0.996597
0.996314
0.99596
0.995532
0.995032
0.994461
0.993821
0.99311
0.992354
0.99157
0.99071
0.989782
0.988823
0.987975
0.987024
0.986065
0.985286
0.984506
0.983762
0.983045
0.98241
0.981878
0.98155
0.98143
0.981342
0.981176
0.981045
0.981093
0.981251
0.981511
0.981871
0.982387
0.983115
0.983668
0.983909
0.984297
0.982154
0.985114
0.98807
1.51425
2.66844
2.51472
2.44303
2.40552
2.37597
2.3433
2.31768
2.3046
2.29844
2.29047
2.27957
2.26611
2.25407
2.24237
2.23358
2.22624
2.22216
2.22089
2.22065
2.22055
2.22005
2.2194
2.21857
2.21685
2.21425
2.21179
2.20894
2.20242
2.1953
2.18346
2.17085
2.15895
2.14918
2.14178
2.13936
2.14454
2.15726
2.17297
2.18512
2.18731
2.18171
2.17241
2.16241
2.14457
2.15072
2.12398
2.12215
2.31455
2.56157
2.82031
2.9703
3.05515
3.11872
3.13693
3.15465
3.16057
3.16263
3.16808
3.17629
3.18527
3.19918
3.21727
3.22541
3.22713
3.23015
3.23101
3.22804
3.21882
3.20599
3.1836
3.15242
3.11408
3.09901
3.09597
3.11265
3.12986
0.99684
0.996951
0.9968
0.996591
0.996307
0.995953
0.995525
0.995024
0.994453
0.993813
0.993116
0.992346
0.99152
0.990653
0.989744
0.988828
0.988008
0.987071
0.986093
0.985256
0.984469
0.983732
0.983025
0.982383
0.981842
0.981506
0.981377
0.981299
0.981134
0.980999
0.981043
0.981175
0.981401
0.981692
0.982085
0.982652
0.982916
0.982923
0.982342
0.980514
0.980849
0.966863
1.61478
2.53494
2.55849
2.50842
2.48154
2.46241
2.44042
2.4213
2.40129
2.38353
2.36099
2.33903
2.31671
2.29689
2.27647
2.25816
2.2404
2.22389
2.20792
2.19159
2.1755
2.16177
2.15038
2.14045
2.13155
2.12334
2.11524
2.10742
2.09844
2.08843
2.07693
2.06546
2.05457
2.04683
2.04223
2.04343
2.05484
2.07294
2.09326
2.10526
2.10961
2.1039
2.09758
2.08608
2.07703
2.14311
2.24627
2.37291
2.60105
2.74722
2.89937
3.00372
3.06194
3.0981
3.12327
3.12776
3.13369
3.13642
3.13944
3.14444
3.15141
3.1621
3.17728
3.19819
3.21709
3.22758
3.23234
3.23731
3.23578
3.23176
3.21672
3.18973
3.14528
3.11695
3.10497
3.1142
3.13585
0.996838
0.996948
0.996797
0.996588
0.996303
0.995949
0.995521
0.99502
0.994449
0.993808
0.993101
0.992346
0.991528
0.990653
0.989738
0.988837
0.988003
0.987066
0.986094
0.985243
0.984461
0.983721
0.983008
0.98236
0.981818
0.981486
0.981354
0.981287
0.981125
0.980976
0.981021
0.981193
0.981495
0.981931
0.982542
0.983507
0.984556
0.985781
0.988042
0.991255
1.00107
0.997409
1.82451
2.5937
2.70017
2.6739
2.6504
2.62588
2.59669
2.56975
2.54375
2.5178
2.48638
2.45572
2.42534
2.39802
2.37083
2.34547
2.32111
2.29778
2.27711
2.25708
2.23908
2.22443
2.2115
2.20095
2.19199
2.18304
2.17482
2.16715
2.15679
2.14366
2.1301
2.11623
2.10376
2.09505
2.09096
2.09273
2.10616
2.12715
2.14749
2.16111
2.16687
2.16577
2.16283
2.17086
2.23531
2.38997
2.58557
2.66024
2.73429
2.7801
2.86544
2.95307
3.01393
3.04547
3.06752
3.07476
3.08137
3.08598
3.08927
3.09436
3.10064
3.1114
3.12722
3.14837
3.16868
3.18368
3.19405
3.20401
3.20767
3.20834
3.20014
3.17987
3.14011
3.10954
3.09793
3.10691
3.12868
0.996833
0.996942
0.996791
0.996581
0.996296
0.995941
0.995512
0.99501
0.994438
0.993796
0.993089
0.992328
0.991517
0.990641
0.989735
0.988817
0.987882
0.987022
0.986137
0.985239
0.984444
0.983701
0.982978
0.982313
0.981758
0.98141
0.981262
0.981187
0.98101
0.980859
0.980864
0.980959
0.981164
0.981416
0.981758
0.982211
0.982651
0.982939
0.983557
0.984592
0.987911
0.978818
1.86537
2.60026
2.75369
2.76788
2.73629
2.70835
2.67259
2.63892
2.60312
2.57074
2.53399
2.49968
2.46441
2.43275
2.40341
2.37746
2.35237
2.32923
2.30734
2.29074
2.27623
2.264
2.25373
2.24381
2.23602
2.22888
2.22143
2.21378
2.20443
2.1927
2.18069
2.16968
2.15976
2.15438
2.15318
2.15673
2.17051
2.18945
2.20686
2.22181
2.23792
2.2481
2.27305
2.33298
2.46121
2.59776
2.65643
2.69016
2.73552
2.77778
2.83101
2.89766
2.95454
2.98662
3.00869
3.0172
3.02475
3.0304
3.03522
3.04159
3.04946
3.06154
3.07858
3.10006
3.1203
3.13892
3.15099
3.16375
3.17384
3.17927
3.17683
3.16391
3.1334
3.10649
3.09525
3.10264
3.12019
0.996832
0.996939
0.996788
0.996577
0.996291
0.995936
0.995507
0.995005
0.994432
0.99379
0.99308
0.992313
0.991499
0.990622
0.989755
0.988865
0.987866
0.986945
0.986088
0.985181
0.984367
0.983657
0.98298
0.982301
0.981732
0.981374
0.981231
0.98114
0.980963
0.980802
0.980847
0.98101
0.981302
0.981768
0.982409
0.983427
0.984729
0.986255
0.988531
0.991998
0.998242
0.989346
1.9099
2.61357
2.745
2.75691
2.73012
2.7075
2.6782
2.64404
2.60583
2.57
2.5316
2.50296
2.47141
2.443
2.41449
2.39323
2.37044
2.34713
2.32858
2.31171
2.29872
2.28673
2.27557
2.26769
2.26112
2.25521
2.24996
2.24307
2.23408
2.22472
2.2138
2.20166
2.19117
2.1803
2.17513
2.17678
2.19224
2.21715
2.24237
2.2705
2.3009
2.33644
2.40082
2.51289
2.56671
2.63846
2.63837
2.64469
2.67621
2.70957
2.76508
2.82963
2.88726
2.92247
2.94697
2.96152
2.96778
2.97408
2.97987
2.98832
2.99879
3.01284
3.03074
3.0518
3.07455
3.0927
3.11129
3.12461
3.14185
3.15107
3.15282
3.14612
3.12617
3.10233
3.09103
3.09533
3.11114
0.996829
0.996935
0.996782
0.99657
0.996284
0.995928
0.995497
0.994994
0.994419
0.993777
0.993064
0.992294
0.991477
0.990598
0.989725
0.988839
0.987823
0.986907
0.98604
0.985109
0.984309
0.983591
0.982912
0.982211
0.981629
0.981246
0.981082
0.980978
0.980778
0.980593
0.980601
0.980675
0.980844
0.981096
0.981368
0.981757
0.982328
0.982885
0.983683
0.985124
0.989103
0.980931
1.81775
2.59307
2.73574
2.75284
2.71541
2.68326
2.65021
2.61332
2.57492
2.54478
2.51391
2.48841
2.46165
2.43886
2.41821
2.40456
2.38457
2.36356
2.34543
2.33147
2.32034
2.30869
2.29885
2.29055
2.28404
2.28014
2.27603
2.27085
2.26455
2.2564
2.24809
2.23978
2.23241
2.22463
2.21861
2.22227
2.2407
2.26712
2.29524
2.33071
2.37177
2.41937
2.50312
2.58415
2.59198
2.60564
2.61217
2.59888
2.62403
2.64308
2.69974
2.76957
2.83474
2.86964
2.90351
2.91794
2.9257
2.93191
2.93528
2.9416
2.95005
2.96188
2.97826
2.999
3.0266
3.05665
3.07737
3.09925
3.11828
3.13661
3.13843
3.13055
3.11542
3.09248
3.08345
3.08392
3.09995
0.996828
0.996932
0.996779
0.996566
0.996279
0.995921
0.99549
0.994986
0.99441
0.993767
0.993052
0.99228
0.991464
0.990579
0.989692
0.988804
0.987778
0.986852
0.986017
0.98507
0.984237
0.983519
0.982838
0.982125
0.981535
0.981141
0.980969
0.980845
0.980649
0.980446
0.980461
0.980581
0.980832
0.981236
0.981778
0.982419
0.98316
0.984002
0.985352
0.987255
0.994554
0.989745
1.78885
2.5931
2.68443
2.66025
2.61179
2.57784
2.56186
2.54266
2.52379
2.50861
2.49004
2.47188
2.45337
2.43822
2.42253
2.40752
2.39083
2.37089
2.35456
2.3377
2.32656
2.31617
2.30702
2.29855
2.29216
2.28734
2.28236
2.27712
2.26963
2.25963
2.25063
2.24102
2.23145
2.22362
2.21853
2.22176
2.244
2.27775
2.3129
2.35516
2.41522
2.51262
2.56334
2.62027
2.59972
2.57942
2.57602
2.5615
2.57649
2.591
2.63798
2.71595
2.79141
2.83321
2.87216
2.88823
2.89792
2.90614
2.91312
2.92231
2.93107
2.9398
2.94971
2.96275
2.98364
3.00936
3.03742
3.06133
3.08991
3.11521
3.1223
3.11995
3.10635
3.08293
3.07826
3.08227
3.09323
0.996826
0.996928
0.996773
0.996559
0.996271
0.995912
0.99548
0.994975
0.994396
0.993746
0.99304
0.992266
0.991448
0.990571
0.989639
0.988714
0.987736
0.986805
0.985955
0.985019
0.984154
0.983406
0.982708
0.981984
0.981374
0.980959
0.980746
0.980591
0.980357
0.980115
0.9801
0.980149
0.980269
0.980477
0.980769
0.98101
0.981227
0.981596
0.982048
0.982116
0.985267
0.983811
1.55565
2.57741
2.5872
2.55611
2.51888
2.5081
2.50538
2.49979
2.48934
2.48023
2.46284
2.44843
2.43559
2.41822
2.40332
2.38321
2.36662
2.34411
2.32753
2.30734
2.29586
2.28165
2.27344
2.26491
2.25852
2.25336
2.24862
2.24415
2.23844
2.22919
2.22086
2.21062
2.20049
2.19319
2.1904
2.19259
2.21607
2.25185
2.29119
2.35864
2.42838
2.54169
2.56387
2.58949
2.57702
2.56319
2.55196
2.53083
2.53848
2.54731
2.59038
2.66384
2.75549
2.81736
2.86739
2.88955
2.90179
2.91331
2.92489
2.93539
2.94219
2.94872
2.95577
2.96488
2.97906
2.99651
3.01822
3.03777
3.06719
3.09502
3.11258
3.10819
3.09626
3.07636
3.07295
3.07996
3.08525
0.996825
0.996925
0.99677
0.996554
0.996265
0.995905
0.995471
0.994964
0.994384
0.993736
0.993025
0.992238
0.991405
0.990548
0.989625
0.988707
0.987756
0.986762
0.985853
0.984945
0.984068
0.983297
0.982586
0.981859
0.981216
0.980799
0.980561
0.980378
0.980122
0.979831
0.979821
0.97989
0.980055
0.980331
0.980675
0.980918
0.981081
0.980588
0.978928
0.974753
0.969211
0.972187
1.26055
2.30931
2.62079
2.58521
2.53208
2.51165
2.49606
2.47604
2.45542
2.4369
2.41332
2.40033
2.37994
2.35453
2.33655
2.31198
2.29203
2.26668
2.24897
2.23014
2.21826
2.20541
2.1986
2.18994
2.18643
2.18272
2.17924
2.17526
2.17071
2.16102
2.15065
2.14118
2.13225
2.12317
2.12322
2.12994
2.14783
2.21737
2.26552
2.34375
2.42935
2.51922
2.53872
2.55934
2.55552
2.54667
2.5381
2.52128
2.5284
2.535
2.56414
2.61922
2.71521
2.80192
2.86412
2.90044
2.91549
2.92634
2.93618
2.94534
2.94978
2.95477
2.96113
2.96943
2.98257
2.99756
3.01555
3.03222
3.0583
3.08655
3.09908
3.0955
3.08704
3.07054
3.06954
3.07634
3.07553
0.996822
0.996922
0.996765
0.996548
0.996257
0.995896
0.99546
0.994951
0.994368
0.993717
0.993005
0.992212
0.99138
0.990547
0.989576
0.988597
0.98773
0.986728
0.985725
0.984866
0.983992
0.983147
0.982407
0.981674
0.981009
0.980562
0.980276
0.980032
0.979716
0.979388
0.979347
0.979372
0.979445
0.979582
0.979761
0.979936
0.980173
0.980235
0.980375
0.979203
0.981082
0.986488
1.39737
2.5403
2.56977
2.49213
2.44749
2.42232
2.40794
2.39392
2.3788
2.36198
2.3535
2.33741
2.3075
2.29298
2.27416
2.25223
2.23262
2.21011
2.19407
2.17601
2.16671
2.15482
2.15171
2.14716
2.14669
2.14608
2.14363
2.13925
2.13494
2.12651
2.11724
2.10704
2.09595
2.08363
2.08405
2.09554
2.1157
2.18755
2.25642
2.34266
2.38903
2.4528
2.46589
2.47548
2.49214
2.50097
2.51905
2.51437
2.52859
2.53417
2.55744
2.60012
2.67953
2.77952
2.85606
2.90127
2.92039
2.9363
2.94529
2.94964
2.95167
2.95488
2.96001
2.96692
2.9797
2.99268
3.00984
3.02614
3.05334
3.08195
3.09143
3.08754
3.08026
3.06697
3.06745
3.07326
3.0701
0.996821
0.996919
0.996761
0.996543
0.99625
0.995887
0.995449
0.994939
0.994353
0.993695
0.992981
0.992185
0.991335
0.990517
0.98955
0.988529
0.987651
0.986669
0.985612
0.984768
0.983913
0.983008
0.982228
0.98148
0.980801
0.980324
0.979991
0.979698
0.979354
0.978986
0.97892
0.978953
0.979059
0.979254
0.979525
0.979854
0.980295
0.980884
0.981664
0.981212
0.984615
0.98291
1.66442
2.52407
2.62622
2.57845
2.52259
2.48248
2.45297
2.42605
2.40103
2.3755
2.36535
2.34653
2.32424
2.29949
2.27738
2.25333
2.23023
2.21209
2.193
2.17469
2.16253
2.15371
2.14942
2.14759
2.14937
2.15225
2.14959
2.14415
2.13795
2.13161
2.1251
2.11418
2.10233
2.08965
2.0807
2.09169
2.15234
2.22083
2.303
2.38925
2.38168
2.38859
2.39944
2.41171
2.43634
2.45435
2.48345
2.49076
2.51306
2.52035
2.5419
2.57343
2.63409
2.73625
2.83482
2.89502
2.92087
2.93757
2.94781
2.95383
2.9538
2.95477
2.95797
2.96256
2.97376
2.98433
3.00107
3.01822
3.04849
3.07703
3.08449
3.07979
3.07328
3.06367
3.06411
3.06934
3.06339
0.996818
0.996915
0.996756
0.996536
0.996241
0.995876
0.995436
0.994923
0.994335
0.993671
0.992953
0.992155
0.991291
0.990467
0.989504
0.988454
0.987563
0.986579
0.985478
0.984614
0.983779
0.982822
0.982003
0.981255
0.980526
0.979986
0.979589
0.979249
0.978867
0.978439
0.978267
0.978269
0.97831
0.978422
0.978642
0.978884
0.979317
0.980269
0.981599
0.982983
0.988377
0.980452
1.80415
2.57904
2.69264
2.63003
2.56706
2.51529
2.48882
2.45422
2.42366
2.39215
2.37831
2.36025
2.33878
2.31627
2.29439
2.27672
2.25551
2.2391
2.20977
2.19688
2.18446
2.17188
2.16366
2.16346
2.16777
2.17197
2.16964
2.16403
2.15789
2.1511
2.14404
2.1333
2.12054
2.10507
2.09088
2.10631
2.2079
2.28978
2.34441
2.38924
2.37595
2.36367
2.35659
2.35986
2.37722
2.39635
2.42385
2.44613
2.4792
2.49113
2.51406
2.53923
2.58977
2.67627
2.78904
2.87413
2.91218
2.93375
2.94576
2.95316
2.95222
2.95121
2.95296
2.95569
2.96511
2.97413
2.99106
3.00944
3.04336
3.07155
3.07937
3.07471
3.0695
3.06134
3.06119
3.0666
3.05904
0.996816
0.996912
0.996752
0.99653
0.996233
0.995866
0.995424
0.994908
0.994317
0.99365
0.992926
0.992131
0.991249
0.990385
0.989458
0.988396
0.987451
0.986503
0.985397
0.984426
0.983589
0.982646
0.981754
0.980987
0.980243
0.979636
0.979172
0.978784
0.97838
0.977914
0.97764
0.977601
0.977648
0.977821
0.978103
0.978545
0.979427
0.980495
0.982279
0.98437
0.99257
0.989315
1.77297
2.60137
2.67634
2.60882
2.56027
2.51265
2.4903
2.45743
2.429
2.39175
2.378
2.36001
2.33794
2.31669
2.29192
2.27701
2.25292
2.23863
2.20638
2.1991
2.18075
2.1758
2.16323
2.16232
2.16546
2.1667
2.16351
2.15842
2.1513
2.14459
2.13483
2.1248
2.11197
2.09675
2.08667
2.12332
2.24906
2.35581
2.36264
2.35776
2.35742
2.35225
2.33745
2.3313
2.33724
2.34572
2.36288
2.39002
2.4307
2.45063
2.47727
2.50157
2.54749
2.62494
2.74491
2.84604
2.89994
2.9285
2.94256
2.94987
2.94848
2.94535
2.94521
2.94686
2.95541
2.96282
2.97995
2.99914
3.03559
3.06304
3.0728
3.06835
3.06456
3.05713
3.05768
3.06371
3.05569
0.996812
0.996908
0.996747
0.996523
0.996224
0.995855
0.99541
0.99489
0.994296
0.993623
0.992889
0.992102
0.991217
0.990297
0.989404
0.988363
0.987321
0.986378
0.985311
0.984241
0.983351
0.982439
0.981461
0.98064
0.979876
0.979208
0.978654
0.97819
0.977748
0.977242
0.976832
0.976603
0.976528
0.976499
0.976524
0.976594
0.976637
0.97661
0.976643
0.975171
0.978609
0.970228
1.59546
2.65823
2.65061
2.58321
2.51568
2.45762
2.42984
2.39534
2.36073
2.33172
2.31985
2.30565
2.28446
2.26853
2.24322
2.23189
2.20254
2.19023
2.15272
2.15537
2.13407
2.13497
2.12862
2.12312
2.12075
2.11937
2.11817
2.11653
2.11173
2.10685
2.10108
2.09514
2.08353
2.06887
2.07839
2.13452
2.27642
2.36679
2.35215
2.32644
2.33261
2.32086
2.30678
2.29972
2.29895
2.30259
2.30321
2.32483
2.36777
2.39821
2.43066
2.45735
2.50021
2.5693
2.68053
2.80437
2.87972
2.91171
2.9278
2.93832
2.93952
2.93658
2.9351
2.93502
2.94254
2.94825
2.96497
2.98539
3.02414
3.05075
3.06348
3.0603
3.05786
3.05073
3.05342
3.06018
3.05152
0.996809
0.996904
0.996742
0.996517
0.996215
0.995843
0.995396
0.994872
0.994276
0.993598
0.992849
0.992072
0.991176
0.990208
0.989326
0.98832
0.987191
0.986221
0.985226
0.984074
0.983089
0.982226
0.981205
0.980269
0.979496
0.978792
0.978096
0.977505
0.977019
0.976516
0.976015
0.975644
0.975457
0.975357
0.975344
0.975436
0.975418
0.974845
0.974151
0.971552
0.973715
0.976571
1.51082
2.54261
2.53332
2.47482
2.42177
2.36685
2.34472
2.32044
2.30692
2.2946
2.27991
2.26838
2.24675
2.23912
2.21113
2.20388
2.17256
2.15871
2.11297
2.12092
2.09738
2.09927
2.09426
2.08724
2.08279
2.08131
2.08047
2.08098
2.07842
2.07486
2.0744
2.07384
2.06668
2.05809
2.09158
2.19356
2.29649
2.34454
2.32575
2.30892
2.30361
2.28653
2.28085
2.29142
2.28885
2.28236
2.26131
2.27448
2.30304
2.33104
2.36632
2.39932
2.44344
2.50921
2.61417
2.76291
2.86528
2.90657
2.92737
2.94233
2.94341
2.93839
2.93342
2.93041
2.93503
2.93809
2.9534
2.97268
3.01132
3.03702
3.05299
3.0513
3.04974
3.04252
3.04782
3.05582
3.04781
0.996805
0.9969
0.996736
0.996509
0.996206
0.99583
0.99538
0.994851
0.994252
0.993569
0.992802
0.992024
0.991139
0.990124
0.989214
0.988246
0.987067
0.986038
0.985079
0.983878
0.982793
0.981912
0.980903
0.979823
0.97901
0.978325
0.977523
0.976728
0.976155
0.975666
0.975141
0.974497
0.973963
0.973608
0.973495
0.973466
0.973429
0.972988
0.973247
0.972797
0.976411
0.985234
1.62178
2.3795
2.44903
2.40504
2.37411
2.34185
2.33031
2.31823
2.30994
2.30444
2.28789
2.27533
2.24066
2.23662
2.2048
2.19819
2.16681
2.14781
2.0941
2.10257
2.08592
2.08642
2.07388
2.07162
2.07044
2.06851
2.06774
2.06888
2.07089
2.0695
2.0703
2.07191
2.06221
2.06818
2.15733
2.30341
2.29721
2.29796
2.30584
2.30087
2.27874
2.26052
2.26829
2.27625
2.25758
2.24652
2.22606
2.23973
2.25823
2.2863
2.32099
2.3535
2.39613
2.45965
2.56144
2.72363
2.84736
2.89849
2.92248
2.94101
2.94331
2.93831
2.93167
2.92534
2.9272
2.92816
2.94131
2.95806
2.99454
3.01956
3.03926
3.03945
3.03877
3.03216
3.04034
3.04956
3.04173
0.996801
0.996895
0.99673
0.996502
0.996196
0.995817
0.995363
0.99483
0.994225
0.993539
0.992759
0.991968
0.991093
0.990053
0.989099
0.988144
0.986949
0.985845
0.984881
0.983705
0.982494
0.98154
0.980582
0.979411
0.978434
0.977684
0.976917
0.975919
0.975116
0.974574
0.974081
0.973425
0.972604
0.972138
0.972082
0.972163
0.972488
0.972419
0.972494
0.97249
0.976445
0.998193
1.70162
2.27377
2.36735
2.36274
2.37094
2.37171
2.36539
2.35697
2.33841
2.32187
2.29275
2.27513
2.21912
2.22075
2.20747
2.18259
2.16892
2.13164
2.09926
2.08599
2.08796
2.07972
2.07166
2.07331
2.07641
2.07459
2.07283
2.07704
2.08279
2.08018
2.08659
2.09652
2.10862
2.16426
2.29859
2.35612
2.3614
2.34951
2.33036
2.28818
2.27145
2.28288
2.28205
2.25376
2.23891
2.23464
2.22624
2.23016
2.21807
2.23835
2.2701
2.30851
2.35173
2.40968
2.50849
2.67572
2.81982
2.88402
2.91043
2.93191
2.93632
2.93161
2.92486
2.91764
2.9189
2.91907
2.93008
2.94357
2.97652
3.00107
3.02505
3.02675
3.02699
3.02169
3.03232
3.04245
3.03618
0.996795
0.99689
0.996724
0.996493
0.996185
0.995803
0.995345
0.994807
0.994195
0.993506
0.992715
0.991897
0.991041
0.98999
0.988967
0.988028
0.986846
0.985645
0.984639
0.98352
0.982216
0.981133
0.980168
0.978993
0.97782
0.976932
0.97617
0.975198
0.974057
0.973307
0.972805
0.972256
0.971273
0.970081
0.969483
0.969338
0.969566
0.969878
0.969177
0.96961
0.973264
1.01848
1.80033
2.15535
2.2325
2.26473
2.29331
2.31777
2.34073
2.34615
2.3249
2.30572
2.26689
2.24645
2.20061
2.19135
2.17175
2.16604
2.14008
2.13117
2.079
2.06867
2.06766
2.07097
2.06811
2.0703
2.08139
2.07973
2.0799
2.09528
2.11118
2.11873
2.16702
2.24902
2.34018
2.44352
2.56528
2.49712
2.45124
2.43528
2.36975
2.32253
2.32204
2.32043
2.28949
2.24919
2.24905
2.25166
2.24614
2.23363
2.22023
2.22127
2.23405
2.2584
2.29871
2.36349
2.46752
2.6284
2.79606
2.87772
2.90738
2.9296
2.93325
2.92865
2.92124
2.91076
2.90926
2.90741
2.91686
2.92783
2.95795
2.98158
3.00916
3.01296
3.01456
3.0103
3.0219
3.03315
3.02689
0.99679
0.996884
0.996717
0.996485
0.996173
0.995788
0.995326
0.994784
0.994164
0.993471
0.992672
0.99182
0.990976
0.989932
0.98883
0.987861
0.986741
0.985443
0.984348
0.983289
0.981948
0.980691
0.979668
0.978601
0.977257
0.976149
0.975262
0.974404
0.973108
0.971881
0.971234
0.970766
0.970106
0.968567
0.967111
0.966616
0.966284
0.966455
0.963588
0.962095
0.965371
1.1347
1.90225
2.07837
2.11181
2.12252
2.1389
2.17243
2.21382
2.24474
2.25477
2.238
2.22599
2.19138
2.16899
2.13386
2.13677
2.10188
2.10947
2.09211
2.05552
2.04838
2.05176
2.05598
2.06094
2.07498
2.09091
2.09337
2.13515
2.2177
2.31951
2.40397
2.52281
2.64792
2.73258
2.72653
2.7101
2.65691
2.61532
2.5732
2.49065
2.43913
2.41085
2.35757
2.31771
2.30552
2.29846
2.28772
2.25589
2.23685
2.23222
2.23202
2.24055
2.25578
2.27974
2.32642
2.42312
2.58359
2.76916
2.86426
2.8965
2.91929
2.92397
2.92101
2.9151
2.90487
2.90192
2.89856
2.90563
2.91339
2.93943
2.96321
2.9932
2.99861
3.00175
2.99766
3.00964
3.02175
3.01718
0.996783
0.996877
0.99671
0.996475
0.996161
0.995772
0.995306
0.994758
0.994127
0.993434
0.992629
0.991737
0.990886
0.989873
0.988703
0.987687
0.986604
0.985244
0.984039
0.98298
0.981677
0.980232
0.979103
0.978081
0.976705
0.975278
0.974268
0.973373
0.972242
0.970588
0.96953
0.969013
0.96841
0.96722
0.964725
0.963431
0.962844
0.963291
0.963221
0.966515
0.975987
1.41285
1.97725
2.03283
2.03801
2.0371
2.04917
2.07373
2.1128
2.15626
2.18813
2.18293
2.18706
2.17611
2.14763
2.12892
2.09666
2.10857
2.07055
2.07662
2.04945
2.0452
2.07035
2.06817
2.12307
2.20473
2.30918
2.39118
2.50748
2.62084
2.73814
2.80872
2.83116
2.84185
2.84984
2.82929
2.80041
2.76518
2.7352
2.69581
2.6482
2.60833
2.56078
2.48699
2.43268
2.3996
2.35004
2.30655
2.28683
2.2781
2.27756
2.26568
2.24761
2.24621
2.26522
2.31609
2.40601
2.55265
2.73569
2.85001
2.89216
2.91476
2.91705
2.91283
2.90708
2.89696
2.89411
2.89032
2.89642
2.90093
2.92233
2.94452
2.97697
2.98351
2.98796
2.983
2.99545
3.00843
3.00359
0.996776
0.99687
0.996701
0.996465
0.996148
0.995756
0.995284
0.994731
0.99409
0.993388
0.992587
0.991664
0.990774
0.989799
0.988586
0.987501
0.986434
0.985038
0.983723
0.982628
0.981368
0.979771
0.978497
0.977427
0.976173
0.974481
0.973211
0.972207
0.971201
0.969597
0.9678
0.966923
0.966441
0.965726
0.963971
0.961775
0.960983
0.960726
0.961593
0.968138
0.996958
1.67703
2.00645
2.0177
2.00999
2.00553
2.00672
2.01838
2.02959
2.06669
2.09466
2.12894
2.15067
2.17559
2.14746
2.13473
2.10659
2.09079
2.11453
2.06832
2.10036
2.14163
2.24502
2.33285
2.46559
2.5872
2.71064
2.79366
2.83168
2.85584
2.87606
2.8678
2.85521
2.83507
2.8361
2.82583
2.81602
2.80332
2.78633
2.7654
2.74013
2.70649
2.66343
2.60988
2.55144
2.50306
2.44259
2.39676
2.36822
2.34134
2.30892
2.27779
2.25998
2.26258
2.27818
2.31838
2.39775
2.53246
2.71014
2.8313
2.88194
2.91024
2.91348
2.9089
2.90198
2.89072
2.88693
2.88139
2.8857
2.88597
2.90361
2.92437
2.9603
2.96821
2.9741
2.96824
2.98051
2.9939
2.99097
0.996768
0.996862
0.996692
0.996454
0.996134
0.995738
0.995261
0.994702
0.994051
0.993335
0.992539
0.991595
0.990655
0.989704
0.988475
0.987303
0.986239
0.984843
0.983398
0.982245
0.981008
0.979312
0.977859
0.976694
0.975513
0.973735
0.97206
0.970911
0.969899
0.968661
0.966425
0.964748
0.963985
0.963455
0.962327
0.959174
0.955417
0.951539
0.951611
0.956229
1.0491
1.84725
2.03147
2.03887
2.02799
2.01649
2.00785
2.00186
2.00275
2.00552
2.01317
2.03833
2.06894
2.10165
2.10455
2.12841
2.08211
2.15372
2.23119
2.2678
2.39095
2.50185
2.63274
2.72567
2.7641
2.79956
2.82647
2.8355
2.83432
2.83561
2.84279
2.83868
2.83267
2.81307
2.8107
2.80919
2.81163
2.81193
2.80759
2.79479
2.77739
2.75587
2.72829
2.69369
2.65474
2.6135
2.5537
2.49546
2.44636
2.40695
2.36474
2.32597
2.29892
2.29181
2.30597
2.33955
2.40936
2.52561
2.6862
2.80683
2.86792
2.90373
2.90909
2.90418
2.89769
2.88631
2.88119
2.87389
2.87608
2.8736
2.88751
2.90599
2.94405
2.9533
2.96016
2.95301
2.96475
2.97855
2.97626
0.996759
0.996853
0.996683
0.996442
0.996119
0.995719
0.995236
0.994672
0.994012
0.993277
0.99249
0.991532
0.990525
0.98959
0.988375
0.9871
0.986006
0.984653
0.983084
0.981828
0.980589
0.97886
0.977178
0.975886
0.974706
0.973021
0.970942
0.969499
0.968384
0.967302
0.965505
0.962943
0.961511
0.9609
0.960339
0.958859
0.956143
0.954012
0.956006
0.963999
1.26408
1.96526
2.01203
2.01137
2.0071
2.00546
1.9985
1.99249
1.9875
1.98508
1.97986
1.98786
2.0024
2.03134
2.09824
2.17401
2.30482
2.3801
2.5256
2.61834
2.67076
2.72386
2.74536
2.77206
2.76759
2.78223
2.78828
2.79911
2.80234
2.79832
2.8054
2.807
2.80883
2.79998
2.79872
2.80165
2.80964
2.81476
2.81443
2.80789
2.79483
2.77782
2.7585
2.73299
2.70263
2.67009
2.63198
2.58879
2.5431
2.48525
2.42616
2.38024
2.35187
2.34509
2.3523
2.37574
2.42655
2.53071
2.6745
2.78811
2.85375
2.89547
2.90473
2.90025
2.89392
2.88243
2.87601
2.86674
2.86717
2.86255
2.87484
2.89022
2.92798
2.93839
2.94556
2.93715
2.94866
2.96182
2.96175
0.996749
0.996843
0.996672
0.996429
0.996103
0.995699
0.99521
0.99464
0.993971
0.993212
0.992432
0.991473
0.990398
0.989433
0.988268
0.986899
0.985739
0.984446
0.982796
0.981398
0.980137
0.978412
0.976499
0.975079
0.973832
0.972249
0.969835
0.968014
0.96669
0.965654
0.964324
0.96159
0.959003
0.957728
0.95738
0.956688
0.95516
0.9524
0.955118
0.977574
1.54401
1.97594
2.01055
2.00749
2.00444
2.0011
1.9983
1.99496
1.99232
1.9897
1.98713
1.9917
2.01162
2.08217
2.27101
2.4757
2.65032
2.69279
2.70752
2.73851
2.73205
2.74816
2.74809
2.74432
2.73915
2.73819
2.74248
2.7468
2.754
2.75783
2.75977
2.76657
2.7767
2.77807
2.77841
2.78452
2.79592
2.80691
2.81043
2.808
2.80071
2.78999
2.77675
2.75865
2.73542
2.70858
2.67798
2.64295
2.60261
2.55616
2.51813
2.47252
2.42702
2.40354
2.3917
2.40915
2.45719
2.54623
2.6646
2.76948
2.83925
2.88433
2.89819
2.89411
2.88853
2.87712
2.86994
2.8591
2.85793
2.85155
2.86195
2.87442
2.91182
2.92312
2.93063
2.92146
2.93244
2.94436
2.94651
0.996738
0.996832
0.99666
0.996415
0.996086
0.995677
0.995182
0.994605
0.993929
0.993147
0.992353
0.991415
0.990289
0.98926
0.988139
0.986711
0.985447
0.984195
0.982515
0.980958
0.979645
0.97797
0.975856
0.974284
0.972974
0.971387
0.968781
0.96658
0.9651
0.964006
0.962748
0.960349
0.956696
0.954652
0.953578
0.953102
0.952319
0.950161
0.95396
1.01264
1.75797
2.00598
2.02373
2.02286
2.02059
2.01522
2.00863
2.00321
2.00098
2.00174
2.00906
2.03387
2.10687
2.29227
2.56446
2.7415
2.75392
2.74424
2.74333
2.73591
2.72884
2.72412
2.71855
2.71226
2.70982
2.70753
2.70571
2.70754
2.71312
2.71689
2.72353
2.7348
2.74566
2.74873
2.74944
2.75365
2.76483
2.78185
2.79241
2.79641
2.79465
2.78918
2.78102
2.77105
2.75748
2.73691
2.71069
2.68336
2.6522
2.61825
2.58078
2.53548
2.48729
2.45606
2.44112
2.45569
2.49258
2.55895
2.65373
2.75219
2.82293
2.86866
2.88721
2.88549
2.88111
2.87038
2.86313
2.85091
2.84815
2.84105
2.85056
2.86079
2.8964
2.90918
2.91587
2.90549
2.91576
2.92512
2.93159
0.996726
0.99682
0.996647
0.9964
0.996068
0.995655
0.995153
0.994566
0.993885
0.993086
0.992257
0.991347
0.990189
0.989076
0.987985
0.986534
0.985124
0.983884
0.982244
0.980496
0.979102
0.977502
0.97525
0.973495
0.972107
0.970507
0.967756
0.965176
0.963595
0.962516
0.961336
0.958946
0.954313
0.951636
0.949929
0.94908
0.948362
0.948822
0.956002
1.18174
1.90236
2.00576
2.02027
2.02138
2.02128
2.01746
2.01138
2.00632
2.00485
2.01112
2.03408
2.10749
2.28446
2.56233
2.75696
2.75668
2.74559
2.72939
2.71673
2.71395
2.70383
2.69465
2.69298
2.68795
2.68137
2.68013
2.67845
2.67836
2.67992
2.68424
2.69104
2.69984
2.70765
2.71185
2.71659
2.72134
2.72464
2.7437
2.75898
2.76949
2.77444
2.77378
2.77145
2.76661
2.75891
2.74791
2.73323
2.71391
2.68798
2.65976
2.62982
2.59729
2.55433
2.5188
2.4972
2.4992
2.52249
2.57282
2.64817
2.73768
2.80575
2.85146
2.87527
2.87636
2.87292
2.86339
2.85682
2.84414
2.8396
2.83078
2.83873
2.84609
2.87988
2.89415
2.90035
2.8893
2.89872
2.9054
2.91675
0.996712
0.996808
0.996633
0.996385
0.996048
0.995631
0.995123
0.994526
0.993841
0.99303
0.992157
0.991266
0.990105
0.988885
0.987798
0.986385
0.984819
0.983512
0.981979
0.980067
0.978476
0.976931
0.974706
0.972669
0.971175
0.969585
0.966802
0.963808
0.962121
0.961049
0.960034
0.957697
0.95241
0.949835
0.948556
0.948863
0.949931
0.954926
0.97649
1.49124
1.9447
1.98938
1.99614
2.00106
2.00598
2.00893
2.00976
2.01169
2.02014
2.04591
2.12178
2.30165
2.57371
2.76853
2.77509
2.75016
2.721
2.71458
2.70368
2.68979
2.68243
2.68055
2.67573
2.66988
2.6647
2.65952
2.65471
2.65405
2.65667
2.65975
2.66189
2.6679
2.67424
2.67882
2.68497
2.69266
2.69684
2.705
2.71576
2.73037
2.74407
2.75241
2.75717
2.75829
2.75593
2.74844
2.73908
2.72822
2.71197
2.68944
2.66466
2.63867
2.60558
2.56578
2.54101
2.53795
2.55534
2.59232
2.64864
2.72557
2.78888
2.83062
2.8588
2.8651
2.86339
2.85562
2.84954
2.83645
2.82961
2.8196
2.82614
2.83095
2.86295
2.87895
2.88449
2.87398
2.88288
2.88571
2.90288
0.996698
0.996794
0.996618
0.996368
0.996028
0.995606
0.995092
0.994482
0.993799
0.992978
0.99205
0.991158
0.990029
0.988716
0.987574
0.986229
0.98455
0.983123
0.981686
0.979717
0.977844
0.976251
0.974228
0.971885
0.970138
0.96854
0.965899
0.962507
0.960582
0.95952
0.958701
0.956616
0.951102
0.947117
0.944908
0.944419
0.945698
0.952598
1.01737
1.74694
1.99765
2.01183
2.01039
2.01101
2.01312
2.01502
2.01865
2.03172
2.06072
2.14213
2.33008
2.59246
2.77097
2.77584
2.73589
2.71478
2.71298
2.6942
2.68232
2.68123
2.67439
2.665
2.65958
2.65715
2.65277
2.6438
2.63649
2.63547
2.63576
2.63695
2.63929
2.64276
2.64656
2.65059
2.65392
2.6623
2.66914
2.67448
2.67757
2.68967
2.70677
2.72228
2.7345
2.74126
2.74108
2.73776
2.73162
2.72675
2.72019
2.70806
2.69004
2.66745
2.63953
2.60246
2.57486
2.56654
2.57612
2.60165
2.6473
2.71476
2.77429
2.8109
2.84232
2.85162
2.85368
2.84752
2.84135
2.82866
2.81988
2.80855
2.81335
2.81544
2.84536
2.86306
2.86823
2.85818
2.86769
2.8653
2.8891
0.996683
0.996779
0.996602
0.99635
0.996007
0.995581
0.995061
0.994438
0.993751
0.992932
0.99196
0.99102
0.989943
0.98857
0.987337
0.986036
0.984299
0.982727
0.981321
0.979394
0.977245
0.975556
0.973781
0.971307
0.96912
0.967301
0.965075
0.961401
0.958904
0.957749
0.957106
0.95544
0.950433
0.944593
0.942245
0.941618
0.944312
0.956716
1.1981
1.90905
2.00653
2.01811
2.01752
2.01515
2.01265
2.01349
2.02425
2.0548
2.14203
2.3392
2.60198
2.76576
2.75284
2.74224
2.70827
2.68696
2.67947
2.67668
2.67028
2.66231
2.65572
2.65301
2.64938
2.64359
2.63682
2.62986
2.62478
2.61994
2.61701
2.6179
2.61986
2.62092
2.62469
2.62865
2.63016
2.63598
2.64037
2.64412
2.6464
2.65604
2.66804
2.68095
2.6976
2.71211
2.72161
2.72832
2.73063
2.7271
2.72091
2.71248
2.70069
2.68387
2.66215
2.63528
2.61156
2.59873
2.60159
2.61855
2.65355
2.70742
2.75529
2.79102
2.82517
2.83891
2.84288
2.83788
2.83184
2.8207
2.81085
2.7981
2.80085
2.80027
2.82776
2.84583
2.85277
2.84228
2.8511
2.84897
2.87189
0.996666
0.996763
0.996585
0.996331
0.995984
0.995553
0.995029
0.994392
0.993689
0.992884
0.991881
0.99088
0.989837
0.988438
0.987095
0.985819
0.984066
0.982329
0.980892
0.979029
0.976663
0.974843
0.973209
0.970813
0.968122
0.966127
0.964146
0.96096
0.957317
0.955627
0.955077
0.954033
0.95115
0.944649
0.942722
0.942918
0.94724
0.976139
1.52605
1.95923
2.00336
2.01053
2.01178
2.01295
2.01626
2.02786
2.06126
2.15801
2.36319
2.61664
2.77109
2.74243
2.71571
2.71274
2.68256
2.66708
2.66218
2.65273
2.6463
2.64561
2.64479
2.6394
2.63225
2.62781
2.62405
2.61849
2.61191
2.60573
2.60205
2.60066
2.59998
2.60147
2.60462
2.60768
2.60734
2.61134
2.61454
2.61734
2.61957
2.62804
2.63748
2.65026
2.66848
2.68581
2.70195
2.71363