/*--------------------------------*- C++ -*----------------------------------*\
| =========                 |                                                 |
| \\      /  F ield         | OpenFOAM: The Open Source CFD Toolbox           |
|  \\    /   O peration     | Version:  2.2.x                                 |
|   \\  /    A nd           | Web:      www.OpenFOAM.org                      |
|    \\/     M anipulation  |                                                 |
\*---------------------------------------------------------------------------*/
FoamFile
{
    version     2.0;
    format      ascii;
    class       volScalarField;
    location    "1.25";
    object      By;
}
// * * * * * * * * * * * * * * * * * * * * * * * * * * * * * * * * * * * * * //

dimensions      [1 0 -2 0 0 -1 0];

internalField   nonuniform List<scalar> 
14161
(
-1.45391e-06
-1.24356e-07
-3.35067e-07
-2.14423e-07
-8.64314e-07
-8.10625e-07
2.89464e-07
4.14111e-07
-5.96011e-07
-1.60465e-06
1.04608e-07
6.60519e-07
2.05153e-07
-2.97615e-06
1.18952e-06
3.17603e-06
-1.60064e-06
-2.95018e-06
2.62092e-06
1.33109e-06
-5.96404e-06
4.04496e-06
6.42383e-06
8.37478e-06
4.70551e-06
3.53687e-06
-1.17724e-06
6.77643e-07
8.21436e-06
1.61727e-05
1.87793e-05
2.05765e-05
2.06152e-05
3.33436e-05
3.87733e-05
3.82458e-05
5.48654e-05
5.37488e-05
9.06268e-05
7.35461e-05
9.39723e-05
0.000130411
9.45328e-05
0.000131234
1.27311e-05
0.000142546
-8.04657e-05
0.000123336
0.000309123
-0.00031072
-0.00524967
-0.0105803
-0.0116916
-0.0128947
-0.012383
-0.0111301
-0.010581
-0.0105363
-0.0101562
-0.00857903
-0.00833837
-0.00733302
-0.00539747
-0.00467665
-0.00414958
-0.00272447
-0.00195505
-0.00164632
-0.00148051
-0.00147383
-0.00128617
-0.000733716
-0.00116571
-0.0021574
-0.00279703
-0.00273368
-0.00238945
-0.0023093
-0.00304519
-0.00265997
-0.00270365
-0.000984026
-0.000787505
-0.00149798
-0.00146075
-0.00136981
-0.00166235
-0.00142969
-0.00200764
-8.02609e-05
-0.000934853
-0.00272304
-0.00674854
-0.00176039
-0.000352082
0.000623752
-0.000446209
-0.010683
-0.0100102
0.0135769
0.0440675
0.0992711
0.113106
0.0889838
0.0703485
0.0586651
0.0512182
0.0466522
0.0434518
0.0404739
0.0393996
0.0375046
0.0370696
0.0364079
0.0369754
0.0348702
0.0332965
0.0302685
0.0224574
-3.00368e-06
-3.68651e-07
-7.98941e-07
-4.81781e-07
-9.31333e-07
-6.7571e-07
-6.48505e-07
-7.45795e-07
5.52759e-07
-1.58537e-06
-2.02227e-06
1.2593e-06
1.6999e-06
-5.63824e-06
5.28074e-07
5.31639e-06
-8.80901e-07
-5.69796e-06
7.35964e-06
5.12682e-06
-1.55612e-05
6.27147e-06
1.88457e-05
2.10061e-05
1.18348e-05
7.96461e-06
-5.51443e-07
2.49979e-06
2.43685e-05
4.74779e-05
5.53376e-05
6.37776e-05
7.04014e-05
0.00010498
0.000118841
0.000129378
0.000180615
0.00018069
0.000291131
0.000270646
0.000331758
0.000396154
0.000346046
0.00043092
0.000110943
0.000373983
-0.000222197
0.000403223
-0.000707466
-0.00376787
-0.0106108
-0.0162522
-0.0253283
-0.0314196
-0.0329083
-0.0323293
-0.0316738
-0.0316323
-0.0313714
-0.0267511
-0.0260325
-0.0232909
-0.0178349
-0.0159717
-0.0147169
-0.0107845
-0.00822434
-0.00707117
-0.00631274
-0.00617624
-0.00521791
-0.00404343
-0.00399554
-0.00573341
-0.00728901
-0.00766492
-0.00729425
-0.00674147
-0.00887658
-0.0087193
-0.00836194
-0.00504022
-0.00375866
-0.00485506
-0.00479626
-0.0045027
-0.005332
-0.0049164
-0.00610657
-0.00228061
-0.00297823
-0.00752641
-0.0143087
-0.00758829
-0.00165357
-0.00100674
-0.00310537
-0.0134275
-0.00885156
0.0491384
0.134889
0.200699
0.199648
0.165433
0.134978
0.112209
0.0949906
0.0835946
0.0767132
0.0713697
0.0691188
0.0646871
0.0636891
0.0610321
0.0606653
0.060208
0.0603792
0.0554724
0.0451068
-4.48599e-06
-8.84644e-07
-1.25462e-06
-9.62449e-07
-1.49179e-06
-9.62377e-07
-9.86242e-07
-1.02203e-06
5.10484e-07
-2.3814e-06
-3.66547e-06
2.40847e-06
1.37923e-06
-8.5827e-06
1.7525e-06
8.79648e-06
-4.55198e-06
-1.03422e-05
1.32843e-05
7.00847e-06
-2.40141e-05
9.9708e-06
3.13274e-05
3.76256e-05
2.10438e-05
1.11932e-05
1.09606e-06
4.86692e-06
4.53306e-05
8.2648e-05
9.37414e-05
0.000113121
0.000136381
0.000158921
0.000184633
0.000230951
0.000282147
0.000331744
0.000424933
0.000464929
0.00056949
0.000653478
0.000677179
0.000768548
0.000396228
0.000776862
-0.000431143
0.000495755
-0.00224699
-0.00889896
-0.0181838
-0.0262871
-0.0436848
-0.0543053
-0.057355
-0.0583032
-0.0567971
-0.0559175
-0.0558047
-0.0490183
-0.0477332
-0.0422832
-0.0330847
-0.0306402
-0.0273197
-0.0196267
-0.0152816
-0.012748
-0.011091
-0.00989121
-0.00830842
-0.0070318
-0.00736487
-0.00994512
-0.0124249
-0.0126443
-0.011622
-0.0108874
-0.0131255
-0.0127806
-0.0115352
-0.0081662
-0.00633689
-0.00775625
-0.0072719
-0.00724871
-0.00823136
-0.00748924
-0.00858044
-0.00479501
-0.00565532
-0.0118898
-0.019765
-0.0131706
-0.00431004
-0.000643089
-0.00338606
-0.00670222
0.0348565
0.197666
0.302095
0.331331
0.297539
0.242016
0.199359
0.169459
0.148482
0.133657
0.12332
0.115379
0.111061
0.104472
0.102671
0.0982116
0.0968911
0.0931531
0.0865422
0.0756701
0.0680404
-5.96568e-06
-1.52143e-06
-1.62345e-06
-1.34856e-06
-1.77448e-06
-9.67656e-07
-1.37749e-06
-1.79647e-06
1.0553e-07
-1.94703e-06
-5.52155e-06
3.10426e-06
1.54968e-06
-1.05973e-05
1.51711e-06
1.07428e-05
-4.77799e-06
-1.32282e-05
1.78101e-05
1.04499e-05
-2.87666e-05
1.38229e-05
4.48197e-05
5.02685e-05
2.66679e-05
1.78369e-05
-9.09526e-07
1.36662e-05
6.1536e-05
0.000116069
0.000135057
0.000154235
0.000180272
0.000214995
0.000266961
0.000341388
0.000371152
0.000483221
0.000559122
0.0007098
0.000832805
0.000938227
0.00111084
0.00121469
0.000929536
0.00122978
-3.11945e-05
0.000789152
-0.00361234
0.000932675
-0.016103
-0.0369806
-0.0682295
-0.0854253
-0.0894957
-0.0900323
-0.0848865
-0.0820101
-0.0780759
-0.06875
-0.0656163
-0.0551174
-0.0424196
-0.0404255
-0.0328602
-0.0229924
-0.0176833
-0.0141633
-0.0129125
-0.0112974
-0.0101034
-0.00942383
-0.00972036
-0.0136386
-0.0185525
-0.0182217
-0.016437
-0.0148275
-0.0175262
-0.0161103
-0.0143887
-0.0120668
-0.0106492
-0.0106731
-0.00975056
-0.0096255
-0.0112908
-0.0105485
-0.0113791
-0.00962808
-0.0093254
-0.0154644
-0.0268941
-0.0166588
-0.00510549
0.00036713
0.00776915
0.0486243
0.209386
0.367194
0.431203
0.420524
0.368918
0.307814
0.25882
0.220008
0.19211
0.173983
0.162545
0.153394
0.147381
0.137856
0.134024
0.125549
0.120957
0.111889
0.102503
0.0901297
0.0861243
-7.43648e-06
-1.77503e-06
-2.3834e-06
-1.75852e-06
-2.13541e-06
-1.16935e-06
-1.57233e-06
-2.38016e-06
-6.68849e-07
-1.71931e-06
-7.47459e-06
3.7801e-06
1.5779e-06
-1.14293e-05
5.69848e-07
1.23232e-05
-6.66227e-06
-1.47741e-05
2.15555e-05
1.17326e-05
-2.96708e-05
1.41629e-05
5.48006e-05
5.50223e-05
3.32337e-05
3.03553e-05
1.17575e-05
2.26466e-05
7.50491e-05
0.000150195
0.000173769
0.000206933
0.000229617
0.000280679
0.000348421
0.000417032
0.000503594
0.000622698
0.000724847
0.000959782
0.0010917
0.00135595
0.00164052
0.00178725
0.00174045
0.00205037
0.00148691
0.00194853
-0.0013692
0.0254474
-0.0145616
-0.0578053
-0.103087
-0.126863
-0.13225
-0.132347
-0.123531
-0.120665
-0.11247
-0.100046
-0.0949261
-0.0784758
-0.0617046
-0.0592985
-0.0440174
-0.0320584
-0.0270075
-0.022205
-0.017773
-0.0148516
-0.0132795
-0.0137039
-0.0137251
-0.0186995
-0.0244135
-0.0244663
-0.0216415
-0.021069
-0.0223981
-0.0186726
-0.0150992
-0.0165997
-0.0139963
-0.0147095
-0.0130209
-0.0136129
-0.0155125
-0.0136513
-0.0148293
-0.0155456
-0.0142028
-0.0209636
-0.0350829
-0.0199942
-0.00246283
0.0098922
0.0581965
0.225761
0.424021
0.523174
0.531779
0.488583
0.425605
0.364497
0.314957
0.272385
0.240264
0.216884
0.201656
0.190248
0.182476
0.170958
0.165012
0.15248
0.145154
0.130956
0.119177
0.105744
0.104341
-8.25912e-06
-2.29445e-06
-3.07747e-06
-2.34526e-06
-2.29348e-06
-1.5289e-06
-1.7156e-06
-2.70564e-06
-1.48955e-06
-1.06939e-06
-8.94885e-06
2.95622e-06
1.76024e-06
-1.10984e-05
-2.37329e-06
1.38066e-05
-5.18394e-06
-1.59411e-05
1.91779e-05
1.59382e-05
-2.33548e-05
1.03262e-05
6.15435e-05
6.00745e-05
4.68465e-05
4.79477e-05
2.43024e-05
3.38257e-05
8.51046e-05
0.000157231
0.000193093
0.000239071
0.000282368
0.000347334
0.000412753
0.000502252
0.000619052
0.000726676
0.0009397
0.0011609
0.00140896
0.00170192
0.0021804
0.00257074
0.00291213
0.00292349
0.00314577
0.00340022
0.00314226
0.0612316
-0.00781379
-0.0868672
-0.143947
-0.17453
-0.181389
-0.177531
-0.163118
-0.158151
-0.142443
-0.124887
-0.115138
-0.0942348
-0.0749764
-0.065895
-0.0499536
-0.0358178
-0.0294977
-0.0213212
-0.016733
-0.0143192
-0.0138191
-0.017151
-0.0154778
-0.0215604
-0.0287765
-0.0313901
-0.0260722
-0.0238288
-0.0252242
-0.0227698
-0.0184907
-0.0202538
-0.0179948
-0.018359
-0.0157929
-0.0157407
-0.0185849
-0.0173213
-0.0187665
-0.0215148
-0.0192858
-0.0264902
-0.0434389
-0.0231037
0.00752183
0.0513532
0.221246
0.459672
0.599326
0.643419
0.614942
0.549028
0.476132
0.414642
0.364187
0.320935
0.287129
0.260513
0.242543
0.228487
0.218167
0.203902
0.195584
0.178636
0.168489
0.1495
0.136531
0.122193
0.122919
-9.40788e-06
-2.82683e-06
-3.55323e-06
-2.80694e-06
-2.42668e-06
-2.02818e-06
-2.13418e-06
-3.0412e-06
-2.09584e-06
-6.40439e-07
-1.00987e-05
1.1082e-06
3.14561e-06
-1.00424e-05
-6.83247e-06
1.2523e-05
-7.33345e-07
-1.27112e-05
1.24321e-05
1.56628e-05
-1.37638e-05
6.71119e-06
6.43837e-05
6.60221e-05
6.50177e-05
6.84651e-05
3.78837e-05
4.99143e-05
0.00010775
0.000144654
0.000213892
0.000280552
0.000343313
0.000404662
0.000468576
0.000578505
0.000718389
0.000882334
0.00110929
0.00134377
0.00162699
0.00200526
0.00250365
0.00303416
0.00388302
0.00379381
0.00516759
0.00422643
0.00542386
0.0996026
-0.00792171
-0.125563
-0.192306
-0.236204
-0.246523
-0.232732
-0.212222
-0.202409
-0.178977
-0.155261
-0.137888
-0.111689
-0.0930928
-0.0808757
-0.0539404
-0.0430913
-0.0341916
-0.0251605
-0.018853
-0.0175141
-0.0177418
-0.0202105
-0.0198152
-0.0234876
-0.0340711
-0.0376707
-0.0307658
-0.0268759
-0.0291694
-0.0260067
-0.0190181
-0.0237812
-0.0215284
-0.0219847
-0.018452
-0.0196231
-0.0218841
-0.0215212
-0.0242892
-0.027661
-0.0255208
-0.0327669
-0.0412031
-0.0188014
0.036877
0.19501
0.456187
0.639543
0.73138
0.736455
0.687374
0.609895
0.529099
0.46332
0.4113
0.366636
0.33053
0.300609
0.279622
0.262647
0.249866
0.234057
0.2243
0.204725
0.192853
0.170495
0.156358
0.140994
0.143315
-1.05014e-05
-3.57626e-06
-3.80335e-06
-3.1101e-06
-3.52958e-06
-3.81843e-06
-1.62262e-06
-2.39587e-06
-4.16168e-06
-8.99912e-07
-9.63209e-06
-1.34859e-06
2.32428e-06
-7.40198e-06
-9.14186e-06
9.66118e-06
3.1487e-06
-7.51094e-06
4.11396e-06
1.58113e-05
-2.15974e-07
7.02131e-06
5.99986e-05
7.83603e-05
7.82106e-05
7.95869e-05
5.40833e-05
6.39237e-05
0.000104249
0.000149538
0.000213157
0.000310414
0.000375539
0.000445787
0.000529631
0.000634022
0.000779495
0.000935903
0.00113342
0.00140872
0.00180301
0.00231786
0.00293869
0.00351607
0.00459689
0.00493065
0.00696964
0.00632625
0.00959811
0.135344
-0.0309194
-0.194785
-0.257954
-0.301657
-0.303342
-0.278791
-0.250455
-0.232021
-0.204817
-0.178734
-0.153594
-0.118875
-0.101404
-0.086304
-0.0610425
-0.0462505
-0.0289259
-0.0240259
-0.0200874
-0.0187593
-0.0206102
-0.0247078
-0.0257644
-0.026778
-0.0355978
-0.0439509
-0.038471
-0.0285046
-0.0311169
-0.0299219
-0.0221294
-0.0261811
-0.0234031
-0.022839
-0.0202229
-0.0226554
-0.0259788
-0.0257473
-0.0306218
-0.030173
-0.0262049
-0.0296481
-0.0343664
0.0085789
0.15556
0.443455
0.667381
0.769309
0.820224
0.803422
0.748069
0.666432
0.574144
0.507301
0.453212
0.40795
0.370641
0.33903
0.316067
0.296905
0.283771
0.267925
0.256521
0.235073
0.220562
0.194824
0.178789
0.162042
0.16515
-1.12525e-05
-3.76513e-06
-4.6084e-06
-3.73344e-06
-3.39722e-06
-4.18094e-06
-3.0124e-06
-2.85037e-06
-5.50144e-06
-8.12356e-07
-8.8919e-06
-6.64293e-06
2.7581e-06
-2.82099e-06
-1.12078e-05
4.91757e-06
7.9859e-06
-6.2573e-07
-3.3408e-06
1.26293e-05
1.49782e-05
1.04019e-05
4.9288e-05
8.36297e-05
9.24205e-05
9.54257e-05
7.50693e-05
6.92853e-05
0.000117607
0.000167233
0.000215113
0.00030939
0.000419696
0.00049716
0.000568352
0.000665913
0.000787901
0.000961141
0.00111586
0.00133363
0.00166959
0.00214496
0.00280305
0.00351199
0.00456302
0.00557023
0.00920906
0.00857392
0.0190501
0.161194
-0.0920938
-0.313652
-0.35871
-0.372166
-0.352371
-0.320004
-0.289701
-0.26249
-0.231198
-0.198642
-0.169272
-0.13045
-0.10223
-0.0926023
-0.0689878
-0.0451425
-0.0346679
-0.0243939
-0.0204583
-0.0203268
-0.0234597
-0.0273953
-0.0304934
-0.0307518
-0.0369426
-0.0460499
-0.0428693
-0.0309648
-0.0328462
-0.0318736
-0.0237059
-0.0274636
-0.0271282
-0.026505
-0.0217899
-0.0242978
-0.0267459
-0.0253516
-0.0287555
-0.0274875
-0.0209207
-0.016721
0.00670895
0.135163
0.393129
0.648914
0.801588
0.863537
0.886129
0.866075
0.807562
0.71783
0.618756
0.547522
0.49189
0.448237
0.411247
0.379315
0.354388
0.33354
0.318739
0.301276
0.287944
0.265045
0.248429
0.220397
0.203808
0.185506
0.189784
-1.19186e-05
-4.7072e-06
-5.32872e-06
-4.4729e-06
-3.54076e-06
-4.99343e-06
-3.28184e-06
-3.05759e-06
-6.89893e-06
-2.15891e-06
-6.85092e-06
-1.03136e-05
2.10221e-06
1.55885e-06
-1.13402e-05
-5.23096e-07
1.17426e-05
4.48413e-06
-7.06007e-06
6.94002e-06
2.80738e-05
1.851e-05
3.69317e-05
9.27921e-05
0.000107201
0.00010405
8.07989e-05
8.44587e-05
0.00011469
0.000176776
0.000228204
0.000293087
0.000407078
0.000511919
0.000596801
0.000685925
0.000792468
0.000910258
0.00106577
0.00119904
0.0014799
0.00190215
0.00251277
0.00311607
0.00420856
0.00453734
0.00606538
0.0065538
0.00943198
0.106931
-0.16575
-0.399536
-0.420939
-0.415711
-0.396434
-0.359446
-0.328614
-0.288084
-0.255475
-0.21562
-0.176942
-0.143589
-0.103801
-0.0850844
-0.0690442
-0.0376724
-0.0310534
-0.0239645
-0.0222755
-0.0227275
-0.0266629
-0.0343922
-0.0389527
-0.0371163
-0.0413898
-0.0482085
-0.0456815
-0.0319265
-0.0334209
-0.0323587
-0.0237132
-0.0267008
-0.0256587
-0.0246875
-0.0210425
-0.0209638
-0.0252555
-0.0199235
-0.0185913
-0.00750941
0.016989
0.0628551
0.187597
0.381989
0.610624
0.76689
0.864604
0.916971
0.92655
0.904756
0.851894
0.765234
0.662881
0.5848
0.527033
0.483631
0.446966
0.415041
0.389265
0.367202
0.350528
0.332176
0.317744
0.294872
0.278691
0.249637
0.232481
0.212236
0.216741
-1.26934e-05
-5.19251e-06
-5.59126e-06
-4.62761e-06
-4.61657e-06
-6.00657e-06
-2.95723e-06
-2.88959e-06
-9.56156e-06
-3.54334e-06
-5.21697e-06
-1.29952e-05
-4.35363e-07
5.01334e-06
-1.0558e-05
-7.08949e-06
1.39822e-05
9.86811e-06
-1.05398e-05
3.86931e-06
3.84972e-05
3.11888e-05
2.70356e-05
8.99827e-05
0.000117635
0.00012016
9.12836e-05
8.71049e-05
0.000134
0.000189209
0.000241735
0.000282002
0.000368949
0.000492537
0.000614348
0.000652609
0.000735383
0.000787425
0.000905489
0.000994549
0.000975571
0.00108639
0.00119137
0.00143069
0.00128944
0.00140195
-0.000372742
8.09928e-05
-0.00466845
-0.0551512
-0.451447
-0.434664
-0.427645
-0.415664
-0.398157
-0.371046
-0.34682
-0.308685
-0.267793
-0.221677
-0.174311
-0.145836
-0.109645
-0.0748923
-0.0663195
-0.0401061
-0.0315896
-0.0239282
-0.0217016
-0.0227585
-0.0270625
-0.0372887
-0.041819
-0.0401965
-0.044023
-0.0488699
-0.0454885
-0.032182
-0.0327453
-0.0313111
-0.0221016
-0.0230965
-0.0207418
-0.0183181
-0.0151017
-0.00949311
-0.00904846
0.00941629
0.0400391
0.0933972
0.187213
0.298302
0.420087
0.58049
0.725971
0.841131
0.90528
0.933172
0.935525
0.92063
0.877192
0.797035
0.697746
0.616663
0.558282
0.516136
0.480688
0.44996
0.42417
0.40131
0.383179
0.363239
0.346989
0.324099
0.309698
0.280632
0.263715
0.241473
0.246375
-1.3402e-05
-5.62824e-06
-6.19522e-06
-5.78234e-06
-5.33554e-06
-5.9264e-06
-4.27603e-06
-2.61613e-06
-1.01996e-05
-5.87574e-06
-3.53923e-06
-1.51725e-05
-5.20603e-06
7.81072e-06
-7.40837e-06
-1.25252e-05
1.43754e-05
1.44708e-05
-1.16475e-05
3.55794e-06
4.38814e-05
3.64656e-05
1.87569e-05
8.7464e-05
0.000122225
0.000128129
0.000108951
9.30368e-05
0.000142846
0.000215306
0.000237821
0.000275437
0.000309095
0.000432653
0.000559732
0.000668411
0.000651603
0.000712306
0.000682632
0.000681835
0.000602731
0.000475621
6.79103e-05
0.000148054
-0.000351158
-0.000175609
-0.00208559
-0.00130343
-0.00883044
-0.328516
-0.695339
-0.554773
-0.449354
-0.423707
-0.396645
-0.377802
-0.357265
-0.323607
-0.278295
-0.234434
-0.181123
-0.140774
-0.112287
-0.0663918
-0.0552158
-0.0379659
-0.0283258
-0.0242639
-0.0233229
-0.0258238
-0.0324727
-0.0407831
-0.045803
-0.0439709
-0.0449275
-0.0477527
-0.0429065
-0.0308354
-0.0303109
-0.0273758
-0.0161747
-0.0132657
-0.00764059
0.00314927
0.0198899
0.0495112
0.0893527
0.154421
0.25007
0.314248
0.396121
0.497405
0.586657
0.674244
0.770094
0.849571
0.917382
0.948525
0.947195
0.930024
0.890177
0.817834
0.725229
0.643786
0.585174
0.543421
0.509552
0.480278
0.455045
0.432196
0.412684
0.390866
0.372887
0.351035
0.339994
0.312785
0.298123
0.273741
0.278166
-1.40522e-05
-6.06896e-06
-7.22433e-06
-6.65567e-06
-4.9453e-06
-7.004e-06
-5.62841e-06
-2.75829e-06
-1.10092e-05
-9.5921e-06
-1.15125e-06
-1.42895e-05
-1.09091e-05
8.02219e-06
-2.82063e-06
-1.6508e-05
1.20984e-05
1.67227e-05
-8.28429e-06
6.6244e-06
4.28025e-05
4.64863e-05
1.95119e-05
6.51882e-05
0.000123081
0.000133696
0.000123336
0.000111392
0.00015002
0.000216454
0.000262804
0.000270621
0.000281935
0.00034642
0.000487065
0.000584651
0.000621883
0.00058231
0.000540428
0.000504078
0.000372638
0.000279207
-0.000176842
-0.000257917
-0.0010045
-0.00046384
-0.00230043
0.00233609
-0.0295286
-0.575678
-0.779027
-0.689658
-0.566893
-0.479937
-0.429507
-0.394143
-0.368934
-0.337982
-0.290866
-0.242995
-0.191047
-0.133239
-0.109181
-0.0654023
-0.0425193
-0.0321719
-0.0249585
-0.0245658
-0.0246155
-0.0278761
-0.0374058
-0.0432969
-0.0489144
-0.0467274
-0.042877
-0.0442422
-0.037046
-0.0250836
-0.0161929
-0.00990882
0.00988075
0.0387994
0.0628372
0.107349
0.172095
0.257073
0.311601
0.365514
0.444207
0.507242
0.557452
0.608713
0.663025
0.723515
0.789805
0.855827
0.902849
0.931956
0.93635
0.923367
0.88971
0.826603
0.743369
0.664651
0.607787
0.566923
0.535022
0.507533
0.484082
0.462003
0.441688
0.418252
0.399835
0.37875
0.369713
0.344941
0.333613
0.308148
0.311599
-1.45689e-05
-6.57578e-06
-7.61837e-06
-7.22895e-06
-6.03129e-06
-6.89616e-06
-7.46972e-06
-2.60275e-06
-1.07829e-05
-1.25123e-05
-1.57807e-06
-1.11813e-05
-1.61632e-05
6.08887e-06
1.19614e-06
-1.76058e-05
5.17506e-06
1.85784e-05
5.42445e-07
9.23149e-06
4.02437e-05
4.36752e-05
2.96609e-05
4.11503e-05
0.000117066
0.000140961
0.000155105
0.00014126
0.00015902
0.00020496
0.000233618
0.000252913
0.000256544
0.000280714
0.000365205
0.000534173
0.000578584
0.00052374
0.000443109
0.000326459
0.000221975
-2.43481e-05
-0.000379593
-0.000751508
-0.00160796
-0.00209084
-0.00323619
-0.00285029
-0.148934
-0.718436
-0.813468
-0.775479
-0.709834
-0.604406
-0.498121
-0.431191
-0.388057
-0.350992
-0.307623
-0.2508
-0.196365
-0.138322
-0.102082
-0.0659877
-0.0309141
-0.0199456
-0.0192402
-0.026046
-0.0260498
-0.0281639
-0.0391339
-0.0449931
-0.0440621
-0.0430893
-0.0313489
-0.0280554
-0.0110532
0.016325
0.0494386
0.0841931
0.13898
0.209381
0.275536
0.323992
0.376067
0.448747
0.501327
0.534877
0.571904
0.605579
0.63794
0.667718
0.703391
0.743506
0.789211
0.840948
0.88718
0.917669
0.926621
0.913309
0.880814
0.824253
0.751169
0.678659
0.62528
0.586619
0.55715
0.531607
0.510649
0.489746
0.468992
0.444911
0.42606
0.405457
0.397458
0.375513
0.368071
0.343689
0.346285
-1.5236e-05
-7.12712e-06
-8.32928e-06
-8.4222e-06
-6.87452e-06
-6.65926e-06
-8.91312e-06
-4.31121e-06
-9.6097e-06
-1.6041e-05
-2.58363e-06
-7.06329e-06
-1.7673e-05
1.56236e-06
3.61734e-06
-1.61167e-05
-4.05901e-06
1.84488e-05
1.16095e-05
1.06089e-05
3.74181e-05
4.44628e-05
4.07072e-05
2.60292e-05
8.54957e-05
0.000142731
0.000174132
0.000168908
0.000161837
0.000185578
0.000215528
0.000253146
0.000271438
0.000250288
0.00027821
0.000362041
0.000505424
0.000503254
0.000448092
0.000338101
0.000312517
0.000183782
7.4321e-05
-6.09001e-05
5.23296e-05
-0.000369918
0.0010317
-0.00162251
-0.342291
-0.796026
-0.826736
-0.809335
-0.781093
-0.726501
-0.627954
-0.518405
-0.434868
-0.376254
-0.336725
-0.262133
-0.205685
-0.145499
-0.0868139
-0.0608354
-0.0208803
-0.00620924
-0.0128663
-0.0215976
-0.0218641
-0.0233413
-0.0340885
-0.0349728
-0.0217688
-0.00844038
0.0242973
0.0588533
0.105559
0.175852
0.25125
0.298466
0.345198
0.400233
0.461906
0.507296
0.538358
0.572437
0.600366
0.620506
0.639265
0.658556
0.678789
0.699008
0.723202
0.751461
0.785341
0.826187
0.866762
0.893652
0.903036
0.892683
0.865341
0.817749
0.754556
0.688799
0.639366
0.603415
0.576359
0.553142
0.534977
0.515321
0.495424
0.472086
0.452784
0.432278
0.424372
0.40445
0.399741
0.377714
0.380045
-1.57653e-05
-7.55957e-06
-8.7454e-06
-8.83496e-06
-7.58445e-06
-7.10184e-06
-1.15046e-05
-6.8383e-06
-6.76726e-06
-1.71688e-05
-6.4872e-06
-3.405e-06
-1.96137e-05
-5.10036e-06
4.97471e-06
-1.13985e-05
-1.42468e-05
1.66765e-05
2.23474e-05
1.2081e-05
2.73055e-05
4.49908e-05
4.62983e-05
2.93693e-05
5.50431e-05
0.00014484
0.000191084
0.000199176
0.000161331
0.000151393
0.00021984
0.000241518
0.000260823
0.000248721
0.00020426
0.000234236
0.000379171
0.000499865
0.00050933
0.000483865
0.000545541
0.000543129
0.000750218
0.000691579
0.0015284
0.000952813
0.00550096
-0.0123796
-0.546293
-0.834216
-0.837919
-0.830523
-0.816507
-0.79245
-0.745453
-0.659745
-0.550453
-0.442741
-0.374982
-0.282533
-0.203455
-0.133925
-0.0672335
-0.045499
-0.0101015
0.0130556
0.00574584
-0.00727284
-0.00201793
0.00666129
0.0201551
0.0362812
0.0812257
0.145584
0.217472
0.270254
0.310935
0.365662
0.431446
0.483361
0.513655
0.544187
0.57145
0.598085
0.616227
0.635098
0.65189
0.663648
0.674725
0.685981
0.70033
0.715551
0.733206
0.754005
0.7798
0.81143
0.845052
0.86959
0.879712
0.871967
0.848214
0.807197
0.751985
0.693829
0.649652
0.617533
0.593342
0.572846
0.557654
0.539525
0.521048
0.499025
0.478952
0.458549
0.44985
0.431464
0.429276
0.409948
0.412586
-1.64674e-05
-8.13785e-06
-9.3602e-06
-9.76895e-06
-8.79639e-06
-6.84659e-06
-1.30248e-05
-9.66594e-06
-5.758e-06
-1.62948e-05
-1.18798e-05
-2.0445e-06
-1.80174e-05
-1.21408e-05
5.41023e-06
-5.9657e-06
-2.14965e-05
1.11323e-05
2.91381e-05
2.00254e-05
1.54888e-05
4.50484e-05
5.89851e-05
2.99745e-05
2.82996e-05
0.000122553
0.000188934
0.000215612
0.000162036
0.000123485
0.000191842
0.000249092
0.000280834
0.000271791
0.000179618
0.000144152
0.000192648
0.000361659
0.000442456
0.000415943
0.000357366
0.000226702
0.000166361
-0.000264072
-0.000158187
-0.00173968
1.30245e-05
-0.112048
-0.713049
-0.852726
-0.846149
-0.844626
-0.835214
-0.82351
-0.803107
-0.761616
-0.685045
-0.557119
-0.456049
-0.324694
-0.205204
-0.107545
-0.0257446
-0.0111045
0.0151821
0.0498473
0.0520488
0.0590008
0.0837618
0.138058
0.205769
0.244357
0.282201
0.332018
0.392446
0.444861
0.477674
0.512557
0.544698
0.574121
0.596459
0.61764
0.633067
0.643732
0.655768
0.66745
0.67791
0.685907
0.694393
0.701804
0.712336
0.724138
0.738
0.754237
0.774286
0.798438
0.824967
0.846117
0.854928
0.848622
0.828258
0.793603
0.74676
0.696485
0.657366
0.629231
0.608192
0.590886
0.578743
0.562423
0.545796
0.525044
0.505217
0.484589
0.474886
0.457472
0.456744
0.439601
0.442443
-1.69869e-05
-8.75148e-06
-9.80826e-06
-1.00243e-05
-1.10542e-05
-6.04472e-06
-1.32551e-05
-1.33114e-05
-5.51777e-06
-1.52608e-05
-1.55557e-05
-3.1207e-06
-1.46629e-05
-2.02098e-05
4.36037e-06
-2.22517e-07
-2.16657e-05
4.98633e-07
3.19604e-05
2.20838e-05
5.48009e-06
4.48599e-05
5.92976e-05
4.42742e-05
3.09447e-05
8.50685e-05
0.000187092
0.000206902
0.000172635
0.000114238
0.000155275
0.000264626
0.000278044
0.000272241
0.000200918
0.00010894
7.94673e-05
0.000148534
0.000313548
0.000368282
0.000345034
0.000305555
0.000269741
0.000253882
0.000153417
0.000504404
-0.00114045
-0.318366
-0.804281
-0.854859
-0.849704
-0.850541
-0.845194
-0.838782
-0.829158
-0.811099
-0.767212
-0.684263
-0.578236
-0.408524
-0.210753
-0.0463628
0.0205732
0.0724542
0.0962616
0.157378
0.211336
0.246213
0.278172
0.317103
0.369227
0.420472
0.45257
0.485955
0.513563
0.5421
0.563789
0.586956
0.603504
0.618838
0.635473
0.649184
0.659755
0.665752
0.674988
0.68383
0.691922
0.698423
0.706271
0.712178
0.720335
0.729676
0.740695
0.753782
0.76888
0.786588
0.806742
0.823784
0.830901
0.826368
0.808938
0.780057
0.740479
0.697536
0.663428
0.639219
0.621414
0.607507
0.598295
0.58418
0.569454
0.550286
0.531182
0.509817
0.499123
0.482079
0.482148
0.467138
0.470501
-1.76446e-05
-9.37367e-06
-1.0602e-05
-1.06281e-05
-1.21765e-05
-7.56444e-06
-1.23495e-05
-1.60095e-05
-7.34032e-06
-1.29067e-05
-2.02089e-05
-5.49571e-06
-1.10646e-05
-2.497e-05
-1.29565e-07
4.42973e-06
-1.84846e-05
-8.47307e-06
2.82372e-05
2.53428e-05
-2.10658e-06
3.245e-05
6.11219e-05
6.02054e-05
3.94067e-05
5.24912e-05
0.000148693
0.000187133
0.000172205
0.000108173
0.000120383
0.000238104
0.000286732
0.000261562
0.000225924
0.000105637
3.24756e-05
8.75851e-05
0.000190108
0.00045701
0.000583447
0.000908293
0.000909406
0.0018775
0.00138039
0.00597668
-0.0115322
-0.537919
-0.847061
-0.858851
-0.857174
-0.858371
-0.856144
-0.852822
-0.849556
-0.842521
-0.822005
-0.764524
-0.670725
-0.46691
-0.158509
0.0553271
0.177388
0.248247
0.27796
0.324771
0.366157
0.412496
0.438901
0.464531
0.490137
0.515577
0.539719
0.563463
0.580323
0.594318
0.607639
0.622282
0.632702
0.643043
0.65442
0.665064
0.67392
0.679619
0.687562
0.694663
0.701969
0.707435
0.714132
0.719117
0.725448
0.732716
0.741427
0.752183
0.764174
0.776913
0.791104
0.803304
0.808274
0.804703
0.790487
0.766738
0.733635
0.697681
0.668086
0.647625
0.633165
0.622868
0.616502
0.604632
0.59179
0.574378
0.556534
0.534532
0.523093
0.50621
0.506431
0.492891
0.496283
-1.8135e-05
-9.95227e-06
-1.12193e-05
-1.08278e-05
-1.34291e-05
-9.19399e-06
-1.1197e-05
-1.79775e-05
-1.0293e-05
-1.11532e-05
-2.177e-05
-9.71794e-06
-8.21827e-06
-2.64394e-05
-9.93009e-06
6.49174e-06
-1.15253e-05
-1.5284e-05
1.97558e-05
2.67691e-05
2.02319e-07
1.11051e-05
5.66998e-05
7.19564e-05
6.27177e-05
4.61844e-05
9.28144e-05
0.000159038
0.000171292
0.00012214
0.000101684
0.000171165
0.000262386
0.000265534
0.000204633
0.000151781
2.83129e-05
-7.17327e-06
-1.57029e-05
9.69079e-05
8.05351e-05
8.78106e-05
-0.000340809
-0.000283882
-0.00160902
-0.00093447
-0.113617
-0.720549
-0.865514
-0.863226
-0.862946
-0.861741
-0.861399
-0.858738
-0.85512
-0.852276
-0.838996
-0.77707
-0.655707
-0.327517
0.021515
0.21277
0.326495
0.394597
0.43242
0.465193
0.491631
0.512529
0.533093
0.550225
0.568303
0.58143
0.593814
0.608591
0.619562
0.629078
0.637956
0.647106
0.653672
0.65987
0.667335
0.674779
0.68258
0.688941
0.695694
0.700794
0.707098
0.711671
0.717678
0.722444
0.727809
0.734104
0.741537
0.749977
0.758882
0.76821
0.777972
0.786108
0.788562
0.785384
0.773902
0.754759
0.727348
0.697222
0.671798
0.654857
0.643724
0.636998
0.633491
0.623734
0.612782
0.59746
0.58092
0.559135
0.546821
0.529898
0.528709
0.51639
0.520469
-1.88478e-05
-1.05833e-05
-1.20958e-05
-1.15335e-05
-1.44642e-05
-1.22107e-05
-1.01879e-05
-1.87927e-05
-1.42194e-05
-9.37097e-06
-2.33e-05
-1.53233e-05
-7.09218e-06
-2.33894e-05
-2.03241e-05
4.31416e-06
-2.50654e-06
-1.7569e-05
6.65545e-06
2.36257e-05
4.40068e-06
-7.51249e-06
4.39835e-05
7.69536e-05
8.68691e-05
4.93259e-05
4.1669e-05
0.000106237
0.000159355
0.00014427
9.33044e-05
0.000103683
0.000192479
0.000236827
0.000182121
0.000120761
4.76531e-05
-8.045e-05
-0.000121824
-7.85233e-05
3.59858e-05
3.52978e-05
5.59606e-05
-0.00017035
0.000307658
-0.00190545
-0.333048
-0.81308
-0.862279
-0.860123
-0.860535
-0.860881
-0.861662
-0.858978
-0.849187
-0.84052
-0.815519
-0.693171
-0.423994
-0.0477113
0.220772
0.362005
0.442347
0.49073
0.520987
0.54416
0.564786
0.58184
0.596448
0.606441
0.620031
0.628029
0.633084
0.640566
0.648169
0.653397
0.658311
0.661779
0.66586
0.66901
0.674229
0.678222
0.685115
0.69229
0.698458
0.703569
0.709969
0.714654
0.720711
0.725717
0.730232
0.735264
0.741295
0.747651
0.754444
0.760931
0.766931
0.771996
0.772183
0.768879
0.760045
0.744456
0.72145
0.696018
0.674659
0.661196
0.653407
0.649913
0.649146
0.641256
0.632585
0.619427
0.604009
0.582808
0.569691
0.552525
0.549958
0.538537
0.542973
-1.94117e-05
-1.11207e-05
-1.29605e-05
-1.20597e-05
-1.46332e-05
-1.43479e-05
-1.0875e-05
-1.89067e-05
-1.77975e-05
-9.58158e-06
-2.1909e-05
-2.11459e-05
-7.48328e-06
-1.89611e-05
-2.85854e-05
-1.89002e-06
3.71308e-06
-1.7154e-05
-7.19918e-06
1.99351e-05
9.89407e-06
-1.46929e-05
1.64815e-05
7.87094e-05
9.54334e-05
6.21618e-05
2.45991e-05
4.97924e-05
0.000136164
0.000160211
0.000107982
7.19151e-05
0.000108518
0.000178653
0.000157007
0.000128353
6.79615e-05
-3.63568e-05
-7.99395e-05
-0.000138319
0.000104971
-3.59955e-05
0.000585075
-2.1054e-05
0.00368801
-0.0161536
-0.559242
-0.848504
-0.861026
-0.862266
-0.863853
-0.865314
-0.866186
-0.862324
-0.840929
-0.807847
-0.716873
-0.459014
-0.0892008
0.197552
0.359943
0.454364
0.510823
0.548269
0.57368
0.591623
0.60652
0.619017
0.630547
0.639357
0.649174
0.655098
0.660184
0.661126
0.663794
0.66705
0.672206
0.674737
0.679352
0.681182
0.684068
0.684815
0.690445
0.697143
0.702369
0.706436
0.711911
0.715769
0.721087
0.726185
0.731247
0.736178
0.741964
0.746623
0.751231
0.755363
0.758165
0.760733
0.75955
0.756294
0.748464
0.735306
0.715606
0.694553
0.677264
0.667118
0.662324
0.661712
0.663608
0.657175
0.651038
0.639884
0.62544
0.605398
0.591825
0.574485
0.570884
0.559794
0.563914
-2.02213e-05
-1.17276e-05
-1.3861e-05
-1.3149e-05
-1.51907e-05
-1.63647e-05
-1.23918e-05
-1.90429e-05
-2.16217e-05
-1.02575e-05
-1.92465e-05
-2.75855e-05
-1.06218e-05
-1.43207e-05
-3.22623e-05
-1.32598e-05
5.24246e-06
-1.45367e-05
-2.05033e-05
1.16548e-05
1.68058e-05
-1.6138e-05
-1.14878e-05
5.66723e-05
9.41733e-05
7.7659e-05
2.71037e-05
1.30715e-05
8.58586e-05
0.000150088
0.000118466
5.80347e-05
5.13329e-05
0.000128955
0.000123882
0.000119901
2.72093e-05
-5.49552e-05
-0.00023511
-0.000383489
-0.000631414
-0.00106716
-0.00116894
-0.00257769
-0.00216725
-0.136078
-0.726877
-0.857052
-0.858571
-0.858655
-0.858001
-0.859314
-0.859464
-0.851216
-0.80897
-0.724497
-0.470337
-0.106939
0.183133
0.356472
0.460366
0.522777
0.561112
0.586434
0.603948
0.618605
0.630382
0.640494
0.648916
0.65724
0.665351
0.671628
0.678244
0.681371
0.684994
0.687211
0.690092
0.690488
0.690958
0.68873
0.690994
0.691417
0.695638
0.700659
0.70524
0.709326
0.715288
0.720058
0.725229
0.729697