/*--------------------------------*- C++ -*----------------------------------*\
| =========                 |                                                 |
| \\      /  F ield         | OpenFOAM: The Open Source CFD Toolbox           |
|  \\    /   O peration     | Version:  2.2.x                                 |
|   \\  /    A nd           | Web:      www.OpenFOAM.org                      |
|    \\/     M anipulation  |                                                 |
\*---------------------------------------------------------------------------*/
FoamFile
{
    version     2.0;
    format      ascii;
    class       surfaceScalarField;
    location    "1.25";
    object      cfmax;
}
// * * * * * * * * * * * * * * * * * * * * * * * * * * * * * * * * * * * * * //

dimensions      [0 3 -1 0 0 0 0];

internalField   nonuniform List<scalar> 
28084
(
0.00124515
0.00123949
0.00123494
0.00123115
0.00122809
0.0012257
0.00122397
0.00122286
0.00122233
0.0012223
0.00122277
0.00122365
0.00122493
0.00122656
0.00122847
0.0012306
0.001233
0.00123552
0.00123812
0.00124086
0.00124369
0.00124638
0.00124898
0.00125148
0.00125388
0.00125621
0.00125846
0.00126056
0.00126229
0.00126385
0.00126511
0.0012661
0.00126679
0.00126714
0.00126719
0.00126685
0.00126615
0.001265
0.00126351
0.00126177
0.00125976
0.00125709
0.00125351
0.0012498
0.00124623
0.00126013
0.00127432
0.00129035
0.0013052
0.000875529
0.000834239
0.000848041
0.000865479
0.000884552
0.000904675
0.000924101
0.000944312
0.000965332
0.00098575
0.00100547
0.00102596
0.0010455
0.00106328
0.00108037
0.00109619
0.00110972
0.00112203
0.00113126
0.00114073
0.00114718
0.00115219
0.00115341
0.00115578
0.00116016
0.0011624
0.00116433
0.00116399
0.00116664
0.00116654
0.00116583
0.00116676
0.00116348
0.00115934
0.00115529
0.00114985
0.00114343
0.00113667
0.0011308
0.00112153
0.00110849
0.00109957
0.00109982
0.00110165
0.00111244
0.00113637
0.00115379
0.00114974
0.00115955
0.00114567
0.00107294
0.00104196
0.000983076
0.000938611
0.00090911
0.000890599
0.000878385
0.000871609
0.000869537
0.000870632
0.000873948
0.000879455
0.00088717
0.000896028
0.000904988
0.000912924
0.000917954
0.000919048
0.00090502
0.00289194
0.00288701
0.00125102
0.00287651
0.00124917
0.00285996
0.00124838
0.00283754
0.00124828
0.0028095
0.00124888
0.00277596
0.00125014
0.00273727
0.00125203
0.0026937
0.00125444
0.00264564
0.00125738
0.00259354
0.00126086
0.00253795
0.00126476
0.00247893
0.00126899
0.00241687
0.00127356
0.00235214
0.00127847
0.00228517
0.00128359
0.00221639
0.00128884
0.00214616
0.00129429
0.00207485
0.0012998
0.00200283
0.00130531
0.00193048
0.00131088
0.00185799
0.00131646
0.0017857
0.00132181
0.00171391
0.00132696
0.00164292
0.00133194
0.00157301
0.00133672
0.0015043
0.00134132
0.00143698
0.00134576
0.00137113
0.00134993
0.00130689
0.00135365
0.0012444
0.00135711
0.00118373
0.00136015
0.00112499
0.0013628
0.00106821
0.00136508
0.00101344
0.00136696
0.000960692
0.00136837
0.000909994
0.00136929
0.000861575
0.0013698
0.000815212
0.00136974
0.000770877
0.00136924
0.000728455
0.00136827
0.000687888
0.00136717
0.000649138
0.00136516
0.000612375
0.00136221
0.00057755
0.00135888
0.000585298
0.00135572
0.000585423
0.00136851
0.000585474
0.00138191
0.000585846
0.00139654
0.000580056
0.00141072
0.000587042
0.000952829
0.000593378
0.000904908
0.000596249
0.000918254
0.000601236
0.000935782
0.000604301
0.000954395
0.000607789
0.000974501
0.000610869
0.000994195
0.000614863
0.00101515
0.000618765
0.00103475
0.000621837
0.00105524
0.000625949
0.00107526
0.000629251
0.00109494
0.00063231
0.00111345
0.000635563
0.0011306
0.000638866
0.00114614
0.00064182
0.00116169
0.000644457
0.00117477
0.00064732
0.00118574
0.000650038
0.00119412
0.000653114
0.00120289
0.000655537
0.00120789
0.00065817
0.00121227
0.000660774
0.00121251
0.000665107
0.00121388
0.000669252
0.0012176
0.000673049
0.00121886
0.000676552
0.00121979
0.000681106
0.00121843
0.000685853
0.00122067
0.00069035
0.00121926
0.000695142
0.00121731
0.000701304
0.0012163
0.000706633
0.00121216
0.000711638
0.00120727
0.000717273
0.00120196
0.000722757
0.00119579
0.000728273
0.00118843
0.000734017
0.00118062
0.000739504
0.00117313
0.000745709
0.00116311
0.000750298
0.00115003
0.000756359
0.00114018
0.000763571
0.00113985
0.000773926
0.00114045
0.000782602
0.0011483
0.000791518
0.00117651
0.000799797
0.0011921
0.000805838
0.00118705
0.000818998
0.00117945
0.000818043
0.00114378
0.000810609
0.0010573
0.000809743
0.000993851
0.000794364
0.0009365
0.000768788
0.000895438
0.000753169
0.000866701
0.000743938
0.000848175
0.000739172
0.000837324
0.000736646
0.000831596
0.000736415
0.000829084
0.000737929
0.000829362
0.000741558
0.000832378
0.000746072
0.00083749
0.000751852
0.000844385
0.000758519
0.00085252
0.000766529
0.000861038
0.000776448
0.000869263
0.000792567
0.000874497
0.000817019
0.000877488
0.000855202
0.000882314
0.0028931
0.0028877
0.00125886
0.00287678
0.00126075
0.00285982
0.00126367
0.00283702
0.00126725
0.0028086
0.00127149
0.00277471
0.00127631
0.0027368
0.00128171
0.00269416
0.00128768
0.00264695
0.00129413
0.00259545
0.00130098
0.00254013
0.00130822
0.00248127
0.00131584
0.00241934
0.00132374
0.00235474
0.00133181
0.00228791
0.00134005
0.00221919
0.00134845
0.00214897
0.00135692
0.00207769
0.00136538
0.00200568
0.00137378
0.00193331
0.00138214
0.00186076
0.00139043
0.00178841
0.00139843
0.00171655
0.00140611
0.00164547
0.00141356
0.00157546
0.00142068
0.00150663
0.00142753
0.00143914
0.00143413
0.00137314
0.00144033
0.00130876
0.00144603
0.00124613
0.00145139
0.00118529
0.00145619
0.00112639
0.00146055
0.00106945
0.00146441
0.00101448
0.00146773
0.000961534
0.00147053
0.000910631
0.00147277
0.00086173
0.00147443
0.000814863
0.00147554
0.000770708
0.00147605
0.000728536
0.00147598
0.000688149
0.00147565
0.000649634
0.00147428
0.000613013
0.00147203
0.000578371
0.00146903
0.000594303
0.00146623
0.000594798
0.0014777
0.000595025
0.00148987
0.000596175
0.00150293
0.000590705
0.00151518
0.000592742
0.00101389
0.000600584
0.00096168
0.000604794
0.000973925
0.000611641
0.000991898
0.000615645
0.00101087
0.000619725
0.00103106
0.000623486
0.00105197
0.000628
0.00107263
0.000632673
0.00109308
0.000635431
0.0011136
0.000639471
0.00113328
0.000642922
0.0011529
0.00064327
0.00117128
0.000646142
0.00118829
0.00064862
0.00120353
0.000648922
0.0012181
0.000650843
0.00123089
0.000652649
0.00124116
0.000655071
0.00124886
0.000657274
0.0012556
0.000659178
0.00126008
0.000661466
0.00126306
0.000663848
0.00126257
0.000668746
0.00126327
0.000672931
0.00126614
0.000676521
0.00126679
0.000679376
0.00126665
0.000683329
0.00126473
0.000688074
0.0012663
0.000691978
0.00126306
0.000697018
0.00125931
0.000703726
0.00125765
0.000709571
0.00125274
0.00071452
0.00124711
0.000720431
0.00124121
0.00072604
0.00123391
0.000731565
0.00122583
0.000737507
0.00121724
0.00074251
0.0012087
0.000749435
0.00119697
0.000755178
0.00118601
0.000758754
0.00117346
0.000763975
0.00117069
0.000776283
0.00117254
0.000787681
0.00118697
0.00079728
0.00121418
0.00080561
0.0012231
0.000802773
0.00121587
0.000804958
0.00118215
0.000809822
0.00108663
0.000803489
0.00101294
0.000807119
0.000944706
0.000795392
0.000896264
0.000775494
0.000859844
0.000762659
0.000831197
0.000752675
0.00080937
0.000746664
0.000793008
0.000743514
0.000781341
0.000743175
0.000774296
0.000744198
0.000771625
0.000747409
0.000772424
0.000751419
0.000775884
0.000758571
0.000782145
0.000767757
0.000790913
0.00078057
0.000802282
0.000797869
0.000815988
0.000819918
0.000829616
0.000845409
0.000841254
0.000905909
0.000852652
0.00289199
0.00288619
0.00126866
0.00287486
0.00127426
0.00285752
0.00128083
0.00283599
0.00128802
0.00280945
0.00129581
0.00277735
0.0013042
0.00274002
0.00131313
0.00269766
0.00132252
0.00265071
0.00133235
0.00259942
0.00134264
0.00254428
0.00135326
0.00248558
0.00136411
0.00242382
0.00137519
0.00235928
0.00138652
0.0022925
0.00139794
0.00222381
0.00140935
0.00215362
0.00142078
0.00208228
0.00143218
0.00201022
0.00144343
0.00193779
0.00145453
0.00186513
0.00146552
0.00179267
0.00147612
0.00172069
0.00148636
0.00164946
0.00149622
0.00157926
0.00150566
0.00151026
0.00151471
0.00144256
0.00152343
0.00137636
0.00153163
0.00131176
0.00153933
0.00124896
0.00154659
0.00118791
0.00155313
0.00112876
0.00155915
0.00107158
0.00156462
0.00101641
0.00156939
0.000963229
0.0015736
0.000912085
0.00157716
0.000862968
0.00158001
0.000815868
0.00158224
0.000770777
0.00158374
0.000728156
0.00158466
0.000688023
0.00158507
0.000649772
0.00158458
0.000613312
0.00158303
0.000578877
0.00158012
0.000602887
0.00157763
0.000603757
0.00158778
0.000603949
0.00159875
0.000605682
0.00160952
0.000596193
0.00162121
0.000595814
0.00107496
0.000607927
0.00102006
0.00061356
0.00103361
0.000622558
0.00105383
0.000627485
0.00107357
0.000632638
0.00109555
0.000636151
0.00111814
0.000640824
0.0011399
0.000644911
0.00116257
0.000647726
0.00118191
0.000651804
0.00120242
0.000654196
0.0012227
0.000654544
0.00124037
0.000657663
0.00125796
0.000659839
0.00127271
0.000659516
0.00128816
0.000660883
0.00129967
0.000662188
0.00131048
0.000663859
0.00131574
0.000665535
0.00132182
0.000666814
0.00132473
0.000668624
0.00132644
0.000670877
0.00132471
0.000674983
0.0013236
0.000679737
0.00132636
0.000682437
0.00132518
0.000685375
0.00132442
0.000689408
0.00132179
0.000694223
0.00132283
0.000699071
0.00131846
0.000704996
0.00131254
0.000711999
0.00130932
0.000718257
0.00130378
0.000723797
0.00129779
0.000730284
0.00129138
0.000736141
0.00128295
0.000741796
0.00127419
0.000748226
0.00126443
0.000753592
0.00125474
0.000760412
0.00124181
0.000766417
0.00123126
0.000769773
0.00121739
0.000774338
0.00121426
0.000787096
0.00122296
0.000797681
0.00123241
0.000810937
0.00127183
0.000811879
0.00126321
0.000802894
0.00124716
0.000801351
0.00113626
0.00082352
0.00103356
0.000840357
0.000957907
0.00083556
0.000910634
0.000816486
0.000876543
0.000794787
0.000849404
0.00077783
0.000825821
0.000765379
0.000804832
0.000758302
0.000786357
0.000753772
0.000771626
0.000752813
0.000761169
0.000752555
0.000754821
0.000755177
0.000751448
0.000759304
0.000752063
0.000767469
0.000756752
0.000776495
0.000764655
0.00078994
0.000775997
0.000807584
0.000790208
0.000833278
0.000807009
0.000858676
0.000823499
0.00092697
0.000839266
0.00288868
0.00288374
0.00128043
0.00287536
0.00128966
0.00286086
0.00129983
0.00284041
0.00131058
0.00281421
0.00132192
0.00278241
0.00133377
0.00274535
0.00134611
0.00270325
0.00135895
0.00265653
0.00137221
0.00260542
0.00138577
0.00255043
0.00139963
0.00249186
0.00141379
0.00243019
0.00142812
0.00236571
0.0014425
0.00229896
0.00145695
0.00223025
0.00147144
0.00216002
0.00148586
0.0020886
0.0015001
0.00201646
0.00151417
0.00194388
0.00152798
0.00187109
0.0015416
0.00179847
0.0015548
0.00172632
0.00156754
0.00165486
0.00157979
0.00158444
0.00159153
0.00151517
0.00160274
0.00144722
0.0016135
0.00138077
0.00162375
0.00131594
0.00163345
0.00125283
0.00164258
0.00119153
0.00165086
0.00113212
0.00165854
0.00107466
0.00166553
0.0010192
0.00167181
0.000965755
0.00167744
0.000914316
0.00168229
0.00086494
0.00168639
0.000817558
0.00168969
0.000772188
0.00169227
0.000728843
0.00169426
0.000687548
0.00169545
0.000649586
0.00169603
0.000613431
0.00169521
0.000579232
0.00169262
0.000611325
0.00169032
0.000612334
0.0016989
0.000612488
0.00170828
0.00061476
0.00171685
0.000590917
0.0017282
0.000593599
0.0011374
0.000614384
0.00107858
0.000624482
0.00109479
0.000636908
0.00111814
0.000643344
0.00113975
0.00064943
0.00116388
0.000652845
0.00118715
0.000657649
0.00121029
0.000661397
0.00123373
0.00066362
0.00125656
0.000667136
0.001276
0.000668225
0.00129441
0.000668448
0.00131763
0.000671649
0.0013309
0.000673233
0.00134485
0.000670857
0.00136037
0.000673587
0.00137218
0.00067304
0.0013788
0.000673519
0.00138358
0.000674753
0.00138847
0.000675801
0.0013899
0.00067743
0.00139079
0.000678588
0.00138787
0.000682887
0.00138462
0.000687345
0.0013849
0.000690868
0.00138474
0.000692136
0.00138249
0.000695686
0.00137738
0.000701348
0.00137673
0.000707987
0.00137087
0.000715072
0.00136483
0.000721367
0.00136078
0.000727995
0.0013544
0.000734688
0.00134841
0.000741333
0.00134099
0.000747041
0.00133155
0.000752035
0.00132205
0.000758935
0.00131313
0.000763624
0.00130171
0.000770179
0.00128765
0.000776538
0.00127803
0.00078028
0.00126376
0.000784458
0.00126503
0.000799081
0.00127655
0.000815196
0.0012861
0.000820478
0.00131457
0.000818227
0.00130245
0.00082231
0.00120499
0.000849299
0.00108834
0.000870711
0.00100682
0.000866919
0.000951609
0.000850222
0.000909413
0.000827514
0.000874568
0.000807486
0.000848023
0.000792953
0.000827002
0.000781553
0.000808896
0.000773172
0.000793206
0.000766492
0.000779184
0.000763675
0.000766263
0.000762091
0.000757394
0.000764812
0.000752549
0.000768068
0.000752171
0.000776036
0.0007558
0.000783719
0.000762737
0.000795682
0.000773052
0.000811832
0.000785618
0.000839144
0.000800763
0.000864628
0.000817548
0.000936973
0.000834683
0.00289172
0.00288932
0.00129417
0.00288129
0.00130699
0.00286713
0.00132069
0.00284701
0.00133493
0.00282112
0.0013497
0.0027896
0.00136499
0.0027528
0.00138077
0.00271092
0.00139692
0.00266439
0.00141344
0.00261346
0.00143034
0.00255859
0.00144749
0.00250011
0.00146478
0.00243846
0.00148218
0.00237402
0.00149972
0.00230726
0.00151725
0.00223851
0.00153466
0.00216818
0.00155194
0.00209665
0.00156905
0.00202436
0.0015859
0.00195159
0.00160241
0.00187861
0.00161857
0.00180577
0.00163435
0.00173339
0.00164956
0.00166167
0.00166414
0.00159094
0.00167813
0.00152139
0.00169149
0.00145312
0.00170431
0.00138637
0.00171652
0.0013213
0.00172817
0.00125784
0.00173923
0.0011962
0.00174924
0.00113645
0.00175855
0.00107866
0.0017671
0.00102288
0.00177486
0.000969106
0.00178188
0.000917334
0.0017881
0.000867636
0.00179341
0.000819949
0.00179786
0.000774296
0.00180166
0.000730646
0.00180472
0.000688779
0.0018071
0.000649174
0.00180871
0.000613464
0.00180882
0.000579529
0.00180716
0.000619489
0.00180525
0.000620701
0.00181284
0.000621008
0.00182162
0.000623314
0.001829
0.000578874
0.00183955
0.000594399
0.00121158
0.000622234
0.00114338
0.000638347
0.00116454
0.000653577
0.00119089
0.000661402
0.00121475
0.000667532
0.00124244
0.000671165
0.00126551
0.000676908
0.00129123
0.000680026
0.00131682
0.000681742
0.00133918
0.000685549
0.00135794
0.000685888
0.00137564
0.000686004
0.00140237
0.000687918
0.00141192
0.00068529
0.00142279
0.000685482
0.0014413
0.000684086
0.00144737
0.00068247
0.00145294
0.00068264
0.00145844
0.000682077
0.00146153
0.000682292
0.00146297
0.000683261
0.00146224
0.000684699
0.00145868
0.000688306
0.00145433
0.000692303
0.00145034
0.000694997
0.00145004
0.000695958
0.0014464
0.000701059
0.00144157
0.00070742
0.0014403
0.000714732
0.00143344
0.000722031
0.00142701
0.000728192
0.00142337
0.000735386
0.00141618
0.000742082
0.00141026
0.000749639
0.00140441
0.00075576
0.00139411
0.000761213
0.00138398
0.000768207
0.001373
0.000774076
0.00136129
0.000779882
0.00134663
0.000787453
0.00133526
0.000792665
0.0013223
0.000792467
0.00131833
0.000807974
0.00132583
0.000824556
0.00135282
0.000829222
0.00134173
0.000838925
0.00128449
0.000856221
0.00115013
0.000900345
0.00106944
0.000904422
0.00101507
0.000894784
0.000965731
0.000871533
0.00092465
0.000843022
0.000887917
0.000821874
0.00085901
0.000807588
0.000836581
0.00079602
0.000818442
0.000789365
0.000803912
0.000784024
0.00079244
0.000778702
0.000782285
0.000774411
0.000772131
0.000775507
0.000765374
0.000777607
0.000762912
0.000784812
0.000764775
0.000790375
0.00077012
0.000801821
0.000778385
0.000817037
0.000789079
0.000844546
0.000802748
0.000869575
0.000818412
0.000943765
0.000834583
0.00289918
0.00289711
0.00130991
0.00288942
0.00132621
0.00287558
0.00134337
0.00285576
0.00136104
0.00283015
0.00137923
0.0027989
0.00139786
0.0027623
0.00141692
0.00272065
0.00143639
0.0026743
0.00145622
0.0026235
0.00147628
0.00256871
0.00149656
0.00251029
0.00151704
0.00244869
0.00153758
0.00238422
0.00155807
0.00231736
0.00157859
0.00224852
0.00159895
0.00217809
0.00161906
0.00210643
0.00163893
0.00203391
0.00165853
0.00196091
0.00167768
0.0018877
0.00169633
0.00181459
0.00171465
0.00174191
0.00173226
0.00166987
0.00174915
0.00159878
0.00176537
0.00152887
0.00178085
0.00146026
0.0017957
0.00139314
0.00180986
0.00132778
0.00182333
0.00126394
0.00183633
0.00120191
0.00184813
0.00114177
0.00185902
0.00108361
0.00186914
0.00102744
0.00187841
0.000973303
0.00188683
0.000921142
0.00189444
0.000871065
0.00190105
0.000823045
0.00190681
0.00077706
0.00191191
0.000733048
0.00191612
0.000690891
0.00191955
0.000650559
0.00192191
0.000613394
0.00192353
0.000579819
0.00192413
0.000627751
0.00192358
0.000629133
0.00192997
0.000630183
0.00193746
0.000631761
0.00194508
0.000590569
0.00195581
0.000594839
0.00129498
0.000635147
0.00121415
0.000656721
0.00124455
0.000675313
0.0012775
0.000685449
0.00130711
0.000692578
0.00133453
0.000698133
0.00135929
0.000704927
0.00138425
0.000706558
0.0014076
0.00070628
0.00143059
0.000706462
0.00144487
0.000703533
0.00145833
0.000702681
0.00148603
0.00069906
0.00149933
0.000694924
0.00150033
0.000692736
0.00151684
0.000691519
0.00152184
0.000688972
0.00153234
0.000687703
0.00153822
0.000686953
0.00154243
0.000686837
0.00154454
0.000687625
0.0015444
0.00068775
0.00153726
0.000689964
0.00153172
0.000694379
0.00152465
0.000697052
0.00152523
0.000698274
0.00152292
0.00070593
0.0015186
0.00071284
0.00151785
0.000720714
0.00151073
0.000729158
0.00150327
0.000735307
0.00150052
0.000743119
0.00149289
0.000749973
0.00148462
0.00075802
0.00147828
0.0007643
0.00146721
0.000769963
0.00145488
0.000776982
0.00144209
0.000782941
0.00142962
0.000788474
0.00141371
0.000795839
0.00139919
0.000799864
0.00138206
0.000801056
0.00136796
0.000815842
0.00137942
0.000834539
0.00136855
0.000841184
0.001343
0.000867347
0.00121513
0.000921068
0.0011289
0.000943565
0.00108367
0.000947086
0.00103885
0.000926312
0.000998978
0.000892772
0.00095879
0.000861408
0.000915321
0.000837947
0.000882257
0.000821562
0.00085712
0.000809129
0.000837099
0.000803426
0.000821595
0.000798988
0.000810136
0.00079516
0.000800682
0.000789695
0.000791921
0.000789456
0.000784154
0.000789242
0.000780322
0.000795033
0.000780551
0.000798744
0.000783837
0.000808735
0.000789583
0.000823341
0.000797452
0.000850495
0.000808625
0.000875866
0.000821832
0.000950982
0.000836206
0.00290886
0.0029071
0.00132763
0.00289971
0.00134735
0.00288617
0.0013679
0.00286663
0.00138892
0.00284126
0.00141041
0.00281026
0.00143234
0.00277391
0.00145467
0.00273243
0.00147735
0.00268618
0.00150033
0.00263552
0.00152357
0.00258082
0.00154697
0.00252242
0.0015705
0.00246076
0.00159405
0.00239629
0.00161752
0.00232935
0.00164096
0.00226036
0.00166418
0.00218973
0.00168708
0.00211789
0.00170965
0.00204513
0.00173195
0.00197185
0.00175368
0.00189834
0.00177482
0.00182491
0.00179558
0.00175187
0.00181555
0.00167946
0.00183471
0.00160798
0.00185313
0.00153766
0.00187069
0.00146865
0.00188754
0.0014011
0.00190365
0.00133528
0.00191897
0.00127109
0.00193364
0.00120862
0.00194732
0.00114805
0.00195986
0.00108946
0.00197148
0.00103289
0.00198223
0.000978332
0.0019921
0.000925782
0.0020011
0.000875326
0.00200905
0.000826983
0.00201624
0.000780607
0.00202271
0.000736167
0.00202836
0.000693601
0.00203312
0.000653058
0.00203699
0.000614234
0.00203989
0.000580089
0.00204173
0.000636526
0.00204279
0.000637873
0.00205058
0.000639419
0.00205841
0.000640745
0.00206309
0.000611009
0.002071
0.000600928
0.00138056
0.00065645
0.00129038
0.000685716
0.00134875
0.000710944
0.00138638
0.000723628
0.00141118
0.00072549
0.00143586
0.000725576
0.00145989
0.000727376
0.00148584
0.000726132
0.00151006
0.000723145
0.00153773
0.000720691
0.00155523
0.000713617
0.00156212
0.000710629
0.00159072
0.000708264
0.00159541
0.000700439
0.00160879
0.000698438
0.00162085
0.000694177
0.00163863
0.00069212
0.00164891
0.000689707
0.00165475
0.000688938
0.00165885
0.000688885
0.00165836
0.000688989
0.00165667
0.000689068
0.00164728
0.000689418
0.00164469
0.000694312
0.00163433
0.000697237
0.00162975
0.000701602
0.00162462
0.000710747
0.0016189
0.000717246
0.00161385
0.000725399
0.00160454
0.000735255
0.00159459
0.000741281
0.0015878
0.000749535
0.00157798
0.000756975
0.00156841
0.000765848
0.00156027
0.000772432
0.00154765
0.000778298
0.00153315
0.000785626
0.00151668
0.000791052
0.00150013
0.000797147
0.00147973
0.000803107
0.00145584
0.000805648
0.00143671
0.000803522
0.00141982
0.000818616
0.00140509
0.00083158
0.00137041
0.000857809
0.00127052
0.000926692
0.00119518
0.00095878
0.0011333
0.000979833
0.00109932
0.000977866
0.00106255
0.000951162
0.00102947
0.000918357
0.000988083
0.000885277
0.000943032
0.000857689
0.00091011
0.000838808
0.000883797
0.000824843
0.000862016
0.000818255
0.000844737
0.000813747
0.000832185
0.00081086
0.000822072
0.000806621
0.000813463
0.000804768
0.000806133
0.000801952
0.000799764
0.000806328
0.000796326
0.000808464
0.000796766
0.000817399
0.000799649
0.000831743
0.000804758
0.000857913
0.000813771
0.000883467
0.000825439
0.000958742
0.000838187
0.00292073
0.00291925
0.00134738
0.00291214
0.00137043
0.00289887
0.00139428
0.00287961
0.00141855
0.00285451
0.00144326
0.00282374
0.00146841
0.00278752
0.00149393
0.00274622
0.00151974
0.00270012
0.00154584
0.00264954
0.00157215
0.00259486
0.00159858
0.00253648
0.00162513
0.00247478
0.00165163
0.00241021
0.00167799
0.00234314
0.00170427
0.00227397
0.00173028
0.00220313
0.00175593
0.00213104
0.00178115
0.00205798
0.00180605
0.00198437
0.00183031
0.00191051
0.00185389
0.00183671
0.00187701
0.00176327
0.00189931
0.00169044
0.0019207
0.0016185
0.00194125
0.00154773
0.00196089
0.00147827
0.00197971
0.00141024
0.0019977
0.00134389
0.00201481
0.0012793
0.00203114
0.00121634
0.0020466
0.00115529
0.00206088
0.00109623
0.00207407
0.00103919
0.00208628
0.000984171
0.00209758
0.000931202
0.00210796
0.000880288
0.00211743
0.000831498
0.00212602
0.000784774
0.00213383
0.000739994
0.00214091
0.000697277
0.00214744
0.000656126
0.00215349
0.000617013
0.00215903
0.000580221
0.00216308
0.000645176
0.00216678
0.000647164
0.00217663
0.000649648
0.00218738
0.000649766
0.00219797
0.000654056
0.00220686
0.000620183
0.00150986
0.000700856
0.00139354
0.000731484
0.00147379
0.000745242
0.00152081
0.00075344
0.00154545
0.000750862
0.00156885
0.000750425
0.00159612
0.00074903
0.00161702
0.000743944
0.00163243
0.000739806
0.00164881
0.000731952
0.00165809
0.000723188
0.00166473
0.000718523
0.00170384
0.000712524
0.00170248
0.000706021
0.00171778
0.00069914
0.00172739
0.00069587
0.00174549
0.000692558
0.00175825
0.000690373
0.00175733
0.000689105
0.0017596
0.000689153
0.00175771
0.000690165
0.00175452
0.000690522
0.00174256
0.000690076
0.00173813
0.000692453
0.00172892
0.000696085
0.00171617
0.000704452
0.00171125
0.000716397
0.00170306
0.000723736
0.0016946
0.000731809
0.00168496
0.00074251
0.00167352
0.000748786
0.00166197
0.000755997
0.00165102
0.000764313
0.0016411
0.000773258
0.00162759
0.000779245
0.00161181
0.000784561
0.00159477
0.000790897
0.0015753
0.000795065
0.0015546
0.000797791
0.00152627
0.000803347
0.00149927
0.00080568
0.00147335
0.000800416
0.00143645
0.000799454
0.00136365
0.000832259
0.00129403
0.00091985
0.00120941
0.00097405
0.00118206
0.00100331
0.00114537
0.00100698
0.00112747
0.000992943
0.00108793
0.000973243
0.00104781
0.000941523
0.00100552
0.00090483
0.000963313
0.000876521
0.000929026
0.000855283
0.000902417
0.00083987
0.000880276
0.000831467
0.000861758
0.000826386
0.000847219
0.000824138
0.000835779
0.000820992
0.000826822
0.000820649
0.000819803
0.000817168
0.000814232
0.000819755
0.000809965
0.000820425
0.000809271
0.000827964
0.00081121
0.000841847
0.000814824
0.000866771
0.000822179
0.000892169
0.000831222
0.000967186
0.000842076
0.00293475
0.00293353
0.00136915
0.00292669
0.00139543
0.00291369
0.00142248
0.00289467
0.00144994
0.0028698
0.00147782
0.00283924
0.00150606
0.00280323
0.00153464
0.00276206
0.00156354
0.00271603
0.00159268
0.00266551
0.00162199
0.00261087
0.00165137
0.00255245
0.00168085
0.00249066
0.00171022
0.00242596
0.00173941
0.00235873
0.00176844
0.00228933
0.00179719
0.00221824
0.0018255
0.00214585
0.00185331
0.00207245
0.00188073
0.00199846
0.00190745
0.00192421
0.00193345
0.00184999
0.00195884
0.00177608
0.00198342
0.00170278
0.00200701
0.00163035
0.00202963
0.00155907
0.00205132
0.00148907
0.00207203
0.00142052
0.00209186
0.0013536
0.00211075
0.0012885
0.00212867
0.00122506
0.00214583
0.00116348
0.00216179
0.00110387
0.00217666
0.00104631
0.00219038
0.000990803
0.00220311
0.000937369
0.00221488
0.000886008
0.00222578
0.000836666
0.0022358
0.000789532
0.00224482
0.000744376
0.0022531
0.000701337
0.00226103
0.000660337
0.00226851
0.000621024
0.00227736
0.000583494
0.00228438
0.000654908
0.00229185
0.000657853
0.00230501
0.000662813
0.00232495
0.000662939
0.00234446
0.000653846
0.00243335
0.000647959
0.00209481
0.000730524
0.00157306
0.0007686
0.0016403
0.00078089
0.00167263
0.000782059
0.00169339
0.000778215
0.00170938
0.000774124
0.00171598
0.000767695
0.00173073
0.000760268
0.00174213
0.000753438
0.00175591
0.000742622
0.00176752
0.000734626
0.00176646
0.000728094
0.00181989
0.000715793
0.00182317
0.000712706
0.00180541
0.000701667
0.00182477
0.000699664
0.00184295
0.000696288
0.00185911
0.000693494
0.00185961
0.000692266
0.00185772
0.00069245
0.00185355
0.000694116
0.00184627
0.000694895
0.00183809
0.000693898
0.00182914
0.000696829
0.00181373
0.000703081
0.00180024
0.000712877
0.00179343
0.000726172
0.00178302
0.00073405
0.00177107
0.000742685
0.00175866
0.000754261
0.00174584
0.000761019
0.00173152
0.000769239
0.00171581
0.000777624
0.00170011
0.00078565
0.00168384
0.00079115
0.00166638
0.000793652
0.001646
0.00079899
0.00161815
0.0008003
0.00159034
0.000803263
0.00154742
0.000804223
0.00149269
0.000796144
0.0014399
0.000788825
0.00136841
0.000811886
0.00129293
0.000885909
0.00121581
0.000939254
0.00116843
0.000990714
0.0011575
0.00101312
0.00113376
0.00102822
0.00111222
0.00101839
0.00109374
0.000993915
0.00106545
0.000957344
0.00102718
0.000921675
0.000983823
0.000892925
0.000949628
0.000871171
0.000923761
0.000855308
0.000901803
0.000846198
0.000882769
0.000840415
0.000866987
0.000837699
0.000854136
0.000835011
0.000843928
0.000835743
0.000836159
0.000832948
0.000830329
0.000833912
0.000825384
0.000833162
0.000823032
0.000839579
0.000823222
0.000853062
0.000824809
0.000876988
0.000830544
0.000902234
0.000836807
0.000976522
0.000846063
0.00295089
0.00294991
0.00139298
0.00294332
0.00142239
0.00293057
0.00145254
0.00291178
0.00148309
0.00288711
0.001514
0.00285673
0.00154527
0.0028209
0.00157688
0.00277985
0.00160873
0.00273392
0.0016408
0.00268342
0.00167302
0.00262877
0.00170527
0.0025703
0.00173759
0.0025084
0.00176976
0.00244353
0.0018017
0.0023761
0.0018334
0.00230645
0.00186482
0.00223504
0.00189573
0.0021623
0.00192606
0.00208853
0.00195588
0.0020141
0.00198501
0.0019394
0.00201336
0.00186474
0.00204093
0.00179031
0.00206776
0.00171649
0.0020935
0.00164352
0.00211821
0.00157162
0.00214188
0.00150106
0.0021644
0.00143194
0.002186
0.0013644
0.00220662
0.0012987
0.0022262
0.00123473
0.00224491
0.00117261
0.0022625
0.00111243
0.00227899
0.00105428
0.00229426
0.00099821
0.00230842
0.000944208
0.00232158
0.000892301
0.00233388
0.000842424
0.0023451
0.000794682
0.00235561
0.000749195
0.00236505
0.000705747
0.00237433
0.000664355
0.00238342
0.000624864
0.00239494
0.00058699
0.00240403
0.000663101
0.00241363
0.000666947
0.00242677
0.000670594
0.00244594
0.000675428
0.00246354
0.00063878
0.00247465
0.000763015
0.00237807
0.00079698
0.0018046
0.000795832
0.00176126
0.000797791
0.00177217
0.000798413
0.00179203
0.000794917
0.00181293
0.000790118
0.00181859
0.000786696
0.00183762
0.000775485
0.00184331
0.000766281
0.00184832
0.000757908
0.00186861
0.000741928
0.0018642
0.000739502
0.0018982
0.000724091
0.00190782
0.000717591
0.00190077
0.000710445
0.00190654
0.000707291
0.00192204
0.000704562
0.00193896
0.000701974
0.00193969
0.000700564
0.00193574
0.000700271
0.00193094
0.000702054
0.0019222
0.000702463
0.00190916
0.000703238
0.0018968
0.000710687
0.00187868
0.000716921
0.00186224
0.000726816
0.00185013
0.000740518
0.00183798
0.000748782
0.00182417
0.000757739
0.00181068
0.000769372
0.00179824
0.000775807
0.0017826
0.000783379
0.00176232
0.000789579
0.00174351
0.000797022
0.00171989
0.00080294
0.00169355
0.000804757
0.00165581
0.000808047
0.00159855
0.000803467
0.00155705
0.000797332
0.00148793
0.000786997
0.00142366
0.000784719
0.00134355
0.000802983
0.00125532
0.000857317
0.00118367
0.000915113
0.00114913
0.000959351
0.00113806
0.00100367
0.00112601
0.00101567
0.00111501
0.00102519
0.00110075
0.00102117
0.00108474
0.00100204
0.00106383
0.000967707
0.00103133
0.000932513
0.000991927
0.000904925
0.000959708
0.000884415
0.000935741
0.000869196
0.000915253
0.000859843
0.000897405
0.000853587
0.00088119
0.000850832
0.000867629
0.000848607
0.000856702
0.000849984
0.000848333
0.000848397
0.000842271
0.000848766
0.000837637
0.000846803
0.000834914
0.000852532
0.000834319
0.00086553
0.000834782
0.000888831
0.000839658
0.000913826
0.000843735
0.000987193
0.000851503
0.00296912
0.00296837
0.00141889
0.002962
0.00145132
0.00294947
0.00148447
0.00293091
0.00151797
0.00290644
0.00155184
0.00287623
0.00158604
0.00284053
0.00162054
0.00279958
0.00165527
0.00275372
0.00169019
0.00270324
0.00172522
0.00264855
0.00176025
0.00259
0.0017953
0.00252796
0.00183018
0.00246289
0.0018648
0.00239523
0.00189907
0.00232529
0.00193308
0.00225353
0.0019665
0.00218038
0.00199928
0.0021062
0.00203141
0.00203129
0.0020629
0.0019561
0.00209352
0.00188091
0.00212323
0.00180594
0.00215222
0.00173154
0.00218007
0.00165799
0.00220679
0.00158545
0.00223234
0.00151422
0.00225667
0.00144447
0.00227996
0.00137628
0.00230229
0.00130991
0.00232353
0.00124535
0.00234371
0.00118264
0.00236276
0.00112187
0.00238071
0.00106307
0.00239764
0.00100638
0.0024132
0.000951807
0.00242778
0.000899275
0.00244119
0.000848858
0.00245384
0.000800357
0.00246526
0.000754219
0.00247581
0.000710157
0.00248526
0.000668128
0.00249446
0.000628103
0.00250461
0.000589551