/*--------------------------------*- C++ -*----------------------------------*\
| =========                 |                                                 |
| \\      /  F ield         | OpenFOAM: The Open Source CFD Toolbox           |
|  \\    /   O peration     | Version:  2.2.x                                 |
|   \\  /    A nd           | Web:      www.OpenFOAM.org                      |
|    \\/     M anipulation  |                                                 |
\*---------------------------------------------------------------------------*/
FoamFile
{
    version     2.0;
    format      ascii;
    class       volScalarField;
    location    "1.25";
    object      p;
}
// * * * * * * * * * * * * * * * * * * * * * * * * * * * * * * * * * * * * * //

dimensions      [1 -1 -2 0 0 0 0];

internalField   nonuniform List<scalar> 
14161
(
0.199001
0.199252
0.199171
0.199109
0.199023
0.198915
0.198792
0.198647
0.198474
0.198285
0.19807
0.197837
0.197595
0.197327
0.197032
0.19675
0.196455
0.196107
0.195795
0.195502
0.195143
0.194774
0.1945
0.194265
0.194086
0.19392
0.193729
0.193531
0.193361
0.193301
0.193269
0.193324
0.193439
0.193629
0.193891
0.194264
0.194716
0.195315
0.196032
0.196813
0.197483
0.198265
0.1994
0.200977
0.202287
0.203337
0.204611
0.205652
0.204955
0.952081
1.58441
1.62689
1.59053
1.56942
1.53421
1.50363
1.47015
1.43538
1.39975
1.36345
1.32908
1.29301
1.2588
1.22966
1.20387
1.17858
1.15867
1.14748
1.1394
1.13468
1.13227
1.14188
1.14955
1.15497
1.14742
1.14503
1.14462
1.15007
1.13059
1.12419
1.11893
1.10314
1.0999
1.09549
1.09012
1.08698
1.08475
1.08239
1.08265
1.10444
1.1152
1.12423
1.07197
1.02661
0.988128
0.930822
0.90442
0.912296
0.912172
1.03342
1.12406
1.3529
1.5389
1.67469
1.76295
1.82348
1.86674
1.90077
1.92641
1.94875
1.96656
1.9837
1.99925
2.0156
2.03151
2.04992
2.06792
2.08393
2.12509
0.199
0.199252
0.199169
0.199106
0.199026
0.198923
0.198787
0.198637
0.198479
0.198296
0.198063
0.19783
0.197598
0.197334
0.197031
0.196745
0.196452
0.196106
0.195794
0.195496
0.195142
0.194779
0.194501
0.194267
0.19408
0.193913
0.193726
0.193523
0.193359
0.1933
0.193254
0.193314
0.193433
0.193604
0.193858
0.194228
0.194676
0.195257
0.19594
0.196777
0.197484
0.198247
0.199366
0.201027
0.20235
0.203523
0.204839
0.205556
0.205334
0.925279
1.57831
1.61926
1.58065
1.55704
1.52227
1.49182
1.45786
1.42459
1.39018
1.35365
1.31972
1.28533
1.25333
1.22372
1.19758
1.17335
1.155
1.14343
1.13559
1.13093
1.12918
1.13788
1.14452
1.14961
1.14082
1.13807
1.13746
1.14233
1.12288
1.11771
1.11439
1.10081
1.09609
1.09116
1.08623
1.08294
1.08073
1.07881
1.08015
1.0995
1.10777
1.11847
1.06299
1.0263
0.990777
0.926523
0.901485
0.906456
0.946543
1.18444
1.3853
1.57308
1.70882
1.79508
1.855
1.89752
1.92744
1.95052
1.96776
1.98311
1.99613
2.00839
2.01984
2.03225
2.04522
2.06057
2.07712
2.08412
2.12019
0.199001
0.19925
0.199172
0.19911
0.199021
0.198913
0.198796
0.198654
0.198469
0.198279
0.198075
0.197852
0.197585
0.197315
0.197041
0.196757
0.196438
0.196101
0.195796
0.195493
0.195145
0.194785
0.194497
0.194264
0.19406
0.193899
0.193716
0.193505
0.193357
0.193285
0.193244
0.19328
0.193364
0.193538
0.193794
0.194122
0.194573
0.195095
0.195753
0.19656
0.197307
0.198079
0.199173
0.200878
0.202191
0.203713
0.205177
0.206349
0.206764
0.954835
1.58976
1.63239
1.60046
1.57778
1.54112
1.50637
1.46766
1.42957
1.38997
1.35173
1.3138
1.27683
1.24542
1.21396
1.18647
1.16468
1.14651
1.13418
1.12686
1.12232
1.12129
1.13014
1.13668
1.14251
1.13334
1.12965
1.12855
1.13228
1.11445
1.11067
1.10909
1.09536
1.08974
1.08434
1.07977
1.07693
1.0748
1.07301
1.07672
1.09312
1.09776
1.11432
1.06095
1.02152
0.979109
0.921854
0.901279
0.93068
1.13807
1.36127
1.56452
1.70318
1.79901
1.86204
1.90973
1.94205
1.96394
1.98082
1.99205
2.00196
2.00961
2.01685
2.02388
2.03073
2.03731
2.04546
2.05492
2.06072
2.07901
0.199
0.199252
0.199169
0.199106
0.199025
0.198922
0.198788
0.19864
0.19848
0.198296
0.198065
0.197832
0.197598
0.197339
0.197028
0.196733
0.19644
0.196121
0.195786
0.195483
0.195148
0.194786
0.194496
0.194247
0.194024
0.193875
0.193702
0.193493
0.193349
0.193253
0.193181
0.193219
0.193275
0.193433
0.193655
0.193949
0.194351
0.19485
0.195483
0.196221
0.197024
0.197729
0.198803
0.200525
0.201919
0.203721
0.204875
0.207259
0.206631
0.982785
1.60746
1.64514
1.60675
1.57966
1.53944
1.50305
1.46336
1.42478
1.38547
1.34669
1.30639
1.26897
1.23469
1.20128
1.17122
1.1476
1.12934
1.11769
1.10954
1.10634
1.10529
1.11522
1.1208
1.1289
1.11908
1.11432
1.11393
1.11679
1.09906
1.09629
1.09913
1.08388
1.07841
1.07238
1.06793
1.06564
1.06441
1.06208
1.06737
1.07978
1.0815
1.09997
1.04747
1.00595
0.97259
0.901765
0.904516
1.07986
1.36327
1.57948
1.69527
1.77662
1.84081
1.89039
1.93165
1.96128
1.98129
1.99541
2.00424
2.01204
2.01743
2.0222
2.02705
2.03084
2.03579
2.03999
2.04692
2.05025
2.05586
0.199002
0.199253
0.19917
0.199108
0.199021
0.198913
0.198795
0.198655
0.198469
0.198278
0.198077
0.197851
0.197583
0.197317
0.197046
0.196755
0.196427
0.196107
0.19579
0.195472
0.195149
0.194791
0.194484
0.194222
0.193993
0.193842
0.193686
0.19349
0.193328
0.193207
0.193096
0.193097
0.193151
0.193272
0.193439
0.1937
0.194016
0.19451
0.195085
0.195707
0.196527
0.19711
0.198134
0.199715
0.201233
0.203188
0.204564
0.20863
0.206715
1.00443
1.63012
1.65206
1.61172
1.57946
1.53215
1.49094
1.44891
1.40652
1.36474
1.32537
1.28475
1.24953
1.20868
1.17476
1.14983
1.12164
1.10386
1.0933
1.08573
1.08287
1.0818
1.09027
1.0964
1.10717
1.09664
1.092
1.09131
1.09668
1.07933
1.07751
1.07941
1.06518
1.06009
1.05315
1.04893
1.0469
1.04604
1.04592
1.0534
1.06248
1.06279
1.08034
1.02549
0.983123
0.952704
0.896519
1.01033
1.30817
1.53326
1.64365
1.71895
1.78674
1.8429
1.89015
1.92851
1.95718
1.97876
1.99386
2.00432
2.01259
2.01784
2.02238
2.02641
2.02968
2.03445
2.03692
2.04195
2.04363
2.04408
0.199004
0.199253
0.19917
0.199105
0.199026
0.198923
0.198786
0.198638
0.198479
0.198295
0.198067
0.19783
0.197592
0.197338
0.197035
0.196727
0.196432
0.196126
0.195786
0.195458
0.195139
0.194805
0.19447
0.194195
0.193966
0.193808
0.193657
0.193464
0.193302
0.193151
0.192974
0.192944
0.19297
0.193049
0.193181
0.193366
0.193619
0.194069
0.194525
0.195064
0.195676
0.196206
0.197011
0.198255
0.199783
0.201819
0.20286
0.207022
0.204541
0.987562
1.64099
1.64609
1.59927
1.5644
1.51073
1.46762
1.42462
1.37822
1.33733
1.29812
1.25305
1.22135
1.17399
1.1413
1.12308
1.08425
1.06953
1.0618
1.05174
1.04999
1.04816
1.05858
1.06299
1.07242
1.07119
1.06257
1.06187
1.06676
1.05209
1.05076
1.0539
1.03985
1.03702
1.02942
1.02537
1.02349
1.02309
1.02319
1.02856
1.03692
1.03609
1.04466
1.00651
0.97399
0.923136
0.967325
1.25572
1.46626
1.56688
1.627
1.69201
1.76579
1.82499
1.87327
1.91187
1.94263
1.96582
1.98263
1.99358
2.00246
2.00856
2.01456
2.02004
2.02433
2.03129
2.03414
2.03898
2.03998
2.03865
0.199006
0.199251
0.199173
0.19911
0.199022
0.198911
0.198791
0.198649
0.198473
0.198276
0.198077
0.197849
0.197582
0.19732
0.197051
0.196727
0.19642
0.196125
0.195797
0.195441
0.195134
0.194818
0.194456
0.194172
0.193941
0.193762
0.19361
0.193424
0.193247
0.193077
0.19285
0.192768
0.192753
0.192781
0.192859
0.192968
0.193119
0.19345
0.193745
0.19411
0.194508
0.195069
0.195729
0.196438
0.197293
0.198925
0.200399
0.203802
0.201043
0.94142
1.63349
1.63253
1.5589
1.5201
1.46458
1.41897
1.37534
1.32598
1.28659
1.24437
1.20198
1.17971
1.12182
1.10005
1.07975
1.03984
1.03261
1.01665
1.01447
1.00883
1.00736
1.01665
1.02308
1.03132
1.03589
1.02695
1.02654
1.03239
1.01985
1.01809
1.02171
1.00817
1.00495
0.999403
0.995646
0.994321
0.996008
0.995406
1.00032
1.00827
1.01122
1.01764
1.00448
0.967993
0.97013
1.22094
1.41821
1.51196
1.51998
1.57936
1.63992
1.72443
1.79532
1.84919
1.89026
1.92249
1.94928
1.96906
1.98298
1.99403
2.00212
2.00891
2.01532
2.02027
2.02764
2.03071
2.03637
2.03772
2.03598
0.199007
0.199255
0.199173
0.19911
0.199022
0.198917
0.198785
0.198644
0.198475
0.198283
0.198074
0.197843
0.19758
0.197323
0.197055
0.196726
0.196417
0.196125
0.1958
0.19543
0.195125
0.194822
0.194444
0.194147
0.193907
0.193706
0.193549
0.193359
0.193154
0.192966
0.192758
0.192587
0.192511
0.192488
0.192491
0.19253
0.192591
0.192756
0.192886
0.193016
0.193183
0.193404
0.193691
0.194232
0.194774
0.195545
0.196203
0.199851
0.199266
0.878532
1.62479
1.59876
1.48429
1.42957
1.37573
1.34052
1.30694
1.26336
1.2369
1.19124
1.15771
1.14167
1.07279
1.0748
1.02999
1.00613
0.991936
0.979622
0.976326
0.971438
0.97097
0.978983
0.985668
0.989421
1.00323
0.994292
0.991677
1.0002
0.989659
0.988959
0.991542
0.982182
0.980001
0.974499
0.969908
0.968867
0.971023
0.973355
0.979957
0.994752
1.00572
1.01079
1.00191
1.02349
1.23758
1.42539
1.47707
1.4838
1.4917
1.53476
1.59213
1.69108
1.77261
1.83049
1.87152
1.90465
1.9325
1.95406
1.96972
1.98154
1.99128
1.99794
2.00565
2.01163
2.02165
2.02569
2.03247
2.03479
2.03363
0.19901
0.199256
0.199173
0.199108
0.199026
0.198924
0.198789
0.198639
0.198477
0.198281
0.198074
0.197848
0.197578
0.19732
0.19706
0.196727
0.196411
0.196122
0.195799
0.195423
0.195114
0.194816
0.194437
0.19412
0.193866
0.193643
0.193471
0.193274
0.193055
0.192843
0.192628
0.192386
0.192232
0.192131
0.192057
0.191997
0.191935
0.191879
0.191838
0.191803
0.191678
0.191396
0.191063
0.190454
0.190298
0.189573
0.189597
0.188573
0.190021
0.720043
1.5647
1.53142
1.36263
1.316
1.30343
1.28041
1.25184
1.21376
1.18537
1.14579
1.11777
1.09671
1.0243
1.03741
0.996158
0.982241
0.959585
0.946607
0.947274
0.942147
0.94236
0.95189
0.958735
0.960784
0.975436
0.971937
0.969346
0.974785
0.968572
0.967688
0.968774
0.964113
0.959753
0.955591
0.955329
0.956398
0.961186
0.966385
0.98138
0.996373
1.01092
1.03553
1.16565
1.32583
1.47333
1.53661
1.4808
1.47061
1.4694
1.49399
1.55948
1.65648
1.74339
1.80686
1.84922
1.88318
1.91136
1.93496
1.953
1.96693
1.97814
1.98771
1.99748
2.00414
2.01556
2.01928
2.02955
2.0319
2.03166
0.199013
0.199258
0.199176
0.199113
0.199025
0.198917
0.198795
0.198652
0.198479
0.198278
0.198075
0.197855
0.197577
0.197316
0.197059
0.196735
0.196409
0.196114
0.195795
0.195421
0.195101
0.194796
0.194433
0.194091
0.193816
0.193572
0.193376
0.19318
0.192949
0.1927
0.192476
0.192195
0.191958
0.191757
0.1916
0.191447
0.191284
0.191079
0.19083
0.190669
0.190463
0.189914
0.189224
0.187646
0.186461
0.184229
0.182522
0.175633
0.173851
0.218784
1.28965
1.51206
1.3285
1.27747
1.24498
1.21949
1.20024
1.16987
1.12816
1.11021
1.07432
1.08105
0.980961
1.00092
0.992128
0.957512
0.938069
0.923387
0.920468
0.918853
0.921305
0.930638
0.93264
0.941172
0.954638
0.956806
0.953644
0.958724
0.955762
0.95569
0.955882
0.955977
0.955924
0.95418
0.954086
0.956532
0.965763
0.977
1.00381
1.06097
1.14616
1.31064
1.45257
1.58535
1.62153
1.55813
1.50738
1.46073
1.45581
1.48085
1.53907
1.62913
1.72223
1.79078
1.83446
1.86775
1.89547
1.91969
1.93885
1.954
1.96659
1.97797
1.98801
1.99428
2.00671
2.01014
2.02352
2.02629
2.02695
0.199016
0.19926
0.199178
0.199116
0.199025
0.198924
0.198795
0.198645
0.198485
0.198288
0.198076
0.197859
0.197582
0.197314
0.197058
0.196746
0.196408
0.196102
0.195787
0.195428
0.195088
0.194773
0.194426
0.194056
0.193753
0.193489
0.193259
0.193071
0.192831
0.192553
0.192295
0.191986
0.19168
0.191392
0.191135
0.190874
0.190608
0.19026
0.189883
0.189466
0.189017
0.188288
0.187002
0.18461
0.182698
0.179782
0.177303
0.171567
0.168858
0.214119
1.01251
1.30458
1.32149
1.25625
1.23043
1.17953
1.17112
1.13369
1.10549
1.09913
1.04807
1.05327
0.990674
0.961153
0.984208
0.942616
0.924669
0.910156
0.90758
0.907204
0.909694
0.920591
0.925192
0.934724
0.947098
0.952282
0.951125
0.953417
0.954414
0.953786
0.952047
0.955932
0.956577
0.960526
0.967751
0.984685
1.03689
1.08088
1.2067
1.32949
1.47136
1.60053
1.6973
1.71969
1.65594
1.56838
1.50745
1.47991
1.47692
1.48417
1.53012
1.61039
1.70096
1.77218
1.81782
1.851
1.87865
1.90302
1.92319
1.93955
1.95351
1.96604
1.97747
1.98384
1.99734
2.0008
2.01741
2.02113
2.02357
0.19902
0.199263
0.19918
0.199115
0.199031
0.198926
0.198798
0.19865
0.198486
0.198289
0.198081
0.197865
0.197591
0.197315
0.197055
0.196757
0.196406
0.196089
0.195782
0.19544
0.195076
0.194749
0.194413
0.194019
0.193686
0.193398
0.193141
0.192963
0.192713
0.192392
0.192081
0.191772
0.191428
0.191079
0.190703
0.190364
0.189988
0.18962
0.189143
0.188632
0.188202
0.187727
0.186928
0.185536
0.18428
0.183012
0.182791
0.180826
0.191848
0.431575
0.808446
1.0762
1.24074
1.25352
1.23053
1.1679
1.15318
1.12733
1.08737
1.07443
1.03892
1.01779
1.00252
0.944036
0.968912
0.945673
0.927566
0.904399
0.900216
0.900427
0.900982
0.915483
0.92154
0.935129
0.945378
0.952752
0.952985
0.953286
0.960242
0.963431
0.963333
0.98732
1.00099
1.03006
1.08869
1.18054
1.30447
1.42399
1.53324
1.64369
1.7324
1.77342
1.77734
1.73568
1.67135
1.60434
1.54594
1.5017
1.49462
1.50138
1.54126
1.60622
1.68839
1.75825
1.80496
1.83706
1.86384
1.88775
1.90832
1.92533
1.94042
1.95426
1.96673
1.97405
1.98692
1.9895
2.00827
2.01277
2.01611
0.199024
0.199265
0.199184
0.19912
0.199031
0.198928
0.198801
0.19865
0.198492
0.198298
0.19808
0.197866
0.197607
0.19732
0.197051
0.196765
0.196406
0.196078
0.195777
0.195445
0.19507
0.194719
0.194384
0.193999
0.193615
0.193303
0.193018
0.192861
0.192587
0.192245
0.191811
0.191475
0.191178
0.190837
0.190352
0.189886
0.189481
0.189048
0.188595
0.188115
0.187563
0.187082
0.186665
0.185836
0.184722
0.182862
0.181619
0.180212
0.183748
0.595934
0.867393
0.932251
1.08745
1.17963
1.2207
1.17954
1.1519
1.13885
1.09959
1.07316
1.06201
1.00727
1.01823
0.941612
0.947465
0.944287
0.937704
0.909171
0.904842
0.906627
0.915076
0.919318
0.928907
0.940323
0.953536
0.965974
0.971343
0.975091
1.00687
1.03166
1.06251
1.14186
1.22115
1.32905
1.43063
1.52375
1.62492
1.71138
1.76412
1.78988
1.80117
1.7916
1.77187
1.73512
1.68356
1.62461
1.57429
1.54454
1.53135
1.533
1.56215
1.61107
1.68527
1.74936
1.79457
1.82564
1.85121
1.87378
1.89375
1.91082
1.92669
1.94175
1.95533
1.9635
1.97633
1.97783
1.99823
2.00422
2.00998
0.199028
0.199268
0.199187
0.199124
0.199032
0.198932
0.198808
0.198655
0.198488
0.198306
0.198085
0.197866
0.197622
0.197326
0.19705
0.19677
0.196413
0.196073
0.195765
0.195442
0.195064
0.194684
0.194349
0.193987
0.193552
0.193209
0.192907
0.192726
0.192451
0.192073
0.191575
0.191198
0.190889
0.190576
0.190145
0.189505
0.189027
0.188601
0.188158
0.187736
0.187329
0.186982
0.186592
0.186481
0.185956
0.186443
0.184766
0.189846
0.239436
0.741342
0.863524
0.864297
0.89061
1.03639
1.1436
1.18011
1.14684
1.15097
1.11941
1.07934
1.07542
0.995478
1.00056
0.973491
0.932052
0.935652
0.939704
0.919701
0.915961
0.918059
0.929775
0.935247
0.955535
0.970534
0.993632
1.03222
1.05763
1.12933
1.19277
1.30287
1.39122
1.4727
1.55639
1.63911
1.71371
1.75649
1.78285
1.80054
1.8063
1.80266
1.79539
1.78151
1.76349
1.73676
1.70049
1.65504
1.60738
1.57177
1.55464
1.55519
1.58043
1.62207
1.68667
1.74387
1.78592
1.81541
1.8396
1.86068
1.87989
1.89648
1.91286
1.92916
1.94393
1.9532
1.96607
1.96641
1.98736
1.99389
2.00089
0.199033
0.199271
0.199191
0.199128
0.199039
0.198935
0.198811
0.198656
0.198495
0.198315
0.198092
0.197868
0.197634
0.197333
0.197049
0.196771
0.196428
0.196069
0.195754
0.195437
0.19505
0.194651
0.194312
0.193961
0.193505
0.193124
0.192797
0.192569
0.192293
0.191878
0.191342
0.190949
0.190591
0.190326
0.189917
0.189288
0.188671
0.188217
0.187841
0.187547
0.187315
0.187185
0.187177
0.187634
0.188034
0.189564
0.190773
0.202347
0.449539
0.849859
0.878446
0.862247
0.865737
0.876119
1.00619
1.07314
1.13979
1.12388
1.13906
1.09319
1.04969
1.02731
0.983883
0.995187
0.914817
0.94174
0.948923
0.934097
0.938037
0.944978
0.974802
0.99812
1.03525
1.12036
1.17635
1.29054
1.37573
1.44968
1.52989
1.60898
1.68052
1.73245
1.7638
1.78264
1.79422
1.79737
1.79701
1.79645
1.79406
1.78924
1.78272
1.77119
1.7565
1.73692
1.70974
1.6735
1.63432
1.60568
1.58812
1.58842
1.60572
1.63708
1.69073
1.74096
1.77974
1.8072
1.8295
1.84898
1.8671
1.88309
1.89944
1.91644
1.93218
1.94268
1.95563
1.95446
1.97581
1.98307
1.99138
0.199037
0.199275
0.199194
0.199133
0.199044
0.19894
0.198817
0.198664
0.198497
0.198326
0.198102
0.197871
0.19764
0.197345
0.19705
0.196772
0.196447
0.19607
0.195744
0.195428
0.195034
0.194622
0.194265
0.193917
0.193488
0.193058
0.192696
0.192395
0.192122
0.191697
0.191118
0.190704
0.190297
0.190023
0.189655
0.189198
0.188431
0.187883
0.187452
0.1871
0.186795
0.186492
0.186246
0.185786
0.185291
0.184821
0.182564
0.186972
0.601052
0.868954
0.882438
0.865685
0.859026
0.848991
0.881317
0.898599
1.02716
1.04703
1.11614
1.09993
1.0261
1.04181
0.965812
1.01299
0.939795
0.958036
0.973808
0.985363
1.00946
1.0592
1.16558
1.24986
1.34552
1.43228
1.51265
1.59193
1.66288
1.71893
1.74951
1.7689
1.78202
1.78906
1.79289
1.79188
1.78789
1.78655
1.78513
1.7835
1.78248
1.77844
1.77241
1.7629
1.75171
1.73746
1.71722
1.68936
1.6578
1.63273
1.61547
1.614
1.62709
1.65304
1.69782
1.7415
1.77618
1.8007
1.82061
1.83841
1.85516
1.87019
1.88642
1.9035
1.92001
1.93199
1.94519
1.94342
1.96469
1.97142
1.98056
0.199043
0.199278
0.199199
0.199138
0.199048
0.198942
0.198826
0.198674
0.198502
0.198332
0.198118
0.197875
0.197644
0.197362
0.197056
0.196772
0.196464
0.19608
0.195734
0.195414
0.195023
0.194592
0.19421
0.193876
0.193482
0.192999
0.192596
0.192219
0.191945
0.191527
0.190921
0.190461
0.19004
0.189692
0.189397
0.188951
0.188398
0.187614
0.187095
0.186636
0.186218
0.18575
0.185245
0.184529
0.183957
0.181967
0.183683
0.209694
0.729188
0.863683
0.870967
0.864192
0.861969
0.847937
0.850359
0.860235
0.887466
0.976552
0.991493
1.08589
0.984628
1.07869
0.964756
1.04614
1.0037
1.06436
1.111
1.20423
1.29926
1.38241
1.46882
1.5544
1.63081
1.69557
1.73472
1.75935
1.77707
1.78647
1.79072
1.78926
1.78332
1.78129
1.78018
1.7763
1.77531
1.77571
1.77437
1.77252
1.77082
1.76777
1.7629
1.75583
1.74704
1.73637
1.72142
1.701
1.67669
1.65701
1.64102
1.63936
1.64899
1.67025
1.70597
1.74375
1.77428
1.79587
1.81323
1.82906
1.84395
1.85784
1.87359
1.89027
1.90747
1.9209
1.93445
1.93261
1.95358
1.95917
1.96973
0.199048
0.199283
0.199203
0.199143
0.199055
0.198946
0.198832
0.198687
0.198511
0.198336
0.198133
0.197885
0.197647
0.197382
0.197065
0.196773
0.196473
0.196102
0.195733
0.195398
0.19502
0.194566
0.19417
0.193809
0.193446
0.192987
0.192506
0.192083
0.191738
0.191344
0.19082
0.190237
0.189788
0.189357
0.189061
0.188713
0.188257
0.187606
0.186942
0.186501
0.186305
0.186208
0.186478
0.186647
0.188373
0.188118
0.199752
0.419634
0.850108
0.881916
0.873671
0.868251
0.863099
0.857901
0.854903
0.851532
0.854361
0.842216
0.928459
1.06757
1.08566
1.16664
1.08505
1.21764
1.28656
1.34828
1.43314
1.51154
1.59343
1.65487
1.69535
1.72652
1.74941
1.76251
1.76967
1.77406
1.77365
1.77497
1.77673
1.77408
1.77235
1.76936
1.76712
1.76491
1.7653
1.76434
1.7634
1.76196
1.7606
1.75856
1.75507
1.75001
1.74297
1.7345
1.72323
1.7089
1.69176
1.67696
1.66349
1.6619
1.66861
1.68587
1.71444
1.74698
1.77331
1.79214
1.80704
1.82045
1.8333
1.84596
1.86073
1.87686
1.89443
1.90944
1.92335
1.92197
1.94213
1.94674
1.95878
0.199054
0.199287
0.199209
0.199148
0.199062
0.198954
0.198835
0.198699
0.198522
0.198343
0.198147
0.197897
0.197654
0.197401
0.197078
0.196772
0.196479
0.196133
0.195737
0.195381
0.195014
0.194556
0.194134
0.193736
0.193407
0.192988
0.192422
0.191961
0.191536
0.191209
0.190734
0.190049
0.189531
0.189092
0.188696
0.188416
0.188034
0.187547
0.186869
0.186155
0.185598
0.185105
0.184392
0.183544
0.182529
0.18032
0.184261
0.592261
0.884055
0.893206
0.882317
0.875082
0.865609
0.857739
0.850711
0.851354
0.842136
0.839669
0.896453
1.11798
1.28761
1.39267
1.41932
1.49762
1.54883
1.6034
1.64798
1.67903
1.70082
1.7208
1.73525
1.74484
1.74812
1.75083
1.752
1.75553
1.75881
1.76157
1.76202
1.76247
1.76094
1.75826
1.75574
1.75495
1.75543
1.75414
1.75306
1.75181
1.75065
1.74949
1.74734
1.74425
1.73928
1.73292
1.72467
1.71467
1.7033
1.69331
1.6835
1.68132
1.68602
1.70024
1.72269
1.75065
1.77325
1.78926
1.80163
1.81236
1.82295
1.83433
1.84786
1.86336
1.88091
1.89743
1.91174
1.91158
1.93038
1.93421
1.94793
0.199061
0.199292
0.199214
0.199154
0.199069
0.198962
0.198842
0.19871
0.198534
0.198351
0.198162
0.197912
0.197664
0.197417
0.197102
0.196781
0.196483
0.196157
0.195745
0.195367
0.195003
0.194571
0.194105
0.193683
0.193343
0.192943
0.192389
0.191857
0.191387
0.191065
0.190615
0.190005
0.18933
0.188836
0.188415
0.188037
0.187758
0.18729
0.186706
0.185764
0.184915
0.184177
0.183182
0.182446
0.179838
0.180329
0.205899
0.742021
0.882681
0.894758
0.892528
0.8904
0.88473
0.880118
0.874899
0.880687
0.897401
0.902587
1.09267
1.36362
1.57602
1.62704
1.62464
1.64538
1.65972
1.67257
1.68648
1.69551
1.7029
1.70912
1.71322
1.72365
1.7291
1.73343
1.73557
1.73999
1.74354
1.74596
1.74713
1.74938
1.74906
1.74711
1.74523
1.74489
1.74531
1.74397
1.74377
1.74289
1.74231
1.74165
1.74047
1.73838
1.73506
1.73085
1.72536
1.71889
1.71129
1.70528
1.69883
1.69789
1.70122
1.713
1.7306
1.75479
1.77393
1.78707
1.79671
1.80472
1.8131
1.82311
1.83518
1.85
1.86712
1.8849
1.89946
1.90089
1.91783
1.92219
1.93721
0.199068
0.199298
0.199221
0.19916
0.199077
0.198973
0.198848
0.19872
0.198548
0.19836
0.198174
0.197933
0.197675
0.197429
0.197135
0.196796
0.196489
0.196172
0.195765
0.195361
0.194994
0.194588
0.194091
0.193653
0.19326
0.192874
0.192378
0.191782
0.191284
0.190904
0.190518
0.189983
0.189205
0.188663
0.188217
0.187837
0.187539
0.187316
0.186914
0.186506
0.185939
0.185926
0.186053
0.187371
0.188177
0.19939
0.436368
0.872694
0.907707
0.904483
0.903839
0.903525
0.903711
0.900901
0.892646
0.914104
0.980521
1.08477
1.39478
1.62598
1.70319
1.68662
1.67951
1.67476
1.67507
1.67613
1.67724
1.67793
1.68045
1.68387
1.6879
1.69519
1.70109
1.70683
1.7104
1.71641
1.72243
1.72604
1.72925
1.73215
1.73399
1.73367
1.73516
1.73525
1.73497
1.73454
1.73472
1.73369
1.73322
1.73281
1.73242
1.73165
1.72998
1.72792
1.72451
1.7213
1.71684
1.71368
1.71079
1.7106
1.71349
1.72355
1.73812
1.75895
1.77471
1.78516
1.7922
1.79763
1.80379
1.81219
1.82267
1.83677
1.85316
1.87139
1.88606
1.88907
1.90509
1.911
1.92546
0.199076
0.199304
0.199227
0.199167
0.199086
0.198984
0.198857
0.198729
0.198566
0.198372
0.198185
0.197959
0.197693
0.197442
0.197168
0.196817
0.196496
0.196183
0.195795
0.195368
0.194982
0.194596
0.194117
0.193634
0.193185
0.192808
0.192352
0.19175
0.19123
0.190766
0.190414
0.189916
0.189173
0.188569
0.188104
0.187724
0.187366
0.187059
0.186803
0.186293
0.185623
0.184504
0.18351
0.182179
0.179551
0.182019
0.629005
0.92365
0.933771
0.926089
0.920493
0.917751
0.918887
0.921924
0.912993
0.973791
1.12294
1.38782
1.63538
1.73497
1.71861
1.7003
1.68489
1.67499
1.66774
1.66407
1.66213
1.65972
1.65942
1.65965
1.6611
1.66378
1.66774
1.67674
1.6851
1.6912
1.69639
1.7013
1.70631
1.71007
1.71478
1.71842
1.72131
1.72153
1.72196
1.72254
1.72322
1.72346
1.72397
1.72417
1.72436
1.72413
1.72333
1.72271
1.72151
1.72087
1.72002
1.71927
1.71961
1.72143
1.72369
1.73232
1.74445
1.76204
1.77457
1.78309
1.78786
1.79109
1.79497
1.80171
1.81054
1.82375
1.83924
1.85742
1.87221
1.87672
1.89259
1.89961
1.91347
0.199084
0.19931
0.199234
0.199176
0.199094
0.198996
0.19887
0.19874
0.198584
0.198389
0.198198
0.197985
0.197714
0.197458
0.197194
0.196851
0.196512
0.196197
0.19583
0.195378
0.194973
0.194607
0.194168
0.193627
0.193152
0.192712
0.192294
0.191795
0.191212
0.190693
0.190295
0.189811
0.18919
0.188517
0.188041
0.18768
0.187377
0.187077
0.186911
0.186603
0.186289
0.185656
0.185441
0.183466
0.185875
0.232502
0.80062
0.941786
0.946885
0.946841
0.942044
0.940845
0.947018
0.965462
0.978593
1.14488
1.39755
1.64121
1.74726
1.72905
1.70395
1.68559
1.67194
1.66343
1.65782
1.65416
1.65097
1.64813
1.64597
1.64416
1.64296
1.64141
1.64299
1.64695
1.6514
1.65917
1.66491
1.67212
1.679
1.68661
1.69392
1.70037
1.70458
1.70793
1.70969
1.71109
1.71229
1.71258
1.71363
1.71436
1.71513
1.7157
1.71607
1.71718
1.71715
1.71883
1.72031
1.72254
1.7255
1.72792
1.73141
1.73914
1.74978
1.76407
1.77393
1.78062
1.7835
1.78477
1.78672
1.79142
1.79883
1.81101
1.82546
1.84318
1.858
1.86409
1.8798
1.88813
1.90113
0.199093
0.199317
0.199242
0.199185
0.199103
0.199008
0.198885
0.198753
0.198606
0.198409
0.198214
0.198011
0.197741
0.197475
0.197216
0.196897
0.196539
0.196211
0.195864
0.195408
0.194987
0.194605
0.194205
0.193669
0.193131
0.192644
0.192241
0.191791
0.191261
0.190676
0.190193
0.189746
0.189199
0.188507
0.188035
0.187712
0.187506
0.18735
0.187319
0.187436
0.187759
0.188082
0.189444
0.190815
0.20027
0.472967
0.93062
0.968258
0.960657
0.959117
0.958389
0.961285
0.9715
1.03493
1.11146
1.42441
1.64213
1.75271
1.73707
1.70795
1.68671
1.66992
1.65769
1.64989
1.6452
1.64274
1.64024
1.63811
1.63612
1.63426
1.63129
1.62765
1.62599
1.62535
1.62739
1.6327
1.63739
1.64511
1.65202
1.66079
1.66698
1.67457
1.68213
1.68812
1.69138
1.69415
1.69681
1.69918
1.70227
1.70426
1.70556
1.70642
1.7071
1.70922
1.71094
1.71488
1.71786
1.72224
1.7267
1.73251
1.737
1.74393
1.75386
1.76512
1.7728
1.7777
1.77897
1.77846
1.77924
1.7814
1.7873
1.79866
1.81178
1.82884
1.84345
1.8512
1.86701
1.87642
1.88839
0.199102
0.199324
0.199251
0.199195
0.199113
0.199021
0.198901
0.198766
0.198625
0.198434
0.198232
0.198032
0.197777
0.197502
0.197241
0.196944
0.196573
0.196232
0.195891
0.195465
0.195012
0.194599
0.194231
0.193755
0.193144
0.192627
0.19216
0.191775
0.191301
0.190704
0.190159
0.189699
0.189179
0.188553
0.187994
0.187625
0.187364
0.187157
0.186939
0.186707
0.186461
0.186109
0.185289
0.183172
0.185355
0.663424
0.981794
0.991193
0.981832
0.979891
0.981265
0.993806
1.02223
1.19359
1.37907
1.664
1.75812
1.74058
1.7102
1.68673
1.66701
1.65315
1.64257
1.63629
1.63228
1.63012
1.62794
1.62656
1.62524
1.62392
1.62089
1.61793
1.61447
1.61113
1.61082
1.61157
1.61389
1.62004
1.62573
1.63518
1.64251
1.65198
1.66171
1.66996
1.67529
1.67932
1.68313
1.68612
1.68949
1.69212
1.69389
1.69556
1.69791
1.7009
1.70441
1.70904
1.71398
1.71943
1.72572
1.73339
1.74113
1.74691
1.75575
1.76465
1.77052
1.77426
1.77429
1.7717
1.77194
1.77135
1.77635
1.78686
1.79837
1.81458
1.82872
1.83814
1.85407
1.86453
1.87531
0.199112
0.199332
0.19926
0.199206
0.199124
0.199036
0.198918
0.198781
0.198642
0.198463
0.198255
0.198055
0.197818
0.197534
0.19727
0.196989
0.196619
0.196262
0.195928
0.195533
0.195051
0.194619
0.194239
0.193812
0.193231
0.192637
0.192128
0.191682
0.191249
0.190753
0.190171
0.18967
0.189189
0.188636
0.187964
0.18753
0.187217
0.187015
0.186795
0.18667
0.186477
0.186832
0.185875
0.188645
0.240949
0.838965
0.99121
0.995293
0.992471
0.992064
1.00216
1.05082
1.12776
1.4198
1.63539
1.75817
1.7459
1.7127
1.68952
1.6687
1.65325
1.64221
1.6332
1.62648
1.6211
1.61822
1.61566
1.61401
1.61293
1.61209
1.60988
1.60803
1.60507
1.60173
1.59808
1.59591
1.59614
1.59912
1.60288
1.61006
1.61731
1.62775
1.63667
1.6466
1.6538
1.65931
1.66478
1.66976
1.67519
1.67997
1.68285
1.68542
1.68854
1.69175
1.69566
1.70145
1.70749
1.71533
1.72321
1.73236
1.74234
1.74911
1.75616
1.76304
1.76767
1.77042
1.76913
1.76508
1.76467
1.76155
1.76558
1.77521
1.78527
1.80043
1.8139
1.82486
1.84115
1.85235
1.86181
0.199123
0.199341
0.19927
0.199217
0.199137
0.19905
0.198938
0.1988
0.198661
0.198494
0.198283
0.198081
0.197859
0.197574
0.197303
0.19703
0.196683
0.19631
0.195969
0.195602
0.195115
0.194666
0.194237
0.193872
0.193382
0.192705
0.192132
0.191614
0.191129
0.190678
0.19017
0.189705
0.189234
0.188714
0.187986
0.187401
0.187044
0.186851
0.186731
0.18677
0.186895
0.187886
0.187825
0.196273
0.448463
0.939145
0.993862
0.994006
1.00226
1.01241
1.04856
1.18937
1.3819
1.64562
1.76069
1.74945
1.71523
1.69108
1.66839
1.65089
1.63734
1.62764
1.61984
1.61402
1.6099
1.60644
1.60396
1.60201
1.60079
1.59994
1.59884
1.59757
1.59526
1.59284
1.58842
1.5848
1.58268
1.58203
1.58344
1.58824
1.5938
1.60364
1.6123
1.62429
1.63317
1.64115
1.6485
1.65433
1.65918
1.66397
1.66782
1.6719
1.67608
1.68066
1.68665
1.69332
1.70145
1.70975
1.71854
1.72896
1.74006
1.74803
1.75495
1.76084
1.76439
1.76609
1.76342
1.75813
1.75708
1.75181
1.75499
1.7638
1.77246
1.78642
1.79918
1.81134
1.82824
1.83976
1.84803
0.199135
0.19935
0.199281
0.19923
0.199151
0.199065
0.198959
0.198823
0.198682
0.198525
0.198316
0.198112
0.1979
0.197623
0.197344
0.197078
0.196753
0.196368
0.19602
0.195666
0.195211
0.194725
0.194268
0.193914
0.19348
0.192909
0.192191
0.191593
0.191042
0.190529
0.190033
0.189696
0.189275
0.188677
0.188105
0.187197
0.186643
0.186119
0.18562
0.184859
0.184
0.18238
0.180578
0.183134
0.660429
0.967588
0.987915
0.987791
0.999204
1.0444
1.12147
1.40421
1.62436
1.75614
1.75083
1.71639
1.69374
1.67139
1.65281
1.63827
1.62586
1.61654
1.6088
1.60287
1.59839
1.5949
1.59186
1.58998
1.58885
1.58778
1.58702
1.5861
1.58479
1.58262
1.57956
1.57658
1.57208
1.56879
1.5682
1.5702
1.57354
1.58123
1.58894
1.59994
1.60864
1.61884
1.62694
1.63404
1.64104
1.64836
1.65472
1.66009
1.66597
1.67097
1.67773
1.68458
1.69245
1.70099
1.71115
1.72332
1.73585
1.74507
1.75243
1.75779
1.76055
1.76129
1.75741
1.75103
1.74934
1.74236
1.74459
1.75231
1.75965
1.77261
1.78467
1.79764
1.81499
1.82672
1.83408
0.199147
0.19936
0.199293
0.199244
0.199167
0.199082
0.19898
0.198848
0.198707
0.198556
0.198354
0.198148
0.197942
0.197683
0.197398
0.19713
0.196829
0.196441
0.196083
0.195748
0.195319
0.194803
0.19435
0.193939
0.193602
0.193095
0.192317
0.191633
0.19101
0.190432
0.189923
0.189447
0.189169
0.18864
0.187991
0.187214
0.186193
0.185516
0.185052
0.184671
0.184985
0.183939
0.188845
0.280075
0.837362
0.961661
0.97102
0.991113
1.0228
1.16791
1.35395
1.63162
1.74944
1.74394
1.70852
1.68601
1.66383
1.64646
1.63344
1.6237
1.61516
1.60753
1.60033
1.59381
1.5888
1.58494
1.58104
1.57822
1.57664
1.57529
1.57453
1.57396
1.57373
1.57219
1.57062
1.56752
1.56325
1.55884
1.55634
1.55529
1.55686
1.56157
1.5668
1.57622
1.58458
1.59669
1.60619
1.61516
1.62343
1.63036
1.63647
1.64344
1.65029
1.65705
1.66484
1.67311
1.68218
1.69197
1.70312
1.71601
1.72953
1.73999
1.74799
1.75323
1.75566
1.75565
1.75075
1.74363
1.74079
1.73312
1.7342
1.74088
1.74724
1.75918
1.77037
1.78361
1.80146
1.81311
1.82014
0.199161
0.199371
0.199306
0.199258
0.199185
0.199101
0.199003
0.198875
0.198735
0.198589
0.198397
0.198189
0.197989
0.197747
0.19746
0.19719
0.196905
0.196536
0.196171
0.195837
0.19544