/*--------------------------------*- C++ -*----------------------------------*\
| =========                 |                                                 |
| \\      /  F ield         | OpenFOAM: The Open Source CFD Toolbox           |
|  \\    /   O peration     | Version:  2.2.x                                 |
|   \\  /    A nd           | Web:      www.OpenFOAM.org                      |
|    \\/     M anipulation  |                                                 |
\*---------------------------------------------------------------------------*/
FoamFile
{
    version     2.0;
    format      ascii;
    class       volScalarField;
    location    "0.3";
    object      By;
}
// * * * * * * * * * * * * * * * * * * * * * * * * * * * * * * * * * * * * * //

dimensions      [1 0 -2 0 0 -1 0];

internalField   nonuniform List<scalar> 
14161
(
-1.49186e-12
2.24689e-13
-7.76081e-13
-9.70464e-13
-1.99994e-12
-3.38328e-12
-5.93466e-12
-9.95952e-12
-1.62326e-11
-2.55298e-11
-3.93485e-11
-5.92439e-11
-8.60936e-11
-1.21311e-10
-1.62505e-10
-1.98449e-10
-2.6375e-10
-2.19215e-10
-1.69143e-10
-5.77986e-10
2.4504e-09
-2.37827e-09
-3.7151e-09
5.26618e-08
-1.00437e-07
-1.30536e-08
4.46938e-07
-1.34037e-06
6.7896e-07
7.3294e-07
-6.4817e-06
2.36759e-06
-4.59549e-06
-1.58735e-05
7.18531e-06
-1.09348e-05
-2.33009e-05
2.37876e-05
-1.41683e-05
-3.41582e-05
2.08031e-05
-4.17045e-06
-3.84827e-05
-7.29487e-06
2.87226e-05
-2.43763e-05
-4.10111e-05
1.56363e-05
1.81743e-05
-5.18066e-05
-1.35647e-05
5.49085e-05
-7.95284e-06
-6.18536e-05
4.63689e-05
8.06269e-05
6.45868e-05
0.000115724
0.000243543
0.000287966
0.000356864
0.000481902
0.000602456
0.000500487
0.000296236
-0.000702906
-0.00261853
-0.00685954
-0.0237506
-0.0619119
-0.0564199
-0.0380575
-0.0214502
-0.0193532
-0.0166898
-0.00859753
-0.00326988
-0.000403008
0.00828028
0.0144026
0.0152754
0.0103804
-0.00196126
-0.013003
-0.0141741
-0.00810733
0.0102126
0.0403221
0.0684974
0.0838218
0.0730215
0.061913
0.0505143
0.0395671
0.0286366
0.0211875
0.017126
0.0144005
0.0132118
0.0136306
0.0139674
0.0154312
0.0161778
0.0169466
0.0165291
0.0158543
0.0158244
0.0154047
0.0146457
0.013656
0.0146651
0.0180295
0.01884
0.0217688
0.0163614
0.0169878
0.0155078
0.0107707
0.0155757
-2.39589e-12
2.13721e-12
2.46575e-12
5.5368e-12
1.02934e-11
1.99308e-11
3.70469e-11
6.78281e-11
1.21306e-10
2.124e-10
3.6386e-10
6.09821e-10
9.99723e-10
1.60551e-09
2.53239e-09
3.8868e-09
5.96338e-09
8.74743e-09
1.30199e-08
1.87388e-08
2.65715e-08
3.94711e-08
3.74845e-08
1.19163e-07
-7.4146e-10
1.76637e-08
7.94213e-07
-1.08457e-06
1.81511e-06
3.21746e-06
-6.59917e-06
1.24442e-05
4.56313e-06
-1.40108e-05
3.70591e-05
1.38297e-06
-1.12416e-05
4.46518e-05
2.18807e-06
-1.49575e-05
6.19671e-05
4.33835e-05
-3.24336e-05
6.69507e-06
8.81917e-05
3.41509e-05
-6.33783e-05
8.35038e-05
0.000207154
1.31325e-06
-8.25177e-05
0.000196025
0.000204432
-7.99331e-05
0.000187587
0.000298388
0.000183824
0.000194312
0.000160872
0.000409741
0.000144131
0.000342973
0.000746221
0.00104061
0.00102745
0.0024865
0.000946486
0.0035126
-0.0678268
-0.170858
-0.145617
-0.0795912
-0.0499839
-0.0375694
-0.0222928
-0.00785463
-0.000990243
0.00271611
0.010049
0.0186608
0.020899
0.0153438
0.00180777
-0.00677377
-0.0113036
-0.00219165
0.0217785
0.0702077
0.0985746
0.109504
0.101921
0.0924943
0.078371
0.0621831
0.0565673
0.0626981
0.0647565
0.062226
0.0578723
0.0538267
0.0499121
0.045521
0.0423163
0.0397089
0.0399589
0.0378766
0.0387446
0.0380846
0.0430645
0.0458812
0.0466675
0.0464917
0.0431755
0.0487386
0.0423548
0.048875
0.0464118
0.0402817
0.0489105
-4.34142e-12
1.59057e-12
7.37346e-15
1.35369e-12
1.9236e-12
4.61052e-12
9.10961e-12
1.83217e-11
3.55298e-11
6.75439e-11
1.23773e-10
2.21194e-10
3.86279e-10
6.58211e-10
1.10477e-09
1.80633e-09
2.92491e-09
4.62805e-09
7.15486e-09
1.21093e-08
1.4143e-08
3.33313e-08
3.43592e-08
3.84214e-08
1.66394e-07
6.07225e-08
-8.00545e-08
6.30634e-07
-1.60821e-07
-7.40113e-07
1.92622e-06
-2.94706e-06
-3.04612e-06
2.23843e-06
-1.20578e-05
-3.48288e-06
3.8049e-06
-1.21941e-05
1.1e-06
2.00892e-05
-6.19013e-06
5.04563e-06
4.86354e-05
2.06323e-05
-1.79069e-05
3.14785e-05
5.97713e-05
3.94079e-05
5.60307e-05
7.71743e-05
4.1053e-05
5.88668e-05
0.000206235
0.000138295
0.000122581
0.000290201
0.000432409
0.000262975
0.000422263
0.000634001
0.000655582
0.000988651
0.00138337
0.00208747
0.00320399
0.0050396
0.00366894
0.011414
-0.152528
-0.279692
-0.239641
-0.155458
-0.0977194
-0.0606891
-0.0334089
-0.0094445
0.00159345
0.00667659
0.0157109
0.0202704
0.0186147
0.0225166
0.0181216
0.0314097
0.0465077
0.0714963
0.103189
0.136342
0.15882
0.165683
0.153111
0.133887
0.118505
0.104317
0.0990855
0.09522
0.0902801
0.0845064
0.079968
0.0781274
0.0764272
0.0745338
0.0709929
0.0675355
0.064997
0.0629806
0.0647719
0.0637192
0.0657725
0.0679339
0.0719548
0.0750701
0.0730135
0.0780697
0.0734544
0.0817159
0.082282
0.0732571
0.080862
-4.87093e-12
3.36512e-12
2.98014e-12
7.46793e-12
1.33962e-11
2.63988e-11
4.92319e-11
9.07808e-11
1.63312e-10
2.87779e-10
4.96312e-10
8.38338e-10
1.38648e-09
2.24837e-09
3.58932e-09
5.59078e-09
8.67207e-09
1.31179e-08
1.97222e-08
2.89788e-08
4.45124e-08
5.81629e-08
1.01222e-07
9.50997e-08
1.88239e-07
3.49115e-07
-1.1756e-07
1.68166e-06
-4.6109e-08
-2.85385e-07
8.46672e-06
-5.86776e-06
6.31061e-06
1.94481e-05
-1.68842e-05
2.33494e-05
3.2369e-05
-1.33314e-05
3.38002e-05
4.27966e-05
-7.77811e-06
3.62832e-05
8.10163e-05
3.82111e-05
1.63621e-05
7.84072e-05
0.000120078
2.65131e-05
5.74724e-05
0.000184692
0.000196456
3.99746e-05
0.000197601
0.000355319
0.000181122
0.000186145
0.000512819
0.000602141
0.000492184
0.000693993
0.00111358
0.00106046
0.0013408
0.00169789
0.00285936
0.00415557
-0.00177916
-0.0654547
-0.294201
-0.305545
-0.251989
-0.165223
-0.113775
-0.0639376
-0.0325882
-0.000204052
0.0166821
0.022339
0.030301
0.0429687
0.0409903
0.0557237
0.0779409
0.114042
0.14052
0.157374
0.167885
0.172037
0.178733
0.174617
0.160842
0.145723
0.13195
0.122706
0.122194
0.1194
0.114028
0.108641
0.105615
0.10414
0.102278
0.100171
0.100099
0.0997168
0.0991725
0.0963061
0.0948918
0.0922424
0.0911019
0.0907698
0.0922703
0.0952207
0.0947727
0.102746
0.0995571
0.112375
0.111711
0.103976
0.112026
-6.17902e-12
2.19259e-12
3.9033e-14
1.96212e-12
2.61818e-12
6.3919e-12
1.26475e-11
2.55798e-11
4.99023e-11
9.45334e-11
1.75432e-10
3.16747e-10
5.60648e-10
9.70789e-10
1.64884e-09
2.74486e-09
4.50839e-09
7.3192e-09
1.17028e-08
1.85127e-08
3.01175e-08
4.28186e-08
7.32755e-08
1.2106e-07
1.22915e-07
3.13631e-07
2.52144e-07
3.13917e-07
8.31351e-07
1.31759e-06
1.06353e-07
2.82729e-06
1.69509e-06
-9.81981e-07
1.2906e-06
4.21718e-06
-2.49161e-06
9.21345e-06
1.84365e-05
1.45028e-05
7.42028e-06
3.32495e-05
5.33475e-05
3.07039e-05
4.08841e-05
9.63904e-05
0.000115759
5.80011e-05
3.72106e-05
0.000182734
0.000223977
0.000108491
0.000105862
0.000327769
0.000425593
0.000190107
0.000423315
0.000587504
0.000638631
0.000509674
0.00108503
0.00123768
0.00157335
0.00181809
0.00247688
0.000938057
-0.0154528
-0.201617
-0.532127
-0.409291
-0.281106
-0.182166
-0.121231
-0.0611274
-0.0185886
0.0128331
0.0415371
0.0536146
0.0637867
0.0840834
0.094453
0.131821
0.194054
0.228423
0.236165
0.231467
0.227551
0.229808
0.230049
0.217473
0.196655
0.179818
0.163423
0.156237
0.151661
0.145362
0.137535
0.133708
0.128713
0.124517
0.120712
0.117345
0.11634
0.116803
0.11975
0.120083
0.123794
0.122769
0.120767
0.119308
0.117352
0.119077
0.118451
0.127162
0.126548
0.140994
0.140329
0.13426
0.142773
-6.44626e-12
3.75064e-12
2.57746e-12
7.25344e-12
1.25083e-11
2.50997e-11
4.68737e-11
8.69029e-11
1.56743e-10
2.77804e-10
4.82158e-10
8.22538e-10
1.37508e-09
2.2577e-09
3.66418e-09
5.79925e-09
9.21579e-09
1.42628e-08
2.19481e-08
3.41325e-08
5.03128e-08
8.03772e-08
1.10819e-07
1.87451e-07
2.43091e-07
3.45908e-07
8.42503e-07
2.56654e-07
1.83019e-06
2.02325e-06
-3.77419e-07
8.60417e-06
1.67626e-06
5.8734e-08
2.76556e-05
-5.72142e-06
1.31911e-05
5.01583e-05
6.77982e-07
2.91457e-05
7.50036e-05
1.92059e-05
3.11449e-05
0.000113521
0.000107265
3.01422e-05
0.000107979
0.000238407
0.000115327
5.8062e-05
0.000260571
0.000347421
0.00021064
0.000206983
0.000508349
0.000529695
0.000359075
0.000401398
0.000930611
0.000764908
0.000995904
0.000877823
0.00153387
0.00135938
0.00109939
-0.00385706
-0.0357185
-0.363437
-0.687672
-0.54371
-0.334404
-0.235494
-0.127131
-0.0630321
-0.0171731
0.0256219
0.0509961
0.0966947
0.141119
0.183711
0.215878
0.246809
0.290851
0.312987
0.306319
0.288397
0.271062
0.26226
0.252952
0.235133
0.216296
0.201767
0.187256
0.179542
0.172523
0.165781
0.161112
0.157338
0.152872
0.150641
0.147783
0.144899
0.141768
0.138901
0.137987
0.138622
0.14384
0.14338
0.142699
0.140276
0.139206
0.141169
0.140829
0.151389
0.151151
0.166725
0.165086
0.162839
0.172525
-7.2973e-12
2.17942e-12
-7.70328e-13
7.85021e-13
-7.45665e-16
1.74386e-12
4.13434e-12
1.07249e-11
2.43855e-11
5.29049e-11
1.09701e-10
2.18133e-10
4.20462e-10
7.85313e-10
1.42407e-09
2.51218e-09
4.43824e-09
7.48986e-09
1.27347e-08
2.16889e-08
3.36944e-08
6.15289e-08
8.4413e-08
1.65856e-07
2.19288e-07
3.44977e-07
6.0027e-07
6.4421e-07
1.06464e-06
1.8925e-06
2.43038e-06
2.86452e-06
4.92575e-06
6.57731e-06
4.64633e-06
5.50983e-06
8.69022e-06
1.38655e-05
1.26533e-05
7.81503e-06
6.52581e-05
5.51125e-05
4.50588e-06
8.10334e-05
0.000146592
8.23749e-05
2.58272e-05
0.000148795
0.000265888
0.000122911
9.20152e-05
0.000343826
0.000398875
0.000192084
0.000294143
0.000600802
0.000511591
0.000256845
0.000745998
0.000802691
0.000841955
0.000471581
0.00117721
0.000660456
0.000248706
-0.00710577
-0.072059
-0.515578
-0.762342
-0.670884
-0.442764
-0.29486
-0.152047
-0.0673789
-0.00248608
0.0435622
0.0885484
0.159649
0.227878
0.310205
0.345141
0.362045
0.384599
0.376121
0.347362
0.32936
0.32149
0.309806
0.294161
0.272386
0.251241
0.234298
0.218933
0.206858
0.196974
0.189657
0.185313
0.181447
0.178139
0.176162
0.172105
0.169227
0.165156
0.163423
0.162089
0.160454
0.163725
0.163324
0.16554
0.163954
0.161363
0.161651
0.161953
0.17358
0.174412
0.191317
0.187828
0.188894
0.199992
-7.44655e-12
3.46822e-12
1.32289e-12
5.15278e-12
8.17021e-12
1.71306e-11
3.2039e-11
5.99544e-11
1.0887e-10
1.95759e-10
3.45679e-10
6.01857e-10
1.02982e-09
1.73654e-09
2.91025e-09
4.78653e-09
7.85237e-09
1.27853e-08
2.04308e-08
3.28556e-08
5.3283e-08
8.13544e-08
1.38018e-07
1.93018e-07
3.47439e-07
4.77072e-07
7.37895e-07
1.32751e-06
1.41519e-06
2.32028e-06
5.19041e-06
1.89234e-06
8.95353e-06
1.31165e-05
3.41134e-06
2.36167e-05
1.76096e-05
1.38317e-05
6.02518e-05
4.20275e-05
2.84216e-05
0.000106834
9.44599e-05
2.40548e-05
9.39309e-05
0.000215422
0.000139539
5.51053e-05
0.000223086
0.000347783
0.000170785
0.00015088
0.000411401
0.000483246
0.000326025
0.000376216
0.000772396
0.000643263
0.000623705
0.000721758
0.00130373
0.000797447
0.000968211
0.00109295
-0.000388863
-0.0109103
-0.121373
-0.631279
-0.804989
-0.769273
-0.584158
-0.3346
-0.187355
-0.0863153
0.00956623
0.0797542
0.196512
0.274523
0.384323
0.399874
0.420668
0.444681
0.438052
0.41494
0.382039
0.359117
0.347493
0.332746
0.313406
0.293369
0.279013
0.265018
0.248678
0.234102
0.22274
0.216302
0.211881
0.205566
0.200728
0.198929
0.197211
0.196205
0.192132
0.189584
0.18418
0.18174
0.183081
0.182118
0.185127
0.183938
0.183328
0.183648
0.181795
0.192714
0.195415
0.212688
0.210068
0.214214
0.224487
-7.95314e-12
1.71823e-12
-2.2688e-12
-1.90165e-12
-5.51117e-12
-8.68491e-12
-1.53976e-11
-2.40645e-11
-3.68011e-11
-4.96685e-11
-6.10044e-11
-5.3713e-11
-1.37051e-12
1.54319e-10
5.09912e-10
1.26199e-09
2.79123e-09
5.46338e-09
1.06299e-08
1.9823e-08
3.42785e-08
6.36444e-08
1.03271e-07
1.75904e-07
2.90329e-07
4.65078e-07
6.49058e-07
1.18914e-06
1.54346e-06
1.94113e-06
3.82549e-06
4.81868e-06
5.68152e-06
9.36781e-06
1.31761e-05
1.07547e-05
2.22328e-05
1.37851e-05
2.69221e-05
4.64591e-05
2.51573e-05
4.60723e-05
0.000121314
8.55384e-05
4.43828e-05
0.000116574
0.000217362
0.000139275
7.80173e-05
0.000243542
0.000353186
0.000185736
0.000202227
0.000500128
0.000538377
0.00035154
0.000472697
0.000909028
0.00064352
0.000648492
0.000812143
0.00106221
0.000735854
0.00248396
0.00063837
-0.013461
-0.188641
-0.72269
-0.8229
-0.804496
-0.687828
-0.452734
-0.201365
-0.0149045
0.116483
0.234608
0.314344
0.399079
0.422921
0.453013
0.482363
0.482807
0.467711
0.444322
0.425539
0.405254
0.386578
0.364865
0.340757
0.318614
0.304024
0.288926
0.273156
0.258323
0.246525
0.240541
0.234762
0.226875
0.221613
0.219389
0.21762
0.217868
0.216231
0.215066
0.210104
0.207881
0.206822
0.204288
0.205949
0.20414
0.203791
0.20452
0.202348
0.212831
0.214751
0.231917
0.230057
0.237745
0.247595
-8.07231e-12
2.66524e-12
-6.99009e-13
1.41057e-12
8.21155e-13
3.36008e-12
6.46617e-12
1.3407e-11
2.77879e-11
5.5011e-11
1.10208e-10
2.13154e-10
4.10864e-10
7.83104e-10
1.48591e-09
2.74021e-09
4.9295e-09
8.88409e-09
1.57245e-08
2.70196e-08
4.79963e-08
7.7459e-08
1.38286e-07
2.08387e-07
3.72865e-07
5.35882e-07
9.4153e-07
1.25734e-06
2.13252e-06
3.24982e-06
3.30565e-06
7.90811e-06
6.69643e-06
1.10563e-05
1.94477e-05
1.49558e-05
2.2135e-05
4.89371e-05
2.20857e-05
4.86561e-05
9.21497e-05
5.36994e-05
6.57676e-05
0.000156126
0.000125139
5.6674e-05
0.000141304
0.000288546
0.000186824
0.00012949
0.00031597
0.000449603
0.00025205
0.000280213
0.000528526
0.000573099
0.000369637
0.000595358
0.000889742
0.00128344
0.000773549
0.00155016
0.000795854
0.00221785
-0.00192674
-0.0247212
-0.30454
-0.790987
-0.832993
-0.818708
-0.738947
-0.510977
-0.177268
0.0870306
0.266885
0.346332
0.412455
0.445891
0.474681
0.488466
0.495033
0.494519
0.482952
0.468864
0.450216
0.430963
0.414781
0.396818
0.376156
0.355002
0.338829
0.319137
0.299532
0.283347
0.272244
0.26623
0.260382
0.252682
0.245444
0.239967
0.236251
0.235794
0.234946
0.236274
0.233729
0.232289
0.229124
0.226411
0.226232
0.224171
0.223971
0.22533
0.223453
0.232974
0.233653
0.250961
0.249241
0.261737
0.268845
-8.43087e-12
8.88492e-13
-4.33179e-12
-5.8777e-12
-1.33458e-11
-2.32885e-11
-4.21778e-11
-7.28063e-11
-1.23334e-10
-2.01244e-10
-3.15694e-10
-4.71441e-10
-6.69364e-10
-8.83247e-10
-1.04911e-09
-1.01883e-09
-3.82583e-10
1.23002e-09
5.24965e-09
1.36096e-08
2.8117e-08
5.83624e-08
1.00505e-07
1.89621e-07
3.00109e-07
5.06345e-07
8.51223e-07
1.11197e-06
2.08629e-06
2.69999e-06
3.59335e-06
5.17557e-06
9.49899e-06
9.14218e-06
1.27448e-05
2.30611e-05
2.02654e-05
3.08132e-05
4.05413e-05
2.70122e-05
5.62868e-05
8.72045e-05
5.14367e-05
8.20465e-05
0.000159132
0.000134035
7.02936e-05
0.00015385
0.000287403
0.000201579
0.000158331
0.000333395
0.000434759
0.000303494
0.000328886
0.000678118
0.000549745
0.000471068
0.000569661
0.00101917
0.000875791
0.00121306
0.00104058
0.001408
-0.00464012
-0.0506185
-0.44172
-0.809653
-0.833909
-0.812079
-0.724245
-0.455287
-0.0544518
0.234443
0.351724
0.407566
0.458391
0.501245
0.518467
0.514878
0.514529
0.520554
0.513795
0.501091
0.480924
0.456786
0.433673
0.41412
0.395957
0.380871
0.366827
0.346168
0.325812
0.310506
0.299025
0.290577
0.282114
0.273731
0.266649
0.260559
0.256111
0.255283
0.253891
0.255199
0.254115
0.254516
0.250892
0.247752
0.245562
0.243026
0.243061
0.245196
0.244405
0.253321
0.252473
0.269935
0.268091
0.286261
0.289305
-8.52122e-12
1.36584e-12
-3.58924e-12
-4.15861e-12
-9.99439e-12
-1.68938e-11
-3.07234e-11
-5.25716e-11
-8.81278e-11
-1.41112e-10
-2.17436e-10
-3.18343e-10
-4.30565e-10
-5.33266e-10
-5.20373e-10
-2.36519e-10
7.10448e-10
3.06126e-09
8.01597e-09
1.6951e-08
3.53485e-08
6.22089e-08
1.23419e-07
1.9271e-07
3.51307e-07
6.1109e-07
7.79663e-07
1.66075e-06
1.82658e-06
3.46213e-06
4.51004e-06
6.08607e-06
9.52011e-06
1.30383e-05
1.37771e-05
2.02239e-05
3.3913e-05
2.99198e-05
4.66555e-05
5.14382e-05
4.07008e-05
7.46541e-05
0.000110373
7.38321e-05
0.000102935
0.00018781
0.000181621
0.000113996
0.000193501
0.000318349
0.000271215
0.000254413
0.000355247
0.000492486
0.000426466
0.000422454
0.000577246
0.000762318
0.000564093
0.000841483
0.000801351
0.00121927
0.000711893
0.00037763
-0.00842298
-0.0921445
-0.578648
-0.81419
-0.830407
-0.788169
-0.655847
-0.312312
0.0927549
0.326028
0.398105
0.451702
0.496549
0.520384
0.530849
0.53302
0.540659
0.542386
0.532009
0.519479
0.501099
0.481931
0.458435
0.437971
0.41785
0.40354
0.388275
0.368744
0.353235
0.341247
0.32876
0.31642
0.305374
0.296812
0.289333
0.282263
0.277286
0.274869
0.272106
0.272322
0.271417
0.273111
0.270417
0.267652
0.264764
0.261703
0.261228
0.26422
0.264715
0.272917
0.271224
0.288994
0.287604
0.310771
0.308427
-8.83767e-12
-4.0285e-13
-7.08534e-12
-1.12557e-11
-2.38849e-11
-4.3339e-11
-7.96912e-11
-1.40941e-10
-2.4405e-10
-4.10534e-10
-6.70298e-10
-1.06045e-09
-1.62207e-09
-2.37005e-09
-3.31136e-09
-4.33449e-09
-5.18402e-09
-5.35733e-09
-3.65435e-09
1.93009e-09
1.43374e-08
4.14417e-08
8.27523e-08
1.60177e-07
3.10815e-07
4.31295e-07
8.74954e-07
1.1392e-06
2.02386e-06
2.62351e-06
4.30746e-06
6.68244e-06
6.26608e-06
1.29351e-05
1.57758e-05
1.82624e-05
1.95486e-05
4.2622e-05
3.45536e-05
4.16344e-05
5.71597e-05
5.7639e-05
6.40579e-05
0.000111686
0.000104141
0.000101996
0.000155867
0.000187241
0.000143621
0.000188613
0.000302789
0.000295856
0.000317204
0.000318751
0.000550565
0.000397929
0.000438598
0.000663137
0.000638502
0.000497047
0.000471623
0.000294609
0.00108677
-0.000910612
-0.0136959
-0.154617
-0.689404
-0.822628
-0.820686
-0.746999
-0.530478
-0.0983701
0.210432
0.38361
0.446126
0.492132
0.527439
0.54262
0.550425
0.562982
0.56344
0.562765
0.553205
0.544444
0.528239
0.508914
0.484835
0.465533
0.444813
0.428882
0.409214
0.387431
0.37398
0.36362
0.353516
0.342014
0.330904
0.32186
0.31246
0.303442
0.297738
0.293864
0.28952
0.289053
0.28835
0.290978
0.288747
0.286812
0.283177
0.279646
0.27823
0.281716
0.282903
0.290687
0.289852
0.307711
0.30787
0.332017
0.326897
-9.05462e-12
-2.79324e-13
-7.05674e-12
-1.0951e-11
-2.30864e-11
-4.14934e-11
-7.6112e-11
-1.34605e-10
-2.32835e-10
-3.90502e-10
-6.36991e-10
-1.00464e-09
-1.52487e-09
-2.23984e-09
-3.11415e-09
-4.07713e-09
-4.91351e-09
-4.72606e-09
-3.24729e-09
2.59618e-09
1.35779e-08
3.76156e-08
7.61401e-08
1.79161e-07
2.3836e-07
5.54894e-07
7.36104e-07
1.25618e-06
2.14403e-06
2.64492e-06
4.73878e-06
5.10254e-06
1.05615e-05
7.14357e-06
1.86575e-05
1.81825e-05
2.68902e-05
2.33041e-05
5.21616e-05
4.39979e-05
5.53229e-05
6.72281e-05
8.32664e-05
8.04591e-05
0.000118507
0.000126523
0.000113132
0.000161887
0.000210016
0.000171178
0.000202122
0.000305553
0.000303934
0.000283232
0.000371884
0.000553696
0.000629801
0.000278337
0.000869638
0.00034109
0.0010615
0.000171796
0.00224616
-0.00113181
-0.0214105
-0.27045
-0.775644
-0.814267
-0.787684
-0.659322
-0.331046
0.0898576
0.316259
0.437389
0.48104
0.5098
0.536733
0.558035
0.576536
0.581941
0.579758
0.575601
0.571793
0.565651
0.551733
0.531882
0.508839
0.48842
0.467399
0.452389
0.431052
0.412384
0.400571
0.388977
0.376579
0.365333
0.354148
0.344446
0.33429
0.32482
0.317548
0.312352
0.306891
0.306046
0.304921
0.308014
0.305902
0.3048
0.300661
0.296814
0.294132
0.298094
0.30001
0.307805
0.308511
0.326892
0.327889
0.350574
0.344171
-9.28751e-12
-2.03649e-12
-1.0436e-11
-1.78888e-11
-3.69384e-11
-6.8161e-11
-1.26077e-10
-2.25629e-10
-3.94743e-10
-6.72787e-10
-1.116e-09
-1.7995e-09
-2.81727e-09
-4.26694e-09
-6.24002e-09
-8.74938e-09
-1.159e-08
-1.48733e-08
-1.65641e-08
-1.67954e-08
-9.81408e-09
6.58624e-09
5.02689e-08
7.88012e-08
2.44907e-07
3.57596e-07
6.70368e-07
1.1296e-06
1.47533e-06
2.99471e-06
2.61236e-06
6.12577e-06
6.09253e-06
1.10178e-05
9.66321e-06
2.04433e-05
2.21192e-05
1.96621e-05
2.89596e-05
5.96688e-05
3.70572e-05
4.06239e-05
5.83245e-05
8.16496e-05
8.87227e-05
0.000117615
0.000132816
9.87562e-05
0.000151585
0.000262262
0.000207186
0.000159912
0.000345492
0.000323694
0.000264184
0.00026833
0.000522061
0.000384929
0.000574768
0.000727277
0.00132237
0.000624689
0.00145927
-0.00533625
-0.0487894
-0.429706
-0.804543
-0.805057
-0.728104
-0.514374
-0.0801151
0.223249
0.385897
0.475068
0.520154
0.539933
0.557317
0.578106
0.597989
0.599861
0.594131
0.594196
0.593335
0.589481
0.573684
0.55605
0.534117
0.512596
0.490944
0.473638
0.450094
0.434191
0.422704
0.410001
0.398333
0.388123
0.377502
0.367081
0.356584
0.346986
0.338231
0.330906
0.324797
0.323035
0.321233
0.323948
0.322151
0.322212
0.317763
0.313784
0.309792
0.313481
0.31555
0.323862
0.326868
0.344657
0.346449
0.366133
0.359443
-9.65666e-12
-2.29047e-12
-1.10936e-11
-1.88575e-11
-3.83861e-11
-7.02547e-11
-1.29294e-10
-2.30693e-10
-4.03062e-10
-6.85146e-10
-1.13552e-09
-1.82918e-09
-2.85654e-09
-4.33481e-09
-6.33564e-09
-8.8885e-09
-1.20763e-08
-1.50237e-08
-1.78882e-08
-1.91314e-08
-1.49588e-08
-1.87328e-09
1.05667e-08
9.09044e-08
1.72551e-07
2.66361e-07
7.16227e-07
6.56703e-07
1.85188e-06
1.54701e-06
3.95308e-06
3.87587e-06
7.02077e-06
8.22273e-06
1.22848e-05
1.75802e-05
1.56007e-05
2.70139e-05
2.69302e-05
5.08601e-05
4.95993e-05
3.33795e-05
5.00913e-05
9.19784e-05
8.70626e-05
0.000103072
0.000104307
9.84094e-05
0.00012654
0.000180421
0.000181784
0.000177478
0.000267449
0.000331918
0.000284304
0.000346693
0.000602741
0.000443572
0.00058781
0.000303755
0.000561709
0.000662244
-0.000186085
-0.00943191
-0.101804
-0.593696
-0.786752
-0.768019
-0.623438
-0.284977
0.120364
0.336379
0.435736
0.497041
0.540112
0.564604
0.57669
0.594261
0.609791
0.613006
0.611825
0.614914
0.612467
0.607975
0.592434
0.578319
0.558301
0.537889
0.516868
0.496942
0.472019
0.457178
0.443401
0.430119
0.419951
0.4103
0.399731
0.389172
0.378091
0.368814
0.358372
0.349254
0.342238
0.339229
0.336668
0.339103
0.337821
0.339189
0.334395
0.330608
0.325543
0.328162
0.330406
0.339526
0.344267
0.361585
0.363851
0.380384
0.373234
-9.98983e-12
-3.91765e-12
-1.43138e-11
-2.56662e-11
-5.22708e-11
-9.75944e-11
-1.81215e-10
-3.26526e-10
-5.75445e-10
-9.88889e-10
-1.65603e-09
-2.69919e-09
-4.28287e-09
-6.59406e-09
-9.83504e-09
-1.42931e-08
-1.97569e-08
-2.69915e-08
-3.45531e-08
-3.98294e-08
-4.67178e-08
-4.2825e-08
-2.25177e-08
1.77909e-08
2.98131e-08
2.84923e-07
1.83167e-07
8.57988e-07
7.84429e-07
1.77595e-06
2.65142e-06
3.2505e-06
5.72947e-06
5.07275e-06
1.20577e-05
8.45528e-06
1.75192e-05
1.10097e-05
3.04527e-05
2.40992e-05
4.4076e-05
2.13953e-05
4.53976e-05
6.05561e-05
8.8507e-05
8.44469e-05
8.33401e-05
9.54355e-05
0.000109759
0.000108894
0.000162412
0.000177993
0.000162719
0.00017985
0.000200146
0.000216306
0.000267085
0.000528783
2.6287e-05
0.000472154
-0.000269746
0.000968317
-0.00105893
-0.015303
-0.179699
-0.688249
-0.774536
-0.70418
-0.448697
-0.0195788
0.285522
0.395628
0.472716
0.528325
0.562946
0.583973
0.595472
0.608905
0.619801
0.629569
0.632566
0.636704
0.630065
0.626352
0.612596
0.60225
0.581496
0.561747
0.540882
0.519273
0.495112
0.479258
0.462851
0.450587
0.441031
0.431708
0.420984
0.410956
0.399082
0.389047
0.377307
0.366947
0.359179
0.354919
0.351564
0.353511
0.352595
0.356199
0.351042
0.347779
0.341452
0.342781
0.34443
0.354485
0.360752
0.377476
0.379743
0.393293
0.385919
-1.03135e-11
-4.64014e-12
-1.57382e-11
-2.7878e-11
-5.58882e-11
-1.03246e-10
-1.90408e-10
-3.41464e-10
-6.00071e-10
-1.02848e-09
-1.71954e-09
-2.80004e-09
-4.43605e-09
-6.83875e-09
-1.0244e-08
-1.48422e-08
-2.09987e-08
-2.84402e-08
-3.61667e-08
-4.94903e-08
-5.37365e-08
-6.40141e-08
-5.64351e-08
-7.75652e-08
5.77956e-08
-4.85146e-08
2.79159e-07
3.51958e-07
5.94566e-07
1.50942e-06
8.21252e-07
3.9213e-06
9.0261e-07
7.7448e-06
2.15368e-06
1.09033e-05
5.62028e-06
1.9196e-05
8.51198e-06
1.58382e-05
2.33651e-05
4.30383e-05
6.89247e-06
3.67335e-05
5.7233e-05
3.4001e-05
4.55339e-05
0.000105431
7.04491e-05
0.000107273
0.000156126
0.000148999
7.07263e-05
0.000184941
0.000105998
0.000126351
-6.28117e-05
0.000370458
-4.24898e-05
0.000481936
5.30562e-05
0.00181095
-0.00273725
-0.0288629
-0.321199
-0.750736
-0.72682
-0.577179
-0.201555
0.176727
0.385365
0.444107
0.499659
0.550014
0.575798
0.599082
0.613471
0.624447
0.635213
0.647114
0.653546
0.652194
0.645258
0.643412
0.632538
0.624648
0.604737
0.585929
0.564738
0.54153
0.518582
0.501
0.482313
0.470598
0.460627
0.450927
0.439989
0.430595
0.41892
0.408644
0.395954
0.384997
0.376448
0.370762
0.366123
0.36751
0.367307
0.373265
0.367521
0.364673
0.357264
0.357125
0.357781
0.368356
0.376473
0.391758
0.394953
0.406039
0.39801
-1.07584e-11
-6.18373e-12
-1.87264e-11
-3.45014e-11
-6.97188e-11
-1.31406e-10
-2.4507e-10
-4.44337e-10
-7.87844e-10
-1.36282e-09
-2.29816e-09
-3.77662e-09
-6.0485e-09
-9.41437e-09
-1.42423e-08
-2.10924e-08
-3.01115e-08
-4.18224e-08
-5.81358e-08
-7.00182e-08
-9.45509e-08
-1.04148e-07
-1.39507e-07
-9.88874e-08
-1.84563e-07
-6.22254e-08
-1.32423e-08
-1.24137e-07
5.81394e-07
-3.79324e-07
1.53048e-06
-1.9138e-07
2.59297e-06
3.61654e-07
4.35291e-06
3.18491e-06
3.58134e-06
8.75071e-06
8.14311e-06
3.27455e-06
8.51734e-06
2.84627e-05
1.07116e-05
4.08102e-06
2.9626e-05
3.31926e-05
8.83434e-06
3.65501e-05
6.94799e-05
4.12868e-05
6.96855e-05
9.27352e-05
1.53049e-05
4.87954e-05
0.000139984
0.00011201
3.80352e-05
0.000316435
9.93923e-05
0.000638224
4.65293e-05
0.000231056
-0.00890676
-0.0700032
-0.466127
-0.707533
-0.645174
-0.359468
0.026894
0.309791
0.449359
0.487144
0.528941
0.566021
0.599113
0.615343
0.626013
0.6378
0.651296
0.666152
0.66764
0.664871
0.659498
0.662581
0.651462
0.645145
0.625414
0.608646
0.587135
0.563413
0.541519
0.52154
0.501696
0.490324
0.479236
0.468905
0.458255
0.449738
0.438644
0.428509
0.414806
0.403292
0.393303
0.386288
0.380529
0.381258
0.381452
0.388608
0.383387
0.381651
0.373336
0.371829
0.370928
0.381657
0.390897
0.405638
0.409637
0.417897
0.409915
-1.12196e-11
-7.4541e-12
-2.10709e-11
-3.81966e-11
-7.57531e-11
-1.40885e-10
-2.60297e-10
-4.68976e-10
-8.28076e-10
-1.42744e-09
-2.39965e-09
-3.939e-09
-6.30467e-09
-9.85893e-09
-1.50051e-08
-2.21845e-08
-3.19335e-08
-4.53221e-08
-5.97387e-08
-8.52521e-08
-1.06725e-07
-1.3936e-07
-1.61715e-07
-2.15718e-07
-2.34788e-07
-2.01431e-07
-4.48447e-07
-4.78136e-08
-7.33468e-07
8.08367e-08
-5.89418e-07
-2.95909e-07
4.6617e-07
-1.36756e-06
2.53791e-06
-3.25711e-06
3.19468e-06
-7.31184e-06
9.18086e-06
3.63966e-06
-8.04198e-06
-1.76317e-05
2.31285e-05
-6.34096e-06
-7.13295e-06
1.9064e-05
1.42913e-06
-2.59883e-05
2.03568e-06
-1.18693e-05
-3.77948e-05
2.82802e-05
-1.18246e-05
-2.85159e-05
-4.52235e-05
-7.31831e-05
-0.000168259
-0.000371438
9.89063e-06
-0.000865633
0.000337013
-0.00141959
-0.0127357
-0.14194
-0.579098
-0.652369
-0.489183
-0.0747763
0.215626
0.407038
0.494244
0.512145
0.544496
0.586787
0.620659
0.631895
0.636724
0.651016
0.669321
0.682844
0.682818
0.679249
0.677301
0.681316
0.670979
0.66412
0.64485
0.63036
0.608288
0.58522
0.564292
0.542262
0.52233
0.511073
0.498197
0.486889
0.476284
0.468274
0.457866
0.4479
0.43382
0.421867
0.410209
0.402117
0.395552
0.395448
0.395271
0.402282
0.398342
0.3978
0.38885
0.386157
0.383757
0.394645
0.404848
0.41842
0.422836
0.429526
0.42162
-1.17782e-11
-8.71217e-12
-2.37185e-11
-4.41216e-11
-8.92051e-11
-1.69484e-10
-3.17948e-10
-5.80136e-10
-1.03466e-09
-1.80017e-09
-3.05733e-09
-5.05978e-09
-8.16667e-09
-1.28212e-08
-1.96265e-08
-2.93691e-08
-4.29836e-08
-6.03262e-08
-8.62387e-08
-1.11865e-07
-1.4886e-07
-1.90179e-07
-2.42723e-07
-3.12193e-07
-3.22682e-07
-5.61343e-07
-4.34019e-07
-8.08941e-07
-7.72346e-07
-8.23111e-07
-1.7618e-06
-7.95065e-07
-3.80404e-06
1.35325e-07
-7.81572e-06
-1.91361e-06
-8.67892e-06
-4.56666e-06
-1.8117e-05
2.46619e-06
-1.5521e-05
-3.12511e-05
-2.1195e-05
1.012e-06
-3.46182e-05
-2.19251e-05
-1.78553e-05
-6.05447e-05
-7.09403e-05
-5.01143e-05
-8.52548e-05
-8.90077e-05
-3.67606e-06
-0.000149627
-8.41663e-06
-0.00020991
-7.80005e-05
-0.000332354
2.85814e-05
-0.000783968
0.000847381
-0.00318925
-0.0229852
-0.258678
-0.620277
-0.54942
-0.255906
0.132734
0.30905
0.46199
0.539545
0.546973
0.56462
0.603783
0.639787
0.648063
0.649773
0.664173
0.683712
0.697566
0.693672
0.693301
0.693195
0.698353
0.687812
0.681303
0.662912
0.651198
0.628285
0.607768
0.58655
0.563331
0.543696
0.531217
0.516288
0.503854
0.493402
0.485636
0.475495
0.466197
0.451928
0.439901
0.42687
0.418115
0.410636
0.409452
0.407965
0.414569
0.411685
0.413331
0.404151
0.400867
0.396853
0.408919
0.418499
0.429062
0.435278
0.440445
0.433133
-1.24909e-11
-1.04399e-11
-2.694e-11
-4.99747e-11
-9.83297e-11
-1.83668e-10
-3.40799e-10
-6.16039e-10
-1.09172e-09
-1.89292e-09
-3.20433e-09
-5.29894e-09
-8.55123e-09
-1.35057e-08
-2.07809e-08
-3.1211e-08
-4.54235e-08
-6.58193e-08
-9.03274e-08
-1.24902e-07
-1.76882e-07
-2.19582e-07
-3.12874e-07
-3.637e-07
-5.3389e-07
-6.03176e-07
-7.90101e-07
-1.11159e-06
-1.07026e-06
-2.24811e-06
-1.50078e-06
-4.00057e-06
-2.88152e-06
-5.86088e-06
-5.97908e-06
-8.44195e-06
-1.004e-05
-1.0776e-05
-2.25779e-05
-1.82697e-05
-1.14736e-05
-3.48689e-05
-5.81539e-05
-3.52132e-05
-4.56633e-05
-6.03824e-05
-5.01813e-05
-8.76131e-05
-0.000114333
-0.000104368
-0.000107706
-0.000159278
-0.000132754
-0.000175411
-0.000186176
-0.000312287
-0.000100838
-0.000439154
-0.00016524
-0.000837683
-0.000947296
-0.0085439
-0.0609022
-0.374239
-0.539719
-0.360352
0.0270025
0.283831
0.395465
0.50706
0.568555
0.574446
0.584163
0.617595
0.651749
0.663402
0.664193
0.678119
0.697499
0.710532
0.705817
0.710406
0.71053
0.716008
0.705378
0.699904
0.682514
0.672347
0.649528
0.631112
0.609075
0.585056
0.56508
0.550433
0.534208
0.520623
0.51009
0.501931
0.491996
0.483198
0.469398
0.458036
0.443936
0.434747
0.4261
0.423518
0.420099
0.426175
0.423865
0.428975
0.418689
0.415193
0.409424
0.423463
0.42837
0.440301
0.448915
0.450398
0.443286
-1.30336e-11
-1.15855e-11
-2.927e-11
-5.52625e-11
-1.10589e-10
-2.12186e-10
-4.00199e-10
-7.35557e-10
-1.32049e-09
-2.31153e-09
-3.95281e-09
-6.58893e-09
-1.0709e-08
-1.69421e-08
-2.62093e-08
-3.95112e-08
-5.86332e-08
-8.382e-08
-1.18507e-07
-1.65804e-07
-2.12141e-07
-2.96998e-07
-3.7022e-07
-5.04856e-07
-6.30025e-07
-7.87719e-07
-1.13971e-06
-1.25593e-06
-1.99088e-06
-2.11699e-06
-3.29054e-06
-3.94705e-06
-4.91759e-06
-8.04423e-06
-6.28094e-06
-1.42358e-05
-1.29946e-05
-2.11306e-05
-1.92631e-05
-3.47222e-05
-2.26121e-05
-3.74246e-05
-6.56048e-05
-6.50975e-05
-6.2419e-05
-9.49534e-05
-6.87069e-05
-8.07633e-05
-0.000161257
-0.000149047
-0.00012814
-0.000153313
-0.000216884
-0.000190518
-0.000410626
-0.000112528
-0.000496642
0.000189035
-0.00048094
0.000229639