/*--------------------------------*- C++ -*----------------------------------*\
| =========                 |                                                 |
| \\      /  F ield         | OpenFOAM: The Open Source CFD Toolbox           |
|  \\    /   O peration     | Version:  2.2.x                                 |
|   \\  /    A nd           | Web:      www.OpenFOAM.org                      |
|    \\/     M anipulation  |                                                 |
\*---------------------------------------------------------------------------*/
FoamFile
{
    version     2.0;
    format      ascii;
    class       volScalarField;
    location    "0.9";
    object      Bz;
}
// * * * * * * * * * * * * * * * * * * * * * * * * * * * * * * * * * * * * * //

dimensions      [1 0 -2 0 0 -1 0];

internalField   nonuniform List<scalar> 
14161
(
-2.84704e-17
-2.42596e-17
2.08498e-17
1.14277e-18
1.37908e-17
1.76845e-16
-5.1627e-16
1.28106e-15
-2.32813e-15
3.51088e-15
-4.22072e-15
4.53066e-15
-5.06596e-15
9.32831e-15
-2.2344e-14
4.87225e-14
-9.25992e-14
1.5632e-13
-2.48124e-13
3.36815e-13
-4.65324e-13
6.3139e-13
-9.67959e-13
1.44933e-12
-2.11045e-12
2.09252e-12
-1.14249e-13
-2.03326e-12
8.23498e-13
4.89949e-12
-1.44603e-12
-2.15828e-11
9.10539e-11
-3.37516e-10
5.13151e-10
-2.28641e-10
7.09407e-10
-3.26663e-09
7.5134e-09
-1.4121e-08
2.43681e-08
-5.40954e-08
1.03379e-07
-1.57291e-07
3.48611e-07
-7.06374e-07
1.09462e-06
-1.98544e-06
2.80184e-06
-3.44065e-06
1.10166e-05
-6.44282e-05
-0.000153668
-0.000141155
-0.000136007
-8.69112e-05
6.34072e-05
-0.00095098
-0.000278938
0.00290583
0.000121529
-0.00531208
-0.00307252
0.00529026
0.00722094
4.78947e-05
-0.00792407
-0.00698855
0.00110831
0.00726694
0.00622428
0.000233105
-0.00577422
-0.00493532
-0.000390238
0.00350122
0.00428457
0.00335284
0.0009918
-0.00323837
-0.00638891
-0.00453449
0.000805023
0.00512665
0.00596994
0.00253673
-0.00284174
-0.00529088
-0.00315215
0.00147307
0.0050233
0.00410418
3.11787e-05
-0.00330669
-0.00424537
-0.00265264
0.00271417
0.00513428
0.00335491
-0.000485859
-0.00403231
-0.00201389
0.00202228
0.000136964
-0.000484509
0.000246753
0.000128402
-0.00014814
-0.000208948
-0.000300739
-0.0001656
3.79793e-05
0.00010773
9.01937e-05
-1.69424e-05
-5.44627e-05
-2.73901e-05
2.5731e-05
2.91021e-05
-2.89667e-17
-2.44836e-17
2.1281e-17
1.39416e-19
1.95682e-17
1.64861e-16
-4.90124e-16
1.23502e-15
-2.25526e-15
3.4035e-15
-4.11554e-15
4.55879e-15
-5.25522e-15
9.59092e-15
-2.29818e-14
5.04746e-14
-9.59648e-14
1.62742e-13
-2.57375e-13
3.74651e-13
-5.12824e-13
6.95096e-13
-1.00774e-12
1.56933e-12
-2.26704e-12
2.29403e-12
-5.24409e-13
-1.28129e-12
7.97877e-13
4.26817e-12
-3.33751e-12
-1.05442e-11
8.87789e-11
-3.03252e-10
4.48176e-10
-1.74268e-10
7.22728e-10
-1.99314e-09
2.98745e-09
-5.41264e-09
8.83625e-09
-2.23062e-08
4.64688e-08
-6.42419e-08
1.22246e-07
-2.66977e-07
3.75158e-07
-5.33742e-07
7.5993e-07
-6.97468e-07
3.20909e-06
-5.42481e-05
-0.000130709
-0.000126984
-9.71863e-05
-0.000132097
-7.34757e-05
0.000115463
-0.000302976
-0.000332737
0.000152789
-0.000349125
-0.00056337
0.00157212
0.00253959
-0.00148084
-0.00502361
-0.00185246
0.00427683
0.00533015
0.000832697
-0.0047951
-0.00491054
-0.00101499
0.00264824
0.00213604
0.00011451
-0.000640724
0.000199764
4.69262e-05
-0.00228099
-0.00234964
-0.000103701
0.00276366
0.00415859
0.00154365
-0.0025654
-0.00437525
-0.00209282
0.00196143
0.00458245
0.00245486
-0.000322273
-0.00347901
-0.00358317
-0.000794978
0.00260234
0.00408313
0.00245997
-0.00146981
-0.00402181
0.000672511
0.00152897
-0.00074634
-0.000172572
0.000351099
3.29799e-06
-0.000220478
-0.000258189
-0.000316187
-0.000110023
7.6995e-05
0.000114223
6.8964e-05
-3.86118e-05
-5.31567e-05
-1.51039e-05
2.69143e-05
2.86194e-05
-2.89909e-17
-2.42015e-17
2.27003e-17
-2.1465e-18
3.42524e-17
1.34093e-16
-4.22726e-16
1.11102e-15
-2.02641e-15
3.06156e-15
-3.69359e-15
4.2883e-15
-5.16756e-15
9.15889e-15
-2.26331e-14
5.11987e-14
-9.76332e-14
1.66162e-13
-2.78691e-13
4.90817e-13
-5.87261e-13
8.83791e-13
-1.18375e-12
1.70671e-12
-2.45208e-12
2.82373e-12
-1.96266e-12
3.84065e-13
-7.21937e-13
3.8476e-12
-4.97452e-12
2.86264e-12
1.65761e-11
-7.11394e-11
6.8101e-11
-1.73654e-12
3.51601e-11
3.74196e-10
-8.00023e-10
2.5631e-10
7.46282e-10
-4.07514e-09
1.31282e-08
-2.40605e-08
3.30627e-08
-5.58372e-08
5.33042e-08
1.09805e-08
-9.32456e-08
4.96362e-07
-1.4648e-06
-4.28649e-05
-0.0001233
-0.000115045
-0.000158227
4.43649e-05
-2.76959e-05
-0.000583948
-0.000180842
0.000915666
0.000616523
-0.00145348
-0.00234299
0.000789812
0.00421951
0.001652
-0.00393414
-0.00403308
0.00105499
0.00421346
0.0022746
-0.00250986
-0.00384702
-0.000761567
0.00204317
0.001901
0.000182096
-0.000732361
0.000286186
0.000802437
-0.00103152
-0.00186102
-0.000544762
0.00192824
0.0032787
0.00116907
-0.00215664
-0.00329106
-0.0020215
0.00111657
0.00375246
0.00204461
-0.000954837
-0.0023957
-0.00211648
-0.00022598
0.0019316
0.00294985
0.00117497
-0.00355598
-0.00132701
0.00253938
-0.000231777
-0.000914869
0.000235609
0.00030792
-0.000133887
-0.000259029
-0.000276256
-0.000298853
-5.08944e-05
0.00010006
0.000109205
4.77236e-05
-5.86868e-05
-4.7312e-05
-2.92685e-06
2.71829e-05
2.76667e-05
-2.81483e-17
-2.16272e-17
2.89659e-17
-4.00334e-18
6.50171e-17
6.90498e-17
-2.34276e-16
6.74095e-16
-1.2456e-15
1.92712e-15
-2.03008e-15
1.93882e-15
-1.52221e-15
4.22105e-15
-1.58592e-14
3.82203e-14
-7.61581e-14
1.20103e-13
-2.00159e-13
4.13571e-13
-6.12793e-13
8.70837e-13
-1.13665e-12
1.55549e-12
-2.49689e-12
2.90893e-12
-2.74458e-12
2.21619e-12
-2.33591e-12
4.0585e-12
-7.61858e-12
1.29537e-11
-1.1905e-11
2.50816e-12
-2.18867e-12
-5.98113e-12
-1.65291e-11
6.07421e-11
-1.69926e-10
3.08456e-10
-2.75009e-10
2.74941e-10
-7.70681e-10
2.09103e-09
-7.59459e-09
2.08247e-08
-4.28314e-08
8.43819e-08
-1.73269e-07
3.92823e-07
-2.58868e-06
-2.71586e-05
-0.000114968
-6.15344e-05
-0.000224946
-0.000123783
0.000308564
-2.18516e-05
-0.000807579
-0.000663797
0.00134775
0.00171208
-0.001223
-0.00278837
0.000213823
0.0032057
0.00145228
-0.00186435
-0.00241148
-0.000125036
0.00216109
0.00191166
-0.000167989
-0.00170453
-0.00133011
-1.47816e-05
0.00117211
0.00122755
0.000956637
0.000176409
-0.00108408
-0.00140457
-0.000140125
0.00105848
0.00144321
0.000579441
-0.000854556
-0.00187774
-0.00116788
0.000723731
0.00233322
0.000789557
-0.000659618
-0.0013066
-0.00115389
0.000270231
0.00182851
0.00183623
-0.00194248
-0.00160878
0.0016467
0.000370905
-0.000948026
-3.14171e-05
0.000422141
1.29917e-05
-0.000290342
-0.000267446
-0.000286051
-0.000222833
5.17356e-05
0.000116435
9.11757e-05
1.06217e-05
-7.74847e-05
-3.66211e-05
8.20916e-06
2.64575e-05
2.61321e-05
-1.81291e-17
-1.2593e-17
3.85441e-17
-2.13664e-18
1.0099e-16
-1.6954e-17
1.36029e-17
1.34313e-16
-1.68321e-16
2.53875e-17
1.16548e-15
-3.25029e-15
5.8864e-15
-7.23136e-15
6.9147e-15
-8.53591e-16
-2.45463e-15
-2.26274e-14
-4.49674e-14
1.2718e-13
-3.42744e-13
2.39325e-13
-4.05714e-13
5.07258e-13
-4.96097e-13
8.10905e-13
-1.56589e-12
1.58167e-12
-1.26351e-12
2.89828e-12
-6.05367e-12
8.57963e-12
-8.9779e-12
9.82933e-12
-1.33214e-11
1.56068e-11
-1.35885e-11
3.08929e-11
-5.09818e-11
5.93129e-11
-9.72232e-11
1.291e-10
-1.6564e-10
9.8861e-11
-5.5481e-10
2.6676e-09
-7.35085e-09
1.00488e-08
-3.33139e-09
1.71828e-09
-2.38383e-06
-2.09733e-05
-9.58301e-05
-4.24713e-05
-0.000233718
-1.4601e-05
0.000270309
-0.000274711
-0.000663407
0.000240493
0.00109903
-0.000686838
-0.00238785
0.000404465
0.00422882
0.00233392
-0.00305062
-0.00474581
-0.00110072
0.00310894
0.00377695
0.000937047
-0.00168187
-0.00256912
-0.00175186
-0.000107524
0.00145975
0.00169581
0.000884213
-0.000149618
-0.00126523
-0.00178879
-0.000554643
0.000973246
0.00177914
0.00108475
6.1425e-05
-0.00124654
-0.000885314
0.000101883
0.000702188
0.000414956
-9.07824e-05
-0.00066478
-0.00045234
0.000672033
0.00150199
-0.000939121
-0.00117828
0.000848654
0.000398337
-0.000499352
-0.000236416
0.000400937
0.000139973
-0.000234275
-0.000297686
-0.000229337
-0.000258793
-9.46669e-05
0.000128197
0.000101693
5.98285e-05
-2.78993e-05
-8.28548e-05
-2.24391e-05
1.62282e-05
2.59962e-05
2.53482e-05
6.30285e-18
8.61123e-18
6.36834e-17
5.27622e-18
1.5766e-16
-1.64793e-16
5.11288e-16
-9.00608e-16
2.04975e-15
-4.31462e-15
8.81962e-15
-1.54787e-14
2.58174e-14
-3.90512e-14
5.5966e-14
-9.83851e-14
1.52828e-13
-2.07673e-13
2.47985e-13
-2.92859e-13
3.77851e-13
-3.9373e-13
9.54476e-13
-1.60582e-12
2.16347e-12
-3.25832e-12
3.36999e-12
-3.0167e-12
3.26852e-12
-1.01639e-12
2.29563e-13
1.70675e-12
-1.54597e-12
2.18888e-12
-3.79886e-12
-8.81075e-13
1.18842e-11
7.29796e-12
-1.84456e-11
-2.72931e-12
1.25502e-10
-2.61135e-10
6.05116e-10
-8.48124e-10
2.13327e-09
-4.5022e-09
6.54499e-09
-1.55702e-08
3.07829e-08
-4.92145e-08
-2.04275e-06
-1.7403e-05
-7.3397e-05
0.000104605
-0.000341205
-0.0008338
0.000737808
0.00227612
-0.000948148
-0.00525837
0.00153993
0.00780865
-0.000587375
-0.0095892
-0.00530688
0.00775497
0.0110291
0.00327501
-0.0088304
-0.0102303
-0.00404396
0.0064735
0.00879591
0.00495511
-0.00374801
-0.00829087
-0.00616105
0.00181103
0.00563982
0.00563217
0.0020876
-0.00352206
-0.00540185
-0.00154199
0.00164871
0.00275275
0.00229138
-5.57091e-05
-0.000885263
-0.000707842
-0.000239263
0.000176429
0.000108347
-0.00025412
4.02057e-05
0.000802289
-0.000363483
-0.00076434
0.000413192
0.00021953
-0.000238793
-0.000116441
0.000250044
0.000246938
-0.000189374
-0.000262851
-0.000223698
-0.000194557
-0.000186045
3.93366e-05
0.000147185
6.91868e-05
2.46678e-05
-6.04088e-05
-7.69011e-05
-4.94304e-06
2.19326e-05
2.60491e-05
2.53025e-05
4.28319e-17
4.41932e-17
1.03514e-16
1.75355e-17
2.41923e-16
-3.22166e-16
9.86523e-16
-1.96252e-15
4.43459e-15
-9.00377e-15
1.71686e-14
-3.01862e-14
5.18689e-14
-8.37931e-14
1.35125e-13
-2.02121e-13
2.91857e-13
-4.01049e-13
6.04578e-13
-8.33327e-13
1.16299e-12
-1.66893e-12
3.16713e-12
-5.05321e-12
7.11679e-12
-9.34097e-12
1.06208e-11
-1.09455e-11
1.15481e-11
-9.2446e-12
7.78421e-12
-7.19772e-12
6.85262e-12
-5.41483e-12
3.38383e-12
-1.47957e-11
3.34204e-11
3.23648e-11
-1.18939e-10
1.09827e-10
3.21707e-10
-5.98178e-10
7.40946e-10
-1.62928e-10
-2.49666e-09
1.60529e-09
1.44393e-09
9.38361e-10
-5.73792e-09
2.93979e-08
-1.4807e-06
-1.50766e-05
-4.75936e-05
0.000198991
0.000657664
-0.00151909
-0.00185402
0.000552563
0.00356441
-0.00073377
-0.00274553
0.00230047
0.00404001
-0.00416493
-0.00893057
-0.000862248
0.0107894
0.0108826
0.000392236
-0.0100448
-0.0113579
-0.00428592
0.00809375
0.00953715
0.00541478
-0.00466588
-0.00887996
-0.00535071
0.00298901
0.00679133
0.00499826
0.000252546
-0.0043555
-0.00467187
-0.00136111
0.00183081
0.00260706
0.00167621
-7.03173e-05
-0.00114082
-0.000726178
7.6329e-05
0.000213381
1.53326e-05
0.000233227
-7.1021e-05
-0.000425265
4.42829e-05
0.000131359
-0.000153405
5.51057e-05
0.000177849
0.000268678
-0.000105363
-0.000253927
-0.000162587
-0.000171819
-0.000156371
-7.95304e-05
0.000129846
0.000119239
3.57827e-05
-9.58193e-06
-8.18508e-05
-5.9869e-05
1.121e-05
2.50895e-05
2.64931e-05
2.57987e-05
1.04278e-16
9.71073e-17
1.67571e-16
2.51424e-17
3.76166e-16
-4.91664e-16
1.33813e-15
-2.54368e-15
5.56294e-15
-1.10212e-14
2.18239e-14
-3.999e-14
6.81828e-14
-1.08255e-13
1.74059e-13
-2.67622e-13
3.78078e-13
-5.38156e-13
8.08566e-13
-1.21281e-12
2.02806e-12
-3.70708e-12
5.63485e-12
-8.13835e-12
1.13201e-11
-1.4021e-11
1.76052e-11
-2.15812e-11
2.34529e-11
-2.61105e-11
2.51367e-11
-2.05762e-11
1.3942e-11
-4.32241e-14
-1.69666e-11
1.45068e-11
-4.46772e-12
1.8762e-10
-6.96826e-10
8.02862e-10
-1.05864e-10
-1.93933e-09
3.13624e-09
-8.54934e-10
-2.12861e-08
3.50877e-08
-1.16851e-08
7.74712e-09
1.25872e-10
-7.12809e-08
-5.17395e-07
-1.0285e-05
-3.75769e-05
-0.00045389
0.00151702
0.00151765
-0.00169459
-0.00278017
-0.000278294
-0.00342825
0.000154104
0.00975059
0.0091604
-0.00497379
-0.0168638
-0.0126522
0.00726238
0.0181052
0.0145325
-0.00267406
-0.0147089
-0.014031
-0.0038608
0.0100148
0.0106666
0.00474556
-0.00560927
-0.00726838
-0.00286041
0.0036453
0.00496144
0.00307523
-0.00143232
-0.00507887
-0.00396398
-0.000543119
0.00273505
0.00260559
5.62888e-05
-0.00139803
-0.000613754
0.000400788
0.000204437
3.49228e-05
7.24023e-05
-0.000205725
-0.000178899
2.97299e-05
3.4942e-06
0.000105172
0.000210504
0.000187673
1.61501e-05
-0.000247163
-0.000103405
-0.000114973
-0.000140723
-9.84525e-05
2.64865e-05
0.000159188
6.92948e-05
8.79483e-06
-4.1557e-05
-9.01008e-05
-3.55593e-05
2.38971e-05
2.58404e-05
2.6856e-05
2.63129e-05
1.478e-16
1.38377e-16
2.08627e-16
6.24956e-17
3.92847e-16
-4.33711e-16
1.30382e-15
-2.42931e-15
5.27633e-15
-1.02298e-14
1.99915e-14
-3.57426e-14
6.03152e-14
-9.83984e-14
1.58467e-13
-2.45499e-13
3.44378e-13
-4.5845e-13
6.69748e-13
-9.08887e-13
1.34274e-12
-2.35372e-12
3.72296e-12
-6.54745e-12
1.03303e-11
-1.45468e-11
2.10901e-11
-2.57667e-11
2.96537e-11
-3.89178e-11
4.02893e-11
-3.09571e-11
2.3086e-11
-3.59708e-12
-2.65488e-11
1.12947e-11
5.45595e-12
9.52397e-11
-4.82561e-10
5.35912e-10
1.65679e-10
-2.30395e-09
6.87713e-09
-7.61694e-09
-2.50189e-08
5.6985e-08
-4.53053e-08
-1.78193e-08
1.49277e-07
-3.91159e-07
1.20327e-06
-1.06991e-05
-6.97826e-05
-0.000656875
-0.00162003
0.00268226
0.00343388
-8.77548e-05
-0.00230206
-0.00477584
-0.00975359
0.00338407
0.0179685
0.0147488
-0.00894614
-0.0221913
-0.0163636
0.00848428
0.0208338
0.0166016
-0.0029127
-0.01567
-0.0139676
-0.00202126
0.0108918
0.0106134
0.00414992
-0.00527963
-0.00588439
-0.0016532
0.00402673
0.00487859
-0.000115174
-0.00519171
-0.00450101
-0.000378069
0.00337735
0.00213884
-0.000819961
-0.00126744
0.000251443
0.000329233
9.89965e-05
0.000139969
-0.000154159
-0.000297471
-4.05966e-05
0.000156491
0.000173435
0.000211481
0.000148165
5.49179e-05
-0.000151573
-0.000115536
-1.60418e-05
-0.000133811
-9.3115e-05
-3.54994e-05
0.000102363
0.000135642
2.42838e-05
-1.19171e-05
-6.84914e-05
-8.36839e-05
-8.72028e-06
3.21245e-05
2.50312e-05
2.73145e-05
2.69965e-05
1.55771e-16
1.49891e-16
2.01779e-16
1.00623e-16
3.17724e-16
-2.52651e-16
9.39071e-16
-1.61668e-15
3.52312e-15
-6.55096e-15
1.26606e-14
-2.30596e-14
4.23452e-14
-7.19355e-14
1.09506e-13
-1.64574e-13
2.11481e-13
-2.5755e-13
4.04813e-13
-5.24214e-13
8.23843e-13
-1.44818e-12
2.69329e-12
-4.92071e-12
7.90571e-12
-1.15713e-11
1.67733e-11
-2.19127e-11
2.63213e-11
-3.16272e-11
2.82871e-11
-1.01292e-11
-2.28859e-11
9.16388e-11
-1.54858e-10
1.48136e-10
-4.54752e-11
5.1271e-11
-8.63818e-10
1.15268e-09
9.03871e-10
-3.16807e-09
6.0717e-09
-6.64911e-09
-2.04148e-08
9.39545e-08
-3.79317e-08
-2.79081e-07
7.13128e-07
-1.7473e-06
3.4392e-06
-1.35057e-05
-3.45456e-05
0.000809116
-0.00313631
-0.00183774
0.00601975
0.00462409
0.000239856
-0.00508089
-0.0135428
-0.00768653
0.0149714
0.0238889
0.00823954
-0.020073
-0.0249495
-0.0125549
0.0176731
0.022516
0.0125881
-0.0104399
-0.0168842
-0.0122328
0.00473676
0.011604
0.00848102
-0.00121415
-0.00716386
-0.00436437
0.00290548
0.00546814
-0.000269667
-0.00562709
-0.00343323
0.0014929
0.00288827
-8.60281e-05
-0.00131808
7.83104e-05
0.000426556
0.000235242
0.000101425
-0.000245623
-0.000382564
-4.20726e-05
0.000289636
0.000299918
0.000219326
0.000150736
1.79584e-05
-6.61971e-05
-0.000118119
2.08049e-05
-6.42017e-05
-0.000120457
-4.03652e-05
2.0023e-05
0.000139468
8.54333e-05
-4.40853e-06
-3.03364e-05
-8.60866e-05
-6.54502e-05
1.50916e-05
3.49459e-05
2.25971e-05
2.76193e-05
2.76102e-05
1.09483e-16
1.14323e-16
1.41734e-16
1.02838e-16
1.83197e-16
-4.96959e-17
4.23536e-16
-5.67232e-16
1.2925e-15
-2.5288e-15
5.66543e-15
-1.07343e-14
1.97476e-14
-3.41787e-14
4.80763e-14
-6.24841e-14
9.09793e-14
-1.47978e-13
2.57224e-13
-3.28292e-13
4.72116e-13
-8.94153e-13
1.79139e-12
-3.09732e-12
4.80704e-12
-7.35392e-12
1.02576e-11
-1.33265e-11
1.61955e-11
-1.74657e-11
1.63396e-11
-8.7265e-12
-2.84985e-12
2.91986e-11
-7.98075e-11
1.35177e-10
-1.92223e-10
3.13658e-10
-4.90822e-10
3.69066e-10
4.67197e-10
-4.81863e-10
-2.49811e-09
9.40016e-09
-5.96264e-09
-5.06234e-08
1.61197e-07
-2.40886e-07
-2.88468e-08
8.27945e-07
-5.84336e-06
4.90075e-05
-0.000522541
-0.000316886
-0.0017383
-0.00885732
0.00509795
0.0136215
0.00882055
-0.00464432
-0.0170957
-0.0174657
0.00465847
0.027895
0.0226802
-0.00935569
-0.0265982
-0.0232977
0.00523353
0.0238121
0.0202887
-0.000130081
-0.0171346
-0.0167785
-0.00300273
0.011974
0.0110946
0.00137103
-0.0076887
-0.00469903
0.00356901
0.00422612
-0.00216783
-0.00454022
-0.000270843
0.00223676
-0.000147705
-0.000957539
0.000190173
0.00051032
0.000238038
-8.93782e-05
-0.000429415
-0.000416494
2.42812e-05
0.000409285
0.000400978
0.00023875
8.40831e-05
-4.75955e-05
-8.50988e-05
-5.9831e-05
1.68471e-06
3.14997e-05
-0.00011839
-6.44097e-05
-9.95891e-06
7.20379e-05
0.00013598
3.30766e-05
-1.6974e-05
-4.8565e-05
-9.25675e-05
-3.88442e-05
3.3323e-05
3.35616e-05
1.98908e-05
2.81872e-05
2.85163e-05
3.79004e-17
5.04462e-17
5.84716e-17
8.32291e-17
3.18837e-17
1.26853e-16
-1.06623e-16
2.8915e-16
-3.17561e-16
3.16625e-16
1.6328e-16
-9.65821e-16
2.82774e-15
-4.59023e-15
2.08534e-15
-5.04681e-15
3.44294e-14
-7.99924e-14
1.13527e-13
-1.71574e-13
2.52272e-13
-5.01205e-13
9.82164e-13
-1.67861e-12
2.89514e-12
-4.2836e-12
6.13536e-12
-8.74278e-12
1.10259e-11
-1.19852e-11
1.24544e-11
-9.64938e-12
4.00039e-12
1.26141e-11
-4.33642e-11
8.41966e-11
-1.37768e-10
1.97962e-10
-2.58284e-10
3.16215e-10
-3.70833e-10
6.89499e-10
-1.0892e-09
-1.57119e-10
7.7483e-09
-2.62658e-08
2.61138e-08
2.7923e-08
-2.80115e-07
7.86649e-07
-3.5537e-06
7.92523e-07
-0.000145843
-0.000621532
0.0100325
-0.0184986
-0.0118403
0.0177247
0.0200374
0.00426259
-0.015633
-0.0221659
-0.00936386
0.0244986
0.0284104
0.0020441
-0.0241377
-0.0254031
-0.00269903
0.0224629
0.0228084
0.00557926
-0.0164932
-0.017867
-0.00573731
0.0128304
0.0116073
-0.00168818
-0.0077581
-0.00126215
0.00444155
0.000436994
-0.00340195
-0.000645997
0.000986367
-0.000233831
-0.000340784
0.00035003
0.000410548
-5.81895e-06
-0.000394951
-0.000570114
-0.000352165
0.000178397
0.000484158
0.00040468
0.000172199
-3.35789e-05
-0.000135057
-0.000118571
5.37403e-06
7.23331e-06
5.99627e-05
-4.63663e-05
-0.00012073
-2.00326e-05
1.107e-05
0.000112564
9.60636e-05
-2.20995e-06
-2.21843e-05
-6.8086e-05
-8.76194e-05
-9.00036e-06
4.3985e-05
2.87794e-05
1.70159e-05
2.90263e-05
2.97058e-05
-1.95996e-17
-1.46327e-18
-3.89725e-18
5.87918e-17
-6.72454e-17
1.92129e-16
-3.41869e-16
6.25247e-16
-9.62046e-16
1.49673e-15
-2.09462e-15
2.81907e-15
-4.45164e-15
8.44794e-15
-1.18839e-14
8.38551e-15
1.05632e-14
-3.00861e-14
3.71189e-14
-6.23331e-14
1.1752e-13
-2.57614e-13
4.33832e-13
-7.22015e-13
1.18771e-12
-1.72732e-12
2.769e-12
-3.92396e-12
5.4242e-12
-6.79941e-12
7.76797e-12
-8.09219e-12
5.71867e-12
2.67157e-12
-1.50583e-11
3.82097e-11
-6.77523e-11
9.72128e-11
-1.69223e-10
2.96099e-10
-4.028e-10
1.12237e-10
1.80948e-10
-1.66438e-09
3.03939e-09
1.36428e-09
-2.18179e-08
2.37669e-08
1.90569e-08
-3.29143e-07
3.33812e-06
-5.59682e-05
9.3547e-05
-4.85551e-05
0.001077
0.00609698
-0.0187302
-0.00203446
0.0186734
0.0131046
-0.00579692
-0.0186944
-0.0155451
0.0160889
0.0266136
0.00488158
-0.020859
-0.0221717
-0.00194429
0.0195649
0.0202072
0.00273034
-0.0159722
-0.014993
0.00221318
0.0120111
0.00366734
-0.00666609
-0.00218831
0.00326189
0.000589061
-0.00196433
-0.000516052
0.000178621
-0.000159368
-1.40265e-05
0.000262162
8.25541e-05
-0.000355671
-0.000639315
-0.000542911
-0.000129632
0.000390194
0.000563003
0.000364521
6.93496e-05
-0.000129361
-0.000184475
-8.22322e-05
4.98765e-05
3.51603e-05
1.47473e-07
2.99884e-05
-0.000138811
-7.97472e-05
3.3195e-06
4.33912e-05
0.000122647
4.30098e-05
-1.27957e-05
-2.99849e-05
-8.49904e-05
-7.06928e-05
1.8813e-05
4.67229e-05
2.2453e-05
1.51335e-05
3.00704e-05
3.10967e-05
-3.06801e-17
-1.74933e-17
-2.42773e-17
3.86611e-17
-8.98583e-17
1.64666e-16
-3.11612e-16
5.20749e-16
-8.23457e-16
1.28382e-15
-2.13622e-15
3.4836e-15
-5.76505e-15
8.70305e-15
-1.05682e-14
8.00084e-15
5.5632e-15
-1.53662e-14
1.12485e-14
-3.7823e-14
7.14886e-14
-1.28773e-13
2.03361e-13
-2.10289e-13
1.86958e-13
-5.72748e-14
-6.60608e-14
1.04375e-13
2.55951e-13
-7.47106e-13
1.75517e-12
-2.75123e-12
2.45189e-12
-1.41712e-12
-1.91338e-12
9.21228e-12
-1.64775e-11
2.73026e-11
-4.76105e-11
6.05523e-11
1.19498e-11
-1.72658e-10
1.61065e-10
-4.12503e-10
4.34708e-10
7.67837e-10
-2.40701e-09
2.3948e-10
1.49472e-08
-1.45621e-07
6.81711e-07
-1.55879e-05
-3.77792e-05
-1.5295e-06
-0.00112557
0.00186784
0.00175728
-0.00892259
-9.98696e-05
0.00997231
0.00310146
-0.00485388
-0.0116121
0.00604613
0.0152947
-0.00254737
-0.0158287
-0.0117338
0.00774848
0.0140778
0.00819336
-0.00879739
-0.012011
0.000151251
0.00909246
0.0022789
-0.00380584
-0.000250124
0.001957
0.000164044
-0.000634783
-0.000192881
-3.8323e-05
-0.00011205
-3.27258e-05
-1.36149e-05
-0.000244829
-0.00055704
-0.000626834
-0.0003081
0.000222186
0.000629734
0.000648738
0.000287495
-7.0977e-05
-0.000251497
-0.000243384
-0.000104711
3.22969e-05
-1.382e-05
-8.33074e-05
3.14973e-05
-5.06972e-05
-0.000167364
-4.37588e-06
1.75655e-05
7.47721e-05
9.78643e-05
5.51542e-06
-7.38458e-06
-4.50269e-05
-9.25328e-05
-4.16858e-05
3.94551e-05
4.13818e-05
1.55159e-05
1.39909e-05
3.13521e-05
3.26808e-05
-2.87021e-17
-1.79592e-17
-2.26633e-17
1.9211e-17
-6.29042e-17
1.00324e-16
-1.87382e-16
3.12461e-16
-5.54224e-16
9.38291e-16
-1.60452e-15
2.59747e-15
-4.09541e-15
6.0299e-15
-6.66805e-15
4.40226e-15
3.34713e-15
-9.88469e-15
1.09299e-14
-2.55243e-14
4.11401e-14
-7.34405e-14
1.13143e-13
-1.11006e-13
1.93926e-14
1.75285e-13
-4.59632e-13
8.22492e-13
-1.25924e-12
1.33453e-12
-9.6188e-13
3.93907e-13
4.61662e-13
-1.05346e-12
1.00065e-12
-9.67051e-13
7.52593e-13
-4.37088e-13
6.5958e-12
-3.71214e-11
7.94756e-11
-3.74689e-11
-1.703e-10
1.13347e-10
-5.3528e-11
2.69905e-11
3.00507e-10
6.21908e-10
-3.54337e-09
7.7253e-08
-1.3461e-06
6.24416e-06
-3.91229e-06
-2.64325e-05
0.000187581
-0.00064267
-0.000227191
0.00320431
-0.00175285
-0.00815478
0.00303808
0.00941675
0.00164397
-0.00984059
-0.00448536
0.00209887
0.00279585
0.00417653
0.00279168
-0.0020485
-0.00480749
-0.00230543
0.00307003
0.00285273
-0.000704253
-0.00138117
0.000195516
0.000719013
0.000232461
4.39056e-05
3.85764e-05
-5.84485e-05
-0.000116374
-0.000152245
-0.000229
-0.000360013
-0.000477723
-0.000366387
6.43998e-05
0.000590583
0.000818755
0.000623661
8.18637e-05
-0.000340447
-0.000490219
-0.000405111
-0.000213294
-5.05417e-05
-6.50411e-05
-0.000125981
3.63546e-05
8.35761e-05
-0.00017174
-9.91134e-05
4.89894e-05
1.76159e-05
9.2595e-05
5.92723e-05
-6.10589e-06
-4.16526e-06
-6.5979e-05
-8.68395e-05
-6.88778e-06
4.92275e-05
2.989e-05
9.90045e-06
1.45719e-05
3.32255e-05
3.47016e-05
-1.47247e-17
-9.58325e-18
-1.29523e-17
9.73574e-18
-3.18607e-17
5.0325e-17
-9.45456e-17
1.55925e-16
-2.94987e-16
5.24616e-16
-9.22094e-16
1.51906e-15
-2.48e-15
3.78065e-15
-4.16452e-15
2.2476e-15
2.32619e-15
-7.47062e-15
1.13178e-14
-1.94186e-14
3.0728e-14
-5.19185e-14
7.98982e-14
-8.21934e-14
4.17833e-14
3.901e-14
-1.7065e-13
4.26663e-13
-7.30579e-13
9.85945e-13
-1.0917e-12
8.89424e-13
-4.08754e-13
-2.07388e-13
8.24068e-13
-1.47638e-12
2.70012e-12
-5.60145e-12
1.1447e-11
-1.93974e-11
2.60629e-11
-3.13873e-11
2.88405e-11
-7.42662e-11
1.76165e-10
-2.12837e-12
-3.61761e-10
5.47278e-10
-2.52683e-09
1.99347e-10
4.83359e-08
-1.14079e-06
1.19331e-07
-4.73052e-06
-3.65005e-05
0.000250081
-0.000258583
-0.000755816
0.00410454
-0.0059029
-0.00676178
0.0179231
0.00605108
-0.0198475
-0.00892661
0.016224
0.00789966
-0.00593093
-0.00664596
-0.000234385
0.00234711
0.00162526
-9.73476e-05
-0.000643108
-0.000337242
2.66158e-05
0.000210657
0.00024756
0.000177406
9.86131e-05
-4.963e-07
-0.000132976
-0.000230876
-0.00026639
-0.000268163
-0.000229243
-1.45489e-05
0.000412174
0.000782107
0.000763212
0.000331794
-0.000243398
-0.000607903
-0.000642916
-0.000449032
-0.000191478
-5.63831e-06
3.62261e-05
-1.17138e-05
0.000116797
0.000198382
-0.000105733
-0.000234844
2.51617e-05
4.26606e-05
2.50495e-05
9.38396e-05
2.34873e-05
-2.73966e-07
-1.30566e-05
-8.32251e-05
-6.67899e-05
2.4744e-05
4.79933e-05
1.49266e-05
5.62316e-06
1.60503e-05
3.52324e-05
3.67665e-05
-7.67482e-18
-4.95265e-18
-6.86314e-18
4.3983e-18
-1.42185e-17
2.24769e-17
-4.58144e-17
7.81798e-17
-1.49097e-16
2.78305e-16
-5.02813e-16
8.6664e-16
-1.43466e-15
2.16388e-15
-2.29826e-15
1.26587e-15
1.17785e-15
-5.01945e-15
8.98532e-15
-1.26258e-14
2.02476e-14
-3.64758e-14
5.72424e-14
-6.70475e-14
4.62654e-14
-1.46866e-14
-4.2596e-14
1.30383e-13
-2.41745e-13
3.60367e-13
-4.47403e-13
3.96121e-13
-2.3417e-13
-1.49348e-13
7.64234e-13
-1.69583e-12
2.90758e-12
-5.82023e-12
9.91045e-12
-1.25893e-11
1.42329e-11
-1.17309e-11
1.09056e-11
-1.03778e-11
1.99839e-11
-1.73029e-11
1.2825e-11
-2.3818e-10
-1.39726e-10
-2.48307e-08
9.2588e-08
-8.20773e-08
-1.98384e-07
5.13874e-06
-1.05496e-05
-4.69449e-05
0.000141367
-2.20932e-05
-0.000582333
0.00116878
-0.000154631
-0.0023851
-0.000418884
0.000730857
0.00240029
0.000644511
-0.00225784
-0.00130082
0.000759211
0.00111714
0.000209494
-0.000291361
-0.000220803
-0.000122007
-8.75904e-05
6.91743e-05
0.000165139
0.000114105
9.47889e-05
5.44963e-05
-0.000125627
-0.000275426
-0.000251507
-0.000135556
-1.6084e-05
0.000207021
0.000545775
0.00073265
0.00054032
9.06635e-06
-0.000473177
-0.000673096
-0.000600478
-0.000333886
-4.2665e-05
0.000154636
0.000210401
0.000172495
0.000170773
0.000219346
-8.76123e-05
-0.000348133
-9.29364e-05
0.000110348
7.847e-06
5.07064e-05
7.61085e-05
6.13888e-06
1.13425e-05
-3.19473e-05
-8.80153e-05
-3.57432e-05
4.86121e-05
3.91956e-05
6.30455e-07
4.85795e-06
1.97041e-05
3.80065e-05
3.94698e-05
-3.16335e-18
-2.30545e-18
-3.09771e-18
1.39e-18
-6.01096e-18
8.15598e-18
-1.90317e-17
3.38872e-17
-6.58464e-17
1.18268e-16
-2.20898e-16
4.03996e-16
-7.24089e-16
1.09074e-15
-1.17062e-15
7.33822e-16
3.22439e-16
-2.38915e-15
4.97664e-15
-6.51541e-15
1.23597e-14
-2.27748e-14
3.70158e-14
-4.38197e-14
3.58249e-14
-2.53232e-14
-7.58068e-15
4.73828e-14
-8.43927e-14
1.48865e-13
-1.99166e-13
2.23152e-13
-2.14051e-13
1.38966e-13
9.49528e-14
-3.87439e-13
9.82414e-13
-1.72323e-12
2.70922e-12
-4.00982e-12
4.72817e-12
-4.58897e-12
3.6319e-12
-3.97014e-12
9.39414e-12
-7.7385e-12
1.8716e-11
-3.09993e-10
-2.67293e-09
-1.69672e-08
-1.6545e-07
-1.64517e-07
-2.24278e-07
-5.5965e-07
3.48062e-06
-2.16617e-07
-2.332e-05
3.02086e-05
2.18919e-05
-0.000109023
-3.28565e-06
1.40153e-05
-6.56922e-05
8.02869e-05
-4.74168e-05
-0.000362345
-0.000157562
0.000242096
0.000247094
-3.09424e-05
-7.95954e-05
-2.1134e-05
-9.74335e-05
-8.62501e-05
5.79387e-05
8.60186e-05
5.18989e-06
7.34958e-05
0.000124034
-9.08319e-05
-0.000299621
-0.000256287
-7.47617e-05
6.87499e-05
0.000225641
0.00044487
0.000505941
0.000259205
-0.000179897
-0.000543875
-0.00058627
-0.000444469
-0.000182342
7.5331e-05
0.000232368
0.000262013
0.000207128
0.000129791
8.7934e-05
-0.000102099
-0.000393317
-0.000193487
0.000150324
9.65689e-05
-5.55958e-06
7.08743e-05
4.93031e-05
1.29386e-05
1.64256e-05
-5.61387e-05
-7.85422e-05
-1.62064e-06
5.8527e-05
2.41343e-05
-1.18262e-05
5.65798e-06
2.35108e-05
4.03374e-05
4.16907e-05
-1.72925e-18
-1.46265e-18
-1.71846e-18
-4.8116e-19
-2.68105e-18
1.70159e-18
-6.73918e-18
9.96872e-18
-2.41007e-17
4.27173e-17
-8.69795e-17
1.67867e-16
-3.20617e-16
4.88387e-16
-5.95885e-16
5.58565e-16
-2.4196e-16
-6.19891e-16
1.87907e-15
-2.55801e-15
5.86596e-15
-1.09988e-14
1.85511e-14
-2.19802e-14
2.10524e-14
-1.64894e-14
-2.746e-15
2.72194e-14
-5.72726e-14
9.06808e-14
-1.19334e-13
1.48434e-13
-1.71198e-13
1.92974e-13
-1.92092e-13
1.52031e-13
-6.27976e-14
-1.02758e-13
2.85382e-13
-5.49232e-13
5.84057e-13
-1.41972e-13
-5.21953e-13
2.92136e-13
-9.05278e-13
4.10159e-12
-7.62873e-12
-4.65052e-10
-3.51516e-09
-4.10853e-08
-1.48447e-07
-2.39405e-07
-3.48304e-07
-3.95857e-07
-8.50069e-07
-2.83557e-07
-4.19931e-08
-4.621e-06
-4.4999e-06
-4.76791e-06
-2.44168e-05
-1.31001e-05
-2.12924e-05
-1.32261e-05
-3.0386e-05
-2.8578e-05
3.47183e-05
5.1315e-05
-3.0153e-05
-6.36105e-06
5.20403e-05
-6.9908e-05
-8.14002e-05
8.48455e-05
4.82893e-05
-6.55163e-05
1.69547e-05
0.000177206
-9.8239e-07
-0.000264838
-0.000253047
-6.21934e-05
7.19166e-05
0.000162463
0.000286724
0.000340461
0.000169935
-0.000175893
-0.000484647
-0.000509659
-0.000324507
-7.4002e-05
0.000145767
0.000261198
0.000265566
0.000184888
8.04535e-05
-8.71032e-06
-0.000104806
-0.000316534
-0.000226191
0.000169257
0.00021598
1.21793e-05
-5.6079e-07
7.03188e-05
3.92374e-05
3.16148e-05
2.2764e-06
-7.8438e-05
-5.68644e-05
2.77744e-05
5.68257e-05
7.04839e-06
-1.98255e-05
9.02268e-06
2.82276e-05
4.2613e-05
4.38084e-05
-1.52943e-18
-1.45911e-18
-1.54846e-18
-1.25993e-18
-1.81419e-18
-8.74973e-19
-2.67565e-18
5.9558e-19
-6.77297e-18
9.69689e-18
-2.5445e-17
4.8401e-17
-1.02328e-16
1.63416e-16
-2.57864e-16
3.36545e-16
-2.95204e-16
4.27543e-17
4.29124e-16
-6.49056e-16
1.5781e-15
-3.51721e-15
6.66347e-15
-7.77997e-15
7.86674e-15
-4.28198e-15
-6.08007e-15
2.20779e-14
-4.17679e-14
6.15479e-14
-9.30061e-14
1.27876e-13
-1.63515e-13
2.13348e-13
-2.98356e-13
4.0672e-13
-4.79657e-13
5.4697e-13
-6.48293e-13
9.13517e-13
-1.31732e-12
1.71809e-12
-1.88239e-12
1.0301e-12
-5.33017e-13
1.17732e-13
-3.75707e-11
-6.99098e-10
-4.9463e-09
-6.80646e-08
-1.43734e-07
-2.26168e-07
-3.51061e-07
-5.36788e-07
-6.20206e-07
-1.36077e-06
-1.83287e-06
-1.88217e-06
-4.32704e-06
-6.10071e-06
-5.8194e-06
-1.21213e-05
-5.2701e-06
-1.73667e-06
-1.63798e-05
-1.58385e-06
1.97188e-05
-2.07884e-05
-8.4774e-06
6.74044e-05
-2.71951e-05
-9.40518e-05
7.55647e-05
8.50785e-05
-9.86031e-05
-5.72911e-05
0.00014844
8.55157e-05
-0.000153161
-0.000218374
-7.76081e-05
4.59929e-05
0.000114744
0.000203562
0.000269755
0.000174343
-8.14151e-05
-0.000350372
-0.000438243
-0.000241235
9.74371e-07
0.000189306
0.000277219
0.000259232
0.000173346
6.57108e-05
-2.42092e-05
-9.77346e-05
-0.000179803
-0.000193995
0.000149636
0.000298951
7.63296e-05
-5.98819e-05
1.99532e-05
7.22616e-05
4.98266e-05
3.51952e-05
-2.69739e-05
-8.49115e-05
-2.59719e-05
4.98519e-05
4.64346e-05
-9.95999e-06
-2.31726e-05
1.33777e-05
3.23485e-05
4.39783e-05
4.49632e-05
-1.87988e-18
-1.81615e-18
-1.75312e-18
-1.63577e-18
-1.73884e-18
-1.89988e-18
-1.73317e-18
-1.93055e-18
-1.87578e-18
-1.46354e-18
-4.29377e-18
5.91472e-18
-2.22077e-17
3.84803e-17
-8.08391e-17