/*--------------------------------*- C++ -*----------------------------------*\
| =========                 |                                                 |
| \\      /  F ield         | OpenFOAM: The Open Source CFD Toolbox           |
|  \\    /   O peration     | Version:  2.2.x                                 |
|   \\  /    A nd           | Web:      www.OpenFOAM.org                      |
|    \\/     M anipulation  |                                                 |
\*---------------------------------------------------------------------------*/
FoamFile
{
    version     2.0;
    format      ascii;
    class       volVectorField;
    location    "0.03";
    object      U;
}
// * * * * * * * * * * * * * * * * * * * * * * * * * * * * * * * * * * * * * //

dimensions      [0 1 -1 0 0 0 0];

internalField   nonuniform List<vector> 
1024
(
(-10 0 0)
(-10 0 0)
(-10 0 0)
(-10 0 0)
(-10 0 0)
(-10 0 0)
(-10 0 0)
(-10 0 0)
(-10 0 0)
(-10 0 0)
(-10 0 0)
(-10 0 0)
(-10 0 0)
(-10 0 0)
(-10 0 0)
(-10 0 0)
(-10 0 0)
(-10 0 0)
(-10 0 0)
(-10 0 0)
(-10 0 0)
(-10 0 0)
(-10 0 0)
(-10 0 0)
(-10 0 0)
(-10 0 0)
(-10 0 0)
(-10 0 0)
(-10 0 0)
(-10 0 0)
(-10 0 0)
(-10 0 0)
(-10 0 0)
(-10 0 0)
(-10 0 0)
(-10 0 0)
(-10 0 0)
(-10 0 0)
(-10 0 0)
(-10 0 0)
(-10 0 0)
(-10 0 0)
(-10 0 0)
(-10 0 0)
(-10 0 0)
(-10 0 0)
(-10 0 0)
(-10 0 0)
(-10 0 0)
(-10 0 0)
(-10 0 0)
(-10 0 0)
(-10 0 0)
(-10 0 0)
(-10 0 0)
(-10 0 0)
(-10 0 0)
(-10 0 0)
(-10 0 0)
(-10 0 0)
(-10 0 0)
(-10 0 0)
(-10 0 0)
(-10 0 0)
(-10 0 0)
(-10 0 0)
(-10 0 0)
(-10 0 0)
(-10 0 0)
(-10 0 0)
(-10 0 0)
(-10 0 0)
(-10 0 0)
(-10 0 0)
(-10 0 0)
(-10 0 0)
(-10 0 0)
(-10 0 0)
(-10 0 0)
(-10 0 0)
(-10 0 0)
(-10 0 0)
(-10 0 0)
(-10 0 0)
(-10 0 0)
(-10 0 0)
(-10 0 0)
(-10 0 0)
(-10 0 0)
(-10 0 0)
(-10 0 0)
(-10 0 0)
(-10 0 0)
(-10 0 0)
(-10 0 0)
(-10 0 0)
(-10 0 0)
(-10 0 0)
(-10 0 0)
(-10 0 0)
(-10 0 0)
(-10 0 0)
(-10 0 0)
(-10 0 0)
(-10 0 0)
(-10 0 0)
(-10 0 0)
(-10 0 0)
(-10 0 0)
(-10 0 0)
(-10 0 0)
(-10 0 0)
(-10 0 0)
(-10 0 0)
(-10 0 0)
(-10 0 0)
(-10 0 0)
(-10 0 0)
(-10 0 0)
(-10 0 0)
(-10 0 0)
(-10 0 0)
(-10 0 0)
(-10 0 0)
(-10 0 0)
(-10 0 0)
(-10 0 0)
(-10 0 0)
(-10 0 0)
(-10 0 0)
(-10 0 0)
(-10 0 0)
(-10 0 0)
(-10 0 0)
(-10 0 0)
(-10 0 0)
(-10 0 0)
(-10 0 0)
(-10 0 0)
(-10 0 0)
(-10 0 0)
(-10 0 0)
(-10 0 0)
(-10 0 0)
(-10 0 0)
(-10 0 0)
(-10 0 0)
(-10 0 0)
(-10 0 0)
(-10 0 0)
(-10 0 0)
(-10 0 0)
(-10 0 0)
(-10 0 0)
(-10 0 0)
(-10 0 0)
(-10 0 0)
(-10 0 0)
(-10 0 0)
(-10 0 0)
(-10 0 0)
(-10 0 0)
(-10 0 0)
(-10 0 0)
(-10 0 0)
(-10 0 0)
(-10 0 0)
(-10 0 0)
(-10 0 0)
(-10 0 0)
(-10 0 0)
(-10 0 0)
(-10 0 0)
(-10 0 0)
(-10 0 0)
(-10 0 0)
(-10 0 0)
(-10 0 0)
(-10 0 0)
(-10 0 0)
(-10 0 0)
(-10 0 0)
(-10 0 0)
(-10 0 0)
(-10 0 0)
(-10 0 0)
(-10 0 0)
(-10 0 0)
(-10 0 0)
(-10 0 0)
(-10 0 0)
(-10 0 0)
(-10 0 0)
(-10 0 0)
(-10 0 0)
(-10 0 0)
(-10 0 0)
(-10 0 0)
(-10 0 0)
(-10 0 0)
(-10 0 0)
(-10 0 0)
(-10 0 0)
(-10 0 0)
(-10 0 0)
(-10 0 0)
(-10 0 0)
(-10 0 0)
(-10 0 0)
(-10 0 0)
(-10 0 0)
(-10 0 0)
(-10 0 0)
(-10 0 0)
(-10 0 0)
(-10 0 0)
(-10 0 0)
(-10 0 0)
(-10 0 0)
(-10 0 0)
(-10 0 0)
(-10 0 0)
(-10 0 0)
(-10 0 0)
(-10 0 0)
(-10 0 0)
(-10 0 0)
(-10 0 0)
(-10 0 0)
(-10 0 0)
(-10 0 0)
(-10 0 0)
(-10 0 0)
(-10 0 0)
(-10 0 0)
(-10 0 0)
(-10 0 0)
(-10 0 0)
(-10 0 0)
(-10 0 0)
(-10 0 0)
(-10 0 0)
(-10 0 0)
(-10 0 0)
(-10 0 0)
(-10 0 0)
(-10 0 0)
(-10 0 0)
(-10 0 0)
(-10 0 0)
(-10 0 0)
(-10 0 0)
(-10 0 0)
(-10 0 0)
(-10 0 0)
(-10 0 0)
(-10 0 0)
(-10 0 0)
(-10 0 0)
(-10 0 0)
(-10 0 0)
(-10 0 0)
(-10 0 0)
(-10 0 0)
(-10 0 0)
(-10 0 0)
(-10 0 0)
(-10 0 0)
(-10 0 0)
(-10 0 0)
(-10 0 0)
(-10 0 0)
(-10 0 0)
(-10 0 0)
(-10 0 0)
(-10 0 0)
(-10 0 0)
(-10 0 0)
(-10 0 0)
(-10 0 0)
(-10 0 0)
(-10 0 0)
(-10 0 0)
(-10 0 0)
(-10 0 0)
(-10 0 0)
(-10 0 0)
(-10 0 0)
(-10 0 0)
(-10 0 0)
(-10 0 0)
(-10 0 0)
(-10 0 0)
(-10 0 0)
(-10 0 0)
(-10 0 0)
(-10 0 0)
(-10 0 0)
(-10 0 0)
(-10 0 0)
(-10 0 0)
(-10 0 0)
(-10 0 0)
(-10 0 0)
(-10 0 0)
(-10 0 0)
(-10 0 0)
(-10 0 0)
(-10 0 0)
(-10 0 0)
(-10 0 0)
(-10 0 0)
(-10 0 0)
(-10 0 0)
(-10 0 0)
(-10 0 0)
(-10 0 0)
(-10 0 0)
(-10 0 0)
(-10 0 0)
(-10 0 0)
(-10 0 0)
(-10 0 0)
(-10 0 0)
(-10 0 0)
(-10 0 0)
(-10 0 0)
(-10 0 0)
(-10 0 0)
(-10 0 0)
(-10 0 0)
(-10 0 0)
(-10 0 0)
(-10 0 0)
(-10 0 0)
(-10 0 0)
(-10 0 0)
(-10 0 0)
(-10 0 0)
(-10 0 0)
(-10 0 0)
(-10 0 0)
(-10 0 0)
(-10 0 0)
(-10 0 0)
(-10 0 0)
(-10 0 0)
(-10 0 0)
(-10 0 0)
(-10 0 0)
(-10 0 0)
(-10 0 0)
(-10 0 0)
(-10 0 0)
(-10 0 0)
(-10 0 0)
(-10 0 0)
(-10 0 0)
(-10 0 0)
(-10 0 0)
(-10 0 0)
(-10 0 0)
(-10 0 0)
(-10 0 0)
(-10 0 0)
(-10 0 0)
(-10 0 0)
(-10 0 0)
(-10 2.086e-17 0)
(-9.59499 -0.0128183 0)
(-1.86934 -0.27353 0)
(0.42583 -0.378105 0)
(0.692937 -0.387419 0)
(0.704388 -0.388319 0)
(0.70494 -0.387724 0)
(0.705073 -0.388511 0)
(0.705057 -0.38799 0)
(0.704971 -0.388881 0)
(0.704949 -0.386855 0)
(0.704962 -0.387422 0)
(0.704959 -0.388465 0)
(0.704994 -0.388423 0)
(0.705017 -0.388273 0)
(0.705045 -0.388164 0)
(0.705056 -0.387783 0)
(0.705095 -0.387777 0)
(0.705089 -0.387274 0)
(0.705062 -0.388082 0)
(0.705047 -0.388365 0)
(0.705033 -0.388249 0)
(0.705024 -0.38827 0)
(0.705021 -0.387969 0)
(0.705017 -0.388061 0)
(0.705017 -0.387988 0)
(0.705025 -0.388152 0)
(0.705033 -0.387696 0)
(0.705047 -0.38785 0)
(0.705038 -0.387973 0)
(0.705049 -0.388079 0)
(0.705039 -0.388121 0)
(0.705035 -0.388109 0)
(0.705034 -0.388119 0)
(0.705045 -0.387946 0)
(0.705047 -0.387691 0)
(0.705054 -0.387957 0)
(0.705047 -0.388142 0)
(0.705057 -0.388255 0)
(0.705063 -0.388253 0)
(0.705068 -0.388116 0)
(0.705081 -0.388006 0)
(0.70508 -0.387894 0)
(0.705083 -0.387929 0)
(0.705076 -0.387795 0)
(0.705073 -0.3881 0)
(0.705056 -0.388163 0)
(0.705062 -0.38824 0)
(0.705058 -0.38809 0)
(0.705073 -0.388043 0)
(0.70506 -0.38798 0)
(0.705073 -0.387884 0)
(0.705065 -0.387803 0)
(0.705064 -0.387898 0)
(0.705054 -0.388011 0)
(0.705058 -0.38812 0)
(0.705058 -0.388151 0)
(0.705066 -0.388173 0)
(0.705075 -0.388109 0)
(0.705089 -0.387968 0)
(0.705095 -0.387862 0)
(0.705103 -0.387812 0)
(0.705104 -0.387948 0)
(0.7051 -0.388042 0)
(0.7051 -0.388152 0)
(0.705099 -0.388035 0)
(0.705097 -0.388003 0)
(0.705097 -0.387923 0)
(0.705095 -0.387909 0)
(0.705093 -0.387922 0)
(0.705098 -0.388068 0)
(0.705097 -0.388181 0)
(0.705093 -0.388257 0)
(0.705091 -0.388197 0)
(0.705086 -0.388167 0)
(0.705069 -0.388109 0)
(0.705067 -0.388002 0)
(0.705059 -0.387884 0)
(0.705054 -0.387815 0)
(0.705058 -0.387808 0)
(0.705062 -0.387847 0)
(0.705082 -0.387848 0)
(0.705094 -0.387744 0)
(0.70512 -0.387651 0)
(0.705101 -0.387533 0)
(0.70508 -0.387515 0)
(0.705039 -0.387552 0)
(0.705025 -0.387804 0)
(0.705026 -0.387985 0)
(0.705043 -0.388132 0)
(0.70508 -0.388168 0)
(0.705167 -0.388087 0)
(0.705191 -0.387768 0)
(0.70514 -0.386884 0)
(0.705091 -0.384962 0)
(0.705194 -0.37968 0)
(0.705543 -0.36826 0)
(0.706217 -0.340609 0)
(0.708091 -0.284341 0)
(0.711779 -0.162034 0)
(0.715263 0.0243913 0)
(0.719249 0.165387 0)
(0.721701 0.256843 0)
(0.722765 0.311111 0)
(0.722654 0.341473 0)
(0.723514 0.355884 0)
(0.724085 0.360304 0)
(0.723966 0.361437 0)
(0.723917 0.358537 0)
(0.723567 0.354618 0)
(0.723664 0.353171 0)
(0.723774 0.353697 0)
(0.72385 0.356998 0)
(0.724276 0.360187 0)
(0.723717 0.361195 0)
(0.723472 0.360455 0)
(0.723793 0.355045 0)
(0.72396 0.350975 0)
(0.723701 0.353206 0)
(0.723226 0.36002 0)
(0.7235 0.359698 0)
(0.724153 0.355185 0)
(0.724062 0.355369 0)
(0.72371 0.357769 0)
(0.723733 0.35741 0)
(0.723807 0.356794 0)
(0.723728 0.357105 0)
(0.723681 0.35727 0)
(0.723681 0.357224 0)
(0.723692 0.35702 0)
(0.723742 0.356854 0)
(0.723904 0.357362 0)
(0.723772 0.35838 0)
(0.723873 0.358474 0)
(0.723899 0.357339 0)
(0.723871 0.356776 0)
(0.723871 0.358208 0)
(0.723866 0.359858 0)
(0.7238 0.358443 0)
(0.723703 0.354367 0)
(0.723659 0.353957 0)
(0.723759 0.357987 0)
(0.723616 0.35341 0)
(0.723331 0.336704 0)
(0.72281 0.32558 0)
(0.722829 0.313587 0)
(0.722037 0.27635 0)
(0.721545 0.250394 0)
(0.721196 0.234169 0)
(0.721078 0.227372 0)
(0.721048 0.22548 0)
(0.721041 0.225565 0)
(0.721065 0.226519 0)
(0.721061 0.227884 0)
(0.721097 0.229346 0)
(0.721055 0.230335 0)
(0.721071 0.230739 0)
(0.721057 0.23126 0)
(0.7211 0.231288 0)
(0.721107 0.23176 0)
(0.721127 0.231507 0)
(0.721141 0.231935 0)
(0.721154 0.23148 0)
(0.721159 0.231914 0)
(0.721163 0.231343 0)
(0.721159 0.231823 0)
(0.721156 0.231211 0)
(0.721147 0.231748 0)
(0.721142 0.231133 0)
(0.721134 0.231721 0)
(0.721131 0.2311 0)
(0.721124 0.231726 0)
(0.721124 0.23108 0)
(0.721119 0.231736 0)
(0.72112 0.231045 0)
(0.721117 0.231733 0)
(0.721118 0.230994 0)
(0.721115 0.231736 0)
(0.721117 0.230957 0)
(0.721114 0.231768 0)
(0.721116 0.230944 0)
(0.721112 0.231827 0)
(0.721114 0.23095 0)
(0.72111 0.231905 0)
(0.721112 0.230956 0)
(0.721107 0.231972 0)
(0.72111 0.230929 0)
(0.721104 0.231999 0)
(0.721107 0.230854 0)
(0.721102 0.231995 0)
(0.721105 0.230763 0)
(0.7211 0.232006 0)
(0.721105 0.230692 0)
(0.7211 0.232044 0)
(0.721105 0.230641 0)
(0.721101 0.232116 0)
(0.721107 0.230621 0)
(0.721102 0.232215 0)
(0.721108 0.230589 0)
(0.721102 0.232274 0)
(0.721108 0.23049 0)
(0.721102 0.232292 0)
(0.721108 0.230377 0)
(0.721102 0.232337 0)
(0.721109 0.230296 0)
(0.721103 0.232424 0)
(0.721111 0.230235 0)
(0.721104 0.232522 0)
(0.721113 0.230154 0)
(0.721106 0.232605 0)
(0.721116 0.230054 0)
(0.721109 0.232699 0)
(0.72112 0.229954 0)
(0.721112 0.2328 0)
(0.721124 0.22985 0)
(0.721115 0.232933 0)
(0.721128 0.229778 0)
(0.721117 0.233087 0)
(0.721129 0.229646 0)
(0.721115 0.233161 0)
(0.721127 0.229442 0)
(0.721112 0.233265 0)
(0.721126 0.229313 0)
(0.721111 0.233462 0)
(0.721127 0.229205 0)
(0.721112 0.233656 0)
(0.721131 0.229065 0)
(0.721116 0.233854 0)
(0.721137 0.2289 0)
(0.721123 0.234048 0)
(0.721146 0.228702 0)
(0.72113 0.234227 0)
(0.721154 0.228423 0)
(0.721135 0.234367 0)
(0.721159 0.228153 0)
(0.721137 0.234653 0)
(0.721161 0.228007 0)
(0.721134 0.234987 0)
(0.721157 0.227731 0)
(0.721128 0.235197 0)
(0.721154 0.227429 0)
(0.721126 0.235519 0)
(0.721158 0.227149 0)
(0.721131 0.235803 0)
(0.721171 0.226748 0)
(0.721147 0.236089 0)
(0.721193 0.226402 0)
(0.721169 0.236537 0)
(0.721217 0.226089 0)
(0.721188 0.23693 0)
(0.721234 0.225679 0)
(0.721195 0.237339 0)
(0.721238 0.22518 0)
(0.721192 0.237723 0)
(0.721239 0.224693 0)
(0.721194 0.238326 0)
(0.721248 0.224299 0)
(0.721198 0.238862 0)
(0.721253 0.2236 0)
(0.721201 0.239252 0)
(0.721271 0.223099 0)
(0.721235 0.240063 0)
(0.721333 0.222478 0)
(0.721304 0.240612 0)
(0.721392 0.221663 0)
(0.72131 0.241312 0)
(0.721346 0.221014 0)
(0.721245 0.242283 0)
(0.721357 0.220376 0)
(0.721393 0.242856 0)
(0.721622 0.219341 0)
(0.721572 0.243819 0)
(0.721457 0.218499 0)
(0.720926 0.244762 0)
(0.72062 0.217505 0)
(0.720598 0.245703 0)
(0.721564 0.216586 0)
(0.722825 0.246288 0)
(0.723812 0.215518 0)
(0.722801 0.247274 0)
(0.719858 0.215832 0)
(0.716107 0.247533 0)
(0.715467 0.216446 0)
(0.72065 0.244319 0)
(0.731669 0.22074 0)
(0.738844 0.235965 0)
(0.73393 0.235305 0)
(0.713056 0.21381 0)
(0.686516 0.270386 0)
(0.671632 0.174124 0)
(1.03522 0.277799 0)
(2.78081 0.14981 0)
(9.01552 0.0255341 0)
(10 -7.64866e-17 0)
(10 0 0)
(10 0 0)
(10 0 0)
(10 0 0)
(10 0 0)
(10 0 0)
(10 0 0)
(10 0 0)
(10 0 0)
(10 0 0)
(10 0 0)
(10 0 0)
(10 0 0)
(10 0 0)
(10 0 0)
(10 0 0)
(10 0 0)
(10 0 0)
(10 0 0)
(10 0 0)
(10 0 0)
(10 0 0)
(10 0 0)
(10 0 0)
(10 0 0)
(10 0 0)
(10 0 0)
(10 0 0)
(10 0 0)
(10 0 0)
(10 0 0)
(10 0 0)
(10 0 0)
(10 0 0)
(10 0 0)
(10 0 0)
(10 0 0)
(10 0 0)
(10 0 0)
(10 0 0)
(10 0 0)
(10 0 0)
(10 0 0)
(10 0 0)
(10 0 0)
(10 0 0)
(10 0 0)
(10 0 0)
(10 0 0)
(10 0 0)
(10 0 0)
(10 0 0)
(10 0 0)
(10 0 0)
(10 0 0)
(10 0 0)
(10 0 0)
(10 0 0)
(10 0 0)
(10 0 0)
(10 0 0)
(10 0 0)
(10 0 0)
(10 0 0)
(10 0 0)
(10 0 0)
(10 0 0)
(10 0 0)
(10 0 0)
(10 0 0)
(10 0 0)
(10 0 0)
(10 0 0)
(10 0 0)
(10 0 0)
(10 0 0)
(10 0 0)
(10 0 0)
(10 0 0)
(10 0 0)
(10 0 0)
(10 0 0)
(10 0 0)
(10 0 0)
(10 0 0)
(10 0 0)
(10 0 0)
(10 0 0)
(10 0 0)
(10 0 0)
(10 0 0)
(10 0 0)
(10 0 0)
(10 0 0)
(10 0 0)
(10 0 0)
(10 0 0)
(10 0 0)
(10 0 0)
(10 0 0)
(10 0 0)
(10 0 0)
(10 0 0)
(10 0 0)
(10 0 0)
(10 0 0)
(10 0 0)
(10 0 0)
(10 0 0)
(10 0 0)
(10 0 0)
(10 0 0)
(10 0 0)
(10 0 0)
(10 0 0)
(10 0 0)
(10 0 0)
(10 0 0)
(10 0 0)
(10 0 0)
(10 0 0)
(10 0 0)
(10 0 0)
(10 0 0)
(10 0 0)
(10 0 0)
(10 0 0)
(10 0 0)
(10 0 0)
(10 0 0)
(10 0 0)
(10 0 0)
(10 0 0)
(10 0 0)
(10 0 0)
(10 0 0)
(10 0 0)
(10 0 0)
(10 0 0)
(10 0 0)
(10 0 0)
(10 0 0)
(10 0 0)
(10 0 0)
(10 0 0)
(10 0 0)
(10 0 0)
(10 0 0)
(10 0 0)
(10 0 0)
(10 0 0)
(10 0 0)
(10 0 0)
(10 0 0)
(10 0 0)
(10 0 0)
(10 0 0)
(10 0 0)
(10 0 0)
(10 0 0)
(10 0 0)
(10 0 0)
(10 0 0)
(10 0 0)
(10 0 0)
(10 0 0)
(10 0 0)
(10 0 0)
(10 0 0)
(10 0 0)
(10 0 0)
(10 0 0)
(10 0 0)
(10 0 0)
(10 0 0)
(10 0 0)
(10 0 0)
(10 0 0)
(10 0 0)
(10 0 0)
(10 0 0)
(10 0 0)
(10 0 0)
(10 0 0)
(10 0 0)
(10 0 0)
(10 0 0)
(10 0 0)
(10 0 0)
(10 0 0)
(10 0 0)
(10 0 0)
(10 0 0)
(10 0 0)
(10 0 0)
(10 0 0)
(10 0 0)
(10 0 0)
(10 0 0)
(10 0 0)
(10 0 0)
(10 0 0)
(10 0 0)
(10 0 0)
(10 0 0)
(10 0 0)
(10 0 0)
(10 0 0)
(10 0 0)
(10 0 0)
(10 0 0)
(10 0 0)
(10 0 0)
(10 0 0)
(10 0 0)
(10 0 0)
(10 0 0)
(10 0 0)
(10 0 0)
(10 0 0)
(10 0 0)
(10 0 0)
(10 0 0)
(10 0 0)
(10 0 0)
(10 0 0)
(10 0 0)
(10 0 0)
(10 0 0)
(10 0 0)
(10 0 0)
(10 0 0)
(10 0 0)
(10 0 0)
(10 0 0)
(10 0 0)
(10 0 0)
(10 0 0)
(10 0 0)
(10 0 0)
(10 0 0)
(10 0 0)
(10 0 0)
(10 0 0)
(10 0 0)
(10 0 0)
(10 0 0)
(10 0 0)
(10 0 0)
(10 0 0)
(10 0 0)
(10 0 0)
(10 0 0)
(10 0 0)
(10 0 0)
(10 0 0)
(10 0 0)
(10 0 0)
(10 0 0)
(10 0 0)
(10 0 0)
(10 0 0)
(10 0 0)
(10 0 0)
(10 0 0)
(10 0 0)
(10 0 0)
(10 0 0)
(10 0 0)
(10 0 0)
(10 0 0)
(10 0 0)
(10 0 0)
(10 0 0)
(10 0 0)
(10 0 0)
(10 0 0)
(10 0 0)
(10 0 0)
(10 0 0)
(10 0 0)
(10 0 0)
(10 0 0)
(10 0 0)
(10 0 0)
(10 0 0)
(10 0 0)
(10 0 0)
(10 0 0)
(10 0 0)
(10 0 0)
(10 0 0)
(10 0 0)
(10 0 0)
(10 0 0)
(10 0 0)
(10 0 0)
(10 0 0)
(10 0 0)
(10 0 0)
(10 0 0)
(10 0 0)
(10 0 0)
(10 0 0)
(10 0 0)
(10 0 0)
(10 0 0)
(10 0 0)
(10 0 0)
(10 0 0)
(10 0 0)
(10 0 0)
(10 0 0)
(10 0 0)
(10 0 0)
(10 0 0)
(10 0 0)
(10 0 0)
(10 0 0)
(10 0 0)
(10 0 0)
(10 0 0)
(10 0 0)
(10 0 0)
(10 0 0)
(10 0 0)
(10 0 0)
(10 0 0)
(10 0 0)
(10 0 0)
(10 0 0)
(10 0 0)
(10 0 0)
(10 0 0)
(10 0 0)
(10 0 0)
(10 0 0)
(10 0 0)
(10 0 0)
(10 0 0)
(10 0 0)
(10 0 0)
(10 0 0)
(10 0 0)
(10 0 0)
(10 0 0)
(10 0 0)
(10 0 0)
(10 0 0)
(10 0 0)
(10 0 0)
(10 0 0)
(10 0 0)
(10 0 0)
(10 0 0)
(10 0 0)
(10 0 0)
(10 0 0)
(10 0 0)
(10 0 0)
(10 0 0)
(10 0 0)
)
;

boundaryField
{
    front-back
    {
        type            empty;
    }
    inlet-outlet
    {
        type            zeroGradient;
    }
    top-down
    {
        type            empty;
    }
}


// ************************************************************************* //
