/*--------------------------------*- C++ -*----------------------------------*\
| =========                 |                                                 |
| \\      /  F ield         | OpenFOAM: The Open Source CFD Toolbox           |
|  \\    /   O peration     | Version:  2.2.x                                 |
|   \\  /    A nd           | Web:      www.OpenFOAM.org                      |
|    \\/     M anipulation  |                                                 |
\*---------------------------------------------------------------------------*/
FoamFile
{
    version     2.0;
    format      ascii;
    class       volVectorField;
    location    "0.09";
    object      U;
}
// * * * * * * * * * * * * * * * * * * * * * * * * * * * * * * * * * * * * * //

dimensions      [0 1 -1 0 0 0 0];

internalField   nonuniform List<vector> 
1024
(
(0 0 0)
(0 0 0)
(0 0 0)
(0 0 0)
(0 0 0)
(0 0 0)
(0 0 0)
(0 0 0)
(0 0 0)
(0 0 0)
(0 0 0)
(0 0 0)
(0 0 0)
(0 0 0)
(0 0 0)
(0 0 0)
(0 0 0)
(0 0 0)
(0 0 0)
(0 0 0)
(0 0 0)
(0 0 0)
(0 0 0)
(0 0 0)
(0 0 0)
(0 0 0)
(0 0 0)
(0 0 0)
(0 0 0)
(0 0 0)
(0 0 0)
(0 0 0)
(0 0 0)
(0 0 0)
(0 0 0)
(0 0 0)
(0 0 0)
(0 0 0)
(0 0 0)
(0 0 0)
(0 0 0)
(0 0 0)
(0 0 0)
(0 0 0)
(0 0 0)
(0 0 0)
(0 0 0)
(0 0 0)
(0 0 0)
(0 0 0)
(0 0 0)
(0 0 0)
(0 0 0)
(0 0 0)
(0 0 0)
(0 0 0)
(0 0 0)
(0 0 0)
(0 0 0)
(0 0 0)
(0 0 0)
(0 0 0)
(0 0 0)
(0 0 0)
(0 0 0)
(0 0 0)
(0 0 0)
(0 0 0)
(0 0 0)
(0 0 0)
(0 0 0)
(0 0 0)
(0 0 0)
(0 0 0)
(0 0 0)
(0 0 0)
(0 0 0)
(0 0 0)
(0 0 0)
(0 0 0)
(0 0 0)
(0 0 0)
(0 0 0)
(0 0 0)
(0 0 0)
(0 0 0)
(0 0 0)
(0 0 0)
(0 0 0)
(0 0 0)
(0 0 0)
(0 0 0)
(0 0 0)
(0 0 0)
(0 0 0)
(0 0 0)
(0 0 0)
(0 0 0)
(0 0 0)
(0 0 0)
(0 0 0)
(0 0 0)
(0 0 0)
(0 0 0)
(0 0 0)
(0 0 0)
(0 0 0)
(0 0 0)
(0 0 0)
(0 0 0)
(0 0 0)
(0 0 0)
(0 0 0)
(0 0 0)
(0 0 0)
(0 0 0)
(0 0 0)
(0 0 0)
(0 0 0)
(5.42307e-16 0 0)
(4.15769e-15 3.61538e-16 0)
(1.95118e-14 4.34976e-15 0)
(6.72461e-14 2.6799e-14 0)
(1.90971e-13 9.37966e-14 0)
(4.9124e-13 2.52184e-13 0)
(1.19738e-12 6.29483e-13 0)
(2.84835e-12 1.50599e-12 0)
(6.72799e-12 3.5576e-12 0)
(1.57999e-11 8.39952e-12 0)
(3.6996e-11 1.964e-11 0)
(8.65663e-11 4.60361e-11 0)
(2.02386e-10 1.07612e-10 0)
(4.72926e-10 2.51589e-10 0)
(1.10457e-09 5.87648e-10 0)
(2.57891e-09 1.3723e-09 0)
(6.01862e-09 3.20341e-09 0)
(1.4041e-08 7.475e-09 0)
(3.27365e-08 1.74127e-08 0)
(7.65484e-08 4.15043e-08 0)
(1.68533e-07 8.52235e-08 0)
(2.64401e-07 1.85707e-07 0)
(3.19425e-07 1.42384e-07 0)
(3.81777e-07 2.80672e-07 0)
(4.35157e-07 2.03852e-07 0)
(4.88016e-07 3.54551e-07 0)
(5.41547e-07 2.76548e-07 0)
(5.93063e-07 4.30779e-07 0)
(6.37638e-07 3.44521e-07 0)
(6.75246e-07 4.97136e-07 0)
(7.01136e-07 3.96579e-07 0)
(7.15154e-07 5.40855e-07 0)
(7.14597e-07 4.24302e-07 0)
(6.84592e-07 5.30881e-07 0)
(6.15694e-07 4.26943e-07 0)
(2.68311e-07 2.71256e-07 0)
(-4.2717e-07 -8.80584e-08 0)
(-1.92773e-06 -1.05782e-06 0)
(-4.82075e-06 -2.56319e-06 0)
(-1.02158e-05 -6.16396e-06 0)
(-1.99181e-05 -1.13276e-05 0)
(-3.68711e-05 -2.28125e-05 0)
(-6.62301e-05 -3.86246e-05 0)
(-0.000115793 -7.25953e-05 0)
(-0.000199754 -0.000117786 0)
(-0.000339553 -0.000214163 0)
(-0.000577706 -0.000340304 0)
(-0.000987187 -0.000617327 0)
(-0.00173279 -0.000999176 0)
(-0.0031681 -0.0019066 0)
(-0.00617565 -0.00333735 0)
(-0.0115426 -0.00768941 0)
(-0.0169685 -0.0080247 0)
(-0.0207162 -0.0151219 0)
(-0.0231841 -0.0108791 0)
(-0.0259737 -0.019182 0)
(-0.0289129 -0.0151981 0)
(-0.0308197 -0.0219011 0)
(-0.0351678 -0.0212973 0)
(-0.0388227 -0.0262527 0)
(-0.0453145 -0.0297042 0)
(-0.0504986 -0.0350611 0)
(-0.0564579 -0.0368066 0)
(-0.0599555 -0.0411897 0)
(-0.0656862 -0.0444436 0)
(-0.0710574 -0.0486095 0)
(-0.0768785 -0.0522562 0)
(-0.0820518 -0.0560434 0)
(-0.0875409 -0.0601363 0)
(-0.0933892 -0.0639256 0)
(-0.099007 -0.0680929 0)
(-0.104622 -0.071796 0)
(-0.110116 -0.0759846 0)
(-0.115916 -0.0798756 0)
(-0.121605 -0.0839408 0)
(-0.12718 -0.0879234 0)
(-0.132905 -0.0919365 0)
(-0.138599 -0.0961421 0)
(-0.14452 -0.100097 0)
(-0.150079 -0.104395 0)
(-0.155984 -0.108251 0)
(-0.161521 -0.112616 0)
(-0.167284 -0.116504 0)
(-0.172678 -0.120461 0)
(-0.178112 -0.124492 0)
(-0.183666 -0.128261 0)
(-0.188919 -0.132474 0)
(-0.194808 -0.136168 0)
(-0.200357 -0.140795 0)
(-0.207018 -0.145171 0)
(-0.213611 -0.150711 0)
(-0.221189 -0.154559 0)
(-0.227 -0.16099 0)
(-0.233874 -0.161919 0)
(-0.2374 -0.168776 0)
(-0.242714 -0.168867 0)
(-0.245428 -0.175007 0)
(-0.250131 -0.175419 0)
(-0.252934 -0.180444 0)
(-0.256903 -0.180293 0)
(-0.259307 -0.185922 0)
(-0.262822 -0.185745 0)
(-0.265491 -0.189112 0)
(-0.268574 -0.188602 0)
(-0.270091 -0.19337 0)
(-0.271693 -0.192808 0)
(-0.273122 -0.196298 0)
(-0.274445 -0.195743 0)
(-0.275395 -0.198091 0)
(-0.276448 -0.197876 0)
(-0.277147 -0.199193 0)
(-0.277815 -0.199238 0)
(-0.277967 -0.198504 0)
(-0.277995 -0.19935 0)
(-0.277447 -0.199172 0)
(-0.277353 -0.199892 0)
(-0.276782 -0.199701 0)
(-0.276388 -0.199345 0)
(-0.275713 -0.199389 0)
(-0.275219 -0.196977 0)
(-0.274582 -0.197861 0)
(-0.273723 -0.195957 0)
(-0.273335 -0.19586 0)
(-0.272857 -0.195208 0)
(-0.271937 -0.194761 0)
(-0.271889 -0.193826 0)
(-0.271694 -0.194329 0)
(-0.271664 -0.194231 0)
(-0.27147 -0.194199 0)
(-0.271502 -0.19407 0)
(-0.271349 -0.193989 0)
(-0.271061 -0.194134 0)
(-0.270691 -0.193517 0)
(-0.270526 -0.19377 0)
(-0.270251 -0.193272 0)
(-0.270126 -0.193635 0)
(-0.269802 -0.193039 0)
(-0.269631 -0.19345 0)
(-0.269234 -0.192626 0)
(-0.269108 -0.192937 0)
(-0.268816 -0.192289 0)
(-0.268745 -0.192451 0)
(-0.268576 -0.191917 0)
(-0.268593 -0.192099 0)
(-0.268564 -0.191796 0)
(-0.26869 -0.191987 0)
(-0.268726 -0.191731 0)
(-0.268826 -0.192027 0)
(-0.268824 -0.191708 0)
(-0.268932 -0.192123 0)
(-0.26893 -0.191839 0)
(-0.269021 -0.192336 0)
(-0.269018 -0.192137 0)
(-0.269122 -0.192615 0)
(-0.269135 -0.192473 0)
(-0.269211 -0.192606 0)
(-0.269256 -0.192598 0)
(-0.269302 -0.192686 0)
(-0.269347 -0.192658 0)
(-0.269367 -0.192667 0)
(-0.269414 -0.192607 0)
(-0.269491 -0.192669 0)
(-0.269598 -0.192721 0)
(-0.269862 -0.19283 0)
(-0.26998 -0.193123 0)
(-0.270095 -0.193027 0)
(-0.270202 -0.193446 0)
(-0.270241 -0.193168 0)
(-0.270278 -0.193362 0)
(-0.270263 -0.193153 0)
(-0.270254 -0.193214 0)
(-0.270173 -0.193144 0)
(-0.270002 -0.193074 0)
(-0.269833 -0.193007 0)
(-0.269695 -0.192828 0)
(-0.26963 -0.19287 0)
(-0.269588 -0.192733 0)
(-0.269596 -0.19281 0)
(-0.269588 -0.192701 0)
(-0.269633 -0.192827 0)
(-0.269716 -0.192825 0)
(-0.269904 -0.193023 0)
(-0.270197 -0.193224 0)
(-0.270488 -0.193463 0)
(-0.270652 -0.193703 0)
(-0.270838 -0.193748 0)
(-0.270883 -0.193834 0)
(-0.270937 -0.193938 0)
(-0.270996 -0.193933 0)
(-0.271076 -0.193976 0)
(-0.271088 -0.194008 0)
(-0.271114 -0.194057 0)
(-0.271127 -0.194064 0)
(-0.271152 -0.194128 0)
(-0.27117 -0.194126 0)
(-0.27119 -0.194188 0)
(-0.271204 -0.194178 0)
(-0.271289 -0.194268 0)
(-0.271371 -0.194346 0)
(-0.271474 -0.194387 0)
(-0.271541 -0.194535 0)
(-0.271616 -0.194523 0)
(-0.271657 -0.194605 0)
(-0.27168 -0.194588 0)
(-0.271695 -0.194617 0)
(-0.271736 -0.194615 0)
(-0.271741 -0.194604 0)
(-0.271754 -0.194586 0)
(-0.271747 -0.194566 0)
(-0.271751 -0.194566 0)
(-0.271741 -0.194528 0)
(-0.271767 -0.194562 0)
(-0.271811 -0.194557 0)
(-0.271929 -0.194628 0)
(-0.272078 -0.19472 0)
(-0.272275 -0.194794 0)
(-0.272385 -0.194903 0)
(-0.272446 -0.194918 0)
(-0.272443 -0.194934 0)
(-0.272455 -0.19491 0)
(-0.272442 -0.194851 0)
(-0.27244 -0.19485 0)
(-0.272444 -0.194784 0)
(-0.272465 -0.19479 0)
(-0.272502 -0.194766 0)
(-0.272579 -0.194853 0)
(-0.272624 -0.19483 0)
(-0.272647 -0.194855 0)
(-0.272609 -0.194814 0)
(-0.272559 -0.194771 0)
(-0.272507 -0.194729 0)
(-0.272561 -0.194689 0)
(-0.272736 -0.194778 0)
(-0.273115 -0.195012 0)
(-0.273386 -0.195393 0)
(-0.273469 -0.195242 0)
(-0.273432 -0.19555 0)
(-0.273326 -0.195402 0)
(-0.272787 -0.195115 0)
(-0.272324 -0.194591 0)
(-0.272098 -0.194685 0)
(-0.272121 -0.194261 0)
(-0.272244 -0.194478 0)
(-0.273054 -0.194917 0)
(-0.273732 -0.195706 0)
(-0.274035 -0.19559 0)
(-0.273944 -0.196209 0)
(-0.273626 -0.195873 0)
(-0.272206 -0.195097 0)
(-0.271121 -0.193792 0)
(-0.270824 -0.194176 0)
(-0.271128 -0.193276 0)
(-0.272082 -0.194107 0)
(-0.274822 -0.195701 0)
(-0.276756 -0.198359 0)
(-0.277249 -0.197438 0)
(-0.276598 -0.199151 0)
(-0.274899 -0.197782 0)
(-0.27001 -0.194929 0)
(-0.266509 -0.190169 0)
(-0.265666 -0.191863 0)
(-0.266854 -0.18893 0)
(-0.269903 -0.191296 0)
(-0.278607 -0.19751 0)
(-0.285399 -0.205277 0)
(-0.285503 -0.20754 0)
(-0.274851 -0.212275 0)
(-0.234257 -0.257279 0)
(-0.111513 -0.572479 0)
(0.394011 -1.12306 0)
(0.529756 -1.52996 0)
(0.637291 -1.54278 0)
(0.660508 -1.59657 0)
(0.656093 -1.61971 0)
(0.653778 -1.60056 0)
(0.65263 -1.61387 0)
(0.653703 -1.60956 0)
(0.655069 -1.60807 0)
(0.654892 -1.60901 0)
(0.65456 -1.60854 0)
(0.654164 -1.60858 0)
(0.654089 -1.60906 0)
(0.654265 -1.60925 0)
(0.654433 -1.60952 0)
(0.654422 -1.60957 0)
(0.654322 -1.60945 0)
(0.654177 -1.60926 0)
(0.654076 -1.609 0)
(0.654083 -1.60873 0)
(0.654106 -1.60873 0)
(0.654222 -1.60882 0)
(0.654364 -1.609 0)
(0.654449 -1.60923 0)
(0.654409 -1.60939 0)
(0.65434 -1.60944 0)
(0.654269 -1.60937 0)
(0.654231 -1.60921 0)
(0.654289 -1.60893 0)
(0.654335 -1.60889 0)
(0.654479 -1.60879 0)
(0.654513 -1.60894 0)
(0.654597 -1.60902 0)
(0.654583 -1.60916 0)
(0.654512 -1.60922 0)
(0.654411 -1.60929 0)
(0.654344 -1.60929 0)
(0.65423 -1.60918 0)
(0.654227 -1.60906 0)
(0.654245 -1.60902 0)
(0.654396 -1.60896 0)
(0.654533 -1.60898 0)
(0.654637 -1.60904 0)
(0.654668 -1.60909 0)
(0.654602 -1.6091 0)
(0.6545 -1.60899 0)
(0.654299 -1.60892 0)
(0.654119 -1.60887 0)
(0.654036 -1.60883 0)
(0.654026 -1.60889 0)
(0.654058 -1.60898 0)
(0.654134 -1.60913 0)
(0.654244 -1.60916 0)
(0.654322 -1.60907 0)
(0.654392 -1.60899 0)
(0.654472 -1.60883 0)
(0.654456 -1.60867 0)
(0.654396 -1.60852 0)
(0.654342 -1.60842 0)
(0.654215 -1.60853 0)
(0.654137 -1.60859 0)
(0.654016 -1.60875 0)
(0.653998 -1.60879 0)
(0.65395 -1.60884 0)
(0.653993 -1.60872 0)
(0.654101 -1.60862 0)
(0.654247 -1.60857 0)
(0.654401 -1.60857 0)
(0.654406 -1.60862 0)
(0.654271 -1.60864 0)
(0.65404 -1.60866 0)
(0.653832 -1.60865 0)
(0.653752 -1.60861 0)
(0.653821 -1.60856 0)
(0.653998 -1.60845 0)
(0.654165 -1.60836 0)
(0.654264 -1.60833 0)
(0.654237 -1.6084 0)
(0.65409 -1.60856 0)
(0.653943 -1.60872 0)
(0.653845 -1.60884 0)
(0.653872 -1.60888 0)
(0.654124 -1.60877 0)
(0.65428 -1.60864 0)
(0.654318 -1.60855 0)
(0.654266 -1.60852 0)
(0.654045 -1.60867 0)
(0.653847 -1.6088 0)
(0.653802 -1.60888 0)
(0.653947 -1.60888 0)
(0.654331 -1.60873 0)
(0.654618 -1.6085 0)
(0.654639 -1.60837 0)
(0.654477 -1.6084 0)
(0.654059 -1.60865 0)
(0.653741 -1.6088 0)
(0.65355 -1.60886 0)
(0.653627 -1.60889 0)
(0.654152 -1.60875 0)
(0.654664 -1.6085 0)
(0.654859 -1.60841 0)
(0.65478 -1.60845 0)
(0.654199 -1.60872 0)
(0.653617 -1.60917 0)
(0.653408 -1.60941 0)
(0.653506 -1.6095 0)
(0.654164 -1.60934 0)
(0.655193 -1.60872 0)
(0.655637 -1.60824 0)
(0.655566 -1.60802 0)
(0.654837 -1.60808 0)
(0.653461 -1.60865 0)
(0.652694 -1.60902 0)
(0.652606 -1.60914 0)
(0.653269 -1.60913 0)
(0.65515 -1.60858 0)
(0.656531 -1.60814 0)
(0.656906 -1.60811 0)
(0.65611 -1.60841 0)
(0.653958 -1.60912 0)
(0.6523 -1.60977 0)
(0.651229 -1.61015 0)
(0.651281 -1.60985 0)
(0.653434 -1.60821 0)
(0.655344 -1.60492 0)
(0.655028 -1.60132 0)
(0.652066 -1.59811 0)
(0.646819 -1.59588 0)
(0.641615 -1.59416 0)
(0.638056 -1.58921 0)
(0.63503 -1.58143 0)
(0.632901 -1.57124 0)
(0.630973 -1.55884 0)
(0.627214 -1.54495 0)
(0.619766 -1.53234 0)
(0.608879 -1.52132 0)
(0.598215 -1.50671 0)
(0.589665 -1.4903 0)
(0.582918 -1.47469 0)
(0.579075 -1.46047 0)
(0.576379 -1.44345 0)
(0.570999 -1.42372 0)
(0.559194 -1.40184 0)
(0.544351 -1.37374 0)
(0.531839 -1.35261 0)
(0.521213 -1.33994 0)
(0.515535 -1.32851 0)
(0.509803 -1.29358 0)
(0.492669 -1.21655 0)
(0.46854 -1.08022 0)
(0.55471 -0.976801 0)
(0.63064 -0.507414 0)
(0.670806 -0.33566 0)
(0.680156 -0.291683 0)
(0.682133 -0.282225 0)
(0.682533 -0.280219 0)
(0.68263 -0.279827 0)
(0.682675 -0.279786 0)
(0.682688 -0.279796 0)
(0.682704 -0.279807 0)
(0.682726 -0.279847 0)
(0.682764 -0.279883 0)
(0.682802 -0.279929 0)
(0.682829 -0.279977 0)
(0.682838 -0.280022 0)
(0.682839 -0.280051 0)
(0.682846 -0.280066 0)
(0.682869 -0.28009 0)
(0.682893 -0.280126 0)
(0.682907 -0.280143 0)
(0.682933 -0.280121 0)
(0.683002 -0.280128 0)
(0.683136 -0.280262 0)
(0.683407 -0.280421 0)
(0.683833 -0.280627 0)
(0.684215 -0.281103 0)
(0.685029 -0.281336 0)
(0.686123 -0.282038 0)
(0.687324 -0.282814 0)
(0.6884 -0.28329 0)
(0.688978 -0.283448 0)
(0.689094 -0.28344 0)
(0.688937 -0.283536 0)
(0.68855 -0.283322 0)
(0.688187 -0.282483 0)
(0.687071 -0.281952 0)
(0.685206 -0.281588 0)
(0.683001 -0.280084 0)
(0.680814 -0.278048 0)
(0.677105 -0.277084 0)
(0.6728 -0.274964 0)
(0.668783 -0.271759 0)
(0.663458 -0.269721 0)
(0.657511 -0.266989 0)
(0.652004 -0.263077 0)
(0.645364 -0.260438 0)
(0.638654 -0.256798 0)
(0.631848 -0.253254 0)
(0.624864 -0.249594 0)
(0.617506 -0.246326 0)
(0.610619 -0.242187 0)
(0.603089 -0.239069 0)
(0.595955 -0.234986 0)
(0.588351 -0.231746 0)
(0.581189 -0.227727 0)
(0.573601 -0.224551 0)
(0.566444 -0.220556 0)
(0.558818 -0.217434 0)
(0.551642 -0.213447 0)
(0.543999 -0.210397 0)
(0.536837 -0.206443 0)
(0.529204 -0.203454 0)
(0.522042 -0.199539 0)
(0.514401 -0.1966 0)
(0.507228 -0.192709 0)
(0.499567 -0.189818 0)
(0.492376 -0.185957 0)
(0.484701 -0.183103 0)
(0.477499 -0.179281 0)
(0.469821 -0.176472 0)
(0.462636 -0.172665 0)
(0.454939 -0.169936 0)
(0.447751 -0.166127 0)
(0.440035 -0.163439 0)
(0.432762 -0.159701 0)
(0.42504 -0.156938 0)
(0.417695 -0.153324 0)
(0.410011 -0.15053 0)
(0.402694 -0.146998 0)
(0.395061 -0.144251 0)
(0.387775 -0.140764 0)
(0.380157 -0.138046 0)
(0.372846 -0.134612 0)
(0.365203 -0.131874 0)
(0.357804 -0.128508 0)
(0.350128 -0.125715 0)
(0.342648 -0.122432 0)
(0.334966 -0.119598 0)
(0.327439 -0.116393 0)
(0.319766 -0.113541 0)
(0.312225 -0.110403 0)
(0.304557 -0.107554 0)
(0.296987 -0.104468 0)
(0.289322 -0.101624 0)
(0.281733 -0.0985905 0)
(0.274078 -0.0957567 0)
(0.266493 -0.0927767 0)
(0.25886 -0.0899675 0)
(0.251295 -0.0870358 0)
(0.243689 -0.0842564 0)
(0.236152 -0.0813718 0)
(0.228566 -0.0786273 0)
(0.221043 -0.0757735 0)
(0.213463 -0.0730627 0)
(0.205932 -0.0702381 0)
(0.198349 -0.0675457 0)
(0.190799 -0.0647563 0)
(0.183212 -0.0620732 0)
(0.175642 -0.059324 0)
(0.168058 -0.0566501 0)
(0.160482 -0.0539448 0)
(0.15291 -0.0512846 0)
(0.145347 -0.0486246 0)
(0.137797 -0.0459883 0)
(0.130262 -0.0433683 0)
(0.122743 -0.0407671 0)
(0.115244 -0.038185 0)
(0.107766 -0.0356222 0)
(0.100305 -0.0330741 0)
(0.0928863 -0.0305562 0)
(0.0855765 -0.0280847 0)
(0.0783885 -0.0256634 0)
(0.0713331 -0.0232957 0)
(0.0644303 -0.0209876 0)
(0.0577085 -0.018748 0)
(0.0512037 -0.0165883 0)
(0.0449586 -0.0145219 0)
(0.0390207 -0.0125639 0)
(0.0334398 -0.0107301 0)
(0.0282649 -0.00903607 0)
(0.0235397 -0.0074954 0)
(0.0192983 -0.00611845 0)
(0.0155617 -0.00491109 0)
(0.012335 -0.00387379 0)
(0.00960653 -0.00300147 0)
(0.0073489 -0.00228385 0)
(0.00552157 -0.00170654 0)
(0.00407491 -0.00125236 0)
(0.00295444 -0.000902852 0)
(0.00210511 -0.000639635 0)
(0.00147465 -0.000445519 0)
(0.00101606 -0.000305233 0)
(0.000688946 -0.000205803 0)
(0.000459942 -0.000136633 0)
(0.000302481 -8.93647e-05 0)
(0.000196059 -5.76113e-05 0)
(0.000125308 -3.66258e-05 0)
(7.90088e-05 -2.29723e-05 0)
(4.91655e-05 -1.42216e-05 0)
(3.02073e-05 -8.69342e-06 0)
(1.83314e-05 -5.24925e-06 0)
(1.09917e-05 -3.13198e-06 0)
(6.5142e-06 -1.84714e-06 0)
(3.81699e-06 -1.07714e-06 0)
(2.21192e-06 -6.21241e-07 0)
(1.26802e-06 -3.5447e-07 0)
(7.19276e-07 -2.00143e-07 0)
(4.03819e-07 -1.11852e-07 0)
(2.24437e-07 -6.1885e-08 0)
(1.23513e-07 -3.39049e-08 0)
(6.73175e-08 -1.83972e-08 0)
(3.63431e-08 -9.88887e-09 0)
(1.9439e-08 -5.26639e-09 0)
(1.03028e-08 -2.77923e-09 0)
(5.41182e-09 -1.45373e-09 0)
(2.81773e-09 -7.53669e-10 0)
(1.45442e-09 -3.87439e-10 0)
(7.44351e-10 -1.97445e-10 0)
(3.77763e-10 -9.98055e-11 0)
(1.90142e-10 -5.00276e-11 0)
(9.49203e-11 -2.48676e-11 0)
(4.70099e-11 -1.22742e-11 0)
(2.30967e-11 -5.99961e-12 0)
(1.12543e-11 -2.91285e-12 0)
(5.44171e-12 -1.40614e-12 0)
(2.61076e-12 -6.66407e-13 0)
(1.24082e-12 -3.18111e-13 0)
(5.84672e-13 -1.48995e-13 0)
(2.71967e-13 -6.73309e-14 0)
(1.23974e-13 -3.04681e-14 0)
(5.48776e-14 -1.29984e-14 0)
(2.32288e-14 -4.85252e-15 0)
(8.85204e-15 -9.3774e-16 0)
(2.0732e-15 -6.07271e-17 0)
(3.44591e-16 0 0)
(3.95432e-17 0 0)
(0 0 0)
(0 0 0)
(0 0 0)
(0 0 0)
(0 0 0)
(0 0 0)
(0 0 0)
(0 0 0)
(0 0 0)
(0 0 0)
(0 0 0)
(0 0 0)
(0 0 0)
(0 0 0)
(0 0 0)
(0 0 0)
(0 0 0)
(0 0 0)
(0 0 0)
(0 0 0)
(0 0 0)
(0 0 0)
(0 0 0)
(0 0 0)
(0 0 0)
(0 0 0)
(0 0 0)
(0 0 0)
(0 0 0)
(0 0 0)
(0 0 0)
(0 0 0)
(0 0 0)
(0 0 0)
(0 0 0)
(0 0 0)
(0 0 0)
(0 0 0)
(0 0 0)
(0 0 0)
(0 0 0)
(0 0 0)
(0 0 0)
(0 0 0)
(0 0 0)
(0 0 0)
(0 0 0)
(0 0 0)
(0 0 0)
(0 0 0)
(0 0 0)
(0 0 0)
(0 0 0)
(0 0 0)
(0 0 0)
(0 0 0)
(0 0 0)
(0 0 0)
(0 0 0)
(0 0 0)
(0 0 0)
(0 0 0)
(0 0 0)
(0 0 0)
(0 0 0)
(0 0 0)
(0 0 0)
(0 0 0)
(0 0 0)
(0 0 0)
(0 0 0)
(0 0 0)
(0 0 0)
(0 0 0)
(0 0 0)
(0 0 0)
(0 0 0)
(0 0 0)
(0 0 0)
(0 0 0)
(0 0 0)
(0 0 0)
(0 0 0)
(0 0 0)
(0 0 0)
(0 0 0)
(0 0 0)
(0 0 0)
(0 0 0)
(0 0 0)
(0 0 0)
(0 0 0)
(0 0 0)
(0 0 0)
(0 0 0)
(0 0 0)
(0 0 0)
(0 0 0)
(0 0 0)
(0 0 0)
(0 0 0)
(0 0 0)
(0 0 0)
(0 0 0)
(0 0 0)
(0 0 0)
(0 0 0)
(0 0 0)
(0 0 0)
(0 0 0)
(0 0 0)
(0 0 0)
(0 0 0)
(0 0 0)
(0 0 0)
(0 0 0)
(0 0 0)
(0 0 0)
(0 0 0)
(0 0 0)
(0 0 0)
(0 0 0)
(0 0 0)
(0 0 0)
(0 0 0)
(0 0 0)
(0 0 0)
(0 0 0)
(0 0 0)
(0 0 0)
(0 0 0)
(0 0 0)
(0 0 0)
(0 0 0)
(0 0 0)
(0 0 0)
(0 0 0)
(0 0 0)
(0 0 0)
(0 0 0)
(0 0 0)
(0 0 0)
(0 0 0)
(0 0 0)
(0 0 0)
(0 0 0)
(0 0 0)
(0 0 0)
(0 0 0)
(0 0 0)
(0 0 0)
(0 0 0)
(0 0 0)
(0 0 0)
(0 0 0)
(0 0 0)
(0 0 0)
(0 0 0)
(0 0 0)
(0 0 0)
(0 0 0)
(0 0 0)
(0 0 0)
(0 0 0)
(0 0 0)
(0 0 0)
(0 0 0)
(0 0 0)
(0 0 0)
(0 0 0)
(0 0 0)
(0 0 0)
(0 0 0)
(0 0 0)
(0 0 0)
(0 0 0)
(0 0 0)
(0 0 0)
(0 0 0)
(0 0 0)
(0 0 0)
(0 0 0)
(0 0 0)
(0 0 0)
(0 0 0)
(0 0 0)
(0 0 0)
(0 0 0)
(0 0 0)
(0 0 0)
(0 0 0)
(0 0 0)
(0 0 0)
(0 0 0)
(0 0 0)
(0 0 0)
(0 0 0)
(0 0 0)
(0 0 0)
(0 0 0)
(0 0 0)
(0 0 0)
(0 0 0)
(0 0 0)
(0 0 0)
(0 0 0)
(0 0 0)
(0 0 0)
(0 0 0)
(0 0 0)
(0 0 0)
(0 0 0)
(0 0 0)
(0 0 0)
(0 0 0)
(0 0 0)
(0 0 0)
(0 0 0)
(0 0 0)
(0 0 0)
(0 0 0)
(0 0 0)
(0 0 0)
(0 0 0)
(0 0 0)
(0 0 0)
(0 0 0)
(0 0 0)
(0 0 0)
(0 0 0)
(0 0 0)
(0 0 0)
(0 0 0)
(0 0 0)
(0 0 0)
(0 0 0)
(0 0 0)
(0 0 0)
(0 0 0)
(0 0 0)
(0 0 0)
(0 0 0)
(0 0 0)
(0 0 0)
(0 0 0)
(0 0 0)
(0 0 0)
(0 0 0)
(0 0 0)
(0 0 0)
(0 0 0)
(0 0 0)
(0 0 0)
(0 0 0)
(0 0 0)
(0 0 0)
(0 0 0)
(0 0 0)
(0 0 0)
(0 0 0)
(0 0 0)
(0 0 0)
(0 0 0)
(0 0 0)
(0 0 0)
(0 0 0)
(0 0 0)
(0 0 0)
(0 0 0)
(0 0 0)
(0 0 0)
(0 0 0)
(0 0 0)
(0 0 0)
(0 0 0)
(0 0 0)
(0 0 0)
(0 0 0)
(0 0 0)
(0 0 0)
(0 0 0)
(0 0 0)
(0 0 0)
(0 0 0)
(0 0 0)
(0 0 0)
(0 0 0)
(0 0 0)
(0 0 0)
(0 0 0)
(0 0 0)
(0 0 0)
(0 0 0)
(0 0 0)
(0 0 0)
(0 0 0)
(0 0 0)
(0 0 0)
(0 0 0)
(0 0 0)
)
;

boundaryField
{
    front-back
    {
        type            empty;
    }
    inlet-outlet
    {
        type            zeroGradient;
    }
    top-down
    {
        type            empty;
    }
}


// ************************************************************************* //
