/*--------------------------------*- C++ -*----------------------------------*\
| =========                 |                                                 |
| \\      /  F ield         | OpenFOAM: The Open Source CFD Toolbox           |
|  \\    /   O peration     | Version:  2.2.x                                 |
|   \\  /    A nd           | Web:      www.OpenFOAM.org                      |
|    \\/     M anipulation  |                                                 |
\*---------------------------------------------------------------------------*/
FoamFile
{
    version     2.0;
    format      ascii;
    class       surfaceScalarField;
    location    "0.04";
    object      cfmax;
}
// * * * * * * * * * * * * * * * * * * * * * * * * * * * * * * * * * * * * * //

dimensions      [0 3 -1 0 0 0 0];

internalField   nonuniform List<scalar> 
1023
(
3.927
3.927
3.927
3.927
3.927
3.927
3.927
3.927
3.927
3.927
3.927
3.927
3.927
3.927
3.927
3.927
3.927
3.927
3.927
3.927
3.927
3.927
3.927
3.927
3.927
3.927
3.927
3.927
3.927
3.927
3.927
3.927
3.927
3.927
3.927
3.927
3.927
3.927
3.927
3.927
3.927
3.927
3.927
3.927
3.927
3.927
3.927
3.927
3.927
3.927
3.927
3.927
3.927
3.927
3.927
3.927
3.927
3.927
3.927
3.927
3.927
3.927
3.927
3.927
3.927
3.927
3.927
3.927
3.927
3.927
3.927
3.927
3.927
3.927
3.927
3.927
3.927
3.927
3.927
3.927
3.927
3.927
3.927
3.927
3.927
3.927
3.927
3.927
3.927
3.927
3.927
3.927
3.927
3.927
3.927
3.927
3.927
3.927
3.927
3.927
3.927
3.927
3.927
3.927
3.927
3.927
3.927
3.927
3.927
3.927
3.927
3.927
3.927
3.927
3.927
3.927
3.927
3.927
3.927
3.927
3.927
3.927
3.927
3.927
3.927
3.927
3.927
3.927
3.927
3.927
3.927
3.927
3.927
3.927
3.927
3.927
3.927
3.927
3.927
3.927
3.927
3.927
3.927
3.927
3.927
3.927
3.927
3.927
3.927
3.927
3.927
3.927
3.927
3.927
3.927
3.927
3.927
3.927
3.927
3.927
3.927
3.927
3.927
3.927
3.927
3.927
3.927
3.927
3.927
3.927
3.927
3.927
3.927
3.927
3.927
3.927
3.927
3.927
3.927
3.927
3.927
3.927
3.927
3.927
3.927
3.927
3.927
3.927
3.927
3.927
3.927
3.927
3.927
3.927
3.927
3.927
3.927
3.927
3.927
3.927
3.927
3.927
3.927
3.927
3.927
3.927
3.927
3.927
3.927
3.927
3.927
3.927
3.927
3.927
3.927
3.927
3.927
3.927
3.927
3.927
3.927
3.927
3.927
3.927
3.927
3.927
3.927
3.927
3.927
3.927
3.927
3.927
3.927
3.927
3.927
3.927
3.927
3.927
3.927
3.927
3.927
3.927
3.927
3.927
3.927
3.927
3.927
3.927
3.927
3.927
3.927
3.927
3.927
3.927
3.927
3.927
3.927
3.927
3.927
3.927
3.927
3.927
3.927
3.927
3.927
3.927
3.927
3.927
3.927
3.927
3.927
3.927
3.927
3.927
3.927
3.927
3.927
3.927
3.927
3.927
3.927
3.927
3.927
3.927
3.927
3.927
3.927
3.927
3.927
3.927
3.927
3.927
3.927
3.927
3.927
3.927
3.927
3.927
3.927
3.927
3.927
3.927
3.927
3.927
3.927
3.927
3.927
3.927
3.927
3.927
3.927
3.927
3.927
3.927
3.927
3.927
3.927
3.927
3.927
3.927
3.927
3.927
3.927
3.927
3.927
3.927
3.927
3.927
3.927
3.927
3.927
3.927
3.927
3.927
3.927
3.927
3.927
3.927
3.927
3.927
3.927
3.927
3.927
3.927
3.92701
3.92701
3.92701
3.92701
3.927
3.927
3.92701
3.92702
3.92706
3.92712
3.92724
3.92745
3.92785
3.9285
3.92967
3.93147
3.93459
3.93763
3.94697
3.94644
3.95462
3.95764
3.96459
3.96466
3.97133
3.97417
3.97893
3.98095
3.98463
3.98822
3.99304
3.99708
4.00205
4.00495
4.01132
4.01511
4.01804
4.02103
4.02533
4.03115
4.03125
4.03738
4.04026
4.04222
4.04247
4.0455
4.04866
4.04696
4.04797
4.04957
4.05
4.04965
4.04974
4.0498
4.04824
4.0475
4.04555
4.04497
4.04331
4.04212
4.04124
4.0416
4.04198
4.04121
4.04097
4.04121
4.04188
4.04196
4.04319
4.0434
4.04371
4.0436
4.04389
4.04392
4.04392
4.04365
4.04319
4.04281
4.0417
4.04156
4.04075
4.04072
4.04062
4.03981
4.03919
4.03951
4.04043
4.04073
4.04204
4.04282
4.04271
4.04197
4.04172
4.04133
4.04105
4.04146
4.04167
4.04178
4.04175
4.0408
4.03943
4.03934
4.03897
4.03981
4.04018
4.04223
4.0436
4.04587
4.04126
4.00991
3.84519
2.95263
2.89948
2.95051
2.99823
3.00947
3.01043
3.009
3.01063
3.01161
3.01057
3.00824
3.00708
3.00633
3.0064
3.00756
3.01093
3.01476
3.01674
3.01729
3.01668
3.01522
3.01193
3.00722
2.99993
2.98923
2.97026
2.9351
2.87395
2.77884
2.65106
2.51905
2.43717
2.38623
2.35467
2.33506
2.3241
2.31874
2.31658
2.31748
2.31851
2.31684
2.31431
2.30925
2.30615
2.3046
2.30468
2.30783
2.31315
2.315
2.31463
2.30937
2.30474
2.30164
2.29875
2.29788
2.29856
2.29089
2.2757
2.24231
2.20948
2.17636
2.13882
2.10143
2.0651
2.0073
1.95794
1.86879
1.8006
1.77313
1.98088
2.10673
2.1372
2.14518
2.14944
2.15072
2.15275
2.1546
2.15529
2.15556
2.15483
2.15441
2.15239
2.14897
2.14401
2.13941
2.13274
2.12377
2.11669
2.10763
2.09718
2.08729
2.07661
2.06569
2.05509
2.04396
2.03308
2.02166
2.01056
1.99943
1.98859
1.97768
1.96662
1.95573
1.94424
1.93324
1.92198
1.91102
1.90026
1.8894
1.87851
1.86779
1.85678
1.84609
1.83522
1.82459
1.814
1.80352
1.79315
1.78288
1.77266
1.76292
1.75366
1.74495
1.73686
1.7295
1.72293
1.71723
1.71243
1.70852
1.70544
1.70311
1.7014
1.70019
1.69936
1.69882
1.69847
1.69825
1.69812
1.69804
1.698
1.69798
1.69796
1.69796
1.69795
1.69795
1.69795
1.69795
1.69795
1.69795
1.69795
1.69795
1.69795
1.69795
1.69795
1.69795
1.69795
1.69795
1.69795
1.69795
1.69795
1.69795
1.69795
1.69795
1.69795
1.69795
1.69795
1.69795
1.69795
1.69795
1.69795
1.69795
1.69795
1.69795
1.69795
1.69795
1.69795
1.69795
1.69795
1.69795
1.69795
1.69795
1.69795
1.69795
1.69795
1.69795
1.69795
1.69795
1.69795
1.69795
1.69795
1.69795
1.69795
1.69795
1.69795
1.69795
1.69795
1.69795
1.69795
1.69795
1.69795
1.69795
1.69795
1.69795
1.69795
1.69795
1.69795
1.69795
1.69795
1.69795
1.69795
1.69795
1.69795
1.69795
1.69795
1.69795
1.69795
1.69795
1.69795
1.69795
1.69795
1.69795
1.69795
1.69795
1.69795
1.69795
1.69795
1.69795
1.69795
1.69795
1.69795
1.69795
1.69795
1.69795
1.69795
1.69795
1.69795
1.69795
1.69795
1.69795
1.69795
1.69795
1.69795
1.69795
1.69795
1.69795
1.69795
1.69795
1.69795
1.69795
1.69795
1.69795
1.69795
1.69795
1.69795
1.69795
1.69795
1.69795
1.69795
1.69795
1.69795
1.69795
1.69795
1.69795
1.69795
1.69795
1.69795
1.69795
1.69795
1.69795
1.69795
1.69795
1.69795
1.69795
1.69795
1.69795
1.69795
1.69795
1.69795
1.69795
1.69795
1.69795
1.69795
1.69795
1.69795
1.69795
1.69795
1.69795
1.69795
1.69795
1.69795
1.69795
1.69795
1.69795
1.69795
1.69795
1.69795
1.69795
1.69795
1.69795
1.69795
1.69795
1.69795
1.69795
1.69795
1.69795
1.69795
1.69795
1.69795
1.69795
1.69795
1.69795
1.69795
1.69795
1.69795
1.69795
1.69795
1.69795
1.69795
1.69795
1.69795
1.69795
1.69795
1.69795
1.69795
1.69795
1.69795
1.69795
1.69795
1.69795
1.69795
1.69795
1.69795
1.69795
1.69795
1.69795
1.69795
1.69795
1.69795
1.69795
1.69795
1.69795
1.69795
1.69795
1.69795
1.69795
1.69795
1.69795
1.69795
1.69795
1.69795
1.69795
1.69795
1.69795
1.69795
1.69795
1.69795
1.69795
1.69795
1.69795
1.69795
1.69795
1.69795
1.69795
1.69795
1.69795
1.69795
1.69795
1.69795
1.69795
1.69795
1.69795
1.69795
1.69795
1.69795
1.69795
1.69795
1.69795
1.69795
1.69795
1.69795
1.69795
1.69795
1.69795
1.69795
1.69795
1.69795
1.69795
1.69795
1.69795
1.69795
1.69795
1.69795
1.69795
1.69795
1.69795
1.69795
1.69795
1.69795
1.69795
1.69795
1.69795
1.69795
1.69795
1.69795
1.69795
1.69795
1.69795
1.69795
1.69795
1.69795
1.69795
1.69795
1.69795
1.69795
1.69795
1.69795
1.69795
1.69795
1.69795
1.69795
1.69795
1.69795
1.69795
1.69795
1.69795
1.69795
1.69795
1.69795
1.69795
1.69795
1.69795
1.69795
1.69795
1.69795
1.69795
1.69795
1.69795
1.69795
1.69795
1.69795
1.69795
1.69795
1.69795
1.69795
1.69795
1.69795
1.69795
1.69795
1.69795
1.69795
1.69795
1.69795
1.69795
1.69795
1.69795
1.69795
1.69795
1.69795
1.69795
1.69795
1.69795
1.69795
1.69795
1.69795
1.69795
1.69795
1.69795
1.69795
1.69795
1.69795
1.69795
1.69795
1.69795
1.69795
1.69795
1.69795
1.69795
1.69795
1.69795
1.69795
1.69795
1.69795
1.69795
1.69795
1.69795
1.69795
1.69795
1.69795
1.69795
1.69795
1.69795
1.69795
1.69795
1.69795
1.69795
1.69795
1.69795
1.69795
1.69795
1.69795
1.69795
1.69795
1.69795
1.69795
1.69795
1.69795
1.69795
1.69795
1.69795
1.69795
1.69795
1.69795
1.69795
1.69795
1.69795
1.69795
1.69795
1.69795
1.69795
1.69795
1.69795
1.69795
1.69795
1.69795
1.69795
1.69795
1.69795
1.69795
1.69795
1.69795
1.69795
1.69795
1.69795
1.69795
1.69795
1.69795
1.69795
1.69795
1.69795
1.69795
1.69795
1.69795
1.69795
1.69795
1.69795
1.69795
1.69795
1.69795
1.69795
1.69795
1.69795
1.69795
1.69795
1.69795
1.69795
1.69795
1.69795
1.69795
1.69795
1.69795
1.69795
1.69795
1.69795
1.69795
1.69795
1.69795
1.69795
1.69795
)
;

boundaryField
{
    front-back
    {
        type            empty;
        value           nonuniform 0();
    }
    inlet-outlet
    {
        type            calculated;
        value           nonuniform List<scalar> 2(1.69795 3.927);
    }
    top-down
    {
        type            empty;
        value           nonuniform 0();
    }
}


// ************************************************************************* //
